LAMMPS data file via write_data, version 4 Feb 2025, timestep = 10000, units = lj

40 atoms
4 atom types
30 bonds
1 bond types
35 angles
2 angle types

-2.265589 2.265589 xlo xhi
-2.265589 2.265589 ylo yhi
-2.265589 2.265589 zlo zhi
0 0 0 xy xz yz

Masses

1 1
2 1
3 0.1
4 0.1

Bond Coeffs # harmonic/omp

1 100 0.45

Angle Coeffs # harmonic/omp

1 100 180
2 100 109.471

Atoms # full

1 1 1 0 -2.022464063799961 -0.32398321526378826 -1.576995061213661 1 0 0
4 1 3 0 -1.840123146309141 -0.22959610971933397 -1.9768869186776545 1 0 0
5 1 3 0 -1.7412941767647694 -0.24726532126339018 -1.27687969121937 1 0 0
17 4 3 0 -1.3916946525141454 -0.8702190567694696 -2.132733438299911 1 0 1
3 1 3 0 -2.144166988614039 -0.759647281476687 -1.5686298839304182 1 0 0
33 8 4 0 -1.487644357154486 -0.05899718844636137 -1.016287663858648 1 0 0
32 8 2 0 -1.0861674926713485 -0.012912202238297699 -0.8286327199638981 1 0 0
38 10 2 0 -0.03320276219420748 -0.12175763011602658 -0.5238794328669028 1 0 0
20 4 3 0 -1.1365733745648712 -1.441636612293633 1.9234385613805842 1 0 0
18 4 3 0 -1.8248552298725247 -1.1030143976142832 1.809921134293774 1 0 0
19 4 3 0 -1.1919732508993277 -0.7239192468769242 1.6980680832377701 1 0 0
16 4 1 0 -1.385055268858311 -1.0287623019259349 1.9594857852130398 1 0 0
36 9 4 0 -0.9138348055657848 -0.09176150103452985 2.216937736277869 1 0 0
39 10 4 0 -0.3591942523275542 0.19820981802877347 -0.5178878497375285 1 0 0
34 8 4 0 -0.6966164111814945 0.030869262658718366 -0.6632062376912535 1 0 0
23 5 3 0 -1.3887309161573362 0.20889192522801414 0.7305146670754659 2 0 0
21 5 1 0 -1.3748799113971746 0.6502674710784873 0.898600246192049 2 0 0
24 5 3 0 -1.7090511854007675 0.8827342570341545 0.7263323456109232 2 0 0
25 5 3 0 -0.9896303309309404 0.8282919979140511 0.7890115878393842 2 0 0
22 5 3 0 -1.4113668391768797 0.6534615197400364 1.3334333915827825 2 0 0
37 9 4 0 -1.3811868816295019 0.3457598731212319 1.6026555373090838 1 0 0
35 9 2 0 -1.1334212618343344 0.11299392582782009 1.9262627327424178 1 0 0
2 1 3 0 2.1516575561851368 -0.06805929997441096 -1.5140174713907606 0 0 0
27 6 4 0 0.32792733086531145 -1.7192489020596138 -0.6510406155836828 0 0 0
26 6 2 0 0.5726177029728627 -1.322174245784219 -0.5511969700090633 0 0 0
9 2 3 0 1.854603246750988 -1.2649549192720067 -0.15527495355379184 0 0 0
28 6 4 0 0.8180283460713529 -0.9228139868563763 -0.4575972186298385 0 0 0
40 10 4 0 0.3016301040054614 -0.4653781532111283 -0.5195926049045165 1 0 0
14 3 3 0 1.831507937808762 -0.4641333714270517 -0.6702384515279978 1 0 0
10 2 3 0 1.1572587709952509 -1.0217010061971115 -0.28486341179731967 0 0 0
13 3 3 0 1.2478382472475609 -0.07129524874656079 -0.8991739159036105 1 0 0
11 3 1 0 1.6893043484930579 -0.0555771506189342 -0.741248158256467 1 0 0
6 2 1 0 1.5311424516847563 -0.9845244878178656 -0.015929449337879653 0 0 0
8 2 3 0 1.686388750311313 -0.5621526762758129 -0.030377928916874186 0 0 0
7 2 3 0 1.4195410721413397 -1.079941921254116 0.3873427890961523 0 0 0
30 7 4 0 0.8098552654345377 0.3907392576219695 -1.7443442440884256 1 0 0
29 7 2 0 0.7700146971949642 0.6989707390321289 -1.4413973207801218 1 0 0
31 7 4 0 0.7346701859222828 1.0121547052802895 -1.1390107198871375 1 0 0
15 3 3 0 1.7023914219438305 0.17104410047614493 -0.35477822859372843 1 0 0
12 3 3 0 1.9487332980520367 0.1331484291617535 -1.0430078740152644 1 0 0

Velocities

1 0.22284008263619165 0.07210930640217716 0.24995794973789176
4 1.3392049892719116 -0.10455290713099943 1.7002990807759186
5 0.362866987488319 -0.2713260036447254 -1.0317929740584644
17 -0.19844832246916808 0.5107743700150007 -0.34282948064731156
3 0.04192991868488122 -0.7898752370694658 0.25320876632065054
33 0.8990603066898318 -1.7066431068487646 -0.7268238631729013
32 0.475794356903895 0.1565788271072811 -0.2336061277493311
38 -0.17133232003560936 0.10326043700939866 0.41999395498613445
20 -0.3581278614203849 -1.385806622950894 0.0209327484786921
18 0.6572141356021982 0.6226800246960132 0.512844537952603
19 -1.710518815970642 0.40263143992165307 -0.30469047504326763
16 0.12275818752664235 -0.019862796843463905 -0.06701157794378813
36 0.12191787479628075 0.5659486344936192 0.2842988735886899
39 -0.6176235545249122 -2.188546144627319 -0.7759255788201072
34 1.040346245991667 0.3902172496800711 0.7310489447747236
23 0.26990043821952986 0.8779319611393144 -0.9833896861624399
21 0.36121996142744534 -0.09957539303417239 -0.107413297695382
24 0.9946041763333486 -0.8430019127813844 0.03470852410688377
25 -0.12932153253777928 0.4701588093322553 -0.5242606493680744
22 -0.05907436544190381 0.4407903038430415 -0.882215601342966
37 -0.1280278759299721 -0.14838127159927797 0.8744711257644967
35 0.06362535950272377 0.04698862502901399 -0.09234536577194621
2 0.5580355531981274 -0.24998189581103375 0.42002290537934683
27 -0.8063539773258862 -0.3701443724665056 0.22458831049153555
26 0.026705516349433772 -0.014858998604124679 -0.012507850219666918
9 0.6649819349991102 -0.5359129424056123 -0.42151055324978354
28 -0.2816203045769998 -0.3284817520317428 0.301878083863703
40 0.36351396809179276 -1.661953495976399 0.24649125170014582
14 -0.09055270853187367 -0.8947139180153932 -0.9994270297693386
10 0.2751164324997876 0.676075134459952 -0.2833850295685581
13 -0.39036713402345324 -0.3746791234635261 -0.970563119789164
11 0.2743155973970418 0.15209171417040845 0.13942789225931593
6 0.15795555098590366 0.09239605246483952 -0.1033875294830703
8 -0.24871555094707898 0.07387599262511772 -0.7888138008724458
7 0.8465132073064485 -0.015507620477120329 -0.1402105328697236
30 0.9403975438426531 -0.17651693034972593 -0.6339893359177559
29 0.33726699257143616 0.08634103270891337 0.22781087673563924
31 1.5338209403756253 0.7039734260926309 0.14098481542392416
15 1.2967809787537345 -0.1079671510339764 -0.2229089668068727
12 0.3340663547012631 0.6642068995344732 0.07775402482792307

Bonds

1 1 1 2
2 1 1 3
3 1 1 4
4 1 1 5
5 1 32 33
6 1 32 34
7 1 38 39
8 1 38 40
9 1 16 17
10 1 16 18
11 1 16 19
12 1 16 20
13 1 21 22
14 1 21 23
15 1 21 24
16 1 21 25
17 1 35 36
18 1 35 37
19 1 26 27
20 1 26 28
21 1 11 12
22 1 11 13
23 1 11 14
24 1 11 15
25 1 6 7
26 1 6 8
27 1 6 9
28 1 6 10
29 1 29 30
30 1 29 31

Angles

1 2 2 1 3
2 2 2 1 4
3 2 2 1 5
4 2 3 1 4
5 2 3 1 5
6 2 4 1 5
7 1 33 32 34
8 1 39 38 40
9 2 17 16 18
10 2 17 16 19
11 2 17 16 20
12 2 18 16 19
13 2 18 16 20
14 2 19 16 20
15 2 22 21 23
16 2 22 21 24
17 2 22 21 25
18 2 23 21 24
19 2 23 21 25
20 2 24 21 25
21 1 36 35 37
22 1 27 26 28
23 2 12 11 13
24 2 12 11 14
25 2 12 11 15
26 2 13 11 14
27 2 13 11 15
28 2 14 11 15
29 2 7 6 8
30 2 7 6 9
31 2 7 6 10
32 2 8 6 9
33 2 8 6 10
34 2 9 6 10
35 1 30 29 31
