LAMMPS data file via write_data, version 4 Feb 2025, timestep = 1000, units = lj

8 atoms
4 atom types
6 bonds
1 bond types
7 angles
2 angle types

-1.5 1.5 xlo xhi
-1.5 1.5 ylo yhi
-1.5 1.5 zlo zhi
0 0 0 xy xz yz

Masses

1 1
2 1
3 0.1
4 0.1

Bond Coeffs # harmonic/omp

1 100 0.45

Angle Coeffs # harmonic/omp

1 100 180
2 100 109.471

Atoms # full

3 1 3 0 0.263438943915981 -0.72758446227986 -0.8401106343099192 0 0 0
4 1 3 0 0.41501705057475635 -0.34650514295007495 -1.4444157177383024 0 0 0
1 1 1 0 0.5941897321821705 -0.5787843528738471 -1.120165030894766 0 0 0
2 1 3 0 0.8857948634064954 -0.3161644143000222 -0.8954197995671038 0 0 0
5 1 3 0 0.8153881079898206 -0.928043035496115 -1.302136574754884 0 0 0
6 2 2 0 0.2994870852899829 -0.4670794264080156 0.4328484973612359 0 0 0
8 2 4 0 -0.1287688375564917 -0.3858227100978042 0.4836331070394613 0 0 0
7 2 4 0 0.7242249495217203 -0.5419268253997724 0.3836940267001161 0 0 0

Velocities

3 0.6799215965095291 0.18563448071050923 -0.9559324234232847
4 0.8819699526760246 -0.7434575568475345 0.29269499486289163
1 0.711320185656251 0.11214270699232935 0.048324225253615856
2 -0.15243197875417902 -0.29351216890094206 -0.6807900073296873
5 -0.4977291585125633 -0.06940691939836427 0.04634501334182796
6 0.5525701923045039 -0.23281513402179943 0.13414152715025462
8 2.641143096920312 0.7632012595141346 0.4151239100168238
7 0.24397193856013144 1.158967320324013 -0.6692257066245036

Bonds

1 1 1 2
2 1 1 3
3 1 1 4
4 1 1 5
5 1 6 7
6 1 6 8

Angles

1 2 2 1 3
2 2 2 1 4
3 2 2 1 5
4 2 3 1 4
5 2 3 1 5
6 2 4 1 5
7 1 7 6 8
