LAMMPS data file via write_data, version 4 Feb 2025, timestep = 1000, units = lj

8 atoms
4 atom types
6 bonds
1 bond types
7 angles
2 angle types

-1.5 1.5 xlo xhi
-1.5 1.5 ylo yhi
-1.5 1.5 zlo zhi
0 0 0 xy xz yz

Masses

1 1
2 1
3 0.1
4 0.1

Bond Coeffs # harmonic/omp

1 100 0.45

Angle Coeffs # harmonic/omp

1 100 180
2 100 109.471

Atoms # full

3 1 3 0 0.2143889317409331 -0.7567989713785741 -0.8863314351710958 0 0 0
4 1 3 0 0.3125376814004972 -0.11928128515517233 -1.2585517638580357 0 0 0
1 1 1 0 0.5189911936703409 -0.49848413743770403 -1.0974576412780512 0 0 0
2 1 3 0 0.848253216341869 -0.37988540514985547 -0.8138187815955424 0 0 0
5 1 3 0 0.7027732916287421 -0.7422318508461865 -1.4533122516423294 0 0 0
6 2 2 0 0.38620266978223206 -0.5611074928604326 0.408320820377589 0 0 0
8 2 4 0 0.07203089431069443 -0.8196837546868527 0.5705903230993501 0 0 0
7 2 4 0 0.7099406026259225 -0.2908868131443152 0.24487119020635695 0 0 0

Velocities

3 1.0616910500962302 0.08540560776166901 -0.47480352892947203
4 1.288879074855212 0.7927129710221515 0.9501389736882174
1 0.5743071273204552 0.1108326780975476 -0.007506414078597626
2 -0.5040856133662743 -0.49873219976238725 0.82134680658217
5 0.14702760608218168 -0.19142679034128476 0.23425279419701833
6 0.6366970678348216 -0.18855059616855366 -0.2763265778883584
8 3.0050107320409714 0.9775301407771945 0.2094756690729186
7 -0.6728155742542825 -0.5936084036401744 1.3707925099414868

Bonds

1 1 1 2
2 1 1 3
3 1 1 4
4 1 1 5
5 1 6 7
6 1 6 8

Angles

1 2 2 1 3
2 2 2 1 4
3 2 2 1 5
4 2 3 1 4
5 2 3 1 5
6 2 4 1 5
7 1 7 6 8
