LAMMPS data file via write_data, version 29 Aug 2024, timestep = 500000, units = lj

4560 atoms
4 atom types
3060 bonds
1 bond types

-9.998647 9.998647 xlo xhi
-9.998647 9.998647 ylo yhi
-9.998647 9.998647 zlo zhi

Masses

1 1
2 1
3 0.5
4 0.5

Bond Coeffs # zero

1 0

Atoms # bond

3953 1298 4 -9.421255009067401 -9.54302077975341 -9.523673009625684 1 0 1
3952 1298 2 -9.741799088740123 -9.88779332686574 -9.355199321043722 1 0 1
1101 347 4 -8.671159625793134 -8.846044433208984 -9.781080024989883 0 0 0
186 42 4 -8.524201637669973 -8.48131009991329 -9.787797026780396 0 0 0
1423 455 2 -6.210108383322173 -9.029124061841188 -8.921598904844736 0 0 0
1424 455 4 -6.0186166522293165 -9.407630857383918 -9.186294055255503 0 0 0
3921 1287 4 -5.832508668332481 -9.15788594732836 -9.444417767810023 0 1 1
3919 1287 2 -5.503425009243971 -9.486520806342675 -9.628001739772621 0 1 1
1425 455 4 -6.40160011441503 -8.650617266298458 -8.656903754433968 0 0 0
1052 331 4 -6.230790974720282 9.96213204540117 -8.3913732708877 0 0 0
901 281 2 -3.99142319798483 -8.641616100293797 -9.879816624782261 0 0 0
902 281 4 -3.9169579869705133 -9.13028012124587 -9.955065591390884 0 0 0
1523 488 4 -3.9203702162057814 -9.436491959059369 -9.714577062952008 0 1 0
3920 1287 4 -5.174341350155461 -9.81515566535699 -9.81158571173522 0 1 1
1522 488 2 -3.748097701525123 -9.65345420366643 -9.29834447760982 0 1 0
1524 488 4 -3.5758251868444644 -9.87041644827349 -8.882111892267632 0 1 0
1314 418 4 -1.444693397386816 -9.935045855644 -8.664739009227894 0 1 0
642 194 4 -0.4647694717829834 -9.153204093395118 -8.655178514214413 0 1 0
378 106 4 3.658849294903486 -9.387188459752709 -8.828150525296405 0 1 0
376 106 2 3.945838090798151 -9.777651366702491 -8.951342040131122 0 1 0
492 144 4 5.290572616293998 -9.713125933629968 -9.386135485686406 0 1 0
490 144 2 5.374656357230247 -9.639676606478327 -8.89875973654502 0 1 0
491 144 4 5.458740098166496 -9.566227279326686 -8.411383987403635 0 1 0
793 245 2 9.66279757094967 8.89939508575362 -3.3670306835346935 -1 0 0
1373 438 4 5.727305924608506 -8.520725231221645 -8.448027874089894 0 0 0
537 159 4 7.340217115107651 -9.114549477671433 -9.172640839777406 -1 0 0
535 159 2 7.266026982626413 -8.627080878622651 -9.089754235408257 -1 0 0
1106 349 4 7.50844453051774 -8.669142625676596 -9.861641918300583 -1 1 0
184 42 2 -8.671861780380807 -8.009425135661518 -9.713493172454722 0 0 0
185 42 4 -8.81952192309164 -7.537540171409746 -9.639189318129048 0 0 0
4239 1393 4 -9.199149591358674 -7.575499464662191 -9.472963899825347 0 0 1
4237 1393 2 -9.385898304303574 -7.184327422130364 -9.722181377853712 0 0 1
1529 490 4 -7.120715827328068 -7.388609097711924 -9.027212753980514 0 0 0
1528 490 2 -6.639547835147854 -7.304287381562048 -8.920595628306991 0 0 0
1530 490 4 -6.158379842967641 -7.219965665412173 -8.813978502633468 0 0 0
720 220 4 -5.8402573399684945 -7.412124273559837 -8.69427102680112 0 0 0
903 281 4 -4.065888408999147 -8.152952079341725 -9.804567658173639 0 0 0
3203 1048 4 -4.080034375266903 -7.176415766671573 -9.808819105903943 0 0 1
3202 1048 2 -3.6239277315092933 -7.379390492850608 -9.83653173935474 0 0 1
3204 1048 4 -3.167821087751683 -7.5823652190296436 -9.864244372805537 0 0 1
198 46 4 -2.856350566753259 -7.380667077612835 -9.782656758743114 0 0 0
196 46 2 -2.50612565718361 -7.6337857818589825 -9.531114646408266 0 0 0
197 46 4 -2.1559007476139613 -7.88690448610513 -9.279572534073418 0 0 0
992 311 4 -1.8601377323777677 -7.880034201873929 -8.988467342718646 0 1 0
991 311 2 -1.7795693274255824 -7.521857942178033 -8.649028837074688 0 1 0
993 311 4 -1.6990009224733982 -7.163681682482137 -8.30959033143073 0 1 0
4472 1471 4 0.34101418390088045 -8.185616062413057 -9.044475551404581 0 1 1
3909 1283 4 0.09448765604168158 -7.944905128297164 -9.250127956436243 0 0 1
3907 1283 2 -0.28600881191499106 -7.685170716995104 -9.444448499503997 0 0 1
4471 1471 2 0.6380701827509004 -8.295450881011428 -8.65757240309649 0 1 1
3908 1283 4 -0.6665052798716637 -7.425436305693043 -9.63876904257175 0 0 1
3595 1179 2 2.8663162656285213 -8.35339152528133 -9.714612690030672 0 0 1
3597 1179 4 3.1732885276551697 -8.367536352044997 -9.320191653292017 0 0 1
842 261 4 3.590950926345742 -6.919895537048409 -8.462682544996113 0 0 0
841 261 2 3.4553254963733493 -7.395075349291234 -8.386459918554317 0 0 0
1335 425 4 4.705297657277542 -7.32619004975444 -9.929172732459907 0 0 0
1334 425 4 5.229531455336112 -7.857884358729875 -9.263980965541478 0 0 0
1333 425 2 4.967414556306826 -7.592037204242157 -9.596576849000693 0 0 0
965 302 4 6.1983974860637625 -7.632888040411616 -9.20702882002033 0 0 0
780 240 4 5.873186326586624 -7.398344970745079 -9.15683285898356 0 0 0
964 302 2 6.6855897617141125 -7.690994525995816 -9.11076188447313 0 0 0
778 240 2 5.825077847782892 -6.929597451302878 -8.989616420545369 0 0 0
536 159 4 7.191836850145175 -8.13961227957387 -9.006867631039109 -1 0 0
966 302 4 7.172782037364463 -7.7491010115800165 -9.014494948925929 0 0 0
1103 348 4 8.463813056046657 -7.964254433627473 -8.567470443945767 0 0 0
393 111 4 9.539628815810168 -7.190811248920825 -9.376392900949355 -1 1 0
391 111 2 9.257195242241048 -7.010654387963546 -9.005212645586571 -1 1 0
662 201 4 -7.540970649107175 -5.465762156291308 -9.567084263151655 0 0 0
4520 1487 4 -7.394714519124973 -5.768888267078969 -9.781609677386793 0 0 1
3146 1029 4 -5.8272234890340835 -6.245521691707863 -8.372477343813827 0 0 1
3771 1237 4 -3.144381607996861 -5.781371800875 -9.797937092121186 0 0 1
3769 1237 2 -3.003238998449247 -6.259478146164325 -9.759296616397716 0 0 1
3770 1237 4 -2.862096388901633 -6.737584491453649 -9.720656140674246 0 0 1
3393 1111 4 -3.498832948480095 -5.771487312846386 -9.993698630285692 0 0 1
3933 1291 4 -3.456199654127453 -5.707289711224343 -8.789139426890472 0 0 1
741 227 4 -1.8173611590812915 -5.445689094454601 -8.459754291889501 0 0 0
739 227 2 -1.4394254499785155 -5.720822906643233 -8.63714083358721 0 0 0
740 227 4 -1.0614897408757396 -5.995956718831864 -8.81452737528492 0 0 0
759 233 4 -0.7814261984420275 -6.186447762448102 -8.62030913324721 0 0 0
4167 1369 4 -0.7739703582027992 -6.673535792832058 -9.833140121290729 0 1 1
4165 1369 2 -0.6521299578692299 -6.266231450227099 -9.569970804421088 0 1 1
4166 1369 4 -0.5302895575356605 -5.858927107622139 -9.306801487551446 0 1 1
4151 1364 4 0.8352316632213771 -6.1276155279769196 -9.616069432704078 0 0 1
4150 1364 2 0.9364280330054529 -6.144968515619533 -9.126724801015584 0 0 1
4152 1364 4 1.0376244027895287 -6.162321503262147 -8.63738016932709 0 0 1
824 255 4 3.277526224487267 -6.68440162423588 -8.519176898200593 0 0 0
333 91 4 4.73498620237711 -5.602152299293698 -9.87018519416271 0 0 0
1386 442 4 4.393855059457491 -5.416010346648537 -9.78946623741088 0 0 0
779 240 4 5.77696936897916 -6.460849931860677 -8.822399982107179 0 0 0
1227 389 4 5.780614235619925 -6.129773478431219 -9.785166310654859 0 0 0
1552 498 2 7.253918752570597 -6.413709386228112 -9.732911705415392 0 0 0
1554 498 4 7.229999104739177 -6.023641226712585 -9.421022812731305 0 0 0
4274 1405 4 7.312089451854619 -6.211381477010917 -9.076140110477981 0 0 1
4273 1405 2 7.201207226763368 -5.914625571987347 -8.689305436498897 0 0 1
4275 1405 4 7.0903250016721175 -5.617869666963777 -8.302470762519812 0 0 1
392 111 4 8.974761668671928 -6.830497527006267 -8.634032390223787 -1 1 0
794 245 4 9.300844387407029 8.928177971180325 -3.7107768666843 -1 0 0
661 201 2 -7.208524887019726 -5.246693598523941 -9.264613136813988 0 0 0
663 201 4 -6.876079124932277 -5.027625040756575 -8.962142010476322 0 0 0
354 98 4 -6.595907995524968 -5.086158437230913 -8.640907424895827 0 0 0
4335 1425 4 -6.65230124894833 -3.944447360023137 -9.29521249140083 0 0 1
210 50 4 -6.278142281538107 -3.9685445465449716 -9.307402100690496 0 0 0
4055 1332 4 -4.48685270911371 -4.060299728489109 -8.216021698737778 0 0 1
3931 1291 2 -3.177075390357039 -5.366444536610936 -9.02560128917981 0 0 1
3932 1291 4 -2.897951126586625 -5.0255993619975285 -9.26206315146915 0 0 1
1568 503 4 -2.491145228366593 -5.124331987460204 -9.182182793201855 0 0 0
1115 352 4 -2.47270062999522 -3.980820303451343 -8.984938236359433 0 0 0
983 308 4 -2.5683987830567574 -4.066902332988465 -8.584003593566738 0 0 0
1567 503 2 -2.068343376879573 -5.187363740679858 -9.44153890449504 0 0 0
1114 352 2 -1.982908576786718 -4.080150897901759 -9.000338808426413 0 0 0
1569 503 4 -1.6455415253925532 -5.250395493899512 -9.700895015788225 0 0 0
28 6 3 -1.2278151282300693 -3.8600210027148023 -8.928177384285037 0 0 0
1116 352 4 -1.4931165235782158 -4.179481492352175 -9.015739380493393 0 0 0
1514 485 4 0.584235284912221 -4.438477294471231 -8.875624056436676 0 0 0
1513 485 2 0.11775570491075948 -4.300361110852479 -8.760208627379967 0 0 0
1515 485 4 -0.348723875090702 -4.1622449272337265 -8.644793198323258 0 0 0
27 6 3 -0.4905152790138774 -3.998225100439513 -8.974959429109576 0 0 0
152 31 4 0.872474686218959 -4.2564672143315185 -8.619926738304766 0 0 0
1363 435 2 4.241202670402534 -3.874620549556641 -9.029528485758261 0 0 0
1365 435 4 4.335280145406441 -4.362609756861762 -8.974610708575533 0 0 0
1385 442 4 4.201761213679668 -4.578468225678222 -9.27797513287947 0 0 0
1384 442 2 4.297808136568579 -4.99723928616338 -9.533720685145175 0 0 0
697 213 2 5.03190670176387 -4.9841923314786625 -8.420927842067742 0 0 0
698 213 4 4.655299220629976 -4.659873706544957 -8.366299692957629 0 0 0
699 213 4 5.408514182897765 -5.308510956412368 -8.475555991177856 0 0 0
845 262 4 5.773442511421893 -5.199675771185422 -8.374830337720962 0 0 0
3117 1019 4 8.059403589768724 -4.217980085120479 -9.82423315540216 0 0 1
4171 1371 2 9.246098856650038 -4.143949506294357 -9.913324625555981 -1 0 1
4172 1371 4 9.320721210911724 -4.31233157002623 -9.448481657600166 -1 0 1
4405 1449 2 -9.187961362696061 -3.055390910958992 -9.94183208470254 1 0 1
729 223 4 -9.54037044125939 -3.7256786225588594 -9.738085934661246 0 0 0
4407 1449 4 -8.869386550984515 -2.6746925409709954 -9.882008674306208 1 0 1
4334 1425 4 -7.586516908269877 -3.672325645324278 -9.525843959911267 0 0 1
4333 1425 2 -7.119409078609103 -3.8083865026737076 -9.41052822565605 0 0 1
3474 1138 4 -7.876492572279673 -2.6919714285990786 -8.54275940810657 0 0 1
3135 1025 4 -7.984314969014102 -3.7377175117325727 -9.636351554660601 0 0 1
3472 1138 2 -8.0953670586114 -3.1307252522067994 -8.444835756710908 0 0 1
3133 1025 2 -8.083486058296257 -3.2801859767414596 -9.811936262250171 0 0 1
3134 1025 4 -8.182657147578412 -2.8226544417503465 -9.987520969839741 0 0 1
747 229 4 -7.893481656798677 -2.5510061853334745 -9.942091380987485 0 0 0
120 24 3 -6.484140478850558 -2.931962258439172 -9.76990387224912 0 0 1
208 50 2 -5.850727185351488 -3.7190130616961143 -9.236336119934549 0 0 0
209 50 4 -5.4233120891648685 -3.469481576847257 -9.165270139178602 0 0 0
3627 1189 4 -5.110346320024591 -3.2542020653772306 -8.993293314358333 0 0 1
3625 1189 2 -4.850854628307488 -3.4584807613363546 -8.617881172430344 0 0 1
982 308 2 -2.8481940497437037 -3.689425343637948 -8.413048244863266 0 0 0
26 6 1 -0.8054865317915815 -3.7001874280452665 -8.82144507877875 0 0 0
30 6 3 -0.7379674707990537 -3.2955032210114683 -9.019111132971535 0 0 0
29 6 3 -0.762759817236511 -3.6606305843502644 -8.361108588827918 0 0 0
1532 491 4 -0.14628170164086607 -3.539668357320022 -9.46752959438685 0 0 0
1531 491 2 -0.026804525814031237 -3.411055068676248 -9.935700317991728 0 0 0
3576 1172 4 1.2300278133186604 -2.691462296773721 -9.809214445208815 0 0 1
3574 1172 2 1.6690286377726455 -2.4529244769393173 -9.82865627221969 0 0 1
3721 1221 2 3.76822394250293 -2.8400775860056573 -8.604523227407812 0 0 1
1364 435 4 4.147125195398626 -3.38663134225152 -9.08444626294099 0 0 0
3723 1221 4 3.8715551118789238 -3.0484347214091323 -9.047140413655601 0 0 1
592 178 2 5.727090951984071 -2.764803993874063 -8.357046249073061 0 0 0
594 178 4 5.785628730840115 -3.2548181361057638 -8.437417070019062 0 0 0
1609 517 2 8.034889554421712 -2.554102219728457 -8.75357252460853 0 0 0
1611 517 4 7.9971272983360535 -2.3393985602777434 -9.203546246767793 0 0 0
1610 517 4 8.07265181050737 -2.7688058791791708 -8.303598802449265 0 0 0
1493 478 4 7.782656023464298 -3.0445168666244324 -8.409995703978579 0 0 0
1294 412 2 7.3423980250732415 8.748019571987202 -4.323094370856954 0 0 0
745 229 2 -7.630004442357072 -2.1580554004405506 -9.78032167392771 0 0 0
746 229 4 -7.366527227915468 -1.7651046155476267 -9.618551966867935 0 0 0
297 79 4 -7.047615825380075 -1.5447257925286224 -9.757711425233857 0 0 0
1166 369 4 -2.6098323001271164 -1.1196270891682976 -8.504557447067517 0 0 0
797 246 4 -2.3321431421744294 -0.9792594827883728 -8.766956254035943 0 0 0
796 246 2 -1.8372981383165967 -0.981198441087225 -8.69536950527862 0 0 0
798 246 4 -1.342453134458764 -0.9831373993860771 -8.623782756521297 0 0 0
3575 1172 4 2.108029462226631 -2.2143866571049133 -9.848098099230567 0 0 1
359 100 4 2.554206698769008 -2.2327580490534493 -8.511379466325332 0 0 0
158 33 4 2.3198499122465113 -1.9014045179926429 -9.743008875647693 0 0 0
157 33 2 2.7644878908051846 -2.006454343620571 -9.94613839629587 0 0 0
4049 1330 4 4.898636714170895 -1.5439833237486327 -9.672952507102977 0 0 1
1269 403 4 4.811999463312829 -1.3848968778148358 -9.317207269481399 0 0 0
1267 403 2 5.3016159599425485 -1.3461279367055312 -9.223544814712897 0 0 0
593 178 4 5.668553173128026 -2.274789851642363 -8.27667542812706 0 0 0
1268 403 4 5.791232456572268 -1.3073589955962266 -9.129882359944395 0 0 0
3620 1187 4 9.064165776786387 -1.0745866666670096 -9.16144162600434 0 0 1
3619 1187 2 9.290701846818713 -1.389533972151991 -9.47686135230878 0 0 1
3621 1187 4 9.51723791685104 -1.7044812776369724 -9.792281078613222 0 0 1
1412 451 4 9.044144405284522 -0.9659974610500333 -8.757961508761845 -1 0 0
1142 361 4 -5.256071886843557 -0.4540280426618782 -8.446524603451772 0 0 0
1141 361 2 -5.049971533966723 -0.10391124551482943 -8.737970778412837 0 0 0
1143 361 4 -4.843871181089888 0.2462055516322193 -9.029416953373902 0 0 0
369 103 4 -4.666047713031819 0.4328222048793036 -8.710538626946839 0 0 0
1021 321 2 -1.4659506455274844 0.3070954323503689 -9.51427443180133 0 0 0
1022 321 4 -1.2472178762195252 0.42995072745938434 -9.08176714620434 0 0 0
1023 321 4 -1.6846834148354437 0.18424013724135346 -9.946781717398318 0 0 0
930 290 4 -0.9186412014618891 0.4935283805445814 -8.856328444029312 0 0 0
4108 1350 2 1.9759963596351793 0.44986252205046573 -9.589177944646188 0 0 1
4109 1350 4 2.117846450020225 0.043378538064894 -9.843440255303781 0 0 1
466 136 2 3.941553735452871 0.025408667686327754 -8.422384519996722 0 0 0
468 136 4 4.259923599099737 -0.3046521725543311 -8.621634292044297 0 0 0
1066 336 2 4.682915759578839 0.5072637324488538 -9.594541353119073 0 0 0
1067 336 4 5.119935216940818 0.6443213906052077 -9.393969190973484 0 0 0
1068 336 4 4.2458963022168605 0.3702060742925 -9.795113515264662 0 0 0
3826 1256 2 6.798159285910891 0.43283572326384856 -9.292875473421534 0 0 1
619 187 2 7.684518823346706 -0.33345426850996984 -9.177023043428157 0 0 0
621 187 4 7.197649690376435 -0.23904287672463417 -9.240622858380377 0 0 0
3828 1256 4 6.9875940763869195 0.05337777930704518 -9.028062088326418 0 0 1
620 187 4 8.171387956316977 -0.42786566029530576 -9.113423228475938 0 0 0
1413 451 4 8.475642324897228 -0.1864501704098857 -9.02085199214036 -1 0 0
1411 451 2 8.759893365090875 -0.5762238157299592 -8.889406750451103 -1 0 0
3981 1307 4 -8.426031235254168 1.2105459124289728 -9.245429230671112 0 0 1
3979 1307 2 -8.570198079972716 1.0414696323276378 -9.693345665278137 0 0 1
4074 1338 4 -9.734016269652935 2.2649987177306876 -9.243299788769967 0 0 1
4352 1431 4 -8.11127395176474 1.481189874536397 -9.222313927322917 0 0 1
4351 1431 2 -8.16939565298312 1.547123105597438 -8.730099871358142 0 0 1
1121 354 4 -6.35842064798816 1.7269057088321333 -8.432235650066849 0 0 0
710 217 4 -6.576733019382043 2.007205891127881 -9.475755000196727 0 0 0
1120 354 2 -6.551513740061704 1.6926012123270662 -8.892168535728736 0 0 0
1122 354 4 -6.744606832135249 1.658296715821999 -9.352101421390623 0 0 0
709 217 2 -6.460412514734961 2.132413134358362 -9.945640822967865 0 0 0
367 103 2 -4.375926159376229 0.7927326556872573 -8.901048341931796 0 0 0
368 103 4 -4.085804605720639 1.152643106495211 -9.091558056916753 0 0 0
972 304 4 -5.000825644870547 1.8365552161766605 -9.903932235290227 0 0 0
1422 454 4 -4.60701031014327 1.6784428670970835 -9.880020916020879 0 0 0
232 58 2 -3.9454486530752297 1.8668936305865682 -9.18345420539224 0 0 0
970 304 2 -4.93884525053232 2.2301560485531797 -9.601877909927808 0 0 0
233 58 4 -3.770579842827214 1.3985153123353757 -9.189984917041967 0 0 0
886 276 2 7.718749699387234 9.669643713151109 -4.770203298815156 0 -1 0
928 290 2 -0.9354190100666891 0.9681554631867689 -8.699971040748066 0 0 0
929 290 4 -0.9521968186714892 1.4427825458289565 -8.54361363746682 0 0 0
4110 1350 4 1.8341462692501334 0.8563465060360375 -9.334915633988595 0 0 1
4176 1372 4 1.854817828121699 0.8116505386065429 -8.935559816696587 0 0 1
4175 1372 4 1.1029630136959616 1.416015377603121 -8.67201194740329 0 0 1
4174 1372 2 1.4788904209088303 1.1138329581048318 -8.803785882049938 0 0 1
260 67 4 1.9803352933483311 2.2402234688001137 -8.814715875042262 0 0 0
259 67 2 2.339773668513243 2.266725942010766 -9.161272758356299 0 0 0
1416 452 4 4.1739156858537845 1.6384313969029554 -9.71523209625347 0 0 0
1414 452 2 4.326307467387541 1.9376409495982008 -9.34475890087106 0 0 0
1415 452 4 4.478699248921298 2.2368505022934464 -8.97428570548865 0 0 0
3307 1083 2 5.213519023902938 2.2367880066276298 -8.634339947703335 -1 0 1
3308 1083 4 4.805317544584838 2.0816091555603493 -8.87783753796659 -1 0 1
3827 1256 4 6.608724495434862 0.812293667220652 -9.557688858516649 0 0 1
1307 416 4 6.514379268520074 1.1706864876418428 -9.676895902526281 0 0 0
1211 384 4 7.34353112652963 1.7022365821658454 -9.648487695626416 -1 0 0
1282 408 2 7.431019575593665 1.7477881057065792 -8.78900890411639 0 0 0
1283 408 4 7.484538840615498 1.9142915344990714 -8.320594241160626 0 0 0
1284 408 4 7.377500310571833 1.581284676914087 -9.257423567072154 0 0 0
4073 1338 4 9.550050431372958 1.5642837913605125 -9.225823749177167 -1 0 1
4072 1338 2 9.906664080860011 1.9146412545456002 -9.234561768973567 -1 0 1
3695 1212 4 -9.303897871632094 2.4893769205810385 -9.667903796383376 1 0 1
3694 1212 2 -9.62386006932842 2.7791973122476232 -9.920150367459147 1 0 1
1555 499 2 -9.946747246680467 2.756472143965639 -8.557393893843525 0 0 0
1557 499 4 -9.901682329370145 2.57772547126218 -9.022172099254687 0 0 0
1617 519 4 -7.549847710643089 3.0201869984227585 -9.0172623305383 0 0 0
1615 519 2 -7.675615730326683 3.387591977318323 -9.332216274326186 0 0 0
1170 370 4 -7.624530826027435 3.038710034391137 -8.626210587059244 0 0 0
1616 519 4 -7.801383750010277 3.754996956213888 -9.647170218114072 0 0 0
629 190 4 -5.931392084608253 3.337510742849632 -9.292081704152022 0 0 0
628 190 2 -5.646550435060789 3.7366692557370427 -9.389742936340395 0 0 0
234 58 4 -4.1203174633232456 2.3352719488377605 -9.176923493742512 0 0 0
971 304 4 -4.876864856194093 2.623756880929699 -9.299823584565388 0 0 0
3899 1280 4 -3.9286916598979196 2.6937873232447997 -9.178288730945368 0 0 1
3898 1280 2 -3.4926573006624055 2.905518236839473 -9.300942951396454 0 0 1
3900 1280 4 -3.0566229414268915 3.1172491504341466 -9.42359717184754 0 0 1
950 297 4 -2.7187345573053143 2.8829659216408703 -9.429155372642938 0 0 0
949 297 2 -2.5174311243425502 2.53750435370709 -9.729377345453205 0 0 0
1081 341 2 -0.777149851870429 3.817360186855957 -9.045277649313796 0 0 0
1083 341 4 -0.5017686715201402 3.643931365575284 -9.424866439266722 0 0 0
261 67 4 2.699212043678155 2.293228415221418 -9.507829641670336 0 0 0
3309 1083 4 5.621720503221038 2.3919668576949102 -8.39084235744008 -1 0 1
92 19 3 6.491517415993964 2.6614159866769995 -9.019416236185066 0 0 1
93 19 3 5.915398009341741 2.6201025267982874 -8.538500830617952 0 0 1
91 19 1 6.2918414338915944 2.8637531088524986 -8.657768353346963 0 0 1
95 19 3 6.172681717581125 3.288606242017283 -8.770466078474682 0 0 1
4550 1497 4 6.103987642086273 3.6857128151023217 -8.876190295338269 0 0 1
1470 470 4 -9.089974708038081 5.252645538533824 -9.899712431456505 0 0 0
519 153 4 -8.242137607404045 4.706613415416951 -8.834723949021788 0 0 0
4476 1472 4 -6.85606151640513 5.318515947449586 -8.841341178159297 0 0 1
517 153 2 -8.125789375186935 5.159040882652395 -9.012972303154168 0 0 0
1382 441 4 -8.46647539649298 4.469452263104684 -8.558213781125655 0 0 0
4474 1472 2 -6.820811038807224 5.431796825604966 -9.327062133516772 0 0 1
630 190 4 -5.361708785513325 4.135827768624455 -9.48740416852877 0 0 0
3129 1023 4 -4.997915274138959 4.302766589025601 -9.534201840619719 0 0 1
3127 1023 2 -4.621820437299291 4.494566953330594 -9.802092292026614 0 0 1
1511 484 4 -2.946268660817722 4.457977791228767 -8.80099526417099 0 0 0
1510 484 2 -2.918793418235613 4.6867998957399815 -8.35727738586087 0 0 0
1082 341 4 -1.0525310322207178 3.9907890081366295 -8.66568885936087 0 0 0
4501 1481 2 -0.19132429578253404 4.951818204483652 -9.831181838443182 0 0 1
4502 1481 4 -0.5238836369442877 5.183309288551505 -9.538237880316247 0 0 1
165 35 4 1.9389720443574796 5.164143447058211 -9.79543914006384 0 0 0
940 294 2 3.805264338451465 5.073204133883017 -9.941143670306806 0 0 0
942 294 4 3.3803927384149386 5.30897143947078 -9.823254310743629 0 0 0
1296 412 4 7.3934775540110484 8.94956687196526 -4.777813589270876 0 0 0
4549 1497 2 6.38055825260864 4.100849481122448 -8.841981437993162 0 0 1
4551 1497 4 6.657128863131008 4.515986147142574 -8.807772580648056 0 0 1
1607 516 4 6.9987933645252784 4.290482264289888 -8.90878792070143 -1 0 0
1608 516 4 7.827805361084106 4.725123243160206 -8.556898266054061 -1 0 0
1606 516 2 7.413299362804692 4.507802753725047 -8.732843093377745 -1 0 0
3706 1216 2 8.539051230729699 4.612959380813969 -8.655178310583759 0 -1 1
3708 1216 4 8.914362565547952 4.561741495394721 -8.981549464594242 0 -1 1
3692 1211 4 9.083442830315878 4.224612520341962 -9.084736402183994 -1 0 1
3691 1211 2 9.113764545949277 3.99933613572086 -9.530080251465778 -1 0 1
3693 1211 4 9.144086261582675 3.774059751099758 -9.975424100747562 -1 0 1
1468 470 2 -9.348939675157315 5.6217163904982055 -9.683555423623758 0 0 0
1037 326 4 -9.590881253676445 6.40544206981698 -9.50607931957527 1 0 0
1469 470 4 -9.607904642276548 5.990787242462587 -9.467398415791012 0 0 0
1036 326 2 -9.68197526162133 6.7726956538081975 -9.17923579927511 1 0 0
290 77 4 -8.019168603192524 5.996745051128629 -9.301308794423013 0 0 0
289 77 2 -8.07578402919933 6.39264161501363 -9.001207804351068 0 0 0
518 153 4 -8.009441142969825 5.611468349887838 -9.191220657286548 0 0 0
291 77 4 -8.132399455206135 6.78853817889863 -8.701106814279123 0 0 0
4475 1472 4 -6.785560561209318 5.545077703760346 -9.812783088874248 0 0 1
3314 1085 4 -4.1985151610137414 6.692630874116842 -9.880319217519057 0 0 1
3315 1085 4 -4.753373168287137 5.860920068844621 -9.860577683703545 0 0 1
3313 1085 2 -4.475944164650439 6.276775471480732 -9.8704484506113 0 0 1
888 276 4 7.689364534905756 9.185488159657393 -4.8915701481997145 0 -1 0
163 35 2 1.8408069513283096 5.513550224562259 -9.451522699129557 0 0 0
164 35 4 1.7426418582991396 5.862957002066307 -9.107606258195274 0 0 0
1162 368 2 1.9450755410061855 6.839604840044047 -8.67994852425473 0 0 0
1484 475 4 3.0678713509045354 5.318017009338999 -9.56636671612435 0 0 0
1485 475 4 3.290837310992099 5.756692288228348 -8.695820806746912 0 0 0
1483 475 2 3.179354330948317 5.537354648783674 -9.131093761435631 0 0 0
830 257 4 3.647465247221681 5.92662138744025 -8.700879284076738 0 0 0
1163 368 4 2.328167923508729 6.5449181603795665 -8.551886089102924 0 0 0
829 257 2 3.8816008495081946 6.3594993212506825 -8.78918111962932 0 0 0
831 257 4 4.115736451794708 6.7923772550611154 -8.877482955181904 0 0 0
1258 400 2 5.489898923347483 6.558604939033629 -9.916478428830642 0 0 0
1091 344 4 9.069827039382972 5.852555142252937 -9.057322646650038 -1 0 0
1090 344 2 8.976841786424542 6.23246595227492 -9.368805421712654 -1 0 0
1092 344 4 8.883856533466112 6.612376762296903 -9.68028819677527 -1 0 0
1368 436 4 9.431027657595447 5.401029902677739 -8.478320876657422 0 0 0
1038 326 4 -9.773069269566218 7.139949237799415 -8.85239227897495 1 0 0
258 66 4 -8.21668109560185 8.005864616837933 -8.991053697884116 0 0 0
256 66 2 -7.954302541473086 8.101287431354445 -8.576262207128828 0 0 0
635 192 4 -5.94987498927544 8.1455187208947 -8.975963316717053 0 0 0
3572 1171 4 -5.661994536074298 7.962710787225222 -9.202942541064932 0 0 1
634 192 2 -6.386938186069712 8.377831719235132 -9.046719467050954 0 0 0
3571 1171 2 -5.16354581890608 7.927601187063855 -9.220724338777934 0 0 1
3573 1171 4 -4.665097101737862 7.892491586902488 -9.238506136490937 0 0 1
1498 480 2 -3.9510643259934946 7.859402202545735 -9.570596043246988 0 0 0
1499 480 4 -4.261309944275432 7.970760591021762 -9.194634654733525 0 0 0
4228 1390 2 -2.3802856341275467 7.300285088453621 -9.669480850076992 0 0 1
1500 480 4 -3.640818707711557 7.7480438140697085 -9.946557431760452 0 0 0
4229 1390 4 -2.70035460615804 6.937005657964556 -9.794316375977765 0 0 1
3288 1076 4 -1.994795329043915 7.495056176236094 -9.172403292862128 0 0 1
4230 1390 4 -2.060216662097053 7.663564518942686 -9.54464532417622 0 0 1
3287 1076 4 -1.0634084825156775 7.71609042306415 -8.88315875299314 0 0 1
3286 1076 2 -1.5291019057797963 7.605573299650122 -9.027781022927634 0 0 1
3231 1057 4 -1.0728127281594961 8.10545646870589 -8.80180381871223 0 0 1
4305 1415 4 0.2316302883169421 6.977045202944256 -9.317203433490496 0 0 1
4304 1415 4 0.3846824532343591 7.773535884725121 -8.732243923224773 0 0 1
4303 1415 2 0.3081563707756506 7.375290543834688 -9.024723678357635 0 0 1
547 163 2 1.4077348097086366 7.927510210775721 -8.60087791340647 0 0 0
549 163 4 1.3512675742045759 7.474865976934532 -8.805633008299974 0 0 0
548 163 4 1.4642020452126974 8.38015444461691 -8.396122818512962 0 0 0
1164 368 4 1.5619831585036419 7.134291519708528 -8.808010959406538 0 0 0
1182 374 4 4.159445072629517 7.149676041437965 -8.963094142989943 0 0 0
1181 374 4 4.994306215025292 7.162888690509508 -9.513396149911335 0 0 0
1180 374 2 4.576875643827404 7.156282365973737 -9.23824514645064 0 0 0
1259 400 4 5.249958469763783 6.963039642458526 -9.746592733730424 0 0 0
3832 1258 2 5.259436698415661 8.370680497475583 -8.661423763457961 0 -1 1
3268 1070 2 4.331049585141779 8.454791200133254 -9.945825402760986 0 -1 1
3269 1070 4 4.242912571843899 8.417590822976996 -9.455062732189688 0 -1 1
3833 1258 4 5.688184502845528 8.165625103213301 -8.506093130675648 0 -1 1
309 83 4 5.927167360865443 8.482135915310584 -8.341591896298338 0 0 0
3416 1119 4 8.188896948713964 7.470901050376873 -9.99061264063146 0 0 1
323 88 4 -8.604103760175915 8.838230414616165 -9.248764431557213 1 0 0
322 88 2 -8.971167170528405 8.851269252444764 -9.588020148514667 1 0 0
324 88 4 -9.338230580880893 8.864308090273362 -9.927275865472122 1 0 0
1326 422 4 -8.5993321086989 9.837968742952865 -8.565392986971023 0 -1 0
3527 1156 4 -7.045838575799045 8.951139941437193 -9.653412274577592 0 -1 1
3526 1156 2 -7.386394078216151 8.891605800360503 -9.292195392608294 0 -1 1
3528 1156 4 -7.726949580633257 8.832071659283814 -8.930978510638996 0 -1 1
1324 422 2 -8.250823174276725 9.498260838563507 -8.680023097863431 0 -1 0
1325 422 4 -7.902314239854551 9.158552934174148 -8.79465320875584 0 -1 0
1053 331 4 -7.078200040685607 9.477269765136807 -8.607721240826239 0 0 0
4364 1435 4 -6.959999069451841 9.195952482816132 -8.377829002267084 0 0 1
636 192 4 -6.824001382863985 8.610144717575565 -9.117475617384855 0 0 0
1051 331 2 -6.654495507702944 9.719700905268988 -8.49954725585697 0 0 0
816 252 4 -3.362863297125139 9.943389095652716 -8.634928580636938 0 0 0
814 252 2 -2.878064231140724 9.871380368656016 -8.733845762445853 0 0 0
815 252 4 -2.393265165156309 9.799371641659318 -8.832762944254766 0 0 0
3229 1057 2 -0.9846321364092436 8.563787337667783 -8.98112754217112 0 0 1
1312 418 2 -1.2317884777568613 9.615506059089213 -8.736104298051394 0 0 0
3230 1057 4 -0.8964515446589909 9.022118206629676 -9.16045126563001 0 0 1
1313 418 4 -1.0188835581269067 9.168763973822427 -8.807469586874895 0 0 0
860 267 4 0.7311414824847349 -9.88813698022146 -8.354707259850993 0 1 0
3590 1177 4 2.0557828303351284 9.654361304104224 -9.810170050891337 0 0 1
3589 1177 2 2.4883581200593388 9.647903517493612 -9.559497125125647 0 0 1
872 271 4 3.6462579720197943 8.925619066467293 -8.319603666789225 0 -1 0
23 5 3 3.7539782413516183 8.913918967503939 -8.700439888677908 0 -1 0
3591 1177 4 2.920933409783549 9.641445730883 -9.308824199359957 0 0 1
3834 1258 4 4.830688893985795 8.575735891737864 -8.816754396240274 0 -1 1
377 106 4 4.232826886692816 9.829179726347727 -9.07453355496584 0 0 0
24 5 3 4.077452219450113 8.778751505708643 -9.37475016055953 0 -1 0
21 5 1 4.134054233883021 8.9769351317977 -8.959034557878596 0 -1 0
22 5 3 4.201090068444608 9.428272765474585 -9.0173486840542 0 -1 0
25 5 3 4.496222821027446 8.797362404380356 -8.749302466739092 0 -1 0
750 230 4 5.360729132277527 8.938726090940492 -4.2807751548600805 0 -1 0
1521 487 4 5.884985212939434 9.605032689931258 -9.095964034013972 0 0 0
837 259 4 5.794895732786089 9.481172905175722 -9.514851601998789 0 0 0
835 259 2 5.401827841284572 9.633804802260553 -9.783554293951836 0 0 0
1519 487 2 5.705924133210146 9.388569718305284 -8.682344750564802 0 0 0
1130 357 4 6.717787030337305 8.752858804804925 -9.79172835388466 -1 0 0
3704 1215 4 6.699170659065843 9.162967471127207 -8.454999998395806 -1 -1 1
3703 1215 2 6.723355849312531 9.020618613654461 -8.933698107175253 -1 -1 1
3705 1215 4 6.747541039559219 8.878269756181716 -9.4123962159547 -1 -1 1
3954 1298 4 9.934950831587155 9.76472812602193 -9.18672563246176 0 -1 1
4518 1486 4 9.814648668828822 9.386532408293615 -9.157723575774035 -1 -1 1
4516 1486 2 9.770037128264669 9.135523710151595 -8.727602146517643 -1 -1 1
770 237 4 -8.376199017603408 -9.948237929282126 -8.330137439707004 0 0 0