LAMMPS data file via write_data, version 29 Aug 2024, timestep = 6000000, units = lj

4560 atoms
4 atom types
3060 bonds
1 bond types

-9.998647 9.998647 xlo xhi
-9.998647 9.998647 ylo yhi
-9.998647 9.998647 zlo zhi

Masses

1 1
2 1
3 0.5
4 0.5

Bond Coeffs # zero

1 0

Atoms # bond

3313 1085 2 -9.461169711028782 -9.615627682363947 -9.096218103612761 2 0 1
4157 1366 4 -0.631877839009874 -0.6200877954089481 -0.858200092009967 1 1 0
3815 1252 4 -9.606697681914872 -8.534384943732121 -9.552206716034032 1 1 0
3314 1085 4 -8.969360226010656 -9.681341732550113 -9.034532659185686 2 0 1
3915 1285 4 -8.715077073437621 -9.965764486403494 -8.910598235296744 1 1 1
3066 1002 4 -6.2717524548799135 -9.925732204316734 -8.558531844433995 1 1 0
3868 1270 2 -2.8131700024240556 -9.376512003676435 -9.449246253214943 0 1 0
3869 1270 4 -2.497906301233774 -9.056321532753701 -9.668533418917246 0 1 0
3870 1270 4 -3.1284337036143373 -9.696702474599169 -9.22995908751264 0 1 0
2160 700 4 -2.089993355358505 -8.973663166810535 -9.676428779829713 0 0 0
2158 700 2 -1.9320485479602334 -8.55796116808235 -9.447856502269296 0 0 0
1811 584 4 -9.883906809654025 -3.167935116870952 -0.7344202211004275 0 -1 0
2460 800 4 -1.427875583245878 -9.134432352860221 -9.06844089551534 1 0 0
2458 800 2 -1.0845632485470225 -9.232932533532228 -8.718534686295008 1 0 0
474 138 4 -8.703360602319504 -6.854926437068295 -9.631097430730684 0 0 1
3625 1189 2 -8.327079571082628 -7.489020472517334 -9.987742936896728 0 1 1
1342 428 2 -9.939750790842721 -0.14238930243463216 -2.419787846368077 0 1 -1
3626 1189 4 -8.573598416732073 -7.209946719961099 -9.654057007655371 0 1 1
2549 830 4 -1.7372516794238835 -7.831678520868144 -8.980961432850016 0 0 -1
2159 700 4 -1.7741037405619617 -8.142259169354165 -9.219284224708879 0 0 0
2548 830 2 -1.5857704442118037 -8.042840033375882 -8.553803088656444 0 0 -1
2452 798 2 -0.5567203284204226 -7.801707022424065 -9.8936604986565 1 0 0
2453 798 4 -0.9368287629043581 -7.491949863398073 -9.991477064054413 1 0 0
594 178 4 -9.281855717591265 -6.147191718813424 -8.433648662731771 0 0 0
472 138 2 -9.053655830805257 -6.520887071858015 -9.756440780732886 0 0 1
473 138 4 -9.403951059291009 -6.186847706647734 -9.881784130735088 0 0 1
592 178 2 -9.70565381342088 -6.412205246313801 -8.420881352410866 0 0 0
3929 1290 4 -7.049313953310789 -5.471155649445851 -9.953597713385548 1 1 0
3928 1290 2 -6.55679447452798 -5.5054668462789 -9.874557819715553 1 1 0
3930 1290 4 -6.06427499574517 -5.539778043111948 -9.795517926045559 1 1 0
1347 429 4 -3.355247521605941 -6.046135629865423 -9.060682194199684 0 1 0
1345 429 2 -2.9403893535975563 -5.862276164795309 -8.850709820920326 0 1 0
1346 429 4 -2.5255311855891716 -5.6784166997251955 -8.640737447640968 0 1 0
4094 1345 4 -2.4059454560578093 -5.314593093479075 -8.501131327878982 0 0 0
3593 1178 4 -0.74437172726483 -0.0433741777680135 -3.203543996892262 0 1 0
387 109 4 -9.658480510791385 -4.872208119536368 -8.565309099867271 0 -1 -1
1576 506 2 -7.107447949827382 -4.105122834686542 -9.331607244771646 0 0 1
1577 506 4 -6.879383084637969 -4.328114373151221 -8.946560246291215 0 0 1
1578 506 4 -7.335512815016794 -3.8821312962218624 -9.716654243252078 0 0 1
4323 1421 4 -6.512357557636167 -4.476521117227899 -9.01771690923125 1 0 0
4321 1421 2 -6.040604929489661 -4.331518396991773 -9.097864703717205 1 0 0
1884 608 4 -5.443520272855612 -3.8011579901631434 -9.197031359582658 1 -1 1
4322 1421 4 -5.568852301343155 -4.186515676755646 -9.17801249820316 1 0 0
3606 1182 4 -5.273683205675546 -3.763376928305455 -8.508137245845752 1 0 0
1560 500 4 -4.447819316491403 -3.72049516734192 -9.000656676496702 1 0 1
918 286 4 -4.2439735640364855 -3.348591150776633 -8.873718358891166 1 -1 1
1558 500 2 -4.375068856639288 -3.9145422495772473 -9.455687555082813 1 0 1
916 286 2 -4.238224247593348 -3.3077346014403752 -8.375423578930434 1 -1 1
557 166 4 -1.8395144361023492 -3.7371976474064303 -8.61987099236155 0 0 0
641 194 4 -2.3918155409881003 -3.826970868259753 -9.997683093897884 -1 0 0
556 166 2 -1.386646807325354 -3.741544273727819 -8.40799362772542 0 0 0
2120 687 4 -9.730429307110652 -2.1557147878872343 -8.821194705037183 0 1 1
2119 687 2 -9.364448834109536 -2.2300229546031543 -8.48872427065084 0 1 1
3736 1226 2 -7.675020217080452 -2.60357144159965 -9.318736714678378 0 0 0
3737 1226 4 -7.478014433711508 -2.747576078421073 -9.755144077005083 0 0 0
3738 1226 4 -7.872026000449396 -2.4595668047782264 -8.882329352351674 0 0 0
508 150 2 -8.797536185585841 -0.05830705313814251 -2.297668430098907 0 0 0
1882 608 2 -5.537452239897472 -3.310267433618948 -9.211287834016897 1 -1 1
1883 608 4 -5.631384206939331 -2.8193768770747525 -9.225544308451136 1 -1 1
1737 559 4 -5.908361573527922 -2.775260677225318 -9.52662047678486 -1 0 1
1735 559 2 -6.0914758352998835 -2.5769606132938203 -9.947507934165818 -1 0 1
2048 663 4 -5.03608140949459 -2.3550529558854416 -8.677684565125126 -1 -1 1
2047 663 2 -4.729065933063769 -1.9726019724917667 -8.580356549974905 -1 -1 1
1925 622 4 -2.1054388423345354 -0.1644946182276955 -9.05658203346025 0 0 1
983 308 4 -2.8247166814738223 -1.6263378751356872 -9.62719390438461 0 -2 0
4151 1364 4 -2.8451453961952713 -2.739436966657833 -9.890201475782408 1 0 2
984 308 4 -3.130204671898763 -2.5052379626751073 -9.993543087308582 0 -2 0
982 308 2 -2.9774606766862926 -2.0657879189053974 -9.810368495846596 0 -2 0
4061 1334 4 -9.591347213725097 -1.473197273554986 -9.9523373796404 1 1 1
2502 814 4 -1.320605169729292 -7.492993876763513 -9.942183094406248 1 -1 1
2178 706 4 -7.008072106885733 -0.8981391604599589 -8.572875162985035 0 0 0
998 313 4 -4.764385036537056 -0.08233691376998181 -8.705153043867334 0 0 0
2049 663 4 -4.422050456632948 -1.5901509890980918 -8.483028534824683 -1 -1 1
1887 609 4 -3.6857106578275562 -1.2565460673548716 -8.82709857552594 -1 0 1
1178 373 4 -4.059169755503457 -1.1166278438305381 -8.76478582792044 1 0 1
1177 373 2 -4.439617307570334 -0.7927383797737985 -8.783634573221445 1 0 1
1885 609 2 -3.4019414185298458 -1.458853482729318 -8.468564436965623 -1 0 1
1392 444 4 -4.020687999246053 -0.4160529821767994 -9.642384956650675 -1 1 1
1179 373 4 -4.820064859637211 -0.4688489157170587 -8.80248331852245 1 0 1
1390 444 2 -3.6892886572728685 -0.1779782553728785 -9.353430114855925 -1 1 1
2212 718 2 -2.5476805566881606 -0.28508314234367355 -8.511346854515349 0 0 1
2213 718 4 -2.5041255497556056 -0.22834689198162855 -9.006204368620264 0 0 1
1924 622 2 -1.6766363797814787 -0.04068278104328089 -9.28196853944891 0 0 1
3315 1085 4 -9.95297919604691 -9.54991363217778 -9.157903548039837 2 0 1
3482 1141 4 -8.623611151667973 -8.621606847087797 -6.784478071626716 0 1 0
3095 1012 4 -7.79158114258251 -9.493382984418679 -7.01770733752458 2 -1 0
4286 1409 4 -7.007086057798287 -8.790503830092899 -7.049480344449594 0 1 0
4285 1409 2 -6.785988835689147 -9.071848385943529 -6.700250822116474 0 1 0
3094 1012 2 -8.079665894317218 -9.902044861827786 -7.0160807550357145 2 -1 0
4290 1410 4 -6.058474434015844 -9.678111192958422 -8.363174953442718 0 0 1
4289 1410 4 -6.31968584765035 -8.718373383028762 -8.466480004521996 0 0 1
4288 1410 2 -6.189080140833097 -9.198242287993592 -8.414827478982357 0 0 1
3411 1117 4 -6.371845388186737 -8.72892820740676 -7.431332642391454 1 0 0
1315 419 2 -3.8449194545485934 -8.620014455051294 -6.870102986189313 0 1 0
1317 419 4 -3.7720602428465777 -9.114295779837287 -6.889532531688783 0 1 0
2039 660 4 -3.4704830334552383 -9.334908170897693 -6.72425225217072 0 1 1
2038 660 2 -3.4737902948067405 -9.828834032657422 -6.64662297220897 0 1 1
2198 713 4 -1.0927304858984657 -9.325806787920035 -7.672621229766719 -1 0 1
2197 713 2 -1.2602822984180302 -9.272298721034257 -7.204579269148112 -1 0 1
2199 713 4 -1.4278341109375947 -9.21879065414848 -6.736537308529504 -1 0 1
2459 800 4 -0.7412509138481668 -9.331432714204235 -8.368628477074676 1 0 0
3483 1141 4 -8.875993449222289 -8.003807879759066 -7.5292113204138795 0 1 0
3481 1141 2 -8.74980230044513 -8.312707363423431 -7.156844696020298 0 1 0
4156 1366 2 -0.2571527367803476 -0.3182341020188016 -0.9940877130263632 1 1 0
323 88 4 -7.634940550709628 -6.816880295571666 -8.36761906576183 -1 0 -1
765 235 4 -7.289003920629557 -8.504038210659585 -7.132363984047561 1 0 0
763 235 2 -7.495615635620518 -8.135597174067954 -7.399876230092179 1 0 0
764 235 4 -7.702227350611479 -7.767156137476323 -7.667388476136797 1 0 0
322 88 2 -7.825585229068662 -7.196765567123845 -8.10429077812215 -1 0 -1
324 88 4 -8.016229907427697 -7.576650838676024 -7.840962490482471 -1 0 -1
3409 1117 2 -6.077348934416266 -8.377614865021597 -7.231706055537161 1 0 0
3410 1117 4 -5.782852480645795 -8.026301522636434 -7.032079468682867 1 0 0
896 279 4 -5.736230273182565 -7.6603782948960015 -6.8695792637404915 -1 0 0
895 279 2 -5.3532148417298755 -7.555769196184563 -7.173480753924664 -1 0 0
897 279 4 -4.970199410277186 -7.451160097473125 -7.477382244108836 -1 0 0
3021 987 4 -4.713840046380153 -7.1801667630103445 -7.308330559681223 2 1 0
1785 575 4 -4.057631759955607 -6.561846803001817 -7.068739943350989 0 1 1
3019 987 2 -4.4009517365708435 -6.921616168311879 -7.6003108596431606 2 1 0
1121 354 4 -1.757207760825206 -7.592230724526846 -7.069160219162687 -1 0 0
2550 830 4 -1.434289208999724 -8.25400154588362 -8.126644744462872 0 0 -1
1122 354 4 -1.2734346604425284 -8.057864002092524 -7.8102062623815 -1 0 0
1120 354 2 -1.5153212106338672 -7.825047363309685 -7.439683240772093 -1 0 0
1158 366 4 -1.4797461755179346 -7.702221928730089 -6.832705072598837 0 1 1
3959 1300 4 -7.543492606450582 -6.4356550241225525 -8.472678101914038 0 1 -1
3958 1300 2 -7.206473120833497 -6.144081502968457 -8.245956360398115 0 1 -1
3960 1300 4 -6.869453635216412 -5.8525079818143615 -8.01923461888219 0 1 -1
1805 582 4 -6.529974741911944 -5.682301339636144 -8.067247350497667 0 1 0
1804 582 2 -6.523002895767772 -5.5561811722619385 -7.583465274824136 0 1 0
1806 582 4 -6.5160310496236 -5.430061004887733 -7.099683199150606 0 1 0
1783 575 2 -3.9214371729968196 -6.104040229203022 -6.920874546895405 0 1 1
3020 987 4 -4.088063426761534 -6.663065573613414 -7.892291159605098 2 1 0
1784 575 4 -3.785242586038032 -5.646233655404227 -6.773009150439821 0 1 1
4093 1345 2 -2.023199682253968 -5.252923815667398 -8.185374185743552 0 0 0
4095 1345 4 -1.6404539084501266 -5.191254537855721 -7.869617043608121 0 0 0
1575 505 4 -1.6525447133538553 -5.4025369094877 -7.537997184353751 0 0 1
1573 505 2 -1.3665008665086253 -5.075499144341638 -7.290559883507031 0 0 1
3006 982 4 -0.14106828588071146 -6.166417867758831 -6.803262146523505 0 -1 0
4047 1329 4 -7.955679594493533 -4.858065080245305 -7.397799663826648 0 0 0
4045 1329 2 -7.958703989707472 -4.799764825804894 -6.901219425228557 0 0 0
3605 1182 4 -5.1350175586433515 -4.532777814630377 -7.8846036746129675 1 0 0
3604 1182 2 -5.204350382159449 -4.148077371467916 -8.19637046022936 1 0 0
1012 318 2 -5.099135141662581 -3.4241704068486296 -6.805152351496606 0 0 0
3820 1254 2 -3.9688819997659355 -3.508395623963725 -7.2843193530641255 1 1 1
1013 318 4 -4.856481247769567 -3.540010561932553 -7.226697303131678 0 0 0
3822 1254 4 -4.36779785554016 -3.4990316608914016 -7.585613986616108 1 1 1
3821 1254 4 -3.569966143991711 -3.5177595870360476 -6.983024719512143 1 1 1
1635 525 4 -4.320531130787196 -4.815252470376173 -6.868236255229559 0 1 1
2283 741 4 -3.486026585317342 -3.4706864560420225 -6.608046820145324 0 1 1
558 166 4 -0.9337791785483589 -3.7458909000492073 -8.196116263089287 0 0 0
1574 505 4 -1.0804570196633954 -4.748461379195576 -7.043122582660311 0 0 1
2568 836 4 -1.2678588803325264 -3.6244713340876062 -7.481731049918353 0 1 0
2566 836 2 -0.9932371634318905 -3.44678269193135 -7.103564870765162 0 1 0
2121 687 4 -8.99846836110842 -2.3043311213190742 -8.156253836264497 0 1 1
1376 439 4 -8.745039624972799 -2.1240309168995832 -7.939737802579209 1 1 0
1375 439 2 -8.533368216484755 -2.338202454542811 -7.540581483210132 1 1 0
3285 1075 4 -8.341553766561509 -2.805818318464454 -6.862573010300735 1 0 0
1377 439 4 -8.321696807996709 -2.5523739921860384 -7.141425163841054 1 1 0
917 286 4 -4.232474931150211 -3.2668780521041176 -7.877128798969702 1 -1 1
3725 1222 4 -2.2042023381183684 -2.1055508012333153 -7.5617644587305985 1 0 1
3726 1222 4 -3.151937562759125 -1.9403469731051393 -7.8347216699287525 1 0 1
3724 1222 2 -2.6780699504387466 -2.0229488871692274 -7.6982430643296755 1 0 1
2337 759 4 -1.2286405598952868 -2.080513672765446 -8.285147198492883 0 -1 1
2335 759 2 -1.6397207948704733 -1.951369557404312 -8.031504067539112 0 -1 1
2176 706 2 -7.120515560749335 -0.6902567185656171 -8.132260410582136 0 0 0
2177 706 4 -7.232959014612938 -0.48237427667127525 -7.691645658179237 0 0 0
1940 627 4 -7.020235052904445 -0.1391818697391086 -7.612843919631008 0 1 1
1886 609 4 -3.1181721792321353 -1.6611608981037644 -8.110030298405308 -1 0 1
2336 759 4 -2.0508010298456596 -1.822225442043178 -7.777860936585341 0 -1 1
2214 718 4 -2.5912355636207156 -0.34181939270571854 -8.016489340410434 0 0 1
3137 1026 4 -2.9641569065750124 -0.40429288700739197 -7.884026733798032 0 -2 1
3136 1026 2 -3.259275901389979 -0.07665827157251957 -7.648314329228687 0 -2 1
1289 410 4 -2.4218250826907632 -0.27509201216571666 -6.81974202189509 -2 0 0
1559 500 4 -4.302318396787173 -4.108589331812575 -9.910718433668924 1 0 1
3165 1035 4 -0.7086792828969402 -1.1088207595221875 -6.846642590372391 0 0 0
3078 1006 4 -9.361801859170098 -8.20019314427023 -5.596568249202903 1 1 0
4287 1409 4 -6.564891613580007 -9.353192941794159 -6.351021299783354 0 1 0
579 173 4 -6.986065103645765 -9.986140669010299 -5.4091439529462555 0 1 0
577 173 2 -6.915469828056492 -9.619524934599909 -5.741723583030989 0 1 0
578 173 4 -6.8448745524672185 -9.252909200189519 -6.074303213115723 0 1 0
3380 1107 4 -4.774989888775689 -9.54731200189339 -5.900495581505809 -1 0 0
3379 1107 2 -4.437443464752148 -9.910124197810527 -5.967051739167339 -1 0 0
30 6 3 -1.4281290470896897 -8.8336205068061 -6.588582303816027 0 1 1
197 46 4 -1.4019024295964029 -8.871795207638083 -5.454632753467518 0 1 0
273 71 4 -0.6831863582176467 -9.513926193531352 -6.253646186208546 0 1 0
29 6 3 -0.8747436937160946 -9.151766712419775 -6.1892733475860195 0 1 1
26 6 1 -1.1463247951799005 -8.77834839549616 -6.235126001966684 0 1 1
27 6 3 -1.3937065143135148 -8.726295905675043 -5.8508177619535005 0 1 1
28 6 3 -0.8856682029248178 -8.3996882190477 -6.298170523426538 0 1 1
271 71 2 -0.679222814137953 -9.861440057259422 -5.8941765701977245 0 1 0
4495 1479 2 -9.943978345775685 -9.192332150598002 -2.769876527228232 1 1 0
498 146 4 -9.68570048136602 -8.291531612881904 -5.2983093192985 0 -1 0
3076 1006 2 -9.61043611890957 -8.131569436183325 -6.0249043223658525 1 1 0
3077 1006 4 -9.859070378649042 -8.06294572809642 -6.453240395528802 1 1 0
2840 927 4 -8.30961549973944 -6.903876124062429 -5.680050250199342 0 0 0
4241 1394 4 -5.77102182072676 -6.9671245018286525 -5.2179556577712765 2 1 -1
1923 621 4 -3.6545262636786906 -8.062878749690691 -6.5634636190209 0 1 0
1316 419 4 -3.917778666250609 -8.125733130265301 -6.850673440689842 0 1 0
3227 1056 4 -3.907445357606474 -7.271938249384502 -5.650645237471038 0 0 1
1922 621 4 -3.715980676173784 -7.625231015410628 -5.666419687061986 0 1 0
1921 621 2 -3.6852534699262374 -7.844054882550659 -6.114941653041443 0 1 0
3226 1056 2 -4.047146388521884 -7.314355672598561 -5.172435676536846 0 0 1
3510 1150 4 -3.0412981878245606 -7.248388409119229 -5.44699312576498 1 1 1
3508 1150 2 -2.662186799020025 -7.333744099200978 -5.761618237683188 1 1 1
3509 1150 4 -2.2830754102154893 -7.419099789282727 -6.076243349601397 1 1 1
1156 366 2 -1.5037698566820674 -7.4541071015139035 -6.399274691500679 0 1 1
1157 366 4 -1.5277935378462002 -7.205992274297718 -5.965844310402521 0 1 1
3465 1135 4 -1.705665608168325 -6.93338579282134 -5.744582835151242 0 2 0
4189 1377 2 -0.47284919752744803 -8.018143567618804 -5.788314975777436 1 1 0
4191 1377 4 -0.9114460835031122 -8.107877526101916 -6.010981965489086 1 1 0
3463 1135 2 -1.6621950709796105 -6.721846698960717 -5.293626602058849 0 2 0
2839 927 2 -8.584434277344657 -6.517701937508352 -5.839248670777117 0 0 0
905 282 4 -9.877122991779034 -5.414510301256934 -5.485620069250194 1 0 1
2841 927 4 -8.859253054949875 -6.131527750954274 -5.998447091354892 0 0 0
4491 1477 4 -8.972100994802409 -4.961377156836692 -5.361410004044898 -1 1 1
4489 1477 2 -8.990513239734419 -5.434664382067756 -5.521597992576975 -1 1 1
4490 1477 4 -9.00892548466643 -5.90795160729882 -5.681785981109052 -1 1 1
4302 1414 4 -6.9571450876935135 -6.599920079911518 -4.987006705629758 0 1 0
4300 1414 2 -6.500032665265701 -6.658816391045898 -5.18086092352774 0 1 0
4301 1414 4 -6.042920242837889 -6.717712702180277 -5.374715141425721 0 1 0
1430 457 4 -6.414594426189042 -5.4334954048988955 -5.712540336471884 0 0 1
1429 457 2 -6.502174361379853 -5.465741800118246 -6.203753044926235 0 0 1
1431 457 4 -6.589754296570664 -5.497988195337595 -6.694965753380587 0 0 1
1814 585 4 -3.6492118647982985 -5.362806990343249 -6.505395843555166 1 0 0
1813 585 2 -3.5190080029435546 -5.5168576841581425 -6.047885911320668 1 0 0
4028 1323 4 -4.272620782310588 -4.875193998825998 -5.658340968869701 1 1 0
1815 585 4 -3.388804141088811 -5.670908377973036 -5.590375979086169 1 0 0
855 265 4 -4.883011008404647 -4.978716663351783 -4.811281311233687 0 -1 0
1128 356 4 -3.2861665897118275 -5.919491112970119 -5.288260814143993 0 0 1
1126 356 2 -3.1177365887573827 -6.389112348323362 -5.321233986325228 0 0 1
1127 356 4 -2.949306587802938 -6.858733583676605 -5.354207158506463 0 0 1
3005 982 4 -0.1720612286168301 -6.4753706101349096 -5.852689876530594 0 -1 0
3004 982 2 -0.15656475724877078 -6.32089423894687 -6.327976011527049 0 -1 0
3744 1228 4 -0.8679919361631516 -5.146288207930362 -5.8648319062078835 1 0 -1
4313 1418 4 -8.766445141841041 -4.690940218712132 -5.091783194161547 1 1 1
32 7 3 -9.37440697219642 -3.940170204846294 -5.199986356875458 0 0 1
31 7 1 -9.555447822373452 -3.587038465623154 -4.967344603700692 0 0 1
35 7 3 -9.982282743412803 -3.5166914330328596 -5.109693629643564 0 0 1
4312 1418 2 -8.368912878634468 -4.457813313244651 -5.285741812575067 1 1 1
4314 1418 4 -7.971380615427894 -4.22468640777717 -5.479700430988586 1 1 1
4046 1329 4 -7.961728384921412 -4.741464571364483 -6.404639186630465 0 0 0
3927 1289 4 -7.933266273609705 -4.032266935503781 -5.826410604415349 0 1 1
3926 1289 4 -7.095070751195906 -3.991557888824462 -6.370258965378479 0 1 1
3925 1289 2 -7.514168512402805 -4.011912412164121 -6.098334784896914 0 1 1
4139 1360 4 -6.783370011055273 -3.8256514165337103 -6.1760651299509 0 0 0
4140 1360 4 -6.124844010073933 -3.9171062766905287 -5.429084866098461 0 0 0
4138 1360 2 -6.454107010564603 -3.8713788466121195 -5.802574998024681 0 0 0
1634 525 4 -4.53742818000516 -3.9756947196921395 -6.37014143162047 0 1 1
1633 525 2 -4.428979655396178 -4.395473595034156 -6.619188843425015 0 1 1
2281 741 2 -3.250483805295888 -3.72639501516627 -6.248696390104812 0 1 1
4027 1323 2 -4.14286359486 -4.732358757885571 -5.1970805584175634 1 1 0
3523 1155 2 -3.2702781454943537 -3.7836835206010635 -5.068690031105432 0 0 0
3525 1155 4 -3.1597999335382507 -3.8071731945463205 -5.555765795131055 0 0 0
2282 741 4 -3.0149410252744344 -3.9821035742905178 -5.8893459600643006 0 1 1
3742 1228 2 -0.7454868270026602 -4.953008609266113 -5.420269767728137 1 0 -1
3743 1228 4 -0.6229817178421688 -4.7597290106018635 -4.975707629248391 1 0 -1
34 7 3 -9.298294206422614 -3.208686302702107 -5.044943950451696 0 0 1
1632 524 4 -8.92907288861648 -3.070116245395451 -5.197231727479973 0 0 0
3283 1075 2 -7.940519193319756 -2.695023258200179 -6.585272224715508 1 0 0
3284 1075 4 -7.539484620078003 -2.584228197935904 -6.307971439130282 1 0 0
1123 355 2 -7.60307257379631 -2.370164126439723 -5.568171362496922 0 -1 1
1125 355 4 -7.787894460277016 -2.443963125772197 -6.026859249818165 0 -1 1
1124 355 4 -7.418250687315604 -2.296365127107249 -5.109483475175678 0 -1 1
1929 623 4 -5.760356273505184 -3.281265595175546 -6.321242450079594 0 -1 1
1014 318 4 -5.341789035555594 -3.308330251764706 -6.383607399861534 0 0 0
1928 623 4 -5.557303947797316 -2.5418801205272383 -5.679308751863894 0 -1 1
2041 661 2 -5.802714911830557 -1.9415014531831172 -5.106890469154851 0 1 1
2043 661 4 -5.573318822040077 -2.234220338084787 -5.441095628316272 0 1 1
1927 623 2 -5.65883011065125 -2.911572857851392 -6.000275600971744 0 -1 1
2567 836 4 -0.7186154465312546 -3.2690940497750933 -6.725398691611971 0 1 0
1263 401 4 -0.668187277994752 -3.0154328776063957 -6.402132421670161 0 0 0
1262 401 4 -0.5884245676649975 -2.2164335665431376 -5.806113956385496 0 0 0
1261 401 2 -0.6283059228298747 -2.6159332220747666 -6.1041231890278285 0 0 0
3702 1214 4 -9.633725289020118 -1.2791909002747301 -6.224577384473996 0 0 0
3700 1214 2 -9.537367363342174 -1.009622804775759 -5.814640569772328 0 0 0
3701 1214 4 -9.44100943766423 -0.7400547092767877 -5.40470375507066 0 0 0
4247 1396 4 -7.634525979060681 -0.16053674979515048 -5.6968662087149955 1 0 1
4248 1396 4 -7.507803250518732 -0.9187080068929399 -5.057243120496473 1 0 1
3552 1164 4 -7.174765283279017 -1.1042418600454895 -4.918438114064599 1 -1 0
4246 1396 2 -7.571164614789707 -0.5396223783440451 -5.377054664605734 1 0 1
1866 602 4 -3.9328439734168255 -1.5460619710317853 -5.5973895964384655 -1 0 1
1864 602 2 -3.641175818682785 -1.2431812516456688 -5.867931566080946 -1 0 1
1865 602 4 -3.349507663948745 -0.9403005322595523 -6.138473535723427 -1 0 1
1290 410 4 -2.970415983953196 -0.8843431900879009 -6.247150522438552 -2 0 0
1288 410 2 -2.69612053332198 -0.5797176011268088 -6.533446272166821 -2 0 0
2662 868 2 -5.042930616010626 -0.8201274554142736 -0.6575821526838197 1 -1 0
1579 507 2 -1.1303404686283622 -1.5459289331840809 -5.183407456644732 0 1 -1
1580 507 4 -0.930869949147308 -1.2574468508726941 -5.539763458479337 0 1 -1
3164 1035 4 -0.9978389694344953 -1.3641148217328847 -5.924031286799482 0 0 0
3163 1035 2 -0.8532591261657178 -1.236467790627536 -6.385336938585937 0 0 0
2315 752 4 -9.689417224382538 -9.450840685231203 -3.4552471655048045 1 1 0
2316 752 4 -9.488695009746305 -9.4553390414295 -4.434885036017339 1 1 0
2314 752 2 -9.589056117064422 -9.453089863330352 -3.9450661007610717 1 1 0
540 160 4 -8.583831801764296 -8.338284001678923 -4.615530348155941 0 0 0
497 146 4 -8.994930119864527 -8.221841862186565 -4.57860129077657 0 -1 0
930 290 4 -6.117016295557223 -8.794275753036873 -4.007733826046023 0 0 1
928 290 2 -5.80773849034254 -9.141917774026673 -3.8247249070183558 0 0 1
929 290 4 -5.498460685127858 -9.489559795016474 -3.641715987990689 0 0 1
2271 737 4 -5.559548113091315 -9.883257916827768 -3.6427480493549815 1 0 0
200 47 4 -5.882230256144844 -8.50209080416467 -4.218439437705568 1 0 -1
4466 1469 4 -1.9385832488972148 -9.741794680366322 -4.784684380711049 1 2 0
196 46 2 -1.551007925095715 -8.706562535871818 -5.006898775091264 0 1 0
198 46 4 -1.700113420595027 -8.541329864105553 -4.5591647967150095 0 1 0
496 146 2 -9.340315300615273 -8.256686737534235 -4.938455305037535 0 -1 0
755 232 4 -9.197745043882733 -8.242863352612643 -4.1852429779952285 1 0 1
754 232 2 -9.315044574820739 -7.886209215326583 -3.8550329745149643 1 0 1
756 232 4 -9.432344105758744 -7.529555078040524 -3.5248229710347 1 0 1
3074 1005 4 -8.068016893708759 -7.963673975808863 -3.4767492665156494 1 1 0
1712 551 4 -6.983935537431044 -8.288685661623434 -3.4539155049672163 1 1 0
1713 551 4 -7.341681386424849 -8.21693388142596 -4.384973821920192 1 1 0
539 160 4 -7.588991476641018 -8.268364110857329 -4.689041819211333 0 0 0
1711 551 2 -7.162808461927947 -8.252809771524698 -3.919444663443704 1 1 0
538 160 2 -8.086411639202657 -8.303324056268126 -4.652286083683637 0 0 0
4240 1394 2 -5.616308320430942 -7.185156691079167 -4.795432643868872 2 1 -1
4242 1394 4 -5.461594820135125 -7.403188880329682 -4.372909629966467 2 1 -1
201 47 4 -5.318112370778058 -7.685152062963051 -4.098514025332356 1 0 -1
199 47 2 -5.600171313461451 -8.093621433563861 -4.158476731518962 1 0 -1
3228 1056 4 -4.186847419437293 -7.35677309581262 -4.694226115602654 0 0 1
125 25 3 -4.742671184140668 -6.93851196579901 -3.9195948174304966 1 0 0
121 25 1 -4.482793000581273 -6.7520452140456415 -4.2437760633410315 1 0 0
124 25 3 -4.206046359511746 -7.074648890273923 -4.429889374902594 1 0 0
2633 858 4 -1.764557924480058 -7.7328155409578265 -3.8056938066351735 -1 1 -1
3429 1123 4 -1.6510118667687819 -8.076339846716472 -3.649746524940112 1 1 0
2823 921 4 -0.41948024578907134 -7.723795563072792 -3.6565739724859716 1 -1 0
2821 921 2 -0.05917449644053293 -7.869841673973681 -3.970978648781869 1 -1 0
2632 858 2 -1.4543761430197994 -7.524886329171533 -4.138188476270187 -1 1 -1
2634 858 4 -1.144194361559541 -7.31695711738524 -4.470683145905201 -1 1 -1
3632 1191 4 -0.5597012204157589 -8.045521697729885 -3.416719274210337 0 0 -1
853 265 2 -5.3770348934866545 -4.9022775851655505 -4.821153914487622 0 -1 0
4255 1399 2 -5.272414378078717 -6.056275895981671 -3.2852908651543538 1 1 1
4256 1399 4 -4.990826415115368 -5.752158912785334 -3.5649711820264613 1 1 1
2784 908 4 -5.990481416600437 -5.114484183777559 -4.573080857386713 0 -1 0
122 25 3 -4.222098896552037 -6.421862451429468 -4.057717128067206 1 0 0
1362 434 4 -4.012381306504824 -6.1744635144177575 -4.343362601838304 0 0 0
123 25 3 -4.750621572557165 -6.5641471402201494 -4.572808234846649 1 0 0
1360 434 2 -3.5826676544948444 -5.982871849545513 -4.1741325476875675 0 0 0
1361 434 4 -3.152954002484865 -5.791280184673269 -4.004902493536831 0 0 0
3464 1135 4 -1.618724533790896 -6.5103076051000945 -4.842670368966456 0 2 0
4090 1344 2 -8.781416303511278 -3.8445479030434395 -3.8402598769215066 1 0 0
4092 1344 4 -9.140795878147845 -3.573701012538775 -4.058177942345429 1 0 0
4091 1344 4 -8.422036728874712 -4.115394793548104 -3.6223418114975843 1 0 0
2745 895 4 -8.724671612787613 -4.3827185135727635 -3.423414115176612 0 -1 0
3529 1157 2 -7.169136615744787 -4.1645373058080075 -4.160475369804223 1 1 0
3530 1157 4 -7.2923717017885314 -3.680033027624811 -4.152185738326858 1 1 0
3531 1157 4 -7.045901529701042 -4.649041583991204 -4.168765001281588 1 1 0
4355 1432 4 -7.520610084022698 -3.3387136890355733 -4.27904128205004 1 0 0
2783 908 4 -6.923657078776616 -5.016743230626867 -4.227205316766857 0 -1 0
854 265 4 -5.871058778568662 -4.825838506979318 -4.831026517741558 0 -1 0
2782 908 2 -6.457069247688526 -5.065613707202213 -4.400143087076785 0 -1 0
2125 689 2 -5.774739435539487 -3.3340175900025697 -4.2928571033317215 1 0 0
2126 689 4 -5.517667511222265 -3.328966755583975 -4.721679344825626 1 0 0
3341 1094 4 -6.047917829083704 -3.346283142203526 -3.463066415535197 0 1 0
1217 386 4 -4.278113342843687 -4.754855345851798 -4.520971404363871 0 0 0
4029 1323 4 -4.013106407409412 -4.589523516945143 -4.735820147965426 1 1 0
3524 1155 4 -3.3807563574504567 -3.7601938466558065 -4.581614267079809 0 0 0
3539 1160 4 -4.83436470475919 -4.813036086363698 -3.3515583377699354 0 0 0
1218 386 4 -4.807171990141837 -4.636881972902145 -3.6806266947392197 0 0 0
1216 386 2 -4.542642666492762 -4.695868659376972 -4.100799049551545 0 0 0
633 191 4 -2.6399914260333177 -4.329973763100518 -3.9057907701331125 -1 -1 -1
3826 1256 2 -9.833552893488275 -3.3150665434852966 -3.876626196138489 0 -1 1
3828 1256 4 -9.549049501088431 -3.6509943002223295 -4.113713441611982 0 -1 1
33 7 3 -9.554318211661784 -3.689240730909031 -4.51473724522109 0 0 1
1630 524 2 -8.632674389028589 -2.8385492665762775 -4.867800909610588 0 0 0
3133 1025 2 -8.706479106131074 -2.6922057703493594 -3.792918561718111 2 1 -1
3135 1025 4 -8.621931334959205 -2.581954033944587 -4.273227034482627 2 1 -1
1631 524 4 -8.336275889440698 -2.606982287757104 -4.538370091741203 0 0 0
4356 1432 4 -7.422288762855718 -2.6838107950576453 -5.028331023913411 1 0 0
4354 1432 2 -7.471449423439208 -3.0112622420466093 -4.6536861529817255 1 0 0
2127 689 4 -6.031811359856709 -3.339068424421165 -3.864034861837817 1 0 0
1581 507 4 -1.3298109881094162 -1.8344110154954678 -4.827051454810127 0 1 -1
2287 743 2 -9.791889276053436 -1.255473530944609 -4.783402356210091 0 1 0
2289 743 4 -9.501354296479283 -1.0103082754578996 -5.108184472629158 0 1 0
3550 1164 2 -6.724489145923988 -1.2492817685052782 -4.7565281851459265 1 -1 0
2042 661 4 -6.032111001621036 -1.6487825682814474 -4.77268530999343 0 1 1
3551 1164 4 -6.2742130085689585 -1.3943216769650668 -4.594618256227254 1 -1 0
2773 905 2 -4.726172991622915 -0.4454341026675559 -4.221589928792422 2 -1 0
2775 905 4 -4.817140013956175 -0.8935504308738811 -4.019311019256942 2 -1 0
3603 1181 4 -3.6371905250801677 -0.8548551052928666 -4.795815256651241 2 0 0
3601 1181 2 -3.3556976304128767 -0.4604508617743643 -4.672498416979221 2 0 0
3602 1181 4 -3.0742047357455857 -0.06604661825586194 -4.549181577307201 2 0 0
2231 724 4 -0.40632512484640004 -0.9714811693707155 -3.8052408189837017 -1 0 -1
551 164 4 -0.4590426936375025 -0.7217344782331605 -3.471152201419985 0 0 0
3447 1129 4 -8.753160102220239 -8.632254459264573 -2.232783085549595 1 0 1
2663 868 4 -5.013401884419946 -1.2165774605027773 -0.9608237188905273 1 -1 0
3445 1129 2 -8.556899633250556 -9.0797060215087 -2.126627879528732 1 0 1
3446 1129 4 -8.360639164280872 -9.527157583752828 -2.0204726735078693 1 0 1
4383 1441 4 -6.8955447213837 -8.258789638234003 -2.313725742185442 1 1 2
2400 780 4 -8.240587709622123 -9.775032670172896 -1.7070686411596738 1 0 -1
813 251 4 -6.012517095122916 -8.600977004891718 -2.143547335550167 1 1 0
811 251 2 -6.4137062356735095 -8.472488795361471 -1.874218440858245 1 1 0
4190 1377 4 -0.03425231155178404 -7.928409609135692 -5.565647986065787 1 1 0
4063 1335 2 -3.58246998706246 -8.563093554213705 -1.7627014542123847 1 0 1
4065 1335 4 -3.590690731540068 -8.395457213844274 -2.2336902828989436 1 0 1
3428 1123 4 -2.1513405949109887 -8.460248876269766 -2.8736762827450866 1 1 0
4085 1342 4 -2.1211672188654065 -9.560667507123158 -3.228185750757495 1 1 0
75 15 3 -2.2112756663474102 -9.361323638800348 -2.9055924657017145 0 0 -1
74 15 3 -1.9359567138969276 -8.707908870847294 -2.6523166961488758 0 0 -1