LAMMPS data file via write_data, version 27 Jun 2024, timestep = 6000000, units = lj

4560 atoms
4 atom types
3060 bonds
1 bond types

-9.998647 9.998647 xlo xhi
-9.998647 9.998647 ylo yhi
-9.998647 9.998647 zlo zhi

Masses

1 1
2 1
3 0.5
4 0.5

Bond Coeffs # zero

1 0

Atoms # bond

1344 428 4 -8.899612624186398 -9.611621347987906 -9.723140785803766 0 1 0
3093 1011 4 -8.822881083496148 -9.259536324203097 -9.872621309111887 1 0 1
989 310 4 -9.93558300685231 -9.153686601372518 -8.984638189751255 0 0 1
3091 1011 2 -8.386347823692752 -9.047316293043894 -9.992627023394684 1 0 1
1342 428 2 -9.16686016223702 -9.955603893862289 -9.477672332556939 0 1 0
988 310 2 -9.96767141607202 -9.059434652811882 -9.474624826493498 0 0 1
1540 494 2 -6.8111526791717205 -8.587515385017754 -8.993259054860479 0 1 0
1541 494 4 -6.966302802646265 -8.502470093181577 -9.46090821558072 0 1 0
1542 494 4 -6.656002555697176 -8.672560676853932 -8.525609894140239 0 1 0
497 146 4 -6.844078208523302 -8.199278934974657 -9.694046689346079 0 0 0
1977 639 4 -5.6495303302761615 -9.95578171558577 -1.0571724436033345 0 1 0
753 231 4 -6.31102579494216 -8.85645832820898 -8.511217460090473 0 0 1
751 231 2 -5.850322025343954 -8.671242593695382 -8.452504868879165 0 0 1
752 231 4 -5.389618255745748 -8.486026859181784 -8.393792277667858 0 0 1
194 45 4 -0.0034686159881949785 -3.5456824871456813 -1.3133867444940341 0 0 0
926 289 4 -3.9035312870503405 -8.89331310974275 -8.788601453725054 0 0 1
605 182 4 -3.9768302201625425 -8.567319685634772 -9.006963344154395 0 0 0
925 289 2 -3.5124736397912404 -8.971992468402664 -9.090070316198545 0 0 1
927 289 4 -3.1214159925321403 -9.05067182706258 -9.391539178672037 0 0 1
287 76 4 -2.8250015914298 -8.923289907167225 -9.601077408500508 0 0 0
286 76 2 -2.374812406961429 -8.939851068068444 -9.818000035575523 0 0 0
1075 339 2 -1.3275003337374263 -9.951909350967007 -9.37897211742132 0 0 1
1077 339 4 -1.1764798626961468 -9.926444415615338 -9.854938875077535 0 0 1
1736 559 4 -9.756054626354079 -8.224383826033208 -9.018932272348911 0 1 0
1735 559 2 -9.60124801879373 -7.946906930170502 -9.404991188212097 0 1 0
3485 1142 4 -9.681451865993404 -8.220807047217829 -8.640109890721599 1 1 0
1737 559 4 -9.44644141123338 -7.669430034307795 -9.791050104075284 0 1 0
850 264 2 -7.618066550749818 -7.080843597396332 -8.606440808033064 0 0 1
852 264 4 -7.741302170666784 -7.131831772988303 -9.088325844046137 0 0 1
168 36 4 -7.558797194149732 -7.298023654108805 -9.409288331452158 0 0 0
166 36 2 -7.337663389618132 -7.00526362565161 -9.748981437404046 0 0 0
589 177 2 -5.6450940131244955 -6.787549557845367 -8.753744242548207 0 0 0
496 146 2 -6.422805507700071 -8.231560835546881 -9.961417574889541 0 0 0
604 182 2 -4.232813108295307 -8.255520751011128 -8.711575149822211 0 0 0
606 182 4 -4.488795996428073 -7.943721816387482 -8.416186955490026 0 0 0
224 55 4 -3.0366886090992558 -6.772005467003288 -9.725201111816 0 0 0
567 169 4 -0.21884579588943545 -0.08115439641079442 -1.589167844433247 0 0 0
591 177 4 -5.682023567836168 -6.583232598042562 -9.208596732840823 0 0 0
997 313 2 -4.865032399678895 -6.6409106663345865 -9.610975219511815 0 0 1
999 313 4 -4.694368975530119 -6.354908508897646 -9.23804525075291 0 0 1
225 55 4 -2.2589868924440766 -6.152827963250914 -9.616576718801825 0 0 0
223 55 2 -2.647837750771666 -6.462416715127101 -9.670888915308913 0 0 0
315 85 4 -2.2477302859888013 -5.800707905980925 -9.44296838096813 0 0 0
313 85 2 -2.393667727221037 -5.40219157812005 -9.707329875281593 0 0 0
1685 542 4 -1.7133007177959532 -0.38118859370084623 -1.2482256554206168 0 0 0
437 126 4 -7.588372189095693 -4.936625986888648 -9.742959956941714 0 0 0
444 128 4 -6.766527392976445 -3.847897414045025 -9.9673924637105 0 0 0
442 128 2 -6.473956000660112 -4.21899514969772 -9.804026460539195 0 0 0
443 128 4 -6.181384608343779 -4.590092885350414 -9.64066045736789 0 0 0
683 208 4 -3.2881967717047265 -4.828902615934442 -8.351210841634016 0 0 0
682 208 2 -2.926380441639405 -4.580835287074141 -8.59110986966565 0 0 0
684 208 4 -2.5645641115740836 -4.332767958213839 -8.831008897697282 0 0 0
1443 461 4 -2.4549029769284254 -3.948384608398138 -8.742640081187995 0 0 0
1319 420 4 -2.1408931329731797 -0.028091165344780067 -7.041142942626688 0 0 0
1441 461 2 -2.0437498540123773 -3.679012696897698 -8.651032860890954 0 0 0
1442 461 4 -1.6325967310963287 -3.409640785397258 -8.559425640593913 0 0 0
2301 747 4 -8.486395914131275 -3.0859467648904917 -9.87413804626376 0 0 1
376 106 2 -5.908610862324443 -3.205448636143953 -8.726595158082388 0 0 0
377 106 4 -5.718466008183904 -2.9431325837985423 -9.107430060796768 0 0 0
1110 350 4 -5.713734725019777 -2.5306593905573034 -9.061852080616482 0 0 1
1108 350 2 -5.401683398236674 -2.380542936562337 -9.422530635139555 0 0 1
1109 350 4 -5.089632071453571 -2.230426482567371 -9.783209189662628 0 0 1
173 38 4 -4.815726979704063 -2.9910333714137955 -9.157113695501117 0 0 0
172 38 2 -4.536056396300709 -2.7792926048775777 -8.800812962180562 0 0 0
174 38 4 -4.256385812897355 -2.5675518383413602 -8.444512228860006 0 0 0
466 136 2 -8.990849511336348 -0.321355521815536 -9.587712158432637 0 0 0
467 136 4 -9.390877911108541 -0.6022655702110236 -9.692911132221326 0 0 0
3047 996 4 -8.125187770857817 -0.6998303120288033 -8.205799983234401 1 0 1
558 166 4 -3.873400765320676 -0.5830514001906635 -8.929930367102646 0 0 0
2331 757 4 -3.580076456746344 -0.5144559359655139 -8.645918352393892 0 0 1
556 166 2 -3.7696285113040506 -1.039271036073535 -9.106268006679306 0 0 0
557 166 4 -3.6658562572874254 -1.4954906719564067 -9.282605646255965 0 0 0
2329 757 2 -3.694627132065545 -0.2831522359998817 -8.217693246676374 0 0 1
633 191 4 -6.64621533862517 -8.438426881281606 -6.765172074776952 0 0 0
448 130 2 -3.423059799086016 -9.364803926232833 -7.202453657598884 0 0 0
450 130 4 -3.6306848873438766 -9.763140601751626 -7.422043538200296 0 0 0
449 130 4 -3.215434710828155 -8.96646725071404 -6.982863776997472 0 0 0
669 203 4 -2.9789377795754914 -8.840297033605808 -6.664192479518118 0 0 0
459 133 4 -0.9540404664756115 -8.515446568454673 -7.691571752930158 0 0 0
3484 1142 2 -9.815383614397488 -8.146705766953508 -8.164114841343942 1 1 0
307 83 2 -9.970201177965032 -6.849069525329348 -7.299501978816218 0 0 0
851 264 4 -7.494830930832852 -7.029855421804362 -8.12455577201999 0 0 1
1330 424 2 -7.722365976131886 -7.317096804070573 -6.811604936454 0 1 0
1332 424 4 -7.981795650891421 -7.118741163787006 -7.190222532217898 0 1 0
620 187 4 -7.428525040923933 -6.717772077446725 -7.881032596768786 0 0 0
267 69 4 -5.519260148850572 -7.351781103110093 -8.20020289539973 0 0 0
590 177 4 -5.608164458412824 -6.9918665176481705 -8.29889175225559 0 0 0
265 69 2 -5.038338906676137 -7.4867989278842 -8.178181410017741 0 0 0
266 69 4 -4.557417664501703 -7.621816752658307 -8.156159924635753 0 0 0
503 148 4 -3.700626414504672 -7.552705391722006 -7.015241853134505 0 0 0
2865 935 4 -3.7736986860778217 -7.828796049365094 -7.27105583829652 0 0 0
2863 935 2 -3.282647724280549 -7.9034638650423075 -7.328446344648412 0 0 0
2864 935 4 -2.791596762483277 -7.978131680719522 -7.385836851000303 0 0 0
945 295 4 -3.3564280744399477 -6.889208625519367 -7.71666449612653 0 0 1
943 295 2 -2.9180665742226166 -6.677769088720632 -7.83126169244876 0 0 1
457 133 2 -0.6045656277285465 -8.195340560835936 -7.532199606779019 0 0 0
458 133 4 -0.2550907889814816 -7.875234553217199 -7.372827460627881 0 0 0
897 279 4 -0.18132638905481058 -7.852638821591867 -6.991284748666183 0 0 1
309 83 4 -9.696518452463977 -6.657330830773473 -6.927569137066276 0 0 0
159 33 4 -9.455261614878566 -6.381079897896706 -6.732389899342321 0 0 0
403 115 2 -8.192601186655157 -5.312063814926577 -7.369560936123595 0 0 0
619 187 2 -7.560000646628371 -6.281751858161363 -7.674633630009824 0 0 0
404 115 4 -7.972239379528707 -5.72659407372541 -7.197498916780533 0 0 0
621 187 4 -7.691476252332809 -5.845731638876002 -7.468234663250862 0 0 0
222 54 4 -6.053139254022189 -5.294428981574448 -7.7272770655068435 0 0 0
220 54 2 -5.774655607504491 -5.707284343589763 -7.77196832502293 0 0 0
221 54 4 -5.496171960986794 -6.120139705605078 -7.816659584539016 0 0 0
1585 509 2 -4.5944067114416995 -5.480365089451251 -7.162121219550098 0 1 0
1587 509 4 -4.643873708833388 -5.9725631846319445 -7.234881450924502 0 1 0
1586 509 4 -4.544939714050011 -4.988166994270557 -7.089360988175694 0 1 0
944 295 4 -2.4797050740052855 -6.4663295519218975 -7.9458588887709904 0 0 1
346 96 2 -2.6549846749572312 -5.55863168605839 -7.756667016763439 0 0 0
347 96 4 -2.378425432658968 -5.973744484020826 -7.722078717191352 0 0 0
3021 987 4 -2.0928289901748505 -6.4979488906321805 -8.033005116928924 0 0 0
3019 987 2 -1.602141803362346 -6.469881016552238 -8.124865223301084 0 0 0
3020 987 4 -1.1114546165498416 -6.441813142472295 -8.216725329673244 0 0 0
3902 1281 4 -0.6322864375954117 -5.959972795909433 -7.1908085882144 0 1 0
643 195 2 -0.6843191079555613 -5.140384521172407 -7.22472372823093 0 0 0
645 195 4 -0.7719706913848313 -5.587548882808039 -7.018905280065037 0 0 0
3901 1281 2 -0.38424179153150567 -6.279191958219699 -6.896575721300201 0 1 0
405 115 4 -8.412962993781607 -4.897533556127744 -7.541622955466658 0 0 0
485 142 4 -8.256451714361065 -4.582917546762238 -7.713206374231014 0 0 0
486 142 4 -7.980777151063147 -3.6918943914238 -8.073874187877228 0 0 0
484 142 2 -8.118614432712105 -4.137405969093019 -7.893540281054121 0 0 0
189 43 4 -7.9087545736827565 -3.5283739915858976 -7.703799599356102 0 0 0
2815 919 2 -5.47169945094778 -3.702387361354868 -7.802319688279811 1 0 0
2816 919 4 -5.192662089761944 -3.9707537613782975 -7.485905993251894 1 0 0
341 94 4 -6.23923784038287 -3.968925986864731 -6.7674236305881905 0 0 0
378 106 4 -6.098755716464983 -3.467764688489364 -8.345760255368008 0 0 0
1677 539 4 -6.3705956915698 -3.605600303491872 -6.8710165110922565 0 0 0
18 4 3 -4.910760282784098 -3.9070079228821104 -7.218505777097626 0 0 0
954 298 4 -4.027180025728188 -4.444996425365729 -7.580062008661553 0 0 1
20 4 3 -4.297825877678659 -4.151780589727074 -7.5808561001315145 0 0 0
16 4 1 -4.544306999394622 -4.191026989167233 -7.199927265874639 0 0 0
17 4 3 -4.693791964615889 -4.624238151868828 -7.160148707791159 0 0 0
19 4 3 -4.28269805785127 -4.08812641197348 -6.830776574533793 0 0 0
952 298 2 -3.605864082893803 -4.651577369722697 -7.752738555251534 0 0 1
348 96 4 -2.9315439172554933 -5.143518888095954 -7.791255316335525 0 0 0
953 298 4 -3.1845481400594178 -4.858158314079666 -7.925415101841516 0 0 1
644 195 4 -0.5966675245262915 -4.693220159536774 -7.4305421763968225 0 0 0
2538 826 4 -0.6394885329892002 -4.377010555738765 -7.153782477812524 0 0 0
672 204 4 -1.4289184026472412 -3.1882304711734046 -8.28965162354285 0 0 0
2536 826 2 -0.9868535996402039 -4.131278388577558 -6.891193040680957 0 0 0
227 56 4 -8.920842693373718 -1.6884935663164664 -8.172638325085275 0 0 0
226 56 2 -9.272392173591129 -1.856499050976169 -7.859290084172165 0 0 0
228 56 4 -9.62394165380854 -2.0245045356358715 -7.545941843259054 0 0 0
324 88 4 -9.748619888717638 -1.7636936479815357 -7.249018365576557 0 0 0
188 43 4 -7.513810415595366 -2.628945629579488 -7.89100999867083 0 0 0
187 43 2 -7.711282494639061 -3.0786598105826926 -7.797404799013465 0 0 0
2817 919 4 -5.750736812133615 -3.4340209613314387 -8.118733383307728 1 0 0
530 157 4 -3.9239575730186895 -2.569427934430782 -8.17160146573528 0 0 0
529 157 2 -3.68436235123398 -2.427169577193069 -7.756442834012811 0 0 0
531 157 4 -3.44476712944927 -2.284911219955356 -7.341284202290341 0 0 0
543 161 4 -3.0575363156355206 -2.4381252151966843 -7.315342202916596 0 0 0
671 204 4 -1.790060696459405 -2.6648007182578026 -7.517901963754127 0 0 0
541 161 2 -2.578513599109974 -2.435648187963989 -7.458628983146189 0 0 0
542 161 4 -2.0994908825844276 -2.4331711607312934 -7.601915763375783 0 0 0
670 204 2 -1.6094895495533235 -2.9265155947156036 -7.903776793648489 0 0 0
3046 996 2 -8.31866198711068 -1.1603531325552503 -8.183744158160021 1 0 1
3048 996 4 -8.512136203363543 -1.6208759530816967 -8.16168833308564 1 0 1
577 173 2 -9.841105986555771 -0.6572122545356689 -7.277352940846193 0 0 0
578 173 4 -9.937206426320039 -0.4536002334555009 -7.723790898852132 0 0 0
579 173 4 -9.745005546791504 -0.8608242756158369 -6.8309149828402544 0 0 0
2726 889 4 -9.416689213467498 -0.6251155053609702 -6.781989503546849 1 0 0
2568 836 4 -9.693670163819638 -0.12080235224406188 -7.771121312568424 1 0 0
1621 521 2 -5.1458960073371784 -0.8972166783168761 -6.675776751394408 0 0 0
1622 521 4 -4.739843880125376 -0.7154958337492412 -6.9040292533221645 0 0 0
2330 757 4 -3.8091778073847458 -0.05184853603424944 -7.789468140958856 0 0 1
839 260 4 -4.568523375847652 -0.3489968786652254 -6.968537737625285 0 0 1
838 260 2 -4.3641300071782485 -0.09129276981777142 -7.3451170030228115 0 0 1
456 132 4 -2.0974416037013413 -0.23026377986082325 -6.704748837636796 0 0 0
2595 845 4 -1.3295529504339794 -1.764692528515085 -6.956984562064543 0 0 0
1447 463 2 -9.876823361137157 -8.579463420904492 -5.920010902818126 0 1 0
1448 463 4 -9.422733521763686 -8.472161348202858 -5.740320382835584 0 1 0
1796 579 4 -9.036151723815859 -8.49134433021521 -5.827533838750733 0 1 0
1795 579 2 -8.781266437991288 -8.913417969115706 -5.7445438730012865 0 1 0
1797 579 4 -8.526381152166719 -9.335491608016202 -5.66155390725184 0 1 0
522 154 4 -8.640057351562525 -9.700105369153004 -5.628390712810499 0 0 0
386 109 4 -6.9609870693255695 -8.154253448063304 -5.47906646791823 0 0 0
632 191 4 -6.896729118783506 -8.388527756333877 -5.798345863258378 0 0 0
631 191 2 -6.771472228704338 -8.413477318807741 -6.281758969017665 0 0 0
1393 445 2 -9.877372271621722 -1.678435436613093 -3.1106469971292054 0 0 0
2533 825 2 -5.223486129973224 -9.535006702438663 -5.357018014925665 1 0 0
2535 825 4 -5.22290607900306 -9.049666928855512 -5.23683079547547 1 0 0
2679 873 4 -9.901411700643946 -1.312651529522318 -5.161201734078793 1 0 0
614 185 4 -5.200749725419847 -8.685063983088108 -5.143447569664136 0 0 0
653 198 4 -3.8718970681095075 -9.061825765020513 -5.99349057548845 0 0 0
652 198 2 -3.9462391400396855 -9.127766134390408 -5.503464939395555 0 0 0
654 198 4 -4.020581211969863 -9.193706503760302 -5.01343930330266 0 0 0
667 203 2 -2.7256688824334305 -8.501706964859357 -6.397337404456157 0 0 0
385 109 2 -6.8531180519287105 -8.175019155584582 -4.991282642359383 0 0 0
1331 424 4 -7.462936301372352 -7.51545244435414 -6.432987340690102 0 1 0
1707 549 4 -7.206254976709156 -7.673630960633127 -6.208912540447127 0 1 0
1705 549 2 -7.234363137801758 -7.439651308972218 -5.76793243444623 0 1 0
1706 549 4 -7.26247129889436 -7.205671657311309 -5.3269523284453335 0 1 0
502 148 2 -4.100207963362452 -7.387067854099622 -6.764445537485925 0 0 0
154 32 2 -4.9655770468254525 -6.9660455464596645 -6.241354872154352 0 0 0
504 148 4 -4.499789512220232 -7.221430316477238 -6.513649221837346 0 0 0
155 32 4 -4.849280127351615 -7.382624363433074 -6.492227580455418 0 0 0
1947 629 4 -2.143788158872929 -8.159079893407254 -5.87700291224897 0 1 1
668 203 4 -2.4723999852913696 -8.163116896112907 -6.130482329394195 0 0 0
1945 629 2 -1.8160797644703623 -7.810775436056659 -6.022918001349825 0 1 1
551 164 4 -3.047022339254982 -6.763837227644308 -5.102746308594027 0 0 0
1946 629 4 -1.4883713700677956 -7.4624709787060635 -6.16883309045068 0 1 1
1130 357 4 -1.0994476646334734 -7.490325248531318 -6.1634854428663175 0 0 1
1129 357 2 -0.7526688780638954 -7.15173788715641 -6.286379998896927 0 0 1
1131 357 4 -0.4058900914943174 -6.813150525781503 -6.409274554927537 0 0 1
699 213 4 -1.1703511681928491 -6.9186649900993125 -5.5078438707124535 0 0 0
157 33 2 -9.640533004515605 -5.96237062338338 -6.53149924346648 0 0 0
158 33 4 -9.825804394152645 -5.543661348870055 -6.330608587590639 0 0 0
156 32 4 -5.08187396629929 -6.549466729486255 -5.990482163853286 0 0 0
552 164 4 -3.694946191415991 -6.019236475460619 -4.942233375634604 0 0 0
550 164 2 -3.3709842653354865 -6.3915368515524635 -5.022489842114315 0 0 0
673 205 2 -2.2156021005986934 -6.084649438479691 -5.885515946813415 0 0 0
674 205 4 -2.0777945055027947 -5.700951161057292 -6.174971813289172 0 0 0
675 205 4 -2.353409695694592 -6.468347715902091 -5.596060080337658 0 0 0
3903 1281 4 -0.13619714546759965 -6.598411120529965 -6.602342854386002 0 1 0
250 64 2 -0.652998803619351 -5.204085800915633 -5.585934615132872 0 0 0
252 64 4 -1.1232194324930727 -5.13827839770121 -5.429212102825963 0 0 0
251 64 4 -0.18277817474562935 -5.269893204130057 -5.742657127439781 0 0 0
697 213 2 -1.2224270608711463 -6.5661532876893975 -5.157096666781607 0 0 0
165 35 4 -0.23589778328297847 -0.3736723659885052 -0.39671464450401406 0 0 0
207 49 4 -9.966183801857492 -3.8922685634819683 -5.081378521058175 0 0 0
342 94 4 -6.077490396795733 -4.694858885936684 -6.098948357644494 0 0 0
340 94 2 -6.158364118589302 -4.331892436400707 -6.433185994116342 0 0 0
617 186 4 -5.207585021735939 -3.45123702138945 -5.848803632757448 0 0 0
616 186 2 -5.573668202263638 -3.69895698324233 -5.615098850104971 0 0 0
618 186 4 -5.9397513827913375 -3.94667694509521 -5.381394067452494 0 0 0
725 222 4 -6.196169039801811 -4.230428485130457 -5.479714673173753 0 0 0
724 222 2 -6.4396056596841955 -4.420847244721256 -5.086676115147132 0 0 0
2606 849 4 -4.334171037640209 -3.7346705668182945 -6.6596795651916745 1 0 0
2607 849 4 -4.811736734596483 -3.366712808982976 -5.861846190644765 1 0 0
2605 849 2 -4.572953886118346 -3.550691687900635 -6.26076287791822 1 0 0
2537 826 4 -1.3342186662912077 -3.8855462214163503 -6.628603603549389 0 0 0
641 194 4 -1.2294623393446702 -4.796724258825062 -5.2243205257230025 0 0 0
2116 686 2 -9.874882200744278 -3.489109293770017 -6.669510553008203 0 0 1
2117 686 4 -9.894740877567775 -3.420386137658444 -6.174654249856795 0 0 1
1675 539 2 -6.36828744777227 -3.185133625094337 -6.60045700863934 0 0 0
1676 539 4 -6.3659792039747405 -2.764666946696802 -6.329897506186424 0 0 0
695 212 4 -6.3478845795992935 -2.3820081947651572 -6.379594822397076 0 0 0
694 212 2 -6.092435008571016 -2.0389237326518197 -6.1206767494137555 0 0 0
696 212 4 -5.836985437542738 -1.6958392705384822 -5.861758676430435 0 0 0
505 149 2 -0.03329787367920818 -2.4417552090037757 -5.2174619138054315 0 0 0
2880 940 4 -0.8180933150744538 -2.9124728164369946 -5.125791559385983 0 0 0
2725 889 2 -9.046274151361265 -0.7327850821237557 -6.463870117145212 1 0 0
2727 889 4 -8.675859089255033 -0.8404546588865407 -6.1457507307435755 1 0 0
312 84 4 -8.460034903960599 -0.5830682462784466 -5.918829102513387 0 0 0
310 84 2 -8.05908126830664 -0.4772295753054414 -5.63948279811305 0 0 0
311 84 4 -7.658127632652681 -0.37139090433243627 -5.360136493712714 0 0 0
1623 521 4 -5.551948134548981 -1.078937522884511 -6.447524249466651 0 0 0
1489 477 2 -5.4681418055358115 -0.4476084637453659 -5.190399785032811 0 0 0
1491 477 4 -5.243056681923436 -0.791171871651334 -5.475532862517468 0 0 0
1679 540 4 -4.920589193738625 -1.009521573112886 -5.392057422918592 0 0 0
1680 540 4 -3.930419897769591 -0.8905723811559324 -5.465649916110811 0 0 0
1678 540 2 -4.425504545754108 -0.9500469771344091 -5.428853669514702 0 0 0
1803 581 4 -3.6333924066249033 -0.6462034112302759 -5.3790198938673015 0 0 0
454 132 2 -1.6349733395042703 -0.14830472869135167 -6.533267589270456 0 0 0
1801 581 2 -3.1745356814525354 -0.7088126199926041 -5.567515497906259 0 0 0
1802 581 4 -2.715678956280168 -0.7714218287549321 -5.756011101945216 0 0 0
217 53 2 -2.092214427332434 -1.3000316671696137 -5.641590889724851 0 0 0
219 53 4 -2.532909508854038 -1.0829701183894758 -5.548466622404656 0 0 0
1459 467 2 -0.3184255307483625 -0.1145043229448287 -6.631592507098847 0 0 0
2118 686 4 -9.85502352392078 -3.5578324498815905 -7.16436685615961 0 0 1
2593 845 2 -1.3444073277554716 -1.7076800088714201 -6.460467774756475 0 0 0
2594 845 4 -1.3592617050769638 -1.6506674892277553 -5.963950987448408 0 0 0
218 53 4 -1.6515193458108302 -1.5170932159497517 -5.734715157045046 0 0 0
455 132 4 -1.1725050753071993 -0.0663456775218801 -6.361786340904116 0 0 0
1430 457 4 -9.850262445500107 -9.499943144673951 -4.909021694117383 0 1 0
1429 457 2 -9.644404727590324 -9.216588366020453 -4.552184659336504 0 1 0
1431 457 4 -9.43854700968054 -8.933233587366953 -4.195347624555623 0 1 0
2429 790 4 -9.586061029698097 -8.578094202926899 -4.315798402046463 1 0 0
613 185 2 -5.240941677584366 -8.55817930624195 -4.661488146307192 0 0 0
555 165 4 -6.42934535937883 -8.41861955275011 -4.536763937070031 0 0 0
553 165 2 -6.213325046087211 -8.592821813110302 -4.1208447180730685 0 0 0
554 165 4 -5.997304732795591 -8.767024073470493 -3.704925499076106 0 0 0
1674 538 4 -5.812438085168943 -8.600476781252466 -3.3718254972779995 0 1 0
615 185 4 -5.281133629748885 -8.431294629395792 -4.1795287229502485 0 0 0
239 60 4 -4.181881502789166 -8.918812982557226 -4.798898455641867 0 0 0
238 60 2 -4.01358118509377 -8.499575242448289 -4.58462125122629 0 0 0
240 60 4 -3.845280867398374 -8.080337502339352 -4.370344046810713 0 0 0
969 303 4 -8.26062309216905 -7.224465934017115 -4.675093620974764 0 0 0
2428 790 2 -9.756455989804202 -8.10970411788944 -4.355500868077655 1 0 0
967 303 2 -8.483631313604628 -6.790660986305113 -4.785005406114111 0 0 0
2430 790 4 -9.926850949910307 -7.641314032851981 -4.395203334108848 1 0 0
387 109 4 -6.745249034531851 -8.19578486310586 -4.503498816800535 0 0 0
2750 897 4 -8.338018064101968 -7.507181893795521 -4.413969745773597 1 0 0
2749 897 2 -8.161306817672509 -7.538063949469406 -3.947258449550238 1 0 0
2751 897 4 -7.984595571243051 -7.5689460051432915 -3.4805471533268784 1 0 0
608 183 4 -3.5066581152610277 -7.8390791857333975 -4.334014885537636 0 0 0
607 183 2 -3.3573686992764045 -7.471581210123889 -4.638412500833795 0 0 0
609 183 4 -3.2080792832917813 -7.104083234514381 -4.942810116129953 0 0 0
1168 370 2 -1.908448429490699 -8.159843961846022 -3.555172184773695 0 0 0
1170 370 4 -2.332571695010299 -8.247195343252079 -3.305193802085367 0 0 0
1169 370 4 -1.4843251639710993 -8.072492580439965 -3.8051505674620225 0 0 0
396 112 4 -1.357843661640747 -7.683932692391856 -3.8008721156469965 0 0 0
394 112 2 -0.9298538126821765 -7.4394376373221665 -3.7169265545067374 0 0 0
395 112 4 -0.5018639637236061 -7.194942582252477 -3.6329809933664783 0 0 0
381 107 4 -0.16261667738589589 -7.375221861379069 -3.6002693315524263 0 0 0
2752 898 2 -9.215103552184097 -6.169600977896204 -4.229851621601333 1 0 0
968 303 4 -8.706639535040205 -6.356856038593111 -4.894917191253458 0 0 0
2753 898 4 -8.998829381254026 -6.326286153755735 -4.652551560865978 1 0 0
2754 898 4 -9.431377723114167 -6.012915802036673 -3.807151682336688 1 0 0
2778 906 4 -9.637848899294879 -6.083584701815538 -3.458218221017797 1 0 0
538 160 2 -6.322796749340524 -5.362697771212639 -4.510145546337537 0 0 0
512 151 4 -6.341982516530484 -6.08850032991934 -4.062592817289117 0 0 0
540 160 4 -6.151703264436098 -5.763284867797093 -4.264672538711434 0 0 0
511 151 2 -6.343946225418774 -5.998290583044439 -3.570801860259283 0 0 0
539 160 4 -6.49389023424495 -4.962110674628185 -4.7556185539636395 0 0 0
261 67 4 -3.969602728749612 -5.760873726506174 -4.828289759514478 0 0 0
259 67 2 -4.044481191782153 -5.684961257327045 -4.339791537617086 0 0 0
260 67 4 -4.119359654814694 -5.609048788147917 -3.8512933157196945 0 0 0
1553 498 4 -3.7177625411296744 -5.624578364356128 -3.833638318041314 0 0 0
1552 498 2 -3.4154932457483844 -5.723081623887309 -3.4477233261955598 0 0 0
698 213 4 -1.2745029535494434 -6.213641585279483 -4.80634946285076 0 0 0
2801 914 4 -9.65335864202993 -3.8593287695097396 -4.830347662840147 1 0 0
2800 914 2 -9.467263571249555 -3.7459743890786537 -4.3803260977254235 1 0 0
2802 914 4 -9.28116850046918 -3.6326200086475677 -3.9303045326107 1 0 0
732 224 4 -8.97186728497161 -4.480894603613649 -3.3595820535286918 0 0 0
726 222 4 -6.683042279566579 -4.611266004312054 -4.6936375571205105 0 0 0
640 194 2 -1.0537196945727623 -4.427775850746051 -4.936237907391761 0 0 0
642 194 4 -0.8779770498008544 -4.05882744266704 -4.64815528906052 0 0 0
2879 940 4 -0.9423513161874664 -3.6944145084456252 -4.514950222000837 0 0 0
299 80 4 -6.153727107877129 -2.327080311992319 -4.865310136552506 0 0 0
298 80 2 -5.994128945559583 -2.0295529314154725 -4.496520380197779 0 0 0
13 3 3 -5.698860773866759 -1.9232194207957096 -3.7941883160235883 0 0 0
11 3 1 -5.470816185245796 -1.6208525421084492 -3.5261026277193417 0 0 0
12 3 3 -5.084441432761963 -1.8188476773076816 -3.3740747451436794 0 0 0
1949 630 4 -4.77041274314556 -1.9007552190879446 -3.6114926187301135 0 0 1
1948 630 2 -4.301613922657721 -2.0471909313378425 -3.7052169383445563 0 0 1
1950 630 4 -3.8328151021698815 -2.19362664358774 -3.7989412579589987 0 0 1
599 180 4 -3.669233842502103 -2.120870889014209 -4.160772335062609 0 0 0
598 180 2 -3.231228366311613 -1.8797254396587593 -4.160498323866534 0 0 0
2878 940 2 -0.8802223156309601 -3.30344366244131 -4.82037089069341 0 0 0
506 149 4 -0.4783881870935665 -2.6610001183453726 -5.1556049608208445 0 0 0
1662 534 4 -8.391741684736006 -1.3113076315538696 -3.7904212223337557 0 0 0
1378 440 2 -7.001475118575002 -0.079745708144555 -4.592980355218853 0 0 0
1660 534 2 -8.187754091241077 -0.8802169627488834 -3.940587453456565 0 0 0
1380 440 4 -7.216487846945195 -0.5155330338128632 -4.475256383889532 0 0 0
1661 534 4 -7.983766497746148 -0.44912629394389714 -4.090753684579375 0 0 0
1490 477 4 -5.693226929148187 -0.10404505583939777 -4.9052667075481535 0 0 0
300 80 4 -5.834530783242037 -1.732025550838626 -4.1277306238430524 0 0 0
15 3 3 -5.36424717020329 -1.2492841852426844 -3.7668929954853523 0 0 0
600 180 4 -2.7932228901211227 -1.6385799903033096 -4.160224312670459 0 0 0
1499 480 4 -0.05221979554820794 -0.9562821796163354 -4.506762645657024 0 0 0
197 46 4 -0.2854836883971451 -1.123056686804915 -3.46422148354909 0 0 0
163 35 2 -0.40568251332070376 -0.772993688483702 -0.14828834386978687 0 0 0
2665 869 2 -9.722676367059211 -9.3198326297977 -2.108519931856136 1 0 0
2666 869 4 -9.349750932876058 -9.193194055786394 -2.4165609877427565 1 0 0
626 189 4 -8.98348464549601 -9.112597741315154 -2.572428605867886 0 0 0
625 189 2 -8.573718751932523 -8.8269087281814 -2.5506639499654438 0 0 0
1335 425 4 -9.074239066766676 -9.522046729385961 -1.8971336917036654 0 1 0
1333 425 2 -8.63844890615952 -9.560158621903994 -1.654988240441394 0 1 0
627 189 4 -8.163952858369036 -8.541219715047644 -2.5288992940630015 0 0 0
1672 538 2 -5.653767027480583 -8.988658720398513 -3.0995420464904355 0 1 0
1673 538 4 -5.4950959697922235 -9.37684065954456 -2.8272585957028715 0 1 0
248 63 4 -5.3622028772227415 -9.712450333430334 -3.007552259428831 0 0 0
3486 1142 4 -9.949315362801572 -8.072604486689187 -7.688119791966284 1 1 0
806 249 4 -2.3486998843032745 -8.664813314212982 -3.3583962881975618 0 0 0
807 249 4 -2.6645403695299534 -9.612342836921268 -3.309074979541868 0 0 0
1349 430 4 -9.991390087391048 -9.379232381501849 -8.676769214809404 0 1 0
805 249 2 -2.506620126916614 -9.138578075567125 -3.333735633869715 0 0 0
2543 828 4 -2.8553633777478904 -9.93010699803926 -3.137837701025708 0 0 0
1739 560 4 -3.0865500672030843 -0.8698484575011102 -1.1178440946117962 0 0 0
372 104 4 -8.028956205845484 -7.519627754880168 -3.0879427044125203 0 0 0
371 104 4 -7.8877874539455215 -8.242662372816287 -2.411708776874864 0 0 0
370 104 2 -7.958371829895502 -7.881145063848227 -2.749825740643692 0 0 0
461 134 4 -6.358818819645403 -7.97775980428961 -1.6459577445775333 0 0 0
3031 991 2 -4.58459800031255 -7.627731258391222 -1.7867529665981128 1 0 0
3033 991 4 -4.10679138713063 -7.6518750094227075 -1.9320730260706998 1 0 0
1145 362 4 -3.225673280837867 -7.839268165019341 -1.99243452552936 0 0 0
740 227 4 -3.171531390117745 -8.2428742131933 -1.9954851355668566 0 0 0
1144 362 2 -3.0834605902753034 -7.373316895143952 -2.1049732510627357 0 0 0
1146 362 4 -2.9412478997127396 -6.907365625268563 -2.2175119765961115 0 0 0
2777 906 4 -9.184524516628871 -6.100507432037767 -2.567033265308425 1 0 0
2776 906 2 -9.411186707961875 -6.0920460669266525 -3.012625743163111 1 0 0
513 151 4 -6.345909934307064 -5.908080836169538 -3.0790109032294484 0 0 0
647 196 4 -5.948590995308824 -5.888805070680095 -2.99357249875048 0 0 0
646 196 2 -5.473990953803964 -5.834488836567509 -2.8459088697984702 0 0 0
648 196 4 -4.999390912299105 -5.780172602454923 -2.6982452408464606 0 0 0
476 139 4 -4.719657412092108 -5.980703236489678 -2.4768664564959146 0 0 0
475 139 2 -4.392943032399245 -5.603812858589171 -2.442061900074172 0 0 0
1554 498 4 -3.1132239503670944 -5.821584883418489 -3.061808334349806 0 0 0
326 89 4 -3.2166297446396843 -5.934519687908104 -2.688927600010539 0 0 0
325 89 2 -2.990346435177858 -6.377382023988717 -2.637267023749115 0 0 0
327 89 4 -2.7640631257160315 -6.82024436006933 -2.585606447487691 0 0 0
730 224 2 -9.409145585694358 -4.3445707426690925 -3.15907396727228 0 0 0
731 224 4 -9.846423886417105 -4.208246881724536 -2.958565881015868 0 0 0
477 139 4 -4.066228652706382 -5.226922480688664 -2.407257343652429 0 0 0
947 296 4 -3.864407991019361 -4.945247093158982 -2.2031424276477547 0 0 0
593 178 4 -4.229239724326296 -3.641904358262668 -2.961735462309795 0 0 0
946 296 2 -3.8369237175229665 -4.611586639347747 -1.831772913183614 0 0 0
719 220 4 -2.651296608925345 -3.53784711118762 -2.0076552307776265 0 0 0
718 220 2 -2.9464728123414337 -3.515810849721494 -2.41062596435213 0 0 0
720 220 4 -3.241649015757522 -3.493774588255368 -2.813596697926634 0 0 0
1709 550 4 -2.6773631568908143 -3.2404767501247855 -1.746475051126553 0 0 0
2212 718 2 -8.24729426952985 -2.7237329656175393 -1.6175629301026 0 0 0
2214 718 4 -8.210839646148502 -2.322272480937994 -1.9133678314735258 0 0 0
3467 1136 4 -8.245326840184843 -1.9045180438157632 -1.8636992200080893 1 0 0
794 245 4 -5.463423255283811 -3.098052565468368 -2.815907984684933 0 0 0
2442 794 4 -5.780108060845613 -2.9446098766909383 -3.0120892936181116 1 0 0
2440 794 2 -6.010050318652439 -2.9386141795908234 -2.568140411773609 1 0 0
2441 794 4 -6.239992576459265 -2.9326184824907084 -2.1241915299291065 1 0 0
366 102 4 -6.4796561629448135 -3.2491678924742193 -2.1065753107469045 0 0 0