LAMMPS data file via write_data, version 27 Jun 2024, timestep = 6000000, units = lj

4920 atoms
4 atom types
3420 bonds
1 bond types

-9.998647 9.998647 xlo xhi
-9.998647 9.998647 ylo yhi
-9.998647 9.998647 zlo zhi

Masses

1 1
2 1
3 0.5
4 0.5

Bond Coeffs # zero

1 0

Atoms # bond

1250 277 4 -8.594986682880824 -9.636459035720222 -9.187461468881718 0 0 0
2393 658 4 -8.793559621836886 -9.937158153860254 -9.358780955825413 0 1 0
1249 277 2 -8.122850668287304 -9.47542841514494 -9.221472098997154 0 0 0
1251 277 4 -7.650714653693783 -9.314397794569658 -9.25548272911259 0 0 0
1483 355 2 -6.953338051369037 -9.085426822282622 -9.344700160895238 0 0 0
1485 355 4 -7.440842683695248 -8.975063457887066 -9.35731607383968 0 0 0
1484 355 4 -6.465833419042825 -9.19579018667818 -9.332084247950796 0 0 0
1821 467 4 -6.300301446660142 -9.530785560952642 -9.44981849043749 0 0 1
3530 1037 4 -9.991954175812095 -7.136014707236779 -0.2177519538991982 1 0 0
1344 308 4 -3.8901863253472344 -9.22272870870623 -9.200151916008199 0 0 0
1342 308 2 -4.193814388146839 -8.872713602595107 -9.012270504009702 0 0 0
1343 308 4 -4.497442450946442 -8.522698496483986 -8.824389092011206 0 0 0
1743 441 4 -3.4913504696891997 -9.234870197040294 -9.070028959661848 0 0 1
1741 441 2 -3.1619200297221313 -9.47501359297788 -8.78053503121068 0 0 1
1742 441 4 -2.832489589755063 -9.715156988915467 -8.491041102759514 0 0 1
1991 524 4 -1.0561505864045588 -8.994711715951317 -9.09035881372291 0 0 1
1990 524 2 -0.8644002313229009 -8.652256036137032 -9.400126321201412 0 0 1
1992 524 4 -0.672649876241243 -8.309800356322748 -9.709893828679915 0 0 1
1423 335 2 -9.766347559489079 -7.456024336647511 -8.646350959410901 0 0 0
2666 749 4 -9.97586335691545 -8.132027170504507 -8.841371875986848 0 1 1
1425 335 4 -9.40750174965554 -7.110539200798027 -8.603110866068967 0 0 0
1336 306 2 -7.055313725880093 -7.082900558391129 -8.422148941980371 0 0 0
1337 306 4 -6.835905252069585 -7.486876745668518 -8.225519438259756 0 0 0
1338 306 4 -7.274722199690601 -6.678924371113741 -8.618778445700986 0 0 0
137 28 3 -5.1352805932166055 -6.797750941866552 -9.61126100510847 0 0 1
2844 808 4 -4.65860600241318 -8.162431444011768 -8.927575753148693 0 1 1
136 28 1 -4.8341840351019005 -6.925470635591706 -9.93472436087842 0 0 1
138 28 3 -4.494296678482982 -7.170206154406768 -9.735021805459997 0 0 1
2843 808 4 -4.371063397942983 -7.552286185956006 -9.66584536154854 0 1 1
2842 808 2 -4.514834700178081 -7.857358814983887 -9.296710557348616 0 1 1
1288 290 2 -3.4314616569598395 -7.457782083475361 -8.541776096020342 0 0 0
1290 290 4 -3.003319199230391 -7.543316217505245 -8.785452003333978 0 0 0
213 43 3 -3.0693377094620438 -7.3026003584832635 -9.107346357425932 0 0 1
211 43 1 -2.668309452881213 -7.2461664440983276 -9.33382273749833 0 0 1
212 43 3 -2.3387341802295616 -7.1442935108129415 -9.029516896081855 0 0 1
215 43 3 -2.5575933940582636 -7.630354430377284 -9.551862975797153 0 0 1
214 43 3 -2.7054819469214 -6.8970407883978675 -9.637186351365125 0 0 1
2442 674 4 -0.43011701807009106 -8.112165376557751 -9.498347243861648 0 1 0
2440 674 2 -0.18988283664684907 -7.935098903513884 -9.899514294103314 0 1 0
3907 1163 2 -9.152225202833964 -5.996181806012041 -8.808252792832691 1 0 1
615 123 3 -9.119882385336929 -5.729037673189991 -9.467337242669315 1 0 0
3908 1163 4 -9.19107173555288 -6.098485056510523 -9.296130842998247 1 0 1
611 123 1 -9.13728412467974 -5.532800494642682 -9.87793211504799 1 0 0
614 123 3 -9.307959148658659 -5.102923129793616 -9.84084455136091 1 0 0
458 92 3 -4.2702766107920445 -9.930117451954038 -1.1329040517587576 0 1 0
2294 625 4 -3.5245175721298367 -0.1665139402185249 -5.667123822560895 0 0 0
3684 1088 4 -8.377642546890124 -5.453179836428381 -9.856887955642682 1 0 1
3682 1088 2 -8.133303875597672 -5.111922394301572 -9.58514916212284 1 0 1
1220 267 4 -6.813854305500663 -5.986796227875394 -8.752920151985192 0 0 0
1093 225 2 -7.955770509842388 -4.984216228292796 -8.46341036012073 0 0 0
1219 267 2 -6.729607603913251 -5.724072058114541 -8.33593273743261 0 0 0
1402 328 2 -5.336990930373037 -6.232563265226509 -9.244001153325383 0 0 0
1404 328 4 -5.515609789351564 -6.063116293294978 -8.808819551094842 0 0 0
1403 328 4 -5.158372071394511 -6.4020102371580405 -9.679182755555924 0 0 0
1811 464 4 -4.915392150958228 -6.260775589034088 -9.974022856266503 0 0 1
1166 249 4 -3.32458875292434 -1.3345569739782157 -1.410429488157253 0 0 0
664 133 3 -1.1990832059071896 -6.258529511081824 -9.717036152980322 0 0 1
665 133 3 -1.7290058991551431 -5.743753128710957 -9.862250530138736 0 0 1
3683 1088 4 -7.8889652043052205 -4.770664952174762 -9.313410368603 1 0 1
1094 225 4 -7.8159817149851 -4.839703841198607 -8.921204268783717 0 0 0
13 3 3 -5.65120781380099 -3.483627453772321 -9.080350247571696 0 0 0
11 3 1 -5.189102789051366 -3.441855601771822 -9.08409971179161 0 0 0
14 3 3 -4.993358591912299 -3.8549032907173326 -9.16394841837784 0 0 0
1235 272 4 -0.9148358252634591 -4.002898747303577 -8.536259566712793 0 0 0
1832 471 4 -0.7695195599312241 -3.6318813192387887 -8.632095540575362 0 0 1
1234 272 2 -0.9787979609335731 -4.498446709105984 -8.517791682313907 0 0 0
1236 272 4 -1.0427600966036872 -4.993994670908391 -8.499323797915022 0 0 0
1684 422 2 -8.346721973632404 -1.9558797526680662 -8.492207675975857 0 0 1
1686 422 4 -8.737818414204746 -2.1414792880992053 -8.742400374948526 0 0 1
15 3 3 -5.044830700794391 -3.276034543618501 -8.685240161043218 0 0 0
1302 294 4 -5.434061186843828 -3.2164335034289953 -8.576568163330803 0 0 0
12 3 3 -5.068664322189027 -3.1526190734185486 -9.42090352169632 0 0 0
1971 517 4 -4.575695067104838 -2.678939413892356 -9.71346535109397 0 0 1
1499 360 4 -1.9945228903519951 -2.031300556515002 -9.321292278863629 0 0 0
142 29 3 -2.0913152805266564 -2.06597784263466 -9.698927549112017 0 0 1
1498 360 2 -1.5720582838252597 -1.7639687562562778 -9.313718323317836 0 0 0
1831 471 2 -0.7462116040511377 -3.132561409972114 -8.643773185997544 0 0 1
1500 360 4 -1.1495936772985245 -1.4966369559975536 -9.306144367772044 0 0 0
1833 471 4 -0.7229036481710513 -2.6332415007054397 -8.655450831419726 0 0 1
1580 387 4 -0.5291157703857822 -2.369151416635942 -8.388706607013706 0 0 1
1579 387 2 -0.12470929468954621 -2.0811826497951538 -8.448115291051852 0 0 1
1817 466 4 -7.322778452463803 -0.45393125468965234 -8.362763266155067 0 0 1
1816 466 2 -7.211866618266694 -0.24462514028625698 -8.803092138145722 0 0 1
2918 833 4 -6.8536067966370045 -0.24695729264988456 -9.507523416292013 0 0 1
1818 466 4 -7.100954784069586 -0.03531902588286162 -9.243421010136377 0 0 1
1311 297 4 -5.418823922603841 -0.587959715721462 -9.362825035371923 0 0 0
1309 297 2 -5.496729631214925 -0.7807926316913967 -8.90813154841106 0 0 0
1310 297 4 -5.574635339826009 -0.9736255476613314 -8.453438061450196 0 0 0
2654 745 4 -5.640873688825163 -0.5617679772577351 -9.690706187978545 0 0 1
1511 364 4 -7.601935794155869 -8.799347264486459 -7.07503226624235 0 0 0
1510 364 2 -7.6148247769569934 -9.268020169847388 -7.248754981806468 0 0 0
1512 364 4 -7.627713759758118 -9.736693075208317 -7.422477697370586 0 0 0
3540 1040 4 -5.228300171992662 -9.278700798019475 -7.414551630502142 0 0 1
3538 1040 2 -4.935881481492465 -8.880576999182473 -7.491938646506454 0 0 1
3539 1040 4 -4.643462790992268 -8.482453200345471 -7.569325662510765 0 0 1
2583 721 4 -2.6266534919632174 -9.981595367190248 -8.252696080868821 0 1 1
1307 296 4 -2.22590232248731 -9.323376505510018 -7.2414015211133655 0 0 0
4025 1202 4 -1.8580676800389013 -9.375804072978305 -7.421222144398389 0 1 0
1306 296 2 -2.4591882461939 -9.684886196068426 -6.986669462995983 0 0 0
4024 1202 2 -1.4483078749528082 -9.462185244859809 -7.694416572013648 0 1 0
4026 1202 4 -1.038548069866715 -9.548566416741313 -7.967610999628908 0 1 0
1496 359 4 -0.8612333992194645 -9.611095818681079 -8.331763500574123 0 0 0
1495 359 2 -0.46239932748625806 -9.310099534196832 -8.350001371920934 0 0 0
1497 359 4 -0.06356525575305161 -9.009103249712584 -8.368239243267745 0 0 0
4227 1269 4 -0.07104007272226376 -8.6995257300798 -8.138800252714823 0 1 0
1754 445 4 -9.245360175447729 -6.8704351073573156 -8.329384333456241 0 0 1
1753 445 2 -8.922379048393577 -6.716645087753273 -7.980053800240058 0 0 1
1059 213 4 -9.918752792029107 -6.751903969255142 -7.52367139807125 0 0 0
1297 293 2 -1.0717691663443691 -1.5473888086166512 -0.506394394327072 0 0 0
1160 247 4 -6.789346795933027 -7.677682273925172 -7.724956561091542 0 0 0
1159 247 2 -6.428023166413604 -7.633474084891147 -7.382187147676232 0 0 0
1161 247 4 -6.066699536894181 -7.589265895857122 -7.0394177342609225 0 0 0
1122 234 4 -4.598338441955661 -8.098840198397339 -7.649294305841082 0 0 0
1121 234 4 -3.808355860455727 -7.578159760948234 -7.973052553588625 0 0 0
1289 290 4 -3.859604114689288 -7.372247949445477 -8.298100188706707 0 0 0
1120 234 2 -4.203347151205694 -7.838499979672786 -7.811173429714853 0 0 0
3129 903 4 -1.1964762973351362 -7.7311086687165345 -7.163789807585179 0 0 0
3909 1163 4 -9.113378670115049 -5.8938785555135595 -8.320374742667136 1 0 1
1755 445 4 -8.599397921339424 -6.56285506814923 -7.630723267023874 0 0 1
1556 379 4 -9.58410329064182 -5.6185484789203475 -6.816700920427001 0 0 1
1154 245 4 -9.423114100947748 -5.2604581858937465 -6.7213684596646885 0 0 0
1555 379 2 -9.66753365526962 -6.012678433436689 -7.11284438770412 0 0 1
3216 932 4 -8.245942115278426 -6.37321239745479 -7.586677269039484 1 0 0
1557 379 4 -9.75096401989742 -6.406808387953031 -7.408987854981239 0 0 1
3214 932 2 -8.231141423490087 -5.8782861152761425 -7.656167662127349 1 0 0
3215 932 4 -8.216340731701747 -5.383359833097495 -7.725658055215215 1 0 0
1095 225 4 -8.095559304699675 -5.128728615386985 -8.005616451457742 0 0 0
1372 318 2 -7.20289600436447 -5.478404569475426 -7.286860648930807 0 0 0
1374 318 4 -7.623091376408171 -5.463515087793619 -7.016279510178226 0 0 0
1373 318 4 -6.782700632320768 -5.493294051157234 -7.557441787683388 0 0 0
1221 267 4 -6.645360902325838 -5.461347888353688 -7.918945322880028 0 0 0
1528 370 2 -5.279241970111402 -5.473755198218395 -6.98431972976941 0 0 0
1530 370 4 -5.463419469663946 -5.697053839113811 -7.392016143332802 0 0 0
1558 380 2 -1.9584765410901948 -5.869308128337209 -7.050364073054628 0 0 0
1560 380 4 -1.613038423768423 -5.618192420749983 -7.3103898573605015 0 0 0
1258 280 2 -1.155645697923243 -5.450371778557889 -7.778161209696235 0 0 0
1259 280 4 -1.2235236431535388 -5.651383758536671 -7.325406564820589 0 0 0
1260 280 4 -1.0877677526929472 -5.249359798579107 -8.230915854571883 0 0 0
1198 260 2 -6.911702090135006 -4.449712529276677 -6.67132123706519 0 0 0
1199 260 4 -7.127683944712327 -4.8785342388477275 -6.81083388844188 0 0 0
1533 371 4 -1.9402002265406666 -3.8232882635816283 -7.93417779085273 0 0 0
1531 371 2 -2.232000344869605 -3.4564730385068794 -7.760110902570153 0 0 0
1685 422 4 -7.955625533060061 -1.7702802172369274 -8.242014977003189 0 0 1
1300 294 2 -5.715035172982384 -2.9501256433137564 -8.260129002109831 0 0 0
1301 294 4 -5.99600915912094 -2.6838177831985175 -7.94368984088886 0 0 0
1328 303 4 -6.247323566408807 -2.368275026467437 -8.003312112512026 0 0 0
1436 339 4 -6.406565596648627 -1.8984240886713897 -6.741094194084096 0 0 0
1327 303 2 -6.237650588905563 -2.2035335074473945 -7.531330475774199 0 0 0
1329 303 4 -6.227977611402319 -2.038791988427352 -7.059348839036373 0 0 0
120 24 3 -5.086356394422669 -2.9096652615409258 -6.73209087006431 0 0 0
1532 371 4 -2.5238004631985436 -3.0896578134321304 -7.586044014287576 0 0 0
1360 314 2 -2.8750251281314108 -2.8305359963967476 -7.131393707261161 0 0 0
1361 314 4 -2.8311539620141892 -3.262229038547778 -7.379821640757414 0 0 0
1362 314 4 -2.9188962942486323 -2.3988429542457173 -6.882965773764908 0 0 0
4484 1355 4 -0.4419334519947442 -2.8015617838186926 -7.432360666539733 0 0 1
4483 1355 2 -0.31302608333278803 -3.191485692914162 -7.147155064525522 0 0 1
3425 1002 4 -7.629924941334352 -1.5515821298717218 -8.084668817685806 1 0 0
3424 1002 2 -7.5290113409723585 -1.0640299768628807 -8.038741229486119 1 0 0
3426 1002 4 -7.428097740610365 -0.5764778238540396 -7.992813641286432 1 0 0
1207 263 2 -7.00896862370435 -0.4035430610912061 -7.273370448414312 0 0 0
1208 263 4 -7.345657598451213 -0.13596577592676906 -7.0183352925087235 0 0 0
2303 628 4 -5.742861855334647 -1.0060984294157524 -8.091614159848586 0 0 0
2304 628 4 -6.7112330205185895 -0.9087447213846205 -7.86187617436587 0 0 0
1435 339 2 -6.404681871425986 -1.4170328197874267 -6.605968704922866 0 0 0
1209 263 4 -6.6722796489574865 -0.6711203462556431 -7.5284056043199 0 0 0
2302 628 2 -6.227047437926618 -0.9574215754001865 -7.976745167107228 0 0 0
2887 823 2 -0.9343806540699444 -0.33074395218851194 -7.639899931094835 0 0 1
2889 823 4 -0.6538085717850042 -0.7438719176816193 -7.615311503527495 0 0 1
1298 293 4 -0.8521218660067664 -1.24913967272407 -0.8422552530071743 0 0 0
2976 852 4 -7.297664949667589 -9.64975647086884 -6.255077518724164 0 1 1
1156 246 2 -7.238578953299202 -8.946959745173855 -5.7937150156725234 0 0 0
1157 246 4 -7.255024472865913 -9.425336974445464 -5.938230659810148 0 0 0
1158 246 4 -7.22213343373249 -8.468582515902245 -5.649199371534899 0 0 0
1172 251 4 -5.632488834928854 -8.351392652697948 -6.2748148922486955 0 0 0
4105 1229 2 -1.8991445958532172 -9.20731295053565 -5.2377489317824 0 1 0
4106 1229 4 -2.3559739705831046 -9.154566263066634 -5.041471807936182 0 1 0
4107 1229 4 -1.4423152211233297 -9.260059638004666 -5.434026055628618 0 1 0
1103 228 4 -1.5043514291522906 -8.99580044111613 -5.724351368975834 0 0 0
1102 228 2 -1.2219681720142175 -8.612109757483253 -5.876144502485333 0 0 0
1223 268 4 -9.004749648006346 -7.383241662846894 -5.511324812740284 0 0 0
1222 268 2 -9.030243196818022 -7.162036768714675 -5.063643593812484 0 0 0
68 14 3 -6.977251306436947 -8.15823226697604 -5.677236866293472 0 0 0
67 14 3 -7.13366989608142 -7.530370625589796 -5.294845726111725 0 0 0
66 14 1 -6.823271395768623 -7.864962304513263 -5.352301617008802 0 0 0
1173 251 4 -6.118152780803425 -7.558651809218265 -6.643179503411396 0 0 0
69 14 3 -6.421785616586697 -7.675543089987346 -5.487318394792528 0 0 0
1171 251 2 -5.87532080786614 -7.9550222309581065 -6.458997197830046 0 0 0
1142 241 4 -6.281303743923289 -6.640050648765111 -6.146686566804883 0 0 0
1143 241 4 -6.272707466674008 -7.3177150684551755 -5.4113655224260935 0 0 0
1141 241 2 -6.2770056052986485 -6.9788828586101435 -5.779026044615488 0 0 0
1151 244 4 -4.0903844813660095 -7.259828966171476 -6.487107677488875 0 0 0
1150 244 2 -4.370178972224865 -6.905647684775285 -6.272001511157522 0 0 0
1104 228 4 -0.9395849148761442 -8.228419073850377 -6.0279376359948325 0 0 0
3128 903 4 -1.1639475821094454 -7.935451050287633 -6.1854309400014245 0 0 0
3127 903 2 -1.1802119397222908 -7.833279859502084 -6.674610373793302 0 0 0
1153 245 2 -9.017593558561465 -5.256467177866128 -6.428901091300843 0 0 0
1155 245 4 -8.612073016175183 -5.252476169838509 -6.136433722936998 0 0 0
1096 226 2 -8.521208783409547 -5.696509699340036 -5.438566501710492 0 0 0
1097 226 4 -8.721333148453507 -5.508566697155135 -5.856451254298777 0 0 0
1098 226 4 -8.321084418365587 -5.884452701524938 -5.020681749122206 0 0 0
1529 370 4 -5.0950644705588575 -5.25045655732298 -6.576623316206018 0 0 0
1116 232 4 -4.940689818588716 -6.55299486083863 -5.779440562590833 0 0 0
1152 244 4 -4.649973463083721 -6.551466403379093 -6.056895344826169 0 0 0
1114 232 2 -4.796793215604335 -6.323084416057262 -5.3593989515215625 0 0 0
1559 380 4 -2.3039146584119665 -6.120423835924434 -6.790338288748755 0 0 0
1384 322 2 -2.0205191492398633 -5.048925935207767 -5.593169965616803 0 0 0
1386 322 4 -2.0049709623011815 -5.0628251716278285 -6.09273484139335 0 0 0
1385 322 4 -2.036067336178545 -5.035026698787705 -5.093605089840256 0 0 0
2274 618 4 -2.713518052239537 -6.071400382939655 -5.030107864143929 0 1 0
1200 260 4 -6.695720235557685 -4.020890819705626 -6.531808585688501 0 0 0
1490 357 4 -6.80419957922302 -3.7693129260162186 -6.230852275461097 0 0 0
1218 266 4 -4.976712527044764 -3.995320580217938 -6.390609225194575 0 0 0
119 24 3 -5.06043603849554 -3.6404157059719413 -6.552558357377273 0 0 0
1489 357 2 -6.411362520641986 -3.539019122992625 -6.437356051925139 0 0 0
1450 344 2 -5.640468396822796 -3.499379707082257 -5.422796858813122 0 0 0
1452 344 4 -5.682198390746624 -3.865219877711366 -5.084537229000336 0 0 0
117 24 3 -5.6772771722914745 -3.3457457114318045 -6.86493090734654 0 0 0
1217 266 4 -4.873555064196072 -4.989484566382713 -6.359041734467091 0 0 0
1216 266 2 -4.925133795620418 -4.492402573300326 -6.374825479830833 0 0 0
1451 344 4 -5.598738402898968 -3.133539536453148 -5.761056488625908 0 0 0
118 24 3 -5.501065488592638 -3.163730772585306 -6.1573151892028815 0 0 0
1491 357 4 -6.018525462060952 -3.3087253199690316 -6.643859828389181 0 0 0
116 24 1 -5.328641342857538 -3.26254329902107 -6.576607448357057 0 0 0
1400 327 4 -9.288877283675252 -0.3029627327497676 -4.9622444814643565 0 0 0
3075 885 4 -7.726848111690504 -0.5130778485418531 -5.757075321969358 1 0 0
2042 541 4 -8.01428230584167 -0.7524647637337385 -5.603233631042142 0 0 0
3073 885 2 -7.791880398236287 -0.058922725225774804 -5.955856421855939 1 0 0
2041 541 2 -7.973470168994132 -1.2072927560099154 -5.3996019367312025 0 0 0
2043 541 4 -7.932658032146596 -1.6621207482860922 -5.195970242420263 0 0 0
1437 339 4 -6.402798146203344 -0.9356415509034637 -6.470843215761636 0 0 0
1482 354 4 -4.961031828193773 -0.052598922739089726 -6.208327134679441 0 0 0
1706 429 4 -4.8712076183792465 -0.23289194409342096 -5.853202653544382 0 0 1
1707 429 4 -4.661598076888037 -1.2070354174810096 -5.937513586229941 0 0 1
1705 429 2 -4.766402847633642 -0.7199636807872148 -5.895358119887161 0 0 1
2460 680 4 -0.03658670032081529 -8.110076601617745 -1.6830304689409712 0 1 0
95 19 3 -9.588930158629106 -8.903065078698804 -3.7971674499140833 0 0 0
91 19 1 -9.826767080393022 -8.583054779938319 -4.017228821656291 0 0 0
93 19 3 -9.858211673114411 -8.69073600489503 -4.467468748118148 0 0 0
3163 915 2 -9.856260180666029 -9.88661922575182 -4.697170039274056 1 0 0
1487 356 4 -5.327563403658135 -9.362242413944132 -3.412147836834895 0 0 0
28 6 3 -5.243225370584836 -9.363252874429394 -3.806224529461699 0 0 0
30 6 3 -5.166660148301398 -9.401353626512394 -4.554279406744693 0 0 0
26 6 1 -5.02265070862027 -9.571682588638707 -4.1572286216510115 0 0 0
1914 498 4 -3.6429491959470526 -8.736541183884652 -4.51406383111452 0 0 0
1913 498 4 -4.1964496256565225 -9.368558734872865 -3.9716699801587154 0 0 0
1912 498 2 -3.9196994108017877 -9.052549959378759 -4.2428669056366175 0 0 0
29 6 3 -4.564654557712985 -9.510149593249139 -4.115357196641819 0 0 0
1101 227 4 -3.03374614884232 -8.78659231912603 -3.9850915315496263 0 0 0
1100 227 4 -2.6016682999131038 -9.249329035334412 -4.759160949584622 0 0 0
1099 227 2 -2.817707224377712 -9.01796067723022 -4.372126240567124 0 0 0
94 19 3 -9.620891362770251 -8.170258245622852 -3.96708692150862 0 0 0
114 23 3 -9.402879345145903 -6.69061647781441 -3.6992289007875194 0 0 0
1224 268 4 -9.055736745629698 -6.9408318745824555 -4.615962374884685 0 0 0
70 14 3 -6.7661021923644515 -8.085830384790757 -4.95815827595545 0 0 0
81 17 1 -5.562153005298906 -6.921399273590949 -3.586767934951823 0 0 0
85 17 3 -5.819532028495763 -7.092875421177773 -3.9210611733322724 0 0 0
82 17 3 -5.123769017125947 -7.0424627711277905 -3.655783212083691 0 0 0
2334 638 4 -0.15455220068912867 -6.889340064074675 -4.8314012905751715 0 1 0
2332 638 2 -0.29936852503178607 -7.052908235591695 -4.381652821461298 0 1 0
2333 638 4 -0.44418484937444347 -7.216476407108715 -3.931904352347424 0 1 0
3269 950 4 -0.4162692367685391 -7.075735912471577 -3.5628158553861318 0 0 0
3268 950 2 -0.19211877567527696 -6.724092876252928 -3.2869467816018636 0 0 0
113 23 3 -9.12182721411767 -6.611287623901177 -4.400881687128898 0 0 0
115 23 3 -9.50769801652091 -6.049797010299362 -4.0803633340052965 0 0 0
111 23 1 -9.218045524440228 -6.392626410360565 -4.003101206899708 0 0 0
112 23 3 -8.827513153409916 -6.224395883138429 -3.8276504819432295 0 0 0
3099 893 4 -8.764631004783377 -5.843541559090254 -3.66587859556985 1 0 0
3456 1012 4 -9.810953165850934 -5.915507050152135 -3.879327252416709 1 0 0
1407 329 4 -8.36408809346258 -5.5261911827802 -4.792248840954724 0 0 0
1405 329 2 -7.965135395768406 -5.581772580631369 -4.496026874829229 0 0 0
3162 914 4 -7.234133608302549 -5.7164575947303335 -4.423766343422919 1 0 0
1406 329 4 -7.56618269807423 -5.637353978482538 -4.199804908703734 0 0 0
3160 914 2 -6.958783699681321 -5.503990323238367 -4.064544842997978 1 0 0
84 17 3 -5.59154588941216 -6.4583275119029055 -3.5859921189266157 0 0 0
2172 584 4 -6.324824240542623 -5.319171461503875 -3.5820883626149826 0 1 0
3161 914 4 -6.683433791060094 -5.2915230517464 -3.7053233425730365 1 0 0
2170 584 2 -5.983835061811067 -5.684832607417415 -3.5863669554526987 0 1 0
2171 584 4 -5.642845883079512 -6.050493753330955 -3.5906455482904147 0 1 0
3815 1132 4 -6.700691462428398 -5.076296346603668 -3.3771075608901158 0 0 0
1115 232 4 -4.652896612619955 -6.0931739712758946 -4.939357340452292 0 0 0
65 13 3 -4.849947730993049 -5.445194794397999 -4.312872082216908 0 0 0
64 13 3 -4.4777869221076045 -5.750968277962721 -4.891576591511222 0 0 0
1078 220 2 -3.454426842602372 -5.534014646184834 -3.747814659199408 0 0 0
61 13 1 -4.455193632271661 -5.449087029364368 -4.539927256237054 0 0 0
62 13 3 -4.117767725506692 -5.577708406265545 -4.254970594887361 0 0 0
1080 220 4 -3.1488170107986546 -5.929274453526799 -3.7671101354773895 0 0 0
1079 220 4 -3.7600366744060896 -5.1387548388428685 -3.7285191829214264 0 0 0
2273 618 4 -3.1345534158724826 -5.994278686735886 -4.126348235402277 0 1 0
2272 618 2 -2.9240357340560097 -6.032839534837771 -4.578228049773103 0 1 0
1293 291 4 -1.9571117006421384 -5.304316846969454 -4.7824200827176515 0 0 0
572 115 3 -5.76093396422743 -4.907196097111812 -3.7453017444124437 1 0 0
4101 1227 4 -6.539007242444651 -4.520001443627977 -3.2391594157708754 1 0 0
575 115 3 -5.251441953345764 -4.362776267919663 -3.7132870535724893 1 0 0
571 115 1 -5.5397555758148025 -4.615131299236319 -3.4671322379223826 1 0 0
573 115 3 -5.851216068756553 -4.341608658415143 -3.2586191057352907 1 0 0
3369 983 4 -5.390675581389356 -4.071224075001478 -4.9280893299564035 1 0 0
3367 983 2 -5.3953180771745295 -4.061961807349228 -4.428196683850721 1 0 0
3368 983 4 -5.399960572959703 -4.052699539696977 -3.9283040377450384 1 0 0
63 13 3 -4.3613153183606945 -5.024387883200108 -4.701536344546645 0 0 0
2433 671 4 -3.8457926147652954 -5.102010885189424 -3.3416609121557945 0 0 0
1291 291 2 -1.7655983347966944 -4.927148263745667 -4.515837092766094 0 0 0
1292 291 4 -1.5740849689512506 -4.54997968052188 -4.249254102814535 0 0 0
1285 289 2 -2.8524521613046114 -3.7973489525317055 -3.57928564340933 0 0 0
1287 289 4 -3.0938333774707925 -3.813079892963547 -4.01687865751703 0 0 0
1346 309 4 -1.0217664790154626 -1.0127221059095086 -1.1259222711570769 0 0 0
130 26 3 -8.394401510374767 -1.665063278470591 -4.193170174544083 0 0 0
1345 309 2 -1.335854959807286 -1.1769602144869589 -1.4785896355737715 0 0 0
1392 324 4 -6.743845464522582 -2.6180450982493677 -4.614243724245212 0 0 0
1391 324 4 -7.684809332317369 -2.494110906916815 -4.299240048515688 0 0 0
1390 324 2 -7.214327398419975 -2.5560780025830914 -4.45674188638045 0 0 0
129 26 3 -7.835106455501995 -2.1585384570144814 -4.295986952140339 0 0 0
128 26 3 -8.139436491880907 -1.794524577269723 -4.889684791373483 0 0 0
126 26 1 -8.024744874366688 -1.7607848280902698 -4.441346233811201 0 0 0
1429 337 2 -5.892915176341239 -2.6343530512767597 -4.665334927963172 0 0 0
1430 337 4 -6.3707058900922675 -2.504318894337443 -4.734668555318244 0 0 0
1431 337 4 -5.41512446259021 -2.7643872082160765 -4.5960013006080995 0 0 0
1061 214 4 -5.003765914427226 -2.7035386075843966 -4.59865547050097 0 0 0
1571 384 4 -5.173328640075917 -3.1739814262756463 -3.635805033885924 0 0 0
2121 567 4 -5.651719163560392 -1.6514807714140844 -4.477542328049593 0 0 0
1060 214 2 -4.946276695406476 -3.032343156341295 -4.226388686577177 0 0 0
1062 214 4 -4.888787476385725 -3.3611477050981935 -3.8541219026533846 0 0 0
2219 600 4 -0.2256211948454726 -1.9232928798844995 -4.232133616122484 0 0 0
2118 566 4 -8.874632665891342 -1.4686719509072585 -5.1268476754458225 0 0 0
2111 564 4 -8.487327896454056 -1.3001313039507032 -4.1126637104170625 0 0 0
2110 564 2 -8.540576405872143 -1.0734594844454532 -3.670188307161399 0 0 0
2116 566 2 -9.051623376749875 -1.046162818814435 -4.926447272332188 0 0 0
2117 566 4 -9.228614087608408 -0.6236536867216114 -4.726046869218554 0 0 0
127 26 3 -7.717083203490216 -1.4224497073421576 -4.391610508807824 0 0 0
2119 567 2 -5.221152745928105 -1.5396798844530941 -4.249259342083406 0 0 0
1352 311 4 -4.612012576273242 -1.1426120957340782 -3.7958027792718907 0 0 0
1351 311 2 -4.563520990462631 -0.6587582511620997 -3.6794669584834967 0 0 0
2120 567 4 -4.790586328295818 -1.4278789974921038 -4.020976356117219 0 0 0
1353 311 4 -4.5150294046520205 -0.17490440659012102 -3.5631311376951027 0 0 0
2218 600 2 -0.34462273766810414 -1.6850081068473042 -3.808979980022559 0 0 0
273 55 3 -0.193987425773674 -0.14623838223290214 -4.868217345078648 0 0 0
2220 600 4 -0.4636242804907357 -1.4467233338101089 -3.3858263439226346 0 0 0
430 86 3 -0.5101687965206543 -1.0679138217834518 -3.4471603233430432 0 0 0
429 86 3 -1.0690739557669164 -0.6989385868216691 -3.791227611752765 0 0 0
426 86 1 -0.8677751135305267 -0.7931108114640968 -3.3839066471308916 0 0 0
3346 976 2 -9.598745369401216 -9.81727388335165 -2.5052663187606785 1 0 0
3347 976 4 -9.550876327091531 -9.383387341416723 -2.7490921244426314 1 0 0
3338 973 4 -9.560521356850465 -8.988920006195599 -2.8011618508653036 1 0 0
3339 973 4 -9.799513679535906 -8.464364948359705 -1.9840176402178797 1 0 0
3337 973 2 -9.680017518193186 -8.726642477277652 -2.3925897455415917 1 0 0
3239 940 4 -0.05783889037975337 -1.3125268578356104 -2.5714928919187674 0 0 0
1619 400 4 -7.115280420180285 -9.81625497887198 -2.343432493688125 0 0 0
1486 356 2 -5.60325005584226 -9.059652480229477 -3.1250307843600544 0 0 0
1488 356 4 -5.878936708026385 -8.757062546514822 -2.8379137318852137 0 0 0
2971 851 2 -5.185217675005674 -9.814927778075294 -2.052174390476845 0 1 0
2973 851 4 -4.9442523790032356 -9.383281007485015 -2.1271196475716745 0 1 0
1421 334 4 -5.876353541779766 -8.390023849065132 -2.721126186224712 0 0 0
1782 454 4 -3.8539054596884617 -8.971205010433254 -2.3466399675997685 0 0 0
1781 454 4 -4.632072891995995 -9.599260716142853 -2.345424310535296 0 0 0
1780 454 2 -4.2429891758422285 -9.285232863288053 -2.3460321390675323 0 0 0
4053 1211 4 -3.444045159811847 -9.102224189218502 -3.2060198280058336 0 1 0
372 75 3 -2.1659326174450797 -9.990714087219382 -1.8503839643154618 0 1 0
4051 1211 2 -3.1477075341123766 -8.701566486245394 -3.165308445776121 0 1 0
371 75 1 -2.348911828420899 -9.596865789135926 -1.6987194449068634 0 1 0
375 75 3 -2.67511870033985 -9.462353279113055 -1.9866351641029678 0 1 0
2500 694 2 -2.7785647334334427 -8.439319064502083 -1.8302979049119685 0 1 0
2502 694 4 -2.498224294110121 -8.427762856561237 -2.244152580055593 0 1 0
893 179 3 -1.9175824329327817 -8.518075144741125 -3.181824590960992 0 1 0
892 179 3 -2.2720265099622945 -8.307936308949127 -2.5532459833468675 0 1 0
83 17 3 -5.7015738896319785 -7.089657312876278 -3.177437934551768 0 0 0
1422 334 4 -5.6868585836816905 -7.469641580798093 -3.0631614784307306 0 0 0
1420 334 2 -5.781606062730728 -7.929832714931613 -2.8921438323277213 0 0 0
1827 469 4 -5.661329019323729 -7.552454369675306 -1.9063005382473928 0 0 0
1825 469 2 -5.873671793351707 -7.10418757515803 -1.969288054875268 0 0 0
2151 577 4 -5.023579328460576 -7.30879247079324 -3.3401373879181717 0 1 0
2149 577 2 -4.7508894664436605 -7.196950569230234 -2.9362418219509685 0 1 0
2150 577 4 -4.478199604426745 -7.085108667667227 -2.5323462559837653 0 1 0
2069 550 4 -4.514532448589916 -6.726253785893701 -2.334433793993311 0 1 0
4052 1211 4 -2.8513699084129067 -8.300908783272286 -3.124597063546408 0 1 0
894 179 3 -2.5155598400260657 -8.050252795604552 -3.2159606460018266 0 1 0
891 179 1 -2.139629870575918 -8.169214621490514 -2.971369677135698 0 1 0
895 179 3 -1.8616886182450365 -7.810891047413656 -2.9295023090154313 0 1 0
1202 261 4 -1.521851918930329 -7.78915597566079 -2.723882484374667 0 0 0
1201 261 2 -1.2116766067980276 -7.495004381777039 -2.4645253646357568 0 0 0
2459 680 4 -0.6687280926202595 -7.3626529552214155 -1.8873712454589564 0 1 0
1203 261 4 -0.901501294665726 -7.200852787893288 -2.2051682448968464 0 0 0
2458 680 2 -0.3526573964705374 -7.73636477841958 -1.7852008571999638 0 1 0
3097 893 2 -8.871455847172644 -5.679354478631351 -3.2058448406571 1 0 0
3098 893 4 -8.978280689561911 -5.515167398172447 -2.7458110857443496 1 0 0
3816 1132 4 -6.863383620459291 -5.453192029642652 -2.465251812526978 0 0 0
4643 1408 4 -7.007305343229352 -5.826274608498277 -2.487239094673354 1 0 0
4642 1408 2 -6.743609634714767 -6.217727137039262 -2.3222254855070594 1 0 0
3814 1132 2 -6.782037541443844 -5.26474418812316 -2.921179686708547 0 0 0
1304 295 4 -7.62089688881783 -4.921968943349817 -1.98420764476717 0 0 0
4644 1408 4 -6.479913926200182 -6.609179665580246 -2.157211876340765 1 0 0
1826 469 4 -6.086014567379685 -6.655920780640754 -2.0322755715031433 0 0 0
1245 275 4 -5.21079081870701 -5.0283977000435005 -2.7959504330760945 0 0 0
2068 550 2 -4.173529923850133 -6.381544917655771 -2.2123966099898484 0 1 0
2070 550 4 -3.832527399110349 -6.036836049417841 -2.090359425986386 0 1 0
2022 534 4 -3.4637064649047065 -6.137721580588498 -2.2249512889710363 0 0 0
2020 534 2 -3.3087817381328275 -5.667298179839859 -2.2935089512882856 0 0 0
2021 534 4 -3.1538570113609485 -5.19687477909122 -2.362066613605535 0 0 0
3474 1018 4 -8.015531806612424 -5.004024959510641 -1.902343727720589 1 0 0
1303 295 2 -7.249693557653584 -4.588869420429454 -2.019602485668553 0 0 0
1305 295 4 -6.878490226489339 -4.255769897509091 -2.0549973265699357 0 0 0
4099 1227 2 -6.722548429897396 -4.0623633654410645 -3.156213518332438 1 0 0