LAMMPS data file via write_data, version 29 Aug 2024, timestep = 6000000, units = lj

4560 atoms
4 atom types
3060 bonds
1 bond types

-9.998647 9.998647 xlo xhi
-9.998647 9.998647 ylo yhi
-9.998647 9.998647 zlo zhi

Masses

1 1
2 1
3 0.5
4 0.5

Bond Coeffs # zero

1 0

Atoms # bond

2754 898 4 -8.372806555367896 -9.454933177866186 -9.485971335118542 0 -1 0
2752 898 2 -8.431853214643338 -9.811700679283302 -9.8312689487229 0 -1 0
4151 1364 4 -1.421368064685142 -9.295125675300845 -9.034469932615817 1 1 0
162 34 4 -8.213013354596555 -9.151067042314164 -9.287196128093425 0 0 0
160 34 2 -8.375548375536424 -8.681611711706793 -9.343712139389904 0 0 0
3618 1186 4 -0.6580145559443602 -8.687040659780667 -9.431810453553842 0 2 0
2615 852 4 -8.248610014816784 -7.537307026850881 -9.78053744970192 1 0 0
3413 1118 4 -5.5757225093955185 -8.474058998095472 -9.555372038487496 1 1 0
3412 1118 2 -5.6875919250863705 -7.995034164032568 -9.46581511701665 1 1 0
340 94 2 -8.007334914942758 -7.482069744106122 -9.082659011869184 0 1 1
342 94 4 -7.915432504721256 -7.596119092587801 -9.560724585934476 0 1 1
3414 1118 4 -5.799461340777222 -7.5160093299696635 -9.376258195545804 1 1 0
1388 443 4 -3.3878515445940574 -6.501212851666932 -9.718257151788531 0 1 0
3156 1032 4 -2.1020939652701083 -6.964760062658831 -9.537970669123633 1 0 1
3155 1032 4 -1.1148878013074788 -6.846929922393219 -9.645395283983488 1 0 1
3154 1032 2 -1.6084908832887934 -6.905844992526025 -9.59168297655356 1 0 1
699 213 4 -0.8631442114551209 -6.766114030214185 -9.35813494972282 -1 0 0
720 220 4 -9.720954696791493 -6.537412978597207 -9.721130007530263 0 0 0
2279 740 4 -6.136181385533724 -6.270017167526483 -9.659419969381164 0 1 0
3287 1076 4 -8.83531120236999 -5.36171343678006 -9.694087212415361 2 0 1
3286 1076 2 -8.47984941291116 -5.644890553921976 -9.485622259576404 2 0 1
4463 1468 4 -8.50169477121689 -4.31223696030734 -9.857615175921719 0 1 1
2968 970 2 -3.4316352619610275 -4.396666556319951 -9.184187764006184 1 0 0
3138 1026 4 -9.543969998535783 -4.0014624896642585 -9.13947202732888 1 0 1
3137 1026 4 -8.666562924910416 -4.0339376946969425 -9.6181182309171 1 0 1
3136 1026 2 -9.1052664617231 -4.0177000921806005 -9.37879512912299 1 0 1
3365 1102 4 -7.583293721137853 -3.666291331584379 -9.28634589230151 0 0 0
544 162 2 -4.444865742152764 -4.1126251297384275 -9.505998146946629 0 0 1
546 162 4 -4.784698893882994 -3.7468695945065305 -9.533133316602687 0 0 1
2970 970 4 -3.9125345177777264 -4.515999057247641 -9.117138081107798 1 0 0
545 162 4 -4.105032590422534 -4.478380664970325 -9.478862977290571 0 0 1
2746 896 2 -0.3276563554167063 -3.541746989947874 -9.402190340580306 0 1 0
2747 896 4 -0.4919408385582825 -3.785971597099482 -8.998006038731535 0 1 0
3295 1079 2 -9.705705502274766 -1.958690492981823 -9.12222686860927 1 0 1
4488 1476 4 -7.169336907853883 -2.004194950235937 -9.903596570658285 1 1 0
672 204 4 -4.024418686082152 -0.22336674309424004 -1.1978885120542513 0 0 -1
2477 806 4 -6.7588772510730495 -1.944072612837985 -9.843695838251593 0 0 1
3297 1079 4 -9.84728846443925 -1.706050540622677 -9.52981406087211 1 0 1
3016 986 2 -2.2740061398998845 -0.7802369485955188 -0.8393228317173688 1 0 0
2476 806 2 -6.370847235954668 -1.6351288332521816 -9.780557510574349 0 0 1
2478 806 4 -5.982817220836286 -1.326185053666378 -9.717419182897105 0 0 1
3119 1020 4 -5.825713849117003 -1.063245692616951 -9.473884995010497 0 -1 1
1984 642 2 -4.542702318891076 -1.7024726546250906 -9.81737595631581 -1 0 1
1985 642 4 -4.964435720821086 -1.4352094345721238 -9.844046331331212 -1 0 1
1986 642 4 -4.120968916961065 -1.969735874678058 -9.79070558130041 -1 0 1
3118 1020 2 -5.975530277337277 -0.595102708116855 -9.382248845490592 0 -1 1
707 216 4 -4.586829625009689 -0.40156214117803535 -9.62566951454788 0 -1 1
706 216 2 -4.474326225794052 -0.45323965305570313 -9.14123951967691 0 -1 1
442 128 2 -9.996406166577646 -0.48901644015362095 -9.984112221162484 0 -1 0
4224 1388 4 -6.306720645701748 -9.426472421403185 -8.196605813805755 1 2 0
4150 1364 2 -1.136465294850478 -9.686115700594248 -8.908148074407851 1 1 0
3616 1186 2 -0.9951567247698553 -8.501634145602988 -9.112499347420629 0 2 0
3617 1186 4 -1.3322988935953504 -8.31622763142531 -8.793188241287416 0 2 0
161 34 4 -8.538083396476292 -8.212156381099422 -9.400228150686383 0 0 0
2359 767 2 -4.929538231199925 -8.152318389683053 -8.540961953026157 1 0 0
2361 767 4 -4.744213425998547 -7.898092739260367 -8.929580062800458 1 0 0
1900 614 2 -3.4940666748279967 -7.641439637588585 -8.378830465533063 -1 0 2
881 274 4 -2.322273613044291 -7.477470754567527 -8.995395536776252 0 -1 0
880 274 2 -2.0359835093807788 -7.879459716375565 -8.915128164024944 0 -1 0
882 274 4 -1.7496934057172668 -8.281448678183603 -8.834860791273636 0 -1 0
341 94 4 -8.09923732516426 -7.368020395624442 -8.604593437803892 0 1 1
1901 614 4 -3.5796044721185547 -7.243919567635493 -8.66979623537403 -1 0 2
697 213 2 -0.4701098068144577 -6.645534195282527 -9.073557262303432 -1 0 0
506 149 4 -8.05535645742489 -6.0289931840318145 -8.697153112162093 0 0 1
505 149 2 -7.60643267056719 -6.130832139805964 -8.501970477996762 0 0 1
507 149 4 -7.157508883709489 -6.2326710955801135 -8.306787843831431 0 0 1
698 213 4 -0.0770754021737946 -6.524954360350868 -8.788979574884044 -1 0 0
2748 896 4 -0.16337187227513003 -3.2975223827962665 -9.806374642429077 0 1 0
3724 1222 2 -0.68045352812063 -0.24571679299266477 -0.733338540707526 0 1 0
3288 1076 4 -8.124387623452328 -5.928067671063892 -9.277157306737447 2 0 1
3366 1102 4 -6.849168060379689 -4.312902156494882 -9.079092532074624 0 0 0
4219 1387 2 -6.434486921136866 -4.693494999136541 -8.558649352528512 1 0 1
4221 1387 4 -6.48824222485338 -4.412247487492332 -8.968539831212766 1 0 1
1029 323 4 -2.553986990884243 -4.3336513696167325 -9.273451147435996 0 0 1
2969 970 4 -2.9507360061443286 -4.27733405539226 -9.25123744690457 1 0 0
1027 323 2 -2.1298224837973945 -4.564979154309647 -9.144719150805578 0 0 1
1028 323 4 -1.7056579767105458 -4.796306939002561 -9.01598715417516 0 0 1
2184 708 4 -1.3163504213096218 -4.742158757688377 -9.084331909367569 0 1 0
2182 708 2 -1.0611923718221314 -4.3176476934478325 -9.152776968499673 0 1 0
3364 1102 2 -7.216230890758771 -3.9895967440396305 -9.182719212188067 0 0 0
4206 1382 4 -1.1650706553177541 -3.3207747257707094 -8.37562935902556 0 1 1
2183 708 4 -0.8060343223346411 -3.8931366292072886 -9.221222027631777 0 1 0
3296 1079 4 -9.564122540110283 -2.2113304453409683 -8.71463967634643 1 0 1
1716 552 4 -9.171974099300543 -2.2412392637965297 -8.700649544400239 1 0 -1
1714 552 2 -8.800572993553295 -2.106059399045636 -8.394401894914267 1 0 -1
3718 1220 2 -3.550726519630544 -1.9126032059804345 -8.756793350903683 1 0 0
3720 1220 4 -3.995318061464326 -2.0123237628897868 -8.962691800288107 1 0 0
2637 859 4 -4.151256082736975 -1.7652131620794598 -8.694796114369934 -1 0 0
3719 1220 4 -3.1061349777967617 -1.8128826490710823 -8.550894901519259 1 0 0
2211 717 4 -2.904514034456649 -2.161225660758693 -8.521506937602894 0 1 0
675 205 4 -1.1767662965907788 -1.9918863714500143 -9.049657058647414 0 -2 1
673 205 2 -0.8075260116769792 -1.660334388286686 -8.988543275773472 0 -2 1
2635 859 2 -4.572924406989696 -1.498824054748721 -8.659686745000055 -1 0 0
2636 859 4 -4.994592731242417 -1.2324349474179823 -8.624577375630176 -1 0 0
674 205 4 -0.4382857267631796 -1.3287824051233574 -8.92742949289953 0 -2 1
4124 1355 4 -0.18539161589841455 -1.2542480735090045 -8.594973288385159 1 0 1
708 216 4 -4.361822826578416 -0.5049171649333709 -8.65680952480594 0 -1 1
4123 1355 2 -0.3972780820425428 -0.8481221187074931 -8.394559131446382 1 0 1
1648 530 2 -9.270225777440343 -9.628818927385677 -8.047747386052087 0 0 1
1649 530 4 -9.13498876421762 -9.151766098210244 -8.11202450819284 0 0 1
573 171 4 -7.9622936893067155 -9.91275590697805 -7.672755464610428 -1 1 0
571 171 2 -8.16445278155436 -9.480339687039994 -7.523933711643484 -1 1 0
3587 1176 4 -6.33996866504501 -9.021240761294825 -8.161141884883437 1 1 1
4222 1388 2 -6.159516805299494 -9.900291037694867 -8.258468146658135 1 2 0
1482 474 4 -9.671157696037467 -6.141751013889701 -5.955458038656658 0 1 0
159 33 4 -9.25389733739234 -8.762144863578234 -8.050986932471533 -1 0 0
157 33 2 -9.247107134128594 -8.454361012897989 -7.657003437386342 -1 0 0
572 171 4 -8.366611873802004 -9.047923467101937 -7.37511195867654 -1 1 0
3586 1176 2 -5.918464094530759 -8.756892765979954 -8.111603673281351 1 1 1
2360 767 4 -5.114863036401303 -8.40654404010574 -8.152343843251856 1 0 0
3588 1176 4 -5.496959524016509 -8.492544770665083 -8.062065461679266 1 1 1
1296 412 4 -4.233385531204514 -8.392859283562391 -8.017453783783907 0 0 -1
1294 412 2 -3.912575459613513 -8.391356809162122 -7.63394545201383 0 0 -1
1295 412 4 -3.5917653880225116 -8.389854334761853 -7.2504371202437525 0 0 -1
1902 614 4 -3.4085288775374387 -8.038959707541677 -8.087864695692097 -1 0 2
1237 393 2 -9.370835417071154 -6.863136755504663 -7.907453553381929 0 1 0
1239 393 4 -8.902812244469233 -6.731992589847063 -8.024737472663418 0 1 0
1290 410 4 -8.827350117321252 -6.480706125801311 -7.7307540862237785 0 1 -1
1288 410 2 -8.505736996646938 -6.102159275985264 -7.673593933102036 0 1 -1
2226 722 4 -6.8163476125631615 -6.050819176338717 -8.332442518881281 0 0 1
2224 722 2 -6.608742093015102 -6.262457631097007 -7.929814759380369 0 0 1
3726 1222 4 -0.5265259278568777 -0.7214150378908382 -0.7375186935190777 0 1 0
369 103 4 -7.9411620271540855 -5.385137114815265 -7.646344592162611 0 0 0
1289 410 4 -8.184123875972624 -5.723612426169218 -7.6164337799802935 0 1 -1
4220 1387 4 -6.380731617420352 -4.97474251078075 -8.148758873844258 1 0 1
512 151 4 -6.480740872299026 -4.634946832128967 -7.919251051254661 0 0 0
359 100 4 -0.3744109643022848 -5.207806152636487 -7.8990877792356375 0 0 0
1524 488 4 -9.640568519178755 -4.922714375025463 -7.65485970648336 0 1 -1
1522 488 2 -9.481651316511515 -4.473202586673281 -7.504246045651691 0 1 -1
367 103 2 -7.772865469741179 -4.940206432272071 -7.8003347103351555 0 0 0
368 103 4 -7.604568912328272 -4.495275749728878 -7.9543248285076995 0 0 0
336 92 4 -7.487683953089738 -4.2142050940169495 -7.667329968224871 0 0 0
2614 852 2 -8.715533131448652 -7.603358007670591 -9.946730322858667 1 0 0
2210 717 4 -2.0913468957380914 -2.370577152321344 -7.978431291411148 0 1 0
4204 1382 2 -1.1816762261120575 -2.941288038597943 -8.050492296732337 0 1 1
4205 1382 4 -1.1982817969063608 -2.561801351425177 -7.725355234439114 0 1 1
3494 1145 4 -0.9313855529120942 -2.6611985418568325 -7.446424143536704 2 1 -1
1715 552 4 -8.429171887806048 -1.970879534294743 -8.088154245428296 1 0 -1
3023 988 4 -8.11533977835173 -1.7749543997305826 -8.194522251099801 1 0 1
3221 1054 4 -5.847282563912545 -2.0494292997280144 -7.8561396724986245 1 0 2
3220 1054 2 -6.135164941125869 -1.6458218964620588 -7.791141203911844 1 0 2
2209 717 2 -2.49793046509737 -2.2659014065400185 -8.24996911450702 0 1 0
3022 988 2 -8.085037531849045 -1.3012006154978022 -8.03755370080445 1 0 1
3024 988 4 -8.054735285346359 -0.8274468312650216 -7.880585150509098 1 0 1
789 243 4 -6.775183910570508 -1.040008576820875 -7.68504567369522 0 1 1
3222 1054 4 -6.423047318339194 -1.2422144931961034 -7.726142735325064 1 0 2
787 243 2 -6.682866941199271 -0.5543227690891251 -7.610300283643002 0 1 1
4125 1355 4 -0.6091645481866708 -0.44199616390598234 -8.194144974507605 1 0 1
2593 845 2 -0.0073512024419709245 -8.140031611685226 -0.13087872804218872 0 1 0
1887 609 4 -4.137176531085422 -9.051447370550417 -6.80444350448585 -2 0 0
158 33 4 -9.240316930864848 -8.146577162217744 -7.263019942301151 -1 0 0
2372 771 4 -3.2307555483522923 -8.507190854793311 -7.332760571399472 0 1 0
2371 771 2 -2.7949772326608353 -8.323713645278433 -7.170177136937036 0 1 0
2373 771 4 -2.3591989169693783 -8.140236435763555 -7.007593702474599 0 1 0
1991 644 4 -1.9969980133298475 -8.172782471954752 -6.814258604316841 -1 1 1
1990 644 2 -1.533347389386333 -7.993435085103957 -6.760755204923593 -1 1 1
1992 644 4 -1.0696967654428176 -7.814087698253161 -6.707251805530346 -1 1 1
1164 368 4 -0.06719575077099711 -8.078523402264334 -7.42917678103696 -1 0 2
3705 1215 4 -0.9891237249194665 -7.4263417217596155 -6.629001016910941 -1 1 1
3703 1215 2 -0.885657255329476 -7.012168790019692 -6.88929983036209 -1 1 1
2225 722 4 -6.401136573467042 -6.474096085855298 -7.527186999879457 0 0 1
2195 712 4 -2.662859875221049 -6.138610002315349 -6.820770469774253 0 0 0
2194 712 2 -2.2086143768869 -6.041327748417964 -7.00569529320186 0 0 0
3704 1215 4 -0.7821907857394855 -6.597995858279769 -7.149598643813238 -1 1 1
4 1 3 -0.7758880376680124 -6.24081268904017 -7.33975939109369 -1 0 0
5 1 3 -0.10058509658451165 -6.104537264326608 -7.0359585576800425 -1 0 0
2196 712 4 -1.7543688785527514 -5.944045494520579 -7.190620116629468 0 0 0
3 1 3 -0.6602979130203896 -5.61267147792863 -6.927840051917943 -1 0 0
1 1 1 -0.4681909137852716 -5.913117102678681 -7.224702524139207 -1 0 0
2 1 3 -0.34276610275307384 -5.686791548195182 -7.605025229437178 -1 0 0
513 151 4 -6.5905667475465775 -4.8810526648566706 -6.956250430162765 0 0 0
511 151 2 -6.535653809922802 -4.757999748492819 -7.437750740708713 0 0 0
2214 718 4 -6.423637331125914 -4.628634982156737 -6.679335462867957 0 0 0
3813 1251 4 -9.125503135286793 -3.7965518516846077 -7.124233534237415 1 0 0
3811 1251 2 -9.373971323749805 -3.5567563260064534 -6.762623709720544 1 0 0
1523 488 4 -9.322734113844275 -4.023690798321099 -7.353632384820021 0 1 -1
334 92 2 -7.56333436537556 -3.8850018493619944 -7.298680759857862 0 0 0
335 92 4 -7.638984777661382 -3.5557986047070393 -6.930031551490854 0 0 0
2046 662 4 -7.944604707476926 -3.4093629275374266 -6.707923028163949 0 0 1
3493 1145 2 -0.6282455558405539 -2.322735331164614 -7.237740657885623 2 1 -1
3495 1145 4 -0.3251055587690135 -1.9842721204723959 -7.029057172234542 2 1 -1
965 302 4 -8.265053843278045 -0.8845213693918915 -7.559198865660274 -1 0 0
964 302 2 -8.345723376313193 -0.8360305878539309 -7.068137697834994 -1 0 0
788 243 4 -6.590549971828034 -0.06863696135737513 -7.535554893590784 0 1 1
2765 902 4 -6.198027100590989 -0.05689189587159784 -7.632197132377398 1 -1 0
4137 1359 4 -7.179559664199662 -9.68819908538224 -6.434088560938342 0 1 0
1742 561 4 -7.043968731459535 -9.3870977488613 -6.6372569473992185 1 1 1
1885 609 2 -3.73785761428652 -9.352045403951205 -6.8180532437134636 -2 0 0
1886 609 4 -3.3385386974876177 -9.652643437351994 -6.8316629829410775 -2 0 0
4462 1468 2 -8.018423552336733 -4.232651759162138 -9.958189152480033 0 1 1
3120 1020 4 -6.125346705557551 -0.12695972361675933 -9.290612695970689 0 -1 1
1741 561 2 -6.691453104285125 -9.036267562970709 -6.5857699270423185 1 1 1
1743 561 4 -6.338937477110714 -8.685437377080117 -6.5342829066854184 1 1 1
3205 1049 2 -9.891806240780033 -7.757243721224593 -5.92987774724238 1 0 1
3207 1049 4 -9.727788436773192 -8.225583803997838 -5.8685937620833935 1 0 1
3330 1090 4 -6.4080504809127605 -8.421267392846278 -6.26925375333489 1 0 1
3328 1090 2 -6.5018724867486135 -8.001887141422836 -6.013680601503369 1 0 1
1080 340 4 -9.448714914013808 -3.8695389468389347 -5.073577646815917 1 0 1
1078 340 2 -9.48553257362721 -4.215159067138462 -5.433009409999737 1 0 1
2492 811 4 -7.077581280169244 -5.131477592309479 -5.741622828870895 1 0 -1
2212 718 2 -6.68706541791418 -4.698333271921568 -6.260112620581 0 0 0
2118 686 4 -4.7272046795666975 -3.6417314019524754 -6.504097065829117 0 1 1
2116 686 2 -4.758869189283648 -3.408043147602452 -6.063203474808291 0 1 1
3812 1251 4 -9.622439512212816 -3.316960800328299 -6.401013885203674 1 0 0
2957 966 4 -9.886046168192756 -2.998570713273284 -6.437623111313632 0 0 1
2956 966 2 -9.701555827832653 -2.651680329262167 -6.128381497370755 0 0 1
2044 662 2 -7.807365121743385 -3.1217564429548674 -6.322633778204762 0 0 1
2045 662 4 -7.670125536009844 -2.834149958372308 -5.937344528245575 0 0 1
2117 686 4 -4.790533699000599 -3.174354893252429 -5.622309883787465 0 1 1
4540 1494 2 -7.568742556910555 -2.020671292719179 -6.005233796381333 1 1 0
1106 349 4 -1.3970358090885582 -2.059349793706483 -5.614474053587569 1 0 0
135 27 3 -8.262424927216397 -1.0125507354728887 -6.316432230839026 1 1 1
132 27 3 -7.716656573576964 -1.1564116199871264 -5.8281280735035335 1 1 1
131 27 1 -8.12995018368116 -0.9622262870105289 -5.883629859990938 1 1 1
4542 1494 4 -7.632729436366434 -1.529789792432572 -5.934941322150605 1 1 0
1259 400 4 -4.197863880423684 -1.1161707656997175 -6.1571761454264315 0 1 0
966 302 4 -8.426392909348342 -0.7875398063159703 -6.577076530009714 -1 0 0
4271 1404 4 -8.120095908166077 -0.1238561030590328 -5.836252983630231 1 -1 1
1269 403 4 -9.838848513225653 -9.655098228379545 -1.2274535587243063 0 1 0
1258 400 2 -4.451558198908962 -0.690753484410204 -6.2254354272047125 0 1 0
1260 400 4 -4.705252517394239 -0.2653362031206904 -6.2936947089829935 0 1 0
446 129 4 -0.23544072420728515 -0.10809027350975653 -6.324087441212203 1 -1 0
3236 1059 4 -1.8521359470583443 -9.974136795811855 -5.615208809220173 1 0 1
3235 1059 2 -1.908800989743118 -9.953979352342625 -5.118839238828568 1 0 1
1477 473 2 -5.913343203819413 -9.128594797293133 -5.037001756283551 1 0 0
1479 473 4 -5.7865821044862855 -9.298294806410736 -5.489918449066198 1 0 0
3329 1090 4 -6.5956944925844665 -7.582506889999394 -5.758107449671847 1 0 1
1701 547 4 -8.470789667793555 -8.247185299954118 -5.39131575397181 1 1 0
2696 879 4 -7.246933513325459 -6.682897333948529 -5.280726729945079 2 0 0
2695 879 2 -7.027068808311371 -7.126737999143871 -5.349027355186195 2 0 0
2697 879 4 -6.807204103297281 -7.570578664339214 -5.417327980427311 2 0 0
4353 1431 4 -1.9006194456956242 -8.419345612599866 -0.09425773982344476 0 1 0
522 154 4 -0.01360306085544255 -3.1457085102264495 -2.525124000647885 -1 0 0
3053 998 4 -8.092441176865758 -5.683484015692924 -5.054643967562478 1 0 0
2493 811 4 -7.945573419105826 -5.500558376236973 -5.409404494516604 1 0 -1
2491 811 2 -7.511577349637535 -5.316017984273226 -5.5755136616937495 1 0 -1
2213 718 4 -6.950493504702447 -4.768031561686398 -5.840889778294043 0 0 0
3185 1042 4 -0.24859237322037783 -3.9675588061438023 -5.160706214737835 1 0 1
3184 1042 2 -0.45418938404010484 -3.6844484582611567 -5.51788740134132 1 0 1
3186 1042 4 -0.6597863948598318 -3.401338110378511 -5.8750685879448055 1 0 1
3082 1008 2 -8.946466145478668 -3.3116573214752134 -5.426136441649674 0 0 0
3084 1008 4 -8.986051239972003 -3.223501611534348 -5.916709159091668 0 0 0
3498 1146 4 -2.588712869587331 -2.6331176550237365 -5.7559089699573525 0 1 0
1021 321 2 -1.842281847566972 -2.6206654179568996 -5.552466115899705 0 0 1
1023 321 4 -1.3587185894081486 -2.6959770859149907 -5.65490989574069 0 0 1
2958 966 4 -9.51706548747255 -2.3047899452510503 -5.819139883427878 0 0 1
2933 958 4 -9.29641901984417 -2.103702370968697 -5.514294245319702 1 0 0
2932 958 2 -9.054937762534271 -1.6739986675162697 -5.598208067823189 1 0 0
4541 1494 4 -7.504755677454677 -2.511552793005786 -6.075526270612061 1 1 0
1020 320 4 -7.312923800430254 -2.218224787458899 -5.0708831325248225 0 1 -1
1301 414 4 -3.5862154210531267 -2.026760676822328 -5.554838261273674 0 1 0
1300 414 2 -3.9287154032752865 -1.755536912232668 -5.798007814671221 0 1 0
3497 1146 4 -3.2591595215051803 -2.013956114384882 -5.347081043407121 0 1 0
3496 1146 2 -2.923936195546256 -2.323536884704309 -5.551495006682237 0 1 0
1022 321 4 -2.3258451057257954 -2.5453537499988084 -5.45002233605872 0 0 1
1105 349 2 -1.0733207710344272 -1.683427196067413 -5.552097978673506 1 0 0
2934 958 4 -8.813456505224373 -1.2442949640638425 -5.682121890326677 1 0 0
133 27 3 -8.43271930031198 -1.170276874545475 -5.60017648632883 1 1 1
1252 398 2 -5.92998367106291 -1.2000310101562262 -5.253594242121667 0 0 0
1254 398 4 -5.847159035647548 -1.653736604086916 -5.0604846519816915 0 0 0
1253 398 4 -6.012808306478273 -0.7463254162255364 -5.446703832261643 0 0 0
1302 414 4 -4.271215385497446 -1.4843131476430085 -6.041177368068769 0 1 0
1107 349 4 -0.7496057329802962 -1.3075045984283433 -5.489721903759443 1 0 0
4138 1360 2 -9.406967739259953 -0.1605098244153492 -0.9305723049117374 0 -1 0
134 27 3 -8.099068659966342 -0.5112444138374721 -5.778931810525596 1 1 1
1175 372 4 -9.254622680325738 -0.24979352082507167 -0.19219927540878978 0 1 0
2725 889 2 -6.475681980129904 -0.3242825927152647 -5.60427302544443 1 -1 0
2727 889 4 -6.3729234387957385 -0.6965159315325751 -5.286652145060347 1 -1 0
3237 1059 4 -1.9654660324278916 -9.933821908873394 -4.622469668436963 1 0 1
366 102 4 -2.314965902213819 -9.87396542664016 -4.4592677892570505 0 0 1
883 275 2 -0.21502957456451235 -9.691055968978567 -4.836288983142128 0 1 0
885 275 4 -0.5256520040538099 -9.327559274743212 -4.6900567719918875 0 1 0
2947 963 2 -9.595863555759054 -8.37050308625919 -4.448073298029333 0 1 0
2949 963 4 -9.264026599491268 -8.012685216480534 -4.5569337891252815 0 1 0
1478 473 4 -6.040104303152542 -8.958894788175527 -4.584085063500905 1 0 0
4359 1433 4 -0.3797218186311869 -8.938344424521933 -4.624887572149167 1 0 1
4357 1433 2 -0.09086539972074197 -8.546903701926187 -4.5094054092519364 1 0 1
1700 547 4 -9.139678963114553 -7.745251480849175 -4.843000560088846 1 1 0
1699 547 2 -8.805234315454054 -7.996218390401647 -5.117158157030328 1 1 0
54 11 3 -7.299782836094472 -8.477805776791692 -4.582834920773751 0 1 0
2775 905 4 -5.5047053030862525 -7.781957557684725 -0.48623832197606776 0 0 0
933 291 4 -8.44683791325898 -6.558772358747843 -4.683218195618213 0 1 0
932 291 4 -7.514384884066052 -6.452802928880997 -5.028619163021391 0 1 0
931 291 2 -7.980611398662516 -6.50578764381442 -4.855918679319802 0 1 0
2301 747 4 -5.489644950252457 -5.707230030061337 -4.149253271695247 0 0 1
3793 1245 2 -1.0611755334612138 -6.366045084643527 -4.513877628252384 0 1 0
3794 1245 4 -1.1447373924128543 -5.901862622608452 -4.679865753332583 0 1 0
3052 998 2 -8.285589712210474 -5.305513487004156 -4.790386663526124 1 0 0
331 91 2 -5.429973278328815 -5.312834130645233 -4.6926668008070545 -1 0 0
332 91 4 -5.178972391353634 -5.638170142486723 -4.407789574380046 -1 0 0
1634 525 4 -0.9183565838362739 -5.584595255838277 -4.6966194585796135 1 2 1
1633 525 2 -0.5118391894702478 -5.346795770689969 -4.528705751750856 1 2 1
1635 525 4 -0.10532179510422152 -5.108996285541661 -4.360792044922098 1 2 1
2584 842 2 -9.527592213425354 -4.375969150764423 -4.399370090035205 1 1 0
2586 842 4 -9.58204375149529 -4.493785574772534 -4.882230649861536 1 1 0
3054 998 4 -8.478738247555189 -4.927542958315387 -4.52612935948977 1 0 0
2009 650 4 -8.588819549500288 -4.546161466556742 -4.3987754341460725 0 0 1
333 91 4 -5.680974165303995 -4.987498118803742 -4.977544027234063 -1 0 0
1564 502 2 -4.479425955919267 -4.457982035640042 -4.475575575722242 0 0 0
1566 502 4 -4.696575673568349 -4.322133751078422 -4.904983591142478 0 0 0
1746 562 4 -8.537312837394772 -9.975776857777854 -2.3194926511580034 -1 0 -1
1935 625 4 -2.8027207138279806 -4.061284184588004 -4.569510994230233 0 0 0
1933 625 2 -2.812245655107042 -3.713411542955082 -4.210493027134654 0 0 0
4076 1339 4 -1.7397769734063528 -4.025757065778604 -4.889459923717388 -1 0 0
4075 1339 2 -1.5469016266897442 -3.568608398693049 -4.951219107735248 -1 0 0
3083 1008 4 -8.906881050985334 -3.3998130314160786 -4.93556372420768 0 0 0
4077 1339 4 -1.3540262799731355 -3.1114597316074937 -5.012978291753108 -1 0 0
4484 1475 4 -1.4236503146927164 -2.724695058866177 -4.926277469094602 0 0 0
4483 1475 2 -1.021155680899642 -2.625975018520138 -4.646541122864909 0 0 0
2800 914 2 -0.19676886155232456 -3.2044140446704645 -4.149083610026443 0 0 -1
2801 914 4 -0.49408904149027555 -2.8042172574343147 -4.111093583872284 0 0 -1
1018 320 2 -6.8916506252290635 -2.3119225258879403 -4.818396210746637 0 1 -1
1019 320 4 -6.470377450027873 -2.4056202643169815 -4.565909288968451 0 1 -1
380 107 4 -6.41076219925804 -2.2135142345937084 -4.213955632528194 0 -1 0
4116 1352 4 -0.9354741937669672 -1.678648719983254 -4.150079957723726 0 1 1
4485 1475 4 -0.6186610471065677 -2.5272549781740987 -4.366804776635217 0 0 0
1600 514 2 -4.562579787418267 -0.9970507038395213 -4.398264593339632 -1 1 0
1601 514 4 -4.489455689349528 -1.3583960319652009 -4.736025485277991 -1 1 0
4114 1352 2 -0.8404405016454667 -1.2227193097139117 -4.332005684912207 0 1 1
3168 1036 4 -5.669420382818754 -0.06181278108717686 -5.739347839352885 1 0 1
604 182 2 -2.6553475719626163 -0.09891716172145816 -3.3113074003309486 0 0 -1
4263 1401 4 -8.831599947733505 -0.15466338739873875 -4.549462259808039 1 0 0
1602 514 4 -4.635703885487006 -0.6357053757138418 -4.060503701401273 -1 1 0
1720 554 2 -9.161509779150645 -9.870713573186382 -4.180060643478809 2 0 1
1722 554 4 -8.735129560727755 -9.682088785779355 -3.999448908220625 2 0 1
2875 939 2 -6.808958400642178 -9.399600120285452 -3.6081789350877655 0 1 -1
1705 549 2 -4.0414318958522415 -9.201704397059979 -3.789786957740379 0 2 0
1706 549 4 -3.9119074856573204 -9.549236989514393 -3.4544594695356587 0 2 0
2840 927 4 -2.6905425003662633 -9.350547731175551 -3.6499459460691943 1 0 0
364 102 2 -2.1263334300864476 -9.73085056840526 -4.01888621855797 0 0 1
365 102 4 -1.9377009579590763 -9.587735710170362 -3.5785046478588898 0 0 1
2070 670 4 -1.55902021196209 -9.652307517000754 -3.6976334970366658 -1 1 0
2068 670 2 -1.091874455902877 -9.514673198388497 -3.58435668150878 -1 1 0
2069 670 4 -0.6247286998436643 -9.37703887977624 -3.471079865980895 -1 1 0
2364 768 4 -0.281959442323265 -9.253835407945814 -3.3452430508963213 0 0 1
2948 963 4 -9.92770051202684 -8.728320956037843 -4.339212806933384 0 1 0
225 55 4 -8.646544116943748 -9.307473175521665 -3.9156201452804402 0 0 -1
223 55 2 -8.29712486753223 -8.977189369771503 -3.778438529165315 0 0 -1
224 55 4 -7.947705618120711 -8.646905564021342 -3.64125691305019 0 0 -1
53 11 3 -7.738509884398978 -8.581836401581619 -3.9710374001903825 0 1 0
2876 939 4 -6.683673083528854 -8.981099476462033 -3.851408868350995 0 1 -1
55 11 3 -7.044261971222061 -8.872290297712727 -3.994624881443685 0 1 0
51 11 1 -7.303713993989154 -8.51990661302648 -4.120761262591439 0 1 0
2252 731 4 -4.453197013485182 -8.60712564991097 -3.9852631958778675 0 1 -1
1707 549 4 -4.170956306047162 -8.854171804605565 -4.1251144459450995 0 2 0
2251 731 2 -4.826704498842918 -8.274832397780271 -3.9766985610354086 0 1 -1
52 11 3 -7.135960380227948 -8.13403674354206 -3.9348495392005294 0 1 0
1146 362 4 -7.2763097154857235 -8.105160109429434 -3.5491310516443586 0 0 -1
1685 542 4 -6.497825586831633 -7.951387518588907 -4.13342373469218 1 0 -1
1684 542 2 -6.022902286704802 -7.899492413629856 -3.9859287955326597 1 0 -1
2253 731 4 -5.200211984200655 -7.942539145649573 -3.96813392619295 0 1 -1
1686 542 4 -5.547978986577972 -7.847597308670805 -3.8384338563731397 1 0 -1
1493 478 4 -4.232329339241009 -7.586607698815498 -3.724850055332358 0 0 -1
1617 519 4 -2.1196790674888293 -7.531806685798365 -3.9284447663178663 -1 1 0
4131 1357 4 -9.052567706126068 -7.382960507217953 -3.291654329283265 1 1 0
4129 1357 2 -8.842433712594186 -6.932080580559439 -3.3421617198177906 1 1 0
2300 747 4 -5.64218852292045 -6.651709982151535 -3.858241109516089 0 0 1
1492 478 2 -3.9621371210787673 -7.198949968193314 -3.56139471239874 0 0 -1
1494 478 4 -3.6919449029165254 -6.81129223757113 -3.397939369465122 0 0 -1
1615 519 2 -1.7025386966198228 -7.278757081200263 -4.0378056761719305 -1 1 0
3795 1245 4 -0.9776136745095733 -6.830227546678601 -4.347889503172185 0 1 0
1616 519 4 -1.2853983257508161 -7.025707476602161 -4.147166586025994 -1 1 0
4130 1357 4 -8.632299719062305 -6.481200653900925 -3.3926691103523163 1 1 0
2299 747 2 -5.565916736586454 -6.179470006106436 -4.003747190605668 0 0 1
178 40 2 -6.271405959284869 -5.30182208203228 -3.3371874793619587 0 0 -1
2671 871 2 -4.561595282661279 -5.098370534861113 -3.3735728447432454 1 0 1
3037 993 2 -4.310785293922657 -0.0905923062200912 -4.912841155219588 2 -1 1
2585 842 4 -9.473140675355419 -4.258152726756311 -3.9165095302088746 1 1 0
2008 650 2 -8.189090875589343 -4.445859153422561 -4.115656319225786 0 0 1
2010 650 4 -7.789362201678399 -4.34555684028838 -3.8325372043054986 0 0 1
1403 448 4 -7.55214901111177 -4.5100255408337 -3.562744428257831 -1 0 0
1402 448 2 -7.081781052365189 -4.611689867405612 -3.698458643015673 -1 0 0
180 40 4 -6.330038372176128 -4.93081996151308 -3.6672172760908053 0 0 -1
1404 448 4 -6.611413093618608 -4.7133541939775245 -3.8341728577735155 -1 0 0
1565 502 4 -4.262276238270186 -4.593830320201663 -4.046167560302006 0 0 0
2673 871 4 -4.46109213837521 -4.867715990414655 -3.8056580205073396 1 0 1
1934 625 4 -2.821770596386103 -3.3655389013221604 -3.8514750600390744 0 0 0
4244 1395 4 -2.6954636942319086 -3.187603120598926 -3.5146086071922253 0 0 0
379 107 2 -6.287931818333111 -2.651707971091534 -4.006835023181386 0 -1 0
381 107 4 -6.165101437408182 -3.0899017075893593 -3.799714413834579 0 -1 0
2858 933 4 -5.740242771749652 -1.4091431930771228 -3.3059149582080747 1 -1 0
3747 1229 4 -5.53398508263653 -1.7355274554100837 -3.2889226982095168 1 -1 0
2857 933 2 -5.995576041811585 -1.0265841354857088 -3.502010569210757 1 -1 0
2385 775 4 -9.768783470168563 -0.3814831534562767 -3.95322712219331 1 1 0
2383 775 2 -9.281735837565398 -0.3683451987254673 -4.0655302731788145 1 1 0
2384 775 4 -8.794688204962233 -0.35520724399465786 -4.177833424164319 1 1 0
4494 1478 4 -6.5273821074449785 -0.6870854224108407 -3.380875375533259 1 0 1
2859 933 4 -6.250909311873518 -0.6440250778942948 -3.6981061802134394 1 -1 0
3645 1195 4 -4.47581551036487 -0.7653707126225274 -3.726196521291779 0 0 1
3643 1195 2 -4.5816551883546985 -0.8995892735663205 -3.256320643574062 0 0 1
4115 1352 4 -0.745406809523966 -0.7667898994445685 -4.513931412100687 0 1 1
2877 939 4 -6.934243717755502 -9.818100764108872 -3.3649490018245363 0 1 -1
1340 427 4 -9.516863636873119 -2.523963051518085 -0.9670767658881718 1 -1 -1
1094 345 4 -2.64742243359335 -9.872712801161764 -2.6915094662812575 -1 0 0
2841 927 4 -2.892525901954357 -8.665211143659578 -2.9502914118221106 1 0 0
2839 927 2 -2.79153420116031 -9.007879437417564 -3.3001186789456525 1 0 0