LAMMPS data file via write_data, version 27 Jun 2024, timestep = 6000000, units = lj

5040 atoms
4 atom types
3540 bonds
1 bond types

-9.998647 9.998647 xlo xhi
-9.998647 9.998647 ylo yhi
-9.998647 9.998647 zlo zhi

Masses

1 1
2 1
3 0.5
4 0.5

Bond Coeffs # zero

1 0

Atoms # bond

2821 761 2 -9.14423308885575 -9.103386141509693 -9.870047019509714 0 1 1
2822 761 4 -9.643936448079574 -9.086290982400646 -9.872122667563293 0 1 1
170 34 3 -9.942845623570653 -9.305177105222542 -9.98469142107126 0 0 1
2823 761 4 -8.644529729631925 -9.12048130061874 -9.867971371456136 0 1 1
110 22 3 -7.197799627361136 -8.313337788977885 -8.660262723489149 0 0 0
2308 590 2 -7.978624404287785 -9.723318646830252 -8.52777164882482 0 1 0
863 173 3 -7.736905926919587 -8.663574790284724 -9.8543306977943 1 0 1
2310 590 4 -7.7360882930936725 -9.300800943935174 -8.415277091144947 0 1 0
108 22 3 -7.655451867875422 -8.879452079736273 -8.467989385369924 0 0 0
106 22 1 -7.318872086750481 -8.594723223310439 -8.323270591647852 0 0 0
1877 446 4 -6.559774649071572 -9.988479017166398 -8.553752169702793 0 0 1
1482 314 4 -7.639465396253506 -8.270477765662436 -9.887785483189537 0 0 0
1480 314 2 -7.512823014335762 -8.200480534941072 -9.409181163533406 0 0 0
1481 314 4 -7.386180632418018 -8.130483304219707 -8.930576843877274 0 0 0
767 154 3 -6.907813755448522 -6.992613779435645 -8.491001838653123 1 0 0
1692 384 4 -5.922544245323861 -6.907718914128915 -8.916938116883017 0 0 0
770 154 3 -6.2870156552193786 -7.031567712977315 -8.90342432811367 1 0 0
766 154 1 -6.451123327849878 -7.0463404560730964 -8.478865218159623 1 0 0
2196 552 4 -6.076767850954234 -7.698362281024407 -8.390125757304217 0 0 1
769 154 3 -6.3534494458354684 -7.456700386794829 -8.285566123412579 1 0 0
1697 386 4 -4.366382877439036 -7.407370331284376 -9.217302843960194 0 0 0
1696 386 2 -4.082730505855338 -7.226406769610206 -9.587158926025609 0 0 0
1698 386 4 -3.7990781342716393 -7.045443207936035 -9.957015008091023 0 0 0
1503 321 4 -2.246082703683792 -7.11761108811232 -8.840710502855524 0 0 0
1501 321 2 -2.026553247256882 -7.096303614914643 -9.289434036165876 0 0 0
2627 696 4 -2.3375211383324395 -7.126094479246128 -8.462852569980429 0 1 0
1502 321 4 -1.8070237908299718 -7.074996141716965 -9.738157569476227 0 0 0
1529 330 4 -1.4372468146238906 -7.05612047709888 -9.903853860229752 0 0 0
1528 330 2 -0.9406699788849626 -7.01660657423899 -9.946866622152259 0 0 0
1530 330 4 -0.4440931431460347 -6.977092671379101 -9.989879384074767 0 0 0
3909 1123 4 -9.743862310137615 -5.856693505809382 -9.883714472493144 1 0 1
3907 1123 2 -9.311181177783421 -5.75645711538874 -9.654063207005928 1 0 1
2751 737 4 -2.199699968203965 -1.6635643340550226 -0.21487068930508313 0 0 0
3908 1123 4 -8.878500045429227 -5.656220724968097 -9.424411941518711 1 0 1
1556 339 4 -8.648299167845662 -5.763695571130375 -9.104253730446525 0 0 0
1555 339 2 -8.310487299882123 -5.594983352515951 -8.776504849208298 0 0 0
1557 339 4 -7.972675431918583 -5.426271133901526 -8.44875596797007 0 0 0
1690 384 2 -5.868533940053237 -6.569100615641544 -9.280834441203758 0 0 0
1691 384 4 -5.8145236347826135 -6.2304823171541726 -9.6447307655245 0 0 0
1505 322 4 -4.45679491075236 -6.090048392755248 -9.108767238004605 0 0 0
1504 322 2 -4.534560192259616 -6.1690780277542085 -8.621215314837631 0 0 0
1838 433 4 -3.9153609994400993 -6.6630463764927335 -9.905191641095337 0 0 1
138 28 3 -3.2313273699984886 -5.169877805386415 -9.853008550636762 0 0 0
4115 1192 4 -2.461238856343564 -1.3608004155420084 -0.15087508287588786 0 0 0
152 31 3 -9.629671181476803 -3.616770085513674 -9.372177224287846 0 0 0
1835 432 4 -8.994828712482116 -4.307147622986812 -9.723343903770784 0 0 1
154 31 3 -9.381817185020632 -4.195881522998801 -9.782175199178319 0 0 0
151 31 1 -9.71825391078743 -3.879205168120321 -9.739438612790641 0 0 0
1664 375 4 -0.020637059928362123 -4.633087646570736 -8.608031231944636 0 0 0
3930 1130 4 -0.19722114275401037 -3.803778941836461 -9.837190100865921 0 0 1
2616 692 4 -9.719169181029821 -2.8645060710764363 -9.813701756698515 0 0 0
1675 379 2 -6.183387789629491 -1.8783929157171888 -9.761859678831772 0 0 0
1496 319 4 -4.301899203395133 -2.1987423627560765 -8.936716434710876 0 0 0
2505 655 4 -4.457731453233202 -1.8190840183189938 -8.963126257989773 0 0 0
1495 319 2 -3.869961458702121 -2.0313534211840474 -9.124893816318037 0 0 0
1497 319 4 -3.4380237140091094 -1.8639644796120183 -9.313071197925199 0 0 0
1763 408 4 -3.1160787504157317 -2.060218621852806 -9.312003249078966 0 0 0
1762 408 2 -2.8294747294716713 -1.719904026731529 -9.083871463643352 0 0 0
1793 418 4 -8.663859535108784 -1.0865124953372947 -8.740546242180583 0 0 0
2158 540 2 -9.987414656928697 -0.665084688633887 -9.020480094727768 0 0 1
2160 540 4 -9.616101733990261 -0.3307490719417966 -9.039092151838204 0 0 1
707 142 3 -8.518564379581088 -0.7157822089822179 -8.706919520532349 1 0 0
706 142 1 -8.168911435994588 -0.4716558287421945 -8.879387284222565 1 0 0
710 142 3 -8.043900458975457 -0.650472144375547 -9.279133429780142 1 0 0
2151 537 4 -7.764770829563461 -0.6060395343236962 -9.541323144854712 0 0 1
709 142 3 -7.81379045332139 -0.48693412430874 -8.58113292742302 1 0 0
4693 1385 2 -6.729932826452138 -0.14450977956481303 -8.462751721822269 1 0 1
708 142 3 -8.307247270787625 -0.032732101269710046 -8.93862543302787 1 0 0
464 93 3 -5.124169609110706 -9.735312447774815 -0.5706067135572738 0 1 0
1677 379 4 -6.221206468369766 -1.4165346164119914 -9.574092112672151 0 0 0
4695 1385 4 -6.4255807912034175 -0.3421123215459604 -8.80673293358005 1 0 1
207 42 3 -6.201919434870179 -1.1127591767419733 -8.473800341036084 0 0 1
2504 655 4 -5.338658481096197 -1.4343595028776293 -8.68752760269843 0 0 0
209 42 3 -5.547514774091068 -1.0687808941031276 -8.8408431867729 0 0 1
210 42 3 -6.172934233193362 -1.2866638172349893 -9.199001715895934 0 0 1
206 42 1 -6.006390965935438 -1.0105218719570814 -8.877429070620968 0 0 1
208 42 3 -6.102090167207117 -0.5689089359722974 -8.98287895277742 0 0 1
2503 655 2 -4.8981949671647 -1.6267217605983115 -8.8253269303441 0 0 0
1803 421 4 -4.233242791414223 -0.1535674862815174 -8.83622316815444 0 0 0
1801 421 2 -4.207548720854083 -0.5843338553086495 -8.58367584575081 0 0 0
1802 421 4 -4.1818546502939435 -1.0151002243357814 -8.331128523347179 0 0 0
1764 408 4 -2.542870708527611 -1.3795894316102522 -8.855739678207737 0 0 0
619 124 3 -0.15155877065766415 -1.3247115891458467 -8.725094079872555 0 0 1
107 22 3 -6.954833579840096 -8.846437619574646 -8.197907805304173 0 0 0
1613 358 4 -6.628616635196771 -8.96431440640144 -8.002375053459923 0 0 0
1612 358 2 -6.441987247748185 -9.352075433921941 -8.256954819499 0 0 0
2195 552 4 -6.286854665999527 -8.368451251041423 -7.6781957731032815 0 0 1
1614 358 4 -6.255357860299599 -9.73983646144244 -8.511534585538078 0 0 0
1914 458 4 -5.247651978140802 -9.570432795931122 -6.760875440404513 0 0 1
2495 652 4 -5.612350741904386 -9.692432710353236 -6.884072289776533 0 1 0
2641 701 2 -3.2447870818279845 -8.702921129997433 -7.110145404586527 0 1 0
2580 680 4 -3.0286232587735156 -9.468842049684215 -7.097832783790166 0 1 0
2642 701 4 -3.299145798798934 -9.198367395505683 -7.070419746841104 0 1 0
2578 680 2 -3.0238228441457697 -9.756466466582664 -6.688871721067892 0 1 0
1032 207 3 -0.23682204526268283 -8.79868449906666 -7.595506437226841 0 1 0
1379 280 4 -8.532087539567504 -7.06912282623422 -6.729556939424578 0 0 0
410 82 3 -8.471553513051337 -6.7567184440978645 -6.96401199887724 0 0 0
1622 361 4 -9.414696985586156 -7.037097428378301 -6.739230656854385 0 0 0
409 82 3 -9.220944351803432 -6.719971407792066 -6.901059428501014 0 0 0
109 22 3 -7.4650656859487405 -8.349772448974534 -7.957310826501806 0 0 0
1378 280 2 -8.085068224077991 -7.292399536432662 -6.747480171896312 0 0 0
1433 298 4 -7.602324492173754 -8.026346441166144 -8.132024818392829 0 0 0
1432 298 2 -7.593042552973368 -7.640132016254467 -7.8146098477393835 0 0 0
1434 298 4 -7.5837606137729825 -7.25391759134279 -7.4971948770859385 0 0 0
2194 552 2 -6.1818112584768805 -8.033406766032915 -8.03416076520375 0 0 1
768 154 3 -6.266495690949613 -6.7040629578432185 -8.225766917300337 1 0 0
1715 392 4 -6.337874345497064 -6.607602135008131 -7.8333959371383965 0 0 0
3638 1033 4 -4.249832093979415 -7.137864534550391 -7.317748473934367 0 0 0
1643 368 4 -4.2115262405931535 -7.231576133958904 -6.922994562750463 0 0 0
3637 1033 2 -4.359725689406399 -6.8692683873472875 -7.724908770858483 0 0 0
2643 701 4 -3.190428364857035 -8.207474864489184 -7.14987106233195 0 1 0
2626 696 2 -2.004210203919591 -7.306562432630494 -8.136761878912175 0 1 0
2628 696 4 -1.6708992695067428 -7.487030386014859 -7.810671187843921 0 1 0
4416 1292 4 -0.48568112360652427 -6.823855875637352 -7.3959767959375045 0 1 0
4414 1292 2 -0.8866432687805282 -7.06923435979362 -7.5663257250521925 0 1 0
4415 1292 4 -1.287605413954532 -7.314612843949887 -7.7366746541668805 0 1 0
406 82 1 -8.844193720635198 -6.528931459729563 -7.093056043467369 0 0 0
407 82 3 -8.883684879985143 -6.549980465743727 -7.550874116154478 0 0 0
408 82 3 -8.809817214551568 -6.0840561132398285 -6.965760395800032 0 0 0
3427 963 2 -8.907194345238505 -5.4448786849692885 -6.9519969327621185 1 0 0
3428 963 4 -9.102413914792061 -5.879661793761913 -7.103168914200005 1 0 0
3416 959 4 -8.024997618898903 -5.712267390121491 -8.153530854335113 1 0 0
3415 959 2 -7.801000176987276 -5.497619020492375 -7.761419615740363 1 0 0
3417 959 4 -7.577002735075648 -5.282970650863259 -7.369308377145613 1 0 0
1412 291 4 -7.325377324152203 -5.072480832700587 -7.143171919503563 0 0 0
1716 392 4 -6.860323301547126 -6.227269934147367 -7.07024817601329 0 0 0
1714 392 2 -6.5990988235220955 -6.417436034577749 -7.451822056575843 0 0 0
1506 322 4 -4.612325473766872 -6.248107662753169 -8.133663391670657 0 0 0
3639 1033 4 -4.4696192848333824 -6.600672240144184 -8.132069067782599 0 0 0
14 3 3 -3.6060075766383206 -5.2018024049561795 -7.042731307327757 0 0 0
1128 226 3 -1.8732054560598541 -6.300969775318639 -7.00100201949471 0 1 0
3303 921 4 -2.4306074669514386 -5.798913281864396 -7.444252339904614 0 0 0
3301 921 2 -2.8459824535944303 -5.546450569902053 -7.327093475366265 0 0 0
1127 226 3 -2.0640527699198863 -5.885805349256496 -7.597756409612096 0 1 0
1126 226 1 -1.712372810099008 -6.01983783529924 -7.333263501303784 0 1 0
3302 921 4 -3.261357440237422 -5.29398785793971 -7.209934610827916 0 0 0
1129 226 3 -1.4042855069090812 -6.245813254662331 -7.596545334054606 0 1 0
1130 226 3 -1.5174586748956544 -5.65338773200121 -7.145852718021182 0 1 0
1550 337 4 -1.3999843268839667 -5.558338760866104 -6.768559829437084 0 0 0
3429 963 4 -8.711974775684949 -5.010095576176664 -6.800824951324232 1 0 0
1738 400 2 -8.48401574045794 -4.293177554919657 -6.969358705156481 0 0 0
1388 283 4 -8.778541915283174 -3.5814022073687277 -6.713017847361825 0 0 0
1740 400 4 -8.506408131657096 -3.795589201329234 -6.925719145264529 0 0 0
1739 400 4 -8.461623349258783 -4.79076590851008 -7.0129982650484335 0 0 0
12 3 3 -4.300254370296269 -4.922964543365508 -7.114639835600497 0 0 0
15 3 3 -3.750449316837872 -4.660426474411208 -7.545671348996583 0 0 0
11 3 1 -3.852516878883558 -4.81874299407741 -7.131041282095352 0 0 0
1800 420 4 -3.5862617026148995 -4.263746706318042 -7.583126342289003 0 0 0
1798 420 2 -3.569790087698299 -3.7655005381798827 -7.621589855354076 0 0 0
13 3 3 -3.7620679593520925 -4.4949356634274595 -6.81124790259443 0 0 0
1799 420 4 -3.5533184727816987 -3.2672543700417247 -7.660053368419147 0 0 0
1479 313 4 -1.9236448820274445 -4.374700042565585 -7.508696809566907 0 0 0
1419 293 4 -3.3861700787870395 -4.539924312710888 -6.693225971803974 0 0 0
1663 375 2 -0.4917174844658531 -4.680775808968956 -8.44737920803885 0 0 0
1665 375 4 -0.962797909003344 -4.7284639713671766 -8.286727184133063 0 0 0
1478 313 4 -1.0249501982156433 -4.5112841637610375 -7.92546130316827 0 0 0
1477 313 2 -1.474297540121544 -4.442992103163311 -7.717079056367589 0 0 0
1484 315 4 -0.8765369031298007 -3.4481133090188916 -6.862402978167404 0 0 0
1483 315 2 -1.1777187001812839 -3.7432764796565183 -6.593761529719285 0 0 0
1387 283 2 -9.026035012079268 -3.1741881087187425 -6.86442407213036 0 0 0
1630 364 2 -8.830456873051483 -2.153363291398005 -7.319208916500559 0 0 0
1632 364 4 -8.974744361636569 -2.5331019860054385 -7.027696233318715 0 0 0
1389 283 4 -9.273528108875361 -2.766974010068757 -7.015830296898895 0 0 0
1631 364 4 -8.686169384466398 -1.7736245967905715 -7.610721599682402 0 0 0
1465 309 2 -3.6714673927629944 -2.408116747173385 -7.69987456520704 0 0 0
1466 309 4 -3.7685670915484835 -1.934475699548424 -7.827294369399312 0 0 0
1467 309 4 -3.5743676939775053 -2.881757794798346 -7.572454761014768 0 0 0
127 26 3 -4.128539350857025 -1.820785300412803 -7.672644615233082 0 0 0
3214 892 2 -0.2883134548470938 -2.987033600885955 -6.8101150993246735 0 0 0
3215 892 4 -0.7621434600641934 -3.062296550447864 -6.950900803779828 0 0 0
1792 418 2 -8.642692732226292 -1.2645209294008364 -8.273786171204842 0 0 0
1794 418 4 -8.6215259293438 -1.442529363464378 -7.8070261002291 0 0 0
1773 411 4 -9.181188790012206 -0.19761880033110973 -7.329345119632156 0 0 0
3566 1009 4 -9.931784722908803 -7.627271804862552 -4.808059075655299 1 0 0
3109 857 2 -2.859170025232723 -0.10195843773048506 -0.1984729890679214 0 0 0
2390 617 4 -6.114898893216409 -0.8966603814580365 -6.897856728304479 0 0 0
1514 325 4 -5.560255143678137 -0.8481407738901932 -7.109578606632395 0 0 0
2389 617 2 -6.356416244947988 -1.3201671718636512 -6.7869001273602505 0 0 0
1513 325 2 -5.8261659898889615 -0.43667842272084634 -7.2095293716995315 0 0 0
1515 325 4 -6.092076836099786 -0.025216071551499464 -7.309480136766668 0 0 0
1353 271 4 -5.275617051911601 -0.840513627871912 -6.807941871306266 0 0 0
130 26 3 -4.717219999447937 -1.4908720653362257 -7.9914115383863455 0 0 0
1351 271 2 -4.831320207522839 -0.8834479431050845 -7.033234921890976 0 0 0
128 26 3 -4.2107772547598685 -1.0755550214815237 -7.620025621263297 0 0 0
1352 271 4 -4.387023363134077 -0.9263822583382568 -7.258527972475687 0 0 0
126 26 1 -4.2748224422806205 -1.4447968921116163 -7.893628718704271 0 0 0
129 26 3 -4.030394107338968 -1.3962260494990788 -8.285030893360766 0 0 0
1755 405 4 -2.4248893304391523 -1.3294051988874274 -8.485450949315616 0 0 0
1753 405 2 -2.067948136902336 -1.2924905170286012 -8.137269544557121 0 0 0
1754 405 4 -1.7110069433655193 -1.255575835169775 -7.7890881397986265 0 0 0
2659 707 2 -6.858286227761642 -9.766588585240768 -5.14902601342688 0 1 0
2660 707 4 -6.606878546396177 -9.936151167068717 -5.546571870648308 0 1 0
1563 341 4 -5.354532152219222 -8.401872016158176 -5.406146078021086 0 0 0
99 20 3 -5.3241868780820605 -9.863829097584901 -5.175422631203221 0 0 0
1912 458 2 -4.847322995028021 -9.279018311749802 -6.691490256906401 0 0 1
1913 458 4 -4.44699401191524 -8.987603827568481 -6.622105073408289 0 0 1
483 97 3 -3.8398104866254847 -9.648994747405297 -5.551779939857242 0 1 0
2552 671 4 -4.140167312658386 -9.873535324424127 -5.659301480800655 0 1 0
481 97 1 -3.454049457984217 -9.892411239532233 -5.636849559245801 0 1 0
2551 671 2 -4.5715654228441895 -9.983021468501034 -5.43146721036873 0 1 0
1416 292 4 -3.016379419198074 -9.66881889329302 -5.059105834029943 0 0 0
484 97 3 -3.0898845807207733 -9.687877445735127 -5.43473605310796 0 1 0
1414 292 2 -2.52562088405051 -9.700672149344033 -4.968875959494355 0 0 0
3654 1038 4 -0.45822752580987863 -8.518268558400212 -5.536688108257877 0 0 0
2136 532 4 -2.0642633861859485 -0.10852919298152258 -1.537666267889433 0 0 0
3652 1038 2 -0.7472621346262972 -8.606885576566695 -5.934941820101544 0 0 0
3653 1038 4 -1.036296743442716 -8.695502594733178 -6.333195531945212 0 0 0
3567 1009 4 -9.354673128090171 -7.368820145210702 -5.582749301970914 1 0 0
3565 1009 2 -9.643228925499487 -7.498045975036627 -5.195404188813106 1 0 0
1621 361 2 -9.488178492632274 -7.063230150398739 -6.2453505611206825 0 0 0
1623 361 4 -9.561659999678394 -7.089362872419177 -5.75147046538698 0 0 0
1380 280 4 -7.6380489085884795 -7.515676246631105 -6.765403404368046 0 0 0
3606 1022 4 -7.4118785510622045 -7.728577171352137 -6.540166460783745 1 0 0
3605 1022 4 -6.797007748954743 -7.370276439358708 -5.837632132677614 1 0 0
3604 1022 2 -7.104443150008474 -7.549426805355423 -6.18889929673068 1 0 0
23 5 3 -6.785753951632826 -7.013798423232778 -5.642716423563485 0 0 0
21 5 1 -6.886227790157644 -6.868366193853331 -5.213700719387438 0 0 0
24 5 3 -7.276665768260349 -7.070452737167592 -5.065311992503539 0 0 0
2543 668 4 -5.114143081651703 -6.964413925948835 -5.865253224210765 0 1 0
1642 368 2 -4.194134401606821 -7.11558624907349 -6.436945315717881 0 0 0
50 10 3 -4.844966888352319 -6.987580487489108 -5.569360988391284 0 0 0
1644 368 4 -4.176742562620488 -6.9995963641880765 -5.9508960686852985 0 0 0
46 10 1 -4.466228843125761 -7.098766069820711 -5.342215089507866 0 0 0
47 10 3 -4.099944114592979 -6.943697244092314 -5.5732760272080535 0 0 0
48 10 3 -4.434692350478208 -7.560048250396424 -5.303174091636205 0 0 0
49 10 3 -4.471319136127397 -6.904128898754373 -4.921037620314109 0 0 0
1688 383 4 -4.337811472277198 -7.794042845424313 -4.992652460702427 0 0 0
94 19 3 -2.000699901664345 -6.812516506875231 -5.005253602474607 0 0 0
4371 1277 4 -0.6542425235312044 -8.340023238693783 -5.232838979955158 0 1 0
4369 1277 2 -0.9034793406972452 -7.934749254004123 -5.0791054237522015 0 1 0
1411 291 2 -7.3442605766304085 -5.187918919697082 -6.6570469655603235 0 0 0
2018 493 4 -7.179033022911318 -6.3818940575200935 -5.50742407505196 0 0 0
2019 493 4 -7.548276640509057 -5.538544771486385 -5.8978355664424384 0 0 0
2017 493 2 -7.363654831710187 -5.960219414503239 -5.702629820747199 0 0 0
1413 291 4 -7.363143829108614 -5.3033570066935765 -6.170922011617084 0 0 0
25 5 3 -6.934716133612495 -6.4155542988688925 -5.210496299085727 0 0 0
2544 668 4 -5.358738768116632 -6.113724745856522 -6.330549763029982 0 1 0
2542 668 2 -5.2364409248841675 -6.539069335902679 -6.097901493620373 0 1 0
2684 715 4 -5.171628009819911 -5.766336161630833 -6.296394401807014 0 0 0
2683 715 2 -5.0502639594110175 -5.359561140196463 -6.032188328437735 0 0 0
1394 285 4 -5.050254962128442 -5.236044346558555 -5.106094354526103 0 0 0
1549 337 2 -0.9989570634168253 -5.539903844590166 -6.470503982626647 0 0 0
1551 337 4 -0.597929799949684 -5.521468928314227 -6.172448135816209 0 0 0
1487 316 4 -8.511085559321465 -5.114207888770572 -5.221631069548174 0 0 0
2545 669 2 -9.215571194712867 -3.9636404481847243 -5.914632160589858 0 0 0
2546 669 4 -8.742222801214092 -4.106591355253594 -5.84042746706872 0 0 0
2547 669 4 -9.688919588211641 -3.8206895411158537 -5.988836854110996 0 0 0
525 105 3 -9.953952830877405 -4.072568198069095 -6.201436497365232 0 0 0
42 9 3 -8.452249487824751 -4.084087754269341 -5.564577117015217 0 0 0
44 9 3 -8.481229715155806 -3.335161515328385 -5.508277605026101 0 0 0
3248 903 4 -9.666031857229987 -3.3984986065718217 -5.957286815590862 1 0 0
41 9 1 -8.20652473996457 -3.697064483450858 -5.6024233339231815 0 0 0
45 9 3 -7.859927364856005 -3.709978137086354 -5.307290317949263 0 0 0
1592 351 4 -7.6747659249703055 -3.5766343211643465 -5.91299025658319 0 0 0
43 9 3 -8.04423120506271 -3.664208799877535 -6.035876114034491 0 0 0
3456 972 4 -7.995333327044061 -3.4676784762035915 -5.023887941092899 1 0 0
117 24 3 -5.654477036543644 -4.141725254070291 -5.490868241340808 0 0 0
118 24 3 -5.002141348288973 -4.222052192812446 -5.126305856086216 0 0 0
120 24 3 -5.025517185805731 -3.882815252269893 -5.798073575162252 0 0 0
116 24 1 -5.203703769020472 -4.216281960361615 -5.5442045219929925 0 0 0
119 24 3 -5.143204396403362 -4.625234778692244 -5.754911470840709 0 0 0
2685 715 4 -4.928899909002124 -4.952786118762092 -5.767982255068457 0 0 0
1508 323 4 -4.920948592320249 -3.7444561827945644 -6.16030764563597 0 0 0
1417 293 2 -2.921664257993964 -4.432122975235083 -6.5428490650410245 0 0 0
1418 293 4 -2.457158437200888 -4.324321637759277 -6.392472158278075 0 0 0
3727 1063 2 -1.7016326743321337 -4.351199919133322 -5.552132892234586 0 0 1
3728 1063 4 -1.9633000208033156 -4.4654364434182545 -5.141669475703629 0 0 1
1818 426 4 -2.919332893868476 -3.523986135682261 -5.944339002117132 0 0 0
3729 1063 4 -1.4399653278609519 -4.236963394848389 -5.962596308765543 0 0 1
1485 315 4 -1.478900497232767 -4.038439650294145 -6.325120081271166 0 0 0
1724 395 4 -0.08483923706436364 -4.66673044546064 -4.828403995250568 0 0 0
3249 903 4 -9.489568090346715 -2.4679187840003087 -5.636534991279232 1 0 0
4212 1224 4 -9.422228679787203 -2.0742450507373507 -5.515363356446281 1 0 0
3247 903 2 -9.57779997378835 -2.933208695286065 -5.796910903435047 1 0 0
1575 345 4 -8.339155006743349 -3.2703013133400947 -5.108194998383734 0 0 0
4210 1224 2 -9.158767865584263 -1.8153172523348817 -5.178399271426193 1 0 0
1591 351 2 -7.3993530728404275 -3.3130559397376516 -6.236524177102041 0 0 0
1593 351 4 -7.1239402207105496 -3.0494775583109566 -6.5600580976208915 0 0 0
1577 346 4 -6.884439499973264 -2.8381949379778284 -6.318181160149608 0 0 0
1576 346 2 -6.878773411630092 -2.340955981479245 -6.370347390440284 0 0 0
1578 346 4 -6.873107323286918 -1.8437170249806614 -6.42251362073096 0 0 0
505 101 3 -5.315414357363004 -2.667520821161498 -5.16659845335668 0 0 0
2391 617 4 -6.597933596679568 -1.7436739622692656 -6.675943526416022 0 0 0
1507 323 2 -4.537164288329907 -3.4717796320040266 -6.32870333043652 0 0 0
1816 426 2 -3.3816107028210998 -3.4083414716956595 -6.095750821474686 0 0 0
1509 323 4 -4.153379984339566 -3.199103081213489 -6.49709901523707 0 0 0
1817 426 4 -3.8438885117737236 -3.292696807709058 -6.247162640832241 0 0 0
1770 410 4 -2.688979585035566 -2.9954130373354673 -4.795304579096066 0 0 0
1709 390 4 -7.168701892503 -1.5115774517980136 -4.986694302142466 0 0 0
437 88 3 -3.121724226689218 -0.1536017300662767 -6.411074645484487 0 0 0
3617 1026 4 -3.1757787370919033 -0.41085573710035367 -6.114634990973345 0 0 0
3616 1026 2 -3.076117133995881 -0.5452689481707583 -5.64346553784889 0 0 0
3618 1026 4 -2.976455530899859 -0.679682159241163 -5.172296084724435 0 0 0
4224 1228 4 -2.6739167684575857 -0.9166129873576095 -5.227103928175871 0 0 0
2229 563 4 -1.3859991633776658 -0.3890699046761672 -6.501228898347875 0 0 1
2227 563 2 -0.966674844681354 -0.660092652162011 -6.527945673882677 0 0 1
2228 563 4 -0.5473505259850422 -0.9311153996478547 -6.554662449417478 0 0 1
227 46 3 -1.459533286044047 -0.04846138879907291 -6.317372380428162 0 0 1
383 77 3 -0.4299923591245524 -1.2884076295200537 -6.419361716583646 0 0 0
4567 1343 2 -9.81222035734955 -9.715835720946608 -3.7840816518086187 1 1 0
85 17 3 -9.987896997479107 -9.182302770905117 -4.424323244749982 0 0 0
4568 1343 4 -9.881962526645717 -9.32344783308902 -4.086021671157852 1 1 0
2661 707 4 -7.109693909127107 -9.59702600341282 -4.751480156205452 0 1 0
3093 851 4 -7.0416979235710695 -9.285858320314425 -4.490228797579189 0 1 0
3091 851 2 -7.3963127359911995 -8.938772408779132 -4.551708101625408 0 1 0
3092 851 4 -7.750927548411329 -8.591686497243838 -4.613187405671629 0 1 0
100 20 3 -5.7815839213892195 -9.350848425277752 -4.867951047779663 0 0 0
1561 341 2 -5.6221346110164925 -8.358242441799769 -4.986044442357851 0 0 0
96 20 1 -5.5632217632306435 -9.744003394189544 -4.796207488457389 0 0 0
98 20 3 -5.275676946244745 -9.70168278549187 -4.434507413389752 0 0 0
512 103 3 -4.716921399081289 -8.410889224895914 -3.1909142657527747 0 1 0
1689 383 4 -4.278694840463807 -8.421858910986938 -4.216538930564979 0 0 0
1415 292 4 -2.034862348902946 -9.732525405395046 -4.878646084958767 0 0 0
1880 447 4 -3.9932763490234073 -0.8558486115196349 -0.5285523610201766 0 0 0
430 86 3 -0.20467291043628985 -8.692325421170018 -4.416048214197919 0 1 0
3320 927 4 -7.287232773714065 -7.279722206207776 -4.710440164186898 1 0 0
3321 927 4 -7.677679570896315 -8.19909938360913 -4.662514135352336 1 0 0
3319 927 2 -7.48245617230519 -7.739410794908453 -4.686477149769617 1 0 0
1562 341 4 -5.889737069813763 -8.314612867441362 -4.565942806694617 0 0 0
22 5 3 -6.541771649010121 -6.985852933884277 -4.932370250467842 0 0 0
1731 397 4 -6.566729390688717 -6.818580810808672 -4.575256892699335 0 0 0
1446 302 4 -6.074363727727282 -8.084445858807396 -4.316897007855818 0 0 0
1445 302 4 -6.350807870366704 -8.14173100225171 -3.357575868538999 0 0 0
1444 302 2 -6.212585799046993 -8.113088430529553 -3.8372364381974085 0 0 0
515 103 3 -4.563483635705295 -7.70146807198374 -3.3646338114882 0 1 0
514 103 3 -4.388996092967142 -8.251597515617636 -3.8481745984708926 0 1 0
1687 383 2 -4.308253156370502 -8.107950878205624 -4.604595695633702 0 0 0
511 103 1 -4.417903888231844 -8.131455665174295 -3.4009271556108747 0 1 0
1369 277 2 -3.485107222774962 -7.498591593180241 -3.289030789459223 0 0 0
1370 277 4 -3.1639498462189457 -7.155328576534112 -3.4594081379725554 0 0 0
1911 457 4 -1.9622377837934541 -7.1847521113579 -4.082194860717793 0 0 1
1909 457 2 -2.412735852225335 -7.270412071403367 -3.8829114906535436 0 0 1
95 19 3 -1.9257736430028747 -7.336327730798663 -4.469615798120039 0 0 0
1910 457 4 -2.8632339206572155 -7.356072031448834 -3.683628120589294 0 0 1
91 19 1 -1.7163731311403478 -6.995686309860715 -4.687594806221057 0 0 0
1776 412 4 -1.6543433934876774 -6.937260944936656 -4.071027493556403 0 0 0
4370 1277 4 -1.152716157863286 -7.529475269314461 -4.925371867549245 0 1 0
93 19 3 -1.5867832639696164 -6.669488356765071 -4.384112744605406 0 0 0
92 19 3 -1.3420673717339278 -7.158799738347928 -4.899465540212184 0 0 0
1774 412 2 -1.3611484365009558 -6.809888089414749 -3.6865630961495146 0 0 0
1486 316 2 -8.184212216362143 -5.065259190493525 -4.846453987892946 0 0 0
1488 316 4 -7.85733887340282 -5.016310492216478 -4.471276906237717 0 0 0
1393 285 2 -5.4659503986371005 -5.145112866950863 -4.84355146263448 0 0 0
1729 397 2 -6.461984590755935 -6.608030137963169 -4.134012129499394 0 0 0
1730 397 4 -6.357239790823153 -6.397479465117667 -3.6927673662994516 0 0 0
1395 285 4 -5.8816458351457594 -5.054181387343172 -4.581008570742856 0 0 0
7 2 3 -6.379952946628193 -5.29543948436166 -3.623637209030332 0 0 0
9 2 3 -6.308664933834026 -6.0296587961864825 -3.4796232465993366 0 0 0
6 2 1 -6.226958297779424 -5.602689345176233 -3.3173854164593046 0 0 0
10 2 3 -5.779745087672798 -5.542911569823704 -3.2555229700161576 0 0 0
720 144 3 -0.16608076393750276 -6.525784080463916 -3.4196299211745 0 0 0
3870 1110 4 -9.271590961520573 -4.188454286305238 -3.817645395912626 1 0 0
1863 441 4 -6.588905741984837 -4.96906845601105 -3.7977265552087505 0 0 0
1861 441 2 -6.419178823404618 -5.007739268991576 -4.2664453849267545 0 0 0
1862 441 4 -6.249451904824399 -5.046410081972101 -4.735164214644758 0 0 0
1611 357 4 -4.529029101944198 -3.8247021507686236 -3.626445427155133 0 0 0
68 14 3 -4.956334815109909 -4.729991021724978 -3.775404754083614 0 0 0
66 14 1 -4.835096688788383 -4.529151703963407 -3.3750737845507524 0 0 0
69 14 3 -4.554338009278968 -4.168971073927593 -3.45719855320883 0 0 0
240 48 3 -2.2513942877519564 -4.3610910273273005 -4.895229920383965 0 0 0
238 48 3 -2.7212489108658353 -4.77846089452251 -4.480574609196845 0 0 0
236 48 1 -2.4723828129838754 -4.387224477290889 -4.497887354694458 0 0 0
237 48 3 -2.166519586527 -4.390217267128842 -4.154319705009172 0 0 0
1569 343 4 -1.7754519105974933 -4.248870906927435 -4.1598835562753065 0 0 0
239 48 3 -2.7511780228169354 -4.01977883990876 -4.447321214413886 0 0 0
1512 324 4 -2.9896043868774003 -3.7050421449006152 -4.439561249274046 0 0 0
1510 324 2 -2.8771057069242274 -3.414049739639307 -4.048834404676581 0 0 0
1723 395 2 -0.47598190924112405 -4.359600817341237 -4.880161135174977 0 0 0
1725 395 4 -0.8671245814178845 -4.0524711892218335 -4.931918275099386 0 0 0
1567 343 2 -1.4558462288150098 -4.010988199429894 -4.461982920137736 0 0 0
2140 534 2 -0.39188940591239496 -3.857808958295507 -3.717852324301664 0 0 0
1568 343 4 -1.1362405470325263 -3.7731054919323537 -4.764082284000165 0 0 0
78 16 3 -0.9902628858079867 -3.3826716475750067 -3.579616694534934 0 0 0
2142 534 4 -0.5961047434274065 -3.4405735232498973 -3.5328910103297786 0 0 0
2141 534 4 -0.18767406839738332 -4.275044393341116 -3.902813638273549 0 0 0
2653 705 2 -9.72923597147735 -3.095399264403956 -4.349400009810699 0 0 0
2654 705 4 -9.321029839441223 -2.8076643600096 -4.3253921244218505 0 0 0
1573 345 2 -8.747319896219963 -3.0728733488330557 -4.897425878660541 0 0 0
1574 345 4 -9.155484785696578 -2.875445384326017 -4.686656758937348 0 0 0
729 146 3 -8.567629364431905 -1.898427737433589 -3.510107837640615 1 0 0
730 146 3 -9.214212174114884 -2.1494723899870825 -3.8030365877606425 1 0 0
4389 1283 4 -8.310057571987091 -2.0940522368071046 -3.676252021405396 1 0 0
1708 390 2 -7.180483837925837 -1.995958308549997 -4.86325860481579 0 0 0
3454 972 2 -7.660410157321732 -3.1462476026075374 -4.8381228639590015 1 0 0
1710 390 4 -7.192265783348674 -2.4803391653019804 -4.739822907489115 0 0 0
3455 972 4 -7.325486987599405 -2.8248167290114834 -4.652357786825104 1 0 0
4387 1283 2 -7.884185423156989 -1.8331330412851325 -3.6997910583214066 1 0 0
501 101 1 -5.164951773431192 -2.422454910983702 -4.813464327980779 0 0 0
1566 342 4 -5.517870814045617 -2.9778115321205627 -4.330167748875773 0 0 0
504 101 3 -5.2746824330504944 -2.634324798171489 -4.4155066251501305 0 0 0
1564 342 2 -5.803841277212372 -2.925186753278461 -3.9234104172296087 0 0 0
502 101 3 -5.364017921974378 -2.007827404300261 -4.820994215454079 0 0 0
1565 342 4 -6.089811740379128 -2.8725619744363593 -3.516653085583444 0 0 0
503 101 3 -4.705011174713206 -2.3685780651674264 -4.842652187366658 0 0 0
1853 438 4 -4.317066317705569 -2.235364551948369 -4.85471619975636 0 0 1
1609 357 2 -4.659057979196803 -3.374223267552032 -3.452775433038389 0 0 0
1852 438 2 -4.223230387851339 -1.827149454555758 -4.581668122434025 0 0 1
1768 410 2 -2.457784273377162 -2.5524384901459 -4.813256693436881 0 0 0
1769 410 4 -2.2265889617187575 -2.1094639429563324 -4.8312088077776965 0 0 0
1511 324 4 -2.7646070269710545 -3.123057334377999 -3.658107560079116 0 0 0
29 6 3 -3.0463899900023668 -2.8825316966971246 -3.4804473372984095 0 0 0