LAMMPS data file via write_data, version 27 Jun 2024, timestep = 1000000, units = lj

4560 atoms
4 atom types
3060 bonds
1 bond types

-9.998647 9.998647 xlo xhi
-9.998647 9.998647 ylo yhi
-9.998647 9.998647 zlo zhi

Masses

1 1
2 1
3 0.5
4 0.5

Bond Coeffs # zero

1 0

Atoms # bond

3724 1222 2 -9.852785032640398 -9.794167508332862 -8.828531316807933 1 1 0
2379 773 4 -5.7269727145705644 -9.85200845441504 -9.190366355446447 0 1 1
2377 773 2 -5.24257936907197 -9.753350758447958 -9.115334723028063 0 1 1
4430 1457 4 -4.494595128074034 -9.480494586439773 -9.259746058991704 0 1 1
2378 773 4 -4.758186023573376 -9.654693062480876 -9.04030309060968 0 1 1
4429 1457 2 -4.133705671510284 -9.50147618403423 -9.605171264649387 0 1 1
911 284 4 -3.0186465083785063 -9.380390214940189 -9.789093624902124 0 0 1
910 284 2 -2.6178322429711294 -9.386426990587132 -9.490243358069918 0 0 1
912 284 4 -2.2170179775637524 -9.392463766234076 -9.191393091237712 0 0 1
1442 461 4 -1.820000225567362 -9.467920608740583 -9.152311922914098 0 1 0
472 138 2 -1.447483295519356 -8.50795415450067 -9.94221076630462 0 0 0
1441 461 2 -1.5798342728668842 -9.857639980589354 -9.353406742263745 0 1 0
3090 1010 4 -8.306252535879498 -6.863475740865045 -8.421314137045298 1 0 1
2925 955 4 -8.488127873595245 -0.11231228192179815 -7.199362832221549 1 -1 1
3070 1004 2 -9.882317704348347 -6.612043145247954 -9.852234548725994 1 0 1
1045 329 2 -4.5815296737751705 -6.6926890751125905 -9.849486638443823 0 0 1
1047 329 4 -4.712265925990626 -7.145180492774243 -9.681678565637112 0 0 1
3682 1208 2 -1.78465243483409 -7.877702900999014 -9.01632303529444 0 1 0
3684 1208 4 -1.6057562495207274 -7.971690930545353 -9.473665800823943 0 1 0
473 138 4 -1.756344912086269 -8.30710202290855 -9.6041827747911 0 0 0
3683 1208 4 -1.9635486201474526 -7.783714871452675 -8.558980269764936 0 1 0
2195 712 4 -2.2078036395532146 -8.060976660539097 -8.417074394484546 0 1 1
3699 1213 4 -9.576202226378653 -6.419266148043544 -8.426917514082056 1 0 0
3697 1213 2 -9.400652859668082 -5.9665279250734296 -8.546125405218696 1 0 0
2586 842 4 -8.99934237005649 -5.172844906952129 -8.62759633680266 1 0 0
3088 1010 2 -8.062077523763996 -6.428109623471755 -8.45020889927339 1 0 1
3089 1010 4 -7.817902511648495 -5.992743506078465 -8.479103661501481 1 0 1
3426 1122 4 -7.603692837623912 -5.774826067179693 -8.73885981150108 0 0 1
3424 1122 2 -7.128671425541622 -5.930789381396178 -8.744346402614191 0 0 1
3425 1122 4 -6.653650013459332 -6.086752695612662 -8.749832993727303 0 0 1
321 87 4 -6.310519568369837 -6.168279233714336 -8.874365140313156 0 0 0
1627 523 2 -5.401338446201445 -5.413261559227325 -9.70339653123326 0 1 0
1628 523 4 -5.0700299515834315 -5.716751301325295 -9.484014084726523 0 1 0
1977 639 4 -5.035515344410618 -5.800011704383231 -9.088348925998007 0 1 1
319 87 2 -6.04716723546197 -5.971319456979357 -8.497732168973295 0 0 0
2843 928 4 -5.408986607975938 -5.2064926669345954 -8.341959320176857 1 0 0
1975 639 2 -4.850216043955851 -6.038420722891273 -8.689819994620157 0 1 1
4198 1380 2 -2.8122063114169378 -5.184982171893153 -8.727899316409871 0 1 1
4200 1380 4 -2.657213617879342 -5.645162939866476 -8.608689728971413 0 1 1
1382 441 4 -2.474677456721898 -5.991913926976899 -8.725878800625091 0 0 0
364 102 2 -0.6360838977760626 -6.327532335244249 -9.406193232159932 0 0 0
365 102 4 -1.0685702694933032 -6.386313643579832 -9.650120057394881 0 0 0
3566 1169 4 -1.278847249813057 -5.962264676362946 -8.513409057290351 0 1 0
366 102 4 -0.20359752605882148 -6.268751026908666 -9.162266406924983 0 0 0
3565 1169 2 -1.1881106010718767 -5.50962878324902 -8.705470528803948 0 1 0
1545 495 4 -0.26543803852163117 -6.158649376734878 -8.795381447813085 0 1 0
3567 1169 4 -1.0973739523306965 -5.056992890135093 -8.897532000317545 0 1 0
1543 495 2 -0.24390134504699873 -6.248868236298147 -8.304060037519099 0 1 0
552 164 4 -9.384494956510347 -3.4222409838688206 -8.504618269135939 0 0 0
550 164 2 -9.279803445795487 -3.398932935959368 -8.99297922425716 0 0 0
551 164 4 -9.175111935080627 -3.3756248880499156 -9.481340179378382 0 0 0
2343 761 4 -7.503576417903495 -4.742281362545442 -9.419191504868934 0 1 0
2341 761 2 -7.051431663786865 -4.89170709349325 -9.266754395688084 0 1 0
1865 602 4 -7.816604678177458 -4.515035345265694 -9.593204123528642 0 0 1
2342 761 4 -6.5992869096702345 -5.041132824441058 -9.114317286507234 0 1 0
53 11 3 -7.123004628553184 -3.766431948518492 -9.61711022765809 0 0 1
51 11 1 -6.83752919476224 -3.5284173117671545 -9.339346282204549 0 0 1
1629 523 4 -5.732646940819458 -5.109771817129356 -9.922778977739997 0 1 0
3233 1058 4 -5.704047362358904 -4.728345906773716 -9.91325420365715 1 0 1
14 3 3 -5.710132784380843 -4.995463042463495 -8.484200770764774 0 0 0
15 3 3 -6.082336352426877 -4.40917709507359 -8.77511878640953 0 0 0
11 3 1 -6.113525957623756 -4.848814598491153 -8.660462455941708 0 0 0
12 3 3 -6.210787000821796 -5.096686968552493 -9.03556187960977 0 0 0
3819 1253 4 -6.161698068098706 -3.746194335958766 -9.3300406245444 0 0 0
3818 1253 4 -5.3539955138344855 -3.4979420715781115 -8.795262729466318 0 0 0
3817 1253 2 -5.757846790966595 -3.6220682037684386 -9.06265167700536 0 0 0
54 11 3 -6.501533857849953 -3.8067981575120378 -9.181513337939169 0 0 1
332 91 4 -4.997904630164876 -3.6810653245114877 -8.762893147687247 0 0 0
4199 1380 4 -2.9671990049545336 -4.724801403919829 -8.84710890384833 0 1 1
1129 357 2 -0.43362787376954454 -4.0811492303817 -9.759283057029409 0 0 1
1131 357 4 -0.04877790031118545 -4.043860549659243 -9.442265624986627 0 0 1
3653 1198 4 -8.867547286637487 -3.3168474272151234 -9.721911622852137 1 0 0
3652 1198 2 -8.57480714381185 -2.9162149236800046 -9.783529849778905 1 0 0
3654 1198 4 -8.282067000986212 -2.5155824201448858 -9.845148076705673 1 0 0
3939 1293 4 -8.362308211731442 -2.278218570717221 -9.547993406426844 1 0 0
3937 1293 2 -8.310620873990105 -1.8293588725806598 -9.33385935844324 1 0 0
952 298 2 -7.090480953159177 -2.4972185280482466 -8.98795552355964 0 0 1
954 298 4 -7.217653178904083 -2.9806826293770854 -8.978485163196801 0 0 1
55 11 3 -7.07110481680771 -3.353191231399475 -8.989863450659177 0 0 1
953 298 4 -6.963308727414271 -2.013754426719408 -8.997425883922478 0 0 1
2828 923 4 -7.143886187532784 -1.9380544618939324 -8.633494651391551 1 0 0
52 11 3 -6.646334994430951 -3.1864826052474906 -9.58043845179309 0 0 1
1740 560 4 -3.5152386708611707 -1.7791888628270638 -9.829570955743039 0 0 0
736 226 2 -3.387584163508675 -1.8671550182480878 -8.969638720815347 0 0 0
738 226 4 -3.520832972640019 -1.9597384316000939 -9.442579590731798 0 0 0
737 226 4 -3.254335354377331 -1.7745716048960818 -8.496697850898896 0 0 0
3173 1038 4 -0.6880088334307197 -1.5048245242460676 -9.575610360584028 0 0 1
428 123 4 -0.102941741328729 -5.690244346733896 -5.825836288983317 0 0 0
2829 923 4 -6.910677886856213 -1.0109902267704045 -8.339954547742067 1 0 0
3938 1293 4 -8.258933536248769 -1.380499174444099 -9.119725310459636 1 0 0
2827 923 2 -7.027282037194499 -1.4745223443321684 -8.48672459956681 1 0 0
2152 698 2 -6.962537018237117 -0.30770348436071077 -8.887889983883293 0 1 1
100 20 3 -0.02423615959319253 -0.039311938419767434 -7.444595938865515 0 0 1
1744 562 2 -7.076779399743711 -9.98003105879142 -4.039561484926322 0 1 0
2153 698 4 -6.9128003022290585 -0.6439106240308763 -8.521159812891721 0 1 1
2757 899 4 -5.497812409849052 -0.35615007263245496 -8.632459612224821 1 0 0
1697 546 4 -5.4315868425893 -0.6085995027464695 -8.915122068707923 0 0 0
1696 546 2 -5.397140456854196 -0.2652523693229166 -9.276959314551695 0 0 0
1575 505 4 -2.0505778065589286 -0.030825195512195785 -8.85866453050063 0 0 0
687 209 4 -1.8287453644091254 -0.37992673877419575 -9.790291168853742 0 0 0
427 123 2 -0.04839259071900272 -5.335901374195282 -6.174355223877781 0 0 0
3174 1038 4 -1.28684100956166 -1.0095926686266967 -8.946209507382639 0 0 1
3172 1038 2 -0.9874249214961899 -1.2572085964363822 -9.260909933983333 0 0 1
1095 345 4 -7.441662324388262 -8.150905357288394 -9.58004806632997 0 0 0
727 223 2 -8.810196731847322 -8.704894540392377 -6.955213188392122 0 0 1
729 223 4 -8.92765658879555 -9.183879598063415 -7.037532666849974 0 0 1
1407 449 4 -9.266612070718846 -9.362987707798368 -7.022094486952606 0 1 0
1405 449 2 -9.706387168153627 -9.585615827799828 -7.105966913057496 0 1 0
1731 557 4 -8.724158282420031 -9.513943780779707 -7.855906625066184 0 1 0
1729 557 2 -8.263336858923433 -9.676078047934606 -7.749341644604794 0 1 0
1730 557 4 -7.802515435426835 -9.838212315089505 -7.642776664143404 0 1 0
3950 1297 4 -6.057479335576153 -9.826375113336804 -6.403239182721215 1 1 0
3949 1297 2 -5.727187506629953 -9.764987168398783 -6.773561782554874 1 1 0
3951 1297 4 -5.3968956776837524 -9.703599223460762 -7.143884382388533 1 1 0
2433 791 4 -5.286479257313309 -8.783019245783516 -7.879499961805742 1 0 0
2431 791 2 -4.856580159733096 -8.531732038487991 -7.834316941218221 1 0 0
2196 712 4 -1.99583651537027 -8.670958886867176 -7.65353551411919 0 1 1
1514 485 4 -1.980338400828523 -8.683222893326626 -7.277646452179453 0 1 0
2200 714 2 -0.04318875354857565 -9.881286265400906 -8.275137572569854 0 1 1
1091 344 4 -5.369511170230296 -0.644025760476665 -0.1366135750822251 0 0 0
2957 966 4 -1.0922070704630267 -9.815419904145433 -7.0147620171551495 0 0 0
728 223 4 -8.692736874899094 -8.22590948272134 -6.87289370993427 0 0 1
273 71 4 -8.64535580629791 -7.715778108523519 -7.194567079292022 0 0 0
3506 1149 4 -7.661354753602732 -8.078109443719416 -8.155014203343875 1 1 0
3505 1149 2 -7.998504291249747 -7.982978308211832 -7.798250617307658 1 1 0
3507 1149 4 -8.335653828896762 -7.887847172704248 -7.44148703127144 1 1 0
2432 791 4 -4.426681062152883 -8.280444831192467 -7.7891339206307 1 0 0
1602 514 4 -4.280625796738519 -8.049461381740871 -7.478496384407038 0 1 0
1600 514 2 -4.3691674565881975 -7.892876732556763 -7.011975621620458 0 1 0
2194 712 2 -2.1018200774617424 -8.365967773703137 -8.035304954301868 0 1 1
825 255 4 -2.816322247643604 -7.431101432716029 -7.556094473564225 0 0 1
823 255 2 -3.2619816535959187 -7.359596450603466 -7.340978850190764 0 0 1
824 255 4 -3.7076410595482336 -7.2880914684909035 -7.1258632268173026 0 0 1
1513 485 2 -1.5712249282480617 -8.44906479766035 -7.1109246695981465 0 1 0
657 199 4 -0.054347241316059614 -8.27931488266559 -7.472027629581623 0 0 1
1515 485 4 -1.1621114556676004 -8.214906701994074 -6.94420288701684 0 1 0
655 199 2 -0.48760189403457993 -8.105883944432035 -7.292550289615561 0 0 1
656 199 4 -0.9208565467531002 -7.932453006198481 -7.113072949649499 0 0 1
3698 1213 4 -9.22510349295751 -5.513789702103315 -8.665333296355335 1 0 0
320 87 4 -5.783814902554103 -5.774359680244378 -8.121099197633434 0 0 0
425 122 4 -5.771339774960646 -5.912361069399174 -7.7248627642691075 0 0 0
424 122 2 -5.899737323158462 -5.623489787130004 -7.337477359411133 0 0 0
426 122 4 -6.0281348713562775 -5.334618504860834 -6.950091954553158 0 0 0
1976 639 4 -4.664916743501084 -6.2768297413993155 -8.291291063242307 0 1 1
352 98 2 -3.8473892450169194 -6.60090358597973 -8.273479328788074 0 0 0
354 98 4 -3.5882796175847496 -6.218985141923054 -8.465834477045782 0 0 0
623 188 4 -1.9665256341270068 -6.1179439446389114 -7.530819505594835 0 0 0
622 188 2 -2.1626868269555635 -6.4439476193365 -7.206408669598931 0 0 0
1383 441 4 -2.0888401151969 -6.299817070223966 -7.856209208042741 0 0 0
353 98 4 -4.106498872449089 -6.982822030036407 -8.081124180530367 0 0 0
1381 441 2 -2.281758785959399 -6.145865498600433 -8.291044004333916 0 0 0
1544 495 4 -0.22236465157236632 -6.339087095861417 -7.812738627225112 0 1 0
2585 842 4 -8.84093884689718 -4.311356908551453 -8.145157996222858 1 0 0
280 74 2 -9.323174358423456 -3.8480669168650685 -7.788073859378062 0 0 0
281 74 4 -8.861073946531132 -4.016066539323057 -7.878844648638185 0 0 0
2584 842 2 -8.920140608476835 -4.742100907751791 -8.386377166512759 1 0 0
282 74 4 -9.78527477031578 -3.68006729440708 -7.697303070117939 0 0 0
4259 1400 4 -9.91803552283579 -3.870588135039489 -7.359050899967142 1 1 1
2842 928 2 -5.1967255626403235 -4.8725134219658095 -8.036340092111988 1 0 0
13 3 3 -6.452949831919403 -4.907664225953359 -8.349611760421173 0 0 0
2844 928 4 -4.984464517304709 -4.5385341769970236 -7.73072086404712 1 0 0
331 91 2 -4.829096543807891 -3.4405881936435034 -8.358325996882957 0 0 0
333 91 4 -4.660288457450906 -3.200111062775519 -7.953758846078666 0 0 0
682 208 2 -1.9985068160033739 -4.462765765861156 -7.977879974454015 0 0 0
684 208 4 -2.29383201100139 -4.729390807078376 -8.280690338535626 0 0 0
683 208 4 -1.7031816210053576 -4.196140724643936 -7.675069610372403 0 0 0
4140 1360 4 -8.030184731796961 -2.9757309186232286 -7.655067932284257 1 0 1
4138 1360 2 -7.740906620558665 -3.1181320611732444 -7.272916013593602 1 0 1
4139 1360 4 -7.4516285093203685 -3.26053320372326 -6.890764094902948 1 0 1
375 105 4 -4.36361371873629 -3.1538857526327213 -7.688895515104081 0 0 0
373 105 2 -4.540107735513566 -2.830714596094463 -7.350649649462677 0 0 0
374 105 4 -4.716601752290843 -2.507543439556205 -7.012403783821274 0 0 0
1973 638 4 -3.0374236244346258 -1.5073436778840938 -8.287750005547633 0 0 1
2738 893 4 -4.402866449047634 -2.279007561127143 -6.927499367385482 1 0 0
1986 642 4 -0.45482962631629803 -2.0007761017675287 -8.222982435662884 0 1 1
2535 825 4 -9.693760294621224 -1.1139504513372305 -6.826581903503549 1 0 0
666 202 4 -8.703404727832984 -0.3466401326759525 -6.970101759793472 0 0 0
4016 1319 4 -4.5078152704078125 -2.9520442493377965 -9.949800278666805 0 0 0
3467 1136 4 -6.972125895067152 -1.3851549295762577 -6.687290395080858 1 0 0
3466 1136 2 -7.458628327371661 -1.3163404814392583 -6.594662348090691 1 0 0
2755 899 2 -5.45516399132598 -0.3874751281562759 -8.135267643973195 1 0 0
2756 899 4 -5.412515572802908 -0.4188001836800968 -7.63807567572157 1 0 0
1223 388 4 -5.094222147331132 -0.25187236163090687 -7.499388378555063 0 0 1
1150 364 2 -0.04324284069140584 -9.01012738373189 -6.283824717584274 -1 0 1
1222 388 2 -4.630949081570143 -0.18999518784337666 -7.321767203284553 0 0 1
1803 581 4 -3.4164773914448867 -0.5614698514706606 -7.492115642069117 0 0 0
1617 519 4 -3.808568991447507 -0.3422861693900971 -7.1216078805496705 0 0 0
1972 638 2 -2.9610055860101645 -1.4369650256321895 -7.798661947310007 0 0 1
1974 638 4 -2.8845875475857032 -1.3665863733802852 -7.309573889072382 0 0 1
343 95 2 -2.154386114914164 -1.0291190487329276 -7.2452075826799485 0 0 0
345 95 4 -2.654065142167819 -1.0312384120559703 -7.262994601029211 0 0 0
344 95 4 -1.6547070876605094 -1.0269996854098848 -7.227420564330686 0 0 0
1801 581 2 -3.2928127857521385 -0.31177549350244543 -7.907278011387043 0 0 0
3472 1138 2 -1.0532683595996235 -1.388489716942255 -6.99798172673098 0 0 0
1800 580 4 -1.6224158618060414 -0.5021543642197807 -8.126214501294415 0 0 0
3473 1138 4 -1.3272639159634172 -1.195512952148363 -7.369042912174097 0 0 0
1343 428 4 -7.125891699256934 -9.113228046441552 -5.229679484850249 0 1 0
1185 375 4 -6.802153015008681 -9.30685029726853 -5.369444197811275 0 0 1
1183 375 2 -6.533171237652653 -9.43559012614091 -5.770785523757443 0 0 1
1184 375 4 -6.264189460296626 -9.56432995501329 -6.172126849703611 0 0 1
3605 1182 4 -0.2580791519292096 -8.795737128658418 -5.637280941860394 0 1 0
3604 1182 2 -0.4374367225568466 -8.38018492639964 -5.424802168670004 0 1 0
1152 364 4 -0.2642064889031445 -8.641307570973103 -6.028585590713872 -1 0 1
4431 1457 4 -3.7728162149465336 -9.522457781628686 -9.95059647030707 0 1 1
1093 345 2 -7.513370640607875 -7.823805391146031 -9.951347850243831 0 0 0
272 71 4 -7.979794247238694 -7.686729411419787 -6.448789643122751 0 0 0
538 160 2 -9.80656920404425 -7.924724102705629 -5.389847954414906 0 0 0
271 71 2 -8.312575026768302 -7.701253759971653 -6.821678361207387 0 0 0
539 160 4 -9.535431419412195 -7.564117721687003 -5.174331505592196 0 0 0
1284 408 4 -7.80907958913998 -7.730917181880824 -6.105983891679484 0 1 0
1282 408 2 -7.539466228534704 -7.315000545778636 -6.171725716999291 0 1 0
1283 408 4 -7.269852867929428 -6.899083909676448 -6.237467542319099 0 1 0
3513 1151 4 -7.150975953300958 -6.571020540963534 -6.467588496115526 1 1 0
3511 1151 2 -6.677074402626004 -6.552567697723591 -6.309231895860864 1 1 0
2852 931 4 -5.593425056634208 -8.298239109070941 -4.92401755652488 1 0 0
2851 931 2 -5.353725116104948 -7.87707644340501 -5.04716765826906 1 0 0
2853 931 4 -5.114025175575687 -7.455913777739079 -5.17031776001324 1 0 0
2045 662 4 -4.741786762152625 -7.547993299103095 -5.341113277156649 0 1 1
2044 662 2 -4.502615398456935 -7.581248678554693 -5.778938742982196 0 1 1
2046 662 4 -4.263444034761244 -7.614504058006291 -6.216764208807743 0 1 1
1601 514 4 -4.457709116437876 -7.736292083372656 -6.545454858833878 0 1 0
624 188 4 -2.35884801978412 -6.7699512940340885 -6.881997833603027 0 0 0
608 183 4 -2.4993983349667603 -7.752983718020259 -5.516851040705801 0 0 0
607 183 2 -2.3204609590179466 -7.294864420322494 -5.606896165867678 0 0 0
609 183 4 -2.141523583069133 -6.836745122624729 -5.696941291029554 0 0 0
3606 1182 4 -0.6167942931844836 -7.964632724140861 -5.212323395479614 0 1 0
1560 500 4 -5.100138987125837 -5.853329092235456 -6.171224074314791 0 1 0
3512 1151 4 -6.20317285195105 -6.534114854483647 -6.150875295606203 1 1 0
1558 500 2 -5.549504504769061 -6.052896021852772 -6.262018744622186 0 1 0
1559 500 4 -5.998870022412285 -6.252462951470087 -6.352813414929582 0 1 0
2069 670 4 -5.801116178644255 -5.391380644639229 -5.096441630397965 0 0 0
1533 491 4 -5.139451977246723 -6.065080837471732 -5.832422420696066 0 0 0
1532 491 4 -4.562009805298344 -6.357165841034971 -5.0700269270385725 0 0 0
1531 491 2 -4.8507308912725335 -6.211123339253351 -5.451224673867319 0 0 0
2331 757 4 -3.5013667148263017 -5.324443623700247 -5.834265234165568 0 0 1
2330 757 4 -2.819846936544565 -4.643536013998461 -5.566131650180442 0 0 1
2329 757 2 -3.1606068256854334 -4.983989818849354 -5.700198442173005 0 0 1
1258 400 2 -2.2815740822204713 -6.054417284614993 -5.463817952912446 0 0 0
1259 400 4 -2.2192578927571143 -5.576149952266856 -5.331995908703982 0 0 0
1260 400 4 -2.3438902716838284 -6.53268461696313 -5.5956399971209105 0 0 0
1448 463 4 -2.0435071736331127 -5.260451275542168 -5.194422452667861 0 1 0
1431 457 4 -3.3749672143278686 -9.37269414858008 -0.1579085420173329 0 1 0
1232 391 4 -4.904649615423248 -2.8959902407840454 -9.972305027535956 0 0 1
1202 381 4 -1.3811164199844472 -5.723078609381839 -5.424737779712871 0 0 0
1201 381 2 -0.9847121595568045 -5.858879707239409 -5.151934326407924 0 0 0
2882 941 4 -6.6974267691314155 -4.153988320717703 -6.06402161528108 1 0 0
4510 1484 2 -6.72716614908315 -4.502728736295734 -5.526743904055479 1 0 1
2881 941 2 -6.71179373819756 -3.7299661282528898 -6.328594422835178 1 0 0
4512 1484 4 -7.0247645319274685 -4.620137508864017 -5.142490885000845 1 0 1
4511 1484 4 -6.429567766238831 -4.385319963727451 -5.910996923110114 1 0 1
2068 670 2 -5.481907751985106 -5.008435170462425 -5.058248121037154 0 0 0
2070 670 4 -5.162699325325955 -4.625489696285621 -5.020054611676343 0 0 0
330 90 4 -3.8589059441783107 -3.3043186956136847 -6.085582083089347 0 0 0
1447 463 2 -1.6805067064858201 -4.944530370768791 -5.33015985642234 0 1 0
1449 463 4 -1.3175062393385275 -4.628609465995414 -5.46589726017682 0 1 0
371 104 4 -9.126027419777245 -1.750360771179948 -5.275704316600791 0 0 0
2883 941 4 -6.726160707263705 -3.3059439357880764 -6.593167230389277 1 0 0
251 64 4 -6.569926092786334 -2.974381107472844 -6.443135898176037 0 0 0
252 64 4 -6.642418898470286 -2.333117074004936 -5.679247665183543 0 0 0
2235 725 4 -5.68169822808455 -2.3770745474409187 -6.418280538455038 0 0 1
250 64 2 -6.60617249562831 -2.65374909073889 -6.06119178167979 0 0 0
2233 725 2 -5.320901659090572 -2.7062977699918433 -6.3113323943132285 0 0 1
840 260 4 -3.5474998494539354 -3.531551560592 -5.992263203940736 0 0 1
2737 893 2 -4.239639852319314 -1.9912752390335922 -6.5525764567182945 1 0 0
2234 725 4 -4.960105090096593 -3.035520992542768 -6.204384250171419 0 0 1
328 90 2 -4.298117184284959 -3.077064421577359 -6.0117648662883605 0 0 0
329 90 4 -4.737328424391608 -2.849810147541033 -5.937947649487374 0 0 0
2855 932 4 -2.4240089486634835 -2.899474724873038 -6.539654527352921 0 0 0
839 260 4 -2.779937849957389 -3.0676681055832127 -6.434598729416212 0 0 1
2854 932 2 -2.093722597036418 -2.5663802084226557 -6.36656793330388 0 0 0
838 260 2 -3.163718849705662 -3.2996098330876062 -6.213430966678474 0 0 1
78 16 3 -2.9596232897625065 -1.9649501157051095 -5.143488783502793 0 0 0
77 16 3 -3.262417673039184 -2.652669580697492 -5.127442010397937 0 0 0
2553 831 4 -2.564583050307378 -1.8908978801434166 -5.211207244057588 0 0 0
2245 729 2 -3.3753007504353794 -3.3641215718619666 -5.120095437945142 0 0 1
2246 729 4 -3.3882903875364083 -2.930878786675601 -5.369358267929614 0 0 1
2856 932 4 -1.7634362454093526 -2.2332856919722732 -6.19348133925484 0 0 0
1482 474 4 -0.8798207533134956 -1.6966516469952069 -6.253154533497832 0 0 0
1481 474 4 -0.24029287226214696 -2.464016324992895 -6.299582330335379 0 0 0
1480 474 2 -0.5600568127878214 -2.080333985994051 -6.276368431916605 0 0 0
1690 544 2 -9.090909667515893 -1.505671147420353 -6.042576715105693 0 0 0
1692 544 4 -9.178052379416844 -1.203857563181414 -6.431568627786774 0 0 0
1691 544 4 -9.003766955614942 -1.8074847316592921 -5.653584802424613 0 0 0
603 181 4 -9.872229362743921 -5.513180560390365 -4.878045981137808 0 0 0
2359 767 2 -9.016544611753671 -1.4191797976376568 -0.07524029798000699 1 0 0
2394 778 4 -9.79541794930882 -0.6557586107769029 -6.230673410637648 0 0 0
664 202 2 -8.330856761066642 -0.6723218069184376 -6.8984117359345145 0 0 0
665 202 4 -7.958308794300298 -0.9980034811609226 -6.826721712075557 0 0 0
3468 1136 4 -7.945130759676171 -1.2475260333022589 -6.502034301100524 1 0 0
2739 893 4 -4.076413255590994 -1.7035429169400413 -6.177653546051107 1 0 0
712 218 2 -4.096659287992205 -0.6768199042077987 -4.972967618264931 0 0 1
714 218 4 -4.190052259966385 -1.056995697459184 -4.6619304516571995 0 0 1
713 218 4 -4.003266316018024 -0.2966441109564127 -5.284004784872662 0 0 1
2552 831 4 -1.9250021483271327 -1.1516567981333161 -5.422060018501223 0 0 0
2551 831 2 -2.2447925993172553 -1.5212773391383663 -5.316633631279406 0 0 0
3474 1138 4 -0.7792728032358298 -1.581466481736147 -6.626920541287863 0 0 0
4145 1362 4 -1.0781994764481693 -1.1814703160331743 -5.9587256422326735 0 0 0
4144 1362 2 -1.3396754150785382 -0.7623132071484495 -5.881669483563897 0 0 0
4146 1362 4 -1.601151353708907 -0.3431560982637246 -5.80461332489512 0 0 0
1709 550 4 -9.384698037981796 -9.328737022540405 -4.171220105782824 0 1 0
1708 550 2 -9.851012859543236 -9.437155003690597 -4.315428387637269 0 1 0
639 193 4 -7.715326970501476 -9.773067690316678 -4.614275119042324 0 0 0
637 193 2 -7.966413107890279 -9.393361087380816 -4.407445122915294 0 0 0
2175 705 4 -7.88999575619799 -8.780170741973544 -4.294607208068163 0 1 1
638 193 4 -8.217499245279082 -9.013654484444954 -4.200615126788264 0 0 0
1745 562 4 -7.453579858076448 -9.88571275792162 -4.354403465483645 0 1 0
1342 428 2 -7.005647865170091 -8.909600418473646 -4.789137535096968 0 1 0
1344 428 4 -6.885404031083247 -8.70597279050574 -4.348595585343687 0 1 0
395 112 4 -5.5274574859637955 -9.537654138401988 -4.807683589834687 0 0 0
2801 914 4 -6.373118251990358 -9.423575563905837 -3.4094569672065536 1 0 0
2461 801 2 -1.5688608477893566 -7.654784850982175 -0.21944708057189677 0 0 0
1031 324 4 -4.167103661550447 -9.605317662616422 -3.483733021119578 0 0 1
1064 335 4 -0.1625649438230932 -9.519442420662765 -3.445213358827847 0 0 0
64 13 3 -0.37483569987369325 -9.181208880718513 -3.358643867289102 0 1 0
2174 705 4 -8.308629787977477 -7.8778880076387825 -4.191498455981822 0 1 1
2173 705 2 -8.099312772087734 -8.329029374806163 -4.2430528320249925 0 1 1
770 237 4 -5.670537733148381 -7.2084958234740775 -3.4051741937630458 0 0 1
2890 944 2 -2.4592934537256923 -6.5458102468190456 -3.8442139890792193 0 0 0
356 99 4 -3.0443430794967425 -6.854222525334465 -2.9912798208798357 0 0 0
2891 944 4 -2.635479844852092 -6.474185702783375 -4.306629689800641 0 0 0
4190 1377 4 -8.716774721810829 -4.684746960768691 -3.438811262449196 1 0 0
842 261 4 -6.235076962373871 -5.712870712407136 -3.4034226967190744 0 0 1
841 261 2 -6.135488229105943 -5.356503645272408 -3.739703230898367 0 0 1
843 261 4 -6.035899495838015 -5.00013657813768 -4.07598376507766 0 0 1
2892 944 4 -2.2831070625992926 -6.617434790854716 -3.381798288357798 0 0 0
681 207 4 -2.5135289763867164 -5.867784280374058 -2.9100625122637274 0 0 0
1203 381 4 -0.5883078991291618 -5.994680805096979 -4.8791308731029766 0 0 0
1123 355 2 -9.639809313162056 -3.513745432587993 -4.163835349674221 0 0 0
4189 1377 2 -9.037882761832133 -4.434081899225044 -3.7287365175666043 1 0 0
4191 1377 4 -9.358990801853437 -4.1834168376813965 -4.018661772684013 1 0 0
1125 355 4 -9.658607053739987 -4.013255405310001 -4.1755157649210695 0 0 0
1166 369 4 -7.493409440615131 -3.834730392341068 -3.0819614020786803 0 0 0
1239 393 4 -4.781311248039312 -3.717027761848219 -4.093720675853943 0 0 0
1237 393 2 -4.883157391828068 -3.9363496227907886 -3.6560846577887403 0 0 0
1106 349 4 -3.17452656860246 -4.039086279314735 -4.575638436106448 0 0 0
2247 729 4 -3.3623111133343504 -3.797364357048332 -4.870832607960671 0 0 1
1105 349 2 -2.950406863369193 -4.484717887442516 -4.61003069633284 0 0 0
1107 349 4 -2.7262871581359263 -4.9303494955702964 -4.644422956559232 0 0 0
2102 681 4 -1.3913915216997077 -4.333052223041751 -4.496212850253339 0 0 0
2101 681 2 -1.5612918329135783 -3.881718022782986 -4.628240589483271 0 0 0
2103 681 4 -1.731192144127449 -3.4303838225242216 -4.760268328713203 0 0 0
1124 355 4 -9.621011572584125 -3.014235459865985 -4.152154934427372 0 0 0
806 249 4 -2.088436388191188 -3.0393933433331357 -0.10363003414255416 0 0 0
2938 960 2 -3.550604339653425 -2.2294046798461014 -3.6758958300125335 1 0 0
2940 960 4 -3.549082416116586 -2.0489570418604233 -4.142196520226573 1 0 0
80 16 3 -2.593907987797827 -2.5362486764562613 -4.81673157640104 0 0 0
3350 1097 4 -2.199027417226599 -2.502527941251518 -4.715873813206629 0 0 0
3349 1097 2 -1.8311395069551233 -2.827886273033153 -4.8096844811309145 0 0 0
76 16 1 -3.003805138009171 -2.3530487713997528 -4.89303440096244 0 0 0
79 16 3 -3.212464938085581 -2.258307595969539 -4.489567924647093 0 0 0
1748 563 4 -1.7103850109006709 -2.7615699292377993 -3.2729261245646 0 0 0
3351 1097 4 -1.4632515966836477 -3.153244604814788 -4.9034951490552 0 0 0
1747 563 2 -1.4187097282932517 -2.5890157500198567 -3.6405544487593406 0 0 0
1749 563 4 -1.127034445685832 -2.416461570801914 -4.008182772954082 0 0 0
370 104 2 -9.05510033843449 -1.402207341059483 -4.923910999114896 0 0 0
372 104 4 -8.984173257091737 -1.0540539109390181 -4.572117681629001 0 0 0
632 191 4 -7.171107917261622 -0.8238423111421884 -4.276613620157442 0 -1 0
631 191 2 -7.302730477804421 -0.9425969734446955 -3.8090958860150224 0 -1 0
633 191 4 -7.43435303834722 -1.0613516357472026 -3.341578151872602 0 -1 0
2986 976 2 -3.4394480866614736 -0.3350386509360862 -3.5634106419699405 1 0 0
2988 976 4 -3.6230730054525058 -0.0040651428950843616 -3.8901191147309047 1 0 0
2987 976 4 -3.2558231678704415 -0.6660121589770882 -3.2367021692089764 1 0 0
326 89 4 -9.833235691972384 -9.244277000537343 -3.152666234075849 0 0 0
3484 1142 2 -9.36109930567839 -8.93089646187276 -2.489276307188834 0 1 0
3485 1142 4 -9.60132865412954 -9.164349079808009 -2.860476704982192 0 1 0
3486 1142 4 -9.12086995722724 -8.69744384393751 -2.1180759093954764 0 1 0
3077 1006 4 -9.010783268452128 -8.471781017009041 -1.7974122237194663 1 0 0
196 46 2 -7.3392973827612815 -8.747743791734953 -2.4231170190331666 0 0 0
198 46 4 -7.713175471404529 -8.997337330087174 -2.642019372710244 0 0 0
2198 713 4 -7.921811664694466 -9.285296088232153 -2.4377378583387577 0 1 1
2197 713 2 -8.10066276853148 -9.615333612149668 -2.768021850477027 0 1 1
197 46 4 -6.965419294118034 -8.498150253382732 -2.2042146653560892 0 0 0
1092 344 4 -4.998681311621888 -1.3441330397340046 -0.7468061786880682 0 0 0
2800 914 2 -6.407452013832909 -9.762147119858696 -3.0431367598778345 1 0 0
62 13 3 -0.7350760028859039 -8.773654150917064 -2.8399666398132606 0 1 0
63 13 3 -1.1259246151491324 -9.252754672206427 -3.267283913969193 0 1 0
677 206 4 -0.8514898668918869 -9.833763745476677 -2.6146048837734894 0 0 0
65 13 3 -0.6529385299727705 -9.508725036641163 -2.7403462176894777 0 1 0
61 13 1 -0.7217464934940164 -9.182429379083924 -3.0505019979279027 0 1 0
3076 1006 2 -8.594709511411445 -8.211263838421841 -1.7024731466075316 1 0 0
765 235 4 -7.00566189617738 -8.247535034723104 -1.893183459297093 0 0 0
1938 626 4 -6.751425083364768 -7.348874289090374 -1.9128189356775145 0 1 0
1250 397 4 -7.057987263887327 -7.258101951756864 -1.675719547939317 0 1 0
1249 397 2 -7.529039320779087 -7.42545947762761 -1.685790209907274 0 1 0
3078 1006 4 -8.178635754370761 -7.95074665983464 -1.6075340694955969 1 0 0
1251 397 4 -8.000091377670847 -7.592817003498356 -1.6958608718752308 0 1 0
1936 626 2 -6.2764359443667725 -7.1965726262554 -1.8783294977062561 0 1 0
769 237 2 -5.320962763571515 -7.357773482525129 -3.080345744957342 0 0 1
1880 607 4 -5.314935254256079 -7.315364262327476 -2.0740246479735758 0 0 0
1937 626 4 -5.801446805368777 -7.044270963420426 -1.8438400597349978 0 1 0
1879 607 2 -5.018710455696558 -6.91401929478524 -2.108274987343459 0 0 0
963 301 4 -5.705146066405245 -6.684757145687142 -1.731283166443418 0 0 0
771 237 4 -4.97138779399465 -7.50705114157618 -2.7555172961516385 0 0 1
357 99 4 -2.8084911009895794 -7.719796882521162 -3.4330431923988916 0 0 0
355 99 2 -2.926417090243161 -7.287009703927813 -3.2121615066393634 0 0 0
369 103 4 -2.108552098419549 -7.0893674617092515 -1.8123000406181968 0 0 0
367 103 2 -2.585511232049975 -6.9562403882015245 -1.7431106834476588 0 0 0
3657 1199 4 -8.619666424144647 -4.991889210947224 -3.2124385236480046 0 1 0
3655 1199 2 -8.18506174371786 -5.1898153963881155 -3.0643034607222273 0 1 0
3656 1199 4 -7.750457063291072 -5.387741581829008 -2.91616839779645 0 1 0