LAMMPS data file via write_data, version 27 Jun 2024, timestep = 6000000, units = lj

4560 atoms
4 atom types
3060 bonds
1 bond types

-9.998647 9.998647 xlo xhi
-9.998647 9.998647 ylo yhi
-9.998647 9.998647 zlo zhi

Masses

1 1
2 1
3 0.5
4 0.5

Bond Coeffs # zero

1 0

Atoms # bond

3639 1193 4 -8.19439916252683 -8.33693879776694 -8.407631600151218 1 1 1
3637 1193 2 -8.300797137516794 -8.373347660999192 -8.89482136358676 1 1 1
2888 943 4 -7.434838142127706 -9.285072915494123 -9.199295733652727 1 1 0
2887 943 2 -7.384229469274858 -9.679829973078018 -9.501959949772367 1 1 0
2507 816 4 -8.221066029823206 -8.3136973115294 -9.741211619049235 0 0 1
2987 976 4 -9.947717278123351 -6.206950694429308 -1.0064057476086674 2 0 0
1185 375 4 -4.46287815590278 -9.551744146252881 -8.681277755926796 0 0 1
1183 375 2 -4.491968588616425 -9.056710318068312 -8.745271940641102 0 0 1
1184 375 4 -4.521059021330069 -8.561676489883743 -8.809266125355407 0 0 1
4313 1418 4 -4.3581096564991055 -9.712181937019778 -9.054277605392413 1 1 1
1111 351 2 -1.7018619494623135 -8.73610972793921 -9.461248032406205 0 1 0
1113 351 4 -2.1307259345981477 -8.56544706362303 -9.653471697082981 0 1 0
2213 718 4 -1.0897105129678244 -8.874295767230441 -8.916229731206116 -1 1 0
1112 351 4 -1.2729979643264793 -8.906772392255391 -9.269024367729429 0 1 0
2212 718 2 -1.0806588188133475 -9.138636375273071 -8.491916038553502 -1 1 0
2117 686 4 -8.57955818697602 -7.219956658994326 -9.79591176832812 0 1 0
3638 1193 4 -8.407195112506757 -8.409756524231444 -9.3820111270223 1 1 1
3162 1034 4 -5.274299907983145 -8.162192626148082 -8.658147756857549 0 0 0
4140 1360 4 -5.145003533051087 -8.168055813430525 -9.040142732102316 1 0 1
4139 1360 4 -5.446202831822061 -7.7727983686041755 -9.907927575672263 1 0 1
4138 1360 2 -5.295603182436574 -7.97042709101735 -9.47403515388729 1 0 1
2450 797 4 -4.239092327434446 -8.299713473901555 -8.743731606524975 1 1 0
2449 797 2 -3.8018367237337665 -8.084744921939881 -8.631499442243765 1 1 0
2940 960 4 -2.073278186014109 -8.042713031705418 -8.868030434756346 1 0 0
2938 960 2 -2.5289278874842274 -7.891783878387712 -8.728017077432671 1 0 0
2939 960 4 -2.9845775889543456 -7.740854725070007 -8.588003720108997 1 0 0
865 269 2 -0.35686621166098303 -6.735898274104847 -8.632739669076958 -1 0 0
866 269 4 -0.765364514977656 -6.898264078865508 -8.870996844481114 -1 0 0
631 191 2 -9.104199760757405 -6.73192275036993 -9.959726625223729 0 -1 0
633 191 4 -9.503303853176654 -6.477300489961454 -9.798843351017348 0 -1 0
4278 1406 4 -8.437017759314166 -5.752072875537373 -9.462427513552896 0 0 2
4276 1406 2 -8.618646439242081 -5.328114644013506 -9.655483051030686 0 0 2
3906 1282 4 -9.656153663352013 -6.163206768328523 -9.658152460311877 1 1 1
4277 1406 4 -8.800275119169996 -4.904156412489638 -9.848538588508475 0 0 2
3422 1121 4 -6.618411493521922 -5.949393535348496 -9.416367213948037 0 1 1
3421 1121 2 -7.02953545249004 -6.064482462049021 -9.156114203757332 0 1 1
3423 1121 4 -7.440659411458158 -6.1795713887495465 -8.895861193566626 0 1 1
4388 1443 4 -7.622902974063233 -5.156359748344277 -8.177596924095129 1 0 2
313 85 2 -5.01574874440066 -6.338852444616826 -9.789767974185505 -1 0 0
315 85 4 -5.306410338872588 -6.35732067856784 -9.383350993937835 -1 0 0
1589 510 4 -4.465645702525433 -6.195258852710956 -8.668977653565742 0 0 1
1588 510 2 -4.431392716859532 -5.826285091613492 -9.004663662500493 0 0 1
1590 510 4 -4.397139731193632 -5.457311330516029 -9.340349671435243 0 0 1
2864 935 4 -3.9130413488416056 -5.571059501886145 -8.383835867378629 1 0 1
1919 620 4 -4.5196232836626296 -5.069981104087167 -9.374213042895486 -1 1 0
4323 1421 4 -2.1782903449533224 -5.649153049957142 -9.480300949348814 0 1 1
4321 1421 2 -1.8432852219909035 -5.478329945348935 -9.809832487324186 0 1 1
1961 634 4 -8.56418445177808 -4.510632155414706 -9.178351944647655 1 1 1
1742 561 4 -9.474083966843603 -4.066907356905937 -9.591574122586474 0 1 0
1962 634 4 -9.409792531345543 -3.977962701748771 -9.213140288981798 1 1 1
1960 634 2 -8.986988491561812 -4.2442974285817385 -9.195746116814727 1 1 1
1741 561 2 -9.919804262723734 -3.843808076166256 -9.631072588047667 0 1 0
882 274 4 -8.975799806542186 -3.5971192542625507 -8.673150863308285 1 0 1
438 126 4 -6.575091406358303 -3.478655958837973 -9.796760790262423 1 1 0
154 32 2 -5.862124662278757 -3.7274507763884728 -9.521860730103976 1 0 0
155 32 4 -5.439080475026962 -3.692343002901813 -9.257661827998476 1 0 0
156 32 4 -6.285168849530551 -3.7625585498751324 -9.786059632209476 1 0 0
1025 322 4 -5.186326826954138 -3.451396267128863 -9.46017242243586 1 -1 1
1918 620 2 -4.389271488290185 -4.592286415613037 -9.443611847255227 -1 1 0
534 158 4 -4.017981908737185 -4.013836365454215 -9.188595971913465 0 0 0
1920 620 4 -4.258919692917741 -4.114591727138907 -9.513010651614968 -1 1 0
532 158 2 -3.9884468493332363 -3.5397950586394065 -9.03235090895411 0 0 0
3883 1275 2 -1.7920455288222532 -3.8077286261294505 -9.455731688278 0 0 1
3885 1275 4 -2.1142769487702067 -3.53727217771895 -9.725954228995064 0 0 1
2841 927 4 -3.281971494400431 -3.5692118466775176 -9.790196286409447 1 0 0
2839 927 2 -2.9370930632242027 -3.362995874429973 -9.492649919435594 1 0 0
3884 1275 4 -1.4698141088743 -4.078185074539951 -9.185509147560936 0 0 1
4231 1391 2 -0.7932760546435464 -0.02680472262607786 -0.7369339578461315 0 0 0
746 229 4 -9.31127903458106 -2.752652386944538 -9.572755075346455 0 -1 1
881 274 4 -9.141414778382847 -2.78454151181119 -9.231979185402151 1 0 1
880 274 2 -9.058607292462517 -3.1908303830368703 -8.952565024355218 1 0 1
3540 1160 4 -6.939881077258569 -1.9338677632106267 -8.386107089605229 0 1 0
44 9 3 -5.563015640072416 -2.201056190857165 -9.033323096532685 0 0 0
2792 911 4 -5.900775442576695 -2.317125607093482 -9.204360978655918 1 0 0
2791 911 2 -5.861979963418644 -2.2397235966523317 -9.696807767229604 1 0 0
1024 322 2 -5.019406884127916 -3.0643935039227657 -9.19116202494516 1 -1 1
41 9 1 -5.225961836329055 -2.0904746952145334 -8.734213641309896 0 0 0
1026 322 4 -4.852486941301693 -2.6773907407166684 -8.922151627454461 1 -1 1
42 9 3 -4.827055850478264 -2.2570572286126707 -8.89145318474337 0 0 0
2323 755 2 -3.4569549244306756 -2.2739225661333005 -9.934444121517615 0 1 1
3356 1099 4 -3.968115254684296 -2.8166587200301034 -8.57398916873129 1 -1 1
533 158 4 -3.958911789929288 -3.065753751824598 -8.876105845994754 0 0 0
3355 1099 2 -3.8490953803006867 -2.363163493667339 -8.747702579748898 1 -1 1
3357 1099 4 -3.7300755059170774 -1.9096682673045748 -8.921415990766507 1 -1 1
2840 927 4 -2.5922146320479746 -3.1567799021824285 -9.195103552461742 1 0 0
2324 755 4 -2.9919351193856336 -2.21474207605359 -9.760506631280698 0 1 1
744 228 4 -0.793502544927678 -2.981273668096226 -8.628479833762691 -1 0 1
742 228 2 -0.3305278565190543 -2.8020377890807278 -8.56907497229369 -1 0 1
1435 459 2 -0.5673975407297058 -0.5385620816600716 -1.7323377394107737 0 0 -1
1839 593 4 -7.042943278881012 -0.4701288092156481 -9.44497779500465 0 -1 1
1837 593 2 -6.8905801950848415 -0.0548741106761167 -9.21184901935193 0 -1 1
1067 336 4 -5.638491475852187 -1.2348966645147366 -9.600690743068144 0 0 1
43 9 3 -5.191826134898246 -1.6291872781739347 -8.697489360950133 0 0 0
4234 1392 2 -3.6719117116398845 -0.3279727984862519 -8.901129818393233 1 -1 0
4236 1392 4 -4.157024481467251 -0.21296057873344104 -8.863211618826673 1 -1 0
1611 517 4 -1.9954874711628077 -1.4675615470814736 -9.826857080085722 0 0 0
1609 517 2 -1.9617759509859805 -1.3943724287237524 -9.333392910807243 0 0 0
1610 517 4 -1.9280644308091532 -1.3211833103660309 -8.839928741528766 0 0 0
3174 1038 4 -1.771782570953468 -1.324340596661002 -8.455736075940049 0 0 1
4513 1485 2 -9.784177634826865 -8.58718049884719 -8.033009811831466 0 1 1
2244 728 4 -8.042909033744035 -8.713261132819472 -8.351985385663752 1 1 1
525 155 4 -7.13337756854219 -9.612280073267353 -7.949061362316983 -1 0 0
2242 728 2 -7.6416873191981445 -8.976227269672236 -8.211024587406165 1 1 1
2243 728 4 -7.240465604652254 -9.239193406525 -8.070063789148577 1 1 1
2470 804 2 -7.203051385568054 -8.671117635031608 -6.702723814386161 2 -1 1
3160 1034 2 -5.351424040385976 -8.493783091666726 -8.291951591697051 0 0 0
3161 1034 4 -5.428548172788807 -8.82537355718537 -7.925755426536555 0 0 0
3818 1253 4 -5.531243467820431 -8.922896045581611 -7.21663630526544 0 0 0
1163 368 4 -6.01642265812206 -9.522674833317954 -7.867808496173102 0 0 0
3817 1253 2 -5.141733583582027 -8.644386647668217 -7.072710750362945 0 0 0
3819 1253 4 -4.752223699343622 -8.36587724975482 -6.92878519546045 0 0 0
1066 336 2 -5.549478001176437 -0.8835385578614495 -9.945109212687617 0 0 1
977 306 4 -0.28702087445919977 -0.5660018234107536 -7.776786098534906 0 0 1
2214 718 4 -1.0716071246588705 -9.402976983315702 -8.067602345900887 -1 1 0
1722 554 4 -8.688459280766162 -7.80688597353209 -8.055814804748739 1 1 0
1720 554 2 -8.96987452636117 -7.4504212843152215 -7.8466775653861 1 1 0
1721 554 4 -9.251289771956179 -7.093956595098353 -7.637540326023462 1 1 0
626 189 4 -9.57499029967898 -6.90799073632766 -7.71630495152335 0 0 0
4515 1485 4 -9.587332978359644 -8.167626157915311 -8.220696615377426 0 1 1
4338 1426 4 -7.330722995486128 -7.638627575857971 -7.901264691643686 1 1 0
4336 1426 2 -7.128755919779797 -7.823493999885367 -7.482894394421793 1 1 0
4337 1426 4 -6.9267888440734655 -8.008360423912764 -7.0645240971999 1 1 0
2471 804 4 -6.923343277497758 -8.268415988165865 -6.800676649419424 2 -1 1
815 252 4 -4.682757146020994 -8.377584064729795 -7.322493064243618 0 0 0
3050 997 4 -4.560583398333 -7.269100511275814 -7.516622959110626 1 0 0
3049 997 2 -4.710164518251594 -6.916818045193034 -7.194873751411918 1 0 0
814 252 2 -4.336273898283754 -8.081308982216598 -7.527847476223138 0 0 0
816 252 4 -3.9897906505465146 -7.785033899703399 -7.733201888202657 0 0 0
2451 797 4 -3.364581120033087 -7.869776369978208 -8.519267277962555 1 1 0
255 65 4 -3.0964637266862547 -6.868800682985623 -7.592357545807069 0 -1 1
3961 1301 2 -0.00946054355090626 -7.02436083457582 -7.306885436995381 0 1 1
3962 1301 4 -0.1374637793690789 -6.693936381831989 -6.954132190874525 0 1 1
2506 816 2 -8.230408098484505 -8.748360716539564 -9.988153818962683 0 0 1
625 189 2 -9.841185088901154 -6.612359518869974 -7.413414678560826 0 0 0
3648 1196 4 -7.962698774719936 -5.063478979215527 -8.394031130132197 1 1 1
4387 1443 2 -7.30711039503495 -5.482772370335601 -7.968480097332597 1 0 2
4389 1443 4 -6.991317816006667 -5.809184992326925 -7.759363270570065 1 0 2
2705 882 4 -6.684043062328187 -6.0158582717724105 -7.61614775984969 1 0 0
2704 882 2 -6.3138659882572945 -5.786398175570222 -7.370552568359667 1 0 0
2706 882 4 -5.943688914186401 -5.556938079368033 -7.124957376869643 1 0 0
132 27 3 -5.5310352186028355 -5.658670181393872 -7.094813888297154 0 1 1
131 27 1 -5.0951366081895975 -5.791151983590027 -7.158382540372235 0 1 1
3051 997 4 -4.859745638170189 -6.564535579110255 -6.873124543713209 1 0 0
135 27 3 -5.020865654206825 -5.854142759604315 -7.603260037590943 0 1 1
134 27 3 -5.023806986834477 -6.187705962239189 -6.928258601733009 0 1 1
2863 935 2 -3.4859374884558503 -5.590432951528486 -8.124592811749057 1 0 1
133 27 3 -4.812736260159136 -5.460748755006378 -6.995951785975938 0 1 1
253 65 2 -2.9507013294918027 -6.5056032137062 -7.281164805093666 0 -1 1
2865 935 4 -3.058833628070095 -5.609806401170826 -7.865349756119487 1 0 1
254 65 4 -2.8049389322973504 -6.142405744426778 -6.969972064380264 0 -1 1
3329 1090 4 -2.5478161702093085 -6.208305712179302 -6.66531101240378 1 0 0
3354 1098 4 -8.084944397719143 -4.18077904286257 -7.516041252822348 1 0 1
3646 1196 2 -8.105904730313451 -4.660958455677118 -8.134282631747638 1 1 1
3352 1098 2 -8.091649074776607 -4.2755082482377205 -7.025142663545193 1 0 1
3647 1196 4 -8.249110685906967 -4.258437932138709 -7.874534133363079 1 1 1
2859 933 4 -6.632738403291703 -3.3212032483247658 -6.930785542313134 1 0 0
3120 1020 4 -6.384199382355053 -3.6475264827575735 -6.949379618972142 0 0 1
4169 1370 4 -4.394292717189435 -3.366071729763374 -6.821833512620521 0 0 0
1343 428 4 -0.7244134906346424 -4.297687958312059 -7.666274414097838 0 1 0
1342 428 2 -0.2923519007218913 -4.429206682811849 -7.45173861841702 0 1 0
2857 933 2 -7.119142731010777 -3.205573013013372 -6.937147826346916 1 0 0
2858 933 4 -7.605547058729852 -3.089942777701978 -6.943510110380696 1 0 0
1607 516 4 -7.952263241878693 -3.0884609818161453 -6.741685752984053 -1 1 0
45 9 3 -5.314249714804755 -2.272717962209993 -8.326301099030083 0 0 0
3539 1160 4 -6.120670813483267 -1.9443764132144905 -7.812710096238426 0 1 0
3538 1160 2 -6.530275945370918 -1.9391220882125586 -8.099408592921828 0 1 0
3288 1076 4 -4.224267156351853 -2.0360682298868356 -7.206887811113882 0 0 1
3286 1076 2 -3.8898972967479604 -2.406302553258727 -7.240404117373364 0 0 1
3287 1076 4 -3.5555274371440686 -2.7765368766306184 -7.273920423632846 0 0 1
2860 934 2 -4.6787899374862185 -4.256672194070134 -0.1368873472767917 0 0 1
4164 1368 4 -0.2379018758175807 -2.075630857751191 -7.397125407349923 0 -1 0
4163 1368 4 -0.8999188980931355 -2.156708662549758 -8.142215906408712 0 -1 0
4162 1368 2 -0.5689103869553581 -2.1161697601504743 -7.769670656879317 0 -1 0
3036 992 4 -9.69106096122288 -1.0361354118991608 -6.976558748933508 0 -1 0
3235 1059 2 -9.874746305646799 -1.2000382349410896 -7.514547109382053 1 0 1
3237 1059 4 -9.730589809238161 -1.5295654240480312 -7.861866467010166 1 0 1
972 304 4 -6.832119213183191 -0.22637835114301624 -6.603664845638085 1 0 0
970 304 2 -6.62688698601946 -0.08190221982828393 -7.0361071890940075 1 0 0
1596 512 4 -2.98935935891268 -0.2865310986962419 -7.050108367173185 0 1 -1
2232 724 4 -9.997505801633814 -9.899055722240735 -1.1334727692090527 0 1 0
3172 1038 2 -1.4227132789114467 -1.5848236388326127 -8.210177093016737 0 0 1
3173 1038 4 -1.0736439868694254 -1.8453066810042233 -7.964618110093426 0 0 1
3608 1183 4 -1.2714484594468378 -0.3127555960326791 -7.434811573308581 1 1 0
3607 1183 2 -1.3166027037650658 -0.29492243461261974 -6.937174082183046 1 1 0
2472 804 4 -7.48275949363835 -9.073819281897352 -6.604770979352898 2 -1 1
614 185 4 -7.524169059435714 -9.249201264063691 -6.226319765765625 0 1 0
615 185 4 -7.5883669579836965 -9.507413590539974 -5.262366953497805 0 1 0
613 185 2 -7.556268008709705 -9.378307427301833 -5.744343359631715 0 1 0
3553 1165 2 -6.111278503393461 -9.597542448523374 -6.538738308463041 0 0 0
4000 1314 2 -5.857381701524649 -9.61039897211321 -5.287373535731788 0 1 -1
4001 1314 4 -5.575017014171867 -9.198242297582633 -5.267447196997234 0 1 -1
3554 1165 4 -6.196187948560282 -9.140350576094425 -6.354983096545561 0 0 0
3386 1109 4 -5.534938873193931 -8.836860894875121 -5.490166876341153 1 0 0
3385 1109 2 -5.168839331542443 -8.496962952532675 -5.469178441571739 1 0 0
4514 1485 4 -9.981022291294085 -9.006734839779067 -7.845323008285506 0 1 1
4019 1320 4 -4.439628718748042 -9.339916799429902 -4.917010881310626 0 0 2
3254 1065 4 -7.903827545978508 -6.875687354923015 -5.361880754493373 1 1 1
4119 1353 4 -7.932371178228706 -7.278490184583242 -5.320694766712418 1 1 0
4117 1353 2 -7.641749308005137 -7.378105239644569 -4.926213120303957 1 1 0
3971 1304 4 -6.538379239449154 -6.651998078688882 -5.145664807391441 1 1 1
3970 1304 2 -6.64223266158931 -7.0022191522566235 -5.487073164551492 1 1 1
3972 1304 4 -6.746086083729467 -7.352440225824364 -5.828481521711544 1 1 1
3387 1109 4 -4.802739789890955 -8.15706501019023 -5.448190006802324 1 0 0
3804 1248 4 -1.9485874908077472 -6.9733972963499316 -6.108674764409163 0 1 0
3643 1195 2 -0.659194175815672 -7.864169770454481 -6.00581896594059 0 1 -1
3645 1195 4 -0.4929273153761199 -8.323490048788136 -5.899140884635516 0 1 -1
3644 1195 4 -0.825461036255224 -7.404849492120826 -6.112497047245665 0 1 -1
3803 1248 4 -0.9498618450118426 -7.02364371051825 -6.113405757095376 0 1 0
3802 1248 2 -1.4492246679097949 -6.998520503434091 -6.11104026075227 0 1 0
3253 1065 2 -8.067353928428547 -6.56331917639558 -5.716401900951405 1 1 1
3255 1065 4 -8.230880310878586 -6.250950997868145 -6.070923047409438 1 1 1
4105 1349 2 -7.992000167257488 -5.361342873695146 -5.325679523094296 1 1 0
1981 641 2 -7.171443371222733 -6.094947730674799 -5.187733565518847 0 1 1
4106 1349 4 -7.937752240549632 -5.857279618318789 -5.292454415418981 1 1 0
1982 641 4 -7.5545108936368415 -5.843580722197425 -5.38791823106839 0 1 1
1983 641 4 -6.788375848808624 -6.346314739152174 -4.987548899969303 0 1 1
2271 737 4 -5.389819914917976 -6.190699304950158 -5.137963094804589 0 0 1
3328 1090 2 -2.367889746877362 -6.474607057732373 -6.282283499627614 1 0 0
3330 1090 4 -2.1879633235454157 -6.740908403285444 -5.899255986851447 1 0 0
2481 807 4 -0.18733789140125043 -6.415421431816569 -6.653174155295955 1 1 0
2479 807 2 -0.4138988051689453 -6.192283519981683 -6.267324930008953 1 1 0
2222 721 4 -0.6598605933842845 -5.562816378654521 -5.890816744386666 0 0 1
2480 807 4 -0.6404597189366401 -5.969145608146797 -5.881475704721951 1 1 0
2221 721 2 -0.7394694226384414 -5.175885082370496 -5.584309638008375 0 0 1
1241 394 4 -8.430002680821566 -4.3814191433434395 -6.305461399045566 0 1 0
3353 1098 4 -8.09835375183407 -4.370237453612871 -6.534244074268037 1 0 1
4107 1349 4 -8.046248093965342 -4.865406129071503 -5.358904630769611 1 1 0
1242 394 4 -7.9693468248014625 -4.487904642236481 -5.424293412313705 0 1 0
1240 394 2 -8.199674752811514 -4.43466189278996 -5.864877405679636 0 1 0
3118 1020 2 -6.291136010948499 -3.87184093538988 -6.512318713328502 0 0 1
3119 1020 4 -6.1980726395419445 -4.096155388022186 -6.075257807684861 0 0 1
4469 1470 4 -5.858316383097383 -3.972056564769818 -5.910620161525382 2 0 0
4468 1470 2 -5.631900800877627 -3.750489322044212 -5.523781770102984 2 0 0
4470 1470 4 -5.405485218657872 -3.5289220793186065 -5.136943378680585 2 0 0
3144 1028 4 -4.189279415930338 -4.084357444721137 -5.234329483086536 0 -1 -1
28 6 3 -3.8013890502821703 -4.155767161108818 -5.247027545999392 0 0 1
26 6 1 -3.468588121670565 -3.8908519971903064 -5.432401486566859 0 0 1
29 6 3 -3.6586194206048064 -3.5547472182113165 -5.689737226356496 0 0 1
4170 1370 4 -3.9721732566307253 -3.481851091361939 -5.922717112790088 0 0 0
30 6 3 -3.1921313455228417 -4.145753719443125 -5.689299837894338 0 0 1
4168 1370 2 -4.18323298691008 -3.4239614105626566 -6.3722753127053045 0 0 0
3156 1032 4 -2.369562666270694 -4.965340298312834 -6.096517778019154 1 0 1
27 6 3 -3.2251965159461067 -3.698488906292829 -5.092759075311337 0 0 1
3155 1032 4 -2.8739763846470403 -4.1206331832132514 -5.917529816376665 1 0 1
488 143 4 -2.922522962314347 -3.4606767331489996 -5.182258657132906 0 0 0
3154 1032 2 -2.621769525458867 -4.542986740763043 -6.00702379719791 1 0 1
2223 721 4 -0.8190782518925983 -4.788953786086472 -5.277802531630084 0 0 1
3141 1027 4 -1.7858495707525772 -3.5229124730241574 -5.1918449191562095 0 -1 0
1608 516 4 -8.596822448740728 -2.3999696372410764 -6.409235610416352 -1 1 0
1606 516 2 -8.27454284530971 -2.744215309528611 -6.575460681700203 -1 1 0
2387 776 4 -5.015211563518821 -3.363078419677684 -5.128027136708511 0 0 2
2386 776 2 -4.673557032664173 -2.9981571246541687 -5.138256016631646 0 0 2
2388 776 4 -4.331902501809526 -2.6332358296306535 -5.148484896554782 0 0 2
2856 932 4 -3.99268750949206 -2.593906643955985 -5.35703096053907 0 0 0
2854 932 2 -3.6608702365626757 -2.574031832128297 -5.730531013070141 0 0 0
2855 932 4 -3.3290529636332913 -2.554157020300609 -6.104031065601212 0 0 0
1780 574 2 -0.3623879962485372 -2.14315226595983 -4.801492838924869 -1 1 0
1781 574 4 -0.035302659017046545 -1.933591151570968 -5.1162932860411585 -1 1 0
2008 650 2 -9.67283205097753 -0.22369749848779827 -5.3326266272954 0 0 1
3034 992 2 -9.481527131440101 -0.8779467220371034 -6.551033294258826 0 -1 0
3035 992 4 -9.271993301657323 -0.7197580321750461 -6.125507839584143 0 -1 0
2745 895 4 -6.819361475271366 -0.4291050586353258 -6.247905543074148 1 -1 0
2399 780 4 -3.768160276321244 -0.340077819152672 -6.159974795666047 0 -1 0
3664 1202 2 -4.780854191085018 -0.6155436245917671 -5.248745576339719 1 -1 1
3666 1202 4 -4.446972863710922 -0.7433040390038115 -5.598317508479553 1 -1 1
2398 780 2 -3.47540337031734 -0.5847651374512345 -5.836831622674086 0 -1 0
47 10 3 -3.51816483240426 -0.056343105846319574 -5.209703187187205 -1 0 0
2400 780 4 -3.182646464313436 -0.829452455749797 -5.513688449682125 0 -1 0
1878 606 4 -2.8072031870176053 -0.20812033247161182 -6.71671255630727 0 0 0
1876 606 2 -2.463963603825971 -0.12374875132515858 -6.363062977168127 0 0 0
3609 1183 4 -1.3617569480832938 -0.27708927319256044 -6.439536591057511 1 1 0
4399 1447 2 -6.266493913150841 -9.905109960768282 -3.6352276658491274 0 0 1
4018 1320 2 -4.32959256197149 -9.604232375687086 -4.507097085068606 0 0 2
4020 1320 4 -4.219556405194937 -9.86854795194427 -4.097183288826587 0 0 2
3524 1155 4 -4.513026363774244 -9.205392773207114 -2.9773172536946113 1 0 0
3525 1155 4 -3.763754610258279 -9.23586231691541 -3.6388786237038477 1 0 0
3523 1155 2 -4.138390487016261 -9.220627545061262 -3.3080979386992295 1 0 0
2204 715 4 -2.1478056481851007 -9.771528668711891 -4.133093203522507 0 0 0
2203 715 2 -2.25733175813137 -9.450916310597826 -4.500804703294495 0 0 0
1268 403 4 -1.9293828473877022 -8.636485984974664 -4.075511888824072 0 1 0
2205 715 4 -2.366857868077639 -9.13030395248376 -4.868516203066483 0 0 0
1267 403 2 -1.538489696947116 -8.881560031346545 -3.882791218595959 0 1 0
1605 515 4 -0.6227855545868419 -9.290299879389153 -4.682997871197543 -1 1 1
1386 442 4 -0.3529381382114682 -8.81527964581247 -3.602566738585142 0 1 0
1603 515 2 -0.7773425148009824 -9.736931498982159 -4.519803684938683 -1 1 1
3892 1278 2 -0.021145478823000417 -8.630164073372889 -4.859792607141524 0 1 1
1269 403 4 -1.1475965465065299 -9.126634077718426 -3.6900705483678466 0 1 0
3893 1278 4 -0.4078407432861481 -8.941919188706258 -4.802560443932905 0 1 1
4118 1353 4 -7.351127437781567 -7.477720294705896 -4.531731473895496 1 1 0
1127 356 4 -4.997508542265417 -7.408373400919515 -3.635866212188678 -1 0 1
2874 938 4 -6.482879103108939 -6.740140376289855 -4.3158413954912955 0 2 0
1126 356 2 -5.43883233462764 -7.583638174846908 -3.479291727310268 -1 0 1
4340 1427 4 -4.815342376181947 -7.589847309677431 -3.3328283819285627 0 0 1
3476 1139 4 -3.548690028691359 -6.700256255864217 -4.111076370600109 1 0 -1
3377 1106 4 -2.3551197832854283 -7.044082800558931 -3.9863878132970947 1 -1 2
3376 1106 2 -2.362148969268706 -6.8747115797611515 -4.456774866806942 1 -1 2
3378 1106 4 -2.369178155251984 -6.705340358963372 -4.927161920316789 1 -1 2
3909 1283 4 -2.262148043785482 -7.405369705494837 -3.8928990498659504 1 0 -1
3907 1283 2 -2.020390237376699 -7.669187183215825 -3.543680634702468 1 0 -1
470 137 4 -8.555013271036202 -6.406775126657387 -3.424445700996576 0 0 0
2269 737 2 -5.573314859804245 -5.7493995830973095 -4.991047606534705 0 0 1
2872 938 2 -6.363090338842286 -6.277016965555653 -4.1703513326520065 0 2 0
2873 938 4 -6.243301574575634 -5.813893554821451 -4.0248612698127175 0 2 0
2270 737 4 -5.756809804690513 -5.308099861244461 -4.844132118264821 0 0 1
2483 808 4 -6.106688384855166 -5.9664219143762205 -3.6844422361319826 0 1 0
3475 1139 2 -3.4407700344028433 -6.239994982664485 -3.9482487463303846 1 0 -1
3477 1139 4 -3.3328500401143275 -5.779733709464753 -3.7854211220606593 1 0 -1
3571 1171 2 -2.5164328325831997 -5.603648186645318 -3.7596566314164215 1 1 0
3573 1171 4 -2.0312060880874885 -5.625636066609463 -3.8782801516855776 1 1 0
3572 1171 4 -3.001659577078911 -5.581660306681172 -3.6410331111472654 1 1 0
1205 382 4 -9.915370721573934 -3.51057593723821 -4.242390024051736 -1 0 0
55 11 3 -9.606177823211041 -3.606544563521681 -4.003958813332794 0 0 1
4333 1425 2 -9.82580634925468 -4.838323082628846 -3.8805880453328907 0 1 1
52 11 3 -8.90014338074377 -3.778741712002413 -3.834066176336184 0 0 1
4335 1425 4 -9.575897519743288 -4.562083952460748 -4.214110937944156 0 1 1
53 11 3 -9.410303099146137 -4.326427201003933 -3.902459647204537 0 0 1
51 11 1 -9.341256486344916 -3.8889147554362937 -3.7642011023172715 0 0 1
3810 1250 4 -6.821909487903906 -4.477971898292956 -3.168254637869679 1 0 0
4073 1338 4 -6.625794214012578 -4.317659378788897 -3.4762460352359543 0 1 0
1258 400 2 -5.084533546302067 -4.023097385596875 -3.851323111138495 1 1 0
1259 400 4 -5.50996318671228 -4.017445060730839 -3.588687103927177 1 1 0
4072 1338 2 -6.130157145497956 -4.358110574543212 -3.5282806110170952 0 1 0
4074 1338 4 -5.634520076983335 -4.398561770297527 -3.580315186798236 0 1 0
1260 400 4 -4.659103905891854 -4.028749710462911 -4.113959118349813 1 1 0
3829 1257 2 -4.159611247831662 -4.600553628776153 -3.502749511614108 1 0 0
3143 1028 4 -4.5276714638640065 -4.327908232196888 -4.325388431193505 0 -1 -1
3142 1028 2 -4.358475439897172 -4.206132838459013 -4.7798589571400205 0 -1 -1
3831 1257 4 -4.0042559935401725 -4.13864282302905 -3.614567008001743 1 0 0
1077 339 4 -3.835486576583515 -3.842723875051827 -3.3989834030980792 1 1 0
1075 339 2 -4.056020006667412 -3.4538691645388417 -3.622941033751009 1 1 0
3862 1268 2 -2.6046982692601115 -3.4743862194956256 -3.6152720488834897 0 0 -1
2852 931 4 -0.1680525840637287 -4.65995052980235 -3.9802853949446564 1 0 0
2851 931 2 -0.02305255132061161 -4.630783361306152 -3.5026618331447557 1 0 0
3510 1150 4 -0.3005592401484037 -4.795293802949362 -4.343912768692623 1 1 0
3139 1027 2 -1.5841558759830916 -3.5032939972697843 -4.73475108972933 0 -1 0
3879 1273 4 -8.275783805666975 -1.9013790913096196 -3.9943623221167153 0 1 -1
3877 1273 2 -8.284475574486637 -1.6726045388386166 -3.549855114867749 0 1 -1
2432 791 4 -6.941696111542595 -1.917347653359745 -3.9409442551721923 0 1 0
1076 339 4 -4.276553436751309 -3.065014454025856 -3.8468986644039393 1 1 0
487 143 2 -2.839966787685774 -3.223644163852767 -4.749823645688358 0 0 0
489 143 4 -2.7574106130572007 -2.9866115945565346 -4.31738863424381 0 0 0
3864 1268 4 -2.7684884428631698 -3.123446949388569 -3.931522594697033 0 0 -1
1782 574 4 -0.6894733334800278 -2.3527133803486917 -4.486692391808579 -1 1 0
3140 1027 4 -1.382462181213606 -3.483675521515411 -4.27765726030245 0 -1 0
2094 678 4 -1.0156115591517327 -3.503767256212036 -4.112102256939792 -1 0 0
2092 678 2 -0.8832630936869447 -3.186717965152745 -3.7488342694599095 -1 0 0
2313 751 4 -0.8001051587009174 -1.8170192460127745 -3.5674149532968027 -1 0 0
2311 751 2 -0.35582889877773716 -1.9111682276701585 -3.3582390127071835 -1 0 0
2009 650 4 -9.46757551767887 -0.5335572039045502 -4.998176752879553 0 0 1
3665 1202 4 -5.1147355184591135 -0.4877832101797228 -4.899173644199884 1 -1 1
2431 791 2 -6.655603776749406 -1.5588482323749997 -4.140015451296538 0 1 0
1094 345 4 -5.506440023221229 -0.5141648088703468 -4.85871081318684 0 0 0
1095 345 4 -6.197904663499731 -1.219503271576019 -4.702588091358554 0 0 0
2433 791 4 -6.3695114419562175 -1.2003488113902543 -4.339086647420883 0 1 0
1093 345 2 -5.85217234336048 -0.8668340402231829 -4.780649452272697 0 0 0
3508 1150 2 -0.008690235874199469 -4.888230813549633 -4.739102844991076 1 1 0
3241 1061 2 -9.937908310699747 -0.3771877315332042 -9.682170095545715 2 0 2
1818 586 4 -0.10504650313963715 -0.7509935231554892 -9.05026195454187 -1 0 0
1702 548 2 -0.17042602460549425 -0.13067338193385483 -3.786180452364846 0 1 -1
1890 610 4 -6.961227496505575 -8.829225845058627 -2.7950562137619377 1 0 1
1888 610 2 -6.542865393946273 -8.97518007137163 -2.563387236634547 1 0 1
4401 1447 4 -5.876309052880943 -9.726055924697015 -3.378916474165572 0 0 1
1889 610 4 -6.1245032913869695 -9.121134297684634 -2.3317182595071566 1 0 1
3953 1298 4 -5.9716059878018894 -8.829919897702968 -2.1034275259828865 0 1 0
3952 1298 2 -5.5534677418454095 -8.999851480659707 -1.8882911404447262 0 1 0
3954 1298 4 -5.1353294958889295 -9.169783063616446 -1.673154754906566 0 1 0
305 82 4 -4.603313317157378 -0.4675098475722639 -1.2255487753021845 0 0 1
918 286 4 -5.044202697035781 -9.536179659481965 -1.845674445628015 -1 0 1
2336 759 4 -1.0267848456274344 -8.139815262381646 -1.754878796782536 0 1 0
3589 1177 2 -0.030897028274587953 -9.461720286940594 -2.130580167392364 1 0 0
3590 1177 4 -0.32774540495410076 -9.621993754827342 -2.499624144113221 1 0 0
1384 442 2 -0.3130795775933606 -9.133815878518307 -3.2192314237509794 0 1 0
1385 442 4 -0.27322101697525225 -9.452352111224144 -2.8358961089168178 0 1 0
813 251 4 -8.656612469031986 -0.6422338909954682 -0.19646965757902674 0 0 0
555 165 4 -9.338556215215403 -7.744682394146558 -2.4540443075530516 -1 -1 0
553 165 2 -9.193650145429674 -7.948044077537015 -2.0208627559282593 -1 -1 0
3896 1279 4 -9.637999650802023 -7.019967886824358 -3.118451027953735 1 1 -1
3895 1279 2 -9.319916164527369 -6.929425451874803 -2.743451076976846 1 1 -1
432 124 4 -7.40029250704049 -6.5734390403084895 -1.5514050228151055 0 -1 0
1128 356 4 -5.880156126989863 -7.758902948774302 -3.322717242431858 -1 0 1
4339 1427 2 -4.3641919300594445 -7.500373063106466 -3.1367222010891656 0 0 1
4341 1427 4 -3.913041483936942 -7.4108988165355 -2.9406160202497684 0 0 1
3261 1067 4 -3.7238431551998175 -7.072745153583306 -2.9208323011575734 1 -1 0
3259 1067 2 -3.2607556849054298 -6.889145937734024 -2.8779216638259486 1 -1 0
3260 1067 4 -2.797668214611042 -6.705546721884741 -2.835011026494324 1 -1 0
3908 1283 4 -1.7786324309679158 -7.933004660936812 -3.194462219538986 1 0 -1
319 87 2 -2.1003569028655122 -6.557691147868841 -2.5827615366284387 0 1 0
320 87 4 -1.7819528053305844 -6.2959238073632475 -2.299747950174621 0 1 0
3420 1120 4 -1.7170829934784062 -6.57516740197429 -1.9635549056234989 0 0 1
2653 865 2 -1.2245447715139302 -8.001536776586324 -2.57612601689781 1 0 -1
2654 865 4 -1.414350899975049 -7.804097318282084 -2.9944456242598934 1 0 -1
2655 865 4 -1.0347386430528114 -8.198976234890564 -2.157806409535727 1 0 -1
3418 1120 2 -1.280900240500403 -6.818471930967164 -1.940155927524605 0 0 1
3419 1120 4 -0.8447174875224 -7.061776459960039 -1.916756949425711 0 0 1
3897 1279 4 -9.001832678252715 -6.838883016925247 -2.368451125999957 1 1 -1
469 137 2 -8.185658343025468 -6.578039715257657 -3.13419515776492 0 0 0