LAMMPS data file via write_data, version 27 Jun 2024, timestep = 6000000, units = lj

5040 atoms
4 atom types
3540 bonds
1 bond types

-9.998647 9.998647 xlo xhi
-9.998647 9.998647 ylo yhi
-9.998647 9.998647 zlo zhi

Masses

1 1
2 1
3 0.5
4 0.5

Bond Coeffs # zero

1 0

Atoms # bond

2829 763 4 -9.446014327344667 -8.75821360233897 -9.24125847664891 0 1 1
2196 552 4 -9.822341716129586 -8.71888852005261 -9.34336487596859 0 0 1
2827 763 2 -9.109814905519857 -8.589667120546926 -9.570746006367676 0 1 1
2341 601 2 -8.791429785512868 -8.631106657536064 -8.505479261323375 0 1 0
2828 763 4 -8.773615483695046 -8.421120638754882 -9.900233536086441 0 1 1
2342 601 4 -9.092630711122137 -8.996108981895706 -8.344075092776276 0 1 0
2634 698 4 -2.894184373373107 -9.92006486618721 -2.0654685900945378 0 1 0
3893 1118 4 -7.923217658231289 -9.833850266098167 -9.525114132392867 1 0 1
3894 1118 4 -7.701238567348771 -8.966280689463133 -9.080087938888932 1 0 1
3892 1118 2 -7.81222811279003 -9.40006547778065 -9.3026010356409 1 0 1
3527 996 4 -7.74970738760694 -9.155822097061032 -8.706818339454948 1 0 0
1557 339 4 -6.866600983896507 -9.784058213350473 -9.049559562553181 0 0 0
2124 528 4 -8.193923436065367 -9.646017474991393 -9.785916842948772 0 0 1
2055 505 4 -6.470657499045199 -8.954306028174953 -9.690592770836506 0 0 1
2053 505 2 -6.46563988661258 -9.326944844727226 -9.35725340027854 0 0 1
2054 505 4 -6.460622274179961 -9.6995836612795 -9.023914029720572 0 0 1
2421 627 4 -4.568389084545295 -9.349011908236768 -8.677130473087328 0 1 0
2419 627 2 -4.607914917315417 -9.649405813519232 -9.074875630459664 0 1 0
2420 627 4 -4.647440750085538 -9.949799718801696 -9.472620787832 0 1 0
2874 778 4 -4.517171006266544 -9.808444018686396 -9.814148202371333 0 1 1
4008 1156 4 -1.8769107346529346 -8.925419857455738 -8.537664236792912 0 0 1
860 172 3 -2.0662269544073664 -9.212774658393675 -8.73778969535281 0 0 1
856 172 1 -2.485535972930811 -9.263260300171655 -8.567404405615004 0 0 1
858 172 3 -2.760074993128535 -9.467929869319812 -8.880515717856259 0 0 1
859 172 3 -2.6597670190204874 -8.849432251031264 -8.450400609424397 0 0 1
4006 1156 2 -1.567010774880369 -8.618068163761508 -8.781584205873335 0 0 1
3719 1060 4 -0.3935923746431296 -9.765760837806658 -9.975343741569455 0 0 1
2343 601 4 -8.490228859903599 -8.266104333176422 -8.666883429870474 0 1 0
2213 558 4 -8.434765727814112 -7.9475479847679145 -8.895902016490632 0 0 1
2212 558 2 -8.388229317665832 -7.473733937301192 -9.048658721594386 0 0 1
1412 291 4 -8.264232755599947 -6.967556872075556 -9.579063509562326 0 0 0
2214 558 4 -8.341692907517553 -6.99991988983447 -9.201415426698139 0 0 1
2165 542 4 -6.714239357864773 -7.299216147849833 -9.86863123800494 0 0 1
1936 466 2 -6.369143501200016 -6.694746493931536 -9.56406037201206 0 0 1
1937 466 4 -6.499209779924179 -6.986614040965755 -9.948632989507352 0 0 1
3115 859 2 -4.96853332023281 -6.882062443158282 -8.510221086284659 0 1 1
3117 859 4 -4.905114431523124 -7.217271548352179 -8.875752070401763 0 1 1
1554 338 4 -4.637405426181176 -7.164108639612823 -9.165786042231455 0 0 0
1552 338 2 -4.782377972759523 -7.610203789065736 -9.338939379978752 0 0 0
1553 338 4 -4.92735051933787 -8.05629893851865 -9.51209271772605 0 0 0
2046 502 4 -2.608060574906565 -6.633861812186459 -8.478320624038721 0 0 1
2044 502 2 -2.731164492523095 -6.676546165556931 -8.96104567149818 0 0 1
4007 1156 4 -1.2571108151078032 -8.31071647006728 -9.025504174953756 0 0 1
3519 993 4 -0.41065436079263323 -7.233912635727499 -9.705948706843387 0 0 0
3517 993 2 -0.11390741145124324 -7.084266747413742 -9.33238832863474 0 0 0
5030 1497 4 -1.2906736646031525 -8.029245844158671 -9.293578308522957 0 1 1
5029 1497 2 -1.296349078435677 -7.736061904389098 -9.698560983632307 0 1 1
144 29 3 -0.2036717694366195 -7.492836360231531 -9.892796867567242 0 0 0
1966 476 2 -9.422460006937609 -6.353299609418385 -9.80791418370535 0 0 1
1469 310 4 -9.519392813247622 -5.6613768564505 -9.557748923689044 0 0 0
1968 476 4 -9.661144815631813 -6.046489317739951 -9.493435238434952 0 0 1
1468 310 2 -9.173215006906497 -5.321547023914507 -9.678895988510622 0 0 0
1451 304 4 -6.781451755669788 -5.1944972599999275 -9.492479300336797 0 0 0
1853 438 4 -7.191515511176443 -5.157789667399879 -9.496567258453716 0 0 1
1450 304 2 -6.532439025118852 -5.59595965941067 -9.328709333973606 0 0 0
1452 304 4 -6.283426294567916 -5.997422058821412 -9.164939367610415 0 0 0
1938 466 4 -6.239077222475853 -6.402878946897317 -9.179487754516767 0 0 1
2045 502 4 -2.8542684101396247 -6.719230518927403 -9.443770718957639 0 0 1
95 19 3 -3.103403645249876 -6.527752065990698 -9.68701644111582 0 0 0
1470 310 4 -8.827037200565373 -4.981717191378514 -9.8000430533322 0 0 0
3947 1136 4 -9.447798595534906 -4.085117039576458 -8.982682779488252 1 0 1
3946 1136 2 -9.410906843733605 -3.6983389614526674 -9.297391719513534 1 0 1
707 142 3 -9.203716545747422 -4.068558167621721 -8.662876032029837 1 0 0
3948 1136 4 -9.374015091932304 -3.3115608833288768 -9.612100659538816 1 0 1
190 38 3 -8.560372686098502 -4.305973332826923 -9.81675381859555 0 0 1
706 142 1 -9.387438443994542 -4.386007792663964 -8.385257589441084 1 0 0
710 142 3 -9.809061456935313 -4.483456004213704 -8.527165591417315 1 0 0
708 142 3 -9.123767323305975 -4.767584706128016 -8.39854665360974 1 0 0
1517 326 4 -7.99375082633514 -4.264487815697754 -8.686582986667215 0 0 0
1852 438 2 -7.1277499250553795 -4.784784061038563 -9.823371125704696 0 0 1
1516 326 2 -8.112089017950774 -3.843605749469377 -8.929182159650296 0 0 0
1518 326 4 -8.230427209566407 -3.422723683241 -9.171781332633376 0 0 0
1420 294 2 -5.568847108907127 -4.4985550599755575 -9.66828079235725 0 0 0
1422 294 4 -5.976553859082626 -4.28584011938227 -9.864565177649775 0 0 0
1533 331 4 -8.84412840608394 -0.022994909956253473 -3.5462254396367405 0 0 0
1421 294 4 -5.161140358731627 -4.711270000568845 -9.471996407064724 0 0 0
2174 545 4 -3.57192308671172 -4.720740115233596 -9.42879497859873 0 0 1
3930 1130 4 -3.860122566875107 -4.518287096676295 -9.239584460924187 0 0 1
3929 1130 4 -4.814588019130653 -4.510642296328572 -9.537807963482551 0 0 1
3928 1130 2 -4.33735529300288 -4.514464696502434 -9.388696212203369 0 0 1
2173 545 2 -3.1550358030149726 -4.49995536912308 -9.263087137574761 0 0 1
2175 545 4 -2.738148519318225 -4.279170623012563 -9.097379296550791 0 0 1
279 56 3 -2.357469243367075 -4.384088958966923 -9.179400389899696 0 0 1
276 56 1 -1.983802367353379 -4.296000323958607 -9.440002496861267 0 0 1
277 56 3 -1.7769879946848877 -3.9174336113146473 -9.28026815698423 0 0 1
280 56 3 -2.1086751630830163 -4.227526240634159 -9.872573976272248 0 0 1
278 56 3 -1.686245444902257 -4.65118602378568 -9.415446508995943 0 0 1
3740 1067 4 -1.3885545441318168 -3.9217175380890223 -9.171023274697145 0 0 1
3739 1067 2 -1.357001765477932 -3.424209967500839 -9.1324144756143 0 0 1
1761 407 4 -8.730636209956545 -2.1395192483677086 -8.497614354771931 0 0 0
4086 1182 4 -9.603999102261591 -3.140280334829611 -9.890586343968044 1 0 1
1807 423 2 -4.252083421928907 -2.0966043481282552 -9.859567551001172 0 0 1
3333 931 4 -4.898029097723886 -2.421672149256335 -9.928598968145705 0 0 0
1809 423 4 -3.854146097799271 -2.002505647755211 -9.571832741406434 0 0 1
298 60 3 -2.0117950094294597 -2.1701847558493537 -9.344207851000753 0 0 1
3548 1003 4 -2.261505776240508 -2.0347011385836273 -9.076810491236635 0 0 0
3547 1003 2 -2.298358457095655 -2.131301950149652 -8.587617111152149 0 0 0
297 60 3 -1.6045323467792991 -2.455434404756855 -9.907829853240878 0 0 1
296 60 1 -1.5812604052848902 -2.2603074330933017 -9.491916542960405 0 0 1
3741 1067 4 -1.3254489868240473 -2.9267023969126553 -9.093805676531456 0 0 1
299 60 3 -1.371847812063149 -2.5539361289235165 -9.199977243130524 0 0 1
300 60 3 -1.342742804731802 -1.8734336685144648 -9.520865541336283 0 0 1
674 135 3 -0.32538830022177706 -2.354859158419472 -9.470183007079001 0 0 0
4404 1288 4 -9.979631795331816 -0.7600400483886809 -9.592184405863184 1 0 0
1696 386 2 -7.459083745861899 -0.7506732613541826 -8.678519474271914 0 0 0
1697 386 4 -7.163709869100341 -1.1088706942708495 -8.864123547446743 0 0 0
1698 386 4 -7.754457622623457 -0.39247582843751566 -8.492915401097084 0 0 0
1587 349 4 -4.106802949387661 -0.9816034195766257 -8.916647065624955 0 0 0
1585 349 2 -4.315201410416749 -0.7397313743554773 -8.531851022010922 0 0 0
2415 625 4 -3.7990531731159023 -0.7296187415018889 -8.907328464579624 0 0 0
2413 625 2 -3.3123844268532516 -0.789780708468471 -9.004971022628373 0 0 0
2414 625 4 -2.825715680590601 -0.8499426754350532 -9.10261358067712 0 0 0
3643 1035 2 -2.035591426957562 -0.6390809738427573 -9.161099693416777 0 0 0
3644 1035 4 -2.428888408838302 -0.8851774104705264 -8.974675371176133 0 0 0
3645 1035 4 -1.642294445076822 -0.39298453721498827 -9.34752401565742 0 0 0
4619 1360 4 -1.5303504177584808 -0.004748051364066586 -9.42509432973689 0 0 1
817 164 3 -0.6030263777223899 -0.8196935396328411 -9.94651517020108 0 0 0
3867 1109 4 -9.354781386376542 -9.521978961581702 -7.319550640248879 1 0 1
3866 1109 4 -8.900081509649896 -8.94096951742851 -7.994588452456039 1 0 1
3865 1109 2 -9.127431448013219 -9.231474239505106 -7.657069546352459 1 0 1
18 4 3 -9.47534411572773 -9.7398959549972 -6.972184905819288 0 0 0
16 4 1 -9.698107214750246 -9.847317344102386 -6.579581738643395 0 0 0
3526 996 2 -7.6941694048246285 -9.200138132687817 -8.211892464748031 1 0 0
3528 996 4 -7.638631422042317 -9.244454168314602 -7.716966590041114 1 0 0
4728 1396 4 -7.780805892264355 -9.145985594844827 -7.352994904883914 1 1 1
4726 1396 2 -7.771825193004586 -8.916510095011697 -6.908854902162812 1 1 1
1613 358 4 -4.485787194922209 -9.758839180479717 -7.44337523567318 0 0 0
1614 358 4 -4.518488728056314 -9.239559132515907 -8.297353479843972 0 0 0
1612 358 2 -4.502137961489262 -9.499199156497811 -7.870364357758576 0 0 0
857 172 3 -2.4655432869692593 -9.527823588573334 -8.191629793729112 0 0 1
2625 695 4 -2.5737235760313415 -8.905367891512327 -8.033645426551283 0 1 0
2623 695 2 -2.445541610641235 -8.471169441016377 -7.8214165658002885 0 1 0
4701 1387 4 -2.236341175756508 -9.846475009022331 -8.107039743101097 0 1 1
1676 379 4 -2.5069083719352205 -6.957146986750438 -8.264783282711841 0 0 0
2624 695 4 -2.3173596452511283 -8.036970990520427 -7.609187705049294 0 1 0
1675 379 2 -2.3263077198870543 -7.329917645610268 -7.984737857159067 0 0 0
1677 379 4 -2.145707067838888 -7.702688304470099 -7.7046924316062935 0 0 0
3591 1017 4 -8.028867324014328 -5.377305166867882 -7.765388844891897 1 0 0
3589 1017 2 -8.201080208922628 -5.565996398859585 -7.33557686129764 1 0 0
3590 1017 4 -8.373293093830926 -5.754687630851287 -6.905764877703383 1 0 0
1437 299 4 -8.083132763791555 -6.040003331059072 -6.919610614874695 0 0 0
2202 554 4 -7.045911727271921 -5.386089301340888 -7.139532594889295 0 0 1
1481 314 4 -7.117215996918355 -5.197627514120255 -6.783824692399281 0 0 0
3116 859 4 -5.031952208942496 -6.546853337964385 -8.144690102167555 0 1 1
2200 554 2 -6.662677137810292 -5.403601676409527 -7.460195293311148 0 0 1
1392 284 4 -5.3084059711786615 -6.360307296475164 -7.9302775825254965 0 0 0
1391 284 4 -6.128682837148917 -5.789483324496585 -7.894140950562036 0 0 0
2201 554 4 -6.279442548348662 -5.421114051478165 -7.7808579917330025 0 0 1
1390 284 2 -5.718544404163789 -6.074895310485875 -7.912209266543766 0 0 0
1799 420 4 -0.05369392427537027 -6.390367273329898 -7.46530648541773 0 0 0
1798 420 2 -0.14257277071802765 -6.632669948598805 -7.03706594061578 0 0 0
709 142 3 -9.40080254920776 -4.217672329480851 -7.9530717815676955 1 0 0
1448 303 4 -9.731396063796787 -3.8228354403527147 -7.695525660667142 0 0 0
3429 963 4 -8.549423094260481 -4.057458413094557 -7.180545268361012 1 0 0
1480 314 2 -7.30010619212285 -4.7422359120486925 -6.6880663232562725 0 0 0
3427 963 2 -8.156712345710137 -4.024545871357428 -6.872819688388421 1 0 0
65 13 3 -5.059431965918503 -3.7116433927180172 -6.839213033642403 0 0 0
1655 372 4 -4.8126936040531785 -3.488665092268807 -7.041484693206005 0 0 0
1654 372 2 -4.50029111676993 -3.7618680438362477 -7.320348160146257 0 0 0
1656 372 4 -4.187888629486682 -4.0350709954036885 -7.599211627086509 0 0 0
4191 1217 4 -1.6467196919350813 -3.4304330183071245 -7.455894669474312 0 0 0
4190 1217 4 -0.7926187997003761 -3.8799697342338257 -7.194306430219384 0 0 0
2004 488 4 -0.5825382892101603 -3.673614695497791 -6.951527709312035 0 0 1
4189 1217 2 -1.2196692458177287 -3.655201376270475 -7.325100549846848 0 0 0
2002 488 2 -0.1462256826309243 -3.7333537167077875 -6.7147523755358245 0 0 1
1447 303 2 -9.59317580623484 -3.358804722449981 -7.820308084277201 0 0 0
1759 407 2 -9.049367704680746 -2.3300306076385766 -8.16277759415635 0 0 0
1760 407 4 -9.368099199404947 -2.5205419669094447 -7.827940833540767 0 0 0
1449 303 4 -9.454955548672892 -2.894774004547247 -7.94509050788726 0 0 0
117 24 3 -6.719455301570253 -2.441183938767082 -7.56467052400277 0 0 0
119 24 3 -6.9556200422451555 -2.6246066751834403 -6.875118267080261 0 0 0
1769 410 4 -7.304970198919296 -2.8250280262055742 -6.767943820365463 0 0 0
116 24 1 -6.615145548656563 -2.4224942818185466 -7.117043254759688 0 0 0
118 24 3 -6.573749826188668 -1.977829145889245 -6.991109498164719 0 0 0
120 24 3 -6.222367965920184 -2.64152812260054 -7.045280122917168 0 0 0
1395 285 4 -5.390778994414782 -1.805851044007022 -6.920282425112706 0 0 0
1544 335 4 -5.04051546179408 -2.0104088911208478 -6.857523695248549 0 0 0
1543 335 2 -4.913686460154015 -2.417126577660823 -6.595807956709886 0 0 0
3549 1003 4 -2.335211137950802 -2.2279027617156766 -8.098423731067662 0 0 0
3141 867 4 -2.128730778864108 -2.160422228326141 -7.770713912420761 0 0 1
3139 867 2 -1.9720388354873715 -2.6115695278222053 -7.622680980146786 0 0 1
3140 867 4 -1.815346892110635 -3.0627168273182694 -7.474648047872811 0 0 1
1637 366 4 -8.143064962467568 -1.06009104190626 -6.881766811299263 0 0 0
4268 1243 4 -8.162862818688247 -0.6677764630161747 -6.969359980160838 1 0 0
4267 1243 2 -7.69402513411377 -0.6038233345453843 -7.1309187090524535 1 0 0
4269 1243 4 -7.225187449539292 -0.5398702060745939 -7.292477437944069 1 0 0
1433 298 4 -6.85499542023007 -0.6573495620035965 -7.334327246659727 0 0 0
1432 298 2 -6.764729037432948 -1.1431205664762367 -7.257655795976405 0 0 0
1636 366 2 -8.248223492129226 -1.5121356320525177 -6.695763122736519 0 0 0
1434 298 4 -6.6744626546358266 -1.628891570948877 -7.1809843452930835 0 0 0
353 71 3 -5.128767347602438 -0.8402178684704574 -7.450812221569838 0 0 0
351 71 1 -5.027228663699113 -0.45520801251346593 -7.689050141488928 0 0 0
1393 285 2 -5.3123712082063586 -1.489248318069619 -7.299248034358223 0 0 0
1394 285 4 -5.233963421997935 -1.172645592132216 -7.6782136436037405 0 0 0
354 71 3 -5.3804356753123015 -0.15538255795765826 -7.663564778083605 0 0 0
355 71 3 -4.943010037298076 -0.5594722511658272 -8.12429282265149 0 0 0
1586 349 4 -4.523599871445836 -0.49785932913432895 -8.14705497839689 0 0 0
2835 765 4 -4.405989868177045 -0.2664070406776826 -7.829712624398828 0 0 1
352 71 3 -4.65336790170118 -0.2605795176396606 -7.504800637767219 0 0 0
20 4 3 -9.423699469318752 -9.781295506654065 -6.22217230084537 0 0 0
1487 316 4 -8.964991707414582 -9.035849196818923 -5.938334946161081 0 0 0
1486 316 2 -9.181719814610034 -8.718593318386995 -5.618369893145038 0 0 0
27 6 3 -8.711144103897231 -9.313498164261373 -5.85741891539748 0 0 0
1488 316 4 -9.398447921805486 -8.401337439955068 -5.298404840128995 0 0 0
29 6 3 -8.314460473368992 -9.384810875723712 -6.49181358313533 0 0 0
26 6 1 -8.29595575467104 -9.412386226368145 -6.028999176031883 0 0 0
4727 1396 4 -7.762844493744818 -8.687034595178567 -6.464714899441709 1 1 1
30 6 3 -7.992020296854809 -9.114105507369915 -5.8675933206371225 0 0 0
28 6 3 -8.17914369807065 -9.84266728801391 -5.900495668602896 0 0 0
1356 272 4 -7.855384590324525 -9.369703632003533 -5.5975901354135305 0 0 0
1354 272 2 -7.486846527959915 -9.346626104694783 -5.2604742438832135 0 0 0
1661 374 4 -6.816462657138245 -9.569730114946626 -4.857782767484034 0 0 0
2585 682 4 -7.425321279247264 -8.47991506983864 -6.594108360781643 0 1 0
1716 392 4 -3.1141406751787257 -9.897953131142117 -5.685317455738723 0 0 0
1506 322 4 -2.9557809087857683 -9.514477507499137 -5.727176755785482 0 0 0
1504 322 2 -2.7163769963174036 -9.103412794446427 -5.573191144842316 0 0 0
1505 322 4 -2.476973083849039 -8.692348081393718 -5.4192055338991505 0 0 0
3369 943 4 -2.2384043522295984 -8.367298409601101 -5.336444720827804 0 0 0
4174 1212 2 -0.6797420610736511 -8.741066194504128 -5.118544501822592 0 1 0
3371 944 4 -9.448417275509032 -7.026206904970663 -6.420709143052502 1 0 0
43 9 3 -9.589873793554105 -8.079185851043132 -5.147187865102889 0 0 0
3370 944 2 -9.572687295692713 -7.286095237885426 -6.012034435616212 1 0 0
3372 944 4 -9.696957315876395 -7.545983570800188 -5.603359728179923 1 0 0
2584 682 2 -7.261095696370537 -8.141754429331685 -6.264445898343256 0 1 0
1563 341 4 -7.245149951913127 -7.9406042713410105 -5.5994239499104514 0 0 0
2586 682 4 -7.096870113493811 -7.803593788824731 -5.934783435904869 0 1 0
1561 341 2 -7.093611389960549 -8.083811551015662 -5.144970718774977 0 0 0
3367 943 2 -2.2287794515449555 -7.8926265121936545 -5.179620133792813 0 0 0
3368 943 4 -2.2191545508603125 -7.417954614786207 -5.0227955467578225 0 0 0
1581 347 4 -1.8585798842227597 -7.226491973697502 -4.955406656018961 0 0 0
4176 1212 4 -0.44670159573108464 -8.413299138458658 -5.415631860160909 0 1 0
1686 382 4 -0.08079119927155397 -7.24583201286275 -6.613995454958321 0 0 0
1800 420 4 -0.23145161716068474 -6.874972623867713 -6.608825395813829 0 0 0
3542 1001 4 -9.646312009512 -6.684022269629881 -6.4857267079320575 1 0 0
3541 1001 2 -9.890677815070873 -6.28587637676153 -6.6639546548576245 1 0 0
1435 299 2 -7.932459867389028 -6.243963307375093 -6.488683699550332 0 0 0
1436 299 4 -7.7817869709864995 -6.4479232836911144 -6.05775678422597 0 0 0
73 15 3 -6.158782169158153 -5.346216347037715 -5.110012403194952 0 0 0
1616 359 4 -5.560763973667909 -4.999689611928875 -5.57802538026479 0 0 0
75 15 3 -5.473462845610694 -5.042436564951146 -5.180406073140048 0 0 0
1482 314 4 -7.482996387327344 -4.2868443099771305 -6.592307954113264 0 0 0
3428 963 4 -7.764001597159792 -3.9916333296202984 -6.565094108415829 1 0 0
1617 359 4 -5.311385048182613 -4.183278442344485 -6.098873682269601 0 0 0
1615 359 2 -5.436074510925261 -4.59148402713668 -5.838449531267195 0 0 0
61 13 1 -5.166013887963519 -3.486910182358065 -6.45772217129453 0 0 0
62 13 3 -5.256315089448538 -3.78990025715064 -6.123592394728622 0 0 0
1513 325 2 -8.926280832054175 -2.1748410727597443 -6.003643214998784 0 0 0
1514 325 4 -8.577239168883507 -2.1003513410348646 -5.653470118889669 0 0 0
1515 325 4 -9.275322495224843 -2.249330804484624 -6.3538163111079 0 0 0
55 11 3 -8.217156923482122 -1.9441094181493004 -5.613751847745811 0 0 0
1768 410 2 -7.727197632552933 -2.567568821613643 -6.694195923732405 0 0 0
1638 366 4 -8.353382021790884 -1.9641802221987754 -6.509759434173775 0 0 0
1770 410 4 -8.14942506618657 -2.310109617021712 -6.620448027099347 0 0 0
1534 332 2 -6.754880245507006 -1.8477349683860387 -5.650241773018478 0 0 0
53 11 3 -7.46915507980314 -1.9226005602355072 -5.530501557147774 0 0 0
51 11 1 -7.8746166662167285 -1.7510160013581135 -5.3840104615206235 0 0 0
63 13 3 -5.542350410877993 -3.22481437263688 -6.528267249419647 0 0 0
2427 629 4 -5.547361164879074 -2.9017801812632005 -6.309759621365741 0 0 0
1535 332 4 -6.290816893828251 -2.0260360477801895 -5.596819579914572 0 0 0
2425 629 2 -5.834498907331786 -2.5558552809263695 -6.0909266252563485 0 0 0
2426 629 4 -6.121636649784497 -2.2099303805895385 -5.872093629146956 0 0 0
1545 335 4 -4.786857458513949 -2.823844264200798 -6.334092218171223 0 0 0
64 13 3 -4.809715012836368 -3.2203453936899376 -6.326214281698952 0 0 0
3300 920 4 -2.6246683036109695 -2.058457476001609 -5.642099546500322 0 0 0
1536 332 4 -7.218943597185761 -1.669433888991888 -5.703663966122384 0 0 0
2328 596 4 -7.031408494980878 -0.24606735813908234 -5.24792101529928 0 0 0
52 11 3 -7.87942987074777 -1.2970399501338605 -5.4580548939729665 0 0 0
1584 348 4 -7.433797795696561 -0.2467262411141063 -5.316541356983628 0 0 0
1582 348 2 -7.644497330308812 -0.6856315657656588 -5.202665011299778 0 0 0
1583 348 4 -7.855196864921062 -1.1245368904172113 -5.088788665615927 0 0 0
505 101 3 -5.769247884501849 -0.27862702659845384 -5.820952625049417 0 0 0
2326 596 2 -6.584622783108169 -0.27648938056388556 -5.470310377045894 0 0 0
2327 596 4 -6.1378370712354595 -0.3069114029886888 -5.692699738792507 0 0 0
501 101 1 -5.349201255285295 -0.10316967823512412 -5.834202085009279 0 0 0
502 101 3 -5.041757682248586 -0.44519778426251677 -5.8244438020739135 0 0 0
2704 722 2 -4.232184503722737 -0.4004811384321395 -5.67078940724679 0 0 0
2705 722 4 -4.681173318809389 -0.22101874277389688 -5.798077633222014 0 0 0
2706 722 4 -3.783195688636085 -0.5799435340903818 -5.543501181271566 0 0 0
2649 703 4 -3.4934902026390957 -0.29466900703725174 -5.567491437659211 0 0 0
468 94 3 -2.333068892772204 -0.07532839646640377 -6.741865043125226 0 0 0
3298 920 2 -2.758433114909441 -1.689314549309382 -5.332518418310734 0 0 0
2647 703 2 -3.114042940752427 -0.21401841546124545 -5.88295182744641 0 0 0
466 94 1 -2.1080253394319555 -0.10329065652979358 -6.337052109645856 0 0 0
2648 703 4 -2.7345956788657584 -0.13336782388523916 -6.19841221723361 0 0 0
469 94 3 -1.8015631617284358 -0.45145119045550064 -6.349904201063743 0 0 0
470 94 3 -2.4050965549528196 -0.17019438874610276 -5.998418703844666 0 0 0
3301 921 2 -1.7844996896565533 -1.0967796669142764 -5.825723894892871 0 0 0
3302 921 4 -1.6838895388887414 -1.3570933167582115 -5.410857167777854 0 0 0
3303 921 4 -1.8851098404243651 -0.8364660170703413 -6.240590622007888 0 0 0
79 16 3 -1.8773643094139487 -1.1984117826023095 -5.058604257557549 0 0 0
1733 398 4 -9.55066245145175 -8.63120944492752 -4.16451259089416 0 0 0
1732 398 2 -9.800308220176673 -8.977435851550641 -3.9041200688910647 0 0 0
45 9 3 -9.447775510839946 -8.423791954299682 -4.493005389300162 0 0 0
1442 301 4 -9.936418149031825 -1.8177465233384786 -0.0015299093437481925 0 0 0
1355 272 4 -7.118308465595304 -9.323548577386033 -4.9233583523528965 0 0 0
1562 341 4 -6.942072828007972 -8.227018830690314 -4.690517487639503 0 0 0
2170 544 2 -2.050099173142296 -9.86437914198012 -3.3371527112454165 0 0 0
4175 1212 4 -0.9127825264162175 -9.068833250549599 -4.821457143484276 0 1 0
41 9 1 -9.753174581555589 -8.177377495216167 -4.724114285624746 0 0 0
44 9 3 -9.84578503020122 -7.78466403530221 -4.494986715909048 0 0 0
1455 305 4 -6.288078874639206 -6.677593518799749 -3.6819037973386286 0 0 0
1623 361 4 -6.095813777359879 -6.7846946660130945 -3.340753534073727 0 0 0
1579 347 2 -2.001637473561656 -6.949698381085547 -4.564357000321596 0 0 0
1580 347 4 -2.144695062900553 -6.672904788473591 -4.173307344624232 0 0 0
832 167 3 -9.400268426104807 -5.752083633821484 -3.7880655365096247 1 0 0
831 167 1 -9.207055017635033 -5.883980684189873 -3.3919951552741243 1 0 0
833 167 3 -9.115982509316297 -6.338448452684739 -3.413555434220899 1 0 0
1512 324 4 -7.514805876965047 -6.027341449076882 -3.8829706938031956 0 0 0
1454 305 4 -7.150395696495892 -6.185458173091182 -3.8011199885519322 0 0 0
1510 324 2 -7.6286150867802505 -5.549932109355084 -3.978510141718936 0 0 0
1703 388 4 -7.793191535215861 -6.018398887002678 -3.59840594406011 0 0 0
1453 305 2 -6.719237285567549 -6.431525845945465 -3.7415118929452804 0 0 0
1702 388 2 -7.7911727647284295 -6.500253825210271 -3.464945301582805 0 0 0
1620 360 4 -6.482215574550375 -5.184400918619744 -4.90971457587672 0 0 0
71 15 1 -5.84252719157574 -5.068375702471546 -4.914852557474646 0 0 0
72 15 3 -5.723236636300015 -5.2428123696236835 -4.506267667182516 0 0 0
70 14 3 -2.043567216647214 -6.458386260388842 -3.8610181042412424 0 0 0
69 14 3 -1.6752436899997323 -5.805006400414965 -3.9268401240953317 0 0 0
66 14 1 -1.7084114800460566 -6.202251930906241 -3.689361943607437 0 0 0
3297 919 4 -1.5024949544217678 -5.694806823510781 -4.256601049794545 0 0 0
67 14 3 -1.3103855527583443 -6.4301630610749285 -3.7244600625269455 0 0 0
3295 919 2 -1.5218711382251637 -5.2218007984615324 -4.417504324366881 0 0 0
1651 371 2 -9.705913578109067 -3.452209221846706 -3.6376763650765565 0 0 0
103 21 3 -8.48384096145387 -4.6952334748401325 -4.874895924136599 0 0 0
1652 371 4 -9.314829376753135 -3.367342468071534 -3.337925165657332 0 0 0
1618 360 2 -6.93530899827502 -4.988429366582526 -4.830332586927752 0 0 0
1619 360 4 -7.388402421999664 -4.792457814545309 -4.750950597978784 0 0 0
1511 324 4 -7.742424296595454 -5.072522769633286 -4.074049589634677 0 0 0
105 21 3 -7.736202177285351 -4.606435742408624 -4.8677397294906255 0 0 0
101 21 1 -8.111230016990026 -4.6172687778450525 -4.609598750973859 0 0 0
102 21 3 -8.073776471232401 -4.957387698981527 -4.3021636335993865 0 0 0
104 21 3 -8.159291854017402 -4.215084751986071 -4.3832404748598 0 0 0
1758 406 4 -7.056596134241001 -3.740256152010772 -3.677134960608313 0 0 0
1592 351 4 -6.684190602840361 -3.5963024565677433 -3.632523984685764 0 0 0
1756 406 2 -7.404473520056902 -3.7454968762754044 -3.3180334996713303 0 0 0
74 15 3 -6.02152136415557 -4.645110039399121 -4.850764612847805 0 0 0
1803 421 4 -5.9065301361180085 -4.491597508742797 -4.500197364235414 0 0 0
1801 421 2 -5.642814564596637 -4.36429930844757 -4.094920587774072 0 0 0
89 18 3 -5.457455941370242 -4.5713369637848436 -3.458591968549283 0 0 0
1802 421 4 -5.379098993075266 -4.237001108152342 -3.68964381131273 0 0 0
1539 333 4 -5.169530360998729 -3.945860235217274 -3.4837101284614946 0 0 0
1537 333 2 -4.748169591562417 -3.738656548752519 -3.6555290281640946 0 0 0
1538 333 4 -4.326808822126105 -3.5314528622877646 -3.8273479278666946 0 0 0
3296 919 4 -1.5412473220285596 -4.748794773412285 -4.578407598939217 0 0 0
40 8 3 -0.146313309545367 -3.3581704354617674 -3.708055299642288 0 0 0
1576 346 2 -8.88840930138159 -2.7440856675122594 -3.3289543321156816 0 0 0
1578 346 4 -8.77421723400023 -2.2860566312369 -3.4937862879834984 0 0 0
3104 855 4 -8.569492740384929 -2.010089921228918 -3.7199483164179146 0 0 0
1401 287 4 -9.845454637226668 -2.2389699252281505 -4.807467520484984 0 0 0
1399 287 2 -9.855658579548166 -1.9049294827413041 -4.435563147905385 0 0 0
54 11 3 -7.924826872680525 -1.829397177719309 -4.92943887600376 0 0 0
2314 592 2 -6.768737970189216 -1.980517854503257 -3.8484125206742017 0 0 0
1591 351 2 -6.613733809926603 -3.1142624214463206 -3.7450994921130403 0 0 0
2316 592 4 -6.383971244985308 -2.2835297633922984 -3.9491018957209816 0 0 0
1593 351 4 -6.543277017012845 -2.632222386324898 -3.8576749995403166 0 0 0
3242 901 4 -4.2603537411366785 -3.157679889338596 -3.729402100631022 0 0 0
3241 901 2 -3.7663010041534353 -3.1051712469072195 -3.7855691332192167 0 0 0
3243 901 4 -3.272248267170192 -3.052662604475843 -3.8417361658074114 0 0 0
1484 315 4 -2.8987613886772943 -2.8963244651918 -3.8289019437208944 0 0 0
1483 315 2 -2.4804788047748665 -2.857565820648215 -3.5577240547314313 0 0 0
37 8 3 -0.028672125688498237 -2.7253730440987853 -3.33026168754047 0 0 0
36 8 1 -0.12755626251116892 -2.904433904792952 -3.7422800556410825 0 0 0
38 8 3 -0.5376265752955331 -2.739204048046511 -3.8831396772949702 0 0 0
78 16 3 -1.6004061947167552 -1.7675372124942985 -4.637901930782472 0 0 0
2511 657 4 -2.378392482726668 -0.40126985159602985 -0.7470695146659445 0 0 0
1400 287 4 -9.865862521869664 -1.570889040254457 -4.063658775325786 0 0 0
3103 855 2 -8.605874959377743 -1.5682057050116576 -3.48883216899665 0 0 0
415 83 3 -8.500838531350468 -0.8384028619080655 -3.5092303692721334 0 0 0
2315 592 4 -7.153504695393123 -1.6775059456142152 -3.7477231456274223 0 0 0
1611 357 4 -7.761289602709849 -1.4437214778161778 -4.83571355954418 0 0 0
1609 357 2 -7.641868474244865 -1.4927898250876013 -4.352670195681453 0 0 0
1610 357 4 -7.522447345779882 -1.5418581723590248 -3.8696268318187257 0 0 0
522 105 3 -7.763745498445989 -1.314653490808484 -3.602318391239527 0 0 0
525 105 3 -7.030323256458008 -1.3934594664760296 -3.4888219897292454 0 0 0
3299 920 4 -2.892197926207913 -1.3201716226171554 -5.0229372901211455 0 0 0
2568 676 4 -2.9821989867452077 -0.40068503829615637 -4.261336406379017 0 0 0
2566 676 2 -3.094096176156207 -0.7503840866720373 -4.600732332351131 0 0 0
3506 989 4 -2.7219239230119627 -0.10854358335477159 -4.348807271995197 0 0 0
2567 676 4 -3.2059933655672057 -1.100083135047918 -4.940128258323247 0 0 0
3505 989 2 -2.236283413549567 -0.000874218223834659 -4.39940967688833 0 0 0
77 16 3 -2.2014687783674285 -1.380765468254728 -4.405455402752089 0 0 0
76 16 1 -1.7993678296815279 -1.3485086159185722 -4.626530780267051 0 0 0
1701 387 4 -0.9297935867984787 -0.19746901691884317 -4.422613112744579 0 0 0
80 16 3 -1.5301841474246536 -1.0546114371721673 -4.4061570215487045 0 0 0
1699 387 2 -1.1298992407587345 -0.6155064506824535 -4.23499000322604 0 0 0
1700 387 4 -1.3300048947189906 -1.0335438844460638 -4.0473668937075 0 0 0
3603 1021 4 -9.514456285158401 -8.826295560362022 -3.059321190161768 1 0 0
485 97 3 -8.496378287466651 -9.932531485242436 -3.3520399130032787 0 1 0
3601 1021 2 -9.46651734514029 -8.39840358766356 -2.8051355931474 1 0 0
1903 455 2 -4.73762828500396 -9.810430106365535 -2.7053510457446266 0 0 0
1904 455 4 -4.676966814706575 -9.325900086115473 -2.597876185900845 0 0 0
2406 622 4 -4.8076468077266705 -8.966928138329108 -2.692682313094931 0 1 0
2404 622 2 -4.346041572835691 -8.79152941816723 -2.614222794318317 0 1 0
2405 622 4 -3.884436337944711 -8.616130698005351 -2.5357632755417043 0 1 0
49 10 3 -3.7651110907092167 -8.816617024214288 -2.1894484018403793 0 0 0
46 10 1 -3.3324463206475206 -8.86047246836471 -2.027652552803827 0 0 0
47 10 3 -3.2400348236401975 -9.307317191478633 -1.9694296308079104 0 0 0
2172 544 4 -2.076492917071387 -9.452579823244186 -3.054797099701453 0 0 0
2379 613 4 -3.2351097196075456 -9.710466252057795 -1.9906911926996276 0 1 0
100 20 3 -2.196776175074586 -8.925511364259702 -2.068445774761733 0 0 0
98 20 3 -2.1454916932578145 -9.184902549740086 -2.773418196079674 0 0 0