LAMMPS data file via write_data, version 27 Jun 2024, timestep = 1000000, units = lj

4560 atoms
4 atom types
3060 bonds
1 bond types

-9.998647 9.998647 xlo xhi
-9.998647 9.998647 ylo yhi
-9.998647 9.998647 zlo zhi

Masses

1 1
2 1
3 0.5
4 0.5

Bond Coeffs # zero

1 0

Atoms # bond

787 243 2 -9.681035475186235 -8.841426602358526 -8.785836064890486 0 0 1
789 243 4 -9.613415293653473 -9.068338742004439 -9.226220433290628 0 0 1
1232 391 4 -9.36834790494363 -8.85900896988108 -9.451277313317558 0 0 1
1231 391 2 -9.468161813716286 -8.763877331751047 -9.931888543983508 0 0 1
788 243 4 -9.748655656718997 -8.614514462712613 -8.345451696490343 0 0 1
636 192 4 -6.68136757492063 -0.11949794020566576 -1.4285113441965225 0 0 0
2245 729 2 -3.4312954348815863 -8.738108171888268 -9.091203602519336 0 1 1
2246 729 4 -3.8809818965309772 -8.888262303953768 -8.932345732606995 0 1 1
2975 972 4 -4.235392946353258 -8.767664920496719 -8.75283775729685 0 0 0
2974 972 2 -4.511985311737035 -8.516039368455097 -8.420902153645995 0 0 0
2247 729 4 -2.9816089732321953 -8.587954039822767 -9.250061472431677 0 1 1
2375 772 4 -2.8943798781832504 -8.48187885264122 -9.625114053383813 0 1 1
2374 772 2 -2.599471316820689 -8.666343999213563 -9.984281911265182 0 1 1
4002 1314 4 -0.903499923099049 -9.88062182145651 -9.603581080529727 0 1 0
4001 1314 4 -0.20965968095133752 -9.47207086179145 -9.010561829803029 0 1 0
4000 1314 2 -0.5565798020251933 -9.67634634162398 -9.307071455166378 0 1 0
901 281 2 -7.508487429019328 -7.670303594447736 -9.722116685658293 0 0 1
903 281 4 -7.905022233421521 -7.759333424172639 -9.430854195253126 0 0 1
321 87 4 -7.919741625608511 -7.589903069777241 -9.094573658170889 0 0 0
319 87 2 -8.043581820611083 -7.485137575469852 -8.62161721482301 0 0 0
908 283 4 -3.9687540322121366 -6.845567999848627 -9.833063983527454 0 0 1
2915 952 4 -3.6205985620656094 -6.950571514692082 -9.655490140046089 0 0 0
2914 952 2 -3.2546563419573387 -7.081530456034346 -9.970031150447817 0 0 0
3621 1187 4 -0.19905479068327675 -7.916309044508953 -8.903339968271107 0 1 0
4216 1386 2 -9.489187846948704 -6.021869255526129 -8.688907845997393 1 0 0
4217 1386 4 -9.051373479800276 -6.095886410987748 -8.459038229440903 1 0 0
4218 1386 4 -9.927002214097133 -5.94785210006451 -8.918777462553884 1 0 0
3174 1038 4 -8.232375867705754 -5.722969064617233 -9.631652627663874 1 0 1
2012 651 4 -5.895009656095472 -6.587785933218912 -8.304892349487583 0 1 1
1809 583 4 -5.8448029930710055 -6.320147585136365 -8.60214248777977 0 0 0
1807 583 2 -5.510829772771566 -6.3215059819614545 -8.974244681915897 0 0 0
1808 583 4 -5.176856552472127 -6.322864378786544 -9.346346876052024 0 0 0
2508 816 4 -5.099781061612566 -5.9434634330089375 -9.357746604214736 0 0 1
2506 816 2 -5.097067221544824 -5.633889395942667 -9.750374354949237 0 0 1
3247 1063 2 -0.8168962959400397 -5.266263982955577 -9.608088400774996 0 0 1
3248 1063 4 -1.0177549246767579 -5.393224840799189 -9.168160279557815 0 0 1
3298 1080 2 -3.5362521914125304 -0.048091024138381365 -1.7607194054442405 1 0 0
638 193 4 -9.006875361234204 -4.216349883389482 -8.777047070648953 0 0 0
1329 423 4 -0.03616156324249485 -5.46918893869034 -1.0268509609722332 0 0 0
340 94 2 -8.55248651248293 -4.0850370613119855 -9.744140653470993 0 0 0
342 94 4 -8.583530833485955 -4.371122585229363 -9.335250297582643 0 0 0
1728 556 4 -5.953094005722398 -4.31997630686975 -8.32120564542182 0 0 0
3798 1246 4 -4.702347993802317 -4.103552793015609 -8.180324826978428 0 1 0
816 252 4 -1.955144574186244 -3.7719577627012644 -9.35091114544375 0 0 1
814 252 2 -2.183713499616621 -4.184884990388115 -9.51597886173777 0 0 1
3396 1112 4 -3.0216600468316726 -4.149247683993786 -8.26273427191178 0 0 1
361 101 2 -3.4614937905684364 -3.4940202844201527 -8.43221277641885 0 0 0
15 3 3 -2.2702407968944254 -3.537383749427769 -9.347432212063636 0 0 0
363 101 4 -3.327864217793038 -3.935293528158964 -8.238767534450906 0 0 0
560 167 4 -2.4838647001726026 -4.9563431378380916 -9.823530688738709 0 0 0
1071 337 4 -4.165670473757754 -2.4892410333367927 -9.024263048563425 0 0 1
1069 337 2 -3.689165079575019 -2.3390343159854825 -9.043770774660237 0 0 1
13 3 3 -1.9998794968640532 -2.8390854678408037 -9.26879203544625 0 0 0
1070 337 4 -3.212659685392284 -2.1888275986341723 -9.063278500757049 0 0 1
14 3 3 -2.738121015826804 -2.950868313976178 -9.410580804357185 0 0 0
1709 550 4 -2.9680418412781586 -1.8806222084029947 -9.252811129687018 0 0 0
11 3 1 -2.3081791708037214 -3.106418671500931 -9.489663648084553 0 0 0
12 3 3 -2.2241684294649637 -3.088054756782864 -9.941554079467958 0 0 0
2550 830 4 -1.8248372910007815 -2.6943026030007164 -8.897770965216106 0 0 0
2549 830 4 -0.872183463007074 -2.9554965059822553 -9.05342580469897 0 0 0
2548 830 2 -1.3485103770039277 -2.824899554491486 -8.975598384957538 0 0 0
962 301 4 -6.507000294892045 -1.267228876898113 -8.472182278196902 0 0 1
839 260 4 -6.3739606402018625 -0.9860778840076114 -8.735904985289318 0 0 1
840 260 4 -5.5782301461889885 -1.017607787776189 -9.340734586140828 0 0 1
838 260 2 -5.9760953931954255 -1.0018428358919003 -9.038319785715073 0 0 1
372 104 4 -5.278720332234892 -0.002152423149226146 -8.724778803793043 0 0 0
2105 682 4 -3.354419567653914 -0.7952701593202061 -9.208911292434022 0 1 1
2104 682 2 -3.7252491247753263 -0.8626228366196167 -9.537467309614874 0 1 1
2106 682 4 -4.0960786818967385 -0.9299755139190273 -9.866023326795725 0 1 1
1283 408 4 -4.945453676841774 -0.07601311661463347 -8.902397882533258 0 0 0
1708 550 2 -2.7031693290336096 -1.6247985392147315 -9.591037093415679 0 0 0
3100 1014 2 -1.75011785830325 -0.9446909887649442 -9.22900945957021 0 0 1
3102 1014 4 -1.7428710195428867 -0.9019064583479833 -8.730896051514613 0 0 1
3101 1014 4 -1.7573646970636132 -0.987475519181905 -9.727122867625809 0 0 1
155 32 4 -0.3986758070188959 -0.41918586979046074 -8.973382055917137 0 0 0
154 32 2 -0.3506288121862996 -0.7724829197864704 -9.323914052675704 0 0 0
156 32 4 -0.3025818173537034 -1.12577996978248 -9.674446049434271 0 0 0
589 177 2 -6.931821976272437 -0.013152100206041378 -7.276971636444951 0 0 0
1746 562 4 -9.319912620491591 -9.161950193176422 -7.21308928986564 0 1 0
976 306 2 -8.848902622239452 -9.41418503628646 -6.711734622800967 0 0 1
977 306 4 -9.172932097006806 -9.05875156786481 -6.848379963035111 0 0 1
1744 562 2 -9.771076536637542 -9.298144328819246 -7.380129040177596 0 1 0
2201 714 4 -7.786254080653867 -9.889340676917442 -7.614778036530453 0 1 1
978 306 4 -8.524873147472098 -9.76961850470811 -6.5750892825668235 0 0 1
255 65 4 -9.941874083030683 -4.42468222347654 -4.6012795803919975 0 0 0
434 125 4 -5.20168496619658 -9.809940402409 -7.462613323861217 0 0 0
4010 1317 4 -9.808053902582758 -4.01692710977057 -7.575293604026419 1 0 1
4512 1484 4 -3.8082372636089845 -9.752724433754771 -8.038927006317975 0 0 1
3238 1060 2 -4.266564512813457 -9.60115722494452 -7.361750823439084 0 0 1
3239 1060 4 -4.016564418533878 -9.866018902889905 -7.704312123670089 0 0 1
3240 1060 4 -4.516564607093037 -9.336295546999136 -7.0191895232080785 0 0 1
3542 1161 4 -4.2474042605985085 -9.347192846856105 -6.739180827016623 0 1 0
2976 972 4 -4.788577677120813 -8.264413816413475 -8.08896654999514 0 0 0
1945 629 2 -0.10387546567726014 -9.19599108130223 -6.735646443446307 0 1 1
1946 629 4 -0.06207863985165512 -9.432766345532285 -7.174041812490984 0 1 1
4029 1323 4 -1.5748601038908303 -9.879299105760733 -7.556831931868329 0 1 1
2654 865 4 -9.501719025880334 -8.309146818420448 -8.3311333478264 1 0 0
2707 883 2 -8.666923063426342 -6.635302933449763 -8.07781559594544 1 0 0
2708 883 4 -8.444851574714814 -7.083277211851193 -8.075999062960218 1 0 0
2653 865 2 -9.454406817830856 -8.238505397298487 -7.838415026073042 1 0 0
2655 865 4 -9.407094609781378 -8.167863976176527 -7.345696704319683 1 0 0
3924 1288 4 -9.747403894758632 -8.344363684799646 -7.184633906677234 1 1 0
3922 1288 2 -9.989013237336566 -8.05395066111804 -6.857089709270016 1 1 0
320 87 4 -8.167422015613655 -7.380372081162463 -8.14866077147513 0 0 0
1647 529 4 -5.329166325390029 -6.768250235820818 -7.382196453823302 0 0 0
2011 651 2 -5.618214263327615 -6.833236747578562 -7.968532113620685 0 1 1
2013 651 4 -5.341418870559758 -7.078687561938212 -7.6321718777537875 0 1 1
863 268 4 -4.628262863156412 -8.178534707381925 -7.00001230386054 0 0 0
864 268 4 -5.077909869119741 -8.070366601904247 -7.88664482694184 0 0 0
862 268 2 -4.8530863661380765 -8.124450654643086 -7.44332856540119 0 0 0
1125 355 4 -4.365647285827018 -8.110524114311858 -6.703342124161003 0 0 1
359 100 4 -1.8285169411281703 -7.31851152029252 -7.284561769979961 0 0 0
358 100 2 -1.8780377444666003 -7.591762718003771 -6.868771590940032 0 0 0
2709 883 4 -8.88899455213787 -6.187328655048333 -8.079632128930662 1 0 0
815 252 4 -2.412282425046998 -4.597812218074965 -9.68104657803179 0 0 1
404 115 4 -9.181957285906236 -5.200086165569209 -6.962112483648981 0 0 0
403 115 2 -9.457763897550706 -5.61431044109444 -6.913646386852254 0 0 0
405 115 4 -9.733570509195175 -6.028534716619671 -6.865180290055528 0 0 0
239 60 4 -7.03103631512929 -6.415257444156992 -6.8340199481073185 0 0 0
238 60 2 -6.75885098230439 -6.120771123657456 -6.535368057717085 0 0 0
1645 529 2 -4.9944685697576325 -6.847129783074924 -7.019215146591623 0 0 0
1646 529 4 -4.659770814125236 -6.9260093303290295 -6.6562338393599445 0 0 0
291 77 4 -3.6722449070361085 -5.884841045294328 -7.95404597405548 0 0 0
289 77 2 -3.834874286482232 -6.15189867308423 -7.563876897397669 0 0 0
290 77 4 -3.997503665928355 -6.418956300874132 -7.173707820739858 0 0 0
872 271 4 -4.18370830313943 -5.36465530708844 -7.020662574389269 0 0 0
871 271 2 -4.0109469126904385 -5.069467875980183 -6.655946407369257 0 0 0
907 283 2 -4.346861554833881 -6.519080476737725 -9.854054423961326 0 0 1
1673 538 4 -0.27257085114407503 -6.25311379323488 -7.0624133249153935 0 1 0
1830 590 4 -9.526274940580631 -3.919126257859913 -7.3038948333106255 0 1 0
1829 590 4 -9.198334312796295 -4.829143594636201 -7.050274267474233 0 1 0
1828 590 2 -9.362304626688463 -4.374134926248057 -7.177084550392429 0 1 0
855 265 4 -8.764328274994497 -3.5338856982274405 -7.609527283015133 0 0 1
853 265 2 -8.408077440938552 -3.648799778378197 -7.278045613208824 0 0 1
637 193 2 -8.85826220397417 -3.962544479698812 -8.372699514026255 0 0 0
639 193 4 -8.709649046714137 -3.7087390760081425 -7.9683519574035575 0 0 0
1173 371 4 -7.700145022400925 -3.6329447518021785 -6.829588463602241 0 0 1
854 265 4 -8.051826606882607 -3.7637138585289533 -6.946563943402515 0 0 1
1726 556 2 -6.088554645591198 -4.107315783288532 -7.889434969302614 0 0 0
1727 556 4 -6.2240152854599975 -3.8946552597073127 -7.457664293183408 0 0 0
477 139 4 -6.0388299145958655 -3.878757612998627 -7.117685879609718 0 0 0
475 139 2 -5.775092063532554 -3.5434189556313886 -6.85693632392166 0 0 0
3796 1246 2 -4.965496508053067 -4.409091040373551 -7.884691204315097 0 1 0
3797 1246 4 -5.228645022303817 -4.714629287731492 -7.589057581651767 0 1 0
3394 1112 2 -2.5348682111931935 -4.066877689784937 -8.183684333204376 0 0 1
3395 1112 4 -2.0480763755547144 -3.984507695576087 -8.104634394496971 0 0 1
366 102 4 -1.6416797321676286 -4.075093049097989 -8.046358402935846 0 0 0
364 102 2 -1.295209533995146 -4.062433130282754 -7.686083329923748 0 0 0
365 102 4 -0.9487393358226635 -4.049773211467519 -7.32580825691165 0 0 0
272 71 4 -9.817871146006338 -1.6719597473984087 -7.325922687796052 0 0 0
799 247 2 -9.380073157363551 -2.3210259484888254 -7.314232659878544 0 0 1
801 247 4 -9.289482245600874 -2.7525427189699414 -7.078464630876556 0 0 1
800 247 4 -9.470664069126228 -1.8895091780077096 -7.550000688880533 0 0 1
3293 1078 4 -9.126698705337262 -1.7381167768923416 -7.3718712988429544 1 0 0
1397 446 4 -7.524461530751493 -1.6587949299276359 -8.001458475620794 0 0 0
2015 652 4 -8.094749556334632 -1.8254806840419981 -6.731997520347739 0 0 1
362 101 4 -3.595123363343834 -3.052747040681342 -8.625658018386796 0 0 0
2720 887 4 -1.7449927373170757 -2.04078211974 -7.685340785166342 0 0 0
2719 887 2 -1.3220996892642265 -2.304533072901362 -7.645379496212601 0 0 0
2721 887 4 -0.8992066412113773 -2.568284026062724 -7.60541820725886 0 0 0
2808 916 4 -0.5513502756789289 -2.7670848333423237 -7.7076133728733485 0 0 0
2806 916 2 -0.20639576990053404 -2.4109461968250434 -7.643024979775414 0 0 0
3292 1078 2 -8.770032509746185 -1.402940205614218 -7.474076440536944 1 0 0
3294 1078 4 -8.413366314155109 -1.0677636343360937 -7.576281582230933 1 0 0
1396 446 2 -7.690694028862476 -1.7215823130596852 -7.534099404786422 0 0 0
1398 446 4 -7.856926526973458 -1.7843696961917346 -7.0667403339520485 0 0 0
2469 803 4 -8.165533630789364 -0.7582601387207903 -7.611137312775121 1 0 0
2467 803 2 -8.019611545901071 -0.2811484873993393 -7.578407856393948 1 0 0
963 301 4 -7.338200942031387 -1.807064756415298 -8.339205936762587 0 0 1
961 301 2 -6.922600618461716 -1.5371468166567055 -8.405694107479745 0 0 1
591 177 4 -7.170074755179707 -0.4526333269115985 -7.2673870281474935 0 0 0
797 246 4 -5.39501274444314 -0.9352140698687791 -6.736013927027233 0 0 1
796 246 2 -5.853213483424222 -0.7671073547587874 -6.627421960786626 0 0 1
765 235 4 -4.988893228456743 -0.9233405182278556 -6.821345477963217 0 0 1
763 235 2 -4.712776477590129 -0.5888174737891968 -6.572641089923234 0 0 1
1521 487 4 -1.8433609933004513 -1.1360759806635525 -8.408961857641929 0 0 0
1520 487 4 -1.1620903592960272 -1.1320880012918515 -7.676941079750523 0 0 0
1519 487 2 -1.5027256762982393 -1.134081990977702 -8.042951468696225 0 0 0
2273 738 4 -6.2908237200627415 -8.768819886087487 -5.885397363464552 0 1 1
3541 1161 2 -4.089390875807931 -9.254631613436239 -6.273923706388873 0 1 0
887 276 4 -4.1773019603469335 -9.93699083938982 -6.500131718385818 0 0 1
3543 1161 4 -3.931377491017354 -9.162070380016372 -5.808666585761122 0 1 0
230 57 4 -2.9003166404539953 -8.685182962024372 -5.588543340415592 0 0 0
2879 940 4 -2.838482970943108 -9.049254521090196 -5.7794298735826715 0 0 0
2878 940 2 -2.49351869239306 -9.388029718674813 -5.906830862691949 0 0 0
2880 940 4 -2.148554413843012 -9.72680491625943 -6.034231851801227 0 0 0
438 126 4 -1.8966907587727149 -9.666560493809259 -5.728649260809072 0 0 0
1947 629 4 -0.14567229150286515 -8.959215817072176 -6.297251074401631 0 1 1
436 126 2 -1.4280858813882957 -9.528489432696961 -5.622132356165641 0 0 0
437 126 4 -0.9594810040038761 -9.390418371584664 -5.515615451522209 0 0 0
2632 858 2 -6.873903723117416 -7.120331300751025 -5.007147485280188 0 0 0
2633 858 4 -7.205276630181228 -6.761548851057447 -5.114232265972685 0 0 0
2272 738 2 -6.037610778448911 -8.385426701561562 -6.0826101223277425 0 1 1
2274 738 4 -5.78439783683508 -8.002033517035636 -6.279822881190933 0 1 1
1124 355 4 -4.439367906903897 -7.1394512373526355 -6.476223790110132 0 0 1
1614 518 4 -4.323507556511595 -6.964821819770647 -6.139708438755355 0 1 0
1123 355 2 -4.402507596365457 -7.624987675832247 -6.589782957135568 0 0 1
231 57 4 -2.731105529076046 -8.00363917931473 -6.300488332697828 0 0 0
229 57 2 -2.8157110847650206 -8.344411070669551 -5.94451583655671 0 0 0
360 100 4 -1.92755854780503 -7.865013915715022 -6.452981411900104 0 0 0
240 60 4 -6.486665649479489 -5.826284803157921 -6.236716167326852 0 0 0
1445 462 4 -5.353995390252001 -5.845659063374164 -5.336655715949299 0 1 0
474 138 4 -6.316557229435822 -5.514763769442717 -6.027253592184764 0 0 0
472 138 2 -6.031295359341347 -5.707973430308129 -5.664906117489091 0 0 0
473 138 4 -5.746033489246872 -5.901183091173541 -5.302558642793417 0 0 0
1612 518 2 -3.968702407738469 -6.666450790056173 -6.327026443845877 0 1 0
1444 462 2 -4.900829913185159 -5.942965533742699 -5.149112384371766 0 1 0
3103 1015 2 -3.7224152232786385 -5.185878258735978 -5.469092111623108 0 0 0
1613 518 4 -3.613897258965343 -6.368079760341699 -6.5143444489363995 0 1 0
507 149 4 -1.8221435974848799 -6.135088076944507 -5.2120973012171055 0 0 0
1258 400 2 -0.26865032554105617 -5.641866361006736 -5.296511984855627 0 0 0
1259 400 4 -0.23273018227154812 -5.638613609339854 -5.7952094511756576 0 0 0
1672 538 2 -0.29156472368927766 -6.0245254205083025 -6.618131220099247 0 1 0
417 119 4 -0.981766237574104 -5.1508358397380185 -6.786692129430148 0 0 0
1674 538 4 -0.3105585962344803 -5.795937047781725 -6.173849115283101 0 1 0
1171 371 2 -7.378581726215937 -3.9037316749472697 -6.558901395569171 0 0 1
277 73 2 -6.910849662457689 -4.213395667900818 -5.571086213634381 0 0 0
278 73 4 -7.0219008041409126 -3.923362525904602 -5.962938763038695 0 0 0
1172 371 4 -7.057018430030949 -4.174518598092361 -6.2882143275361 0 0 1
279 73 4 -6.799798520774466 -4.503428809897034 -5.1792336642300665 0 0 0
3104 1015 4 -3.8025079932965955 -4.944465821997762 -5.899562997489707 0 0 0
873 271 4 -3.8381855222414463 -4.774280444871926 -6.291230240349244 0 0 0
128 26 3 -3.9442985601261626 -4.023576612787612 -5.693334800890434 0 0 1
129 26 3 -3.678717872757464 -3.765829133738821 -6.357136831273576 0 0 1
126 26 1 -3.60908110793964 -3.776944711447202 -5.898522434510976 0 0 1
127 26 3 -3.620226018877261 -3.3467746749013827 -5.735950817620551 0 0 1
3920 1287 4 -2.508609363275491 -4.345640420897291 -6.79025877102049 0 1 0
3919 1287 2 -2.6940094248522186 -4.274305113684192 -6.331414471598249 0 1 0
3921 1287 4 -2.8794094864289463 -4.202969806471093 -5.872570172176008 0 1 0
130 26 3 -3.2026906842425267 -3.9612235074552045 -5.807483163483972 0 0 1
213 51 4 -2.49364161587534 -3.923620210595541 -4.813062705673511 0 0 0
415 119 2 -0.6035874603057055 -4.89331221287488 -6.585042943884795 0 0 0
1029 323 4 -0.9029680697568658 -4.2056885712229555 -6.089444795311445 0 0 0
416 119 4 -0.2254086830373071 -4.635788586011742 -6.383393758339442 0 0 0
1027 323 2 -0.9775282052168697 -4.144982087871837 -5.598776364414026 0 0 0
1028 323 4 -1.0520883406768735 -4.084275604520718 -5.1081079335166075 0 0 0
2014 652 2 -8.023345466212024 -1.9137013387660258 -6.245049297233606 0 0 1
2016 652 4 -7.951941376089416 -2.001921993490053 -5.758101074119472 0 0 1
476 139 4 -5.511354212469243 -3.20808029826415 -6.596186768233602 0 0 0
2327 756 4 -5.378423824024793 -3.2075209755443397 -6.2290184025712945 0 0 1
2328 756 4 -5.790640866427738 -3.0341290594324417 -5.334584305849529 0 0 1
2993 978 4 -5.58598113003616 -3.0689697066852824 -4.979946882766429 1 0 0
2326 756 2 -5.584532345226266 -3.1208250174883907 -5.781801354210412 0 0 1
3501 1147 4 -3.4101986620848592 -3.0249331541166913 -5.815056207543366 0 0 0
3499 1147 2 -3.0200483809896204 -2.7143401212850264 -5.778797055348392 0 0 0
3500 1147 4 -2.6298980998943815 -2.4037470884533616 -5.742537903153417 0 0 0
798 246 4 -6.311414222405303 -0.5990006396487958 -6.51882999454602 0 0 1
2476 806 2 -0.1666187598052694 -0.6618022911014644 -6.466761659884694 0 0 0
764 235 4 -4.436659726723515 -0.25429442935053803 -6.323936701883251 0 0 1
1456 466 2 -2.719798171689374 -0.24067396567116195 -5.17737448547465 0 1 0
1200 380 4 -0.9345622675536813 -0.5193914599289782 -0.14176615346499544 0 0 0
1790 577 4 -0.2543369069311408 -0.8184111704882144 -5.0636763206969535 0 0 0
2478 806 4 -0.5764524317122113 -0.3795548475400375 -6.515472459246542 0 0 0
3537 1159 4 -0.06550440079686988 -0.9299684010376226 -5.387532763220572 0 0 0
2438 793 4 -9.482876898591744 -9.672416732603994 -4.816652805760999 1 0 0
2437 793 2 -9.034942716550267 -9.497729301446565 -4.679396585666581 1 0 0
2439 793 4 -8.58700853450879 -9.323041870289137 -4.542140365572163 1 0 0
4329 1423 4 -1.066082073099058 -9.067514591414076 -4.3577017596067185 0 1 0
3333 1091 4 -9.239049076321127 -7.6269087880141075 -3.8036125273982138 0 0 1
3331 1091 2 -8.75860059190766 -7.4909207738761605 -3.777602647816041 0 0 1
3332 1091 4 -8.278152107494195 -7.3549327597382135 -3.7515927682338686 0 0 1
2620 854 2 -6.4535371841806715 -7.923936006700096 -4.189885865398501 1 0 0
2622 854 4 -6.603729930832762 -7.561347911312033 -4.499679364258683 1 0 0
2634 858 4 -6.542530816053604 -7.479113750444603 -4.900062704587691 0 0 0
2621 854 4 -6.3033444375285805 -8.286524102088158 -3.8800923665383182 1 0 0
4256 1399 4 -6.545482267223353 -8.325356705065358 -3.565256098804057 1 1 0
623 188 4 -1.661947670140444 -7.143777241386379 -4.506989059686105 0 0 0
506 149 4 -1.9787271694971529 -7.0013346202766 -4.737651823695246 0 0 0
1740 560 4 -0.6747869707181974 -7.743005316128555 -1.9902196708898834 0 1 0
4327 1423 2 -1.0385703935640502 -8.581088849488214 -4.245304672985446 0 1 0
4328 1423 4 -1.0110587140290426 -8.094663107562353 -4.1329075863641735 0 1 0
624 188 4 -1.340743600353699 -7.962750475577382 -4.0314779796563736 0 0 0
622 188 2 -1.5013456352470715 -7.5532638584818805 -4.269233519671239 0 0 0
254 65 4 -9.058459796391613 -4.87528735347133 -4.472694141931384 0 0 0
3566 1169 4 -9.21755475819201 -5.217040109864184 -4.52142393438207 1 1 0
3565 1169 2 -9.003833023831499 -5.568710445331949 -4.2374327454097065 1 1 0
3567 1169 4 -8.790111289470987 -5.920380780799714 -3.953441556437343 1 1 0
3202 1048 2 -6.969196696002952 -5.481201458743431 -4.098888299823955 1 0 1
3204 1048 4 -6.945007711157314 -5.603138492006397 -4.583188055069605 1 0 1
3203 1048 4 -6.993385680848591 -5.3592644254804656 -3.6145885445783033 1 0 1
2378 773 4 -6.844086778663029 -5.442181782623656 -3.2195829807834535 0 0 0
1446 462 4 -4.447664436118318 -6.040272004111234 -4.961569052794233 0 1 0
3105 1015 4 -3.642322453260681 -5.427290695474194 -5.038621225756509 0 0 0
759 233 4 -3.5321333898969343 -5.385554765305118 -4.638078012749509 0 0 0
757 233 2 -3.5374548333115574 -5.384914027546219 -4.138106741879715 0 0 0
758 233 4 -3.5427762767261806 -5.38427328978732 -3.63813547100992 0 0 0
505 149 2 -1.9004353834910164 -6.568211348610554 -4.974874562456176 0 0 0
4184 1375 4 -0.3527904449573253 -5.508904708762942 -4.443750523855698 0 1 1
4183 1375 2 -0.09555401173859583 -5.696685694246933 -4.058305691336866 0 1 1
1260 400 4 -0.3045704688105642 -5.645119112673618 -4.7978145185355965 0 0 0
444 128 4 -9.736093083884292 -4.085427785896893 -3.09063578067474 0 0 0
253 65 2 -9.500166939711148 -4.649984788473935 -4.53698686116169 0 0 0
1198 380 2 -0.5603811906104622 -0.8321059181999 -0.2522115664339607 0 0 0
182 41 4 -6.670064668108082 -4.454573798738226 -4.811589839580722 0 0 0
195 45 4 -7.653066323704098 -3.2902775249122853 -2.8039674203403644 0 0 0
183 41 4 -5.720529672507381 -4.481195179304603 -4.499060490196798 0 0 0
181 41 2 -6.1952971703077315 -4.467884489021414 -4.65532516488876 0 0 0
301 81 2 -5.288271791349516 -4.254347838133049 -4.040970564341817 0 0 0
302 81 4 -5.50318278038154 -3.8865171891465753 -4.302722126819513 0 0 0
2994 978 4 -5.276260969816889 -3.592536683425132 -4.186252329918265 1 0 0
303 81 4 -5.073360802317492 -4.622178487119523 -3.77921900186412 0 0 0
603 181 4 -3.9835416505446104 -3.5678460969815124 -3.6379575817074263 0 0 0
601 181 2 -3.662978566097504 -3.371142445451047 -3.967422272325459 0 0 0
212 51 4 -1.6886291078148878 -4.447774120776488 -4.5351822632019 0 0 0
211 51 2 -2.091135361845114 -4.1856971656860145 -4.674122484437706 0 0 0
80 16 3 -2.5674006436195214 -3.560816165126706 -4.932279610030715 0 0 0
139 28 3 -1.9125536206531553 -4.204167496990306 -3.4055576254316704 0 0 0
77 16 3 -2.9727534654759693 -3.348300102597727 -4.342766240393766 0 0 0
4244 1395 4 -0.9737699135508991 -4.293189965161569 -4.76629104653644 0 0 1
4245 1395 4 -1.0610474576175535 -4.335083909074526 -3.770988314818619 0 0 1
4243 1395 2 -1.0174086855842264 -4.314136937118048 -4.26863968067753 0 0 1
140 28 3 -1.2883391236098451 -4.586804297605208 -3.5811860414016925 0 0 0
3186 1042 4 -8.898186725189982 -1.614159954740047 -4.306569074309915 1 0 1
194 45 4 -8.368899420697295 -3.1534650162738287 -3.488704826014173 0 0 0
193 45 2 -8.010982872200696 -3.221871270593057 -3.1463361231772686 0 0 0
2992 978 2 -5.431121049926524 -3.330753195055207 -4.583099606342347 1 0 0
3474 1138 4 -6.28146321497259 -2.39369248860437 -4.532455447064095 1 0 0
3472 1138 2 -6.541252659009871 -1.990311320236418 -4.391767573483041 1 0 0
602 181 4 -3.3424154816503973 -3.1744387939205816 -4.296886962943492 0 0 0
78 16 3 -2.9857879825555065 -2.936038575517224 -4.971073915545263 0 0 0
76 16 1 -2.720396510514007 -3.2013768637951387 -4.698194895938419 0 0 0
79 16 3 -2.3627742864091172 -2.954073361597756 -4.536184641240205 0 0 0
3184 1042 2 -8.78673161725628 -1.2452345891554553 -4.625115512908148 1 0 1
3185 1042 4 -8.675276509322577 -0.8763092235708636 -4.943661951506381 1 0 1
744 228 4 -9.455108603507304 -0.47156520716821027 -4.194408309059127 0 -1 0
742 228 2 -9.749058784336883 -0.06709954386854138 -4.193503653507937 0 -1 0
2671 871 2 -6.644895884720468 -0.7503199008166849 -4.179415845655015 1 0 0
1289 410 4 -8.050575429024141 -1.3399471858805514 -3.312964418520981 0 0 0
3473 1138 4 -6.80104210304715 -1.586930151868466 -4.251079699901989 1 0 0
1288 410 2 -7.935752948790351 -0.8579944612930156 -3.3803244162606436 0 0 0
2672 871 4 -6.7092529779617545 -0.25486088342023966 -4.159960084808767 1 0 0
2673 871 4 -6.580538791479182 -1.24577891821313 -4.198871606501263 1 0 0
1457 466 4 -3.0497360330452903 -0.6117178046579306 -5.118489197040872 0 1 0
1923 621 4 -1.0862193897280104 -0.43813165479929156 -3.3802828319355966 0 0 0
1791 577 4 -1.1830780462396338 -0.7766852163735165 -4.695303084821769 0 0 0
1789 577 2 -0.718707476585387 -0.7975481934308655 -4.879489702759361 0 0 0
1922 621 4 -1.2971259050300825 -0.5445600322737164 -4.351977970480274 0 0 0
1921 621 2 -1.1916726473790464 -0.491345843536504 -3.8661304012079354 0 0 0
541 161 2 -7.982252904596175 -9.23189866806639 -2.104890598376725 0 0 0
543 161 4 -7.744703671434916 -9.19209077353812 -2.5430523189295466 0 0 0
4257 1399 4 -6.047974045295039 -8.953287047643544 -2.966767123146564 1 1 0
4255 1399 2 -6.296728156259196 -8.639321876354451 -3.2660116109753106 1 1 0
1739 560 4 -0.4420058610301504 -7.950239783993661 -2.9404127198545535 0 1 0
707 216 4 -8.58282642607256 -7.484192293916872 -1.8574991701666625 0 0 0
708 216 4 -7.766641451217959 -6.957103973917696 -2.094184593760601 0 0 0
706 216 2 -8.174733938645259 -7.220648133917284 -1.9758418819636319 0 0 0
267 69 4 -4.00499914558338 -7.622979610835266 -2.4498312062114267 0 0 0
265 69 2 -3.7800156375269385 -7.325353548967459 -2.782699270764807 0 0 0
266 69 4 -3.5550321294704963 -7.027727487099651 -3.115567335318188 0 0 0
1511 484 4 -3.9325274595799384 -7.534394617473144 -2.0867686051478542 0 1 0
1738 560 2 -0.5583964158741739 -7.846622550061108 -2.4653161953722185 0 1 0
2138 693 4 -1.418641604750752 -6.840883303728268 -1.7296899940574573 0 1 0
1622 521 4 -1.6475464164860583 -7.104050551052109 -1.918520114576886 0 0 0
2137 693 2 -0.9449090870373986 -6.778288679102512 -1.8768613724869285 0 1 0
2139 693 4 -0.47117656932404534 -6.715694054476756 -2.0240327509164 0 1 0
877 273 2 -9.838403473872125 -5.285903804166838 -2.7426048982367 0 0 0
879 273 4 -9.614594981727935 -5.692731494195498 -2.5571298609132906 0 0 0
724 222 2 -8.374326998816407 -5.8286532509857105 -2.4824244788521987 0 0 0
726 222 4 -8.6792351758437 -5.921765193245952 -2.097247675565359 0 0 0
725 222 4 -8.069418821789114 -5.735541308725469 -2.8676012821390384 0 0 0
2379 773 4 -6.101223963569306 -6.094120863766696 -3.067496582873427 0 0 0
2377 773 2 -6.472655371116168 -5.768151323195176 -3.1435397818284403 0 0 0
794 245 4 -3.827517462961605 -5.826672571007233 -1.8721644735061587 0 0 0
793 245 2 -3.8391736174539566 -6.321920094933503 -1.8043852428583518 0 0 0
2093 678 4 -1.5273288268634906 -5.642319760822737 -3.080020850080765 0 0 0
2092 678 2 -1.6410949166571827 -5.639207952531764 -2.5931455134058385 0 0 0
2094 678 4 -1.7548610064508747 -5.636096144240792 -2.1062701767309124 0 0 0
442 128 2 -9.385891087768053 -3.74657464407513 -3.202605018385529 0 0 0
443 128 4 -9.035689091651815 -3.407721502253367 -3.3145742560963174 0 0 0
1117 353 2 -1.7970145517192135 -4.647283038356955 -2.042266630834827 0 0 0
1119 353 4 -1.5624850378711284 -4.650651031237837 -2.4838371957031793 0 0 0
138 28 3 -1.4696939537938143 -4.488206851310685 -2.857108028233828 0 0 0
1710 550 4 -2.4382968167890606 -1.3689748700264683 -9.92926305714434 0 0 0
136 28 1 -1.4759275262667766 -4.300057302395902 -3.281208122335893 0 0 0
137 28 3 -1.2340621512067216 -3.9088441275421526 -3.2739011278852557 0 0 0
3616 1186 2 -8.61094963944654 -1.8201246065088845 -3.1960362208222297 1 0 0
482 141 4 -8.532698652403255 -2.5365107954633475 -1.9615417664147987 0 0 0
1002 314 4 -8.445756007169342 -2.202360048072874 -1.7455951905023834 0 0 0
1000 314 2 -8.602242452563791 -1.7278121702216984 -1.763380128922839 0 0 0
3618 1186 4 -8.56536620453723 -2.295702830165228 -3.3435065691834707 1 0 0
481 141 2 -8.044912024835627 -2.646250461497741 -1.9661690404462369 0 0 0
483 141 4 -7.557125397267999 -2.755990127532135 -1.970796314477675 0 0 0
299 80 4 -7.508475224133631 -2.608118671371661 -1.6096794965816499 0 0 0
2401 781 2 -5.304995074418684 -2.6125003560459974 -2.49227116429151 0 0 0
2402 781 4 -5.735935413787354 -2.3638616372609804 -2.442580003853494 0 0 0
1331 424 4 -3.9297218344651816 -3.245686642777529 -3.405444387546053 -1 1 0
1330 424 2 -4.207653765704748 -3.0694822809392566 -3.0290059935603777 -1 1 0
1332 424 4 -4.485585696944314 -2.893277919100984 -2.6525675995747022 -1 1 0
2403 781 4 -4.874054735050013 -2.8611390748310144 -2.5419623247295258 0 0 0
3617 1186 4 -8.656533074355849 -1.344546382852541 -3.0485658724609888 1 0 0
252 64 4 -0.2029695311688018 -7.544020780149643 -8.750368954018098 0 0 0
3713 1218 4 -8.862079524631318 -1.0538505164241985 -3.175176126364405 1 0 0
3712 1218 2 -9.227898786228707 -0.7166943142303195 -3.225195754177744 1 0 0
3714 1218 4 -9.593718047826096 -0.37953811203644056 -3.275215381991083 1 0 0
1001 314 4 -8.75872889795824 -1.2532642923705226 -1.7811650673432946 0 0 0
3730 1224 2 -8.880078086930077 -0.48958732010162137 -1.716796092007093 1 0 0
3732 1224 4 -8.684350545357029 -0.8971291327795681 -1.930338594542275 1 0 0
4502 1481 4 -9.969701274489482 -1.0779492339970853 -1.8480104393318477 1 0 0
1290 410 4 -7.820930468556561 -0.37604173670548013 -3.4476844140003067 0 0 0
2748 896 4 -7.658786624918141 -0.06251653241221661 -3.278658971651481 1 0 0