LAMMPS data file via write_data, version 27 Jun 2024, timestep = 6000000, units = lj

4800 atoms
4 atom types
3300 bonds
1 bond types

-9.998647 9.998647 xlo xhi
-9.998647 9.998647 ylo yhi
-9.998647 9.998647 zlo zhi

Masses

1 1
2 1
3 0.5
4 0.5

Bond Coeffs # zero

1 0

Atoms # bond

3591 1097 4 -9.496644624293976 -8.485936901501153 -9.719277266301633 1 0 1
1196 299 4 -9.262797909558293 -8.73440439347948 -9.517547781210313 0 0 0
1195 299 2 -8.945204197260278 -8.396421273580783 -9.330727962743705 0 0 0
3589 1097 2 -9.994315286492297 -8.445554412555994 -9.745605323076884 1 0 1
1388 363 4 -8.16519009118838 -9.89391593028581 -9.012101841626167 0 0 1
1387 363 2 -7.946332916969281 -9.544015161678347 -9.294362340847881 0 0 1
1389 363 4 -7.727475742750181 -9.194114393070883 -9.576622840069595 0 0 1
944 215 4 -7.5849159542697375 -9.120260786305861 -9.934077039511614 0 0 0
2828 843 4 -0.07867288935745836 -3.08426641758299 -2.819578196410321 0 0 0
786 162 4 -0.16787729589731618 -3.1276461531465167 -2.4291410378569087 0 0 0
1570 424 2 -9.996571500413193 -5.628989883643587 -2.5298231494157846 0 0 0
3783 1161 4 -4.671762903730986 -9.246761781526056 -8.793013981638667 0 0 1
3781 1161 2 -4.247323997890947 -9.166478337237598 -9.04481982704843 0 0 1
3782 1161 4 -3.822885092050908 -9.08619489294914 -9.296625672458193 0 0 1
1540 414 2 -2.5121859259476937 -9.18076602215052 -8.685544514599908 0 0 1
1542 414 4 -2.3877183405673543 -8.919713775429974 -9.09341648553181 0 0 1
3105 935 4 -2.071753443149729 -9.093780901670181 -9.278894333457874 0 0 0
24 5 3 -2.367913988661281 -9.986457506101228 -9.32873410295071 0 0 0
3103 935 2 -1.5781280971209126 -9.034851245224068 -9.33238557899505 0 0 0
460 92 3 -1.0910734431112206 -8.568830748305505 -9.440752404294397 0 0 1
3104 935 4 -1.0845027510920962 -8.975921588777956 -9.385876824532225 0 0 0
4127 1276 4 -0.9531010148244535 -9.321475622065234 -9.61163766156081 0 1 0
4126 1276 2 -0.94241946447372 -9.659977619059367 -9.979472274550353 0 1 0
1197 299 4 -8.627610484962263 -8.058438153682086 -9.143908144277097 0 0 0
1049 250 4 -6.665411087939583 -8.452915914565969 -9.639195875228742 0 0 0
1148 283 4 -8.250420704577019 -8.058963419912972 -9.259140600787156 0 0 0
1149 283 4 -7.5355768924650315 -7.526268249231472 -9.712168391786815 0 0 0
1147 283 2 -7.892998798521026 -7.792615834572222 -9.485654496286985 0 0 0
1048 250 2 -6.3548468328187875 -8.208786562841425 -9.332682085868015 0 0 0
1050 250 4 -6.044282577697992 -7.964657211116881 -9.026168296507288 0 0 0
1431 377 4 -5.801477658074096 -7.955536334732487 -8.713715787811967 0 0 1
1429 377 2 -5.61087863558769 -7.765635822291142 -8.292278001179746 0 0 1
1210 304 2 -1.9603828813001076 -6.753528857088612 -9.698926002337188 0 0 0
2841 847 4 -1.5658900653180603 -7.182059884406646 -9.00926997368015 0 0 0
1211 304 4 -1.7734966451432341 -6.998458849348477 -9.305120423876863 0 0 0
456 92 1 -0.8219113488292527 -8.281878402281997 -9.670121360592235 0 0 1
459 92 3 -0.4050655054477741 -8.474608618675102 -9.736413189232367 0 0 1
457 92 3 -0.7699251858544891 -7.895291610473919 -9.426301568002494 0 0 1
2839 847 2 -1.3211088623108609 -7.2390594121873475 -8.577027892795746 0 0 0
3600 1100 4 -0.038057301572412994 -8.293257232942993 -9.752232676314573 0 0 1
3887 1196 4 -3.0693995989212497 -9.969537498678507 -4.924039915218909 0 1 0
2048 583 4 -2.919551922460231 -0.04388717167159495 -5.636988521759202 0 0 0
1011 237 4 -8.681853076354248 -4.984349963440063 -9.395894626396666 0 0 0
1031 244 4 -8.20829664049445 -5.265534789926504 -8.35401335891877 0 0 0
1074 258 4 -5.046967210207601 -5.297292200482651 -8.440064625639852 0 0 0
2930 877 4 -5.086804869352917 -5.241359109861886 -8.83111997963416 0 0 0
2929 877 2 -4.981114426401466 -5.124859496073075 -9.30573284319281 0 0 0
1507 403 2 -2.4953882176582236 -5.6964475214428845 -9.544171632631995 0 0 1
1508 403 4 -2.660169061464659 -5.528610465880523 -9.10294833735584 0 0 1
1676 459 4 -2.305596167236426 -5.352542943866956 -8.963867497076627 0 0 1
1675 459 2 -2.0519455232325563 -5.176445095159379 -8.57061071267563 0 0 1
2550 750 4 -2.633558690739883 -9.958402459616467 -6.6831894894257635 0 1 1
1009 237 2 -8.989965533572112 -4.716167455733283 -9.68424312434187 0 0 0
1010 237 4 -9.298077990789977 -4.447984948026503 -9.972591622287075 0 0 0
1032 244 4 -8.660831628915421 -4.442318301445112 -8.69683502881167 0 0 0
1312 338 2 -8.73598591388981 -3.636815186182966 -8.82178113462578 0 0 1
1314 338 4 -8.767054191836987 -4.082305513821645 -8.59689643064235 0 0 1
1030 244 2 -8.434564134704935 -4.853926545685808 -8.52542419386522 0 0 0
1253 318 4 -9.561758096118076 -4.183087362068083 -9.841208841505352 0 0 0
1659 453 4 -7.8333639339183785 -3.9019457429495614 -9.066454453238194 0 0 1
1566 422 4 -7.671228094748689 -4.114119671543724 -9.366779511392759 0 0 1
1564 422 2 -7.5270201400317 -4.342829311428096 -9.787369533171002 0 0 1
1657 453 2 -7.668348012469992 -3.441257327429585 -9.169099129056201 0 0 1
2931 877 4 -4.875423983450015 -5.008359882284264 -9.780345706751461 0 0 0
851 184 4 -4.586899401350488 -4.743751270571639 -9.773100567511197 0 0 0
850 184 2 -4.215078975000521 -4.411121738407944 -9.73982648026113 0 0 0
2661 787 4 -3.475353248687298 -4.05790470177124 -9.871244710324262 0 0 1
852 184 4 -3.843258548650555 -4.078492206244249 -9.706552393011062 0 0 0
2945 882 4 -0.5219647683262691 -4.468382067701791 -9.674643837828086 0 0 0
2946 882 4 -1.3354904063737487 -5.039950447518725 -9.781814838719665 0 0 0
1574 425 4 -0.26357734207162936 -4.579461853727188 -9.988153544802206 0 0 1
2944 882 2 -0.9287275873500089 -4.754166257610258 -9.728229338273875 0 0 0
1313 338 4 -8.704917635942632 -3.1913248585442866 -9.046665838609211 0 0 1
1406 369 4 -8.759165457196836 -3.0099293638795817 -9.410066559405985 0 0 1
1405 369 2 -8.776884421010363 -2.767724048050659 -9.847127908996532 0 0 1
133 27 3 -8.10307778771333 -2.2494715810549186 -9.768775026898613 0 0 1
134 27 3 -7.467535842400828 -2.16629536618371 -9.360402460448768 0 0 1
131 27 1 -7.663521812826047 -2.3888852198444424 -9.717254329498171 0 0 1
1658 453 4 -7.503332091021606 -2.9805689119096086 -9.271743804874209 0 0 1
132 27 3 -7.659974494369186 -2.840665825370152 -9.630757502950269 0 0 1
774 158 4 -7.476344186257254 -1.7970719740873708 -9.238900776601573 0 0 0
772 158 2 -7.064045878985038 -1.5160755479797423 -9.206479883109102 0 0 0
2717 806 4 -5.691373143544458 -3.230957308136958 -8.436492877787453 0 0 1
2718 806 4 -5.990550491202298 -3.4096919190275754 -9.373801180065103 0 0 1
2716 806 2 -5.840961817373378 -3.3203246135822666 -8.905147028926278 0 0 1
1857 519 4 -6.244715860002539 -3.154222455625538 -9.44380881376479 0 0 0
773 158 4 -6.651747571712821 -1.2350791218721138 -9.174058989616631 0 0 0
1855 519 2 -6.298095256072133 -2.8568474846978433 -9.84220405311971 0 0 0
1066 256 2 -2.376671737384565 -0.8699694705147342 -8.417185671967708 0 0 0
1068 256 4 -2.19319993424694 -0.5676401050276203 -8.770647200592324 0 0 0
3905 1202 4 -2.0809044963278955 -0.1990089769144401 -8.873356902974471 0 0 0
2636 779 4 -7.164655295428333 -8.557498034012513 -7.447337739602424 0 1 1
1202 301 4 -7.179542537920367 -8.801751883672482 -7.141747949359025 0 0 0
1201 301 2 -7.441193073929832 -9.06228174358324 -6.8046082318809695 0 0 0
1817 506 4 -5.533354404314335 -8.95457832864709 -8.181756787054415 0 1 0
2052 584 4 -6.063413635152477 -9.724522547106599 -7.171141723868567 0 1 0
2050 584 2 -5.876539790810364 -9.480527034766228 -7.5655328447859285 0 1 0
2123 608 4 -6.418376119465676 -9.589166636337033 -7.018760320638291 0 1 0
2051 584 4 -5.689665946468251 -9.236531522425857 -7.95992396570329 0 1 0
2122 608 2 -6.384322899061241 -9.955637912103079 -6.680323942246917 0 1 0
1816 506 2 -5.120705860190058 -9.202396762891821 -8.31706089889296 0 1 0
1818 506 4 -4.708057316065781 -9.450215197136552 -8.452365010731505 0 1 0
1541 414 4 -2.636653511328033 -9.441818268871065 -8.277672543668006 0 0 1
948 216 4 -2.4346358175766114 -9.585111050145457 -7.969749738388732 0 0 0
946 216 2 -2.5828594858610963 -9.681503571864932 -7.50205515223497 0 0 0
947 216 4 -2.731083154145581 -9.777896093584406 -7.034360566081208 0 0 0
929 210 4 -1.7423747399634053 -8.347874376065969 -7.513285192228553 0 0 0
1236 312 4 -1.2837490576345014 -9.488727421833662 -7.4782485907597565 0 0 0
1235 312 4 -1.5374671128580704 -8.552164340589773 -7.236428940394532 0 0 0
1234 312 2 -1.410608085246286 -9.020445881211717 -7.357338765577144 0 0 0
2635 779 2 -7.469816936049018 -8.167559316938942 -7.51679398496984 0 1 1
2637 779 4 -7.774978576669702 -7.7776205998653705 -7.586250230337256 0 1 1
886 196 2 -8.007712149129617 -6.9341567808441775 -7.504325935677857 0 0 0
887 196 4 -7.892702732272389 -7.4154319338886925 -7.576068956913772 0 0 0
1430 377 4 -5.420279613101283 -7.575735309849798 -7.870840214547524 0 0 1
1183 295 2 -5.47661827967358 -7.077979688066184 -7.1730722530123545 0 0 0
1184 295 4 -5.949690654318231 -7.041910630415496 -7.015269998820115 0 0 0
1185 295 4 -5.003545905028928 -7.114048745716871 -7.330874507204594 0 0 0
70 14 3 -4.034638014166023 -6.989125942916966 -6.748883308388406 0 0 0
1098 266 4 -3.6952909093820434 -7.9050787927489 -6.606838890202536 0 0 0
67 14 3 -4.679411217465855 -7.027145142795397 -7.1228111847847995 0 0 0
1329 343 4 -3.35251137767938 -8.0293039133624 -6.7783637634974605 0 0 1
1327 343 2 -3.059876668867082 -7.961793415231817 -7.178122765697731 0 0 1
1159 287 2 -2.93301995203599 -7.072396973279269 -7.852745152046863 0 0 0
1161 287 4 -2.800467215538027 -7.534391585608521 -7.714938221066817 0 0 0
1328 343 4 -2.7672419600547844 -7.894282917101234 -7.577881767898002 0 0 1
928 210 2 -1.476170343969875 -7.975189506643516 -7.713887305022322 0 0 0
418 84 3 -0.9624335593953561 -7.577388806850627 -7.581607359567145 0 0 0
930 210 4 -1.2099659479763447 -7.602504637221064 -7.914489417816091 0 0 0
2840 847 4 -1.0763276593036615 -7.296058939968049 -8.144785811911342 0 0 0
420 84 3 -0.7905435797710689 -7.018342778001876 -8.05576068132346 0 0 0
416 84 1 -0.6754287483560674 -7.222532762892849 -7.665305785518219 0 0 0
419 84 3 -0.6940964709336105 -6.917877638823262 -7.315825068579984 0 0 0
417 84 3 -0.24588377898270397 -7.383549742318738 -7.6994327780952725 0 0 0
3459 1053 4 -0.19137722227055842 -7.768371890887208 -7.5574873836356184 0 0 1
3083 928 4 -0.4679448323298158 -7.020170856035609 -7.008454787850617 0 0 0
1002 234 4 -9.233605528946239 -6.497777923281666 -8.1214319579925 0 0 0
1000 234 2 -8.960518006859816 -6.2614389120660405 -7.775647231525395 0 0 0
1001 234 4 -8.687430484773394 -6.025099900850415 -7.429862505058288 0 0 0
1131 277 4 -8.851962004434707 -6.229156103584133 -7.137085882612811 0 0 0
888 196 4 -8.122721565986845 -6.452881627799663 -7.432582914441942 0 0 0
1439 380 4 -7.901676770948091 -5.458866859027311 -8.18986336631525 0 0 1
1440 380 4 -7.860946092742397 -6.337694587777356 -7.714465811594533 0 0 1
1438 380 2 -7.881311431845244 -5.898280723402333 -7.952164588954891 0 0 1
1694 465 4 -7.248420581600165 -5.985309923643939 -8.113211813766242 0 0 1
1693 465 2 -6.815637255402893 -5.892026583637258 -8.34558395289432 0 0 1
1695 465 4 -6.382853929205622 -5.798743243630577 -8.577956092022397 0 0 1
1072 258 2 -5.068919115719709 -5.449252402533958 -7.964221993211246 0 0 0
1073 258 4 -5.090871021231816 -5.601212604585265 -7.4883793607826385 0 0 0
1166 289 4 -4.016769136929352 -6.151955093444707 -7.202903320399864 0 0 0
66 14 1 -4.418724754126466 -6.765621285753645 -6.848497787318839 0 0 0
68 14 3 -4.3189023666605095 -6.369836632266926 -7.069155891690061 0 0 0
1165 289 2 -3.6821238198379334 -6.2653824041338515 -7.556664195763944 0 0 0
795 165 4 -4.911561017145167 -5.375554413940737 -7.233521433283009 0 0 0
793 165 2 -4.587774524440376 -5.040240302419932 -7.052616060901155 0 0 0
1160 287 4 -3.0655726885339534 -6.610402360950016 -7.990552083026907 0 0 0
1167 289 4 -3.347478502746514 -6.378809714822996 -7.910425071128024 0 0 0
3177 959 4 -9.943736103038932 -4.388593923773688 -7.311142970907699 1 0 0
3175 959 2 -9.838773753567981 -4.451409619354309 -6.826336727567284 1 0 0
1220 307 4 -7.438238153699789 -3.885204471410208 -7.10732392840023 0 0 0
1219 307 2 -7.0400107339247535 -3.8499852647022537 -7.4076146702118 0 0 0
905 202 4 -7.7024441988400145 -4.177650771157361 -7.228293535287164 0 0 0
1221 307 4 -6.641783314149719 -3.8147660579942992 -7.707905412023371 0 0 0
794 165 4 -4.263988031735585 -4.704926190899126 -6.8717106885193004 0 0 0
1677 459 4 -1.7982948792286866 -5.000347246451803 -8.177353928274634 0 0 1
1204 302 2 -2.034386494313717 -4.381417421654533 -7.772182588239547 0 0 0
1205 302 4 -2.0345821815443856 -4.860995969419976 -7.913619423007896 0 0 0
1206 302 4 -2.0341908070830486 -3.9018388738890915 -7.630745753471197 0 0 0
1260 320 4 -2.067659712348018 -3.5090989547745313 -7.606188504620829 0 0 1
3087 929 4 -9.726746502471038 -2.7237215465612468 -7.587687308801935 1 0 0
820 174 2 -9.143604925183222 -2.444399731255008 -6.972636332647602 0 0 0
822 174 4 -9.490763408338887 -2.70959185886452 -7.2158525389882255 0 0 0
408 82 3 -8.643706329784647 -1.9194355328757196 -6.976734032573521 1 0 0
821 174 4 -8.796446442027557 -2.1792076036454953 -6.729420126306978 0 0 0
79 16 3 -6.4416605991402305 -1.8487140457397133 -6.856778163203855 0 0 0
1258 320 2 -2.3017429248462613 -3.079934335507569 -7.711177928828089 0 0 1
1259 320 4 -2.535826137344505 -2.6507697162406068 -7.8161673530353495 0 0 1
53 11 3 -2.4123858902752335 -2.2843750745045797 -7.863331721052615 0 0 0
55 11 3 -1.9534345368680275 -1.749446448718216 -7.598539310813943 0 0 0
51 11 1 -2.3887975703160196 -1.8665147192801665 -7.66299122416487 0 0 0
969 223 4 -2.4868384396620744 -1.5990085231130102 -6.965069652269437 0 0 0
52 11 3 -2.6027143747562835 -1.8843701622571651 -7.2561487682508385 0 0 0
407 82 3 -8.79062857478822 -1.1907594657831786 -7.087842282354392 1 0 0
937 213 2 -8.990482225147778 -0.5003537998848471 -6.810816090458747 0 0 0
938 213 4 -9.053908127009676 -0.008807791668082876 -6.876843938970737 0 0 0
232 47 3 -8.867400301341924 -0.017100388802517352 -7.939464925019389 0 0 0
406 82 1 -8.54278203149846 -1.4879466151971825 -6.839141881867404 1 0 0
939 213 4 -8.92705632328588 -0.9918998081016113 -6.7447882419467575 0 0 0
2989 897 2 -0.020713040214099893 -8.15105694676169 -4.382419633153515 0 0 0
891 197 4 -7.033080030107808 -1.4859892159497912 -6.5813367497550255 0 0 0
890 197 4 -7.8169558164085675 -1.1949052761775742 -7.129797223863112 0 0 0
889 197 2 -7.425017923258188 -1.3404472460636827 -6.855566986809069 0 0 0
409 82 3 -8.092068090562359 -1.401288797664935 -6.907313474971023 1 0 0
3176 959 4 -9.73381140409703 -4.514225314934931 -6.341530484226868 1 0 0
2005 569 2 -3.518639172282258 -0.7768198663217203 -6.732426632152146 0 0 0
2006 569 4 -3.4114839275157025 -0.641888634334119 -7.201799954949527 0 0 0
1951 551 2 -4.956223316713142 -0.07600081936310822 -7.957380210918586 0 0 0
1953 551 4 -4.51207885633661 -0.2067779953638697 -8.146147338761654 0 0 0
1067 256 4 -2.5601435405221897 -1.172298836001848 -8.063724143343093 0 0 0
54 11 3 -2.5998083459282033 -1.5508424660841853 -7.929684833270369 0 0 0
872 191 4 -9.018208068036877 -9.711047938567301 -6.240282199007615 0 0 0
871 191 2 -9.451308431492139 -9.496552919958267 -6.368406990391064 0 0 0
44 9 3 -8.629273162077183 -9.78821408135209 -6.272613572791309 0 0 0
873 191 4 -9.8844087949474 -9.282057901349233 -6.496531781774512 0 0 0
42 9 3 -8.33728373254295 -9.416328290351414 -5.688367792754172 0 0 0
41 9 1 -8.256354547462593 -9.744934485941604 -5.99992586955791 0 0 0
3014 905 4 -8.40321345450339 -9.026729677711426 -5.837208953333062 1 0 0
45 9 3 -7.893788667210077 -9.628708186347843 -6.249800697740222 0 0 0
1203 301 4 -7.702843609939298 -9.322811603493998 -6.467468514402914 0 0 0
3013 905 2 -8.160029617883485 -8.59777756678358 -5.920044381367009 1 0 0
1142 281 4 -6.533381255203316 -9.86306565097935 -5.107218793527931 0 0 0
817 173 2 -3.734806815866838 -8.770550320185249 -5.319948763258349 0 0 0
818 173 4 -3.3556257474140123 -8.978498883747802 -5.068992368162079 0 0 0
2216 639 4 -1.4450386647134246 -9.699847853294395 -5.367480716533638 0 1 0
2215 639 2 -1.476987591917895 -9.230423906132255 -5.198304997585786 0 1 0
2223 641 4 -1.468902343133398 -9.68678102766017 -5.787264319858266 0 1 0
950 217 4 -1.4009033602727672 -8.51040168330348 -5.310334533744011 0 0 0
2217 639 4 -1.5089365191223654 -8.760999958970116 -5.029129278637933 0 1 0
3015 905 4 -7.916845781263579 -8.168825455855735 -6.002879809400956 1 0 0
437 88 3 -6.9610973873425035 -7.98180494740362 -5.678356010532391 1 0 0
439 88 3 -7.648276960419091 -7.844010909907599 -5.94982799357457 1 0 0
438 88 3 -7.375293685026669 -7.435789221234697 -5.369797663114947 1 0 0
436 88 1 -7.388974438970641 -7.856402463253455 -5.565239054867067 1 0 0
440 88 3 -7.561168309796239 -8.158748629823805 -5.271409059103661 1 0 0
1332 344 4 -6.882729554544877 -6.9287833224008715 -6.126047884518059 0 0 1
1215 305 4 -7.145230049373888 -7.02831964438998 -5.829195843301869 0 0 0
1331 344 4 -6.034366274588529 -7.116159016353673 -6.621194422966969 0 0 1
1330 344 2 -6.4585479145667035 -7.022471169377272 -6.373621153742514 0 0 1
819 173 4 -4.113987884319664 -8.562601756622696 -5.570905158354619 0 0 0
1097 266 4 -4.193521728995115 -8.271873068418014 -5.8212002902563045 0 0 0
1096 266 2 -3.9444063191885794 -8.088475930583456 -6.21401959022942 0 0 0
30 6 3 -3.7399004677460597 -7.718182113090173 -5.187469813110432 0 0 0
848 183 4 -1.2529482251066864 -7.380326898933287 -5.255824576093068 0 0 0
847 183 2 -1.1915890921957186 -6.8862592444728445 -5.302000431525019 0 0 0
951 217 4 -1.1037105092815889 -7.5898702990210305 -5.563905785802613 0 0 0
949 217 2 -1.252306934777178 -8.050135991162255 -5.437120159773312 0 0 0
3245 982 4 -9.204340900857755 -6.197984729963709 -5.000298958460916 1 0 0
3044 915 4 -8.909472776632432 -6.326996273882053 -4.769265197680139 1 0 0
1129 277 2 -8.9909518815376 -6.144129803337449 -6.664378423047364 0 0 0
1130 277 4 -9.129941758640491 -6.059103503090766 -6.191670963481918 0 0 0
1230 310 4 -8.357923264906228 -5.414645655715828 -5.246893493723569 0 0 0
3244 982 2 -9.697326609811027 -6.123060768187385 -5.037061585131211 1 0 0
1213 305 2 -7.482956693773228 -6.811835647260833 -6.127650852725061 0 0 0
1373 358 4 -8.521668903646827 -5.339247783292103 -5.614135719346747 0 0 1
1372 358 2 -8.229665863724465 -5.221618842663467 -6.002591195563187 0 0 1
1374 358 4 -7.937662823802104 -5.103989902034832 -6.391046671779627 0 0 1
1214 305 4 -7.820683338172568 -6.595351650131685 -6.426105862148254 0 0 0
837 179 4 -6.989103423024832 -6.270375554066911 -5.463436536248032 0 0 0
835 179 2 -6.540233958930459 -6.334200587397785 -5.252622472856488 0 0 0
69 14 3 -4.654569870696634 -6.674881698931982 -6.459340481884206 0 0 0
65 13 3 -3.5297723204946703 -6.173875280182008 -5.41215482536231 0 0 0
61 13 1 -3.9475922855292827 -6.105388949008554 -5.244416638711309 0 0 0
62 13 3 -4.219793713568814 -5.942558112023386 -5.57757200952205 0 0 0
1457 386 4 -1.5083992308395804 -4.988221116245766 -5.108887577375734 0 0 1
3639 1113 4 -1.127450697048384 -5.982479805718759 -5.430584905240914 0 0 1
849 183 4 -1.130229959284751 -6.392191590012402 -5.34817628695697 0 0 0
3637 1113 2 -1.4448595590604356 -5.654485366840397 -5.2264495031635 0 0 1
3638 1113 4 -1.7622684210724866 -5.326490927962036 -5.022314101086086 0 0 1
906 202 4 -7.992110532767544 -4.712476574664017 -6.434533637779425 0 0 0
904 202 2 -7.847277365803779 -4.445063672910689 -6.831413586533294 0 0 0
1083 261 4 -4.278335358001035 -4.601191178191581 -6.486650300038141 0 0 0
1081 261 2 -4.294763158508738 -4.248053622036404 -6.133062978711543 0 0 0
1082 261 4 -4.311190959016442 -3.8949160658812274 -5.779475657384945 0 0 0
998 233 4 -4.025921261296583 -3.620823012148537 -5.6960801127991445 0 0 0
997 233 2 -3.5953826498754693 -3.422873874499829 -5.536541268062529 0 0 0
988 230 2 -0.5347917523236293 -3.6961015012599048 -4.977713841488873 0 0 0
990 230 4 -0.25020299255264333 -3.4548464697052292 -5.310588063322671 0 0 0
1456 386 2 -1.3228236935844473 -4.558781276605712 -4.9324133750050025 0 0 1
1043 248 4 -9.517020376477731 -2.550803184412266 -5.8837531302439 0 0 0
1088 263 4 -9.189927148855986 -2.7108996028899135 -5.712508083780649 0 0 0
1087 263 2 -8.802957214435722 -2.502433092688534 -5.474189003596387 0 0 0
1042 248 2 -9.883588708440655 -2.8878265046816756 -5.928952019565339 0 0 0
1089 263 4 -8.415987280015457 -2.2939665824871547 -5.2358699234121255 0 0 0
77 16 3 -7.018610261059732 -1.8151331806452948 -6.3762561417419 0 0 0
78 16 3 -6.80301290310461 -2.482988217248795 -6.645305262397418 0 0 0
1005 235 4 -8.128852537483734 -2.0595704410524838 -5.0725545943157915 0 0 0
76 16 1 -6.655413629180412 -2.065516538943436 -6.506626308876247 0 0 0
80 16 3 -6.3701461872005405 -2.1106370431679093 -6.154508961043781 0 0 0
1217 306 4 -6.041622157691117 -2.263317474778047 -5.998576847121635 0 0 0
1218 306 4 -5.053150190518917 -2.2965992401799094 -6.146277538405446 0 0 0
1216 306 2 -5.547386174105017 -2.279958357478978 -6.0724271927635405 0 0 0
1107 269 4 -4.81682307740172 -2.6421365675431603 -6.10449330650673 0 0 0
1105 269 2 -4.437147528376853 -2.3206671962013865 -6.054454114243711 0 0 0
1106 269 4 -4.057471979351986 -1.9991978248596125 -6.004414921980692 0 0 0
73 15 3 -3.8929590841181185 -1.7646939199460692 -5.743343640835292 0 0 0
999 233 4 -3.164844038454356 -3.224924736851121 -5.377002423325914 0 0 0
992 231 4 -3.1173820811691324 -2.860748574876584 -5.223761787701636 0 0 0
1125 275 4 -1.5594806388726743 -1.63065726170856 -6.007938396799198 0 0 0
824 175 4 -0.42320746894342853 -3.340807366421705 -5.631599518187331 0 0 0
823 175 2 -0.7017001969995665 -3.0122182489078613 -5.885510904838193 0 0 0
825 175 4 -0.9801929250557045 -2.6836291313940177 -6.139422291489055 0 0 0
1124 275 4 -0.8389941515081556 -2.278769014064811 -6.254617090614167 0 0 0
1123 275 2 -1.199237395190415 -1.9547131378866855 -6.131277743706683 0 0 0
1821 507 4 -0.8936088297677848 -0.03758248012059052 -0.28103457706059215 0 0 0
410 82 3 -8.645836949357404 -1.4372741968513045 -6.398446987497206 1 0 0
3993 1231 4 -8.890947584296395 -1.1174196062444477 -6.377079422345193 1 0 0
3991 1231 2 -9.082828620294507 -1.0962722421115172 -5.915847965250098 1 0 0
3992 1231 4 -9.274709656292618 -1.075124877978587 -5.454616508155003 1 0 0
1200 300 4 -9.546215047617672 -1.125203778720002 -5.1547100507093475 0 0 0
74 15 3 -3.8774993436388105 -1.223514319768663 -6.2767155905812 0 0 0
2007 569 4 -3.6257944170488137 -0.9117510983093217 -6.263053309354766 0 0 0
72 15 3 -4.231049576945377 -1.1040688728665038 -5.624308495476587 0 0 0
71 15 1 -3.868304012646103 -1.3078187885788042 -5.820526811207539 0 0 0
2049 583 4 -3.502236420868935 -0.8147513025320346 -5.894373966310489 0 0 0
75 15 3 -3.4857398098502514 -1.140016202166253 -5.639179291973624 0 0 0
967 223 2 -2.115405287316216 -1.5135324905848901 -6.641447555988621 0 0 0
968 223 4 -1.743972134970358 -1.42805645805677 -6.317825459707804 0 0 0
2047 583 2 -3.210894171664583 -0.4293192371018148 -5.7656812440348455 0 0 0
12 3 3 -0.3434003192657739 -1.2103942902305653 -5.597878764821105 0 0 0
14 3 3 -0.14085613836871758 -0.5598992048764659 -5.280495717518504 0 0 0
15 3 3 -0.4202117011827519 -0.573660249005737 -5.979545861062949 0 0 0
11 3 1 -0.44506659103311536 -0.7628995713961989 -5.566059811344471 0 0 0
13 3 3 -0.8749370674606329 -0.7183800626840212 -5.397153367299034 0 0 0
1143 281 4 -6.8999035831198166 -9.463640376297517 -4.266908831023716 0 0 0
1141 281 2 -6.716642419161566 -9.663353013638433 -4.687063812275824 0 0 0
3888 1196 4 -3.0965222281370823 -8.984977699134395 -4.751105349257585 0 1 0
3886 1196 2 -3.082960913529166 -9.477257598906451 -4.837572632238247 0 1 0
791 164 4 -1.9791862624195646 -8.31684749073682 -4.483849533031073 0 0 0
34 7 3 -1.7392177381777523 -8.44206835034632 -4.179959978425084 0 0 0
790 164 2 -2.47715500093478 -8.299000007289418 -4.52518478186792 0 0 0
33 7 3 -1.2777886036507395 -8.779225889407453 -4.680966912172369 0 0 0
31 7 1 -1.2994015587770782 -8.487754789232211 -4.320581732214932 0 0 0
1146 282 4 -0.24580561710768567 -9.09534297283503 -3.6649495988764023 0 0 0
32 7 3 -1.0498476712921458 -8.660133994363262 -3.9747374509564954 0 0 0
3972 1224 4 -0.7748720809860399 -9.731691807634746 -3.4890375280971835 0 1 0
395 79 3 -9.788248365942284 -7.651547054570698 -3.850225309167371 1 0 0
391 79 1 -9.443678234704802 -7.356643311976816 -3.808955377459991 1 0 0
1383 361 4 -1.2088270364865037 -0.27477687042071824 -0.2766260703471424 0 0 0
393 79 3 -9.305407249761735 -7.335629286811976 -3.366530756231386 1 0 0
3045 915 4 -8.963582764762915 -7.234862460984818 -4.353511550072561 1 0 0
392 79 3 -9.091171915520068 -7.498240847006801 -4.068357445702112 1 0 0
3043 915 2 -8.936527770697673 -6.780929367433435 -4.56138837387635 1 0 0
394 79 3 -9.576882170500022 -6.936302246990751 -3.953420254073894 1 0 0
1061 254 4 -5.423613548411501 -7.608940715566482 -4.94906352987173 0 0 0
893 198 4 -5.140161502836717 -7.411222615708882 -4.774382947057649 0 0 0
1060 254 2 -5.838843437160424 -7.64836309741017 -4.67332812173644 0 0 0
1062 254 4 -6.2540733259093475 -7.687785479253859 -4.39759271360115 0 0 0
955 219 2 -6.135358011038444 -7.135315843730465 -3.7278396549031716 0 0 0
956 219 4 -6.29522376594535 -7.416392513350409 -4.109204108154466 0 0 0
957 219 4 -5.975492256131538 -6.854239174110521 -3.346475201651877 0 0 0
892 198 2 -4.8016093255301655 -7.051047001532338 -4.849588998632249 0 0 0
29 6 3 -3.9321890816377536 -8.041748705337321 -4.535373386691046 0 0 0
26 6 1 -3.6214915151286644 -7.773038735519974 -4.751155624806229 0 0 0
1485 395 4 -3.7417163121522408 -7.040917128759759 -4.326458337749888 0 0 0
27 6 3 -3.6109116765079916 -7.362335662679229 -4.544247304592089 0 0 0
1483 395 2 -4.068579325987955 -6.757650892849694 -4.0756181300892464 0 0 0
792 164 4 -2.9751237394499954 -8.281152523842017 -4.566520030704767 0 0 0
28 6 3 -3.2000613728929337 -7.965350401616366 -4.724456218477462 0 0 0
35 7 3 -1.1311328349534508 -8.081479339609738 -4.43901270627346 0 0 0
389 78 3 -0.548573141932446 -7.676057455165336 -4.1471504911733605 0 0 0
2991 897 4 -0.21158883027983472 -7.879580371015766 -4.008431797004431 0 0 0
390 78 3 -1.207048424861311 -7.866075589772005 -3.8353758766004704 0 0 0
933 211 4 -1.0422117953570353 -6.984874168356046 -3.9524179031970146 0 0 0
388 78 3 -0.8954236196744431 -7.2022699710310745 -3.664636070697047 0 0 0
386 78 1 -0.8134764320447287 -7.647296026072015 -3.7672833735070754 0 0 0
931 211 2 -1.4364950450940506 -6.736434230650957 -3.7712596399855194 0 0 0
387 78 3 -0.5905520511471702 -7.842455817454376 -3.4154064401497872 0 0 0
1228 310 2 -8.101517624268702 -5.255313089151359 -4.848309398855899 0 0 0
1229 310 4 -7.845111983631177 -5.095980522586891 -4.449725303988229 0 0 0
836 179 4 -6.091364494836085 -6.3980256207286565 -5.0418084094649425 0 0 0
1233 311 4 -5.664100080293185 -6.628565622716546 -3.2614167916341095 0 0 0
1244 315 4 -5.891617471197101 -6.057555392422143 -4.962064451953229 0 0 0
1243 315 2 -5.873971089712802 -5.633310457163512 -4.6980477098166515 0 0 0
1245 315 4 -5.856324708228502 -5.209065521904882 -4.434030967680074 0 0 0
1334 345 4 -6.0918210883775785 -5.2832556497554215 -4.119815655826214 0 0 0
1333 345 2 -6.420477679809454 -5.28990344962381 -3.743065537491259 0 0 0
1231 311 2 -5.213429556995896 -6.599233595818196 -3.475976134541468 0 0 0
894 198 4 -4.463057148223614 -6.690871387355795 -4.924795050206848 0 0 0
64 13 3 -4.12349201158431 -6.505748174667386 -5.089265819171996 0 0 0
1484 395 4 -4.395442339823669 -6.474384656939629 -3.8247779224286047 0 0 0
783 161 4 -3.5490908206111262 -5.6027480103170335 -4.83464608177928 0 0 0
63 13 3 -3.9308810450925398 -5.795476537215243 -4.899489064487947 0 0 0
1232 311 4 -4.762759033698608 -6.569901568919845 -3.690535477448826 0 0 0
932 211 4 -1.8307782948310658 -6.487994292945868 -3.590101376774024 0 0 0
1095 265 4 -2.1806943040578655 -6.599986086881244 -3.7786111345916686 0 0 0
909 203 4 -0.9189667992296835 -5.0976416635810455 -3.56769520912931 0 0 0
1649 450 4 -9.729513846909663 -4.57859374218596 -3.539341985147539 0 0 0
881 194 4 -7.817195835051853 -4.710357914480976 -4.302126318245756 0 0 0
880 194 2 -7.614911203884938 -4.26299652730766 -4.396723978151344 0 0 0
882 194 4 -7.412626572718022 -3.815635140134343 -4.491321638056931 0 0 0
1122 274 4 -7.406228881612175 -3.3756608020249623 -4.514566031385062 0 0 0
781 161 2 -3.354092741973111 -5.143901813324009 -4.7967525885045 0 0 0
1177 293 2 -4.415201315402213 -3.7958756989358284 -3.818020117963269 0 0 0
1178 293 4 -4.304382361345536 -3.8064789371089964 -4.305469326355301 0 0 0
1110 270 4 -4.305869334575249 -3.6299347219975293 -4.661232285573012 0 0 0
1179 293 4 -4.526020269458891 -3.7852724607626604 -3.3305709095712364 0 0 0
782 161 4 -3.159094663335096 -4.685055616330984 -4.75885909522972 0 0 0
902 201 4 -3.006241108426557 -4.32584846712778 -4.659227073471183 0 0 0
901 201 2 -2.636724154897279 -4.302792365576947 -4.3231829733362614 0 0 0
1239 313 4 -2.00295099855799 -4.451436889169664 -3.7505166804016925 0 0 0
903 201 4 -2.2672072013680014 -4.279736264026114 -3.9871388732013395 0 0 0
989 230 4 -0.8193805120946153 -3.9373565328145803 -4.644839619655075 0 0 0
1237 313 2 -1.6607079962261122 -4.804102413233116 -3.6583388333248457 0 0 0
1458 386 4 -1.1372481563293142 -4.1293414369656585 -4.755939172634271 0 0 1
1120 274 2 -7.027227155039046 -3.323866361066051 -4.192579964699116 0 0 0
1003 235 2 -7.912557017225431 -1.999585120155004 -4.625768281641607 0 0 0
1004 235 4 -7.696261496967129 -1.9395997992575242 -4.178981968967422 0 0 0
1121 274 4 -6.648225428465918 -3.2720719201071398 -3.8705938980131704 0 0 0
896 199 4 -6.268025055438601 -3.2491192762609638 -3.998184414870235 0 0 0
895 199 2 -5.947999704921382 -2.865479424491153 -3.9780787151766264 0 0 0
897 199 4 -5.627974354404162 -2.4818395727213423 -3.9579730154830184 0 0 0
843 181 4 -5.508622959146081 -2.1093270390339094 -3.85700193275429 0 0 0