LAMMPS data file via write_data, version 4 Feb 2025, timestep = 8500000, units = lj

3100 atoms
4 atom types
2100 bonds
1 bond types
1250 angles
2 angle types

-10.410592 10.410592 xlo xhi
-10.410592 10.410592 ylo yhi
-10.410592 10.410592 zlo zhi

Masses

1 1
2 1
3 0.1
4 0.1

Bond Coeffs # harmonic/omp

1 100 0.45

Angle Coeffs # harmonic/omp

1 100 180
2 100 109.471

Atoms # full

1503 468 4 0 -8.316779849835319 -8.98307502580575 -10.231558337908327 0 0 1
1167 356 4 0 -6.057744246373572 -10.385986817988508 -1.1246936925652675 0 1 0
2792 898 2 0 -0.88751000232376 -2.84678942704269 -10.38291999278615 0 0 1
2281 727 4 0 -1.569787733125531 -1.1472098847545635 -1.2698557954420817 0 0 0
1705 535 4 0 -8.430503747608265 -7.794345866456902 -10.358148223731025 0 0 1
1704 535 4 0 -8.161279665221665 -8.635790692404704 -10.155138693511969 0 0 1
1703 535 2 0 -8.296204223556362 -8.226150737644506 -10.25175633426935 0 0 1
948 283 4 0 -6.137808470177618 -7.951767702225917 -9.005967536251351 0 0 1
949 283 4 0 -5.550227595548185 -7.713788616630503 -9.685141688457062 0 0 1
947 283 2 0 -5.849833498199432 -7.838349805722025 -9.335930175095374 0 0 1
3 1 3 0 -10.260107109639572 -7.314797290851059 -8.77099570586516 0 0 0
2004 635 4 0 -5.342179861083698 -7.632851813030946 -10.007667408922178 0 0 0
2005 635 4 0 -5.01492645186136 -6.79273928315873 -9.902799394023353 0 0 0
2003 635 2 0 -5.179754505350944 -7.2121881351088755 -9.955289514338725 0 0 0
2938 946 4 0 -4.28502273430026 -6.430888274949123 -9.239582357157197 1 1 0
2936 946 2 0 -4.362783398406879 -6.066380797098383 -9.485591560660893 1 1 0
1346 416 2 0 -10.142660232465996 -4.826987042752627 -9.77961357494113 1 1 1
1348 416 4 0 -9.96720361877754 -5.089311624709687 -10.120856626328372 1 1 1
2580 827 4 0 -10.062376364930964 -5.389227985321671 -10.367344069210015 1 1 0
2937 946 4 0 -4.439484704397287 -5.7033903991017265 -9.716623603587712 1 1 0
1299 400 4 0 -4.266128468602129 -5.570657127474321 -10.062670223572427 0 1 -1
1298 400 2 0 -3.965187435563255 -5.439441351836144 -10.36486401453846 0 1 -1
1347 416 4 0 -10.305757145940929 -4.574292092713816 -9.463943638036316 1 1 1
1385 429 2 0 -5.438507508894337 -1.6375352387643538 -10.29780704695293 0 0 1
2141 681 2 0 -1.234037497092803 -1.7895218786364404 -10.072404972620705 0 0 1
2142 681 4 0 -1.0304013255181337 -2.203529167207866 -10.057685603567657 0 0 1
1387 429 4 0 -5.445211550222167 -1.4883260603466035 -9.871061289065867 0 0 1
2734 878 4 0 -5.497097947914556 -1.257064693755582 -9.560615568848712 0 1 0
2732 878 2 0 -5.510990771822953 -1.2219060460978244 -9.108847253026605 0 1 0
880 260 4 0 -1.644251965794509 -1.1221980656312922 -9.89539498319969 0 0 1
2143 681 4 0 -1.433313804762158 -1.3948721178252594 -10.093385736678153 0 0 1
878 260 2 0 -1.7228629166166676 -0.7786763119979747 -10.20412385726443 0 0 1
1457 453 2 0 -8.289079386015935 -9.331928002480584 -7.3419109971440255 -1 1 0
1458 453 4 0 -7.942539732844844 -9.48656372488833 -7.607776870830677 -1 1 0
2166 689 4 0 -7.58872872464506 -9.628552478872837 -7.7220054353463725 0 0 1
2165 689 2 0 -7.387456422840135 -9.302140640480008 -8.001960126561473 0 0 1
2167 689 4 0 -7.18463451789231 -8.981134853703129 -8.275500769280148 0 0 1
699 200 4 0 -7.11615753846924 -8.644668037059407 -8.465328612363168 0 0 1
356 86 2 0 -1.3580733346326384 -9.188681605032526 -8.548333191350931 0 0 0
358 86 4 0 -1.0309206473799415 -8.997235678482983 -8.31836153252364 0 0 0
3057 986 4 0 -0.6605691878789909 -9.116159543992204 -8.441141205177246 0 0 0
3056 986 2 0 -0.23492443361743945 -9.038429211685209 -8.301318472727816 0 0 0
600 167 4 0 -10.305178529261555 -9.976872224852624 -2.462063015018874 0 0 0
700 200 4 0 -6.45210263265945 -8.215329203718184 -8.897721253237814 0 0 1
698 200 2 0 -6.798901616598626 -8.439219094274916 -8.671827819631238 0 0 1
357 86 4 0 -1.699701934185953 -9.394445221640627 -8.78528739858531 0 0 0
4 1 3 0 -9.600409827348935 -6.9325041333773525 -8.771716356004445 0 0 0
2197 699 4 0 -9.48878207738197 -6.579558943437083 -8.929993402704827 0 0 1
2195 699 2 0 -9.238227506041971 -6.23708545680434 -8.739842824169962 0 0 1
5 1 3 0 -9.864602936682493 -7.243974893507166 -8.134264226186806 0 0 0
1159 353 4 0 -9.749262157819372 -7.556239241003 -7.91807527996477 0 1 0
1 1 1 0 -9.986778074501492 -7.030774394734772 -8.522493784300902 0 0 0
1157 353 2 0 -9.637145733174991 -7.3792325117015 -7.546423300722732 0 1 0
2196 699 4 0 -8.988093921306799 -5.903782828124135 -8.545888333418318 0 0 1
736 212 4 0 -8.832187224572671 -5.719894896969216 -8.220935515380717 0 0 1
734 212 2 0 -8.409325476132725 -5.517633849139187 -8.355391085003669 0 0 1
735 212 4 0 -8.02236691328312 -5.325863712174841 -8.491944018846205 0 0 1
2463 788 4 0 -7.775048753477559 -5.057773349889045 -8.369508065206924 0 1 0
2462 788 2 0 -7.403073603099663 -4.8100232166511026 -8.328517819799547 0 1 0
2464 788 4 0 -7.067986933864724 -4.5833192285505655 -8.293870706933237 0 1 0
960 287 4 0 -6.77557723197963 -4.369122374916557 -8.492645091871468 0 0 0
959 287 2 0 -6.5268179831033235 -4.0341511038499585 -8.304219553174926 0 0 0
961 287 4 0 -6.280546570337547 -3.7050077598602416 -8.116598319750064 0 0 0
955 285 4 0 -6.431507436521575 -3.4713229922250965 -7.844549728994472 0 0 0
953 285 2 0 -6.281498174130537 -3.022678235136169 -7.818117232616031 0 0 0
1024 308 4 0 -0.10875747277405302 -3.2108329128565614 -7.708290552090758 0 0 0
363 88 4 0 -7.325441484312424 -2.222428306329758 -7.271352881330041 0 0 0
362 88 2 0 -7.080338674160432 -2.0436547029166094 -7.613710711942259 0 0 0
364 88 4 0 -6.837884006456159 -1.8659863287101148 -7.9537641266101184 0 0 0
2008 636 4 0 -6.496750220342939 -1.6520767447921056 -8.041554933823452 0 0 0
954 285 4 0 -6.1440302525085295 -2.6079983915707845 -7.781408006265685 0 0 0
651 184 4 0 -5.724906673364659 -2.593226277342825 -7.702964008438671 0 -1 0
650 184 2 0 -5.551540577222526 -2.251635776865763 -7.427424995404131 0 -1 0
2007 636 4 0 -5.7361196546251 -1.4016797645838024 -8.406526700732899 0 0 0
2006 636 2 0 -6.103482526426221 -1.5165407934466888 -8.233174928888031 0 0 0
2733 878 4 0 -5.529483449091975 -1.1770825859226737 -8.642447346073688 0 1 0
2833 911 4 0 -0.22461803056569557 -0.6418469493973307 -6.671259690020973 0 0 1
1459 453 4 0 -8.613264976319542 -9.19014015239481 -7.085979038049626 -1 1 0
2633 845 2 0 -8.731032684195888 -9.380814215378141 -6.270140135712493 0 1 1
2634 845 4 0 -8.56130078323561 -9.29981638872344 -6.690909483740439 0 1 1
427 109 4 0 -7.4017363954455195 -9.737943742340688 -6.019914118848252 0 0 0
1158 353 4 0 -9.528784791980224 -7.202258168023655 -7.175876846048516 0 1 0
1144 348 4 0 -9.336315398444723 -6.886165056868151 -6.9969185120299935 0 0 0
1142 348 2 0 -9.61935343016756 -6.7508219938937675 -6.662646462949291 0 0 0
1143 348 4 0 -9.879194448920703 -6.622142792768958 -6.361336731015637 0 0 0
1865 589 2 0 -5.938705142010076 -1.3336109453824967 -0.0896948433403451 0 0 0
2214 705 4 0 -3.843289874650396 -3.0435795272050887 -6.4723306158842675 1 0 0
2213 705 2 0 -3.817853313289577 -3.398948675733809 -6.151509310963746 1 0 0
1023 308 4 0 -0.4556447162152643 -3.154600323956242 -6.852306977491203 0 0 0
1022 308 2 0 -0.2813282977327231 -3.182233811891974 -7.2860122829763005 0 0 0
1995 632 4 0 -9.835994491158718 -1.537594560718323 -6.868566168146849 1 0 0
33 7 3 0 -9.591478597089381 -1.8518969539625723 -6.944975123661963 0 0 0
35 7 3 0 -9.038560345908786 -2.039685702753254 -6.540179745108584 0 0 0
2230 710 4 0 -9.373516861053716 -2.149558359162486 -6.348781806114246 0 0 0
2228 710 2 0 -9.413317248357723 -2.5137446236587246 -6.064157742780013 0 0 0
31 7 1 0 -9.154415997406593 -1.8302290471443177 -6.894828129141036 0 0 0
384 95 4 0 -7.706397438708047 -2.279632228356334 -7.191511269881007 0 0 0
383 95 2 0 -8.126760193655228 -2.252518496215129 -7.250671129623056 0 0 0
385 95 4 0 -8.60772941291062 -2.2256516521917873 -7.319876561739771 0 0 0
34 7 3 0 -8.958706036012778 -2.0270969762277953 -7.249327304546163 0 0 0
652 184 4 0 -5.36480171833728 -1.9124214247114812 -7.156354804463233 0 -1 0
927 276 4 0 -5.263167635370745 -1.691933796600596 -6.8391466926383835 0 -1 0
926 276 2 0 -5.634988992151814 -1.4781117895618472 -6.665792227190519 0 -1 0
1730 544 2 0 -0.42999577445796655 -2.9004567122879155 -6.068349900264434 1 -1 0
1732 544 4 0 -0.4507101689818544 -2.9248255186470824 -6.516248723497694 1 -1 0
1994 632 2 0 -10.137690881899912 -1.339519959981871 -7.0907096125962985 1 0 0
1122 341 4 0 -9.242722318355453 -0.4353577661118994 -7.419113852668469 -1 0 0
660 187 4 0 -9.148020700872982 -0.09564551918861113 -7.214646372224729 0 0 0
2182 694 4 0 -8.19712552374043 -1.1510168992543808 -6.163910738493163 0 0 0
32 7 3 0 -9.026574093588472 -1.415384086388739 -6.872902203272914 0 0 0
1121 341 2 0 -9.021183446235213 -0.7874508710651783 -7.2110077978040605 -1 0 0
1123 341 4 0 -8.800384038622996 -1.1196594915289215 -7.019734624958603 -1 0 0
2180 694 2 0 -7.76230604899152 -1.0644240872206798 -6.054836579219096 0 0 0
2181 694 4 0 -7.338327440407245 -0.9871065846377046 -5.9549446641359545 0 0 0
697 199 4 0 -7.060255842708381 -1.262275489246732 -6.02145781104106 0 -1 0
696 199 4 0 -6.286347742978566 -1.0173595477902513 -6.414376398109706 0 -1 0
695 199 2 0 -6.672158597093011 -1.1385760800119233 -6.215332042074021 0 -1 0
928 276 4 0 -6.0010893053126075 -1.2708094181821703 -6.496947605209003 0 -1 0
2110 670 4 0 -2.842611803192507 -0.5565029892358915 -6.5284503914521785 0 0 0
2109 670 4 0 -2.2260378543518953 -1.1586357391880289 -6.7729779540060795 0 0 0
1689 530 4 0 -3.05189716181131 -0.2322233451620275 -6.460787566580893 0 -1 0
2108 670 2 0 -2.5296859273075207 -0.8618942035224441 -6.650137795992886 0 0 0
283 61 4 0 -6.3247730838066145 -0.7087159934906953 -0.24691591137123312 -1 0 0
668 190 2 0 -0.6051317262878303 -1.1780093429520129 -6.357239039042085 -1 -1 1
669 190 4 0 -0.37327338469083654 -0.9845051964964807 -6.732877709856328 -1 -1 1
282 61 4 0 -6.999464067896652 -0.39810055790775534 -0.7336073066062793 -1 0 0
670 190 4 0 -0.8098805360566523 -1.3598032078043139 -6.02374841592282 -1 -1 1
2635 845 4 0 -8.886211670585192 -9.464548965923113 -5.871145789730742 0 1 1
1140 347 4 0 -8.855801803447351 -9.690529297541545 -5.543771477343098 0 0 0
1139 347 2 0 -8.980503732031435 -10.100767779849178 -5.40535346671282 0 0 0
1466 456 2 0 -7.749709405235065 -9.13955705819458 -5.9031218742538085 0 1 1
1468 456 4 0 -7.714443220614574 -9.539516324551672 -6.1718094380826205 0 1 1
425 109 2 0 -7.169357085000426 -10.132623294367539 -5.919580706572845 0 0 0
1764 555 4 0 -3.5538574804349854 -10.133146231119046 -5.851328002336802 0 0 0
904 268 4 0 -3.6294442036749666 -9.762476185434698 -5.771350088267178 0 0 0
2090 664 2 0 -4.2662095099512145 -10.376949678811384 -4.384383667543147 0 0 0
902 268 2 0 -3.560306670445313 -9.52028260503685 -5.418259289176718 0 0 0
2091 664 4 0 -4.280818001446465 -10.169316590682742 -4.799393225263462 0 0 0
903 268 4 0 -3.487807548365325 -9.271228418689917 -5.059455082197155 0 0 0
315 72 4 0 -8.086638212935455 -8.060003516302642 -4.7476683991677335 0 0 0
314 72 2 0 -7.905268253521199 -8.37542690743044 -4.9947428855769225 0 0 0
771 224 4 0 -7.976279350249724 -7.7581781356150765 -4.490372291348763 0 0 1
316 72 4 0 -7.736320899933807 -8.690896836249546 -5.254308950892057 0 0 0
1467 456 4 0 -7.785752206297785 -8.765869899803338 -5.633762742132049 0 1 1
932 278 2 0 -4.320554830994351 -7.613163019652385 -4.5875018661831 0 0 1
934 278 4 0 -4.207661215931796 -7.951248626357991 -4.855071390655908 0 0 1
1854 585 4 0 -4.034673289828745 -8.207650369020898 -5.0942626612733175 1 -1 0
1853 585 2 0 -3.8529357561135584 -8.58462434286923 -4.9699053981896215 1 -1 0
1855 585 4 0 -3.6589963279278908 -8.969579427062301 -4.8498947310952945 1 -1 0
907 269 4 0 -10.201850286850265 -6.863188332966835 -6.246672963891645 0 0 1
788 230 2 0 -4.539183568261894 -5.241892085437919 -4.768597834031006 0 0 0
789 230 4 0 -4.891470348674426 -5.489868843157219 -4.6982007899875216 0 0 0
790 230 4 0 -4.189178136678836 -4.986933482230205 -4.8354111691264565 0 0 0
1150 350 4 0 -4.0452057040105736 -4.723866400142938 -5.137760089831507 0 1 -1
2229 710 4 0 -9.44660605370947 -2.8699113833132253 -5.775587135987612 0 0 0
1203 368 4 0 -9.625582137836082 -3.7063910255325454 -5.105065786231563 0 0 0
2872 924 4 0 -9.797646336841646 -3.9760908328184854 -4.821567890856078 1 0 0
1202 368 2 0 -9.617740377857961 -3.467491265607065 -5.482867574700022 0 0 0
1204 368 4 0 -9.620747006577357 -3.221846324700786 -5.884011285983396 0 0 0
2215 705 4 0 -3.785388115054572 -3.748716854373603 -5.856704009908209 1 0 0
1149 350 4 0 -4.0280486323206235 -4.036813386184275 -5.703493504320654 0 1 -1
1148 350 2 0 -4.0346286938173614 -4.380832668101261 -5.4144117261496385 0 1 -1
708 203 4 0 -0.09862379610217478 -2.7551764874444933 -5.372446763127471 0 0 0
1731 544 4 0 -0.4109374719056415 -2.869024366137067 -5.617424340493043 1 -1 0
1534 478 4 0 -10.210276873534015 -0.8331395059002821 -5.25027806770593 -1 0 0
1532 478 2 0 -9.842354584961118 -0.6449194528553366 -5.492056663068044 -1 0 0
1533 478 4 0 -9.502087839801394 -0.47558235677869 -5.7087206586187085 -1 0 0
1701 534 4 0 -9.185091431982958 -0.705151754857045 -5.803264824179017 1 0 0
1700 534 2 0 -8.88001580609484 -0.9861695425549593 -6.020757505132814 1 0 0
1702 534 4 0 -8.589499743965508 -1.2546163764705864 -6.220795748936192 1 0 0
1906 602 4 0 -1.918524997834236 -0.8021306047794422 -5.111323390559738 0 0 0
1904 602 2 0 -1.9591834564559296 -0.3609486418076067 -5.021571013719018 0 0 0
2920 940 4 0 -1.8296321262216158 -1.1455255429404048 -5.260148045249302 0 0 0
859 253 4 0 -0.04550286934718165 -6.580460689059872 -6.928006217252506 0 0 0
2919 940 4 0 -1.0817750301832045 -1.3414919507408094 -5.725574784123056 0 0 0
2918 940 2 0 -1.4524632058176075 -1.247916441165054 -5.492636603064495 0 0 0
376 92 4 0 -9.87309648365994 -9.154728019967184 -3.4739217213379128 0 0 0
30 6 3 0 -9.631495829459046 -8.847072046520294 -3.6184282365213347 0 0 0
374 92 2 0 -10.267808117661634 -9.172249602852503 -3.745651781935266 0 0 0
27 6 3 0 -8.926681465684956 -9.008073316553226 -3.38918610101136 0 0 0
26 6 1 0 -9.316777361806636 -8.793086559323084 -3.2823630724972968 0 0 0
593 165 2 0 -8.919101993884453 -9.85004106036351 -3.372535902934535 0 0 0
595 165 4 0 -8.951562446986799 -9.398103355429816 -3.3489697390639197 0 0 0
29 6 3 0 -9.240399898462464 -8.341285302474413 -3.226246427364645 0 0 0
1984 628 4 0 -9.201277313499087 -7.956873208503069 -3.0962192512664646 1 0 0
1982 628 2 0 -8.903171875860357 -7.752380117152522 -3.3210270447847132 1 0 0
1983 628 4 0 -8.57297314306487 -7.529790680436172 -3.564197532967601 1 0 0
770 224 2 0 -8.085385495028461 -7.623013146384276 -4.065743104816453 0 0 1
772 224 4 0 -8.192668948546084 -7.4775781286217144 -3.6397727568293154 0 0 1
933 278 4 0 -4.434101185525489 -7.255341374605032 -4.316480753933254 0 0 1
1096 332 4 0 -4.766943604343857 -7.031350049333483 -4.285589075184928 0 1 -1
1094 332 2 0 -4.878630326430669 -6.864012326841014 -3.8448812069316274 0 1 -1
1095 332 4 0 -4.985098641914712 -6.7183083341883005 -3.417909705794004 0 1 -1
523 141 4 0 -5.3002647432344725 -6.597339096469094 -3.2372811110532185 0 0 0
995 299 2 0 -9.264113611631904 -5.175172814811764 -3.8668001338732436 0 0 0
996 299 4 0 -9.596040557239364 -4.950426742999542 -4.074556445178216 0 0 0
997 299 4 0 -8.920507780241792 -5.4005335593354795 -3.646693004517971 0 0 0
1257 386 4 0 -8.506636800948652 -5.405526458604564 -3.62430743610025 0 1 0
1256 386 2 0 -8.096214966808189 -5.543469917293088 -3.8192729638855414 0 1 0
1258 386 4 0 -7.7048800640889 -5.67161969607972 -4.006101319247945 0 1 0
543 148 4 0 -6.488540446153197 -5.647628699836502 -4.175688719979394 0 0 0
544 148 4 0 -7.324562307566279 -5.6956358864740775 -3.9195504715557474 0 0 0
542 148 2 0 -6.927690764053022 -5.667032198406155 -4.044432369792835 0 0 0
1156 352 4 0 -6.093303904152793 -5.58326387077984 -4.181782338791463 0 0 -1
1155 352 4 0 -5.257832582483701 -5.466378171368879 -4.539426988850146 0 0 -1
1154 352 2 0 -5.664131387275186 -5.521593688402302 -4.366450354008897 0 0 -1
2870 924 2 0 -9.734133657489117 -4.2752507756041815 -4.503401502776736 1 0 0
2871 924 4 0 -9.666521728475209 -4.579482059760982 -4.166964051289042 1 0 0
1608 503 4 0 -1.8785589010679085 -3.0700988402717706 -3.2601523304797233 0 0 0
2900 934 2 0 -9.749578860364512 -9.414938725766548 -2.4107406224419385 1 0 0
2902 934 4 0 -9.503996243429533 -9.072037208259623 -2.538443960846274 1 0 0
28 6 3 0 -9.466398121396729 -8.961049845387413 -2.911218252750965 0 0 0
2901 934 4 0 -10.000816953109105 -9.775162768041932 -2.2818774165684097 1 0 0
2545 815 4 0 -7.8019667526346685 -10.013765707042934 -2.0392470802999974 1 1 0
1065 322 4 0 -7.697292893275039 -10.349397260348638 -2.225854574527748 0 1 0
1297 399 4 0 -5.870132575906784 -9.406582065836766 -2.288546877406824 0 1 0
1295 399 2 0 -6.123112923935988 -9.01114199845778 -2.38814383830448 0 1 0
2388 763 4 0 -6.218272184393013 -10.217454418803396 -1.4623309717710513 0 1 0
2387 763 2 0 -6.011827937720739 -9.997132014079929 -1.79121682157651 0 1 0
2389 763 4 0 -5.805754966741702 -9.769114620744922 -2.120925581557301 0 1 0
1888 596 4 0 -1.898167272361384 -10.003027206031206 -1.2942987478254921 0 0 0
1296 399 4 0 -6.356585588403627 -8.642694156375445 -2.484877161268696 0 1 0
2881 927 4 0 -6.165870923105042 -8.311724789795843 -2.3935469730181946 1 0 0
2879 927 2 0 -6.262606201719051 -7.902242295873208 -2.2637169547274727 1 0 0
2880 927 4 0 -6.364752117024395 -7.478847048086301 -2.1395990700310636 1 0 0
1499 467 2 0 -6.337008785736348 -6.632552438449361 -2.1215949529731764 0 1 0
1501 467 4 0 -6.294008258872004 -6.189773425490316 -2.2077170132623234 0 1 0
2782 894 4 0 -6.565570015094245 -5.926011066061838 -2.3718122749605213 1 1 0
1500 467 4 0 -6.381283422439657 -7.088356409298503 -2.027468051059003 0 1 0
521 141 2 0 -5.302257223452103 -6.4968991964714276 -2.8105442818200386 0 0 0
522 141 4 0 -5.309759496969655 -6.391575957852771 -2.3805566769965716 0 0 0
1971 624 4 0 -5.225054350933554 -6.529969023766146 -1.9961851383228666 0 0 0
1970 624 2 0 -4.869635063903552 -6.518444616605011 -1.6963677424137766 0 0 0
1628 510 2 0 -6.8821867899205085 -4.73815216950189 -1.5952128846593558 0 1 0
1629 510 4 0 -7.058242412558603 -5.0811252682528725 -1.8274223131608012 0 1 0
2780 894 2 0 -6.791835100005288 -5.535407157459452 -2.296670955595571 1 1 0
2781 894 4 0 -7.006730344582081 -5.178972362531865 -2.2248231321123018 1 1 0
1607 503 2 0 -1.5673396924642156 -2.9754761191723773 -2.924112734433602 0 0 0
2951 951 2 0 -0.7802532672477742 -2.979193183477914 -2.1510063346202144 1 0 0
1609 503 4 0 -1.282353245077843 -2.8865124029022216 -2.5894020005316003 0 0 0
2953 951 4 0 -0.8767610062303214 -2.7800696866886354 -2.562588118504113 1 0 0
1477 459 4 0 -8.043918878497678 -0.07966701065746887 -2.7846620122916335 0 0 0
2793 898 4 0 -1.130767250741575 -2.5902947575070248 -10.142421670467744 0 0 1
1412 438 2 0 -1.3686831618386635 -0.39153807980235844 -1.2609761469146195 0 0 0
1413 438 4 0 -1.53514874131317 -0.7806907877664405 -1.4023836130039475 0 0 0
885 262 4 0 -8.843209968644699 -8.7394672930435 -1.0577901479179843 0 0 0
2543 815 2 0 -7.785928239389126 -9.645115991216478 -1.7554823343903376 1 1 0
886 262 4 0 -8.162866414244126 -9.278093061479252 -1.3129198946709304 0 0 0
2544 815 4 0 -7.772505115651052 -9.29366867745067 -1.4795269511514961 1 1 0
884 262 2 0 -8.513352908425597 -9.005250659833072 -1.1798859249536706 0 0 0
1809 570 4 0 -3.1855257207114116 -9.68493151338478 -0.25280957903471735 1 0 0
1808 570 2 0 -2.741556505152341 -9.55648544984833 -0.35223771838110246 1 0 0
2485 795 4 0 -1.5114254823358524 -8.637138914395868 -0.3174927556839264 0 0 0
158 32 3 0 -1.4513002161239816 -8.94494997639394 -0.0702131122266058 1 0 0
404 102 2 0 -10.21719097679573 -7.494300005993915 -0.9632994890256821 0 0 0
406 102 4 0 -9.815685859829774 -7.631235438650728 -0.7321432037020058 0 0 0
876 259 4 0 -9.135941722870367 -8.57981522247888 -0.8603131271178416 0 1 0
875 259 2 0 -9.46907842731704 -8.291413817262157 -0.7322357822266542 0 1 0
877 259 4 0 -9.797791817833913 -8.00792976760632 -0.6008360665288195 0 1 0
2731 877 4 0 -6.289962783802112 -8.018227326628597 -0.9463829626691628 1 1 -1
2729 877 2 0 -6.696024110639654 -7.917786769134244 -0.7673583604846163 1 1 -1
2730 877 4 0 -7.113563585468694 -7.806015393203205 -0.5732694041646397 1 1 -1
1283 395 2 0 -3.420224909606711 -7.988219106286251 -0.41069816847419954 0 1 0
1285 395 4 0 -3.527746365525027 -7.666331734248721 -0.676879073856494 0 1 0
594 165 4 0 -8.88286561229689 -10.28593578407844 -3.3995827040422424 0 0 0
2483 795 2 0 -1.6952227248183724 -8.553213346777326 -0.7186637328140624 0 0 0
2484 795 4 0 -1.8852847994857953 -8.479532607003346 -1.1100755314744135 0 0 0
281 61 2 0 -6.659277012299205 -0.5535452247197831 -0.49412707344971646 -1 0 0
474 125 4 0 -6.41183544756257 -0.18054661003583336 -5.743668634973468 0 -1 1
1972 624 4 0 -4.517297446438837 -6.519489916006064 -1.3946683902486305 0 0 0
3088 996 4 0 -4.214985058080181 -6.765229645743381 -1.2657921827615228 0 1 0
3086 996 2 0 -4.04440974245906 -7.137620057955682 -1.0098962025963647 0 1 0
3087 996 4 0 -3.883742138375753 -7.502906172512008 -0.7549161803627761 0 1 0
2267 723 2 0 -0.9806979393699777 -4.400340452262991 -0.2863652150317906 0 0 0
2268 723 4 0 -0.9004741794295239 -4.8117061739791405 -0.0911827859478925 0 0 0
1304 402 2 0 -8.287877399376168 -3.6689525450452 -0.27824814001216813 0 1 0
1306 402 4 0 -7.906168932675539 -3.645824792501028 -0.5420386800356036 0 1 0
1749 550 4 0 -7.70155211902087 -3.793503952796163 -0.8635497201212661 0 0 0
1305 402 4 0 -8.64997654191048 -3.684283548151231 -0.018348421274272997 0 1 0
2704 868 4 0 -0.20944475155804976 -3.206626629920622 -8.096569848774239 0 0 1
1630 510 4 0 -6.717523430939252 -4.4094159065600405 -1.3706985574621255 0 1 0
1750 550 4 0 -6.883299460876023 -4.1065640795378044 -1.097963659166664 0 0 0
1748 550 2 0 -7.287853071043948 -3.948932682656244 -0.9856532569329046 0 0 0
1474 458 4 0 -2.2513769772594783 -3.46680479112361 -0.07046133111798812 0 0 0
1472 458 2 0 -2.3533550718304976 -3.1736984656868406 -0.3719580815084675 0 0 0
1473 458 4 0 -2.4583230623883083 -2.87747340949716 -0.6967928495526626 0 0 0
253 51 4 0 -0.9858855500604308 -3.2615915124923958 -1.5037447833889408 -1 0 -1
2269 723 4 0 -1.0637831588011208 -4.022003248247496 -0.4654457795625639 0 0 0
252 51 4 0 -0.9542620394827925 -3.722467864315356 -0.7136114157683029 -1 0 -1
251 51 2 0 -0.9722844602946992 -3.4781760051754453 -1.1207452563513833 -1 0 -1
2952 951 4 0 -0.6734541979093314 -3.175333064659237 -1.7477448001607068 1 0 0
80 16 3 0 -9.138552131856459 -2.7904486509343993 -0.318855210918033 0 0 0
2 1 3 0 -10.198484433695153 -6.6740753945624105 -8.426080754133991 0 0 0
2279 727 2 0 -1.8591395503224903 -1.4453436067254215 -1.3709611786904223 0 0 0
2869 923 4 0 -2.2218683673596145 -2.818993793364686 -1.0136982471826856 0 0 1
2868 923 4 0 -2.3611194526662675 -2.0776584849000304 -1.539818879105143 0 0 1
2867 923 2 0 -2.286246618039306 -2.464600756428226 -1.2671408002409017 0 0 1
2280 727 4 0 -2.1737038035716942 -1.7433748388474726 -1.4733504397014796 0 0 0
2815 905 4 0 -10.4000971026975 -0.3274225482217715 -1.3379966410301833 0 0 0
2814 905 4 0 -9.711779880500998 -0.38644837221882017 -0.7545263330083539 0 0 0
2813 905 2 0 -10.054073734834907 -0.3610266485429914 -1.0406066219077477 0 0 0
1566 489 4 0 -9.442407061608789 -0.2220715000326516 -0.48477387578584497 0 0 0
2306 736 2 0 -7.766485821968197 -0.2828561385133356 -0.5208920244655412 0 0 0
1567 489 4 0 -8.542624841891266 -0.31436027469115824 -0.2879184325510327 0 0 0
1565 489 2 0 -8.99228914033938 -0.26356186611144916 -0.3815252926906622 0 0 0
2308 736 4 0 -8.224860241011303 -0.21548519482903786 -0.494930247868908 0 0 0
2307 736 4 0 -7.336467155666344 -0.3487864254160119 -0.5334975146777394 0 0 0
1866 589 4 0 -6.204910867318103 -1.0797792061440066 -0.31889222063216976 0 0 0
2630 844 2 0 -10.3860184574995 -10.337577611057306 -8.794146615413318 1 1 0
157 32 3 0 -2.0490704240551576 -9.381573407966725 -0.11224240105908852 1 0 0
1810 570 4 0 -2.2982099073181272 -9.428113215406789 -0.4455919838983921 1 0 0
1284 395 4 0 -3.301301679462826 -8.306774594404173 -0.13610398186628883 0 1 0
1964 622 2 0 -2.173588377904784 -4.282963047797663 -0.09375951685178052 0 -1 0
1965 622 4 0 -2.2624794709472575 -3.8361034971416617 -0.21526968837103028 0 -1 0
1414 438 4 0 -1.1905314446971933 -0.00046352584684991247 -1.1162669594995729 0 0 0
473 125 2 0 -6.413946082474897 -0.003974897074457877 -6.1525395744217635 0 -1 1
574 158 4 0 -10.296018564588737 -4.548979887960256 7.661245199761742 0 0 -1
1724 542 2 0 -8.917983005323903 -10.219444775246174 0.9091273894729834 0 0 0
1654 518 4 0 -8.230943859727706 -9.77752396049697 1.0326911472256084 0 1 0
1725 542 4 0 -8.555579619148993 -10.00289671359518 1.0327348710684772 0 0 0
1652 518 2 0 -8.105933084407285 -9.789653368254102 1.4698274851951285 0 1 0
1120 340 4 0 -3.692499196338241 -9.137506759230405 0.7605347755478457 0 1 0
377 93 2 0 -3.5988408976568356 -9.24308015246194 1.546915286465176 0 0 0
379 93 4 0 -3.686951793815782 -9.282156591550455 1.1178309921313199 0 0 0
156 32 1 0 -1.6631812610711416 -9.298487075744308 0.1134311264927342 1 0 0
814 238 4 0 -1.9499568337987112 -0.10989220989315576 8.918330066255137 0 0 0
160 32 3 0 -1.3853473992400096 -9.65661120551234 0.09881439093184244 1 0 0
812 238 2 0 -1.6245150046587615 -0.004544289968727352 8.617473388705509 0 0 0
159 32 3 0 -1.7598609239153267 -9.213052519180767 0.5566149477471494 1 0 0
1831 577 4 0 -1.5672383912483372 -9.27156931908824 0.902938161501899 0 0 -1
1829 577 2 0 -1.3989220145391623 -9.628583906923241 1.1072331239861306 0 0 -1
1830 577 4 0 -1.2291359184077095 -10.005435376813299 1.325748239339095 0 0 -1
2647 849 4 0 -1.4154822206222204 -9.999979419859413 0.29649962673034286 0 1 0
1118 340 2 0 -3.4924070055301555 -8.850029710742987 0.4647427928492301 0 1 0
2967 956 4 0 -6.72927072489704 -10.11031677600337 6.974799299069021 1 1 0
2506 802 4 0 -0.679123949593777 -7.7535407624545405 0.26448576163290355 1 1 0
2697 866 4 0 -0.30844027345280556 -7.856230125731509 0.36471740526926816 0 1 0
2504 802 2 0 -0.8368021434516241 -7.395701456744376 0.5355219629349554 1 1 0
2505 802 4 0 -1.0030318072345006 -7.044190695954444 0.7958822246527127 1 1 0
2384 762 2 0 -1.109678627875158 -6.350673246405639 0.8723611956124209 0 0 0
2385 762 4 0 -0.9486603514121252 -6.740235492966084 1.0334690120834362 0 0 0
2443 781 4 0 -1.8619745102094776 -5.042422068491404 0.11065248110489156 0 0 0
2441 781 2 0 -1.724891902130208 -5.41997800194712 0.3556394752152542 0 0 0
2442 781 4 0 -1.6012961616832415 -5.775272637971083 0.5712924416319604 0 0 0
2386 762 4 0 -1.2715925476370342 -5.953660527377898 0.714122911948082 0 0 0
1966 622 4 0 -2.0863047129872845 -4.724877990500423 0.02221348729303805 0 -1 0
3083 995 2 0 -0.500072082845449 -5.0064737042556935 0.5370176978590765 0 0 0
3084 995 4 0 -0.784815346368259 -5.010725399659007 0.21278569658013863 0 0 0
2664 855 4 0 -6.648537485696486 -10.355851354237458 6.669075224999367 1 1 0
1089 330 4 0 -1.182673983305465 -10.387505796057734 1.4618469877801858 -1 1 0
2370 757 4 0 -9.570376221542421 -2.642399353571804 0.4824291269837863 1 -1 0
78 16 3 0 -9.170381006564932 -2.7513333080104467 0.43740317420574776 0 0 0
2369 757 2 0 -9.633104977015023 -2.5814720656084034 0.891106870249133 1 -1 0
2371 757 4 0 -9.7053235605775 -2.523330439262747 1.317960743468239 1 -1 0
79 16 3 0 -8.53594583175767 -2.592594062559299 0.08129171934756975 0 0 0
1864 588 4 0 -5.346547281911644 -1.7002392760841736 0.41399883248254743 0 0 0
1867 589 4 0 -5.6401383039668955 -1.6140158940576372 0.17336085945766033 0 0 0
1862 588 2 0 -5.160746641237807 -1.4827381268719315 0.7795294724858212 0 0 0
2822 908 2 0 -9.129357482062803 -0.99849328761917 0.6792024263299615 1 0 0
2823 908 4 0 -9.16245229949055 -0.5918284488102269 0.4538449586439939 1 0 0
2023 641 4 0 -9.132725777825833 -0.20983945345539817 0.5790320575945277 1 -1 0
2989 963 4 0 -8.828270559220117 -1.4439340869783004 1.207896924719793 1 0 0
2824 908 4 0 -9.083322274627234 -1.3863154979322556 0.8957444448122482 1 0 0
3047 983 2 0 -4.934007173105916 -0.5943682674271951 1.3657654911097723 2 0 1
1863 588 4 0 -4.981023124708107 -1.2766785026934313 1.1034417397693157 0 0 0
3049 983 4 0 -4.832580196985043 -1.0161043329837185 1.3494049753195831 2 0 1
3048 983 4 0 -5.044946786679649 -0.13847354686670554 1.3690664704201219 2 0 1
1653 518 4 0 -7.9789521155226435 -9.801100202435194 1.8982737121239817 0 1 0
798 233 4 0 -7.694080710172719 -9.636883821149198 2.1166000367582516 0 0 0
797 233 2 0 -7.340383347285205 -9.616860554467506 2.397716865925338 0 0 0
799 233 4 0 -6.996358097872996 -9.597433427566928 2.678753753200348 0 0 0
378 93 4 0 -3.50315884125051 -9.192419080518055 2.009409344069693 0 0 0
780 227 4 0 -3.3242082355038525 -9.494837336358577 2.159320855513462 0 0 0
779 227 2 0 -3.0393488076753954 -9.732212108504717 2.424143531280489 0 0 0
781 227 4 0 -2.7503624697007183 -9.982581101628579 2.6979209878709516 0 0 0
346 82 4 0 -3.2903236565041354 -7.464248414026863 1.8903771284893593 0 0 0
344 82 2 0 -3.1969976395468898 -7.233929950938082 2.265491496249078 0 0 0
345 82 4 0 -3.1206808909765633 -7.015526592581798 2.6217208757759396 0 0 0
2736 879 4 0 -3.20811751031173 -6.823288871357165 2.977909114858966 1 0 0
1846 582 4 0 -9.5519711966565 -2.2290262079440986 1.5296431272586448 1 -1 0
1844 582 2 0 -9.881258989974704 -1.9849975424774013 1.7530546364666075 1 -1 0
1845 582 4 0 -10.191554836949502 -1.7577934644913027 1.959799927602676 1 -1 0
958 286 4 0 -10.292554935615112 -1.5687061290953654 2.2947663562758156 0 1 0
716 206 2 0 -8.201920104816482 -2.0494718773648977 2.525264847474517 0 0 0
717 206 4 0 -8.05821126464195 -1.8094355313093806 2.170492020943509 0 0 0
2987 963 2 0 -8.563424113509706 -1.5117504071551193 1.5665252868857051 1 0 0
2988 963 4 0 -8.269861557536927 -1.587573843983954 1.9387377293237922 1 0 0