LAMMPS data file via write_data, version 4 Feb 2025, timestep = 800000, units = lj

3100 atoms
4 atom types
2100 bonds
1 bond types
1250 angles
2 angle types

-10.410592 10.410592 xlo xhi
-10.410592 10.410592 ylo yhi
-10.410592 10.410592 zlo zhi
-7.105427357601002e-15 0 0 xy xz yz

Masses

1 1
2 1
3 0.1
4 0.1

Bond Coeffs # harmonic/omp

1 100 0.45

Angle Coeffs # harmonic/omp

1 100 180
2 100 109.471

Atoms # full

2707 869 4 0 -9.664215005207065 -9.578282340866775 -10.144032423356908 12 1 0
2630 844 2 0 -8.905132477345976 -9.703960687876114 -10.068683002036472 12 1 0
2631 844 4 0 -9.347232831921202 -9.703937278482716 -9.928063047113946 12 1 0
2632 844 4 0 -8.490796731727137 -9.69842755852958 -10.213075828873206 12 1 0
560 154 2 0 -1.172206744174284 -10.088359528146869 -9.908540440883401 4 0 -1
561 154 4 0 -1.412656824666838 -9.836426981423278 -10.210065740076454 4 0 -1
562 154 4 0 -0.930822412998733 -10.350172751151797 -9.617660217970965 4 0 -1
2705 869 2 0 -10.070205113036154 -9.475461934790694 -10.074154802695595 12 1 0
2497 799 4 0 -8.3046124871487 -9.350971832458388 -10.219581477491046 4 0 0
2495 799 2 0 -7.880738636224882 -9.225006242516217 -10.094533243514935 4 0 0
2496 799 4 0 -7.4498241551752695 -9.100973600852788 -9.962426107722935 4 0 0
868 256 4 0 -7.3144845621093 -8.900189249674197 -9.62594862706463 3 0 1
2248 716 4 0 -1.8317068491548287 -8.759111535780148 -10.194522813772112 4 0 1
2246 716 2 0 -1.6606029429220683 -9.144504484764031 -10.31202137526538 4 0 1
175 35 3 0 -1.7671946739570696 -8.38753609156639 -10.304391514236126 3 0 0
171 35 1 0 -1.52707725208586 -8.056076545163792 -10.059775530033047 3 0 0
173 35 3 0 -1.3175459494204151 -8.260959908151532 -9.712211943178634 3 0 0
172 35 3 0 -1.2322348405626613 -7.850672010790916 -10.320350030659451 3 0 0
2462 788 2 0 -5.445005805768132 -7.3428595205624765 -9.589970682765772 11 1 0
2463 788 4 0 -5.113996946912239 -7.122544515591338 -9.828662783154208 11 1 0
2038 646 4 0 -2.140343701060358 -7.787786180353471 -9.651160879954828 3 0 1
174 35 3 0 -1.8158427587027859 -7.742627272273351 -9.883552918819808 3 0 0
723 208 4 0 -0.8483553190845505 -7.760241477186764 -10.275169448514907 12 1 0
735 212 4 0 -4.972225854186496 -6.913999185193621 -10.143234770181158 3 0 1
734 212 2 0 -4.550330949672307 -6.7284163725806305 -10.266504557699951 3 0 1
736 212 4 0 -4.130571349035115 -6.539451352524287 -10.38678334279339 3 0 1
1636 512 4 0 -4.338533174903436 -4.92065576034497 -10.177698319936596 4 0 1
1791 564 4 0 -4.644521192796731 -4.702128517199308 -10.36709031693233 5 0 0
1634 512 2 0 -3.9626581944813335 -4.756715140222483 -10.018173521174367 4 0 1
1635 512 4 0 -3.576771163527404 -4.581078784163926 -9.854268621576999 4 0 1
1042 314 4 0 -3.193997832096711 -4.661436928927422 -9.724401621089248 4 0 1
1040 314 2 0 -2.99532746876962 -4.238426732220244 -9.67421845643482 4 0 1
1041 314 4 0 -2.7958201016250666 -3.8164702512469875 -9.624473090936448 4 0 1
2500 800 4 0 -2.4344936500300314 -3.6657802285427525 -9.733849252722406 12 1 1
2498 800 2 0 -2.038812808291663 -3.645199928544039 -9.984673521058863 12 1 1
2499 800 4 0 -1.6589223832219648 -3.6280746272110864 -10.235880964656635 12 1 1
2426 776 2 0 -0.9024111307823866 -3.715770593296047 -10.333137781076026 5 0 0
2428 776 4 0 -1.3223252777398962 -3.8205535922729243 -10.141359763092034 5 0 0
1386 429 4 0 -0.2952013117912511 -3.714176889939905 -10.173289428398789 4 0 1
2530 810 4 0 -2.7616472011408604 -0.041485769044392384 -10.262559052943445 17 1 0
2528 810 2 0 -3.0365505977270084 -0.3745127900695415 -10.382978099601122 17 1 0
1803 568 4 0 -10.143171854348518 -9.861127681356765 -9.155147808583331 4 0 0
1802 568 2 0 -9.693243093496392 -9.819720676165936 -9.03578020015558 4 0 0
1804 568 4 0 -9.275016270246253 -9.78646164410805 -8.92189475834892 4 0 0
9 2 3 0 -8.883611233218836 -9.809739696422728 -8.820330160181722 4 0 0
8 2 3 0 -8.139263159068813 -9.838124256412197 -8.858605740835202 4 0 0
295 65 4 0 -7.765331502697519 -9.902010983386138 -8.694808924500002 4 0 0
2748 883 4 0 -5.752609243846086 -9.8717656262068 -8.761279901662075 12 1 0
866 256 2 0 -6.88394389375553 -8.877835031837337 -9.498279475539407 3 0 1
867 256 4 0 -6.466048960800787 -8.85042476166424 -9.36748194181437 3 0 1
1993 631 4 0 -6.128938294147774 -9.008858888080374 -9.479357424270825 3 0 1
1991 631 2 0 -5.7336525056640175 -8.852871948899535 -9.314495068999383 3 0 1
1992 631 4 0 -5.349879111890204 -8.700480763410702 -9.14763348491217 3 0 1
2947 949 4 0 -5.05570564802372 -8.94866328147258 -9.187621579048416 11 1 0
2945 949 2 0 -4.629030965288226 -8.992158056797425 -9.113300273993334 11 1 0
2104 668 4 0 -3.761970867577502 -9.006537064374244 -8.990422347162509 11 1 1
2946 949 4 0 -4.178084345219227 -9.045280136912728 -9.038259768024052 11 1 0
2102 668 2 0 -3.4072436529750236 -8.720293624271317 -9.022987918955897 11 1 1
2103 668 4 0 -3.05039868072582 -8.4348525253766 -9.066394061158807 11 1 1
2037 646 4 0 -2.9382244709255474 -8.150753216238297 -9.333651807031528 3 0 1
2036 646 2 0 -2.5395366265380153 -7.9689873150750765 -9.490057339163478 3 0 1
1840 580 4 0 -1.0200554465340357 -8.175399448268623 -9.483174464623628 3 0 0
1839 580 4 0 -0.5433333741027617 -8.25240819599342 -8.709725206239678 3 0 0
1838 580 2 0 -0.7760546880634518 -8.214667689606648 -9.087212144536473 3 0 0
1375 425 4 0 -0.22416381400151053 -8.419696794750136 -8.837775681909015 11 1 1
2464 788 4 0 -5.774795104117145 -7.553543606487694 -9.358609985944955 11 1 0
960 287 4 0 -5.905155030575543 -7.626173873457572 -8.97711622267419 3 0 0
1506 469 4 0 -4.928794343956763 -5.597192579039147 -8.75825872872114 4 0 1
2 1 3 0 -4.220889215508632 -5.824979634979744 -8.98334335743661 3 0 0
1126 342 4 0 -2.6589799079516236 -4.339098429473771 -8.715383012313191 6 0 0
363 88 4 0 -9.97039434573939 -2.9790808661356163 -8.691204916225363 7 0 0
383 95 2 0 -9.208317734768912 -2.6403629959301123 -8.709861471755428 7 0 0
385 95 4 0 -8.863295043342788 -2.401905398194671 -8.737015828052694 7 0 0
34 7 3 0 -8.576469125284174 -2.145092535030008 -8.714486006376365 7 0 0
33 7 3 0 -7.913904308358738 -1.870200262614297 -8.709039026431315 7 0 0
35 7 3 0 -8.499760016821947 -1.4609117295601468 -8.86927557669006 7 0 0
1995 632 4 0 -7.557761909713509 -1.722329462121385 -8.818923854262966 8 0 0
1994 632 2 0 -7.094084533045436 -1.635857898365595 -8.922966098380366 8 0 0
1996 632 4 0 -6.615596532576051 -1.5411209657007685 -9.018790508619851 8 0 0
577 159 4 0 -6.4019332686421535 -1.5637711886136358 -9.352433576689075 7 0 0
575 159 2 0 -5.929376836823823 -1.5118651353990433 -9.322931964421057 7 0 0
576 159 4 0 -5.45081749187232 -1.4779309986889242 -9.29717885806621 7 0 0
1776 559 4 0 -5.069833907810757 -1.4043758660490937 -9.274851950532236 0 -1 0
1775 559 2 0 -4.654342871207662 -1.18713947393627 -9.30795537679604 0 -1 0
1777 559 4 0 -4.250124148860438 -0.9789150730017155 -9.334752951218897 0 -1 0
3067 989 4 0 -3.8356268695729474 -0.9737757141201886 -9.278170552245765 8 0 1
3065 989 2 0 -3.4088564612798633 -0.8784466702578655 -9.177788236018172 8 0 1
3066 989 4 0 -2.9639409367569636 -0.7853278925958911 -9.084992642095195 8 0 1
2850 917 4 0 -2.559031150584797 -0.705554348975614 -9.139699643745828 8 0 1
2849 917 2 0 -2.09946468417545 -0.7123905582787504 -9.231204218347797 8 0 1
2851 917 4 0 -1.6268368609208785 -0.7308084009040723 -9.31485852574841 8 0 1
2139 680 4 0 -1.2350898354254944 -0.6166489215577222 -9.338864914494257 9 0 1
2138 680 2 0 -0.8047812205212264 -0.504792247573528 -9.259421664744528 9 0 1
2140 680 4 0 -0.33913477728482455 -0.39196366340247657 -9.177325070296906 9 0 1
2847 916 4 0 -10.344908270552338 -10.365719637901135 -8.46506895339235 4 0 1
6 2 1 0 -8.490013439958986 -9.750909200497832 -8.589869901691355 4 0 0
7 2 3 0 -8.47700817678396 -10.036889115594947 -8.245382185309609 4 0 0
293 65 2 0 -7.383449397941138 -9.89134827045775 -8.501585909096939 4 0 0
294 65 4 0 -6.972365918317601 -9.873431702207835 -8.291299919062277 4 0 0
2749 883 4 0 -6.597829619014966 -9.804842602918212 -8.432342385190466 12 1 0
2747 883 2 0 -6.167152866267686 -9.84360221158004 -8.598880239179445 12 1 0
319 73 4 0 -5.452504539757484 -9.771781419881206 -8.499581034462 4 0 1
317 73 2 0 -5.0599761063152835 -9.975741681393712 -8.403422335953705 4 0 1
318 73 4 0 -4.650207818742086 -10.17571396105681 -8.308557730497636 4 0 1
101 21 1 0 -3.9202090875514637 -10.328675872510026 -8.028340300972262 12 1 0
103 21 3 0 -4.269659230259898 -10.306606218423964 -8.350641129362476 12 1 0
105 21 3 0 -3.530966453926725 -10.169886469629384 -8.207435390165776 12 1 0
2429 777 2 0 -2.7012719038573465 -10.161382652894257 -8.01189468439794 12 1 0
2431 777 4 0 -3.157661237002114 -10.183205397156119 -8.075051718715715 12 1 0
2430 777 4 0 -2.2477339719720284 -10.142082385847035 -7.95300982570719 12 1 0
1335 412 4 0 -1.9296932848191073 -10.296336699363156 -8.124599720097198 12 1 0
10 2 3 0 -8.47032108884984 -9.319590963228043 -8.438687954173956 4 0 0
1429 443 4 0 -8.236681691964083 -9.207920952179455 -8.132315921650276 12 1 0
1427 443 2 0 -8.03289701127392 -8.820726552624977 -7.987534124410735 12 1 0
1428 443 4 0 -7.830017420061711 -8.42564510060037 -7.847579867842769 12 1 0
652 184 4 0 -7.837993267199975 -8.111896495823409 -8.05500660829563 -5 -1 0
1972 624 4 0 -2.781965780123037 -7.85816594449057 -8.46612099705921 3 0 0
1970 624 2 0 -2.463275633585299 -7.82035897353849 -8.138306002926571 3 0 0
650 184 2 0 -7.546355635780003 -7.778085138792868 -7.916784103682305 -5 -1 0
959 287 2 0 -5.950607911187181 -7.399955561153431 -8.593261707709116 3 0 0
955 285 4 0 -6.064784007604346 -6.978903428475803 -7.812045234992015 3 0 0
961 287 4 0 -5.990104011709299 -7.145090756883073 -8.191375956390841 3 0 0
1262 388 2 0 -6.187280235578892 -5.676115111244276 -7.853733619586171 3 0 0
1505 469 2 0 -5.3773518189343505 -5.627587602413149 -8.659197339156725 4 0 1
1264 388 4 0 -5.9125486197027115 -5.55862838863424 -8.191964326519017 3 0 0
1507 469 4 0 -5.813488875681899 -5.658941234270623 -8.54843455653992 4 0 1
4 1 3 0 -4.722372644099603 -5.763402264960946 -8.44794945953831 3 0 0
5 1 3 0 -4.030819321328997 -5.894508153141841 -8.235889913203675 3 0 0
1 1 1 0 -4.310568436954735 -5.681052944114193 -8.541423371850339 3 0 0
3 1 3 0 -4.234205986208229 -5.238066269035533 -8.522375851982373 3 0 0
1159 353 4 0 -3.836739285079135 -5.822745840990006 -7.896656032087254 11 1 0
1124 342 2 0 -2.555782828712098 -3.9393971406745116 -8.48080822679571 6 0 0
1125 342 4 0 -2.459954084565412 -3.557208245497886 -8.256155206634292 6 0 0
384 95 4 0 -9.597669289097364 -2.9011600773207364 -8.664069751434333 7 0 0
362 88 2 0 -10.380053640520355 -2.9696132174927614 -8.59254752398497 7 0 0
2002 634 4 0 -2.4819788684280795 -3.198437999807437 -8.037866326330395 6 0 0
2892 931 4 0 -8.709299761633982 -1.814285956724465 -7.950508524823797 7 0 0
31 7 1 0 -8.355009977192477 -1.7983080269582885 -8.621918563692887 7 0 0
32 7 3 0 -8.401819730745249 -1.703278094993843 -8.192324209494004 7 0 0
2230 710 4 0 -8.622605612725808 -1.1443643381795248 -8.643269840283 7 0 0
2228 710 2 0 -8.630257889486684 -0.7505747213296292 -8.418743039177256 7 0 0
1204 368 4 0 -8.392892901803831 -0.23069767026313137 -7.862775086236437 7 0 0
2229 710 4 0 -8.640157922597256 -0.3413084567586946 -8.183999009469048 7 0 0
104 21 3 0 -4.041460045451221 -10.081370759166932 -7.644288618053527 12 1 0
981 294 4 0 -3.9983773387114647 -10.27244693803078 -7.27456568388742 11 1 0
980 294 2 0 -3.6845230157942614 -10.124506729079814 -6.9620145557700726 11 1 0
954 285 4 0 -7.004017588245823 -7.139721004369829 -7.764459021636794 3 0 0
651 184 4 0 -7.238509564485562 -7.446197533525771 -7.784676674948314 -5 -1 0
953 285 2 0 -6.541086623582089 -7.059436341219314 -7.7877560824030745 3 0 0
1971 624 4 0 -2.134689013435578 -7.7886535724515245 -7.803309671625211 3 0 0
2673 858 4 0 -1.8140347141060467 -7.731625039572229 -7.577160548537885 2 0 1
2672 858 2 0 -1.5151376898826765 -7.600015662065347 -7.27108231310523 2 0 1
2674 858 4 0 -1.2245144071502772 -7.465466080903286 -6.9725898366351675 2 0 1
3063 988 4 0 -0.828192254805721 -7.5279629319060355 -7.005938338891456 11 1 1
3062 988 2 0 -0.3851577469206475 -7.640669512031426 -7.074675517807467 11 1 1
1144 348 4 0 -2.739574884589797 -6.176031346583666 -7.482348906546216 3 0 0
1925 609 2 0 -7.097694544342044 -5.531317806309151 -7.269550196700979 5 0 0
1927 609 4 0 -7.386812986754636 -5.468063239995686 -6.94938887222412 5 0 0
1263 388 4 0 -6.458988446132263 -5.794227543283239 -7.517901094629494 3 0 0
1926 609 4 0 -6.803789663138003 -5.593020700284195 -7.579551339906006 5 0 0
1157 353 2 0 -3.486404597573137 -5.9279437229414444 -7.635519075769598 11 1 0
1158 353 4 0 -3.1290123885620753 -6.035850523285454 -7.373898371592187 11 1 0
1142 348 2 0 -2.43357024391167 -6.068676147040883 -7.172260066919463 3 0 0
2994 965 4 0 -0.5630288745250898 -4.37635657845335 -7.55342017285729 5 0 0
2800 900 4 0 -0.1853294736992659 -4.482980717557304 -7.461780118594181 12 1 1
2993 965 2 0 -0.8789961332678313 -4.297771750865619 -7.20964567190999 5 0 0
2000 634 2 0 -2.44146934685165 -2.8866569248152922 -7.716060976408202 6 0 0
1980 627 4 0 -9.693200485857588 -1.9656111367672242 -7.512439571253019 7 0 -1
1979 627 2 0 -10.135488644188646 -1.9948500856083289 -7.485537829559153 7 0 -1
2891 931 2 0 -9.039740949457608 -1.7719762750101697 -7.652672237612807 7 0 0
2703 868 4 0 -2.652024546334734 -2.3862057112858306 -7.1320113857249465 6 0 1
2001 634 4 0 -2.4041895964063453 -2.5581788453221472 -7.397021363757281 6 0 0
2893 931 4 0 -9.385169467539935 -1.7250166110281437 -7.357161544273781 7 0 0
1626 509 4 0 -8.324148893513835 -9.756445953700664 -6.770245028459999 11 1 1
982 294 4 0 -3.4012089179268337 -9.997787904713194 -6.685187559441201 11 1 0
2199 700 4 0 -3.1253972591041093 -9.736186106121089 -6.867661287932114 4 0 0
2713 871 4 0 -0.35576219724135427 -10.092109262514928 -6.533132506539295 12 1 0
2711 871 2 0 -0.6578877887439898 -9.784853308549957 -6.42369223142431 12 1 0
1045 315 4 0 -0.012009693554892564 -10.248495143023858 -6.672381411870254 12 1 0
1625 509 2 0 -8.35656194477388 -9.397279763677272 -6.47848847239959 11 1 1
1627 509 4 0 -8.372677057382333 -9.068295629876804 -6.206051867834926 11 1 1
2198 700 2 0 -2.6998427770404385 -9.540895590748205 -6.865473235937357 4 0 0
2200 700 4 0 -2.2962284618989273 -9.364156366293578 -6.865906021520869 4 0 0
2974 958 4 0 -2.0716094870433146 -9.366858846775399 -6.521572817427938 12 1 0
2972 958 2 0 -1.6898543036413507 -9.336432597203526 -6.327055850402511 12 1 0
2712 871 4 0 -0.9738138044966025 -9.475005233395494 -6.3053683151848805 12 1 0
2973 958 4 0 -1.2949801695735967 -9.307298874435933 -6.121246972738848 12 1 0
268 56 4 0 -10.328112786894804 -8.303680002711989 -6.103778178949766 3 0 0
1143 348 4 0 -2.1143556443038296 -5.9566974228967755 -6.854044410494707 3 0 0
907 269 4 0 -1.7470078081220883 -5.890953408400796 -6.725306497254078 3 0 1
905 269 2 0 -1.318259765576812 -5.755625168655231 -6.787848425155956 3 0 1
906 269 4 0 -0.871779272918495 -5.623825880655985 -6.852049491607831 3 0 1
1878 593 4 0 -0.5510020328894907 -5.679570291494506 -6.622273850918816 4 0 0
1877 593 2 0 -0.09561767303420332 -5.534415065794638 -6.601603225303848 4 0 0
285 62 4 0 -2.175085178375605 -4.258772940571498 -6.077416336610272 3 0 -1
284 62 2 0 -1.7978930058504172 -4.19340033313768 -6.380232964887056 3 0 -1
286 62 4 0 -1.4631705557581896 -4.134201911476332 -6.649289340972294 3 0 -1
2995 965 4 0 -1.1672391096247328 -4.230119150114184 -6.89509486091715 5 0 0
1738 546 4 0 -6.93831692976344 -1.816726666092082 -6.170915692325755 9 0 0
1123 341 4 0 -3.647287684132177 -2.3558290250804514 -6.290631663237897 5 0 0
2702 868 2 0 -2.9729841828531427 -2.3701772845054307 -6.78310990265139 6 0 1
2704 868 4 0 -3.2852734714554197 -2.3442088859517423 -6.452990432378911 6 0 1
543 148 4 0 -6.763566798190535 -1.4665417526100555 -6.1340891478000605 7 0 0
212 43 3 0 -2.7090126530801877 -0.0745849431432557 -6.817300686228494 9 0 0
2564 822 2 0 -3.2991438091778154 -0.38823375021216044 -6.257799133855036 9 0 0
2566 822 4 0 -3.0124505069915655 -0.20415244146767364 -6.59062550681654 9 0 0
2890 930 4 0 -1.857381273792173 -0.1867044072176256 -6.164333036648704 9 0 0
2889 930 4 0 -0.9742701619366727 -0.4178978746207651 -6.205274279030108 9 0 0
2888 930 2 0 -1.4056508703415673 -0.30598577967472806 -6.177736937147813 9 0 0
1645 515 4 0 -0.6760569041335085 -0.18389089967233474 -6.1880508291427105 8 0 1
1643 515 2 0 -0.2619997917112791 -0.06176994100104238 -6.104023691657574 8 0 1
947 283 2 0 -4.197146075019599 -9.67127005370339 -5.4782820343761855 4 0 1
949 283 4 0 -3.8371428855886762 -9.980188288563637 -5.57831809486735 4 0 1
2004 635 4 0 -3.698023385866808 -10.326261838031323 -5.514914022408106 4 0 0
2003 635 2 0 -3.2628583998616882 -10.366831602559268 -5.613449470001936 4 0 0
2005 635 4 0 -2.816981751469412 -10.406044783502399 -5.721084400626956 4 0 0
948 283 4 0 -4.517099166374928 -9.399066259268984 -5.382906646486103 4 0 1
1107 336 4 0 -10.154285017476985 -8.616729905631528 -5.894250373392683 3 0 -1
1106 336 2 0 -9.820766542214752 -8.351728389095783 -5.669489300818572 3 0 -1
1108 336 4 0 -9.513696313777228 -8.09622882894037 -5.448640472016054 3 0 -1
396 99 4 0 -9.186272211944846 -7.823235197726747 -5.408791393471958 3 0 0
1731 544 4 0 -4.558525005621255 -2.716231832622526 -5.609936005395319 -1 -1 0
1122 341 4 0 -4.182061671877155 -2.752154607290115 -5.707807942938035 5 0 0
1585 495 4 0 -8.848312883967374 -2.261214233503857 -5.21147946935235 7 0 1
44 9 3 0 -7.991272245442413 -2.0215284747723494 -5.614988101510234 8 0 1
1737 546 4 0 -7.720259840296331 -2.199989402719927 -5.874190341160999 9 0 0
1736 546 2 0 -7.332263330175662 -2.0089593719628063 -6.027810651815186 9 0 0
1121 341 2 0 -3.9173206584366893 -2.552003554341386 -5.996434594853083 5 0 0
727 209 4 0 -1.0519279431296038 -2.3639130817650464 -5.2237768287801805 7 0 0
725 209 2 0 -0.6423859361592363 -2.117153044556332 -5.2561353490509575 7 0 0
726 209 4 0 -0.25160930724257646 -1.8856631271111883 -5.284710137086688 7 0 0
542 148 2 0 -6.686118547256333 -1.0544191244454293 -6.034365886674631 7 0 0
1256 386 2 0 -7.092707838805518 -0.0601393833820989 -5.669801681398379 15 1 0
544 148 4 0 -6.600188080105152 -0.6265333319877779 -5.936095397013843 7 0 0
1258 386 4 0 -6.798881935414178 -0.382932910053837 -5.6892198830854595 15 1 0
1315 405 4 0 -4.909213374013079 -0.03048586487777527 -5.338592113671638 10 0 0
2080 660 4 0 -4.7309300766790825 -0.348818339901392 -5.517149683091269 9 0 1
2565 822 4 0 -3.552740044223893 -0.5456828554477298 -5.9543038954808525 9 0 0
2078 660 2 0 -4.32764820234114 -0.5278678562602668 -5.676492085152654 9 0 1
2079 660 4 0 -3.93665348240385 -0.7051121142512571 -5.833674253812301 9 0 1
1025 309 2 0 -7.663227714352018 -7.84630206113796 -4.752565990534668 3 0 0
915 272 4 0 -6.98802552834497 -8.07677809422515 -4.432682436359598 3 0 0
1026 309 4 0 -7.253204988004418 -8.052132560725873 -4.749729801536207 3 0 0
395 99 2 0 -8.79991894034987 -7.746490485386638 -5.148699284000551 3 0 0
397 99 4 0 -8.422608956738795 -7.677214317958335 -4.900165740410786 3 0 0
1027 309 4 0 -8.061506066979632 -7.645274552685433 -4.756325608577189 3 0 0
2098 666 4 0 -0.6755239705253064 -6.877316938746962 -4.6737610604649245 3 0 0
2096 666 2 0 -0.19542306509443996 -6.860934398950438 -4.662967659661393 3 0 0
2154 685 4 0 -10.013246777190247 -2.742628413926562 -5.161851042853054 0 -1 0
1584 495 4 0 -9.649073254400866 -2.627806449006819 -5.038097941764053 7 0 1
1369 423 4 0 -8.06502376819218 -2.9987441176501752 -5.12975934966778 11 1 0
1367 423 2 0 -7.949572465282609 -3.1870966076327747 -4.72184781947904 11 1 0
42 9 3 0 -7.948447540173647 -2.6040002501166395 -5.151017638336087 8 0 1
1245 382 4 0 -1.896297498169334 -2.6367277808241063 -4.432045691681813 7 0 0
1246 382 4 0 -1.336739664374818 -2.6233879235313404 -5.092471941440775 7 0 0
1244 382 2 0 -1.6097034678206938 -2.6288604401504836 -4.76685055788753 7 0 0
1583 495 2 0 -9.24131299887021 -2.4450683737368983 -5.123856679077629 7 0 1
41 9 1 0 -8.057670484017997 -2.1684507516036664 -5.182288272666057 8 0 1
45 9 3 0 -8.513620880110906 -2.1143307909956217 -5.073600349180288 8 0 1
43 9 3 0 -7.803367547587108 -1.9284752218246748 -4.908728099265955 8 0 1
1730 544 2 0 -4.707423031991316 -2.5324549145373467 -5.190561671502722 -1 -1 0
1732 544 4 0 -4.851021163663016 -2.359999787539474 -4.788730698812114 -1 -1 0
1722 541 4 0 -0.011431039283554156 -2.1064036585365358 -5.066592080582642 7 0 0
2115 672 4 0 -7.493460492846092 -1.7182436097600213 -4.760054015409968 8 0 1
2114 672 2 0 -7.0658444449767925 -1.6809278468822857 -4.6159988220033865 8 0 1
2116 672 4 0 -6.639048562872876 -1.6432153738477489 -4.485013816378724 8 0 1
2718 873 4 0 -6.2235997448552824 -1.618535627573447 -4.440716584024484 9 0 0
2880 927 4 0 -2.0811070683254904 -9.696378309480002 -4.214357392189621 4 0 0
1499 467 2 0 -1.3217449737472968 -9.931440967609488 -3.89850871859157 11 1 0
1500 467 4 0 -1.722876092898808 -9.806366202709182 -4.099048869168004 11 1 0
1501 467 4 0 -0.9166611305439201 -10.056106991598524 -3.707709682082756 11 1 0
1750 550 4 0 -7.933053795445515 -8.86576724596345 -3.745775903773497 5 0 0
2881 927 4 0 -2.7506906256669286 -9.35207864867842 -3.7634665904272833 4 0 0
2879 927 2 0 -2.418485905125083 -9.52257363925956 -3.985340136057941 4 0 0
1749 550 4 0 -8.153914883570065 -8.026239909032517 -3.6992578497984177 5 0 0
1748 550 2 0 -8.04344450962668 -8.444788442549061 -3.725919947654565 5 0 0
916 272 4 0 -6.111177494495784 -8.206478080027148 -4.24182457806291 3 0 0
914 272 2 0 -6.553373504628526 -8.138295109737458 -4.337046880550098 3 0 0
2957 953 2 0 -3.7774269005433396 -5.241908473081246 -3.567407122598471 12 1 0
2959 953 4 0 -3.3773334697232427 -5.375697494470463 -3.596655793623026 12 1 0
2958 953 4 0 -4.203044312046886 -5.102845273598033 -3.530659363826426 12 1 0
265 55 4 0 -7.871709548684587 -3.5204484504351665 -3.933211042956964 3 0 0
655 185 4 0 -6.104775603202619 -3.508254698930738 -3.545340682503257 11 1 1
1227 376 4 0 -5.699637027779255 -3.5768418701762936 -3.575305239985953 4 0 -1
1368 423 4 0 -7.835120966254495 -3.372299495237397 -4.312869317414354 11 1 0
1021 307 4 0 -8.295040180995192 -2.9786179159102097 -3.7022487270552045 8 0 0
263 55 2 0 -7.587601940428234 -3.271241617934553 -3.663000454784016 3 0 0
1717 539 4 0 -2.952277241734466 -2.408874566921236 -3.6679268869182486 7 0 0
859 253 4 0 -1.8557812050461688 -2.3546803994144856 -4.136550146340146 7 0 0
858 253 4 0 -2.561023132075455 -2.342394101892344 -3.5918446259398573 7 0 0
857 253 2 0 -2.2005639143702087 -2.349637982680578 -3.867046421254388 7 0 0
2717 873 2 0 -5.802635253813697 -1.5815189667758194 -4.314566210906192 9 0 0
2719 873 4 0 -5.361102700775616 -1.5438663169228164 -4.185533935162337 9 0 0
2329 743 4 0 -5.134567114517444 -1.4149702575161456 -3.8841993395178918 9 0 0
2327 743 2 0 -4.692009128396578 -1.371982606926224 -3.9076617241611347 9 0 0
2328 743 4 0 -4.267161935536112 -1.3280458610631758 -3.941997957545288 9 0 0
2377 759 4 0 -4.032273344395585 -1.0290639970801543 -4.068722041578663 9 0 0
506 136 2 0 -10.307455962753831 -0.45856742724442334 -4.127653981113419 8 0 0
508 136 4 0 -9.88823731596617 -0.5458690001352569 -4.269708392632587 8 0 0
2965 955 4 0 -9.712280002304439 -0.1910098910050575 -4.143613574311636 9 0 0
2963 955 2 0 -9.30185472436252 -0.04071880641798842 -4.153643731524294 9 0 0
870 257 4 0 -7.763606574074252 -0.309645053832309 -3.4946213380163353 2 -1 1
3002 968 2 0 -6.94511182400173 -0.0648419335192294 -3.7011991966562423 9 0 0
3003 968 4 0 -7.366186996973805 -0.1960045860795745 -3.5724363067311664 9 0 0
2375 759 2 0 -3.634332622755312 -0.8062474805223019 -4.051651390782716 9 0 0
349 83 4 0 -2.879520033235675 -0.7539022855504172 -3.9357954709261804 8 0 0
2376 759 4 0 -3.237105755811382 -0.5876739910436832 -4.0357630559130175 9 0 0
347 83 2 0 -2.411323088033308 -0.7350829722259764 -3.9342502440683607 8 0 0
348 83 4 0 -1.9563656596315546 -0.710282876745497 -3.924096150846508 8 0 0
2164 688 4 0 -1.5461870429755376 -0.7705054633191679 -3.912881711547186 9 0 1
2162 688 2 0 -1.1384666205826655 -0.6706634484173666 -4.035236638998325 9 0 1
2163 688 4 0 -0.6886850626877745 -0.5783354561629874 -4.171824715022456 9 0 1
3007 969 4 0 -0.3402779356472525 -0.41289851808527445 -4.325178550886985 10 0 1
2175 692 4 0 -0.759382830316655 -10.040797467570329 -3.355439799416562 3 0 0
2174 692 2 0 -0.35555178933821807 -10.229021524326695 -3.257941168104437 3 0 0
770 224 2 0 -2.758955071986307 -5.3000664405158915 -3.060453800374601 3 0 1
772 224 4 0 -3.0973018528628273 -5.448253816788298 -3.3198319806536354 3 0 1
1707 536 4 0 -4.356652047326777 -4.894162783067574 -3.209139379083613 4 0 0
1706 536 2 0 -4.630126823339783 -4.592007186202712 -3.1396023530475015 4 0 0
771 224 4 0 -2.433932695090385 -5.157382075453512 -2.8048687575272595 3 0 1
1228 376 4 0 -5.335404452041947 -4.219433299949759 -3.0623257174801637 4 0 -1
1226 376 2 0 -5.51492289519034 -3.9005036689794386 -3.3091287121383077 4 0 -1
1708 536 4 0 -4.940182756879825 -4.256615381327327 -3.0696857477920956 4 0 0
1160 354 2 0 -9.734221931093474 -2.80230819242807 -2.77397435717317 15 1 0
1020 307 4 0 -9.003060723387609 -2.912140166112258 -3.132234222382106 8 0 0
1162 354 4 0 -9.395061219615538 -2.8905443017470933 -3.0584287938568746 15 1 0
1019 307 2 0 -8.649199949198351 -2.944938151628615 -3.421533290412885 8 0 0
264 55 4 0 -7.296510714394824 -3.026245668568361 -3.389765597938643 3 0 0
654 185 4 0 -6.9136530661058195 -3.1400753766678893 -3.343682939490755 11 1 1
653 185 2 0 -6.495654585567705 -3.3332366992722005 -3.444132283420373 11 1 1
1030 310 4 0 -3.4753638354618728 -2.8035830659789003 -2.778079777573293 7 0 0
1716 539 4 0 -3.3424308944596515 -3.017068024236811 -3.092133984691017 7 0 0
1715 539 2 0 -3.1464860515072237 -2.7024602392225283 -3.3860458592058995 7 0 0
2214 705 4 0 -10.346758742267886 -2.5028809599767223 -2.656403524460525 8 0 0
869 257 2 0 -8.173444300164473 -0.23866542217291098 -3.2417878128084645 2 -1 1
871 257 4 0 -8.55874879948588 -0.1700986637123485 -3.0035182267658165 2 -1 1
1906 602 4 0 -8.623052210092768 -0.4790607766781356 -2.761174979828258 9 0 0
315 72 4 0 -2.201686978571141 -5.289486584429624 -2.4925807640466955 3 0 0
314 72 2 0 -1.8294615468603155 -5.49467906965429 -2.3463942058038327 3 0 0
1467 456 4 0 -1.1286427910894243 -5.646846189986485 -2.401215931019422 11 1 1
316 72 4 0 -1.448577933172782 -5.696208770766573 -2.2011938684209422 3 0 0
1466 456 2 0 -0.6864721760959682 -5.534872677553751 -2.3960755895728365 11 1 1
1468 456 4 0 -0.2665910634296189 -5.422981588909804 -2.3980650034603013 11 1 1
1447 449 4 0 -7.999017113186834 -4.89817384193701 -2.0693286220112856 5 0 -1
1161 354 4 0 -10.070250876915837 -2.7194126120076376 -2.5000023405859197 15 1 0
555 152 4 0 -4.594027711250184 -3.0147918037619768 -2.27413641466536 6 0 -1
554 152 2 0 -4.961277773279777 -2.757333773541297 -2.1474949428486454 6 0 -1
1029 310 4 0 -4.207901099451748 -2.9594348274726636 -2.2373906994221144 7 0 0
1028 310 2 0 -3.8473029177002696 -2.8833611174901357 -2.499387655372032 7 0 0
845 249 2 0 -6.003801669191761 -2.225051725454163 -1.9588705847541128 6 0 0
556 152 4 0 -5.312649602203316 -2.5285827752899923 -2.021555664104401 6 0 -1
847 249 4 0 -5.632031278823874 -2.3452714761443065 -2.17693560306739 6 0 0
2509 803 4 0 -9.600741282809512 -0.9558208177989282 -2.1665632371850343 9 0 0
1905 602 4 0 -9.206372499031453 -0.8849092413370343 -2.168846931774846 9 0 0
2507 803 2 0 -9.905174744558206 -0.6266442495079279 -2.1084215179623644 9 0 0
2508 803 4 0 -10.20859742843194 -0.2998213880533509 -2.046974753820198 9 0 0
1904 602 2 0 -8.906363468432126 -0.6768559692294929 -2.4705714531209297 9 0 0
1474 458 4 0 -4.033438822500227 -0.7815706190986464 -1.7936561063878251 7 0 0
1472 458 2 0 -3.6626131047098305 -0.5445410149039489 -1.8782556117813716 7 0 0
1473 458 4 0 -3.2791176760456873 -0.29087673991117313 -1.967198118265756 7 0 0
1614 505 4 0 -8.65761611793831 -5.544041868559243 -1.0639225775784613 12 1 0
1445 449 2 0 -7.847863581567894 -4.8587688126118 -1.6463502983500664 5 0 -1
822 241 4 0 -7.3677998331719365 -4.621750248127358 -1.0888538644460226 6 0 0
1446 449 4 0 -7.695429466571975 -4.83539521134616 -1.2228971587629047 5 0 -1
821 241 2 0 -7.219000810206687 -4.2003883570002305 -0.9279210025460767 6 0 0
631 177 4 0 -3.5127164398844988 -3.055901122965002 -0.8680048698138361 7 0 0
2373 758 4 0 -2.316699519055362 -3.04948717157116 -1.011041753414231 8 0 0
2372 758 2 0 -2.0188649129547294 -2.804659294027953 -1.2589678478190471 8 0 0
846 249 4 0 -6.3998812793242505 -2.10079606726471 -1.7305151916934634 6 0 0
100 20 3 0 -6.539346819862409 -2.0546068796277748 -1.3340439440947875 6 0 0
1702 534 4 0 -5.8796685508662225 -2.5935124865229007 -1.0592781278654524 8 0 0
2374 758 4 0 -1.7328151886588508 -2.5720137287787725 -1.5013454121038947 8 0 0
255 52 4 0 -1.385555819197462 -2.45241306541873 -1.329028108868057 -1 -1 0
254 52 2 0 -1.140102492233023 -2.151868974493917 -1.0914793604493944 -1 -1 0
1964 622 2 0 -4.69247598565362 -0.993229258533395 -1.3410013566047834 -1 -1 0
1965 622 4 0 -4.376133362109872 -0.8881059564591869 -1.6261159589210248 -1 -1 0
1966 622 4 0 -5.047056503837888 -1.1235425523771756 -1.0433274911778838 -1 -1 0
2185 695 4 0 -1.6863813064726738 -9.872963370135032 -0.11283776960293501 4 0 0
405 102 4 0 -1.3656337373732033 -9.638321499284723 -0.20107627298852115 3 0 0
404 102 2 0 -0.909995828747288 -9.71240319399541 -0.24766369640163965 3 0 0
406 102 4 0 -0.45410952256168 -9.780969355780035 -0.3013936823686123 3 0 0
877 259 4 0 -0.3317431901840937 -9.953795546190863 -0.6351531695957053 11 1 0
2389 763 4 0 -5.931027882378037 -8.00704961742846 -0.041579584084768584 11 1 0
1297 399 4 0 -5.896184231276189 -7.6619300565664465 -0.2659063921692191 11 1 0
1295 399 2 0 -5.479925623709216 -7.490880604490596 -0.2676301101134335 11 1 0
1296 399 4 0 -5.067690549317793 -7.315871033566281 -0.26003018001723355 11 1 0