LAMMPS data file via write_data, version 19 Nov 2024, timestep = 1500000, units = lj

40 atoms
4 atom types
30 bonds
1 bond types
35 angles
2 angle types

-6 6 xlo xhi
-6 6 ylo yhi
-6 6 zlo zhi

Masses

1 1
2 1
3 1
4 1

Bond Coeffs # harmonic/omp

1 100 0.45

Angle Coeffs # harmonic/omp

1 100 180
2 100 109.471

Atoms # full

34 8 4 0 1.8728440123192498 -5.056289643847721 2.734399883981297 0 0 0
32 8 2 0 2.298371874195118 -5.222070869681323 2.616166738673159 0 0 0
33 8 4 0 2.699560445646784 -5.382652220126054 2.5069219116531696 0 0 0
7 2 3 0 1.0526692754539533 -0.019025401006888758 2.938535522612815 0 0 0
9 2 3 0 1.656268860329097 -0.11078065563481233 2.4964980002542094 0 0 0
8 2 3 0 1.72061905114853 -0.24785215433108107 3.209723534264151 0 0 0
31 7 4 0 5.709349200834104 1.416034808367867 -4.012287981061386 0 0 0
40 10 4 0 -2.231153775649482 3.407349403611985 -4.374349748993136 0 0 0
38 10 2 0 -1.9395182717485715 3.0976478764988413 -4.297713762576428 0 0 0
39 10 4 0 -1.6438598098426696 2.767814769372037 -4.22373043974671 0 0 0
27 6 4 0 4.22555364375656 2.075748360086227 -3.4955801574514096 0 0 0
29 7 2 0 5.585383535923426 1.7522424263589167 -3.7417417439185225 0 0 0
26 6 2 0 4.651384390465035 2.1967747680364487 -3.456077015074717 0 0 0
30 7 4 0 5.449070444990946 2.1382915393125774 -3.431145211426583 0 0 0
28 6 4 0 5.114223192801222 2.348159096024321 -3.4163683527134903 0 0 0
4 1 3 0 5.139655467805231 2.5883975798710335 -3.1006403251036043 0 0 0
2 1 3 0 5.789696223561312 2.247585940130644 -3.257583566382492 0 0 0
1 1 1 0 5.568856711172398 2.4987248825184816 -2.9423928784999047 0 0 0
5 1 3 0 5.547146903796866 2.261333527263151 -2.5509432542601784 0 0 0
3 1 3 0 5.794908074323848 2.883447508594812 -2.876162419306501 0 0 0
10 2 3 0 1.6430731786268935 0.468040005152908 2.981369413461447 0 0 0
36 9 4 0 4.225025515776816 4.9907768187419 2.9669132716748234 0 0 0
35 9 2 0 4.39536631318435 5.056958362300209 3.385114907708655 0 0 0
37 9 4 0 4.566158141236515 5.121824357702739 3.770360954873809 0 0 0
17 4 3 0 4.584101642840448 5.157369424324053 4.164912436898281 0 0 0
16 4 1 0 4.913161181051557 5.079702606847653 4.4791864061060105 0 0 0
18 4 3 0 5.311080458373169 5.050234793606757 4.258610519869304 0 0 0
20 4 3 0 4.828717512118911 4.706716438907475 4.684438145321265 0 0 0
14 3 3 0 5.360658529374923 1.7331101641313564 5.312693114729319 0 0 0
12 3 3 0 5.8224134831930145 2.0349158698400283 5.753090702281799 0 0 0
15 3 3 0 5.480028852696868 1.4439597751247408 5.973170676019448 0 0 0
11 3 1 0 5.453553364964465 1.829949948961217 5.730548972036462 0 0 0
13 3 3 0 5.117794834503047 2.1019581954163096 5.908838024024606 0 0 0
22 5 3 0 4.6036487604412795 3.4207802049641094 5.024365528715253 0 0 0
23 5 3 0 4.169767960734748 3.9081620555242846 5.345481127820985 0 0 0
21 5 1 0 4.601428547427345 3.781208579191059 5.260751230441793 0 0 0
25 5 3 0 4.799554661892752 4.104591771607807 5.03324104392245 0 0 0
24 5 3 0 4.831302004451783 3.7100441806396396 5.665927059941144 0 0 0
19 4 3 0 4.924288754266369 5.404498421200011 4.776530858796188 0 0 0
6 2 1 0 1.5196655869757851 0.020970415818444454 2.9080014646158303 0 0 0

Velocities

34 -0.16502441803360376 0.012513522316046794 0.03918325350356669
32 -0.026075010855006617 0.0004354081441310092 0.6063768112716933
33 -0.17915390640770326 0.0001718696509028653 0.4223885218152452
7 0.07457835050085555 0.24232703338857126 -0.008647640838903105
9 0.06966422936781673 0.24484879219615557 -0.13863585605176557
8 0.10654161731014343 -0.11705971675697091 0.3313647146120072
31 0.08595389476684898 0.0057814666105078065 0.49049159648938667
40 0.4103709743293589 -0.08190523684078217 -0.29256785176930394
38 0.11763184624486347 0.32944989154023874 -0.005244824364206143
39 -0.5989554218561794 -0.006492241616301534 -0.18699546952777454
27 0.0336242871847839 -0.142711828234859 -0.25593850981410093
29 -0.18040241471874632 -0.3765883096213156 -0.06998474867173295
26 0.05979557902071204 -0.2904151895843296 -0.10365237057624435
30 0.3599025458494946 0.24015969536181847 -0.1811544448722984
28 0.09052364954651347 0.15869687806800029 0.5095362976049256
4 -0.09550603985506999 -0.34044318545959784 -0.08647996429072294
2 0.1994090202822319 0.05928913787079085 0.05361713318962119
1 0.0029501840202350253 -0.08107566956997682 -0.24572206779204683
5 0.17060162533650836 -0.03302757047109667 0.14005794794753543
3 -0.09971332881835573 0.09759668953464004 0.05910408304359006
10 0.43878694798387724 -0.39445608603171517 -0.17286721252308532
36 -0.10802532216362638 -0.3026144856126998 -0.3915671407866811
35 0.270527530687468 -0.4022337895109656 -0.3052777433647137
37 -0.06968322650479185 0.26498508730637466 0.006262790515507022
17 0.20626902386577248 0.01886017398691689 -0.2864332334499173
16 0.25402900274501294 0.07952038192993162 0.3294184007083792
18 -0.5737919092570293 -0.1407664615826812 -0.14518645966867905
20 -0.08991267239291509 0.029657548618562853 0.2631955285802956
14 -0.5369047520570234 0.44712899202867995 0.23693584512043847
12 0.3396024649746961 0.22748515441117406 0.09732282587729321
15 0.10247190136136237 0.006028615787429213 -0.02293619555901722
11 -0.08497909362533931 -0.06886658369550158 0.044573932142020156
13 0.1687995328244577 -0.13333746106224215 -0.09154103072388405
22 -0.08455790487860587 -0.41396057697720995 -0.400790759447405
23 0.3689269485925189 -0.19885999312273397 -0.30190069716112106
21 -0.09007888263856915 -0.16456848074278607 0.19886470794954894
25 0.31312854207198965 -0.19534423138935775 0.1599398784692195
24 -0.02706527865569822 -0.2249709367440264 0.1504695232103071
19 0.2298100155857626 -0.010963204636910955 -0.09352836125496194
6 0.16262617478196154 0.25105814942005034 -0.4337006596267458

Bonds

1 1 32 33
2 1 32 34
3 1 38 39
4 1 38 40
5 1 29 30
6 1 29 31
7 1 26 27
8 1 26 28
9 1 1 2
10 1 1 3
11 1 1 4
12 1 1 5
13 1 35 36
14 1 35 37
15 1 16 17
16 1 16 18
17 1 16 19
18 1 16 20
19 1 11 12
20 1 11 13
21 1 11 14
22 1 11 15
23 1 21 22
24 1 21 23
25 1 21 24
26 1 21 25
27 1 6 7
28 1 6 8
29 1 6 9
30 1 6 10

Angles

1 1 33 32 34
2 1 39 38 40
3 1 30 29 31
4 1 27 26 28
5 2 2 1 3
6 2 2 1 4
7 2 2 1 5
8 2 3 1 4
9 2 3 1 5
10 2 4 1 5
11 1 36 35 37
12 2 17 16 18
13 2 17 16 19
14 2 17 16 20
15 2 18 16 19
16 2 18 16 20
17 2 19 16 20
18 2 12 11 13
19 2 12 11 14
20 2 12 11 15
21 2 13 11 14
22 2 13 11 15
23 2 14 11 15
24 2 22 21 23
25 2 22 21 24
26 2 22 21 25
27 2 23 21 24
28 2 23 21 25
29 2 24 21 25
30 2 7 6 8
31 2 7 6 9
32 2 7 6 10
33 2 8 6 9
34 2 8 6 10
35 2 9 6 10
