LAMMPS data file via write_data, version 4 Feb 2025, timestep = 4000, units = lj

64 atoms
4 atom types
48 bonds
1 bond types
56 angles
2 angle types

-2.5 2.5 xlo xhi
-2.5 2.5 ylo yhi
-2.5 2.5 zlo zhi
0 0 0 xy xz yz

Masses

1 1
2 1
3 0.1
4 0.1

Bond Coeffs # harmonic/omp

1 100 0.45

Angle Coeffs # harmonic/omp

1 100 180
2 100 109.471

Atoms # full

8 2 3 0 -1.8461962660239728 -2.0508780476065334 -2.1645207910307427 -1 -1 2
6 2 1 0 -1.7259805460416882 -1.6504372185130318 -2.2677871465560444 -1 -1 2
10 2 3 0 -1.3265949685493599 -1.6732705111112183 -2.464252482405242 -1 -1 2
28 6 3 0 -2.370889286168748 -0.9857989996143457 -1.4471592926914498 3 1 1
7 2 3 0 -1.7103766848425 -1.4095754410165369 -1.91479863113214 -1 -1 2
30 6 3 0 -2.3882045175910824 -0.2818188286358865 -1.5728040694176786 3 1 1
33 7 3 0 -0.6138716588413891 -1.899883310921664 0.8051244006514713 2 1 0
42 9 4 0 -0.26759985965506417 -2.076206210473705 0.7280379116825113 -1 -1 0
41 9 2 0 -0.0018040229933595775 -1.9919404293024492 0.373466544813041 -1 -1 0
35 7 3 0 -0.38716524999390556 -1.6348651965112464 1.4453883780420274 2 1 0
31 7 1 0 -0.6870520425296722 -1.9111321128923715 1.2383245671029885 2 1 0
34 7 3 0 -1.0989074346370022 -1.7816255521429445 1.3296060409322608 2 1 0
32 7 3 0 -0.6416783522074585 -2.3395972084072243 1.3938073547423988 2 1 0
9 2 3 0 -2.0128690325795016 -1.4875301672200032 2.4608094591673435 -1 -1 1
15 3 3 0 -1.9198101379576313 1.4648305792461533 1.7397068739445274 -2 -3 0
14 3 3 0 -1.2606506228235361 1.1370860354627652 1.5747551101195434 -2 -3 0
12 3 3 0 -1.8339609218927166 1.1167618018044765 1.1103255878396712 -2 -3 0
11 3 1 0 -1.72934229918233 1.1050664579994711 1.5356165418198149 -2 -3 0
13 3 3 0 -1.876112642960802 0.7353980848087205 1.7137881245811801 -2 -3 0
51 12 4 0 -0.9438076498495749 1.3867441661745254 1.5245997799641753 1 -1 0
52 12 4 0 -0.6560901035609199 2.247394748745041 1.3760757941526647 1 -1 0
50 12 2 0 -0.8043390753124098 1.8086639193133252 1.450486808669667 1 -1 0
4 1 3 0 0.6518024791836652 -2.087258362422733 -0.9147719600628712 1 1 0
60 15 4 0 1.0486059779385482 -1.067483293499306 -0.9712739467187381 1 0 2
59 15 2 0 1.3254082745752953 -0.7784334745275112 -1.1012429825223675 1 0 2
29 6 3 0 2.2670343463792806 -0.7423623790363665 -2.013606732223322 2 1 1
27 6 3 0 2.01529699537517 -0.6279751893891139 -1.3402410476279567 2 1 1
26 6 1 0 2.3834131098098013 -0.6617676885608603 -1.5923686175791973 2 1 1
61 15 4 0 1.6456775777046593 -0.45949213708436965 -1.2470143371687898 1 0 2
23 5 3 0 0.5982878128755469 1.2945743482417131 -1.8806929974608038 2 0 0
58 14 4 0 1.6204338879841105 1.138395548549319 -1.6308066190992663 1 -1 1
25 5 3 0 1.341442911188273 1.2814131082041218 -1.9048903228054186 2 0 0
56 14 2 0 1.8212040630500148 1.1355610062670607 -1.215991970648951 1 -1 1
22 5 3 0 0.9819623714644186 1.8684756736854506 -1.6696120708070228 2 0 0
48 11 4 0 0.6815143506658372 1.870153536860089 -1.3831154098590053 1 0 1
45 10 4 0 1.0804135870979592 2.1000514088367073 -2.329500884350043 2 1 1
24 5 3 0 0.9497714061903655 1.6968915350430605 -2.3821793806484934 2 0 0
21 5 1 0 0.9638334078487936 1.5361055857436812 -1.962749915471636 2 0 0
47 11 2 0 0.726632040441948 2.2064025699483736 -1.066688105006636 1 0 1
1 1 1 0 0.7518816370967816 -1.7763800140998502 -0.6025092866167137 1 1 0
43 9 4 0 0.2520563775510314 -1.892744981149126 0.032686387482893764 -1 -1 0
5 1 3 0 0.4057648541781811 -1.7237844339526331 -0.31684452374287986 1 1 0
49 11 4 0 0.7620307898076901 -2.432749790462078 -0.7435065862635981 1 1 1
2 1 3 0 1.1177777566494211 -1.9120867680977198 -0.37735864247928674 1 1 0
54 13 4 0 1.3526386773738746 -1.630270272089551 0.7983670362400153 2 1 1
53 13 2 0 1.358595686810876 -1.676172503089635 0.35555862982738695 2 1 1
55 13 4 0 1.3602689618725332 -1.7276717677963893 -0.09517429002519018 2 1 1
3 1 3 0 0.8351919370841814 -1.3819112248506469 -0.8096989020338652 1 1 0
37 8 3 0 1.261149372590158 0.713129692065464 -0.2518389105205028 1 -1 1
39 8 3 0 1.858820852363773 1.0978102339296774 -0.4629322129673601 1 -1 1
40 8 3 0 1.5386437932115875 1.2506525860834303 0.18518565129801612 1 -1 1
38 8 3 0 1.939136085447167 0.5944501580398631 0.10125846723259224 1 -1 1
36 8 1 0 1.6485603367747856 0.9165970796048173 -0.12022183462302882 1 -1 1
64 16 4 0 1.8684035816982112 1.4171132179788364 0.3385332136179269 3 1 1
57 14 4 0 2.0449881680863102 1.1457620462720564 -0.8095895258494779 1 -1 1
62 16 2 0 1.940869288353209 1.7787172220046168 0.5848994377960182 3 1 1
17 4 3 0 1.2456595275406235 -2.4834882303352823 1.5643142787751323 2 1 0
16 4 1 0 1.5841683467981804 -2.298586072516499 1.2912796140438214 2 1 0
18 4 3 0 1.419177124929623 -1.9416096883350746 1.0869990537964602 2 1 0
19 4 3 0 1.9278632273303584 -2.1890173024099755 1.5520161362189269 2 1 0
46 10 4 0 1.4377473098746951 2.407450824261314 1.923047188175019 2 1 0
44 10 2 0 1.2565725295276509 2.2592770023038575 2.2845056107202737 2 1 0
20 4 3 0 1.7040611496605624 2.3991776815149493 0.9812608930141464 2 0 0
63 16 4 0 2.017127721048813 2.163253796690178 0.8445405833682611 3 1 1

Velocities

8 0.3867628051628828 0.30694189323959686 -1.3429795379041725
6 0.47824343101007394 -0.08607523979509682 -0.2499973374148146
10 -0.11471494670465593 -1.0453746964608057 -0.11912526062031148
28 0.012865692447613708 -0.6323068363774624 0.07648744254232229
7 0.13154787828357067 1.0270289373452328 -0.9744015165108588
30 0.7142054618106506 0.6684775224721652 -0.6409209871960859
33 0.8215756702795629 -0.117187005910578 1.1475519275764159
42 0.17651341014751776 -1.1930926652920517 -0.8262737818569168
41 -0.11024830908897981 -0.0633713254606042 0.09389317524363333
35 0.15672127696471838 -1.5602561675320439 0.9462248284018081
31 0.32682820606460294 -0.18999973456412045 0.17087743449301324
34 0.3636017686925236 -0.288633347774266 -0.019231521148413415
32 -0.3009670664320747 0.8444292697586036 0.09596412216287968
9 -0.21757542886860526 -1.1206719279995445 -0.4675115573125312
15 0.1663226259194044 -0.7832630692750507 -0.532426939777617
14 1.7707781243313099 1.0797232328121202 -0.8332270534087651
12 1.6018834657171492 0.2828006257362497 1.0510381601986267
11 0.9310949589495456 0.3525560558050203 0.01664085681002848
13 0.640548804309891 -1.1610107589954597 0.33654608128386687
51 0.9769853329748073 1.325427349255037 -0.42776833807698894
52 -0.42427899194800855 -0.23726627416457052 0.1692906193788887
50 0.5151689619681533 0.1571860173777588 -0.15615248313133404
4 0.15173565925103882 -0.3770770145452221 -1.240804720706889
60 1.0756974435999935 1.989859721199367 0.9485159115853351
59 0.40302767304792186 -0.06194209133315615 0.09985133478288671
29 0.7252587923872518 0.21537947613868186 -0.7775962693941615
27 0.5121118834461476 -0.11417722777213042 0.26368336656070396
26 0.19789970940655355 -0.3131800093792981 0.32930782451735846
61 -0.23347745817106713 -0.06883096104846405 0.33027667300496966
23 1.5043085221495813 0.9674818246461634 0.1524240715198456
58 1.121012382471474 -0.5152556503031716 -0.3009981648464946
25 0.9952951503325442 0.1130577453942686 -0.4803602479719352
56 1.1209190199428982 -0.10432721509537243 0.19342839363511843
22 1.868791173135393 -0.46956170703343103 -0.5606606250391484
48 0.2031876905545542 0.07824202985545191 0.05809093567354137
45 1.7343907322352654 0.4456003423321956 0.045109242316174435
24 1.6469474679435054 -0.41595215480017916 -0.7590765265257888
21 0.8087525216141497 0.100739812873889 -0.1584310492940254
47 0.8452271138773201 0.013241035800946988 0.12026808239428392
1 0.2161861111934609 0.1945386880019378 0.16243527462480759
43 0.24523238498525682 -0.8049603095303608 -1.100512085922123
5 -0.3361416985181873 1.507263270183331 -1.2874642225127844
49 0.6018796047086479 -0.06318535853361179 0.38917587624546396
2 0.2156283113639198 0.669918661447783 -1.517612848386755
54 -0.5883921520405091 0.5006713896576159 -1.173368380575164
53 0.13767190511014 0.19483030543903396 -0.29266048921232474
55 0.08542001378014226 -0.5826294491885553 0.4069348592810079
3 0.6958125896507554 0.5758266798083979 0.596327834353623
37 0.5929841926110393 0.4671292005073364 0.7280159080161068
39 2.7700346143167387 0.35989237678899705 1.1162230903400487
40 1.1911900721022892 -0.10099140256654718 0.9804521174340496
38 0.06661890306876928 0.0912212771156067 0.23763350122612675
36 1.087775679255124 0.39591239900405917 0.3356132663383239
64 2.488919831151951 0.47197832732839695 -1.7018063098601899
57 1.1007475724695772 -0.7732846489386128 0.35258783658586346
62 1.0855910264869613 -0.2636881986470535 0.08196822298779058
17 0.9424132182844353 -0.1546794020362922 -0.27115023187183673
16 0.7305686977617468 -0.07894963989609667 0.09964178186644027
18 0.07361715634558551 -0.02893107880317415 0.9346627332075755
19 0.47745698751811705 0.8167416278868718 -0.41547091898994004
46 -1.17365365473903 0.495656099610527 -0.2363165745543136
44 0.7354663549919105 -0.34246211213367994 0.012681887513502917
20 1.4558692028450335 -0.80960222489661 -0.6378268716102978
63 0.8818970153062926 -0.9502082146752906 -1.2427992887617891

Bonds

1 1 6 7
2 1 6 8
3 1 6 9
4 1 6 10
5 1 41 42
6 1 41 43
7 1 31 32
8 1 31 33
9 1 31 34
10 1 31 35
11 1 11 12
12 1 11 13
13 1 11 14
14 1 11 15
15 1 50 51
16 1 50 52
17 1 59 60
18 1 59 61
19 1 26 27
20 1 26 28
21 1 26 29
22 1 26 30
23 1 56 57
24 1 56 58
25 1 21 22
26 1 21 23
27 1 21 24
28 1 21 25
29 1 47 48
30 1 47 49
31 1 1 2
32 1 1 3
33 1 1 4
34 1 1 5
35 1 53 54
36 1 53 55
37 1 36 37
38 1 36 38
39 1 36 39
40 1 36 40
41 1 62 63
42 1 62 64
43 1 16 17
44 1 16 18
45 1 16 19
46 1 16 20
47 1 44 45
48 1 44 46

Angles

1 2 7 6 8
2 2 7 6 9
3 2 7 6 10
4 2 8 6 9
5 2 8 6 10
6 2 9 6 10
7 1 42 41 43
8 2 32 31 33
9 2 32 31 34
10 2 32 31 35
11 2 33 31 34
12 2 33 31 35
13 2 34 31 35
14 2 12 11 13
15 2 12 11 14
16 2 12 11 15
17 2 13 11 14
18 2 13 11 15
19 2 14 11 15
20 1 51 50 52
21 1 60 59 61
22 2 27 26 28
23 2 27 26 29
24 2 27 26 30
25 2 28 26 29
26 2 28 26 30
27 2 29 26 30
28 1 57 56 58
29 2 22 21 23
30 2 22 21 24
31 2 22 21 25
32 2 23 21 24
33 2 23 21 25
34 2 24 21 25
35 1 48 47 49
36 2 2 1 3
37 2 2 1 4
38 2 2 1 5
39 2 3 1 4
40 2 3 1 5
41 2 4 1 5
42 1 54 53 55
43 2 37 36 38
44 2 37 36 39
45 2 37 36 40
46 2 38 36 39
47 2 38 36 40
48 2 39 36 40
49 1 63 62 64
50 2 17 16 18
51 2 17 16 19
52 2 17 16 20
53 2 18 16 19
54 2 18 16 20
55 2 19 16 20
56 1 45 44 46
