LAMMPS data file via write_data, version 19 Nov 2024, timestep = 200001, units = lj

32 atoms
4 atom types
22 bonds
1 bond types
15 angles
2 angle types

-2.068243 2.068243 xlo xhi
-2.068243 2.068243 ylo yhi
-2.068243 2.068243 zlo zhi
8.272972 0 0 xy xz yz

Masses

1 1
2 1
3 0.1
4 0.1

Bond Coeffs # harmonic/omp

1 100 0.45

Angle Coeffs # harmonic/omp

1 100 180
2 100 109.471

Atoms # full

9 3 2 0 -0.39917802510358036 -2.016520296499448 -1.1004392999408505 1 0 0
10 3 4 0 0.0542180688834204 -1.877989290618903 -1.2064445601825542 1 0 0
29 9 4 0 -0.8759122017864835 -1.9594641565973747 0.7112504639105852 1 1 -1
24 8 2 0 -0.3532289911440225 -2.041511935599585 1.3734616089831104 1 0 0
25 8 4 0 -0.6993712105631433 -1.9574022229709227 1.0741402008035696 1 0 0
23 7 4 0 0.26545309640853 -1.8845072433876198 1.7780680277797805 1 0 -1
31 10 4 0 7.055206018798654 1.9389058520747326 -1.1004283465096507 1 0 0
8 2 4 0 3.9342635597141866 0.8845396285258298 -0.0352852234365284 1 0 0
4 1 3 0 5.374284496877124 0.691117535301093 -0.5848721372576402 1 0 1
3 1 3 0 5.922126996099429 1.0087410162366606 -0.2211193451637583 1 0 1
1 1 1 0 5.604902884631673 1.0825329654625513 -0.5275172559266352 1 0 1
2 1 3 0 5.308106094246402 1.4083490584730107 -0.3721749811270807 1 0 1
5 1 3 0 5.7909070313883495 1.2175623717840032 -0.921938867355363 1 0 1
32 10 4 0 6.684320109248612 2.043433126666767 -0.26740404340413404 1 0 0
30 10 2 0 6.8632016561869635 1.9835503510230517 -0.6983391942073494 1 0 0
11 3 4 0 7.468995686224713 2.00908031589666 -1.0057496241263149 1 -1 0
28 9 4 0 6.833032270831358 1.8513013112641947 0.0709572527445066 1 0 -1
27 9 2 0 7.110311997694732 2.014566477779703 0.3850406826972126 1 0 -1
21 7 2 0 0.32005145781699085 -1.9335846598176933 -1.8981856220205477 1 0 0
22 7 4 0 0.3785548851056495 -1.9841491207183288 -1.4264267071573027 1 0 0
19 6 4 0 4.493268430976271 -0.09576919183823951 -0.4098388805404827 1 0 0
18 6 2 0 4.882374743161878 0.11094108120883739 -0.5540762068476552 1 0 0
20 6 4 0 5.254375156181873 0.31648414523840707 -0.7084812771396678 1 0 0
15 5 2 0 8.708208050185426 1.275871212456435 -0.11263342638161578 0 0 1
17 5 4 0 9.045682625964094 1.4404001992558566 -0.3795854775578431 0 0 1
13 4 4 0 6.13814384950773 0.7808630808827344 0.012321546933378613 1 0 0
12 4 2 0 6.574512082789982 0.6908006819134447 0.09993498132027145 1 0 0
7 2 4 0 7.3297587343225645 0.7167819488734075 0.38493534378259886 0 0 0
14 4 4 0 6.996029616810975 0.5978799236074819 0.19302837874117706 1 0 0
6 2 2 0 7.704583692819814 0.8096345002120056 0.17327011132631354 0 0 0
16 5 4 0 8.356141698434762 1.1026399459805716 0.1547761191581163 0 0 1
26 8 4 0 8.258901000004787 2.010733779451898 1.664459993068177 1 -1 0

Velocities

9 0.11049447198896731 -0.2532509793532607 -0.20041145183985543
10 1.1545500266238828 -0.6503806818723905 0.9021754607958495
29 0.8135369472534328 1.367257161403946 -0.16443492967140122
24 -0.32781421681620665 0.01304122786076966 0.04912920775487969
25 1.1858200208677114 -0.5526870437716497 0.41615436749302753
23 -0.36295937653994637 0.7619677819961365 0.005103547291396816
31 -0.22728563577913066 0.45482592521978704 -0.2575456402390529
8 -1.2047692597932766 0.5687573323913911 -0.7501838003588345
4 0.3354870390848032 0.13889833332608137 1.8289192532380731
3 0.12555216996267596 -0.5495458620008907 -0.13760114028974135
1 -0.0958459499313341 0.4787220026409085 0.12764542858474692
2 0.012269650217721736 -0.017466012136247766 0.31667744925929336
5 -0.2198718249328072 -0.1212028607365399 -0.6103477606878566
32 0.19862405873369338 -0.7132766801007919 -0.24463331322075355
30 0.3145466861960696 -0.02868705369934973 0.23601450248427133
11 0.7132227987981639 0.7320188498188686 -1.3904487581160705
28 0.38618149533683527 -1.417357328845459 -0.5918864652486047
27 -0.013315868140148953 0.17152947824238043 -0.3691567443482283
21 0.33725005106019657 -0.08423334119575382 -0.1034058967500883
22 -0.46610486737788087 -0.016616108922301094 0.08012835257203589
19 -0.1497051387008324 -0.6557165344667129 0.3588675154905558
18 -0.1711831533820526 0.08033728740618876 0.1051495304708717
20 0.8141653588330618 0.0843891749650771 -0.5748552860559135
15 0.03494634699220581 -0.1746501776936242 -0.12062308104113709
17 0.22232947228321662 -0.04248513752442331 0.726260537677914
13 0.8963497135686974 -1.1253454257541713 -0.2657743082523455
12 -0.1901930639852207 -0.15359391875634182 0.3439559325757031
7 -0.03431682372723972 0.597364556108747 0.4875527423113665
14 0.2712749274878851 -0.24121874228919152 -0.2753109758283447
6 -0.01944938999933201 -0.14351667228592202 -0.08804850356181247
16 0.23114917883533423 1.611447248774616 0.06237519126147706
26 -1.4194023443684929 0.7293935227561557 0.276318717284426

Bonds

1 1 9 10
2 1 9 11
3 1 24 25
4 1 24 26
5 1 1 2
6 1 1 3
7 1 1 4
8 1 1 5
9 1 30 31
10 1 30 32
11 1 27 28
12 1 27 29
13 1 21 22
14 1 21 23
15 1 18 19
16 1 18 20
17 1 15 16
18 1 15 17
19 1 12 13
20 1 12 14
21 1 6 7
22 1 6 8

Angles

1 1 10 9 11
2 1 25 24 26
3 2 2 1 3
4 2 2 1 4
5 2 2 1 5
6 2 3 1 4
7 2 3 1 5
8 2 4 1 5
9 1 31 30 32
10 1 28 27 29
11 1 22 21 23
12 1 19 18 20
13 1 16 15 17
14 1 13 12 14
15 1 7 6 8
