LAMMPS data file via write_data, version 29 Aug 2024, timestep = 9000, units = lj

682 atoms
4 atom types
488 bonds
1 bond types
444 angles
2 angle types

-4.496439 4.496439 xlo xhi
-4.496439 4.496439 ylo yhi
-4.496439 4.496439 zlo zhi

Masses

1 1
2 1
3 0.1
4 0.1

Bond Coeffs # harmonic/omp

1 100 0.45

Angle Coeffs # harmonic/omp

1 100 180
2 100 109.471

Atoms # full

314 72 2 0 -4.189439491859375 -3.7814544978744054 -3.3229894517214786 0 0 0
316 72 4 0 -3.9878411205942115 -3.9038636178882378 -3.716411472775171 0 0 0
26 6 1 0 -3.3526597709995722 -3.7296710043868377 -4.125951820498153 0 0 0
27 6 3 0 -3.7818224255950157 -3.679657201369764 -3.9746491638503954 0 0 0
28 6 3 0 -3.218971507538191 -3.355417049285562 -4.303232331129997 0 0 0
30 6 3 0 -3.328801730585411 -4.074442011302921 -4.438187251897687 0 0 0
29 6 3 0 -3.091169311546289 -3.8333481152276545 -3.7855426438373807 0 0 0
293 65 2 0 -2.033824585949142 -4.20786823495499 -4.169850466186202 0 0 0
261 54 4 0 -0.4265593795679085 -0.8666810921981176 -0.5682101993322268 0 0 0
294 65 4 0 -2.2825423441749395 -4.36416662899845 -3.8233566687200016 0 0 0
278 60 2 0 -0.22575294134597382 -3.7625020244604817 -3.279793926579448 0 0 0
280 60 4 0 -0.42580494951768655 -4.100752940259247 -3.4555636879636356 0 0 0
388 96 4 0 -0.4741921009349993 -4.397995725358357 -3.1480690580242987 0 1 0
279 60 4 0 -0.014616275496623301 -3.4044638830612786 -3.1056750530579884 0 0 0
2 1 3 0 -3.9622808522407693 -1.5592502724991708 -3.5935457717545503 0 0 0
1 1 1 0 -3.9536807788732102 -1.5413722971146149 -4.041078495883776 0 0 0
5 1 3 0 -4.3278644969671465 -1.3536053383706175 -4.19105932053119 0 0 0
4 1 3 0 -3.9176170812187396 -1.9681911358212538 -4.202989121441265 0 0 0
19 4 3 0 -2.0084315906138372 -2.1299363253157524 -2.9193450529414533 0 0 0
17 4 3 0 -2.7523469105545613 -2.0443402077826045 -2.825401913255364 0 0 0
18 4 3 0 -2.4930210152556924 -2.2096330902360557 -3.491302982262703 0 0 0
16 4 1 0 -2.440946097260939 -2.2765481717248433 -3.0448285749093302 0 0 0
71 15 1 0 -1.1953895312233402 -2.62673213713066 -4.421175503112267 0 0 1
275 59 2 0 -0.4969653275349713 -2.2084177555345037 -3.6465899048386055 0 0 0
277 59 4 0 -0.6757178745820195 -2.256306254043986 -4.070033222936453 0 0 0
74 15 3 0 -1.103915998388633 -2.2722026913824958 -4.165329397553539 0 0 1
276 59 4 0 -0.3154540914629771 -2.161195513922094 -3.220391512197712 0 0 0
75 15 3 0 -1.506847942518415 -2.904023345834378 -4.213119336221207 0 0 1
3 1 3 0 -3.57493957925146 -1.286965893237447 -4.189055238610149 0 0 0
319 73 4 0 -3.2417895876196274 -1.4565437541765365 -4.475730750674926 0 0 1
317 73 2 0 -2.9077250668828345 -1.1273155451517387 -4.443580703626847 0 0 1
22 5 3 0 -2.0803303684715004 -0.2733180251575337 -3.15933857479498 0 0 0
25 5 3 0 -1.5961941745747434 -0.8184737646386447 -3.146414244258715 0 0 0
315 72 4 0 -4.381332669495572 -3.648599765261542 -2.9433525820946045 0 0 0
254 52 2 0 -4.184167989525973 -3.9496967186772487 -2.1859381395234907 0 0 0
255 52 4 0 -4.223286299584057 -3.631858545022009 -2.5477166593536285 0 0 0
256 52 4 0 -4.14342755476562 -4.23159738990243 -1.8495957474698703 0 0 0
105 21 3 0 -2.846560704338351 -4.213340344899214 -2.463088342618014 0 1 0
252 51 4 0 -2.886132175804443 -3.54582757894113 -2.2505345605117126 0 0 0
251 51 2 0 -2.482443957424636 -3.4032876483388463 -2.4699954795215384 0 0 0
253 51 4 0 -2.0931437393084655 -3.2729844596322217 -2.676475000910293 0 0 0
304 68 4 0 -1.7223433481250454 -3.479360738777546 -2.7093296669936353 0 0 0
302 68 2 0 -1.3003467382636862 -3.5347817217359725 -2.575701348926575 0 0 0
303 68 4 0 -0.9107765068547263 -3.585967166311741 -2.45051191162965 0 0 0
83 17 3 0 -1.186522615716059 -4.2744669375847515 -1.8403112791372347 0 1 0
311 71 2 0 -3.7071406420269852 -1.7130009430166082 -1.8195271196299136 0 0 0
313 71 4 0 -4.108034244259173 -1.8699608656356879 -1.7524466734129398 0 0 0
274 58 4 0 -1.6196722717756495 -1.456781627669195 -1.7636309030387085 0 0 0
20 4 3 0 -2.483897842937707 -2.7198440324176256 -2.952193117872913 0 0 0
312 71 4 0 -3.304075298582107 -1.5449304918803688 -1.8864291187219635 0 0 0
271 57 4 0 -3.223389948585261 -1.0419178049597342 -2.842291409293786 0 0 0
269 57 2 0 -2.80970455198659 -1.072958593941749 -2.7806622132423398 0 0 0
270 57 4 0 -2.3788678049193632 -1.1094790445910323 -2.71243663854594 0 0 0
273 58 4 0 -2.218697456365119 -1.0936102167715813 -2.3343879791570648 0 0 0
21 5 1 0 -1.8393748319759096 -0.5601994926591395 -2.8967430988833467 0 0 0
24 5 3 0 -2.1212621535278653 -0.8249547979581677 -2.645768158785674 0 0 0
272 58 2 0 -1.912685977374186 -1.285274767216236 -2.0405763437016917 0 0 0
23 5 3 0 -1.5589323603121803 -0.308866926210701 -2.6155027294790045 0 0 0
379 93 4 0 -1.1457572907331146 -0.27816133656379866 -2.5966984506309765 0 0 0
13 3 3 0 -0.21974722947399447 -1.1672281291790578 -2.2074495013882753 0 0 0
11 3 1 0 -0.17048338812553926 -0.7584796775161982 -2.036862077031756 0 0 0
12 3 3 0 -0.5552495413875987 -0.6517358608498531 -1.8228683804096035 0 0 0
14 3 3 0 -0.08382818696091389 -0.44737795335845726 -2.3821989260652305 0 0 0
301 67 4 0 -0.6465556981150171 -1.0960233163811686 -0.7994848945729383 0 0 0
299 67 2 0 -0.818957598314778 -1.143171817891221 -1.2153027911149097 0 0 0
300 67 4 0 -1.0026060552461418 -1.185969372452127 -1.6283971044192334 0 0 0
9 2 3 0 -3.2275931445144037 -3.6175787673289777 -0.3386836367772313 0 0 0
260 54 2 0 -0.4459060910478296 -0.9393587781964463 -0.13362921613491063 0 0 0
8 2 3 0 -3.9333910979533666 -3.69712914384737 -0.08939098198523532 0 0 0
284 62 2 0 -1.9601116725655086 -3.5987408726102115 -0.24296546058384907 0 0 0
286 62 4 0 -2.133074535126882 -3.4676453733554156 -0.6600515196128143 0 0 0
298 66 4 0 -2.0147573277243263 -3.160811999963937 -0.8928085031604842 0 0 0
282 61 4 0 -0.7952732873524924 -3.433958820361813 -0.2266564168280407 0 0 0
281 61 2 0 -0.8818455912363391 -3.226890174383576 -0.6146896158483778 0 0 0
283 61 4 0 -0.9648269590216819 -3.0345426927157013 -0.9762176457338513 0 0 0
268 56 4 0 -4.387641020551649 -1.7989888477195348 -1.475806935202049 0 0 0
296 66 2 0 -2.2647378364127664 -2.831922328460824 -1.0942102016394823 0 0 0
297 66 4 0 -2.4987414977075715 -2.5268235210071803 -1.2792745674821178 0 0 0
265 55 4 0 -2.4296474887905926 -2.1434016154731848 -1.4062671086066154 0 0 0
263 55 2 0 -2.4397184846402555 -1.747841019845535 -1.1853798016858546 0 0 0
355 85 4 0 -1.3301783916136274 -1.9854672880301836 -0.5813856363604707 0 0 0
353 85 2 0 -1.187054763496291 -2.0654679492911048 -0.1577897052643025 0 0 0
292 64 4 0 -3.665866193789283 -0.07775524964589971 -1.159668526131878 0 0 0
38 8 3 0 -3.6229559797759747 -1.2499250567862001 -0.3330278540078977 0 0 0
264 55 4 0 -2.4489790089616834 -1.3579484906901333 -0.9711565575436399 0 0 0
73 15 3 0 -0.8111474565937198 -2.8658703025261634 -4.49482967614 0 0 1
318 73 4 0 -2.5857679586346776 -0.8079070664359781 -4.410753772284541 0 0 1
560 154 2 0 -4.483060343553563 -4.048670300086622 0.27836546997669676 1 0 0
561 154 4 0 -4.079137302740682 -4.057868772908946 0.056714346481043044 1 0 0
10 2 3 0 -3.352851688578718 -3.839076467981289 0.35578040111895864 0 0 0
7 2 3 0 -3.5057430983421813 -3.13839033533324 0.17009754783939643 0 0 0
346 82 4 0 -3.06066980363431 -3.783431249498417 0.811382105663726 0 0 0
344 82 2 0 -2.9619857153128337 -4.121708529205615 1.1261261804107991 0 0 0
70 14 3 0 -1.7295008321509662 -3.495062391919968 0.46994830419036754 0 0 0
66 14 1 0 -1.8704475268390492 -3.2733910685096537 0.8456993574105406 0 0 0
68 14 3 0 -1.5658289897295716 -2.9843673088310667 0.9615817764389124 0 0 0
285 62 4 0 -1.783325073189458 -3.7254793721991963 0.14887727144346913 0 0 0
69 14 3 0 -1.9389915495372232 -3.5570008650811342 1.1704231219070356 0 0 0
53 11 3 0 -1.1027760235114445 -3.0302631820468915 0.805276379271784 0 0 0
55 11 3 0 -0.826936223489778 -3.2777702955965 0.1608638467363868 0 0 0
40 8 3 0 -3.5634885039666617 -1.8155137088162352 0.1648311157626412 0 0 0
335 79 2 0 -3.874729887874647 -2.441758703751189 0.20717061567494957 0 0 0
337 79 4 0 -3.9063256512744866 -1.9895660244305562 0.27874583429664407 0 0 0
336 79 4 0 -3.83415766278751 -2.9106551026980942 0.1372448045403254 0 0 0
67 14 3 0 -2.2557987172877265 -3.068523209975912 0.751140143862815 0 0 0
51 11 1 0 -0.8117688161363803 -2.9385509600811988 0.4589275819457313 0 0 0
52 11 3 0 -0.41276410913555106 -2.8921447232064104 0.6006089340751007 0 0 0
54 11 3 0 -0.9388085393977406 -2.5540464376135534 0.26544300959229644 0 0 0
354 85 4 0 -1.0435094615935105 -2.153572753209509 0.2589117029276673 0 0 0
168 34 3 0 -0.7538465697826712 -1.9700649337291003 0.451517228937892 0 0 0
166 34 1 0 -0.5219563296345454 -1.7164211114890824 0.7674543541209169 0 0 0
167 34 3 0 -0.7850790603650165 -1.6659765358346164 1.1465823554909935 0 0 0
170 34 3 0 -0.1445411744624496 -1.922489609935518 0.8589973910273468 0 0 0
37 8 3 0 -3.7060740670047285 -1.116229758748304 0.38354008866425154 0 0 0
36 8 1 0 -3.4911317171751426 -1.3586838487828514 0.0901864575252419 0 0 0
49 10 3 0 -3.401076918065977 -0.7705792264296252 1.2540970510228107 0 0 0
47 10 3 0 -4.042105131688175 -1.104276341570333 1.274750559292187 0 0 0
39 8 3 0 -3.0351179183885972 -1.2685588687248117 0.13574075978946992 0 0 0
333 78 4 0 -2.8854113194411957 -1.197960631004163 0.5180791328909436 0 0 0
332 78 2 0 -2.4618435450549105 -1.0232876416427765 0.6288058029132448 0 0 0
334 78 4 0 -2.0653275492600676 -0.8521284242493434 0.7428636542592977 0 0 0
341 81 2 0 -1.9004715382784032 -0.2116624353215059 1.1329066440637277 0 0 0
343 81 4 0 -2.1072064840592177 -0.5580025690825473 0.9726113794339352 0 0 0
307 69 4 0 -2.822853135665077 -0.27067772604044915 0.08490250002647044 0 0 0
169 34 3 0 -0.4365097179328826 -1.315794936939189 0.5991530990286522 0 0 0
262 54 4 0 -0.46288608059589587 -1.0114923023847018 0.3073092668917075 0 0 0
62 13 3 0 -4.123487927164018 -3.209423423619096 2.4185259886470303 0 0 0
110 22 3 0 -4.161693847887758 -4.316053501866323 3.0802631345402 0 1 0
42 9 3 0 -2.21046969625774 -4.494591376400496 2.3172351609920727 0 0 0
44 9 3 0 -2.6534496488521286 -4.438761921564255 1.7590763732189054 0 0 0
324 75 4 0 -2.828855263237694 -2.9871967556684456 2.9240422180074783 0 0 0
340 80 4 0 -1.7088599425045612 -3.725758630207249 2.8289751818800912 0 0 0
330 77 4 0 -1.3834047653388921 -3.110009722164152 2.3189603152855267 0 0 0
329 77 2 0 -0.9018715826861861 -3.1609735743487715 2.3563073831933656 0 0 0
558 153 4 0 -0.1947911805004547 -3.4440546703827826 2.565518798402267 0 0 0
331 77 4 0 -0.4813617118003128 -3.205847466835259 2.395274410702538 0 0 0
520 140 4 0 -0.13751338747083386 -3.0359102938099123 2.527062208746549 0 0 0
557 153 2 0 -0.06578277745129998 -3.9068122575740682 2.525839257987759 0 0 0
541 147 4 0 -4.121366265839858 -2.471657553622283 2.9964274360130343 1 0 0
63 13 3 0 -4.17620405958064 -2.49405701567254 2.590103295605467 0 0 0
61 13 1 0 -3.9766322477405356 -2.7810465933760913 2.3174741702964035 0 0 0
64 13 3 0 -3.5089720875648096 -2.7488395932231975 2.3768883007465162 0 0 0
65 13 3 0 -4.064931580094889 -2.6813261558745944 1.9008951308757427 0 0 0
59 12 3 0 -1.6963213841838636 -1.9252298426670305 2.2056701044756957 0 0 0
58 12 3 0 -1.3585536010679304 -1.6337459190384875 2.814175860023377 0 0 0
56 12 1 0 -1.29944439355622 -1.7290791885411365 2.366129173775521 0 0 0
60 12 3 0 -0.9625405977236671 -2.023271728238587 2.335554102450055 0 0 0
48 10 3 0 -3.529906330806515 -1.3217651839552944 1.7600607575680232 0 0 0
50 10 3 0 -3.8751532883446838 -0.6450971193742236 1.8202142791545033 0 0 0
46 10 1 0 -3.7156191224730404 -0.9643156313407379 1.516753814872396 0 0 0
328 76 4 0 -2.397656981398173 -0.9682224362156665 3.0036095810216503 0 0 0
326 76 2 0 -2.0594576733474486 -1.237970601742144 2.996058142063178 0 0 0
57 12 3 0 -1.2040515414586712 -1.3561931831245884 2.1387322657809436 0 0 0
556 152 4 0 -0.11993180985198089 -0.8377947229507265 2.6626798191607106 0 0 0
34 7 3 0 -0.22746468314831633 -0.5731368821164755 2.947492816501163 0 0 0
339 80 4 0 -1.953295056142495 -3.085546879073378 3.464957349543379 0 0 0
338 80 2 0 -1.8340703890182803 -3.401350442104516 3.147323499702224 0 0 0
373 91 4 0 -1.1773951797691697 -4.2486597052825665 4.2063123737541135 0 1 -1
325 75 4 0 -3.408153699994778 -2.8607101436222395 3.6042932154833998 0 0 0
350 84 2 0 -3.595043348495251 -2.119052522758703 3.822335410337883 0 0 0
351 84 4 0 -3.5018845551620816 -2.459296840244493 3.6084410287756867 0 0 0
323 75 2 0 -3.109499302306971 -2.9262152753601725 3.2531627217547503 0 0 0
352 84 4 0 -3.68049934441655 -1.7326423745197252 4.040879899199743 0 0 0
347 83 2 0 -1.7620012551747863 -2.3182880250224756 3.234172916414822 0 0 0
348 83 4 0 -1.9399618791013828 -2.6795289625912 3.42480727128935 0 0 0
349 83 4 0 -1.5587747860583907 -1.9260213756635818 3.0265438692479547 0 0 0
345 82 4 0 -2.8865364387624286 -4.445686048078308 1.4332154970961 0 0 0
321 74 4 0 -1.383305096699989 -1.6037341459653838 3.24620201952105 0 0 0
72 15 3 0 -1.3630436151989729 -2.495287518341589 4.190662896066194 0 0 0
438 113 4 0 -2.6237044162343723 -0.045280091531980884 3.6157320076296586 0 0 0
539 147 2 0 -4.481137286634108 -2.3781416038146883 3.19449232444423 1 0 0
327 76 4 0 -1.6926987710181742 -1.5245273818618938 2.9971343025903088 0 0 0
33 7 3 0 -0.353239346582783 -0.941596002897236 3.5706313512704697 0 0 0
32 7 3 0 -0.178307253141749 -0.23791728757931024 3.6292365222523713 0 0 0
322 74 4 0 -0.6461541109511517 -1.1968927083581806 3.5291403352484743 0 0 0
320 74 2 0 -1.016291565503221 -1.391012906433873 3.3859464258226035 0 0 0
420 107 4 0 -1.3368822593462746 -0.21631694257577108 3.9404338039515427 0 0 0
31 7 1 0 -0.10993826727914636 -0.6300922868757998 3.3970650821294863 0 0 0
295 65 4 0 -1.8064553226946563 -4.056606883031947 4.487578398868214 0 0 -1
441 114 4 0 -3.3004656720412573 -4.436564485375461 4.395473633189837 0 1 0
6 2 1 0 -3.507004737218687 -3.5764407679771804 0.030340561407183393 0 0 0
364 88 4 0 -3.0788889452201254 0.7673162253675079 -3.298069564547287 0 0 0
91 19 1 0 -1.6255661305541063 1.0287229736416228 -4.148805328739623 0 0 0
414 105 4 0 -2.286700851616269 0.8849607379038835 -4.260136587806029 0 0 1
93 19 3 0 -1.9954634433569418 0.7684650975604574 -4.043832863404318 0 0 0
413 105 2 0 -2.72408078269585 0.9237402832418566 -4.419265969361772 0 0 1
95 19 3 0 -1.7603317505146632 1.357476076506148 -4.479703133495871 0 0 0
94 19 3 0 -1.4747469554502806 1.2295306179869645 -3.7817391633362303 0 0 0
92 19 3 0 -1.3132139198076695 0.7798264280669251 -4.303947358618644 0 0 0
597 166 4 0 -0.46382969531378204 0.7941667092476664 -3.6708570909722145 0 0 0
596 166 2 0 -0.08766207803183047 1.060404278116888 -3.7420603088628046 0 0 0
380 94 2 0 -4.457434387426301 2.018285668583329 -3.8333238109544254 0 0 0
382 94 4 0 -4.116350162441466 1.8888920372876108 -4.109041749102111 0 0 0
89 18 3 0 -1.2976547737669788 2.51512551340433 -3.113840427827423 0 0 0
583 161 4 0 -4.30358878736759 4.210511850495117 -4.131273999755311 1 0 0
432 111 4 0 -1.9022225283412337 3.6832589095165544 -4.278577198584334 0 0 1
396 99 4 0 -3.2767247783967814 3.0203379096925227 -0.8452807042728976 0 0 0
387 96 4 0 -0.6236044809901929 3.7366696746444212 -2.9116612552329966 0 0 0
386 96 2 0 -0.546425787603566 4.170844004067989 -3.0307812587617984 0 0 0
362 88 2 0 -3.3388504562851042 1.0087059068691593 -3.0520399688475996 0 0 0
363 88 4 0 -3.640386823710956 1.278122579372264 -2.7796464834265806 0 0 0
97 20 3 0 -2.257265706004991 0.6617440059318098 -1.4599950970068651 0 0 0
360 87 4 0 -2.328326965182644 0.41937109328665473 -1.7945702674194943 0 0 0
359 87 2 0 -2.3081119094246194 0.5337968218104105 -2.2602790273408817 0 0 0
361 87 4 0 -2.294879535730503 0.6334210414713998 -2.6743956894060377 0 0 0
378 93 4 0 -0.6333451315870919 0.44859861538115403 -2.7503930354701716 0 0 0
377 93 2 0 -0.8722268369474475 0.1007546494635775 -2.6785182192910235 0 0 0
390 97 4 0 -4.149526974286899 2.1242305600920166 -1.8475419268383582 0 0 0
400 100 4 0 -2.913639278601437 2.9461670262727306 -2.234522684004693 0 0 0
87 18 3 0 -1.5741487277029298 2.3545819334082454 -2.449368953859504 0 0 0
383 95 2 0 -0.5969365420013447 2.4291399428474567 -1.7671122620867035 0 0 0
88 18 3 0 -0.802286611860774 2.4370127389787872 -2.5375126878124776 0 0 0
86 18 1 0 -1.2469997699877813 2.5894130972069833 -2.6844009903301136 0 0 0
384 95 4 0 -0.8364232871162076 2.3135279962845994 -2.1616362463044276 0 0 0
399 100 4 0 -3.6492463406822413 3.1753450606041813 -2.7085245540705993 0 0 0
365 89 2 0 -4.315455355711067 3.5749516537821906 -2.815457425450188 0 0 0
366 89 4 0 -3.9595907930839367 3.4096028181547897 -2.6459852829064663 0 0 0
398 100 2 0 -3.277983912965488 3.0561662812926844 -2.471341308493486 0 0 0
84 17 3 0 -1.3282707085811543 4.253499583294455 -1.257788337432529 0 0 0
82 17 3 0 -1.876421027448763 4.444294092096018 -1.711016237797175 0 0 0
102 21 3 0 -2.454718996863503 4.274293582582842 -2.851274004685873 0 0 0
104 21 3 0 -2.2401897328296525 4.456049770164276 -2.1778273090009725 0 0 0
101 21 1 0 -2.5922922875469157 4.386187811189928 -2.435988634526901 0 0 0
103 21 3 0 -2.857499033566585 4.054724627043257 -2.2665909201230043 0 0 0
81 17 1 0 -1.4397125868868874 4.342057777057232 -1.6837819817124098 0 0 0
85 17 3 0 -1.3502508236468196 3.95435603272343 -1.9681268163289498 0 0 0
90 18 3 0 -1.2876822019109462 3.0324873666211007 -2.5991618117572433 0 0 0
291 64 4 0 -3.668991130705241 0.7002221705287693 -1.6319632424309432 0 0 0
290 64 2 0 -3.670847298724789 0.32084106508847443 -1.3954799175585926 0 0 0
100 20 3 0 -2.9561037177181952 0.7689678583587033 -1.3382943319565659 0 0 0
411 104 4 0 -2.7533889519192027 0.9779621115545447 -0.203030265785862 0 0 0
98 20 3 0 -2.608320225074597 0.27848419714504763 -0.918535015071445 0 0 0
306 69 4 0 -2.902197847991717 0.5909008289318964 -0.14026592313784064 0 0 0
99 20 3 0 -2.4929295997305796 1.0027105516541588 -0.8748308725931807 0 0 0
96 20 1 0 -2.5862534310298835 0.6866323692008303 -1.1511716783125907 0 0 0
305 69 2 0 -2.865409866868724 0.14866983843458412 -0.024157442456841847 0 0 0
80 16 3 0 -0.6204923024745633 1.3459797893825307 -0.3329844087903168 0 0 0
585 162 4 0 -3.7692797207672193 2.032051594280851 -1.3593488732732035 1 0 0
584 162 2 0 -3.340257000053333 2.0189393893395624 -1.3169837011896506 1 0 0
586 162 4 0 -2.9092378204233746 1.9976567162608467 -1.2831193204067337 1 0 0
358 86 4 0 -2.355486417865609 2.107861261176716 -0.6144468331663964 0 0 0
356 86 2 0 -2.046812843376448 2.413403585228515 -0.7755570228869041 0 0 0
357 86 4 0 -1.727276256743847 2.7238651958673104 -0.9239739236522382 0 0 0
385 95 4 0 -0.38493565405711033 2.5358358723116905 -1.3980576382739909 0 0 0
397 99 4 0 -3.5529588904037124 3.1285037593610765 -0.01662356047846946 0 0 0
395 99 2 0 -3.404335159139206 3.073228672872371 -0.44301903141713084 0 0 0
421 107 4 0 -1.1547361311097917 0.45079657901841763 -4.450098473577015 0 0 1
410 104 2 0 -2.729161074640378 1.3113556971407174 0.055850698463662515 0 0 0
448 116 4 0 -1.920426339610322 1.4036978627172614 1.205997576042932 0 0 0
342 81 4 0 -1.6799702731425172 0.14850100748167927 1.3086767657747753 0 0 0
77 16 3 0 -0.3741902284472659 0.7903212695062887 0.13019690178346804 0 0 0
76 16 1 0 -0.33753512257088464 1.2584599701301307 0.01502367861883253 0 0 0
78 16 3 0 -0.448170250006912 1.506379427710744 0.3593152512095674 0 0 0
416 106 2 0 -0.7853821200886497 1.4478644516470083 1.0752663088571806 0 0 0
417 106 4 0 -1.0689394104308299 1.3097427161171626 1.407714218320795 0 0 0
446 116 2 0 -2.3195086652564223 1.6215573552977918 1.3209620438786351 0 0 0
412 104 4 0 -2.708334296386885 1.6765941506375452 0.3374599605387165 0 0 0
447 116 4 0 -2.717724613159313 1.833430112576375 1.428759000649597 0 0 0
430 110 4 0 -1.8973859937897044 2.2322575519481336 1.4394155290597692 0 0 0
418 106 4 0 -0.488720023518511 1.6001656502535937 0.7438736655070868 0 0 0
443 115 2 0 -0.12927175397159554 2.764565878660269 0.9086153807506875 0 0 0
371 91 2 0 -1.125439693153926 4.354949275081025 3.9948422102430303 0 0 -1
393 98 4 0 -0.3857068374224459 3.2891110544471895 3.550230809207903 0 0 -1
370 90 4 0 -1.7344863637755144 3.67952027478603 0.34084226443640453 0 0 0
369 90 4 0 -2.4988534811408254 4.209725175117382 0.3649402600547681 0 0 0
368 90 2 0 -2.1083810983571785 3.9340653371476164 0.35635186027828597 0 0 0
403 101 4 0 -1.2748691674888812 4.210536689773371 1.2166085080165265 0 0 0
402 101 4 0 -0.4844073086904717 4.149834903686571 0.7544492301031476 0 0 0
460 120 4 0 -0.12248044952935778 4.017587047910272 0.8251527462454474 0 0 0
401 101 2 0 -0.8937833511731714 4.189558425259196 0.9939220437975893 0 0 0
444 115 4 0 -0.3626945034441087 3.1489445474383033 0.7566582574299152 0 0 0
122 25 3 0 -3.2239346977322336 0.7077814126601087 2.878447786495352 0 0 0
121 25 1 0 -3.2119171485301345 1.0888214833687015 2.6765902100387104 0 0 0
454 118 4 0 -3.543159288385146 0.5517437096777259 3.035021705638959 0 0 0
125 25 3 0 -3.4295082916256914 1.0536571439429008 2.3063668174268614 0 0 0
123 25 3 0 -3.3999516713696356 1.4359361536962634 2.9532790450410915 0 0 0
124 25 3 0 -2.8139041193797425 1.1881076990269108 2.580134575424486 0 0 0
129 26 3 0 -1.735149437710029 1.2022027533242299 1.5199176677841124 0 0 0
128 26 3 0 -1.5160484814478283 0.4891521480885476 1.4794787061997219 0 0 0
126 26 1 0 -1.4620240705503265 0.8825646327621348 1.7114849808481756 0 0 0
127 26 3 0 -1.5727999634695666 0.8220372264004482 2.1500568316329502 0 0 0
427 109 4 0 -1.5870684749463324 0.999166459216992 3.1591198639933684 0 0 0
130 26 3 0 -1.0464591078230518 1.0191920727403483 1.6828899294199866 0 0 0
404 102 2 0 -3.181903118269868 2.3460131340775816 1.6372137909004174 0 0 0
406 102 4 0 -3.2399871803358162 2.0156392907784206 1.3526445076057065 0 0 0
405 102 4 0 -3.1249325050087258 2.6663179358342464 1.907012230046058 0 0 0
461 121 2 0 -3.2112443527126935 2.5148101522571698 2.7217614558671737 0 0 0
428 110 2 0 -1.6087198185375893 2.554973811006519 1.6046623358048244 0 0 0
429 110 4 0 -1.3393758949695325 2.867187697586207 1.748543056207994 0 0 0
111 23 1 0 -0.29737502052096215 2.013510310755982 2.717908607301718 0 0 0
115 23 3 0 -0.458475518725431 1.6643251795275362 2.4301012992901576 0 0 0
112 23 3 0 -0.41762727580881237 2.3941370782933946 2.5650439275821633 0 0 0
462 121 4 0 -3.137243291146338 2.6690699091034795 2.363532185060396 0 0 0
108 22 3 0 -4.2031394023534165 4.021074846623668 2.794494937147943 0 0 0
43 9 3 0 -2.769476484350438 4.010848240127222 2.294418594193268 0 -1 0
41 9 1 0 -2.439219253213201 4.27294027036075 2.0473748076831333 0 -1 0
45 9 3 0 -2.1725948054554554 3.9959437347175277 1.8184000231523676 0 -1 0
457 119 4 0 -0.7943193030993836 3.822364969400373 1.7540116996423087 0 0 0
456 119 4 0 -1.4489655322723072 3.2211534468047662 1.898119081843389 0 0 0
455 119 2 0 -1.1097486147944504 3.531667234660135 1.822356851482084 0 0 0
439 113 4 0 -3.209962811818151 0.49526944580065796 3.225893868753963 0 0 0
452 118 2 0 -3.979756638092867 0.39539319222950264 3.110941714078825 0 0 0
637 179 4 0 -4.248948569831129 1.5014635418007147 4.18092241810898 1 0 0
453 118 4 0 -4.400985436499096 0.22508757354534434 3.179611220722519 0 0 0
415 105 4 0 -3.1602604669567658 0.9644653296104589 4.412254508026096 0 0 0
437 113 2 0 -2.9217221956256703 0.23687904793305167 3.4173078436934756 0 0 0
392 98 2 0 -0.8012846112580122 3.0656457506684625 3.552665809005957 0 0 -1
372 91 4 0 -1.0561396531672678 3.9694003642336884 3.79245262282559 0 0 -1
436 112 4 0 -0.24580218468211373 0.9992900808549395 3.616773026019567 0 0 0
426 109 4 0 -1.1847772757326227 0.2605570293710416 2.95014897196642 0 0 0
419 107 2 0 -1.2466121768714264 0.11147411966998286 4.2375224877848 0 0 0
425 109 2 0 -1.3853628302056855 0.6307728362307957 3.0459710493016776 0 0 0
434 112 2 0 -0.11860869491134537 0.5636012988774838 3.645883160900914 0 0 0
463 121 4 0 -3.299898472276868 2.3402524900159696 3.1348608149689023 0 0 0
636 179 4 0 -3.814051793124552 1.5993919961911904 3.3587304529094375 1 0 0
635 179 2 0 -4.04040485617079 1.5511060215991874 3.7875345942541907 1 0 0
433 111 4 0 -1.9538460786255396 2.889169442902592 4.2853742650520665 0 0 0
116 24 1 0 -1.709239372640465 2.4698117878761883 3.715666661454271 0 0 0
118 24 3 0 -1.9523430053933195 2.8308390540872916 3.8601622227720505 0 0 0
120 24 3 0 -1.9646394969271153 2.1516889833198443 3.594511404869214 0 0 0
117 24 3 0 -1.4342096739142862 2.320930940233815 4.040552901271389 0 0 0
114 23 3 0 -0.48810617578044424 1.9522884489754575 3.1349202120462683 0 0 0
119 24 3 0 -1.452051216274286 2.605298827842805 3.341773891010538 0 0 0
394 98 4 0 -1.201982463425059 2.8394446736775727 3.556871289726898 0 0 -1
106 22 1 0 -4.228730242914777 4.251741710341313 3.1704868608700547 0 0 0
107 22 3 0 -3.903932661621849 4.105352716657364 3.474749491296557 0 0 0
440 114 2 0 -3.5197015005491497 4.488101763200582 3.991694853911463 0 0 0
442 114 4 0 -3.729277550692848 4.413909029919565 3.6130271822617854 0 0 0
409 103 4 0 -0.0073457256922825195 3.4730738493712803 3.5255545265707933 0 0 0
431 111 2 0 -1.9246595824962678 3.2833497351060723 4.494357605430845 0 0 0
606 169 4 0 0.7491211546679889 -4.090320439376587 -3.6029068780904625 0 1 0
605 169 2 0 0.8248512602307538 -4.169253630429396 -4.014003743873956 0 1 0
607 169 4 0 0.903258672656024 -4.24677607531801 -4.4249507929728775 0 1 0
147 30 3 0 0.30643393288634 -3.1863511205298907 -2.982553147564428 0 0 0
158 32 3 0 1.716633136119217 -4.2945434190377485 -3.069177375951451 0 0 0
157 32 3 0 2.3352715649510674 -4.446691815640167 -3.4622275529515254 0 0 0
498 133 4 0 1.065055527557359 -1.7666267563352362 -3.1190142587728027 0 0 0
495 132 4 0 0.403073257944596 -2.3033909310086393 -4.134985724636566 0 0 0
494 132 2 0 0.4249593835147263 -1.9071250654989462 -4.344951349760773 0 0 0
149 30 3 0 0.453483205524076 -2.4813383033844034 -3.1711027516296943 0 0 0
497 133 2 0 1.5411588843004587 -1.74177705918348 -3.1402045494690825 0 0 0
499 133 4 0 2.007088579605572 -1.7161855816054525 -3.158407003243177 0 0 0
145 29 3 0 2.248811223517508 -1.8013233420049783 -3.4692260988961436 0 0 0
143 29 3 0 2.5137189946856076 -1.5081656395708745 -4.066654184642663 0 0 0
259 53 4 0 0.7779464133031753 -0.32778316418529513 -3.4047940067772235 0 0 0
257 53 2 0 0.4853406052099768 -0.3240521867943428 -3.030695896893781 0 0 0
141 29 1 0 2.5304662489869716 -1.5024720662168305 -3.621158773066003 0 0 0
144 29 3 0 2.9450617947701265 -1.6159353842060096 -3.4893241707683873 0 0 0
142 29 3 0 2.4195908611617356 -1.0885744737032788 -3.471990362561155 0 0 0
469 123 4 0 1.9668555758586042 -0.015048529071894825 -3.001085285141366 0 0 0
485 129 2 0 3.9998452659720054 -0.9925180970568926 -3.8153790969042904 0 0 0
486 129 4 0 3.723744367044977 -0.8661412571821359 -4.114073016394476 0 0 0
487 129 4 0 4.298624041066851 -1.1137294605228591 -3.494741874414066 0 0 0
193 39 3 0 3.4365214176905465 -1.0615255025560513 -4.350662080355964 0 0 0
309 70 4 0 4.167604369883981 -1.335080068359175 -3.202930692488955 -1 0 0
501 134 4 0 3.6199439209080473 -0.4753763293933905 -2.848068864648079 0 0 0
473 125 2 0 1.4490080195509512 -3.5461477557062735 -2.8725928213196315 0 0 0
474 125 4 0 1.2661931842875802 -3.1312431355746217 -2.822913452550766 0 0 0
148 30 3 0 0.963277127691416 -2.8755836631957488 -2.8084243632002313 0 0 0
493 131 4 0 0.9824111016363222 -4.087870747077066 -1.603916294035533 0 0 0
491 131 2 0 1.0633752722977763 -4.399397140232344 -1.9103372559294163 0 0 0
475 125 4 0 1.6232182431799038 -3.937094710754351 -2.9182753091315754 0 0 0
139 28 3 0 4.056122826930278 -3.759904190465613 -2.4813702116097534 0 0 0
140 28 3 0 3.3659684320346437 -3.5702176621523125 -2.3139179022098455 0 0 0
136 28 1 0 3.785252952025307 -3.5611938715296256 -2.1759095526483447 0 0 0
137 28 3 0 3.8156918589796285 -3.7681640962932956 -1.8121809003428555 0 0 0
613 171 4 0 4.034530408744331 -4.1124603971016755 -2.7277322248647837 0 1 0
138 28 3 0 3.920601314675025 -3.1106226540497506 -2.109317186521204 0 0 0
611 171 2 0 3.8123505225322876 -4.379022278655991 -3.0222355323900123 0 1 0
510 137 4 0 0.09187024079454541 -1.942628245779935 -1.6752123368000018 0 0 0
150 30 3 0 0.3500490941305034 -2.658491699082496 -2.47269622182284 0 0 0
146 30 1 0 0.521289532025105 -2.797193788606765 -2.859482248400345 0 0 0
511 137 4 0 0.3874159950129484 -2.104394966185829 -2.4838113448386094 0 0 0
509 137 2 0 0.23718313450362824 -2.023024337818048 -2.064238409191775 0 0 0
151 31 1 0 2.1410435975141335 -2.205873590430438 -1.991025054587719 0 0 0
153 31 3 0 1.8835461298322649 -2.3807359498863065 -2.3261002589892112 0 0 0
154 31 3 0 1.9663919337094624 -2.313368676119466 -1.5839787052351217 0 0 0
155 31 3 0 2.1678215000209757 -1.753253648178861 -2.0315080670723478 0 0 0
152 31 3 0 2.562319569794537 -2.3745977223097787 -2.0182874191353637 0 0 0
288 63 4 0 4.356064283138006 -1.960338430365886 -2.118930405280574 -1 0 0
289 63 4 0 3.8527721600231746 -2.7138456352388456 -2.046899937884783 -1 0 0
308 70 2 0 4.1002152408432 -1.7273397241046202 -3.0003089056601726 -1 0 0
310 70 4 0 4.029243486864755 -2.1061144246978802 -2.798545921290507 -1 0 0
287 63 2 0 4.100289116536868 -2.335772626629579 -2.0834853621664178 -1 0 0
15 3 3 0 0.16983651362699323 -0.7470352123576122 -1.7520161467509368 0 0 0
502 134 4 0 2.811744035042379 -0.23528436150044182 -3.2086365772563754 0 0 0
500 134 2 0 3.225039113183256 -0.3559419158308409 -3.0264431982006785 0 0 0
488 130 2 0 0.4745151530461553 -3.152630803807421 -0.06763418415062676 0 0 0
472 124 4 0 1.7528484334789018 -3.9660003586045227 -0.7260858805580005 0 0 0
470 124 2 0 1.7852709772175612 -4.306074926863228 -0.4158704260562734 0 0 0
503 135 2 0 2.834405371972279 -4.232140334064515 -0.15886460892214885 0 0 0
374 92 2 0 3.7884568417163047 -4.431690547440276 -0.665736016594818 -1 1 0
375 92 4 0 3.364846543325132 -4.473502998766532 -0.7985578658967104 -1 1 0
505 135 4 0 3.110395489094849 -4.426931782267737 -0.48293175143038114 0 0 0
478 126 4 0 1.0124899176124476 -2.8189656533301495 -1.2837003757048295 0 0 0