LAMMPS data file via write_data, version 29 Aug 2024, timestep = 100000, units = lj

682 atoms
4 atom types
488 bonds
1 bond types
444 angles
2 angle types

-4.496439 4.496439 xlo xhi
-4.496439 4.496439 ylo yhi
-4.496439 4.496439 zlo zhi
0 0 0 xy xz yz

Masses

1 1
2 1
3 0.1
4 0.1

Bond Coeffs # harmonic/omp

1 100 0.45

Angle Coeffs # harmonic/omp

1 100 180
2 100 109.471

Atoms # full

2 1 3 0 -4.4048837869899335 -0.6449706699529609 -4.13380314476036 1 0 0
373 91 4 0 -4.467641701817912 -3.0999432320764075 -3.4415937936580683 2 1 0
280 60 4 0 -2.8590392042705304 -3.874229131532704 -2.9519007791132115 1 0 0
388 96 4 0 -2.788863008118298 -4.246985399983987 -3.0159800538000345 2 1 0
163 33 3 0 -1.3860085620728548 -3.228789030080143 -4.068648488423604 1 0 1
161 33 1 0 -1.021165308073464 -3.375705273800235 -4.303266566873968 1 0 1
162 33 3 0 -0.8088101643933268 -3.704565091982702 -4.074455531752064 1 0 1
531 144 4 0 -0.6600783925910001 -3.8985859604030315 -3.740720149129458 1 0 1
530 144 2 0 -0.6091338759918634 -4.316127679630881 -3.8683128994685885 1 0 1
164 33 3 0 -0.7346354947801803 -3.0200055900099145 -4.355824973711029 1 0 1
495 132 4 0 -3.176305033923118 -1.978666571377072 -3.2223070109863183 1 0 0
276 59 4 0 -3.420788620689115 -2.3117648610870285 -3.2157835517918505 1 0 0
275 59 2 0 -3.7821904073007637 -2.5559139291684865 -3.317412530551689 1 0 0
277 59 4 0 -4.158541508554655 -2.8170350982487364 -3.4090924728622634 1 0 0
494 132 2 0 -3.0008115486703204 -1.5755595869950039 -3.265153742481013 1 0 0
569 157 2 0 -0.12277681077827918 -2.4857972651266365 -4.495169733104019 1 0 1
570 157 4 0 -0.5657117631820343 -2.6569568217740898 -4.426068132917375 1 0 1
24 5 3 0 -3.1059696359113813 -0.26956118500186665 -3.1811343180847147 1 0 0
270 57 4 0 -3.4095307663309757 -0.25166368232824077 -3.4780469499531037 1 0 0
273 58 4 0 -3.4542657993471666 -0.5133341177824153 -3.1921182208846814 1 0 0
5 1 3 0 -4.1873403650454275 -0.015930705864654726 -4.459271621984934 1 0 0
269 57 2 0 -3.6267694334373646 -0.10684915478762846 -3.8823456868367576 1 0 0
272 58 2 0 -3.810645183494907 -0.7843156789697834 -2.980281290141254 1 0 0
496 132 4 0 -2.828790818343742 -1.1656806970893676 -3.2975685020103938 1 0 0
25 5 3 0 -2.628092919698786 -0.8147246973649382 -3.2174846250768665 1 0 0
21 5 1 0 -2.6807205430606285 -0.39422236661464627 -3.301061675350544 1 0 0
22 5 3 0 -2.616877735207668 -0.3132908315885725 -3.7194873882562276 1 0 0
23 5 3 0 -2.3537008838993034 -0.14276510071416393 -3.0356818748736716 1 0 0
364 88 4 0 -2.343639523153599 -0.1485436348365301 -3.954846377780152 1 0 0
278 60 2 0 -3.065372080006398 -3.481703468036652 -2.877126165470145 1 0 0
279 60 4 0 -3.2635674688226626 -3.0737612007575414 -2.8101400505572025 1 0 0
492 131 4 0 -3.513226431538899 -3.7625028906271 -1.6305135449537658 1 0 0
491 131 2 0 -3.1859212175359017 -3.9727370521785366 -1.884582101624316 1 0 0
160 32 3 0 -2.5162000824877833 -4.04527895675197 -2.8458837680239872 1 0 0
493 131 4 0 -2.864686166150727 -4.185627733742781 -2.138870596154424 1 0 0
157 32 3 0 -2.451499288386773 -4.113453334715921 -2.067105783068265 1 0 0
156 32 1 0 -2.2120187200641017 -4.025143787988287 -2.481775402546401 1 0 0
159 32 3 0 -1.8922317232041572 -4.314654590206591 -2.520627865165214 1 0 0
158 32 3 0 -2.034353136980203 -3.613277939551449 -2.471717696331816 1 0 0
475 125 4 0 -1.796607849284241 -3.2953429712175346 -2.5782860567976296 1 0 0
477 126 4 0 -0.3186043645237344 -1.5329851223628208 -1.2737992425802807 1 0 0
149 30 3 0 -3.2000814098293215 -2.2135738271066328 -2.8801588766963158 1 0 0
147 30 3 0 -2.9014184532306055 -2.875843767008895 -2.7012936824790152 1 0 0
511 137 4 0 -3.112393732577668 -2.4585079862746175 -1.7870188435205647 1 0 0
146 30 1 0 -2.936637984226343 -2.429524625973991 -2.5763916311940767 1 0 0
150 30 3 0 -3.1081737263321454 -2.411180596740235 -2.1866762440069647 1 0 0
509 137 2 0 -3.42967217861778 -2.719727741282858 -1.6128997369978837 1 0 0
148 30 3 0 -2.491130876071295 -2.2372812969436584 -2.5665886787392544 1 0 0
474 125 4 0 -2.120951458862152 -2.4372704601093713 -2.4678715148881056 1 0 0
498 133 4 0 -2.141058476683023 -2.008013875940388 -2.5096026770032616 1 0 0
497 133 2 0 -1.8326131824189025 -1.6508013155703285 -2.3951845787479877 1 0 0
473 125 2 0 -1.9578960288238685 -2.8710429577254173 -2.5249113279277413 1 0 0
155 31 3 0 -0.23769870439676843 -1.5383529042048099 -2.433630186698109 1 0 0
154 31 3 0 -0.20750491776109747 -1.588318423997987 -1.670349129652858 1 0 0
301 67 4 0 -4.194476101029367 -1.2586970573265845 -1.5845599798595833 1 0 0
274 58 4 0 -4.1506485911850515 -1.0539598640216865 -2.770748392729399 1 0 0
300 67 4 0 -4.337684954372426 -1.1160548572568647 -2.4561054982134563 1 0 0
299 67 2 0 -4.267858904059009 -1.1894615207933459 -2.0363423126011115 1 0 0
478 126 4 0 -0.26332376082786624 -0.8738482136443082 -0.6226564689593914 1 0 0
499 133 4 0 -1.527042583321462 -1.2804029800918983 -2.2741919179939023 1 0 0
379 93 4 0 -1.9990438631635477 -0.24085940188179933 -2.830719812786732 1 0 0
377 93 2 0 -1.7567213085627902 -0.5683586121452828 -2.6328157601266255 1 0 0
378 93 4 0 -1.505775720834837 -0.9062040770730606 -2.427330622626036 1 0 0
260 54 2 0 -4.134864195657661 -1.6108080443288704 -0.8735329717293863 1 0 0
151 31 1 0 -0.017556111183113288 -1.3838050533804096 -2.0407725663799945 1 0 0
145 29 3 0 -1.2006235274008952 -1.0150939343009258 -2.163795193192503 1 0 0
142 29 3 0 -1.069197082106078 -0.30799661627871533 -1.9114415216220078 1 0 0
141 29 1 0 -0.8957997125025816 -0.7331396035260997 -1.9290152499078719 1 0 0
144 29 3 0 -0.8360635980512852 -0.8830259510477134 -1.5162299518819378 1 0 0
143 29 3 0 -0.4741518390852768 -0.7210567135409196 -2.1657992219909414 1 0 0
259 53 4 0 -0.059577069007278105 -0.5540743785535005 -2.1577659675391296 1 0 0
152 31 3 0 -0.0713802357371387 -0.9189073637446459 -2.0142277009251157 1 0 0
283 61 4 0 -3.9672186797121647 -3.0847716175490536 -1.1453822385379002 1 0 0
281 61 2 0 -4.267393301886578 -3.0527053952612864 -0.8056451361575672 1 0 0
595 165 4 0 -1.9477997365409343 -4.3623618591701 -1.4080490022044474 2 1 0
593 165 2 0 -1.519896555072862 -4.179302561025793 -1.3104208167200504 2 1 0
594 165 4 0 -1.0837820118734687 -3.9826140200399256 -1.2197115106368308 2 1 0
375 92 4 0 -0.8513418354583506 -4.041336392721698 -0.8570091374490794 1 1 0
374 92 2 0 -0.6986873279468875 -4.396197329603401 -0.5840768663062192 1 1 0
505 135 4 0 -0.8502779179366113 -3.6976662538719585 -1.0825383383368061 1 0 0
503 135 2 0 -0.5121969107189028 -3.373915681030891 -0.9745772868264435 1 0 0
504 135 4 0 -0.1891571348366492 -3.043067152003842 -0.8689404152932956 1 0 0
169 34 3 0 -4.185645410164282 -1.97162196357025 -0.2425718458458741 1 0 0
262 54 4 0 -3.977168701882837 -1.787190356052493 -0.5162939035422713 1 0 0
510 137 4 0 -3.745052954521598 -2.98649341159926 -1.4463290258562558 1 0 0
476 126 2 0 -0.2903384288146924 -1.1960137664216273 -0.9411598418305562 1 0 0
466 122 4 0 -3.7866146619738985 -1.9034180422608578 -0.19681390705431134 1 0 0
464 122 2 0 -3.363986755234432 -1.7663854973770556 -0.07884277825577257 1 0 0
261 54 4 0 -4.306951778255858 -1.4319367414966835 -1.2486277951043734 1 0 0
507 136 4 0 -0.3095823161985267 -1.8894546539805592 -1.4225385103536516 1 0 0
508 136 4 0 -0.09682340383330068 -2.653645102950898 -0.9512256319302517 1 0 0
506 136 2 0 -0.20581782492707834 -2.2606068240302717 -1.1979010328982929 1 0 0
166 34 1 0 -4.356652583759095 -2.309369872966156 -0.026457176961149464 1 0 0
178 36 3 0 -2.1011330847270937 -3.1562164384586993 -4.425838465843723 1 0 1
633 178 4 0 -2.4848076723769883 -4.06001942654678 1.4739351702880903 2 1 0
534 145 4 0 -1.6315559771077792 -3.150061368590876 1.356734553513463 1 0 0
632 178 2 0 -2.774263667233015 -4.326334503335454 1.1991942928169772 2 1 0
173 35 3 0 -0.6248640620179131 -3.0290899691178255 1.3732111987969047 1 0 0
543 148 4 0 -3.2672238558553905 -2.2155824687471912 1.1910807925611158 1 0 0
167 34 3 0 -4.030986062696071 -2.4909245920398426 0.2246727556727075 1 0 0
236 48 1 0 -0.5841677638070117 -4.423863283080047 2.002343532784976 2 1 0
542 148 2 0 -3.5768612886494777 -2.320557922343139 1.4894163254535053 1 0 0
565 155 4 0 -2.87643953278213 -2.1963277729479858 1.1572174187750193 1 0 0
563 155 2 0 -2.5029954576992672 -1.9063969750240153 1.2320355491550607 1 0 0
513 138 4 0 -1.770110005939872 -1.5806248014136965 1.2040242797104188 1 0 0
529 143 4 0 -0.3651330062793301 -3.0693703044358704 1.050182335795454 1 0 0
527 143 2 0 -0.1840757570295013 -2.891851359459745 0.6557937112292374 1 0 0
174 35 3 0 -1.3331076354056184 -2.880811459084079 1.2425633909885283 1 0 0
512 138 2 0 -1.367935002214204 -1.7545894758584986 1.162015504777023 1 0 0
514 138 4 0 -0.9485891763607976 -1.9451796785582869 1.1282011887338257 1 0 0
171 35 1 0 -0.9563556425584383 -2.737791846411695 1.4536541131810568 1 0 0
175 35 3 0 -0.8339302320547048 -2.296591091008951 1.2830027183193309 1 0 0
574 158 4 0 -0.5468235497859419 -2.0101686356974766 1.2544857292831022 1 0 0
572 158 2 0 -0.12035201724890676 -1.8275103122293084 1.305151759411305 1 0 0
343 81 4 0 -4.082188788642633 -0.8160848735735624 0.5876640950031247 1 0 0
341 81 2 0 -3.6988225001818376 -0.5926958483881668 0.620811954727575 1 0 0
342 81 4 0 -3.3160020661526763 -0.3816606118399628 0.6599373481659718 1 0 0
339 80 4 0 -4.403049766181387 -1.8280790004229743 3.9065963609069145 1 0 0
564 155 4 0 -2.1663878683665274 -1.6506287859541344 1.3060818344508673 1 0 0
520 140 4 0 -4.263863434166545 -3.637559504088402 2.3094588974384864 1 0 0
127 26 3 0 -2.6528062322893975 -0.3723659175396721 0.8518125997883965 1 0 0
555 152 4 0 -2.0003921472603587 -1.3181337213806925 1.447957100870327 1 0 0
518 140 2 0 -4.1407350445036695 -3.172113133531544 2.1699938270879384 1 0 0
559 153 4 0 -3.3433514327571197 -4.199841027848349 2.7769876090243724 1 0 0
557 153 2 0 -3.750319569918935 -4.003511925957449 2.7275149888687373 1 0 0
558 153 4 0 -4.1710442720472445 -3.8095641470464856 2.6716977433492826 1 0 0
649 183 4 0 -2.9639678405241328 -4.143788081384007 2.6272609392524373 2 1 0
679 193 4 0 -3.0197624044152978 -4.432623578627887 2.9022067654010426 2 1 0
533 145 2 0 -1.953749890177801 -3.4359993662829957 1.4720180939908243 1 0 0
535 145 4 0 -2.2875849633978746 -3.7325651126297177 1.5929257812433013 1 0 0
647 183 2 0 -2.7156402384586915 -4.0267317540516565 2.2454373499213753 2 1 0
648 183 4 0 -2.482326767658144 -3.913650008037309 1.87896200415853 2 1 0
237 48 3 0 -0.7489606000708826 -4.4648746644051736 2.420217017295556 2 1 0
549 150 4 0 -0.8052707420899128 -3.17930465176139 2.8745533031693027 1 0 0
61 13 1 0 -0.029144944677274687 -3.4943558168587177 2.800325124006436 0 0 0
62 13 3 0 -0.02288567753017734 -3.5845914457987895 2.35357905660623 0 0 0
562 154 4 0 -0.15546188990643017 -3.7464490931705408 2.00869752279234 1 0 0
238 48 3 0 -0.4497839029068915 -4.0022491011650985 1.9347890662148606 2 1 0
64 13 3 0 -0.47083754003603495 -3.4010136776647326 2.930245604317043 0 0 0
519 140 4 0 -4.019682867855399 -2.747157184841935 2.034536005857295 1 0 0
60 12 3 0 -3.7819378110120256 -2.4510931720974916 2.1788807173388918 1 0 0
349 83 4 0 -4.06038633667305 -1.560170768757005 2.7605165778615346 1 0 0
544 148 4 0 -3.905099601437927 -2.424988137995222 1.7770275632182377 1 0 0
59 12 3 0 -3.1852435274927346 -2.189370616140274 2.5187273690547016 1 0 0
58 12 3 0 -3.79723036445112 -1.8072212686338602 2.563265876365201 1 0 0
56 12 1 0 -3.615584177613257 -2.2246824638912956 2.5533572543592147 1 0 0
327 76 4 0 -4.065215621203558 -1.5764722491792518 2.352437351013502 1 0 0
326 76 2 0 -4.339568546225858 -1.6177123551716295 1.9882687870824665 1 0 0
57 12 3 0 -3.7208057914933628 -2.446751055059455 2.915375493754606 1 0 0
172 35 3 0 -1.0258169322897812 -2.7128981409285404 1.8867747589919732 1 0 0
548 150 2 0 -1.0265235353130815 -3.0516792269873374 2.513651553884748 1 0 0
550 150 4 0 -1.244510792752639 -2.9255583735253605 2.1515937565265766 1 0 0
321 74 4 0 -3.7299419621123793 -1.437717931827792 2.5488828011967124 1 0 0
320 74 2 0 -3.4442075602002795 -1.1308115033968313 2.748517050206959 1 0 0
322 74 4 0 -3.1488772344047713 -0.8254814274414555 2.940411610489865 1 0 0
34 7 3 0 -2.263277106518508 -0.4713209661467328 2.3852972702912796 1 0 0
556 152 4 0 -2.1835538747407046 -0.6948980338427271 2.0668459436609687 1 0 0
554 152 2 0 -2.090095484785529 -0.9990673638679453 1.7596613749717696 1 0 0
33 7 3 0 -2.7467612161439825 -0.7768792646557849 2.826066922755481 1 0 0
31 7 1 0 -2.323439701234697 -0.6726346158884944 2.7769043745831743 1 0 0
35 7 3 0 -2.0519464110506918 -1.0664015927533277 2.789791636469957 1 0 0
179 36 3 0 -1.6170012047628757 -3.18765775232148 3.9869971432219407 1 0 0
176 36 1 0 -2.049278059353105 -3.0818887706874545 4.1093136815031555 1 0 0
177 36 3 0 -2.3319155973602217 -3.343379888008424 3.891034912032196 1 0 0
435 112 4 0 -1.898620949019112 -0.2053527382253817 3.3233512604761506 1 0 0
200 40 3 0 -0.27134700184140037 -0.05706713255639251 4.3143938685810275 1 0 -1
547 149 4 0 -1.368480110509286 -3.4962875055122904 3.892532122337399 1 0 0
165 33 3 0 -1.1745935216196304 -3.543428701266876 4.2588443216505985 1 0 0
545 149 2 0 -1.0848835812412987 -3.463958336914365 3.5377833352768233 1 0 0
546 149 4 0 -0.7865862429725334 -3.4229853282930556 3.171464132227986 1 0 0
347 83 2 0 -4.299739574005482 -1.6959302120139244 3.158510001850394 1 0 0
180 36 3 0 -2.143490492248112 -2.6365629338421175 4.0038764680142505 1 0 0
319 73 4 0 -4.277594476363978 -0.6226355390782321 3.8294103129200474 1 0 0
420 107 4 0 -3.099199579532138 -0.344594211421291 3.9143267374792883 1 0 0
317 73 2 0 -3.820585182265091 -0.6096653581523421 3.783794019491409 1 0 0
318 73 4 0 -3.3629896240247774 -0.5944534755913389 3.743398899610157 1 0 0
421 107 4 0 -2.3180727480770646 -0.18001380816645263 3.431944779492027 1 0 0
419 107 2 0 -2.711887290394289 -0.26709157988221754 3.6809417188515523 1 0 0
32 7 3 0 -2.1929426519514834 -0.38355115205428447 3.116177836503324 1 0 0
434 112 2 0 -1.489052976392803 -0.019052520685703733 3.5209205231986394 1 0 0
465 122 4 0 -2.9556509467340843 -1.6355230460087098 0.03262804511133677 1 0 0
636 179 4 0 -3.4618897508053297 1.3721859078980794 -4.214459869666086 2 0 1
271 57 4 0 -3.840639375226153 0.03106957898863527 -4.28089235836754 1 0 0
362 88 2 0 -2.512621392609263 0.19648746754811075 -4.226149380656969 1 0 0
291 64 4 0 -2.014446520587063 0.13904684847006532 -3.0196440454872153 1 0 0
597 166 4 0 -1.0070424407813778 0.9740197154996535 -3.314531508803185 1 0 0
596 166 2 0 -0.8453714683379712 0.8559623495688129 -3.7114300055975207 1 0 0
598 166 4 0 -0.6708866780004259 0.739170377982731 -4.124306319210888 1 0 0
197 40 3 0 -0.5760613157164944 0.5594018057819268 -4.464567559650638 1 0 0
381 94 4 0 -4.351540270102193 2.113733121782725 -3.5256229433344135 1 0 0
380 94 2 0 -3.9747773845378043 1.9375882410697862 -3.3734774125725187 1 0 0
382 94 4 0 -3.583866451437379 1.767992541005178 -3.2143078198408825 1 0 0
635 179 2 0 -3.4639938539834487 1.8098418429328813 -4.3184607093713545 2 0 1
625 175 4 0 -3.5232339973206463 2.08443350808549 -2.9189563914602035 2 0 0
183 37 3 0 -3.0615954957254825 2.369493609619165 -4.33371329358716 2 0 0
580 160 4 0 -3.6687247198051205 3.9877375348063184 -3.63890645669285 2 0 0
387 96 4 0 -3.369762289431936 4.197401972067223 -3.4393995140450495 2 0 0
579 160 4 0 -4.410708276002248 3.538418826463002 -3.9956102137631326 2 0 0
578 160 2 0 -4.062677040126907 3.7500095845316705 -3.8229983252359183 2 0 0
532 144 4 0 -0.545847638978064 4.271157434357703 -3.9797812421275034 1 -1 1
642 181 4 0 -0.3948063747770565 3.949218098557485 -4.088895321711129 2 0 1
641 181 2 0 -0.029240934004712393 3.7601250157094794 -4.264024221436166 2 0 1
290 64 2 0 -1.650598259036459 0.48333557170456753 -3.0613623901952556 1 0 0
210 42 3 0 -2.2450769462663103 0.06506212812287515 -2.698510435463432 2 0 0
208 42 3 0 -2.4437196461637365 0.7304958910718735 -2.478002792339882 2 0 0
206 42 1 0 -2.4286756479386153 0.280806544532771 -2.3741532491834856 2 0 0
209 42 3 0 -2.1903608293351033 0.23421718773828015 -2.0063797973150272 2 0 0
307 69 4 0 -1.8244387215966125 0.340549449365672 -1.9087301733358117 1 0 0
618 173 4 0 -2.1338612981097613 0.45903939440134245 -1.6597540915241256 2 0 0
305 69 2 0 -1.4250647398100056 0.5868211491728914 -1.9564990509537292 1 0 0
292 64 4 0 -1.297640566581208 0.8214479523206446 -3.09431000068989 1 0 0
306 69 4 0 -1.0407006733133248 0.8299317023388877 -2.0060820935328616 1 0 0
100 20 3 0 -0.9876314197551781 1.0760980774603626 -2.915448173606812 1 0 0
96 20 1 0 -0.7891616699751611 1.3216840361601916 -2.542336430584043 1 0 0
98 20 3 0 -0.7426434073179666 1.0317085167556126 -2.176939009395823 1 0 0
411 104 4 0 -0.7918885199622299 1.0351911317090323 -1.7628359236562745 1 0 0
97 20 3 0 -0.35265362584027304 1.4924536587557604 -2.6792528694386863 1 0 0
610 170 4 0 -4.146869467338907 1.858352665235155 -1.9985409713579694 2 0 0
623 175 2 0 -3.36467308479595 2.1514712069068844 -2.5077973968864304 2 0 0
218 44 3 0 -3.2230067536167475 2.376616226703594 -1.6962637431237502 2 0 0
624 175 4 0 -3.1832614009343567 2.2305509813997606 -2.05820741269942 2 0 0
216 44 1 0 -3.5934352646377987 2.2791633872463537 -1.4722190085002653 2 0 0
217 44 3 0 -3.871909927100967 2.0211185655276447 -1.7337236531591884 2 0 0
616 172 4 0 -4.1487266263914435 2.852391755180858 -1.5020031513482537 2 0 0
391 97 4 0 -2.893051877826431 2.453438237267598 -1.8957434432114462 1 0 0
389 97 2 0 -2.4384026423330822 2.5092993788987803 -1.798736296131386 1 0 0
390 97 4 0 -1.9966622065566089 2.5531330734749167 -1.71131667093504 1 0 0
584 162 2 0 -1.5402333641953043 1.9097133214391304 -1.9700400367165813 2 0 0
585 162 4 0 -1.859555981170486 2.2177214039488415 -1.867101185543194 2 0 0
586 162 4 0 -1.233782181401446 1.6043381719713548 -2.0725312074989333 2 0 0
99 20 3 0 -1.0374389992681419 1.6472593692544164 -2.4266652383956044 1 0 0
203 41 3 0 -2.1776541845472925 3.9007453455133563 -1.847185749463439 2 0 0
604 168 4 0 -2.864650837691591 1.0117018624660696 -0.7857036045167964 2 0 0
602 168 2 0 -3.113617257417797 1.378707298580757 -0.8653850780138761 2 0 0
638 180 2 0 -2.7965682005652868 0.4936454723883159 -0.29038839965924357 2 0 0
639 180 4 0 -3.0029189985121274 0.6392970458732092 -0.633262376661806 2 0 0
619 173 4 0 -2.710414904854014 0.6646624960219567 -0.929602095951052 2 0 0
617 173 2 0 -2.418707575899732 0.5565892765684355 -1.3136328475673897 2 0 0
77 16 3 0 -0.6591402028724667 0.14901285633122274 -0.5373677662607999 1 0 0
410 104 2 0 -0.7109472682981797 1.0862917083445938 -1.3142416795937866 1 0 0
412 104 4 0 -0.6327932087540984 1.1277504553290099 -0.853597309993197 1 0 0
80 16 3 0 -0.5865623578529187 0.8838560338964632 -0.5237264303293534 1 0 0
76 16 1 0 -0.6789244718414138 0.5082208840442615 -0.2761551095044279 1 0 0
358 86 4 0 -0.5590700219255913 1.2955527894231675 -0.47962912381663436 1 0 0
219 44 3 0 -3.82462230834642 2.6799215644254994 -1.347734471487735 2 0 0
220 44 3 0 -3.4839589763934926 2.052871131217672 -1.1061187014071274 2 0 0
603 168 4 0 -3.357408026810215 1.7277213678361578 -0.9386461878640553 2 0 0
356 86 2 0 -0.6515134375365199 1.6260525242158286 -0.15921642820977322 1 0 0
224 45 3 0 -4.43031800482359 3.89708786819046 -0.37682223129620684 2 0 0
401 101 2 0 -3.6674195252464292 4.112823797838918 -0.2905176863239394 2 0 0
402 101 4 0 -3.237824752275499 4.111125463065794 -0.39214293489698715 2 0 0
403 101 4 0 -4.108102432477848 4.125062679903581 -0.19397721636745668 2 0 0
600 167 4 0 -3.8647667994050954 3.0989146956652407 -1.3336531055890744 2 0 0
599 167 2 0 -3.5292443972672483 3.418444728213081 -1.3566820844482144 2 0 0
601 167 4 0 -3.1888412951508838 3.733762372595522 -1.3927360679880643 2 0 0
202 41 3 0 -2.835834409120868 3.92452119435844 -1.494802582807195 2 0 0
460 120 4 0 -2.886479388205089 4.098038906870257 -0.5669491863733978 2 0 0
205 41 3 0 -2.283077120559835 4.42815415476307 -1.310906984363986 2 0 0
201 41 1 0 -2.486273441969041 4.172715093869811 -1.6675585415305498 2 0 0
458 120 2 0 -2.5730641740746503 3.880229576970538 -0.33966240071542764 2 0 0
459 120 4 0 -2.2670405349202767 3.666815527455813 -0.1247188141468305 2 0 0
376 92 4 0 -0.5584952329358064 4.26526287790415 -0.34028449194425114 1 0 0
360 87 4 0 -0.027512953092172054 1.737695732978926 -2.6040829934680856 1 0 0
386 96 2 0 -3.0887563493822796 4.454704114543033 -3.2296822993364462 2 0 0
204 41 3 0 -2.6561418779600503 4.463527402758399 -1.9979720259662583 2 0 0
207 42 3 0 -2.85125483391749 0.12209271104983266 -2.3024714484584394 2 0 0
78 16 3 0 -1.0965940832823549 0.5484597601128334 -0.10862595246004414 1 0 0
445 115 4 0 -0.0049809128672970715 0.5724982053314589 -0.05022048476327079 1 0 0
537 146 4 0 -1.938864239309022 3.4673307034410357 -0.018979612550712233 1 -1 0
123 25 3 0 -3.478169845975056 0.9891663032705642 -4.315176488717194 1 0 1
363 88 4 0 -2.666765849160613 0.506402467485759 -4.48990648661535 1 0 0
637 179 4 0 -3.4500332879354536 2.2467997792433048 -4.416473590599915 2 0 1
184 37 3 0 -2.5363189937991737 2.8573336892648697 -4.441813349481808 2 0 0
640 180 4 0 -2.592267140797233 0.3362582350812451 0.05338782892485927 2 0 0
448 116 4 0 -2.4629509461754475 0.35804382086750497 1.4044626816793295 1 0 0
446 116 2 0 -2.073608235792837 0.6026514887386902 1.356908199556221 1 0 0
416 106 2 0 -1.8318336530133652 0.5547478073554668 0.19715581840935759 1 0 0
447 116 4 0 -1.674485728173043 0.8404864292353453 1.3071512450742615 1 0 0
129 26 3 0 -2.7635491517664406 0.2742470821802563 1.1757622161362775 1 0 0
130 26 3 0 -2.597744730510364 0.25291230332319703 0.4430788320800625 1 0 0
417 106 4 0 -2.2790599351402774 0.4235472475374511 0.28446896320128356 1 0 0
418 106 4 0 -1.4279231900404619 0.6631202710605573 0.10836036960073248 1 0 0
79 16 3 0 -0.38335460845382574 0.4738770535650012 0.0612633811191845 1 0 0
126 26 1 0 -2.8188755172120725 0.03977448704982223 0.7964278796341171 1 0 0
406 102 4 0 -1.3779765479369712 1.066895381332139 1.4390563085167551 1 0 0
128 26 3 0 -3.266923071782699 0.007677594818688682 0.6988346316112866 1 0 0
235 47 3 0 -3.216756518183588 2.896917136105629 1.1434285210014687 2 0 0
231 47 1 0 -3.6365227123664514 2.887229893209925 1.310328517918693 2 0 0
234 47 3 0 -3.8206620254750514 2.4737437364300385 1.2267227562026637 2 0 0
675 192 4 0 -4.051599066907157 2.2191859216889602 0.9852790310027943 2 0 0
357 86 4 0 -0.734810278091973 1.9313671969972752 0.13907525102264717 1 0 0
472 124 4 0 -2.9964468355607905 3.122146744418033 1.402152553987598 1 -1 0
628 176 4 0 -4.043902033402192 3.280155690103194 0.7477582648021084 2 0 0
232 47 3 0 -3.886224376502657 3.21612167155787 1.1167155382767735 2 0 0
655 185 4 0 -4.004671851872624 3.6038829978637983 0.9872511652722347 2 0 0
653 185 2 0 -3.7037652944867214 3.9580277204376904 0.9826181814857611 2 0 0
634 178 4 0 -3.0422443911111836 4.420677752520551 0.9330526613158003 2 0 0
654 185 4 0 -3.424554662477645 4.284467717104051 0.9870845966125961 2 0 0
470 124 2 0 -2.6134962463282365 3.331689387531382 1.3040029559080546 1 -1 0
471 124 4 0 -2.2211589851484597 3.525179901285184 1.1908161834487903 1 -1 0
536 146 2 0 -1.9414777145365107 3.466170911849601 0.4289750557474994 1 -1 0
538 146 4 0 -1.9435634342558608 3.4736855443652406 0.8976602987938422 1 -1 0
627 176 4 0 -4.465156491778133 2.94419387904263 0.00031715005204269175 2 0 0
682 194 4 0 -1.840867214859509 3.6136202580427588 1.2435379572487335 2 0 0
680 194 2 0 -1.5663138912594317 3.94165998540091 1.3806534608704961 2 0 0
665 189 2 0 -0.23890763189813313 3.7859464511164385 1.2715011685617785 2 0 0
667 189 4 0 -0.5651278638807828 3.5377599951265806 1.4621747164043883 2 0 0
681 194 4 0 -1.2656625901111274 4.281277800578528 1.5254532727757573 2 0 0
438 113 4 0 -3.0711912017004406 0.41941385067157455 2.84322346508627 1 0 0
426 109 4 0 -2.972008130883645 0.386963131563955 2.4721272662148133 1 0 0
425 109 2 0 -2.8974915471154388 0.37391773971254416 2.035064624361987 1 0 0
427 109 4 0 -2.814431736125356 0.35863547302821175 1.5710493101354777 1 0 0
94 19 3 0 -1.9601453362305632 0.48871233654545776 2.5146182782249538 1 0 -1
95 19 3 0 -2.668674321722154 0.4209394150376422 2.747951981936672 1 0 -1
91 19 1 0 -2.2432613243127344 0.4474965760936058 2.8923409028982423 1 0 -1
404 102 2 0 -0.9479431539766341 1.0374730747416354 1.5603224618440334 1 0 0
405 102 4 0 -0.5194606826074564 1.0144647240310611 1.685196608060111 1 0 0
430 110 4 0 -0.13732228456748263 1.011374930680053 1.733011912445944 1 0 0
462 121 4 0 -0.37923413869035816 1.1099006941822784 2.0458039303115303 1 0 0
461 121 2 0 -0.15238268698792634 1.1634586029411569 2.436769743714927 1 0 0
677 193 2 0 -3.0993564129837043 4.307645347664807 3.2692553303096785 2 0 0
672 191 4 0 -3.2883023868321306 2.7783381543731007 1.9018928307881469 2 0 0
671 191 2 0 -2.9612710756593694 2.7306777008418557 2.2195194141077863 2 0 0
233 47 3 0 -3.6219732120719215 2.9542899967300986 1.751722240109058 2 0 0
673 191 4 0 -2.6369844108878127 2.682007986404092 2.5344453213928224 2 0 0
670 190 4 0 -2.5837777462843876 2.4304713075395563 2.8510684048499195 2 0 0
227 46 3 0 -1.9601605246679292 2.1336885903324516 2.1899866783843187 2 0 0
229 46 3 0 -2.2775475773434932 2.611005254137786 2.6534204166142166 2 0 0
226 46 1 0 -1.878972454575218 2.43687472511058 2.49832580246136 2 0 0
230 46 3 0 -1.6725885708822927 2.2499780084365693 2.826085052131659 2 0 0
228 46 3 0 -1.6116860342001562 2.7804172669356575 2.3292394615604817 2 0 0
423 108 4 0 -1.2243131728493917 2.8587659213247933 2.2680474956309924 1 0 0
424 108 4 0 -0.6423311597597032 3.1942527091215984 1.643301484828056 1 0 0
422 108 2 0 -0.929743093529066 3.0263415597842656 1.9551078253476586 1 0 0
240 48 3 0 -0.9218434219395681 4.4522790765545315 1.6997356556067684 2 0 0
239 48 3 0 -0.2235073016092759 4.284870236179855 1.9387610982938996 2 0 0
408 103 4 0 -4.405816122305976 1.9766994189375007 3.516788086116949 2 0 0
454 118 4 0 -3.932989353015016 0.8811412649863755 3.707991843519724 1 0 0
439 113 4 0 -3.5747530407408297 0.7748207381260244 3.5743325373491954 1 0 0
122 25 3 0 -3.6464992487876913 0.8323077348925256 3.9729502816881768 1 0 0
437 113 2 0 -3.3138232389132587 0.5902883601992768 3.199840280439525 1 0 0
121 25 1 0 -3.45555961650475 0.6723782391784718 4.342306563427338 1 0 0
125 25 3 0 -3.0028933093463452 0.5764359797674157 4.255012248678777 1 0 0
452 118 2 0 -4.0172892660723365 1.2983615248260936 3.662059215569564 1 0 0
626 176 2 0 -4.261113735958977 3.1078570889034163 0.3666836498466983 2 0 0
124 25 3 0 -3.6704915229600155 0.28159345987950424 4.470225021654055 1 0 0
92 19 3 0 -2.143932722153063 0.04138527613575782 3.124121692009571 1 0 -1
93 19 3 0 -2.191478103493241 0.8132745983479257 3.1728933811839672 1 0 -1
414 105 4 0 -2.1867420459160845 1.0833981529787913 3.491406435707118 1 0 0
413 105 2 0 -2.4204580028986196 0.9170593325432739 3.841654228486356 1 0 0
415 105 4 0 -2.6410049936070865 0.7461179478795623 4.191203075026844 1 0 0
678 193 4 0 -3.1768235658484727 4.053064389538862 3.6324692902425832 2 0 0
198 40 3 0 -0.7892151316290161 0.2816272624939007 3.888055000253021 1 0 -1
196 40 1 0 -0.43907390015203784 0.3462682905421106 4.184559341639161 1 0 -1
199 40 3 0 -0.11548108905996557 0.5834394136723668 3.984788388354885 1 0 -1
436 112 4 0 -1.1253295419893075 0.14650619058172953 3.706834442428417 1 0 0
453 118 4 0 -4.100811182101663 1.750006077079619 3.6158214378336764 1 0 0
248 50 3 0 -4.03457593347671 2.1488279459152357 3.591096010986468 2 0 0
246 50 1 0 -3.6961483746431725 2.3489589191807614 3.7741218372779484 2 0 0
247 50 3 0 -3.7039686456032657 2.2720196735882308 4.26876965067997 2 0 0
250 50 3 0 -3.2967919308949436 2.190667676432409 3.5873947407577633 2 0 0
249 50 3 0 -3.7297007027715208 2.80086316153945 3.6942845398029105 2 0 0
185 37 3 0 -3.169320204490846 2.959016483571445 4.208370295293434 2 0 -1
669 190 4 0 -2.910348363267957 2.2431701158986455 3.667811263502432 2 0 0
607 169 4 0 -3.5290098757494883 3.942813623159542 3.793356156365914 2 0 -1
668 190 2 0 -2.741920234157945 2.342119232445958 3.248418817698515 2 0 0
606 169 4 0 -3.5129949032727055 3.0438538060291256 3.9636352825379637 2 0 -1
181 37 1 0 -2.865599882929132 2.646617898569734 4.355591100390542 2 0 -1
182 37 3 0 -2.7141842098690683 2.401006240605245 4.00195322092712 2 0 -1
605 169 2 0 -3.51658631480945 3.4795717377636786 3.8823955112969655 2 0 -1
611 171 2 0 0.4542831924408359 -4.161559131868957 -2.9494892772601764 2 1 0
613 171 4 0 0.5853658785572726 -3.743468007090278 -3.061496519630734 2 1 0
294 65 4 0 2.771807728723175 -4.298655805823878 -2.9685294998582057 0 0 0
367 89 4 0 2.3852502240479243 -4.42478515909315 -2.953093486813103 1 1 0
293 65 2 0 3.2162650897044243 -4.204640279031517 -3.090064062138207 0 0 0
170 34 3 0 4.463433640002967 -2.63532779488653 -0.32826280798440344 0 0 0
295 65 4 0 3.6561833484562127 -4.115748554052076 -3.214320410068326 0 0 0
432 111 4 0 3.935161325339789 -4.28184698386628 -3.447596013310328 1 1 1
372 91 4 0 3.922890012574757 -3.8767406324824636 -3.38402558124247 1 1 0
371 91 2 0 4.2132036420599634 -3.4973156946423805 -3.4160345213110594 1 1 0
20 4 3 0 1.1002385144516689 -2.0782931810417393 -4.299659550127155 0 0 0
27 6 3 0 1.152980250481126 -2.7153762117536493 -4.345490399920835 0 0 0
316 72 4 0 1.1182621194582785 -2.419128061651016 -4.0723311628862495 0 0 0
314 72 2 0 1.0694924946997144 -2.5018996815204524 -3.613793789519865 0 0 0
16 4 1 0 0.7894462514797747 -1.766311638066281 -4.409522099232278 0 0 0
19 4 3 0 0.36950465319416104 -1.9524516805114227 -4.395174238491058 0 0 0
315 72 4 0 1.0259825105014544 -2.58350499148236 -3.162230796665209 0 0 0
140 28 3 0 0.17834782605448218 -3.058131886132589 -3.422071928099695 1 0 0
255 52 4 0 1.1264073742765977 -2.9111159593677365 -2.9614168969071706 0 0 0
73 15 3 0 3.976030461804931 -2.2654514592053836 -3.30581728032102 0 0 1
72 15 3 0 3.817105351289965 -2.665613343224332 -3.8835138123474304 0 0 1
71 15 1 0 4.14122365685082 -2.431636839936645 -3.671919557229529 0 0 1