LAMMPS data file via write_data, version 4 Feb 2025, timestep = 8500000, units = lj

3100 atoms
4 atom types
2100 bonds
1 bond types
1250 angles
2 angle types

-10.410592 10.410592 xlo xhi
-10.410592 10.410592 ylo yhi
-10.410592 10.410592 zlo zhi

Masses

1 1
2 1
3 0.1
4 0.1

Bond Coeffs # harmonic/omp

1 100 0.45

Angle Coeffs # harmonic/omp

1 100 180
2 100 109.471

Atoms # full

1736 546 2 0 -4.407089866798212 -9.26070532115631 -10.32048043664856 0 0 0
1737 546 4 0 -4.502860457478808 -9.700766720790565 -10.342718400176167 0 0 0
503 135 2 0 -7.981782747174639 -7.804678279545982 -10.207565111125692 0 0 0
505 135 4 0 -7.80181157418727 -8.189252381458699 -10.40196891144951 0 0 0
50 10 3 0 -4.7094227993516125 -7.930773239515675 -9.982755445792941 0 1 0
1399 433 4 0 -4.937329777008072 -7.602454846386185 -9.895443662000611 0 0 1
1738 546 4 0 -4.307284003766133 -8.825533287510355 -10.291517772399542 0 0 0
47 10 3 0 -4.304800336848736 -8.58381185661594 -9.965292979627595 0 1 0
48 10 3 0 -3.968787523124718 -7.912636631963939 -10.125385466909476 0 1 0
46 10 1 0 -4.3613812685370394 -8.157903080334767 -10.176958046934534 0 1 0
1150 350 4 0 -2.5352385061166878 -10.310170239641884 -8.02371040097679 0 1 0
1691 531 2 0 -9.92021903233834 -7.292183266613144 -9.912528515961267 1 1 1
1692 531 4 0 -9.608704985060465 -6.983092420722499 -10.040997352402117 1 1 1
694 198 4 0 -9.25552620808698 -6.969851009265403 -9.852554588507672 1 1 1
504 135 4 0 -8.155069934038087 -7.431423126000109 -10.028119732132577 0 0 0
692 198 2 0 -8.850376448596776 -7.12208399816406 -10.042411577409535 1 1 1
693 198 4 0 -8.47262935049258 -7.2591726100545495 -10.207758063505949 1 1 1
1397 433 2 0 -4.75691799057254 -7.2136568232096945 -9.709755805968202 0 0 1
1398 433 4 0 -4.573768450926457 -6.831105968474944 -9.531029862905557 0 0 1
1090 330 4 0 -4.423157459105516 -6.772319766511593 -9.154702246166437 0 0 0
620 174 2 0 -3.45648695256888 -7.469231133823812 -10.376457929988339 0 0 1
3037 979 4 0 -3.0292415911555164 -0.14989947985080546 -8.080814101945307 0 0 0
2738 880 2 0 -4.4668213047715755 -4.092773961326118 -9.508476431262233 0 0 1
2739 880 4 0 -4.635773363321997 -3.9942737302531084 -9.106676083979778 0 0 1
3060 987 4 0 -4.275418578150767 -4.0746352769425975 -10.309368743294893 1 1 1
2740 880 4 0 -4.289915217895372 -4.194922085226833 -9.91400646510663 0 0 1
473 125 2 0 -1.7952588371603229 -4.431196570202541 -10.310013882092102 0 0 0
474 125 4 0 -1.3958837972258638 -4.24849102139538 -10.32409628712585 0 0 0
1467 456 4 0 -1.2428196880996556 -3.9217105727134194 -10.070783055766128 0 0 0
1466 456 2 0 -0.8047938021315931 -4.022111748434932 -9.993999258782067 0 0 0
1468 456 4 0 -0.3673854625018168 -4.131215669838937 -9.923352755128018 0 0 0
704 202 2 0 -1.3539120090313128 -0.4309462564572496 -1.4442210011754553 -1 0 0
2913 938 4 0 -8.381647059776961 -2.593970391768473 -9.845344708711018 0 0 1
1437 446 4 0 -8.578480771981573 -2.5753205256973883 -9.503833825134825 0 0 1
2912 938 2 0 -8.505109578404655 -2.6480118098582586 -10.286791988302097 0 0 1
1436 446 2 0 -8.479175159933158 -2.3337720457363376 -9.17103218693765 0 0 1
418 106 4 0 -4.784282078274239 -2.2248541034268743 -9.20752034999332 1 0 0
416 106 2 0 -5.016259243077902 -2.583643522641731 -9.047272241628058 1 0 0
783 228 4 0 -3.8960501320751932 -1.6126537694336847 -9.559237451388837 0 0 1
784 228 4 0 -4.43611783037377 -2.305246103039004 -9.396920754717428 0 0 1
782 228 2 0 -4.169156991953513 -1.9621225210594067 -9.47997970971583 0 0 1
2428 776 4 0 -4.4725701791313455 -0.19411311364252945 -10.202428071616355 1 0 0
948 283 4 0 -3.8047768043899923 -1.5418940783656387 -9.156692505140725 0 0 1
947 283 2 0 -3.507534893879554 -1.2340656223498883 -9.008249292423805 0 0 1
2426 776 2 0 -4.100146372500197 -0.44679740012492125 -10.261733853610412 1 0 0
949 283 4 0 -3.235615805634554 -0.9372044569052963 -8.875095879611374 0 0 1
3033 978 4 0 -10.257667664941106 -9.075038018337459 -8.033822536776833 0 0 0
601 167 4 0 -6.653561715914831 -9.714954966044905 -8.331401748652146 0 0 0
123 25 3 0 -6.810785857080969 -9.541929191459605 -8.00116489931183 1 0 0
121 25 1 0 -6.798871409410739 -9.503362803283634 -7.568466574788265 1 0 0
599 167 2 0 -6.305198956556386 -9.886058164319792 -8.600313505330487 0 0 0
600 167 4 0 -5.97418945166425 -10.056367387603059 -8.84724512770484 0 0 0
122 25 3 0 -6.367982097294419 -9.514731950296584 -7.417084061530719 1 0 0
501 134 4 0 -6.138280078749731 -9.814456953128653 -7.3530524406152376 0 0 0
2779 893 4 0 -10.3982405334117 -8.668471857613698 -0.7220492808624388 0 1 0
1070 324 2 0 -5.249225023263601 -10.201553831260188 -8.80463366860012 1 0 0
1071 324 4 0 -5.569695024089328 -9.968705168376855 -8.98784641072199 1 0 0
51 11 1 0 -1.8411439705609702 -10.380452297461211 -8.015796750412985 0 1 0
54 11 3 0 -1.882357158893783 -9.942467640196533 -8.010100363587698 0 1 0
1389 430 4 0 -2.2188359761784664 -9.777576164774729 -7.902454028517984 0 1 0
1388 430 2 0 -2.3037534936532107 -9.440075192349138 -7.577689496585844 0 1 0
579 160 4 0 -10.389336122607858 -5.219164280924417 -8.391863415742392 0 0 0
631 177 4 0 -0.16990983936549267 -9.47104225522193 -7.6330408304840915 0 -1 1
643 181 4 0 -1.2021908988424226 -10.254945293177817 -7.636836027119591 -1 0 1
641 181 2 0 -0.8375589852323156 -9.953597735810952 -7.616893395544466 -1 0 1
642 181 4 0 -0.5027853886375943 -9.687982300250832 -7.614405925380998 -1 0 1
629 177 2 0 -0.11655359902454546 -9.212013860700978 -7.982970989905455 0 -1 1
3032 978 2 0 -10.325912051887679 -8.84944210773971 -8.389462795333198 0 0 0
3034 978 4 0 -10.397516918319596 -8.597677701922235 -8.775883857374835 0 0 0
219 44 3 0 -2.4873588243317872 -1.147062814932556 -0.3384324528425328 1 0 0
837 246 4 0 -7.254425257287084 -7.720655969727454 -7.904774380462129 1 0 0
1465 455 4 0 -7.220823914517515 -8.10482806636963 -7.828366634982949 0 0 1
1463 455 2 0 -7.068162699105276 -8.442972932493978 -7.55759630204694 0 0 1
2810 904 2 0 -9.260911562404601 -6.273144311079589 -8.733547339089956 0 0 0
2812 904 4 0 -8.934169626411654 -6.478815723836372 -8.527195594351758 0 0 0
591 164 4 0 -8.595328265533851 -6.426513271878718 -8.352449832020042 0 0 0
592 164 4 0 -7.689457854090664 -6.585219209298345 -8.308975603265772 0 0 0
838 246 4 0 -7.648425530938843 -6.963625720144479 -8.217130454191205 1 0 0
590 164 2 0 -8.160751635827465 -6.505266066476313 -8.337230524522049 0 0 0
836 246 2 0 -7.449839623312466 -7.349517642486674 -8.057618450254319 1 0 0
1088 330 2 0 -4.46445580634736 -6.5162219814188225 -8.775284464546678 0 0 0
1089 330 4 0 -4.510915458443458 -6.260200947012673 -8.401238347165549 0 0 0
901 267 4 0 -4.589984910321845 -6.2264739444973385 -7.970877163466893 0 0 1
899 267 2 0 -4.85941164069096 -6.413956800652956 -7.655997895837 0 0 1
578 160 2 0 -10.104314881307982 -5.489761167792842 -8.639007998503198 0 0 0
580 160 4 0 -9.838196902376083 -5.763542588076871 -8.887445394446782 0 0 0
2811 904 4 0 -9.606969197879796 -6.063884623414897 -8.945107242796986 0 0 0
1637 513 2 0 -6.234827332081861 -4.0150353615233545 -7.837613639952848 0 0 1
1638 513 4 0 -5.9187607165376965 -3.843730652262443 -8.121547979986664 0 0 1
1639 513 4 0 -6.553300711228989 -4.184923517808301 -7.565869820184402 0 0 1
1038 313 4 0 -5.550026395887181 -3.803436100819457 -8.33259445810887 0 0 0
1037 313 2 0 -5.54156189307488 -3.3714293419266705 -8.457073753820469 0 0 0
2793 898 4 0 -4.773299559955493 -4.120014951518455 -7.907885773993797 1 1 1
2792 898 2 0 -4.604676207038011 -4.121237926991003 -8.357241389343177 1 1 1
2794 898 4 0 -4.429961276770584 -4.127657333712146 -8.788540302984673 1 1 1
1039 313 4 0 -5.525360518054542 -2.9504645009265094 -8.58287947078024 0 0 0
1438 446 4 0 -8.381618157848624 -2.088069422329797 -8.831021708354019 0 0 1
2366 756 2 0 -7.89982896062317 -2.272285077121216 -8.17534388615314 0 -1 0
2368 756 4 0 -8.200252330257351 -2.2727719034212233 -8.523052743678857 0 -1 0
2367 756 4 0 -7.5856084835993025 -2.2748714058821062 -7.81267254021803 0 -1 0
1523 475 2 0 -6.877251850247225 -2.0144465803561618 -7.853824771411077 0 0 1
1525 475 4 0 -7.200846149452175 -2.3384500510225337 -7.793284787590497 0 0 1
1524 475 4 0 -6.548542683503543 -1.6841520429820749 -7.912100563356781 0 0 1
417 106 4 0 -5.23384519333097 -2.9268865913301325 -8.896732148525773 1 0 0
826 242 4 0 -6.3235776576625 -1.358651880723492 -7.9362281797421454 1 0 1
824 242 2 0 -6.300280152037281 -0.9679314171427389 -8.180626026793142 1 0 1
1974 625 4 0 -5.931376811802459 -0.38825310861859186 -8.362310613058293 0 0 0
825 242 4 0 -6.274683776126491 -0.5861461960924618 -8.41034890653557 1 0 1
1973 625 2 0 -5.62585379603413 -0.20246617935607217 -8.693815353696321 0 0 0
3036 979 4 0 -2.999207647021791 -0.6168086768118741 -8.824744189453595 0 0 0
3035 979 2 0 -3.018984174857843 -0.38353217828501335 -8.446189113586199 0 0 0
1749 550 4 0 -10.160613692770953 -9.895294640068194 -6.829097975742469 1 0 0
1748 550 2 0 -9.912620377069931 -10.24330350067407 -6.705087640113866 1 0 0
124 25 3 0 -7.042462363449424 -9.842909163358225 -7.381746731526365 1 0 0
125 25 3 0 -6.980151369409433 -9.112077108884495 -7.4605033186342 1 0 0
500 134 2 0 -5.998342199482774 -10.088518377322083 -7.0524705314615845 0 0 0
502 134 4 0 -5.850656779665132 -10.380226797984903 -6.745942502150417 0 0 0
1390 430 4 0 -2.4033029923341034 -9.117027935129821 -7.263383298509046 0 1 0
2527 809 4 0 -9.682504106597522 -7.975440296354667 -6.066301592247023 1 1 1
427 109 4 0 -9.288768247372323 -7.876624196633243 -6.151739268533354 0 0 0
425 109 2 0 -8.847360403552072 -7.864210794669762 -6.192310580888036 0 0 0
984 295 4 0 -8.23253805496177 -8.12588196993701 -6.473818113739897 0 0 0
426 109 4 0 -8.41211427000001 -7.851068430479646 -6.226301489953349 0 0 0
983 295 2 0 -7.797057940200007 -8.24372714880804 -6.5030680311143 0 0 0
1464 455 4 0 -6.925952237601787 -8.769771242911464 -7.291721065011351 0 0 1
985 295 4 0 -7.361270504766748 -8.336264262574488 -6.5285390239092695 0 0 0
120 24 3 0 -7.091999919105603 -8.291075043838084 -6.2266764143851026 1 0 0
119 24 3 0 -6.697041201527219 -7.654642969811212 -6.1691786454668 1 0 0
117 24 3 0 -6.373989816647818 -8.318887334593411 -6.1002236958882206 1 0 0
1013 305 2 0 -4.231226473222655 -7.627964177317887 -6.079274142714052 0 0 0
1015 305 4 0 -3.9661741579321945 -7.969367160372944 -6.02657651535069 0 0 0
16 4 1 0 -3.451333904659656 -8.511518026938623 -5.983681040896632 0 0 1
19 4 3 0 -3.83346600532963 -8.324681454298542 -6.108239220155006 0 0 1
20 4 3 0 -3.1375620583297645 -8.472293274807663 -6.317977694571704 0 0 1
1690 530 4 0 -2.3240743072826886 -8.869079476339333 -6.9583565849413525 0 0 1
1688 530 2 0 -2.6223056051517126 -8.57876608543128 -6.783561608535299 0 0 1
1689 530 4 0 -2.9228326844592742 -8.295255571008612 -6.5952114326688385 0 0 1
351 84 4 0 -6.963040737858145 -6.146932615387652 -6.466610364388229 0 0 0
301 67 4 0 -6.820405443910748 -6.379795503311289 -6.173073022042756 0 0 0
299 67 2 0 -6.82143695538662 -6.814914169163835 -6.1403202574397895 0 0 0
300 67 4 0 -6.835288144676166 -7.287886182927906 -6.111541669881237 0 0 0
2905 935 4 0 -5.033125114968811 -6.908761227186552 -7.133732045543368 0 0 1
2903 935 2 0 -4.923784548861056 -6.972968823717824 -6.71702069420506 0 0 1
900 267 4 0 -5.1167780652579875 -6.59942713492544 -7.343093581116638 0 0 1
1014 305 4 0 -4.5043919994525 -7.281518825796916 -6.140958453053301 0 0 0
2904 935 4 0 -4.807258618201836 -7.040702581359345 -6.285664342364544 0 0 1
1932 611 4 0 -6.4245574009377036 -4.565034877231997 -7.437070953673728 0 0 0
350 84 2 0 -6.825001875841033 -5.737013219336166 -6.6071972443600835 0 0 0
1931 611 2 0 -6.410639596758394 -4.922668124523125 -7.20611527767708 0 0 0
352 84 4 0 -6.7082894777094735 -5.337001331877306 -6.726232274169172 0 0 0
1933 611 4 0 -6.390065801633987 -5.29067010316667 -6.96338754434295 0 0 0
1202 368 2 0 -2.2559039441353037 -0.5438065784545215 -0.7784907335975015 0 1 -1
2450 784 2 0 -9.878549394099124 -1.5675951128275227 -7.0855981014667675 1 0 0
2451 784 4 0 -10.26213802491639 -1.757672694861902 -6.985694499996937 1 0 0
2452 784 4 0 -9.473265294777939 -1.3563912931581281 -7.191598283438727 1 0 0
291 64 4 0 -0.08724119434791736 -8.734667305643235 -8.69858816887536 0 -1 0
1675 525 4 0 -9.181459493109326 -1.1372157068286195 -6.996738151654117 0 0 1
1673 525 2 0 -8.949414298324873 -1.1355817337852434 -6.62299844712421 0 0 1
1674 525 4 0 -8.700418398174282 -1.122161938900437 -6.232849741782248 0 0 1
772 224 4 0 -5.272983249361772 -10.126354411148677 -5.683359672351389 0 0 0
770 224 2 0 -5.414743499911318 -9.69371625333907 -5.584468332104182 0 0 0
771 224 4 0 -5.547531904407871 -9.304075154010208 -5.490324504796701 0 0 0
1923 608 4 0 -5.670182650186483 -8.928407496484576 -5.37382142586923 1 0 0
18 4 3 0 -3.526455234968102 -8.957760715803698 -5.886877410200318 0 0 1
1757 553 2 0 -1.7969186235283863 -10.149254775011194 -4.761494963439122 0 0 0
1821 574 4 0 -2.372985251573465 -10.178185934092914 -5.404659007430726 0 0 0
1758 553 4 0 -2.1452856874178647 -10.145407226504096 -5.103634630395149 0 0 0
2525 809 2 0 -9.991223235315646 -8.040066038925614 -5.760272327935588 1 1 1
2526 809 4 0 -10.310942522720953 -8.110946164474436 -5.4494731415516195 1 1 1
396 99 4 0 -7.347117976232172 -7.299535975135745 -4.709556647786915 -1 0 0
395 99 2 0 -7.2020544994829265 -7.622372242670622 -5.006750023546494 -1 0 0
116 24 1 0 -6.753030010384305 -8.09606836754438 -6.014766915605169 1 0 0
118 24 3 0 -6.827460103429955 -8.098126589616255 -5.585500742626904 1 0 0
397 99 4 0 -7.051171240685282 -7.928475236710392 -5.298768408632051 -1 0 0
1924 608 4 0 -6.352808163571002 -8.559323731728506 -5.754618805996584 1 0 0
1922 608 2 0 -6.013868043988293 -8.739047747344381 -5.567050256289053 1 0 0
17 4 3 0 -3.2820867255143535 -8.293597328952023 -5.593074739737078 0 0 1
1908 603 4 0 -1.9510560900753833 -7.66364385062802 -5.249961065405715 0 0 0
1907 603 2 0 -1.8033438333885294 -7.3170970765452 -5.509515164977792 0 0 0
1909 603 4 0 -1.6592172712597035 -6.982542045691704 -5.77110703023423 0 0 0
2313 738 4 0 -0.4260011673034803 -6.63861081736163 -5.641638096467344 0 0 0
2314 738 4 0 -1.3303639702659458 -6.808023254056677 -5.61802028333127 0 0 0
2312 738 2 0 -0.8880716637246063 -6.72629074695377 -5.631308479268721 0 0 0
436 112 4 0 -0.19255043985444328 -6.399229041608314 -5.433137342224015 -1 0 0
758 220 2 0 -3.353405295173245 -3.7720242453904405 -4.578999104486525 0 0 1
759 220 4 0 -3.4483765891099187 -3.4193246135119675 -4.823364926403093 0 0 1
760 220 4 0 -3.258770735279625 -4.1255929438474785 -4.331958861597744 0 0 1
457 119 4 0 -9.858841466171935 -2.4225686873601453 -4.882013420483353 0 0 0
294 65 4 0 -6.562270476343438 -2.5644390168899323 -4.358852958949385 0 0 0
365 89 2 0 -0.684220067342228 -2.197651748574955 -4.9604792462343825 0 0 0
366 89 4 0 -1.0117565667702608 -2.304993116568976 -4.624501973313555 0 0 0
367 89 4 0 -0.3787249775907822 -2.0965864461395713 -5.2764574486129225 0 0 0
1731 544 4 0 -1.2251297652104665 -2.5473466692600737 -4.366479216313448 0 0 0
630 177 4 0 -0.05511030638084719 -8.946093786514151 -8.357791924301079 0 -1 1
303 68 4 0 -10.100413010950811 -0.005753400904101464 -5.215793727717917 0 -1 0
273 58 4 0 -8.404366710781733 -1.032410973655847 -5.997513388396903 0 0 0
272 58 2 0 -8.002832437934806 -0.910605808806673 -5.839102258275238 0 0 0
274 58 4 0 -7.593359786120555 -0.7845730018928682 -5.675987976086364 0 0 0
2419 773 4 0 -7.349992376188338 -0.5464015833455842 -5.444287701782176 1 0 0
2417 773 2 0 -7.048442303892974 -0.3357746988828992 -5.151346991677078 1 0 0
2418 773 4 0 -6.756539651458524 -0.11316679827885812 -4.8538020176052585 1 0 0
78 16 3 0 -6.4897380778208404 -0.32651878692903474 -4.613010397571195 0 0 1
2247 716 4 0 -3.207210899688544 -0.1509207487748233 -4.633779185700483 0 0 0
2246 716 2 0 -3.5464358484691565 -0.04814986993672204 -4.888504588407087 0 0 0
1140 347 4 0 -0.6095072344548683 -0.6943822112049801 -5.136621272971642 0 0 0
1139 347 2 0 -0.6686237280480429 -0.7207696332092385 -4.679593366139331 0 0 0
1693 531 4 0 -10.25356988217705 -7.615536511924202 -9.781745644579177 1 1 1
386 96 2 0 -4.939474907177256 -10.244168436450751 -3.1378097900285638 0 0 0
388 96 4 0 -4.496166380801276 -10.034344938010129 -3.075067076127013 0 0 0
1759 553 4 0 -1.466509889470614 -10.16557386894746 -4.432965513571558 0 0 0
2302 734 4 0 -0.9456642314140339 -9.16563039077437 -3.4331397065966036 0 0 0
2390 764 2 0 -1.1493243869120682 -9.758560340298885 -3.933908459136412 0 0 0
2391 764 4 0 -1.115985469044287 -10.028874091719029 -4.290054990169731 0 0 0
2392 764 4 0 -1.1888394995343128 -9.463655026618556 -3.558201789644307 0 0 0
1203 368 4 0 -2.095892663259049 -0.2891271882440238 -1.1493136531669705 0 1 -1
1284 395 4 0 -8.500584539343684 -7.50129950427411 -3.4444196901271935 0 0 0
1283 395 2 0 -8.9102338517013 -7.637308975080903 -3.2347980552212894 0 0 0
464 122 2 0 -1.6378332326813925 -7.636226891766709 -3.377525559634499 0 0 0
2300 734 2 0 -1.1069674569772867 -8.754035945365382 -3.3223930795657437 0 0 0
2301 734 4 0 -1.26027217982943 -8.358645895580874 -3.2186660565530443 0 0 0
465 122 4 0 -1.3479847179495035 -7.977921551951768 -3.3261567568893975 0 0 0
561 154 4 0 -0.1290450601901557 -7.880569246182889 -3.3595586285799524 0 0 0
1992 631 4 0 -10.317706244515362 -6.992053660918702 -4.0534639245480975 1 0 0
1746 549 4 0 -7.565744358706134 -7.389721264227111 -4.3846713523936245 0 0 0
1745 549 2 0 -7.9303156493314875 -7.368117857946704 -4.058318734719425 0 0 0
1747 549 4 0 -8.268852714960621 -7.34934528491731 -3.7445791864323095 0 0 0
466 122 4 0 -1.921325609254742 -7.285362893244286 -3.435239884747173 0 0 0
2065 655 4 0 -2.144411984599437 -7.031915488372275 -3.2221723679759116 0 0 1
2064 655 4 0 -2.6310962003562874 -6.308448866085607 -3.1524094332427266 0 0 1
2063 655 2 0 -2.377449150444993 -6.678197482408847 -3.18197729452524 0 0 1
2173 691 4 0 -3.7922909168995065 -4.3219291028610245 -2.969711696126405 1 0 1
2226 709 4 0 -2.4139432212198417 -6.054363142844898 -3.3492440830176053 0 0 1
2225 709 2 0 -2.419899734661061 -5.689257794366958 -3.633808873982533 0 0 1
2227 709 4 0 -2.424444090100158 -5.329757022821382 -3.9051157926582856 0 0 1
1066 322 4 0 -2.1530270314771123 -5.0462399345661595 -3.76683625453079 0 0 0
1064 322 2 0 -2.148670148826124 -4.5929769073476345 -3.85966713019879 0 0 0
1204 368 4 0 -2.401301634711259 -0.7743565606391856 -0.42290613219946327 0 1 -1
1805 569 2 0 -10.185578815117289 -3.825462211474025 -3.5517490662734286 1 0 -1
1807 569 4 0 -9.80773417724903 -3.717706407077366 -3.3518726485263652 1 0 -1
3088 996 4 0 -4.551257417799499 -3.0749024915164718 -2.8840807811233504 1 1 0
2761 887 4 0 -3.453292627548522 -4.383956796701572 -3.1681536650094855 1 0 1
2759 887 2 0 -3.3349149895920163 -4.387378568523678 -3.605694542601114 1 0 1
2760 887 4 0 -3.227855929528839 -4.3911216006328 -4.033648681665238 1 0 1
1065 322 4 0 -2.138942708261533 -4.166117654548593 -3.948879662558085 0 0 0
2259 720 4 0 -2.0751000020954082 -3.91313820188237 -3.6352704335009736 1 0 0
2258 720 2 0 -2.180950765213523 -3.536045943817967 -3.4258066265713016 1 0 0
2260 720 4 0 -2.286288577163525 -3.1482116971029646 -3.2066760577630533 1 0 0
455 119 2 0 -9.99097905609489 -2.370936877458795 -4.435826787636269 0 0 0
818 240 2 0 -10.179136370395675 -2.2248859451659677 -3.25287523696732 0 0 1
819 240 4 0 -9.942021991766973 -2.2457312764522346 -3.657108549615584 0 0 1
456 119 4 0 -10.110251688084686 -2.328657629171218 -4.015845181357548 0 0 0
1944 615 4 0 -6.280167247636168 -2.9657454605179088 -3.2472581892584573 1 0 0
295 65 4 0 -6.23216881782346 -2.719199664828843 -3.5436952815537848 0 0 0
293 65 2 0 -6.403493488375699 -2.6347839635590344 -3.9594479102236013 0 0 0
2708 870 2 0 -4.576739732650285 -2.4079741129300394 -3.2388644495951153 1 1 0
2709 870 4 0 -4.762135877553225 -2.0005115130813573 -3.3289605328929577 1 1 0
976 292 4 0 -5.111870789556191 -1.9834693712601883 -3.1352763744944148 0 -1 0
2710 870 4 0 -4.399117861931051 -2.816252826698926 -3.164724661582512 1 1 0
23 5 3 0 -1.7611888949016978 -2.1866480636253884 -3.290152168712008 0 0 0
21 5 1 0 -1.9079111135817142 -2.4320826386143732 -2.958346618276603 0 0 0
1732 544 4 0 -1.4968652256820096 -2.2755187618588293 -3.5773908604073466 0 0 0
1730 544 2 0 -1.362467452949813 -2.4114485705127398 -3.9760491991941476 0 0 0
77 16 3 0 -6.138637105746097 -0.0669078617725763 -4.010598521119974 0 0 1
79 16 3 0 -6.822978769780516 -0.31471701125417706 -3.9367861403459385 0 0 1
526 142 4 0 -6.988839220455331 -0.5882072951130262 -3.7277750817917727 0 -1 0
524 142 2 0 -6.9507636749551525 -0.748660157676504 -3.319252042937197 0 -1 0
76 16 1 0 -6.531004216684549 -0.097497836862903 -4.207889258452971 0 0 1
1753 551 4 0 -3.13731903969188 -0.30883035605459647 -4.275755269662855 0 0 0
1751 551 2 0 -3.0950331391346713 -0.33606357500499023 -3.8455789879188447 0 0 0
1729 543 4 0 -3.2493879223432014 -0.32475327573190466 -3.044113780802577 0 -1 0
1752 551 4 0 -3.0465197838487104 -0.36618254031411207 -3.3844204031256733 0 0 0
2671 857 4 0 -1.4465485370565772 -0.1602371393992031 -3.401373373927585 0 0 0
1141 347 4 0 -0.7378544376277106 -0.7496302602317361 -4.211922437658812 0 0 0
2670 857 4 0 -1.1355658618058584 -0.7080928765022898 -4.0601985922578505 0 0 0
2669 857 2 0 -1.2953893048227343 -0.4312868209014778 -3.7216258233617965 0 0 0
705 202 4 0 -1.7147358197664915 -0.41539378131143656 -1.1534959641603908 -1 0 0
603 168 4 0 -9.896028830491312 -9.708795785013946 -2.341715738842412 0 0 0
602 168 2 0 -10.212281361892936 -9.798068501929926 -2.62803271082149 0 0 0
423 108 4 0 -4.096463326428446 -9.996276015864549 -3.008992294479699 0 0 -1
422 108 2 0 -3.820713576010866 -10.007389909545061 -2.6438316864226135 0 0 -1
2553 818 4 0 -3.241710270402028 -9.758577020173462 -2.1267639459704792 1 0 -1
424 108 4 0 -3.544462734179166 -10.021415756228057 -2.2580105611580805 0 0 -1
2552 818 2 0 -2.8511166364302234 -9.769490975118268 -1.9558978470673332 1 0 -1
2554 818 4 0 -2.451284971661482 -9.777320277223163 -1.7804336700594061 1 0 -1
1209 370 4 0 -2.130761039255511 -9.634389584795228 -1.5860830334721399 0 1 0
997 299 4 0 -9.97436640863946 -7.871112537768794 -2.0785212288199553 0 1 0
550 150 4 0 -10.018123144073671 -8.035441372557283 -1.7100855878352927 0 1 0
995 299 2 0 -9.785140530892257 -7.75198437863241 -2.4725036162228182 0 1 0
996 299 4 0 -9.59738846266354 -7.6410823048735415 -2.8445631696423734 0 1 0
1285 395 4 0 -9.290710310397822 -7.775823923676241 -3.0406814954239927 0 0 0
1417 439 4 0 -0.19483187178570022 -8.01708073505006 -2.98236908518265 0 0 0
1415 439 2 0 -0.23839801813589026 -8.132028889211316 -2.5671244787353675 0 0 0
1416 439 4 0 -0.28498885834351445 -8.259097404556968 -2.1282193968473897 0 0 0
433 111 4 0 -0.621161013911019 -8.456374055905293 -2.023955852016659 -1 0 0
431 111 2 0 -0.7970888494671198 -8.424455847656116 -1.6080718471370898 -1 0 0
107 22 3 0 -5.466839428630895 -4.622443590487206 -1.5090699979213251 0 0 0
1947 616 4 0 -5.5608659864180074 -4.476092406422996 -1.8681952546442517 1 0 0
2057 653 2 0 -4.345176747617773 -4.957876202304998 -1.6414900820436154 0 0 0
2058 653 4 0 -4.213484780111248 -5.080604456980668 -2.036844456379196 0 0 0
2172 691 4 0 -3.92990116927378 -4.90738092892781 -2.2804770130399734 1 0 1
2171 691 2 0 -3.8584021880993022 -4.6012531829946335 -2.640703563043443 1 0 1
1621 507 4 0 -2.2426562533027985 -4.469887372051137 -1.6450902127581513 0 0 0
3051 984 4 0 -9.68260811275348 -3.8128141440562637 -2.9905822501223507 0 0 0
3050 984 2 0 -9.2992583858652 -3.6787301262467893 -2.8325386419078664 0 0 0
3052 984 4 0 -8.91206660128933 -3.5601438386145805 -2.669182941736876 0 0 0
1551 484 4 0 -8.65619604975317 -3.8446353069347317 -2.5373637897720185 0 0 0
1550 484 2 0 -8.305170551759309 -3.8218938246745524 -2.269247978827745 0 0 0
1552 484 4 0 -7.947351223952554 -3.79386840779117 -1.9993001429031287 0 0 0
2338 746 4 0 -7.549058751575567 -3.7692658737094185 -1.9442500884570548 0 0 0
1943 615 2 0 -6.441224521937057 -3.0690433332405482 -2.8697084502936945 1 0 0
2337 746 4 0 -6.828311985838738 -3.285297946640717 -2.1504601805402235 0 0 0
1945 615 4 0 -6.611164862355383 -3.1889692000911083 -2.442657076623704 1 0 0
2336 746 2 0 -7.174622149741861 -3.5137259412284245 -2.052915483330713 0 0 0
3086 996 2 0 -4.8574651860642 -3.355577581344199 -2.707122193621902 1 1 0
1948 616 4 0 -5.088774502039653 -4.025417638811127 -2.477920088006584 1 0 0
3087 996 4 0 -5.162914898061721 -3.629496648931868 -2.534274642589278 1 1 0
1946 616 2 0 -5.321628306845431 -4.251883001255004 -2.1643241517860923 1 0 0
883 261 4 0 -1.9458525980738537 -4.196232179516952 -1.6169632485209442 -1 0 1
881 261 2 0 -1.7819445998795094 -3.9525109082370293 -1.9460104416866424 -1 0 1
882 261 4 0 -1.607134474489134 -3.710518359455452 -2.2756000033140014 -1 0 1
844 248 4 0 -1.2366488417095691 -3.62109083381076 -2.2665312527826 -1 0 1
842 248 2 0 -0.8247961968048289 -3.4654920490843106 -2.2512457942239608 -1 0 1
843 248 4 0 -0.44413316910400963 -3.3261069459137023 -2.2340338823159294 -1 0 1
820 240 4 0 -10.404819991429422 -2.202690418185899 -2.853642977892664 0 0 1
1264 388 4 0 -6.157863740535972 -1.69763839963625 -2.464970475171418 0 0 0
974 292 2 0 -5.5061372831170745 -1.8806832944179324 -2.949544663291527 0 -1 0
975 292 4 0 -5.904166670012348 -1.78454052949495 -2.7690889944776464 0 -1 0
2040 647 4 0 -4.494284783649309 -1.929447540883371 -1.7164205114677484 0 0 0
22 5 3 0 -2.0855064353256414 -2.818100017061823 -3.118479419954632 0 0 0
24 5 3 0 -2.2289485267773914 -2.2048089813156757 -2.7298062769635223 0 0 0
1404 435 4 0 -2.2113229563360246 -1.8114616742789647 -2.719606565844142 0 0 0
25 5 3 0 -1.5628621073477598 -2.5286112780944117 -2.68418492421815 0 0 0
1197 366 4 0 -1.4696851744917638 -2.399578706943282 -2.336023501420426 0 0 0
1196 366 2 0 -1.5660441775036906 -2.415817407151346 -1.916631425366605 0 0 0
1198 366 4 0 -1.6808476972281798 -2.433203317615268 -1.466386631615933 0 0 0
723 208 4 0 -0.16665134396035558 -3.039236939865019 -2.3311022223488895 0 0 0
525 142 4 0 -6.904420975220074 -0.8922953189174154 -2.9375650164774423 0 -1 0
1263 388 4 0 -6.682699594210823 -1.0288971800005555 -2.630291506598771 0 0 0
1262 388 2 0 -6.415933449554019 -1.3635577606230425 -2.547719646952199 0 0 0
2039 647 2 0 -4.332319562376885 -1.5094113005787826 -1.7490872252821714 0 0 0
2041 647 4 0 -4.177734852711624 -1.0979730994479313 -1.7709422528006744 0 0 0
1403 435 2 0 -2.4033125092469585 -1.4576876451202463 -2.5383156390707495 0 0 0
1727 543 2 0 -2.9446280771706164 -0.5190315719168115 -2.7843074865183217 0 -1 0
1728 543 4 0 -2.6301339909231536 -0.7126399251174548 -2.5255751326881097 0 -1 0
1405 435 4 0 -2.61938145116112 -1.0578428044179597 -2.34169423135472 0 0 0
706 202 4 0 -1.0073759687379034 -0.45176527511099046 -1.7248571858484392 -1 0 0
1422 441 4 0 -0.8988122467024722 -0.113962416444152 -1.8912327788277739 0 0 1
1116 339 4 0 -9.936848981588478 -0.413270091083039 -0.3609292136420174 0 0 -1
1400 434 2 0 -10.00626428988595 -10.159255972795757 -1.2623764233379846 0 2 0
1402 434 4 0 -9.840517462717758 -9.829175169258308 -1.4930715405641148 0 2 0
1207 369 4 0 -9.446989928646374 -9.723254376475706 -1.4418959164369172 1 1 0
1205 369 2 0 -9.054035001881514 -9.587922164653511 -1.2865335955084065 1 1 0
481 127 4 0 -8.39902037942974 -9.38895370931974 -0.812852127006327 0 0 0
479 127 2 0 -7.933506585204978 -9.420196258312183 -0.7844354937910243 0 0 0
1206 369 4 0 -8.640362829217233 -9.446569699484005 -1.1209195997917236 1 1 0
480 127 4 0 -7.477100961372497 -9.455104144112074 -0.7594408539631123 0 0 0
2706 869 4 0 -7.156288215128799 -9.694556679537069 -0.698980719185235 1 0 0
2707 869 4 0 -6.440796278241937 -9.199510187626403 -0.5889542691597068 1 0 0
2705 869 2 0 -6.812336996742887 -9.451722938522325 -0.6447992376614222 1 0 0
1989 630 4 0 -6.0431495226313645 -9.252100354205261 -0.6410853609016586 0 0 0
1447 449 4 0 -2.518837823544769 -9.194474364066366 -0.20821752887504066 0 0 0
1445 449 2 0 -2.778919061289539 -9.30250114697945 -0.5480857249346497 0 0 0
1446 449 4 0 -3.061140166523396 -9.41442867874349 -0.9090101376477614 0 0 0
1208 370 2 0 -1.8553432958517106 -9.354532988896606 -1.3978435907443036 0 1 0
1210 370 4 0 -1.5705315110276363 -9.07061085791567 -1.2097640893460244 0 1 0
2161 687 4 0 -1.2505552062986818 -9.068699678886032 -0.9379575421084134 1 0 0
2159 687 2 0 -1.0670799141172886 -9.262199375507196 -0.5642570579528764 1 0 0
2160 687 4 0 -0.8849176205656153 -9.4694126777048 -0.18989869833389214 1 0 0
549 150 4 0 -10.157722841339524 -8.608731793573547 -1.031204299523025 0 1 0
548 150 2 0 -10.093061577581892 -8.32311594283605 -1.3701175362908666 0 1 0
1988 630 2 0 -5.907594597224309 -8.830596285134847 -0.7893390209164177 0 0 0
1990 630 4 0 -5.772725402148809 -8.418123043839532 -0.9298671749999396 0 0 0
804 235 4 0 -5.5371067776588605 -8.238547910175766 -0.6637820375744944 0 0 0
805 235 4 0 -4.9375761911952125 -7.612650346536938 -0.7006899362880088 0 0 0
803 235 2 0 -5.219469031970821 -7.912420324187623 -0.6780655752759049 0 0 0
432 111 4 0 -0.9723782350407512 -8.397271695288405 -1.2035746570846384 -1 0 0
2275 725 4 0 -5.134161523160304 -7.220100072016812 -0.6632980803254973 0 0 0
2273 725 2 0 -4.9652787844866575 -6.885544472224693 -0.4102130146801053 0 0 0
2274 725 4 0 -4.793759952919342 -6.564278287590744 -0.1616869386841214 0 0 0
962 288 2 0 -5.882615646727001 -4.696506383055591 -0.13217557095027005 0 -1 0
2059 653 4 0 -4.488764010527933 -4.824038627737673 -1.2223954509814674 0 0 0
963 288 4 0 -5.796224694123311 -4.548704894050785 -0.5421051265257316 0 -1 0
110 22 3 0 -4.865748508565807 -4.74598199685359 -1.1156827837090026 0 0 0
109 22 3 0 -5.51327053952978 -4.6826986788222165 -0.7956840029987164 0 0 0
106 22 1 0 -5.254287318538436 -4.540344948586262 -1.1200623914428762 0 0 0
2224 708 4 0 -3.6579975737210235 -5.07921861877407 -0.41735943409419685 0 0 0
2222 708 2 0 -3.550051236276722 -4.9532794496516885 -0.865799594870988 0 0 0