LAMMPS data file via write_data, version 4 Feb 2025, timestep = 800000, units = lj

3100 atoms
4 atom types
2100 bonds
1 bond types
1250 angles
2 angle types

-10.410592 10.410592 xlo xhi
-10.410592 10.410592 ylo yhi
-10.410592 10.410592 zlo zhi
-7.105427357601002e-15 0 0 xy xz yz

Masses

1 1
2 1
3 0.1
4 0.1

Bond Coeffs # harmonic/omp

1 100 0.45

Angle Coeffs # harmonic/omp

1 100 180
2 100 109.471

Atoms # full

1072 324 4 0 -9.915150207627892 -9.393199534900875 -10.14522308491036 5 0 0
2188 696 4 0 -9.917264020960506 -9.188093925225726 -9.81672125627407 13 1 0
2186 696 2 0 -10.336988619026833 -9.08987490324157 -9.686444498801828 13 1 0
1388 430 2 0 -5.588834158468209 -9.01096783954144 -9.820438055600391 11 1 0
1390 430 4 0 -5.785233243110071 -9.427747717880147 -9.675164571597938 11 1 0
2503 801 4 0 -5.020259691073009 -8.68074536218798 -9.909476219810523 11 1 0
1389 430 4 0 -5.419706389107018 -8.621768722722702 -9.953175337413846 11 1 0
2501 801 2 0 -4.687168420114886 -8.407055552845218 -9.999190920179306 11 1 0
2502 801 4 0 -4.341974309955614 -8.1117182478767 -10.092420192274512 11 1 0
357 86 4 0 -3.997223863234608 -7.903740710170997 -10.06423659484062 3 0 0
2631 844 4 0 -8.062819483546193 -6.989755329608583 -10.314733702863132 12 1 0
356 86 2 0 -3.850157742269256 -7.562644299379073 -10.270274286470395 3 0 0
2630 844 2 0 -7.8245108988087955 -6.604853734435262 -10.248910951894961 12 1 0
2632 844 4 0 -7.592461825096285 -6.224485041094252 -10.189932994939616 12 1 0
556 152 4 0 -7.252745576351664 -6.105734839604853 -9.99534622357872 3 0 0
554 152 2 0 -7.020644561452833 -6.094249986480401 -9.598668246036715 3 0 0
2328 743 4 0 -0.06108148818447212 -6.728829303191684 -9.821994981325782 4 0 1
2327 743 2 0 -0.3877501251701947 -6.7704584388337965 -9.549745092597067 4 0 1
1560 487 4 0 -9.643156514037264 -4.638578894295907 -10.361429344612988 12 1 1
1559 487 2 0 -10.048182132960154 -4.7928651106024525 -10.313431802862409 12 1 1
1825 575 4 0 -9.27495391359809 -4.476536025619606 -10.285117991387793 5 0 0
1796 566 2 0 -5.253653083211977 -3.6673770713270377 -9.749501077964336 5 0 0
1797 566 4 0 -5.552590578935811 -3.866246572214221 -10.020470215523378 5 0 0
2435 779 2 0 -3.5527208664565 -4.107270022804567 -10.230760137680763 5 0 0
2436 779 4 0 -3.186487967638268 -3.9733708290098946 -10.01283423560548 5 0 0
1976 626 2 0 -1.0919300125279747 -3.5182828700884388 -10.315577127396946 5 0 0
223 45 3 0 -0.006663809554533273 -3.5090104391518 -9.780051630013151 5 0 0
2312 738 2 0 -4.179316725163168 -3.3525755222617555 -9.648303535600485 5 0 0
2313 738 4 0 -3.773110023323193 -3.1750009879519485 -9.765581838356779 5 0 0
436 112 4 0 -3.699044244284888 -2.754582188443057 -9.701049663350215 4 0 0
1978 626 4 0 -0.8505803383619988 -3.1845762726598386 -10.158998366162642 5 0 0
222 45 3 0 -0.6457989731360563 -3.125553678505675 -9.822018856916722 5 0 0
221 45 1 0 -0.2159151718876373 -3.1012103606886834 -9.6922621438083 5 0 0
224 45 3 0 -0.011372330324661561 -2.785114474720169 -9.940696188956764 5 0 0
3028 976 4 0 -2.6254344492885844 -2.2124618850959283 -9.743907323850012 5 0 0
434 112 2 0 -3.3234056800801683 -2.5450818839097487 -9.610456121013844 4 0 0
3026 976 2 0 -2.223632508047844 -2.0520855217471663 -9.926367995882606 5 0 0
3027 976 4 0 -1.837283678465523 -1.891281210822589 -10.093359415424466 5 0 0
1544 482 2 0 -1.1324906623466156 -1.8092444187666583 -9.725359596389666 12 1 0
1546 482 4 0 -0.7171957586754587 -1.8874060000741455 -9.625019432036225 12 1 0
1246 382 4 0 -5.372396203687494 -1.444740332748724 -10.337034343785831 6 0 1
1244 382 2 0 -5.066840169090251 -1.4063781956937778 -10.06946076693909 6 0 1
1245 382 4 0 -4.720571147480448 -1.3672910779010579 -9.77112671894184 6 0 1
2571 824 4 0 -4.604993379879584 -0.9739129492771816 -9.80883954011579 7 0 1
1545 482 4 0 -1.5732588017473272 -1.7275124477135773 -9.83152060766882 12 1 0
2570 824 2 0 -4.280799127223109 -0.7117971759677726 -9.659507862276204 7 0 1
463 121 4 0 -7.599347597296546 -9.663052273344343 -9.16162019901011 5 0 0
1397 433 2 0 -5.632897287318445 -9.81398848041519 -9.007542956179499 3 0 1
1399 433 4 0 -5.863288820092905 -9.593771912403739 -9.32473137754959 3 0 1
462 121 4 0 -7.773793409888192 -8.814823601781635 -9.030468803198202 5 0 0
461 121 2 0 -7.690409765498947 -9.243937385742568 -9.094629638846648 5 0 0
555 152 4 0 -6.793908860007111 -6.090401543807592 -9.220208919688243 3 0 0
1047 316 4 0 -4.599280667293928 -6.408387940104336 -8.927206453460144 11 1 0
1048 316 4 0 -3.7023582278574567 -6.517359510492629 -8.978157217124615 11 1 0
1046 316 2 0 -4.144505845139996 -6.452002874525247 -8.949410569827343 11 1 0
1992 631 4 0 -3.331884175418949 -6.532060974788601 -9.126738906860572 4 0 0
1991 631 2 0 -2.854851895136683 -6.5796167748074765 -9.069191736819143 4 0 0
1993 631 4 0 -2.4158486951226834 -6.625624196901855 -9.028400577772858 4 0 0
2374 758 4 0 -2.0203317448086544 -6.697678094331029 -8.975563356464802 12 1 0
2372 758 2 0 -1.574179063226163 -6.7625630640442544 -9.074205326762927 12 1 0
2373 758 4 0 -1.1378471181165928 -6.807431614152625 -9.166533555929957 12 1 0
2329 743 4 0 -0.7511623871522168 -6.824616151605657 -9.271597808904174 4 0 1
14 3 3 0 -6.635833591028032 -5.887171169720528 -8.923274596581692 3 0 0
2810 904 2 0 -10.091225386978907 -4.554816024940251 -8.709099464630208 4 0 0
2811 904 4 0 -9.630577169554845 -4.520848251116972 -8.774659028294879 4 0 0
1798 566 4 0 -4.974986619864614 -3.472782290458899 -9.48306029616407 5 0 0
2314 738 4 0 -4.585591761798953 -3.534230802006583 -9.531515574437233 5 0 0
598 166 4 0 -0.18204217371862974 -3.2544777020746576 -8.95766935518351 4 0 1
225 45 3 0 -0.18806700058125436 -3.0113507465266585 -9.28024752946144 5 0 0
435 112 4 0 -2.9437875001602416 -2.3373616016132317 -9.513414228729214 4 0 0
430 110 4 0 -0.48779777947810743 -1.7853178238512957 -9.301333581161463 -5 -1 0
428 110 2 0 -0.12197841812077037 -1.5504835441759646 -9.208179620753183 -5 -1 0
2572 824 4 0 -3.946363698128259 -0.4447066401912636 -9.511331873647269 7 0 1
1809 570 4 0 -3.878446087687151 -0.13173248485076527 -9.285406376977303 -2 -1 0
1808 570 2 0 -3.594811607117217 -0.2350952899014409 -8.934335469297677 -2 -1 0
1398 433 4 0 -5.388629426947267 -10.04552816342829 -8.674745152705464 3 0 1
2704 868 4 0 -5.079015701397956 -10.300484886093923 -8.65005992545226 14 1 0
2702 868 2 0 -4.636226072625926 -10.191576676714881 -8.536771820531776 14 1 0
2703 868 4 0 -4.212387955170697 -10.096799834350966 -8.439703825014462 14 1 0
1328 410 2 0 -3.5943005726079775 -9.831203567189553 -8.020318756796337 13 1 0
1330 410 4 0 -3.9835980619030353 -9.851615608678754 -8.235776397435528 13 1 0
2599 833 4 0 -7.8611747675764665 -7.027978320515427 -7.943865655818878 12 1 0
1090 330 4 0 -2.427123542203393 -7.018630816950788 -7.847191996550372 3 0 0
1088 330 2 0 -1.9958171233983588 -7.086223792876135 -7.898014187693128 3 0 0
901 267 4 0 -1.145442022861296 -7.3148553095226 -7.992916278889414 3 0 1
1089 330 4 0 -1.5227902374228588 -7.1770908820087564 -7.951701779898661 3 0 0
899 267 2 0 -0.6981716903790307 -7.197346122034085 -8.047765320959908 3 0 1
900 267 4 0 -0.2853857336787584 -7.079533712211369 -8.09966575860235 3 0 1
3033 978 4 0 -10.126065119219476 -6.841810737193036 -7.838864633418095 3 0 0
2016 639 4 0 -7.685288890157347 -6.9068929152858605 -8.298149235766143 12 1 0
2015 639 2 0 -7.251622054482921 -6.877383842798281 -8.35228348543657 12 1 0
2017 639 4 0 -6.820140039596687 -6.831484002327789 -8.41617709928476 12 1 0
13 3 3 0 -6.655289226912307 -6.479234203755109 -8.486392532085025 3 0 0
1355 419 2 0 -5.267942274722363 -6.180046695416256 -8.659058697273512 11 1 0
1356 419 4 0 -4.892965513715188 -6.371818035673642 -8.645780585992782 11 1 0
602 168 2 0 -7.293375534611915 -5.406278901471044 -7.9673843505082536 3 0 0
603 168 4 0 -7.72322489811744 -5.319682998597851 -7.880529404638865 3 0 0
11 3 1 0 -6.5028464937888 -6.053735390832621 -8.52202334171115 3 0 0
604 168 4 0 -6.885425161903433 -5.498189004537618 -8.046052886437083 3 0 0
12 3 3 0 -6.6690186189627445 -5.8072581002992045 -8.183654962661983 3 0 0
1357 419 4 0 -5.685792083843941 -5.964725395271869 -8.6686055424944 11 1 0
15 3 3 0 -6.040228600390147 -6.054288847105504 -8.499807515853101 3 0 0
580 160 4 0 -9.317668109467391 -4.729225468966595 -8.59734021200757 4 0 0
578 160 2 0 -8.987918306071649 -4.481346808353968 -8.498829806618796 4 0 0
579 160 4 0 -8.617303006422793 -4.206342076629147 -8.389270300659897 4 0 0
2098 666 4 0 -8.2785528623773 -4.013643758262815 -8.309207952811708 5 0 1
2096 666 2 0 -7.872560905255499 -3.846384328286084 -8.282438411471977 5 0 1
2097 666 4 0 -7.430595162432439 -3.680680592401151 -8.261619124240909 5 0 1
1722 541 4 0 -7.104001001328518 -3.888094597036047 -8.289325044304588 5 0 0
1721 541 2 0 -6.650689610795386 -3.81306342016446 -8.253758860318039 5 0 0
1723 541 4 0 -6.208166776146338 -3.7294679667187616 -8.203864590138007 5 0 0
534 145 4 0 -5.943640274273911 -3.5186514885376656 -8.395945210554611 -4 -1 0
533 145 2 0 -5.518796428792488 -3.4899697767394464 -8.28293109681025 -4 -1 0
535 145 4 0 -5.098986053982008 -3.4561907726001095 -8.173263009217973 -4 -1 0
2451 784 4 0 -4.712053699154046 -3.4396740093538023 -8.237337297169914 5 0 0
2450 784 2 0 -4.3653841086791765 -3.46409455655853 -7.936768683485691 5 0 0
2315 739 2 0 -3.325581556534517 -0.8654766363158171 -8.039979586192358 6 0 0
1810 570 4 0 -3.3009451998914328 -0.3445630485652522 -8.554593690043486 -2 -1 0
2317 739 4 0 -3.107431979350527 -0.6440529789629483 -8.357223472927192 6 0 0
477 126 4 0 -10.38591159295308 -9.832749211395202 -7.393812763271509 5 0 0
2736 879 4 0 -10.154896932833278 -10.04958227956925 -7.143334214965533 14 1 0
2735 879 2 0 -9.7356830530037 -10.086156258326772 -7.053090094218705 14 1 0
2737 879 4 0 -9.29870028946365 -10.124441125343118 -6.953700333016629 14 1 0
2088 663 4 0 -8.919408294032696 -10.124905822255087 -6.976992149428847 5 0 0
2087 663 2 0 -8.49808651024533 -10.210574362492679 -6.977073090736591 5 0 0
2089 663 4 0 -8.046353287540628 -10.317934779055973 -6.970254436731011 5 0 0
1329 410 4 0 -3.214569779367844 -9.81096168252478 -7.805545116743882 13 1 0
1971 624 4 0 -1.8543090902342865 -10.176010068403272 -7.6782898622108045 6 0 0
1112 338 2 0 -2.53166509500178 -9.709387890324525 -7.691059983652899 5 0 0
1113 338 4 0 -2.124956172310128 -9.885820811481771 -7.665627301813231 5 0 0
1970 624 2 0 -1.44623992616134 -10.323503962656718 -7.75291215467372 6 0 0
1114 338 4 0 -2.924616489935371 -9.523434548648012 -7.712371814937573 5 0 0
1629 510 4 0 -9.85232572456891 -8.64777741392428 -7.758646830145759 11 1 1
1534 478 4 0 -10.24482479420225 -8.575771110314236 -7.698869674085334 11 1 1
1628 510 2 0 -9.446394625948995 -8.431550231144223 -7.644779610903974 11 1 1
1630 510 4 0 -9.04866239433891 -8.218157926618245 -7.5317722542364365 11 1 1
3057 986 4 0 -8.838880925869532 -8.449668715839438 -7.269704999168558 12 1 1
3056 986 2 0 -8.562408230555453 -8.178992340695533 -7.020275100488728 12 1 1
1756 552 4 0 -9.048745660753571 -7.07780683556595 -7.7001855258902 4 0 0
2598 833 4 0 -8.68881373548089 -7.014213196784222 -7.609364392783209 12 1 0
2597 833 2 0 -8.279571654067443 -7.0154562876987265 -7.769344333909227 12 1 0
948 283 4 0 -3.487568976585239 -7.243514340417287 -7.160813480280786 3 0 1
783 228 4 0 -3.8525585944877285 -7.202909889188352 -6.978468162325887 3 0 1
947 283 2 0 -3.1270052561001282 -7.171485710589856 -7.42333439894859 3 0 1
949 283 4 0 -2.7785578892763674 -7.100785673129717 -7.686364440405704 3 0 1
1755 552 4 0 -9.82898427084538 -6.610335067080981 -7.650086622787654 4 0 0
1754 552 2 0 -9.420003079988657 -6.851137873140869 -7.676866313065985 4 0 0
2954 952 2 0 -9.545910468683667 -5.147399472854759 -7.088162042981564 12 1 1
2955 952 4 0 -9.257200432881897 -5.129122482416963 -7.437477277495026 12 1 1
1704 535 4 0 -8.877231620414435 -5.060103546935502 -7.4239727237152895 11 1 1
1703 535 2 0 -8.468986464615371 -5.113071597206088 -7.612756260533272 11 1 1
1705 535 4 0 -8.069027585839846 -5.165434228025975 -7.7834194634837806 11 1 1
2452 784 4 0 -4.011790549484527 -3.4910248938372774 -7.621709638504817 5 0 0
1675 525 4 0 -3.7538521597329 -3.789188077251106 -7.646041283559967 4 0 1
1673 525 2 0 -3.2912372515848265 -3.7951329712434756 -7.693318603757049 4 0 1
1674 525 4 0 -2.8264426917784338 -3.811533655745345 -7.741675861067101 4 0 1
1909 603 4 0 -2.5193406593646586 -4.013217976287669 -7.617862433689741 3 0 0
1907 603 2 0 -2.1843630501073292 -3.9525149045694654 -7.305383710371654 3 0 0
1908 603 4 0 -1.8683440224261805 -3.899553336827716 -7.0097228273038485 3 0 0
615 172 4 0 -3.7704270962439415 -2.0611002824201563 -6.968857678220372 6 0 0
614 172 2 0 -3.759050747688426 -1.7314749018098663 -7.2949179669751425 6 0 0
2316 739 4 0 -3.553772260272109 -1.0871891887922267 -7.7242245215522205 6 0 0
616 172 4 0 -3.733375575842344 -1.4322268264720162 -7.6013738714396535 6 0 0
1656 519 4 0 -7.703505849702282 -10.405795066882453 -6.787159642767639 13 1 0
870 257 4 0 -6.492172571365285 -10.397991816145726 -6.929844196122483 5 0 0
2842 914 4 0 -2.7387804430814375 -8.991873432400284 -6.389645783689032 3 0 0
3058 986 4 0 -8.271362997912682 -7.903389268068519 -6.760590298932769 12 1 1
1959 620 4 0 -7.117691770782282 -8.149467916427682 -6.1574812721963665 2 0 0
1022 308 2 0 -6.3782262592951975 -7.816677509283421 -6.31623775633754 2 0 0
1024 308 4 0 -6.749437686801094 -8.084824533674697 -6.281709621403453 2 0 0
2269 723 4 0 -10.178013150899671 -7.483108391434607 -6.161471840458165 4 0 1
528 143 4 0 -8.376332943548208 -7.518310200993348 -6.813155814983682 3 0 1
527 143 2 0 -8.384362174064059 -7.1374973595422375 -6.582014197203735 3 0 1
1023 308 4 0 -6.0038838927727305 -7.558571711045911 -6.353859497036098 2 0 0
417 106 4 0 -5.789539564835051 -7.43989444554664 -6.639796111004724 4 0 0
416 106 2 0 -5.376605984291031 -7.483961210177362 -6.770523201810427 4 0 0
784 228 4 0 -4.681290745740092 -7.326720879611958 -6.732144065727427 3 0 1
418 106 4 0 -4.9529034688993345 -7.532501403198283 -6.898847557569605 4 0 0
782 228 2 0 -4.270876839275008 -7.264448308227732 -6.856327771978299 3 0 1
529 143 4 0 -8.394763940502976 -6.745869182960167 -6.350936057890366 3 0 1
2654 852 2 0 -10.238008647842275 -5.642771800855674 -6.324391278168579 12 1 0
2655 852 4 0 -10.070919635152478 -5.243879897861639 -6.458821271216607 12 1 0
2656 852 4 0 -10.399065838830458 -6.055676699883558 -6.177759758610987 12 1 0
2956 952 4 0 -9.814707647125582 -5.166772774246172 -6.751008618431186 12 1 1
1683 528 4 0 -1.7689686463224223 -3.852263206426638 -6.623910911375309 11 1 0
1682 528 2 0 -1.7283494777915855 -4.192302916284364 -6.336701874388776 11 1 0
2024 642 2 0 -3.820505314853497 -2.3039293642752927 -6.245577128093285 6 0 1
2026 642 4 0 -3.952345095506888 -2.11161200740535 -6.621913975058395 6 0 1
2841 914 4 0 -2.3316190622050446 -8.930951531005178 -5.591208345574756 3 0 0
862 254 4 0 -2.5405785698119603 -8.858163738824684 -5.250648851990823 3 0 0
2840 914 2 0 -2.542870581901097 -8.96208627208247 -6.0054692185704175 3 0 0
2268 723 4 0 -9.56327584712856 -8.01896477496612 -5.757621863010682 4 0 1
1419 440 4 0 -9.2370826132201 -8.219496647229857 -5.847329989016022 10 1 0
1418 440 2 0 -8.787439133625018 -8.178678523919364 -5.895115913885741 10 1 0
1960 620 4 0 -7.9603038292000186 -8.059471420681124 -5.939605282384424 2 0 0
1420 440 4 0 -8.3481363697471 -8.143057547969764 -5.95838917408771 10 1 0
1958 620 2 0 -7.528939355176552 -8.108280928738045 -6.052982656311446 2 0 0
2534 812 2 0 -2.224583220557564 -8.160793488234573 -5.2961797319741954 11 1 0
2536 812 4 0 -2.1164682755937143 -8.407688867591036 -5.652735904948496 11 1 0
2393 765 2 0 -1.273996224878747 -8.451265227197405 -5.776842523062226 11 1 0
2394 765 4 0 -1.7337921361177315 -8.560057936610509 -5.8047367381576445 11 1 0
2159 687 2 0 -0.12303056802816137 -8.434386127517095 -5.711233469034938 4 0 0
2395 765 4 0 -0.8454842729459475 -8.349193213377333 -5.745089020819356 11 1 0
2161 687 4 0 -0.513501026860407 -8.581678909004193 -5.665861613513465 4 0 0
2267 723 2 0 -9.863564764389638 -7.75135111700437 -5.96168747122383 4 0 1
559 153 4 0 -10.214541880010488 -7.108819584568074 -6.070578291512871 4 0 0
2876 926 2 0 -0.7771975932095838 -7.221218479024332 -5.626853054057926 3 0 0
2877 926 4 0 -0.8213860047176631 -7.553021932547469 -5.335440947183405 3 0 0
2878 926 4 0 -0.7310612613478913 -6.888795853583918 -5.919502472932639 3 0 0
787 229 4 0 -0.3057731772868575 -6.2012775631158314 -6.0384455532928225 3 0 0
390 97 4 0 -1.6592736330627549 -4.642761716554093 -5.618550770409914 3 0 0
1684 528 4 0 -1.6963880068640709 -4.545431650490492 -6.034597473766654 11 1 0
2363 755 2 0 -3.8200323932801314 -3.0753128870997886 -5.317545885641525 6 0 1
2364 755 4 0 -3.535507690590517 -2.8119710361000516 -5.631990255783793 6 0 1
2025 642 4 0 -3.689889075316053 -2.515523657498157 -5.870293530885777 6 0 1
1470 457 4 0 -2.9082129361641753 -9.890473155255767 -4.714150701805206 10 1 0
861 254 4 0 -2.9622835639912717 -9.488649801763769 -4.729436934166783 3 0 0
860 254 2 0 -2.762108409209442 -9.193075058355092 -4.975737584044776 3 0 0
2535 812 4 0 -2.3409720814415405 -7.911864782593146 -4.928902150313704 11 1 0
904 268 4 0 -0.7981356016896299 -7.865809568482657 -5.081200430193565 3 0 0
902 268 2 0 -0.7961078163227615 -7.826006568023995 -4.624863854103777 3 0 0
1248 383 4 0 -2.345865091684834 -7.726514654716464 -4.585192546190743 11 1 0
427 109 4 0 -1.143688490134986 -7.015384175127725 -4.627941923844914 3 0 0
425 109 2 0 -0.9492121904376543 -6.672059901749501 -4.409008974801486 3 0 0
576 159 4 0 -8.138982742365226 -4.377335562802071 -4.618222240975241 5 0 0
1926 609 4 0 -7.7927614003000265 -4.561948731409016 -4.6799503430654905 5 0 -1
1925 609 2 0 -7.398249773020378 -4.340384367940175 -4.695176869011809 5 0 -1
389 97 2 0 -1.594438423814438 -4.645470378780143 -5.177323047914025 3 0 0
772 224 4 0 -1.3420923294000833 -4.739387067688224 -4.35860775530284 3 0 0
391 97 4 0 -1.5333075374549274 -4.644491620865252 -4.7269101970870935 3 0 0
1927 609 4 0 -7.005658316794123 -4.119753589923579 -4.719145105849819 5 0 -1
1036 312 4 0 -6.950841095757088 -3.7511089343918727 -4.579930278849566 13 1 0
2884 928 4 0 -4.16523623915556 -3.1690297826424185 -4.653038629434635 6 0 1
2365 755 4 0 -4.083493243574448 -3.3101408130131063 -5.045886056900725 6 0 1
673 191 4 0 -2.7453095374876453 -0.9405260897077472 -4.719814608242122 4 -1 0
859 253 4 0 -8.120893372341165 -0.7344853033855792 -4.915865042933953 3 -1 1
857 253 2 0 -8.122713568659746 -0.4460818186862969 -4.5887448127422825 3 -1 1
671 191 2 0 -2.5296554871883306 -0.5497767306250019 -4.601146513176814 4 -1 0
672 191 4 0 -2.3355654878342946 -0.1975010357480489 -4.490516663103755 4 -1 0
1633 511 4 0 -3.872133436834223 -9.974783476893842 -3.6508510726864385 11 1 0
286 62 4 0 -4.003287278566387 -10.096100814521845 -4.003723645923718 -5 -1 0
1469 457 2 0 -2.7405354964708355 -10.107927616350985 -4.323500567208552 10 1 0
3069 990 4 0 -2.6090195897701394 -10.26613134814014 -3.503365043192896 11 1 0
1471 457 4 0 -2.573861850676911 -10.341574263827551 -3.9278588098614753 10 1 0
3099 1000 4 0 -1.438953737798247 -10.070410676438772 -3.5309628648941507 11 1 0
1247 383 2 0 -2.1154284203181017 -7.768198774545425 -4.188560134628898 11 1 0
1249 383 4 0 -1.8957835457088041 -7.805770264580612 -3.7922061513506087 11 1 0
1932 611 4 0 -1.5025658175760235 -7.8061981403321195 -3.7709786196281883 3 0 0
903 268 4 0 -0.7903286908117231 -7.780084103043671 -4.171383733898938 3 0 0
984 295 4 0 -0.8988480846013278 -6.33299724682834 -3.8158543101743945 3 0 0
426 109 4 0 -0.7497143584028336 -6.312996632636868 -4.1889022384026395 3 0 0
577 159 4 0 -8.741197837230295 -4.817829779189857 -4.0354117118459385 5 0 0
575 159 2 0 -8.452442540652966 -4.59895916091367 -4.331061108323245 5 0 0
770 224 2 0 -1.443986461238092 -4.830574956593068 -3.9182125055756263 3 0 0
771 224 4 0 -1.5394370627391005 -4.914599810640846 -3.488054809191717 3 0 0
1034 312 2 0 -6.634330874481542 -3.641936961578965 -4.289533592054956 13 1 0
1035 312 4 0 -6.292725669574726 -3.518641315396404 -3.9871997564086517 13 1 0
2996 966 2 0 -5.531708627016424 -3.2993315591973706 -3.9066785368274193 6 0 1
2998 966 4 0 -5.968861383097357 -3.3752910048200286 -3.8414080927380736 6 0 1
2883 928 4 0 -4.6938338131029935 -3.198808431549997 -3.904174981402827 6 0 1
2997 966 4 0 -5.086753792956194 -3.2355621406285113 -3.955591614838074 6 0 1
2882 928 2 0 -4.434229215860497 -3.180143901832306 -4.284432349429817 6 0 1
858 253 4 0 -8.126777796578754 -0.14639417209818184 -4.242964605019191 3 -1 1
648 183 4 0 -6.101101112531713 -9.593326810293982 -2.9474141628880997 5 0 0
1099 333 4 0 -6.496304161053663 -9.624863847494465 -2.9412749070752833 5 0 0
647 183 2 0 -5.817399602233097 -9.890464526033563 -2.752966053153333 5 0 0
1631 511 2 0 -3.798454880790496 -9.682116349139273 -3.3045882570031804 11 1 0
3068 990 2 0 -2.846435701428347 -10.37625095642902 -3.1322147559411864 11 1 0
3098 1000 2 0 -1.7060159359551292 -9.7721109057173 -3.3007169922161106 11 1 0
1098 333 4 0 -7.217745717285455 -9.21156692878463 -2.6320474558166156 5 0 0
1097 333 2 0 -6.8444237532662875 -9.418546981373735 -2.7941701329322832 5 0 0
1632 511 4 0 -3.7174109102892494 -9.387067783261513 -2.965948841031474 11 1 0
152 31 3 0 -3.845088405743361 -9.218364684115782 -2.6358118175408833 3 0 0
2213 705 2 0 -2.617650131180545 -9.32883782879486 -2.6558217641682207 3 0 0
3100 1000 4 0 -1.9672181382779836 -9.469124846633699 -3.0817942892395775 11 1 0
2215 705 4 0 -2.165650200610065 -9.305474619088143 -2.760657042561135 3 0 0
1933 611 4 0 -1.256250867805365 -8.190259025421714 -3.0425389549364326 3 0 0
1931 611 2 0 -1.3771257145733848 -7.993878886594487 -3.4118002161777694 3 0 0
352 84 4 0 -1.142303924946896 -8.023201651754531 -2.700966304986368 3 0 0
983 295 2 0 -0.8343701606274578 -6.270887725664333 -3.3720276299257703 3 0 0
985 295 4 0 -0.7829591988747708 -6.203104074589563 -2.936564191846241 3 0 0
1922 608 2 0 -1.5255234209596225 -5.341951025894302 -2.711410699119879 4 0 0
1923 608 4 0 -1.5729136009158626 -5.117356827873526 -3.113655686163572 4 0 0
2224 708 4 0 -7.582054566526828 -2.782221005901384 -2.7203633782518377 5 0 0
1725 542 4 0 -7.200011545314472 -2.654632276882208 -2.622706230043195 5 0 -1
2236 712 4 0 -7.869711806489388 -9.986158351383263 -1.948098327294204 7 0 0
1365 422 4 0 -8.25922021171113 -9.948046485422854 -1.7821478381811016 14 1 0
2234 712 2 0 -7.726931828412361 -9.688659484958324 -2.2425382585925906 7 0 0
649 183 4 0 -5.5443091141657845 -10.183310785725464 -2.5606479450442805 5 0 0
2524 808 4 0 -5.196898836066494 -10.231202109865853 -2.3865636505345424 13 1 -1
483 128 4 0 -9.300417616144074 -8.783070512982832 -1.812979374930043 5 0 0
2235 712 4 0 -7.581790561233264 -9.414789229941707 -2.528687478437874 7 0 0
151 31 1 0 -3.6222318479943896 -8.931922077472 -2.343231191885435 3 0 0
155 31 3 0 -3.7702377993247023 -9.007446540898036 -1.9019218403340652 3 0 0
2214 705 4 0 -3.033652822345239 -9.345137423826754 -2.5656875125104435 3 0 0
153 31 3 0 -3.1645974118641567 -9.005555509927612 -2.3685871463498493 3 0 0
2931 944 4 0 -10.107076276875828 -8.008414795081656 -2.2537659351618373 6 0 1
484 128 4 0 -9.884899444603954 -8.155108060565754 -1.9700423010129526 5 0 0
482 128 2 0 -9.598006193379653 -8.473808210511995 -1.8921699330094413 5 0 0
154 31 3 0 -3.7007546710295633 -8.499759762257652 -2.4514183879129945 3 0 0
350 84 2 0 -1.243774913510915 -7.764968080336704 -2.3590722547326504 3 0 0
351 84 4 0 -1.343356365207379 -7.500853802334358 -2.001209891087635 3 0 0
301 67 4 0 -1.078359108674226 -7.284979392423244 -1.7859367512555817 3 0 0
119 24 3 0 -0.9114508486187631 -6.173918412322329 -1.864094899708455 4 0 0
120 24 3 0 -0.6886213189413883 -6.132182448483107 -2.56867527829486 4 0 0
1924 608 4 0 -1.4624859459204718 -5.563282991127639 -2.3107931844603815 4 0 0
117 24 3 0 -1.0667074292587788 -5.565893860075147 -2.2631700711219427 4 0 0
397 99 4 0 -0.024263484350825593 -5.882629036115878 -2.2264183216637132 2 0 0
116 24 1 0 -0.753464092002341 -5.899909534223071 -2.1785236494553804 4 0 0
118 24 3 0 -0.36961328648411396 -5.713500201441856 -2.047057080183663 4 0 0
881 261 2 0 -9.872321400779077 -4.049832491290696 -2.0872748544459405 4 0 1
882 261 4 0 -10.283351018906824 -4.05580309364762 -1.9582503344415816 4 0 1
883 261 4 0 -9.435515426214803 -4.032433559457773 -2.226209049488343 4 0 1
1621 507 4 0 -9.217618547141347 -3.8976530497755153 -1.8945587984947903 5 0 0
1619 507 2 0 -8.904147709696051 -3.5902318053542297 -2.0671205596228948 5 0 0
2223 708 4 0 -8.228997312814352 -3.140239458566823 -2.3018734824044564 5 0 0
1620 507 4 0 -8.606342367212594 -3.288550017399099 -2.242488870871666 5 0 0
2222 708 2 0 -7.908158146092694 -2.9648107825864525 -2.5066724946722703 5 0 0
1724 542 2 0 -6.8010099800187085 -2.4478955173247865 -2.508756008751323 5 0 -1
1726 542 4 0 -6.4198988763975535 -2.258030258264185 -2.404226156446251 5 0 -1
1710 537 4 0 -6.062779074374728 -2.0849131465592965 -2.454765147689894 5 0 -1
1709 537 2 0 -5.632126906470201 -2.209085367754591 -2.377677215510401 5 0 -1
1711 537 4 0 -5.197256446404707 -2.34158361020069 -2.2887728975684833 5 0 -1
1548 483 4 0 -4.851231110583949 -2.2823754901005735 -2.0819338841358768 4 0 0
1547 483 2 0 -4.529636677287386 -2.142840379499443 -1.8225083832369986 4 0 0
2020 640 4 0 -2.671437906312444 -1.7623330461494717 -2.1004132784317324 6 0 0
1760 554 2 0 -3.4171750092641577 -2.006350524359158 -1.7772742624704723 6 0 0
1761 554 4 0 -3.0163688820092744 -1.9063626980774107 -1.9315912844779586 6 0 0
2018 640 2 0 -2.306254553387218 -1.8470099789136114 -1.7860812941794357 6 0 0
1945 615 4 0 -9.278914478910375 -1.401530080092087 -1.7649423443508017 8 0 0
1678 526 4 0 -6.23964444253336 -0.3035840311092617 -1.9097774564253651 9 0 0
1676 526 2 0 -5.872777731762463 -0.3016105897354606 -2.2045099730734616 9 0 0
1677 526 4 0 -5.539308720704569 -0.30602561760737323 -2.4706553984447037 9 0 0
1431 444 4 0 -5.152117859775237 -0.1631001619176793 -2.3799977915011663 9 0 0
1366 422 4 0 -8.606964191754683 -9.993337898209269 -0.9172837241715559 14 1 0
1364 422 2 0 -8.440053816382674 -9.970635472824823 -1.3497204394268412 14 1 0
2593 831 4 0 -8.951884442728591 -8.649926579544168 -1.6773865559139622 5 0 0
2591 831 2 0 -8.556773173229686 -8.570179455478165 -1.5145989623256195 5 0 0
2592 831 4 0 -8.115086018854479 -8.481078771337888 -1.3367471876912926 5 0 0
1029 310 4 0 -7.776412442910772 -8.335993410847344 -1.161257969476555 3 0 0
1028 310 2 0 -7.400482572539811 -8.100076370276309 -0.999429813243955 3 0 0
845 249 2 0 -6.285838375860436 -8.056429114942565 -1.037446723656588 3 0 0
846 249 4 0 -6.730417144025875 -7.9927902026992195 -1.071536751596506 3 0 0
847 249 4 0 -5.853733854807376 -8.125866852813877 -1.0197301285916112 3 0 0
2299 733 4 0 -1.670585798760241 -7.50990655150043 -0.939828609417507 3 0 0
299 67 2 0 -0.9600260646999725 -6.882571659154683 -1.6985746099674515 3 0 0
300 67 4 0 -0.8387564080183427 -6.463748570914268 -1.609434322192243 3 0 0
804 235 4 0 -4.203381118496657 -2.9115709258761555 -1.2242083863629585 4 0 0
1549 483 4 0 -4.208461437417902 -1.9942531201402929 -1.5487703057120044 4 0 0
1762 554 4 0 -3.829809270905744 -2.112691799340597 -1.6233389696786524 6 0 0
2019 640 4 0 -1.9671920600426365 -1.9272045934184643 -1.5087412845959989 6 0 0
2337 746 4 0 -9.597922485753621 -1.1823790073902813 -1.58139318075356 7 0 0
2336 746 2 0 -10.006287968960978 -1.0858779997095542 -1.4226421940579126 7 0 0
2338 746 4 0 -10.406366646019505 -0.9850904145001991 -1.2797631718072555 7 0 0
1943 615 2 0 -8.879588698846547 -1.3104761586565719 -1.6523763339762745 8 0 0
1944 615 4 0 -8.445016491787056 -1.217102453218839 -1.524320760884084 8 0 0
295 65 4 0 -8.090395226548805 -1.0445163955877614 -1.4417844475684003 7 0 0
293 65 2 0 -7.969780869582669 -1.0571796011618257 -1.0131823367180512 7 0 0
1990 630 4 0 -5.42329106012138 -1.323033855248033 -0.9459102030408602 5 0 0
1988 630 2 0 -5.218594951843073 -1.0063817749233497 -1.1582957562562584 5 0 0
724 208 4 0 -1.750562263640802 -1.7319244477179954 -1.2336635027320906 6 0 0
1152 351 4 0 -6.983605759727353 -0.27307526164962326 -0.9109356410713598 12 0 0
1153 351 4 0 -6.24914226078766 -0.2845264277431312 -1.4844682712605621 12 0 0
1151 351 2 0 -6.6369281439288255 -0.2794677054420056 -1.1947623263228753 12 0 0
2231 711 2 0 -4.5322012978137245 -0.06489140925873293 -1.1293962736028984 6 0 1
1989 630 4 0 -5.010815294127498 -0.6874082899038587 -1.3762695098319355 5 0 0
2233 711 4 0 -4.850211286199138 -0.37545290324247027 -1.1865511618651396 6 0 1
3082 994 4 0 -8.820507924608533 -10.28330945934579 -0.7326271487056015 14 1 0
768 223 4 0 -3.4865018260003477 -9.885866033180617 -0.48970761173656463 2 0 1
2747 883 2 0 -2.7678425265519646 -10.259359307186976 -0.2625776986778252 3 0 0
2749 883 4 0 -3.1684050891973294 -10.103468851791108 -0.37992441193751425 3 0 0
769 223 4 0 -3.4720436428708066 -9.006715991429825 -0.3120647546070092 2 0 1
767 223 2 0 -3.480120660267861 -9.448264236810193 -0.3997710585947729 2 0 1
1873 591 4 0 -3.195383108863756 -8.768716760073083 -0.46783873260377895 3 0 -1
1030 310 4 0 -7.024923998815687 -7.872571209686456 -0.8442491114882404 3 0 0
1871 591 2 0 -2.8646925765721507 -8.474830308653633 -0.37872141273751225 3 0 -1
1872 591 4 0 -2.539800780177199 -8.177938660870808 -0.29435661459091556 3 0 -1
2298 733 4 0 -2.351555001207659 -8.05710592987044 -0.6420496315535971 3 0 0
2297 733 2 0 -2.016230188647528 -7.782912869399769 -0.782774463259754 3 0 0
1887 596 4 0 -1.33734795037142 -7.5701236677660795 -0.7685094533081145 -5 -1 0
1886 596 2 0 -0.9943672938127772 -7.394079571727577 -0.5570461113571721 -5 -1 0
1888 596 4 0 -0.6254746269986811 -7.189970317884056 -0.32931660515519745 -5 -1 0
2114 672 2 0 -10.016371701621454 -4.685842828211056 -0.38475491804438633 4 0 0
2115 672 4 0 -9.674249650311193 -4.848521630836938 -0.18194916520248228 4 0 0
2116 672 4 0 -10.363471748470912 -4.505318868396886 -0.6024856958315095 4 0 0