LAMMPS data file via write_data, version 4 Feb 2025, timestep = 1500000, units = lj

64 atoms
4 atom types
48 bonds
1 bond types
56 angles
2 angle types

-2.5 2.5 xlo xhi
-2.5 2.5 ylo yhi
-2.5 2.5 zlo zhi

Masses

1 1
2 1
3 0.1
4 0.1

Bond Coeffs # harmonic/omp

1 100 0.45

Angle Coeffs # harmonic/omp

1 100 180
2 100 109.471

Atoms # full

19 4 3 0 -0.19559101308439147 2.379966195566621 -2.279486376967563 -1 -4 -2
44 10 2 0 -0.10120232615955822 2.356828886605406 0.3095903567803969 -2 -3 0
46 10 4 0 -0.19235878109226665 2.408720579514327 0.7524718550239776 -2 -3 0
34 7 3 0 -0.06959045697551176 -0.6026235672507945 0.1084579222913241 0 -4 0
3 1 3 0 -2.297903870263681 -2.401715620919114 0.5338582163578115 1 -3 -2
35 7 3 0 -0.37144371645480495 -1.0933684989221149 -0.38183497718905907 0 -4 0
31 7 1 0 -0.3318247715576732 -0.993535922552232 0.05258870093012046 0 -4 0
1 1 1 0 -2.4385766950066268 -2.0324512486797657 0.8062456668832628 1 -3 -2
32 7 3 0 -0.11892471169983641 -1.3595626463593746 0.2920720347315868 0 -4 0
33 7 3 0 -0.7974654730094187 -0.9050820611263449 0.26245301364265267 0 -4 0
45 10 4 0 -9.385771492307965e-05 2.3239362922519757 -0.14179198621860775 -2 -3 0
2 1 3 0 -2.0799261519452807 -1.7684323863852847 0.9087510228032336 1 -3 -2
13 3 3 0 -0.5160776147380555 -1.5293185786177117 1.1159137804000987 0 -5 -1
11 3 1 0 -0.216275056327511 -1.8553354758348308 1.258479728241215 0 -5 -1
15 3 3 0 -0.3181869938379377 -2.2804139568376622 1.0424038300482474 0 -5 -1
16 4 1 0 -0.13691937235156956 2.3484141677744685 2.235412482722477 -1 -4 -3
10 2 3 0 -0.09246073321771445 1.8994108232003732 1.092867570035587 -1 -4 -1
12 3 3 0 -0.25846012750007974 -1.9079925603860526 1.741041795121872 0 -5 -1
17 4 3 0 -0.18164780117730464 -2.2100036850635227 2.0482021168643088 -1 -3 -3
20 4 3 0 -0.4524247183094838 2.0739533886484365 2.072421363829927 -1 -4 -3
61 15 4 0 1.9106300750961438 -1.7063528030907753 0.4117731881488443 -1 -4 -1
59 15 2 0 1.652864388144116 -1.346383002475187 0.5045194130222889 -1 -4 -1
55 13 4 0 0.44335782658172446 -1.8643463532095077 -0.10845189908404126 0 -4 -1
47 11 2 0 1.4968707332013818 -2.3892126417102166 0.3654064474195819 0 -4 -1
60 15 4 0 1.3831505538717528 -0.9606292487488958 0.5986476474548053 -1 -4 -1
53 13 2 0 0.4993132115676628 -1.6972030757541672 0.3508426836287477 0 -4 -1
38 8 3 0 1.398564576290852 1.46418603602754 0.7245278904718553 0 -6 0
49 11 4 0 1.618424270325339 2.2187423618820103 0.5993556905207373 0 -5 -1
5 1 3 0 2.2890258908490955 -1.8139680538468306 0.6009316376408271 0 -3 -2
48 11 4 0 1.3778979421051574 -2.050190062346397 0.16778366081700816 0 -4 -1
9 2 3 0 0.5562013538472035 1.5264342684535568 0.795803153729902 -1 -4 -1
25 5 3 0 1.9016300213001893 -1.8735784865172007 1.2813784456418669 -1 -4 -1
21 5 1 0 1.6546557752694944 -1.6252737978384602 1.5210697705559635 -1 -4 -1
23 5 3 0 1.2610059406596474 -1.5293772944658284 1.277239686365269 -1 -4 -1
50 12 2 0 0.7819234330872358 -1.2067529495451583 1.23397903812228 -1 -4 0
41 9 2 0 0.7544101908155068 -1.8720848309822853 2.157933162065656 -1 -4 -2
42 9 4 0 1.0958058494433591 -1.7555865247017237 1.8946775844140173 -1 -4 -2
51 12 4 0 0.9808163227712413 -1.3941584477076288 1.5446721791090159 -1 -4 0
43 9 4 0 0.37363412859383777 -1.999644647162906 2.4486703484177434 -1 -4 -2
36 8 1 0 1.6176702591464525 1.6555807093237827 1.0583126123474493 0 -6 0
37 8 3 0 1.7314903968182764 2.065014014851562 0.9381511856663036 0 -6 0
63 16 4 0 1.0424344351099946 -2.1047304298687437 1.0725998662801357 0 -4 -2
58 14 4 0 2.433784018257855 2.4373705760822397 1.4550062400178787 -1 -6 -1
22 5 3 0 1.530463462301343 -1.8464181244347053 1.9371466634744878 -1 -4 -1
24 5 3 0 1.896326768918394 -1.2255505308240064 1.6191000245807705 -1 -4 -1
40 8 3 0 1.3622002911895088 1.6799238395303389 1.401877202591218 0 -6 0
56 14 2 0 2.228639310747474 2.2749736198691703 1.824173809055644 -1 -6 -1
62 16 2 0 0.7619479203866806 -2.3862037167829864 1.1382388479064087 0 -4 -2
64 16 4 0 0.5020488469907676 2.364204588578298 1.2113954800174844 0 -5 -2
4 1 3 0 2.354882621660847 -2.212390288816577 1.222285112370072 0 -3 -2
27 6 3 0 1.016857558078057 2.148717306009048 1.6721138145322092 -2 -5 0
28 6 3 0 1.2258285279258612 2.1597366886147915 2.339803143198919 -2 -5 0
29 6 3 0 0.7692885776890129 1.6749339514506398 2.10964168176828 -2 -5 0
8 2 3 0 0.6248234200088787 2.0020226597415296 1.4259757544182647 -1 -4 -1
6 2 1 0 0.3361994043104146 1.6833210022229286 1.2100672244746902 -1 -4 -1
7 2 3 0 0.25978818009422966 1.3533216401054082 1.4841210607899018 -1 -4 -1
57 14 4 0 2.0618100674072144 2.134279703044458 2.1528986416171194 -1 -6 -1
54 13 4 0 0.569549818042799 -1.4697002103286383 0.9228076489436681 0 -4 -1
26 6 1 0 1.1088830674654726 1.9102062883601378 2.0004765014760957 -2 -5 0
18 4 3 0 0.27356873083617245 2.1946052741140796 2.134128300121028 -1 -4 -3
30 6 3 0 1.4750892529020643 1.6131364579910898 1.8803512301437482 -2 -5 0
39 8 3 0 2.024464030900185 1.3877736085155201 1.1733558190217475 0 -6 0
14 3 3 0 0.12132701172725179 -1.7445561851844689 1.1743770793475337 0 -5 -1
52 12 4 0 0.58613892848993 -1.0340717960062382 0.9440230054315143 -1 -4 0

Velocities

19 -3.01155422337586 -0.8456129551956401 -1.3203583659258074
44 0.4630092526358206 -0.33375454293675033 -0.5409248248752899
46 0.06402302468861464 -0.3526867076201744 -0.3356413555726605
34 2.3482778334904966 -0.3765059460661127 0.17043613351466896
3 -1.2733407000485724 0.06686825731497956 1.4140862271162855
35 -1.5058173361225105 0.4503909043514849 -0.573488900628825
31 -1.2625222566804555 0.3391247926469574 -0.4638189353758403
1 -0.5725952184900395 -1.0568053899508858 0.6338864104133182
32 -3.5764140509105324 -0.7945672850096965 1.1732735525932272
33 -3.054481468719795 4.190136513511969 -1.5749408660437507
45 -1.619661668751867 -0.7705563453751475 0.9446013903148149
2 -2.2262496075503275 0.9941527225565543 2.0868917231166355
13 0.5933706906335819 -0.6818927217124979 -0.8490257849138165
11 -0.18098399037370155 0.3093201541696391 0.7842938029618414
15 -1.1065936269154013 0.5369374089673223 -0.13445171479401571
16 0.3433189016545195 0.353511492287843 -0.5622749629142798
10 -1.7857094175943733 -0.03645629378400846 0.711770986768177
12 -2.245572188481637 -0.34078635790150635 2.8811350306410106
17 -1.4774624876637463 -0.42423639280551756 -1.5721733906736304
20 2.2186269441665654 -1.6023340341656196 -2.6576349320237447
61 1.1695500383932955 -0.5900461141726907 2.418930487672165
59 -0.6392883687952077 0.22384549588467087 1.0768408542275638
55 -2.6504729849689643 0.7785076622388118 0.23117335413464896
47 -0.12489913866805408 0.9248946145895476 0.2579140952322083
60 0.8011068852440171 -0.4543735272261759 -2.5549123554410484
53 -0.99044601663824 0.5030238875739937 0.7051861758156099
38 -0.8612571367003422 -1.5415691697486749 0.8836229864079646
49 -0.00681073030341537 -0.8121492668395378 -0.6574531147213836
5 -2.605066195539519 -0.6935325248363581 1.975734881477434
48 0.4722113180070579 0.425490281141511 0.5298598115566597
9 -1.9401353504486163 -3.5188616588027912 -0.3973033688455479
25 -0.957566683794754 0.5203800588929337 0.2584476086379295
21 0.676946956469907 0.07214116404918379 0.5664523790594611
23 2.884963294349974 -0.7362813565562047 -0.17675386184150219
50 0.2772777772380909 0.31256587075193815 1.4692798460768817
41 -0.2815280884923544 -0.08432220572958928 -0.7690828704784565
42 0.2759507319075488 0.2270940002680184 0.3310038065747894
51 -0.48385812668257205 -3.241766274442162 0.40232247589746173
43 -1.2073014160005446 0.6427038230206493 1.1271803214269032
36 0.2393170651772533 -0.026711978469778457 0.11059427234879499
37 -1.4788980077553524 1.040575416961319 -1.3010635060701614
63 2.069292393952206 -0.33634566321072257 1.8392629112769148
58 2.985400731832499 -0.1468518797072615 -2.6943927586292054
22 -0.07751814806426455 -1.4734172383988273 1.9357247903239851
24 -0.45537395756925914 -1.0407446763934696 -1.2001522321031868
40 2.146766299431239 1.281577223527138 -0.36342314647106316
56 0.01009580120556807 0.08955074122022262 0.0030367396493696758
62 0.2839198915435988 0.5638285768452368 -0.04521630342048506
64 -1.2105553597028904 3.7141929741271147 -1.9224199788118799
4 2.1277259691375363 0.004436573718150941 1.512593600910433
27 1.2318473635319918 2.4424439527265953 -0.6929823796451182
28 0.9215873594767964 2.2548291591947427 2.3488371885665646
29 0.17371672760081253 2.428522114824765 -3.6990270456070156
8 0.8759772799539908 0.12142598297238363 -2.7573216343602
6 -0.2273815061820366 0.30658942902124486 0.3018627056039599
7 0.03820988376888872 1.2964836967357511 1.297888848883188
57 -1.4397903526671292 0.04775050724996681 -3.2263637248733352
54 2.3318728992180593 -1.6125900423026682 -2.7527925670166646
26 -0.3087688251229249 0.699811219321532 -0.10021324542578715
18 1.2735939877500362 3.156692533761205 0.5941940787216202
30 -1.082002696317831 -0.23914852305421408 0.7217302970285856
39 1.5927795592882428 1.8683412669027353 0.4652873840674334
14 -0.3057920674918178 -0.2716200561607898 2.8961710912457685
52 0.2226190815022568 4.725095432019101 4.504078812008408

Bonds

1 1 44 45
2 1 44 46
3 1 31 32
4 1 31 33
5 1 31 34
6 1 31 35
7 1 1 2
8 1 1 3
9 1 1 4
10 1 1 5
11 1 11 12
12 1 11 13
13 1 11 14
14 1 11 15
15 1 16 17
16 1 16 18
17 1 16 19
18 1 16 20
19 1 59 60
20 1 59 61
21 1 47 48
22 1 47 49
23 1 53 54
24 1 53 55
25 1 21 22
26 1 21 23
27 1 21 24
28 1 21 25
29 1 50 51
30 1 50 52
31 1 41 42
32 1 41 43
33 1 36 37
34 1 36 38
35 1 36 39
36 1 36 40
37 1 56 57
38 1 56 58
39 1 62 63
40 1 62 64
41 1 6 7
42 1 6 8
43 1 6 9
44 1 6 10
45 1 26 27
46 1 26 28
47 1 26 29
48 1 26 30

Angles

1 1 45 44 46
2 2 32 31 33
3 2 32 31 34
4 2 32 31 35
5 2 33 31 34
6 2 33 31 35
7 2 34 31 35
8 2 2 1 3
9 2 2 1 4
10 2 2 1 5
11 2 3 1 4
12 2 3 1 5
13 2 4 1 5
14 2 12 11 13
15 2 12 11 14
16 2 12 11 15
17 2 13 11 14
18 2 13 11 15
19 2 14 11 15
20 2 17 16 18
21 2 17 16 19
22 2 17 16 20
23 2 18 16 19
24 2 18 16 20
25 2 19 16 20
26 1 60 59 61
27 1 48 47 49
28 1 54 53 55
29 2 22 21 23
30 2 22 21 24
31 2 22 21 25
32 2 23 21 24
33 2 23 21 25
34 2 24 21 25
35 1 51 50 52
36 1 42 41 43
37 2 37 36 38
38 2 37 36 39
39 2 37 36 40
40 2 38 36 39
41 2 38 36 40
42 2 39 36 40
43 1 57 56 58
44 1 63 62 64
45 2 7 6 8
46 2 7 6 9
47 2 7 6 10
48 2 8 6 9
49 2 8 6 10
50 2 9 6 10
51 2 27 26 28
52 2 27 26 29
53 2 27 26 30
54 2 28 26 29
55 2 28 26 30
56 2 29 26 30
