LAMMPS data file via write_data, version 19 Nov 2024, timestep = 100000, units = lj

793 atoms
4 atom types
562 bonds
1 bond types
481 angles
2 angle types

-4.807498 4.807498 xlo xhi
-4.807498 4.807498 ylo yhi
-4.807498 4.807498 zlo zhi

Masses

1 1
2 1
3 0.1
4 0.1

Bond Coeffs # harmonic/omp

1 100 0.45

Angle Coeffs # harmonic/omp

1 100 180
2 100 109.471

Atoms # full

310 70 4 0 -3.8880340693362525 -4.395566981966955 -4.548105919349438 0 0 0
308 70 2 0 -3.565096670753973 -4.486138373066631 -4.258260174455263 0 0 0
3 1 3 0 -4.452564017717351 -3.4733445008050285 -4.775829309603812 0 0 0
763 221 4 0 -1.0188278135886168 -1.1660088934982937 -0.9569289419063253 0 0 0
309 70 4 0 -3.2325438894140968 -4.580019778404658 -3.9843544162084266 0 0 0
2 1 3 0 -3.9956357656084935 -4.039424915715288 -4.677937083103408 0 0 0
389 97 2 0 -2.4282354204139014 -0.07698822315642274 -1.225835890469572 0 0 0
553 151 4 0 -0.33129473769812623 -4.577219910003758 -4.690027110087619 0 0 0
607 169 4 0 -0.7416348259377208 -0.35580706777408355 -0.2768143201421742 0 0 0
265 55 4 0 -4.773625699823752 -3.18905997171925 -3.357724877718578 0 0 0
761 221 2 0 -0.7649247522256842 -0.9184390047076627 -0.6650375029292491 0 0 0
263 55 2 0 -4.383906285161091 -2.9213867724107203 -3.4494313860605006 0 0 0
264 55 4 0 -4.013152284121729 -2.6603264834737717 -3.530894789382301 0 0 0
193 39 3 0 -3.3689441126782445 -2.042964351109714 -3.198281113560878 0 0 0
580 160 4 0 -4.597281905958634 -1.836315174698373 -4.432998275520027 1 0 0
191 39 1 0 -2.9116711205139567 -1.906534017045522 -3.282212502156899 0 0 0
192 39 3 0 -2.695485555434416 -2.2350215798884427 -3.4698915364747873 0 0 0
568 156 4 0 -2.2715500715559975 -2.213969533155705 -3.4817001180294023 0 0 0
195 39 3 0 -2.9120070142483523 -1.561383550469795 -3.5478070243891597 0 0 0
566 156 2 0 -1.8501962823375953 -2.1934144063067555 -3.258458548440113 0 0 0
126 26 1 0 -4.326600085601211 -1.041104821322183 -4.514075045850162 1 0 0
130 26 3 0 -3.8916831592604715 -0.9291184217273659 -4.364961322462182 1 0 0
300 67 4 0 -3.5896680965601573 -0.939182140593434 -4.05473925384659 0 0 0
294 65 4 0 -3.6519302384433843 -0.6103565897724207 -4.2642676530720545 0 0 0
293 65 2 0 -3.623003778981123 -0.1710362018352117 -4.369749125225215 0 0 0
299 67 2 0 -3.4897909214048015 -1.0736656343817712 -3.6819194977645844 0 0 0
127 26 3 0 -4.423005034102945 -1.472004652533851 -4.386370613783682 1 0 0
301 67 4 0 -3.368730403352818 -1.2208224450472638 -3.2644364508956376 0 0 0
129 26 3 0 -4.633559997541174 -0.7658173800291667 -4.326198501158041 1 0 0
702 201 4 0 -4.600121841725774 -0.5028711793150484 -4.023102525784614 1 0 0
435 112 4 0 -4.517422331683399 -0.3475792698698907 -3.6412867224669774 0 0 0
434 112 2 0 -4.287766871851225 -0.27786829536004237 -3.2569893372263987 0 0 0
261 54 4 0 -2.6839940932133803 -1.3794625289724527 -3.8657131169248413 0 0 0
260 54 2 0 -2.4288396496651146 -0.9909812078837801 -3.9934435701871873 0 0 0
262 54 4 0 -2.2011267326600708 -0.6242021914659222 -4.114267890682935 0 0 0
87 18 3 0 -1.92488180968355 -0.3486830091323412 -4.158002943110991 0 0 0
484 128 4 0 -3.820254614747162 -4.70929721922602 -1.7945013759806634 0 1 0
98 20 3 0 -1.372202311608334 -1.1569551463457444 -1.1740370566217389 0 0 0
19 4 3 0 -0.03189631873729445 -3.523253008413877 -2.7181615901202263 0 0 0
8 2 3 0 -4.48511747170597 -2.6907773209608594 -1.9932402020008875 0 0 0
762 221 4 0 -0.5179391144699496 -0.6717307037018897 -0.37515281852353244 0 0 0
272 58 2 0 -2.8674020757281022 -1.4376839963717802 -0.8737209584992393 0 0 0
6 2 1 0 -4.338829256178366 -2.24995963425685 -1.911849455403336 0 0 0
7 2 3 0 -4.180760283718984 -2.069954327642497 -2.29188587506431 0 0 0
541 147 4 0 -4.209229667768203 -1.7408592554779174 -2.497989060767365 1 0 0
9 2 3 0 -4.029836571839192 -2.267095376094882 -1.619457230158221 0 0 0
10 2 3 0 -4.6971612094747135 -1.9932526569905449 -1.7465085402519087 0 0 0
194 39 3 0 -2.7126539195170345 -1.801593704599366 -2.904287723249063 0 0 0
282 61 4 0 -2.6393703797328105 -1.5873846915363985 -2.5863141011579107 0 0 0
20 4 3 0 -0.18630874431748298 -2.803253525626573 -2.810595492719409 0 0 0
16 4 1 0 -0.04873259312747882 -3.117701299969236 -2.5122948352316232 0 0 0
17 4 3 0 -0.3439885971431813 -3.1397712036687677 -2.1574946076205186 0 0 0
567 156 4 0 -1.451006621266309 -2.173915781515132 -3.0392292964812655 0 0 0
531 144 4 0 -1.0914958547731521 -2.0004783698737354 -3.09976302352603 0 0 0
532 144 4 0 -0.41845041642498687 -2.4788338905884353 -2.8156473501180255 0 0 0
530 144 2 0 -0.742886950797367 -2.250387047329194 -2.9517735245622623 0 0 0
322 74 4 0 -0.7511481409443178 -3.080545067721505 -2.080820911147257 0 0 0
320 74 2 0 -1.1200889595604775 -3.08536225137631 -1.8488780179192128 0 0 0
321 74 4 0 -1.5163380159389945 -3.096870626149093 -1.6065636280250115 0 0 0
572 158 2 0 -3.584208185903339 -0.4063357166696199 -2.4048450279500044 1 0 0
574 158 4 0 -3.340510307651349 -0.7309426231211805 -2.2226238360382817 1 0 0
540 147 4 0 -3.483790147696962 -1.3521741401453005 -2.890087548311423 1 0 0
539 147 2 0 -3.826163742332909 -1.5396662872748923 -2.7038520416179703 1 0 0
573 158 4 0 -3.817619716836305 -0.07335849875703467 -2.5794480183695963 1 0 0
436 112 4 0 -4.053072564721401 -0.20396512749494655 -2.861342434722523 0 0 0
281 61 2 0 -2.329086021254845 -1.4369798321429699 -2.3312645883804812 0 0 0
283 61 4 0 -1.9944385878607356 -1.2618864205163143 -2.0503783039715087 0 0 0
99 20 3 0 -1.867704046202743 -1.0271048590270127 -1.738196123267677 0 0 0
433 111 4 0 -1.7033931288270034 -0.9098983714844376 -2.076212597546257 0 0 0
431 111 2 0 -1.5047409592559209 -0.4565135919560883 -2.1294973081202477 0 0 0
482 128 2 0 -3.8825881802524846 -4.336114353314998 -1.5939850499081367 0 1 0
483 128 4 0 -3.9287987037524403 -3.980200901237011 -1.3942796995900417 0 1 0
22 5 3 0 -3.838073907722812 -3.628418211034621 -0.17489448180104317 0 0 0
326 76 2 0 -2.4624926034872883 -3.653467429014299 -0.10499496002195234 0 0 0
327 76 4 0 -2.1170154960131122 -3.4608318802815075 -0.37746939716991357 0 0 0
47 10 3 0 -1.8561184952136216 -3.293462986082148 -0.6387523363246914 0 0 0
48 10 3 0 -1.7879176489223814 -3.8266238922702684 -1.134228874832197 0 0 0
46 10 1 0 -1.9702956997541816 -3.430396060784789 -1.0522314653925837 0 0 0
49 10 3 0 -2.410562173589504 -3.4592710751284566 -1.0689935616012514 0 0 0
288 63 4 0 -1.7969942092456432 -3.2618938750487665 -0.23681299726454288 0 0 0
50 10 3 0 -1.8325128730672828 -3.1236604234227707 -1.3642625363631542 0 0 0
289 63 4 0 -1.0916715628916362 -2.738172060630793 -0.06663051068192423 0 0 0
287 63 2 0 -1.4572823330276894 -3.002795331733274 -0.15976390767988627 0 0 0
605 169 2 0 -0.5120812519302573 -0.016423066364933608 -0.14695010226049515 0 0 0
14 3 3 0 -3.471941906847751 -1.6199693263197559 -0.3076424834804284 0 0 0
273 58 4 0 -3.279497986334021 -1.521132018397964 -0.6411662598707137 0 0 0
399 100 4 0 -1.7277644517349857 -0.2855649939117662 -0.8409620260160742 0 0 0
390 97 4 0 -2.092815243536952 -0.2922163822435139 -1.006103262801367 0 0 0
97 20 3 0 -2.0914332892872363 -1.2685616375361475 -1.0554368695795484 0 0 0
100 20 3 0 -1.8366273928144758 -0.5854714168298035 -1.1263408561188737 0 0 0
96 20 1 0 -1.7888194501580328 -1.0078653635772452 -1.2696235598064647 0 0 0
274 58 4 0 -2.4939429501875368 -1.3690147998727853 -1.0909115617209233 0 0 0
432 111 4 0 -1.321317676987301 -0.05191821641173043 -2.172147647074424 0 0 0
82 17 3 0 -2.8680355881120265 -4.7619474218453695 -3.035004294226799 0 1 0
344 82 2 0 -4.553456237722757 -4.4491130356145545 1.1337552533282393 0 0 0
346 82 4 0 -4.645730465021671 -4.072567993108729 1.3878371834049463 0 0 0
39 8 3 0 -4.464098552126427 -3.7312364772442277 1.4881770302928161 0 0 0
23 5 3 0 -3.622193455674927 -3.9000758676034626 0.4621208881439065 0 0 0
464 122 2 0 -3.2705199220741528 -4.644847324060301 0.23781724865410933 0 1 0
466 122 4 0 -3.537646971818586 -4.256951000829665 0.27946994464492964 0 1 0
25 5 3 0 -3.686460640508111 -3.1883301121582015 0.4039037350830365 0 0 0
475 125 4 0 -3.634213998268222 -4.5054870778030045 1.5485456924524381 0 1 0
473 125 2 0 -3.2748889747635808 -4.738103698575211 1.4714376440831247 0 1 0
21 5 1 0 -3.5683313513321933 -3.570108585220722 0.18999723253680487 0 0 0
369 90 4 0 -2.3038829255749254 -4.180529372650549 1.6649034969681418 0 0 0
342 81 4 0 -2.212170168777993 -4.191226245193193 1.2596949370981179 0 0 0
341 81 2 0 -2.362106960908234 -4.131420702855865 0.8504462512764318 0 0 0
343 81 4 0 -2.5115255285436233 -4.0748524675881255 0.42546917511357285 0 0 0
24 5 3 0 -3.143753130350294 -3.545492784860311 0.06397778037451338 0 0 0
328 76 4 0 -2.8380602608841383 -3.8425123819358222 0.1819669871413754 0 0 0
38 8 3 0 -4.688893347023605 -3.047008454995648 1.4425756677782544 0 0 0
500 134 2 0 -4.134466387054323 -2.0639375578409402 0.7417875105119014 0 0 0
502 134 4 0 -3.830545483219862 -1.869236501107808 0.4299496368433245 0 0 0
501 134 4 0 -4.4068347503508365 -2.239460017595731 1.0182943265097457 0 0 0
313 71 4 0 -3.3431057442866177 -3.0058288511330957 0.5549177655125239 0 0 0
311 71 2 0 -3.1773587443070754 -2.574440656173252 0.4776824433645436 0 0 0
15 3 3 0 -3.857887483281752 -1.4830938447582942 0.31935755963507567 0 0 0
583 161 4 0 -2.846624622529647 -0.2677167416270289 4.017104697950091 0 0 -1
12 3 3 0 -3.2051864631151177 -1.7845227478396997 0.36054494242301577 0 0 0
312 71 4 0 -3.0286148686567693 -2.1641521755032755 0.4018465615833519 0 0 0
258 53 4 0 -0.4039293552439294 -2.2473786208017037 1.5414541652946754 0 0 0
257 53 2 0 -0.013475024019072558 -2.280509939784038 1.3411754555275577 0 0 0
584 162 2 0 -0.3871073730701953 -2.4149341276894964 0.10831915867160426 0 0 0
11 3 1 0 -3.4491601638904745 -1.4984837497375583 0.14673046458869918 0 0 0
13 3 3 0 -3.2581055778409573 -1.0636886339921015 0.18080023435157766 0 0 0
446 116 2 0 -2.729233123169416 -1.0703672004756393 1.364069007776077 0 0 0
447 116 4 0 -3.1515144321447135 -1.171283512542833 1.3425220862517497 0 0 0
448 116 4 0 -2.317368578772464 -0.9616248372628672 1.3836987636556082 0 0 0
379 93 4 0 -2.1142259684441997 -1.2836846424927848 1.531960268210301 0 0 0
36 8 1 0 -4.463295986750882 -3.3241135716129038 1.6837302417550806 0 0 0
37 8 3 0 -4.030519922659028 -3.175272999566731 1.739551798180225 0 0 0
329 77 2 0 -3.539699081935776 -3.3237634144684938 2.281010163964528 0 0 0
40 8 3 0 -4.66465521400229 -3.3578688049089176 2.0862540443176156 0 0 0
358 86 4 0 -4.743097257902386 -3.28102694848645 3.2492338927146567 0 0 0
368 90 2 0 -2.533459542929897 -3.877371030968573 1.9224841289413876 0 0 0
370 90 4 0 -2.766259053495094 -3.5590100179543436 2.176788383605692 0 0 0
330 77 4 0 -3.1040604427247214 -3.3796369476118913 2.4229689348631696 0 0 0
355 85 4 0 -0.35778176502840936 -3.4322529332953895 2.8634914562131026 0 0 0
633 178 4 0 -0.6365768920459177 -3.4007019772221985 2.5639086771627717 0 0 0
334 78 4 0 -0.3173041279267661 -4.728816667537561 3.357036837022786 0 0 0
353 85 2 0 -0.05016965319693141 -3.554087698777603 3.182393911294073 0 0 0
331 77 4 0 -3.9896292905031565 -3.2554292066971304 2.129435457545269 0 0 0
357 86 4 0 -4.671436626425047 -3.0793121426545498 2.3661472768700205 0 0 0
356 86 2 0 -4.706568591907892 -3.176413551831269 2.8230569453442698 0 0 0
162 33 3 0 -0.6504548145505235 -2.111234050638502 1.8218355918938536 0 0 0
161 33 1 0 -0.906162715140397 -2.003440201767888 2.1596883130818734 0 0 0
163 33 3 0 -1.162801055148409 -2.3583064590974105 2.288196485466735 0 0 0
634 178 4 0 -1.1196643504678279 -2.652843706988703 2.5637231530315225 0 0 0
632 178 2 0 -0.8783804465019247 -3.027222630191196 2.5629008846686525 0 0 0
164 33 3 0 -0.6419287303718321 -1.8743326806828644 2.518227519671982 0 0 0
598 166 4 0 -0.5675414463230026 -1.766976716383691 2.891236225968965 0 0 0
619 173 4 0 -4.479848636456417 -0.08707059229205241 2.5031069923496876 1 0 0
183 37 3 0 -4.251918959248663 -0.09017947681345741 2.1780662417772785 1 0 0
377 93 2 0 -1.7298831273799744 -1.2999948995409707 1.7710598444960262 0 0 0
382 94 4 0 -1.8160237229499205 -0.534907101601226 3.0524549211049203 0 0 0
349 83 4 0 -1.7223598758260072 -0.16464893424416424 3.0137233580644356 0 0 0
363 88 4 0 -1.4515076335665298 -0.42443520164667675 2.947566715476776 0 0 0
378 93 4 0 -1.3593038148951329 -1.3140181419280774 1.9998427074467695 0 0 0
30 6 3 0 -0.30464044578460353 -0.3879563623516876 1.8518695238169949 0 0 0
165 33 3 0 -1.1828875174419047 -1.6622032142037955 2.0524385390035684 0 0 0
362 88 2 0 -1.0700922252974847 -0.4148260697072256 2.7707476097814325 0 0 0
364 88 4 0 -0.648401904778103 -0.3967593958511035 2.5720273437720924 0 0 0
26 6 1 0 -0.21861892689747237 -0.031000330603279717 2.155556770930649 0 0 0
28 6 3 0 -0.4882563394772973 -0.05554602448886814 2.5011650867115702 0 0 0
4 1 3 0 -3.7856796368681676 -3.4701607673374797 4.553707558559248 0 0 -1
1 1 1 0 -4.131638970979431 -3.735474078772382 4.655138427663957 0 0 -1
5 1 3 0 -4.29976873674966 -3.9409631356092714 4.268768534911609 0 0 -1
642 181 4 0 -4.551699659239653 -3.811875533106974 3.9981126229057575 1 0 0
468 123 4 0 -2.4623717420793763 -4.567349435915996 3.216552700518928 0 1 0
481 127 4 0 -1.783166330652988 -4.750825798823206 3.773012885026454 0 1 0
374 92 2 0 -2.792898114889535 -4.259344166157967 4.577058610827265 0 0 0
112 23 3 0 -1.701151305638877 -4.336133028328739 3.73537570937891 0 1 0
115 23 3 0 -2.4180355430947897 -4.20299948008974 3.411461550899251 0 1 0
376 92 4 0 -2.4550119485101183 -3.9358438076677245 4.5192362661038965 0 0 0
113 23 3 0 -2.295720533971462 -4.0721640880450005 4.163297032844707 0 1 0
111 23 1 0 -2.10114727166643 -4.042991910031859 3.7413782961075497 0 1 0
114 23 3 0 -1.9784139701971126 -3.5911682072354676 3.641304091130761 0 1 0
375 92 4 0 -3.117325714584472 -4.576796294118657 4.636533474339111 0 0 0
271 57 4 0 -2.0117716347524452 -3.208757997450489 3.6538393875132416 0 0 -1
450 117 4 0 -0.6019431409061803 -4.413190927256087 3.364581919878777 0 1 0
449 117 2 0 -1.0522903098306025 -4.500728757115152 3.4582939735887654 0 1 0
451 117 4 0 -1.490449933428166 -4.600061363582495 3.5414113056786225 0 1 0
173 35 3 0 -0.22139929118104648 -3.891606268631091 4.062383328943094 0 0 0
269 57 2 0 -2.2548603013082196 -2.813303814881975 3.730631693305333 0 0 -1
45 9 3 0 -2.713503427932246 -2.1354661076559402 3.8228243160834694 0 0 0
270 57 4 0 -2.4827639825330925 -2.451854052864092 3.8019298887873787 0 0 -1
41 9 1 0 -2.468080286787362 -1.7718201863975793 3.892101790362174 0 0 0
43 9 3 0 -2.1818721876938967 -1.8514971589584222 4.223012174430068 0 0 0
42 9 3 0 -2.2304647015546144 -1.6779424922640644 3.5190850379293765 0 0 0
336 79 4 0 -1.771818008514862 -1.8892076672136133 4.2025666028982815 0 0 0
596 166 2 0 -0.5898677934602093 -1.6962389877981743 3.321520247602631 0 0 0
337 79 4 0 -0.9001318358468681 -1.6929643312983418 4.059510287325705 0 0 0
597 166 4 0 -0.6219219986036936 -1.6329942129757775 3.7600136130226476 0 0 0
335 79 2 0 -1.3513427942477512 -1.7900149363164266 4.133725354834081 0 0 0
128 26 3 0 -4.34985548329138 -1.0112535838442769 4.626393633287791 1 0 -1
380 94 2 0 -1.954220889648277 -0.9505918249921651 3.2467818405000455 0 0 0
44 9 3 0 -2.7251222287107995 -1.4448450989996084 3.9956630725425204 0 0 0
582 161 4 0 -2.9009453702855863 -1.170582231824532 3.736520334755355 0 0 -1
581 161 2 0 -2.876751381047605 -0.7268173127587118 3.8759871261970265 0 0 -1
315 72 4 0 -4.706081191130771 -1.033147191312616 4.420443528797888 0 0 -1
381 94 4 0 -2.092451451714943 -1.336764578663463 3.418383221601401 0 0 0
586 162 4 0 -0.022805308162112282 -2.1288802555046 0.1641509341191456 0 0 0
345 82 4 0 -4.468972515286141 -4.791814467261511 0.9090237486608707 0 0 0
585 162 4 0 -0.7153650038595348 -2.6667013109483735 0.05549979712740662 0 0 0
295 65 4 0 -3.6082481486824776 0.26232350629768747 -4.488986635573847 0 0 0
371 91 2 0 -2.3826504912960638 0.9980742481914163 -4.133349255493024 0 0 1
373 91 4 0 -2.133777627996905 0.6180600002233005 -4.137662802416153 0 0 1
372 91 4 0 -2.644543610884204 1.3827250607295214 -4.128959028827936 0 0 1
89 18 3 0 -1.9133145849999873 0.3410052415344679 -3.9452278966242424 0 0 0
88 18 3 0 -1.8396954393005698 0.18923092015273107 -4.640044156952182 0 0 0
86 18 1 0 -1.7422876725925067 0.05327099552187264 -4.23392770096916 0 0 0
307 69 4 0 -2.1718292444942557 0.03410519982017433 -4.6761131475723845 0 0 0
672 191 4 0 -0.934487972328367 0.21552288110270096 -4.264460408037547 0 0 0
90 18 3 0 -1.2807353912210953 0.03264077486946196 -4.182312845319992 0 0 0
671 191 2 0 -0.6158685186023242 0.3855937038117393 -4.535634777910003 0 0 0
255 52 4 0 -3.4110331519198605 2.2979769350407064 -4.198009275109731 0 0 0
509 137 2 0 -4.071777976333402 2.2927126918434255 -4.694653172714241 0 0 1
510 137 4 0 -3.752010391266758 2.273972458619278 -4.4139005965528515 0 0 1
210 42 3 0 -3.737017296087626 2.461203575073096 -4.062956114186776 1 0 0
208 42 3 0 -4.407536801693472 2.767800854325933 -3.826973128542415 1 0 0
206 42 1 0 -3.9428781020637387 2.7367251173800025 -3.738697710936134 1 0 0
209 42 3 0 -3.7616048318603936 3.1589583044147083 -3.757584836115211 1 0 0
489 130 4 0 -3.436245042769069 3.390445850882419 -3.8265936203940614 0 0 1
207 42 3 0 -3.877660743991755 2.5639669715355287 -3.328593084513749 1 0 0
402 101 4 0 -4.599280501433982 3.134616124077779 -3.8807735911516748 0 0 0
256 52 4 0 -2.8245954985639607 1.6087660524417446 -4.390792669656426 0 0 0
254 52 2 0 -3.1165764134650296 1.949392929210932 -4.296029819313167 0 0 0
427 109 4 0 -0.8761231992002336 2.5342692235787747 -4.5472878109254 0 0 0
426 109 4 0 -0.018297365357560505 2.15474316985503 -4.539484219412278 0 0 0
425 109 2 0 -0.45396736693261636 2.345903030800943 -4.542543402209829 0 0 0
398 100 2 0 -1.448684518882441 0.055796472878757566 -0.7442639812152763 0 0 0
403 101 4 0 -4.64723350522194 3.9993185706508734 -3.671342507796674 0 0 0
401 101 2 0 -4.629894133843088 3.5826884148162783 -3.7730913231045315 0 0 0
420 107 4 0 -4.582347653587909 4.321054011082147 -3.4381838331714225 0 0 0
505 135 4 0 -1.8468077470467075 3.426377369653243 -0.7656693318950649 0 0 0
419 107 2 0 -4.13183828856794 4.458673521936435 -3.3098788775984342 0 0 0
83 17 3 0 -3.387566840303967 4.379708278775104 -3.3251551105599706 0 0 0
421 107 4 0 -3.710046192910147 4.5925840502320625 -3.192564576188304 0 0 0
488 130 2 0 -3.2713937950394376 3.4369510759106903 -4.247599769659129 0 0 1
85 17 3 0 -2.687356536230588 4.252532143568406 -3.452381394056632 0 0 0
81 17 1 0 -2.9874782363278287 4.566134149305034 -3.407295156537733 0 0 0
490 130 4 0 -3.093727076033128 3.4895900153668724 -4.646646015683084 0 0 1
84 17 3 0 -3.0006535366738625 4.792399158620616 -3.759457384794155 0 0 0
476 126 2 0 -2.955512815559455 4.200432382001013 -0.41131436181877656 0 0 0
417 106 4 0 -1.2656125204190352 0.2899595418407319 -1.9804221578254693 0 0 0
416 106 2 0 -0.9225780690013333 0.5726935426296437 -1.8499922824180557 0 0 0
418 106 4 0 -0.5614226540236237 0.8658632848044572 -1.7278982101583162 0 0 0
383 95 2 0 -0.1633397776233567 1.3961220699815922 -1.7651455614321612 0 0 0
657 186 4 0 -3.695744033477336 2.541509511345992 -2.9456268542993986 1 0 0
656 186 2 0 -3.6604937622403213 2.5246351221219365 -2.4889905638483087 1 0 0
658 186 4 0 -3.6298872376208466 2.5008406789635798 -1.998605838437707 1 0 0
430 110 4 0 -2.5630827522193242 3.1010288837296773 -1.6822045838140827 0 0 0
393 98 4 0 -0.6233163650417649 3.085120792378374 -1.837191755526628 0 0 0
392 98 2 0 -0.3922834410171689 2.651235662344505 -1.824755676350167 0 0 0
385 95 4 0 -0.14912079896974167 1.8478263916854356 -1.7399042215909186 0 0 0
429 110 4 0 -3.4105917332248477 3.4365705922202183 -1.711155271849067 0 0 0
77 16 3 0 -3.6564306996372586 3.762717457201576 -1.704620203130127 0 0 0
79 16 3 0 -3.725137395007641 4.5119309391665885 -1.6495723847480332 0 0 0
268 56 4 0 -3.4753930988289117 4.755450444410888 -1.883290130448189 0 -1 0
266 56 2 0 -3.301109588502232 4.769930114232288 -2.332857966393848 0 -1 0
411 104 4 0 -2.3242674830233763 4.1961984548265665 -3.292129812237301 0 0 0
428 110 2 0 -2.997468634182964 3.2703879492417993 -1.6918552952701358 0 0 0
410 104 2 0 -2.0662360440436176 4.03295205551801 -2.9669222546092127 0 0 0
412 104 4 0 -1.7975740312468584 3.860197740100406 -2.6244274006371304 0 0 0
267 56 4 0 -3.146958008116706 4.777933292751984 -2.7363003813845403 0 -1 0
503 135 2 0 -2.0222686911315213 3.326736918472107 -1.157148170260673 0 0 0
415 105 4 0 -0.9579436127867924 3.2951064294539574 -1.897353232008162 0 0 0
414 105 4 0 -1.411958789380862 3.7385365464545277 -2.5842525302990267 0 0 0
413 105 2 0 -1.1876427355790098 3.511260851956394 -2.241288430423972 0 0 0
391 97 4 0 -2.771312475140287 0.146985214446061 -1.4536088444005728 0 0 0
407 103 2 0 -2.5037812337543963 0.6586562138445572 -0.21367623452849388 0 0 0
409 103 4 0 -2.6689087917861594 0.5523680024815147 -0.5978715901412023 0 0 0
384 95 4 0 -0.17949184534679447 0.9619677704102948 -1.7823102335524827 0 0 0
400 100 4 0 -1.173272832306275 0.3899043005833913 -0.6527028963927699 0 0 0
424 108 4 0 -1.0051118887919854 0.7093725185939485 -0.8335721394609846 0 0 0
422 108 2 0 -0.9062035453408765 1.0179973775533928 -0.5359524091797876 0 0 0
423 108 4 0 -0.8179380238668964 1.34455143806753 -0.21652600235764086 0 0 0
504 135 4 0 -2.206646171751753 3.2188294000129813 -1.5736131488361051 0 0 0
394 98 4 0 -0.17651498370916804 2.2516655861276984 -1.808765701378954 0 0 0
478 126 4 0 -3.1443601813352826 4.079975491611479 -0.8186491125252249 0 0 0
80 16 3 0 -4.130360420025245 4.037319538459265 -1.2223006977749926 0 0 0
275 59 2 0 -4.669141462866549 4.043686047203209 -0.5902520031147448 0 -1 0
78 16 3 0 -3.431546486982853 4.107683542017432 -1.1170518025561735 0 0 0
76 16 1 0 -3.731292570503854 4.1008324652232595 -1.417257726118072 0 0 0
277 59 4 0 -4.446162927582223 3.928312093649102 -0.9622440466855292 0 -1 0
606 169 4 0 -0.25918346850896423 0.35031517916704313 -0.00535858708633391 0 0 0
477 126 4 0 -2.775072366170729 4.31626654109649 -0.024582927325743246 0 0 0
493 131 4 0 -2.0431262926922344 0.4811605583660326 0.27254047984229585 0 0 0
408 103 4 0 -2.3287675759289455 0.7563103688455008 0.17065072076496396 0 0 0
491 131 2 0 -1.7126550280348354 0.5811630034815023 0.552855147668977 0 0 0
31 7 1 0 -0.6306526018613288 0.9574505950087646 0.5013701173122586 0 0 0
33 7 3 0 -0.7839096445351137 1.2577068403550526 0.18092260148019185 0 0 0
35 7 3 0 -1.0011915491911363 0.8259433566098058 0.7699126856007282 0 0 0
492 131 4 0 -1.3921548479467354 0.6815239045491693 0.8356676439366653 0 0 0
34 7 3 0 -0.4415579445385674 0.5917630621625887 0.28749378583169877 0 0 0
32 7 3 0 -0.3011174705116991 1.1649097322776034 0.7695603236478501 0 0 0
306 69 4 0 -2.753415729511494 0.013036813209059023 4.285718720402756 0 0 -1
496 132 4 0 -0.035998058929059225 0.6241818343510948 0.17620812214859163 0 0 0
636 179 4 0 -4.672386926654892 0.6064270690847245 2.209410190218499 1 0 0
631 177 4 0 -3.8440543773400924 3.6356790046393925 1.029094183243673 1 -1 0
629 177 2 0 -3.415690555764084 3.702484050914844 0.9772826625158144 1 -1 0
646 182 4 0 -4.172736219218506 3.86391313938087 1.1682970822858278 1 -1 0
644 182 2 0 -4.3625550795404395 4.1034517614462445 1.4900590869647163 1 -1 0
465 122 4 0 -3.0243280220840973 4.611348688227819 0.20452576973329353 0 0 0
630 177 4 0 -2.963351044661232 3.779161225824816 0.9150917618086527 1 -1 0
169 34 3 0 -2.5844766786850877 3.789640232414556 0.7741983649238524 1 -1 0
736 212 4 0 -1.6326722752286933 4.298772640089398 0.7504306951859617 0 0 0
170 34 3 0 -2.0186368323986787 4.25802412089996 0.69828195631336 1 -1 0
166 34 1 0 -2.4878819546440942 4.215478328425751 0.7238097521233188 1 -1 0
168 34 3 0 -2.673388419806456 4.4681647432468115 1.114114067277478 1 -1 0
727 209 4 0 -4.767763784214742 4.575919087885195 0.785950450712489 1 0 0
167 34 3 0 -2.6957890186762237 4.392037720540767 0.3265133610692805 1 -1 0
474 125 4 0 -2.8846735969549275 4.628529045320146 1.3921423215619975 0 0 0
367 89 4 0 -2.4722382359412625 4.498275986770689 1.4394745734984182 0 -1 0
734 212 2 0 -1.2135137460095484 4.446077387512031 0.694806597005206 0 0 0
735 212 4 0 -0.7535474387618525 4.602804616256811 0.6240551290122828 0 0 0
708 203 4 0 -0.38227273533332934 4.673769356458827 0.4598075648294071 0 0 0
184 37 3 0 -4.367628634973139 0.5632324048726416 1.9365888237798714 1 0 0
182 37 3 0 -3.8189905172655596 0.443618423326078 2.418393712932477 1 0 0
181 37 1 0 -4.058927727966917 0.27348920688016237 2.0608402978530296 1 0 0
454 118 4 0 -3.6237667861977974 0.2996770167220641 2.735572042341038 0 0 0
452 118 2 0 -3.234697877839557 0.2828469420312268 2.942634466794837 0 0 0
185 37 3 0 -3.7837689200031286 0.20327309805567256 1.7162291028677321 1 0 0
347 83 2 0 -2.1159989325607085 0.13163646226545161 3.1174922998707104 0 0 0
453 118 4 0 -2.836611773974347 0.2702716788468141 3.153534948887218 0 0 0
348 83 4 0 -2.4538215152933684 0.3891424953204526 3.2108416273311833 0 0 0
29 6 3 0 -0.269794114543866 0.35834920907273904 1.9492008955230382 0 0 0
508 136 4 0 -0.07736578220400953 0.6876288649319975 1.8542282024261658 0 0 0
770 224 2 0 -4.326913383837103 2.705277311053316 1.941559027156521 1 0 0
771 224 4 0 -4.068810694210355 3.066311641373738 1.838649464804064 1 0 0
772 224 4 0 -4.591188557665842 2.3549044550022096 2.029382073164667 1 0 0
720 207 4 0 -3.338782236533816 2.8984791090001503 2.793581086924342 1 0 0
239 48 3 0 -3.3473364736893743 3.171029701036029 2.5061461168576034 1 0 0
719 207 2 0 -3.6685757541243036 2.816686594394647 3.0846359477327128 1 0 0
704 202 2 0 -2.5716668440230963 2.893869352952344 2.56365253719095 1 0 0
705 202 4 0 -2.138808121092434 2.87721175317539 2.5622724098384344 1 0 0
95 19 3 0 -1.791260268202752 2.7174856609692903 2.690628753666673 0 0 0
706 202 4 0 -3.0189063295296084 2.911199691410269 2.558888364562359 1 0 0
92 19 3 0 -1.5008496632979322 2.6250780823641313 2.031031199905954 0 0 0
93 19 3 0 -1.6996171705924772 2.0597387497188184 2.4311281737899035 0 0 0
91 19 1 0 -1.5315752031520358 2.459030403676882 2.4409743962537394 0 0 0
94 19 3 0 -1.1169082898823623 2.4412650088302605 2.627291724220845 0 0 0
455 119 2 0 -0.41401661108540055 2.28002151430354 2.3171353519343323 0 0 0
457 119 4 0 -0.7242460672522718 2.4417593181288093 2.6021870387027968 0 0 0
456 119 4 0 -0.11455874421944831 2.112547756844362 2.0325985277347636 0 0 0
240 48 3 0 -3.958570921393729 3.3207370756481147 2.103241746046591 1 0 0
237 48 3 0 -3.5726065795542903 3.8732669515312783 2.400602707606263 1 0 0
649 183 4 0 -3.699985077700295 3.914017291911447 2.7791638050298615 1 -1 0
647 183 2 0 -3.743955061098862 4.000462751912237 3.23190870978312 1 -1 0
236 48 1 0 -3.55072055430812 3.457974599145006 2.2066488915966707 1 0 0
645 182 4 0 -4.56124706801808 4.34236258922284 1.8392652331034829 1 -1 0
238 48 3 0 -3.2811006092567667 3.482979278020617 1.8106496612335155 1 0 0
469 123 4 0 -2.407130622111974 4.355720578864166 2.59562807451293 0 0 0
366 89 4 0 -2.277796319883265 4.213329560630075 2.261965575636214 0 -1 0
365 89 2 0 -2.367999529330607 4.356400045571816 1.8454170262043175 0 -1 0
467 123 2 0 -2.4375860691348215 4.6819541949669485 2.885122481961668 0 0 0
332 78 2 0 -0.0778058435690824 4.640902941173856 3.0781697756005633 0 -1 0
351 84 4 0 -3.96941813746503 1.0849851917647542 4.295629928390863 0 0 0
350 84 2 0 -3.7113395397965405 1.4392613943924986 4.297346998597464 0 0 0
472 124 4 0 -4.283887655920025 0.8807147283559689 4.388945874421116 0 0 0
470 124 2 0 -4.7094315549895205 0.7456808120505888 4.464360719510108 0 0 0
305 69 2 0 -2.4740839798301124 0.024256317152708328 4.590052218236769 0 0 -1
673 191 4 0 -0.2869683319926325 0.5581903587622363 4.800392115945281 0 0 -1
406 102 4 0 -1.0934179024657946 1.5279320458464218 4.183896139536665 0 0 -1
404 102 2 0 -1.2209460051138377 1.1088848983886925 4.131594474379502 0 0 -1
405 102 4 0 -1.3500408313725896 0.6532974819194595 4.07624637270592 0 0 -1
714 205 4 0 -0.13188754609006054 0.9336365571450899 4.685552863602915 0 0 -1
352 84 4 0 -3.4338612453358057 1.8314170090616146 4.300137542723335 0 0 0
721 207 4 0 -3.9935900006723295 2.7253747580557164 3.367190488145273 1 0 0
774 225 4 0 -4.399959898710168 2.768203465137233 3.4297926054486223 1 0 0
773 225 2 0 -4.433124162462738 2.6711422855440032 3.867782169469742 1 0 0
775 225 4 0 -4.464746278425558 2.5801676859880533 4.310989708233609 1 0 0
511 137 4 0 -4.4014213908903095 2.3063253628987774 4.608145484421961 0 0 0
463 121 4 0 -3.134419741326721 2.083198252739238 4.280397148936563 0 0 0
461 121 2 0 -2.9255540388324333 2.475860816931494 4.1557686380405645 0 0 0
462 121 4 0 -2.7178260019119453 2.8638428527060538 4.0443928483434926 0 0 0
397 99 4 0 -1.8327944821063273 3.1871228881637133 4.706381236003537 0 0 -1
107 22 3 0 -2.4951924097792406 3.2040358316788122 4.134133756434953 0 0 0
395 99 2 0 -1.5029852518967406 2.9079872694231845 4.749134590541257 0 0 -1
648 183 4 0 -3.791056741462245 4.080589301819829 3.6684669800930774 1 -1 0
339 80 4 0 -3.4749713263493844 4.156510660495817 3.868108638664447 0 -1 0
338 80 2 0 -3.2588924521709375 4.414036576531554 4.168723179288133 0 -1 0
480 127 4 0 -2.1824431605681216 4.104031497523008 4.04174260795125 0 0 0
106 22 1 0 -2.4602267625137917 3.521874535273678 4.421085422940725 0 0 0
109 22 3 0 -2.7642635834236127 3.465484334417537 4.7512926617815205 0 0 0
108 22 3 0 -2.5279444445735444 3.955581136151713 4.202722742847978 0 0 0
340 80 4 0 -3.041911630559954 4.666616380908664 4.494195464466955 0 -1 0
110 22 3 0 -2.0589619650789817 3.505883390424623 4.5959241273494715 0 0 0
479 127 2 0 -1.9838149805397254 4.477300803973449 3.911358855416157 0 0 0
325 75 4 0 -0.07703759237253059 3.884553426022042 4.416287811433045 0 -1 -1
552 151 4 0 -0.18134749934920597 4.205677210904217 4.643723463172912 0 -1 -1
396 99 4 0 -1.1585327886343657 2.626909110966049 4.805488498578582 0 0 -1
551 151 2 0 -0.2633486318784289 4.618437820350965 4.778662386346025 0 -1 -1
319 73 4 0 3.0512327842931217 -3.98150868117671 -4.363487810916527 -1 0 0