LAMMPS data file via write_data, version 19 Nov 2024, timestep = 100000, units = lj

1345 atoms
4 atom types
930 bonds
1 bond types
665 angles
2 angle types

-5.848029 5.848029 xlo xhi
-5.848029 5.848029 ylo yhi
-5.848029 5.848029 zlo zhi

Masses

1 1
2 1
3 0.1
4 0.1

Bond Coeffs # harmonic/omp

1 100 0.45

Angle Coeffs # harmonic/omp

1 100 180
2 100 109.471

Atoms # full

208 42 3 0 -5.819436316596591 -5.832096247006053 -1.1685861817079572 1 1 0
651 184 4 0 -4.637546822345624 -5.791111070844408 -5.110605121334808 0 1 0
723 208 4 0 -5.70862696282826 -5.690330382609707 -5.092472431610529 0 1 1
402 101 4 0 -4.490213748772456 -5.568965058317221 -5.432420806915206 0 0 1
85 17 3 0 -3.9771497289181137 -4.999498380958729 -4.801894766292583 0 1 0
84 17 3 0 -4.248117867265389 -5.668253278974838 -5.121145836001517 0 1 0
81 17 1 0 -4.137012640796109 -5.452288912085667 -4.708761008801152 0 1 0
312 71 4 0 -3.899018927248368 -4.613763745770702 -4.861193983287069 0 0 0
401 101 2 0 -4.301344060076914 -5.36704188555861 -5.784187788125377 0 0 1
83 17 3 0 -3.781115724398419 -5.698115574066372 -4.477137418959765 0 1 0
255 52 4 0 -3.410798269212284 -5.681659328301025 -4.326817036770968 0 0 0
311 71 2 0 -3.749916700917564 -4.413101598685527 -5.208310036025158 0 0 0
331 77 4 0 -4.046357074462259 -4.755556261264481 -4.524095233424243 0 0 0
906 269 4 0 -1.2019550143706896 -4.52983503523492 -5.438502840821326 0 0 0
905 269 2 0 -1.2955250322139211 -4.904149069655344 -5.633436781498638 0 0 0
907 269 4 0 -1.3797238718117568 -5.270689339665572 -5.833967386673907 0 0 0
817 239 4 0 -0.12397469523682805 -4.845727282084318 -5.506389378582853 0 0 0
866 256 2 0 -5.820644314485164 -3.3904163023862557 -1.3548657093850855 1 0 0
313 71 4 0 -3.5995830626141623 -4.2047377247464075 -5.575098521319247 0 0 0
373 91 4 0 -4.160134679034815 -3.1164702984808157 -4.6351072049928375 0 0 0
340 80 4 0 -1.7934073954000287 -3.314912744963716 -5.6873630553302155 0 0 0
23 5 3 0 -1.5932294357736334 -3.523606177488121 -5.433055900886532 0 0 0
25 5 3 0 -1.4497347690435747 -3.76155119794393 -4.758673665402153 0 0 0
24 5 3 0 -1.1945701893376939 -4.131335322960286 -5.3510980545197855 0 0 0
21 5 1 0 -1.2890907603092612 -3.7230858835068084 -5.181712391413149 0 0 0
22 5 3 0 -0.9299667677997472 -3.4748829975452082 -5.173535124731995 0 0 0
928 276 4 0 -0.7000972309144451 -3.3020144186618015 -4.908308297728251 0 0 0
926 276 2 0 -0.3975604734288082 -2.96620413004545 -4.7478893100171184 0 0 0
379 93 4 0 -1.218960736705255 -4.079520338491628 -4.602535401553802 0 0 0
174 35 3 0 -0.038976060589411284 -3.8406305120903825 -1.2417406478432633 0 0 0
39 8 3 0 -4.964294228745687 -1.8700367587214486 -5.5307569551304905 0 0 1
1008 303 4 0 -4.5644235550320635 -1.8996073668286668 -5.482201895760348 0 0 1
1009 303 4 0 -3.6651119358885293 -2.0124607784490127 -5.686276200233595 0 0 1
1007 303 2 0 -4.107263752412386 -1.9608243336785975 -5.582864286736214 0 0 1
499 133 4 0 -3.4487365467615683 -1.700631721601569 -5.606842479673383 0 0 1
927 276 4 0 -0.11451688376129958 -2.653120025711719 -4.588610706962688 0 0 0
353 85 2 0 -4.740820353833141 -0.6607320963948676 -5.173082164851287 0 0 0
355 85 4 0 -4.652440641930832 -0.5116545287972941 -5.607939309466706 0 0 0
354 85 4 0 -4.82109306408593 -0.7988290704117654 -4.764391300264259 0 0 0
396 99 4 0 -4.731249355033145 -0.8975123435302913 -4.374771058081319 0 0 0
399 100 4 0 -4.341460020523818 -0.3468383865767033 -5.771584218942679 0 0 1
82 17 3 0 -4.4956484462443225 -5.426385245766058 -4.454826492496326 0 1 0
342 81 4 0 -4.791484415295349 -5.306862773588916 -4.213316356785569 0 0 0
341 81 2 0 -5.0459284755624205 -5.184985306294989 -3.8541034092719064 0 0 0
343 81 4 0 -5.285161222803795 -5.065746596148886 -3.4937077342905756 0 0 0
601 167 4 0 -5.526341820863737 -4.788285783571797 -3.343186215062179 0 1 0
254 52 2 0 -3.0839358143811872 -5.394669013767236 -4.193077791927011 0 0 0
329 77 2 0 -3.900336988555026 -4.573884125314832 -4.0864960514353 0 0 0
393 98 4 0 -3.7329361111698587 -4.316796563092603 -3.3355776477947994 0 0 0
642 181 4 0 -1.9312863037556187 -5.704186254080636 -4.2313650614225695 0 1 0
256 52 4 0 -2.769816804662113 -5.1291324945697925 -4.071805064967216 0 0 0
7 2 3 0 -1.8349765778362472 -5.40874003640639 -4.012961198270498 0 0 0
8 2 3 0 -2.498936022493847 -5.189033016440506 -3.8005692558526976 0 0 0
6 2 1 0 -2.047469885803902 -5.096121021103725 -3.7907316054668403 0 0 0
9 2 3 0 -1.9000439448092985 -5.085985051314651 -3.3483801914310427 0 0 0
10 2 3 0 -1.970190928360567 -4.679042160758812 -3.9995850717449275 0 0 0
385 95 4 0 -2.157879665213569 -5.079776737801032 -3.028369151084487 0 0 0
378 93 4 0 -1.5574221974673694 -4.652418479130521 -4.003218573095255 0 0 0
330 77 4 0 -3.7876062275846767 -4.428336922799186 -3.7220321186882446 0 0 0
289 63 4 0 -3.6560185748144223 -4.048854404312161 -3.699441442388142 0 0 0
287 63 2 0 -3.3413311363053633 -3.7037513347357165 -3.7023405662412427 0 0 0
30 6 3 0 -3.0899097050886315 -2.9895250723350855 -3.6355341316207275 0 0 0
288 63 4 0 -3.027910969246967 -3.3790450316250635 -3.6969004423630003 0 0 0
372 91 4 0 -3.556960333587815 -2.7762509425785558 -4.071927676448134 0 0 0
371 91 2 0 -3.866548353554757 -2.943573227079286 -4.363232796414924 0 0 0
392 98 2 0 -4.010529267721225 -4.241564797545989 -2.9676428508114308 0 0 0
377 93 2 0 -1.3924203116790868 -4.3754675177293 -4.289715402273908 0 0 0
320 74 2 0 -4.693538781788491 -2.4181902620432822 -2.9402250422863507 0 0 0
322 74 4 0 -4.582191110336426 -1.9502148710099905 -2.9577880118272315 0 0 0
364 88 4 0 -4.243620007994517 -1.7560359292955934 -3.013296345253216 0 0 0
29 6 3 0 -3.4067538325597666 -2.4131052602396754 -3.9965181243882655 0 0 0
26 6 1 0 -3.1506738758432746 -2.5418244881809473 -3.625194525545917 0 0 0
28 6 3 0 -3.359700761684155 -2.4333722133456437 -3.23758009928356 0 0 0
266 56 2 0 -2.282220753336856 -1.7712444835268784 -3.9283377652339806 0 0 0
268 56 4 0 -2.3645588368969483 -2.192165852654005 -3.7645571887815152 0 0 0
27 6 3 0 -2.7391847758837153 -2.32791957001793 -3.6407988205261064 0 0 0
267 56 4 0 -2.1925231253821367 -1.352560696217872 -4.096660529508641 0 0 0
849 250 4 0 -0.16202495424021618 -2.1894167096402484 -3.020673339407959 0 0 0
463 121 4 0 -0.018627946524606608 -1.9554750044619522 -0.12538000763941673 0 0 0
913 271 4 0 -0.11131850060848748 -2.3471514851021538 -3.3905124785528153 0 0 0
351 84 4 0 -0.25434206288338285 -2.5820281499618343 -3.099358505998699 0 0 0
258 53 4 0 -5.560991441197911 -0.03699635613553105 -3.0856509719555314 0 0 0
257 53 2 0 -5.165740741033502 -0.07978244414428445 -3.3065653435780558 0 0 0
259 53 4 0 -4.775023673074327 -0.12512687248956897 -3.5397455296841325 0 0 0
2 1 3 0 -4.448015499487027 -0.15776971705284906 -3.336984326954658 0 0 0
397 99 4 0 -4.466812673237006 -0.3533723489393441 -3.6915291574676115 0 0 0
395 99 2 0 -4.60885994929875 -0.6470764475782871 -4.050222571725208 0 0 0
3 1 3 0 -3.702427760975985 -0.01738918404151847 -3.243782118071205 0 0 0
1 1 1 0 -4.083904906185847 -0.18452751162549907 -3.0364434924004673 0 0 0
362 88 2 0 -4.2731588078217895 -1.3037156497336646 -2.9065755713412886 0 0 0
5 1 3 0 -4.019557821333732 -0.6256057319981667 -2.910727247202248 0 0 0
746 216 2 0 -3.159840704267855 -0.23353173225246446 -3.6221114957491225 0 0 1
748 216 4 0 -3.447023056118803 -0.3274378898982389 -3.252737992878266 0 0 1
747 216 4 0 -2.8858018522428504 -0.14275372151405125 -3.973083837904687 0 0 1
325 75 4 0 -2.5074805405513723 -0.27319512502861215 -4.078465931272819 0 0 0
323 75 2 0 -2.257301562380691 -0.66230308752032 -4.163600906722652 0 0 0
324 75 4 0 -2.006292627522899 -1.0336464278882451 -4.250993446158701 0 0 0
890 264 2 0 -0.20008303750343462 -0.7905208788193738 -3.353971381119343 0 0 0
376 92 4 0 -0.5565141638547345 -0.1071766407391351 -3.239118308421965 0 0 0
892 264 4 0 -0.2871469181863598 -0.40180245327634934 -3.1854702069464738 0 0 0
891 264 4 0 -0.10988514069661355 -1.20373872988753 -3.5380812091209806 0 0 0
599 167 2 0 -5.6700657675563395 -4.834699101910807 -2.924781370635891 0 1 0
600 167 4 0 -5.809790841825559 -4.89122256374621 -2.5040361599692127 0 1 0
937 279 4 0 -5.658755137523578 -5.021998378154695 -2.1640105688620888 1 0 0
935 279 2 0 -5.655188183872074 -5.33095286414399 -1.815923202839167 1 0 0
461 121 2 0 -0.4833830306566071 -1.9339210311865713 -0.08935773022085275 0 0 0
14 3 3 0 -3.068597618516849 -5.20740249860649 -1.43659939528408 0 0 0
12 3 3 0 -2.8055923775531566 -4.796277666846687 -1.9718236133451572 0 0 0
384 95 4 0 -2.5237451317858173 -4.773690619823703 -2.282212081637716 0 0 0
383 95 2 0 -2.347705539917859 -4.932110859687918 -2.650702613473252 0 0 0
11 3 1 0 -2.746918261823329 -4.931215828836026 -1.5516994851979056 0 0 0
598 166 4 0 -2.0768838049763874 -5.329777376422818 -1.7260401039986433 0 1 0
15 3 3 0 -2.3515641778890664 -5.128132971688324 -1.5180793436077291 0 0 0
596 166 2 0 -1.9545075850495495 -5.75341247406371 -1.6669907679339422 0 1 0
260 54 2 0 -4.745391390867702 -3.4705650034236957 -2.6655805961881405 0 0 0
261 54 4 0 -4.46085920043981 -3.8194950459613524 -2.6091763462710067 0 0 0
262 54 4 0 -5.027016592821097 -3.1350512160164326 -2.7137483192073053 0 0 0
386 96 2 0 -4.186543498135616 -3.8509477721234684 -1.8312946560416972 0 0 0
388 96 4 0 -4.243535413246056 -3.9138918106214473 -2.304254296905893 0 0 0
394 98 4 0 -4.281190940266352 -4.160894563098312 -2.6046515787106292 0 0 0
277 59 4 0 -0.823913132739073 -4.2328185994245064 -1.965438645973968 0 0 0
352 84 4 0 -0.7400404131687602 -3.192940588131317 -2.69592903479621 0 0 0
275 59 2 0 -0.835647193902055 -3.8763613772595686 -2.241942870933747 0 0 0
276 59 4 0 -0.8593524701544449 -3.5212960314076387 -2.5150417261662246 0 0 0
175 35 3 0 -0.6368261671707279 -4.101492979098482 -1.6222100667590584 0 0 0
321 74 4 0 -4.808450542963447 -2.857437332081824 -2.935032772505345 0 0 0
919 273 4 0 -5.555715314843428 -1.697399838008249 -2.1791376881127196 1 0 0
350 84 2 0 -0.505776829711086 -2.898936201361477 -2.8890592565671223 0 0 0
304 68 4 0 -5.177917582855433 -0.14020310095662872 -1.6244349780471266 0 0 0
302 68 2 0 -5.624903781360325 -0.061633854878523485 -1.6090570815538097 0 0 0
319 73 4 0 -4.914769065313896 -0.2702689664448663 -1.9214447711899154 0 0 0
363 88 4 0 -4.300015021012752 -0.8651006418171531 -2.8105619121803516 0 0 0
633 178 4 0 -4.9476237558110565 -4.634575990967252 -0.5266409047907133 0 1 0
936 279 4 0 -5.65203647275943 -5.618040850387842 -1.4721196592061956 1 0 0
308 70 2 0 -5.583445561795066 -4.519892210125052 -0.011682133581086405 0 0 0
632 178 2 0 -4.525423445203407 -4.5035919301958085 -0.6689378372531559 0 1 0
309 70 4 0 -5.147457610836992 -4.592365766929427 -0.1628476434930544 0 0 0
604 168 4 0 -3.76511743561031 -4.231939764018817 -0.6606655640801363 0 1 0
265 55 4 0 -3.0808086462045474 -5.569889676102211 -1.255146614408429 0 0 0
602 168 2 0 -3.3614643463045226 -4.240629046653769 -0.8732813866850545 0 1 0
13 3 3 0 -2.748200367756707 -4.56910036242858 -1.2777760426327172 0 0 0
1085 329 2 0 -0.4439369232877185 -4.770051631873417 -0.29847214780896525 0 0 0
1086 329 4 0 -0.38068429628564193 -4.410933524204165 -0.537871089901017 0 0 0
328 76 4 0 -5.113389291443973 -3.1777454471741478 -0.8975795345685041 0 0 0
868 256 4 0 -5.4754286843159425 -3.273185323354219 -1.0478872785293603 1 0 0
293 65 2 0 -5.589085672504278 -2.883860252125491 -0.38368629831850815 0 0 0
295 65 4 0 -5.43929263365912 -2.9841470820897653 -0.7749963164322959 0 0 0
326 76 2 0 -4.788853086241576 -3.427372371471105 -0.9977241350989873 0 0 0
327 76 4 0 -4.443327701052221 -3.6966612328320476 -1.1024394108736582 0 0 0
634 178 4 0 -4.086077963726834 -4.372631237192177 -0.8125553414823617 0 1 0
603 168 4 0 -2.9466243985582565 -4.265930728380405 -1.0934547994671455 0 1 0
387 96 4 0 -4.140850055483581 -3.7951424644088947 -1.3674416471271258 0 0 0
173 35 3 0 -0.47978219667096933 -4.374493150671938 -0.9247303221580997 0 0 0
171 35 1 0 -0.29015656793859196 -4.21524248970217 -1.3166858166851714 0 0 0
848 250 2 0 -0.017072437476126114 -1.920620093081293 -2.7049117623343477 0 0 0
172 35 3 0 -0.0367156745339943 -4.54367586799383 -1.4971377813544289 0 0 0
1087 329 4 0 -0.5073028565208522 -5.1588241416130485 -0.03967357174228833 0 0 0
462 121 4 0 -0.9133258726783838 -1.9076608929892906 -0.04967385918842308 0 0 0
853 251 4 0 -1.2809338561761427 -5.641205765141916 -5.762265779769972 0 0 0
338 80 2 0 -2.242411821622626 -3.296787912036005 -5.777755595841014 0 0 0
497 133 2 0 -3.057752786219611 -1.825565801434926 -5.742503402213277 0 0 1
997 299 4 0 -2.259910632901267 -1.8188234455244563 -5.828365221133649 0 0 1
483 128 4 0 -2.89009983871933 -4.74302832207764 1.1827605612071717 0 0 0
471 124 4 0 -3.0706018156003934 -4.458374936367822 1.407831903989336 0 0 0
482 128 2 0 -2.640235970250976 -5.096122870925128 1.0133710082747684 0 0 0
484 128 4 0 -2.4078338512112216 -5.44579352230289 0.8446090831388794 0 0 0
682 194 4 0 -2.0516885210458464 -5.612895200116212 0.9632322392785758 0 1 0
1042 314 4 0 -0.013031761032768043 -2.71754830301444 1.7815751534915647 0 0 0
523 141 4 0 -1.1442291634718498 -4.496887904668732 0.5226480407650881 0 0 0
106 22 1 0 -0.9585508847975466 -5.2759343293805845 0.5691692081006315 0 1 0
107 22 3 0 -0.8528632286279906 -5.321345724463455 1.0054359358229032 0 1 0
110 22 3 0 -1.1824634136454755 -5.609905256898798 0.438035239262473 0 1 0
1023 308 4 0 -0.7814528579702624 -5.468188311106564 1.4044019473052618 0 0 0
108 22 3 0 -1.215033163373547 -4.89669701183814 0.5062614575030846 0 1 0
109 22 3 0 -0.5913744650174521 -5.243527796791966 0.3284594477122666 0 1 0
439 113 4 0 -0.4312978966654877 -5.533268217747731 0.11290738245850904 0 0 0
720 207 4 0 -0.689146498815983 -5.703235131912118 3.507492477466945 0 1 0
488 130 2 0 -4.566581045144749 -3.8774188156953215 1.4992410343266014 0 0 0
490 130 4 0 -4.590224829517227 -4.271340720840078 1.3063527070026086 0 0 0
472 124 4 0 -3.230475787966581 -3.7114254980431616 0.8948402560435732 0 0 0
273 58 4 0 -3.370495570208563 -3.3487075134036512 0.8545378829153754 0 0 0
470 124 2 0 -3.148829238891247 -4.096570541450618 1.1518676802973555 0 0 0
272 58 2 0 -3.5972488684555755 -3.033290132102524 0.9936653652816736 0 0 0
415 105 4 0 -1.5885175347113758 -3.508449883865416 0.9830488982290325 0 0 0
522 141 4 0 -1.6898607203707634 -3.8616982203982433 0.8138351132277909 0 0 0
413 105 2 0 -1.5065747061456156 -3.1790208935945943 1.3159157597353959 0 0 0
521 141 2 0 -1.4096156202185164 -4.180716728018028 0.6652856209994464 0 0 0
64 13 3 0 -5.584554580095738 -2.1748808999805926 0.8847204325578822 0 0 0
63 13 3 0 -5.584875832995173 -1.745447389111193 0.30351375480799125 0 0 0
452 118 2 0 -5.581667683563058 -2.6653102183890978 1.4097117283034848 0 0 0
453 118 4 0 -5.66221097127512 -2.5520397982462293 0.9665665591775985 0 0 0
274 58 4 0 -3.8238087121016093 -2.7021751495402158 1.1456328650142387 0 0 0
485 129 2 0 -3.900339145530027 -1.8809353826966615 1.3425007015607244 0 0 0
486 129 4 0 -3.9747279997477127 -2.35358167740413 1.3317527673148322 0 0 0
487 129 4 0 -3.811137671299584 -1.4393185237361008 1.3552668599269488 0 0 0
251 51 2 0 -1.5611583363302777 -1.638396226130341 0.21111246071424644 0 0 0
253 51 4 0 -2.001437249109752 -1.6200054169577864 0.22370061397675536 0 0 0
252 51 4 0 -1.121035129939326 -1.6674156539334675 0.20745403500125045 0 0 0
46 10 1 0 -4.390463895328709 -0.013266721846330843 0.6647447741275487 0 0 0
1056 319 4 0 -5.355347896508963 -1.42127797572464 0.30996566762850397 1 0 0
50 10 3 0 -4.5824309686515745 -0.4198441936214835 0.7086979614721018 0 0 0
1055 319 2 0 -5.072981557946474 -1.108913801046893 0.46600265032165405 1 0 0
1057 319 4 0 -4.780276588732746 -0.7767347982455488 0.6297689826210148 1 0 0
435 112 4 0 -3.7481022227148286 -0.3426149488616948 1.0199884253792852 0 0 0
434 112 2 0 -3.6412660561226797 -0.7623191829676366 1.0972287935651976 0 0 0
436 112 4 0 -3.5424444848554946 -1.2047156916907042 1.1792741579431798 0 0 0
47 10 3 0 -3.9458807850780335 -0.030078981465818607 0.8564914619266362 0 0 0
788 230 2 0 -5.146566023388013 -5.474801806951918 1.8425584487299607 0 1 0
789 230 4 0 -4.688033155250528 -5.522933829650989 1.9099457142957457 0 1 0
790 230 4 0 -5.598953599753242 -5.425279761060562 1.7740793063718687 0 1 0
797 233 2 0 -3.7219966763637156 -0.8992212678408237 4.429917816199538 0 0 0
180 36 3 0 -4.318686744791521 -5.5868912517000595 2.033849376303369 1 0 0
807 236 4 0 -3.7457129706763155 -5.626210926597373 2.749495832831486 0 1 0
766 222 4 0 -3.1123514361632614 -5.733983213599069 1.893362057600911 0 1 0
1022 308 2 0 -0.7808395670740162 -5.159166896688309 1.739929633715051 0 0 0
1024 308 4 0 -0.7782454652834923 -4.8495059959253 2.0828840589141904 0 0 0
465 122 4 0 -0.7302514387545982 -4.477721693414001 2.0020672733390144 0 0 0
489 130 4 0 -4.540312516951692 -3.474957094982008 1.7079288160430743 0 0 0
43 9 3 0 -4.690996887136087 -3.0914392901335104 1.6598650325094129 0 0 0
992 298 2 0 -5.6445471761909385 -3.001955225176288 2.4580505580343224 1 0 0
994 298 4 0 -5.586574956366159 -3.3245834879342064 2.765186264226788 1 0 0
1215 372 4 0 -5.579137660409029 -3.733748825386842 2.9088159500080204 1 1 0
530 144 2 0 -4.213056812781445 -3.5041229428987943 2.793228272109974 0 0 0
42 9 3 0 -4.087761050944018 -3.0177099518957773 2.116019889604454 0 0 0
532 144 4 0 -4.214192432601218 -3.257002028468757 2.409235405685895 0 0 0
464 122 2 0 -0.8186919745882747 -4.008159251264461 2.054892616513702 0 0 0
466 122 4 0 -0.9068608250995196 -3.5734058060060736 2.1003525833326373 0 0 0
162 33 3 0 -0.6331757159713863 -3.2743816388828675 2.1416805189318353 0 0 0
161 33 1 0 -0.7210453681427162 -2.8257535871236628 2.1169796628129562 0 0 0
414 105 4 0 -1.420137138352636 -2.847505711437573 1.6480097175225066 0 0 0
993 298 4 0 -5.699734041492321 -2.6745883067490785 2.161742353549494 1 0 0
512 138 2 0 -4.795155343096932 -2.113786824667654 2.5971612766845364 0 0 0
44 9 3 0 -4.498953152573731 -2.3993607209051557 1.984489632878867 0 0 0
513 138 4 0 -4.5411156648897215 -2.4191003512119624 2.3881839923387416 0 0 0
454 118 4 0 -5.508717177879841 -2.7813865681908156 1.853298919187033 0 0 0
41 9 1 0 -4.3239319800504665 -2.8051233233668467 1.8010203348597524 0 0 0
45 9 3 0 -4.064078632212609 -2.705234301075363 1.4577913766984574 0 0 0
505 135 4 0 -1.9504064686283762 -1.8126234555825997 2.0364109273404627 0 0 0
503 135 2 0 -1.7402754793061113 -2.2129509697649157 1.9777070642245898 0 0 0
504 135 4 0 -1.5521658294994114 -2.579134157356756 1.92277740995379 0 0 0
163 33 3 0 -0.4247934256590136 -2.6323707562381706 1.8442587089474691 0 0 0
164 33 3 0 -1.1831549241568 -2.7523028366016877 1.9453063093826546 0 0 0
165 33 3 0 -0.6874873376501374 -2.6502471468762945 2.521017929685638 0 0 0
58 12 3 0 -3.379572936671718 -1.4334685373546852 2.22420680480927 0 0 0
57 12 3 0 -3.5663725521296272 -0.8572020555645385 2.680328355433601 0 0 0
56 12 1 0 -3.2721920696163855 -1.214886704180723 2.6102153329306645 0 0 0
481 127 4 0 -3.769720882996722 -0.5044292804926647 2.6967982480345607 0 0 0
451 117 4 0 -1.990368440717009 -1.408407863890763 2.0110522221211506 0 0 0
59 12 3 0 -2.846765725445294 -1.052460571837314 2.584369787824728 0 0 0
449 117 2 0 -2.2374181127081396 -1.1493506896892511 2.2799035548782327 0 0 0
450 117 4 0 -2.4818042571287724 -0.8877080971708953 2.5499034058820604 0 0 0
806 236 2 0 -3.5510461207431883 -5.264393130992768 2.9628477155747994 0 1 0
808 236 4 0 -3.3561988507834206 -4.906485982791521 3.160162732519639 0 1 0
496 132 4 0 -3.20893954166888 -4.534219626141892 3.2447343930706283 0 0 0
524 142 2 0 -2.5584535118914062 -4.723085097683937 3.4418204260728515 0 0 0
526 142 4 0 -2.2981018670161686 -5.058111574940798 3.5825366993936156 0 0 0
101 21 1 0 -2.19730085144824 -5.794761341994085 3.641584023684643 0 1 0
102 21 3 0 -2.2105182404099186 -5.4059956101850775 3.416863060291275 0 1 0
103 21 3 0 -2.203741988880457 -5.711458457493437 4.079197478527407 0 1 0
778 226 4 0 -2.105586239480369 -5.535607184905502 4.411589486719726 0 1 0
1301 401 2 0 -0.048822830407109184 -5.531095395515688 3.802003125099517 0 1 0
1302 401 4 0 -0.321894821840135 -5.528687831182997 3.4658593621728206 0 1 0
416 106 2 0 -4.363034482792652 -3.406063547575919 3.8729239562756907 0 0 0
418 106 4 0 -4.509939552041649 -3.1038975357466225 4.170896755292178 0 0 0
417 106 4 0 -4.209528578761903 -3.7087887376190367 3.5769604418489047 0 0 0
531 144 4 0 -4.20537265602509 -3.744629159726086 3.1828286126053795 0 0 0
494 132 2 0 -3.5638612495371005 -4.184425404935252 3.314599626590954 0 0 0
495 132 4 0 -3.890684347215067 -3.8692842883394873 3.3802730468413666 0 0 0
525 142 4 0 -2.8239709487124895 -4.374748575493758 3.295825491967858 0 0 0
514 138 4 0 -5.041499881536422 -1.8183151189229168 2.8114801922677524 0 0 0
55 11 3 0 -4.906292463801032 -1.6819787984305143 3.161042538195281 0 0 0
425 109 2 0 -0.15623850014766397 -1.3958150758840782 3.8578684056255925 0 0 0
53 11 3 0 -5.117487866423485 -1.359761670764999 3.752322324778632 0 0 0
51 11 1 0 -4.991332567475096 -1.297950113486641 3.348243317753526 0 0 0
511 137 4 0 -5.244984359080366 -1.3905329136588978 4.124704136852 0 0 0
52 11 3 0 -4.595665515965381 -1.036563720508074 3.3408251184667126 0 0 0
54 11 3 0 -5.323950630613932 -1.0821926976142529 3.105285849267944 0 0 0
491 131 2 0 -5.600079528238334 -0.3384748177341699 3.2894108453065045 0 0 0
492 131 4 0 -5.379049868189533 -0.6930455820995512 3.1320052046844533 0 0 0
480 127 4 0 -4.614537998663145 -0.7121765413028753 3.078782270598678 0 0 0
60 12 3 0 -3.297638047182382 -1.4929728369727338 2.966410120951857 0 0 0
479 127 2 0 -4.180133143471801 -0.6067122905792238 2.883830111579432 0 0 0
799 233 4 0 -3.6157171532265506 -0.4792830687283443 4.37971199061302 0 0 0
142 29 3 0 -5.8416735765820595 -5.219094359940973 2.0299675192318407 1 0 0
804 235 4 0 -1.9574269553749288 -0.5632165488899353 3.5204254197130385 0 0 0
803 235 2 0 -2.1950601308661644 -0.251668750768766 3.730563069403382 0 0 0
61 13 1 0 -5.789719667509469 -2.0649841753559213 0.5027060191394688 0 0 0
427 109 4 0 -0.3152264160426874 -1.3953841811930654 4.271691081688711 0 0 0
757 219 4 0 -5.807629260714944 -5.839842897088025 4.803113361971991 0 1 0
428 110 2 0 -3.2856206401059684 -4.951004630963912 5.220055391714658 0 0 0
429 110 4 0 -3.7228190014738884 -5.118896994774301 5.370520274418653 0 0 0
403 101 4 0 -4.105801808782823 -5.159354163794646 5.541302352430437 0 0 0
430 110 4 0 -2.8804039216654354 -4.801711203853548 5.098771164662358 0 0 0
776 226 2 0 -2.410738188446582 -5.235889962401032 4.590502724970788 0 1 0
777 226 4 0 -2.7178868518976023 -4.92762262672232 4.766509191726435 0 1 0
667 189 4 0 -0.6987540287334363 -5.017485143209062 5.05739041007607 0 1 -1
34 7 3 0 -0.44658303591955023 -4.713143643723604 5.15454379930701 0 0 -1
31 7 1 0 -0.2062629406424531 -4.472730803343482 5.4616979598216515 0 0 -1
665 189 2 0 -0.6163177999002506 -5.4547493963904214 5.106219630027316 0 1 -1
65 13 3 0 -5.7952787068126215 -2.427068545789308 0.2206824138066509 0 0 0
115 23 3 0 -3.443204863064356 -0.13881718337851318 4.236007772146189 0 0 0
368 90 2 0 -3.2442331248469567 -3.8040400477697824 5.715971565210984 0 0 -1
370 90 4 0 -3.0116331025672762 -3.450666777719137 5.698463066746935 0 0 -1
369 90 4 0 -3.493425735674783 -4.175827071426416 5.732305262320741 0 0 -1
798 233 4 0 -3.8358343569487334 -1.3501043730869786 4.48111864573243 0 0 0
339 80 4 0 -2.685330305940399 -3.2775297976863125 5.821972200778975 0 0 -1
32 7 3 0 -0.4457602292942542 -4.08534262638562 5.5825656781077315 0 0 -1
447 116 4 0 -4.753068155597764 -3.046585949923856 4.51080599477139 0 0 0
735 212 4 0 -4.774631214573255 -1.678787524401709 5.158941365784233 0 0 0
279 60 4 0 -5.468780338327558 -2.554896835386742 5.432366197554743 0 0 -1
446 116 2 0 -4.969549504867456 -2.765017526669199 4.849067709202982 0 0 0
448 116 4 0 -5.1822309617661855 -2.495650760972256 5.192601939038489 0 0 0
36 8 1 0 -5.165834426700881 -1.777719340254398 5.742675703964136 0 0 0
37 8 3 0 -5.214739934696681 -2.2212914975753737 5.48121377301547 0 0 0
40 8 3 0 -4.9164989490936355 -1.4886552690161616 5.50300021382012 0 0 0
736 212 4 0 -4.063203176418894 -1.6531378965052663 4.623992582668511 0 0 0
734 212 2 0 -4.41226437839378 -1.6596680795437893 4.886971790659804 0 0 0
443 115 2 0 -4.9167901842891695 -0.56178870645555 5.412841395058823 0 0 0
509 137 2 0 -5.350619440482212 -1.1146464438250092 4.511200905713809 0 0 0
498 133 4 0 -2.647938287576273 -1.939534103863118 5.815751634777019 0 0 0
995 299 2 0 -1.8559240580442264 -1.8425268815644857 5.713455258818326 0 0 0
888 263 4 0 -1.0619499776722399 -1.7845190745747532 5.62875129267898 0 0 -1
887 263 2 0 -0.6410365384201462 -1.7086854320455778 5.4936300934773135 0 0 -1
996 299 4 0 -1.437756801128326 -1.8625617758943147 5.55069101186776 0 0 0
889 263 4 0 -0.22836707844060403 -1.636154919041295 5.35757142608694 0 0 -1
474 125 4 0 -4.794828007915342 -0.258741051109977 4.414541390522972 0 0 0
444 115 4 0 -4.591174729244128 -0.48013872092116605 5.6756215792685225 0 0 0
445 115 4 0 -5.2498495668303775 -0.6504764854009863 5.138068063566546 0 0 0
510 137 4 0 -5.446542015672915 -0.8582928213760171 4.8576268995391825 0 0 0
1164 355 4 0 -5.657238395155613 -0.6125399561660617 5.091208066975019 1 0 -1
294 65 4 0 -5.763313722413384 -2.7782696990307443 0.0596998638782581 0 0 0
33 7 3 0 -0.12994987515533052 -4.720306229386908 5.809054791345472 0 0 -1
38 8 3 0 -5.58939770080154 -1.5881386276243332 5.825574997803309 0 0 0
1236 379 4 0 -4.665051905956441 1.5426012409500482 -5.78860326537965 1 0 1
696 199 4 0 -4.30246908814356 1.5712016119011645 -5.631594747482921 0 0 1
695 199 2 0 -4.131661535953751 1.184538092370004 -5.575946714863031 0 0 1
689 197 2 0 -3.1657498660793895 0.7023272073935772 -5.326268601509257 0 0 1
690 197 4 0 -3.571832509669902 0.7066743050029416 -5.538257855173328 0 0 1
697 199 4 0 -3.95945830315303 0.7923380899841186 -5.525930828310292 0 0 1
400 100 4 0 -3.802251898348193 0.371625370954555 -5.572638304336609 0 0 1
398 100 2 0 -4.062857620395034 0.02474568521100157 -5.668068616230521 0 0 1
691 197 4 0 -2.7492193351736387 0.7162326625832056 -5.118416209881723 0 0 1
132 27 3 0 -2.598240054044299 0.7462419367949154 -4.770883087435018 0 0 1
749 217 2 0 -2.0739400997979303 0.6929503738738355 -5.431035589387614 0 0 1
750 217 4 0 -2.3585787570442927 0.6551258147203458 -5.098176505439814 0 0 1
131 27 1 0 -2.48488980773163 0.9188030237703223 -4.341564473941146 0 0 1
135 27 3 0 -2.1219276151897923 1.186508957845847 -4.374196590239183 0 0 1
751 217 4 0 -1.7639080827883011 0.736950225483635 -5.7827143965854555 0 0 1
307 69 4 0 -0.41674006710358447 1.0977944934183896 -5.476203719219191 0 0 0
616 172 4 0 -4.824975450898634 1.8888633061093871 -4.950296581124181 0 0 0
614 172 2 0 -4.932205056741551 2.0299097796488597 -4.55009136132295 0 0 0
658 186 4 0 -3.3455356604805675 1.9742160440379477 -4.655050382661917 0 0 0
656 186 2 0 -3.2750114774468897 1.6625608000253482 -4.355463686248788 0 0 0
781 227 4 0 -3.1981599324268153 2.1801861148152923 -5.012016727454913 0 0 1
779 227 2 0 -3.556248147653901 2.34765398980832 -5.206563808583417 0 0 1
780 227 4 0 -3.9415438040327255 2.5294096155689525 -5.421790028020874 0 0 1
1249 383 4 0 -4.1828988699596445 2.8187051037300233 -5.4947894297966355 1 0 1
745 215 4 0 -2.7756247294534107 2.374634564409307 -5.179989097821694 0 0 1
554 152 2 0 -1.810148172109981 1.7963283110181785 -4.4335374727351065 0 0 0
743 215 2 0 -2.5030000959754966 2.39676325116226 -5.61550289535322 0 0 1
555 152 4 0 -1.869220640543698 2.242634976868352 -4.433840007825304 0 0 0
87 18 3 0 -2.0822977464271935 2.58184883506041 -4.469782199912935 0 0 0
86 18 1 0 -2.4500391453567016 2.774165203121169 -4.618397454585483 0 0 0
90 18 3 0 -2.5392911481923037 2.638910889089226 -5.022808185822455 0 0 0
650 184 2 0 -5.0790722648363715 5.782402677389372 -5.126983704484257 0 0 0
1247 383 2 0 -4.596543145473211 3.020306328391651 -5.534892371622501 1 0 1
543 148 4 0 -5.328342536396736 3.277175969470042 -5.801382710138659 0 0 0
1248 383 4 0 -4.992442101966853 3.227227117077445 -5.574579753035361 1 0 1
305 69 2 0 -0.024443463938650364 0.9092379255567637 -5.393890125003155 0 0 0
541 147 4 0 -2.481187868776218 3.537489707801865 -4.389830283635635 0 0 0
89 18 3 0 -2.3880023440167437 3.216596151710649 -4.626934324684551 0 0 0
576 159 4 0 -1.384145159531835 4.134571548223456 -4.524669815731737 0 0 0
713 205 2 0 -0.22230339116296313 3.177802495401349 -5.527818585244865 0 0 1
714 205 4 0 -0.6022070346298031 3.2529206381668145 -5.7994099494494025 0 0 1
588 163 4 0 -1.0925424445693381 3.825195432333566 -4.5250867663582 0 0 0
652 184 4 0 -5.497190968954812 5.660442792281718 -5.158862027916348 0 0 0
618 173 4 0 -4.1202056375610026 4.706027777572662 -5.588283729200016 0 0 0
561 154 4 0 -4.006510096083061 4.939138377906137 -5.274974853922922 0 0 0
560 154 2 0 -4.116205837949858 4.870914586988922 -4.846450551008028 0 0 0
562 154 4 0 -4.226628603749979 4.797575520527731 -4.405583237964154 0 0 0
643 181 4 0 -1.6981481918177141 5.149246610994825 -4.476166467018646 0 0 0
577 159 4 0 -1.7583667314437441 4.880199734807782 -4.746249364760669 0 0 0
575 159 2 0 -1.5730354294359952 4.512473264992497 -4.6383470244768334 0 0 0
657 186 4 0 -3.183896678256112 1.3421108085206643 -4.043541017558555 0 0 0
133 27 3 0 -2.8387764564636377 1.1574895584555178 -4.176423106341169 0 0 1
556 152 4 0 -1.7555939365512614 1.343453981212164 -4.427831647604845 0 0 0
134 27 3 0 -2.38313685166673 0.5871397097594873 -4.059139214781741 0 0 1
615 172 4 0 -5.046791100709379 2.185442135683665 -4.143922513054897 0 0 0
582 161 4 0 -5.097363490867261 2.475701425256366 -3.8714242455029844 0 0 0
581 161 2 0 -5.309602019633687 2.8520479385561024 -3.692266780037957 0 0 0
88 18 3 0 -2.790110379294327 2.676955371993303 -4.34586928048551 0 0 0
583 161 4 0 -5.504558003593115 3.1951425576298416 -3.5324199292762852 0 0 0
635 179 2 0 -5.75059015749392 3.913044965147375 -3.687754295842241 0 0 0
637 179 4 0 -5.741862454894632 3.5313239076350036 -3.4939597581539976 0 0 0