LAMMPS data file via write_data, version 19 Nov 2024, timestep = 100000, units = lj

1345 atoms
4 atom types
930 bonds
1 bond types
665 angles
2 angle types

-5.848029 5.848029 xlo xhi
-5.848029 5.848029 ylo yhi
-5.848029 5.848029 zlo zhi
0 0 0 xy xz yz

Masses

1 1
2 1
3 0.1
4 0.1

Bond Coeffs # harmonic/omp

1 100 0.45

Angle Coeffs # harmonic/omp

1 100 180
2 100 109.471

Atoms # full

1147 349 4 0 -4.201655008100951 -5.707711969843214 -5.236166106564189 2 1 0
1116 339 4 0 -3.8409378837278934 -5.542937904622229 -5.106327965326627 2 1 0
1115 339 2 0 -3.4052593466748005 -5.65548193419287 -4.924139117284349 2 1 0
724 208 4 0 -2.2213341544805365 -5.441159283363061 -5.421738192259433 1 1 1
722 208 2 0 -1.8702665084740526 -5.683667713188579 -5.189673480877209 1 1 1
1107 336 4 0 -2.248181684237066 -5.058164486464035 -5.492349714140602 2 1 0
816 239 4 0 -5.840889704277886 -3.1782182883431296 -4.62357434545034 1 0 0
980 294 2 0 -3.107223203697098 -2.335805996542031 -5.801788585111997 1 0 1
817 239 4 0 -5.332376136450131 -3.2555792843556026 -5.361006803322375 1 0 0
815 239 2 0 -5.585956622662531 -3.222261544929494 -4.999562111119383 1 0 0
33 7 3 0 -5.441067911491448 -2.934345390622697 -5.600429662318712 1 0 0
818 240 2 0 -1.9304429172299602 -2.3899237817849306 -5.449230679895976 1 0 0
355 85 4 0 -5.804815894900932 -0.4621394567739756 -3.6660274531977044 1 0 0
819 240 4 0 -1.5862877864450589 -2.319255837333215 -5.124114393004799 1 0 0
1007 303 2 0 -4.94959789624712 -1.8435758162830522 -5.530284512176199 1 0 1
400 100 4 0 -4.667520294844194 -0.03923280046592392 -4.266112532680583 1 0 1
1009 303 4 0 -4.695053984072678 -1.7518705743786933 -5.183502756469607 1 0 1
499 133 4 0 -4.323315796196254 -1.7317768579741166 -5.241133673424974 1 0 1
497 133 2 0 -3.8921696808776867 -1.6122075375188905 -5.2751515929952 1 0 1
997 299 4 0 -3.1898991173893494 -1.2944592539249342 -5.109439433176676 1 0 1
498 133 4 0 -3.4631396099077625 -1.499784811262204 -5.316078969267188 1 0 1
951 284 4 0 -1.6036080335664256 -2.097199649184292 -4.780629292102366 1 0 0
509 137 2 0 -5.704339662351496 -0.3775134820809072 -5.45701326047519 1 0 1
511 137 4 0 -5.3514143617486924 -0.4728847666076712 -5.774585121233536 1 0 1
995 299 2 0 -2.9817104334749436 -0.9072172927284274 -4.978257814938785 1 0 1
134 27 3 0 -2.86341041890415 -0.1504039348751025 -4.983601011134282 1 0 1
996 299 4 0 -2.7703881710045932 -0.5171845239715971 -4.841472177342686 1 0 1
888 263 4 0 -1.5273976696076632 -0.31041316399585295 -4.690667453539112 1 0 0
887 263 2 0 -1.2575872367551995 -0.4343965998456314 -5.0633536515258095 1 0 0
889 263 4 0 -0.9954109513336915 -0.5571222308098802 -5.409374432948213 1 0 0
963 288 4 0 -1.0064212780279416 -0.765160103199725 -5.773822087232675 1 0 0
209 42 3 0 -1.038396803937717 -4.475128763400953 -0.08418269837478931 2 1 0
1201 367 4 0 -4.155560377561492 -5.517545631298251 -4.884326322548004 2 1 0
1200 367 4 0 -4.783895545167918 -5.096433024478117 -4.363468694397193 2 1 0
1199 367 2 0 -4.474444749629976 -5.302414045578144 -4.62088432142182 2 1 0
1117 339 4 0 -3.0104798771277177 -5.757287387671694 -4.761054839484873 2 1 0
876 259 4 0 -2.8466145005173726 -5.652494979690893 -4.434299908869213 1 0 0
149 30 3 0 -4.974999849318269 -0.09914535669498825 -0.4278692007285745 2 0 0
85 17 3 0 -0.14125509125400448 -5.448120935641904 -3.8244474465746157 1 1 0
981 294 4 0 -2.692526658626441 -2.426181366148508 -5.8249114788741005 1 0 1
1106 336 2 0 -2.592359805639498 -4.990069961972358 -5.768293133575828 2 1 0
950 284 2 0 -1.3682221690594032 -1.8102549142098852 -4.518344555072939 1 0 0
952 284 4 0 -1.1296154825500846 -1.5251949937423364 -4.272288740831081 1 0 0
939 280 4 0 -0.9622764995057276 -1.1824629562102302 -4.257386275820639 1 0 0
896 266 2 0 -0.05650783866424547 -1.858906911441168 -3.6557451887568235 1 0 0
982 294 4 0 -3.547790131802945 -2.2266907339409707 -5.776205284656447 1 0 1
399 100 4 0 -5.44216597672145 -0.3979565035972996 -3.917703861581308 1 0 1
398 100 2 0 -5.068924675332854 -0.22494124531219484 -4.080331219612375 1 0 1
341 81 2 0 -0.4812926512835025 -5.490551755879103 -2.8475856483397135 0 0 0
820 240 4 0 -2.2856973256054136 -2.472424423474826 -5.780467757301754 1 0 0
855 252 4 0 -5.62662065276359 -4.878123461634353 -3.4931533958292134 1 0 0
854 252 2 0 -5.59321200453658 -4.416388440413667 -3.4679397256221023 1 0 0
856 252 4 0 -5.567272139635752 -3.9742443074194895 -3.4557050256871613 1 0 0
955 285 4 0 -5.551468537329224 -3.6771851712423964 -3.200707866835175 1 0 0
953 285 2 0 -5.183658367845142 -3.4017075514432586 -3.103657850637082 1 0 0
1054 318 4 0 -5.7447974909422195 -3.625153215169872 -3.5328356395174882 1 0 0
1014 305 4 0 -0.6891157983253304 -2.0146291348760066 -3.0595516656707407 1 0 0
897 266 4 0 -0.3767743894830984 -1.9284132947314299 -3.327464418627791 1 0 0
1011 304 4 0 -0.48467577070651835 -1.6435985556937078 -3.0522632208163385 1 0 0
1010 304 2 0 -0.4723166363694613 -1.2952351042160588 -2.782083646608928 1 0 0
875 259 2 0 -2.5408760481623056 -5.832805906620629 -4.169943856426643 1 0 0
938 280 2 0 -0.744698084397764 -0.8502363309397039 -3.9939851527628845 1 0 0
940 280 4 0 -0.5477972545052552 -0.5325103146872836 -3.745672042525121 1 0 0
891 264 4 0 -0.2658497660607191 -0.30197500944925526 -3.6100344666402866 1 0 0
350 84 2 0 -5.522328597191466 -5.284342868789259 -2.181526591017229 1 0 0
352 84 4 0 -5.1600177858234275 -5.364159123836008 -1.9479960729550165 1 0 0
343 81 4 0 -0.5611773090923107 -5.089099892179824 -2.6203614013925267 0 0 0
276 59 4 0 -5.098695399016585 -5.0547815040405535 -1.685454130969771 1 0 0
601 167 4 0 -0.5731378720705944 -4.819327801618131 -2.3283310492992406 1 1 0
599 167 2 0 -0.5458895839813467 -4.357065100537906 -2.183054751204527 1 1 0
600 167 4 0 -0.5248584336478475 -3.93916758362914 -2.045041657577447 1 1 0
954 285 4 0 -4.829808160317001 -3.1573814451173075 -3.0219261257362504 1 0 0
880 260 4 0 -4.4588648231851105 -3.1672999109852444 -2.852467495637542 1 0 0
878 260 2 0 -4.271371949503833 -2.916667536002838 -2.5100303688012797 1 0 0
389 97 2 0 -0.2838611904336208 -3.3113681919665576 -2.1560976349673813 0 0 0
391 97 4 0 -0.6638173118543023 -3.5541364424217905 -2.0184360558310916 0 0 0
879 260 4 0 -4.099159635864217 -2.657020291377492 -2.1767053364671805 1 0 0
849 250 4 0 -4.150361956682677 -2.2882434525691115 -2.042425753292122 1 0 0
154 31 3 0 -2.238352775691252 -2.7053569109602043 -2.048811126726373 1 0 0
1015 305 4 0 -1.3567694825374819 -2.4834235283741863 -2.530500859392308 1 0 0
151 31 1 0 -1.8208291565804737 -2.759690955018032 -1.881697751696544 1 0 0
153 31 3 0 -1.5102841611034084 -2.7650913871224243 -2.2326962776086723 1 0 0
1013 305 2 0 -1.0251909751580408 -2.249106846369605 -2.798868622019569 1 0 0
821 241 2 0 -1.6580064313022875 -1.578882656920177 -1.7824366667629414 1 0 0
823 241 4 0 -1.6563548320655697 -1.1397747801599971 -1.8893235073739891 1 0 0
175 35 3 0 -3.7936691404027916 -4.792048715506966 -1.1037391518298554 1 0 0
1158 353 4 0 -2.571015542163075 -5.81422114729456 -1.027137219801312 2 1 0
275 59 2 0 -4.917759382172041 -4.651670389303614 -1.513247612154336 1 0 0
277 59 4 0 -4.738122213425727 -4.254602909181557 -1.3404359129484638 1 0 0
174 35 3 0 -4.433767189302819 -4.362215148148531 -1.0757585231813707 1 0 0
935 279 2 0 -0.6643785758991498 -3.8826136342287882 -1.219692734052063 1 0 0
813 238 4 0 -2.9229908166096727 -3.4084812328518876 -0.9377134433854444 1 0 0
874 258 4 0 -3.077691036173178 -3.3118972562202575 -1.3170338810586877 1 0 0
872 258 2 0 -2.844231682159704 -3.090023610927252 -1.6157707738265135 1 0 0
965 289 2 0 -2.0534960933927877 -3.71237726556103 -0.9519492305470036 1 0 0
967 289 4 0 -1.8845479383448547 -3.446023581251517 -1.3142463310546493 1 0 0
152 31 3 0 -1.7974968829421023 -3.1622778841256425 -1.6279551830107488 1 0 0
937 279 4 0 -0.55725195618718 -3.7427822283753365 -1.7005544722735246 1 0 0
848 250 2 0 -3.9075027719872466 -2.2348921680856053 -1.666861161835497 1 0 0
873 258 4 0 -2.602879368373759 -2.868384782827184 -1.9258401826359108 1 0 0
155 31 3 0 -1.7383939945709468 -2.4102339423842647 -1.616647536165713 1 0 0
850 250 4 0 -3.6699382102886253 -2.1853826814577517 -1.2755442441415097 1 0 0
924 275 4 0 -3.242961080407308 -2.1682421480804277 -1.1935098324858604 1 0 0
822 241 4 0 -1.6643613992660642 -2.0094869044194974 -1.6792195601242828 1 0 0
616 172 4 0 -1.6124715098565892 -0.8126965077944242 -2.1202564274342883 1 0 0
614 172 2 0 -1.7346208473952496 -0.3859491809034816 -2.0736416448875796 1 0 0
109 22 3 0 -5.462478165072659 -5.829730576421577 -0.14416011105916038 2 1 0
1087 329 4 0 -5.0993495440842675 -5.650047177941169 -0.21056673451644947 1 0 0
1085 329 2 0 -4.832479217135893 -5.302768309915174 -0.29186483681534625 1 0 0
1086 329 4 0 -4.565868257175735 -4.954639016418423 -0.3740949596304306 1 0 0
173 35 3 0 -4.216418510568268 -4.8254604729978725 -0.5160166557613497 1 0 0
1174 358 4 0 -2.2589539806725454 -5.577341000887886 -1.0203526973612975 2 1 0
1172 358 2 0 -2.010398919516131 -5.3236820608046775 -0.7860627551762756 2 1 0
1173 358 4 0 -1.7398652239113481 -5.0544162051287005 -0.5271695365856095 2 1 0
210 42 3 0 -0.8551512616603452 -5.001582604484842 -0.5487474028866934 2 1 0
456 119 4 0 -4.582583611331704 -3.9837746400574447 -1.042770797340392 1 0 0
171 35 1 0 -4.051188211505376 -4.5561282196835675 -0.8285192931213841 1 0 0
172 35 3 0 -3.8145458883285497 -4.2233468352708385 -0.6325373017503164 1 0 0
828 243 4 0 -3.777119438202579 -4.084769051181376 -0.2626874288502883 1 0 0
814 238 4 0 -3.61877568611335 -3.866162533185916 -0.5890742277592054 1 0 0
1079 327 2 0 -2.4403281877935825 -4.658830299576568 -0.025516159557406937 1 0 0
1080 327 4 0 -2.315752266773074 -4.341684004269244 -0.36491436315336045 1 0 0
207 42 3 0 -1.5393684392523186 -4.718397561992035 -0.5248424647307335 2 1 0
206 42 1 0 -1.1070834020401525 -4.629355542554597 -0.47795101857995004 2 1 0
208 42 3 0 -0.999696342223312 -4.32350413048021 -0.7668371952511066 2 1 0
936 279 4 0 -0.7548644783153984 -3.996891052673761 -0.7977074318072992 1 0 0
455 119 2 0 -4.671975022296997 -3.6237047525079356 -0.7474267171367037 1 0 0
457 119 4 0 -4.751463975337849 -3.2950781627994816 -0.47162665732251874 1 0 0
930 277 4 0 -4.508876999944825 -3.2897967116019213 -0.140904938898454 1 0 0
812 238 2 0 -3.2767437403235835 -3.6383073834251065 -0.7612308021442002 1 0 0
966 289 4 0 -2.214940060091817 -3.978052519184411 -0.5846566555822053 1 0 0
862 254 4 0 -2.5645249989053576 -2.2864424921104907 -0.20569453305737984 1 0 0
925 275 4 0 -2.5144565236107264 -2.186288939426074 -0.5993548143287049 1 0 0
923 275 2 0 -2.8864065393992795 -2.178204635141063 -0.8990872262383096 1 0 0
1012 304 4 0 -0.4533610053805299 -0.9513458520245068 -2.5194080261300638 1 0 0
302 68 2 0 -5.69271091951251 -0.40395125768873896 -0.5847827920529056 1 0 0
303 68 4 0 -5.308963886435876 -0.17215927400493491 -0.5889299063848847 1 0 0
312 71 4 0 -0.022614932421249456 -5.149541998528301 -4.108612674102892 0 0 0
831 244 4 0 -3.8030917435491576 -2.5211927829479452 -5.7343224203570315 1 0 0
1145 349 2 0 -4.488042937376283 -5.801333087151143 -5.575128082959305 2 1 0
150 30 3 0 -4.290112125195096 -0.0004988940419528021 -0.6885335539761641 2 0 0
148 30 3 0 -4.412415446929325 -0.2884621104137972 -0.018454135713095177 2 0 0
962 288 2 0 -0.5818180387349559 -0.9032437644548272 -5.823499875354061 1 0 0
1070 324 2 0 -2.633430528924575 -5.679146122974226 0.8598063355039685 1 0 0
1072 324 4 0 -2.6204422247505743 -5.255603296659291 0.6507602605570435 1 0 0
604 168 4 0 -0.043174092722561674 -5.3466784288239335 0.6586082192659894 1 1 0
634 178 4 0 -0.4012041860406459 -5.119541831053612 0.7331966579218001 1 1 0
632 178 2 0 -0.6756204794606271 -4.851260638543188 0.519256820056671 1 1 0
1040 314 2 0 -5.323319499764077 -4.016316440857643 1.0330615600324542 1 0 0
1041 314 4 0 -4.907415987212971 -4.147219017110909 1.041455319868593 1 0 0
1042 314 4 0 -5.770286521573434 -3.8784570599759878 1.0160017744791023 1 0 0
827 243 2 0 -3.6204635277271784 -4.173663347902882 0.14416918260814615 1 0 0
858 253 4 0 -3.432090884260903 -4.446741707435944 0.8927598784502075 1 0 0
829 243 4 0 -3.4653661427723614 -4.258757028009703 0.5423330125324437 1 0 0
1081 327 4 0 -2.570554621099989 -4.978237300419025 0.3239477313622343 1 0 0
1024 308 4 0 -5.646370964407946 -5.8452851683784735 1.602589099267676 1 0 0
309 70 4 0 -1.2266001167804497 -4.303641585602144 0.23603572113638016 0 0 0
633 178 4 0 -0.9571770760253822 -4.593977317381137 0.30302327201092183 1 1 0
308 70 2 0 -1.5768467679865417 -4.228928431263743 0.4897447111360389 0 0 0
310 70 4 0 -1.9601373749308983 -4.1423616025167815 0.7808287860799146 0 0 0
929 277 2 0 -4.505602835854164 -2.9512265211565385 0.14846709835172955 1 0 0
508 136 4 0 -2.306092724176379 -4.139141942021361 1.0050750816128087 0 0 0
931 277 4 0 -4.494670401938935 -2.632422770192465 0.42564735639013396 1 0 0
461 121 2 0 -4.141586744231643 -1.9051868526122226 0.3452522114383081 1 0 0
463 121 4 0 -4.437012947675393 -2.2260284727833275 0.3701702252363068 1 0 0
860 254 2 0 -2.5004948181097566 -2.4252834555477016 0.21771853907553584 1 0 0
861 254 4 0 -2.4329906271784925 -2.556240734370988 0.6415974913082376 1 0 0
978 293 4 0 -2.4287437133241214 -2.8787491420720355 0.8912691905925216 1 0 0
462 121 4 0 -3.8499661379845245 -1.5810413576464786 0.32857587471138494 1 0 0
252 51 4 0 -3.8042125059208423 -1.2924954866820535 0.059762584538894714 1 0 0
251 51 2 0 -3.9215535175636 -0.8490424922089623 0.07948031617317763 1 0 0
145 29 3 0 -0.1696997703222367 -4.445682655199874 2.4733091467101396 1 0 0
1022 308 2 0 -5.642144135073035 -5.7348857674551805 1.1881049365645584 1 0 0
1038 313 4 0 -3.8359686604889545 -5.600463526857024 1.3521734084124466 1 0 0
857 253 2 0 -3.566478583564025 -4.866565334872143 1.0096988818224544 1 0 0
859 253 4 0 -3.7040588332696998 -5.282829065126889 1.118873867936455 1 0 0
790 230 4 0 -0.3478749436167652 -5.040354798458395 1.582664243820389 1 1 0
984 295 4 0 -4.611271744752589 -4.379888991577888 1.2189847734303125 1 0 0
983 295 2 0 -4.560900282419929 -4.514558792460936 1.6553001274465071 1 0 0
163 33 3 0 -5.837134080315261 -3.7479883842340036 1.3836731325822251 1 0 0
142 29 3 0 -0.43690475047451205 -4.699177674272629 1.8231654715870498 1 0 0
253 51 4 0 -4.038456002050589 -0.42461954461199714 0.1031911469794018 1 0 0
507 136 4 0 -2.489713945088866 -3.242993892862178 1.057803411616212 0 0 0
506 136 2 0 -2.401745522351783 -3.691446522238149 1.0322631437592102 0 0 0
736 212 4 0 -4.2143464154783805 -0.028222746793108655 5.641764549635564 1 0 0
977 293 2 0 -2.144687133482659 -2.627081233766521 1.231012781391689 1 0 0
979 293 4 0 -1.8647527954067131 -2.393272701352417 1.5559029534586974 1 0 0
1048 316 4 0 -1.5479776158147436 -2.3270909066841563 1.8163918223821867 1 0 0
1090 330 4 0 -5.580678855767166 -4.889924085394552 2.7399535073701724 1 0 0
991 297 4 0 -0.0048390841608298985 -0.25328075711237297 3.6213925952426624 1 0 0
1283 395 2 0 -1.8905411296611248 -5.788266558686296 2.4546146913339406 2 1 0
871 257 4 0 -1.3406271880187397 -5.392618833186169 2.2851483536502535 1 0 0
1285 395 4 0 -1.4716226351870176 -5.663132909048984 2.547328826489487 2 1 0
870 257 4 0 -0.7088202194278326 -5.000604258759214 1.8100650568254846 1 0 0
869 257 2 0 -1.0284231819315854 -5.202198198125895 2.0526191091523156 1 0 0
1088 330 2 0 -5.166252270415934 -4.7836121861069385 2.577930630635235 1 0 0
1089 330 4 0 -4.762445672971243 -4.678660623577065 2.4019730505896018 1 0 0
985 295 4 0 -4.50034206893857 -4.6449703609524935 2.0978156590931665 1 0 0
141 29 1 0 -0.3260540233708351 -4.332826729252391 2.0679894567673136 1 0 0
144 29 3 0 -0.6858709101068152 -4.0730619756214494 2.1213377703931178 1 0 0
480 127 4 0 -5.122695226127391 -1.122005841432629 2.9841223871007845 1 0 0
479 127 2 0 -4.7679051363785385 -1.4205660699460072 3.0474531580316224 1 0 0
481 127 4 0 -4.407644095251024 -1.7028557071548862 3.1090225431891323 1 0 0
1046 316 2 0 -1.2677698470752006 -2.1776218268884175 2.168690265425834 1 0 0
1047 316 4 0 -0.9816435564822408 -2.034456246517437 2.5332547170718946 1 0 0
1256 386 2 0 -2.394700747034932 -5.567789987604338 3.828751360875142 2 1 0
1258 386 4 0 -2.3096471226085837 -5.144455473840797 3.8046303075599894 2 1 0
1214 372 2 0 -0.43538142181807427 -4.876841571991606 3.4961423200281683 2 1 0
1215 372 4 0 -0.00807117867903795 -4.976663533631452 3.551353451088353 2 1 0
1341 414 4 0 -1.9888171652475863 -4.860824764048593 3.7495965113054304 2 1 0
1340 414 2 0 -1.6052497934660455 -4.697834521145717 3.599272711217955 2 1 0
1342 414 4 0 -1.1915352729467648 -4.517762876030589 3.4471888933454444 2 1 0
1216 372 4 0 -0.8823179345758252 -4.750208246600873 3.445447362695793 2 1 0
1026 309 4 0 -5.216122546117595 -3.6354090041214775 3.6127836299937552 1 0 0
1025 309 2 0 -4.739704189534946 -3.568413835399521 3.7132290409767545 1 0 0
976 292 4 0 -3.4088959685419553 -3.8128717563991206 2.957805810603018 1 0 0
974 292 2 0 -3.1882185148632387 -3.706955513718402 3.3545646197415326 1 0 0
975 292 4 0 -2.9707778983357622 -3.609104197260702 3.7411640481177066 1 0 0
60 12 3 0 -3.868351455849144 -2.2729987575543094 3.516658704546403 1 0 0
53 11 3 0 -5.514379522280106 -1.2135977652251038 3.703885656464019 1 0 0
56 12 1 0 -3.9906209195513416 -1.8867685225414146 3.747621151706362 1 0 0
57 12 3 0 -4.217900181285725 -1.620462650872848 3.4766523502704327 1 0 0
58 12 3 0 -3.6115795567927673 -1.6783950498753528 3.869074015350801 1 0 0
805 235 4 0 -3.2806638892515303 -1.6543597904919825 3.624867485394052 1 0 0
803 235 2 0 -2.940062582976784 -1.3769097227412033 3.677349739010838 1 0 0
804 235 4 0 -2.5914468246746316 -1.0927210415821218 3.741862140377993 1 0 0
427 109 4 0 -2.250619594370983 -1.0146777258316337 3.887364810449734 1 0 0
1051 317 4 0 -0.6742021121709953 -1.8208965568772504 2.831980700034334 1 0 0
1049 317 2 0 -0.4334814178955799 -1.7016645687480825 3.2417233611025065 1 0 0
1050 317 4 0 -0.1968960920964209 -1.5895817834971648 3.6484570054747465 1 0 0
51 11 1 0 -5.739169868669044 -0.9611698687634984 3.381267963142765 1 0 0
54 11 3 0 -5.811426033708084 -0.5351538626524954 3.550545490893887 1 0 0
52 11 3 0 -5.496048830196056 -0.9404352010081158 3.0114301769078473 1 0 0
425 109 2 0 -1.8217564160514872 -0.8576092069814525 3.7644021497074043 1 0 0
426 109 4 0 -1.4501046826530501 -0.7311861644386841 3.6463244576734297 1 0 0
502 134 4 0 -1.1503992080837708 -0.5510225677722715 3.4707519222393213 1 0 0
106 22 1 0 -5.829477860804108 -5.6307909698012955 0.03147243894778384 2 1 0
500 134 2 0 -0.6997452167566349 -0.5511005095954538 3.60173205281537 1 0 0
501 134 4 0 -0.25744756615821984 -0.5423877082375981 3.731909763434004 1 0 0
1076 326 2 0 -5.544163247862681 -4.944072573304662 4.338267157417276 1 0 0
1078 326 4 0 -5.296849222848635 -5.074664452251502 4.697671338508471 1 0 0
1037 313 2 0 -4.24831356543857 -5.748593267355547 1.4519917271424507 1 0 0
1017 306 4 0 -2.170079519029943 -4.89537037020125 4.093949581850179 1 0 0
1018 306 4 0 -2.5235363939934516 -4.276853416370801 4.680512159299825 1 0 0
1016 306 2 0 -2.358975048528683 -4.582030035662933 4.386833033276959 1 0 0
138 28 3 0 -2.7206101469918855 -3.9323113696464316 4.723491241966348 1 0 -1
418 106 4 0 -5.292513261063141 -3.0360746518358233 4.163546156250858 1 0 0
416 106 2 0 -5.677974420410078 -3.2841499185079166 4.238815119724059 1 0 0
1027 309 4 0 -4.283734451823269 -3.5157323477064932 3.8177270208325087 1 0 0
1294 398 4 0 -4.2412741463389505 -3.2566103719919055 4.105037921278695 2 1 0
1292 398 2 0 -3.835845995801582 -3.258251528421275 4.3282607826125545 2 1 0
1293 398 4 0 -3.433675056860116 -3.253385726153588 4.549105512877375 2 1 0
137 28 3 0 -3.059294417390542 -3.3127662214402274 4.717930574722063 1 0 -1
139 28 3 0 -2.8105760334564653 -3.59569328249051 4.108597349593005 1 0 -1
136 28 1 0 -2.741570853856272 -3.545127384048645 4.538623245756302 1 0 -1
140 28 3 0 -2.3381370529727845 -3.317423847833268 4.608451567712349 1 0 -1
451 117 4 0 -5.145174367162691 -2.694315238541598 4.242825591064543 1 0 0
450 117 4 0 -4.3361985197917035 -2.320291930480555 4.351428333203492 1 0 0
449 117 2 0 -4.751790933688637 -2.511617300936708 4.2966831497448865 1 0 0
279 60 4 0 -5.74725011140686 -1.5001338829640662 4.92633413148307 1 0 -1
446 116 2 0 -5.245791809946917 -1.2954791108299881 4.296578572731999 1 0 0
447 116 4 0 -5.101770956939921 -1.283227795539462 3.840027973142959 1 0 0
448 116 4 0 -5.402617691147311 -1.3035363562282356 4.765575063708891 1 0 0
59 12 3 0 -4.257379010287318 -1.9950824326694785 4.129987226274157 1 0 0
492 131 4 0 -5.824889130764575 -0.425784509784787 3.924912937002592 1 0 0
1255 385 4 0 -5.359021995858481 -5.242262045119323 5.031892613208237 2 1 0
1253 385 2 0 -5.1922102089887385 -5.646004416765322 5.270026390341233 2 1 0
168 34 3 0 -0.09582579446963546 -1.3047558040880398 3.9294552050062013 1 0 0
1108 336 4 0 -2.920431373416096 -4.924775763730323 5.651734058290465 2 1 -1
1023 308 4 0 -5.633594270228952 -5.632775332622914 0.7671147610956854 1 0 0
34 7 3 0 -5.654695740400692 -2.946282865459518 5.39342203374844 1 0 -1
844 248 4 0 -2.1661403352561615 -3.0558650887087353 4.901267538259397 1 0 -1
31 7 1 0 -5.349856908104839 -2.780444769030562 5.692151523848159 1 0 -1
32 7 3 0 -5.366652078748313 -2.309817533817607 5.695766968433478 1 0 -1
35 7 3 0 -4.893527765680889 -2.922434353051172 5.567453722669846 1 0 -1
832 244 4 0 -4.4914863790252495 -2.9920927037318603 5.5722150757840705 1 0 -1
830 244 2 0 -4.162445471454442 -2.7630427992211617 5.761428900952373 1 0 -1
1033 311 4 0 -0.012877430085031172 -1.717725202733531 3.966074780297907 1 0 0
107 22 3 0 -5.703286315915342 -5.432184006226584 0.40953853802043216 2 1 0
47 10 3 0 -3.933747777653112 -0.04855261680801526 1.8729942364369077 1 0 0
843 248 4 0 -2.523753859710783 -2.6327141150049598 5.608164440268661 1 0 -1
667 189 4 0 -5.839765258804994 -3.2862303590591737 5.505043689934364 2 1 -1
842 248 2 0 -2.3491181213463572 -2.8350405362399105 5.263297844462382 1 0 -1
36 8 1 0 -5.513181719965203 -1.1925507404036715 5.537637029602678 1 0 0
39 8 3 0 -5.271087013807422 -1.5417719181950584 5.657559404704049 1 0 0
37 8 3 0 -5.553995966527205 -1.185967935184105 5.104188495069053 1 0 0
964 288 4 0 -0.1455932348950304 -1.0434395835420816 5.806074600297693 1 0 -1
735 212 4 0 -5.041750691600579 -0.48629928675507195 5.669422384922747 1 0 0
40 8 3 0 -5.303674438474274 -0.8104652024294143 5.662300029606017 1 0 0
734 212 2 0 -4.652753151815613 -0.2613894436480484 5.664360215525415 1 0 0
1008 303 4 0 -5.230847302345731 -1.9373925894086987 5.806968080941209 1 0 0
1077 326 4 0 -5.795009448221396 -4.80384299045465 3.979140338980093 1 0 0
1236 379 4 0 -4.9228195628542455 0.6954001769406872 -5.583212694176225 2 0 1
846 249 4 0 -5.654773637455596 0.889538200762952 -5.417146203982924 2 0 0
695 199 2 0 -4.920500218169913 0.2395730733348591 -5.049435631035943 1 0 1
696 199 4 0 -5.094727523892107 0.3627598160051466 -5.427132137050327 1 0 1
135 27 3 0 -2.451098888242657 0.4738665367184236 -5.062703113860348 1 0 1
556 152 4 0 -2.230213511643813 0.6927084177792571 -5.33605389256836 1 0 0
554 152 2 0 -1.8756180266572038 0.9565556807460682 -5.321688450358154 1 0 0
957 286 4 0 -5.49361812474858 1.0759525603356908 -5.065742077742507 2 0 0
760 220 4 0 -4.722863757121878 2.0725376787815133 -5.2861035354344175 1 0 1
758 220 2 0 -4.381004682533187 2.0058459337115524 -4.984184863781189 1 0 1
749 217 2 0 -3.33906610929543 1.2404809466259925 -4.950604364601895 1 0 1
751 217 4 0 -3.2428503665516604 1.6652969109227467 -5.048316578774172 1 0 1
555 152 4 0 -1.4951232568758934 1.2389290424439228 -5.316142740086866 1 0 0
87 18 3 0 -1.1200479477099892 1.4067603771114179 -5.240235587673819 1 0 0
86 18 1 0 -0.9399835347555072 1.6357741729055721 -4.93468976331448 1 0 0
89 18 3 0 -0.5771092222333101 1.4545005868674616 -4.81922354950482 1 0 0
630 177 4 0 -0.0010055004394606826 1.9332122908399354 -2.631828480974896 1 0 0
250 50 3 0 -4.815476357996078 2.2429517143087185 -5.617952175404655 2 0 1
544 148 4 0 -2.888693554564424 2.246747010393088 -5.633615011643652 1 0 0
1095 332 4 0 -3.246346688689522 2.2857473340609005 -5.786854645575627 2 0 0
744 215 4 0 -0.017937765152074903 2.9750834778863773 -5.1971453084920975 1 0 1
542 148 2 0 -2.574605519853281 2.241876685578104 -5.267480021896865 1 0 0
90 18 3 0 -0.8584017131322064 2.037136555210486 -5.089098675928936 1 0 0
745 215 4 0 -0.7402403095643093 2.42619299857553 -5.069281019801844 1 0 1
743 215 2 0 -0.38097626074348145 2.7011989856258065 -5.137088151753716 1 0 1
644 182 2 0 -5.216797582232146 3.41539599170253 -5.661127721348204 2 0 0
645 182 4 0 -5.305630150981715 3.7764845823268907 -5.412217946473027 2 0 0
1092 331 4 0 -5.343224293519396 4.075320953441112 -5.150115907252359 2 0 0
1091 331 2 0 -5.05324946467035 4.105701363255722 -4.818475536773832 2 0 0
1161 354 4 0 -5.026970985591249 5.240264358713098 -5.053578104521242 2 0 0
615 172 4 0 -1.8584350744960565 0.023541352831648155 -2.0275459784810796 1 0 0
1338 413 4 0 -1.4056324230825972 4.427458956931863 -0.47249066449953503 2 0 0
697 199 4 0 -4.747220007463382 0.11481147829182348 -4.65530221326031 1 0 1
690 197 4 0 -4.375493598015184 0.1647766738976868 -4.506547236342499 1 0 1
689 197 2 0 -3.9254334486185405 0.3207214974414203 -4.562994846188408 1 0 1
691 197 4 0 -3.5332805475433995 0.4685952102396316 -4.609512327816548 1 0 1
750 217 4 0 -3.4521685666962 0.7749699584585796 -4.833157149758862 1 0 1
132 27 3 0 -3.138352368009202 0.526920998267693 -4.73679676764973 1 0 1
131 27 1 0 -2.757798841993504 0.260590964785802 -4.791379527712643 1 0 1
133 27 3 0 -2.559398888101077 0.19147708952604692 -4.384015546731063 1 0 1
657 186 4 0 -2.516292021640964 0.014451411956853732 -4.023070193095276 1 0 0
956 286 2 0 -5.37411904434095 1.437176216953195 -4.786338959837254 2 0 0
958 286 4 0 -5.244200534370917 1.7844367986292449 -4.518389026521091 2 0 0
1131 344 4 0 -3.9451887049945302 1.6705571354594833 -4.413503087466898 2 0 0
88 18 3 0 -1.2393575904585425 1.6594087324403661 -4.559909789258365 1 0 0
1249 383 4 0 -1.4602239204874063 1.897737895192031 -4.314569221481835 2 0 1
779 227 2 0 -1.569419142028086 1.1884251254928193 -3.996078833624783 1 0 1
780 227 4 0 -1.5128254920326905 1.5005263796552128 -4.309609934177782 1 0 1
541 147 4 0 -0.39114344232052556 1.3325615612926445 -4.485977957773664 1 0 0
539 147 2 0 -0.08844470438878282 1.2110836791769124 -4.171150508325779 1 0 0
1203 368 4 0 -5.460907495412059 2.3805018930217408 -3.7944170800688477 2 0 0
1339 413 4 0 -1.9038450584091002 5.047336762265692 -0.005150304376289938 2 0 0
759 220 4 0 -4.041147170674528 1.9417633483713583 -4.692160013103625 1 0 1
1197 366 4 0 -3.8661403624918513 2.043788085267062 -4.3367995251025375 2 0 0
1196 366 2 0 -3.7457483292047145 2.519241773305197 -4.243400421412184 2 0 0
543 148 4 0 -2.3025877242406 2.2404486081997437 -4.944752850497406 1 0 0
1248 383 4 0 -2.075635699556986 2.4108488049527583 -4.647034495682528 2 0 1
1247 383 2 0 -1.760158272679309 2.1543492592727347 -4.4759453911263325 2 0 1
672 191 4 0 -3.7793347531524155 3.258450311458052 -4.345512048596404 1 0 0
671 191 2 0 -4.082602125652228 3.6335767212590007 -4.391143619282009 1 0 0
1198 366 4 0 -3.645457017821487 2.928132958488508 -4.163836866219051 2 0 0
1093 331 4 0 -4.747501540769414 4.1417118479772785 -4.454893429367834 2 0 0
673 191 4 0 -4.3713312247071565 3.994884890007107 -4.423691938619504 1 0 0
1160 354 2 0 -5.469441168941367 5.277800103970677 -4.997279753340053 2 0 0
147 30 3 0 -4.564620018869953 0.44490415971185726 -0.12047585416906603 2 0 0
877 259 4 0 -2.210588260008079 5.674899293953777 -3.9045049825284095 1 -1 0
915 272 4 0 -1.9575345491969172 5.517920461642571 -3.6577349808347748 1 -1 0
650 184 2 0 -0.7708966168521352 5.7187009581588875 -4.691437753017804 1 0 0
651 184 4 0 -0.41097072143882585 5.62723147010184 -4.503745636872137 1 0 0
402 101 4 0 -0.02024957580501585 5.607431284514302 -4.547753178037818 0 -1 1
84 17 3 0 -0.17585476579382497 5.579926525633315 -4.172598033410583 1 0 0
656 186 2 0 -2.1236095976798577 0.2794553647151474 -3.88728005485466 1 0 0
658 186 4 0 -1.7968656065886135 0.5090823440026151 -3.779213443264683 1 0 0
1130 344 2 0 -3.811906070401072 1.486664816051226 -4.002999321460134 2 0 0
1132 344 4 0 -3.675298011750697 1.296794206643403 -3.5884962670618172 2 0 0
1192 364 4 0 -3.6497293406834217 1.5256492640906272 -3.259990574925809 2 0 0
1190 364 2 0 -3.398216086819352 1.8027635037849459 -2.9959190875344377 2 0 0
781 227 4 0 -1.6368585877985824 0.863992416619336 -3.659844320981545 1 0 1
1202 368 2 0 -5.021527552867991 2.3890629809028123 -3.8954352750021366 2 0 0
1204 368 4 0 -4.607407751860135 2.398523848443494 -3.9866161385291856 2 0 0
94 19 3 0 -5.711723197254137 3.4836561080425064 -3.0534916683122177 2 0 0
664 188 4 0 -5.31795525528837 3.4184883500183574 -3.0438235132211653 2 0 0
299 67 2 0 -0.80009524452558 3.8768746083649663 -3.1202902394098633 0 -1 0
300 67 4 0 -0.6024464904290925 4.291058871530609 -3.083038396624486 0 -1 0
960 287 4 0 -0.8997794059194577 4.548838080757246 -3.1249162204941037 1 -1 0
914 272 2 0 -1.883988304452791 5.223233775264106 -3.360752052051353 1 -1 0
916 272 4 0 -1.813811979640934 4.913885711192062 -3.042298425456186 1 -1 0
82 17 3 0 -0.3316503418146839 5.659221445000522 -3.4327817674014605 1 0 0
961 287 4 0 -0.5244763830130008 5.4297617512645555 -3.170173695824325 1 -1 0
959 287 2 0 -0.7072892499764203 4.999020584593069 -3.1514196085678226 1 -1 0
654 185 4 0 -5.554562846725595 0.9366945082480012 -2.4837221603013853 1 0 0
291 64 4 0 -5.166100617527291 1.0237888245642717 -2.4815503154814316 1 0 0
290 64 2 0 -4.747417292099747 1.0826511475663407 -2.287360841795254 1 0 0
582 161 4 0 -2.056965317535734 0.3293733794944451 -2.157863457601858 1 0 0
581 161 2 0 -2.0809265391725105 0.7968609970762355 -2.1120305463753373 1 0 0
1191 364 4 0 -3.14948389752325 2.0661751669176613 -2.735038391985115 2 0 0
67 14 3 0 -2.286106492912638 1.5814087194585094 -2.1859509115399924 1 0 0
66 14 1 0 -2.6175791723626674 1.9470418756613102 -2.157117382480619 1 0 0