LAMMPS data file via write_data, version 4 Feb 2025, timestep = 18500000, units = lj

6000 atoms
4 atom types
4500 bonds
1 bond types
5250 angles
2 angle types

-12.037717 12.037717 xlo xhi
-12.037717 12.037717 ylo yhi
-12.037717 12.037717 zlo zhi
0 0 0 xy xz yz

Masses

1 1
2 1
3 0.1
4 0.1

Bond Coeffs # harmonic/omp

1 100 0.45

Angle Coeffs # harmonic/omp

1 100 180
2 100 109.471

Atoms # full

60 12 3 0 -11.329378059162808 -11.495421200244651 -11.387638951205245 6 0 0
56 12 1 0 -11.123252299037976 -11.256896877584804 -11.716556190609777 6 0 0
148 30 3 0 -6.306577866315013 -11.176513879207935 -11.991002044698067 6 0 0
5735 1412 4 0 -5.620955428810861 -11.76474782999378 -11.89617366060145 15 1 1
5734 1412 2 0 -5.207595450380012 -11.718819311292776 -11.696118229921407 15 1 1
5736 1412 4 0 -4.788610501978722 -11.66640867896346 -11.490186604879055 15 1 1
3427 686 3 0 -4.5045362214303815 -11.753786354445845 -11.217330919504784 15 1 1
3429 686 3 0 -4.146116030926325 -11.114773758603546 -11.234812359166058 15 1 1
814 163 3 0 -2.669077724293352 -11.197210025278078 -11.445146424962026 6 0 1
813 163 3 0 -2.2150702746060453 -11.425025531940527 -11.953002153952506 6 0 1
1496 300 1 0 10.892959286421696 -11.251730277206029 -11.60862992098688 4 0 1
1499 300 3 0 11.072910381699437 -11.271474604181684 -11.177675932486704 4 0 1
1498 300 3 0 10.748842352362558 -11.672781594713262 -11.723394853903962 4 0 1
1497 300 3 0 11.219337873309037 -11.112862836885286 -11.909510296179018 4 0 1
57 12 3 0 -11.410055793255518 -10.961284092781971 -11.875558283074064 6 0 0
4668 1056 4 0 -11.731471752859957 -10.70700722406292 -11.86195758071871 4 0 1
59 12 3 0 -10.757083140406865 -11.034093502432025 -11.529827199489493 6 0 0
4403 968 4 0 -10.371805347430621 -11.099614890036948 -11.567893863351044 4 0 1
4402 968 2 0 -10.182294960350712 -10.907919941789276 -11.231654036173634 4 0 1
5197 1233 2 0 -8.208895988218767 -10.99072837670031 -11.374692515001508 16 1 0
5198 1233 4 0 -8.451898849884941 -10.95186847624965 -11.791060679009718 16 1 0
811 163 1 0 -2.3820721869519357 -11.081530332058332 -11.794003617274507 6 0 1
812 163 3 0 -2.042851058975124 -10.808632810725314 -11.629650508468636 6 0 1
4646 1049 4 0 -1.8040494959245432 -10.759845356682222 -11.298338756492884 6 0 1
1500 300 3 0 10.54943020132875 -10.952490190330247 -11.611783933365784 4 0 1
4666 1056 2 0 11.883556019572406 -10.740830367272908 -11.84919123244951 3 0 1
4667 1056 4 0 11.446735965720851 -10.7747820043514 -11.840503632105534 3 0 1
4048 850 2 0 10.5506399601474 -9.918546357322475 -11.9720733739725 3 0 0
4049 850 4 0 10.843098486799882 -9.74685896556835 -11.66947464966809 3 0 0
2887 578 3 0 10.866371006132098 -9.373033861831098 -11.54739230788774 5 0 1
652 131 3 0 -8.809542216421116 -8.34196726090639 -11.250759096614898 5 0 0
653 131 3 0 -8.445337214614929 -8.976559183053634 -11.340093396283851 5 0 0
3143 629 3 0 7.99325717918472 -8.609556109617026 -11.684587291656765 15 1 1
5673 1391 4 0 7.633846383704878 -8.430561167593078 -11.579449150768045 12 1 1
3144 629 3 0 7.749081649880683 -9.202813450898056 -12.027583156202665 15 1 1
4754 1085 4 0 10.913766077728699 -8.41777226477976 -11.226521219288149 3 0 1
2890 578 3 0 11.112510490322439 -8.727597977892318 -11.33614119748826 5 0 1
2886 578 1 0 11.153402256697987 -9.039952141704282 -11.632435051430559 5 0 1
2888 578 3 0 11.563018892875593 -9.192639734764201 -11.626287920053752 5 0 1
3760 754 2 0 -11.913765082984387 -7.527834603421775 -11.581348054321397 4 0 0
3762 754 4 0 -11.663501959287258 -7.793764953980537 -11.84902445276594 4 0 0
5671 1391 2 0 7.7471724632016965 -8.219575424300182 -11.172853219365349 12 1 1
5144 1215 4 0 9.063148960185611 -7.677102343182698 -11.181718857021325 12 1 0
5143 1215 2 0 9.458063942390194 -7.50132070775606 -11.369388034702817 12 1 0
4753 1085 2 0 10.879321751113686 -7.992547519112558 -11.21295165633949 3 0 1
4755 1085 4 0 10.866222576869433 -7.57220587625382 -11.200667090098216 3 0 1
571 115 1 0 -11.184548152925391 -6.520580970700225 -11.871348892987028 7 0 0
575 115 3 0 -11.041997267765652 -6.8028598765615165 -11.558328087535987 7 0 0
1420 284 3 0 -8.909549765312018 -6.918361939313333 -11.719712592836434 5 0 1
5145 1215 4 0 9.838637289814717 -7.351683284132405 -11.547720559521103 12 1 0
352 71 3 0 10.077989909169315 -7.172902935659779 -11.81522325825731 3 0 0
351 71 1 0 10.19143801285027 -6.75223310786276 -11.78839568362045 3 0 0
355 71 3 0 10.10219426197315 -6.594770545004579 -11.348172060067645 3 0 0
2034 407 3 0 11.00346539921011 -7.187655418770109 -11.208332501336649 14 1 0
353 71 3 0 10.648675636842587 -6.699774144116439 -11.906060473707376 3 0 0
2033 407 3 0 11.104599339896012 -6.586864917198248 -11.602702876902745 14 1 0
3761 754 4 0 11.935426144311446 -7.295356313782735 -11.33498716628539 3 0 0
2032 407 3 0 11.690907702023626 -7.016814110322835 -11.49140326963634 14 1 0
2031 407 1 0 11.289981046899502 -6.8457226589729885 -11.31634525442383 14 1 0
573 115 3 0 -11.450100463163993 -6.20161870853307 -11.70071052255946 7 0 0
514 103 3 0 -7.919690152812537 -5.8990243317621545 -11.216051169901862 11 0 0
4089 863 4 0 9.949882480072901 -6.241532306938819 -11.234887534412197 3 0 0
511 103 1 0 -8.137562954679977 -5.534700922953917 -11.292353639101057 11 0 0
515 103 3 0 -8.260885669661073 -5.525227354501461 -11.725115358933516 11 0 0
513 103 3 0 -7.878052047300307 -5.180269052191335 -11.201126180494736 11 0 0
1625 325 3 0 -3.0088937954219954 -3.8557619089316866 -11.953531156261425 7 0 1
410 82 3 0 10.79365639541021 -4.1714383411139835 -11.79893005374774 6 0 0
406 82 1 0 10.744712962559422 -3.7621111459656973 -11.641294729646814 6 0 0
408 82 3 0 10.413406164935726 -3.7555017395329493 -11.320813806007429 6 0 0
1961 393 1 0 -5.590452967275178 -3.0076283700532347 -11.215506710673562 6 0 1
1965 393 3 0 -5.62077412771005 -3.394181033597862 -11.437875656368448 6 0 1
1624 325 3 0 -3.1846379483033918 -3.211253012161876 -11.717515236220013 7 0 1
1623 325 3 0 -2.5117627410174475 -3.4253185419803316 -11.652109889730717 7 0 1
1621 325 1 0 -2.8735686399268623 -3.4357627482012916 -11.904995257681293 7 0 1
409 82 3 0 10.622468761350675 -3.463695692002677 -11.997444865052525 6 0 0
407 82 3 0 11.14511960518485 -3.6129497448967314 -11.45437331170803 6 0 0
4274 925 4 0 10.425744787419102 -3.383040396551408 -11.16801910178731 6 0 0
5127 1209 4 0 -5.847374963054634 -2.6476181449635554 -11.829280767775552 6 0 0
1964 393 3 0 -5.557471004631216 -2.664945197379147 -11.534474535089931 6 0 1
618 124 3 0 -4.17688962711733 -2.020163797345484 -11.383564922652761 9 0 0
669 134 3 0 -6.84953499550268 -1.2528285792725544 -11.387886877412592 8 0 0
668 134 3 0 -7.397159480787091 -1.6715822751752238 -11.227907537057952 8 0 0
3397 680 3 0 -5.493849432128597 -0.9953899746409363 -11.99522565619374 11 0 1
616 124 1 0 -4.226870454085557 -1.6230979682003834 -11.250641312936962 9 0 0
619 124 3 0 -4.517890952753926 -1.415744400770917 -11.501999254366781 9 0 0
620 124 3 0 -3.805525511992654 -1.3821377547122733 -11.277448590806532 9 0 0
192 39 3 0 -10.23757900039168 -0.3903194942231636 -11.825844021464466 11 0 0
195 39 3 0 -9.68788215496433 -0.3802916358049071 -11.31738509516942 11 0 0
191 39 1 0 -9.96726037933892 -0.12631193258809148 -11.563474881100847 11 0 0
5112 1204 4 0 -9.320348991768924 -0.03553679677213317 -11.913844476377635 10 0 0
4884 1128 4 0 -9.29771542433015 -0.32202530522961226 -11.221534218472534 11 0 0
380 76 3 0 4.305649423959636 -0.7706905219952738 -11.677579044994287 9 0 0
4608 1036 4 0 5.114037905779849 -0.330493127331712 -11.875075821378715 11 0 1
4606 1036 2 0 5.5307983423017255 -0.15207089416313124 -11.956166512577672 11 0 1
3861 787 4 0 -10.93824671851326 -11.553372388842291 -10.427411907890452 4 0 0
3859 787 2 0 -10.640034610096851 -11.866275554822682 -10.55922304702811 4 0 0
2162 433 3 0 -7.117073939039503 -11.312894593028423 -10.276744441398842 17 1 0
2163 433 3 0 -6.970472670352107 -11.246385845138242 -11.032505757390954 17 1 0
2161 433 1 0 -7.297673428409616 -11.349300937815212 -10.71689369512243 17 1 0
2164 433 3 0 -7.442286314399267 -11.764972950670417 -10.77121540239417 17 1 0
3430 686 3 0 -4.458710190275524 -11.333962787211336 -10.586099991128343 15 1 1
3426 686 1 0 -4.241121181889855 -11.475591927679291 -10.986749122511899 15 1 1
3428 686 3 0 -3.8420970503510894 -11.68319183252004 -10.883445234945338 15 1 1
4850 1117 4 0 -3.832229247989881 -12.02625505538031 -10.630814307587713 17 1 0
4647 1049 4 0 -1.6859414839763271 -11.248517219115572 -10.549575184420728 6 0 1
1717 344 3 0 9.279476312490594 -11.163949219251855 -10.934329670493677 3 0 1
1720 344 3 0 9.857617151471462 -11.537169524882007 -10.66296347932264 3 0 1
4434 978 4 0 9.953145455391056 -11.914973577501408 -10.609707207036033 4 0 1
1716 344 1 0 9.5346936297938 -11.23183831284513 -10.567994899076664 3 0 1
4469 990 4 0 11.186442823712913 -11.571821798393733 -10.891521901398649 5 0 1
4468 990 2 0 11.546322305287006 -11.621648677761916 -10.61680040128136 5 0 1
4470 990 4 0 11.923128885249085 -11.673062452386041 -10.330428969028913 5 0 1
482 97 3 0 -10.128888090091829 -10.448465868360843 -10.573876948099736 4 0 0
4404 968 4 0 -9.975773734572721 -10.707023848919114 -10.88156477395246 4 0 1
5199 1233 4 0 -7.964991375481986 -11.03314132382284 -10.96605643280545 16 1 0
2165 433 3 0 -7.627653614279991 -11.06367282308134 -10.762754077154803 17 1 0
4645 1049 2 0 -1.7432314150918131 -10.998939095579907 -10.920167309177293 6 0 1
3268 654 3 0 9.276694098109441 -10.284631570419462 -10.340656282033812 13 1 1
1718 344 3 0 9.724134507953316 -10.858228459629746 -10.443583620318433 3 0 1
332 67 3 0 -11.3423201413045 -9.471966151489347 -10.29359194510493 3 0 0
655 131 3 0 -9.160695554226566 -8.983783654862481 -11.118946587032443 5 0 0
651 131 1 0 -8.759099952706054 -8.760336567423703 -11.092300774298716 5 0 0
5159 1220 4 0 -8.96293842068909 -8.552100127364506 -10.534761752347926 15 1 0
654 131 3 0 -8.61831040700597 -8.745596146404019 -10.655514368198224 5 0 0
5672 1391 4 0 7.86164166478051 -8.012158375715696 -10.759514499446233 12 1 1
439 88 3 0 8.180770793160345 -7.91084167043884 -10.57009802042999 3 0 0
3992 831 4 0 7.921034958133056 -8.169268268527459 -10.415643066795775 4 0 0
436 88 1 0 8.631582817786018 -7.8715962710720655 -10.546564881091152 3 0 0
437 88 3 0 8.737096640560793 -7.477016846365532 -10.368163927558394 3 0 0
438 88 3 0 8.80906507191824 -8.213808854967516 -10.291606534045613 3 0 0
440 88 3 0 8.79801675812148 -7.890816255768002 -10.960081334589866 3 0 0
4564 1022 2 0 -11.920155004413825 -6.699901165887757 -10.572462144324984 5 0 1
4565 1022 4 0 -11.496800794117974 -6.704451066072297 -10.375319507835284 5 0 1
644 129 3 0 -11.157564616390315 -6.566238194205283 -10.489651155477452 5 0 0
5284 1262 2 0 -7.97577129810653 -6.587047879886301 -10.664376485621027 15 1 0
5285 1262 4 0 -8.00761170906717 -6.968342233469375 -10.41393248994345 15 1 0
1412 283 3 0 -8.128776332157425 -7.343523527899382 -10.462851017199064 4 0 1
2035 407 3 0 11.388230421368398 -6.600254551152846 -10.9377629960265 14 1 0
4566 1022 4 0 11.762043871923744 -6.695120304248775 -10.760021053714723 4 0 1
645 129 3 0 -10.471623485130907 -6.246738893611472 -10.318171663957735 5 0 0
642 129 3 0 -11.076071258794839 -5.780124298514168 -10.437845145533592 5 0 0
641 129 1 0 -10.93028918404769 -6.205334609210812 -10.263282713931323 5 0 0
5286 1262 4 0 -7.9435269214877495 -6.194218237118848 -10.918307299139148 15 1 0
4087 863 2 0 9.873863392283425 -6.018720587040883 -10.86616468126683 3 0 0
4088 863 4 0 9.7901652229084 -5.7793264799328785 -10.470776283895649 3 0 0
512 103 3 0 -8.500045917551283 -5.528335993616393 -11.042437885389063 11 0 0
5007 1169 4 0 -7.4866794521150455 -5.1914090463856555 -11.083021262636615 5 0 0
5005 1169 2 0 -7.28623552584023 -4.881919887723075 -10.790551312053864 5 0 0
5006 1169 4 0 -7.107032479391073 -4.584128110642796 -10.50851100636601 5 0 0
1963 393 3 0 -5.968185408903694 -2.947641756271798 -10.96288708650699 6 0 1
1962 393 3 0 -5.22650556628032 -3.017729830563214 -10.952010107465837 6 0 1
4275 925 4 0 10.139452027638907 -3.0463962054916287 -10.370257576839599 6 0 0
4273 925 2 0 10.283724123067 -3.22076673740721 -10.77226975833707 6 0 0
1680 336 3 0 -11.434198951302271 -2.7220273042206333 -10.293182878451185 10 0 1
4144 882 2 0 -7.8741480927048375 -2.1560986727828535 -10.764379761001873 11 0 0
4145 882 4 0 -8.142584422391373 -2.3818379333186197 -10.493237369785705 11 0 0
4146 882 4 0 -7.606064075686622 -1.9357666868013315 -11.034087586760377 11 0 0
670 134 3 0 -6.782694027219457 -1.7890881486057424 -10.90058186575272 8 0 0
666 134 1 0 -7.053255255739386 -1.4805837313767132 -11.061369540712725 8 0 0
667 134 3 0 -7.169193019345063 -1.1980325716821678 -10.73740951440612 8 0 0
3839 780 4 0 -7.272342279706832 -1.1391586817922423 -10.353509758386782 7 0 0
617 124 3 0 -4.366758465910467 -1.6260660035552164 -10.835722020559334 9 0 0
4218 906 4 0 -4.410927333724411 -1.4625252987568356 -10.45923172574971 8 0 0
5802 1434 4 0 -10.930587260568899 -0.17212548437113284 -10.378495233624468 11 0 1
4882 1128 2 0 -9.03576818116285 -0.4562613564470297 -10.901199203848918 11 0 0
4883 1128 4 0 -8.782895775571737 -0.5748573452041299 -10.611349669430036 11 0 0
3933 811 4 0 -8.530567829925081 -0.36130729323901356 -10.38932685226586 11 0 0
3931 811 2 0 -8.146216421676083 -0.09230118480222771 -10.290153480778578 11 0 0
938 188 3 0 -11.957023933814199 -11.925987004727697 -10.104670227539208 3 0 1
936 188 1 0 -11.646462671880117 -11.61819985059008 -10.005004455526539 3 0 1
939 188 3 0 -11.554703783944342 -11.63982987430732 -9.553835820740211 3 0 1
940 188 3 0 -11.802395416261419 -11.216180509826973 -10.097177850683334 3 0 1
937 188 3 0 -11.258735438550534 -11.699650513946 -10.246701230648315 3 0 1
4581 1027 4 0 -10.735977401276289 -11.96509808632066 -9.532844766412335 5 0 1
4995 1165 4 0 -7.351472655523262 -11.292128859593836 -9.95144355916776 17 1 0
4993 1165 2 0 -6.975144663798419 -11.284347051824959 -9.68617622613162 17 1 0
2710 542 3 0 -6.252900450081232 -11.4992037015664 -9.557031618916271 17 1 0
4994 1165 4 0 -6.582134751396423 -11.27670912636066 -9.41142596244702 17 1 0
2709 542 3 0 -5.906783658499745 -11.750178909209932 -10.16982391552666 17 1 0
2706 542 1 0 -5.8571646251670915 -11.609988554448861 -9.723687527315908 17 1 0
2708 542 3 0 -5.579934259681378 -11.268988232547539 -9.704817480528424 17 1 0
2707 542 3 0 -5.684843866033891 -11.949980847485095 -9.484426956925857 17 1 0
4719 1073 4 0 -4.47668187761413 -11.292556274095885 -10.18356677631883 13 1 1
4717 1073 2 0 -4.863906935043354 -11.167696423465861 -9.980824676102552 13 1 1
3702 741 3 0 -2.33592857751664 -11.178469522734668 -9.884423565333561 16 1 1
4164 888 4 0 -1.9373176162150543 -11.689759361694259 -9.450030732351564 6 0 0
3703 741 3 0 -1.6702551075274954 -11.45137509431571 -9.62067291297284 16 1 1
1285 257 3 0 1.4710012135416566 -11.543232978165033 -10.143325984590728 5 0 0
1281 257 1 0 1.7167622561089786 -11.430531556000167 -9.807945549403017 5 0 0
1284 257 3 0 1.6032822867509182 -11.693757396805436 -9.438393607294 5 0 0
1283 257 3 0 2.15956807326379 -11.484647638286972 -9.910762072428362 5 0 0
4743 1081 4 0 2.283458686983918 -11.84300444393894 -9.75679993526097 4 0 1
1719 344 3 0 9.278656986511812 -11.385889788819606 -10.239494956213514 3 0 1
4526 1009 4 0 9.367498119191332 -11.729298731524397 -10.028824634254988 4 0 1
3775 759 2 0 -12.032499373379043 -10.595481836209842 -10.03809625368249 4 0 0
3776 759 4 0 -11.880423619684604 -10.197818592355622 -9.952741314072043 4 0 0
485 97 3 0 -10.246919230520167 -10.66614097267724 -9.933828191091974 4 0 0
481 97 1 0 -10.215947807596645 -10.326011422650827 -10.173569496627046 4 0 0
4718 1073 4 0 -5.231537585467076 -11.055217862713 -9.791161789905802 13 1 1
1904 381 3 0 -3.2246492035564884 -10.866477337476374 -10.244544800881586 4 0 1
1902 381 3 0 -3.5666787157462796 -10.643853319956408 -9.59895594679257 4 0 1
1901 381 1 0 -3.1479044426026626 -10.73252477480105 -9.823551377170691 4 0 1
1903 381 3 0 -2.9316736349289663 -11.051365007739797 -9.598709303628278 4 0 1
1905 381 3 0 -2.8803774391279937 -10.331796831518387 -9.827739608584926 4 0 1
3701 741 1 0 -1.886043388888126 -11.093047458852526 -9.839875694013035 16 1 1
3704 741 3 0 -1.71940644235484 -11.034433911798867 -10.232250216595466 16 1 1
3705 741 3 0 -1.8292024755241307 -10.735441661187908 -9.613628544159488 16 1 1
1282 257 3 0 1.6442548688308847 -10.99595545045075 -9.699590122224093 5 0 0
3270 654 3 0 9.184272713807562 -10.463613627939345 -9.594337366721263 13 1 1
3777 759 4 0 11.883781954541327 -11.002009177084227 -10.113070551986159 3 0 0
335 67 3 0 -11.872416693494024 -9.80291508608195 -9.949280824845037 3 0 0
331 67 1 0 -11.548562096075202 -9.51489044273787 -9.908988232092222 3 0 0
333 67 3 0 -11.266410850295804 -9.670827866898321 -9.596045097583904 3 0 0
484 97 3 0 -10.60225316190586 -10.112626208172921 -10.163080057648626 4 0 0
5675 1392 4 0 -9.50878304299858 -9.935914446472944 -9.923539007499171 13 1 1
483 97 3 0 -9.884778224692521 -10.055763012308534 -10.021837792589023 4 0 0
5674 1392 2 0 -9.388432189870237 -9.933565265064018 -9.465650190392951 13 1 1
3698 740 3 0 1.8004478377126638 -9.758440219836901 -9.47181986248786 13 1 1
3696 740 1 0 2.162955245966108 -9.816720808267094 -9.726342019403367 13 1 1
3699 740 3 0 2.0982948384800384 -10.18029536853986 -9.978447297960152 13 1 1
3697 740 3 0 2.220526947364851 -9.469536580443604 -9.98353777643226 13 1 1
3700 740 3 0 2.5001187389782604 -9.874552588739084 -9.474028320101748 13 1 1
3267 654 3 0 9.213878781869631 -9.74212940545411 -9.794680618804065 13 1 1
3957 819 4 0 9.24415301546333 -9.336451629854494 -9.811748438910389 3 0 0
3266 654 1 0 9.371584850112267 -10.160820437765684 -9.877054632895183 13 1 1
3269 654 3 0 9.798388608304421 -10.163177851348571 -9.821135985038847 13 1 1
334 67 3 0 -11.706509240896212 -9.131074089506825 -9.775590842732756 3 0 0
4301 934 4 0 -11.891682991433553 -8.770047206861921 -9.811511981959134 5 0 0
4300 934 2 0 -11.90487083730602 -8.509603895633422 -9.416547330595687 5 0 0
5158 1220 2 0 -9.279366113367702 -8.401070474167396 -10.20528580727065 15 1 0
3310 662 3 0 6.622699440388775 -8.470996035097048 -9.368784438709284 12 1 1
3993 831 4 0 7.486356487330376 -8.357767761500108 -9.666201664154471 4 0 0
3956 819 4 0 9.004450390946964 -8.515859894521645 -10.092306308226787 3 0 0
3955 819 2 0 9.125665201341736 -8.941591089683866 -9.943604181630096 3 0 0
164 33 3 0 -10.54469290523528 -7.753189967128334 -9.669164507902325 4 0 0
5160 1220 4 0 -9.592360634545882 -8.246001176368171 -9.875629853690278 15 1 0
161 33 1 0 -10.168231117093573 -7.776276631190942 -9.48626176565872 4 0 0
163 33 3 0 -9.923802863520178 -8.07319732565147 -9.687729335872044 4 0 0
1415 283 3 0 -8.553579489003754 -7.825159026388203 -10.105410507533438 4 0 1
1411 283 1 0 -8.1415007190886 -7.65782303033706 -10.133405926636959 4 0 1
1414 283 3 0 -8.032642526871758 -7.471403068674427 -9.742267412827477 4 0 1
1413 283 3 0 -7.856529482000937 -7.987043073636791 -10.226133494070977 4 0 1
3991 831 2 0 7.697867827507473 -8.270730112092062 -10.027898695281724 4 0 0
5853 1451 4 0 7.721685232884365 -8.219172074623572 -9.37340769853715 13 1 1
165 33 3 0 -9.966097068030864 -7.36450443705735 -9.521707079019917 4 0 0
643 129 3 0 -11.026814362925492 -6.227151665741471 -9.827270213554758 5 0 0
157 32 3 0 9.512416845736926 -5.958813406713799 -9.686307419504374 8 0 0
2514 503 3 0 -8.877514428693429 -5.08281060230459 -9.399375926507009 14 1 0
3282 657 3 0 2.1277315232980136 -5.086722676964317 -9.506474841810478 14 1 1
3281 657 1 0 2.1168091718844906 -4.660736386498273 -9.501441849507277 14 1 1
158 32 3 0 9.178602789066016 -5.336459886285101 -9.965680865040403 8 0 0
160 32 3 0 9.859050238759856 -5.52268911662208 -10.19185862185218 8 0 0
156 32 1 0 9.580840936750207 -5.52371433576159 -9.840605785277944 8 0 0
159 32 3 0 9.772629296181133 -5.2709573200590345 -9.507685979260442 8 0 0
714 143 3 0 -7.59113805051873 -4.546248160387642 -9.772366455527488 6 0 0
715 143 3 0 -7.66759561346937 -3.978360664690987 -10.217414951429767 6 0 0
713 143 3 0 -7.022832146207792 -4.357314403506952 -10.176270590813717 6 0 0
711 143 1 0 -7.378666379731994 -4.216122895914593 -9.941477858143077 6 0 0
712 143 3 0 -7.241078936310598 -3.956678360185485 -9.6156307668792 6 0 0
3285 657 3 0 1.758908794998531 -4.516273288720662 -9.72476302028684 14 1 1
3284 657 3 0 2.487157032499706 -4.494718853723976 -9.689731618285846 14 1 1
1677 336 3 0 -11.61130775834312 -2.9369927966063507 -9.596467741815067 10 0 1
1479 296 3 0 -8.361922159590069 -3.088361350151306 -9.636591280215603 7 0 1
1477 296 3 0 -7.6775047088581525 -2.792098735542755 -9.756665695489065 7 0 1
2247 450 3 0 10.160337790462382 -3.180087861494126 -9.99848553256549 10 0 0
2250 450 3 0 10.16158440894942 -2.7815175084751047 -9.408507549506162 10 0 0
2246 450 1 0 10.360341979834427 -3.1169888332241023 -9.632922738859488 10 0 0
2249 450 3 0 10.804178438308238 -3.017754461874331 -9.702968323487498 10 0 0
2248 450 3 0 10.33474055390261 -3.5066332593505454 -9.376230569961606 10 0 0
1676 336 1 0 -11.59421870190332 -2.576290640099481 -9.887440403391947 10 0 1
1679 336 3 0 -11.322739264311954 -2.2740136774548105 -9.725019517240897 10 0 1
1678 336 3 0 -12.011910560133977 -2.3876670035088328 -9.946738999046977 10 0 1
4944 1148 4 0 -11.091588004846317 -1.936352403185527 -9.798377646192764 10 0 0
1478 296 3 0 -8.259517443326347 -2.588581452292628 -10.164402260961326 7 0 1
1476 296 1 0 -8.140134883825834 -2.7127955300530555 -9.75652364214318 7 0 1
1480 296 3 0 -8.228666745734959 -2.398639582395374 -9.472435806381624 7 0 1
4217 906 4 0 -4.011761475645178 -1.8520397745559354 -9.75362440932854 8 0 0
3990 830 4 0 11.831879801619113 -2.2520620879300086 -9.644296587925108 10 0 0
3988 830 2 0 11.707254820194873 -1.9021495537163542 -9.369667072028555 10 0 0
4942 1148 2 0 -10.930258791043943 -1.8425145422904148 -9.372312016425049 10 0 0
2369 474 3 0 -8.711906201958703 -1.1137472058906503 -9.725050978406536 12 0 0
4149 883 4 0 -8.314952499619507 -1.1782090858041574 -9.701982386685222 3 -1 0
4147 883 2 0 -8.295855485419013 -1.6015555628609253 -9.53093790531952 3 -1 0
3838 780 2 0 -7.020285642883941 -1.2009398578072847 -9.944682574102094 7 0 0
3840 780 4 0 -6.796738692654552 -1.2573307121952286 -9.576929224747053 7 0 0
3213 643 3 0 -6.296744460016183 -1.8449836156827377 -9.390595010425757 11 0 1
4216 906 2 0 -4.201586303248631 -1.6617173239699703 -10.094004609903159 8 0 0
5148 1216 4 0 -11.45394643856983 -0.6650638834710207 -9.43867900448018 11 0 0
2507 502 3 0 -11.02031528251332 -0.010917811995319937 -10.029716546510498 11 0 0
2508 502 3 0 -11.095018289230826 -0.44603013222007526 -9.39551873545172 11 0 0
2506 502 1 0 -11.005928474294336 -0.007937586606102442 -9.560715424898012 11 0 0
5326 1276 2 0 -9.788727534152105 -0.16009228797307173 -9.602554739237169 11 0 0
5328 1276 4 0 -9.376437239728803 -0.33016040351284026 -9.643611058537205 11 0 0
2367 474 3 0 -9.344935589754787 -0.7316073346163989 -9.696202117585315 12 0 0
2366 474 1 0 -8.904787875043437 -0.706053247207139 -9.781038365584141 12 0 0
2370 474 3 0 -8.850350083027298 -0.5634139567673699 -10.216287105696509 12 0 0
2368 474 3 0 -8.7048553351367 -0.3884165674528557 -9.481644783064834 12 0 0
2547 510 3 0 -6.84923021341189 -0.0022521812169351563 -9.937417264406909 11 0 0
1883 377 3 0 -11.373958299491388 -11.70312527887433 -8.86379753547573 7 0 1
1882 377 3 0 -10.72540029174606 -11.727921720427327 -9.217268113528993 7 0 1
1881 377 1 0 -10.956971574736666 -11.529968700297736 -8.877804368616488 7 0 1
3774 758 4 0 -6.3415774374500655 -11.48385074984823 -9.164818712568104 6 0 0
3772 758 2 0 -6.366350758421903 -11.265034609686206 -8.781066309969816 6 0 0
4162 888 2 0 -1.7461339520968693 -11.92200925788335 -9.097075483116772 6 0 0
1583 317 3 0 0.21171742374441038 -11.523736344532171 -9.091918101848613 5 0 1
5411 1304 4 0 0.31771909187286873 -11.91199961911525 -9.025674047331691 16 1 0
1582 317 3 0 0.8284427330432642 -11.239219298068225 -9.340269607788397 5 0 1
1581 317 1 0 0.4901615599134974 -11.192489395478379 -9.041862560618089 5 0 1
1584 317 3 0 0.6529435321187336 -11.1874345375808 -8.617367676522456 5 0 1
4247 916 4 0 0.9585184516741592 -11.409682535224583 -8.507821012545964 5 0 0
3852 784 4 0 1.7112017526826921 -11.971672174104079 -9.186046949394154 7 0 0
5462 1321 4 0 3.8234454409577356 -11.482576482745207 -8.792992927255538 15 1 1
1408 282 3 0 3.477727135935803 -11.530478612279264 -8.589156372227443 4 0 1
5461 1321 2 0 4.184647577212768 -11.677612942906523 -9.05653147270079 15 1 1
5463 1321 4 0 4.502149769837249 -11.853969318136311 -9.29700687358636 15 1 1
455 91 3 0 5.506295217854241 -11.83030650460252 -9.322404249813415 3 0 0
4629 1043 4 0 -10.875237473007743 -10.703295895465768 -9.090910895008621 3 0 1
1885 377 3 0 -10.990211369731085 -11.06413824353005 -8.957544405832033 7 0 1
4627 1043 2 0 -11.080387134769639 -10.329398224367893 -9.184827983728955 3 0 1
1585 317 3 0 0.27202746876604067 -10.790984990444084 -9.12110136514011 5 0 1
5142 1214 4 0 3.019012057983277 -10.560936581791365 -8.596434120427968 13 1 0
5140 1214 2 0 2.833750432615126 -10.272198974137925 -8.835925877435335 13 1 0
4628 1043 4 0 -11.278338753485109 -9.94731572271554 -9.277757352327349 3 0 1
5676 1392 4 0 -9.27930636802648 -9.935480419877285 -9.03705871837798 13 1 1
3275 655 3 0 -8.940903730195094 -9.804925869934745 -8.911322880569799 14 1 1
3271 655 1 0 -8.724264832002465 -9.81237862697489 -8.528672826719836 14 1 1
5450 1317 4 0 -7.966674490842438 -9.54903092857652 -8.56184820983421 17 1 0
3272 655 3 0 -8.391578004640637 -9.515394364995803 -8.534629398916582 14 1 1
5141 1214 4 0 2.619024076664953 -9.946151370876796 -9.113107579305625 13 1 0
152 31 3 0 9.84197585608728 -9.968223909517214 -8.791215500112058 3 0 0
151 31 1 0 10.01773105408374 -9.618345003996899 -8.56780197320182 3 0 0
4197 899 4 0 10.87667806085426 -9.688945220383044 -8.574690689728403 4 0 0
154 31 3 0 10.50170998920515 -9.63082810577216 -8.60820876577427 3 0 0
750 150 3 0 -11.421276389568987 -9.066089244470634 -8.488505985845201 4 0 1
4915 1139 2 0 -10.591236804714772 -8.862967360963117 -8.53765124514455 15 1 0
4916 1139 4 0 -11.078641035247426 -8.845326439564573 -8.569396298718273 15 1 0
4917 1139 4 0 -10.13385151321727 -8.877429185234488 -8.500206673899418 15 1 0
96 20 1 0 -9.51957523844368 -8.505478835954504 -8.751770988968142 5 0 0
99 20 3 0 -9.58438423113092 -8.659216497913949 -9.162958239290838 5 0 0
100 20 3 0 -9.091474107640664 -8.557699867760224 -8.64497266371371 5 0 0
3309 662 3 0 7.366185335250492 -8.40448498157152 -9.27068748835107 12 1 1
3308 662 3 0 6.903685202435888 -8.338669151122577 -8.699269760023823 12 1 1
3307 662 3 0 7.008681090951107 -8.993062768796728 -8.993834931643363 12 1 1
3306 662 1 0 6.973707587111921 -8.549548219479227 -9.078492150943738 12 1 1
155 31 3 0 9.863671187057989 -9.230305947043705 -8.743897999308677 3 0 0
4731 1077 4 0 10.123516975522577 -9.043879882074949 -8.991869680320244 3 0 1
4729 1077 2 0 10.459363814953978 -8.748270739911607 -9.037052190314014 3 0 1
4730 1077 4 0 10.80061689213364 -8.437268117978537 -9.076413128701015 3 0 1
4302 934 4 0 -11.91651973521457 -8.24152502461754 -9.028276713546253 5 0 0
97 20 3 0 -9.635696630731353 -8.068051449620292 -8.727136033479942 5 0 0
162 33 3 0 -10.216038180524562 -7.899305498319702 -9.045656940307428 4 0 0
4265 922 4 0 -8.124883973428226 -7.416417070943403 -9.34191285675279 5 0 1
5851 1451 2 0 7.997015956734245 -8.10824794254489 -8.98223231298808 13 1 1
5852 1451 4 0 8.238115138493061 -8.01836440706653 -8.631841946472603 13 1 1
1628 326 3 0 11.163879368343743 -8.257296443541309 -9.060575256159513 3 0 1
1627 326 3 0 11.8174956790495 -8.017014841909482 -8.92792756364087 3 0 1
1626 326 1 0 11.415905704861004 -7.941789072732761 -8.851106466455356 3 0 1
1630 326 3 0 11.313809244418682 -7.558442173060999 -9.016936738295735 3 0 1
25 5 3 0 -8.815864338711384 -7.012383387597043 -8.538170317892963 5 0 0
4266 922 4 0 -8.425998852324838 -6.944653387956935 -8.649869416384421 5 0 1
4264 922 2 0 -8.285052967451495 -7.177578250865205 -8.989305903722636 5 0 1
272 55 3 0 -0.6186893084776575 -6.336379956343289 -9.017248727672246 4 0 0
271 55 1 0 -0.640246310967413 -6.350263704587389 -8.55494966427119 4 0 0
4079 860 4 0 -0.26416854893155595 -5.695093643342906 -8.553432369447734 7 0 0
2512 503 3 0 -9.496647457847127 -4.883668271261213 -9.00460097962771 14 1 0
2513 503 3 0 -8.817057512474529 -4.789348791142405 -8.719517485607739 14 1 0
2511 503 1 0 -9.05481053770442 -4.774097775272346 -9.094454428076341 14 1 0
3998 833 4 0 -8.721172715411267 -5.136199858688277 -8.548718899766143 4 0 0
4078 860 2 0 -0.24903382069162028 -5.301195298569046 -8.779939795438882 7 0 0
4080 860 4 0 -0.22975839358153927 -4.907027729745056 -9.01151204302228 7 0 0
983 197 3 0 9.092821679936634 -5.068680936797634 -8.563517116876467 6 0 0
981 197 1 0 9.448469428311444 -4.830260153369036 -8.731411867886134 6 0 0
982 197 3 0 9.686883702280106 -5.09076034039162 -9.000505420556477 6 0 0
2515 503 3 0 -9.040986416370696 -4.354190059914058 -9.261316352131104 14 1 0
2962 593 3 0 -0.8843807266297592 -4.1306457244960555 -9.156642058889691 8 0 0
2964 593 3 0 -1.0288273684834994 -4.474887257545014 -8.491458620757587 8 0 0
2961 593 1 0 -0.6996782642264137 -4.298639950347786 -8.736247977593619 8 0 0
2963 593 3 0 -0.5145379780912158 -3.965982909732052 -8.507758297255087 8 0 0
2965 593 3 0 -0.3966828471662964 -4.60422435891944 -8.82558127734284 8 0 0
3283 657 3 0 2.091066442138521 -4.51708987893921 -9.094468730873198 14 1 1
985 197 3 0 9.287961677277789 -4.4657445333032975 -8.962614597405876 6 0 0
4461 987 4 0 11.143320203595987 -3.8197147352448866 -8.580658353801372 9 0 1
4459 987 2 0 10.759256818030341 -3.7102078384698505 -8.769915195402461 9 0 1
252 51 3 0 11.91911524523303 -4.16791388725667 -8.514830029877418 9 0 0
5114 1205 4 0 -11.148572964181602 -2.8110924312085146 -8.535301398503057 11 0 0