ITEM: TIMESTEP
2300000
ITEM: NUMBER OF ATOMS
4590
ITEM: BOX BOUNDS pp pp pp
-9.9985700000000008e+00 9.9985700000000008e+00
-9.9985700000000008e+00 9.9985700000000008e+00
-9.9985700000000008e+00 9.9985700000000008e+00
ITEM: ATOMS id type xs ys zs
1676 4 0.0654076 0.00300286 0.0331989
700 2 0.0317046 0.061578 0.0639874
702 4 0.0396039 0.0406858 0.0752256
1675 2 0.0814253 0.0217723 0.0291591
1677 4 0.0974431 0.0405417 0.0251194
1037 4 0.108388 0.0467257 0.0413704
1036 2 0.132978 0.0429696 0.0388366
1038 4 0.157567 0.0392135 0.0363027
423 4 0.17297 0.0283767 0.0414965
421 2 0.188164 0.0468958 0.0486629
422 4 0.203358 0.0654149 0.0558293
1232 4 0.203671 0.0850098 0.0592348
1476 4 0.275155 0.0185092 0.0407174
1254 4 0.285993 0.00777014 0.0550934
1474 2 0.273852 0.0121583 0.016569
1475 4 0.272548 0.00580742 0.992421
1825 2 0.388812 0.0454789 0.0613027
1826 4 0.378655 0.0230864 0.0658397
168 3 0.38324 0.00720279 0.0537849
1827 4 0.39897 0.0678714 0.0567657
2885 4 0.433144 0.996742 0.044438
2884 2 0.457418 0.000870251 0.0400896
701 4 0.0238054 0.0824701 0.0527491
370 2 0.00642486 0.0905443 0.0150355
371 4 0.0126205 0.0911988 0.0392504
3232 2 0.0996424 0.156307 0.0654635
3233 4 0.11156 0.134788 0.0699459
1233 4 0.167267 0.112153 0.0801806
1231 2 0.185469 0.0985816 0.0697077
490 2 0.211244 0.15822 0.0292149
491 4 0.206324 0.138384 0.0148108
567 4 0.288497 0.0815102 0.0650264
565 2 0.293397 0.100364 0.0493513
566 4 0.298297 0.119217 0.0336762
2163 4 0.317457 0.122378 0.0306376
1023 4 0.327863 0.128595 0.0852519
758 4 0.410384 0.083951 0.0602011
757 2 0.430848 0.0950366 0.0510637
759 4 0.451313 0.106122 0.0419263
3234 4 0.0877254 0.177826 0.0609811
933 4 0.178529 0.206031 0.066755
960 4 0.177631 0.208251 0.0467462
958 2 0.177044 0.212548 0.0221216
492 4 0.216164 0.178057 0.0436191
931 2 0.195885 0.208334 0.0846064
55 3 0.224309 0.181946 0.0619093
51 1 0.245724 0.18456 0.0692055
53 3 0.25244 0.206581 0.0663139
4210 2 0.236599 0.234837 0.0429527
4212 4 0.253459 0.223396 0.0574445
1134 4 0.211675 0.246311 0.0101227
4211 4 0.219739 0.246278 0.0284608
959 4 0.176458 0.216845 0.997497
54 3 0.259863 0.170364 0.0575032
250 2 0.312061 0.197878 0.0354086
252 4 0.328067 0.194926 0.0543892
251 4 0.296055 0.20083 0.0164281
665 4 0.339421 0.203555 0.0684027
664 2 0.339777 0.223505 0.0834705
1046 4 0.399102 0.231869 0.0733274
2722 2 0.470682 0.22614 0.02726
2724 4 0.481553 0.238077 0.0463522
2723 4 0.459811 0.214204 0.00816766
3335 4 0.486836 0.248524 0.0613519
558 4 0.460731 0.194966 0.00449318
1290 4 0.152628 0.262177 0.012973
740 4 0.23827 0.299705 0.0391386
739 2 0.215667 0.289026 0.0386009
741 4 0.193065 0.278348 0.0380632
245 4 0.17878 0.27627 0.0518045
244 2 0.179602 0.261329 0.0718361
354 4 0.252442 0.283883 0.0414151
353 4 0.280015 0.292226 0.0822913
352 2 0.266229 0.288055 0.0618532
521 4 0.298597 0.291631 0.089808
1045 2 0.404945 0.256126 0.0717009
659 4 0.412547 0.296994 0.0605369
1047 4 0.410787 0.280383 0.0700744
658 2 0.401576 0.318233 0.067867
968 4 0.399174 0.267556 0.00721261
324 4 0.41855 0.265459 0.00865128
322 2 0.437124 0.281678 0.00451069
454 2 0.078272 0.377532 0.0506052
2873 4 0.0562246 0.411739 0.0541497
456 4 0.0606047 0.39289 0.0593906
455 4 0.0959393 0.362174 0.0418197
1104 4 0.155871 0.33681 0.0591828
1102 2 0.132249 0.344677 0.0568847
1103 4 0.108627 0.352543 0.0545866
293 4 0.169328 0.338047 0.0430658
292 2 0.175714 0.352266 0.0235155
1095 4 0.272418 0.341358 1.48815e-05
2872 2 0.0351692 0.425162 0.0528607
2874 4 0.0141137 0.438586 0.0515717
1691 4 0.067266 0.483485 0.0442618
2772 4 0.00311927 0.434356 0.0351284
1690 2 0.0895897 0.486137 0.0552072
1692 4 0.111913 0.488788 0.0661525
782 4 0.239165 0.421225 0.00716034
914 4 0.239287 0.464987 0.0690974
525 4 0.222064 0.458166 0.0747978
781 2 0.255186 0.440125 0.00380157
913 2 0.264169 0.467238 0.0700903
915 4 0.289051 0.469489 0.0710833
272 4 0.279858 0.474731 0.0111926
271 2 0.303712 0.474911 0.00369792
783 4 0.271208 0.459025 0.000442812
2289 4 0.395705 0.480982 0.0237262
2287 2 0.416099 0.492537 0.0150221
2567 4 0.380719 0.470028 0.0172271
2566 2 0.362439 0.476456 0.00142611
2581 2 0.504762 0.505277 0.0179972
2583 4 0.485539 0.501695 0.00241464
3808 2 0.0542408 0.0225727 0.14742
3809 4 0.0603111 0.0276081 0.123693
3810 4 0.0481704 0.0175372 0.171147
295 2 0.480451 0.0720455 0.124057
578 4 0.068991 0.120698 0.160185
358 2 0.13208 0.11692 0.0914297
360 4 0.108661 0.124138 0.0864664
689 4 0.147866 0.146716 0.153327
1700 4 0.15487 0.163204 0.162037
359 4 0.155499 0.109702 0.096393
248 4 0.232408 0.16461 0.0943913
690 4 0.181572 0.130047 0.120361
249 4 0.193177 0.146908 0.119852
247 2 0.212793 0.155759 0.107122
688 2 0.164719 0.138382 0.136844
1021 2 0.32213 0.124122 0.109175
1022 4 0.316396 0.119648 0.133097
582 4 0.352161 0.0920082 0.170908
580 2 0.374785 0.101557 0.166198
581 4 0.397408 0.111105 0.161489
296 4 0.457571 0.0798987 0.117734
2681 4 0.468879 0.154167 0.0880336
763 2 0.444327 0.167486 0.114332
764 4 0.438967 0.178001 0.136375
765 4 0.449688 0.156971 0.0922892
2680 2 0.493193 0.159952 0.0887625
555 4 0.0225215 0.236834 0.140945
553 2 0.0435319 0.236653 0.127391
554 4 0.0645423 0.236471 0.113837
2834 4 0.0068143 0.234158 0.152323
299 4 0.081925 0.233604 0.106631
52 3 0.246795 0.179336 0.0915821
932 4 0.21324 0.210636 0.102458
666 4 0.340133 0.243455 0.0985383
630 4 0.444272 0.167946 0.152208
298 2 0.095733 0.254297 0.109147
363 4 0.104654 0.29541 0.108168
300 4 0.109541 0.274989 0.111663
361 2 0.109212 0.317715 0.118507
246 4 0.180424 0.246388 0.0918678
385 2 0.29369 0.321508 0.114534
387 4 0.307262 0.303297 0.104077
520 2 0.318389 0.276354 0.0900142
355 2 0.330692 0.299017 0.155014
357 4 0.337339 0.314497 0.136537
522 4 0.338181 0.261077 0.0902205
705 4 0.0387625 0.375064 0.165997
1774 2 0.0285018 0.415603 0.158168
1776 4 0.0269898 0.390697 0.15977
362 4 0.11377 0.34002 0.128846
738 4 0.132384 0.342753 0.134052
736 2 0.128659 0.36663 0.140471
737 4 0.124934 0.390507 0.14689
647 4 0.132069 0.405229 0.134414
1618 2 0.228441 0.410622 0.145798
1620 4 0.245594 0.399547 0.160231
386 4 0.280118 0.339718 0.124992
338 4 0.278661 0.346908 0.144316
507 4 0.265512 0.398057 0.161311
505 2 0.289377 0.405455 0.16034
660 4 0.390606 0.339472 0.075197
303 4 0.388375 0.392653 0.114482
301 2 0.386246 0.370268 0.103548
302 4 0.384116 0.347883 0.0926141
497 4 0.389138 0.401211 0.13233
496 2 0.40984 0.410578 0.142763
713 4 0.508435 0.399737 0.112089
537 4 0.0723174 0.492147 0.128144
1775 4 0.0300138 0.440509 0.156566
2618 4 0.0490191 0.448816 0.152503
648 4 0.124055 0.454298 0.129049
646 2 0.128062 0.429763 0.131732
536 4 0.118411 0.472891 0.125846
535 2 0.0953644 0.482519 0.126995
1619 4 0.211289 0.421696 0.131365
524 4 0.211381 0.428883 0.113901
523 2 0.216722 0.443524 0.0943494
1573 2 0.304906 0.500629 0.158508
756 4 0.289995 0.467339 0.0900407
754 2 0.297249 0.469335 0.113886
1575 4 0.291959 0.482922 0.146508
755 4 0.304503 0.471332 0.13773
493 2 0.498759 0.482656 0.124228
498 4 0.430543 0.419944 0.153195
543 4 0.430514 0.440164 0.155122
495 4 0.505372 0.458979 0.12879
591 4 0.0502095 0.0358836 0.181001
589 2 0.0446993 0.0353928 0.205385
590 4 0.0391892 0.034902 0.229769
675 4 0.0502742 0.0177577 0.234209
673 2 0.07023 0.0128871 0.248465
1506 4 0.200338 0.0196946 0.161571
1504 2 0.219526 0.0338659 0.169066
1505 4 0.238714 0.0480371 0.176561
461 4 0.255884 0.0537275 0.1884
460 2 0.278861 0.063447 0.186738
2768 4 0.316459 0.0633534 0.193701
462 4 0.301838 0.0731666 0.185076
2767 2 0.335941 0.0678346 0.20872
2769 4 0.355423 0.0723159 0.223738
1540 2 0.399334 0.0190315 0.227083
331 2 0.388338 0.085452 0.225695
333 4 0.366394 0.0852542 0.23768
1541 4 0.389097 0.0300035 0.247083
332 4 0.410281 0.0856498 0.21371
742 2 0.452451 0.0188842 0.18366
1759 2 0.433227 0.0727941 0.195693
744 4 0.45473 0.0432816 0.178685
1760 4 0.437312 0.052175 0.182153
2480 4 0.0223778 0.0931775 0.181085
2479 2 0.99987 0.0875927 0.190432
579 4 0.040129 0.093663 0.190792
577 2 0.05456 0.107181 0.175488
617 4 0.0585469 0.157945 0.225843
545 4 0.0583269 0.154836 0.205692
544 2 0.0819741 0.149784 0.199331
546 4 0.105621 0.144731 0.19297
528 4 0.321831 0.14611 0.229041
526 2 0.30921 0.167689 0.229503
1761 4 0.429142 0.0934132 0.209234
2833 2 0.0102266 0.244485 0.174837
1699 2 0.168177 0.180664 0.174005
1701 4 0.181485 0.198125 0.185973
410 4 0.190725 0.201006 0.204457
409 2 0.200363 0.19948 0.227478
411 4 0.210001 0.197954 0.250499
527 4 0.296588 0.189268 0.229965
624 4 0.289779 0.208781 0.230987
622 2 0.29956 0.230043 0.239789
623 4 0.309341 0.251304 0.24859
253 2 0.412203 0.193898 0.23507
13 3 0.328266 0.253177 0.250956
255 4 0.417462 0.190542 0.210858
628 2 0.43621 0.179365 0.17294
629 4 0.428147 0.190783 0.193671
2835 4 0.0136388 0.254813 0.197351
2718 4 0.0309591 0.261099 0.20496
2716 2 0.0538 0.271229 0.205884
2717 4 0.0766409 0.281359 0.206808
704 4 0.01408 0.339671 0.191273
620 4 0.0091909 0.326321 0.206705
465 4 0.0921678 0.271944 0.215379
463 2 0.111621 0.269736 0.230932
356 4 0.324046 0.283538 0.173491
612 4 0.35707 0.282435 0.224682
610 2 0.350966 0.302987 0.211817
14 3 0.361164 0.2641 0.235373
611 4 0.344861 0.32354 0.198952
703 2 0.0264212 0.357367 0.178635
735 4 0.0701445 0.383198 0.204206
733 2 0.0797557 0.404956 0.1965
401 4 0.270814 0.339148 0.202616
337 2 0.28348 0.341734 0.168299
339 4 0.288299 0.336561 0.192282
343 2 0.265661 0.40471 0.241343
400 2 0.272676 0.350075 0.225028
506 4 0.313241 0.412853 0.159369
308 4 0.339058 0.341004 0.206614
307 2 0.351871 0.35802 0.219708
309 4 0.364684 0.375036 0.232802
1455 4 0.377449 0.366986 0.245578
2617 2 0.0547584 0.466199 0.169534
2619 4 0.0604976 0.483583 0.186565
2528 4 0.0474999 0.491506 0.19909
2527 2 0.0558283 0.491778 0.222664
734 4 0.0893669 0.426714 0.188794
1767 4 0.103003 0.439663 0.186944
1790 4 0.127053 0.490224 0.223439
1766 4 0.1201 0.471749 0.221279
1765 2 0.111552 0.455706 0.204112
1789 2 0.151465 0.492933 0.218759
278 4 0.243405 0.472633 0.204545
729 4 0.184923 0.494896 0.232849
727 2 0.195477 0.486136 0.253754
277 2 0.258651 0.457684 0.217555
279 4 0.273897 0.442734 0.230565
345 4 0.262145 0.429286 0.238369
287 4 0.323633 0.427674 0.169
286 2 0.32389 0.445856 0.186163
231 4 0.329405 0.47102 0.221389
288 4 0.324148 0.464037 0.203326
229 2 0.340005 0.47234 0.243996
1658 4 0.390567 0.495183 0.181982
609 4 0.403445 0.481999 0.243899
541 2 0.435995 0.45432 0.174991
542 4 0.441475 0.468476 0.194859
608 4 0.441735 0.479541 0.211828
607 2 0.42259 0.48077 0.227864
722 4 0.078957 0.0707649 0.271348
721 2 0.0540835 0.0712272 0.273854
723 4 0.0292101 0.0716894 0.276359
511 2 0.0387911 0.081277 0.325271
19 3 0.0149008 0.0772374 0.260869
674 4 0.0901859 0.0080166 0.26272
283 2 0.133361 0.00732029 0.265315
284 4 0.157148 0.0102001 0.27246
1404 4 0.2083 0.0272392 0.280858
1477 2 0.229298 0.0195967 0.308819
1479 4 0.223099 0.0357572 0.290775
1402 2 0.189823 0.0124305 0.272829
1427 4 0.383359 0.034877 0.264879
1426 2 0.378999 0.0383214 0.289258
1428 4 0.374638 0.0417658 0.313636
258 4 0.388752 0.0420851 0.329672
1730 4 0.501984 0.00772545 0.279984
1731 4 0.455543 0.00788252 0.261439
1729 2 0.478763 0.00780398 0.270712
512 4 0.0233096 0.0864677 0.306335
18 3 0.015523 0.0993385 0.291782
693 4 0.0695491 0.0888167 0.343139
616 2 0.0502849 0.169794 0.246252
633 4 0.401399 0.139541 0.249411
404 4 0.388502 0.146644 0.263928
403 2 0.366523 0.155117 0.272311
631 2 0.418049 0.140929 0.268012
632 4 0.4347 0.142317 0.286613
707 4 0.435521 0.162098 0.283541
618 4 0.042023 0.181643 0.266661
2463 4 0.0464121 0.183826 0.285732
2461 2 0.0374795 0.200525 0.302057
2462 4 0.028547 0.217224 0.318383
2897 4 0.0180582 0.234657 0.315433
475 2 0.156871 0.242484 0.260579
477 4 0.180003 0.233105 0.262032
489 4 0.229849 0.203535 0.25293
487 2 0.231952 0.211075 0.276677
488 4 0.234054 0.218614 0.300424
677 4 0.244475 0.229639 0.312033
676 2 0.256908 0.242971 0.329147
642 4 0.31834 0.223842 0.283967
641 4 0.347798 0.183857 0.278127
254 4 0.406944 0.197255 0.259283
405 4 0.344543 0.16359 0.280695
640 2 0.333069 0.20385 0.281047
311 4 0.414021 0.26064 0.288842
706 2 0.443923 0.185368 0.287155
708 4 0.452326 0.208638 0.29077
762 4 0.45921 0.220641 0.273892
760 2 0.446826 0.241124 0.281121
2898 4 0.0123277 0.275171 0.286684
2896 2 0.0151929 0.254914 0.301058
476 4 0.133739 0.251863 0.259126
464 4 0.131073 0.267529 0.246485
12 3 0.342855 0.286863 0.259022
310 2 0.389574 0.255415 0.289328
312 4 0.365127 0.25019 0.289813
11 1 0.347978 0.264909 0.254448
15 3 0.359292 0.256013 0.272098
761 4 0.434443 0.261608 0.288349
120 3 0.435422 0.318872 0.321442
344 4 0.269176 0.380134 0.244316
402 4 0.274538 0.361003 0.247441
436 2 0.267185 0.336722 0.325197
438 4 0.282413 0.351168 0.31161
414 4 0.27509 0.369807 0.315141
412 2 0.281569 0.393142 0.308919
1453 2 0.382117 0.384117 0.263182
1454 4 0.386784 0.401247 0.280787
667 2 0.36171 0.415385 0.314177
669 4 0.373737 0.405971 0.29438
753 4 0.479714 0.396809 0.314604
751 2 0.474159 0.372632 0.311475
752 4 0.468603 0.348455 0.308347
117 3 0.462038 0.344332 0.327461
2694 4 0.0141478 0.457303 0.262626
407 4 0.0498007 0.423425 0.298323
406 2 0.0321414 0.430353 0.282034
2297 4 0.0436842 0.437683 0.311729
408 4 0.014482 0.437281 0.265746
767 4 0.211957 0.46102 0.284689
766 2 0.191438 0.455244 0.297758
728 4 0.206032 0.477375 0.274659
768 4 0.170919 0.449468 0.310826
644 4 0.245953 0.490712 0.30633
413 4 0.288047 0.416476 0.302696
602 4 0.284024 0.435623 0.302915
603 4 0.262428 0.480643 0.300161
601 2 0.273226 0.458133 0.301538
230 4 0.350604 0.47366 0.266604
513 4 0.0542725 0.0760862 0.344206
1375 2 0.0100903 0.0689576 0.416948
1478 4 0.235498 0.00343621 0.326863
1781 4 0.216123 0.0351918 0.416124
1780 2 0.234498 0.0510299 0.410067
899 4 0.255894 0.00677086 0.331244
898 2 0.268183 0.0226613 0.346131
900 4 0.280473 0.0385517 0.361018
1782 4 0.252874 0.0668681 0.404011
256 2 0.402717 0.0235796 0.339037
257 4 0.416683 0.00507407 0.348401
318 4 0.0454045 0.131887 0.390409
399 4 0.059563 0.145901 0.390419
691 2 0.0897246 0.10167 0.335865
692 4 0.1099 0.114524 0.328591
397 2 0.0832167 0.141259 0.383776
732 4 0.12186 0.145316 0.386795
730 2 0.14065 0.133139 0.375666
398 4 0.10687 0.136618 0.377132
731 4 0.15944 0.120963 0.364537
1406 4 0.166752 0.136794 0.353926
1407 4 0.215529 0.147642 0.355876
1405 2 0.19114 0.142218 0.354901
684 4 0.235374 0.148779 0.357984
682 2 0.257985 0.138851 0.354066
683 4 0.280596 0.128922 0.350148
472 2 0.300817 0.107359 0.368123
474 4 0.285555 0.109238 0.348406
473 4 0.316078 0.10548 0.387839
341 4 0.25423 0.0874918 0.409366
340 2 0.259945 0.111743 0.407271
342 4 0.26566 0.135995 0.405176
266 4 0.414126 0.145604 0.389031
265 2 0.435741 0.155 0.39738
267 4 0.457356 0.164395 0.405728
587 4 0.241885 0.193217 0.420593
678 4 0.269341 0.256303 0.34626
336 4 0.474999 0.246661 0.359255
1219 2 0.117824 0.301709 0.396576
1220 4 0.137883 0.310912 0.384824
289 2 0.156629 0.321654 0.361649
383 4 0.101262 0.27433 0.416572
389 4 0.232126 0.328915 0.343078
388 2 0.210784 0.315905 0.342411
390 4 0.189443 0.302895 0.341744
613 2 0.211592 0.285549 0.391599
290 4 0.172447 0.305595 0.350827
614 4 0.201869 0.277497 0.413182
615 4 0.221315 0.2936 0.370016
5 3 0.240979 0.300982 0.37052
437 4 0.251956 0.322277 0.338784
2 3 0.263981 0.305653 0.341503
3 3 0.255583 0.270925 0.35317
4 3 0.27768 0.293483 0.374319
1 1 0.259432 0.292763 0.360005
650 4 0.32041 0.299859 0.378593
435 4 0.333428 0.314853 0.373353
649 2 0.31805 0.300647 0.403472
433 2 0.346478 0.325359 0.354793
335 4 0.479184 0.293168 0.341356
118 3 0.465165 0.310175 0.342827
334 2 0.477092 0.269914 0.350305
116 1 0.450263 0.326887 0.336743
1757 4 0.0848508 0.408118 0.371725
416 4 0.133922 0.35749 0.370959
417 4 0.102832 0.39665 0.371774
415 2 0.118377 0.37707 0.371367
291 4 0.140812 0.337712 0.372471
1435 2 0.298132 0.415184 0.373863
1436 4 0.28401 0.410911 0.353677
668 4 0.349684 0.424799 0.333974
434 4 0.359527 0.335865 0.336232
1742 4 0.455412 0.398605 0.402611
119 3 0.438938 0.334603 0.355468
926 4 0.428018 0.351807 0.362394
925 2 0.440206 0.37042 0.373804
927 4 0.452395 0.389033 0.385214
2296 2 0.0476834 0.44604 0.334952
2298 4 0.0516825 0.454398 0.358176
1758 4 0.0718846 0.451828 0.39227
504 4 0.0747702 0.471636 0.389723
502 2 0.0636532 0.487315 0.405716
1756 2 0.0783677 0.429973 0.381998
1819 2 0.204903 0.494975 0.415598
1820 4 0.218702 0.475184 0.422163
1862 4 0.202673 0.439503 0.377516
1861 2 0.227547 0.441428 0.375849
1556 4 0.251285 0.45054 0.393259
1863 4 0.252421 0.443352 0.374183
1437 4 0.312254 0.419457 0.39405
1587 4 0.323771 0.504685 0.402341
1555 2 0.273699 0.457584 0.401815
108 3 0.386817 0.489684 0.402718
1586 4 0.373443 0.504021 0.408087
1585 2 0.348607 0.504353 0.405214
109 3 0.416245 0.503706 0.383178
110 3 0.418693 0.499011 0.420456
1802 4 0.432676 0.490806 0.385915
1801 2 0.454334 0.48114 0.377999
2924 4 0.489405 0.45708 0.368236
1803 4 0.475992 0.471474 0.370082
2236 2 0.111044 0.00853139 0.427479
2238 4 0.091115 0.0231233 0.431362
1771 2 0.0925542 0.0636005 0.444188
1772 4 0.089916 0.0834731 0.459131
687 4 0.0972583 0.0791732 0.476216
1773 4 0.0951925 0.0437279 0.429245
685 2 0.111596 0.0727928 0.495681
699 4 0.171766 0.997135 0.486447
316 2 0.036871 0.117883 0.409283
1377 4 0.0287431 0.0855688 0.418098
317 4 0.0283375 0.10388 0.428158
321 4 0.238225 0.10477 0.491436
588 4 0.260838 0.146954 0.421695
604 2 0.348313 0.152159 0.496333
605 4 0.357998 0.129744 0.501713
716 4 0.480648 0.115245 0.420627
508 2 0.144295 0.222254 0.474675
510 4 0.126781 0.226892 0.457443
384 4 0.115911 0.234574 0.443136
509 4 0.161809 0.217617 0.491906
431 4 0.223255 0.192112 0.427322
430 2 0.221805 0.213044 0.44092
432 4 0.220355 0.233977 0.454518
570 4 0.168739 0.225403 0.508845
586 2 0.251361 0.170086 0.421144
634 2 0.299736 0.225112 0.489658
3158 4 0.347026 0.192458 0.497127
606 4 0.338628 0.174574 0.490953
3157 2 0.35501 0.21108 0.482476
3159 4 0.362994 0.229702 0.467826
468 4 0.363787 0.249048 0.469382
3106 2 0.0772041 0.327564 0.460252
852 4 0.0825937 0.291786 0.484266
3108 4 0.0575183 0.340598 0.468485
1221 4 0.0977642 0.292507 0.408329
3107 4 0.0968898 0.314531 0.452019
382 2 0.108586 0.254452 0.429854
576 4 0.222523 0.252401 0.463504
575 4 0.199636 0.283706 0.431929
574 2 0.211079 0.268053 0.447716
811 2 0.309344 0.277046 0.465622
812 4 0.311625 0.290575 0.444719
813 4 0.307062 0.263517 0.486526
651 4 0.31569 0.301435 0.428352
636 4 0.300091 0.246768 0.477165
446 4 0.253062 0.326279 0.431736
466 2 0.387995 0.254624 0.472221
467 4 0.412203 0.260199 0.47506
3308 4 0.421422 0.322016 0.468255
378 4 0.430996 0.262021 0.469888
376 2 0.43499 0.286693 0.470608
377 4 0.438984 0.311365 0.471328
1383 4 0.0507439 0.358682 0.422261
1381 2 0.0675872 0.377128 0.423362
1382 4 0.0844304 0.395575 0.424464
326 4 0.13823 0.390349 0.463567
325 2 0.115679 0.390727 0.452776
327 4 0.0931269 0.391105 0.441984
447 4 0.260642 0.372065 0.450361
445 2 0.256852 0.349172 0.441049
929 4 0.321232 0.367715 0.48202
928 2 0.299312 0.372392 0.470937
930 4 0.277392 0.377068 0.459855
3309 4 0.390658 0.348972 0.497023
3307 2 0.40604 0.335494 0.482639
585 4 0.336618 0.367752 0.495603
1741 2 0.452318 0.41317 0.422697
2152 2 0.280935 0.489462 0.481934
2154 4 0.291019 0.467505 0.475501
1557 4 0.296112 0.464628 0.41037
1471 2 0.437051 0.464588 0.4329
1472 4 0.447611 0.447778 0.448103
1743 4 0.449225 0.427736 0.442783
1473 4 0.426492 0.481397 0.417698
457 2 0.0336745 0.0327407 0.575006
459 4 0.0226253 0.0201518 0.556442
1127 4 0.0348533 0.031473 0.524492
1126 2 0.029172 0.0556629 0.521709
1271 4 0.0332695 0.00442127 0.550278
1601 4 0.134459 0.0585693 0.532736
1600 2 0.122666 0.0643047 0.554025
686 4 0.125933 0.0664125 0.515146
1602 4 0.110873 0.0700401 0.575313
1150 2 0.244475 0.0311738 0.532797
320 4 0.221919 0.0637839 0.514994
1152 4 0.229398 0.0503379 0.527267
319 2 0.230072 0.0842768 0.503215
912 4 0.195538 0.0102684 0.575104
1151 4 0.259553 0.0120097 0.538328
3269 4 0.460669 0.0774979 0.571467
4581 4 0.479454 0.0794948 0.563927
4579 2 0.500718 0.0712543 0.574182
3758 4 0.494343 0.0371469 0.507267
1128 4 0.0234907 0.0798529 0.518925
1033 2 0.0353167 0.118978 0.513651
1034 4 0.0255885 0.0982849 0.523767
1035 4 0.0450448 0.139671 0.503535
1200 4 0.0520344 0.151054 0.517622
824 4 0.195623 0.120593 0.5389
823 2 0.198014 0.128971 0.562336
3270 4 0.441472 0.123646 0.569864
3268 2 0.451071 0.100572 0.570666
1198 2 0.0642423 0.170248 0.507244
1199 4 0.0764503 0.189443 0.496865
3274 2 0.089122 0.220104 0.522623
3276 4 0.0877309 0.238174 0.539848
3038 4 0.097047 0.248826 0.553694
3037 2 0.0851592 0.248098 0.575678
3275 4 0.0905131 0.202034 0.505397
694 2 0.23054 0.242502 0.559057
696 4 0.211049 0.251365 0.546145
568 2 0.189958 0.234069 0.518838
569 4 0.211176 0.242734 0.528831
635 4 0.299381 0.203455 0.50215
1193 4 0.384743 0.223995 0.565556
1190 4 0.111049 0.316034 0.541605
851 4 0.103559 0.302821 0.528305
850 2 0.0930765 0.297304 0.506286
1189 2 0.128547 0.3319 0.533402
240 4 0.236881 0.303255 0.524707
238 2 0.258454 0.313609 0.531958
239 4 0.280027 0.323963 0.539209
774 4 0.284868 0.33165 0.556585
805 2 0.468094 0.324576 0.543623
806 4 0.456699 0.303483 0.550725
1040 4 0.0381027 0.402035 0.581048
1446 4 0.110319 0.384898 0.539812
1191 4 0.146045 0.347765 0.5252
1444 2 0.110765 0.401501 0.558502
711 4 0.15152 0.355029 0.507418
1445 4 0.11121 0.418103 0.577193
709 2 0.165898 0.373332 0.516553
710 4 0.180277 0.391635 0.525688
791 4 0.313261 0.393905 0.540814
772 2 0.296585 0.352904 0.55057
773 4 0.308302 0.374158 0.544556
790 2 0.292767 0.40686 0.534703
584 4 0.385273 0.365754 0.506981
583 2 0.360946 0.366753 0.501292
807 4 0.47949 0.345668 0.536521
2456 4 0.462876 0.354749 0.528726
2455 2 0.452149 0.369602 0.511712
2457 4 0.441422 0.384456 0.494697
8 3 0.0407788 0.421286 0.584623
1172 4 0.00361136 0.467952 0.547351
1239 4 0.232033 0.487921 0.557586
882 4 0.222758 0.49571 0.571771
1237 2 0.240508 0.464981 0.562792
792 4 0.272273 0.419814 0.528591
1238 4 0.248984 0.442041 0.567998
2142 4 0.267977 0.442573 0.568567
2353 2 0.486804 0.447241 0.519903
2354 4 0.477233 0.457797 0.540449
458 4 0.0447236 0.0453296 0.59357
1283 4 0.0645784 0.0416895 0.595094
1282 2 0.0807947 0.0602326 0.590809
1284 4 0.0970111 0.0787756 0.586524
2049 4 0.154818 0.0326962 0.669462
2048 4 0.194454 0.011608 0.647439
911 4 0.206225 0.0384252 0.615025
2047 2 0.174636 0.0221521 0.65845
910 2 0.200882 0.0243468 0.595064
1162 2 0.324332 0.0101888 0.599557
1163 4 0.334001 0.0313215 0.608782
797 4 0.350214 0.0435879 0.611378
41 1 0.408372 0.0584443 0.663474
796 2 0.372101 0.0534539 0.618364
43 3 0.404214 0.0685612 0.64301
798 4 0.393988 0.0633199 0.625349
45 3 0.393011 0.0420751 0.667313
44 3 0.429755 0.0494364 0.663658
3383 4 0.0107844 0.106635 0.637183
3003 4 0.00591996 0.0977893 0.621268
3382 2 0.00210686 0.128057 0.646721
3384 4 0.993429 0.149479 0.656258
1131 4 0.140654 0.147039 0.654063
1129 2 0.156396 0.165119 0.661169
1226 4 0.144464 0.128877 0.661786
1225 2 0.143192 0.104041 0.664376
825 4 0.200406 0.13735 0.585772
2133 4 0.188034 0.132124 0.600318
2131 2 0.201357 0.123488 0.619633
2132 4 0.214681 0.114852 0.638949
1142 4 0.278567 0.156351 0.670198
1153 2 0.0255568 0.225703 0.615469
2376 4 0.0545321 0.212115 0.622691
1154 4 0.0483429 0.221179 0.606222
2374 2 0.0790577 0.20786 0.620332
2375 4 0.103583 0.203605 0.617973
695 4 0.250032 0.233639 0.571969
1130 4 0.172139 0.183198 0.668274
1244 4 0.172892 0.201328 0.659155
1243 2 0.193162 0.213285 0.650708
1245 4 0.213432 0.225242 0.642262
938 4 0.256156 0.174073 0.634321
858 4 0.268519 0.238556 0.575709
939 4 0.299229 0.19737 0.624184
937 2 0.277693 0.185722 0.629252
1192 2 0.397468 0.231623 0.585682
1194 4 0.410194 0.239251 0.605808
4467 4 0.433842 0.191975 0.623041
4465 2 0.458539 0.194619 0.625911
4466 4 0.483236 0.197264 0.628782
49 3 0.492496 0.206805 0.613756
1026 4 0.461558 0.24956 0.64396
3039 4 0.0732713 0.24737 0.597663
2448 4 0.0173257 0.269098 0.64455
2446 2 0.0387588 0.264591 0.656612
374 4 0.0982429 0.323444 0.650701
897 4 0.115829 0.314607 0.649677
895 2 0.134117 0.309943 0.633277
896 4 0.152405 0.305279 0.616877
856 2 0.287704 0.24587 0.58998
857 4 0.306888 0.253183 0.60425
275 4 0.305763 0.270301 0.616303
274 2 0.319809 0.289297 0.624491
276 4 0.333855 0.308293 0.632678
1025 4 0.418131 0.252463 0.619336
1024 2 0.439845 0.251012 0.631648
3372 4 0.479496 0.256816 0.652549
1039 2 0.0154346 0.392318 0.585161
375 4 0.0641585 0.355016 0.632203
983 4 0.0666167 0.37514 0.629579
982 2 0.0569102 0.398069 0.631871
373 2 0.0812007 0.33923 0.641452
1137 4 0.243342 0.363244 0.598297
878 4 0.223608 0.365325 0.602043
879 4 0.183613 0.354607 0.630084
877 2 0.203611 0.359966 0.616063
1135 2 0.267638 0.357339 0.598418
1136 4 0.291934 0.351433 0.598539
936 4 0.311477 0.348057 0.594636
934 2 0.328601 0.363336 0.60456
2141 4 0.274809 0.416549 0.610719
935 4 0.345726 0.378615 0.614483
10 3 0.062137 0.452099 0.58809
2138 4 0.997619 0.488921 0.649267
984 4 0.0472037 0.420997 0.634163
7 3 0.0539515 0.431696 0.61825
6 1 0.0460567 0.439438 0.598079
9 3 0.0270972 0.452267 0.601868
2139 4 0.0169744 0.454487 0.618601
2137 2 0.00729678 0.471704 0.633934
2171 4 0.104667 0.42062 0.595493
2172 4 0.119157 0.440678 0.638949
2699 4 0.102513 0.44888 0.648947
2170 2 0.111912 0.430649 0.617221
2698 2 0.11004 0.470421 0.659169
2310 4 0.162517 0.494361 0.618669
2385 4 0.158342 0.492318 0.599441
2308 2 0.180542 0.477175 0.620888
2309 4 0.198567 0.459989 0.623107
1713 4 0.216699 0.471781 0.623856
1711 2 0.233918 0.485342 0.635889
1952 4 0.31296 0.433404 0.628975
2140 2 0.271393 0.429561 0.589643
1951 2 0.321117 0.427909 0.651963
1251 4 0.380388 0.44825 0.649888
1249 2 0.37907 0.424056 0.65606
1202 4 0.086036 0.00566973 0.683221
1106 4 0.145927 0.0178064 0.678505
1105 2 0.124151 0.00555621 0.679458
1004 4 0.307927 0.0586916 0.690646
1003 2 0.300313 0.0823012 0.687517
951 4 0.352299 0.0109318 0.697381
950 4 0.384907 0.0465045 0.684266
949 2 0.368603 0.0287182 0.690823
42 3 0.406843 0.0743099 0.68006
1145 4 0.429217 0.0721753 0.730894
1144 2 0.440068 0.0496806 0.729699
2264 4 0.467747 0.0327841 0.720144
1146 4 0.450919 0.0271859 0.728504
2263 2 0.479929 0.0114436 0.724767
1227 4 0.141921 0.0792039 0.666966
976 2 0.245154 0.171631 0.694433
977 4 0.260163 0.159509 0.678528
1143 4 0.298225 0.119879 0.698199
1005 4 0.2927 0.105911 0.684387
1141 2 0.288396 0.138115 0.684198
980 4 0.329702 0.0998256 0.748019
2989 2 0.0865387 0.214634 0.684728
2990 4 0.0628392 0.217169 0.692284
2991 4 0.110238 0.2121 0.677173
978 4 0.230144 0.183753 0.710337
1212 4 0.321604 0.228946 0.69738
1210 2 0.338426 0.241176 0.711259
1260 4 0.0349461 0.241806 0.750423
2447 4 0.0601919 0.260085 0.668674
1258 2 0.0262537 0.262437 0.739287
1259 4 0.0175613 0.283067 0.728151
3420 4 0.0269284 0.300578 0.727017
3418 2 0.0106817 0.315952 0.738191
2358 4 0.0745643 0.290337 0.715695
1209 4 0.149278 0.249312 0.7299
2356 2 0.0823877 0.31324 0.721974
2357 4 0.090211 0.336143 0.728253
1207 2 0.166341 0.267555 0.728794
1208 4 0.183404 0.285798 0.727687
948 4 0.189261 0.303754 0.729086
946 2 0.214141 0.306234 0.72923
947 4 0.239021 0.308714 0.729375
1029 4 0.256264 0.314546 0.736365
1211 4 0.355248 0.253406 0.725139
909 4 0.33845 0.263178 0.738987
1096 2 0.389472 0.272764 0.697491
1097 4 0.370211 0.264707 0.71125
1098 4 0.408732 0.28082 0.683732
1065 4 0.489958 0.30493 0.701771
1064 4 0.471656 0.269413 0.731844
2987 4 0.46848 0.255433 0.745494
1063 2 0.480807 0.287171 0.716808
2016 4 0.139294 0.389359 0.739173
1292 4 0.323146 0.388218 0.727823
1139 4 0.311911 0.403757 0.735108
1291 2 0.341207 0.371616 0.732654
4484 4 0.387232 0.389548 0.677809
1293 4 0.359269 0.355015 0.737484
4483 2 0.406758 0.374059 0.675809
1266 4 0.368649 0.339967 0.748174
1250 4 0.377752 0.399862 0.662233
662 4 0.486714 0.36564 0.669598
661 2 0.464159 0.359763 0.678648
663 4 0.441604 0.353885 0.687698
4485 4 0.426284 0.35857 0.67381
4174 2 0.00433 0.495093 0.693071
4480 2 0.0357098 0.474588 0.745522
4481 4 0.0167793 0.485319 0.733207
4176 4 0.0102948 0.496021 0.717335
2700 4 0.117568 0.491963 0.669391
2156 4 0.1244 0.496964 0.687268
1160 4 0.20451 0.42948 0.733742
1187 4 0.207597 0.419612 0.717129
1186 2 0.216836 0.438763 0.703974
1188 4 0.226074 0.457914 0.690818
1317 4 0.246538 0.49048 0.738847
890 4 0.250836 0.474414 0.726231
889 2 0.27384 0.464932 0.72377
891 4 0.296845 0.45545 0.72131
1953 4 0.329275 0.422415 0.674951
1910 4 0.30224 0.469248 0.709032
1138 2 0.320235 0.417873 0.753993
1909 2 0.323823 0.481871 0.708887
1911 4 0.345406 0.494493 0.708742
3024 4 0.466347 0.468304 0.744022
3022 2 0.46764 0.487065 0.727544
2113 2 0.0699546 0.00621073 0.813396
944 4 0.101688 0.0695788 0.778601
2115 4 0.090177 0.0200081 0.818482
945 4 0.104715 0.0272061 0.804984
943 2 0.103201 0.0483924 0.791793
1082 4 0.113347 0.076458 0.763421
1086 4 0.253537 0.0173554 0.78119
975 4 0.302228 0.0560245 0.76541
973 2 0.281257 0.0424177 0.765891
981 4 0.31979 0.0583633 0.77416
974 4 0.260285 0.0288109 0.766371
2198 4 0.448733 0.0666152 0.805017
2197 2 0.444986 0.0697657 0.829537
1296 4 0.0292338 0.135365 0.771532
1295 4 0.0749192 0.116121 0.764955
1294 2 0.0520765 0.125743 0.768244
3296 4 0.0251774 0.148588 0.757473
1083 4 0.0936253 0.122254 0.759617
1081 2 0.103486 0.0993562 0.761519
979 2 0.324746 0.0790945 0.761089
827 4 0.306515 0.153218 0.828132
3338 4 0.0205087 0.233795 0.82097
1056 4 0.0808112 0.244939 0.822962
3478 2 0.49471 0.214575 0.804719
153 3 0.00270683 0.328719 0.767126
989 4 0.0922698 0.298081 0.791534
988 2 0.0794677 0.314412 0.777586
1055 4 0.0314356 0.250184 0.817024
1054 2 0.0561234 0.247562 0.819993
1027 2 0.271879 0.308211 0.754837
907 2 0.322583 0.274727 0.754481
1234 2 0.310311 0.268508 0.806739
908 4 0.306716 0.286275 0.769974
1236 4 0.312931 0.268877 0.781876
1229 4 0.307867 0.303246 0.777517
1028 4 0.287493 0.301876 0.77331
1228 2 0.310898 0.322624 0.793025
1235 4 0.307691 0.268138 0.831602
1167 4 0.364792 0.279959 0.785893
1165 2 0.383404 0.269034 0.773267
917 4 0.365642 0.289269 0.804724
1166 4 0.402016 0.258109 0.760641
1265 4 0.346661 0.326637 0.791065
916 2 0.376243 0.288897 0.827366
2988 4 0.421777 0.262991 0.761691