ITEM: TIMESTEP
3330000
ITEM: NUMBER OF ATOMS
4590
ITEM: BOX BOUNDS pp pp pp
-9.9985700000000008e+00 9.9985700000000008e+00
-9.9985700000000008e+00 9.9985700000000008e+00
-9.9985700000000008e+00 9.9985700000000008e+00
ITEM: ATOMS id type xs ys zs
448 2 0.0267811 0.055026 0.0264478
450 4 0.031054 0.0686643 0.00593161
449 4 0.0225081 0.0413876 0.0469641
372 4 0.0368075 0.0854513 0.997542
1233 4 0.115456 0.0671113 0.0654494
1841 4 0.342525 0.0397542 0.065294
1840 2 0.335383 0.0158024 0.0659906
1825 2 0.345683 0.0698033 0.0839971
370 2 0.0565721 0.0989981 0.00468568
371 4 0.0763366 0.112545 0.0118289
1232 4 0.0908639 0.108359 0.0793981
3233 4 0.092857 0.112184 0.0217426
3232 2 0.11459 0.120898 0.0129728
3234 4 0.136324 0.129611 0.00420303
1231 2 0.10316 0.0877352 0.0724237
33 3 0.183766 0.150566 0.0157613
52 3 0.244231 0.121287 0.0736697
237 4 0.165351 0.106102 0.00532707
2162 4 0.316976 0.0853595 0.000575137
2161 2 0.305418 0.104924 0.0110075
249 4 0.291214 0.138073 0.0359476
247 2 0.277367 0.127005 0.0535809
248 4 0.26352 0.115937 0.0712143
2163 4 0.29386 0.124488 0.0214399
1826 4 0.353183 0.0936404 0.0848455
483 4 0.3548 0.17 0.0489609
4211 4 0.337784 0.166736 0.0593433
2513 4 0.996073 0.252991 0.0289755
545 4 0.112016 0.164697 0.0729029
454 2 0.234481 0.22021 0.0292366
456 4 0.237604 0.197557 0.0393497
455 4 0.231358 0.242863 0.0191235
4212 4 0.300639 0.1728 0.0264159
492 4 0.303825 0.173649 0.00553903
4210 2 0.319211 0.169768 0.0428796
481 2 0.378683 0.17123 0.0416621
482 4 0.402566 0.17246 0.0343633
1304 4 0.417914 0.183039 0.0246221
1303 2 0.422247 0.2065 0.0321046
1305 4 0.42658 0.229961 0.0395871
2512 2 0.0142228 0.270184 0.0293986
2514 4 0.0323728 0.287376 0.0298216
931 2 0.2262 0.30686 0.0246835
933 4 0.205703 0.314377 0.0124966
960 4 0.19397 0.329708 0.0153773
932 4 0.246698 0.299343 0.0368704
354 4 0.249977 0.298275 0.0568472
352 2 0.265665 0.307121 0.0741917
323 4 0.338264 0.264795 0.0582884
322 2 0.344818 0.279904 0.0394753
800 4 0.350107 0.327852 0.00822727
324 4 0.351372 0.295014 0.0206623
282 4 0.352199 0.293834 0.000155455
293 4 0.149426 0.363677 0.0336721
292 2 0.142354 0.358479 0.057085
294 4 0.135283 0.353282 0.0804979
1104 4 0.151371 0.37638 0.0181499
646 2 0.153174 0.418847 0.0806641
300 4 0.118239 0.34674 0.0718234
958 2 0.181002 0.3446 4.00861e-05
639 4 0.218135 0.389931 0.057184
637 2 0.211134 0.412693 0.0495647
799 2 0.354188 0.340742 0.02926
967 2 0.385017 0.376267 0.0630697
969 4 0.372265 0.366852 0.0437323
801 4 0.358269 0.353632 0.0502927
968 4 0.397769 0.385681 0.0824071
620 4 0.0845302 0.488407 0.0612118
3518 4 0.0210249 0.455847 0.0225018
619 2 0.0638641 0.497981 0.0715284
2864 4 0.0090063 0.439453 0.0209198
3517 2 0.0339592 0.473604 0.010562
3519 4 0.0468935 0.491361 0.998622
647 4 0.142778 0.440396 0.073402
1710 4 0.0909419 0.480925 0.043464
1708 2 0.113984 0.476386 0.0348838
1709 4 0.137027 0.471846 0.0263036
1629 4 0.14461 0.475643 0.00731557
638 4 0.204132 0.435454 0.0419453
1095 4 0.20992 0.4524 0.0510673
1093 2 0.232115 0.463613 0.0536835
1094 4 0.25431 0.474825 0.0562997
542 4 0.370659 0.492677 0.0609047
2567 4 0.357657 0.506317 0.0521885
541 2 0.37506 0.47868 0.0811498
2012 4 0.468191 0.479551 0.011614
2798 4 0.0281766 0.0483111 0.148729
2797 2 0.0219634 0.0293884 0.163845
3983 4 0.0108333 0.0566987 0.143863
3810 4 0.0898375 0.0574543 0.14642
3808 2 0.111178 0.0634435 0.157991
360 4 0.22342 0.0664649 0.10603
358 2 0.211645 0.0445791 0.108774
359 4 0.199869 0.0226932 0.111519
1566 4 0.189704 0.0207985 0.130322
1625 4 0.290339 0.00917047 0.163907
2769 4 0.305949 0.0776323 0.112589
534 4 0.303213 0.99776 0.153763
1827 4 0.338183 0.0459661 0.0831487
405 4 0.399342 0.0550649 0.151525
403 2 0.41038 0.0329077 0.148002
744 4 0.417057 0.00414696 0.162686
404 4 0.421417 0.0107505 0.144479
546 4 0.0946167 0.122826 0.0939927
544 2 0.103316 0.143761 0.0834478
55 3 0.228375 0.0996462 0.0996147
51 1 0.240354 0.118711 0.0961972
54 3 0.228412 0.137053 0.103899
53 3 0.260734 0.117336 0.107206
2767 2 0.294553 0.0937024 0.097192
2768 4 0.283157 0.109773 0.0817954
758 4 0.365824 0.107974 0.0892528
759 4 0.349625 0.131354 0.130383
757 2 0.357724 0.119664 0.109818
689 4 0.158736 0.185202 0.156897
741 4 0.153384 0.204522 0.157028
664 2 0.316508 0.226171 0.123906
665 4 0.314524 0.212941 0.145029
252 4 0.33208 0.201875 0.151017
250 2 0.354087 0.207838 0.161279
251 4 0.376094 0.2138 0.171542
582 4 0.446407 0.17725 0.116251
580 2 0.436847 0.170362 0.138304
581 4 0.427287 0.163474 0.160357
554 4 0.0716161 0.304877 0.0835865
555 4 0.0353405 0.286013 0.112378
553 2 0.0534783 0.295445 0.0979823
2834 4 0.0181591 0.293143 0.109886
299 4 0.0807105 0.320721 0.0922031
363 4 0.142115 0.262702 0.168396
361 2 0.155298 0.281075 0.157728
362 4 0.16848 0.299449 0.14706
738 4 0.186657 0.302051 0.139638
736 2 0.211159 0.299343 0.135456
737 4 0.235662 0.296635 0.131274
246 4 0.255512 0.298253 0.133882
666 4 0.318493 0.239401 0.102782
353 4 0.281352 0.315967 0.0915362
244 2 0.26556 0.276285 0.127429
245 4 0.275607 0.254317 0.120977
339 4 0.360958 0.329951 0.106862
337 2 0.363783 0.316363 0.12766
338 4 0.366609 0.302775 0.148458
386 4 0.346624 0.334772 0.0941854
298 2 0.0994749 0.33373 0.0820133
648 4 0.163571 0.397298 0.0879262
524 4 0.173329 0.390286 0.102658
523 2 0.192863 0.399953 0.114912
525 4 0.212396 0.409621 0.127166
385 2 0.32286 0.32873 0.089291
387 4 0.299097 0.322687 0.0843967
1046 4 0.41545 0.376919 0.0812224
1045 2 0.433608 0.363589 0.0920754
1047 4 0.451767 0.35026 0.102928
659 4 0.445624 0.343575 0.121318
658 2 0.457395 0.356298 0.139339
713 4 0.475524 0.387647 0.158058
660 4 0.469165 0.369022 0.157359
712 2 0.48074 0.408902 0.145966
1775 4 0.0221914 0.447745 0.123599
2740 2 0.00712586 0.464459 0.0950801
2742 4 0.0211356 0.466776 0.11566
1774 2 0.0272424 0.441802 0.147355
286 2 0.301524 0.474016 0.153576
288 4 0.324103 0.463824 0.156966
287 4 0.278945 0.484208 0.150186
497 4 0.339541 0.45196 0.15594
496 2 0.353798 0.460288 0.137163
498 4 0.368055 0.468616 0.118386
543 4 0.379462 0.464682 0.101395
493 2 0.48607 0.461694 0.129361
714 4 0.485957 0.430157 0.133875
495 4 0.480838 0.444631 0.146873
2651 4 0.473529 0.487402 0.108727
2799 4 0.0157503 0.0104656 0.178962
285 4 0.150674 0.0615413 0.167897
3809 4 0.132519 0.0694327 0.169561
283 2 0.173373 0.0569609 0.177329
284 4 0.196072 0.0523804 0.186762
1403 4 0.205594 0.0405624 0.199101
1402 2 0.21408 0.0300726 0.220151
1404 4 0.222565 0.0195828 0.241202
1626 4 0.248003 0.00778807 0.190486
1624 2 0.269171 0.00847927 0.177197
633 4 0.390158 0.0587408 0.169616
631 2 0.398055 0.0763468 0.185516
1730 4 0.436142 0.0089409 0.248657
1729 2 0.443822 0.0323268 0.244265
1731 4 0.451502 0.0557127 0.239873
2664 4 0.460424 0.0668249 0.225849
618 4 0.223172 0.166394 0.235309
616 2 0.21465 0.162518 0.212124
472 2 0.289533 0.146941 0.201444
474 4 0.294756 0.147605 0.225887
473 4 0.28431 0.146276 0.177001
527 4 0.307441 0.152187 0.240835
632 4 0.405953 0.0939528 0.201417
310 2 0.413431 0.119242 0.228696
311 4 0.398479 0.112615 0.209783
2662 2 0.477649 0.0780999 0.240039
312 4 0.428384 0.125868 0.247608
2519 4 0.480115 0.155691 0.185745
2518 2 0.473392 0.137334 0.201334
2663 4 0.494874 0.089375 0.254229
2520 4 0.466669 0.118978 0.216923
740 4 0.135287 0.246075 0.178161
739 2 0.144336 0.225299 0.167594
690 4 0.201044 0.176236 0.182003
688 2 0.17989 0.180719 0.16945
617 4 0.206127 0.158642 0.18894
410 4 0.188292 0.202756 0.238602
409 2 0.174279 0.222703 0.244165
628 2 0.406203 0.200386 0.173633
629 4 0.391403 0.217977 0.183466
630 4 0.421003 0.182795 0.1638
2 3 0.238353 0.298475 0.232328
13 3 0.327391 0.284968 0.210944
357 4 0.408734 0.286897 0.171473
355 2 0.387608 0.27755 0.181039
356 4 0.366482 0.268203 0.190605
14 3 0.358782 0.30633 0.209296
11 1 0.34957 0.286694 0.217541
15 3 0.361366 0.268772 0.209905
303 4 0.346454 0.31145 0.194202
640 2 0.41207 0.312068 0.234787
12 3 0.35048 0.287129 0.240522
642 4 0.431374 0.305494 0.220319
761 4 0.486911 0.273413 0.222482
760 2 0.465443 0.284099 0.215402
762 4 0.443976 0.294786 0.208321
2749 2 0.0194025 0.350008 0.212712
2751 4 0.0265596 0.348754 0.236637
2750 4 0.0122453 0.351261 0.188788
705 4 0.0745 0.404358 0.200772
735 4 0.0826258 0.387916 0.194518
733 2 0.104246 0.383805 0.206386
734 4 0.125866 0.379693 0.218254
476 4 0.12762 0.381856 0.23739
475 2 0.152395 0.380366 0.240415
1620 4 0.234163 0.387621 0.172821
913 2 0.206226 0.409276 0.200207
914 4 0.220605 0.396812 0.183988
477 4 0.17717 0.378877 0.24344
1618 2 0.256739 0.387774 0.183566
1619 4 0.279316 0.387928 0.194311
611 4 0.326031 0.358545 0.236669
610 2 0.308588 0.36737 0.22108
612 4 0.291145 0.376194 0.20549
301 2 0.348756 0.335579 0.188064
231 4 0.345104 0.351452 0.232783
302 4 0.351057 0.359708 0.181926
308 4 0.367955 0.365659 0.190839
307 2 0.372326 0.387298 0.20258
309 4 0.376697 0.408937 0.21432
1454 4 0.374269 0.404399 0.23286
229 2 0.367218 0.345176 0.24262
1776 4 0.0322934 0.435858 0.171111
703 2 0.0523286 0.41346 0.193647
704 4 0.0301571 0.422562 0.186522
1511 4 0.0125239 0.486358 0.185636
1510 2 0.028226 0.496772 0.169199
2617 2 0.0702362 0.493525 0.221325
1766 4 0.117578 0.483927 0.240145
1790 4 0.130304 0.477517 0.225603
1789 2 0.145792 0.480801 0.206251
1791 4 0.161281 0.484085 0.186899
2618 4 0.0764429 0.489803 0.197391
915 4 0.191846 0.42174 0.216426
344 4 0.182331 0.436516 0.226046
1560 4 0.17756 0.490211 0.177796
343 2 0.19863 0.446484 0.242176
268 2 0.479387 0.48721 0.220559
1584 4 0.491379 0.467505 0.20334
270 4 0.457382 0.499011 0.221873
2479 2 0.0131927 0.0490219 0.28072
2756 4 0.0160745 0.0165021 0.293138
2480 4 0.0288 0.0304733 0.286847
2481 4 0.997586 0.0675705 0.274593
2755 2 0.00293697 0.00308671 0.309649
683 4 0.209294 0.0177015 0.254934
732 4 0.216565 0.0214988 0.308646
682 2 0.207372 0.0277883 0.277732
684 4 0.205451 0.037875 0.30053
1405 2 0.251494 0.0798216 0.277695
1407 4 0.257159 0.0607684 0.292863
692 4 0.269397 0.057864 0.308648
691 2 0.283858 0.0377166 0.305462
461 4 0.304097 0.0217661 0.283909
693 4 0.298319 0.0175692 0.302277
1428 4 0.404478 0.0581425 0.332143
258 4 0.404858 0.0691779 0.315696
1426 2 0.40806 0.0343397 0.325377
1427 4 0.411643 0.010537 0.318611
18 3 0.0132829 0.120047 0.305608
579 4 0.0420299 0.127234 0.261496
577 2 0.0578748 0.142981 0.272728
379 2 0.068259 0.09538 0.318322
16 1 0.0151015 0.111873 0.327248
17 3 0.00403523 0.0917481 0.32855
380 4 0.0795782 0.0826711 0.300004
2463 4 0.223162 0.147459 0.24143
2461 2 0.224698 0.124337 0.250822
2462 4 0.226234 0.101216 0.260213
1406 4 0.245828 0.0988747 0.262528
526 2 0.309261 0.16329 0.263164
256 2 0.399167 0.0865654 0.33274
254 4 0.419096 0.140628 0.256631
253 2 0.418586 0.159101 0.273474
578 4 0.0737198 0.158728 0.283959
511 2 0.0599358 0.199135 0.289118
512 4 0.0722241 0.177502 0.291609
513 4 0.0476476 0.220768 0.286627
2897 4 0.0417522 0.237126 0.2744
489 4 0.143435 0.240567 0.26037
411 4 0.160267 0.24265 0.249728
528 4 0.311081 0.174393 0.285493
624 4 0.318707 0.190514 0.293366
622 2 0.311638 0.213633 0.286985
615 4 0.272814 0.235262 0.30833
623 4 0.30457 0.236752 0.280604
613 2 0.282007 0.234884 0.331579
677 4 0.257705 0.246757 0.30435
522 4 0.422974 0.194693 0.281221
255 4 0.418076 0.177573 0.290318
2836 2 0.485816 0.208516 0.316379
2838 4 0.477155 0.220453 0.296187
521 4 0.460423 0.227544 0.285588
520 2 0.441699 0.211118 0.283405
2896 2 0.042862 0.260466 0.283299
2898 4 0.0439718 0.283807 0.292197
2717 4 0.0575931 0.297201 0.287009
2716 2 0.057736 0.313638 0.30585
2718 4 0.0578789 0.330075 0.32469
487 2 0.123058 0.254614 0.256811
488 4 0.102681 0.26866 0.253253
5 3 0.224154 0.322706 0.256907
1 1 0.242694 0.310724 0.251308
3 3 0.248217 0.296179 0.268523
402 4 0.209437 0.325467 0.270102
4 3 0.260422 0.325084 0.247077
678 4 0.264275 0.28915 0.278652
676 2 0.26099 0.267954 0.291501
1437 4 0.315678 0.253571 0.285064
641 4 0.392766 0.318643 0.249255
230 4 0.389332 0.338899 0.252457
1435 2 0.329367 0.272465 0.276076
1436 4 0.343056 0.291359 0.267088
393 4 0.0280685 0.351906 0.257258
391 2 0.0276213 0.362527 0.27989
392 4 0.027174 0.373147 0.302521
417 4 0.0180951 0.383906 0.316268
401 4 0.178099 0.359196 0.250584
400 2 0.193768 0.342332 0.260343
414 4 0.254457 0.389265 0.34514
1453 2 0.366592 0.411974 0.255418
3513 4 0.059383 0.484919 0.314122
2529 4 0.0676913 0.494294 0.300258
1765 2 0.123562 0.469707 0.259822
1767 4 0.129547 0.455488 0.279498
345 4 0.214929 0.456452 0.258305
602 4 0.232208 0.449415 0.266585
601 2 0.245266 0.449159 0.287906
603 4 0.258324 0.448903 0.309227
594 4 0.315776 0.503427 0.31102
751 2 0.363357 0.42284 0.309315
1455 4 0.358914 0.419549 0.277976
752 4 0.359734 0.435421 0.288013
2925 4 0.41336 0.452207 0.340809
2924 4 0.462823 0.448785 0.334295
2923 2 0.438092 0.450496 0.337552
2538 4 0.477467 0.458983 0.326394
317 4 0.0661821 0.0266956 0.411998
1771 2 0.0372822 0.994218 0.404114
1772 4 0.0491365 0.0155326 0.409623
316 2 0.083297 0.0447533 0.409512
318 4 0.100412 0.062811 0.407027
399 4 0.0986664 0.0826929 0.408773
730 2 0.226966 0.0303222 0.329602
731 4 0.237366 0.0391455 0.350558
1058 4 0.230327 0.0446358 0.369113
1057 2 0.250856 0.04221 0.383179
1059 4 0.271385 0.0397842 0.397245
3759 4 0.349425 0.05826 0.391359
3757 2 0.370116 0.0506793 0.403175
4581 4 0.488434 0.0344288 0.394406
4579 2 0.478326 0.0141123 0.404907
20 3 0.0370256 0.108734 0.332552
381 4 0.0569398 0.108089 0.336639
2847 4 0.993846 0.140463 0.35263
2846 4 0.0277977 0.154888 0.386393
1034 4 0.0428064 0.162191 0.397325
2845 2 0.010822 0.147676 0.369511
1033 2 0.0622841 0.149573 0.40663
588 4 0.155409 0.164337 0.364417
342 4 0.166279 0.149865 0.37284
340 2 0.167141 0.132839 0.391131
341 4 0.168002 0.115814 0.409422
1479 4 0.2434 0.15368 0.400558
1700 4 0.24142 0.158553 0.420353
900 4 0.326928 0.0924925 0.361793
898 2 0.304019 0.0997875 0.36866
899 4 0.28111 0.107083 0.375526
1478 4 0.262093 0.114979 0.374993
1477 2 0.252747 0.134329 0.387776
257 4 0.393476 0.103953 0.349783
1031 4 0.403893 0.119774 0.348261
1030 2 0.424418 0.128181 0.359803
1032 4 0.444943 0.136588 0.371345
3268 2 0.452149 0.113488 0.404092
3270 4 0.439144 0.126499 0.387158
586 2 0.170066 0.175533 0.347535
587 4 0.184723 0.186729 0.330652
614 4 0.2912 0.234506 0.354829
434 4 0.308548 0.223186 0.354414
433 2 0.314584 0.216992 0.377874
435 4 0.32062 0.210798 0.401335
650 4 0.316004 0.220089 0.418661
1518 4 0.494255 0.181212 0.350632
1221 4 0.998834 0.259822 0.377423
1220 4 0.0477057 0.270069 0.380122
1219 2 0.0232699 0.264946 0.378772
291 4 0.0558084 0.284523 0.390142
289 2 0.0782975 0.294418 0.385504
290 4 0.100787 0.304313 0.380866
390 4 0.10896 0.295066 0.397844
388 2 0.129104 0.299388 0.412011
3307 2 0.47106 0.317782 0.40312
3308 4 0.477995 0.298128 0.416933
327 4 0.0187701 0.358623 0.389068
1758 4 0.0534572 0.338154 0.342561
1756 2 0.0419543 0.341184 0.364554
681 4 0.0266809 0.399569 0.375643
1757 4 0.0304515 0.344215 0.386546
415 2 0.0157902 0.394 0.339027
416 4 0.0134853 0.404094 0.361786
463 2 0.120418 0.408112 0.355103
464 4 0.118506 0.388221 0.340074
431 4 0.175 0.36045 0.395637
430 2 0.175415 0.349718 0.373058
432 4 0.17583 0.338985 0.350479
413 4 0.256154 0.343019 0.36409
412 2 0.255306 0.366142 0.354615
436 2 0.287199 0.412175 0.329363
120 3 0.322079 0.412968 0.338362
438 4 0.26501 0.400955 0.331998
446 4 0.325918 0.417944 0.39256
116 1 0.335863 0.406002 0.355098
119 3 0.33175 0.383692 0.359973
3309 4 0.464126 0.337436 0.389307
1743 4 0.484091 0.339752 0.386064
1741 2 0.497368 0.356263 0.372787
3221 4 0.476167 0.407542 0.413651
679 2 0.0299369 0.421436 0.387323
680 4 0.0331929 0.443303 0.399003
2296 2 0.0456012 0.47435 0.411196
2298 4 0.0494153 0.449701 0.409449
3512 4 0.0331241 0.502853 0.352717
3511 2 0.0462535 0.493886 0.33342
465 4 0.12233 0.428002 0.370133
1320 4 0.20559 0.432704 0.337712
1318 2 0.219271 0.453297 0.341449
1319 4 0.232952 0.473889 0.345185
500 4 0.226859 0.482678 0.360684
499 2 0.244163 0.48853 0.377758
501 4 0.261467 0.494381 0.394832
1704 4 0.281873 0.520312 0.397236
437 4 0.309388 0.423394 0.326729
445 2 0.302741 0.419273 0.401844
447 4 0.279563 0.420602 0.411129
1863 4 0.265342 0.435477 0.411476
753 4 0.36698 0.410259 0.330617
118 3 0.358017 0.408776 0.34878
117 3 0.331871 0.418588 0.373935
668 4 0.408426 0.434067 0.346921
667 2 0.390397 0.442407 0.362106
930 4 0.371942 0.45871 0.396389
669 4 0.372369 0.450747 0.37729
1391 4 0.472707 0.421891 0.398291
1781 4 0.174048 0.0723297 0.460763
321 4 0.166209 0.0669255 0.478474
893 4 0.203832 0.0215934 0.465724
892 2 0.19806 0.0357387 0.485517
2238 4 0.272095 0.0274397 0.446912
2236 2 0.294858 0.0181538 0.451471
715 2 0.399217 0.0111944 0.430982
3758 4 0.390806 0.0430985 0.414991
716 4 0.400462 0.0361647 0.430646
1035 4 0.0817617 0.136955 0.415935
397 2 0.0962852 0.104929 0.419956
398 4 0.093904 0.127165 0.43114
911 4 0.145418 0.119069 0.500935
910 2 0.164753 0.117824 0.485129
1780 2 0.173196 0.0854104 0.439471
1782 4 0.172344 0.0984911 0.418179
1152 4 0.20087 0.117504 0.48121
1150 2 0.217355 0.112328 0.499283
912 4 0.184087 0.116578 0.469324
3269 4 0.465153 0.100476 0.421026
2460 4 0.987828 0.201982 0.454427
383 4 0.0445869 0.232101 0.469858
382 2 0.042958 0.226356 0.445578
384 4 0.0413291 0.220611 0.421298
1699 2 0.253825 0.179333 0.426639
1701 4 0.266231 0.200112 0.432924
649 2 0.327164 0.21981 0.441033
651 4 0.338325 0.21953 0.463406
813 4 0.353491 0.228502 0.452656
811 2 0.375648 0.231769 0.463771
812 4 0.397806 0.235037 0.474887
467 4 0.409434 0.237402 0.491505
3065 4 0.497732 0.199426 0.471849
953 4 0.481036 0.201248 0.482069
389 4 0.149248 0.303711 0.426179
510 4 0.164388 0.308977 0.438754
509 4 0.178239 0.274693 0.47242
508 2 0.171313 0.291835 0.455587
570 4 0.193145 0.280127 0.486047
576 4 0.244211 0.292075 0.47169
574 2 0.246843 0.275671 0.490376
466 2 0.427137 0.251026 0.480273
468 4 0.44484 0.26465 0.469041
266 4 0.463115 0.257069 0.464849
267 4 0.463405 0.285871 0.42397
265 2 0.46326 0.27147 0.44441
850 2 0.0627889 0.403195 0.4463
852 4 0.0462633 0.411459 0.429453
851 4 0.0793144 0.394932 0.463146
1190 4 0.0972637 0.391216 0.469696
1189 2 0.0871414 0.374658 0.485461
1819 2 0.243671 0.37496 0.485934
378 4 0.324349 0.369627 0.435311
377 4 0.277437 0.361731 0.419894
376 2 0.300893 0.365679 0.427603
1821 4 0.262514 0.364891 0.472943
584 4 0.340606 0.376865 0.443987
2457 4 0.385483 0.361523 0.435633
583 2 0.350838 0.399671 0.443392
2455 2 0.410085 0.36593 0.434925
806 4 0.480279 0.365523 0.506184
3220 2 0.465483 0.386535 0.422001
3222 4 0.4548 0.365527 0.430351
2456 4 0.434687 0.370336 0.434217
2684 4 0.984857 0.456974 0.434066
1861 2 0.248007 0.439222 0.429101
1862 4 0.230672 0.442967 0.446727
790 2 0.329138 0.487005 0.496732
773 4 0.318604 0.488605 0.449122
772 2 0.304671 0.467874 0.448017
774 4 0.290737 0.447142 0.446911
791 4 0.319396 0.490774 0.474015
585 4 0.36107 0.422477 0.442797
929 4 0.37811 0.433476 0.439119
928 2 0.375026 0.446093 0.417754
1390 2 0.465897 0.441314 0.412487
1392 4 0.459087 0.460738 0.426684
1696 2 0.464126 0.498871 0.436266
1697 4 0.467232 0.479232 0.421105
457 2 0.0631317 0.053787 0.559592
459 4 0.0405587 0.0441297 0.554863
1271 4 0.0321927 0.0613703 0.559215
1270 2 0.0154861 0.0799721 0.559016
458 4 0.0857048 0.0634443 0.564322
1601 4 0.0940277 0.0551581 0.548338
1600 2 0.11321 0.0504883 0.532995
1602 4 0.132392 0.0458186 0.517651
320 4 0.133782 0.0654408 0.516514
319 2 0.149996 0.0661831 0.497494
1182 4 0.245465 0.0175373 0.569416
1244 4 0.2312 0.0299646 0.562664
1243 2 0.236891 0.0481639 0.578837
894 4 0.192288 0.0498839 0.505311
1180 2 0.256932 0.998931 0.557271
798 4 0.342422 0.0567333 0.572437
939 4 0.347303 0.0759185 0.568631
796 2 0.339291 0.0319322 0.57191
305 4 0.398718 0.0598218 0.525757
2049 4 0.224432 0.103998 0.534194
2047 2 0.239445 0.0976276 0.553148
1151 4 0.23384 0.107152 0.517356
2048 4 0.254457 0.0912573 0.572101
41 1 0.385034 0.14268 0.536255
44 3 0.380104 0.156884 0.518582
42 3 0.400134 0.12687 0.5291
306 4 0.407038 0.108439 0.533996
45 3 0.366074 0.132264 0.543375
43 3 0.394478 0.15472 0.553698
304 2 0.402878 0.0841303 0.529876
938 4 0.352993 0.116863 0.540491
937 2 0.350148 0.0963907 0.554561
4467 4 0.40992 0.153636 0.567368
4465 2 0.433382 0.161042 0.571828
49 3 0.475252 0.169486 0.568726
872 4 0.492509 0.155186 0.531498
348 4 0.025874 0.23436 0.529102
2374 2 0.157526 0.192867 0.577136
2375 4 0.155717 0.201993 0.553928
3274 2 0.14253 0.240185 0.532172
3275 4 0.15316 0.221128 0.544381
605 4 0.317835 0.183938 0.528315
604 2 0.338957 0.172672 0.521094
606 4 0.360079 0.161407 0.513874
1136 4 0.408348 0.246409 0.540682
4466 4 0.456843 0.168448 0.576288
46 1 0.492405 0.175787 0.554427
48 3 0.483598 0.185569 0.535318
954 4 0.485045 0.171158 0.521809
952 2 0.48304 0.186203 0.501939
346 2 0.0207185 0.258758 0.527285
347 4 0.0155631 0.283157 0.525468
709 2 0.0827675 0.327505 0.515268
710 4 0.0789797 0.302823 0.513997
3039 4 0.00122629 0.283526 0.510774
2448 4 0.0779678 0.29215 0.497421
3276 4 0.131901 0.259241 0.519963
2447 4 0.115003 0.260861 0.509671
2446 2 0.0964856 0.276506 0.503546
569 4 0.188422 0.262918 0.532762
568 2 0.190783 0.271523 0.509404
240 4 0.251912 0.274654 0.521996
575 4 0.249474 0.259267 0.509062
238 2 0.261075 0.288228 0.540889
239 4 0.270238 0.301802 0.559783
695 4 0.289421 0.297343 0.553995
694 2 0.31422 0.300207 0.555416
634 2 0.368022 0.312625 0.55567
635 4 0.387747 0.312211 0.54031
696 4 0.339018 0.303071 0.556838
1137 4 0.394052 0.294068 0.535686
1135 2 0.4012 0.270239 0.538184
636 4 0.348296 0.313039 0.571029
1191 4 0.0770191 0.3581 0.501226
711 4 0.0865553 0.352187 0.516539
1445 4 0.228387 0.401964 0.510077
1820 4 0.224829 0.38503 0.498925
2353 2 0.335224 0.397076 0.532913
2355 4 0.314682 0.39074 0.520143
662 4 0.316067 0.393499 0.58066
2354 4 0.355766 0.403412 0.545682
1268 4 0.355053 0.402862 0.565882
807 4 0.431415 0.358915 0.497854
805 2 0.455847 0.362219 0.502019
1383 4 0.067059 0.469578 0.553562
1381 2 0.0430188 0.465535 0.548003
1382 4 0.0189785 0.461492 0.542444
2157 4 0.0616558 0.488514 0.557516
3539 4 0.00985704 0.488208 0.51662
3538 2 0.0026846 0.466018 0.507602
3540 4 0.995512 0.443828 0.498583
2140 2 0.176093 0.495238 0.510846
1237 2 0.164174 0.482486 0.573373
2142 4 0.180973 0.487539 0.534129
1238 4 0.16993 0.479185 0.549266
1446 4 0.197746 0.439805 0.521475
1444 2 0.213066 0.420884 0.515776
792 4 0.338879 0.483236 0.51945
2152 2 0.316909 0.499784 0.549527
2153 4 0.301083 0.501631 0.568796
2154 4 0.332735 0.497937 0.530258
1267 2 0.369823 0.423011 0.566891
1269 4 0.384593 0.443161 0.5679
1251 4 0.377051 0.456087 0.553667
1249 2 0.396448 0.471593 0.550748
1250 4 0.415845 0.487098 0.547828
1245 4 0.242582 0.0663633 0.595011
1203 4 0.228667 0.0677515 0.609102
1201 2 0.216847 0.0609229 0.63005
1202 4 0.205026 0.0540943 0.650998
797 4 0.33616 0.00713101 0.571383
1226 4 0.0577503 0.118736 0.66119
1200 4 0.133086 0.139012 0.621117
1198 2 0.148945 0.158324 0.620276
921 4 0.20491 0.137962 0.604738
919 2 0.205474 0.156132 0.621905
1143 4 0.391239 0.14772 0.66641
1004 4 0.381174 0.130537 0.660207
1258 2 0.0827286 0.248522 0.647279
2376 4 0.159336 0.18374 0.600344
1199 4 0.164804 0.177636 0.619435
1259 4 0.105361 0.244473 0.637452
920 4 0.206039 0.174301 0.639073
2132 4 0.218094 0.189533 0.643388
2131 2 0.229679 0.211083 0.638234
2133 4 0.241265 0.232633 0.63308
825 4 0.256586 0.245049 0.628466
1098 4 0.300684 0.190214 0.620994
1096 2 0.320339 0.205537 0.618975
1097 4 0.339993 0.220861 0.616957
858 4 0.359282 0.221731 0.623076
856 2 0.380997 0.209391 0.621914
857 4 0.402712 0.19705 0.620752
1260 4 0.060096 0.25257 0.657105
2991 4 0.136791 0.291362 0.654725
1208 4 0.128429 0.296632 0.63826
1207 2 0.107855 0.30736 0.647578
1209 4 0.0872812 0.318087 0.656895
274 2 0.250881 0.319645 0.608335
276 4 0.247135 0.298036 0.596327
823 2 0.273591 0.256069 0.613817
824 4 0.290596 0.267089 0.599168
3021 4 0.478782 0.307863 0.611856
3019 2 0.478359 0.32899 0.625221
984 4 0.0168862 0.403707 0.612707
982 2 0.0286973 0.41993 0.627623
1952 4 0.221092 0.401889 0.635512
936 4 0.259515 0.345 0.638553
275 4 0.254628 0.341255 0.620342
934 2 0.271048 0.360656 0.65427
663 4 0.326509 0.416211 0.623971
661 2 0.321288 0.404855 0.602315
4484 4 0.328758 0.417201 0.644056
3020 4 0.477936 0.350118 0.638585
3114 4 0.489258 0.365936 0.632983
983 4 0.0405085 0.436154 0.642538
6 1 0.011775 0.492444 0.596234
9 3 0.0317245 0.494507 0.584565
1040 4 0.0339937 0.446614 0.658527
8 3 0.0156927 0.482824 0.616983
1239 4 0.158417 0.485788 0.59748
1951 2 0.219401 0.420935 0.619401
1953 4 0.217711 0.439981 0.603289
1001 4 0.214391 0.459619 0.596535
1000 2 0.209062 0.478118 0.612489
1002 4 0.203733 0.496617 0.628444
2310 4 0.281026 0.488027 0.602984
4483 2 0.323603 0.439062 0.655042
1911 4 0.312546 0.478865 0.656856
4485 4 0.318449 0.460923 0.666028
1184 4 0.0555155 0.0372723 0.737234
1183 2 0.076887 0.0500978 0.73922
1083 4 0.182784 0.00561397 0.733031
1081 2 0.174924 0.0285799 0.739027
1971 4 0.284765 0.00999047 0.72433
2230 2 0.277801 0.0418774 0.699231
2232 4 0.278741 0.0532191 0.676968
2231 4 0.276862 0.0305358 0.721495
951 4 0.296691 0.0601958 0.678342
949 2 0.315518 0.0766339 0.677635
2264 4 0.469383 0.0649604 0.693607
2263 2 0.488718 0.072203 0.70771
4519 2 0.00954651 0.0984827 0.742049
1225 2 0.0816682 0.11662 0.668164
1227 4 0.105586 0.114504 0.675138
1284 4 0.127234 0.11181 0.668985
1282 2 0.135934 0.130256 0.68345
1283 4 0.144635 0.148702 0.697915
1130 4 0.159807 0.162478 0.702477
950 4 0.334345 0.0930721 0.676929
1005 4 0.342118 0.110023 0.683755
1003 2 0.361646 0.12028 0.671981
3374 4 0.0278856 0.257632 0.712593
1129 2 0.15029 0.177301 0.720222
1131 4 0.140773 0.192123 0.737968
1154 4 0.133987 0.205297 0.753027
977 4 0.254976 0.233668 0.678084
1212 4 0.239219 0.240334 0.690263
976 2 0.263303 0.213901 0.690935
978 4 0.271629 0.194134 0.703785
1141 2 0.40048 0.170952 0.666693
1142 4 0.409721 0.194183 0.666976
2987 4 0.345746 0.211329 0.731653
2986 2 0.352275 0.227344 0.749711
1193 4 0.492051 0.195209 0.668429
1064 4 0.488197 0.19257 0.688277
1063 2 0.474487 0.189656 0.708983
1065 4 0.460778 0.186742 0.729689
3191 4 0.456018 0.206255 0.73309
3375 4 0.0425872 0.260446 0.664878
3373 2 0.0352364 0.259039 0.688735
897 4 0.0689626 0.320374 0.663699
261 4 0.0168523 0.269903 0.72363
895 2 0.060431 0.329486 0.685364
2989 2 0.150045 0.278117 0.671281
2990 4 0.163299 0.264872 0.687837
814 2 0.16259 0.287873 0.729498
815 4 0.165109 0.309574 0.717336
816 4 0.160072 0.266173 0.741661
948 4 0.223673 0.299179 0.685748
946 2 0.203784 0.311757 0.694199
947 4 0.183896 0.324335 0.702651
1211 4 0.240503 0.290288 0.688364
1210 2 0.239861 0.265311 0.689314
896 4 0.0518995 0.338597 0.707029
2358 4 0.0582574 0.347465 0.725704
2356 2 0.0613574 0.365201 0.743053
879 4 0.176418 0.325458 0.721426
877 2 0.179268 0.337245 0.743292
935 4 0.282581 0.376312 0.669988
2796 4 0.268511 0.387461 0.678017
2794 2 0.260917 0.410963 0.681909
1266 4 0.344325 0.376333 0.732452
1293 4 0.351738 0.388639 0.718894
1291 2 0.373489 0.393001 0.70736
1292 4 0.39524 0.397363 0.695825
1139 4 0.413412 0.404525 0.69867
1264 2 0.354838 0.361698 0.749786
1039 2 0.0170443 0.442962 0.676542
1188 4 0.128395 0.412102 0.720144
1159 2 0.144333 0.488673 0.67627
1186 2 0.129068 0.435511 0.711383
1160 4 0.130999 0.469614 0.685444
1187 4 0.129741 0.458919 0.702622
2795 4 0.253323 0.434465 0.685801
1989 4 0.241709 0.449467 0.692212
1988 4 0.258923 0.496408 0.69126
1987 2 0.250316 0.472937 0.691736
1138 2 0.41555 0.428204 0.70641
4182 4 0.454097 0.48356 0.668937
3023 4 0.486168 0.468124 0.682297
1140 4 0.417688 0.451883 0.714149
4181 4 0.427016 0.468486 0.708181
4180 2 0.440557 0.476023 0.688559
4214 4 0.497196 0.474653 0.721102
3012 4 0.488108 0.439904 0.756932
1185 4 0.0982585 0.0629233 0.741205
1082 4 0.167063 0.0515459 0.745023
945 4 0.116532 0.0676318 0.745815
943 2 0.135906 0.0799642 0.755701
1084 2 0.306443 0.063996 0.812082
1086 4 0.314024 0.0421494 0.821592
2197 2 0.40598 0.993314 0.808877
2198 4 0.415206 0.0108624 0.824111
2063 4 0.432119 0.0206805 0.82122
2321 4 0.496765 0.0237061 0.779446
3355 2 0.501336 0.0166376 0.818486
1073 4 0.0262883 0.147302 0.817069
4520 4 0.020842 0.110244 0.761003
1072 2 0.0277903 0.131886 0.79744
1074 4 0.0292923 0.116471 0.777811
3296 4 0.029173 0.154505 0.834333
944 4 0.15528 0.0922966 0.765587
965 4 0.0873986 0.123925 0.766354
2114 4 0.156176 0.0905434 0.784718
964 2 0.0977076 0.132994 0.78725
820 2 0.135238 0.139801 0.828776
966 4 0.108017 0.142063 0.808147
822 4 0.110299 0.138097 0.828213
2113 2 0.157031 0.0917333 0.809679
821 4 0.160177 0.141506 0.829339
1278 4 0.174374 0.155616 0.82643
2115 4 0.157887 0.0929232 0.834639
1276 2 0.189488 0.163686 0.808219
1085 4 0.298863 0.0858426 0.802572
1262 4 0.295394 0.10691 0.800092
975 4 0.263704 0.152854 0.788662
1261 2 0.276924 0.123671 0.801847
1263 4 0.258453 0.140432 0.803602
1241 4 0.34065 0.122346 0.755087
1240 2 0.356796 0.120776 0.774113
1242 4 0.372942 0.119205 0.79314
1007 4 0.386846 0.133243 0.789522
1006 2 0.406883 0.141126 0.802232
1008 4 0.426921 0.149009 0.814941
556 2 0.480677 0.0843977 0.822748
558 4 0.494586 0.0960436 0.805541
3295 2 0.0283925 0.179345 0.831589
3418 2 0.0118395 0.240499 0.826473
3419 4 0.0168431 0.217917 0.83597
3297 4 0.0276119 0.204186 0.828845
1153 2 0.156084 0.207959 0.764419
1277 4 0.204602 0.171755 0.790008
1155 4 0.178182 0.210621 0.775812
974 4 0.220418 0.175613 0.77822
973 2 0.242061 0.164234 0.783441
2988 4 0.358804 0.243358 0.767769
979 2 0.400593 0.239474 0.78134
2906 4 0.347651 0.170436 0.824295
981 4 0.423704 0.232564 0.787923
3192 4 0.434128 0.228133 0.77237
3190 2 0.445073 0.217194 0.75273
3420 4 0.00683588 0.263082 0.816977
153 3 0.00339523 0.280177 0.825939
155 3 0.00888313 0.295359 0.791924
151 1 0.997447 0.297353 0.811517
152 3 0.00270617 0.317474 0.821346
1056 4 0.119212 0.322965 0.798791
1295 4 0.158408 0.281435 0.807064
1054 2 0.130722 0.325924 0.820789
1294 2 0.161588 0.279682 0.782326
1296 4 0.164768 0.277928 0.757587
3337 2 0.220693 0.27955 0.805228
3338 4 0.202713 0.288117 0.820345
903 4 0.194932 0.305316 0.828868
3339 4 0.238674 0.270984 0.790112
869 4 0.251726 0.280482 0.802451
868 2 0.275837 0.286833 0.800579