ITEM: TIMESTEP
5950000
ITEM: NUMBER OF ATOMS
4590
ITEM: BOX BOUNDS pp pp pp
-9.9985700000000008e+00 9.9985700000000008e+00
-9.9985700000000008e+00 9.9985700000000008e+00
-9.9985700000000008e+00 9.9985700000000008e+00
ITEM: ATOMS id type xs ys zs
1633 2 0.0701338 0.0473884 0.0397388
1148 4 0.0517709 0.0706565 0.0103011
1634 4 0.0659723 0.0610926 0.0192435
34 3 0.0740167 0.0392529 0.0786877
1635 4 0.0742952 0.0336842 0.0602341
996 4 0.128786 0.0266069 0.0728067
33 3 0.111498 0.0383994 0.0724569
994 2 0.149762 0.0359553 0.0826949
1037 4 0.238085 0.0156192 0.0268973
566 4 0.245122 0.0348481 0.0274058
565 2 0.252028 0.0488432 0.0469411
567 4 0.258934 0.0628382 0.0664763
532 2 0.391611 0.0261916 0.0759052
534 4 0.373892 0.0121406 0.0652386
28 3 0.378144 0.00481194 0.0223847
3232 2 0.158639 0.103946 0.0866135
3234 4 0.169824 0.106652 0.0644157
1170 4 0.172856 0.109919 0.045199
1168 2 0.188673 0.127114 0.0362934
1169 4 0.204491 0.144309 0.0273879
836 4 0.204056 0.153803 0.00983332
2621 4 0.414926 0.166697 0.998422
2162 4 0.484308 0.154097 0.00895283
2622 4 0.455452 0.137418 0.999439
2620 2 0.435189 0.152057 0.99893
2161 2 0.490195 0.159014 0.0327509
2163 4 0.496081 0.163932 0.056549
741 4 0.160085 0.204308 0.0810827
324 4 0.39337 0.233872 0.00596429
1006 2 0.394679 0.237427 0.0838489
2771 4 0.059684 0.255898 0.0132755
3090 4 0.0439109 0.255046 0.0268063
1368 4 0.0283268 0.314938 0.0163629
3089 4 0.0185532 0.297367 0.01864
3088 2 0.0312321 0.276207 0.0227232
555 4 0.0179163 0.291403 0.0796103
639 4 0.219855 0.308394 0.0186598
1289 4 0.209427 0.292767 0.0225465
1288 2 0.193416 0.275941 0.0132874
637 2 0.22648 0.325757 0.0353884
307 2 0.306427 0.260273 0.0879364
308 4 0.306238 0.280621 0.0734073
2288 4 0.315457 0.296322 0.0826091
2287 2 0.318921 0.320661 0.0871683
322 2 0.379025 0.252889 0.0135633
323 4 0.364679 0.271906 0.0211623
483 4 0.371066 0.289146 0.0301181
481 2 0.385411 0.309281 0.0263784
1007 4 0.390194 0.260641 0.0757138
646 2 0.0276932 0.417921 0.0843811
647 4 0.0517259 0.417509 0.0774934
638 4 0.233105 0.343119 0.0521171
1094 4 0.247334 0.351303 0.065251
942 4 0.183935 0.384877 0.0198044
1093 2 0.256238 0.365564 0.0837577
482 4 0.399756 0.329416 0.0226387
560 4 0.40178 0.348298 0.0308911
559 2 0.415122 0.363817 0.0452549
561 4 0.428465 0.379336 0.0596187
3491 4 0.43666 0.395435 0.0684584
648 4 0.00366057 0.418333 0.0912688
1726 2 0.202137 0.497923 0.0844179
1618 2 0.328617 0.469466 0.0687933
2006 4 0.271002 0.502644 0.0129882
2166 4 0.256853 0.498345 0.026744
609 4 0.310962 0.501461 0.0856844
4547 4 0.35454 0.44219 0.00645203
4546 2 0.347683 0.436609 0.0298401
4548 4 0.340825 0.431027 0.0532282
1620 4 0.328942 0.447048 0.0577259
359 4 0.0931917 0.0778552 0.0830362
32 3 0.0974802 0.0273942 0.105548
31 1 0.0949418 0.0423239 0.0882331
3508 2 0.115135 0.0217163 0.13839
3510 4 0.0935993 0.0235077 0.125813
35 3 0.0967655 0.063544 0.0962971
1070 4 0.140212 0.999347 0.153188
3509 4 0.136671 0.0199248 0.150966
2330 4 0.163711 0.0384876 0.109758
995 4 0.170739 0.0453036 0.092583
2329 2 0.180347 0.0476541 0.126018
2331 4 0.196983 0.0568206 0.142278
1427 4 0.275209 0.00391175 0.141978
533 4 0.409331 0.0402425 0.0865718
521 4 0.415836 0.0433736 0.156721
2769 4 0.427734 0.0433109 0.0925763
2767 2 0.424689 0.0380126 0.116822
2768 4 0.421643 0.0327142 0.141067
758 4 0.492842 0.0338073 0.111872
578 4 0.099497 0.13213 0.108813
3233 4 0.147454 0.10124 0.108811
360 4 0.103497 0.114351 0.115633
358 2 0.0983442 0.0961031 0.0993348
284 4 0.157073 0.116002 0.119523
577 2 0.108461 0.155355 0.106487
283 2 0.17766 0.124378 0.130977
285 4 0.198246 0.132755 0.142431
236 4 0.207444 0.133648 0.158749
616 2 0.248431 0.159636 0.127264
51 1 0.302911 0.153132 0.154082
54 3 0.281449 0.148244 0.146742
618 4 0.26329 0.143914 0.139801
624 4 0.323322 0.125743 0.151448
53 3 0.316409 0.158595 0.136016
404 4 0.325338 0.140289 0.13739
52 3 0.311609 0.134569 0.164518
622 2 0.327501 0.103281 0.161606
403 2 0.349499 0.142429 0.131318
405 4 0.373659 0.14457 0.125246
2792 4 0.375844 0.155776 0.108194
664 2 0.0527749 0.216875 0.12123
371 4 0.0517396 0.192343 0.149074
666 4 0.0463172 0.194276 0.129759
665 4 0.0592327 0.239475 0.1127
513 4 0.0120563 0.226405 0.160395
739 2 0.137158 0.2013 0.090593
740 4 0.11423 0.198293 0.100103
579 4 0.117425 0.17858 0.10416
674 4 0.130972 0.195671 0.138435
673 2 0.113126 0.192717 0.155697
689 4 0.177858 0.205915 0.0939576
617 4 0.233572 0.175359 0.114726
690 4 0.213522 0.174524 0.109558
688 2 0.19569 0.190219 0.101758
309 4 0.306616 0.239925 0.102466
55 3 0.302315 0.170453 0.168855
2793 4 0.381677 0.203739 0.0953034
2791 2 0.37876 0.179758 0.101749
1008 4 0.399164 0.214213 0.0919839
15 3 0.0821778 0.279742 0.0840498
553 2 0.0422374 0.291465 0.0854118
554 4 0.0665586 0.291528 0.0912133
13 3 0.0729116 0.254316 0.110228
2609 4 0.999444 0.291435 0.0875765
11 1 0.0893492 0.268879 0.102737
14 3 0.0944853 0.284246 0.119347
12 3 0.108257 0.25679 0.0976872
288 4 0.196908 0.330838 0.121142
286 2 0.215424 0.314857 0.126334
287 4 0.233939 0.298876 0.131526
524 4 0.226323 0.28613 0.145829
339 4 0.470082 0.284607 0.13366
246 4 0.452751 0.294933 0.128718
337 2 0.484901 0.279625 0.153173
244 2 0.440898 0.314478 0.118587
245 4 0.429044 0.334024 0.108456
703 2 0.142757 0.402811 0.155133
704 4 0.153441 0.380949 0.160884
610 2 0.165546 0.347375 0.143636
612 4 0.178714 0.333835 0.127251
1157 4 0.247804 0.413535 0.144776
2289 4 0.322384 0.345001 0.0917275
1156 2 0.262461 0.397965 0.131818
1158 4 0.277117 0.382394 0.118859
1095 4 0.265143 0.379826 0.102264
959 4 0.342548 0.349941 0.0955122
958 2 0.364407 0.358975 0.103622
960 4 0.386266 0.368008 0.111731
2571 4 0.401295 0.380302 0.115148
2569 2 0.418583 0.36268 0.119123
3490 2 0.45334 0.399248 0.0866905
3492 4 0.47002 0.403061 0.104923
2570 4 0.43587 0.345059 0.123098
334 2 0.479055 0.40023 0.150423
335 4 0.462865 0.381598 0.154415
3519 4 0.066142 0.414653 0.0907978
3517 2 0.0864101 0.429246 0.0919911
3518 4 0.106678 0.443839 0.0931844
507 4 0.139503 0.44385 0.146538
506 4 0.12202 0.454564 0.100928
505 2 0.130762 0.449207 0.123733
705 4 0.132072 0.424673 0.149383
386 4 0.194255 0.464156 0.103477
385 2 0.201034 0.455479 0.125926
1727 4 0.187458 0.480569 0.0948348
387 4 0.207812 0.446803 0.148374
738 4 0.218126 0.452553 0.164048
736 2 0.236099 0.435172 0.163749
1619 4 0.328292 0.491885 0.0798607
737 4 0.254072 0.417792 0.16345
336 4 0.495244 0.418861 0.14643
2757 4 0.0064017 0.0554766 0.225715
2755 2 0.000996403 0.0386541 0.208024
1069 2 0.154635 0.998899 0.173607
1851 4 0.152752 0.024841 0.240934
545 4 0.234171 0.0205253 0.235245
2429 4 0.236331 0.00476343 0.246586
544 2 0.246458 0.0423017 0.235225
1071 4 0.169059 0.99845 0.194026
546 4 0.258744 0.064078 0.235204
1763 4 0.254673 0.0821219 0.230498
1436 4 0.29185 0.0470185 0.202264
1435 2 0.310154 0.0631788 0.19688
623 4 0.331681 0.0808192 0.171763
654 4 0.277758 0.00529923 0.201214
1437 4 0.328458 0.0793391 0.191496
632 4 0.455781 0.00278551 0.186162
520 2 0.422054 0.0508472 0.179757
522 4 0.428273 0.0583207 0.202793
1354 2 0.469276 0.0280738 0.220329
1355 4 0.465444 0.0136438 0.200273
1356 4 0.473108 0.0425038 0.240386
296 4 0.454547 0.0404719 0.245953
488 4 0.0567076 0.138053 0.233403
380 4 0.059825 0.156527 0.238872
487 2 0.0454393 0.119983 0.246507
489 4 0.0341709 0.101914 0.259611
684 4 0.167409 0.149731 0.231229
366 4 0.171185 0.129509 0.22969
235 2 0.229161 0.12527 0.167879
237 4 0.250879 0.116893 0.177008
682 2 0.179039 0.16654 0.216828
1762 2 0.256012 0.100014 0.213083
1764 4 0.257351 0.117906 0.195669
642 4 0.489275 0.166301 0.244027
2836 2 0.431547 0.152629 0.191936
2837 4 0.420526 0.163311 0.172198
2838 4 0.442569 0.141946 0.211674
641 4 0.446026 0.14482 0.231035
640 2 0.467651 0.15556 0.237531
370 2 0.0572705 0.192017 0.173456
379 2 0.0597816 0.178464 0.226874
372 4 0.0628014 0.191692 0.197838
381 4 0.0597382 0.2004 0.214875
511 2 0.0191963 0.233706 0.183218
512 4 0.0263364 0.241006 0.206041
675 4 0.0952792 0.189763 0.172958
683 4 0.190669 0.183349 0.202428
1403 4 0.249845 0.185352 0.187845
1404 4 0.200602 0.194061 0.187811
1402 2 0.225223 0.189707 0.187828
248 4 0.301878 0.182324 0.184792
249 4 0.257124 0.1797 0.206946
247 2 0.279501 0.181012 0.195869
356 4 0.4178 0.227236 0.176115
357 4 0.406961 0.178428 0.175115
355 2 0.41238 0.202832 0.175615
251 4 0.425732 0.243537 0.17002
713 4 0.49942 0.241702 0.205222
933 4 0.480439 0.247277 0.207899
762 4 0.512755 0.223627 0.243723
760 2 0.505857 0.200507 0.237161
735 4 0.0419341 0.253344 0.206549
733 2 0.0416413 0.263571 0.229363
523 2 0.239792 0.281628 0.166408
525 4 0.253261 0.277127 0.186987
473 4 0.27773 0.279984 0.221121
472 2 0.296274 0.267906 0.209484
474 4 0.314818 0.255828 0.197846
2462 4 0.275815 0.283964 0.239701
1103 4 0.332417 0.25864 0.209195
250 2 0.411528 0.260442 0.181751
252 4 0.397323 0.277348 0.193481
1104 4 0.380778 0.270273 0.204037
1102 2 0.356597 0.264457 0.206616
931 2 0.476617 0.259655 0.229285
338 4 0.49972 0.274643 0.172686
301 2 0.483975 0.326025 0.227022
302 4 0.498226 0.322485 0.24726
932 4 0.472794 0.272034 0.250671
2718 4 0.00707462 0.409428 0.233019
1510 2 0.0645847 0.359992 0.209259
1512 4 0.0422605 0.369852 0.20382
620 4 0.0387822 0.375107 0.184698
619 2 0.0152966 0.383683 0.184478
392 4 0.0817548 0.408106 0.186589
611 4 0.152378 0.360914 0.160021
1511 4 0.086909 0.350131 0.214697
1585 2 0.277039 0.379977 0.230955
1586 4 0.282114 0.365411 0.211276
303 4 0.469724 0.329566 0.206784
1454 4 0.459768 0.380381 0.174727
1455 4 0.452407 0.336571 0.197688
1453 2 0.456088 0.358476 0.186208
2716 2 0.0256929 0.424439 0.240313
2717 4 0.0443112 0.43945 0.247607
2742 4 0.997675 0.495295 0.217116
1776 4 0.108385 0.468365 0.194903
393 4 0.109989 0.449378 0.186998
391 2 0.0958719 0.428742 0.186794
1774 2 0.100394 0.478307 0.216408
1775 4 0.0924025 0.48825 0.237913
3717 4 0.24891 0.486737 0.173737
1790 4 0.321857 0.483536 0.211853
755 4 0.312932 0.495084 0.197288
754 2 0.288684 0.493542 0.191386
756 4 0.264436 0.491999 0.185485
1789 2 0.34268 0.497345 0.212796
2551 2 0.0201188 0.0246839 0.292056
1694 4 0.0461417 0.0112372 0.273263
1464 4 0.0641593 0.067104 0.300652
20 3 0.0588119 0.0521555 0.313398
2552 4 0.0261413 0.00466467 0.278339
1462 2 0.0498559 0.0745268 0.281534
726 4 0.0800304 0.00613968 0.331473
2553 4 0.0140963 0.0447032 0.305772
1796 4 0.147181 0.00715128 0.247381
1795 2 0.122792 0.00191839 0.245666
724 2 0.104924 0.00468916 0.329633
1849 2 0.167588 0.0405325 0.253537
725 4 0.129818 0.00323863 0.327793
1850 4 0.182425 0.0562241 0.26614
587 4 0.194594 0.0599486 0.283296
586 2 0.196034 0.0763678 0.302098
691 2 0.303834 0.00715311 0.274421
692 4 0.296091 0.0213554 0.293488
1405 2 0.312821 0.0497999 0.315429
1407 4 0.304528 0.0266686 0.310808
1406 4 0.321113 0.0729312 0.32005
295 2 0.45222 0.0506268 0.268683
297 4 0.449893 0.0607816 0.291412
2559 4 0.468182 0.0683244 0.2953
2557 2 0.484725 0.0768224 0.312012
1463 4 0.0355525 0.0819495 0.262416
364 2 0.162508 0.132159 0.252989
365 4 0.153832 0.134809 0.276289
588 4 0.197473 0.0927871 0.3209
2513 4 0.171884 0.13921 0.282412
2512 2 0.187218 0.141069 0.302074
2514 4 0.202551 0.142929 0.321737
1866 4 0.294899 0.13957 0.29229
1864 2 0.295305 0.161943 0.281133
899 4 0.303865 0.12645 0.306388
898 2 0.296637 0.113076 0.32624
382 2 0.0346734 0.25067 0.308324
384 4 0.0583015 0.244199 0.303322
1220 4 0.0781154 0.241301 0.303641
1219 2 0.100959 0.23157 0.306586
1221 4 0.123802 0.22184 0.309532
570 4 0.136816 0.211601 0.321163
527 4 0.27645 0.238729 0.285373
1865 4 0.295711 0.184315 0.269976
528 4 0.277646 0.192596 0.266112
526 2 0.277048 0.215663 0.275743
2652 4 0.493564 0.208309 0.32291
2599 2 0.479688 0.219645 0.295364
2600 4 0.457363 0.222615 0.284503
1584 4 0.440813 0.230201 0.280113
1582 2 0.42664 0.248385 0.289791
383 4 0.0110453 0.257142 0.313325
734 4 0.0413485 0.273798 0.252178
2459 4 0.0310803 0.286946 0.262209
2458 2 0.0314387 0.300358 0.283308
2460 4 0.0317971 0.313771 0.304406
464 4 0.0378916 0.332327 0.299085
3237 4 0.213319 0.26912 0.336353
2461 2 0.271995 0.270023 0.260103
2463 4 0.268175 0.256083 0.280506
229 2 0.384398 0.296397 0.293716
2457 4 0.3683 0.322811 0.310046
230 4 0.362415 0.308217 0.295208
231 4 0.406381 0.284577 0.292225
1583 4 0.412467 0.266568 0.299469
2455 2 0.360395 0.329656 0.332758
2909 4 0.49924 0.321177 0.301591
1473 4 0.499951 0.330473 0.319284
680 4 0.0357672 0.392392 0.300874
463 2 0.0328818 0.356039 0.292936
465 4 0.0278721 0.379751 0.286786
679 2 0.0462098 0.411965 0.312408
409 2 0.229146 0.347079 0.316903
411 4 0.238019 0.358561 0.296542
753 4 0.221629 0.362423 0.284203
751 2 0.238797 0.377025 0.273375
1587 4 0.271964 0.394543 0.250634
752 4 0.255965 0.391626 0.262548
681 4 0.0566523 0.431538 0.323942
913 2 0.0622889 0.4701 0.307146
915 4 0.0603381 0.494402 0.301597
914 4 0.0642397 0.445798 0.312694
501 4 0.184715 0.476671 0.280002
728 4 0.179361 0.494424 0.288825
499 2 0.209503 0.473934 0.28181
500 4 0.23429 0.471198 0.283618
1862 4 0.291691 0.453519 0.282784
1861 2 0.292761 0.478081 0.28734
668 4 0.388731 0.465964 0.310598
667 2 0.373712 0.472515 0.329484
119 3 0.437221 0.427103 0.323525
1697 4 0.462879 0.471896 0.293508
1698 4 0.443131 0.427556 0.305537
1696 2 0.453005 0.449726 0.299523
130 3 0.474796 0.480802 0.306787
16 1 0.0646699 0.0426311 0.333238
17 3 0.0464421 0.0317437 0.34209
19 3 0.081711 0.0272396 0.329905
18 3 0.0715927 0.05901 0.348145
2847 4 0.0327411 0.0448038 0.347426
2845 2 0.0124135 0.0453116 0.361976
458 4 0.0978512 0.00759016 0.395693
457 2 0.112658 0.0261107 0.403626
459 4 0.127465 0.0446312 0.411558
1780 2 0.206673 0.0293723 0.381237
1781 4 0.214248 0.0509016 0.391449
893 4 0.201812 0.0676256 0.397645
1782 4 0.199098 0.00784298 0.371025
1031 4 0.438017 0.00224035 0.364087
3438 4 0.456776 0.00746056 0.368839
892 2 0.215613 0.0853831 0.408572
900 4 0.28941 0.099702 0.346091
813 4 0.292018 0.0899419 0.363686
811 2 0.288004 0.0995972 0.386398
812 4 0.283989 0.109252 0.40911
44 3 0.264314 0.100573 0.410984
2238 4 0.283294 0.127182 0.417822
568 2 0.154471 0.218348 0.337532
569 4 0.172126 0.225094 0.353902
1 1 0.200279 0.221781 0.380952
3 3 0.223031 0.219812 0.376847
2 3 0.189868 0.229077 0.361781
5 3 0.191681 0.201556 0.386925
401 4 0.229564 0.238716 0.381492
614 4 0.189745 0.180801 0.38856
4 3 0.196588 0.237254 0.397845
613 2 0.182911 0.17458 0.411793
400 2 0.251737 0.237677 0.369983
402 4 0.27391 0.236639 0.358473
3548 4 0.327722 0.166779 0.406777
265 2 0.412027 0.19363 0.399676
266 4 0.389436 0.186325 0.407514
267 4 0.434618 0.200936 0.391837
3308 4 0.435193 0.216462 0.405192
3307 2 0.452408 0.232871 0.397474
3309 4 0.469623 0.249279 0.389755
4308 4 0.0157124 0.284107 0.407292
3235 2 0.212295 0.294055 0.33788
3236 4 0.211272 0.318991 0.339407
676 2 0.239202 0.330223 0.397167
678 4 0.251523 0.316899 0.414368
576 4 0.330809 0.272406 0.384843
574 2 0.343302 0.283247 0.403594
1742 4 0.492362 0.311191 0.387134
1741 2 0.488628 0.286477 0.386463
1743 4 0.484894 0.261763 0.385792
1757 4 0.010957 0.342038 0.364441
345 4 0.0235688 0.353944 0.352656
343 2 0.0465691 0.363642 0.354107
344 4 0.0695694 0.37334 0.355558
508 2 0.0728541 0.40623 0.411351
414 4 0.08787 0.361705 0.358292
477 4 0.145196 0.354135 0.398364
413 4 0.127873 0.35937 0.388209
412 2 0.107871 0.360538 0.373251
475 2 0.163243 0.36802 0.408693
410 4 0.220273 0.335596 0.337265
677 4 0.226882 0.343546 0.379967
476 4 0.18129 0.381905 0.419022
695 4 0.296229 0.408244 0.416908
2456 4 0.352491 0.336502 0.35547
438 4 0.354968 0.353495 0.365384
437 4 0.365955 0.401721 0.37275
436 2 0.360461 0.377608 0.369067
1392 4 0.368818 0.405832 0.39154
1390 2 0.378339 0.405299 0.414653
120 3 0.426198 0.396573 0.342606
116 1 0.439169 0.415276 0.343393
117 3 0.46115 0.409136 0.346267
3771 4 0.482038 0.41827 0.387315
510 4 0.0598215 0.42637 0.404299
549 4 0.0466976 0.436603 0.415511
694 2 0.295223 0.421463 0.395708
696 4 0.294217 0.434682 0.374509
377 4 0.312034 0.43244 0.365297
376 2 0.327494 0.451238 0.359572
669 4 0.358693 0.479067 0.34837
378 4 0.342954 0.470037 0.353847
773 4 0.405655 0.4596 0.405564
1556 4 0.404348 0.454145 0.38675
1555 2 0.418328 0.467149 0.370606
2508 4 0.485613 0.497319 0.386067
118 3 0.432719 0.42864 0.361232
2506 2 0.464623 0.497295 0.372479
1557 4 0.432307 0.480152 0.354461
1033 2 0.00468235 0.0659946 0.461549
1035 4 0.0280543 0.0718536 0.468228
398 4 0.0442303 0.0818763 0.472218
428 4 0.157413 0.998953 0.439633
1376 4 0.13545 0.0411972 0.429549
1375 2 0.155834 0.0430721 0.443908
1377 4 0.176218 0.0449471 0.458266
1601 4 0.189967 0.0306499 0.464196
1600 2 0.206351 0.0392527 0.481011
1152 4 0.301483 0.0389938 0.467592
1150 2 0.285501 0.0575691 0.462618
1839 4 0.319673 0.0430587 0.458931
1837 2 0.336651 0.0308712 0.472657
1151 4 0.26952 0.0761444 0.457645
1217 4 0.388468 0.0663513 0.4599
1216 2 0.405124 0.0478033 0.457972
1218 4 0.421781 0.0292552 0.456043
258 4 0.437008 0.017739 0.460222
256 2 0.448258 0.00251063 0.44389
397 2 0.0397846 0.103438 0.484072
399 4 0.0353389 0.125 0.495925
42 3 0.237326 0.115464 0.432491
894 4 0.229414 0.103141 0.419498
732 4 0.217867 0.159514 0.482192
730 2 0.197564 0.159748 0.467601
2236 2 0.300725 0.144926 0.420364
43 3 0.264539 0.0951506 0.4486
45 3 0.272001 0.129155 0.434258
41 1 0.259696 0.110177 0.431596
2544 4 0.375285 0.0817209 0.433794
2542 2 0.39209 0.0999154 0.437217
2543 4 0.408895 0.11811 0.44064
2816 4 0.428184 0.119485 0.43435
2815 2 0.442775 0.136944 0.444716
2817 4 0.457365 0.154404 0.455083
452 4 0.473302 0.163886 0.461453
1810 2 0.0770151 0.24332 0.438921
2448 4 0.108215 0.220044 0.432598
2446 2 0.129311 0.220563 0.446011
1812 4 0.095949 0.234808 0.424984
2447 4 0.150406 0.221083 0.459423
731 4 0.17726 0.159982 0.45301
615 4 0.176077 0.168359 0.435026
2237 4 0.318156 0.162671 0.422906
3549 4 0.37185 0.186841 0.419065
3547 2 0.349786 0.17681 0.412921
451 2 0.49655 0.167517 0.46991
1142 4 0.456944 0.206787 0.472436
1141 2 0.461623 0.220528 0.492795
4306 2 0.0286322 0.272561 0.425318
4307 4 0.041552 0.261015 0.443345
1811 4 0.0580813 0.251832 0.452858
3276 4 0.1613 0.24 0.458038
3275 4 0.187401 0.282602 0.46016
3274 2 0.174351 0.261301 0.459099
445 2 0.219937 0.301452 0.44206
447 4 0.20291 0.29391 0.458745
446 4 0.236964 0.308995 0.425376
1332 4 0.306773 0.290773 0.440098
1330 2 0.301519 0.31497 0.443577
575 4 0.355795 0.294087 0.422345
432 4 0.372098 0.303453 0.427937
430 2 0.376732 0.304494 0.452486
431 4 0.381365 0.305534 0.477034
509 4 0.0858866 0.386091 0.418404
710 4 0.0974391 0.391571 0.433877
709 2 0.107249 0.375588 0.450414
711 4 0.117059 0.359605 0.466951
2172 4 0.118817 0.353971 0.485875
2170 2 0.14156 0.347169 0.493728
2298 4 0.186777 0.369072 0.433814
2296 2 0.19559 0.35975 0.455276
2297 4 0.204402 0.350428 0.476738
2550 4 0.244872 0.397134 0.477247
239 4 0.313444 0.400637 0.421469
1331 4 0.296266 0.339166 0.447056
238 2 0.307945 0.377163 0.428096
240 4 0.302447 0.353689 0.434723
1391 4 0.38786 0.404766 0.437767
3222 4 0.415264 0.396811 0.49363
3220 2 0.402855 0.405662 0.47381
3221 4 0.390445 0.414514 0.45399
548 4 0.000741342 0.452015 0.427808
547 2 0.0237195 0.444309 0.421659
851 4 0.155155 0.444155 0.479643
2384 4 0.14319 0.459762 0.485608
850 2 0.17213 0.439025 0.462016
2548 2 0.253734 0.419659 0.470981
852 4 0.189105 0.433894 0.444389
2549 4 0.262597 0.442184 0.464715
2308 2 0.301037 0.447721 0.458622
2310 4 0.324464 0.452393 0.466008
930 4 0.327202 0.451621 0.484981
2309 4 0.277611 0.443049 0.451236
806 4 0.406255 0.489409 0.453547
774 4 0.391737 0.492879 0.440198
772 2 0.398696 0.476239 0.422881
805 2 0.423994 0.497316 0.469295
3393 4 0.0106477 0.0153255 0.573823
1602 4 0.222735 0.0478556 0.497826
1181 4 0.212415 0.0615351 0.580069
1162 2 0.304466 0.0656849 0.566137
1163 4 0.283096 0.0583723 0.576861
442 2 0.0761324 0.124671 0.540275
444 4 0.0691086 0.101046 0.544483
443 4 0.0831562 0.148296 0.536067
4420 2 0.0106996 0.147591 0.524336
4421 4 0.0261352 0.139409 0.506448
389 4 0.0884165 0.148976 0.516545
4422 4 0.995264 0.155773 0.542224
319 2 0.160065 0.124206 0.513439
320 4 0.142961 0.141954 0.509237
388 2 0.11181 0.1546 0.50974
390 4 0.135203 0.160223 0.502935
321 4 0.177169 0.106458 0.51764
100 3 0.246102 0.143632 0.524839
96 1 0.228983 0.15852 0.522853
98 3 0.213034 0.154475 0.539214
99 3 0.219366 0.156765 0.501809
1164 4 0.325837 0.0729975 0.555414
939 4 0.336242 0.0903797 0.560225
937 2 0.355912 0.104567 0.566307
938 4 0.375582 0.118755 0.572389
4466 4 0.393864 0.12839 0.570248
4465 2 0.393641 0.147909 0.554623
3354 4 0.0723726 0.21731 0.570123
3117 4 0.078058 0.225872 0.552568
3352 2 0.0530575 0.202851 0.576685
3353 4 0.0337424 0.188393 0.583246
3115 2 0.096027 0.231008 0.535957
3116 4 0.113996 0.236145 0.519347
911 4 0.233047 0.240105 0.539424
910 2 0.242019 0.216958 0.536438
97 3 0.237148 0.179857 0.525541
912 4 0.250991 0.193811 0.533453
2132 4 0.171281 0.245923 0.541566
1701 4 0.222106 0.239349 0.521623
4467 4 0.393417 0.167427 0.538997
1144 2 0.481239 0.173293 0.575795
1143 4 0.466301 0.234268 0.513153
3020 4 0.481095 0.232526 0.526982
3019 2 0.490731 0.254705 0.533341
2131 2 0.155462 0.247169 0.56089
947 4 0.108099 0.302225 0.579862
946 2 0.107209 0.295041 0.555929
948 4 0.106318 0.287858 0.531996
3192 4 0.125199 0.284535 0.530862
3190 2 0.140395 0.288372 0.511381
4434 4 0.119679 0.248734 0.582235
2133 4 0.139644 0.248415 0.580213
1699 2 0.202094 0.252078 0.529539
1700 4 0.182082 0.264808 0.537456
3191 4 0.155591 0.29221 0.491899
583 2 0.201194 0.315806 0.537401
585 4 0.200234 0.301546 0.516884
584 4 0.202153 0.330066 0.557917
2376 4 0.205527 0.316269 0.572062
2036 4 0.343934 0.314677 0.574061
2035 2 0.361762 0.326804 0.561401
275 4 0.00420354 0.38623 0.575617
274 2 0.0184204 0.38086 0.555762
276 4 0.0326372 0.37549 0.535907
1191 4 0.0775081 0.382743 0.574917
2171 4 0.164303 0.340368 0.501582
289 2 0.100021 0.41498 0.527014
290 4 0.0779359 0.403339 0.525634
3379 2 0.412683 0.362672 0.562854
3380 4 0.390882 0.355036 0.553283
2037 4 0.37959 0.33893 0.54874
3168 4 0.445018 0.349243 0.529456
3166 2 0.434244 0.363964 0.512356
662 4 0.491359 0.380349 0.577475
3381 4 0.434484 0.370308 0.572425
2778 4 0.483715 0.366916 0.590777
3167 4 0.423471 0.378686 0.495256
291 4 0.122107 0.426621 0.528393
2385 4 0.139694 0.473103 0.533676
2383 2 0.141442 0.466433 0.509642
2700 4 0.153566 0.511109 0.570767
2155 2 0.214868 0.486438 0.523274
2156 4 0.224585 0.46343 0.522083
1015 2 0.288562 0.433913 0.562162
1017 4 0.272205 0.42385 0.54615
1016 4 0.304918 0.443976 0.578174
929 4 0.349766 0.462119 0.528356
928 2 0.338484 0.45687 0.506669
3092 4 0.443031 0.504724 0.554144
3093 4 0.458322 0.457187 0.551488
3091 2 0.450677 0.480955 0.552816
3497 4 0.470948 0.45001 0.565043
3496 2 0.493373 0.446256 0.575445
4507 2 0.0305023 0.0682311 0.652013
329 4 0.0105533 0.0113213 0.650525
4508 4 0.0541891 0.0757561 0.654749
3044 4 0.995407 0.00105115 0.64361
328 2 0.030972 0.00621294 0.664022
4509 4 0.0068155 0.0607061 0.649276
1131 4 0.125884 0.0422113 0.636604
1129 2 0.121058 0.0225286 0.651249
1283 4 0.12092 0.0588923 0.649694
1282 2 0.108246 0.0800009 0.645338
1130 4 0.116233 0.00284592 0.665895
1182 4 0.19333 0.0349226 0.61786
1180 2 0.202873 0.0482289 0.598965
2135 4 0.192483 0.0327398 0.6373
2134 2 0.177162 0.0427185 0.654355
3524 4 0.28489 0.0466851 0.593916
3523 2 0.28173 0.0247053 0.605408
3525 4 0.27857 0.00272549 0.616901
606 4 0.308864 0.062039 0.634576
1097 4 0.38728 0.0683285 0.638157
316 2 0.0597207 0.113532 0.642169
317 4 0.041184 0.126994 0.652187
340 2 0.00947364 0.147374 0.656324
342 4 0.0254176 0.129574 0.663681
318 4 0.0782575 0.100071 0.632151
1284 4 0.0955721 0.101109 0.640982
2048 4 0.139962 0.169389 0.642061
1199 4 0.122621 0.163983 0.651132
604 2 0.300193 0.0802362 0.649369
605 4 0.291522 0.0984334 0.664163
1096 2 0.390573 0.0931143 0.638105
1098 4 0.393865 0.1179 0.638052
1192 2 0.414808 0.142316 0.654364
1194 4 0.404506 0.119588 0.655947
3081 4 0.484172 0.113833 0.661456
4239 4 0.479916 0.129422 0.649736
4237 2 0.491387 0.127499 0.627602
1193 4 0.42511 0.165043 0.65278
1225 2 0.0528705 0.202621 0.637235
945 4 0.0342567 0.232736 0.63386
1227 4 0.0754461 0.191874 0.637148
341 4 0.99353 0.165174 0.648967
1226 4 0.0302948 0.213369 0.637321
435 4 0.00589232 0.17846 0.640927
1200 4 0.0821918 0.178005 0.625256
4433 4 0.110643 0.242426 0.631013
1198 2 0.102406 0.170994 0.638194
4432 2 0.115161 0.24558 0.606624
780 4 0.11764 0.23049 0.646309
2047 2 0.158745 0.167435 0.625673
778 2 0.12614 0.215422 0.664361
2049 4 0.177528 0.165481 0.609285
467 4 0.1913 0.179672 0.606637
466 2 0.201735 0.202017 0.610755
824 4 0.250339 0.188966 0.670803
468 4 0.21217 0.224363 0.614873
1212 4 0.25054 0.223774 0.601523
1230 4 0.266806 0.18812 0.657806
1229 4 0.250107 0.213356 0.617993
1228 2 0.258457 0.200738 0.637899
981 4 0.319871 0.240877 0.647233
636 4 0.317686 0.170144 0.623744
634 2 0.317724 0.179546 0.646913
2354 4 0.437869 0.178564 0.644239
1145 4 0.458937 0.184464 0.577528
2353 2 0.443903 0.181405 0.620142
2355 4 0.449938 0.184247 0.596044
943 2 0.0339981 0.255846 0.624319
944 4 0.0337395 0.278957 0.614778
1207 2 0.104479 0.321144 0.605368
1209 4 0.0996897 0.297788 0.597833
2374 2 0.219376 0.311302 0.592279
2375 4 0.233226 0.306335 0.612495
1952 4 0.249232 0.318391 0.609381
1211 4 0.250274 0.272443 0.590035
1210 2 0.250407 0.248108 0.595779
1951 2 0.259779 0.312001 0.631132
1135 2 0.320266 0.301739 0.593763
1953 4 0.270327 0.305611 0.652882
1136 4 0.313737 0.280889 0.605922
980 4 0.302802 0.263088 0.605808
979 2 0.311337 0.251983 0.626521
3338 4 0.273169 0.325048 0.655495
1137 4 0.326795 0.322588 0.581604
1189 2 0.0790276 0.379474 0.599659
1190 4 0.0805471 0.376204 0.624401
1208 4 0.109267 0.344499 0.612903
896 4 0.0917672 0.392512 0.632169
895 2 0.095403 0.413187 0.645753
2777 4 0.434348 0.374512 0.593205
2776 2 0.459031 0.370714 0.591991
1382 4 0.146577 0.468547 0.603795
1381 2 0.136155 0.446947 0.596725
1383 4 0.125733 0.425346 0.589656
984 4 0.118893 0.438224 0.656228
897 4 0.0990387 0.433861 0.659337
982 2 0.134247 0.457868 0.658111
983 4 0.149601 0.477512 0.659995
2153 4 0.317436 0.446646 0.656362
1204 2 0.308393 0.447358 0.619053
1206 4 0.315138 0.44646 0.594994
1205 4 0.301647 0.448256 0.643113
1944 4 0.0596001 0.0153457 0.688978
330 4 0.0513906 0.00110457 0.677519
1942 2 0.0806955 0.0234235 0.699697
1943 4 0.101791 0.0315014 0.710417
2090 4 0.120328 0.0381127 0.709741
2089 2 0.14293 0.0409122 0.699422
2091 4 0.165532 0.0437117 0.689102
2136 4 0.161841 0.0526972 0.67141
1081 2 0.243138 0.0711393 0.742251
1082 4 0.252445 0.0482798 0.738252
2231 4 0.303632 0.049848 0.691183
2230 2 0.284381 0.051013 0.707095
2232 4 0.265129 0.0521781 0.723008
2240 4 0.320165 0.0603279 0.690349
2239 2 0.335504 0.0406638 0.688553
2241 4 0.350843 0.0209998 0.686758
2320 2 0.474637 0.0382353 0.748353
2321 4 0.474252 0.0146006 0.740202
2322 4 0.475023 0.06187 0.756503
90 3 0.492299 0.0712523 0.750692
1258 2 0.0360086 0.151198 0.722565
1260 4 0.0420716 0.129835 0.734056
651 4 0.161478 0.172699 0.738115
1083 4 0.233831 0.0939988 0.74625
1153 2 0.230891 0.147165 0.725757
1155 4 0.233582 0.138425 0.702486
878 4 0.254668 0.138979 0.704384
879 4 0.277956 0.111671 0.669561
877 2 0.266312 0.125325 0.686973
1064 4 0.296388 0.163053 0.724324
950 4 0.303282 0.147117 0.734484
949 2 0.326496 0.138627 0.738258
1005 4 0.406558 0.114055 0.744111
1003 2 0.392051 0.133483 0.750215
951 4 0.349709 0.130138 0.742032
3079 2 0.491139 0.102534 0.682645
259 2 0.0757645 0.238213 0.679415
1259 4 0.0299457 0.172561 0.711074
1087 2 0.0596865 0.204302 0.721566
1089 4 0.0444277 0.184518 0.7206
3475 2 0.0316305 0.252336 0.709902
260 4 0.0583693 0.256098 0.677769
3476 4 0.0455038 0.247181 0.689749
1088 4 0.0749452 0.224086 0.722533
869 4 0.0786218 0.240725 0.733692
261 4 0.0931597 0.220328 0.681062
779 4 0.134639 0.200353 0.682413
649 2 0.178835 0.167968 0.720751
650 4 0.196192 0.163236 0.703386
825 4 0.209848 0.175421 0.696836
823 2 0.230093 0.182193 0.683819
2015 4 0.312825 0.248467 0.664915
1063 2 0.300783 0.169186 0.700486
1065 4 0.305178 0.175319 0.676648
635 4 0.317761 0.188949 0.670081
2014 2 0.332769 0.242118 0.678594
4180 2 0.417751 0.243065 0.726284
2016 4 0.352713 0.235769 0.692273
4181 4 0.424152 0.239172 0.750139
3477 4 0.0177572 0.257492 0.730054
868 2 0.0866773 0.258837 0.748932
1166 4 0.3116 0.333354 0.711628
1165 2 0.318119 0.311246 0.721319
3339 4 0.29992 0.326856 0.697707
3337 2 0.286544 0.325952 0.676601
1167 4 0.324638 0.289138 0.73101
557 4 0.41669 0.260594 0.689246
4182 4 0.41135 0.246958 0.702429
558 4 0.441184 0.304172 0.690548
556 2 0.428937 0.282383 0.689897
989 4 0.0466546 0.354044 0.730116
1919 4 0.250983 0.354054 0.721041
1918 2 0.254496 0.336768 0.738762
1079 4 0.2548 0.372882 0.715374
1078 2 0.264626 0.390824 0.700997
1080 4 0.274453 0.408766 0.686621
1910 4 0.444258 0.350417 0.673428
1911 4 0.448979 0.394819 0.695943
3011 4 0.442227 0.413917 0.698398
1909 2 0.446618 0.372618 0.684686
3010 2 0.440977 0.415118 0.723342
2154 4 0.283335 0.425974 0.686537
2152 2 0.300385 0.43631 0.67145
4481 4 0.325666 0.473193 0.731008
4480 2 0.318565 0.458605 0.750033
2379 4 0.321745 0.491964 0.729479
792 4 0.399783 0.438882 0.696864
790 2 0.408324 0.461835 0.691823
2120 4 0.401658 0.496561 0.685579
791 4 0.416864 0.484787 0.686782
3012 4 0.439727 0.416319 0.748285
4027 2 0.0541846 0.0701279 0.819307
4028 4 0.0505561 0.0569616 0.798362
1248 4 0.218062 0.0197622 0.829704
1246 2 0.215311 0.0113208 0.80633
3579 4 0.198435 0.00754399 0.767033
2197 2 0.370771 0.019209 0.814493
2199 4 0.35822 0.0397652 0.807777
2198 4 0.383321 0.998653 0.821208
3356 4 0.39731 0.00293665 0.807297
1184 4 0.0561321 0.122886 0.747252
1183 2 0.0782366 0.132316 0.754155
857 4 0.1051 0.160873 0.757762
1185 4 0.100341 0.141746 0.761058
856 2 0.128439 0.169712 0.75624
1154 4 0.228199 0.155904 0.749029
2114 4 0.219901 0.106949 0.751949
2113 2 0.218036 0.110441 0.776637
4521 4 0.217218 0.158459 0.766049
2115 4 0.21617 0.113934 0.801325
828 4 0.237696 0.153623 0.830234
1004 4 0.377543 0.152911 0.756319
2277 4 0.0086592 0.159813 0.777057
858 4 0.151779 0.178551 0.754718
1234 2 0.185825 0.229769 0.772162
1236 4 0.191268 0.205992 0.766669