ITEM: TIMESTEP
2190000
ITEM: NUMBER OF ATOMS
4590
ITEM: BOX BOUNDS pp pp pp
-9.9985700000000008e+00 9.9985700000000008e+00
-9.9985700000000008e+00 9.9985700000000008e+00
-9.9985700000000008e+00 9.9985700000000008e+00
ITEM: ATOMS id type xs ys zs
1676 4 0.0645196 0.0241988 0.0158704
2423 4 0.0550293 0.0161627 0.0313941
1675 2 0.0867175 0.0354368 0.0133928
1038 4 0.16358 0.0676094 0.00389906
1036 2 0.14425 0.0517775 0.00483857
1037 4 0.12492 0.0359456 0.00577808
1677 4 0.108915 0.0466748 0.0109153
423 4 0.18275 0.0624306 0.000670919
421 2 0.188722 0.0828154 0.0138607
1475 4 0.263783 0.0453055 0.0533454
1474 2 0.284967 0.0517554 0.064957
1254 4 0.322047 0.0497128 0.0841784
1476 4 0.306151 0.0582053 0.0765687
1827 4 0.377481 0.082054 0.0686231
1825 2 0.394377 0.0655663 0.0603858
3837 4 0.36207 0.00632699 0.0515273
1826 4 0.411273 0.0490786 0.0521485
168 3 0.420158 0.0314245 0.0516201
166 1 0.429458 0.0102335 0.0499296
167 3 0.451079 0.0121866 0.0423244
701 4 0.0574965 0.0916122 0.0482466
372 4 0.997928 0.0980223 0.0172605
370 2 0.0176603 0.0960636 0.0324912
371 4 0.0373927 0.0941048 0.0477219
700 2 0.0564201 0.0998725 0.0718217
2183 4 0.00227699 0.0931635 0.998548
1233 4 0.177235 0.148723 0.0617387
1232 4 0.176232 0.110802 0.0291547
1231 2 0.176733 0.129762 0.0454467
422 4 0.194695 0.1032 0.0270504
492 4 0.261341 0.16531 0.0320867
490 2 0.262165 0.154459 0.00957533
1023 4 0.274856 0.121686 0.0634965
1021 2 0.297927 0.128679 0.0568631
55 3 0.255952 0.155517 0.0486546
1022 4 0.320999 0.135672 0.0502297
51 1 0.257841 0.167039 0.0682076
566 4 0.272201 0.108833 0.0783308
758 4 0.371525 0.0990169 0.0605758
759 4 0.339146 0.13313 0.0435876
757 2 0.355335 0.116073 0.0520817
1013 4 0.394085 0.110036 0.995758
2163 4 0.349626 0.166337 0.030174
2161 2 0.350316 0.155279 0.00775922
359 4 0.162217 0.160826 0.0611397
3232 2 0.0932015 0.17882 0.0659871
932 4 0.118985 0.171612 0.0336595
3233 4 0.104311 0.167906 0.0464257
931 2 0.136173 0.182365 0.0190259
933 4 0.15336 0.193117 0.00439219
1132 2 0.217595 0.211935 7.63636e-05
1134 4 0.225589 0.205908 0.0229881
53 3 0.240867 0.18278 0.0697929
54 3 0.278506 0.177541 0.0692435
4211 4 0.264562 0.238516 0.0380072
4210 2 0.255799 0.219798 0.0520794
4212 4 0.247037 0.20108 0.0661516
250 2 0.30037 0.233546 0.0138284
664 2 0.319352 0.236527 0.0741087
252 4 0.311918 0.236054 0.0358631
665 4 0.325122 0.236443 0.0497804
354 4 0.278673 0.251803 0.0428314
251 4 0.288822 0.231037 0.991794
2723 4 0.471966 0.176967 0.0276259
558 4 0.464355 0.179252 0.0083192
556 2 0.446157 0.165304 0.998344
2722 2 0.494277 0.170981 0.0371957
246 4 0.159156 0.342318 0.0491685
1290 4 0.148558 0.267556 0.983754
739 2 0.229051 0.308901 0.0430639
245 4 0.185662 0.301722 0.0369197
244 2 0.172409 0.32202 0.0430441
741 4 0.204694 0.303649 0.0409884
740 4 0.253409 0.314152 0.0451394
352 2 0.272283 0.275623 0.0469529
353 4 0.265892 0.299442 0.0510743
658 2 0.400413 0.302632 0.0646768
659 4 0.420971 0.300998 0.0505391
1047 4 0.43505 0.29092 0.041328
1045 2 0.427192 0.272939 0.0258323
323 4 0.482094 0.279729 0.0579303
322 2 0.475015 0.298883 0.0435011
324 4 0.467936 0.318037 0.0290719
1046 4 0.419334 0.254958 0.0103367
455 4 0.0775233 0.342365 0.0420427
454 2 0.0550517 0.345092 0.0314233
456 4 0.0325802 0.347819 0.0208039
2873 4 0.992763 0.356255 0.0293775
1103 4 0.0914585 0.340864 0.027786
1102 2 0.115229 0.347193 0.0233051
293 4 0.1541 0.363054 0.028045
1104 4 0.139 0.353521 0.0188241
292 2 0.169527 0.379493 0.0172326
294 4 0.184955 0.395933 0.00642016
957 4 0.203157 0.400101 0.0121544
523 2 0.238472 0.415162 0.0701553
1691 4 0.0711096 0.448913 0.0500008
1690 2 0.0776413 0.471054 0.040394
1692 4 0.084173 0.493195 0.0307872
1778 4 0.202821 0.475599 0.0188452
781 2 0.26971 0.426465 0.994196
525 4 0.241279 0.429575 0.0499174
914 4 0.25945 0.435725 0.0548983
913 2 0.270914 0.457683 0.0583079
915 4 0.282377 0.47964 0.0617175
783 4 0.289134 0.441938 0.997102
756 4 0.301348 0.482495 0.0648523
2567 4 0.380837 0.463179 0.0463033
2566 2 0.366896 0.460978 0.0256635
2568 4 0.352956 0.458777 0.00502357
495 4 0.482599 0.482086 0.0730588
493 2 0.463687 0.491858 0.086175
3808 2 0.0152913 7.22686e-05 0.159518
2799 4 0.993679 0.0795744 0.140389
379 2 0.0138972 0.0750384 0.167306
591 4 0.0445297 0.0211902 0.170369
1506 4 0.190776 0.0100533 0.168353
533 4 0.177182 0.000158185 0.157863
1504 2 0.208406 0.0260693 0.160747
461 4 0.229035 0.0533518 0.169291
1505 4 0.226036 0.0420854 0.153142
1252 2 0.346143 0.0431601 0.0828988
1253 4 0.370238 0.0366075 0.0816191
381 4 0.012659 0.0777513 0.142481
702 4 0.0553436 0.108133 0.0953968
690 4 0.206748 0.149202 0.135404
249 4 0.225405 0.152116 0.140933
247 2 0.242645 0.15504 0.123061
688 2 0.197777 0.152364 0.158527
567 4 0.283252 0.0876242 0.122249
248 4 0.259885 0.157963 0.105188
52 3 0.256058 0.152379 0.0858438
565 2 0.277726 0.0982288 0.10029
582 4 0.352133 0.107366 0.142579
581 4 0.34567 0.098795 0.0937378
580 2 0.348902 0.10308 0.118159
628 2 0.41494 0.157454 0.136045
764 4 0.445187 0.138558 0.113338
630 4 0.425697 0.142492 0.119145
763 2 0.464972 0.152332 0.106704
3234 4 0.0820925 0.189735 0.0855485
555 4 0.0213463 0.24016 0.111442
2835 4 0.0190924 0.223525 0.1212
360 4 0.164226 0.171556 0.109941
358 2 0.163221 0.166191 0.0855402
666 4 0.313581 0.23661 0.0984371
629 4 0.404184 0.172416 0.152946
255 4 0.396308 0.185089 0.164942
253 2 0.392103 0.209653 0.166969
765 4 0.484757 0.166106 0.100069
2681 4 0.492028 0.175528 0.116628
2680 2 0.495616 0.200272 0.116829
553 2 0.0449123 0.242103 0.103315
554 4 0.0684782 0.244045 0.0951878
299 4 0.082099 0.245243 0.111004
2718 4 0.0345519 0.277709 0.148237
2716 2 0.0490263 0.270797 0.167418
300 4 0.114562 0.282965 0.10612
363 4 0.1047 0.294441 0.094047
298 2 0.0983307 0.264104 0.108562
361 2 0.107633 0.319269 0.0944719
385 2 0.298188 0.30624 0.142141
387 4 0.309008 0.312813 0.12058
386 4 0.287369 0.299666 0.163703
521 4 0.317156 0.305519 0.105469
660 4 0.379855 0.304266 0.0788145
522 4 0.36536 0.301223 0.0928744
520 2 0.341258 0.303371 0.0991719
355 2 0.345567 0.331658 0.154537
362 4 0.110566 0.344096 0.0948968
738 4 0.106277 0.362726 0.101715
736 2 0.11035 0.386875 0.106757
737 4 0.114422 0.411024 0.111799
524 4 0.235666 0.40075 0.0903932
1619 4 0.230116 0.402163 0.109345
357 4 0.344358 0.352916 0.141429
303 4 0.387087 0.401655 0.122917
301 2 0.374683 0.381882 0.131881
302 4 0.36228 0.362108 0.140845
288 4 0.346306 0.419765 0.156243
497 4 0.404391 0.413215 0.124389
648 4 0.124367 0.465899 0.087598
647 4 0.126493 0.416804 0.0968663
646 2 0.12543 0.441351 0.0922321
536 4 0.117788 0.4709 0.105728
535 2 0.109008 0.491329 0.117161
1618 2 0.235797 0.421791 0.123755
1620 4 0.241478 0.441419 0.138165
507 4 0.251259 0.458206 0.137369
505 2 0.276195 0.459791 0.138286
506 4 0.301132 0.461377 0.139203
755 4 0.325874 0.497189 0.105881
754 2 0.313611 0.489842 0.0853664
286 2 0.327078 0.435725 0.155381
1575 4 0.31869 0.506818 0.121785
498 4 0.395141 0.441091 0.0839162
496 2 0.399766 0.427153 0.104153
541 2 0.39721 0.439983 0.156813
543 4 0.396389 0.42635 0.13587
380 4 0.0151354 0.0723256 0.192131
589 2 0.0506394 0.0261145 0.194109
590 4 0.0567492 0.0310388 0.217849
675 4 0.0558083 0.0162857 0.231063
673 2 0.0767837 0.0208549 0.243882
3810 4 0.0330725 0.00518022 0.176338
285 4 0.114012 0.0141192 0.25525
460 2 0.248651 0.0562338 0.184525
462 4 0.268267 0.0591158 0.199759
2768 4 0.282379 0.0571605 0.214846
2767 2 0.306655 0.0597158 0.220259
2769 4 0.330932 0.0622711 0.225672
333 4 0.340161 0.0443114 0.221564
332 4 0.384406 0.0661436 0.213412
1761 4 0.397949 0.0641158 0.199167
331 2 0.362284 0.0552275 0.217488
1541 4 0.414056 0.00576904 0.241334
1759 2 0.413881 0.046501 0.191354
744 4 0.446504 0.0166663 0.182862
1760 4 0.429814 0.0288862 0.183541
2468 4 0.498538 0.0452172 0.23058
721 2 0.075203 0.0884521 0.1971
722 4 0.0602038 0.0981074 0.214621
579 4 0.0219574 0.11391 0.197832
577 2 0.0383907 0.132162 0.202521
578 4 0.0548239 0.150414 0.207211
723 4 0.0902022 0.0787968 0.179579
689 4 0.188805 0.155527 0.18165
633 4 0.389406 0.120608 0.248786
631 2 0.414137 0.121636 0.245253
707 4 0.447193 0.138358 0.234543
706 2 0.455748 0.160026 0.243626
632 4 0.438869 0.122664 0.24172
545 4 0.0514071 0.221906 0.228985
617 4 0.0691992 0.226756 0.23987
544 2 0.0432964 0.223606 0.205394
546 4 0.0351857 0.225306 0.181804
2717 4 0.0635006 0.263886 0.186598
465 4 0.0827037 0.26404 0.182589
1700 4 0.17131 0.160019 0.190512
1699 2 0.171186 0.174234 0.211081
1701 4 0.171062 0.188448 0.231651
410 4 0.17927 0.199999 0.246138
409 2 0.203359 0.202988 0.252136
528 4 0.288735 0.169245 0.2
526 2 0.287603 0.188504 0.215904
527 4 0.286472 0.207764 0.231809
624 4 0.297065 0.224948 0.233024
622 2 0.311866 0.243863 0.226072
254 4 0.387898 0.234217 0.168995
642 4 0.355291 0.230968 0.25041
640 2 0.351272 0.206355 0.252211
312 4 0.369422 0.242523 0.258499
619 2 0.0327081 0.311445 0.203291
620 4 0.0464861 0.323542 0.18629
621 4 0.01893 0.299349 0.220291
704 4 0.0639956 0.318925 0.178948
464 4 0.108321 0.257721 0.225069
476 4 0.119041 0.273626 0.231846
463 2 0.0955124 0.260881 0.203829
400 2 0.230558 0.305495 0.228102
401 4 0.230213 0.286924 0.211364
338 4 0.282668 0.281894 0.171721
337 2 0.261474 0.278984 0.184663
339 4 0.240279 0.276073 0.197606
623 4 0.326666 0.262779 0.21912
356 4 0.346775 0.3104 0.167645
13 3 0.330801 0.270423 0.235422
11 1 0.350958 0.274888 0.246012
15 3 0.364306 0.256446 0.245406
14 3 0.361591 0.292702 0.23562
612 4 0.351652 0.309863 0.230092
610 2 0.345534 0.327309 0.213258
1776 4 0.0306221 0.375894 0.157207
1774 2 0.0179455 0.393463 0.169691
703 2 0.0771251 0.338197 0.169928
1775 4 0.00526895 0.411031 0.182174
735 4 0.0797093 0.374437 0.166257
705 4 0.0902546 0.357469 0.160907
734 4 0.110352 0.412217 0.17785
733 2 0.0950305 0.393327 0.172054
402 4 0.230903 0.324066 0.24484
343 2 0.225237 0.361881 0.239365
344 4 0.24005 0.341817 0.241154
345 4 0.210424 0.381944 0.237575
279 4 0.217771 0.397132 0.228534
308 4 0.341152 0.36618 0.200403
611 4 0.339417 0.344755 0.196424
309 4 0.353127 0.408932 0.223416
307 2 0.347139 0.387556 0.211909
1455 4 0.351549 0.414006 0.242794
2618 4 0.0131947 0.429283 0.182772
2617 2 0.0173923 0.442749 0.203417
2619 4 0.0215898 0.456216 0.224061
2528 4 0.0272819 0.476201 0.22516
2527 2 0.0351775 0.498489 0.23329
1767 4 0.106831 0.422084 0.195736
1789 2 0.158248 0.491393 0.172966
1790 4 0.147824 0.472226 0.18518
1766 4 0.129114 0.466633 0.191311
1765 2 0.117972 0.444358 0.193524
277 2 0.220141 0.420316 0.237594
278 4 0.222511 0.4435 0.246653
287 4 0.30785 0.451685 0.154519
542 4 0.398032 0.453617 0.177757
608 4 0.379184 0.449994 0.182108
607 2 0.372364 0.468304 0.19771
609 4 0.365543 0.486615 0.213311
231 4 0.355395 0.485216 0.230095
513 4 0.0647695 0.0616364 0.316538
693 4 0.0776078 0.0560369 0.330869
511 2 0.0491895 0.0738364 0.301254
284 4 0.162819 0.0099295 0.265303
283 2 0.138415 0.0120244 0.260276
674 4 0.0977592 0.025424 0.256702
1478 4 0.251302 0.996503 0.327331
1427 4 0.404137 0.00475388 0.258089
1426 2 0.407794 0.0139196 0.281063
1428 4 0.411452 0.0230853 0.304037
258 4 0.409178 0.0347906 0.319542
1730 4 0.463431 0.0144099 0.273996
2664 4 0.461815 0.0295696 0.260185
2662 2 0.472614 0.0473426 0.274066
2663 4 0.483414 0.0651157 0.287946
512 4 0.0336095 0.0860364 0.28597
18 3 0.0169914 0.0847878 0.27346
364 2 0.0144804 0.153719 0.305082
366 4 0.00973837 0.129348 0.302123
404 4 0.371627 0.12903 0.253647
403 2 0.353847 0.14659 0.254484
405 4 0.336067 0.16415 0.25532
616 2 0.0670938 0.211802 0.259798
2897 4 0.0251157 0.246111 0.325309
365 4 0.0192224 0.178089 0.308041
618 4 0.0649885 0.196848 0.279726
2463 4 0.0631419 0.198041 0.299328
2461 2 0.0527373 0.216415 0.312718
2462 4 0.0423328 0.23479 0.326109
2613 4 0.0138503 0.190349 0.324539
411 4 0.227447 0.205976 0.258135
489 4 0.248148 0.206976 0.251459
487 2 0.265632 0.22018 0.263506
488 4 0.283117 0.233384 0.275553
677 4 0.286511 0.230884 0.295583
676 2 0.283468 0.253299 0.306235
641 4 0.347253 0.181743 0.254013
310 2 0.393438 0.239508 0.264767
311 4 0.417455 0.236493 0.271035
708 4 0.464303 0.181694 0.252708
762 4 0.459644 0.195083 0.266843
761 4 0.421318 0.221751 0.28475
760 2 0.440481 0.208417 0.275796
2896 2 0.00820496 0.258188 0.311404
475 2 0.119318 0.264625 0.255172
477 4 0.119596 0.255625 0.278498
388 2 0.211854 0.328386 0.305837
390 4 0.192167 0.338972 0.294634
290 4 0.172705 0.331459 0.293991
437 4 0.251187 0.319367 0.322352
678 4 0.280425 0.275715 0.316886
12 3 0.346764 0.280488 0.267926
334 2 0.440989 0.289554 0.310096
336 4 0.444801 0.271298 0.293442
407 4 0.0521703 0.414369 0.277713
406 2 0.0285028 0.411791 0.270072
408 4 0.00483523 0.409213 0.262431
289 2 0.155324 0.344515 0.306345
415 2 0.106548 0.385181 0.321673
291 4 0.137942 0.35757 0.318698
417 4 0.0924236 0.40533 0.317238
389 4 0.231542 0.3178 0.317041
414 4 0.287549 0.367161 0.31067
436 2 0.266955 0.335311 0.311292
438 4 0.282723 0.351256 0.300232
602 4 0.285734 0.397402 0.293735
412 2 0.299221 0.375337 0.331215
1453 2 0.361524 0.406312 0.264392
1454 4 0.371499 0.398618 0.28599
667 2 0.36283 0.368788 0.312165
669 4 0.359172 0.384861 0.293364
668 4 0.366489 0.352715 0.330965
120 3 0.395808 0.326835 0.347242
751 2 0.421651 0.392732 0.326634
752 4 0.415248 0.369135 0.321404
2296 2 0.0215236 0.48292 0.326586
2297 4 0.0414016 0.498082 0.326201
1757 4 0.108255 0.41659 0.31351
1812 4 0.109485 0.506327 0.29987
1756 2 0.120985 0.437941 0.310817
1758 4 0.133715 0.459292 0.308125
1810 2 0.132843 0.504642 0.308631
1862 4 0.231141 0.420348 0.336838
768 4 0.221454 0.423284 0.320825
729 4 0.165346 0.489399 0.2666
767 4 0.205769 0.446855 0.279605
766 2 0.213612 0.435069 0.300215
644 4 0.234014 0.481125 0.302035
727 2 0.177798 0.471091 0.278217
728 4 0.190249 0.452783 0.289834
643 2 0.241393 0.498422 0.285557
603 4 0.293479 0.442919 0.274526
601 2 0.289606 0.42016 0.28413
1704 4 0.297149 0.489746 0.31876
229 2 0.350216 0.476724 0.253035
230 4 0.345038 0.468232 0.275975
2756 4 0.0346842 0.0506477 0.33522
2755 2 0.035511 0.0263529 0.341073
2757 4 0.0363378 0.00205817 0.346926
691 2 0.0970131 0.0717579 0.332079
2236 2 0.129077 0.0100503 0.399602
692 4 0.116418 0.0874788 0.33329
899 4 0.241767 0.0135604 0.331501
898 2 0.248354 0.0107762 0.355461
900 4 0.25494 0.00799187 0.37942
1781 4 0.249538 0.00774911 0.399357
1780 2 0.253805 0.029967 0.410003
1782 4 0.258071 0.0521849 0.42065
1031 4 0.411071 0.998169 0.365956
256 2 0.415212 0.0252942 0.341871
257 4 0.421246 0.0157979 0.3642
318 4 0.0554549 0.134787 0.424759
399 4 0.0681637 0.12609 0.41062
732 4 0.121203 0.130276 0.391383
730 2 0.145758 0.134699 0.393013
397 2 0.0930688 0.128162 0.411407
398 4 0.117974 0.130234 0.412194
731 4 0.170313 0.139121 0.394643
1407 4 0.233522 0.115613 0.392922
1406 4 0.187699 0.133783 0.384511
1405 2 0.21061 0.124698 0.388717
684 4 0.235194 0.111998 0.372525
587 4 0.23416 0.167843 0.407124
586 2 0.251683 0.152852 0.416786
472 2 0.321882 0.0898176 0.370227
474 4 0.299103 0.100126 0.370098
683 4 0.282414 0.102241 0.359264
682 2 0.258804 0.107119 0.365894
473 4 0.344661 0.0795092 0.370357
265 2 0.455409 0.167786 0.389432
266 4 0.475309 0.153593 0.384167
267 4 0.435509 0.181979 0.394696
1221 4 0.128959 0.304669 0.371624
383 4 0.132157 0.29651 0.389721
1219 2 0.121835 0.328249 0.36733
382 2 0.128588 0.27949 0.407687
3 3 0.274947 0.281924 0.333952
613 2 0.268747 0.301469 0.403391
615 4 0.269093 0.304287 0.378549
4 3 0.309698 0.295498 0.341203
2 3 0.280141 0.318677 0.33986
1 1 0.28709 0.297619 0.345978
5 3 0.283558 0.294742 0.368291
650 4 0.331924 0.317256 0.389884
649 2 0.339051 0.310716 0.41294
435 4 0.345245 0.319026 0.376875
433 2 0.36106 0.330033 0.360941
118 3 0.432636 0.321698 0.341326
335 4 0.437178 0.30781 0.326751
680 4 0.000200928 0.416479 0.37397
327 4 0.0829071 0.404804 0.404352
1382 4 0.072887 0.396567 0.387514
416 4 0.120673 0.365031 0.326108
1381 2 0.0871266 0.376754 0.382051
1383 4 0.101366 0.35694 0.376588
1220 4 0.11471 0.351828 0.363036
446 4 0.212145 0.35861 0.400325
445 2 0.235247 0.363049 0.408797
413 4 0.310893 0.383512 0.35176
1436 4 0.330438 0.386166 0.357465
1435 2 0.335131 0.398617 0.378633
1437 4 0.339824 0.411069 0.399802
116 1 0.416361 0.336551 0.348601
434 4 0.376875 0.341041 0.345007
119 3 0.420672 0.342928 0.37049
117 3 0.416812 0.355232 0.335187
926 4 0.427552 0.337588 0.388086
925 2 0.433629 0.360532 0.395949
927 4 0.439705 0.383476 0.403812
1742 4 0.441101 0.399206 0.417036
2925 4 0.478674 0.408534 0.347209
325 2 0.0640933 0.42045 0.409491
326 4 0.0452794 0.436096 0.41463
504 4 0.101573 0.458277 0.347902
502 2 0.10604 0.474966 0.365977
503 4 0.110507 0.491654 0.384052
1821 4 0.19488 0.424183 0.378411
1820 4 0.226918 0.452798 0.404012
1819 2 0.210899 0.438491 0.391212
1556 4 0.240488 0.463274 0.390367
1702 2 0.303714 0.497044 0.341756
1861 2 0.253624 0.431229 0.337996
1863 4 0.276106 0.44211 0.339153
1555 2 0.257422 0.461831 0.408706
108 3 0.37494 0.493846 0.402076
753 4 0.428054 0.416329 0.331865
2538 4 0.494219 0.417988 0.357413
1801 2 0.422282 0.482085 0.360185
1803 4 0.433678 0.461241 0.352387
2923 2 0.463161 0.428139 0.347615
2924 4 0.447648 0.447745 0.34802
1377 4 0.00875252 0.0844286 0.433448
2238 4 0.127083 0.0306736 0.413598
1773 4 0.110695 0.0338116 0.423756
1771 2 0.110242 0.0393139 0.448143
687 4 0.120071 0.0609856 0.475065
1772 4 0.109788 0.0448163 0.472529
685 2 0.12797 0.0587756 0.498685
321 4 0.214628 0.0669845 0.452782
319 2 0.226873 0.0473648 0.462285
320 4 0.239118 0.027745 0.471787
1152 4 0.239919 0.00972589 0.482729
1150 2 0.245382 0.0100383 0.507126
341 4 0.249102 0.0724885 0.42093
316 2 0.0364113 0.118633 0.426006
317 4 0.0173677 0.102479 0.427253
1033 2 0.0334104 0.128357 0.479062
1035 4 0.0242226 0.15137 0.475723
1034 4 0.0425983 0.105343 0.482401
1128 4 0.0531973 0.0945787 0.49512
588 4 0.269207 0.137861 0.426449
342 4 0.270739 0.117393 0.424943
340 2 0.25992 0.0949409 0.422937
1200 4 0.0145209 0.170084 0.476911
570 4 0.159474 0.228194 0.490995
509 4 0.142996 0.238136 0.487712
431 4 0.236209 0.183586 0.394274
430 2 0.239047 0.206366 0.404183
432 4 0.241885 0.229146 0.414093
576 4 0.248745 0.232386 0.434246
384 4 0.125019 0.262471 0.425653
508 2 0.134258 0.247473 0.466226
510 4 0.125521 0.25681 0.444739
710 4 0.16333 0.328153 0.490182
709 2 0.149152 0.331757 0.510459
574 2 0.256787 0.25606 0.434456
614 4 0.268402 0.298652 0.428233
575 4 0.264828 0.279734 0.434666
813 4 0.320185 0.284004 0.482071
811 2 0.33202 0.284637 0.460055
636 4 0.314859 0.302175 0.481547
812 4 0.343854 0.285271 0.438038
651 4 0.346177 0.304176 0.435997
377 4 0.427437 0.329945 0.463436
376 2 0.42351 0.316386 0.484073
447 4 0.258349 0.367488 0.41727
930 4 0.266311 0.365921 0.435546
928 2 0.289416 0.358775 0.441894
929 4 0.31252 0.351629 0.448242
585 4 0.330597 0.356226 0.439922
3309 4 0.398781 0.368478 0.429671
3307 2 0.409675 0.371516 0.451971
584 4 0.378754 0.367834 0.433081
583 2 0.354676 0.36203 0.436501
2457 4 0.436791 0.36525 0.480974
3308 4 0.420568 0.374554 0.47427
501 4 0.184543 0.494358 0.444807
804 4 0.208052 0.503383 0.486595
499 2 0.189033 0.498699 0.420596
2153 4 0.292998 0.498327 0.463752
2154 4 0.290924 0.455953 0.437278
2152 2 0.291961 0.47714 0.450515
1557 4 0.274356 0.460387 0.427045
1741 2 0.43857 0.4225 0.425764
1472 4 0.444338 0.463354 0.43895
1743 4 0.436038 0.445793 0.434493
1471 2 0.429215 0.48301 0.435764
457 2 0.0521446 0.0306109 0.551221
459 4 0.0466761 0.0547949 0.547995
1127 4 0.0417816 0.0593466 0.528722
458 4 0.0576131 0.00642684 0.554447
3044 4 0.0744406 0.00997888 0.563712
1126 2 0.0474894 0.0769627 0.511921
1601 4 0.148905 0.0469279 0.533456
1600 2 0.137685 0.051715 0.555282
1602 4 0.126465 0.0565022 0.577108
686 4 0.13587 0.0565656 0.522305
1284 4 0.125459 0.0763652 0.577607
1151 4 0.250846 0.0103508 0.531524
893 4 0.256598 0.0295471 0.528157
892 2 0.267866 0.0353196 0.549718
894 4 0.279135 0.0410921 0.571278
1164 4 0.297363 0.0468852 0.575845
1162 2 0.316966 0.062392 0.575205
1163 4 0.33657 0.0778988 0.574564
1282 2 0.11586 0.0992 0.574201
1283 4 0.10626 0.122035 0.570796
824 4 0.171302 0.122753 0.580158
797 4 0.349798 0.0940123 0.575153
605 4 0.374814 0.152328 0.514218
604 2 0.360432 0.172053 0.519628
1199 4 0.0360726 0.189135 0.517818
3274 2 0.0668686 0.212351 0.527642
3275 4 0.0560669 0.191947 0.518041
3276 4 0.0776703 0.232754 0.537244
852 4 0.07029 0.245309 0.551588
1198 2 0.0252967 0.17961 0.497364
1131 4 0.165285 0.173156 0.590544
568 2 0.161611 0.232526 0.515528
694 2 0.184317 0.228912 0.566324
696 4 0.178024 0.223201 0.542808
569 4 0.163748 0.236859 0.54006
3158 4 0.359554 0.205786 0.518215
606 4 0.34605 0.191777 0.525038
3157 2 0.36757 0.227958 0.52654
3159 4 0.375587 0.25013 0.534866
48 3 0.490005 0.221074 0.558629
954 4 0.47604 0.231865 0.54874
952 2 0.488717 0.226452 0.527879
259 2 0.00282069 0.283794 0.586105
850 2 0.0702274 0.270078 0.55501
851 4 0.0701649 0.294846 0.558432
1190 4 0.0868764 0.29957 0.565531
711 4 0.134974 0.335361 0.530737
1189 2 0.103982 0.313082 0.553282
1191 4 0.121087 0.326594 0.541034
238 2 0.242115 0.304324 0.513637
240 4 0.222172 0.289296 0.512355
239 4 0.262057 0.319351 0.514919
635 4 0.310789 0.316882 0.529169
634 2 0.312824 0.309529 0.505358
774 4 0.279828 0.328222 0.519637
468 4 0.390448 0.258564 0.524408
466 2 0.405825 0.278279 0.524596
1193 4 0.423302 0.283428 0.555864
1192 2 0.415958 0.286385 0.579581
467 4 0.421203 0.297993 0.524784
378 4 0.419583 0.302826 0.50471
806 4 0.447398 0.327032 0.57329
3106 2 0.0615178 0.35361 0.516767
3108 4 0.0417916 0.357434 0.531648
3107 4 0.0812439 0.349787 0.501886
1446 4 0.0980646 0.402338 0.557876
375 4 0.114135 0.401882 0.570104
791 4 0.287973 0.384951 0.529415
790 2 0.284931 0.405298 0.543625
772 2 0.274956 0.352222 0.524682
773 4 0.270085 0.376222 0.529726
792 4 0.281889 0.425646 0.557834
807 4 0.4557 0.358007 0.534919
805 2 0.451549 0.342519 0.554104
2456 4 0.461213 0.375285 0.523442
2455 2 0.449002 0.370267 0.502208
1444 2 0.0947647 0.427112 0.557141
1445 4 0.0914647 0.451886 0.556406
2171 4 0.089992 0.451561 0.576764
880 2 0.22481 0.483751 0.562244
802 2 0.217557 0.499295 0.509357
881 4 0.212271 0.496751 0.544953
1238 4 0.291827 0.439744 0.567315
1237 2 0.272479 0.455578 0.567683
2141 4 0.371831 0.446181 0.585181
2354 4 0.482784 0.452046 0.529731
912 4 0.167972 0.995095 0.610249
911 4 0.189774 0.0352865 0.630499
910 2 0.178873 0.0151907 0.620374
2131 2 0.22781 0.0720896 0.620671
2132 4 0.246346 0.0560859 0.625717
1004 4 0.24182 0.0465693 0.663142
1003 2 0.260356 0.0631168 0.665934
1005 4 0.278891 0.0796643 0.668726
41 1 0.371021 0.0748899 0.663314
43 3 0.350966 0.067207 0.654527
44 3 0.385346 0.0810653 0.646137
3383 4 0.00352852 0.116589 0.662282
2375 4 0.0789939 0.14622 0.611504
1225 2 0.112751 0.144538 0.61285
1227 4 0.0928693 0.1593 0.609387
1226 4 0.132632 0.129776 0.616313
2133 4 0.209274 0.0880933 0.615624
825 4 0.196897 0.084446 0.599605
823 2 0.1841 0.1036 0.589882
937 2 0.30716 0.160692 0.638271
1142 4 0.278802 0.136355 0.659922
938 4 0.288857 0.145243 0.645446
1141 2 0.286005 0.113641 0.667495
1143 4 0.293209 0.0909267 0.675067
3270 4 0.411921 0.132745 0.632768
798 4 0.386416 0.103519 0.607855
796 2 0.368107 0.0987659 0.591504
42 3 0.366814 0.0932881 0.676465
3268 2 0.425982 0.117382 0.618931
3269 4 0.440042 0.102019 0.605095
4581 4 0.449884 0.0863001 0.594488
4579 2 0.47308 0.0951288 0.591457
4580 4 0.496276 0.103957 0.588427
4467 4 0.486899 0.164675 0.63302
3437 4 0.503988 0.0924011 0.605356
2374 2 0.0602857 0.162598 0.608871
2376 4 0.0415774 0.178976 0.606238
1154 4 0.0260028 0.167864 0.609946
1153 2 0.00249133 0.173682 0.603738
3037 2 0.0364322 0.2447 0.60745
3038 4 0.0288005 0.224518 0.594816
1244 4 0.154884 0.22974 0.61804
1130 4 0.145626 0.212939 0.613599
1129 2 0.155456 0.193048 0.602071
1243 2 0.173061 0.237599 0.633305
695 4 0.19061 0.234622 0.589839
856 2 0.222929 0.20535 0.62309
858 4 0.201904 0.192269 0.626553
857 4 0.243955 0.218431 0.619627
1245 4 0.191238 0.245459 0.648569
939 4 0.325463 0.176142 0.631095
275 4 0.243743 0.237315 0.62773
4465 2 0.476127 0.181416 0.617891
4466 4 0.465355 0.198157 0.602762
49 3 0.470705 0.212722 0.590286
46 1 0.4914 0.218711 0.58167
261 4 0.00912085 0.306342 0.577326
3039 4 0.0440638 0.264882 0.620085
1209 4 0.225005 0.294655 0.641282
879 4 0.231931 0.287875 0.623342
877 2 0.23106 0.307956 0.60847
1207 2 0.223135 0.28101 0.66215
878 4 0.230189 0.328037 0.593598
276 4 0.279894 0.270394 0.637712
274 2 0.261819 0.253855 0.632721
1194 4 0.408613 0.289342 0.603298
1025 4 0.406375 0.29469 0.621257
1024 2 0.424852 0.285358 0.635281
3372 4 0.440181 0.256828 0.654028
1026 4 0.44333 0.276026 0.649305
662 4 0.449415 0.320438 0.593721
984 4 0.0155022 0.404994 0.578982
982 2 0.0369758 0.394612 0.586483
983 4 0.0584494 0.38423 0.593985
373 2 0.112965 0.384634 0.588168
374 4 0.111796 0.367385 0.606232
897 4 0.130517 0.361969 0.612041
895 2 0.131455 0.366906 0.636534
896 4 0.132392 0.371843 0.661028
1135 2 0.238535 0.36703 0.6076
1136 4 0.238278 0.391758 0.611289
936 4 0.252485 0.39666 0.62412
1137 4 0.238792 0.342301 0.603911
2142 4 0.328251 0.422544 0.57864
661 2 0.44233 0.332295 0.614563
663 4 0.435245 0.344153 0.635404
4485 4 0.435082 0.360011 0.647792
4483 2 0.435659 0.378012 0.665136
7 3 0.0308578 0.442889 0.595086
10 3 0.00804285 0.471421 0.602722
8 3 0.00085717 0.437346 0.617038
6 1 0.0174438 0.452461 0.611136
9 3 0.0304259 0.457611 0.629666
2139 4 0.0398802 0.474313 0.625292
2137 2 0.036287 0.490476 0.644028
2699 4 0.0963845 0.462282 0.641816
2170 2 0.0930368 0.461344 0.599572
2172 4 0.0960816 0.471127 0.62238
2698 2 0.0978982 0.478345 0.660917
2700 4 0.0994118 0.494409 0.680018
882 4 0.237349 0.470751 0.579535
1239 4 0.253131 0.471411 0.568051
2308 2 0.193413 0.498805 0.625622
2309 4 0.208808 0.485992 0.640589
934 2 0.252667 0.415293 0.640792
935 4 0.25285 0.433925 0.657464
2140 2 0.350041 0.434362 0.58191
1910 4 0.353921 0.483961 0.64774
1909 2 0.36826 0.466211 0.657964
3024 4 0.465523 0.458599 0.676574
1107 4 0.121594 0.0162341 0.710618
1106 4 0.15265 0.0548443 0.703873
1105 2 0.137122 0.0355392 0.707245
2049 4 0.170654 0.0622785 0.70133
2047 2 0.188535 0.0497936 0.689098
2231 4 0.211472 0.0209018 0.666788
2048 4 0.206415 0.0373088 0.676867
45 3 0.380672 0.0586376 0.676017
950 4 0.366258 0.0518651 0.688376
949 2 0.365507 0.0272634 0.692777
951 4 0.364756 0.00266163 0.697178
2263 2 0.482786 0.0657472 0.732678
2265 4 0.498321 0.0524862 0.718256
1083 4 0.0507467 0.111497 0.741831
1081 2 0.0710003 0.0968351 0.741842
977 4 0.25347 0.13545 0.676202
976 2 0.237824 0.153731 0.682999
1212 4 0.332806 0.148993 0.744882
2989 2 0.0240616 0.220122 0.690439
2991 4 0.0224643 0.201425 0.673915
978 4 0.222178 0.172011 0.689796
1210 2 0.330911 0.172933 0.737919
1211 4 0.329015 0.196872 0.730956
909 4 0.325919 0.216033 0.737131
3474 4 0.483947 0.24098 0.695259
3371 4 0.469441 0.231043 0.685328
3370 2 0.454811 0.243935 0.669678
2990 4 0.0256589 0.238819 0.706963
1260 4 0.0380622 0.255051 0.70491
1258 2 0.0442351 0.275411 0.718046
1259 4 0.0504079 0.295771 0.731181
3420 4 0.0397183 0.293737 0.74839
2357 4 0.0933104 0.271918 0.76151
2448 4 0.153109 0.285549 0.699887
2447 4 0.119228 0.291967 0.66367
2446 2 0.136169 0.288758 0.681778
2356 2 0.114758 0.265735 0.750243
1208 4 0.221265 0.267365 0.683019
946 2 0.2257 0.268687 0.72264
948 4 0.225412 0.258021 0.700027
947 4 0.225988 0.279353 0.745253
2988 4 0.429648 0.295122 0.747889
2986 2 0.447806 0.305299 0.734037
1064 4 0.481273 0.313177 0.708698
2987 4 0.465965 0.315475 0.720185
1166 4 0.420322 0.277318 0.744701
540 4 0.0837245 0.408763 0.731346
2015 4 0.0982066 0.415377 0.71868
2014 2 0.119873 0.403042 0.716778
2016 4 0.141539 0.390708 0.714876
1159 2 0.20272 0.400276 0.750444
1953 4 0.302203 0.418687 0.702984
1098 4 0.372559 0.342863 0.66849
1096 2 0.367143 0.349234 0.692054
1097 4 0.361726 0.355605 0.715618
1292 4 0.370181 0.414141 0.73606
1250 4 0.425109 0.412601 0.68421
4484 4 0.436236 0.396012 0.68248
4481 4 0.0399793 0.49855 0.723495
4480 2 0.0535444 0.480487 0.734214
538 2 0.0805453 0.429808 0.744467
2213 4 0.157463 0.448512 0.742357
1160 4 0.21186 0.416115 0.733392
1188 4 0.213935 0.449476 0.675875
1187 4 0.204507 0.429414 0.720701
1186 2 0.209221 0.439445 0.698288
889 2 0.247517 0.479016 0.745622
891 4 0.257394 0.467956 0.725491
1952 4 0.262521 0.430092 0.674773
1140 4 0.318973 0.429246 0.706551
1951 2 0.282362 0.42439 0.688879
1911 4 0.382599 0.448461 0.668187
1139 4 0.367156 0.423123 0.718453
1138 2 0.343064 0.426184 0.712502
1251 4 0.380025 0.434128 0.682044
1249 2 0.402567 0.423365 0.683127
3022 2 0.464272 0.482864 0.682475
3023 4 0.463022 0.507129 0.688376
2115 4 0.117663 0.0395031 0.787545
945 4 0.108762 0.0542818 0.799535
943 2 0.106816 0.0680469 0.778753
944 4 0.10487 0.0818119 0.75797
2113 2 0.118343 0.0145568 0.789093
1084 2 0.287731 0.00638802 0.773197
974 4 0.279739 0.0441687 0.786794
973 2 0.28788 0.0678037 0.78626
1086 4 0.284863 0.0312237 0.772821
1145 4 0.410921 0.0454164 0.751111
2264 4 0.467251 0.0790081 0.7471
1146 4 0.447868 0.0784973 0.744684
1144 2 0.429394 0.0619569 0.747898
2198 4 0.436617 0.0635089 0.805819
2197 2 0.441318 0.0551609 0.828914
1295 4 0.0481806 0.129359 0.750042
1294 2 0.0353361 0.148582 0.759563
1296 4 0.0224915 0.167806 0.769084
1082 4 0.0912539 0.0821733 0.741852
981 4 0.314245 0.0914303 0.794943
975 4 0.296021 0.0914388 0.785725
840 4 0.273381 0.119084 0.824381
828 4 0.290826 0.108063 0.826859
980 4 0.359199 0.0949733 0.773326
979 2 0.336722 0.0932018 0.784134
3296 4 0.0194608 0.18591 0.772748
1056 4 0.0772781 0.219124 0.81791
907 2 0.337073 0.229066 0.755322
908 4 0.348227 0.2421 0.773512
1236 4 0.33203 0.243818 0.786823
3479 4 0.483318 0.236049 0.817922
3478 2 0.483727 0.225942 0.795056
3362 4 0.499874 0.206742 0.76354
3480 4 0.484137 0.215835 0.77219
3418 2 0.0279796 0.313615 0.757994
2358 4 0.136205 0.259552 0.738975
1029 4 0.229346 0.295363 0.756727
1027 2 0.25079 0.304227 0.766042
1234 2 0.324044 0.264233 0.798847
1235 4 0.316057 0.284649 0.810872
1028 4 0.272234 0.31309 0.775358
1241 4 0.300225 0.292374 0.820983
1230 4 0.281578 0.325888 0.788428
1242 4 0.250955 0.300244 0.824337
1240 2 0.27559 0.296309 0.82266