ITEM: TIMESTEP
4940000
ITEM: NUMBER OF ATOMS
4590
ITEM: BOX BOUNDS pp pp pp
-9.9985700000000008e+00 9.9985700000000008e+00
-9.9985700000000008e+00 9.9985700000000008e+00
-9.9985700000000008e+00 9.9985700000000008e+00
ITEM: ATOMS id type xs ys zs
1149 4 0.0402219 0.0119684 0.0339256
2423 4 0.056106 0.0119103 0.020701
2422 2 0.0782268 0.00478877 0.0299276
1071 4 0.000596251 0.00820179 0.0828937
1147 2 0.0187187 0.999721 0.0375012
2330 4 0.149587 0.0351975 0.0243519
2329 2 0.134559 0.0158335 0.0292904
492 4 0.16099 0.0504324 0.0171336
996 4 0.205676 0.0763594 0.0773479
1108 2 0.374932 0.041966 0.0384544
1110 4 0.361529 0.0629564 0.0362268
1022 4 0.386287 0.00784543 0.0260619
1109 4 0.388334 0.0209756 0.040682
1447 2 0.481881 0.0561612 0.0318593
1449 4 0.482185 0.0468882 0.0550778
3162 4 0.484987 0.029193 0.0666338
3160 2 0.486737 0.00435235 0.064385
1448 4 0.481576 0.0654341 0.0086408
450 4 0.0484213 0.101751 0.0802248
448 2 0.0578151 0.10876 0.0581383
449 4 0.0672089 0.115768 0.0360518
299 4 0.0736417 0.120676 0.0186733
1634 4 0.0297825 0.0922888 0.0857421
1633 2 0.00868213 0.0876833 0.0731428
298 2 0.0743699 0.145659 0.0179445
32 3 0.144335 0.132281 0.0578016
34 3 0.136086 0.105712 0.0830734
31 1 0.138511 0.128546 0.0797396
3232 2 0.159273 0.108666 0.0131947
545 4 0.143534 0.0875237 0.0856158
994 2 0.196522 0.0851545 0.0558063
3233 4 0.168593 0.0904499 0.027564
995 4 0.187369 0.0939496 0.0342647
1760 4 0.371712 0.0769695 0.0458284
1759 2 0.383115 0.0963999 0.034983
1761 4 0.394517 0.11583 0.0241377
2162 4 0.40403 0.133146 0.0234662
2161 2 0.414496 0.152724 0.0119616
2771 4 0.0422175 0.224788 0.0257592
3090 4 0.0183792 0.206889 0.0216327
2770 2 0.0527237 0.246871 0.0205515
300 4 0.075098 0.170641 0.0172157
294 4 0.0830458 0.184464 0.0296163
292 2 0.0965205 0.196397 0.0469719
293 4 0.109995 0.20833 0.0643276
579 4 0.128255 0.21483 0.0671902
689 4 0.157093 0.225594 0.0128211
741 4 0.15476 0.246211 0.0106904
688 2 0.167714 0.222829 0.0352873
617 4 0.182979 0.201588 0.0614897
690 4 0.178335 0.220064 0.0577535
616 2 0.205749 0.20207 0.071808
618 4 0.228519 0.202552 0.0821263
1305 4 0.316753 0.176875 0.0166162
4210 2 0.292459 0.212759 0.00661441
4211 4 0.305482 0.192754 0.0140551
4212 4 0.279437 0.232765 0.999174
1290 4 0.281891 0.253454 0.998664
1303 2 0.340479 0.179691 0.023985
1304 4 0.364206 0.182507 0.0313538
481 2 0.3681 0.213105 0.0620704
482 4 0.364323 0.192792 0.0479887
483 4 0.371878 0.233418 0.0761522
323 4 0.37421 0.244506 0.0434948
338 4 0.4513 0.229839 0.0766727
2163 4 0.424962 0.172302 0.000457079
2772 4 0.06323 0.268955 0.0153438
3142 2 0.0517849 0.307673 0.0244393
3144 4 0.0554806 0.282992 0.0259627
3143 4 0.0480892 0.332355 0.0229159
739 2 0.144851 0.268528 0.00530915
361 2 0.124274 0.321822 0.00150034
740 4 0.134942 0.290844 0.999928
1289 4 0.264515 0.27862 0.0382298
1288 2 0.273203 0.266037 0.0184468
322 2 0.378387 0.267969 0.0359292
353 4 0.385133 0.305931 0.0142991
324 4 0.382564 0.291431 0.0283636
1368 4 0.0508483 0.351486 0.0196647
1366 2 0.0499045 0.375618 0.0131915
1367 4 0.0489607 0.399751 0.00671838
362 4 0.130826 0.344766 0.00897188
941 4 0.208857 0.348312 0.00240781
1094 4 0.241872 0.372618 0.0539845
637 2 0.219017 0.370567 0.0238634
638 4 0.239111 0.379301 0.0359099
639 4 0.198923 0.361832 0.0118168
960 4 0.335947 0.352401 0.049199
308 4 0.344847 0.357472 0.0656208
958 2 0.341255 0.375479 0.0411719
959 4 0.346564 0.398556 0.0331448
2289 4 0.366496 0.399697 0.0373024
2790 4 0.45621 0.388608 0.0773242
2788 2 0.467704 0.405794 0.0632631
561 4 0.418706 0.337296 0.0860555
1629 4 0.0568114 0.414331 0.0188403
1984 2 0.0508372 0.499326 0.0569625
1986 4 0.0310784 0.498688 0.0416536
1985 4 0.070596 0.499963 0.0722714
1627 2 0.0728273 0.430594 0.0086333
646 2 0.0832386 0.422117 0.0657472
647 4 0.072491 0.425989 0.0879886
648 4 0.0939861 0.418245 0.0435059
3518 4 0.143076 0.436754 0.0366472
3517 2 0.12531 0.439313 0.0192406
3519 4 0.107544 0.441873 0.00183397
506 4 0.217741 0.434008 0.0590371
387 4 0.238335 0.435003 0.0574691
505 2 0.195141 0.439092 0.068449
507 4 0.172542 0.444177 0.0778609
705 4 0.173146 0.463213 0.0856906
385 2 0.248706 0.457602 0.0548388
386 4 0.259078 0.4802 0.0522085
1727 4 0.275278 0.48316 0.0645345
2164 2 0.314989 0.500717 0.015825
2287 2 0.386996 0.414013 0.0374491
2166 4 0.335057 0.486207 0.0192723
2288 4 0.407495 0.428328 0.0375958
4088 4 0.384989 0.48828 0.0619425
4087 2 0.395116 0.467563 0.0522775
4089 4 0.405243 0.446845 0.0426125
2006 4 0.352039 0.478477 0.0225016
4547 4 0.367314 0.493103 0.070057
2005 2 0.366901 0.468921 0.00481011
4008 4 0.502173 0.486243 0.0222476
3219 4 0.479919 0.424611 0.0297142
2789 4 0.479197 0.42298 0.0492021
3217 2 0.488765 0.440093 0.0121855
3509 4 0.0528548 0.0277937 0.122662
1070 4 0.042219 0.0177155 0.108927
3508 2 0.06666 0.0418341 0.138072
1069 2 0.0214076 0.0129586 0.0959105
3510 4 0.0804652 0.0558745 0.153482
1232 4 0.0889057 0.0721716 0.160877
544 2 0.135325 0.0650575 0.0929003
546 4 0.127116 0.0425912 0.100185
1762 2 0.142049 0.0073135 0.112949
1763 4 0.14058 0.0267047 0.0972329
358 2 0.21647 0.0633258 0.110219
359 4 0.229896 0.0468064 0.123335
360 4 0.203044 0.0798451 0.0971026
2767 2 0.319873 0.0467232 0.140878
405 4 0.29544 0.0691791 0.153729
2768 4 0.305478 0.0665342 0.135829
403 2 0.275514 0.0820444 0.145817
1356 4 0.344366 0.0307083 0.163043
2769 4 0.334268 0.0269121 0.145927
631 2 0.417024 0.071716 0.152104
633 4 0.420158 0.04772 0.145816
743 4 0.424339 0.0396781 0.128383
742 2 0.431749 0.0195398 0.141217
758 4 0.485725 0.0373046 0.144887
747 4 0.494796 0.022021 0.13571
757 2 0.485141 0.0454782 0.168509
745 2 0.493741 0.999505 0.12489
3982 2 0.00549088 0.168018 0.135162
1231 2 0.0750721 0.0929955 0.161298
1233 4 0.0612385 0.113819 0.161718
35 3 0.154867 0.13669 0.0933339
33 3 0.118457 0.139365 0.0841228
370 2 0.118021 0.150934 0.126513
371 4 0.119859 0.147736 0.101783
237 4 0.16076 0.133582 0.111876
381 4 0.106405 0.165917 0.162076
372 4 0.116184 0.154131 0.151243
236 4 0.203012 0.107111 0.115719
235 2 0.181886 0.120347 0.113797
285 4 0.218534 0.128309 0.143816
249 4 0.251839 0.114387 0.135192
247 2 0.258221 0.138337 0.138487
248 4 0.264604 0.162287 0.141781
404 4 0.255588 0.0949097 0.137904
52 3 0.273048 0.163522 0.159436
521 4 0.393327 0.0966484 0.161034
3983 4 0.0163004 0.172231 0.157311
512 4 0.0864829 0.218271 0.157165
2609 4 0.0154236 0.254132 0.113384
577 2 0.130163 0.208937 0.0914144
15 3 0.126795 0.19351 0.133177
11 1 0.114589 0.199856 0.151326
12 3 0.128638 0.202543 0.169341
578 4 0.132071 0.203044 0.115639
13 3 0.0989011 0.183535 0.156417
14 3 0.103938 0.220021 0.147046
666 4 0.241708 0.188297 0.0869438
664 2 0.247546 0.183053 0.110684
665 4 0.253384 0.177808 0.134424
53 3 0.252456 0.192589 0.147446
527 4 0.303927 0.197419 0.159181
55 3 0.285002 0.198358 0.165477
51 1 0.266556 0.185056 0.164264
931 2 0.377038 0.232769 0.115767
933 4 0.371142 0.241384 0.0930468
932 4 0.382935 0.224153 0.138486
2828 4 0.999662 0.25013 0.102452
2610 4 0.0461467 0.291804 0.125116
2608 2 0.0307852 0.272968 0.11925
2527 2 0.0428918 0.327727 0.142806
2528 4 0.0420369 0.310859 0.124369
525 4 0.209707 0.272821 0.0953862
286 2 0.167569 0.317394 0.150854
287 4 0.160887 0.299119 0.135152
524 4 0.171741 0.291218 0.122235
523 2 0.190724 0.282019 0.10881
1103 4 0.326121 0.327709 0.121238
1102 2 0.330004 0.30607 0.133148
1104 4 0.333888 0.284432 0.145059
309 4 0.340656 0.333524 0.109321
252 4 0.35132 0.289039 0.153954
246 4 0.450449 0.287488 0.116716
337 2 0.45035 0.250678 0.0904573
339 4 0.4494 0.271517 0.104242
244 2 0.442876 0.309359 0.107256
245 4 0.435303 0.33123 0.0977958
2529 4 0.0437467 0.344595 0.161243
620 4 0.0313159 0.413407 0.153741
1512 4 0.0257891 0.40557 0.171164
612 4 0.174486 0.35641 0.169456
392 4 0.155872 0.415217 0.157064
1093 2 0.239798 0.379944 0.0778005
288 4 0.174251 0.335669 0.166556
1095 4 0.237724 0.38727 0.101617
1158 4 0.248321 0.391927 0.118754
1156 2 0.269658 0.395506 0.131289
1157 4 0.290995 0.399084 0.143824
738 4 0.308821 0.403778 0.136016
307 2 0.342752 0.345498 0.0874707
560 4 0.449394 0.372785 0.0687508
559 2 0.43405 0.355041 0.0774031
334 2 0.486177 0.39224 0.130078
335 4 0.46676 0.389098 0.145515
1454 4 0.474292 0.387953 0.164631
619 2 0.0475568 0.430989 0.14651
621 4 0.0637978 0.448571 0.139279
2751 4 0.0700241 0.46559 0.131711
2749 2 0.0690828 0.474819 0.108492
2750 4 0.0681416 0.484047 0.0852727
703 2 0.151212 0.455966 0.0952598
704 4 0.129278 0.44872 0.104829
391 2 0.162947 0.438674 0.152072
1776 4 0.169997 0.481881 0.149048
393 4 0.170022 0.46213 0.14708
1774 2 0.171898 0.503017 0.162272
736 2 0.316682 0.427395 0.133642
1620 4 0.310103 0.465962 0.131431
1618 2 0.322736 0.482839 0.144875
737 4 0.324543 0.451012 0.131268
4546 2 0.362487 0.48777 0.0940034
4548 4 0.35766 0.482436 0.11795
3346 2 0.492553 0.488613 0.157689
3347 4 0.487483 0.464131 0.157351
1849 2 0.073789 0.0682007 0.235029
1796 4 0.0832348 0.030759 0.233414
1851 4 0.0746591 0.0454466 0.224701
1795 2 0.0884761 0.00659832 0.237151
1865 4 0.266001 0.0232065 0.253999
1427 4 0.324391 0.0123444 0.235975
2467 2 0.298416 0.0281948 0.230536
2468 4 0.320316 0.0222169 0.220056
1354 2 0.34777 0.00895825 0.174897
1426 2 0.346977 0.00828747 0.245903
654 4 0.377605 0.0204183 0.264742
1428 4 0.369563 0.00423056 0.255832
759 4 0.484558 0.0536519 0.192132
629 4 0.480332 0.0656545 0.207405
628 2 0.491944 0.0638804 0.229477
630 4 0.503556 0.0621063 0.25155
3810 4 0.0454959 0.113149 0.174951
3809 4 0.0246215 0.158126 0.16847
3808 2 0.0350587 0.135637 0.17171
1850 4 0.0729189 0.0909549 0.245358
1463 4 0.065603 0.10901 0.239625
1464 4 0.074654 0.141912 0.20307
1462 2 0.0701285 0.125461 0.221348
380 4 0.0919721 0.134685 0.198366
379 2 0.0991885 0.150301 0.180221
1402 2 0.171019 0.170376 0.210508
283 2 0.204071 0.143242 0.157709
284 4 0.189608 0.158175 0.171602
1403 4 0.179665 0.161348 0.188854
632 4 0.41389 0.0957121 0.158393
520 2 0.37365 0.10915 0.170073
522 4 0.353973 0.121652 0.179111
640 2 0.478235 0.159026 0.240503
511 2 0.0707136 0.230368 0.172337
513 4 0.0549444 0.242465 0.187508
675 4 0.0372374 0.240998 0.197638
1404 4 0.162373 0.179404 0.232163
683 4 0.142758 0.184932 0.227355
473 4 0.229508 0.20382 0.24654
472 2 0.238607 0.199547 0.223646
474 4 0.247706 0.195273 0.200752
54 3 0.255382 0.185142 0.184599
526 2 0.326761 0.188208 0.16353
623 4 0.40056 0.195008 0.213268
1437 4 0.408142 0.182654 0.228069
622 2 0.381828 0.188434 0.198068
528 4 0.349596 0.178997 0.167878
624 4 0.363095 0.181859 0.182867
355 2 0.418442 0.255748 0.17628
1435 2 0.426449 0.180146 0.244914
2837 4 0.452684 0.244096 0.192001
2836 2 0.452887 0.239768 0.216626
357 4 0.438677 0.241112 0.177512
2838 4 0.45309 0.23544 0.241252
673 2 0.036789 0.258141 0.215834
674 4 0.0363407 0.275284 0.23403
2460 4 0.0523358 0.283387 0.244604
250 2 0.369693 0.285749 0.170591
251 4 0.388066 0.282459 0.187228
356 4 0.398207 0.270384 0.175048
1510 2 0.0253716 0.380832 0.167555
1511 4 0.0249541 0.356094 0.163945
734 4 0.0842604 0.350874 0.236587
610 2 0.162811 0.378517 0.169856
611 4 0.151136 0.400624 0.170257
751 2 0.255485 0.379597 0.212731
752 4 0.235392 0.383437 0.227108
1587 4 0.215631 0.386739 0.226839
1585 2 0.203112 0.386505 0.248482
753 4 0.275579 0.375756 0.198355
1455 4 0.470576 0.360786 0.20645
303 4 0.471139 0.37661 0.218605
1453 2 0.472434 0.37437 0.185541
301 2 0.463898 0.383025 0.241661
1791 4 0.241149 0.501872 0.233497
1674 4 0.408494 0.508537 0.242264
270 4 0.483815 0.445851 0.166712
495 4 0.468735 0.441003 0.23285
268 2 0.477135 0.447057 0.190776
269 4 0.470455 0.448264 0.214841
1866 4 0.226178 0.0011451 0.27469
1864 2 0.246089 0.0121758 0.264344
2469 4 0.276516 0.0341727 0.241017
652 2 0.386805 0.0435456 0.267119
653 4 0.396006 0.0666729 0.269497
2518 2 0.431998 0.00522855 0.298106
1032 4 0.447369 0.0225496 0.328331
2520 4 0.433431 0.0249088 0.313463
2519 4 0.430564 0.985548 0.28275
489 4 0.0912709 0.106523 0.289744
487 2 0.0960404 0.0986677 0.312997
488 4 0.10081 0.090812 0.336251
731 4 0.256424 0.110613 0.330973
730 2 0.235004 0.122247 0.336543
693 4 0.411916 0.0756152 0.276048
691 2 0.400625 0.0910498 0.292156
692 4 0.389334 0.106484 0.308264
1407 4 0.3733 0.102844 0.319269
295 2 0.497287 0.152262 0.29775
296 4 0.479909 0.158994 0.31442
2655 4 0.0337115 0.239702 0.319886
2653 2 0.0113841 0.240212 0.331129
366 4 0.082205 0.22165 0.32352
682 2 0.137498 0.195008 0.249626
2513 4 0.140754 0.21468 0.287158
684 4 0.132238 0.205084 0.271896
2512 2 0.121367 0.218853 0.302386
2514 4 0.10198 0.223025 0.317615
2462 4 0.212091 0.205638 0.254909
2463 4 0.197649 0.216625 0.301508
2461 2 0.20487 0.211132 0.278208
410 4 0.203915 0.216902 0.319453
1436 4 0.444755 0.177639 0.261759
641 4 0.457085 0.169246 0.249073
2458 2 0.0641309 0.291589 0.265068
2459 4 0.0759259 0.299791 0.285532
3236 4 0.0954175 0.300717 0.291775
3235 2 0.101662 0.320784 0.305322
120 3 0.415667 0.319862 0.31009
118 3 0.453092 0.32128 0.30621
230 4 0.45249 0.300301 0.303129
231 4 0.493892 0.276822 0.287791
229 2 0.473191 0.288562 0.29546
733 2 0.0823399 0.353206 0.261407
735 4 0.0804195 0.355538 0.286228
464 4 0.0602556 0.362198 0.285201
463 2 0.0355909 0.35869 0.287327
465 4 0.0109262 0.355181 0.289453
3237 4 0.107907 0.340851 0.318868
1586 4 0.190593 0.386271 0.270124
116 1 0.434351 0.33207 0.314623
117 3 0.432532 0.352703 0.304617
302 4 0.456656 0.389441 0.264717
2909 4 0.493301 0.368241 0.316728
2908 2 0.479139 0.379717 0.299613
2910 4 0.464978 0.391193 0.282498
727 2 0.138185 0.438324 0.309134
729 4 0.142428 0.448113 0.286521
728 4 0.133943 0.428535 0.331747
915 4 0.156036 0.44765 0.272574
914 4 0.199406 0.437808 0.249706
913 2 0.177721 0.442729 0.26114
1655 4 0.300122 0.487426 0.275136
1311 4 0.298398 0.498411 0.257839
494 4 0.468055 0.45466 0.280951
493 2 0.468395 0.447831 0.2569
2845 2 0.00273199 0.0374574 0.3753
2846 4 0.0125301 0.0383007 0.398288
1034 4 0.0240907 0.0517565 0.407184
1033 2 0.0313714 0.0748224 0.41352
899 4 0.316719 0.0852887 0.392027
1152 4 0.308852 0.0866432 0.411511
898 2 0.341114 0.0877544 0.38713
1030 2 0.458645 0.0250509 0.350507
1031 4 0.469921 0.0275521 0.372683
257 4 0.462419 0.0415947 0.386266
256 2 0.458107 0.0311677 0.408579
1035 4 0.0386522 0.0978882 0.419855
588 4 0.110889 0.0977034 0.351584
586 2 0.128424 0.112296 0.361819
587 4 0.14596 0.126888 0.372053
893 4 0.156566 0.127832 0.355071
732 4 0.213583 0.13388 0.342112
892 2 0.178784 0.138162 0.350086
894 4 0.201002 0.148491 0.345101
812 4 0.333974 0.162881 0.421745
900 4 0.36551 0.0902201 0.382233
1405 2 0.377572 0.0987063 0.343555
1406 4 0.381844 0.0945686 0.367842
2815 2 0.500975 0.105683 0.375561
3269 4 0.485391 0.132314 0.356383
2817 4 0.480159 0.116562 0.366985
3268 2 0.464586 0.146082 0.354717
311 4 0.429176 0.172162 0.354064
3147 4 0.99474 0.226642 0.422213
365 4 0.0936462 0.223604 0.372161
364 2 0.0879256 0.222627 0.347841
383 4 0.0940299 0.229527 0.390483
382 2 0.0948104 0.206427 0.400021
1221 4 0.142042 0.185255 0.400293
409 2 0.21184 0.21709 0.343166
677 4 0.214284 0.231649 0.380151
411 4 0.219765 0.217279 0.36688
613 2 0.338691 0.182369 0.397063
615 4 0.355707 0.197458 0.386671
310 2 0.414672 0.166504 0.37363
312 4 0.400169 0.160845 0.393195
3270 4 0.443781 0.159851 0.353052
1743 4 0.501219 0.242991 0.419277
676 2 0.206652 0.250251 0.395013
4 3 0.192689 0.314993 0.425017
1 1 0.209052 0.308433 0.409929
3 3 0.205473 0.286449 0.403424
678 4 0.19902 0.268854 0.409875
5 3 0.208734 0.322081 0.391701
2 3 0.22961 0.309912 0.420144
1478 4 0.296831 0.237465 0.412706
2457 4 0.375313 0.335916 0.368768
2455 2 0.379505 0.321059 0.388437
2456 4 0.383697 0.306201 0.408105
412 2 0.0634634 0.410543 0.362312
413 4 0.0386328 0.408535 0.36017
476 4 0.118714 0.351474 0.331197
344 4 0.105167 0.402433 0.363207
475 2 0.14188 0.355213 0.339829
477 4 0.165046 0.358953 0.348461
343 2 0.11337 0.400589 0.386755
414 4 0.0882939 0.412551 0.364454
431 4 0.174806 0.347225 0.400292
402 4 0.189689 0.332131 0.393284
401 4 0.184418 0.355488 0.349382
400 2 0.187053 0.34381 0.371333
119 3 0.436522 0.33501 0.337537
1392 4 0.456882 0.355908 0.407373
437 4 0.457643 0.360829 0.387597
436 2 0.446589 0.357329 0.365444
438 4 0.435535 0.353829 0.343291
107 3 0.504009 0.36728 0.334041
1819 2 0.135328 0.499414 0.408897
1361 4 0.144082 0.469679 0.385625
1360 2 0.13772 0.456802 0.365159
1821 4 0.15074 0.485706 0.394764
1362 4 0.131359 0.443924 0.344692
2141 4 0.206784 0.478904 0.344082
1863 4 0.272568 0.514262 0.349497
1697 4 0.420929 0.428766 0.402253
1696 2 0.415132 0.452646 0.40687
2507 4 0.484956 0.498012 0.407841
2506 2 0.502913 0.491435 0.391733
1698 4 0.409335 0.476526 0.411486
429 4 0.116818 0.0141529 0.447905
3758 4 0.219459 0.0250608 0.438287
1151 4 0.303929 0.0624506 0.454999
1150 2 0.30639 0.0745469 0.433255
938 4 0.33281 0.0401539 0.48535
43 3 0.370488 0.0257055 0.46517
42 3 0.354679 0.0460511 0.437806
41 1 0.362028 0.0465807 0.459597
45 3 0.34458 0.0517971 0.473273
44 3 0.378666 0.0626403 0.461515
3438 4 0.477119 0.0323772 0.468298
258 4 0.453795 0.0207407 0.430892
2236 2 0.435294 0.0484377 0.458975
2238 4 0.45007 0.0309876 0.448858
2237 4 0.420518 0.0658879 0.469092
3548 4 0.425891 0.0842486 0.463141
397 2 0.0124561 0.116412 0.449406
398 4 0.030527 0.109591 0.433528
3353 4 0.0287231 0.164448 0.492209
1198 2 0.21063 0.13976 0.499098
1200 4 0.193233 0.154218 0.488444
1781 4 0.284821 0.1053 0.483368
1780 2 0.26588 0.117701 0.493981
811 2 0.3302 0.142791 0.436144
813 4 0.326425 0.122701 0.450542
3549 4 0.441908 0.131018 0.470678
3547 2 0.433899 0.107633 0.466909
266 4 0.44771 0.136151 0.452015
265 2 0.456477 0.159454 0.44971
3146 4 0.0305752 0.214364 0.45486
3145 2 0.0126578 0.220503 0.438536
3115 2 0.0447971 0.178827 0.468705
3116 4 0.0644203 0.193814 0.46477
3117 4 0.0251739 0.163839 0.47264
1227 4 0.127849 0.170243 0.485409
1226 4 0.0836108 0.188269 0.470618
1225 2 0.10573 0.179256 0.478013
384 4 0.0955908 0.183328 0.40956
1219 2 0.153509 0.197751 0.418665
291 4 0.166521 0.211046 0.456593
289 2 0.152465 0.223683 0.47296
290 4 0.138408 0.23632 0.489327
3275 4 0.149046 0.238672 0.50695
1220 4 0.164976 0.210246 0.437038
614 4 0.321676 0.16728 0.407454
1479 4 0.272418 0.210231 0.44681
1477 2 0.284625 0.223848 0.429758
3309 4 0.483651 0.245216 0.429045
3307 2 0.478619 0.221013 0.432794
3308 4 0.473587 0.196809 0.436543
267 4 0.465243 0.182757 0.447406
1811 4 0.00853942 0.31848 0.485513
510 4 0.043378 0.278995 0.44215
1812 4 0.0343005 0.285889 0.457675
1810 2 0.02142 0.302185 0.471594
508 2 0.0672271 0.284379 0.447386
569 4 0.133478 0.330137 0.429803
509 4 0.0910762 0.289762 0.452622
570 4 0.110031 0.289304 0.446645
568 2 0.121754 0.309721 0.438224
447 4 0.23309 0.322037 0.43697
576 4 0.383958 0.321491 0.420954
574 2 0.370247 0.321347 0.441862
240 4 0.360013 0.324259 0.481866
575 4 0.356535 0.321202 0.46277
430 2 0.155849 0.348549 0.416542
345 4 0.121573 0.398745 0.410302
432 4 0.136892 0.349873 0.432791
850 2 0.141445 0.417529 0.440638
851 4 0.122238 0.407203 0.428405
2298 4 0.222292 0.395525 0.456904
445 2 0.248225 0.341705 0.433922
446 4 0.26336 0.361372 0.430874
585 4 0.277621 0.373017 0.421297
583 2 0.29427 0.390957 0.426409
584 4 0.31092 0.408897 0.431521
378 4 0.328213 0.413059 0.440401
376 2 0.339001 0.410871 0.462852
1390 2 0.443269 0.364108 0.426676
1391 4 0.429655 0.372308 0.445979
3220 2 0.441663 0.352936 0.481925
3221 4 0.4293 0.366393 0.464859
1066 2 0.0657889 0.483428 0.475647
408 4 0.0403214 0.460828 0.469004
1067 4 0.0571874 0.465423 0.460581
406 2 0.0295073 0.449968 0.449248
407 4 0.0186931 0.439108 0.429492
852 4 0.160652 0.427855 0.45287
2296 2 0.199523 0.405308 0.453578
882 4 0.225646 0.494632 0.473556
2297 4 0.176754 0.41509 0.450251
880 2 0.236639 0.47726 0.487788
377 4 0.349789 0.408684 0.485302
772 2 0.410453 0.501246 0.443357
807 4 0.39482 0.455257 0.47261
773 4 0.419976 0.489898 0.423214
1332 4 0.448156 0.417982 0.494471
3093 4 0.457772 0.458586 0.494648
321 4 0.068721 0.0785078 0.512192
319 2 0.0864334 0.0611398 0.515323
320 4 0.104146 0.0437718 0.518453
1600 2 0.128357 0.0414546 0.550548
1602 4 0.108225 0.0380324 0.536121
1601 4 0.14849 0.0448769 0.564975
1105 2 0.223029 0.0306696 0.554324
1107 4 0.214077 0.0534081 0.559617
1106 4 0.23198 0.00793112 0.549031
99 3 0.198602 0.0549418 0.573272
96 1 0.1802 0.0650959 0.583104
939 4 0.339597 0.0227371 0.531732
937 2 0.336203 0.0314455 0.508541
1164 4 0.338148 0.0162423 0.551174
1162 2 0.362163 0.0135375 0.557588
1163 4 0.386178 0.0108328 0.564002
4580 4 0.404716 0.00962553 0.571511
716 4 0.440318 0.00771916 0.513763
4581 4 0.428047 0.00416972 0.527617
4579 2 0.416382 0.00689762 0.549564
316 2 0.0448896 0.103545 0.518659
317 4 0.0387462 0.123937 0.531759
342 4 0.0341824 0.141995 0.538788
340 2 0.0514295 0.143186 0.556851
3352 2 0.019928 0.161065 0.515369
3354 4 0.0111329 0.157683 0.538529
341 4 0.0686766 0.144377 0.574915
318 4 0.051033 0.0831534 0.505559
1700 4 0.133745 0.154022 0.495859
1699 2 0.157318 0.146302 0.492714
2049 4 0.213954 0.092773 0.542379
2047 2 0.226144 0.0905981 0.520657
2048 4 0.238334 0.0884232 0.498935
100 3 0.182807 0.0877195 0.582958
1199 4 0.228027 0.125302 0.509751
1701 4 0.180891 0.138583 0.489569
1782 4 0.24694 0.130103 0.504594
305 4 0.414316 0.0834141 0.52026
304 2 0.428409 0.0971512 0.535682
306 4 0.442503 0.110888 0.551105
4465 2 0.476762 0.128104 0.561381
4467 4 0.458992 0.110515 0.561521
4466 4 0.494532 0.145694 0.561241
49 3 0.494901 0.164087 0.571376
260 4 0.0186962 0.171876 0.550485
259 2 0.0152059 0.184495 0.571787
3274 2 0.142044 0.254683 0.524834
1136 4 0.242948 0.237663 0.517865
1135 2 0.259058 0.218852 0.521299
910 2 0.316639 0.191759 0.520654
912 4 0.294982 0.204204 0.519517
1137 4 0.275168 0.200041 0.524733
467 4 0.393871 0.185643 0.542022
911 4 0.338295 0.179314 0.521791
466 2 0.371985 0.1756 0.535289
468 4 0.3501 0.165558 0.528555
2355 4 0.34252 0.229748 0.556293
710 4 0.0586146 0.299799 0.531003
709 2 0.0353224 0.306999 0.536554
711 4 0.0120302 0.314199 0.542105
2448 4 0.0721897 0.291122 0.543384
3501 4 0.0114853 0.33198 0.551252
3276 4 0.135043 0.270694 0.542717
2447 4 0.11577 0.266832 0.539997
2446 2 0.0939798 0.278977 0.54169
2376 4 0.238065 0.257459 0.516722
2374 2 0.228523 0.273423 0.533434
2375 4 0.218981 0.289387 0.550146
2172 4 0.201238 0.333131 0.560718
3019 2 0.485414 0.326251 0.551493
3021 4 0.499455 0.306972 0.543987
4432 2 0.0716232 0.401847 0.5652
4434 4 0.0759778 0.388648 0.544415
1381 2 0.163377 0.335522 0.560698
1383 4 0.14221 0.339363 0.547954
1191 4 0.1272 0.342842 0.537658
1189 2 0.106938 0.356837 0.541993
1190 4 0.0866764 0.370831 0.546327
1382 4 0.184544 0.331682 0.573441
2170 2 0.217474 0.351965 0.56334
2171 4 0.233709 0.370799 0.565961
1953 4 0.244153 0.384497 0.553556
1951 2 0.262427 0.384327 0.570621
238 2 0.352815 0.335079 0.503227
696 4 0.342955 0.411198 0.504074
694 2 0.343763 0.388681 0.514914
695 4 0.34457 0.366164 0.525755
239 4 0.345618 0.345899 0.524588
1331 4 0.415048 0.402339 0.528528
3167 4 0.402383 0.391697 0.539857
3166 2 0.385683 0.406246 0.551459
1330 2 0.431602 0.410161 0.5115
1249 2 0.485239 0.387238 0.537131
1251 4 0.472253 0.385059 0.558387
1140 4 0.459492 0.381302 0.573345
1250 4 0.498225 0.389418 0.515876
3020 4 0.471372 0.34553 0.559
3222 4 0.454027 0.339479 0.49899
881 4 0.247632 0.459888 0.502019
930 4 0.257442 0.450212 0.515629
928 2 0.279972 0.457937 0.523236
929 4 0.302503 0.465662 0.530843
2310 4 0.317147 0.451749 0.534062
3168 4 0.368983 0.420795 0.563061
2308 2 0.335141 0.447513 0.517226
2309 4 0.353136 0.443276 0.500391
806 4 0.414855 0.486239 0.506366
805 2 0.404838 0.470748 0.489488
3091 2 0.470105 0.454234 0.515959
2118 4 0.498664 0.456957 0.547403
3092 4 0.482437 0.449882 0.53727
1284 4 0.0956321 0.00370696 0.601081
97 3 0.161364 0.0595622 0.571115
1973 4 0.225722 0.00821175 0.653129
920 4 0.216618 0.0209253 0.637931
919 2 0.202575 0.0400184 0.629967
921 4 0.188532 0.0591115 0.622003
98 3 0.177699 0.0575555 0.604905
1182 4 0.317301 0.00870255 0.625849
605 4 0.295259 0.0691986 0.625427
1181 4 0.290737 0.0506692 0.620027
1180 2 0.304019 0.0296859 0.622938
634 2 0.25061 0.153792 0.638742
636 4 0.239064 0.144559 0.658906
824 4 0.22029 0.147273 0.664873
635 4 0.262156 0.163026 0.618577
604 2 0.296944 0.0941452 0.625528
606 4 0.298628 0.119092 0.62563
1097 4 0.302534 0.133643 0.637378
1096 2 0.322941 0.147156 0.632264
1098 4 0.343347 0.160668 0.62715
1194 4 0.362377 0.162328 0.633247
1143 4 0.452735 0.147003 0.605251
1141 2 0.462056 0.152502 0.627792
1142 4 0.471376 0.158001 0.650332
1145 4 0.457808 0.146442 0.658939
261 4 0.0117155 0.197114 0.593088
945 4 0.0302251 0.197396 0.60461
943 2 0.0282829 0.216335 0.620818
944 4 0.0263407 0.235275 0.637027
3476 4 0.00610616 0.243231 0.640342
435 4 0.100593 0.203847 0.634797
433 2 0.102699 0.182439 0.647542
650 4 0.210047 0.25404 0.583856
856 2 0.247774 0.222805 0.62264
857 4 0.251567 0.198159 0.624477
1064 4 0.3165 0.189638 0.654972
2353 2 0.35141 0.226277 0.579404
1193 4 0.369247 0.206083 0.610031
2354 4 0.360301 0.222806 0.602514
1192 2 0.365812 0.184205 0.621639
50 3 0.501231 0.191605 0.596283
1209 4 0.15089 0.256511 0.603893
1207 2 0.139641 0.26014 0.625926
1208 4 0.128391 0.263768 0.647959
858 4 0.243981 0.247451 0.620803
651 4 0.169254 0.254747 0.612772
649 2 0.18965 0.254393 0.598314
947 4 0.212579 0.315499 0.620072
946 2 0.232077 0.327131 0.630545
276 4 0.198159 0.306747 0.631819
274 2 0.176551 0.319326 0.631571
1212 4 0.259592 0.259431 0.617082
1211 4 0.283064 0.296771 0.593513
1210 2 0.271328 0.278101 0.605297
948 4 0.251576 0.338763 0.641019
1259 4 0.0482972 0.367036 0.635581
2990 4 0.0552177 0.385425 0.629764
2989 2 0.078167 0.385709 0.619843
984 4 0.0492266 0.421357 0.594038
1258 2 0.0447145 0.35312 0.656043
4433 4 0.0672685 0.415045 0.585985
778 2 0.0186121 0.41104 0.671275
275 4 0.154944 0.331905 0.631324
936 4 0.141247 0.341018 0.644511
2991 4 0.101116 0.385992 0.609922
934 2 0.125274 0.357202 0.634113
935 4 0.1093 0.373385 0.623716
895 2 0.132205 0.409503 0.664429
2154 4 0.253621 0.423693 0.639276
3192 4 0.262056 0.330642 0.656923
1952 4 0.280701 0.384157 0.587686
2152 2 0.264378 0.409501 0.621725
2153 4 0.275135 0.395308 0.604174
1138 2 0.471295 0.393622 0.591623
1139 4 0.483098 0.405942 0.609902
3022 2 0.482773 0.403899 0.647212
3024 4 0.478689 0.393048 0.625059
983 4 0.0333749 0.438011 0.638446
982 2 0.0413007 0.429684 0.616242
780 4 0.026435 0.426113 0.652924
897 4 0.13051 0.414027 0.639897
3302 4 0.130805 0.432768 0.635157
3301 2 0.146604 0.43847 0.616635
791 4 0.247008 0.417149 0.656702
3303 4 0.162403 0.444171 0.598113
1161 4 0.16869 0.464121 0.599576
1159 2 0.173124 0.488598 0.602103
1205 4 0.371956 0.503738 0.600872
2035 2 0.412121 0.495664 0.620063
2036 4 0.390404 0.500643 0.608716
2037 4 0.433838 0.490684 0.63141
2121 4 0.453548 0.489675 0.635511
4509 4 0.0334356 0.086224 0.715281
329 4 0.018198 0.0766908 0.726046
1203 4 0.308114 0.0234654 0.71111
1244 4 0.309785 0.00490215 0.719832
1201 2 0.322311 0.0430782 0.704867
1202 4 0.336507 0.0626911 0.698624
951 4 0.354774 0.0710115 0.693311
949 2 0.376238 0.0714773 0.706127
950 4 0.397703 0.0719431 0.718943
1005 4 0.414148 0.0635638 0.727279
1003 2 0.428795 0.0782041 0.74129
4507 2 0.0234427 0.10755 0.706884
4508 4 0.0134498 0.128877 0.698487
1074 4 0.0134555 0.148302 0.699145
1072 2 0.0265844 0.16561 0.711524
1073 4 0.0397133 0.182918 0.723904
2133 4 0.166036 0.166094 0.688661
2131 2 0.141983 0.164339 0.68206
2132 4 0.117931 0.162584 0.67546
823 2 0.202678 0.156436 0.680073
1144 2 0.467816 0.141077 0.681215
2264 4 0.487093 0.121014 0.714418
1146 4 0.477825 0.135713 0.703491
1185 4 0.044611 0.197396 0.736417
2628 4 0.0105828 0.249933 0.755987
434 4 0.104804 0.161032 0.660288
825 4 0.185065 0.165599 0.695273
1063 2 0.3134 0.187717 0.679708
1065 4 0.3103 0.185795 0.704444
2987 4 0.367376 0.188983 0.731805
2906 4 0.379509 0.225825 0.676121
2905 2 0.399348 0.218581 0.689505
3372 4 0.370426 0.240043 0.688296
2907 4 0.419187 0.211338 0.702888
558 4 0.435148 0.19974 0.703837
556 2 0.436375 0.184133 0.723333
3373 2 0.0531074 0.323007 0.704329
3374 4 0.0563848 0.301434 0.716539
2626 2 0.0110965 0.26726 0.737969
1228 2 0.232383 0.315387 0.749964
1230 4 0.247353 0.315376 0.729937
980 4 0.316732 0.319619 0.685831
3191 4 0.300092 0.329694 0.689374
979 2 0.338961 0.308174 0.685576
981 4 0.361191 0.29673 0.685321
3371 4 0.363621 0.287429 0.702752
3370 2 0.367023 0.263736 0.695524
1269 4 0.488144 0.319796 0.728038
1260 4 0.0411319 0.339204 0.676505
3375 4 0.0498301 0.344579 0.69212
779 4 0.0107892 0.395966 0.689626
896 4 0.1339 0.40498 0.688962
2356 2 0.104022 0.417275 0.716282
2357 4 0.126148 0.412011 0.705895
790 2 0.252373 0.399584 0.673669
792 4 0.257737 0.382019 0.690636
3190 2 0.281074 0.330168 0.673149
3114 4 0.379229 0.360368 0.742994
3112 2 0.380476 0.335649 0.746546
4181 4 0.488999 0.33477 0.741455
4180 2 0.468198 0.348397 0.738843
3379 2 0.434912 0.402698 0.736528
4182 4 0.447398 0.362023 0.736231
3380 4 0.437113 0.378764 0.74342
1956 4 0.996541 0.486314 0.694627
540 4 0.0660229 0.418395 0.739143
2174 4 0.000983067 0.466286 0.689103
538 2 0.0644686 0.442209 0.746601
2358 4 0.0818954 0.422539 0.72667
1078 2 0.213995 0.425592 0.751108
1080 4 0.232216 0.434305 0.736369
4482 4 0.233604 0.434301 0.716695
4480 2 0.257648 0.440035 0.712924
4481 4 0.281691 0.445768 0.709153
2379 4 0.298454 0.448448 0.71941
2377 2 0.311069 0.469719 0.723096
2378 4 0.323684 0.49099 0.726783
1910 4 0.339 0.486171 0.740046
3023 4 0.486857 0.414749 0.669365
3381 4 0.43271 0.426632 0.729637
3435 4 0.503111 0.455728 0.677185
1942 2 0.0151113 0.0192522 0.787181
328 2 0.0327168 0.0666755 0.743769
330 4 0.0472356 0.0566602 0.761491
1943 4 0.0257955 0.9969 0.790561
2113 2 0.145267 0.0764106 0.793426
2115 4 0.122888 0.0872396 0.796094
2114 4 0.167645 0.0655816 0.790757
1083 4 0.183156 0.0570461 0.800806
1081 2 0.200297 0.0464031 0.786039
2232 4 0.204033 0.0236841 0.762273
1082 4 0.217439 0.0357601 0.771272
1969 2 0.318883 0.0164549 0.818442
1084 2 0.290637 0.0650866 0.81597
1085 4 0.295612 0.0456735 0.830921
1256 4 0.372595 0.0398357 0.766366
1255 2 0.395197 0.0291569 0.766913
1257 4 0.417799 0.0184781 0.76746