ITEM: TIMESTEP
2130000
ITEM: NUMBER OF ATOMS
4590
ITEM: BOX BOUNDS pp pp pp
-9.9985700000000008e+00 9.9985700000000008e+00
-9.9985700000000008e+00 9.9985700000000008e+00
-9.9985700000000008e+00 9.9985700000000008e+00
ITEM: ATOMS id type xs ys zs
1675 2 0.0703922 0.0565025 0.00345586
2183 4 0.0352466 0.0874661 0.00839683
1677 4 0.0806197 0.078465 0.00963844
1474 2 0.275015 0.00265743 0.0776523
1476 4 0.283317 0.0214342 0.0919245
1827 4 0.383411 0.0784489 0.0137091
1825 2 0.378956 0.0540902 0.0171717
1826 4 0.374502 0.0297315 0.0206344
3837 4 0.386264 0.0123615 0.0235877
168 3 0.447594 0.0187108 0.0385596
1926 4 0.479474 0.0807304 0.0173869
2885 4 0.476677 0.992749 0.0414201
372 4 0.0433499 0.102172 0.0167611
370 2 0.0434861 0.104743 0.0416317
701 4 0.0307043 0.117172 0.0777416
371 4 0.0436222 0.107315 0.0665023
3234 4 0.0961532 0.133278 0.0631395
1036 2 0.121881 0.0819746 0.998584
1038 4 0.145277 0.0898007 0.994513
3232 2 0.0945554 0.151823 0.0464453
3233 4 0.0929577 0.170369 0.029751
1037 4 0.0984856 0.0741486 0.00265528
1233 4 0.167032 0.163782 0.0690451
423 4 0.159916 0.103908 0.993487
1232 4 0.17914 0.136238 0.029102
1231 2 0.173086 0.15001 0.0490735
422 4 0.193987 0.125396 0.023121
421 2 0.176952 0.114652 0.00830404
492 4 0.239805 0.119017 0.0370051
52 3 0.247531 0.149045 0.0809495
490 2 0.254045 0.120316 0.0164941
55 3 0.273906 0.149198 0.0545448
51 1 0.267807 0.157918 0.0746797
1023 4 0.288191 0.15238 0.0416112
1021 2 0.310678 0.141986 0.0382205
54 3 0.283644 0.152538 0.0907619
1022 4 0.333164 0.131592 0.0348298
758 4 0.373617 0.0931741 0.00651249
757 2 0.360961 0.106199 0.0236986
759 4 0.348306 0.119225 0.0408847
1924 2 0.483845 0.0862634 0.0413758
1925 4 0.488215 0.0917963 0.0653648
932 4 0.108634 0.182848 0.026029
931 2 0.127826 0.186351 0.0103912
359 4 0.181864 0.176169 0.0741393
358 2 0.185985 0.199722 0.0814494
53 3 0.265717 0.180967 0.0730198
4212 4 0.274458 0.191082 0.0580357
252 4 0.319367 0.222933 0.0361524
665 4 0.329649 0.239565 0.0412388
4210 2 0.26596 0.214423 0.0551821
4211 4 0.257463 0.237765 0.0523285
354 4 0.253878 0.257165 0.0533343
664 2 0.327143 0.258763 0.0570601
250 2 0.307286 0.228767 0.0150527
2723 4 0.499616 0.185132 0.0222786
558 4 0.49077 0.173814 0.00771838
556 2 0.468839 0.175717 0.99586
2682 4 0.503102 0.220138 0.0848265
3335 4 0.497722 0.234357 0.0715505
557 4 0.446909 0.177619 0.984001
739 2 0.228029 0.311323 0.0733987
741 4 0.208928 0.305926 0.0581938
245 4 0.220067 0.299445 0.0428836
244 2 0.203117 0.289513 0.0274163
246 4 0.186168 0.279581 0.011949
666 4 0.324637 0.277962 0.0728814
1047 4 0.418021 0.299054 0.0472885
659 4 0.417478 0.296052 0.0661849
1045 2 0.413384 0.303875 0.0231963
658 2 0.397922 0.301719 0.0806989
1046 4 0.408746 0.308696 0.999104
3334 2 0.499645 0.258155 0.0641257
322 2 0.480759 0.309686 0.0573868
323 4 0.497713 0.296705 0.0703943
324 4 0.463804 0.322668 0.0443794
455 4 0.064232 0.360734 0.0280155
454 2 0.0433903 0.359916 0.0142267
456 4 0.0225485 0.359097 0.000437966
1103 4 0.0836431 0.358235 0.0287931
1102 2 0.108031 0.352931 0.0303038
293 4 0.147843 0.360767 0.033614
1104 4 0.132419 0.347627 0.0318146
292 2 0.169867 0.371448 0.0285111
294 4 0.191891 0.382128 0.0234082
955 2 0.235442 0.379132 0.00970985
914 4 0.25021 0.396159 0.0464661
525 4 0.235633 0.406111 0.0585726
523 2 0.217916 0.413058 0.0747902
957 4 0.211371 0.383469 0.0149041
524 4 0.200199 0.420006 0.0910078
913 2 0.269305 0.399846 0.0621819
956 4 0.259512 0.374795 0.00451558
782 4 0.274689 0.38325 0.995637
781 2 0.287698 0.400123 0.00872408
783 4 0.300707 0.416996 0.0218107
2771 4 0.994746 0.453791 0.059978
639 4 0.14358 0.499763 0.0474259
1692 4 0.108428 0.470887 0.998949
1778 4 0.222349 0.423944 0.998256
637 2 0.159013 0.50566 0.0661937
271 2 0.328263 0.439968 0.0252614
272 4 0.306672 0.432288 0.0352615
2566 2 0.375467 0.479684 0.0186157
2568 4 0.363344 0.460335 0.00842749
273 4 0.349854 0.447649 0.0152613
2567 4 0.38759 0.499034 0.0288039
498 4 0.409584 0.470244 0.0660791
381 4 0.000369543 0.0531432 0.154029
532 2 0.16542 0.00437583 0.146266
533 4 0.175838 0.0269435 0.148977
1506 4 0.183598 0.0440187 0.15709
1504 2 0.204496 0.0560116 0.163769
1505 4 0.225395 0.0680044 0.170447
461 4 0.237903 0.0761169 0.184078
1254 4 0.288287 0.0398334 0.0888631
1252 2 0.305432 0.0575592 0.0929875
582 4 0.380704 0.0924982 0.132834
744 4 0.424341 0.0209623 0.167166
700 2 0.0228868 0.11808 0.101474
702 4 0.0150693 0.118988 0.125207
690 4 0.219927 0.121055 0.158702
249 4 0.226591 0.129603 0.141496
247 2 0.232295 0.140451 0.119703
688 2 0.20497 0.138583 0.16841
1253 4 0.322578 0.0752851 0.097112
248 4 0.238 0.1513 0.0979092
566 4 0.297802 0.143631 0.0806487
565 2 0.317708 0.134702 0.0928636
567 4 0.337614 0.125774 0.105079
581 4 0.349488 0.111291 0.0985826
580 2 0.365096 0.101894 0.115708
628 2 0.398003 0.16676 0.14253
630 4 0.422294 0.164233 0.137169
295 2 0.489688 0.142164 0.152432
296 4 0.468897 0.145926 0.139061
554 4 0.0474356 0.236674 0.0962908
555 4 0.0241887 0.201647 0.123372
553 2 0.0358121 0.21916 0.109832
2835 4 0.0126253 0.197415 0.139474
299 4 0.060118 0.252021 0.0932877
465 4 0.0999356 0.2221 0.162233
360 4 0.190106 0.223275 0.0887595
763 2 0.448334 0.171437 0.121284
765 4 0.472357 0.176885 0.125572
764 4 0.42431 0.165989 0.116997
2681 4 0.4789 0.194631 0.120385
2680 2 0.491001 0.207384 0.102606
298 2 0.0697821 0.274526 0.0882568
2718 4 0.998796 0.280406 0.161381
2716 2 0.0210487 0.269347 0.164149
363 4 0.0657423 0.312778 0.0804577
300 4 0.0794461 0.297031 0.083226
704 4 0.0715167 0.329446 0.172593
361 2 0.0800292 0.328537 0.093601
338 4 0.227708 0.270667 0.144602
740 4 0.247131 0.316719 0.0886035
353 4 0.268297 0.276275 0.0972389
385 2 0.282354 0.327808 0.107561
352 2 0.261087 0.26672 0.0752866
521 4 0.325642 0.330121 0.115426
387 4 0.305935 0.327659 0.115873
386 4 0.258773 0.327956 0.0992486
355 2 0.363363 0.271949 0.152922
356 4 0.387828 0.275956 0.156176
660 4 0.378367 0.307385 0.0952129
520 2 0.348349 0.319759 0.113942
522 4 0.371056 0.309397 0.112458
357 4 0.338898 0.267941 0.149667
1776 4 0.00163928 0.335002 0.176711
362 4 0.094316 0.344295 0.106744
738 4 0.107292 0.356296 0.0986202
736 2 0.10296 0.380559 0.094412
737 4 0.0986269 0.404822 0.0902037
1619 4 0.20568 0.412065 0.108906
1618 2 0.216742 0.405537 0.130359
507 4 0.242145 0.41273 0.156238
1620 4 0.227803 0.39901 0.151811
915 4 0.288399 0.403533 0.0778977
756 4 0.286358 0.412808 0.0973235
303 4 0.34163 0.409364 0.138374
301 2 0.344081 0.384585 0.140649
302 4 0.346532 0.359806 0.142924
536 4 0.0704174 0.463772 0.0937381
537 4 0.0652073 0.484779 0.138819
535 2 0.0678123 0.474275 0.116279
1788 4 0.0620522 0.503111 0.146007
648 4 0.0855962 0.452106 0.0896276
647 4 0.114739 0.41258 0.080184
646 2 0.100167 0.432343 0.0849058
755 4 0.325753 0.415182 0.128033
754 2 0.306055 0.413995 0.112678
505 2 0.266622 0.417543 0.157934
506 4 0.2911 0.422357 0.159629
287 4 0.303738 0.436319 0.152747
542 4 0.359846 0.417276 0.138985
541 2 0.37941 0.431274 0.132168
543 4 0.398975 0.445271 0.12535
497 4 0.409011 0.457998 0.11456
496 2 0.409298 0.464121 0.0903197
3809 4 0.00757102 0.994073 0.175462
379 2 0.00911817 0.0683445 0.171849
3808 2 0.0158536 0.0122726 0.190474
591 4 0.0388576 0.03352 0.217501
589 2 0.0564713 0.0408965 0.233642
3810 4 0.0241363 0.0304722 0.205486
380 4 0.0178668 0.0835459 0.18967
590 4 0.0740851 0.0482731 0.249783
723 4 0.0798973 0.0644828 0.238804
460 2 0.259154 0.0630111 0.185421
462 4 0.280406 0.0499053 0.186764
2768 4 0.290153 0.0476589 0.203673
2767 2 0.313686 0.0543906 0.208778
1427 4 0.38693 0.023401 0.243935
332 4 0.393487 0.0779853 0.207198
1761 4 0.397573 0.0749863 0.185817
1541 4 0.39871 0.00762716 0.245543
2769 4 0.337219 0.0611223 0.213884
331 2 0.373734 0.0639872 0.213447
333 4 0.35398 0.049989 0.219695
572 4 0.336854 0.00542511 0.194265
1759 2 0.409044 0.057364 0.172288
1760 4 0.420516 0.0397418 0.158759
578 4 0.0698789 0.11292 0.179463
2480 4 0.0190815 0.11862 0.211163
579 4 0.035622 0.109921 0.21577
2479 2 0.998696 0.130424 0.219545
577 2 0.0527505 0.111421 0.197617
721 2 0.0965792 0.0812928 0.246823
722 4 0.113261 0.0981028 0.254843
526 2 0.29807 0.160327 0.213017
528 4 0.302029 0.143328 0.195113
629 4 0.373712 0.169288 0.14789
707 4 0.459609 0.144459 0.240106
632 4 0.441161 0.14343 0.246748
545 4 0.0533292 0.234645 0.229272
617 4 0.0653418 0.219973 0.229691
544 2 0.0528644 0.246343 0.207178
616 2 0.0534016 0.206566 0.247094
463 2 0.112144 0.230185 0.182501
464 4 0.124352 0.23827 0.202768
476 4 0.116719 0.237129 0.221896
475 2 0.115102 0.261746 0.225964
1700 4 0.182598 0.158609 0.196615
689 4 0.190013 0.156111 0.178118
1701 4 0.171851 0.195556 0.228556
410 4 0.18427 0.210579 0.22749
1699 2 0.177224 0.177083 0.212586
409 2 0.195083 0.229213 0.24018
411 4 0.205896 0.247847 0.25287
527 4 0.29411 0.177326 0.23092
624 4 0.297033 0.197155 0.226408
622 2 0.299795 0.218193 0.213182
13 3 0.30728 0.259491 0.204933
623 4 0.302557 0.239232 0.199955
255 4 0.376576 0.173958 0.167149
253 2 0.373009 0.189716 0.186231
254 4 0.369442 0.205474 0.205314
312 4 0.34593 0.236322 0.241897
642 4 0.349647 0.215182 0.242358
708 4 0.451723 0.193825 0.241328
706 2 0.455666 0.169142 0.240717
2717 4 0.0433017 0.258287 0.166918
546 4 0.0523996 0.258041 0.185085
619 2 0.0503151 0.311482 0.194553
620 4 0.067483 0.310111 0.176426
621 4 0.0331473 0.312853 0.212679
477 4 0.113485 0.286364 0.230032
402 4 0.244475 0.304046 0.256654
400 2 0.241885 0.2972 0.232746
337 2 0.232307 0.28206 0.166378
339 4 0.236906 0.293454 0.188155
401 4 0.239295 0.290354 0.208838
11 1 0.326849 0.268024 0.214023
12 3 0.321737 0.286634 0.226541
15 3 0.336639 0.252428 0.227423
14 3 0.341441 0.27417 0.197061
612 4 0.352625 0.292811 0.19497
610 2 0.355214 0.315962 0.204054
1774 2 0.00677166 0.359347 0.179196
1775 4 0.011904 0.383691 0.181681
2618 4 0.0190186 0.400912 0.187794
703 2 0.0927162 0.342472 0.175062
705 4 0.113916 0.355497 0.177532
734 4 0.139273 0.39919 0.215311
735 4 0.126254 0.356294 0.193149
733 2 0.132763 0.377742 0.20423
611 4 0.357803 0.339113 0.213139
1455 4 0.334103 0.403071 0.238375
309 4 0.338001 0.393201 0.221578
307 2 0.35172 0.372401 0.223652
308 4 0.365439 0.3516 0.225726
2617 2 0.0276181 0.41965 0.20194
2619 4 0.0362177 0.438388 0.216085
2528 4 0.0452868 0.45299 0.206126
2527 2 0.0635414 0.47007 0.206579
2529 4 0.0817959 0.487151 0.207032
313 2 0.996349 0.488878 0.203225
406 2 0.0786374 0.423497 0.246933
2694 4 0.993996 0.447015 0.242964
1767 4 0.15201 0.41236 0.209553
1790 4 0.128815 0.467027 0.173695
1765 2 0.143687 0.431145 0.195304
1766 4 0.135365 0.449931 0.181055
1789 2 0.135517 0.491086 0.172496
407 4 0.0646245 0.417551 0.227098
286 2 0.312409 0.455862 0.165711
288 4 0.32108 0.475404 0.178675
608 4 0.32414 0.469183 0.197551
607 2 0.338779 0.462526 0.216696
609 4 0.353418 0.455868 0.235842
2757 4 0.00445388 0.046525 0.282704
675 4 0.0685658 0.0488511 0.296673
673 2 0.0863427 0.0345276 0.286475
285 4 0.121381 0.030594 0.274614
674 4 0.10412 0.020204 0.276277
283 2 0.145821 0.0319066 0.269502
1403 4 0.184159 0.0189371 0.258828
284 4 0.170261 0.0332191 0.264389
1402 2 0.202314 0.00565431 0.269742
1426 2 0.375458 0.0238296 0.266147
1428 4 0.363987 0.0242582 0.28836
258 4 0.380649 0.0296276 0.294775
256 2 0.388533 0.0229562 0.317546
2664 4 0.47758 0.0200291 0.266468
2662 2 0.493066 0.0389954 0.271533
511 2 0.0616454 0.085332 0.288571
512 4 0.0408718 0.0788156 0.276275
16 1 0.00777779 0.105461 0.27824
19 3 0.992095 0.101853 0.261524
693 4 0.0837515 0.0768498 0.31397
513 4 0.082419 0.0918483 0.300866
18 3 0.0264674 0.0922114 0.274561
20 3 0.013783 0.127425 0.278651
364 2 0.0209964 0.151871 0.306892
366 4 0.0258027 0.130788 0.294338
404 4 0.382987 0.113729 0.255741
403 2 0.36762 0.132601 0.261474
633 4 0.403517 0.113321 0.260053
405 4 0.352252 0.151472 0.267208
631 2 0.422339 0.128376 0.253401
365 4 0.0161902 0.172953 0.319447
2613 4 0.0160026 0.177891 0.339029
618 4 0.0414615 0.193159 0.264497
2463 4 0.037747 0.192728 0.285174
2461 2 0.0238493 0.209193 0.29786
2462 4 0.00995153 0.225657 0.310547
487 2 0.232319 0.238065 0.284407
677 4 0.256833 0.227293 0.319157
488 4 0.241504 0.229467 0.306015
676 2 0.2634 0.247435 0.332438
640 2 0.354815 0.192061 0.250353
641 4 0.359982 0.168941 0.258348
761 4 0.405124 0.23912 0.250379
310 2 0.368771 0.245629 0.245997
760 2 0.425858 0.225165 0.249643
762 4 0.446593 0.21121 0.248907
681 4 0.007698 0.333012 0.322853
489 4 0.223134 0.246663 0.262799
344 4 0.237339 0.316891 0.27107
388 2 0.206606 0.326175 0.322158
3 3 0.281963 0.281217 0.337246
311 4 0.391613 0.254935 0.250096
334 2 0.437782 0.323162 0.330194
336 4 0.432323 0.299336 0.324935
679 2 0.0313346 0.331252 0.330815
680 4 0.0549712 0.329492 0.338776
415 2 0.137 0.397131 0.278259
416 4 0.14392 0.373126 0.279298
291 4 0.139709 0.358038 0.291858
289 2 0.163282 0.349712 0.291445
390 4 0.199426 0.328574 0.298328
290 4 0.186855 0.341386 0.291033
343 2 0.234624 0.340918 0.264702
345 4 0.231908 0.364944 0.258335
277 2 0.233096 0.404985 0.251909
279 4 0.240745 0.38118 0.251895
414 4 0.279344 0.392437 0.327646
436 2 0.282501 0.352873 0.324067
438 4 0.284544 0.376488 0.316108
437 4 0.280458 0.329258 0.332025
1453 2 0.335322 0.410331 0.26227
1454 4 0.336541 0.417591 0.286166
667 2 0.365863 0.385973 0.300528
668 4 0.383319 0.36902 0.306278
669 4 0.348408 0.402926 0.294779
120 3 0.3936 0.360863 0.322004
335 4 0.443242 0.346989 0.335454
118 3 0.428522 0.360799 0.336079
2297 4 0.084472 0.490327 0.329282
408 4 0.0926504 0.429444 0.266769
417 4 0.130079 0.421135 0.27722
1756 2 0.127322 0.454094 0.299874
1757 4 0.124779 0.440716 0.278904
1758 4 0.129864 0.467473 0.320843
767 4 0.197791 0.470185 0.261645
768 4 0.202608 0.459746 0.310313
766 2 0.200199 0.464966 0.285979
278 4 0.225447 0.42879 0.251923
603 4 0.264003 0.431284 0.286527
602 4 0.299128 0.466085 0.279051
601 2 0.281565 0.448685 0.282789
230 4 0.314407 0.474212 0.289181
229 2 0.330666 0.470312 0.27059
231 4 0.346924 0.466411 0.251998
753 4 0.37931 0.45106 0.325636
751 2 0.393092 0.431049 0.331537
691 2 0.10355 0.0844243 0.327231
2238 4 0.127674 0.0187493 0.403799
692 4 0.123348 0.0919988 0.340491
899 4 0.224181 0.00589346 0.348646
898 2 0.23876 0.0142257 0.367172
2430 4 0.26535 0.00625653 0.38695
900 4 0.253339 0.0225579 0.385698
474 4 0.296533 0.0827375 0.369623
683 4 0.278789 0.0845532 0.378931
257 4 0.396417 0.0162847 0.340317
1031 4 0.393596 0.0296345 0.355779
1030 2 0.393832 0.0133334 0.374737
318 4 0.0732643 0.118227 0.407232
316 2 0.0498518 0.116795 0.398573
1377 4 0.0087382 0.113399 0.400372
317 4 0.0264392 0.115363 0.389913
399 4 0.0807043 0.133793 0.397413
732 4 0.145373 0.120728 0.384245
730 2 0.163656 0.128267 0.368944
398 4 0.128378 0.118938 0.394722
397 2 0.104541 0.126366 0.396068
1407 4 0.234055 0.0989729 0.342171
731 4 0.181938 0.135805 0.353644
1406 4 0.200918 0.133119 0.357557
1405 2 0.217487 0.116046 0.349864
684 4 0.247073 0.0838753 0.340274
340 2 0.233765 0.104684 0.413389
473 4 0.333599 0.0925191 0.401734
342 4 0.244664 0.126185 0.420029
472 2 0.315066 0.0876283 0.385679
682 2 0.262931 0.0842143 0.359603
716 4 0.493289 0.102087 0.409745
267 4 0.408022 0.176822 0.395871
266 4 0.441645 0.186652 0.360184
265 2 0.424834 0.181737 0.378027
1219 2 0.10924 0.332017 0.379141
1221 4 0.121049 0.316816 0.395099
383 4 0.122253 0.30455 0.410863
446 4 0.231364 0.336643 0.349051
389 4 0.213786 0.323776 0.345988
678 4 0.269967 0.267576 0.345719
4 3 0.312063 0.297848 0.353426
2 3 0.280151 0.31706 0.348411
1 1 0.288906 0.296377 0.353382
5 3 0.281497 0.289829 0.373897
615 4 0.286338 0.306906 0.383983
613 2 0.280454 0.300625 0.407459
435 4 0.359927 0.321226 0.406451
650 4 0.35689 0.301214 0.408509
1381 2 0.0782206 0.379509 0.386604
1382 4 0.0645221 0.396552 0.39873
327 4 0.0753162 0.395198 0.416434
1383 4 0.0919191 0.362465 0.374477
1220 4 0.0974315 0.347218 0.363183
445 2 0.238631 0.349808 0.369027
447 4 0.245899 0.362973 0.389004
1435 2 0.312064 0.420569 0.392544
1437 4 0.324532 0.408068 0.410248
930 4 0.24979 0.359518 0.40716
585 4 0.335314 0.394764 0.416761
433 2 0.363624 0.326656 0.382325
434 4 0.367321 0.332086 0.3582
926 4 0.391189 0.378361 0.374237
925 2 0.40148 0.399415 0.382955
119 3 0.398878 0.369118 0.358359
116 1 0.407617 0.37083 0.336932
752 4 0.406873 0.411039 0.337439
927 4 0.411771 0.420469 0.391673
117 3 0.409824 0.393088 0.331558
2538 4 0.489367 0.40824 0.330305
2925 4 0.473728 0.41909 0.339925
2296 2 0.0625863 0.493904 0.340832
2298 4 0.0407006 0.497481 0.352382
2630 4 0.0256887 0.485439 0.348564
2629 2 0.0153111 0.462691 0.348649
504 4 0.106215 0.48411 0.363978
503 4 0.104145 0.436385 0.378767
502 2 0.10518 0.460247 0.371372
1821 4 0.196544 0.423591 0.361993
1862 4 0.216504 0.452186 0.322847
1861 2 0.24007 0.460399 0.324389
1820 4 0.233905 0.445887 0.386645
1819 2 0.215224 0.434739 0.374319
1556 4 0.249313 0.437254 0.395866
1555 2 0.265889 0.443655 0.413456
1863 4 0.263636 0.468612 0.325931
412 2 0.282923 0.410668 0.34438
1436 4 0.299596 0.433071 0.37484
1585 2 0.320334 0.49228 0.375319
413 4 0.286501 0.428899 0.361113
109 3 0.393852 0.495006 0.36872
1802 4 0.405376 0.496543 0.353344
1586 4 0.343503 0.483662 0.379073
1801 2 0.421563 0.477722 0.356328
1803 4 0.437751 0.4589 0.359312
2923 2 0.456284 0.429623 0.354415
2924 4 0.438841 0.440156 0.368905
1773 4 0.116348 0.0305014 0.414655
1771 2 0.115861 0.0377557 0.438578
687 4 0.131864 0.0461873 0.473233
1772 4 0.115373 0.0450101 0.462501
685 2 0.127945 0.0318589 0.493346
319 2 0.206893 0.00817211 0.451155
1780 2 0.230583 0.04788 0.413794
1781 4 0.222721 0.0262855 0.423645
320 4 0.202545 0.0231181 0.470723
1782 4 0.238444 0.0694746 0.403942
1152 4 0.204734 0.0172071 0.490128
1150 2 0.22262 0.0312206 0.500564
1034 4 0.0620871 0.164696 0.453309
1033 2 0.0501422 0.14273 0.453237
1035 4 0.0381974 0.120764 0.453165
341 4 0.222866 0.0831825 0.406749
588 4 0.244841 0.143877 0.429875
715 2 0.499854 0.108929 0.432881
586 2 0.24647 0.168284 0.424696
587 4 0.2481 0.192691 0.419517
431 4 0.259218 0.207657 0.414269
430 2 0.250682 0.226831 0.427859
382 2 0.121075 0.289216 0.430578
510 4 0.12346 0.256808 0.457081
384 4 0.119898 0.273882 0.450292
508 2 0.137697 0.25515 0.477569
709 2 0.133568 0.325893 0.503073
509 4 0.151934 0.253493 0.498057
432 4 0.242146 0.246004 0.44145
576 4 0.230009 0.260949 0.449324
574 2 0.244494 0.280936 0.445337
614 4 0.27457 0.294344 0.430935
575 4 0.258978 0.300923 0.44135
811 2 0.338175 0.273241 0.48235
813 4 0.322831 0.264678 0.500139
812 4 0.353519 0.281803 0.464561
651 4 0.337913 0.288583 0.453018
466 2 0.398944 0.247659 0.490386
649 2 0.347401 0.294898 0.430764
467 4 0.421043 0.259147 0.488186
378 4 0.430272 0.276771 0.483343
325 2 0.0591244 0.409663 0.428834
710 4 0.123494 0.333074 0.481344
929 4 0.244832 0.351465 0.456265
928 2 0.247311 0.355491 0.431712
3309 4 0.385663 0.37309 0.436404
583 2 0.356773 0.381945 0.417369
3307 2 0.405837 0.37659 0.450755
584 4 0.378231 0.369125 0.417978
1742 4 0.428643 0.415641 0.400689
3308 4 0.42601 0.38009 0.465107
2457 4 0.43027 0.36651 0.479527
326 4 0.0429325 0.424128 0.441234
2153 4 0.289587 0.496251 0.460606
2154 4 0.287258 0.447449 0.449946
2152 2 0.288422 0.47185 0.455276
1557 4 0.282466 0.450056 0.431047
1472 4 0.43842 0.476806 0.424076
1471 2 0.417649 0.490713 0.423487
1743 4 0.435163 0.464657 0.408143
1741 2 0.431903 0.440149 0.404416
458 4 0.0478499 0.999386 0.559116
457 2 0.0498396 0.0194558 0.544337
459 4 0.0518293 0.0395257 0.529558
1127 4 0.0488351 0.0588945 0.535078
3044 4 0.067687 0.999613 0.563892
1126 2 0.0336905 0.0680663 0.517423
686 4 0.124027 0.0175305 0.513459
1601 4 0.119902 0.0279708 0.530781
1600 2 0.120402 0.0493211 0.543785
1602 4 0.120901 0.0706714 0.556789
1284 4 0.116708 0.0863256 0.5442
1151 4 0.240505 0.0452341 0.511
893 4 0.245347 0.0635058 0.518788
892 2 0.261459 0.0770021 0.532331
1164 4 0.292143 0.0945339 0.559427
1162 2 0.308384 0.0852313 0.576006
1128 4 0.0185459 0.077238 0.499768
1200 4 0.0407908 0.121056 0.508381
1198 2 0.0517372 0.142367 0.515536
1155 4 0.028779 0.156289 0.56348
1153 2 0.0412163 0.144013 0.581362
1199 4 0.0626835 0.163678 0.522692
1282 2 0.106188 0.101331 0.56121
1283 4 0.0956683 0.116337 0.57822
894 4 0.277572 0.0904984 0.545874
605 4 0.347561 0.138807 0.564576
3274 2 0.0648111 0.200105 0.534849
3276 4 0.0766886 0.222076 0.536029
3275 4 0.0529337 0.178135 0.533669
852 4 0.0766194 0.223531 0.55697
569 4 0.162425 0.233216 0.54172
696 4 0.158839 0.240128 0.560296
568 2 0.174351 0.233066 0.519745
694 2 0.17433 0.253591 0.574576
570 4 0.186278 0.232916 0.49777
604 2 0.345447 0.163378 0.560458
3158 4 0.348948 0.202723 0.543911
606 4 0.343333 0.18795 0.556341
3157 2 0.355039 0.215747 0.523455
3159 4 0.361129 0.22877 0.502998
468 4 0.376845 0.236171 0.492586
48 3 0.487889 0.199688 0.569095
953 4 0.502062 0.209107 0.513842
952 2 0.503723 0.201008 0.537439
954 4 0.505384 0.19291 0.561037
259 2 0.024674 0.279913 0.548001
261 4 0.0450893 0.293954 0.551357
260 4 0.0042587 0.265873 0.544645
3108 4 0.0622469 0.30159 0.509507
3106 2 0.0735642 0.32245 0.517378
850 2 0.0878784 0.244318 0.565114
851 4 0.0991374 0.265105 0.573257
711 4 0.143641 0.318713 0.524803
3107 4 0.0848814 0.34331 0.525249
1189 2 0.153747 0.325648 0.574258
1190 4 0.174495 0.325719 0.588211
239 4 0.245139 0.302209 0.522288
238 2 0.249558 0.290415 0.543888
240 4 0.253977 0.27862 0.565487
774 4 0.255426 0.317451 0.518617
276 4 0.294365 0.283364 0.575071
635 4 0.295035 0.273421 0.558495
634 2 0.30143 0.269744 0.534604
636 4 0.307824 0.266067 0.510714
377 4 0.458828 0.287477 0.522974
376 2 0.44455 0.282124 0.503158
373 2 0.113684 0.38924 0.589519
1191 4 0.132999 0.325578 0.560305
375 4 0.0964404 0.396289 0.572841
1446 4 0.104401 0.399157 0.554877
791 4 0.276077 0.376936 0.514438
790 2 0.279175 0.401622 0.516926
772 2 0.269751 0.33787 0.516871
773 4 0.284075 0.358289 0.515125
807 4 0.445609 0.372151 0.543742
805 2 0.439155 0.359376 0.564244
2456 4 0.434181 0.362557 0.529224
2455 2 0.432226 0.364533 0.504376
2171 4 0.097886 0.452818 0.534457
2170 2 0.0969832 0.472826 0.549425
1444 2 0.101984 0.417528 0.538089
1445 4 0.0995669 0.435898 0.5213
2172 4 0.0960804 0.492833 0.564394
880 2 0.224956 0.490579 0.556564
882 4 0.235122 0.471411 0.568991
792 4 0.282272 0.426308 0.519413
1239 4 0.247993 0.457376 0.565349
1237 2 0.264583 0.443702 0.552583
1238 4 0.281174 0.430028 0.539818
2353 2 0.494986 0.474031 0.520784
2354 4 0.484277 0.486121 0.539872
911 4 0.149907 0.068787 0.630714
910 2 0.151509 0.0526793 0.611658
912 4 0.153112 0.0365717 0.592601
919 2 0.172342 0.00056594 0.58829
921 4 0.159503 0.018117 0.600632
2131 2 0.227522 0.083209 0.627988
2132 4 0.243723 0.0688619 0.640512
2049 4 0.179534 0.080927 0.672619
1004 4 0.262804 0.0685515 0.646234
797 4 0.340641 0.0687821 0.585783
796 2 0.355102 0.0793407 0.603235
43 3 0.361699 0.0647634 0.647825
950 4 0.387182 0.0369428 0.66486
41 1 0.379111 0.0727715 0.660905
1154 4 0.0536535 0.131737 0.599245
2376 4 0.0582234 0.115543 0.610414
2374 2 0.0821444 0.109657 0.614694
2375 4 0.106065 0.103771 0.618974
1225 2 0.13154 0.106974 0.653148
1227 4 0.121496 0.0994516 0.631521
824 4 0.207977 0.147666 0.583029
2133 4 0.211321 0.0975561 0.615464
823 2 0.206483 0.131715 0.602226
825 4 0.20499 0.115764 0.621423
1163 4 0.324625 0.0759287 0.592586
937 2 0.302039 0.171335 0.65949
938 4 0.293319 0.151903 0.672587
798 4 0.369564 0.0898992 0.620686
44 3 0.389569 0.0904949 0.650185
3270 4 0.387811 0.0859981 0.631453
3268 2 0.408885 0.0908956 0.618919
3437 4 0.495601 0.0935415 0.623664
4580 4 0.485289 0.0804543 0.611498
4467 4 0.457472 0.136994 0.64508
3269 4 0.429959 0.0957932 0.606386
4581 4 0.440859 0.0887396 0.590096
4579 2 0.463074 0.084597 0.600797
4465 2 0.463956 0.157367 0.632116
1244 4 0.140146 0.224969 0.641232
1243 2 0.120751 0.234988 0.629039
1245 4 0.101357 0.245007 0.616846
1130 4 0.1448 0.207535 0.63265
1131 4 0.186953 0.182566 0.642666
1129 2 0.165876 0.19505 0.637658
939 4 0.310759 0.190767 0.646393
275 4 0.299169 0.243565 0.604964
858 4 0.250594 0.235766 0.651216
856 2 0.269876 0.233853 0.635413
857 4 0.289158 0.231939 0.619611
4466 4 0.47044 0.17774 0.619152
49 3 0.481948 0.183813 0.603111
3372 4 0.499339 0.262968 0.665582
50 3 0.497097 0.218189 0.600568
46 1 0.495896 0.197662 0.590778
3037 2 0.0213514 0.268816 0.603719
3039 4 0.0394355 0.27492 0.587567
3038 4 0.00326742 0.262712 0.619871
695 4 0.189822 0.267055 0.588856
1209 4 0.221122 0.297348 0.632531
879 4 0.23383 0.305591 0.619776
1207 2 0.218524 0.291944 0.656805
877 2 0.243569 0.327212 0.611848
274 2 0.296767 0.263465 0.590017
1193 4 0.422157 0.291457 0.590022
1192 2 0.422897 0.289673 0.614951
1024 2 0.464299 0.270446 0.64723
1194 4 0.423638 0.287889 0.63988
1025 4 0.442609 0.28235 0.643619
984 4 0.0263128 0.368603 0.642222
983 4 0.0753852 0.359122 0.640572
982 2 0.050849 0.363862 0.641397
1040 4 0.00796484 0.410792 0.601676
1039 2 0.988367 0.395265 0.601731
374 4 0.130928 0.382191 0.606196
897 4 0.0936553 0.369484 0.637128
895 2 0.11564 0.373155 0.648459
896 4 0.137624 0.376826 0.659789
1135 2 0.242161 0.386906 0.620111
1137 4 0.243205 0.364295 0.609488
1136 4 0.241117 0.409517 0.630733
936 4 0.227396 0.424141 0.634372
878 4 0.253307 0.348833 0.603919
663 4 0.395387 0.355178 0.633238
4485 4 0.399719 0.360509 0.652391
661 2 0.414644 0.349109 0.618489
2140 2 0.40283 0.416556 0.588354
806 4 0.432701 0.346601 0.584746
2142 4 0.417611 0.398518 0.597374
662 4 0.433901 0.343041 0.60374
8 3 0.0172662 0.427429 0.592803
7 3 0.0482559 0.421017 0.61308
10 3 0.04826 0.448119 0.587422
6 1 0.0355946 0.43736 0.602993
2139 4 0.0141563 0.464097 0.610346
9 3 0.0284811 0.452393 0.619174
2699 4 0.0946077 0.48037 0.580133
2700 4 0.102624 0.482817 0.629433
2698 2 0.098616 0.481593 0.604783
934 2 0.242313 0.43706 0.649727
935 4 0.25723 0.449978 0.665082
1712 4 0.258083 0.487654 0.619899
1269 4 0.340212 0.486322 0.643949
1001 4 0.275491 0.476581 0.62488
1711 2 0.252816 0.511081 0.612926
1000 2 0.283341 0.473675 0.648441
2141 4 0.388049 0.434594 0.579335
1910 4 0.33967 0.470902 0.655504
1909 2 0.363526 0.46452 0.65942
1911 4 0.387382 0.458138 0.663336
3024 4 0.447831 0.463319 0.629998
3022 2 0.455863 0.476787 0.649472
3023 4 0.463894 0.490256 0.668947
1106 4 0.130272 0.0445823 0.660514
1105 2 0.124918 0.0289468 0.679277
1107 4 0.119564 0.0133113 0.69804
1202 4 0.114153 0.0136291 0.717879
2047 2 0.192808 0.0616963 0.681517
2231 4 0.209007 0.0324091 0.708387
2048 4 0.206081 0.0424656 0.690415
2230 2 0.211231 0.00763306 0.705861
1003 2 0.265289 0.0746864 0.670346
949 2 0.377388 0.0140467 0.667097
45 3 0.394142 0.056128 0.66487
1226 4 0.141584 0.114497 0.674774
1005 4 0.267774 0.0808212 0.694457
1143 4 0.252827 0.0940252 0.696231
1141 2 0.253584 0.118182 0.70264
1142 4 0.254342 0.142338 0.70905
1212 4 0.272497 0.147245 0.713488
42 3 0.370565 0.0801917 0.680931
2991 4 0.0108171 0.220571 0.672401
2989 2 0.0204486 0.241988 0.680988
977 4 0.18475 0.160913 0.712531
976 2 0.207277 0.167121 0.721428
978 4 0.229804 0.17333 0.730326
1210 2 0.285681 0.16847 0.714413
1211 4 0.298865 0.189695 0.715338
909 4 0.304018 0.191261 0.735644
907 2 0.316568 0.205389 0.752016
3363 4 0.50738 0.168165 0.743165
2990 4 0.0300802 0.263405 0.689575
1260 4 0.0421639 0.265726 0.704537
1258 2 0.0502237 0.267661 0.728126
1259 4 0.0582835 0.269596 0.751716
2357 4 0.0646999 0.290074 0.750922
2447 4 0.14176 0.273591 0.677087
2446 2 0.132818 0.286959 0.696232
2448 4 0.123875 0.300327 0.715376
1208 4 0.215925 0.28654 0.681079
946 2 0.227877 0.268281 0.716623
948 4 0.21517 0.272411 0.69549
947 4 0.240585 0.264151 0.737757
2988 4 0.414495 0.307655 0.732878
1097 4 0.36557 0.346058 0.730344
2987 4 0.4536 0.32602 0.707694
2986 2 0.434047 0.316837 0.720286
1064 4 0.469938 0.31551 0.710148
1063 2 0.491052 0.315889 0.69676
3420 4 0.0451717 0.337176 0.756677
538 2 0.0868301 0.411957 0.716585
540 4 0.110359 0.403842 0.714197
2015 4 0.127861 0.398294 0.705759
1160 4 0.203379 0.398906 0.716635
1159 2 0.18964 0.387715 0.734275
1187 4 0.197472 0.402861 0.697894
1140 4 0.317341 0.425295 0.698473
1953 4 0.303818 0.411507 0.692537
1098 4 0.381891 0.376261 0.693983
4483 2 0.406734 0.377287 0.669551
1096 2 0.37373 0.36116 0.712163
1250 4 0.409597 0.41305 0.69272
1020 4 0.425329 0.356567 0.749375
4484 4 0.413748 0.394066 0.686711
539 4 0.0633009 0.420072 0.718972
4482 4 0.0648581 0.43973 0.7165
4480 2 0.0669975 0.4645 0.719158
4481 4 0.069137 0.48927 0.721817
2014 2 0.14335 0.417617 0.709206
2016 4 0.15884 0.43694 0.712653
2213 4 0.16171 0.453781 0.723214
1186 2 0.200353 0.427378 0.693917
2212 2 0.171875 0.454806 0.746035
1188 4 0.203233 0.451894 0.68994
890 4 0.242627 0.478677 0.716341
889 2 0.256988 0.477041 0.695939
1952 4 0.26234 0.434519 0.6767
1951 2 0.283079 0.423013 0.684619
1002 4 0.291191 0.470769 0.672002
891 4 0.271349 0.475404 0.675536
1138 2 0.333241 0.428173 0.717554
1139 4 0.349142 0.431052 0.736634
1251 4 0.396987 0.459951 0.680804
1249 2 0.403292 0.4365 0.686762
1292 4 0.359097 0.420709 0.751981
2114 4 0.109882 0.00510555 0.824112
2113 2 0.104773 0.02336 0.807807
2115 4 0.0996632 0.0416144 0.791502
945 4 0.115928 0.0523919 0.792377
943 2 0.115783 0.0764453 0.785551
1084 2 0.259971 0.0310613 0.777925
974 4 0.282401 0.0639267 0.779169
973 2 0.291704 0.0715816 0.801079
1086 4 0.264798 0.0553641 0.78128
1085 4 0.255145 0.00675852 0.77457
981 4 0.313467 0.0641466 0.826257
975 4 0.301007 0.0792364 0.822989
1145 4 0.388505 0.0783721 0.774565
1144 2 0.412395 0.0719985 0.770843
2197 2 0.414209 0.0346987 0.837392
2263 2 0.466092 0.046989 0.759794
2265 4 0.485848 0.0351773 0.769559
2198 4 0.407878 0.0212593 0.817281
2264 4 0.446336 0.0588007 0.750028
1146 4 0.436284 0.0656249 0.767122
1083 4 0.058419 0.124715 0.75526
1295 4 0.049509 0.14253 0.751856
1081 2 0.0819816 0.120277 0.762351
1294 2 0.0411256 0.160324 0.767292
1082 4 0.105544 0.115839 0.769443
944 4 0.115639 0.100499 0.778726
828 4 0.277425 0.144136 0.828923
826 2 0.298857 0.151041 0.818054
827 4 0.32029 0.157945 0.807184
840 4 0.263294 0.158062 0.836355
3362 4 0.481848 0.17581 0.785479
3296 4 0.018751 0.185385 0.79729
1296 4 0.0327421 0.178118 0.782728
1055 4 0.0486513 0.233892 0.819142
1054 2 0.0621532 0.213644 0.824876