ITEM: TIMESTEP
1480000
ITEM: NUMBER OF ATOMS
4590
ITEM: BOX BOUNDS pp pp pp
-9.9985700000000008e+00 9.9985700000000008e+00
-9.9985700000000008e+00 9.9985700000000008e+00
-9.9985700000000008e+00 9.9985700000000008e+00
ITEM: ATOMS id type xs ys zs
1677 4 0.0148059 0.023932 0.0669614
1675 2 0.0397228 0.0221799 0.0680838
1676 4 0.0646396 0.0204278 0.0692063
1667 4 0.079504 0.0144898 0.0575738
656 4 0.0085353 0.0350761 0.0523263
1666 2 0.0914282 0.00580139 0.0373871
2423 4 0.119326 0.00845273 0.0156779
1668 4 0.103352 0.997113 0.0172004
994 2 0.196076 0.0821065 0.00276254
995 4 0.190025 0.0761216 0.0262731
1475 4 0.254044 0.995618 0.0218527
492 4 0.309813 0.0730581 0.0205693
490 2 0.291451 0.0759814 0.0372866
1474 2 0.26661 0.999893 0.000663156
758 4 0.465589 0.0567137 0.0280144
1827 4 0.481656 0.059732 0.0159887
757 2 0.44618 0.0536477 0.0125526
1109 4 0.467612 0.032317 0.0778729
700 2 0.00821924 0.149773 0.0801903
3234 4 0.0799705 0.0968259 0.00421097
3232 2 0.0916058 0.118002 0.0106439
3233 4 0.103241 0.139178 0.0170769
1037 4 0.120509 0.146816 0.0229777
1036 2 0.13655 0.164122 0.014709
236 4 0.18662 0.0828513 0.0452277
235 2 0.178913 0.0931159 0.0666848
2162 4 0.235535 0.130687 0.0290682
55 3 0.215778 0.124591 0.0279504
51 1 0.209666 0.141034 0.0134272
54 3 0.186654 0.143955 0.0140053
53 3 0.220313 0.160882 0.0190026
360 4 0.236385 0.151972 0.0291606
1023 4 0.328054 0.0826021 0.0162905
2161 2 0.250488 0.114481 0.0408554
2163 4 0.265442 0.0982751 0.0526427
491 4 0.273089 0.0789047 0.0540039
566 4 0.290569 0.148163 0.0829068
986 4 0.428259 0.126456 0.0319322
985 2 0.450961 0.118713 0.0389925
987 4 0.473663 0.11097 0.0460528
3299 4 0.489145 0.121599 0.0371829
296 4 0.48327 0.165028 0.0862048
741 4 0.237524 0.245078 0.0367054
358 2 0.253456 0.168112 0.0377208
359 4 0.270527 0.184252 0.046281
354 4 0.341994 0.219717 0.0264084
352 2 0.336201 0.221361 0.0506759
353 4 0.330408 0.223005 0.0749435
357 4 0.345929 0.221451 0.0869341
324 4 0.46057 0.231019 0.0600731
557 4 0.478466 0.224232 0.0575026
322 2 0.462084 0.249892 0.0437429
556 2 0.483928 0.204076 0.071254
553 2 0.0675923 0.270114 0.0432523
554 4 0.0575082 0.26602 0.0207418
836 4 0.0853101 0.320713 0.00497395
555 4 0.0776764 0.274208 0.0657629
2835 4 0.0700115 0.265537 0.0829725
739 2 0.2277 0.262387 0.0518413
740 4 0.217876 0.279695 0.0669772
385 2 0.284227 0.292514 0.074163
483 4 0.30583 0.310803 0.0424269
387 4 0.288966 0.302767 0.051856
481 2 0.311751 0.304732 0.0189053
323 4 0.463599 0.268766 0.0274127
3336 4 0.49015 0.33119 0.0427661
3335 4 0.470186 0.286125 0.0343209
3334 2 0.480168 0.308658 0.0385435
3213 4 0.499525 0.330752 0.0249218
454 2 0.0755169 0.355617 0.0312558
1103 4 0.0611016 0.393783 0.0376239
455 4 0.0717246 0.3776 0.0425505
456 4 0.0793091 0.333635 0.0199611
1102 2 0.0632125 0.408355 0.0174154
1777 2 0.147631 0.395151 0.0614367
1223 4 0.141346 0.392605 0.0217176
1779 4 0.153937 0.393062 0.0373318
1778 4 0.141324 0.397239 0.0855417
781 2 0.298065 0.38956 0.00893388
783 4 0.318247 0.374998 0.0113462
782 4 0.277884 0.404122 0.00652153
1046 4 0.370666 0.356471 0.0562156
659 4 0.388789 0.34816 0.059971
1045 2 0.366524 0.359287 0.0317188
1047 4 0.362383 0.362104 0.00722192
1304 4 0.369743 0.380142 0.00162724
637 2 0.152333 0.48901 0.0556851
639 4 0.133266 0.476921 0.0449376
1438 2 0.113713 0.49571 0.0140372
1440 4 0.127345 0.493832 0.0349138
638 4 0.171399 0.501099 0.0664325
2566 2 0.378669 0.467991 0.0421606
2568 4 0.3596 0.481414 0.0511823
2567 4 0.397738 0.454569 0.0331388
2288 4 0.339639 0.480196 0.0560236
227 4 0.443954 0.500003 2.80009e-05
20 3 0.022947 0.0622723 0.154496
249 4 0.193229 0.0489054 0.141598
247 2 0.195127 0.0731159 0.135646
690 4 0.193647 0.0430098 0.160655
571 2 0.351466 0.0681485 0.14642
572 4 0.357292 0.0800505 0.125216
1108 2 0.478538 0.0521037 0.0885636
1110 4 0.489464 0.0718903 0.0992543
16 1 0.0267867 0.0807628 0.167225
380 4 0.0306173 0.129118 0.102785
379 2 0.037177 0.11996 0.125108
381 4 0.0437367 0.110803 0.14743
701 4 0.0214995 0.148205 0.101317
17 3 0.0432324 0.0934683 0.157363
19 3 0.00742639 0.0934566 0.16879
372 4 0.105995 0.148206 0.126397
422 4 0.119002 0.133731 0.123684
421 2 0.137755 0.123562 0.110642
423 4 0.156508 0.113392 0.0976003
370 2 0.101905 0.139041 0.149298
237 4 0.171205 0.103381 0.0881419
248 4 0.197026 0.0973265 0.129694
567 4 0.328452 0.153642 0.115087
565 2 0.30951 0.150902 0.0989968
526 2 0.315465 0.137093 0.161735
527 4 0.322228 0.161149 0.160869
461 4 0.253828 0.0852563 0.165713
582 4 0.366663 0.0972074 0.124609
581 4 0.339831 0.137551 0.112235
580 2 0.353247 0.117379 0.118422
29 3 0.482553 0.0888021 0.108322
26 1 0.490287 0.0937221 0.129638
28 3 0.472914 0.0921187 0.144934
295 2 0.486955 0.14832 0.104438
297 4 0.490639 0.131612 0.122672
27 3 0.498395 0.115249 0.129822
465 4 0.101681 0.19183 0.0974634
463 2 0.107099 0.206168 0.117217
464 4 0.112517 0.220507 0.136972
475 2 0.134372 0.234092 0.172811
476 4 0.120509 0.227891 0.152948
337 2 0.205804 0.231444 0.1516
338 4 0.214344 0.229699 0.128165
355 2 0.362993 0.236868 0.0967482
356 4 0.380057 0.252284 0.106562
558 4 0.48939 0.183921 0.0850054
765 4 0.431335 0.185966 0.150953
763 2 0.435237 0.210164 0.155894
2807 4 0.0787891 0.258228 0.13656
2834 4 0.073434 0.277034 0.13152
2833 2 0.0717228 0.271285 0.107246
299 4 0.115741 0.311702 0.133203
298 2 0.115707 0.328739 0.114902
291 4 0.152095 0.321917 0.15483
914 4 0.201693 0.276484 0.0795942
290 4 0.188993 0.288763 0.1485
915 4 0.222964 0.310236 0.109743
913 2 0.212329 0.29336 0.0946688
756 4 0.224288 0.327075 0.0982065
289 2 0.170544 0.30534 0.151665
386 4 0.279488 0.282262 0.09647
246 4 0.285087 0.295315 0.110662
244 2 0.296849 0.302644 0.131474
245 4 0.30861 0.309973 0.152286
254 4 0.367053 0.262573 0.119174
253 2 0.381638 0.268213 0.138685
255 4 0.396223 0.273853 0.158195
629 4 0.413646 0.284116 0.161027
737 4 0.0703817 0.406622 0.0903083
537 4 0.00709838 0.372335 0.121829
535 2 0.0230029 0.387112 0.134232
536 4 0.0389075 0.401889 0.146636
362 4 0.0817194 0.392545 0.097719
361 2 0.0945578 0.372845 0.0892189
363 4 0.107396 0.353144 0.0807188
300 4 0.115673 0.345776 0.0966009
416 4 0.160787 0.339103 0.150385
415 2 0.167536 0.360645 0.161135
1619 4 0.226045 0.407033 0.083229
754 2 0.228883 0.350384 0.106
755 4 0.233478 0.373693 0.113794
658 2 0.380325 0.346809 0.0834595
660 4 0.371861 0.345457 0.106948
520 2 0.37851 0.363128 0.14775
522 4 0.373321 0.354255 0.124957
521 4 0.383699 0.372001 0.170543
736 2 0.0685915 0.430317 0.0980863
738 4 0.0668013 0.454013 0.105864
648 4 0.0806528 0.486767 0.149413
646 2 0.0681739 0.478676 0.129314
647 4 0.055695 0.470585 0.109214
2618 4 0.0884595 0.47857 0.164801
524 4 0.147802 0.414884 0.0844909
523 2 0.154314 0.422337 0.107452
525 4 0.160825 0.42979 0.130414
1618 2 0.231827 0.424437 0.100224
1620 4 0.23761 0.441842 0.117218
507 4 0.257427 0.436557 0.112336
505 2 0.275658 0.452249 0.11916
506 4 0.29389 0.467941 0.125984
287 4 0.313323 0.462251 0.123329
286 2 0.329896 0.445906 0.132461
644 4 0.355465 0.475416 0.155758
288 4 0.346468 0.429562 0.141594
608 4 0.341365 0.416376 0.155722
1575 4 0.35066 0.484393 0.13788
2650 2 0.485277 0.486052 0.133305
495 4 0.467945 0.493277 0.097538
2652 4 0.471208 0.48075 0.113326
673 2 0.0595694 0.00348266 0.204541
590 4 0.0321948 0.0113959 0.18538
675 4 0.0356134 0.997695 0.200323
589 2 0.0128008 0.0032505 0.171863
18 3 0.033863 0.0744637 0.188406
512 4 0.0357578 0.067185 0.207065
511 2 0.0376148 0.0822904 0.226903
285 4 0.092772 0.00577871 0.225737
674 4 0.0835255 0.00927034 0.208759
283 2 0.102265 0.0168272 0.246059
688 2 0.213924 0.0379421 0.174379
689 4 0.234201 0.0328743 0.188103
1505 4 0.248494 0.027159 0.200561
1504 2 0.265403 0.0121216 0.211198
573 4 0.34564 0.0562465 0.167623
23 3 0.355386 0.0517944 0.184758
22 3 0.358339 0.0166717 0.171707
742 2 0.415896 0.0166609 0.184665
743 4 0.391291 0.0178518 0.180381
25 3 0.383754 0.0296236 0.195775
21 1 0.361712 0.0301108 0.190069
24 3 0.348807 0.0221744 0.207644
744 4 0.440501 0.0154699 0.188949
654 4 0.44347 0.0163127 0.209607
513 4 0.0394719 0.0973959 0.246741
578 4 0.10828 0.126376 0.190354
371 4 0.0978154 0.129877 0.172199
577 2 0.10548 0.130141 0.214914
579 4 0.102679 0.133906 0.239473
1699 2 0.153345 0.0963137 0.236756
2480 4 0.120988 0.130791 0.246027
1700 4 0.155333 0.0961715 0.211832
462 4 0.294785 0.112047 0.175986
460 2 0.274306 0.0986517 0.170849
624 4 0.319087 0.168199 0.178487
528 4 0.308703 0.113037 0.162601
2768 4 0.304119 0.139522 0.22609
2767 2 0.324084 0.127518 0.235172
333 4 0.361458 0.112794 0.23953
331 2 0.376957 0.111252 0.21997
332 4 0.392456 0.10971 0.20041
2769 4 0.344048 0.115514 0.244255
1761 4 0.408883 0.106391 0.189135
1760 4 0.452686 0.103197 0.165223
1759 2 0.430784 0.104794 0.177179
395 4 0.0648293 0.237406 0.241082
477 4 0.148235 0.240293 0.192675
339 4 0.197264 0.233188 0.175035
14 3 0.32355 0.228287 0.235
612 4 0.305973 0.2364 0.235387
622 2 0.336878 0.184269 0.185587
623 4 0.354668 0.20034 0.192688
12 3 0.349858 0.202257 0.241555
13 3 0.341408 0.211306 0.206067
11 1 0.343735 0.219523 0.227642
15 3 0.359836 0.235622 0.228132
312 4 0.375139 0.224899 0.2211
310 2 0.398544 0.233284 0.223757
764 4 0.439139 0.234361 0.160835
311 4 0.421949 0.241668 0.226414
630 4 0.444781 0.247822 0.175659
2806 2 0.0756422 0.261161 0.16119
394 2 0.0601193 0.249083 0.21948
396 4 0.0554092 0.26076 0.197878
2898 4 0.00307446 0.249972 0.223966
2808 4 0.0724954 0.264093 0.185821
401 4 0.156443 0.285914 0.198766
402 4 0.193481 0.29385 0.231415
400 2 0.174962 0.289882 0.215091
344 4 0.199054 0.29239 0.249783
610 2 0.308524 0.261223 0.236957
308 4 0.315757 0.320089 0.212607
307 2 0.336862 0.328896 0.222718
628 2 0.429214 0.265969 0.168343
1791 4 0.179715 0.401445 0.172463
417 4 0.174286 0.382188 0.171885
601 2 0.238121 0.396687 0.215016
603 4 0.22486 0.417758 0.217328
303 4 0.27143 0.375628 0.213205
301 2 0.293762 0.386815 0.212052
602 4 0.251381 0.375615 0.212705
302 4 0.316094 0.398001 0.210898
609 4 0.321734 0.415027 0.201695
309 4 0.357966 0.337703 0.232828
607 2 0.33155 0.415702 0.178708
498 4 0.390638 0.374134 0.189468
497 4 0.362958 0.356443 0.227171
496 2 0.376798 0.365288 0.208319
543 4 0.405995 0.386591 0.189829
542 4 0.450295 0.395366 0.211304
541 2 0.428145 0.390979 0.200566
619 2 0.0715501 0.42101 0.230248
1512 4 0.0256355 0.472869 0.185554
315 4 0.0102765 0.47774 0.197384
1510 2 0.0421058 0.484249 0.200535
621 4 0.0803987 0.425838 0.207366
2617 2 0.0835463 0.458118 0.17832
1511 4 0.0585761 0.495628 0.215515
1789 2 0.159909 0.416704 0.172168
2619 4 0.0786331 0.437666 0.191838
1765 2 0.150372 0.466922 0.192753
1790 4 0.140103 0.431962 0.171873
1766 4 0.150089 0.443074 0.185245
1767 4 0.150655 0.49077 0.200262
766 2 0.223647 0.456362 0.204868
767 4 0.220108 0.436677 0.219872
768 4 0.227186 0.476048 0.189863
728 4 0.229959 0.496868 0.187503
229 2 0.326704 0.472286 0.235182
231 4 0.336059 0.488261 0.218374
643 2 0.344861 0.481511 0.177566
645 4 0.334257 0.487607 0.199374
714 4 0.493655 0.482075 0.170217
723 4 0.127107 0.0364833 0.276168
284 4 0.111757 0.0278756 0.266382
721 2 0.137288 0.0593127 0.275588
722 4 0.147469 0.0821422 0.275009
1701 4 0.151357 0.0964559 0.26168
258 4 0.366198 0.0497757 0.324287
1428 4 0.372038 0.0690066 0.322698
1426 2 0.396535 0.069801 0.317755
256 2 0.353673 0.0305462 0.334213
1427 4 0.421032 0.0705954 0.312813
1517 4 0.434046 0.0617806 0.324119
693 4 0.0536965 0.110862 0.252902
692 4 0.0795491 0.100895 0.294531
691 2 0.0666228 0.105879 0.273717
2479 2 0.132313 0.134353 0.268033
410 4 0.142843 0.157994 0.292288
409 2 0.158407 0.162373 0.31136
2481 4 0.143639 0.137914 0.290038
642 4 0.248866 0.1287 0.324108
411 4 0.173971 0.166753 0.330433
640 2 0.2663 0.132716 0.306641
641 4 0.283734 0.136733 0.289175
405 4 0.301566 0.134285 0.298657
403 2 0.325071 0.142471 0.301042
633 4 0.361526 0.145435 0.289978
404 4 0.348575 0.150658 0.303426
631 2 0.381428 0.133119 0.298776
632 4 0.401331 0.120804 0.307575
707 4 0.41275 0.135739 0.30286
2643 4 0.485463 0.120608 0.306135
706 2 0.433781 0.131171 0.315588
708 4 0.454812 0.126602 0.328316
2463 4 0.0770585 0.241949 0.325798
618 4 0.0825568 0.238683 0.306886
616 2 0.0732254 0.254062 0.289521
489 4 0.169542 0.175095 0.346854
586 2 0.331479 0.229775 0.317408
587 4 0.336465 0.226137 0.293178
617 4 0.063894 0.269442 0.272155
545 4 0.0508224 0.282573 0.264626
544 2 0.0281254 0.291887 0.26945
546 4 0.00542848 0.301201 0.274274
343 2 0.21836 0.299975 0.263745
345 4 0.237666 0.307559 0.277707
388 2 0.195479 0.303796 0.317676
389 4 0.207453 0.282551 0.312157
678 4 0.205943 0.269153 0.326853
611 4 0.311075 0.286047 0.238527
279 4 0.253619 0.300499 0.287993
277 2 0.278382 0.302423 0.285116
278 4 0.303145 0.304347 0.282239
761 4 0.41554 0.290255 0.295214
269 4 0.425487 0.304717 0.285451
762 4 0.42377 0.254335 0.329019
760 2 0.419655 0.272295 0.312117
268 2 0.44654 0.318198 0.285012
270 4 0.467593 0.33168 0.284573
2924 4 0.480999 0.32743 0.299879
620 4 0.0627016 0.416182 0.25313
704 4 0.0585985 0.423286 0.270187
703 2 0.0786956 0.418412 0.284241
735 4 0.117878 0.408176 0.29672
733 2 0.141885 0.413205 0.291866
734 4 0.165891 0.418234 0.287013
414 4 0.262804 0.380252 0.324183
438 4 0.271253 0.361509 0.319256
667 2 0.326216 0.394194 0.334268
669 4 0.324311 0.41052 0.315426
753 4 0.383952 0.36792 0.287782
751 2 0.381754 0.392116 0.293689
752 4 0.379557 0.416312 0.299596
2923 2 0.493206 0.337743 0.319109
705 4 0.0987928 0.413537 0.298295
1863 4 0.177049 0.432146 0.295864
1861 2 0.180331 0.445218 0.316925
1454 4 0.317589 0.419943 0.297617
230 4 0.317349 0.456311 0.251989
1453 2 0.310281 0.431773 0.276837
1455 4 0.302974 0.443603 0.256056
1803 4 0.372465 0.435548 0.294098
1801 2 0.363624 0.458247 0.299737
1802 4 0.354782 0.480945 0.305377
109 3 0.345745 0.482684 0.321771
2861 4 0.450156 0.484609 0.260442
2860 2 0.458332 0.48534 0.28406
2862 4 0.466508 0.486072 0.307678
1800 4 0.0514927 0.0543356 0.422462
1375 2 0.0758321 0.0837916 0.392967
1376 4 0.0892086 0.0719154 0.410437
1772 4 0.105001 0.0352119 0.363222
1771 2 0.127287 0.0293125 0.372903
1773 4 0.149573 0.0234131 0.382584
2238 4 0.155521 0.0348438 0.397932
686 4 0.0798302 0.0226417 0.411451
2236 2 0.176744 0.046238 0.404634
2237 4 0.197968 0.0576322 0.411336
1407 4 0.198697 0.0661055 0.361197
1405 2 0.177222 0.0788153 0.359631
683 4 0.257109 0.0790764 0.381764
257 4 0.341147 0.0113166 0.344138
1031 4 0.400014 0.0384612 0.388098
1030 2 0.408255 0.0243799 0.407045
2837 4 0.487848 0.0689016 0.3541
1516 2 0.451646 0.0632841 0.341815
1518 4 0.469246 0.0647876 0.359512
317 4 0.00639247 0.113396 0.417222
1377 4 0.0624555 0.0956679 0.375497
2585 4 0.0319001 0.16402 0.418707
398 4 0.0882423 0.141069 0.351045
397 2 0.0924267 0.163647 0.341151
732 4 0.107877 0.131382 0.352215
731 4 0.144762 0.0990443 0.342495
730 2 0.12632 0.115213 0.347355
1406 4 0.155747 0.0915251 0.358064
684 4 0.209616 0.0819841 0.36638
682 2 0.233362 0.0805302 0.374072
474 4 0.2606 0.0961761 0.392856
472 2 0.271717 0.112701 0.407973
420 4 0.481449 0.119431 0.383734
418 2 0.476594 0.126402 0.360218
419 4 0.47174 0.133373 0.336702
2586 4 0.00397149 0.200847 0.399615
2461 2 0.0843216 0.220346 0.336081
2584 2 0.0179358 0.182434 0.409161
399 4 0.0966112 0.186226 0.331258
2462 4 0.0915847 0.198743 0.346364
487 2 0.176806 0.198112 0.353384
488 4 0.18407 0.221129 0.359913
383 4 0.214253 0.236652 0.405982
382 2 0.234411 0.244681 0.393557
1221 4 0.202342 0.219368 0.405402
677 4 0.193208 0.239596 0.365127
588 4 0.326493 0.233412 0.341638
614 4 0.358525 0.250293 0.402901
267 4 0.366165 0.237046 0.415483
265 2 0.388581 0.226154 0.417496
2909 4 0.477443 0.2255 0.384901
516 4 0.472631 0.245229 0.389776
676 2 0.199575 0.254375 0.34599
510 4 0.243338 0.268156 0.374401
390 4 0.183505 0.325041 0.323194
384 4 0.254568 0.25271 0.381132
508 2 0.257138 0.2879 0.367701
509 4 0.270939 0.307644 0.361
437 4 0.264943 0.322023 0.349284
615 4 0.360844 0.290429 0.373161
613 2 0.359685 0.270361 0.388031
4 3 0.391196 0.326235 0.376908
1 1 0.369736 0.326042 0.38573
3 3 0.356719 0.310418 0.374556
435 4 0.399675 0.314559 0.390721
5 3 0.370509 0.321055 0.407938
650 4 0.389484 0.318513 0.408806
433 2 0.421751 0.303786 0.386053
515 4 0.460694 0.28963 0.37011
514 2 0.466662 0.26743 0.379943
434 4 0.443826 0.293012 0.381386
412 2 0.249417 0.393264 0.340817
413 4 0.236031 0.406276 0.35745
436 2 0.268098 0.341766 0.33427
668 4 0.328122 0.377868 0.353109
445 2 0.337951 0.378939 0.401053
446 4 0.346016 0.362533 0.383995
2 3 0.36037 0.346869 0.382962
334 2 0.383501 0.370139 0.349309
336 4 0.361743 0.366576 0.337516
335 4 0.405259 0.373701 0.361102
118 3 0.422004 0.386404 0.36243
116 1 0.443945 0.388924 0.355312
120 3 0.457924 0.389516 0.373281
119 3 0.449794 0.371373 0.341306
926 4 0.446498 0.393586 0.389844
925 2 0.461407 0.392731 0.409899
117 3 0.445757 0.408667 0.343648
1757 4 0.194919 0.484602 0.396774
1862 4 0.183614 0.45829 0.337985
1756 2 0.184973 0.475828 0.375579
1758 4 0.175027 0.467053 0.354383
1436 4 0.238444 0.42577 0.361522
1435 2 0.249371 0.446454 0.370351
1586 4 0.31585 0.498691 0.359825
108 3 0.313971 0.488803 0.341707
1587 4 0.274267 0.481338 0.381515
1437 4 0.260298 0.467139 0.379179
1585 2 0.295058 0.490014 0.37067
106 1 0.331235 0.49886 0.329908
584 4 0.366441 0.442868 0.414676
1270 2 0.0129124 0.997325 0.465551
1271 4 0.0133851 0.0223124 0.464778
1799 4 0.0150172 0.0382282 0.452642
1798 2 0.033255 0.0462819 0.437552
427 2 0.0886526 0.0271613 0.494831
429 4 0.0910177 0.0317653 0.470369
687 4 0.103281 0.0335144 0.454259
685 2 0.0915557 0.028078 0.432855
1780 2 0.17372 0.0278774 0.465541
1781 4 0.171343 0.00609232 0.453502
1601 4 0.169352 0.0596284 0.492986
1782 4 0.176097 0.0496626 0.47758
1032 4 0.416496 0.0102986 0.425992
2662 2 0.486721 0.0104628 0.416637
2663 4 0.462741 0.0167213 0.413324
316 2 0.0248347 0.130216 0.415755
318 4 0.0432769 0.147036 0.414288
1057 2 0.21167 0.122825 0.474666
1058 4 0.229639 0.13885 0.467921
1059 4 0.1937 0.1068 0.481411
473 4 0.282833 0.129227 0.42309
342 4 0.28107 0.134926 0.442521
340 2 0.280409 0.154687 0.457826
466 2 0.372166 0.171422 0.473223
468 4 0.39023 0.163646 0.488663
716 4 0.481804 0.101794 0.432017
715 2 0.46831 0.119906 0.442744
717 4 0.454817 0.138017 0.453472
2845 2 0.0069474 0.220651 0.483081
2847 4 0.0276601 0.210175 0.473784
1220 4 0.173368 0.206699 0.444142
1219 2 0.187855 0.213033 0.424772
341 4 0.279749 0.174448 0.473131
1152 4 0.269448 0.191907 0.475691
432 4 0.312571 0.242905 0.496529
266 4 0.410997 0.215262 0.419508
467 4 0.354102 0.179198 0.457783
378 4 0.421246 0.215981 0.438264
376 2 0.445441 0.222281 0.437959
377 4 0.469636 0.228582 0.437653
2455 2 0.496416 0.245439 0.469525
2457 4 0.479285 0.240256 0.452065
3108 4 0.00621894 0.31027 0.462268
325 2 0.0422231 0.310555 0.480041
326 4 0.0242347 0.299844 0.466371
327 4 0.0602114 0.321266 0.493711
430 2 0.329184 0.251162 0.479765
431 4 0.345798 0.259418 0.463002
649 2 0.393372 0.3177 0.433492
651 4 0.39726 0.316886 0.458178
812 4 0.386836 0.302773 0.470385
811 2 0.382138 0.291814 0.492363
374 4 0.0761756 0.400453 0.453162
1381 2 0.0732868 0.362829 0.444802
1382 4 0.0651189 0.386457 0.444374
1383 4 0.0814547 0.339201 0.445231
261 4 0.101722 0.352466 0.479089
710 4 0.149409 0.3808 0.47415
504 4 0.159979 0.396896 0.470129
709 2 0.164751 0.361236 0.4715
711 4 0.180093 0.341671 0.468849
447 4 0.329885 0.395345 0.418111
930 4 0.290023 0.384162 0.50202
927 4 0.476315 0.391876 0.429954
679 2 0.00370808 0.435239 0.424175
407 4 0.0659819 0.483537 0.449117
406 2 0.0484677 0.465761 0.447557
373 2 0.0752003 0.417953 0.470994
408 4 0.0309535 0.447984 0.445997
680 4 0.0112676 0.44987 0.442989
502 2 0.146316 0.417675 0.467528
499 2 0.123308 0.47385 0.469167
375 4 0.074225 0.435453 0.488825
501 4 0.119113 0.493478 0.484077
503 4 0.132654 0.438453 0.464926
500 4 0.127503 0.454222 0.454256
1821 4 0.216549 0.427111 0.423095
1819 2 0.231421 0.445578 0.431029
1556 4 0.248744 0.484008 0.436913
1555 2 0.267703 0.499305 0.442546
1820 4 0.246294 0.464045 0.438962
1743 4 0.405034 0.502477 0.42869
585 4 0.378382 0.448448 0.462915
583 2 0.372411 0.445658 0.438795
1890 4 0.0809649 0.00896761 0.532736
1600 2 0.157266 0.0804222 0.499822
428 4 0.0862876 0.0225573 0.519293
2194 2 0.388723 0.0197785 0.568939
2195 4 0.386351 0.0444169 0.565403
604 2 0.431431 0.0782151 0.531829
1163 4 0.445194 0.0675461 0.559771
605 4 0.446629 0.0602817 0.540348
458 4 0.0158458 0.116049 0.586966
1200 4 0.999973 0.124025 0.578435
1035 4 0.00118242 0.15171 0.513064
1283 4 0.13036 0.155334 0.514872
1282 2 0.138453 0.13218 0.519729
1284 4 0.146545 0.109026 0.524586
1602 4 0.145181 0.101216 0.506658
825 4 0.177212 0.156228 0.569236
2133 4 0.242484 0.149761 0.556237
2131 2 0.25846 0.143725 0.574499
3157 2 0.400035 0.13106 0.516882
3159 4 0.395217 0.150978 0.502556
3158 4 0.404853 0.111142 0.531208
606 4 0.416232 0.0961485 0.52331
50 3 0.444462 0.153735 0.546149
49 3 0.453853 0.11784 0.552558
46 1 0.456855 0.139847 0.559272
48 3 0.479299 0.145566 0.557869
3200 4 0.496257 0.141932 0.56761
47 3 0.449997 0.141955 0.581128
3276 4 0.0234064 0.224936 0.589694
1151 4 0.249295 0.204593 0.519664
856 2 0.270374 0.200632 0.554697
857 4 0.254232 0.193137 0.537135
858 4 0.286517 0.208128 0.572259
574 2 0.314423 0.22162 0.527125
575 4 0.321279 0.219776 0.551099
275 4 0.32626 0.221026 0.570328
1150 2 0.259372 0.19825 0.497677
576 4 0.307567 0.223465 0.50315
274 2 0.342208 0.239862 0.574334
3007 2 0.45303 0.236472 0.576083
3008 4 0.455776 0.233102 0.55146
569 4 0.165157 0.322539 0.545135
694 2 0.155737 0.289079 0.563909
896 4 0.0842764 0.340068 0.542901
696 4 0.169801 0.303059 0.54868
635 4 0.359669 0.278763 0.576609
634 2 0.368465 0.284521 0.553922
813 4 0.37744 0.280855 0.51434
636 4 0.37726 0.290279 0.531236
897 4 0.0693299 0.370445 0.579705
260 4 0.0842266 0.335011 0.522563
259 2 0.0929744 0.343739 0.500826
895 2 0.0768032 0.355257 0.561303
568 2 0.147369 0.340093 0.545915
1191 4 0.135142 0.374854 0.554524
570 4 0.129581 0.357647 0.546695
1189 2 0.13786 0.394221 0.538944
1238 4 0.238475 0.413514 0.551084
792 4 0.238193 0.39513 0.546929
790 2 0.254965 0.380678 0.558549
929 4 0.334902 0.396747 0.520135
791 4 0.271736 0.366226 0.570169
928 2 0.312463 0.390454 0.511077
773 4 0.29201 0.365536 0.56938
772 2 0.313556 0.35463 0.575862
238 2 0.363236 0.410662 0.513971
239 4 0.339085 0.416261 0.517218
3308 4 0.418339 0.395075 0.571111
240 4 0.387387 0.405064 0.510723
3309 4 0.398583 0.409049 0.527349
3307 2 0.408461 0.402062 0.54923
774 4 0.335101 0.343723 0.582344
1445 4 0.0862601 0.480207 0.539716
1444 2 0.0796755 0.463499 0.522319
1446 4 0.0730908 0.44679 0.504923
1190 4 0.140579 0.413587 0.523364
1237 2 0.23091 0.43361 0.538274
1239 4 0.223345 0.453706 0.525464
1205 4 0.388769 0.496007 0.57863
1183 2 0.0471133 0.00963524 0.619227
2991 4 0.994478 0.0131132 0.641525
1185 4 0.0470668 0.0215237 0.597231
938 4 0.296772 0.0561917 0.644413
937 2 0.291094 0.0318773 0.64309
939 4 0.285417 0.00756289 0.641767
41 1 0.330871 0.0748088 0.656201
43 3 0.311881 0.0682829 0.644573
45 3 0.348455 0.0615316 0.650442
950 4 0.342206 0.0430409 0.651329
949 2 0.361286 0.0273935 0.655364
951 4 0.380366 0.011746 0.659399
1162 2 0.44776 0.0602548 0.583549
1164 4 0.450326 0.0529636 0.607328
4580 4 0.456084 0.0505304 0.62567
4579 2 0.440907 0.0616627 0.642129
4581 4 0.425731 0.0727949 0.658589
457 2 0.0360489 0.115326 0.601679
459 4 0.056252 0.114603 0.616393
1155 4 0.0744071 0.106049 0.619477
2376 4 0.147212 0.0991597 0.661145
1153 2 0.0976353 0.112997 0.625589
1154 4 0.120864 0.119945 0.6317
1226 4 0.164016 0.111 0.659418
1225 2 0.168068 0.129974 0.643646
1227 4 0.172121 0.148948 0.627875
824 4 0.166673 0.164944 0.617337
823 2 0.171943 0.160586 0.593286
2132 4 0.274436 0.137689 0.592761
796 2 0.301525 0.127956 0.622868
797 4 0.282447 0.139675 0.611738
798 4 0.320602 0.116238 0.633999
44 3 0.335817 0.0969835 0.651486
1004 4 0.339253 0.115499 0.643008
1003 2 0.359733 0.126439 0.652283
1005 4 0.380214 0.13738 0.661558
3268 2 0.412634 0.114273 0.658505
3270 4 0.39897 0.134931 0.655084
3269 4 0.426298 0.0936145 0.661925
852 4 0.0326392 0.242785 0.589668
3274 2 0.00627148 0.20684 0.591717
893 4 0.299518 0.199712 0.585746
908 4 0.273289 0.209953 0.643088
892 2 0.295046 0.200956 0.610315
894 4 0.290574 0.2022 0.634884
907 2 0.269744 0.213504 0.667583
3009 4 0.450283 0.239842 0.600706
842 4 0.482377 0.20263 0.650137
843 4 0.459482 0.225246 0.611861
841 2 0.470929 0.213938 0.630999
872 4 0.472351 0.186186 0.645117
871 2 0.482837 0.172824 0.663466
850 2 0.026237 0.262845 0.60315
851 4 0.0198348 0.282905 0.616633
3039 4 0.03457 0.277574 0.628183
3037 2 0.0473206 0.292489 0.64368
3038 4 0.0600712 0.307404 0.659177
984 4 0.0572436 0.327484 0.65575
695 4 0.141673 0.275099 0.579138
1244 4 0.124439 0.285579 0.581739
1259 4 0.110129 0.296139 0.640575
1243 2 0.11926 0.29725 0.603236
1258 2 0.123863 0.283409 0.657143
1245 4 0.11408 0.308921 0.624734
276 4 0.358156 0.258698 0.57834
1096 2 0.392983 0.292223 0.657536
1098 4 0.372256 0.302743 0.648321
1065 4 0.354086 0.311666 0.647784
1097 4 0.41371 0.281703 0.66675
1193 4 0.485305 0.320962 0.634462
1025 4 0.504969 0.31785 0.637054
1165 2 0.450449 0.274772 0.661327
1166 4 0.469789 0.272104 0.645706
10 3 0.0673127 0.400975 0.608637
982 2 0.0686387 0.344878 0.641867
983 4 0.0800339 0.362273 0.627983
7 3 0.0851199 0.381724 0.582081
8 3 0.0925997 0.374789 0.618256
6 1 0.0871149 0.391299 0.602902
9 3 0.10386 0.407347 0.602206
1230 4 0.282065 0.344763 0.64511
1228 2 0.302632 0.353542 0.656296
1063 2 0.360252 0.333367 0.637002
1064 4 0.366417 0.355068 0.62622
806 4 0.431179 0.407185 0.580505
805 2 0.446242 0.391929 0.593372
1192 2 0.480294 0.344188 0.626675
807 4 0.461304 0.376673 0.606239
1194 4 0.475283 0.367414 0.618889
1002 4 0.315884 0.433602 0.648292
891 4 0.302366 0.447888 0.644874
1000 2 0.338669 0.440185 0.640374
661 2 0.399231 0.45547 0.640926
662 4 0.379031 0.450763 0.626963
1001 4 0.361454 0.446767 0.632456
663 4 0.41943 0.460178 0.65489
1910 4 0.452692 0.497805 0.640026
1269 4 0.444152 0.502809 0.622416
1203 4 0.0624204 0.050608 0.713946
945 4 0.0657131 0.0709027 0.713921
1201 2 0.0749196 0.0299292 0.720375
943 2 0.046391 0.0751386 0.698628
944 4 0.0270688 0.0793746 0.683335
1202 4 0.0874189 0.00925036 0.726804
2375 4 0.130514 0.0730281 0.700376
910 2 0.20653 0.0174595 0.685024
912 4 0.223073 0.0344787 0.677157
921 4 0.228717 0.0501969 0.685248
919 2 0.225012 0.0654415 0.704717
920 4 0.221307 0.0806862 0.724186
1091 4 0.316067 0.0563421 0.685843
1092 4 0.308455 0.017806 0.71679
1090 2 0.312261 0.0370741 0.701317
1085 4 0.302401 0.032504 0.729974
42 3 0.326866 0.0727163 0.678756
1256 4 0.393829 0.00421143 0.673684
3297 4 0.0142942 0.106452 0.714023
3295 2 0.00942563 0.125591 0.729359
2374 2 0.138863 0.0860939 0.68076
1130 4 0.206509 0.14808 0.70138
1129 2 0.205889 0.135244 0.722828
1131 4 0.205268 0.122409 0.744277
3424 2 0.492753 0.134016 0.714322
873 4 0.493323 0.159462 0.681815
3425 4 0.483952 0.117262 0.730663
946 2 0.237864 0.237489 0.716035
948 4 0.22599 0.246761 0.73599
909 4 0.266199 0.217055 0.692078
947 4 0.249737 0.228217 0.696079
1211 4 0.330964 0.227797 0.721182
1142 4 0.406766 0.209648 0.728413
1260 4 0.137598 0.270679 0.673711
3419 4 0.0855204 0.317943 0.728938
3418 2 0.0948983 0.327914 0.749862
879 4 0.199544 0.32433 0.735635
1208 4 0.226175 0.265595 0.744176
877 2 0.183344 0.336155 0.720705
1210 2 0.319985 0.249901 0.717174
1029 4 0.326201 0.282033 0.712037
1027 2 0.331056 0.303161 0.724495
1212 4 0.309005 0.272004 0.713167
1028 4 0.335912 0.324289 0.736954
1167 4 0.431108 0.27744 0.676947
538 2 0.0359768 0.381444 0.726554
540 4 0.0503707 0.399643 0.73587
539 4 0.0215828 0.363245 0.717237
935 4 0.0660698 0.403393 0.723776
934 2 0.0878388 0.394149 0.715662
1136 4 0.106106 0.368909 0.697368
936 4 0.109608 0.384906 0.707547
1137 4 0.148636 0.342613 0.698068
1135 2 0.127371 0.355761 0.697718
2016 4 0.106681 0.40921 0.744714
878 4 0.167144 0.34798 0.705774
1159 2 0.207196 0.40919 0.752071
1229 4 0.3232 0.36232 0.667481
2988 4 0.348938 0.337711 0.732225
2986 2 0.356039 0.345593 0.754866
2142 4 0.373417 0.408028 0.680899
1020 4 0.473984 0.363918 0.721529
4483 2 0.455066 0.400738 0.729988
4485 4 0.461562 0.376643 0.731551
4484 4 0.448569 0.424832 0.728424
1018 2 0.491667 0.354138 0.736255
4175 4 0.999854 0.495694 0.741609
2105 4 0.0415531 0.507837 0.682596
2156 4 0.150566 0.479961 0.695678
2213 4 0.160808 0.479707 0.711829
1187 4 0.232849 0.422319 0.721638
1160 4 0.216972 0.411558 0.72918
1186 2 0.248436 0.4321 0.70471
1188 4 0.264023 0.441881 0.687783
889 2 0.291088 0.439187 0.665424
890 4 0.279811 0.430487 0.685974
1951 2 0.353083 0.485859 0.713744
2141 4 0.369071 0.453161 0.701992
1952 4 0.352346 0.464577 0.70064
2140 2 0.371244 0.430594 0.691445
1251 4 0.417171 0.450658 0.671898
4215 4 0.495168 0.434448 0.724719
1249 2 0.428764 0.442315 0.692421
1250 4 0.440356 0.433972 0.712944
3171 4 0.480067 0.432674 0.737749
1081 2 0.0550298 0.0805881 0.788866
1083 4 0.054593 0.0571753 0.797631
1084 2 0.293278 0.0249193 0.751984
973 2 0.276288 0.0444282 0.806037
1086 4 0.284155 0.0173347 0.773993
975 4 0.275685 0.03259 0.784022
974 4 0.27689 0.0562663 0.828052
2264 4 0.356074 0.0755594 0.780095
3357 4 0.412433 0.0168854 0.77527
2197 2 0.424995 0.049724 0.797951
2199 4 0.419216 0.0354603 0.778245
2198 4 0.430774 0.0639877 0.817657
1146 4 0.43948 0.0700135 0.836095
1082 4 0.0554666 0.104001 0.7801
1296 4 0.00573784 0.164421 0.748358
1106 4 0.142733 0.115471 0.765917
1105 2 0.164073 0.12119 0.754209
1107 4 0.185413 0.126909 0.742502
829 2 0.198765 0.147658 0.825037
831 4 0.202612 0.123026 0.826946
976 2 0.24515 0.117414 0.827337
2265 4 0.343483 0.0985656 0.822673
977 4 0.267682 0.107283 0.823481
827 4 0.26775 0.163574 0.822865
2263 2 0.349779 0.0870625 0.801384
887 4 0.140639 0.192974 0.782822
886 2 0.160777 0.18711 0.796433
3144 4 0.109601 0.2463 0.832465
830 4 0.194918 0.17229 0.823128
888 4 0.180915 0.181245 0.810043
1141 2 0.402841 0.203255 0.752265
1008 4 0.412158 0.188793 0.787595
1006 2 0.405736 0.200904 0.808506
1298 4 0.402974 0.233201 0.82888
1143 4 0.398916 0.196863 0.776117