ITEM: TIMESTEP
4060000
ITEM: NUMBER OF ATOMS
4590
ITEM: BOX BOUNDS pp pp pp
-9.9985700000000008e+00 9.9985700000000008e+00
-9.9985700000000008e+00 9.9985700000000008e+00
-9.9985700000000008e+00 9.9985700000000008e+00
ITEM: ATOMS id type xs ys zs
448 2 0.0500292 0.0542607 0.0624326
449 4 0.0610165 0.0721009 0.0487877
450 4 0.0390418 0.0364204 0.0760775
1634 4 0.0404255 0.028124 0.0946872
358 2 0.153611 0.0639099 0.0701261
360 4 0.159635 0.0871497 0.0631402
34 3 0.177015 0.0835726 0.052765
1759 2 0.377138 0.0725682 0.0410481
1760 4 0.399898 0.0801451 0.0480985
1761 4 0.354377 0.0649913 0.0339978
1109 4 0.451702 0.0520427 0.0597941
1022 4 0.453204 0.0368612 0.0475125
1108 2 0.435014 0.0675029 0.0494177
1110 4 0.418326 0.0829631 0.0390412
1021 2 0.453329 0.0118849 0.0486732
372 4 0.0705467 0.0845937 0.0363652
370 2 0.0658485 0.107272 0.045789
3233 4 0.0486077 0.139611 0.041461
371 4 0.0611503 0.12995 0.0552127
3232 2 0.0516859 0.164319 0.0437471
545 4 0.154023 0.106603 0.0667158
33 3 0.16242 0.118655 0.0535348
544 2 0.142409 0.122073 0.082558
32 3 0.169589 0.101772 0.0207292
31 1 0.176881 0.10433 0.0423958
995 4 0.177102 0.0838907 0.0161309
35 3 0.197906 0.11308 0.0422511
2162 4 0.217564 0.17557 0.00539262
1827 4 0.353477 0.140976 0.0182402
3234 4 0.0547642 0.189027 0.0460331
1170 4 0.0570971 0.205859 0.0361226
1168 2 0.0693424 0.211571 0.0150844
2161 2 0.242557 0.176253 0.00564601
324 4 0.32773 0.235426 0.998174
322 2 0.346341 0.218783 0.996826
246 4 0.374729 0.244654 0.0668598
339 4 0.388778 0.258395 0.0610264
1305 4 0.438978 0.222596 0.0623635
1303 2 0.439497 0.215454 0.0384072
1304 4 0.440016 0.208313 0.0144508
553 2 0.0269766 0.265419 0.0491565
554 4 0.0470267 0.275709 0.0383273
299 4 0.0674055 0.278933 0.0387906
2874 4 0.0216914 0.324031 0.00895814
2872 2 0.00902241 0.321056 0.0303082
555 4 0.00692652 0.255128 0.0599858
298 2 0.0892045 0.269879 0.0470377
300 4 0.111003 0.260825 0.0552847
294 4 0.118474 0.253963 0.0721366
292 2 0.140028 0.265983 0.0681191
293 4 0.161582 0.278003 0.0641015
1157 4 0.225165 0.324488 0.0137165
1290 4 0.285785 0.260492 0.0497117
1156 2 0.231815 0.318076 0.0369511
1158 4 0.238464 0.311663 0.0601856
1288 2 0.269179 0.278793 0.053522
1289 4 0.252574 0.297094 0.0573324
931 2 0.31826 0.32397 0.0658622
933 4 0.304789 0.320761 0.086681
932 4 0.331731 0.32718 0.0450433
337 2 0.399197 0.281051 0.0628428
2724 4 0.433076 0.278599 0.00646238
2722 2 0.444557 0.278221 0.0286712
2723 4 0.456038 0.277842 0.05088
2913 4 0.475081 0.283757 0.0548189
1046 4 0.428736 0.298966 0.0691486
338 4 0.409616 0.303708 0.0646591
3336 4 0.429997 0.263751 0.992897
3519 4 0.0569844 0.411834 0.0437608
648 4 0.0732754 0.403065 0.0513206
646 2 0.0801655 0.390715 0.0719407
942 4 0.124559 0.397483 0.0619674
637 2 0.239359 0.374939 0.0372027
639 4 0.224079 0.383505 0.0193609
1728 4 0.222386 0.39914 0.00642855
524 4 0.230808 0.33695 0.0772576
959 4 0.246376 0.338097 0.0902714
638 4 0.254638 0.366372 0.0550446
387 4 0.325105 0.405664 0.0720253
737 4 0.31056 0.393696 0.0751178
385 2 0.329152 0.420173 0.052068
736 2 0.290123 0.379547 0.0724171
738 4 0.269686 0.365397 0.0697164
969 4 0.330601 0.32904 0.0238433
967 2 0.347454 0.330728 0.00545035
672 4 0.489116 0.365068 0.0644944
670 2 0.473884 0.384839 0.0660002
671 4 0.458653 0.404611 0.0675061
3517 2 0.0588097 0.417443 0.019463
1627 2 0.0434684 0.46194 0.0638043
1628 4 0.0393612 0.448087 0.0433979
941 4 0.135249 0.438484 0.0354102
940 2 0.129904 0.417984 0.0486888
620 4 0.10905 0.490635 0.0549036
619 2 0.112515 0.502685 0.0765363
1726 2 0.219296 0.423155 0.0126677
1727 4 0.216207 0.447169 0.0189069
1779 4 0.326789 0.443135 0.0158166
243 4 0.304245 0.487942 0.987145
386 4 0.333199 0.434682 0.0321108
1633 2 0.0508861 0.0149263 0.113169
1635 4 0.0613467 0.00172873 0.131651
359 4 0.147587 0.0406702 0.077112
1566 4 0.158932 0.0243496 0.0820665
3510 4 0.158313 0.0231168 0.138085
3508 2 0.144476 0.0134126 0.156512
1564 2 0.166277 0.0194553 0.105461
1565 4 0.173621 0.0145611 0.128855
2768 4 0.21747 0.0388534 0.0974656
2767 2 0.221263 0.0549602 0.11621
237 4 0.225998 0.0822132 0.153915
2769 4 0.225055 0.071067 0.134955
235 2 0.22092 0.0667449 0.172892
765 4 0.44115 0.991114 0.104722
763 2 0.461069 0.0057291 0.108573
2682 4 0.490338 0.0366129 0.118265
1233 4 0.106946 0.143937 0.159362
1231 2 0.112343 0.138464 0.13557
546 4 0.130795 0.137543 0.0984002
1232 4 0.117739 0.13299 0.111777
54 3 0.232267 0.0857646 0.122421
52 3 0.233892 0.121845 0.132823
51 1 0.243192 0.101052 0.136035
53 3 0.240652 0.0950576 0.158306
55 3 0.265311 0.101818 0.130668
247 2 0.303116 0.122267 0.139024
248 4 0.281776 0.113005 0.129858
249 4 0.324455 0.131529 0.148191
405 4 0.389934 0.138203 0.167762
404 4 0.340811 0.134603 0.15912
403 2 0.365372 0.136403 0.163441
633 4 0.403015 0.122971 0.16648
759 4 0.444669 0.12353 0.130678
629 4 0.462886 0.124694 0.133491
757 2 0.446637 0.129307 0.106431
628 2 0.472903 0.120172 0.15595
758 4 0.448606 0.135084 0.0821838
616 2 0.217291 0.228814 0.153088
617 4 0.192881 0.233309 0.156109
618 4 0.241701 0.22432 0.150067
690 4 0.186309 0.250795 0.162891
666 4 0.246232 0.229619 0.132388
665 4 0.294828 0.227491 0.143991
664 2 0.27053 0.228555 0.13819
245 4 0.347741 0.23146 0.106838
244 2 0.361235 0.238057 0.086849
640 2 0.482321 0.243652 0.169528
2609 4 0.00799137 0.326899 0.142221
2608 2 0.0186062 0.335592 0.163124
2828 4 0.0066022 0.314995 0.127038
739 2 0.138596 0.310409 0.13229
741 4 0.140377 0.285765 0.128458
689 4 0.149279 0.268586 0.134378
688 2 0.167794 0.25969 0.148634
252 4 0.333226 0.244267 0.114777
960 4 0.291596 0.321249 0.103387
958 2 0.268986 0.329673 0.0968294
251 4 0.325631 0.262464 0.160732
250 2 0.329428 0.253365 0.137755
356 4 0.360139 0.291078 0.148769
1045 2 0.447085 0.300209 0.0860882
659 4 0.483955 0.308436 0.10572
1047 4 0.465434 0.301452 0.103028
658 2 0.501099 0.325853 0.10044
740 4 0.136816 0.335053 0.136121
363 4 0.135409 0.352059 0.124479
647 4 0.0870555 0.378366 0.0925608
1774 2 0.105303 0.419421 0.14899
362 4 0.100295 0.383188 0.107195
361 2 0.117852 0.367623 0.115837
1776 4 0.119507 0.405039 0.163706
704 4 0.142743 0.36658 0.156759
1103 4 0.160626 0.368111 0.14789
1102 2 0.174776 0.37354 0.128003
523 2 0.212049 0.348741 0.0888435
1104 4 0.188925 0.37897 0.108116
525 4 0.193289 0.360531 0.100429
288 4 0.235452 0.400806 0.125851
286 2 0.252748 0.383699 0.120074
287 4 0.270044 0.366593 0.114296
1620 4 0.342142 0.385299 0.146531
1618 2 0.320922 0.380506 0.158858
1629 4 0.0475756 0.475792 0.0842106
3847 2 0.0233614 0.490422 0.149458
1367 4 0.0610681 0.489605 0.0863951
2740 2 0.0624136 0.454184 0.129722
2741 4 0.0507041 0.475442 0.135735
3848 4 0.0412978 0.473412 0.153216
1775 4 0.0910983 0.433804 0.134274
2742 4 0.074123 0.432925 0.123709
506 4 0.171639 0.493329 0.136951
1559 4 0.177635 0.511855 0.141821
505 2 0.189015 0.475376 0.137941
507 4 0.20639 0.457424 0.138931
496 2 0.325961 0.488619 0.0971701
3347 4 0.390799 0.496495 0.0789353
560 4 0.401009 0.499629 0.0972112
497 4 0.335136 0.468036 0.108003
561 4 0.439564 0.471628 0.112382
559 2 0.420286 0.485628 0.104797
2651 4 0.455686 0.464632 0.121866
2650 2 0.473628 0.447326 0.11992
2652 4 0.49157 0.430021 0.117974
3809 4 0.0567599 0.0589185 0.169566
1462 2 0.0778194 0.0948473 0.230719
3509 4 0.130638 0.00370849 0.174938
1463 4 0.0952369 0.0769136 0.231158
1850 4 0.111245 0.0671431 0.241271
236 4 0.215841 0.0512765 0.191869
1731 4 0.44161 0.0285059 0.229505
1729 2 0.427789 0.00817179 0.234055
2664 4 0.429759 0.0434134 0.233805
2662 2 0.447204 0.061248 0.235477
2519 4 0.483178 0.0732347 0.243807
3808 2 0.0614732 0.0834572 0.168664
1464 4 0.0604019 0.112781 0.230279
380 4 0.0591936 0.123743 0.246483
3810 4 0.0661865 0.107996 0.167762
379 2 0.0714245 0.14508 0.250994
381 4 0.0836554 0.166416 0.255504
285 4 0.12037 0.0831968 0.187411
283 2 0.127257 0.101462 0.203035
284 4 0.134145 0.119728 0.218659
472 2 0.24978 0.161135 0.207429
474 4 0.268504 0.145496 0.201951
527 4 0.281381 0.133782 0.211848
526 2 0.304303 0.141091 0.218654
528 4 0.327226 0.1484 0.22546
624 4 0.339164 0.16094 0.215479
2663 4 0.464648 0.0790827 0.237149
631 2 0.420493 0.124381 0.184305
632 4 0.437972 0.125791 0.202129
311 4 0.44828 0.143344 0.200392
630 4 0.482919 0.11565 0.178409
580 2 0.491151 0.124596 0.213694
582 4 0.493324 0.14209 0.231427
310 2 0.449246 0.162191 0.216794
254 4 0.486705 0.160829 0.227185
473 4 0.231056 0.176774 0.212906
2462 4 0.213464 0.182852 0.219764
2461 2 0.199877 0.196903 0.235358
1435 2 0.336836 0.245239 0.197188
623 4 0.335739 0.210465 0.221498
1437 4 0.341933 0.227492 0.214048
622 2 0.337451 0.185702 0.218488
641 4 0.458696 0.241228 0.177347
312 4 0.450212 0.181038 0.233197
2838 4 0.476708 0.246871 0.261223
520 2 0.463643 0.239822 0.221501
522 4 0.461683 0.23912 0.196584
1436 4 0.33174 0.262986 0.180328
15 3 0.272948 0.321898 0.197751
13 3 0.277011 0.286108 0.208714
11 1 0.283312 0.308097 0.212609
14 3 0.277756 0.314207 0.234294
12 3 0.306096 0.30988 0.209987
357 4 0.386425 0.321032 0.178977
355 2 0.373282 0.306055 0.163873
303 4 0.40149 0.319674 0.192442
521 4 0.465603 0.240524 0.246418
2610 4 0.0292211 0.344284 0.184027
2750 4 0.0257783 0.333615 0.200569
391 2 0.0348786 0.410303 0.230876
393 4 0.0165296 0.39407 0.225877
2751 4 0.0262493 0.376349 0.226536
2749 2 0.0260138 0.354982 0.213552
703 2 0.146197 0.38418 0.17418
705 4 0.14965 0.40178 0.191601
735 4 0.166961 0.391968 0.195545
476 4 0.218601 0.361827 0.210637
733 2 0.175787 0.398503 0.218007
475 2 0.221589 0.35512 0.234538
734 4 0.184614 0.405038 0.24047
1619 4 0.299703 0.375714 0.171185
611 4 0.253118 0.409729 0.19347
612 4 0.293726 0.380817 0.189495
610 2 0.273422 0.395273 0.191482
301 2 0.394199 0.340296 0.204555
302 4 0.386908 0.360919 0.216669
308 4 0.378221 0.370599 0.231856
307 2 0.355111 0.37667 0.239221
714 4 0.500272 0.397396 0.177654
392 4 0.0532276 0.426536 0.235874
464 4 0.0697031 0.423399 0.223489
463 2 0.0841159 0.441046 0.233787
2527 2 0.0901663 0.495867 0.239954
465 4 0.0985287 0.458693 0.244085
914 4 0.169116 0.416515 0.248045
1310 4 0.277122 0.504143 0.218414
1311 4 0.270344 0.455056 0.211688
1309 2 0.273733 0.479599 0.215051
609 4 0.399587 0.492468 0.22502
270 4 0.415788 0.427688 0.21811
268 2 0.426311 0.414579 0.23662
493 2 0.487088 0.429412 0.178439
494 4 0.466869 0.443926 0.18083
1849 2 0.134002 0.0588522 0.24748
1851 4 0.156759 0.0505614 0.253688
1796 4 0.173337 0.0531188 0.264718
1797 4 0.218761 0.0397065 0.280765
1795 2 0.196049 0.0464127 0.272742
691 2 0.355871 0.0545188 0.310649
693 4 0.359733 0.0301505 0.314704
692 4 0.352008 0.0788871 0.306593
653 4 0.36403 0.0118201 0.307226
1032 4 0.497052 0.0336186 0.284809
1030 2 0.490587 0.0148601 0.300024
2518 2 0.496674 0.0591319 0.259431
1031 4 0.484121 0.996102 0.315239
1403 4 0.126225 0.12802 0.235419
1402 2 0.145866 0.124151 0.2504
1404 4 0.165508 0.120282 0.26538
683 4 0.180629 0.130383 0.27735
684 4 0.200361 0.0988169 0.310741
682 2 0.190495 0.1146 0.294045
732 4 0.205982 0.0833213 0.322894
1407 4 0.360388 0.0940408 0.297912
1405 2 0.371119 0.108471 0.315285
1406 4 0.381849 0.122901 0.332658
2513 4 0.103345 0.171844 0.25317
2512 2 0.124872 0.171885 0.265889
2514 4 0.146399 0.171927 0.278608
1758 4 0.149401 0.245778 0.292664
2463 4 0.186289 0.210953 0.250951
489 4 0.191199 0.206759 0.332406
409 2 0.186735 0.206386 0.293137
410 4 0.181637 0.215742 0.270517
411 4 0.191834 0.197029 0.315756
2836 2 0.482608 0.224152 0.269838
2837 4 0.488509 0.201433 0.278453
229 2 0.446371 0.235303 0.325435
230 4 0.471335 0.236654 0.325798
680 4 0.0281009 0.326717 0.300621
679 2 0.0511326 0.326235 0.310341
2718 4 0.0243327 0.307645 0.295284
681 4 0.0741643 0.325753 0.320062
1756 2 0.14805 0.262566 0.311145
1757 4 0.1467 0.279353 0.329626
5 3 0.212926 0.323882 0.331069
447 4 0.253686 0.327823 0.336126
117 3 0.313904 0.343192 0.32184
118 3 0.327794 0.322081 0.294019
116 1 0.332585 0.331991 0.314445
120 3 0.338286 0.316044 0.329671
514 2 0.50081 0.262219 0.3113
516 4 0.478806 0.250978 0.315131
913 2 0.163122 0.416302 0.272318
343 2 0.154822 0.374686 0.315689
915 4 0.157127 0.41609 0.296592
344 4 0.153418 0.397345 0.30521
345 4 0.156226 0.352028 0.326167
477 4 0.224577 0.348413 0.258439
402 4 0.202662 0.326456 0.314022
400 2 0.216991 0.333218 0.294679
401 4 0.231319 0.33998 0.275337
1454 4 0.334304 0.392175 0.264775
445 2 0.274889 0.337865 0.32748
446 4 0.296093 0.347907 0.318835
1453 2 0.320683 0.412284 0.270716
309 4 0.332001 0.382742 0.246586
119 3 0.349959 0.347175 0.312002
334 2 0.49291 0.371368 0.283587
336 4 0.474293 0.387323 0.288491
1583 4 0.468275 0.400519 0.301804
1582 2 0.452377 0.409507 0.284727
1584 4 0.436478 0.418495 0.26765
269 4 0.436834 0.401471 0.255129
437 4 0.427434 0.363025 0.334665
416 4 0.00638065 0.474397 0.33125
2528 4 0.0880289 0.473238 0.250373
1455 4 0.307061 0.432392 0.276657
752 4 0.310909 0.449354 0.266112
751 2 0.287321 0.457579 0.267183
753 4 0.263733 0.465804 0.268255
18 3 0.0229398 0.00589172 0.339736
20 3 0.00303931 0.00976215 0.371464
3236 4 0.99919 0.1692 0.350128
1152 4 0.213222 0.10441 0.382989
730 2 0.206514 0.0966201 0.344061
731 4 0.207047 0.109919 0.365228
1150 2 0.20866 0.107697 0.407352
898 2 0.355278 0.153342 0.347587
900 4 0.369958 0.137473 0.335024
3268 2 0.501262 0.138243 0.331171
3270 4 0.489038 0.15002 0.34953
2459 4 0.00781241 0.185457 0.358435
2458 2 0.0315283 0.190954 0.364138
2460 4 0.0552441 0.196451 0.369841
1220 4 0.0809715 0.230521 0.392531
291 4 0.0959142 0.22431 0.403264
586 2 0.219219 0.190807 0.398325
488 4 0.191238 0.174021 0.370207
587 4 0.19953 0.186399 0.383558
487 2 0.191218 0.19039 0.351307
615 4 0.239421 0.231696 0.373681
677 4 0.218843 0.231591 0.370028
899 4 0.340598 0.169212 0.36015
1478 4 0.331922 0.185724 0.353302
1479 4 0.290321 0.210493 0.365815
614 4 0.276092 0.20376 0.354301
1477 2 0.311121 0.198109 0.359559
613 2 0.257756 0.217728 0.363991
231 4 0.421406 0.233953 0.325073
2586 4 0.0688187 0.307782 0.327604
1219 2 0.0879241 0.248007 0.376067
2584 2 0.0847173 0.295672 0.34263
2585 4 0.100616 0.283563 0.357656
1221 4 0.0948766 0.265493 0.359602
1 1 0.222232 0.314735 0.349734
678 4 0.21268 0.274561 0.345203
3 3 0.222586 0.291608 0.347883
676 2 0.215762 0.253076 0.357616
4 3 0.210111 0.320994 0.368504
431 4 0.194582 0.330484 0.376648
2 3 0.243825 0.32235 0.351945
2455 2 0.318746 0.30358 0.359738
2456 4 0.30024 0.307315 0.376132
576 4 0.292488 0.321148 0.387391
2457 4 0.337252 0.299845 0.343344
3307 2 0.431126 0.261124 0.41089
3309 4 0.441563 0.283549 0.40723
1743 4 0.440995 0.303316 0.409943
1741 2 0.441461 0.312386 0.386647
1742 4 0.441926 0.321456 0.363351
1472 4 0.448427 0.334732 0.350763
549 4 0.0190941 0.397613 0.371359
413 4 0.130579 0.411345 0.389178
412 2 0.150346 0.401532 0.377424
414 4 0.170113 0.39172 0.36567
432 4 0.172766 0.371953 0.359182
430 2 0.183674 0.351218 0.367915
574 2 0.297062 0.335115 0.407619
438 4 0.38533 0.385121 0.350149
436 2 0.406382 0.374073 0.342407
1473 4 0.480415 0.373146 0.349406
1471 2 0.464421 0.353939 0.350085
110 3 0.475125 0.386963 0.360888
106 1 0.473609 0.404167 0.375732
1392 4 0.444943 0.404145 0.398788
108 3 0.494748 0.412582 0.380284
109 3 0.463607 0.396842 0.395346
417 4 0.0298611 0.47423 0.375402
415 2 0.0181209 0.474314 0.353326
1446 4 0.125449 0.427796 0.397618
1445 4 0.111364 0.475594 0.401824
1444 2 0.118406 0.451695 0.399721
668 4 0.400477 0.494848 0.349319
107 3 0.460739 0.420918 0.366628
2923 2 0.442969 0.491919 0.348162
2925 4 0.418667 0.488412 0.343441
316 2 0.0793045 0.0752979 0.449502
457 2 0.0265024 0.0467354 0.495245
428 4 0.0749637 0.0249185 0.440972
427 2 0.0924181 0.00701683 0.441203
894 4 0.152431 0.027379 0.425382
317 4 0.100811 0.0626029 0.450724
342 4 0.119571 0.0673899 0.444807
340 2 0.136305 0.0488117 0.444739
341 4 0.153039 0.0302335 0.444671
893 4 0.200316 0.0185807 0.413968
1059 4 0.208844 0.0223961 0.431603
892 2 0.176374 0.0229798 0.419675
1057 2 0.230835 0.0334691 0.427246
2048 4 0.191202 0.0576176 0.495643
1058 4 0.252826 0.0445422 0.42289
3759 4 0.40082 0.0570308 0.498339
3757 2 0.408393 0.0373239 0.484943
3758 4 0.415966 0.0176171 0.471546
4581 4 0.462079 0.00130996 0.494464
4579 2 0.473667 0.021046 0.484395
1035 4 0.000580877 0.11718 0.427635
398 4 0.0189675 0.112034 0.424888
318 4 0.0577982 0.0879928 0.448279
399 4 0.0537173 0.103812 0.459896
397 2 0.0363424 0.107923 0.442392
321 4 0.129811 0.139034 0.473873
382 2 0.134028 0.165947 0.440902
384 4 0.12975 0.146342 0.45582
319 2 0.114436 0.12214 0.48404
320 4 0.0990602 0.105246 0.494207
1782 4 0.197928 0.0941924 0.498948
1151 4 0.204098 0.110983 0.431715
1781 4 0.202535 0.109226 0.451478
1780 2 0.200231 0.101709 0.475213
1699 2 0.251831 0.158982 0.435062
911 4 0.268921 0.141687 0.459712
910 2 0.289594 0.129305 0.466383
1701 4 0.253745 0.137998 0.448523
912 4 0.310267 0.116924 0.473055
3548 4 0.402567 0.15138 0.440296
2236 2 0.395467 0.0924779 0.49995
3547 2 0.418601 0.170099 0.444499
2237 4 0.379462 0.111406 0.496675
383 4 0.138306 0.185551 0.425984
290 4 0.122634 0.183141 0.412852
289 2 0.109274 0.203725 0.408058
588 4 0.238908 0.195214 0.413093
1700 4 0.249917 0.179966 0.421602
1137 4 0.358 0.22187 0.502911
265 2 0.403596 0.225264 0.448276
266 4 0.391041 0.20846 0.461883
468 4 0.35017 0.206022 0.49329
267 4 0.416152 0.242067 0.434668
466 2 0.369248 0.191481 0.500348
873 4 0.49168 0.225569 0.448665
2832 4 0.488584 0.205553 0.447504
2830 2 0.468746 0.191358 0.452994
3549 4 0.434635 0.188818 0.448702
2831 4 0.448908 0.177163 0.458485
3308 4 0.42069 0.2387 0.41455
388 2 0.0743623 0.303297 0.467476
390 4 0.052198 0.314865 0.467794
1812 4 0.0477713 0.331486 0.45853
389 4 0.0965265 0.291728 0.467158
510 4 0.115327 0.288174 0.469525
508 2 0.128968 0.308805 0.473192
2298 4 0.0549247 0.384822 0.444718
1811 4 0.0421214 0.374935 0.434426
1810 2 0.0449464 0.35321 0.446478
2296 2 0.0758462 0.398436 0.443262
509 4 0.142609 0.329437 0.476859
570 4 0.14091 0.343291 0.488874
2297 4 0.0967677 0.41205 0.441805
852 4 0.113197 0.403653 0.448811
850 2 0.125179 0.414058 0.468133
568 2 0.156258 0.362261 0.483421
376 2 0.204931 0.391483 0.480654
378 4 0.220899 0.410396 0.477118
569 4 0.171607 0.381231 0.477968
377 4 0.188963 0.372571 0.48419
575 4 0.301637 0.349082 0.427847
240 4 0.299842 0.366095 0.438153
238 2 0.295558 0.383091 0.455984
239 4 0.291274 0.400088 0.473815
695 4 0.300424 0.412775 0.485086
1391 4 0.444299 0.417972 0.446841
3221 4 0.436159 0.410151 0.46348
3220 2 0.444751 0.392247 0.478672
1390 2 0.444621 0.411058 0.422815
2550 4 0.0818737 0.477288 0.464409
1820 4 0.104594 0.491869 0.414723
851 4 0.137161 0.424464 0.487455
1863 4 0.235903 0.498499 0.441278
2141 4 0.21758 0.49862 0.449297
583 2 0.236827 0.437197 0.482954
585 4 0.238888 0.460502 0.474135
584 4 0.234765 0.413891 0.491772
929 4 0.256092 0.466979 0.467803
928 2 0.271477 0.486649 0.469056
2537 4 0.505757 0.424238 0.439601
458 4 0.0472936 0.0465853 0.509134
1601 4 0.0584317 0.0554719 0.523116
1600 2 0.0730524 0.0735447 0.513908
99 3 0.244679 0.0455767 0.572013
97 3 0.246859 0.00983737 0.560585
96 1 0.247347 0.0317418 0.553577
98 3 0.230034 0.0351864 0.538517
2049 4 0.227974 0.053443 0.529276
2047 2 0.209588 0.0555303 0.512459
1180 2 0.289593 0.059251 0.523564
100 3 0.267343 0.0359586 0.543526
1181 4 0.27292 0.0556346 0.541843
939 4 0.34771 0.0203673 0.518897
1164 4 0.3572 0.00175846 0.521788
937 2 0.353018 0.0396301 0.533929
938 4 0.358327 0.0588929 0.54896
42 3 0.358957 0.0793528 0.546795
2238 4 0.411472 0.0735496 0.503225
2194 2 0.504707 0.0304894 0.583144
2196 4 0.50347 0.00792225 0.572449
347 4 0.00645252 0.100749 0.566337
1602 4 0.0876731 0.0916175 0.5047
2374 2 0.153012 0.162383 0.558973
2376 4 0.158641 0.138043 0.557951
1199 4 0.161702 0.131654 0.539872
1200 4 0.196299 0.105357 0.515129
1198 2 0.179 0.118506 0.5275
1182 4 0.306265 0.0628673 0.505285
44 3 0.332029 0.0906801 0.570442
43 3 0.357163 0.115595 0.556588
41 1 0.354099 0.0938231 0.564004
813 4 0.367437 0.132605 0.55121
811 2 0.377134 0.144866 0.531696
812 4 0.386832 0.157127 0.512182
2448 4 0.0464029 0.23623 0.545401
709 2 0.00312093 0.246123 0.536858
710 4 0.0269996 0.23935 0.539877
2375 4 0.147383 0.186724 0.559995
3275 4 0.141873 0.20448 0.554038
3274 2 0.118088 0.208079 0.560856
3276 4 0.0943031 0.211678 0.567675
634 2 0.303228 0.190366 0.571559
635 4 0.307819 0.180681 0.548969
467 4 0.388325 0.176941 0.507406
1135 2 0.349506 0.243444 0.51227
3640 2 0.466383 0.267578 0.582383
3642 4 0.479186 0.26078 0.56201
2446 2 0.0628993 0.254445 0.540788
2447 4 0.0793957 0.272659 0.536176
435 4 0.236127 0.302916 0.545331
433 2 0.24642 0.307074 0.522927
650 4 0.238355 0.282748 0.547132
649 2 0.232655 0.27641 0.570637
1212 4 0.315507 0.305875 0.560977
1210 2 0.306726 0.328721 0.566091
856 2 0.319005 0.276498 0.542607
857 4 0.320859 0.266643 0.519702
1136 4 0.341013 0.265018 0.521629
858 4 0.31715 0.286353 0.565511
434 4 0.256713 0.311232 0.500523
807 4 0.406548 0.303224 0.529659
805 2 0.424576 0.311562 0.544847
806 4 0.442603 0.319901 0.560035
503 4 0.0220512 0.372904 0.524747
1952 4 0.215511 0.403094 0.5929
696 4 0.331277 0.403179 0.523253
694 2 0.315851 0.407977 0.504169
2308 2 0.306238 0.415621 0.558735
2309 4 0.320416 0.405766 0.540651
1211 4 0.297945 0.351566 0.571205
948 4 0.278243 0.354838 0.572189
1332 4 0.45267 0.358233 0.505616
1330 2 0.457262 0.354361 0.529887
1331 4 0.461853 0.350489 0.554159
1250 4 0.509071 0.415829 0.523532
3222 4 0.453344 0.374343 0.493863
4433 4 0.993165 0.427711 0.570544
1191 4 0.147042 0.40551 0.55365
1383 4 0.148304 0.412747 0.570893
1189 2 0.134919 0.41966 0.536976
2157 4 0.107642 0.444689 0.523884
1190 4 0.122797 0.433809 0.520302
2155 2 0.0960756 0.466855 0.523618
2156 4 0.0845093 0.489021 0.523352
2385 4 0.0870232 0.509116 0.526222
1953 4 0.219664 0.432969 0.553013
1951 2 0.217588 0.418031 0.572957
2153 4 0.304402 0.438708 0.582372
2310 4 0.29206 0.425476 0.576819
1249 2 0.50806 0.43982 0.5305
2116 2 0.47206 0.486368 0.528226
2117 4 0.489333 0.468292 0.528574
921 4 0.167455 0.0511432 0.596297
919 2 0.176925 0.0712779 0.607703
2241 4 0.340045 0.00991555 0.665099
1245 4 0.286659 0.0101606 0.596918
45 3 0.367991 0.0895587 0.581538
1098 4 0.375155 0.0590091 0.633847
1096 2 0.364493 0.0702455 0.614219
796 2 0.481466 0.0806249 0.594043
797 4 0.49718 0.06532 0.582043
1284 4 0.100374 0.160029 0.595793
1282 2 0.115422 0.150615 0.613404
1283 4 0.13047 0.141202 0.631014
1130 4 0.136029 0.126126 0.642474
1129 2 0.148392 0.141849 0.657479
920 4 0.186394 0.0914127 0.619109
2132 4 0.206537 0.16601 0.651859
1203 4 0.301062 0.106588 0.641191
1201 2 0.287526 0.110751 0.661797
605 4 0.30691 0.113992 0.623697
604 2 0.321353 0.102601 0.606761
606 4 0.335796 0.0912106 0.589824
1097 4 0.353832 0.0814819 0.594591
3079 2 0.47068 0.128375 0.624937
3080 4 0.462395 0.14762 0.638582
3081 4 0.478965 0.109131 0.611292
798 4 0.465752 0.0959298 0.606044
1227 4 0.0899192 0.177062 0.601147
1225 2 0.0659598 0.170742 0.597803
1226 4 0.0420004 0.164422 0.594459
3116 4 0.0230875 0.162978 0.599953
3115 2 0.0123664 0.174135 0.619594
2131 2 0.217935 0.171458 0.630282
2133 4 0.229332 0.176906 0.608704
825 4 0.234192 0.196208 0.606177
636 4 0.298637 0.200052 0.594149
824 4 0.282553 0.208561 0.603131
823 2 0.258372 0.202384 0.604654
1065 4 0.416183 0.243651 0.638651
1063 2 0.433185 0.229028 0.627594
1064 4 0.450188 0.214405 0.616537
1193 4 0.468593 0.216075 0.612993
1192 2 0.488921 0.20871 0.62555
1208 4 0.134927 0.328681 0.636819
1207 2 0.154007 0.317094 0.625554
2991 4 0.123323 0.314943 0.647744
2989 2 0.111919 0.295204 0.658016
2990 4 0.100515 0.275466 0.668288
1209 4 0.173087 0.305508 0.61429
651 4 0.226956 0.270072 0.594143
3191 4 0.410546 0.256719 0.652715
2355 4 0.375695 0.298515 0.595858
3190 2 0.389276 0.266316 0.661696
2353 2 0.386626 0.310741 0.614732
2354 4 0.397557 0.322968 0.633606
1268 4 0.409814 0.338626 0.632632
3192 4 0.368005 0.275913 0.670676
3641 4 0.453579 0.274376 0.602755
1267 2 0.419331 0.331231 0.654539
1269 4 0.428849 0.323836 0.676446
896 4 0.0958928 0.34962 0.648207
895 2 0.116095 0.361383 0.657076
274 2 0.231584 0.355605 0.647395
275 4 0.216523 0.352017 0.667028
936 4 0.197661 0.354972 0.661589
276 4 0.246646 0.359193 0.627761
947 4 0.253362 0.370419 0.612671
946 2 0.265803 0.362628 0.59243
1911 4 0.405162 0.40945 0.636097
1381 2 0.156523 0.412656 0.594507
1382 4 0.164742 0.412565 0.618121
2172 4 0.165522 0.4323 0.621624
2171 4 0.203545 0.434629 0.654021
2170 2 0.184534 0.433465 0.637823
792 4 0.274345 0.490295 0.614459
2152 2 0.291429 0.455123 0.596063
2154 4 0.278455 0.471537 0.609754
4485 4 0.404691 0.417464 0.654941
1909 2 0.415934 0.423803 0.618686
1910 4 0.426706 0.438157 0.601276
1684 2 0.146832 0.0357425 0.702054
1685 4 0.133614 0.0177896 0.690734
1686 4 0.16005 0.0536954 0.713375
950 4 0.270756 0.0529694 0.713362
949 2 0.27278 0.0764583 0.705034
951 4 0.274804 0.0999471 0.696705
1145 4 0.402295 0.0641178 0.73112
1257 4 0.407785 0.0575147 0.749526
1144 2 0.418085 0.0833669 0.728816
1131 4 0.160755 0.157571 0.672484
1143 4 0.325809 0.0970495 0.747462
1202 4 0.27399 0.114914 0.682404
1003 2 0.311418 0.122055 0.719196
1005 4 0.311339 0.143604 0.706515
1004 4 0.311497 0.100506 0.731877
2976 4 0.41805 0.148023 0.749403
1026 4 0.481644 0.147487 0.674236
1146 4 0.433876 0.102616 0.726511
2264 4 0.449969 0.110552 0.716912
2263 2 0.473242 0.106505 0.725109
2265 4 0.496514 0.102458 0.733306
2793 4 0.495527 0.102691 0.752507
1024 2 0.459829 0.159452 0.671764
3252 4 0.497981 0.136251 0.671561
3374 4 0.0262096 0.25776 0.751367
3373 2 0.0497516 0.253072 0.744368
978 4 0.222769 0.187242 0.70432
1154 4 0.16455 0.16965 0.689012
1155 4 0.214361 0.173455 0.691259
1153 2 0.189456 0.171553 0.690135
976 2 0.241596 0.189653 0.720596
977 4 0.260422 0.192063 0.736873
980 4 0.413054 0.239699 0.727106
2974 2 0.436518 0.163974 0.743954
2988 4 0.427046 0.244081 0.740527
2975 4 0.454986 0.179924 0.738506
1025 4 0.438014 0.171417 0.669292
905 4 0.439474 0.229044 0.735324
904 2 0.463444 0.22452 0.729831
906 4 0.487413 0.219996 0.724337
1260 4 0.0793071 0.238389 0.720215
3375 4 0.0732935 0.248385 0.737369
1258 2 0.0888932 0.248327 0.69937
1259 4 0.0984793 0.258264 0.678525
879 4 0.189411 0.281222 0.725999
815 4 0.175272 0.281325 0.739621
877 2 0.211566 0.290296 0.718787
2014 2 0.246498 0.327496 0.742245
878 4 0.23372 0.29937 0.711574
2016 4 0.243339 0.306594 0.728891
3473 4 0.481655 0.253866 0.647049
979 2 0.421889 0.255265 0.709647
981 4 0.430725 0.27083 0.692187
3372 4 0.43053 0.31444 0.728731
3370 2 0.432837 0.310053 0.704223
3474 4 0.445172 0.266929 0.678657
3472 2 0.463413 0.260398 0.662853
3113 4 0.427396 0.310209 0.74808
3371 4 0.435143 0.305666 0.679716
935 4 0.154249 0.379665 0.659067
897 4 0.136298 0.373145 0.665946
2358 4 0.11214 0.399877 0.737534
2794 2 0.143516 0.38193 0.725094
2796 4 0.123843 0.384256 0.740351
2795 4 0.163188 0.379603 0.709838
2356 2 0.101045 0.418789 0.725516
934 2 0.175955 0.367319 0.660328
1230 4 0.237973 0.401292 0.724206
1228 2 0.239511 0.384288 0.742473
1229 4 0.241049 0.367284 0.76074
662 4 0.347163 0.368578 0.725203
661 2 0.355064 0.386944 0.710188
663 4 0.362966 0.405309 0.695173
1265 4 0.355785 0.364484 0.743728
4182 4 0.487352 0.38856 0.753309
4180 2 0.479696 0.405176 0.736266
3381 4 0.502198 0.374836 0.758457
1883 4 0.0293486 0.478785 0.677031
2357 4 0.0899506 0.437701 0.713497
3302 4 0.0720992 0.44795 0.713206
3301 2 0.0843656 0.464944 0.699571
3303 4 0.0966321 0.481938 0.685937
1989 4 0.251523 0.47533 0.712117
1987 2 0.231594 0.486439 0.70189
1988 4 0.211664 0.497548 0.691662
4483 2 0.387769 0.404492 0.668001
4484 4 0.370848 0.39152 0.681061
3024 4 0.498005 0.497474 0.71018
4181 4 0.47204 0.421793 0.719224
1140 4 0.472651 0.438306 0.733866
1138 2 0.484824 0.459388 0.728161
1074 4 0.0196625 0.0740002 0.744501
4508 4 0.0091665 0.0615622 0.755373
3579 4 0.0340604 0.0229006 0.818242
2113 2 0.151663 0.054964 0.804328
2114 4 0.164908 0.0339403 0.801544
2115 4 0.138418 0.0759877 0.807112
1082 4 0.203783 0.995595 0.793153
1081 2 0.193843 0.0176197 0.799579
1083 4 0.183903 0.0396444 0.806005
826 2 0.295931 0.023103 0.820791
827 4 0.313763 0.0186686 0.803834
828 4 0.278099 0.0275374 0.837748
90 3 0.329745 0.0167609 0.791197
87 3 0.333504 0.0531117 0.783621
1255 2 0.389473 0.0531403 0.765979
1256 4 0.371161 0.0487659 0.782433
88 3 0.363805 0.0308754 0.783558
86 1 0.343309 0.034888 0.793666
89 3 0.346356 0.0394836 0.816205
2062 2 0.43913 0.0199115 0.778284
2064 4 0.436898 0.0376138 0.760768
1072 2 0.040532 0.0868668 0.749409
1073 4 0.0614015 0.0997334 0.754318
1185 4 0.062807 0.108848 0.771181
1183 2 0.0831387 0.121707 0.777995
1184 4 0.10347 0.134567 0.784808
4520 4 0.110098 0.125303 0.800781
4519 2 0.124183 0.107469 0.811208
4521 4 0.138268 0.0896344 0.821635
1261 2 0.278372 0.120048 0.801122
1263 4 0.2715 0.143599 0.796294
975 4 0.289109 0.151117 0.791629
1262 4 0.285245 0.0964975 0.805951
1085 4 0.270691 0.0940138 0.820558
557 4 0.404922 0.138548 0.763267
1141 2 0.348063 0.0954915 0.758755
1142 4 0.370317 0.0939334 0.770047
1241 4 0.368602 0.103553 0.787947
1242 4 0.35985 0.121883 0.833644
1240 2 0.364226 0.112718 0.810795
556 2 0.419637 0.120334 0.772037
1008 4 0.397711 0.161054 0.828183
558 4 0.434352 0.102121 0.780807
2844 4 0.482414 0.111244 0.800868
2842 2 0.465981 0.122674 0.815852
2843 4 0.449549 0.134104 0.830836
2791 2 0.498047 0.102928 0.777382
1296 4 0.152791 0.254625 0.791919
1294 2 0.163003 0.243183 0.811668
1276 2 0.269574 0.224043 0.831262
1277 4 0.27848 0.208112 0.814172
974 4 0.294099 0.196174 0.81274
973 2 0.291604 0.173646 0.802185
2987 4 0.405317 0.221752 0.779642
2905 2 0.385582 0.229504 0.812857
2907 4 0.389038 0.227527 0.788172
2906 4 0.382125 0.231481 0.837541
2986 2 0.416181 0.232916 0.760085
3361 2 0.497993 0.254588 0.767048
989 4 0.0271002 0.308547 0.800152
988 2 0.0374657 0.327997 0.788344
1056 4 0.0325563 0.30606 0.819435
816 4 0.168816 0.264899 0.786411
814 2 0.172044 0.273112 0.763016
3337 2 0.208727 0.324004 0.7993
3339 4 0.21318 0.307272 0.817338
3112 2 0.423901 0.332669 0.758497
3363 4 0.488174 0.25113 0.744314
780 4 0.0163419 0.410505 0.785559
990 4 0.0478312 0.347448 0.776537
778 2 0.0177028 0.404151 0.809703