ITEM: TIMESTEP
4320000
ITEM: NUMBER OF ATOMS
4590
ITEM: BOX BOUNDS pp pp pp
-9.9985700000000008e+00 9.9985700000000008e+00
-9.9985700000000008e+00 9.9985700000000008e+00
-9.9985700000000008e+00 9.9985700000000008e+00
ITEM: ATOMS id type xs ys zs
449 4 0.0574746 0.06342 0.0625352
448 2 0.0652348 0.041343 0.0713423
372 4 0.0628847 0.0825676 0.0635457
450 4 0.072995 0.019266 0.0801494
70 3 0.0499228 0.000932541 0.0200254
1759 2 0.351649 0.0661334 0.0211865
1110 4 0.370762 0.0273572 0.0183635
1108 2 0.390417 0.0119758 0.0168597
1760 4 0.367398 0.0469234 0.0183363
3233 4 0.0640328 0.127753 0.025957
3232 2 0.0539192 0.150473 0.0285474
371 4 0.079074 0.122385 0.0379877
370 2 0.0709793 0.102476 0.0507667
994 2 0.164048 0.114461 0.0146737
995 4 0.163385 0.110488 0.0393508
32 3 0.165835 0.0992516 0.0560022
456 4 0.181826 0.158248 0.00121291
31 1 0.182017 0.100409 0.0723104
33 3 0.202392 0.105265 0.0623281
2162 4 0.32301 0.0896566 0.00991598
2161 2 0.298635 0.088067 0.0152558
4211 4 0.258777 0.0972067 0.0245081
2163 4 0.27426 0.0864774 0.0205957
4210 2 0.251988 0.117658 0.0118268
1761 4 0.3359 0.0853433 0.0240367
3234 4 0.0438055 0.173193 0.0311378
1170 4 0.039558 0.181167 0.0141019
1168 2 0.0254333 0.197086 0.00097669
1303 2 0.403634 0.203396 0.0183662
1305 4 0.395459 0.205146 0.041931
554 4 0.000342726 0.282557 0.0559494
299 4 0.0175501 0.290411 0.0636345
298 2 0.038284 0.286319 0.0769963
1094 4 0.194667 0.323957 0.0565317
1093 2 0.190998 0.322151 0.0318648
1095 4 0.187329 0.320346 0.0071979
1289 4 0.266595 0.286047 0.065078
1288 2 0.262157 0.264209 0.0764176
1156 2 0.269072 0.330231 0.0696072
1158 4 0.26498 0.305623 0.0679138
354 4 0.315112 0.298488 0.00225801
324 4 0.370703 0.263575 0.0179734
322 2 0.387862 0.269064 0.0353121
323 4 0.40502 0.274553 0.0526508
339 4 0.408991 0.26196 0.0672476
352 2 0.335742 0.284441 0.00375824
353 4 0.356372 0.270393 0.00525847
2913 4 0.459689 0.266161 0.0456198
2723 4 0.456381 0.263459 0.0260488
2911 2 0.482461 0.273642 0.0527376
2722 2 0.45775 0.266715 0.00129605
1627 2 0.0388619 0.405006 0.0794559
1628 4 0.0620106 0.397722 0.0734341
637 2 0.17511 0.404961 0.0148353
638 4 0.19344 0.401438 0.0314726
1157 4 0.273165 0.354839 0.0713006
931 2 0.332586 0.360123 0.064492
932 4 0.327418 0.356146 0.040354
738 4 0.264238 0.369284 0.0819175
670 2 0.413774 0.41327 0.02458
672 4 0.41382 0.388382 0.0269781
2288 4 0.488003 0.393106 0.0422972
2287 2 0.486082 0.37968 0.0212914
1367 4 0.00461198 0.418621 0.0696085
1366 2 0.00205869 0.442056 0.0612744
619 2 0.11265 0.495358 0.0547406
621 4 0.121191 0.472897 0.047831
506 4 0.183813 0.453276 0.05368
505 2 0.177531 0.444008 0.0760372
1727 4 0.228199 0.479741 0.00701031
1726 2 0.241438 0.466569 0.0236355
1728 4 0.254678 0.453398 0.0402607
1779 4 0.270189 0.440594 0.0359552
1777 2 0.288683 0.440198 0.0191324
1778 4 0.307176 0.439801 0.00230953
386 4 0.311951 0.469103 0.0825402
387 4 0.293805 0.422506 0.0821251
385 2 0.302878 0.445804 0.0823327
671 4 0.413727 0.438158 0.0221819
2012 4 0.394024 0.440031 0.0184185
2011 2 0.378672 0.453549 0.00403966
2789 4 0.491573 0.471774 0.0117691
2788 2 0.472466 0.484071 0.0222049
4008 4 0.496792 0.453553 0.0168049
2790 4 0.45336 0.496367 0.0326407
1635 4 0.0818285 0.0108794 0.148269
1633 2 0.0772199 0.0144672 0.123957
1634 4 0.0726114 0.018055 0.0996454
3261 4 0.00774857 0.00653488 0.102263
358 2 0.165131 0.0426875 0.089237
359 4 0.161394 0.0182455 0.0929524
35 3 0.183228 0.0803955 0.0831096
360 4 0.168868 0.0671295 0.0855216
3510 4 0.182718 0.0235796 0.152109
235 2 0.212118 0.0428552 0.148673
237 4 0.223159 0.0647346 0.153629
236 4 0.201077 0.0209757 0.143717
2769 4 0.249694 0.0523758 0.105021
2767 2 0.26192 0.0727373 0.112839
249 4 0.3319 0.0766236 0.138508
1730 4 0.412105 0.00170351 0.157891
3808 2 0.0269795 0.120983 0.145558
3809 4 0.0100216 0.104283 0.137896
1233 4 0.0580115 0.139711 0.140297
3810 4 0.0439374 0.137684 0.15322
3983 4 0.00372635 0.109792 0.119854
1231 2 0.0824107 0.137742 0.135199
1232 4 0.10681 0.135774 0.130101
544 2 0.140763 0.134888 0.104113
546 4 0.121979 0.142582 0.118713
545 4 0.159546 0.127194 0.0895123
34 3 0.176354 0.117174 0.0873197
54 3 0.266738 0.135965 0.147992
52 3 0.259413 0.106631 0.125666
665 4 0.250597 0.152385 0.122588
53 3 0.261714 0.141013 0.11066
2768 4 0.274146 0.0930987 0.120656
51 1 0.270273 0.126869 0.126941
55 3 0.292556 0.123654 0.123508
247 2 0.31218 0.0897409 0.130493
248 4 0.29246 0.102858 0.122479
527 4 0.2697 0.144383 0.167119
404 4 0.33749 0.0898917 0.152262
629 4 0.474822 0.146511 0.152129
759 4 0.482815 0.134774 0.137922
757 2 0.497238 0.122801 0.121375
579 4 0.0630472 0.2023 0.151465
577 2 0.044502 0.212813 0.164531
293 4 0.101468 0.24583 0.129292
664 2 0.233169 0.170041 0.125707
618 4 0.197618 0.195952 0.127429
666 4 0.215741 0.187696 0.128826
616 2 0.189016 0.203863 0.149533
690 4 0.181314 0.232462 0.166256
1290 4 0.25772 0.242371 0.0877573
642 4 0.486389 0.197747 0.163198
300 4 0.0590179 0.282226 0.0903582
2608 2 0.0263427 0.302613 0.134101
2828 4 0.00912238 0.270609 0.148434
2610 4 0.0361786 0.325513 0.136114
294 4 0.0750941 0.280578 0.104843
2609 4 0.0165067 0.279714 0.132088
292 2 0.0882812 0.263204 0.117067
740 4 0.153492 0.328636 0.146626
739 2 0.166369 0.311417 0.159389
523 2 0.241193 0.328894 0.136931
1103 4 0.302569 0.291193 0.122093
525 4 0.251515 0.306236 0.139216
1104 4 0.252612 0.292119 0.124111
1102 2 0.27759 0.291656 0.123102
252 4 0.328297 0.294344 0.12694
246 4 0.36925 0.260035 0.0859312
245 4 0.348449 0.289399 0.120656
244 2 0.358849 0.274717 0.103294
250 2 0.339987 0.306516 0.145388
251 4 0.351678 0.318688 0.163837
337 2 0.420201 0.27282 0.0867821
338 4 0.43141 0.283679 0.106317
1046 4 0.451459 0.285385 0.101213
1045 2 0.467275 0.304718 0.100103
658 2 0.487164 0.311044 0.157796
1047 4 0.483092 0.324051 0.0989934
1629 4 0.0157133 0.41229 0.0854777
2750 4 0.0498661 0.334146 0.124981
648 4 0.0682067 0.388983 0.0899794
2749 2 0.0535195 0.357678 0.132602
2751 4 0.057173 0.381209 0.140223
393 4 0.072454 0.372727 0.15025
391 2 0.0871493 0.38774 0.163809
363 4 0.142181 0.335809 0.13035
646 2 0.0892156 0.392362 0.103109
361 2 0.13179 0.357796 0.12454
647 4 0.110225 0.395741 0.116239
362 4 0.121399 0.379784 0.118729
524 4 0.230871 0.351553 0.134647
287 4 0.22973 0.359175 0.152327
737 4 0.288712 0.410167 0.0970943
736 2 0.276475 0.389725 0.0895059
1620 4 0.303317 0.364951 0.152091
959 4 0.305216 0.346482 0.142092
958 2 0.313437 0.350034 0.118747
960 4 0.321657 0.353587 0.0954019
933 4 0.337755 0.364101 0.0886299
659 4 0.489739 0.334005 0.148239
102 3 0.495823 0.350578 0.137807
703 2 0.12827 0.431026 0.111293
1776 4 0.0971449 0.440188 0.134097
705 4 0.150912 0.434525 0.101278
704 4 0.105629 0.427528 0.121308
1774 2 0.0912513 0.455289 0.153134
507 4 0.17125 0.434741 0.0983943
1559 4 0.192612 0.497146 0.13977
608 4 0.366153 0.466324 0.139913
3348 4 0.383308 0.466282 0.132991
3346 2 0.404631 0.470478 0.120626
607 2 0.368056 0.458373 0.163542
3347 4 0.425954 0.474675 0.10826
560 4 0.444598 0.473732 0.105078
561 4 0.493647 0.467628 0.112673
559 2 0.469122 0.47068 0.108875
495 4 0.47378 0.423972 0.133616
493 2 0.48734 0.43742 0.149754
3509 4 0.150428 0.00853238 0.187205
285 4 0.144818 0.0706038 0.203501
3508 2 0.166573 0.016056 0.169657
283 2 0.155212 0.0776422 0.225125
1763 4 0.154647 0.00116747 0.206583
1729 2 0.407765 0.0163609 0.177678
2664 4 0.399242 0.0291722 0.216215
1731 4 0.403426 0.0310183 0.197464
2662 2 0.400815 0.0406124 0.238392
380 4 0.0750109 0.12394 0.241215
1464 4 0.094343 0.115946 0.243607
284 4 0.165607 0.0846806 0.246749
472 2 0.238367 0.129901 0.189156
2461 2 0.198452 0.137461 0.227772
2462 4 0.199532 0.127921 0.204686
473 4 0.215596 0.121168 0.194671
474 4 0.261137 0.138635 0.183641
526 2 0.292464 0.151511 0.174611
528 4 0.315229 0.158639 0.182104
624 4 0.321979 0.159301 0.201679
633 4 0.361398 0.106615 0.202127
403 2 0.347883 0.0888096 0.174978
405 4 0.358276 0.0877275 0.197694
631 2 0.377452 0.125618 0.204646
632 4 0.393505 0.144621 0.207165
521 4 0.406255 0.15456 0.194293
628 2 0.486728 0.140534 0.173288
630 4 0.498634 0.134558 0.194447
578 4 0.0259568 0.223326 0.177598
512 4 0.00882993 0.233243 0.179061
617 4 0.180415 0.211774 0.171638
13 3 0.191587 0.192656 0.210309
11 1 0.207605 0.20856 0.215684
15 3 0.220758 0.200921 0.232634
14 3 0.22063 0.213289 0.197072
12 3 0.196991 0.227823 0.222421
1435 2 0.326291 0.233244 0.233726
1436 4 0.311195 0.248665 0.246354
1437 4 0.341388 0.217823 0.221099
622 2 0.333469 0.181224 0.205223
623 4 0.344959 0.203147 0.208768
520 2 0.421431 0.174071 0.198062
522 4 0.436607 0.193581 0.20183
641 4 0.443029 0.205992 0.186706
640 2 0.464709 0.201869 0.174952
476 4 0.149686 0.329189 0.24353
689 4 0.192942 0.28107 0.167918
741 4 0.179245 0.294197 0.172151
688 2 0.187128 0.256766 0.167087
356 4 0.361375 0.3046 0.176188
355 2 0.380214 0.318286 0.185294
357 4 0.399054 0.331973 0.1944
660 4 0.484588 0.288083 0.167353
392 4 0.101845 0.402752 0.177368
464 4 0.121326 0.402694 0.183097
733 2 0.13559 0.363261 0.239114
735 4 0.124159 0.380333 0.224863
611 4 0.157552 0.412995 0.187126
610 2 0.169497 0.391609 0.192138
286 2 0.212017 0.367045 0.168122
288 4 0.194304 0.374915 0.183917
612 4 0.181441 0.370222 0.19715
1618 2 0.288286 0.366832 0.171983
1619 4 0.273255 0.368713 0.191876
303 4 0.401312 0.350927 0.201363
301 2 0.414257 0.369574 0.19088
302 4 0.427201 0.388222 0.180397
270 4 0.428105 0.400899 0.196254
1582 2 0.492981 0.390225 0.217971
1584 4 0.497571 0.366047 0.213553
1583 4 0.488391 0.414403 0.22239
2740 2 0.0472954 0.49387 0.176065
2742 4 0.0684751 0.480596 0.175427
1775 4 0.0853577 0.47039 0.172171
463 2 0.120056 0.425214 0.193886
465 4 0.118787 0.447734 0.204676
2527 2 0.107553 0.477538 0.214889
2528 4 0.108776 0.453277 0.220812
1511 4 0.104999 0.498165 0.189227
609 4 0.369958 0.450423 0.187172
336 4 0.487108 0.415794 0.243221
269 4 0.417226 0.449704 0.195577
268 2 0.422666 0.425302 0.195915
1455 4 0.420344 0.441723 0.236982
1850 4 0.127581 0.0749317 0.274267
1851 4 0.141867 0.0270144 0.273515
1849 2 0.134724 0.0509731 0.273891
1796 4 0.137763 0.0112732 0.260229
1463 4 0.110615 0.0741244 0.265672
1866 4 0.289737 0.00672049 0.272125
332 4 0.270487 0.0393243 0.327861
333 4 0.292987 0.0189005 0.288145
331 2 0.281737 0.0291124 0.308003
2663 4 0.402388 0.0520526 0.260569
653 4 0.338644 0.0474409 0.277855
693 4 0.352435 0.0601239 0.283434
691 2 0.346172 0.0737469 0.303443
652 2 0.354525 0.0304781 0.268623
654 4 0.370407 0.0135153 0.259391
2519 4 0.420934 0.0619025 0.261774
1030 2 0.468065 0.0312325 0.322651
2518 2 0.436105 0.0548852 0.280369
2520 4 0.451276 0.0478679 0.298964
1032 4 0.466519 0.033653 0.297813
379 2 0.0606918 0.135626 0.258055
381 4 0.0463727 0.147312 0.274895
1462 2 0.102479 0.0950354 0.254639
682 2 0.128347 0.117897 0.305578
683 4 0.144866 0.101718 0.315094
684 4 0.111828 0.134075 0.296062
1404 4 0.163105 0.0954592 0.308033
2513 4 0.102433 0.150389 0.289103
1403 4 0.179244 0.0855632 0.261748
1402 2 0.171175 0.0905112 0.284891
2463 4 0.197371 0.147002 0.250859
409 2 0.199604 0.137028 0.283458
410 4 0.212533 0.141872 0.262612
411 4 0.186674 0.132184 0.304304
489 4 0.178915 0.129735 0.323396
692 4 0.339908 0.0873698 0.323452
1407 4 0.340821 0.107501 0.324625
311 4 0.451122 0.127497 0.252035
310 2 0.456065 0.12995 0.276422
312 4 0.461007 0.132402 0.300809
3236 4 0.0428119 0.184594 0.332008
2459 4 0.0345504 0.176279 0.315106
2458 2 0.0160185 0.185673 0.301196
2514 4 0.0911285 0.198412 0.297269
2512 2 0.0967808 0.174401 0.293186
2836 2 0.38615 0.225699 0.320832
2838 4 0.375452 0.224878 0.298247
231 4 0.3676 0.235291 0.282274
681 4 0.0589141 0.314727 0.313151
1757 4 0.0613097 0.303481 0.330404
475 2 0.16918 0.318497 0.254967
401 4 0.186569 0.300695 0.28571
400 2 0.207374 0.304621 0.299012
477 4 0.188675 0.307804 0.266404
402 4 0.228179 0.308546 0.312313
5 3 0.228556 0.303964 0.331488
118 3 0.328073 0.318716 0.299636
229 2 0.355877 0.256958 0.277998
230 4 0.344154 0.278625 0.273721
116 1 0.346253 0.326027 0.312064
120 3 0.361316 0.309119 0.314483
117 3 0.338889 0.332644 0.332828
679 2 0.0483471 0.335224 0.303487
2716 2 0.00251013 0.349982 0.270006
680 4 0.03778 0.355721 0.293824
2718 4 0.0237028 0.358876 0.279852
734 4 0.14702 0.34619 0.253365
308 4 0.338 0.371012 0.249197
307 2 0.353928 0.388321 0.257675
309 4 0.369855 0.40563 0.266153
119 3 0.356278 0.344117 0.301545
436 2 0.391009 0.371501 0.303086
437 4 0.412927 0.383462 0.301781
438 4 0.369091 0.35954 0.304391
334 2 0.477559 0.411575 0.265942
335 4 0.468011 0.407355 0.288662
1318 2 0.137617 0.487448 0.326778
914 4 0.139083 0.448198 0.31311
1320 4 0.132201 0.463122 0.324754
913 2 0.146407 0.428597 0.326798
753 4 0.262868 0.444145 0.285639
752 4 0.26052 0.488716 0.263085
751 2 0.261694 0.46643 0.274362
1454 4 0.385618 0.417493 0.263584
668 4 0.414124 0.495137 0.280472
1453 2 0.402981 0.429608 0.250283
2925 4 0.417124 0.4826 0.264674
4042 2 0.495678 0.483782 0.264708
4043 4 0.478519 0.469243 0.275634
2924 4 0.461383 0.460003 0.270262
2923 2 0.439254 0.471302 0.267468
2846 4 0.00720019 0.0467281 0.381532
1034 4 0.012915 0.0415374 0.400648
1033 2 0.0324532 0.0503534 0.413521
398 4 0.0564357 0.0759082 0.416534
397 2 0.0811711 0.0722582 0.416651
342 4 0.145562 0.00797123 0.405322
317 4 0.149692 0.0251811 0.39618
316 2 0.136043 0.0456819 0.400493
318 4 0.122395 0.0661827 0.404807
399 4 0.105907 0.0686082 0.416768
460 2 0.232786 0.0270711 0.335912
1838 4 0.196562 0.00177294 0.33899
462 4 0.21407 0.0104911 0.335902
893 4 0.241776 0.00217612 0.396867
461 4 0.251501 0.0436511 0.335923
1057 2 0.274971 0.0131969 0.413023
1059 4 0.262735 0.0016056 0.394555
258 4 0.423641 0.0386481 0.392398
256 2 0.436437 0.0335862 0.371521
257 4 0.449233 0.0285242 0.350645
1031 4 0.46961 0.0288119 0.347489
365 4 0.038526 0.092155 0.33943
364 2 0.0556466 0.10997 0.343261
3235 2 0.0535893 0.165055 0.343288
3237 4 0.0643667 0.145515 0.354568
366 4 0.0727671 0.127786 0.347092
588 4 0.177388 0.13996 0.379286
487 2 0.184007 0.128027 0.347816
488 4 0.189099 0.126318 0.372235
586 2 0.185369 0.142476 0.402847
899 4 0.313645 0.148311 0.407782
1478 4 0.292806 0.148489 0.407764
898 2 0.333943 0.145483 0.393458
1405 2 0.348701 0.123806 0.341865
1406 4 0.35658 0.140111 0.359105
900 4 0.354241 0.142655 0.379134
3549 4 0.403669 0.159251 0.413807
266 4 0.417981 0.155359 0.399966
3269 4 0.457589 0.114507 0.387558
3268 2 0.442327 0.123385 0.369854
3270 4 0.427066 0.132263 0.352149
1219 2 0.14869 0.206599 0.403785
1221 4 0.159513 0.19959 0.382362
677 4 0.227774 0.249265 0.387841
615 4 0.235278 0.230841 0.386244
614 4 0.265171 0.196327 0.365851
613 2 0.250225 0.213584 0.376048
1477 2 0.283336 0.167188 0.394131
1479 4 0.273867 0.185887 0.380498
2837 4 0.396849 0.226519 0.343416
267 4 0.413809 0.199573 0.376979
3308 4 0.401121 0.213885 0.372872
265 2 0.415895 0.177466 0.388473
3307 2 0.414102 0.233052 0.382324
3106 2 0.0175902 0.252633 0.343706
3108 4 0.0416642 0.254169 0.337129
1758 4 0.0243418 0.3056 0.364014
1756 2 0.0428257 0.30454 0.347209
2585 4 0.0108791 0.319043 0.370633
1 1 0.236451 0.316312 0.348919
3 3 0.233772 0.304602 0.368771
676 2 0.232169 0.273879 0.387915
678 4 0.236563 0.298493 0.387988
432 4 0.174444 0.327238 0.397132
430 2 0.192077 0.331637 0.379959
2 3 0.258843 0.320493 0.345716
447 4 0.277449 0.318002 0.352023
2457 4 0.27107 0.272404 0.39193
2455 2 0.289325 0.288543 0.397539
446 4 0.325461 0.331027 0.346932
445 2 0.301455 0.324514 0.349477
2456 4 0.30758 0.304682 0.403147
576 4 0.327455 0.305527 0.409024
3309 4 0.427082 0.252218 0.391776
1743 4 0.426141 0.270523 0.398823
1741 2 0.428751 0.287554 0.380704
1742 4 0.431361 0.304586 0.362585
1472 4 0.443044 0.316921 0.353497
2586 4 0.00328215 0.358583 0.400291
2584 2 0.00708061 0.338813 0.385462
915 4 0.15373 0.408997 0.340485
343 2 0.157885 0.392625 0.368217
345 4 0.160296 0.395584 0.392928
344 4 0.155475 0.389666 0.343507
569 4 0.167272 0.342641 0.408035
414 4 0.169025 0.405113 0.408339
431 4 0.20971 0.336036 0.362786
4 3 0.225133 0.336536 0.350063
585 4 0.256634 0.389768 0.41082
108 3 0.498112 0.399911 0.366633
1471 2 0.455768 0.337902 0.358303
110 3 0.480608 0.370466 0.351005
106 1 0.477671 0.38949 0.363174
1473 4 0.468492 0.358882 0.363109
109 3 0.46782 0.384407 0.383559
107 3 0.463879 0.403823 0.351619
1392 4 0.469212 0.363559 0.382553
1390 2 0.465658 0.360789 0.407147
415 2 0.0142749 0.484255 0.346905
548 4 0.000914177 0.447779 0.414838
547 2 0.0114817 0.447206 0.392184
549 4 0.0220492 0.446633 0.369531
417 4 0.0140468 0.4638 0.361282
1586 4 0.324596 0.480358 0.387172
1035 4 0.0519914 0.0591693 0.426394
429 4 0.160391 0.00164706 0.46178
340 2 0.164621 0.00052343 0.41969
1780 2 0.206109 0.0655355 0.471849
1781 4 0.215376 0.0679465 0.448752
1151 4 0.233732 0.0609372 0.449167
1782 4 0.196842 0.0631245 0.494946
1058 4 0.287208 0.0247883 0.431492
1150 2 0.25424 0.0748291 0.44576
384 4 0.061932 0.124323 0.47655
321 4 0.0696195 0.104887 0.483534
382 2 0.0766038 0.14048 0.464348
383 4 0.0912756 0.156637 0.452147
290 4 0.109626 0.15636 0.444979
587 4 0.19335 0.144992 0.426409
1700 4 0.197742 0.151013 0.445231
1699 2 0.208511 0.142583 0.466163
1701 4 0.21928 0.134153 0.487095
732 4 0.330436 0.0892656 0.436923
730 2 0.306511 0.0954788 0.433156
731 4 0.282587 0.101692 0.429388
1152 4 0.274749 0.0887209 0.442352
3757 2 0.318567 0.0976794 0.499872
3759 4 0.336921 0.0867518 0.486876
2238 4 0.337647 0.101263 0.472043
2236 2 0.358125 0.102549 0.457753
3547 2 0.392625 0.141381 0.427366
2237 4 0.378602 0.103835 0.443464
3548 4 0.381581 0.12351 0.440924
2447 4 0.0797768 0.243815 0.496215
1220 4 0.137867 0.213608 0.425207
291 4 0.13796 0.194118 0.42848
289 2 0.123793 0.175239 0.436729
3276 4 0.0970007 0.236198 0.491518
3274 2 0.113492 0.21857 0.498035
910 2 0.297724 0.234915 0.436503
911 4 0.276555 0.226096 0.446467
912 4 0.318893 0.243735 0.426539
510 4 0.0850392 0.323474 0.46737
568 2 0.145933 0.332376 0.416064
509 4 0.115738 0.305313 0.432321
508 2 0.100389 0.314394 0.449845
570 4 0.124594 0.322112 0.424093
377 4 0.290195 0.32367 0.487676
574 2 0.331436 0.308782 0.433493
575 4 0.335416 0.312036 0.457963
240 4 0.338987 0.329453 0.467767
389 4 0.0224951 0.343564 0.442426
388 2 0.0176084 0.345214 0.466891
390 4 0.0127216 0.346864 0.491357
2296 2 0.0725463 0.403549 0.489176
2298 4 0.0514031 0.392491 0.49665
2297 4 0.0936894 0.414607 0.481702
851 4 0.129478 0.405482 0.434916
852 4 0.106869 0.399363 0.479098
850 2 0.118174 0.402423 0.457007
378 4 0.277405 0.369246 0.471552
584 4 0.264728 0.380693 0.459326
376 2 0.2838 0.346458 0.479614
583 2 0.260681 0.385231 0.435073
1330 2 0.382845 0.374103 0.483372
1332 4 0.39852 0.368738 0.464646
238 2 0.341543 0.334633 0.492094
3221 4 0.459726 0.376187 0.438982
3222 4 0.419094 0.371079 0.467681
1391 4 0.462104 0.35802 0.431742
3220 2 0.43941 0.373633 0.453331
1446 4 0.152487 0.460601 0.441014
412 2 0.157829 0.424477 0.419514
413 4 0.146633 0.44384 0.430688
1444 2 0.160814 0.483503 0.446614
2550 4 0.0837504 0.470572 0.492811
929 4 0.27169 0.495594 0.443407
1556 4 0.445262 0.497848 0.430335
3353 4 0.0197198 0.0795927 0.538125
1602 4 0.0960117 0.0724603 0.535948
320 4 0.0960921 0.0807587 0.51843
98 3 0.232084 0.0577534 0.55717
2048 4 0.204089 0.0780101 0.505977
2047 2 0.209699 0.0727743 0.529774
2049 4 0.215309 0.0675385 0.553571
97 3 0.248214 0.0325153 0.579875
96 1 0.24124 0.0543736 0.578221
1107 4 0.253613 0.0232386 0.56259
1181 4 0.274827 0.0822727 0.577014
1180 2 0.291561 0.0824005 0.558436
1105 2 0.266653 0.00970091 0.546102
2135 4 0.308884 0.033174 0.581031
2134 2 0.32623 0.0162079 0.574993
42 3 0.32777 0.0801643 0.536173
100 3 0.25909 0.068191 0.581241
937 2 0.381783 0.0313839 0.557839
938 4 0.374845 0.0551009 0.554026
939 4 0.388721 0.00766677 0.561653
45 3 0.361366 0.0675509 0.546423
1164 4 0.408456 0.00592056 0.559931
1162 2 0.43258 0.0119919 0.557412
1163 4 0.456704 0.0180633 0.554893
3117 4 0.023212 0.0959625 0.550505
3115 2 0.0408556 0.113582 0.552361
3116 4 0.0584992 0.131201 0.554217
1226 4 0.0779745 0.137749 0.556585
319 2 0.0828558 0.0928231 0.500982
1600 2 0.108986 0.087032 0.551585
1601 4 0.12196 0.101604 0.567222
1225 2 0.0984359 0.138607 0.57093
1198 2 0.199848 0.155349 0.519732
1200 4 0.208206 0.139004 0.502756
1182 4 0.308296 0.0825284 0.539859
3758 4 0.300214 0.108607 0.512869
811 2 0.349422 0.141948 0.530617
44 3 0.339785 0.085735 0.571348
813 4 0.342899 0.117933 0.533049
43 3 0.35568 0.104553 0.542405
41 1 0.346303 0.0844179 0.549117
812 4 0.355945 0.165963 0.528185
710 4 0.0466054 0.235393 0.534062
709 2 0.0285919 0.244534 0.548798
2448 4 0.0452952 0.21892 0.522521
2446 2 0.062536 0.231368 0.509368
3501 4 0.00461033 0.23939 0.576593
2374 2 0.153997 0.187977 0.525963
2375 4 0.129538 0.190039 0.521196
3275 4 0.129983 0.200942 0.504553
2376 4 0.178455 0.185915 0.53073
1199 4 0.19149 0.171694 0.536707
467 4 0.34652 0.181102 0.519055
466 2 0.364505 0.195656 0.528537
468 4 0.38249 0.210209 0.538018
1137 4 0.387152 0.221414 0.554824
1135 2 0.378694 0.241408 0.56723
711 4 0.0105784 0.253676 0.563533
435 4 0.10743 0.268769 0.561497
433 2 0.131945 0.269744 0.566321
434 4 0.156459 0.270719 0.571145
1136 4 0.370237 0.261402 0.579635
1811 4 0.0424393 0.397306 0.513215
3539 4 0.00697631 0.406003 0.565073
1812 4 0.0108953 0.359018 0.506909
1810 2 0.0266673 0.378162 0.510062
1189 2 0.118459 0.415505 0.573309
2157 4 0.0851183 0.413018 0.568025
1191 4 0.137071 0.402502 0.583782
1953 4 0.235024 0.388205 0.556696
2171 4 0.237614 0.406501 0.567605
1951 2 0.253721 0.374412 0.547459
1952 4 0.272419 0.360618 0.538222
694 2 0.326759 0.364111 0.545091
696 4 0.325033 0.380699 0.563719
2309 4 0.333576 0.397889 0.557782
695 4 0.328484 0.347523 0.526462
239 4 0.344099 0.339813 0.516421
1331 4 0.367169 0.379468 0.502098
806 4 0.363952 0.376806 0.521163
805 2 0.380825 0.377329 0.539608
807 4 0.397697 0.377852 0.558053
3168 4 0.435808 0.377241 0.559869
3166 2 0.459004 0.377825 0.569186
3167 4 0.4822 0.378409 0.578502
3573 4 0.00712648 0.463179 0.536317
3571 2 0.0187047 0.483934 0.544086
2155 2 0.0679423 0.420427 0.551434
2156 4 0.0507663 0.427837 0.534843
2549 4 0.0537126 0.444712 0.523302
3538 2 0.00430141 0.424344 0.548291
3540 4 0.00162652 0.442686 0.53151
2548 2 0.0687315 0.457642 0.508057
1190 4 0.0998457 0.428508 0.562837
2383 2 0.108512 0.495915 0.518732
2385 4 0.0974577 0.477934 0.505328
2152 2 0.302985 0.471699 0.582279
2153 4 0.322476 0.460804 0.571029
2310 4 0.335378 0.446951 0.567291
2308 2 0.334477 0.42242 0.562537
920 4 0.223547 0.0787417 0.656018
919 2 0.224683 0.0538651 0.653771
99 3 0.225257 0.0584038 0.594552
921 4 0.225819 0.0289886 0.651525
605 4 0.308343 0.0440229 0.598015
604 2 0.32175 0.0649316 0.600887
1244 4 0.327083 0.0143916 0.609927
796 2 0.499487 0.0621085 0.587609
945 4 0.0320915 0.152747 0.64612
261 4 0.0226878 0.162606 0.630413
1227 4 0.118897 0.139464 0.585275
1284 4 0.13351 0.106371 0.582391
1282 2 0.141873 0.111064 0.605483
1283 4 0.150236 0.115757 0.628574
1130 4 0.165122 0.101858 0.634107
1131 4 0.209601 0.0927181 0.655054
1129 2 0.187361 0.0972878 0.644581
606 4 0.335157 0.0858403 0.603759
1097 4 0.338539 0.097563 0.587817
1096 2 0.351276 0.115217 0.600117
1098 4 0.364013 0.132871 0.612417
1194 4 0.377169 0.146803 0.622114
1192 2 0.400195 0.155006 0.627374
798 4 0.48999 0.0851288 0.589856
1193 4 0.423221 0.16321 0.632635
3079 2 0.489514 0.106563 0.623671
3080 4 0.48943 0.110269 0.648398
1064 4 0.440306 0.160972 0.642901
3081 4 0.489599 0.102856 0.598944
259 2 0.0129227 0.180209 0.615581
260 4 0.00315765 0.197812 0.60075
2133 4 0.228934 0.180106 0.654695
825 4 0.235618 0.198114 0.659982
823 2 0.250211 0.214181 0.647569
636 4 0.251001 0.232588 0.620646
824 4 0.264804 0.230247 0.635156
3191 4 0.323962 0.222486 0.642709
3190 2 0.304569 0.236147 0.650616
3192 4 0.285177 0.249808 0.658522
980 4 0.33583 0.236826 0.636125
979 2 0.360089 0.242871 0.636472
981 4 0.384349 0.248915 0.636819
2353 2 0.416698 0.238158 0.624744
1063 2 0.447436 0.184935 0.643266
1065 4 0.454565 0.208897 0.643632
2354 4 0.429817 0.226255 0.607097
2991 4 0.130597 0.305381 0.641016
2989 2 0.118243 0.292595 0.658597
1208 4 0.149585 0.301303 0.644616
1207 2 0.168488 0.314708 0.635228
635 4 0.241325 0.275921 0.59764
650 4 0.228734 0.289292 0.588264
649 2 0.214487 0.306412 0.599625
634 2 0.246163 0.254254 0.609143
651 4 0.200239 0.323533 0.610987
1209 4 0.187391 0.328114 0.62584
1210 2 0.298713 0.3206 0.603061
1211 4 0.276471 0.330264 0.609153
1212 4 0.320954 0.310936 0.596969
2355 4 0.403579 0.250061 0.64239
857 4 0.369326 0.270885 0.596923
858 4 0.340605 0.311662 0.600541
856 2 0.354966 0.291273 0.598732
4432 2 0.0561139 0.399301 0.601616
4434 4 0.0670272 0.384723 0.61875
4433 4 0.0452006 0.413878 0.584482
895 2 0.112221 0.35647 0.657639
897 4 0.121494 0.36935 0.638318
934 2 0.154526 0.389891 0.640939
935 4 0.130264 0.388006 0.635193
1383 4 0.152529 0.412378 0.589054
947 4 0.238939 0.355599 0.660639
275 4 0.19564 0.399956 0.647849
936 4 0.178787 0.391775 0.646685
946 2 0.249747 0.345597 0.640432
274 2 0.213094 0.385883 0.658915
948 4 0.260555 0.335595 0.620225
4483 2 0.366636 0.408238 0.654765
4485 4 0.385603 0.400625 0.640361
1911 4 0.402362 0.406932 0.632429
984 4 0.0347121 0.428072 0.594266
982 2 0.0130626 0.434665 0.604896
3303 4 0.0898407 0.427285 0.646683
1161 4 0.102408 0.441249 0.638095
1159 2 0.114746 0.462331 0.643433
1160 4 0.127085 0.483413 0.64877
1988 4 0.143726 0.485917 0.659211
1381 2 0.174133 0.419219 0.59962
2170 2 0.225945 0.417746 0.586646
2172 4 0.214276 0.428991 0.605687
1382 4 0.195737 0.426059 0.610187
2154 4 0.283493 0.482594 0.593528
2307 4 0.345853 0.494603 0.610178
2305 2 0.354894 0.49922 0.587329
1909 2 0.41779 0.420676 0.618349
1910 4 0.433218 0.43442 0.604269
1074 4 0.0641293 0.0625579 0.728844
1072 2 0.0773432 0.0814701 0.719205
4508 4 0.0517597 0.0470125 0.730874
1085 4 0.247012 0.0658408 0.749218
1202 4 0.292823 0.0599143 0.66918
1203 4 0.30422 0.011227 0.669782
1201 2 0.298522 0.0355707 0.669481
951 4 0.279943 0.0760279 0.672849
1145 4 0.425743 0.0754416 0.713202
1144 2 0.448148 0.0805092 0.723076
943 2 0.0342056 0.150829 0.67096
3476 4 0.0333583 0.163303 0.709199
944 4 0.0363198 0.148911 0.6958
1073 4 0.090557 0.100382 0.709567
1185 4 0.0946318 0.119217 0.716331
1183 2 0.104366 0.126698 0.738113
1153 2 0.191439 0.152127 0.725337
1155 4 0.187939 0.135014 0.743227
950 4 0.307791 0.103519 0.703986
949 2 0.293867 0.0897734 0.688417
1005 4 0.319609 0.117318 0.711438
1142 4 0.413603 0.0895538 0.70602
1003 2 0.343866 0.121471 0.715853
1141 2 0.399906 0.106658 0.718062
1004 4 0.368124 0.125624 0.720269
1143 4 0.386208 0.123762 0.730103
1146 4 0.470553 0.0855768 0.73295
2264 4 0.484738 0.0979265 0.726499
3475 2 0.0183955 0.175122 0.725374
3477 4 0.00343267 0.186941 0.741548
2131 2 0.211001 0.174273 0.671114
2132 4 0.193068 0.168441 0.687532
1154 4 0.194938 0.16924 0.707447
2906 4 0.412618 0.249226 0.747357
3642 4 0.454909 0.210754 0.675727
3640 2 0.452558 0.23529 0.671531
904 2 0.454862 0.195192 0.72014
906 4 0.455533 0.190547 0.744699
905 4 0.454191 0.199837 0.695581
3373 2 0.0405772 0.265346 0.74313
3375 4 0.0572888 0.27028 0.725198
1260 4 0.070935 0.259382 0.713581
1258 2 0.077847 0.271908 0.693075
2990 4 0.105889 0.279809 0.676177
1259 4 0.0847589 0.284433 0.672568
878 4 0.149699 0.29943 0.71526
877 2 0.148477 0.291779 0.739033
2016 4 0.170764 0.296558 0.715499
2014 2 0.19125 0.288551 0.703609
2015 4 0.211736 0.280543 0.691718
1229 4 0.224707 0.266614 0.685086
1228 2 0.248113 0.263363 0.676918
1230 4 0.27152 0.260111 0.668749
3372 4 0.406542 0.258899 0.73074
3473 4 0.487534 0.257108 0.683633
1268 4 0.49096 0.310716 0.695101
3641 4 0.450207 0.259827 0.667334
1267 2 0.470899 0.30279 0.707746
3370 2 0.422889 0.273517 0.71873
3371 4 0.439237 0.288136 0.706719
1269 4 0.450837 0.294864 0.72039
2357 4 0.0819129 0.397071 0.70879
896 4 0.102949 0.34359 0.67696
3302 4 0.0885929 0.404256 0.691054
3301 2 0.0892168 0.415771 0.668869
2356 2 0.0988997 0.403949 0.725799
3337 2 0.158714 0.358829 0.747782
2358 4 0.115886 0.410828 0.742808
276 4 0.230548 0.371809 0.669982
869 4 0.197212 0.349641 0.746856
3339 4 0.181305 0.360396 0.737181
1265 4 0.342181 0.382109 0.743136
662 4 0.341318 0.383287 0.722722
4484 4 0.347669 0.415852 0.669169
661 2 0.33843 0.39957 0.703969
972 4 0.0186484 0.468191 0.687708
971 4 0.0269963 0.449972 0.733524
970 2 0.0228223 0.459082 0.710616
780 4 0.0261707 0.430791 0.739269
4176 4 0.157401 0.494477 0.747298
663 4 0.335542 0.415853 0.685215
3022 2 0.495299 0.435071 0.670665
3024 4 0.471475 0.434921 0.678254
1139 4 0.459231 0.44951 0.68424
1138 2 0.458626 0.457251 0.708007
1140 4 0.458021 0.464992 0.731774
4181 4 0.469464 0.449319 0.740288
4507 2 0.0373938 0.0431386 0.750969
4509 4 0.023028 0.0392648 0.771063
329 4 0.0064481 0.0303539 0.779425
1083 4 0.12719 0.0228526 0.757014
3578 4 0.0873778 0.038331 0.776186
1081 2 0.146825 0.0074923 0.75509
3577 2 0.0940539 0.0265069 0.797181
2113 2 0.139917 0.0603386 0.773553
2114 4 0.130563 0.0373059 0.770876
3579 4 0.10073 0.0146827 0.818176
1084 2 0.257286 0.0513071 0.766779
1086 4 0.267561 0.0367733 0.78434
828 4 0.286805 0.0400846 0.784209
826 2 0.307149 0.0416688 0.798658
827 4 0.327493 0.043253 0.813107
1255 2 0.405594 0.0322959 0.768243
1256 4 0.391512 0.0510226 0.776972
90 3 0.343368 0.050842 0.804896
88 3 0.375716 0.0429803 0.787304
86 1 0.361238 0.0598284 0.794007
87 3 0.353859 0.0711378 0.775384
89 3 0.37232 0.0747227 0.807927
1241 4 0.390461 0.0735035 0.814219
1257 4 0.419676 0.0135692 0.759513
2064 4 0.456951 0.0350756 0.793255
2062 2 0.465266 0.0546019 0.806475
2063 4 0.473581 0.0741281 0.819695
2144 4 0.466007 0.0334501 0.776116
2143 2 0.45805 0.0131907 0.763812
1184 4 0.1141 0.134179 0.759895
2115 4 0.149271 0.0833713 0.776231
4521 4 0.141998 0.0922087 0.794564
4520 4 0.126827 0.13574 0.775185
4519 2 0.134413 0.113975 0.784875
976 2 0.182469 0.154371 0.78134
978 4 0.185723 0.146669 0.757776
977 4 0.179216 0.162074 0.804903
1262 4 0.273889 0.1179 0.807962
1261 2 0.296122 0.126879 0.800875
1263 4 0.318356 0.135859 0.793788
975 4 0.322737 0.160498 0.818921
2988 4 0.334468 0.128263 0.787289
2986 2 0.348499 0.147298 0.779167