ITEM: TIMESTEP
2910000
ITEM: NUMBER OF ATOMS
4590
ITEM: BOX BOUNDS pp pp pp
-9.9985700000000008e+00 9.9985700000000008e+00
-9.9985700000000008e+00 9.9985700000000008e+00
-9.9985700000000008e+00 9.9985700000000008e+00
ITEM: ATOMS id type xs ys zs
3232 2 0.0402933 0.0650016 0.0803024
3234 4 0.0591452 0.0606638 0.0644605
237 4 0.179362 0.0886496 0.0143642
1109 4 0.412731 0.998375 0.0590458
1023 4 0.41776 0.0163205 0.0675741
4121 4 0.507236 0.000801483 0.0198074
1132 2 0.184993 0.149222 0.00231451
1134 4 0.200228 0.161534 0.0178551
566 4 0.238853 0.0904126 0.0065945
491 4 0.214108 0.166323 0.0315091
2163 4 0.304786 0.0949541 0.0701244
2161 2 0.311273 0.0959568 0.0459977
2162 4 0.31776 0.0969595 0.0218711
2001 4 0.316641 0.109682 0.00638574
759 4 0.37695 0.129163 0.0811929
757 2 0.381979 0.125048 0.0570484
758 4 0.387007 0.120932 0.0329039
1827 4 0.373625 0.11899 0.0178791
1825 2 0.394092 0.110012 0.00666921
2680 2 0.473747 0.153323 0.0262441
2681 4 0.480475 0.134861 0.0107828
490 2 0.2315 0.180133 0.0429964
492 4 0.248892 0.193944 0.0544837
4212 4 0.268155 0.197738 0.0486793
4210 2 0.289099 0.20411 0.0365993
4211 4 0.310043 0.210482 0.0245193
483 4 0.328283 0.200274 0.0227122
481 2 0.352511 0.195792 0.0184558
664 2 0.377179 0.198882 0.0788741
666 4 0.401752 0.203229 0.0773021
482 4 0.376738 0.191309 0.0141995
1303 2 0.409352 0.184494 0.000470224
1304 4 0.384802 0.179763 0.000171081
765 4 0.463823 0.179482 0.0592518
2682 4 0.467019 0.171786 0.0417053
763 2 0.457634 0.191297 0.080401
1305 4 0.433903 0.189225 0.000769368
2770 2 0.0112365 0.309565 0.00265568
2772 4 0.00864118 0.298468 0.0249111
2514 4 0.00426401 0.309678 0.0417341
455 4 0.112211 0.245251 0.0453483
454 2 0.127636 0.259855 0.0321596
456 4 0.143062 0.274459 0.0189709
933 4 0.220092 0.291099 0.0261816
960 4 0.222033 0.296436 0.00512906
931 2 0.23744 0.290365 0.0441725
932 4 0.254788 0.289632 0.0621634
354 4 0.254172 0.292507 0.0823463
352 2 0.279082 0.292963 0.0844588
324 4 0.374383 0.318676 0.0215734
282 4 0.359247 0.305717 0.0158905
322 2 0.365409 0.32982 0.0420788
1046 4 0.463378 0.324543 0.0553237
968 4 0.459228 0.343822 0.0557274
1045 2 0.466663 0.307723 0.0735293
1104 4 0.0604401 0.396279 0.0279093
2874 4 0.0177782 0.405067 0.0578843
293 4 0.0634963 0.390872 0.0469926
1102 2 0.0553006 0.384453 0.00648733
292 2 0.0749353 0.40245 0.0659737
639 4 0.258776 0.378171 0.998302
1093 2 0.279739 0.391772 0.025273
1095 4 0.270306 0.406109 0.0434571
323 4 0.356435 0.340963 0.0625842
967 2 0.444982 0.350923 0.0364451
969 4 0.430737 0.358025 0.0171627
801 4 0.423247 0.354591 0.999387
302 4 0.427534 0.35198 0.0756082
2872 2 0.0231807 0.418638 0.0375912
2873 4 0.0285833 0.432209 0.017298
621 4 0.00943173 0.433868 0.0933276
537 4 0.0309572 0.436951 0.996893
294 4 0.0863744 0.414027 0.0849548
756 4 0.287769 0.477757 0.0238168
754 2 0.301152 0.494533 0.0366491
1779 4 0.290249 0.484697 0.00487338
542 4 0.371566 0.454594 0.0748057
2568 4 0.382545 0.506966 0.0455133
2566 2 0.379329 0.482701 0.05062
2567 4 0.376114 0.458437 0.0557267
2652 4 0.454599 0.484876 0.0885102
3233 4 0.0214413 0.0693394 0.0961443
371 4 0.00537655 0.0729844 0.106606
2479 2 0.0306626 0.0331131 0.133191
2480 4 0.053622 0.036744 0.123979
579 4 0.0716128 0.034694 0.114295
577 2 0.0807534 0.0558532 0.123986
2481 4 0.0077031 0.0294821 0.142402
578 4 0.0898941 0.0770123 0.133678
1233 4 0.141618 0.0455535 0.160956
1566 4 0.153217 0.0194922 0.170267
359 4 0.158322 0.0338147 0.156585
1231 2 0.120616 0.0560435 0.169562
358 2 0.181185 0.0433303 0.153136
360 4 0.204049 0.0528459 0.149687
1505 4 0.271621 0.0376847 0.135735
1504 2 0.268402 0.0137483 0.142205
1253 4 0.375177 0.992987 0.126946
1022 4 0.44414 0.0524139 0.0899802
1021 2 0.43095 0.0343672 0.0787771
1759 2 0.441883 0.0421986 0.134552
1761 4 0.440568 0.0458272 0.109848
1760 4 0.443199 0.03857 0.159256
546 4 0.0924186 0.0918958 0.120792
544 2 0.0981767 0.113736 0.110067
545 4 0.103935 0.135577 0.0993422
616 2 0.161736 0.141362 0.170987
617 4 0.167835 0.135505 0.147457
690 4 0.175134 0.148412 0.134865
249 4 0.223471 0.152851 0.0946176
688 2 0.194497 0.156798 0.121451
247 2 0.244121 0.144127 0.105692
52 3 0.279113 0.145694 0.12632
248 4 0.264771 0.135403 0.116766
51 1 0.282196 0.132869 0.145166
54 3 0.287758 0.146784 0.162882
53 3 0.299384 0.117783 0.141244
55 3 0.262933 0.121658 0.149844
2768 4 0.312185 0.118408 0.156034
581 4 0.36705 0.139267 0.0956443
580 2 0.383153 0.136255 0.114534
582 4 0.399255 0.133243 0.133424
297 4 0.498468 0.106934 0.15464
553 2 0.062114 0.237375 0.136888
2833 2 0.00576753 0.237032 0.136327
2834 4 0.0279945 0.248372 0.134732
555 4 0.0388723 0.232015 0.129387
554 4 0.0853557 0.242736 0.144389
299 4 0.0950289 0.260174 0.139742
689 4 0.21386 0.165184 0.108037
739 2 0.247219 0.216779 0.093475
741 4 0.238241 0.231128 0.0750718
740 4 0.256197 0.20243 0.111878
251 4 0.32856 0.227508 0.136538
357 4 0.341097 0.239294 0.143577
250 2 0.336296 0.21406 0.116929
252 4 0.344031 0.200613 0.0973201
665 4 0.352607 0.194535 0.080446
629 4 0.453406 0.192283 0.158563
630 4 0.436313 0.194816 0.111636
628 2 0.44486 0.193549 0.135099
764 4 0.451445 0.203111 0.10155
361 2 0.130851 0.331882 0.118896
298 2 0.0998764 0.283503 0.132166
363 4 0.111496 0.322985 0.131989
300 4 0.104724 0.306833 0.124589
738 4 0.165865 0.333613 0.113971
245 4 0.222907 0.309795 0.145575
244 2 0.246762 0.315151 0.150812
737 4 0.207629 0.322591 0.139169
736 2 0.186747 0.328102 0.12657
246 4 0.270617 0.320507 0.156048
338 4 0.282528 0.321977 0.172037
387 4 0.31674 0.306927 0.0792611
353 4 0.303992 0.293418 0.0865713
385 2 0.326515 0.311858 0.10174
520 2 0.406768 0.288531 0.174217
522 4 0.399399 0.31241 0.175032
386 4 0.33629 0.31679 0.124219
521 4 0.414137 0.264652 0.173402
1047 4 0.469949 0.290902 0.0917349
659 4 0.477674 0.291433 0.111386
658 2 0.474436 0.306165 0.131328
660 4 0.471197 0.320896 0.15127
255 4 0.428518 0.250679 0.16916
362 4 0.150206 0.340778 0.105803
647 4 0.0992924 0.402225 0.0925968
646 2 0.106266 0.404735 0.116477
524 4 0.129496 0.41798 0.13577
543 4 0.342422 0.418819 0.0940811
498 4 0.334039 0.401568 0.0996462
612 4 0.353095 0.34823 0.141539
497 4 0.344826 0.361304 0.127271
496 2 0.339432 0.381436 0.113459
303 4 0.414737 0.358504 0.123508
301 2 0.421135 0.355242 0.0995581
713 4 0.46723 0.340491 0.155699
712 2 0.471011 0.361156 0.14214
714 4 0.474792 0.381821 0.128582
495 4 0.472276 0.383856 0.109554
493 2 0.479557 0.407063 0.103758
620 4 0.0532596 0.457583 0.0975018
619 2 0.0313457 0.445725 0.0954147
523 2 0.152686 0.415889 0.144883
648 4 0.11324 0.407244 0.140356
525 4 0.175876 0.413798 0.153995
914 4 0.181835 0.421895 0.171901
505 2 0.253338 0.452221 0.168774
506 4 0.276909 0.445305 0.164112
541 2 0.356994 0.436707 0.0844434
2650 2 0.468669 0.466224 0.0974168
494 4 0.486837 0.43027 0.0979614
2651 4 0.482739 0.447572 0.106323
3808 2 0.0602472 0.071423 0.189933
3810 4 0.0359466 0.0663917 0.19299
3809 4 0.0845478 0.0764543 0.186876
590 4 0.069742 0.0507771 0.231667
1232 4 0.0996143 0.0665335 0.178168
589 2 0.0908471 0.0373716 0.23188
591 4 0.111952 0.023966 0.232092
285 4 0.181375 0.0636112 0.2008
283 2 0.192586 0.0672326 0.222854
460 2 0.31701 0.0268946 0.239185
461 4 0.296372 0.0405162 0.242889
693 4 0.288902 0.0237469 0.253303
462 4 0.337648 0.013273 0.235481
332 4 0.350875 0.00868851 0.221248
744 4 0.446152 0.0346935 0.178934
742 2 0.453231 0.0139201 0.190915
2461 2 0.154521 0.124217 0.232008
2463 4 0.14984 0.135429 0.210155
618 4 0.155637 0.14722 0.194517
527 4 0.281897 0.158071 0.253702
2767 2 0.32718 0.113988 0.175548
2769 4 0.342175 0.109569 0.195062
404 4 0.349303 0.0993899 0.21118
403 2 0.372526 0.106975 0.205857
405 4 0.395749 0.11456 0.200533
633 4 0.403358 0.123609 0.21642
349 2 0.499432 0.130851 0.192501
631 2 0.421332 0.140987 0.21605
632 4 0.439306 0.158365 0.215679
350 4 0.495138 0.119821 0.170477
528 4 0.267134 0.195826 0.224421
526 2 0.274516 0.176948 0.239062
624 4 0.268715 0.216085 0.228491
622 2 0.266686 0.240825 0.231488
13 3 0.347208 0.231075 0.244812
355 2 0.342044 0.24419 0.168078
15 3 0.345709 0.250404 0.212535
356 4 0.342991 0.249086 0.192579
11 1 0.350109 0.251822 0.234835
12 3 0.371902 0.25854 0.237845
311 4 0.443227 0.177771 0.21336
312 4 0.425778 0.214234 0.2428
310 2 0.434502 0.196003 0.22808
2945 4 0.485086 0.234106 0.232564
761 4 0.459578 0.256425 0.223412
254 4 0.462401 0.249043 0.205902
253 2 0.44546 0.249861 0.187531
488 4 0.1715 0.283671 0.239275
402 4 0.210261 0.328175 0.210447
623 4 0.264656 0.265566 0.234484
677 4 0.254452 0.273215 0.248637
14 3 0.336026 0.267398 0.244708
760 2 0.468662 0.262498 0.245902
762 4 0.477746 0.268571 0.268391
475 2 0.14937 0.370304 0.242503
477 4 0.16889 0.367267 0.227176
400 2 0.198278 0.349825 0.214036
401 4 0.186295 0.371474 0.217625
1620 4 0.244004 0.411387 0.208955
337 2 0.286912 0.346403 0.175093
339 4 0.291297 0.370828 0.178149
1619 4 0.278122 0.379618 0.190861
1618 2 0.261063 0.395502 0.199908
610 2 0.362272 0.358287 0.162512
611 4 0.371448 0.368343 0.183484
308 4 0.38465 0.379598 0.193332
307 2 0.390632 0.383985 0.21721
309 4 0.396614 0.388371 0.241088
705 4 0.0639707 0.423056 0.230102
735 4 0.080082 0.412826 0.234892
704 4 0.037051 0.416008 0.188552
703 2 0.0505108 0.419532 0.209327
1776 4 0.0197843 0.424776 0.19363
733 2 0.102129 0.424255 0.2378
1767 4 0.131377 0.443495 0.224285
1765 2 0.146458 0.460535 0.213922
734 4 0.124177 0.435685 0.240707
1766 4 0.16154 0.477574 0.203559
1790 4 0.170934 0.491555 0.214216
913 2 0.196147 0.442253 0.169471
344 4 0.228288 0.408723 0.219144
507 4 0.229766 0.459138 0.173435
915 4 0.210459 0.462611 0.167041
343 2 0.227663 0.427491 0.235653
1789 2 0.186972 0.50272 0.198619
1560 4 0.198292 0.507329 0.164229
231 4 0.311624 0.434275 0.207675
229 2 0.312169 0.423858 0.230399
288 4 0.327931 0.438802 0.195723
286 2 0.338108 0.459944 0.187085
608 4 0.368375 0.478398 0.182871
287 4 0.348285 0.481087 0.178447
607 2 0.383362 0.49335 0.196176
380 4 0.0712492 0.05053 0.252613
381 4 0.0406193 0.0637861 0.289853
379 2 0.0559342 0.0571581 0.271233
20 3 0.0314817 0.055886 0.305592
16 1 0.0271455 0.0710334 0.322036
1553 4 0.12287 0.0270783 0.248423
1552 2 0.13049 0.00472058 0.256624
683 4 0.17075 0.0852079 0.325959
1407 4 0.172547 0.0737591 0.310068
1405 2 0.1657 0.0855229 0.289094
284 4 0.203797 0.0708539 0.244908
1403 4 0.197923 0.0579279 0.258957
1402 2 0.218786 0.0471187 0.267506
1404 4 0.239649 0.0363095 0.276055
682 2 0.177615 0.066839 0.341472
691 2 0.267628 0.0199724 0.265885
692 4 0.246353 0.0161979 0.278468
1731 4 0.453632 0.0353133 0.281811
2664 4 0.439371 0.027357 0.295692
2662 2 0.445706 0.0468803 0.30997
2663 4 0.452042 0.0664036 0.324249
1729 2 0.465017 0.0243314 0.262448
18 3 0.0322988 0.0924208 0.314658
673 2 0.0242491 0.129774 0.316111
675 4 0.0399637 0.121654 0.333784
2462 4 0.159203 0.113005 0.253861
1406 4 0.158853 0.0972867 0.26812
1699 2 0.208067 0.163209 0.314247
1700 4 0.220245 0.143284 0.323184
1479 4 0.227549 0.126423 0.315144
1477 2 0.245229 0.110226 0.322232
1478 4 0.26291 0.0940294 0.329319
474 4 0.301891 0.158972 0.25389
472 2 0.309958 0.142421 0.270807
473 4 0.318026 0.125871 0.287724
899 4 0.281394 0.0902611 0.324004
2836 2 0.497704 0.145704 0.304259
2837 4 0.493578 0.12841 0.32184
1518 4 0.481562 0.117345 0.33341
1516 2 0.462978 0.100932 0.330185
2897 4 0.0894512 0.250568 0.292091
513 4 0.0887295 0.231043 0.2874
511 2 0.0922032 0.207176 0.293995
512 4 0.0956769 0.18331 0.300591
2847 4 0.0831614 0.174737 0.313959
489 4 0.203865 0.24639 0.247235
411 4 0.199681 0.232061 0.261576
1701 4 0.195889 0.183133 0.305309
410 4 0.207049 0.196603 0.296061
409 2 0.203365 0.214332 0.278819
614 4 0.288396 0.210239 0.346461
641 4 0.383985 0.248849 0.250055
640 2 0.400267 0.230706 0.255615
642 4 0.416548 0.212563 0.261174
2896 2 0.0767168 0.270979 0.298902
2718 4 0.075874 0.302001 0.318097
2898 4 0.0639823 0.291391 0.305713
2716 2 0.0773235 0.326963 0.318003
487 2 0.187683 0.26503 0.243255
3 3 0.231303 0.282874 0.306919
1 1 0.247301 0.280848 0.323603
676 2 0.240946 0.280298 0.268451
678 4 0.227439 0.287381 0.288265
437 4 0.308822 0.332655 0.32005
5 3 0.266986 0.289939 0.316639
926 4 0.473334 0.33146 0.311198
391 2 0.0222376 0.390131 0.280454
2717 4 0.078773 0.351924 0.317909
465 4 0.131192 0.335813 0.303197
463 2 0.12253 0.352054 0.286274
464 4 0.113868 0.368295 0.269351
476 4 0.129849 0.373342 0.257829
1758 4 0.119358 0.366921 0.33587
438 4 0.289958 0.373733 0.298663
414 4 0.288835 0.393611 0.304635
436 2 0.29939 0.353194 0.309357
230 4 0.312714 0.413441 0.253122
412 2 0.272749 0.399437 0.322869
1454 4 0.393471 0.400026 0.256639
751 2 0.387238 0.347879 0.317553
752 4 0.401449 0.354422 0.298049
1453 2 0.40302 0.38527 0.274423
1455 4 0.412569 0.370514 0.292207
392 4 0.0457166 0.398567 0.28211
417 4 0.0527605 0.415598 0.291576
415 2 0.0533699 0.433693 0.30882
416 4 0.0539793 0.451789 0.326063
602 4 0.228523 0.464367 0.261906
601 2 0.231276 0.483608 0.246176
345 4 0.227037 0.446259 0.252162
1319 4 0.222658 0.485951 0.290231
1318 2 0.219494 0.464705 0.303029
500 4 0.210948 0.497902 0.279142
1320 4 0.21633 0.443459 0.315826
1437 4 0.321718 0.414534 0.270781
1435 2 0.334004 0.427555 0.288237
1436 4 0.346289 0.440577 0.305692
1801 2 0.334682 0.474609 0.324838
1803 4 0.331145 0.455066 0.309649
669 4 0.439123 0.481109 0.248196
667 2 0.435487 0.48443 0.27271
668 4 0.431851 0.487752 0.297224
2925 4 0.439881 0.472784 0.309523
2923 2 0.458147 0.477385 0.325965
19 3 0.0395924 0.0659652 0.340951
17 3 0.00479193 0.0702022 0.3274
3236 4 0.00857197 0.0738524 0.420375
318 4 0.139378 0.0678977 0.41076
316 2 0.151568 0.0549372 0.428327
730 2 0.178113 0.0125469 0.358097
732 4 0.17836 0.0333594 0.344242
684 4 0.184479 0.04847 0.356985
900 4 0.288437 0.044359 0.342554
898 2 0.284916 0.06731 0.333279
1059 4 0.289446 0.0292069 0.357069
1057 2 0.273774 0.00995717 0.354064
256 2 0.394798 0.0455852 0.362691
1031 4 0.383781 0.057657 0.401527
257 4 0.389103 0.0605908 0.381863
258 4 0.400494 0.0305795 0.343519
1030 2 0.404178 0.0581631 0.415979
1428 4 0.406113 0.0112863 0.347998
1517 4 0.444393 0.0845181 0.32696
715 2 0.460495 0.00423268 0.414886
717 4 0.446543 0.0141684 0.396671
1128 4 0.993258 0.0896123 0.355033
1126 2 0.000737086 0.0854586 0.378528
1127 4 0.00821618 0.0813049 0.402022
399 4 0.144458 0.0811243 0.397544
1035 4 0.0991647 0.131958 0.395691
1033 2 0.103181 0.155019 0.386903
397 2 0.130157 0.101483 0.400033
398 4 0.115857 0.121841 0.402522
588 4 0.170975 0.141941 0.39556
342 4 0.178042 0.135247 0.411755
340 2 0.183942 0.112967 0.42145
1034 4 0.107197 0.17808 0.378115
2846 4 0.0971374 0.173817 0.361964
2845 2 0.0901494 0.174277 0.337962
586 2 0.168964 0.16682 0.397035
587 4 0.166953 0.191699 0.398511
431 4 0.2001 0.228679 0.405445
430 2 0.218625 0.24087 0.416995
615 4 0.249344 0.238887 0.334015
613 2 0.26887 0.224563 0.340238
2584 2 0.00369131 0.26788 0.39702
2585 4 0.018849 0.286134 0.389133
1219 2 0.0475381 0.303719 0.375823
1221 4 0.0311851 0.30013 0.394394
1220 4 0.0638911 0.307308 0.357252
291 4 0.0846558 0.30439 0.357782
290 4 0.122275 0.283737 0.383452
289 2 0.103465 0.294064 0.370617
4 3 0.240034 0.291518 0.342883
2 3 0.250468 0.258532 0.328198
432 4 0.23715 0.253061 0.428544
433 2 0.300269 0.270262 0.393124
434 4 0.305596 0.292376 0.382743
120 3 0.318883 0.333022 0.337473
435 4 0.294942 0.248148 0.403506
119 3 0.341734 0.320389 0.3646
3108 4 0.993775 0.409238 0.41764
1756 2 0.126473 0.368297 0.359801
1757 4 0.133588 0.369673 0.383731
326 4 0.121091 0.371447 0.399243
325 2 0.105886 0.354036 0.408775
117 3 0.329997 0.356094 0.364621
413 4 0.256662 0.405262 0.341103
753 4 0.373026 0.341335 0.337057
116 1 0.336227 0.338498 0.351179
118 3 0.354608 0.344863 0.338529
446 4 0.348308 0.35929 0.375198
445 2 0.353211 0.381828 0.384851
447 4 0.358114 0.404366 0.394504
680 4 0.989418 0.446983 0.353172
2297 4 0.0538201 0.468043 0.337969
2298 4 0.0438023 0.453927 0.384885
2296 2 0.0488112 0.460985 0.361427
768 4 0.0289203 0.457395 0.396904
766 2 0.0187949 0.434957 0.401281
1810 2 0.1565 0.463416 0.418734
1811 4 0.164328 0.476311 0.398793
1704 4 0.24993 0.471277 0.378079
1863 4 0.244668 0.452985 0.379626
1702 2 0.25635 0.490542 0.392668
1861 2 0.25092 0.439778 0.359336
1862 4 0.257171 0.426571 0.339046
1703 4 0.262769 0.509807 0.407257
930 4 0.352053 0.423746 0.393972
928 2 0.368443 0.43087 0.411459
1802 4 0.33822 0.494152 0.340028
2538 4 0.490411 0.475971 0.328606
2924 4 0.476414 0.481986 0.342407
3237 4 0.00475668 0.0970439 0.464514
3235 2 0.00666432 0.0854481 0.442444
317 4 0.163757 0.0419766 0.445895
1781 4 0.224767 0.0775593 0.486156
1780 2 0.21012 0.078232 0.465903
1782 4 0.195473 0.0789048 0.44565
321 4 0.214957 0.0687867 0.501232
1032 4 0.424576 0.0586691 0.430431
3270 4 0.421114 0.069402 0.469392
305 4 0.432207 0.0817874 0.480894
3268 2 0.428953 0.0458501 0.466385
3269 4 0.436791 0.0222982 0.463378
4581 4 0.442936 0.00393919 0.468214
4579 2 0.465042 0.00384771 0.479896
341 4 0.189842 0.090688 0.431145
920 4 0.223063 0.135221 0.476893
919 2 0.202752 0.126826 0.488816
921 4 0.18244 0.118432 0.500739
3158 4 0.410613 0.143206 0.496818
304 2 0.429298 0.105931 0.486708
347 4 0.0144447 0.227402 0.456525
346 2 0.0335308 0.21126 0.455966
348 4 0.0526169 0.195117 0.455407
383 4 0.0615842 0.194704 0.472544
568 2 0.212595 0.244104 0.503057
569 4 0.234883 0.232897 0.501378
651 4 0.323975 0.23714 0.457741
649 2 0.309589 0.235801 0.437335
650 4 0.295202 0.234461 0.416928
3157 2 0.416466 0.167272 0.493388
813 4 0.339221 0.225268 0.453999
811 2 0.364158 0.225359 0.452179
467 4 0.408947 0.227108 0.452454
812 4 0.389095 0.22545 0.450359
466 2 0.422274 0.216108 0.470524
3159 4 0.422319 0.191338 0.489958
468 4 0.435602 0.205108 0.488595
954 4 0.482491 0.211317 0.483843
266 4 0.48638 0.230501 0.478906
3037 2 0.00937822 0.297168 0.4702
3038 4 0.00961626 0.30371 0.494331
390 4 0.0968831 0.282437 0.449026
388 2 0.114445 0.296043 0.4605
389 4 0.132008 0.309648 0.471973
510 4 0.138781 0.294735 0.482519
508 2 0.156621 0.280781 0.493111
570 4 0.190307 0.255311 0.504736
509 4 0.17446 0.266826 0.503704
576 4 0.224661 0.267225 0.436771
574 2 0.234505 0.282556 0.453895
575 4 0.244349 0.297888 0.471018
240 4 0.257443 0.285775 0.477521
238 2 0.267969 0.301825 0.493546
376 2 0.347859 0.337125 0.48162
378 4 0.368301 0.342356 0.495034
265 2 0.482872 0.255162 0.476738
267 4 0.479364 0.279824 0.47457
3308 4 0.471474 0.279473 0.45629
3307 2 0.478014 0.300948 0.44528
3309 4 0.484554 0.322424 0.434269
3107 4 0.00501834 0.372537 0.449692
3106 2 0.999397 0.390887 0.433666
327 4 0.0906803 0.336626 0.418306
377 4 0.327417 0.331895 0.468206
772 2 0.303157 0.393621 0.482484
585 4 0.381421 0.421117 0.43825
1472 4 0.497005 0.392153 0.424254
1743 4 0.482194 0.326725 0.414925
1741 2 0.484079 0.351646 0.415687
2456 4 0.426849 0.374643 0.506712
805 2 0.459623 0.34934 0.495389
807 4 0.437194 0.36024 0.497219
504 4 0.0268432 0.490745 0.445179
503 4 0.0643328 0.472388 0.472716
502 2 0.045588 0.481566 0.458947
852 4 0.0695801 0.453521 0.475837
767 4 0.00866964 0.412518 0.405659
850 2 0.0645862 0.436099 0.493062
1812 4 0.148672 0.450521 0.438674
548 4 0.1518 0.465971 0.449971
547 2 0.145598 0.459173 0.47322
549 4 0.139397 0.452375 0.496469
773 4 0.297303 0.408301 0.463108
790 2 0.284947 0.442678 0.458744
791 4 0.281639 0.418171 0.455054
792 4 0.288255 0.467186 0.462434
2152 2 0.307907 0.490235 0.487817
2154 4 0.290028 0.474088 0.481123
584 4 0.380371 0.42118 0.488246
583 2 0.380896 0.421148 0.463248
2355 4 0.381591 0.434862 0.503291
929 4 0.384832 0.437995 0.428946
3266 4 0.0216034 0.0648104 0.518909
1272 4 0.0233034 0.0624942 0.538697
1271 4 0.0483374 0.06672 0.58178
1270 2 0.0358204 0.0646071 0.560239
2254 2 0.169161 0.0088598 0.511924
320 4 0.212946 0.0503846 0.547686
1152 4 0.212757 0.0495008 0.566794
1150 2 0.232394 0.0389449 0.578113
319 2 0.213951 0.0595857 0.524459
2255 4 0.191945 0.0161293 0.504629
1181 4 0.208327 0.0167064 0.493059
893 4 0.261885 0.0673379 0.527918
892 2 0.27844 0.0776477 0.543565
937 2 0.332013 0.0892968 0.564732
939 4 0.353483 0.0785761 0.571754
3265 2 0.0121271 0.085394 0.50834
2376 4 0.0915957 0.152601 0.582644
1602 4 0.177495 0.096706 0.579526
911 4 0.174598 0.102438 0.560749
910 2 0.183737 0.106816 0.537891
912 4 0.192876 0.111194 0.515033
938 4 0.310544 0.100017 0.557711
894 4 0.294994 0.0879575 0.559212
605 4 0.405955 0.114912 0.544648
604 2 0.387468 0.117234 0.527974
606 4 0.368981 0.119556 0.511301
4465 2 0.456648 0.147258 0.569264
872 4 0.494008 0.137116 0.533124
4467 4 0.440164 0.133104 0.581636
306 4 0.426388 0.130075 0.492522
382 2 0.0733512 0.180236 0.4892
384 4 0.0851182 0.165768 0.505855
694 2 0.245914 0.218081 0.539258
696 4 0.246454 0.213598 0.563851
695 4 0.245373 0.222564 0.514666
1098 4 0.311386 0.201054 0.558627
4466 4 0.473133 0.161413 0.556891
49 3 0.479962 0.179918 0.56278
46 1 0.489383 0.200533 0.557815
47 3 0.482943 0.206742 0.536622
48 3 0.481913 0.216498 0.572905
374 4 0.0296272 0.308044 0.493898
373 2 0.0365441 0.322316 0.513228
3499 2 0.0134388 0.322527 0.57608
3501 4 0.0369724 0.330553 0.573447
2446 2 0.0914674 0.28189 0.562341
710 4 0.0820909 0.316308 0.546795
2448 4 0.0981815 0.304039 0.55288
2447 4 0.0847533 0.25974 0.571801
634 2 0.304941 0.307355 0.538897
635 4 0.322428 0.30917 0.556676
1137 4 0.334572 0.296039 0.568029
636 4 0.287454 0.30554 0.521118
239 4 0.278495 0.317874 0.509571
375 4 0.043461 0.336588 0.532558
983 4 0.0343477 0.369357 0.546604
982 2 0.0202681 0.386078 0.558742
1189 2 0.0800977 0.392541 0.525022
1191 4 0.0728286 0.380778 0.545854
851 4 0.0595922 0.418676 0.510287
1190 4 0.0873668 0.404304 0.50419
711 4 0.0698913 0.363457 0.558147
709 2 0.0759911 0.339882 0.552471
1444 2 0.107499 0.408353 0.569853
1953 4 0.292335 0.414925 0.579456
774 4 0.309011 0.378942 0.501859
2457 4 0.384448 0.348133 0.506842
2455 2 0.405649 0.361388 0.506777
806 4 0.482051 0.338441 0.493558
3222 4 0.496587 0.335419 0.508668
7 3 0.0561337 0.423929 0.552756
6 1 0.043282 0.443008 0.5527
10 3 0.052627 0.458306 0.538654
1172 4 0.0574408 0.477578 0.540471
9 3 0.042428 0.45154 0.574261
8 3 0.0219041 0.43763 0.545457
1171 2 0.044857 0.49763 0.548518
1819 2 0.11577 0.447292 0.531208
1820 4 0.102704 0.437656 0.550223
1821 4 0.128836 0.456929 0.512192
1445 4 0.0903471 0.423403 0.559631
2172 4 0.147763 0.491066 0.577108
1239 4 0.174201 0.443262 0.55406
1237 2 0.188929 0.452612 0.536149
2140 2 0.225791 0.496268 0.500723
1238 4 0.203658 0.461962 0.518237
2142 4 0.214778 0.476808 0.511911
1951 2 0.294892 0.423892 0.556256
1952 4 0.297448 0.432858 0.533055
2153 4 0.325785 0.506382 0.494512
2353 2 0.387061 0.457672 0.511949
1268 4 0.405946 0.487036 0.532836
1267 2 0.409466 0.484014 0.557405
2354 4 0.392532 0.480481 0.520608
1269 4 0.412987 0.480992 0.581975
3382 2 0.00223362 0.0620962 0.635227
3384 4 0.0251837 0.0695116 0.641822
1227 4 0.0383469 0.0810877 0.650808
2291 4 0.0583758 0.0195455 0.620506
1998 4 0.0600608 0.00655451 0.635466
2290 2 0.067461 0.00480922 0.602465
1244 4 0.183675 0.0277653 0.61377
1245 4 0.18604 0.0766505 0.624034
1243 2 0.184857 0.0522079 0.618902
1151 4 0.252032 0.0283891 0.589432
2049 4 0.264344 0.0178356 0.602779
2047 2 0.273344 0.0364022 0.616902
2048 4 0.282343 0.0549687 0.631025
1163 4 0.359196 0.0434769 0.619418
1162 2 0.350437 0.0200577 0.619533
797 4 0.357742 0.0639416 0.618531
796 2 0.377742 0.0732577 0.606766
798 4 0.397741 0.0825737 0.595002
459 4 0.0643474 0.0706722 0.592401
457 2 0.0868851 0.0814903 0.592847
1198 2 0.0601763 0.145675 0.602823
1200 4 0.0352563 0.144288 0.604323
2375 4 0.138933 0.159423 0.59725
2374 2 0.115264 0.156012 0.589947
1600 2 0.153262 0.0982767 0.585482
1199 4 0.0850963 0.147061 0.601322
1601 4 0.129029 0.0998474 0.591439
458 4 0.109423 0.0923083 0.593293
825 4 0.19931 0.179537 0.597962
44 3 0.40758 0.1352 0.613824
43 3 0.396498 0.102939 0.597066
42 3 0.423487 0.102469 0.62322
45 3 0.430462 0.117455 0.589759
41 1 0.414568 0.114575 0.605812
3103 2 0.0137079 0.160706 0.625815
3104 4 0.0343967 0.164388 0.612266
1259 4 0.00141641 0.240352 0.631987
824 4 0.150418 0.172631 0.60587
2991 4 0.155145 0.237947 0.620552
3275 4 0.137289 0.240735 0.612402
2989 2 0.150459 0.229371 0.643566
3274 2 0.116943 0.248815 0.600323
2132 4 0.240144 0.197353 0.571572
2131 2 0.226308 0.191751 0.59163
823 2 0.174864 0.176084 0.601916
2133 4 0.212471 0.186149 0.611688
1096 2 0.309037 0.221034 0.573474
1097 4 0.306687 0.241015 0.588321
858 4 0.294304 0.256452 0.59017
1167 4 0.323288 0.184131 0.665973
1165 2 0.341659 0.18948 0.682069
3276 4 0.0965958 0.256895 0.588244
1208 4 0.134693 0.3476 0.636472
274 2 0.232685 0.292438 0.618907
276 4 0.213808 0.299735 0.604223
275 4 0.251561 0.285141 0.63359
857 4 0.26322 0.270857 0.626598
856 2 0.278762 0.263654 0.608384
1135 2 0.339082 0.302944 0.591633
1136 4 0.343593 0.309848 0.615238
1024 2 0.481635 0.27396 0.655308
1025 4 0.456755 0.271835 0.654023
984 4 0.00618836 0.4028 0.57088
1040 4 0.0196708 0.406196 0.586035
1207 2 0.128401 0.340239 0.659525
1446 4 0.124651 0.393304 0.580075
1187 4 0.1554 0.422964 0.668208
936 4 0.257481 0.337089 0.652472
934 2 0.273468 0.356077 0.64947
935 4 0.289456 0.375066 0.646468
662 4 0.297379 0.391952 0.652979
4484 4 0.345466 0.412807 0.661807
2170 2 0.139066 0.471567 0.59012
2171 4 0.130368 0.452068 0.603133
1161 4 0.135703 0.455269 0.621398
1159 2 0.145882 0.449252 0.643429
1160 4 0.156061 0.443235 0.66546
1711 2 0.254283 0.511435 0.649367
1712 4 0.27482 0.500919 0.659002
4485 4 0.388575 0.428307 0.641756
4483 2 0.367021 0.420557 0.651781
1250 4 0.41366 0.440028 0.627049
1251 4 0.428331 0.46958 0.589471
1249 2 0.420996 0.454804 0.60826
4508 4 0.0112763 0.00277433 0.676791
1225 2 0.0440695 0.0874883 0.674291
1183 2 0.138694 0.053528 0.72106
1184 4 0.150202 0.0534115 0.698862
1185 4 0.127186 0.0536446 0.743258
1203 4 0.165392 0.0533791 0.68543
1201 2 0.185716 0.0679381 0.685051
2231 4 0.303054 0.0194915 0.674576
962 4 0.302478 0.0100755 0.732367
2230 2 0.314719 0.0408095 0.680464
2232 4 0.326383 0.0621276 0.686352
949 2 0.364998 0.0748004 0.699949
951 4 0.340343 0.07082 0.698726
3356 4 0.385985 0.0324296 0.714956
950 4 0.389652 0.0787809 0.701171
1005 4 0.402608 0.0701126 0.689497
3355 2 0.392458 0.0319602 0.739103
1146 4 0.484769 0.0647542 0.686461
2264 4 0.493739 0.0642145 0.704042
1145 4 0.46454 0.0202895 0.697156
2320 2 0.451411 0.994313 0.721013
1144 2 0.474655 0.0425219 0.691809
2322 4 0.469495 0.00970957 0.713196
1226 4 0.0497921 0.093889 0.697774
4521 4 0.0646113 0.104373 0.707043
4519 2 0.0587842 0.105474 0.731333
1283 4 0.203325 0.146759 0.712351
1130 4 0.203258 0.162312 0.724891
1202 4 0.20604 0.0824971 0.684672
1282 2 0.205443 0.12387 0.702514
1284 4 0.207562 0.10098 0.692677
977 4 0.285472 0.146082 0.724229
974 4 0.273332 0.143968 0.740742
973 2 0.28707 0.132939 0.758485
1263 4 0.316162 0.110486 0.771682
1143 4 0.444062 0.118856 0.670578
1141 2 0.439655 0.143133 0.674622
1142 4 0.435249 0.167411 0.678666
1003 2 0.41697 0.0870997 0.678079
1004 4 0.431331 0.104087 0.666662
981 4 0.416323 0.166145 0.684887
1296 4 0.0721952 0.241963 0.753497
2990 4 0.145772 0.220794 0.666581
1129 2 0.186289 0.165495 0.742978
1211 4 0.243227 0.247565 0.706175
1210 2 0.255482 0.226576 0.700304
948 4 0.163905 0.244969 0.725016
1212 4 0.267737 0.205587 0.694433
976 2 0.277784 0.165505 0.710488
978 4 0.270095 0.184928 0.696747
979 2 0.392519 0.172027 0.689782
980 4 0.368716 0.17791 0.694678
1166 4 0.36003 0.194828 0.698164
2356 2 0.018255 0.322302 0.718516
2358 4 0.0420578 0.32994 0.719034
896 4 0.0601866 0.336376 0.715184
947 4 0.163375 0.291018 0.744509
946 2 0.16364 0.267993 0.734762
2986 2 0.287584 0.319658 0.727662
2988 4 0.293442 0.302317 0.710628
1194 4 0.440423 0.269511 0.665882
1193 4 0.439085 0.259183 0.714793
1064 4 0.444165 0.253291 0.732753
1192 2 0.439754 0.264347 0.690337
1063 2 0.4497 0.255599 0.757026
895 2 0.0817691 0.335839 0.702571
1209 4 0.12211 0.332878 0.682577
897 4 0.103352 0.335301 0.689958
878 4 0.174821 0.360836 0.740604
877 2 0.182352 0.375262 0.721621
879 4 0.189882 0.389688 0.702638
1188 4 0.187865 0.387534 0.682045
1186 2 0.171632 0.405249 0.675126
2987 4 0.281726 0.336999 0.744695
661 2 0.316004 0.402617 0.665806
1138 2 0.399285 0.417121 0.723352
1139 4 0.403329 0.41215 0.74752
889 2 0.21064 0.476994 0.707879
1988 4 0.225694 0.459592 0.741133
891 4 0.221809 0.459279 0.72154
1987 2 0.221852 0.436919 0.750949
890 4 0.199471 0.494709 0.694219
1001 4 0.277856 0.494953 0.677252
1909 2 0.32539 0.486466 0.745034
663 4 0.334629 0.413283 0.678633
4181 4 0.429245 0.506517 0.665756
1140 4 0.395241 0.422092 0.699183
4180 2 0.426539 0.483121 0.674152
4182 4 0.423834 0.459726 0.682548
3022 2 0.501191 0.506256 0.672175
3012 4 0.502107 0.434557 0.728152
1043 4 0.478589 0.427044 0.689552
1019 4 0.499468 0.427995 0.686465
1044 4 0.430434 0.440295 0.687055
1042 2 0.454511 0.433669 0.688304
3023 4 0.4807 0.502415 0.68598
1016 4 0.480312 0.515695 0.699929
945 4 0.142465 0.0534223 0.755479
943 2 0.144285 0.0715933 0.772558
2113 2 0.143183 0.0800951 0.833463
827 4 0.231405 0.02793 0.806911
1686 4 0.281145 0.0099736 0.826071
826 2 0.255329 0.0290295 0.814097
828 4 0.279252 0.0301291 0.821283
1085 4 0.348615 0.0264534 0.806421
3357 4 0.39893 0.0314907 0.76325
1086 4 0.388594 0.021187 0.776846
1084 2 0.368605 0.0238202 0.791634
2064 4 0.479114 0.0720667 0.780945
3468 4 0.488431 0.0550241 0.774944
2062 2 0.463935 0.0631704 0.798711
2063 4 0.448756 0.054274 0.816477
2198 4 0.450127 0.0357972 0.807882
2197 2 0.44562 0.0200595 0.826782
4520 4 0.052957 0.106575 0.755624
1074 4 0.054404 0.125211 0.759035
1072 2 0.0442799 0.147748 0.762878
1073 4 0.0341557 0.170285 0.766721
330 4 0.0344281 0.126613 0.825653
965 4 0.0672603 0.133107 0.804121
2114 4 0.146797 0.086016 0.809441
944 4 0.146105 0.0897643 0.789637
964 2 0.0892044 0.136773 0.815531
966 4 0.111149 0.140438 0.826941
1082 4 0.192053 0.15329 0.795635
975 4 0.300807 0.12191 0.776228
1261 2 0.34057 0.114285 0.775556
1262 4 0.364978 0.118084 0.77943
2906 4 0.367702 0.12681 0.796027
2905 2 0.387897 0.141031 0.792134
2907 4 0.408091 0.155251 0.788242
2975 4 0.419252 0.155088 0.805273
3297 4 0.0223603 0.229924 0.781578
3295 2 0.0200049 0.205882 0.775126