ITEM: TIMESTEP
1750000
ITEM: NUMBER OF ATOMS
4590
ITEM: BOX BOUNDS pp pp pp
-9.9985700000000008e+00 9.9985700000000008e+00
-9.9985700000000008e+00 9.9985700000000008e+00
-9.9985700000000008e+00 9.9985700000000008e+00
ITEM: ATOMS id type xs ys zs
380 4 0.0489411 0.0715396 0.0766304
1675 2 0.0860344 0.0326687 0.00650202
1677 4 0.0996642 0.0325189 0.0274636
1037 4 0.119102 0.0384589 0.0282943
1036 2 0.119856 0.0584588 0.0432814
1038 4 0.120611 0.0784587 0.0582685
235 2 0.193371 0.0612721 0.0577732
236 4 0.195587 0.0593438 0.0329428
995 4 0.18867 0.0700977 0.0179437
237 4 0.191156 0.0632003 0.0826037
1685 4 0.206685 0.0139669 0.068731
3835 2 0.387354 0.0241366 0.0383902
3836 4 0.367013 0.00980597 0.0359298
3837 4 0.407695 0.0384672 0.0408506
758 4 0.415893 0.056153 0.0420891
757 2 0.421855 0.0656682 0.0644296
1825 2 0.453301 0.0449663 0.0167628
1826 4 0.45032 0.0445564 0.991941
759 4 0.427817 0.0751835 0.08677
1827 4 0.456282 0.0453762 0.0415846
30 3 0.500956 0.0799228 0.0838275
701 4 0.0272804 0.0997892 0.0280057
700 2 0.011875 0.0966766 0.0474521
3234 4 0.0851475 0.0961057 0.0362161
423 4 0.134384 0.0919247 0.0526458
421 2 0.143379 0.110787 0.0663748
3233 4 0.109536 0.131493 0.0106488
932 4 0.126205 0.139353 0.00112369
3232 2 0.0973416 0.113799 0.0234324
55 3 0.219365 0.11716 0.0606418
492 4 0.230443 0.104354 0.0490376
53 3 0.221036 0.153967 0.0683905
51 1 0.220293 0.132585 0.0773704
490 2 0.238124 0.115841 0.0281995
491 4 0.245805 0.127329 0.00736146
2163 4 0.262917 0.125874 0.995886
2161 2 0.276879 0.146211 0.999964
296 4 0.495109 0.133885 0.0428211
1014 4 0.453594 0.165145 0.994411
295 2 0.493345 0.113439 0.0571041
553 2 0.065206 0.232589 0.0813474
555 4 0.0455972 0.217479 0.0848625
360 4 0.212792 0.170959 0.0628077
358 2 0.227511 0.180312 0.0448895
359 4 0.24223 0.189665 0.0269713
2162 4 0.29084 0.166549 0.00404187
244 2 0.27116 0.256275 0.0693749
1094 4 0.334233 0.250989 0.011174
556 2 0.457864 0.168287 0.0368747
557 4 0.448819 0.162666 0.014252
558 4 0.466908 0.173907 0.0594974
454 2 0.0452288 0.328216 0.0206498
456 4 0.0221166 0.320339 0.0152681
363 4 0.0674147 0.326812 0.0709328
739 2 0.226768 0.262634 0.0374147
740 4 0.20384 0.268577 0.0454253
914 4 0.208983 0.284289 0.0572263
741 4 0.249695 0.256691 0.0294041
245 4 0.257609 0.25697 0.0483736
481 2 0.303833 0.282733 0.00675361
482 4 0.317866 0.263246 0.0137198
324 4 0.411182 0.270307 0.0682724
1093 2 0.357842 0.255295 0.0181906
1095 4 0.381452 0.2596 0.0252071
968 4 0.399794 0.268785 0.0240958
659 4 0.40701 0.286706 0.0783567
1046 4 0.385987 0.313984 0.0521951
1045 2 0.396754 0.325095 0.0325528
658 2 0.385959 0.28241 0.0911461
967 2 0.413137 0.267368 0.00299729
322 2 0.434708 0.263789 0.0628682
323 4 0.458235 0.257272 0.0574641
3335 4 0.465435 0.270462 0.046698
3334 2 0.477329 0.292239 0.0436243
3336 4 0.489224 0.314017 0.0405506
455 4 0.068341 0.336092 0.0260315
1103 4 0.0878912 0.333992 0.0222392
1102 2 0.107161 0.346791 0.01275
1104 4 0.12643 0.35959 0.0032607
361 2 0.0877999 0.340393 0.0759487
362 4 0.108185 0.353975 0.0809646
955 2 0.222437 0.384884 0.0173453
957 4 0.201824 0.373807 0.0261525
956 4 0.24305 0.395962 0.00853806
782 4 0.276835 0.405233 0.00786663
781 2 0.271234 0.420108 0.0271685
1620 4 0.256367 0.381118 0.0722535
507 4 0.304648 0.400509 0.0815413
1047 4 0.40752 0.336205 0.0129105
1439 4 0.0728909 0.483693 0.0351543
1779 4 0.172854 0.434131 0.0348149
1692 4 0.0831333 0.467702 0.0302161
1222 2 0.149724 0.442838 0.00343519
637 2 0.141522 0.499643 0.0691349
1690 2 0.0957452 0.456618 0.0116883
1438 2 0.0887326 0.498172 0.0479824
1223 4 0.171276 0.440774 0.0159419
1777 2 0.180638 0.426854 0.0574339
1778 4 0.188423 0.419576 0.0800529
638 4 0.166441 0.501206 0.070457
783 4 0.265634 0.434982 0.0464704
226 2 0.382316 0.490205 0.0745873
227 4 0.397194 0.498787 0.0564169
2245 2 0.412614 0.485034 0.0200766
379 2 0.051243 0.0813419 0.099517
381 4 0.0535449 0.0911441 0.122404
1667 4 0.0804276 0.0119013 0.0943246
1668 4 0.129836 0.0155763 0.0875387
1564 2 0.140345 0.0392473 0.1476
1566 4 0.162181 0.0334453 0.13689
1666 2 0.105132 0.0137388 0.0909317
1565 4 0.118509 0.0450493 0.15831
534 4 0.166204 0.0193593 0.123576
532 2 0.183498 0.0150059 0.106051
533 4 0.200793 0.0106525 0.0885267
1505 4 0.26091 0.0515793 0.166321
1504 2 0.277549 0.0349466 0.157855
461 4 0.274266 0.0669003 0.168836
1506 4 0.294188 0.0183138 0.14939
573 4 0.347628 0.024758 0.163851
580 2 0.331735 0.0791469 0.104638
582 4 0.351446 0.0640141 0.107402
572 4 0.347787 0.057163 0.125764
571 2 0.347707 0.0409605 0.144807
743 4 0.421379 0.026686 0.149928
1110 4 0.478472 0.989854 0.124225
29 3 0.477377 0.0656801 0.109495
485 4 0.424898 0.00726318 0.147864
742 2 0.430474 0.0478498 0.159652
17 3 0.0365849 0.0931148 0.135086
2799 4 0.006531 0.102443 0.135042
16 1 0.0316928 0.106477 0.15316
20 3 0.0102402 0.113916 0.1514
579 4 0.0625993 0.115746 0.159993
19 3 0.0463256 0.124484 0.153354
372 4 0.13844 0.131869 0.0952847
370 2 0.129614 0.137472 0.117997
371 4 0.120787 0.143076 0.14071
422 4 0.152374 0.129649 0.0801037
578 4 0.100858 0.140405 0.139284
577 2 0.0817289 0.128075 0.149639
52 3 0.201493 0.130677 0.0904878
54 3 0.239035 0.128867 0.0905362
248 4 0.203529 0.125466 0.110024
247 2 0.194472 0.142122 0.126325
566 4 0.252039 0.125602 0.105675
249 4 0.185415 0.158777 0.142627
690 4 0.187855 0.160855 0.161916
354 4 0.257205 0.177703 0.0799868
352 2 0.278891 0.17042 0.0900796
581 4 0.312024 0.0942797 0.101873
567 4 0.292786 0.0967469 0.10845
565 2 0.272412 0.111175 0.107063
460 2 0.268518 0.0908835 0.164718
1760 4 0.4296 0.0833531 0.159728
2723 4 0.488153 0.112615 0.1517
554 4 0.0848149 0.247699 0.0778324
2835 4 0.0270824 0.212745 0.0892133
2833 2 0.0131393 0.227388 0.103922
476 4 0.169332 0.220017 0.105407
465 4 0.127951 0.186365 0.096952
463 2 0.140755 0.205494 0.106716
464 4 0.153559 0.224623 0.11648
475 2 0.185584 0.228604 0.122357
477 4 0.201836 0.23719 0.139307
357 4 0.310768 0.168006 0.116668
353 4 0.300577 0.163137 0.100172
337 2 0.252572 0.229369 0.150382
338 4 0.265791 0.227865 0.129212
355 2 0.329287 0.179369 0.129042
246 4 0.284712 0.255581 0.0903762
356 4 0.347805 0.190732 0.141416
254 4 0.33829 0.200935 0.155866
765 4 0.491621 0.175456 0.151994
2681 4 0.502566 0.18501 0.139729
300 4 0.0748006 0.312361 0.0824226
299 4 0.0753811 0.262667 0.0879837
298 2 0.0750908 0.287514 0.0852032
913 2 0.206411 0.289279 0.0815915
915 4 0.203838 0.294269 0.105957
756 4 0.210052 0.310669 0.116508
387 4 0.302878 0.29736 0.12431
385 2 0.289553 0.27733 0.117494
386 4 0.276229 0.2573 0.110679
521 4 0.322615 0.274544 0.134853
520 2 0.344435 0.283443 0.126494
522 4 0.366255 0.292343 0.118135
660 4 0.364907 0.278114 0.103935
536 4 0.0103716 0.358774 0.107986
738 4 0.111241 0.366535 0.0975623
736 2 0.133138 0.378335 0.100104
737 4 0.155035 0.390136 0.102645
754 2 0.207381 0.335354 0.113557
1618 2 0.235294 0.378277 0.0854072
755 4 0.204709 0.360038 0.110605
1619 4 0.21422 0.375436 0.098561
2617 2 0.0236681 0.450411 0.172392
2618 4 0.0282162 0.470894 0.158794
1774 2 0.034676 0.47968 0.121593
1775 4 0.037412 0.46525 0.141828
1776 4 0.0319399 0.494109 0.101357
525 4 0.162278 0.447987 0.12505
1787 4 0.0980329 0.48664 0.153785
648 4 0.10885 0.478554 0.16909
523 2 0.179086 0.435639 0.111259
524 4 0.195895 0.423291 0.0974684
505 2 0.302027 0.423494 0.0910282
506 4 0.299406 0.446479 0.100515
287 4 0.299373 0.45866 0.116581
286 2 0.301043 0.458059 0.141521
288 4 0.302713 0.457457 0.166462
228 4 0.367438 0.481622 0.0927577
1575 4 0.36099 0.486316 0.152314
714 4 0.475584 0.493159 0.158294
712 2 0.467294 0.469843 0.161873
673 2 0.063105 0.00717162 0.206458
590 4 0.0268359 0.00056706 0.210266
675 4 0.0430438 0.00162783 0.220315
512 4 0.0193329 0.0888672 0.186274
285 4 0.101713 0.00901564 0.200616
283 2 0.115076 0.0301481 0.200527
284 4 0.12844 0.0512805 0.200437
723 4 0.143138 0.0569582 0.213034
721 2 0.159762 0.0752557 0.216777
1541 4 0.388193 0.0213651 0.231265
1540 2 0.373755 0.0100955 0.214243
23 3 0.339536 0.00631719 0.167748
1542 4 0.359317 0.998826 0.197222
654 4 0.400584 0.0312628 0.24386
744 4 0.439569 0.0690137 0.169376
652 2 0.42252 0.019454 0.245994
693 4 0.0145518 0.0890522 0.253044
511 2 0.0129553 0.0902029 0.210413
18 3 0.0341886 0.0940317 0.172583
513 4 0.00657766 0.0915385 0.234553
2480 4 0.106684 0.132619 0.225247
2479 2 0.124846 0.120283 0.213283
2481 4 0.143008 0.107947 0.201319
722 4 0.176387 0.0935533 0.22052
1701 4 0.188322 0.0984764 0.236616
688 2 0.190986 0.155607 0.186161
689 4 0.194117 0.150359 0.210406
1699 2 0.197435 0.116948 0.222441
1700 4 0.206548 0.13542 0.208266
462 4 0.262771 0.114867 0.1606
528 4 0.25403 0.129795 0.170437
526 2 0.257511 0.147538 0.187707
527 4 0.260993 0.165282 0.204976
331 2 0.382535 0.121698 0.203743
333 4 0.364444 0.11401 0.219197
2769 4 0.352803 0.103086 0.230858
332 4 0.400625 0.129385 0.188289
1761 4 0.420078 0.126303 0.183505
1759 2 0.424839 0.104828 0.171617
401 4 0.245703 0.239648 0.187315
339 4 0.239352 0.230873 0.171552
624 4 0.26175 0.184295 0.213031
622 2 0.286239 0.188457 0.215878
623 4 0.310729 0.192619 0.218725
11 1 0.331304 0.218006 0.24243
13 3 0.32488 0.197694 0.233237
14 3 0.322946 0.23548 0.229655
253 2 0.356522 0.213784 0.167167
255 4 0.374753 0.226632 0.178467
629 4 0.391407 0.232622 0.167801
15 3 0.354023 0.219261 0.243395
612 4 0.34041 0.240533 0.221792
763 2 0.474104 0.191539 0.159717
764 4 0.456586 0.207623 0.16744
630 4 0.438967 0.217267 0.169548
628 2 0.415187 0.224945 0.168674
2717 4 0.0224183 0.321187 0.193282
546 4 0.0305348 0.307546 0.205687
544 2 0.0486433 0.291939 0.213014
545 4 0.0667519 0.276332 0.220341
617 4 0.0631912 0.282657 0.239024
400 2 0.237192 0.254609 0.205452
402 4 0.228682 0.269569 0.223588
343 2 0.237429 0.305333 0.233007
344 4 0.2332 0.288502 0.215006
345 4 0.241658 0.322164 0.251007
307 2 0.331765 0.302728 0.178606
309 4 0.318082 0.31981 0.166517
302 4 0.308894 0.336159 0.173213
308 4 0.345448 0.285645 0.190695
610 2 0.343051 0.254516 0.201233
611 4 0.345692 0.268499 0.180674
269 4 0.465191 0.311379 0.181912
268 2 0.484319 0.313379 0.197891
270 4 0.503447 0.315379 0.213869
704 4 0.0674486 0.400548 0.231254
620 4 0.0549675 0.415438 0.23214
619 2 0.0356236 0.416143 0.216313
703 2 0.0805517 0.409042 0.250782
290 4 0.171064 0.355495 0.197252
289 2 0.185665 0.355161 0.217547
291 4 0.200266 0.354828 0.237841
1790 4 0.206073 0.435506 0.195888
301 2 0.296153 0.35143 0.188367
303 4 0.283412 0.366701 0.203521
602 4 0.28021 0.383687 0.214096
601 2 0.270301 0.404747 0.223232
497 4 0.398985 0.408607 0.231485
496 2 0.409495 0.406093 0.208937
753 4 0.409648 0.416913 0.245983
498 4 0.420005 0.403579 0.186389
2619 4 0.0191201 0.429927 0.185991
1512 4 0.0177234 0.483337 0.215409
621 4 0.0162798 0.416848 0.200486
1510 2 0.0316415 0.490804 0.234792
1511 4 0.0455596 0.498271 0.254175
647 4 0.119376 0.434837 0.190972
646 2 0.114113 0.456696 0.180031
1767 4 0.15292 0.452032 0.183337
1791 4 0.244858 0.436743 0.22743
1765 2 0.173692 0.438131 0.184028
1789 2 0.225466 0.436124 0.211659
1766 4 0.194464 0.42423 0.184718
603 4 0.260392 0.425807 0.232368
608 4 0.293307 0.457809 0.184083
727 2 0.29724 0.468214 0.247402
607 2 0.316444 0.457002 0.193527
729 4 0.321655 0.468489 0.252788
728 4 0.272825 0.467939 0.242017
609 4 0.339582 0.456194 0.202971
543 4 0.356766 0.464281 0.193996
541 2 0.376936 0.476583 0.185811
542 4 0.397107 0.488884 0.177625
231 4 0.370451 0.493126 0.246382
1592 4 0.480906 0.495919 0.215676
713 4 0.459004 0.446527 0.165453
1872 4 0.481755 0.485788 0.232487
1772 4 0.142483 0.0135404 0.333591
1479 4 0.193458 0.00411895 0.302158
1404 4 0.211604 0.0110586 0.294895
1402 2 0.202043 0.0249426 0.276429
1403 4 0.192482 0.0388266 0.257962
1428 4 0.440355 0.0670126 0.323445
1426 2 0.443576 0.0784593 0.30145
1516 2 0.490598 0.0798254 0.33523
731 4 0.143669 0.118022 0.310547
730 2 0.126821 0.130504 0.324168
398 4 0.117692 0.162727 0.342438
1406 4 0.160928 0.121419 0.319935
1405 2 0.183826 0.120738 0.329955
411 4 0.168258 0.175618 0.27844
2767 2 0.357442 0.0874933 0.249845
2768 4 0.36208 0.0719003 0.268832
403 2 0.341067 0.162365 0.307443
404 4 0.357089 0.144332 0.300865
631 2 0.38959 0.157995 0.280031
633 4 0.3689 0.157607 0.294064
632 4 0.410281 0.158383 0.265997
1427 4 0.446796 0.089906 0.279455
1518 4 0.503093 0.0937569 0.318647
2837 4 0.504417 0.0839848 0.302526
392 4 0.011902 0.248854 0.288713
391 2 0.033471 0.245658 0.30095
393 4 0.05504 0.242461 0.313187
410 4 0.120386 0.161886 0.273917
409 2 0.144322 0.168752 0.276178
397 2 0.10962 0.185057 0.334603
2463 4 0.0931779 0.246506 0.279867
2461 2 0.0959037 0.22569 0.293448
2462 4 0.0986296 0.204874 0.307028
399 4 0.101547 0.207386 0.326768
489 4 0.181441 0.177233 0.293117
487 2 0.185738 0.201864 0.293275
677 4 0.201035 0.240679 0.30605
488 4 0.190034 0.226495 0.293434
405 4 0.325045 0.180398 0.31402
12 3 0.322718 0.219584 0.263713
312 4 0.36757 0.203367 0.243606
310 2 0.385501 0.216927 0.254551
641 4 0.331198 0.199137 0.315121
311 4 0.403432 0.230487 0.265496
761 4 0.406914 0.237481 0.284349
707 4 0.426334 0.165486 0.273951
706 2 0.446875 0.179742 0.273865
708 4 0.467415 0.193998 0.27378
2643 4 0.483884 0.200686 0.263926
2641 2 0.493172 0.185167 0.246662
515 4 0.484242 0.2536 0.26448
514 2 0.495035 0.253624 0.287034
2897 4 0.00518486 0.251364 0.269853
616 2 0.0683223 0.266416 0.257328
618 4 0.0734534 0.250174 0.275633
279 4 0.245269 0.310316 0.267064
277 2 0.243898 0.327141 0.285509
676 2 0.192652 0.260723 0.318424
278 4 0.242528 0.343966 0.303954
678 4 0.184268 0.280768 0.330798
760 2 0.410147 0.26204 0.287749
762 4 0.41338 0.286599 0.291149
2528 4 0.0134648 0.370493 0.269636
2527 2 0.013245 0.345663 0.27257
735 4 0.102472 0.400643 0.272779
733 2 0.126201 0.396856 0.279692
734 4 0.14993 0.393069 0.286605
417 4 0.164451 0.400458 0.275336
416 4 0.19547 0.371835 0.248517
415 2 0.17996 0.386147 0.261927
437 4 0.230692 0.345325 0.320609
436 2 0.234027 0.36953 0.325914
438 4 0.237362 0.393736 0.33122
667 2 0.332548 0.396211 0.313198
669 4 0.314589 0.413567 0.314381
668 4 0.350507 0.378854 0.312015
336 4 0.386394 0.365846 0.292263
334 2 0.407449 0.37324 0.303542
2923 2 0.499469 0.383339 0.331287
335 4 0.428504 0.380634 0.31482
118 3 0.43142 0.387625 0.333935
705 4 0.0936548 0.417536 0.270309
1861 2 0.160768 0.459064 0.327455
1862 4 0.136025 0.458993 0.323856
768 4 0.232889 0.429593 0.280764
1863 4 0.185511 0.459135 0.331054
766 2 0.243975 0.4453 0.264777
1429 2 0.289973 0.502777 0.309354
767 4 0.255061 0.461006 0.24879
1453 2 0.31896 0.447415 0.292112
1430 4 0.312472 0.492932 0.314049
1454 4 0.317162 0.433212 0.312611
1455 4 0.320758 0.461619 0.271613
751 2 0.409051 0.426441 0.269093
230 4 0.340631 0.460078 0.269169
1801 2 0.396017 0.476237 0.307538
1802 4 0.387939 0.497735 0.317427
752 4 0.408454 0.43597 0.292202
109 3 0.381027 0.50155 0.335105
229 2 0.355541 0.476602 0.257776
1803 4 0.404094 0.45474 0.29765
1376 4 0.050033 0.0831926 0.353406
1773 4 0.137026 0.0524324 0.364548
1771 2 0.139754 0.0329864 0.34907
2238 4 0.153938 0.0481495 0.374029
2236 2 0.16253 0.0642897 0.391083
2237 4 0.171123 0.0804299 0.408137
258 4 0.435915 0.0636994 0.34311
256 2 0.429287 0.0401501 0.348276
257 4 0.422659 0.0166008 0.353442
1031 4 0.419908 0.0100128 0.37151
1517 4 0.478103 0.0658939 0.351812
1030 2 0.43016 0.00859976 0.394271
2662 2 0.487653 0.0216351 0.34879
2663 4 0.484036 0.0462141 0.351613
1377 4 0.0377437 0.12907 0.369055
317 4 0.0362676 0.136701 0.387036
316 2 0.0251193 0.144038 0.40818
1375 2 0.0438883 0.106132 0.361231
732 4 0.109973 0.142986 0.337789
1407 4 0.206725 0.120056 0.339974
684 4 0.217774 0.134377 0.34897
682 2 0.234617 0.132272 0.36733
683 4 0.25146 0.130167 0.385689
474 4 0.26815 0.142108 0.39002
472 2 0.276196 0.139379 0.413535
717 4 0.492746 0.0801715 0.407521
640 2 0.329554 0.219403 0.329673
642 4 0.327909 0.23967 0.344225
588 4 0.299683 0.195229 0.392158
586 2 0.283189 0.195796 0.41094
431 4 0.252711 0.210005 0.427631
2667 4 0.0107105 0.290809 0.400952
1221 4 0.147306 0.287046 0.37537
1220 4 0.11785 0.246635 0.375309
1219 2 0.132578 0.26684 0.37534
383 4 0.144996 0.304857 0.385204
382 2 0.159459 0.306015 0.405567
389 4 0.190419 0.290874 0.34682
388 2 0.203367 0.311233 0.353381
390 4 0.216316 0.331591 0.359941
5 3 0.324657 0.319406 0.387033
615 4 0.328509 0.317527 0.408087
3 3 0.307284 0.335015 0.3575
1 1 0.312558 0.337362 0.379974
613 2 0.351394 0.307983 0.411302
266 4 0.42712 0.26404 0.423414
679 2 0.0399101 0.370004 0.377059
680 4 0.0551504 0.389697 0.379315
681 4 0.0246697 0.35031 0.374804
408 4 0.0728471 0.397406 0.385631
502 2 0.142973 0.380652 0.373639
504 4 0.141202 0.399975 0.389409
503 4 0.144744 0.36133 0.357869
414 4 0.223587 0.396738 0.344447
412 2 0.232445 0.418934 0.3518
4 3 0.324684 0.356869 0.383269
2 3 0.29305 0.338595 0.392101
445 2 0.280265 0.376931 0.403854
446 4 0.28118 0.352109 0.400988
434 4 0.370481 0.398187 0.394065
2924 4 0.474975 0.387927 0.33332
119 3 0.465416 0.385113 0.350737
116 1 0.44657 0.39834 0.347866
120 3 0.436909 0.402587 0.368048
926 4 0.434704 0.389939 0.382892
925 2 0.439515 0.404872 0.402361
406 2 0.0867952 0.418099 0.387181
1758 4 0.125648 0.462148 0.340418
407 4 0.100743 0.438793 0.388732
1757 4 0.103282 0.45894 0.38503
1756 2 0.114465 0.460544 0.362724
413 4 0.241303 0.441129 0.359153
1436 4 0.25331 0.457326 0.362457
1587 4 0.296376 0.460429 0.364117
1435 2 0.266478 0.449806 0.382337
1437 4 0.279646 0.442286 0.402218
1585 2 0.318947 0.466538 0.355263
1586 4 0.341519 0.472647 0.346409
108 3 0.349102 0.48982 0.352065
1741 2 0.431522 0.461367 0.410791
1743 4 0.428062 0.485544 0.405436
117 3 0.452847 0.418218 0.338138
1799 4 0.017106 0.0724958 0.488269
687 4 0.0856083 0.0216128 0.4729
429 4 0.0789305 0.00472844 0.48107
1271 4 0.0116303 0.0546483 0.497439
685 2 0.0950831 0.0444432 0.469134
686 4 0.104558 0.0672736 0.465369
319 2 0.191947 0.00781957 0.485551
1782 4 0.190114 0.0721608 0.431994
1780 2 0.190226 0.049846 0.443273
1781 4 0.190339 0.0275312 0.454552
320 4 0.200067 0.0271146 0.471878
1032 4 0.440412 0.0071867 0.417032
1798 2 0.00518676 0.0783439 0.467081
318 4 0.0139709 0.151375 0.429324
2585 4 0.0230988 0.161988 0.442577
1601 4 0.0959163 0.0774228 0.480111
1059 4 0.188572 0.114517 0.423885
1058 4 0.229675 0.112828 0.452319
1057 2 0.209124 0.113672 0.438102
473 4 0.284243 0.13665 0.437051
340 2 0.303688 0.137395 0.464421
342 4 0.298509 0.124932 0.443373
341 4 0.308867 0.149859 0.485469
1152 4 0.308514 0.160935 0.502257
716 4 0.495939 0.115824 0.442441
715 2 0.494342 0.0979978 0.424981
1034 4 0.0356233 0.178524 0.480541
2584 2 0.00420643 0.177363 0.448224
576 4 0.201621 0.226061 0.46436
432 4 0.208756 0.226594 0.444763
574 2 0.211476 0.221371 0.486856
430 2 0.230734 0.2183 0.436197
587 4 0.266694 0.196364 0.429723
466 2 0.387298 0.24898 0.463806
468 4 0.392355 0.230559 0.479938
3159 4 0.389747 0.220742 0.49793
3106 2 0.00948273 0.315666 0.477884
2665 2 0.0164192 0.30971 0.416293
2666 4 0.022128 0.32861 0.431634
570 4 0.144658 0.256641 0.479315
384 4 0.173922 0.307173 0.425931
510 4 0.168859 0.324321 0.435019
930 4 0.213424 0.325824 0.499369
928 2 0.215196 0.335723 0.476477
614 4 0.37428 0.298439 0.414517
267 4 0.394734 0.301139 0.414723
467 4 0.38224 0.267401 0.447673
265 2 0.410927 0.282589 0.419068
378 4 0.415399 0.268578 0.466317
376 2 0.436312 0.279917 0.474017
377 4 0.457225 0.291255 0.481716
2457 4 0.452951 0.305092 0.496222
1383 4 0.0964091 0.339157 0.464844
509 4 0.157618 0.35476 0.473069
508 2 0.163238 0.33954 0.454044
1381 2 0.1016 0.359231 0.478817
1382 4 0.106791 0.379306 0.49279
710 4 0.159221 0.345848 0.49068
1821 4 0.223896 0.409104 0.424079
929 4 0.216969 0.345621 0.453584
447 4 0.27935 0.401753 0.406721
585 4 0.296654 0.404989 0.417178
651 4 0.383509 0.344792 0.472454
812 4 0.369654 0.334926 0.486259
650 4 0.378736 0.392436 0.458031
433 2 0.36796 0.396338 0.418873
435 4 0.365439 0.394489 0.44368
649 2 0.381123 0.368614 0.465243
499 2 0.159668 0.480465 0.462007
501 4 0.138752 0.485243 0.449167
1820 4 0.238754 0.456328 0.431142
500 4 0.180584 0.475687 0.474847
1819 2 0.231325 0.432716 0.42761
583 2 0.289945 0.423397 0.432711
1555 2 0.272761 0.479199 0.447028
584 4 0.283235 0.441806 0.448244
1556 4 0.252574 0.468979 0.436387
927 4 0.444326 0.419805 0.42183
3602 4 0.444271 0.458371 0.455095
3601 2 0.452871 0.471818 0.474341
1742 4 0.434982 0.43719 0.416147
3603 4 0.461471 0.485266 0.493587
458 4 0.0166583 0.0700016 0.567284
1155 4 0.0709662 0.0708751 0.584058
457 2 0.0405138 0.0773907 0.568506
3044 4 0.00331047 0.066382 0.5819
1283 4 0.149397 0.0866856 0.566072
4464 4 0.322084 0.0166329 0.559865
2196 4 0.333413 0.0330454 0.555256
2194 2 0.350594 0.0483512 0.565039
2195 4 0.367776 0.0636569 0.574822
459 4 0.0643693 0.0847798 0.569728
1200 4 0.0216327 0.157208 0.549957
1128 4 0.0060668 0.148595 0.55885
1282 2 0.131556 0.0938936 0.550106
824 4 0.157411 0.105875 0.570161
1284 4 0.113715 0.101102 0.53414
1602 4 0.0967367 0.0998897 0.524779
1600 2 0.0963265 0.0886562 0.502445
823 2 0.181544 0.103363 0.576199
2131 2 0.237374 0.0893497 0.561361
2133 4 0.214996 0.0863876 0.572114
825 4 0.205677 0.100852 0.582238
2132 4 0.259752 0.0923118 0.550607
1150 2 0.300807 0.144385 0.519341
1151 4 0.293101 0.127835 0.536426
893 4 0.285226 0.168157 0.572421
604 2 0.381538 0.154544 0.558368
605 4 0.387694 0.135674 0.573574
1198 2 0.017091 0.180043 0.559074
1035 4 0.0332013 0.176449 0.530446
1033 2 0.0344123 0.177486 0.505493
3275 4 0.998042 0.207159 0.582095
1199 4 0.0125494 0.202878 0.568191
696 4 0.154298 0.257834 0.533053
569 4 0.170892 0.255863 0.521882
568 2 0.157775 0.256252 0.500598
575 4 0.22133 0.216682 0.509352
857 4 0.306307 0.215494 0.545294
275 4 0.30823 0.229332 0.558928
856 2 0.295455 0.193262 0.548923
858 4 0.284603 0.17103 0.552552
274 2 0.318537 0.252089 0.55995
606 4 0.375381 0.173414 0.543163
3158 4 0.387013 0.181367 0.528636
3157 2 0.38838 0.201054 0.513283
325 2 0.0544685 0.303895 0.505071
326 4 0.032257 0.312622 0.512533
3108 4 0.0291253 0.313272 0.493168
327 4 0.0766801 0.295169 0.497609
694 2 0.143157 0.258062 0.555437
261 4 0.0923341 0.298163 0.510129
259 2 0.107094 0.312105 0.524722
260 4 0.121855 0.326046 0.539315
896 4 0.118071 0.331616 0.557723
695 4 0.132016 0.25829 0.57782
276 4 0.328844 0.274847 0.560971
635 4 0.34788 0.277339 0.56812
634 2 0.358404 0.288978 0.548654
636 4 0.368928 0.300617 0.529187
813 4 0.381074 0.316429 0.531294
811 2 0.375364 0.325678 0.508776
2455 2 0.45501 0.327515 0.507093
897 4 0.0857619 0.361255 0.581773
895 2 0.101916 0.346435 0.569748
373 2 0.10984 0.406163 0.506264
374 4 0.109514 0.381709 0.511464
1190 4 0.241066 0.377388 0.538512
1189 2 0.216828 0.371629 0.536386
1191 4 0.19259 0.36587 0.53426
711 4 0.17507 0.373268 0.52938
709 2 0.167146 0.359558 0.51003
772 2 0.313536 0.390228 0.561498
773 4 0.291017 0.381146 0.567464
791 4 0.282465 0.398537 0.566672
774 4 0.336054 0.39931 0.555532
239 4 0.350565 0.398852 0.54167
238 2 0.375528 0.400104 0.540978
240 4 0.40049 0.401356 0.540287
3309 4 0.415665 0.402185 0.528162
807 4 0.492814 0.342299 0.546805
3307 2 0.429529 0.381387 0.527535
2456 4 0.457069 0.349938 0.517963
805 2 0.470585 0.345561 0.557778
806 4 0.448356 0.348823 0.568751
3308 4 0.443394 0.360588 0.526907
375 4 0.110167 0.430618 0.501064
1446 4 0.100903 0.436617 0.516998
1444 2 0.100126 0.459449 0.52716
1445 4 0.0993479 0.482281 0.537323
1237 2 0.2371 0.458667 0.536964
1239 4 0.224806 0.474658 0.522187
1238 4 0.249393 0.442677 0.55174
792 4 0.24723 0.43395 0.568934
882 4 0.22761 0.494497 0.521259
790 2 0.264848 0.416244 0.567803
2142 4 0.384718 0.471328 0.570515
1269 4 0.381408 0.488131 0.559163
1698 4 0.475039 0.480991 0.508925
1696 2 0.487686 0.500826 0.517399
919 2 0.187957 0.0186297 0.647124
920 4 0.196485 0.998591 0.63484
912 4 0.181958 0.0583427 0.660338
910 2 0.180665 0.0832888 0.661433
43 3 0.299674 0.0478324 0.647199
45 3 0.32004 0.0235912 0.626821
41 1 0.313967 0.0454237 0.629079
44 3 0.303513 0.0527763 0.609713
42 3 0.332764 0.0581834 0.632686
938 4 0.2842 0.0585381 0.637132
937 2 0.277305 0.0792959 0.649246
798 4 0.310756 0.0636654 0.591078
950 4 0.337281 0.0153392 0.632481
949 2 0.349877 0.00950151 0.653276
4581 4 0.414413 0.0684066 0.646023
3269 4 0.397322 0.0784063 0.645535
3268 2 0.373738 0.0703219 0.643624
3270 4 0.350155 0.0622375 0.641713
1164 4 0.368046 0.0755085 0.591509
3436 2 0.490231 0.0463079 0.651331
4579 2 0.436588 0.0575962 0.641952
4580 4 0.458764 0.0467858 0.63788
3437 4 0.467989 0.0348992 0.651868
2989 2 0.0143534 0.111006 0.642706
2991 4 0.0370251 0.112997 0.653061
3043 2 0.994279 0.0817855 0.599403
1154 4 0.0958992 0.088857 0.6235
1153 2 0.0834327 0.079866 0.603779
2374 2 0.113289 0.108251 0.653573
2376 4 0.111012 0.101213 0.629689
1227 4 0.1497 0.148705 0.619248
1225 2 0.162832 0.131214 0.631365
1226 4 0.175964 0.113724 0.643482
911 4 0.179372 0.108235 0.662528
1131 4 0.254145 0.111142 0.665722
1129 2 0.255992 0.135572 0.660729
1130 4 0.257839 0.160003 0.655736
894 4 0.301678 0.126273 0.594234
797 4 0.293282 0.1104 0.587722
796 2 0.302019 0.0870327 0.5894
892 2 0.293452 0.147215 0.583328
939 4 0.270411 0.100054 0.66136
1003 2 0.330331 0.14868 0.662085
1163 4 0.373786 0.124363 0.582511
1162 2 0.370916 0.0999358 0.58701
1005 4 0.341519 0.126319 0.661991
4465 2 0.472406 0.163469 0.598716
4466 4 0.481342 0.141906 0.607683
49 3 0.48675 0.132155 0.591623
850 2 0.0424578 0.233136 0.636342
851 4 0.0613111 0.232131 0.652735
852 4 0.0236045 0.234142 0.619949
3276 4 0.0136282 0.247162 0.607738
3039 4 0.0721789 0.248284 0.656694
3274 2 0.00583518 0.227161 0.594916
1260 4 0.0972336 0.180504 0.644402
1259 4 0.118139 0.22488 0.634687
1245 4 0.137436 0.236134 0.634237
1243 2 0.136494 0.251788 0.614763
1258 2 0.107686 0.202692 0.639545
1004 4 0.319144 0.171041 0.662179
4467 4 0.463471 0.185031 0.58975
3037 2 0.0740282 0.272841 0.661021
982 2 0.0656783 0.325559 0.645896
984 4 0.0586752 0.30622 0.660114
1244 4 0.135551 0.267443 0.595289
1192 2 0.449146 0.317675 0.632492
1193 4 0.447527 0.322138 0.657041
1194 4 0.450765 0.313212 0.607943
10 3 0.0350524 0.346364 0.60094
8 3 0.0617094 0.359034 0.624319
6 1 0.0524189 0.360932 0.603141
9 3 0.0450274 0.382648 0.599651
7 3 0.0685182 0.355949 0.587484
983 4 0.0726814 0.344898 0.631679
878 4 0.128405 0.332936 0.662899
1137 4 0.140559 0.348848 0.658817
4485 4 0.472849 0.379751 0.663138
1001 4 0.30042 0.475402 0.618288
1000 2 0.300057 0.483699 0.641872
2140 2 0.377487 0.455035 0.588049
663 4 0.344203 0.467291 0.657992
661 2 0.35203 0.451287 0.640448
2141 4 0.370255 0.438743 0.605583
662 4 0.359857 0.435282 0.622905
1083 4 0.0633328 0.0839701 0.705437
2049 4 0.16444 0.0506941 0.74577
1202 4 0.146218 0.0496307 0.754179
921 4 0.179429 0.0386684 0.659409
2047 2 0.185419 0.0394747 0.738079
2231 4 0.202249 0.0116026 0.740051
2048 4 0.206399 0.0282552 0.730387
1082 4 0.0402103 0.0946902 0.662412
1081 2 0.0517716 0.0893301 0.683924
2375 4 0.115567 0.115288 0.677458
1090 2 0.325755 0.0947695 0.737231
1091 4 0.321794 0.105059 0.71479
1143 4 0.257411 0.14617 0.702419
1141 2 0.279869 0.151873 0.711815
1212 4 0.321917 0.16028 0.719753
1142 4 0.302327 0.157576 0.721211
1208 4 0.168315 0.243818 0.719652
1029 4 0.250566 0.250795 0.72341
1210 2 0.32494 0.185077 0.718697
1211 4 0.327963 0.209875 0.717641
907 2 0.333361 0.232503 0.694357
909 4 0.317023 0.214936 0.701402
3038 4 0.0758775 0.297397 0.665349
877 2 0.139989 0.313206 0.672983
879 4 0.151573 0.293475 0.683068
1209 4 0.144961 0.276006 0.689333
1207 2 0.156638 0.259912 0.704492
947 4 0.235417 0.263956 0.721953
948 4 0.188597 0.246799 0.718178
946 2 0.212007 0.255377 0.720065
1027 2 0.266053 0.26971 0.728659
1028 4 0.28154 0.288624 0.733909
1230 4 0.282562 0.293788 0.715138
1228 2 0.291808 0.309856 0.69836
1229 4 0.301054 0.325924 0.681582
1234 2 0.318805 0.286392 0.743897
908 4 0.3497 0.25007 0.687311
1236 4 0.327725 0.278186 0.722027
1098 4 0.423504 0.334661 0.691012
1165 2 0.497119 0.307488 0.732096
1167 4 0.475675 0.308353 0.719267
1097 4 0.456748 0.30431 0.712792
1096 2 0.440126 0.319485 0.701902
4480 2 0.00458105 0.399965 0.713218
4482 4 0.0278659 0.400031 0.704108
538 2 0.0680196 0.399278 0.722304
539 4 0.0461739 0.400372 0.71019
540 4 0.0898652 0.398184 0.734418
935 4 0.109944 0.402129 0.738743
1135 2 0.14584 0.367393 0.674734
1136 4 0.151122 0.385939 0.690651
934 2 0.122849 0.391124 0.720371
936 4 0.135754 0.380119 0.701999
1187 4 0.209939 0.417449 0.711078
1160 4 0.191391 0.410002 0.708967
1159 2 0.178548 0.394147 0.723419
1161 4 0.165705 0.378291 0.73787
2988 4 0.30493 0.343009 0.690016
2986 2 0.32448 0.358103 0.693906
1064 4 0.363454 0.356352 0.669999
1065 4 0.403682 0.335394 0.691052
1063 2 0.383568 0.345873 0.680526
2987 4 0.34403 0.373198 0.697796
1139 4 0.355578 0.378335 0.712844
1138 2 0.375929 0.377918 0.727364
1140 4 0.39628 0.377501 0.741884
1020 4 0.491662 0.37306 0.668396
4483 2 0.458866 0.400067 0.667251
2106 4 0.00701412 0.485688 0.673225
1186 2 0.231653 0.429787 0.709863
1188 4 0.253366 0.442126 0.708648
890 4 0.259276 0.462463 0.706564
1002 4 0.299694 0.491995 0.665457
891 4 0.281152 0.491232 0.672003
889 2 0.270214 0.476848 0.689283
1952 4 0.338062 0.462396 0.676465
1953 4 0.341516 0.437347 0.719608
1951 2 0.339789 0.449872 0.698036
4213 2 0.496003 0.437963 0.719937
1251 4 0.460597 0.475923 0.654408
1249 2 0.448316 0.457028 0.66524
4484 4 0.444883 0.420384 0.671364
1250 4 0.436034 0.438132 0.676071
4214 4 0.482598 0.435324 0.698997
1185 4 0.0599646 0.0209671 0.770235
1183 2 0.081748 0.00869249 0.770219
2114 4 0.0508378 0.0376956 0.771292
2113 2 0.0625552 0.0597338 0.772775
1184 4 0.103531 0.996418 0.770203
1203 4 0.117497 0.0105013 0.766207
1201 2 0.131858 0.030066 0.760193
830 4 0.193739 0.0691043 0.806653
829 2 0.214357 0.082976 0.803888
1105 2 0.160063 0.0778569 0.785198
1106 4 0.180311 0.0645958 0.791472
1085 4 0.329386 0.0671146 0.769805
975 4 0.297899 0.0537256 0.821791
1084 2 0.322929 0.0599612 0.792876
1086 4 0.316471 0.0528077 0.815948
2064 4 0.527291 0.0168608 0.829059
2197 2 0.440102 0.0110236 0.826789
1144 2 0.445452 0.0728885 0.817178
3296 4 0.0273409 0.17386 0.76672
3295 2 0.00896482 0.159586 0.775872
2115 4 0.0742725 0.081772 0.774259