ITEM: TIMESTEP
1540000
ITEM: NUMBER OF ATOMS
4590
ITEM: BOX BOUNDS pp pp pp
-9.9985700000000008e+00 9.9985700000000008e+00
-9.9985700000000008e+00 9.9985700000000008e+00
-9.9985700000000008e+00 9.9985700000000008e+00
ITEM: ATOMS id type xs ys zs
1677 4 0.0144079 0.0330946 0.0573772
1675 2 0.0393181 0.03102 0.0567793
1676 4 0.0642283 0.0289454 0.0561815
1667 4 0.0817809 0.0337481 0.0467392
1666 2 0.0878973 0.0156823 0.0305715
1668 4 0.0940136 0.997616 0.0144038
3234 4 0.135788 0.0799345 0.00296482
236 4 0.188272 0.0814634 0.00782978
1684 2 0.198242 0.00039782 0.0194135
1686 4 0.203771 0.0179605 0.00249724
235 2 0.179874 0.0821276 0.0313716
490 2 0.284846 0.0812937 0.0204599
492 4 0.307712 0.0730711 0.0145703
759 4 0.408951 0.0313665 0.0425925
758 4 0.449242 0.0320566 0.0129815
1827 4 0.457745 0.0485672 0.0192357
1109 4 0.458269 0.0116453 0.0715538
1825 2 0.479988 0.0562812 0.0276561
1108 2 0.462997 0.0359236 0.0752127
757 2 0.429097 0.0317115 0.027787
1110 4 0.467725 0.0602019 0.0788715
1826 4 0.502232 0.0639951 0.0360765
702 4 0.0110246 0.13514 0.0527221
700 2 0.0243995 0.131518 0.0735349
3232 2 0.119917 0.0989835 0.0061945
3233 4 0.104046 0.118032 0.00942419
1037 4 0.108774 0.136917 0.0162928
237 4 0.171476 0.0827917 0.0549135
421 2 0.16026 0.103422 0.0815148
1036 2 0.121812 0.156299 0.00737475
423 4 0.180022 0.0939696 0.0694602
2162 4 0.242641 0.15153 0.0127134
55 3 0.223178 0.148745 0.0153431
1023 4 0.311896 0.082771 0.998738
491 4 0.261979 0.0895163 0.0263494
2161 2 0.254414 0.129648 0.0154986
2163 4 0.266187 0.107767 0.0182838
986 4 0.420252 0.142843 0.00544452
985 2 0.439411 0.128553 0.0127849
296 4 0.464698 0.159308 0.0823882
295 2 0.469676 0.13511 0.0862455
987 4 0.45857 0.114262 0.0201254
554 4 0.109237 0.252538 0.0506021
51 1 0.218105 0.170353 0.010242
54 3 0.201892 0.178328 0.024801
360 4 0.248109 0.169331 0.0208665
53 3 0.237169 0.183505 0.0116435
358 2 0.269846 0.178331 0.0293331
359 4 0.291583 0.18733 0.0377996
352 2 0.391247 0.193644 0.0560532
353 4 0.370225 0.202259 0.066496
354 4 0.412268 0.185029 0.0456105
558 4 0.457776 0.1752 0.0744971
324 4 0.463156 0.228233 0.0451232
557 4 0.468901 0.209805 0.0401535
556 2 0.463338 0.192502 0.0573253
322 2 0.456595 0.252314 0.0436292
835 2 0.0363327 0.297384 0.0246652
837 4 0.0198106 0.291303 0.0069106
836 4 0.0528548 0.303465 0.0424198
456 4 0.0641499 0.31983 0.0462241
2835 4 0.0716662 0.28985 0.0812761
553 2 0.0900837 0.261196 0.0641435
741 4 0.191768 0.255915 0.082703
739 2 0.196815 0.267341 0.0610429
740 4 0.201862 0.278767 0.0393827
914 4 0.204673 0.298507 0.0416277
913 2 0.216216 0.317562 0.0529779
385 2 0.298689 0.28875 0.0699409
483 4 0.284698 0.280143 0.0316575
387 4 0.299236 0.285357 0.0451747
481 2 0.282059 0.298175 0.0145382
659 4 0.346511 0.333703 0.0635879
323 4 0.450034 0.276395 0.0421353
3335 4 0.469159 0.280773 0.0511893
3334 2 0.470032 0.305311 0.05591
3336 4 0.470905 0.32985 0.0606307
454 2 0.0630697 0.343417 0.0379982
1102 2 0.076305 0.394187 0.0108671
455 4 0.0619894 0.367004 0.0297723
1103 4 0.075379 0.369507 0.014763
1779 4 0.14855 0.412976 0.053273
915 4 0.227759 0.336617 0.0643282
955 2 0.250027 0.390528 0.0188276
781 2 0.300629 0.366856 0.0271376
782 4 0.291352 0.389836 0.030465
956 4 0.271424 0.394063 0.0312716
783 4 0.309905 0.343877 0.0238102
1094 4 0.325713 0.341215 0.011357
1046 4 0.35155 0.342587 0.0457907
1045 2 0.369014 0.349905 0.0294617
1047 4 0.386477 0.357224 0.0131328
3213 4 0.490056 0.333192 0.0566103
1104 4 0.0772309 0.418868 0.00697122
1439 4 0.0765796 0.484113 0.0249943
1692 4 0.0774115 0.473132 0.00735564
1222 2 0.12584 0.417819 0.0160633
1223 4 0.140097 0.420344 0.0364484
1778 4 0.164729 0.453807 0.0771847
1777 2 0.156639 0.433392 0.0652289
1438 2 0.0930062 0.496392 0.0392973
1440 4 0.109433 0.508671 0.0536003
273 4 0.263323 0.477507 0.00470528
2566 2 0.384137 0.493875 0.0276347
2568 4 0.359892 0.490717 0.0224021
2288 4 0.351586 0.506821 0.0295685
228 4 0.446599 0.511347 0.0521961
20 3 0.0301068 0.04924 0.159895
2799 4 0.0118202 0.0422658 0.153003
17 3 0.050602 0.0792419 0.151367
1565 4 0.0982683 0.995246 0.097171
247 2 0.19026 0.0895761 0.129686
248 4 0.168218 0.0810512 0.121523
21 1 0.340917 0.0228664 0.154036
25 3 0.33693 0.0193289 0.131895
461 4 0.289204 0.0808992 0.161691
1542 4 0.377648 0.00444239 0.159017
573 4 0.354891 0.063521 0.156274
24 3 0.359259 0.0104031 0.160867
23 3 0.34479 0.0454194 0.157879
1540 2 0.400125 0.996947 0.151031
29 3 0.474841 0.0781692 0.0791474
28 3 0.464149 0.0714361 0.114991
30 3 0.500656 0.0716977 0.105781
380 4 0.0285394 0.12317 0.110184
379 2 0.0329437 0.102854 0.124079
381 4 0.0373481 0.0825391 0.137974
701 4 0.0377743 0.127895 0.0943477
372 4 0.126339 0.118445 0.106355
422 4 0.140499 0.112875 0.0935693
370 2 0.12413 0.116948 0.131216
371 4 0.121921 0.115451 0.156077
249 4 0.212303 0.0981009 0.13785
690 4 0.223094 0.0909656 0.15464
565 2 0.267036 0.148765 0.103532
567 4 0.277288 0.129793 0.0908762
581 4 0.296912 0.130924 0.093983
462 4 0.29651 0.129742 0.153835
580 2 0.317168 0.124325 0.107073
460 2 0.292857 0.105321 0.157763
571 2 0.344767 0.0817387 0.142461
572 4 0.334643 0.0999564 0.128648
582 4 0.337423 0.117726 0.120163
26 1 0.480362 0.0810993 0.101493
27 3 0.481342 0.103632 0.106018
297 4 0.474654 0.110912 0.0901028
465 4 0.125015 0.163336 0.134349
463 2 0.133685 0.18167 0.148973
566 4 0.256784 0.167736 0.116188
357 4 0.359728 0.200974 0.0834664
355 2 0.362715 0.224579 0.0911494
356 4 0.365703 0.248185 0.0988325
763 2 0.466099 0.213522 0.151839
765 4 0.482853 0.199393 0.139803
764 4 0.449346 0.227651 0.163875
555 4 0.07093 0.269853 0.0776849
2807 4 0.0451476 0.283385 0.142757
2834 4 0.0454183 0.287729 0.123788
2833 2 0.0585423 0.288789 0.102532
2806 2 0.0578343 0.28142 0.164213
298 2 0.152301 0.304876 0.105714
300 4 0.13432 0.319281 0.095999
299 4 0.170281 0.290471 0.115429
386 4 0.298142 0.292144 0.0947071
246 4 0.281069 0.296589 0.104808
244 2 0.268988 0.293694 0.126507
245 4 0.256907 0.290798 0.148206
254 4 0.360454 0.256803 0.116101
253 2 0.377778 0.258016 0.134089
255 4 0.395103 0.259229 0.152077
520 2 0.362977 0.322915 0.13712
629 4 0.411126 0.26361 0.140505
522 4 0.37164 0.325773 0.11384
521 4 0.354314 0.320058 0.1604
628 2 0.427662 0.25431 0.156791
536 4 0.0533289 0.374166 0.0930957
535 2 0.0372309 0.377445 0.111945
537 4 0.021133 0.380724 0.130793
2541 4 0.00234348 0.371375 0.131505
737 4 0.105536 0.390752 0.0946644
362 4 0.11486 0.379997 0.109426
361 2 0.117139 0.355137 0.108026
363 4 0.119418 0.330277 0.106627
736 2 0.0938821 0.412725 0.0972205
756 4 0.218103 0.352694 0.0721159
754 2 0.207767 0.372332 0.0836351
755 4 0.197431 0.39197 0.0951544
1619 4 0.21143 0.407393 0.0982686
658 2 0.357865 0.33913 0.0851937
660 4 0.369219 0.344557 0.106799
608 4 0.342286 0.409438 0.163312
738 4 0.0822277 0.434699 0.0997765
524 4 0.171267 0.472788 0.0846996
646 2 0.109226 0.477859 0.15138
523 2 0.152368 0.478718 0.0999592
525 4 0.13347 0.484648 0.115219
647 4 0.122375 0.486987 0.132172
1618 2 0.230918 0.419668 0.108001
1620 4 0.250406 0.431943 0.117733
507 4 0.261603 0.441415 0.104267
505 2 0.285118 0.433616 0.100896
506 4 0.308634 0.425816 0.0975258
287 4 0.328729 0.41986 0.102871
286 2 0.340221 0.419067 0.125063
1575 4 0.344993 0.479849 0.154242
288 4 0.351713 0.418274 0.147255
2650 2 0.459558 0.477305 0.130082
2652 4 0.448564 0.494791 0.115992
2651 4 0.470552 0.459819 0.144172
714 4 0.462141 0.454077 0.161224
675 4 0.041634 0.989963 0.193318
16 1 0.0386656 0.0687317 0.167987
589 2 0.00337583 0.00668336 0.187442
18 3 0.0528729 0.0643484 0.185801
512 4 0.0448167 0.0643333 0.204957
19 3 0.0214489 0.0826984 0.174836
283 2 0.107604 0.0153349 0.232606
721 2 0.131332 0.0671291 0.242335
284 4 0.11063 0.0299267 0.252683
688 2 0.224221 0.0881184 0.179455
689 4 0.225348 0.0852712 0.20427
22 3 0.322523 0.0163034 0.166191
1506 4 0.276563 0.0233433 0.195224
1505 4 0.277817 0.0698122 0.176791
1504 2 0.27719 0.0465777 0.186007
1850 4 0.311757 0.0181813 0.183046
743 4 0.442354 0.086338 0.178472
742 2 0.440671 0.0621176 0.184448
744 4 0.438989 0.0378972 0.190425
654 4 0.439149 0.0232769 0.203538
652 2 0.457251 0.0119693 0.216563
653 4 0.475352 0.000661659 0.229588
511 2 0.0383672 0.0798951 0.223435
513 4 0.0319176 0.095457 0.241912
693 4 0.0387584 0.0964967 0.260878
578 4 0.122629 0.124128 0.174338
722 4 0.147618 0.086076 0.241366
1701 4 0.154358 0.102292 0.231836
577 2 0.112674 0.12618 0.197182
579 4 0.102719 0.128232 0.220027
2480 4 0.113878 0.121576 0.234744
1699 2 0.177248 0.110817 0.22649
1700 4 0.200137 0.119342 0.221144
528 4 0.307392 0.134773 0.169855
526 2 0.330798 0.14326 0.172152
527 4 0.354205 0.151746 0.174449
331 2 0.361479 0.0944109 0.216961
332 4 0.378711 0.0947226 0.198846
1761 4 0.382897 0.112258 0.189433
2769 4 0.34597 0.107781 0.248626
333 4 0.344246 0.0940991 0.235075
1759 2 0.406302 0.107038 0.182353
1760 4 0.429707 0.101818 0.175273
2898 4 0.0211991 0.225633 0.236979
395 4 0.0333392 0.236573 0.224426
464 4 0.142355 0.200005 0.163596
476 4 0.159987 0.210127 0.163979
475 2 0.167414 0.219603 0.185893
338 4 0.216398 0.247771 0.198617
477 4 0.174842 0.229079 0.207807
337 2 0.23548 0.234711 0.189106
401 4 0.185284 0.245566 0.211329
339 4 0.254563 0.221651 0.179595
14 3 0.337624 0.2538 0.233195
624 4 0.358978 0.169059 0.182109
622 2 0.351469 0.183578 0.201029
623 4 0.34396 0.198097 0.219949
13 3 0.342451 0.217183 0.224233
11 1 0.344992 0.233174 0.240854
312 4 0.384785 0.227524 0.237045
15 3 0.366867 0.234543 0.247039
630 4 0.444199 0.245011 0.173078
394 2 0.0489741 0.251115 0.211415
749 4 0.999184 0.304444 0.243059
396 4 0.0646089 0.265656 0.198405
2808 4 0.070521 0.279454 0.185669
748 2 0.999222 0.298136 0.218864
2718 4 0.997693 0.323982 0.244652
400 2 0.197572 0.26284 0.224589
402 4 0.209859 0.280113 0.237849
344 4 0.200877 0.298736 0.23578
610 2 0.315791 0.280277 0.214877
611 4 0.293794 0.290273 0.208443
612 4 0.337787 0.27028 0.221311
620 4 0.0599585 0.388155 0.238915
619 2 0.0555724 0.412519 0.235407
290 4 0.103298 0.350089 0.19561
289 2 0.125619 0.343998 0.186133
291 4 0.147941 0.337906 0.176656
416 4 0.161203 0.349029 0.189495
417 4 0.19358 0.386259 0.181348
1791 4 0.191533 0.406027 0.181057
415 2 0.177391 0.367644 0.185421
601 2 0.241874 0.391045 0.182293
603 4 0.217965 0.393322 0.189247
767 4 0.220462 0.396014 0.210329
602 4 0.265783 0.388769 0.175338
303 4 0.272579 0.392403 0.193848
301 2 0.297071 0.395746 0.197609
302 4 0.321563 0.399089 0.20137
308 4 0.355448 0.337771 0.171154
307 2 0.355433 0.362209 0.176445
309 4 0.355418 0.386646 0.181736
497 4 0.408614 0.374511 0.234464
496 2 0.418959 0.39326 0.221556
753 4 0.398378 0.381943 0.250665
498 4 0.429305 0.412009 0.208647
543 4 0.448567 0.412712 0.216187
541 2 0.471116 0.414213 0.226885
315 4 0.00165533 0.489494 0.207648
621 4 0.0511864 0.436884 0.231899
2619 4 0.0555764 0.454409 0.22523
2617 2 0.0705027 0.45815 0.205522
1512 4 0.00947247 0.497036 0.225289
648 4 0.0960763 0.468731 0.170588
2618 4 0.085429 0.461891 0.185815
1765 2 0.163703 0.489359 0.186058
1766 4 0.170409 0.465961 0.191777
1320 4 0.227837 0.497426 0.226183
1790 4 0.185915 0.455569 0.184899
1789 2 0.188724 0.430798 0.182978
766 2 0.220465 0.41495 0.226657
768 4 0.220467 0.433886 0.242985
728 4 0.291645 0.438475 0.248268
727 2 0.278098 0.458649 0.254154
644 4 0.358466 0.472632 0.168958
609 4 0.378066 0.424962 0.194611
607 2 0.360176 0.4172 0.178961
231 4 0.345491 0.474231 0.234569
643 2 0.357124 0.47597 0.193701
645 4 0.355783 0.479307 0.218445
712 2 0.484021 0.446289 0.170487
542 4 0.493665 0.415713 0.237584
723 4 0.115045 0.0481822 0.243305
1772 4 0.100907 0.0399905 0.344676
1426 2 0.405218 0.0599328 0.318876
1517 4 0.439428 0.0583472 0.289629
1516 2 0.460486 0.0657528 0.300893
1427 4 0.42464 0.0599016 0.303129
1518 4 0.481544 0.0731584 0.312158
2837 4 0.495717 0.0819303 0.300946
691 2 0.0351948 0.118209 0.272755
692 4 0.0316312 0.13992 0.284633
2479 2 0.118783 0.126141 0.258833
2481 4 0.123689 0.130706 0.282921
410 4 0.131183 0.144183 0.297193
409 2 0.154305 0.153003 0.293623
731 4 0.152292 0.096687 0.317935
397 2 0.0889715 0.14924 0.321103
732 4 0.11065 0.124163 0.321352
730 2 0.131471 0.110425 0.319643
398 4 0.0997085 0.132815 0.305608
411 4 0.177427 0.161824 0.290053
1407 4 0.215395 0.0940942 0.325469
1405 2 0.190663 0.0954163 0.328895
2767 2 0.323437 0.115473 0.25626
2768 4 0.300904 0.123164 0.263893
640 2 0.2543 0.154339 0.31448
641 4 0.271262 0.136813 0.308973
405 4 0.287628 0.146617 0.303911
403 2 0.311241 0.14282 0.311204
633 4 0.352984 0.137966 0.326877
404 4 0.334854 0.139023 0.318497
631 2 0.376243 0.130676 0.321302
632 4 0.399501 0.123386 0.315727
707 4 0.41056 0.139677 0.319761
706 2 0.433187 0.149152 0.314926
708 4 0.455815 0.158627 0.31009
399 4 0.0782344 0.165666 0.336599
2463 4 0.079759 0.225901 0.311876
2461 2 0.0764928 0.205141 0.325424
2462 4 0.0732266 0.184381 0.338972
618 4 0.0912941 0.241931 0.304177
487 2 0.178566 0.198048 0.314995
489 4 0.176984 0.175432 0.30445
642 4 0.237338 0.171864 0.319987
488 4 0.180148 0.220663 0.32554
677 4 0.197953 0.227448 0.32732
310 2 0.404079 0.226794 0.252932
12 3 0.332339 0.227049 0.259062
311 4 0.423373 0.226063 0.268818
2641 2 0.484344 0.171902 0.320013
762 4 0.452746 0.247213 0.292497
2643 4 0.459762 0.172794 0.324498
546 4 0.0097718 0.259193 0.268827
617 4 0.0762381 0.278208 0.273225
545 4 0.0551089 0.280245 0.270272
544 2 0.0324404 0.269719 0.269549
616 2 0.0837661 0.26007 0.288701
676 2 0.200008 0.252333 0.326015
343 2 0.216502 0.309762 0.251888
388 2 0.200723 0.316194 0.31341
389 4 0.210779 0.293541 0.316709
678 4 0.202063 0.277218 0.32471
345 4 0.232127 0.320788 0.267996
761 4 0.440277 0.294609 0.302441
269 4 0.428819 0.311905 0.304883
760 2 0.446511 0.270911 0.297469
268 2 0.445343 0.328501 0.313641
2528 4 0.00363706 0.385135 0.32503
704 4 0.0711859 0.376564 0.249982
703 2 0.0932344 0.382536 0.260149
735 4 0.132318 0.383046 0.280352
733 2 0.141547 0.400262 0.295961
705 4 0.115283 0.388509 0.270316
734 4 0.150776 0.417478 0.311569
279 4 0.238783 0.326366 0.286313
390 4 0.190666 0.338846 0.310111
277 2 0.256435 0.343914 0.28869
278 4 0.274087 0.361462 0.291067
669 4 0.312807 0.387478 0.324001
1454 4 0.305877 0.391676 0.304633
1453 2 0.307755 0.407819 0.285632
667 2 0.335019 0.375999 0.323868
751 2 0.382136 0.391168 0.267287
752 4 0.365894 0.400393 0.283908
1803 4 0.364478 0.406637 0.303549
668 4 0.357232 0.364521 0.323734
270 4 0.461867 0.345097 0.322399
2924 4 0.472738 0.358578 0.313511
729 4 0.26455 0.478823 0.260041
230 4 0.322771 0.437242 0.259396
1455 4 0.309634 0.423963 0.266631
1430 4 0.280804 0.488795 0.264165
229 2 0.334131 0.455736 0.246983
109 3 0.363867 0.472563 0.312733
1801 2 0.369537 0.431034 0.305637
1802 4 0.374595 0.455431 0.307726
106 1 0.362809 0.489234 0.328838
108 3 0.340684 0.494897 0.332936
2757 4 0.00162023 0.0576381 0.390507
1800 4 0.00779911 0.0464201 0.405449
1771 2 0.121286 0.0506719 0.354464
1773 4 0.141665 0.0613534 0.364251
2238 4 0.159186 0.0560666 0.356074
1376 4 0.104146 0.0743298 0.415643
2236 2 0.177055 0.0497711 0.372392
2237 4 0.194923 0.0434757 0.38871
1428 4 0.385796 0.059964 0.334624
258 4 0.371591 0.0737723 0.3393
257 4 0.356629 0.0428335 0.375627
256 2 0.36411 0.0583029 0.357463
1031 4 0.364854 0.0383626 0.392755
316 2 0.035211 0.127871 0.406921
318 4 0.0283712 0.150715 0.399401
2585 4 0.00925341 0.157615 0.398955
1377 4 0.059833 0.0962312 0.408066
1406 4 0.16593 0.0967384 0.33232
1375 2 0.0819894 0.0852805 0.411854
684 4 0.223534 0.0854337 0.341524
682 2 0.240264 0.0982205 0.355006
474 4 0.269739 0.102085 0.381211
683 4 0.256995 0.111007 0.368488
472 2 0.273332 0.113677 0.403072
419 4 0.496854 0.121145 0.380008
418 2 0.499966 0.140076 0.363973
2586 4 0.0203448 0.200577 0.42202
2584 2 0.0147991 0.179096 0.410488
383 4 0.219119 0.212436 0.381771
1221 4 0.20271 0.20455 0.390462
382 2 0.232186 0.232401 0.374299
384 4 0.245253 0.252366 0.366827
587 4 0.323357 0.189553 0.394996
586 2 0.338636 0.190263 0.375217
588 4 0.353914 0.190972 0.355437
509 4 0.250393 0.314685 0.344042
437 4 0.262589 0.31947 0.358715
508 2 0.253562 0.291727 0.353424
510 4 0.256732 0.268768 0.362807
615 4 0.384428 0.286512 0.42084
3 3 0.364789 0.325877 0.419689
435 4 0.392602 0.324112 0.388883
433 2 0.413045 0.309843 0.390799
4 3 0.362947 0.312687 0.384094
1 1 0.363661 0.33177 0.397275
2909 4 0.490003 0.249169 0.359117
516 4 0.473166 0.25915 0.35851
515 4 0.433616 0.278354 0.382337
514 2 0.453391 0.268752 0.370423
434 4 0.433488 0.295575 0.392715
1863 4 0.16279 0.414096 0.328131
413 4 0.247499 0.417351 0.387617
436 2 0.264786 0.343252 0.366117
414 4 0.252983 0.374351 0.362685
438 4 0.266983 0.367034 0.373519
412 2 0.250241 0.395851 0.375151
336 4 0.386454 0.383781 0.333554
5 3 0.381737 0.344428 0.391649
2 3 0.344477 0.343964 0.393749
445 2 0.347156 0.385907 0.408801
446 4 0.343753 0.361544 0.404326
447 4 0.350559 0.410271 0.413276
334 2 0.408872 0.384867 0.344574
335 4 0.43129 0.385954 0.355594
118 3 0.449559 0.393216 0.357028
116 1 0.470711 0.402617 0.355411
120 3 0.473018 0.419252 0.370793
119 3 0.486894 0.386349 0.358855
117 3 0.473357 0.411388 0.334311
407 4 0.0651185 0.475399 0.404636
1756 2 0.144553 0.478034 0.380895
1758 4 0.163456 0.461822 0.378655
1861 2 0.164573 0.432554 0.344903
1862 4 0.166355 0.451011 0.361676
1436 4 0.262163 0.425624 0.375623
1586 4 0.324245 0.490632 0.344609
1435 2 0.263593 0.450425 0.372786
1587 4 0.276893 0.479158 0.35587
1437 4 0.265023 0.475226 0.369949
1585 2 0.300569 0.484895 0.350239
1743 4 0.381178 0.449482 0.416285
1472 4 0.375448 0.469369 0.416153
110 3 0.372694 0.482095 0.348073
585 4 0.348571 0.427609 0.424753
1471 2 0.374787 0.474574 0.391707
1473 4 0.374125 0.479779 0.36726
926 4 0.462976 0.417399 0.38836
925 2 0.452645 0.419085 0.411067
1270 2 0.998268 0.00294549 0.484933
1271 4 0.0049125 0.0191258 0.467066
1799 4 0.997424 0.030102 0.451566
1798 2 0.00261162 0.038261 0.428507
687 4 0.0798891 0.0288187 0.486331
686 4 0.085514 0.0232581 0.436953
685 2 0.0827016 0.0260384 0.461642
429 4 0.0849423 0.0475997 0.494614
1781 4 0.168371 0.0245549 0.499334
1782 4 0.17092 0.0716592 0.482738
1780 2 0.169645 0.0481071 0.491036
1601 4 0.166665 0.0912486 0.478895
1058 4 0.211687 0.0867999 0.475296
1030 2 0.359761 0.0357409 0.417093
1032 4 0.354668 0.0331191 0.441432
2663 4 0.46543 0.0275746 0.425871
2662 2 0.485173 0.0123763 0.423778
317 4 0.0420508 0.105027 0.414441
1600 2 0.15786 0.110979 0.491479
1602 4 0.149054 0.130709 0.504063
1057 2 0.223102 0.102511 0.491045
1059 4 0.234517 0.118222 0.506794
342 4 0.265407 0.128764 0.440623
473 4 0.276924 0.12527 0.424932
340 2 0.262197 0.152556 0.447607
305 4 0.487535 0.130541 0.44212
716 4 0.476274 0.126136 0.425942
715 2 0.458071 0.112441 0.436252
717 4 0.439869 0.0987459 0.446562
2847 4 0.00877034 0.211344 0.433513
1219 2 0.195343 0.20933 0.413873
1220 4 0.187976 0.214109 0.437284
341 4 0.258986 0.176349 0.454592
1152 4 0.268798 0.191866 0.463243
1150 2 0.268137 0.199423 0.487068
432 4 0.318792 0.233782 0.49048
430 2 0.311839 0.240186 0.467332
576 4 0.308708 0.247705 0.500516
267 4 0.373904 0.231304 0.430253
614 4 0.361539 0.242055 0.420237
265 2 0.389848 0.213817 0.438326
266 4 0.405792 0.19633 0.446398
468 4 0.377533 0.186408 0.501352
378 4 0.421416 0.202544 0.457839
376 2 0.438979 0.217719 0.467136
377 4 0.456541 0.232894 0.476434
2457 4 0.448856 0.248555 0.487632
3108 4 0.00943419 0.309961 0.466305
326 4 0.0105918 0.318324 0.448521
568 2 0.108651 0.319229 0.476741
570 4 0.0971979 0.329017 0.456786
569 4 0.120103 0.309441 0.496697
431 4 0.304887 0.246589 0.444184
613 2 0.372983 0.264284 0.420538
650 4 0.383646 0.329478 0.426751
649 2 0.38912 0.32743 0.451061
651 4 0.394595 0.325382 0.475372
812 4 0.383006 0.315618 0.486943
2455 2 0.472866 0.250906 0.494202
325 2 0.0289784 0.332116 0.438678
327 4 0.047365 0.345908 0.428835
261 4 0.0674984 0.344757 0.499724
1381 2 0.07032 0.380758 0.442986
373 2 0.0780597 0.411462 0.490583
1383 4 0.0592342 0.359022 0.437524
374 4 0.0719841 0.405801 0.466998
1382 4 0.0814058 0.402494 0.448449
504 4 0.1399 0.414589 0.461276
710 4 0.157926 0.404634 0.462946
709 2 0.162313 0.392706 0.484479
928 2 0.313951 0.392234 0.500566
930 4 0.308206 0.407302 0.481457
679 2 0.0117842 0.422824 0.424173
406 2 0.0516829 0.459838 0.418867
680 4 0.0354302 0.423651 0.432257
408 4 0.0382472 0.444277 0.433098
499 2 0.110403 0.479392 0.485681
503 4 0.101357 0.446343 0.458667
502 2 0.120628 0.430466 0.459971
500 4 0.109435 0.462324 0.467434
1819 2 0.21074 0.452229 0.430098
1820 4 0.229418 0.468269 0.425737
1821 4 0.192062 0.436188 0.434458
1556 4 0.24134 0.466815 0.409825
583 2 0.331443 0.44581 0.424013
1555 2 0.255594 0.483544 0.421748
584 4 0.314315 0.46401 0.423272
1741 2 0.402299 0.43916 0.4248
927 4 0.442314 0.420771 0.433774
1742 4 0.423421 0.428838 0.433315
428 4 0.0568331 0.0301534 0.532113
1890 4 0.0552068 0.00951887 0.529178
427 2 0.0708877 0.0388766 0.513363
320 4 0.17288 0.00807999 0.509136
1163 4 0.433546 0.0719022 0.562719
1162 2 0.427417 0.0643438 0.585752
1200 4 0.0104087 0.121807 0.577997
458 4 0.0292399 0.116798 0.580097
457 2 0.0532183 0.111338 0.584614
1035 4 0.0157771 0.14891 0.538492
1282 2 0.124783 0.12902 0.530335
1284 4 0.131844 0.120313 0.507985
1283 4 0.117722 0.137727 0.552685
2133 4 0.236063 0.11647 0.566642
825 4 0.23101 0.134085 0.575018
2131 2 0.260083 0.109588 0.567573
797 4 0.298822 0.101509 0.583294
2132 4 0.284103 0.102707 0.568504
3157 2 0.393367 0.150072 0.511395
3158 4 0.402158 0.132472 0.526826
606 4 0.389877 0.117043 0.530198
604 2 0.404004 0.0995869 0.541192
3159 4 0.384576 0.167673 0.495965
605 4 0.418132 0.082131 0.552187
49 3 0.490258 0.119551 0.558422
46 1 0.485734 0.142113 0.561406
50 3 0.476406 0.150735 0.542504
47 3 0.470984 0.144489 0.578897
1151 4 0.267476 0.206981 0.510893
857 4 0.283382 0.210223 0.521845
856 2 0.277364 0.203087 0.545041
858 4 0.271347 0.19595 0.568237
467 4 0.356357 0.214772 0.536675
466 2 0.366945 0.20059 0.519013
694 2 0.12309 0.284777 0.533081
695 4 0.119945 0.270881 0.553628
696 4 0.126236 0.298673 0.512534
1244 4 0.122601 0.275803 0.571613
574 2 0.319979 0.252534 0.522306
575 4 0.33125 0.257362 0.544096
275 4 0.328984 0.249558 0.564266
274 2 0.350168 0.259396 0.573188
635 4 0.388328 0.270808 0.571694
634 2 0.401486 0.28263 0.554023
811 2 0.401453 0.308226 0.502117
3008 4 0.482283 0.25678 0.567688
813 4 0.419899 0.300833 0.517291
636 4 0.414645 0.294452 0.536352
2456 4 0.496876 0.253257 0.500773
259 2 0.0853436 0.348675 0.516794
896 4 0.090338 0.355638 0.548379
260 4 0.103189 0.352592 0.533863
895 2 0.0839009 0.36462 0.570808
1189 2 0.163085 0.368062 0.54219
1191 4 0.153788 0.378351 0.521384
711 4 0.1667 0.380779 0.506012
1190 4 0.172381 0.357773 0.562996
791 4 0.285613 0.413586 0.553492
773 4 0.292405 0.400643 0.567769
772 2 0.308008 0.384491 0.556775
774 4 0.32361 0.36834 0.545781
929 4 0.319695 0.377167 0.519675
239 4 0.33527 0.376153 0.53434
238 2 0.357692 0.387135 0.532976
240 4 0.380113 0.398117 0.531612
3309 4 0.391128 0.392274 0.547095
3307 2 0.412168 0.381391 0.555098
3308 4 0.433209 0.370508 0.5631
806 4 0.44718 0.373126 0.577073
805 2 0.463189 0.360099 0.591186
375 4 0.0841352 0.417122 0.514167
1446 4 0.0735162 0.429085 0.527299
1444 2 0.0784482 0.441819 0.548244
1445 4 0.0833802 0.454553 0.569189
1237 2 0.232142 0.485073 0.55681
1238 4 0.247685 0.466959 0.549362
792 4 0.248363 0.44665 0.549025
790 2 0.266988 0.430118 0.551258
1183 2 0.0778539 0.0191784 0.629063
1184 4 0.0790881 0.0179287 0.654005
2990 4 0.00831926 0.084692 0.6288
2989 2 0.00979291 0.0743171 0.651502
1185 4 0.0766197 0.0204281 0.604121
2114 4 0.0680195 0.0132023 0.670001
961 2 0.242093 0.00507585 0.628914
963 4 0.247734 0.0288948 0.634015
938 4 0.310618 0.0445396 0.641689
937 2 0.298198 0.0365323 0.661859
43 3 0.319273 0.0609194 0.636407
41 1 0.341813 0.0663986 0.636999
44 3 0.347457 0.0787589 0.618191
2195 4 0.415777 0.0384675 0.604871
2194 2 0.396758 0.0234902 0.611127
45 3 0.354398 0.0474392 0.637903
950 4 0.361877 0.0287338 0.639283
949 2 0.363772 0.0109593 0.656766
42 3 0.345889 0.0790978 0.655742
2196 4 0.377739 0.00851295 0.617383
4581 4 0.425872 0.0669415 0.660625
1164 4 0.421289 0.0567854 0.608784
4580 4 0.443928 0.0203168 0.659709
4579 2 0.4349 0.0436292 0.660167
1198 2 0.00476695 0.141633 0.592149
459 4 0.0771967 0.105877 0.58913
1199 4 0.999125 0.161458 0.606301
1155 4 0.077723 0.117925 0.604042
1153 2 0.0977573 0.11176 0.617672
1154 4 0.117792 0.105595 0.631303
1226 4 0.133615 0.159358 0.603096
2376 4 0.135708 0.146026 0.668595
1225 2 0.155987 0.149368 0.598107
1227 4 0.178358 0.139379 0.593118
824 4 0.190747 0.153037 0.597831
823 2 0.210878 0.143561 0.586424
796 2 0.303179 0.114867 0.603977
798 4 0.307535 0.128225 0.624659
1004 4 0.326386 0.130462 0.629899
1003 2 0.344232 0.119133 0.643253
1005 4 0.362078 0.107803 0.656607
3276 4 0.0184538 0.218441 0.599399
852 4 0.0266379 0.223894 0.615686
3274 2 0.00584549 0.198261 0.60708
850 2 0.0346325 0.241251 0.63181
893 4 0.281237 0.20325 0.586569
908 4 0.289107 0.20638 0.652482
892 2 0.289344 0.205309 0.610132
894 4 0.297451 0.207368 0.633695
3007 2 0.473677 0.245747 0.58841
841 2 0.464454 0.213256 0.635037
843 4 0.460567 0.216003 0.610491
3009 4 0.465071 0.234714 0.609131
842 4 0.468341 0.210509 0.659584
872 4 0.466 0.189389 0.656045
851 4 0.0426271 0.258609 0.647934
3039 4 0.0501292 0.261697 0.666173
1259 4 0.104875 0.273912 0.627057
1243 2 0.117377 0.28348 0.594829
1245 4 0.112154 0.291157 0.618044
1258 2 0.104013 0.269512 0.651655
1064 4 0.302095 0.282494 0.624576
276 4 0.371353 0.269233 0.58211
1096 2 0.378101 0.294293 0.65254
1098 4 0.353913 0.294322 0.658876
1065 4 0.349003 0.287359 0.641211
1063 2 0.325549 0.284926 0.632893
1097 4 0.402288 0.294264 0.646203
1025 4 0.473453 0.273343 0.658232
1166 4 0.462395 0.288948 0.652971
1165 2 0.437907 0.289699 0.65797
10 3 0.0634655 0.376778 0.642914
6 1 0.0836615 0.373325 0.632972
7 3 0.0803538 0.366812 0.611159
897 4 0.0774639 0.373602 0.593237
9 3 0.0960308 0.392956 0.633145
983 4 0.100088 0.342684 0.657203
8 3 0.0952188 0.356581 0.644129
1230 4 0.295888 0.385931 0.654737
1001 4 0.349463 0.413614 0.649914
807 4 0.479198 0.347072 0.6053
1192 2 0.480969 0.339046 0.643745
1194 4 0.476297 0.333637 0.619785
1193 4 0.48564 0.344454 0.667705
2138 4 0.0248121 0.479988 0.595041
2139 4 0.0583573 0.478258 0.632087
2106 4 0.0423028 0.477704 0.64355
2137 2 0.0415847 0.479123 0.613564
1002 4 0.306455 0.437416 0.640724
1000 2 0.327959 0.425515 0.645319
891 4 0.295306 0.44399 0.655623
661 2 0.380866 0.431944 0.643642
662 4 0.356337 0.432124 0.648489
663 4 0.405395 0.431763 0.638795
1269 4 0.398625 0.48651 0.639198
1267 2 0.387392 0.492091 0.617569
1910 4 0.411129 0.484997 0.655684
1268 4 0.376159 0.497673 0.595939
1251 4 0.423456 0.442942 0.640168
1249 2 0.445325 0.438499 0.651445
1250 4 0.467195 0.434055 0.662721
2991 4 0.0112666 0.0639423 0.674204
945 4 0.0750667 0.027574 0.746563
943 2 0.0654809 0.049031 0.738026
944 4 0.0558951 0.070488 0.729488
2113 2 0.0480677 0.00981809 0.684686
1082 4 0.0494489 0.0744536 0.688282
2115 4 0.028116 0.00643394 0.699371
1203 4 0.0896747 0.0177102 0.737646
1201 2 0.110804 0.00600546 0.731185
911 4 0.205938 0.99894 0.67491
910 2 0.218703 0.018263 0.684336
912 4 0.231468 0.0375857 0.693763
921 4 0.218136 0.0518005 0.689359
919 2 0.212133 0.070177 0.705216
939 4 0.285778 0.028525 0.682028
1085 4 0.324001 0.0555761 0.731066
1084 2 0.308689 0.0507745 0.75024
3269 4 0.415382 0.0753641 0.675276
1092 4 0.336361 0.0487409 0.717849
1090 2 0.337886 0.0596116 0.695384
1091 4 0.339411 0.0704823 0.672919
1081 2 0.0487729 0.0915404 0.706524
1083 4 0.0480968 0.108627 0.724766
2374 2 0.131781 0.12363 0.678994
2375 4 0.127854 0.101233 0.689393
1106 4 0.134853 0.107995 0.727461
1105 2 0.156488 0.115241 0.737688
920 4 0.20613 0.0885536 0.721073
1129 2 0.236797 0.119162 0.709458
1131 4 0.221053 0.100016 0.712738
1130 4 0.25254 0.138308 0.706178
3268 2 0.393969 0.0881971 0.673868
3270 4 0.372556 0.10103 0.672459
1142 4 0.384714 0.163618 0.743628
3426 4 0.48475 0.160154 0.700142
3424 2 0.489729 0.157898 0.72454
873 4 0.488345 0.152796 0.681781
947 4 0.197627 0.2115 0.74143
907 2 0.28786 0.226825 0.666822
909 4 0.286613 0.247271 0.681161
1211 4 0.292638 0.248891 0.69991
1210 2 0.303249 0.250414 0.7225
871 2 0.477173 0.171093 0.668913
3037 2 0.0578835 0.281964 0.678596
984 4 0.0788794 0.316579 0.694209
3038 4 0.0656377 0.30223 0.691019
3420 4 0.075057 0.308748 0.734973
1260 4 0.103151 0.265113 0.676253
982 2 0.0894837 0.329631 0.675706
878 4 0.146056 0.331187 0.718393
877 2 0.165598 0.324044 0.732259
879 4 0.185141 0.316901 0.746124
1209 4 0.196862 0.304888 0.736657
1212 4 0.313859 0.251936 0.745089
2988 4 0.304262 0.333467 0.746994
1167 4 0.41342 0.290449 0.662968
4482 4 0.0104681 0.403869 0.706457
538 2 0.0384719 0.412424 0.722938
539 4 0.0156148 0.402883 0.72636
540 4 0.061329 0.421965 0.719517
934 2 0.0918468 0.416679 0.708762
1136 4 0.120184 0.384 0.704034
936 4 0.107123 0.398731 0.700413
1137 4 0.128935 0.335046 0.70929
1135 2 0.12456 0.359523 0.706662
1187 4 0.225965 0.396075 0.721066
1160 4 0.207119 0.401399 0.725877
1186 2 0.238668 0.414455 0.70984
1229 4 0.289531 0.379006 0.703853
1228 2 0.29271 0.382469 0.679295
2986 2 0.323156 0.349822 0.747851
2987 4 0.34205 0.366176 0.748708
1019 4 0.479741 0.333074 0.682151
1018 2 0.468358 0.349622 0.697043
4485 4 0.451742 0.38662 0.710373
1020 4 0.456976 0.36617 0.711936
935 4 0.0765705 0.434626 0.71711
2104 2 0.0386821 0.477237 0.668286
2105 4 0.0350614 0.476771 0.693021
2016 4 0.126431 0.465284 0.752066
1188 4 0.25137 0.432835 0.698615
889 2 0.274588 0.436044 0.667148
890 4 0.253871 0.428097 0.678673
1953 4 0.335811 0.467609 0.750108
1951 2 0.335562 0.481164 0.7291
2141 4 0.355057 0.496217 0.705236
2140 2 0.354791 0.497991 0.680297
4483 2 0.457607 0.402619 0.692075
4484 4 0.463471 0.418618 0.673777
3171 4 0.471152 0.457645 0.729744
4215 4 0.482695 0.441193 0.725854
3169 2 0.474994 0.467253 0.752506
973 2 0.268441 0.0587352 0.803976
975 4 0.282356 0.0544685 0.783645
1086 4 0.293376 0.0459728 0.769414
974 4 0.254526 0.0630018 0.824307
2265 4 0.416813 0.096294 0.788743