ITEM: TIMESTEP
2940000
ITEM: NUMBER OF ATOMS
4590
ITEM: BOX BOUNDS pp pp pp
-9.9985700000000008e+00 9.9985700000000008e+00
-9.9985700000000008e+00 9.9985700000000008e+00
-9.9985700000000008e+00 9.9985700000000008e+00
ITEM: ATOMS id type xs ys zs
3232 2 0.0512375 0.0742391 0.0569693
3234 4 0.0712262 0.0694799 0.0427221
1999 2 0.304879 0.0699561 0.00358943
2001 4 0.310441 0.085653 0.0222404
1023 4 0.436923 0.0333605 0.0606419
1021 2 0.447833 0.0454129 0.079639
1109 4 0.42949 0.0157827 0.0626866
3233 4 0.0312489 0.0789983 0.0712165
1132 2 0.209876 0.166618 0.00923296
2163 4 0.320557 0.124467 0.0649252
2161 2 0.320625 0.102767 0.0525046
2162 4 0.320692 0.0810664 0.0400839
757 2 0.385712 0.123799 0.0574777
758 4 0.393463 0.10289 0.0461675
1827 4 0.402692 0.0958996 0.0289055
1825 2 0.405843 0.0919047 0.00442509
759 4 0.377961 0.144707 0.068788
666 4 0.372212 0.158808 0.0834564
2680 2 0.471556 0.153078 0.0240278
2681 4 0.487955 0.13543 0.0173375
2949 4 0.507414 0.127707 0.0116918
455 4 0.141475 0.25012 0.0433085
1134 4 0.227384 0.174543 0.0252287
491 4 0.236871 0.169727 0.0417937
490 2 0.259353 0.1776 0.0341941
492 4 0.281835 0.185473 0.0265944
4212 4 0.287428 0.203535 0.0224881
4210 2 0.312133 0.199884 0.0212604
4211 4 0.336838 0.196233 0.0200326
483 4 0.350661 0.181778 0.015833
481 2 0.372047 0.184233 0.00311251
2682 4 0.455156 0.170727 0.0307182
765 4 0.445486 0.169745 0.0469574
763 2 0.442641 0.185546 0.0661252
1305 4 0.436996 0.227008 0.995266
2772 4 0.0105804 0.304625 0.0372271
2514 4 0.0131812 0.320808 0.0488367
2770 2 0.009064 0.308019 0.0125014
454 2 0.151424 0.263436 0.0246309
456 4 0.161374 0.276753 0.00595335
933 4 0.222503 0.3133 0.0294316
960 4 0.214578 0.313829 0.0112431
931 2 0.237862 0.313837 0.0491549
932 4 0.25322 0.314373 0.0688781
324 4 0.361674 0.288105 0.0193526
282 4 0.347775 0.297474 0.00795372
322 2 0.363181 0.301184 0.0406093
323 4 0.364687 0.314263 0.061866
1046 4 0.441546 0.319373 0.0612777
1045 2 0.457481 0.308959 0.0774878
968 4 0.450303 0.320966 0.0441998
967 2 0.435992 0.334227 0.0285633
1104 4 0.0563894 0.388582 0.0214951
1102 2 0.0595188 0.379322 0.998481
2874 4 0.0273173 0.406481 0.0473516
2872 2 0.0162911 0.415792 0.0269334
292 2 0.0740101 0.409892 0.0502831
293 4 0.0730578 0.396244 0.0293546
639 4 0.239785 0.381864 0.0132221
1095 4 0.258558 0.392184 0.0149608
1093 2 0.268343 0.405953 0.0333956
1094 4 0.278129 0.419722 0.0518304
969 4 0.42168 0.347488 0.0129269
3212 4 0.493598 0.342408 0.00953679
620 4 0.0641317 0.479839 0.0523102
619 2 0.0446444 0.483479 0.0675473
294 4 0.0749623 0.42354 0.0712116
2873 4 0.00526485 0.425103 0.00651524
1779 4 0.310837 0.489729 0.0280078
1777 2 0.312666 0.478838 0.00557519
2566 2 0.37466 0.477641 0.0610062
542 4 0.361443 0.44344 0.0624906
2567 4 0.379822 0.453216 0.0596153
2479 2 0.0146356 0.0178505 0.129949
2480 4 0.0395758 0.0194577 0.130712
579 4 0.0511518 0.0361549 0.132766
577 2 0.06312 0.0576547 0.137204
578 4 0.0750882 0.0791545 0.141642
1233 4 0.153131 0.0387762 0.161435
359 4 0.208403 0.00203816 0.173605
1505 4 0.274465 0.014923 0.111109
1253 4 0.382964 0.0105784 0.124453
1252 2 0.372533 0.00624371 0.102147
1022 4 0.458743 0.0574652 0.0986362
1759 2 0.455433 0.0452871 0.134298
1761 4 0.461273 0.0409611 0.110374
1760 4 0.449593 0.0496132 0.158222
744 4 0.456765 0.031061 0.16114
371 4 0.0247457 0.0770032 0.089216
546 4 0.0648554 0.0971441 0.137905
544 2 0.0759126 0.118515 0.144702
545 4 0.0869698 0.139886 0.151499
52 3 0.271603 0.139387 0.132608
248 4 0.259041 0.149701 0.120464
51 1 0.268519 0.122513 0.147935
54 3 0.252955 0.129441 0.163688
53 3 0.288787 0.117984 0.158284
55 3 0.260952 0.103913 0.137192
2768 4 0.305599 0.10957 0.153897
581 4 0.400272 0.152116 0.145364
580 2 0.398466 0.127414 0.141943
582 4 0.396661 0.102711 0.138522
295 2 0.497743 0.132451 0.162695
2833 2 0.000548414 0.23769 0.142217
2834 4 0.0248202 0.239417 0.136466
617 4 0.164632 0.171297 0.16148
247 2 0.250982 0.173293 0.122375
690 4 0.182963 0.177936 0.160739
688 2 0.185148 0.174493 0.13607
689 4 0.187334 0.171049 0.111401
741 4 0.204927 0.216906 0.107012
249 4 0.242924 0.196885 0.124286
739 2 0.216131 0.234906 0.120265
740 4 0.227335 0.252906 0.133519
357 4 0.315235 0.208497 0.165213
251 4 0.320503 0.212295 0.145677
250 2 0.324874 0.212162 0.121059
252 4 0.329246 0.212029 0.0964409
664 2 0.356935 0.17798 0.0883772
665 4 0.341659 0.197153 0.0932981
629 4 0.43578 0.205934 0.152083
630 4 0.428361 0.201929 0.102792
628 2 0.432071 0.203932 0.127438
764 4 0.439796 0.201348 0.085293
2519 4 0.487723 0.21104 0.116673
2518 2 0.495527 0.188716 0.124791
555 4 0.0398223 0.251261 0.127991
553 2 0.0590728 0.266905 0.131129
554 4 0.0783233 0.28255 0.134267
299 4 0.0929565 0.296168 0.135141
298 2 0.107776 0.308538 0.11925
300 4 0.122596 0.320908 0.103359
363 4 0.134058 0.330625 0.117589
245 4 0.252731 0.30133 0.126523
737 4 0.241544 0.318904 0.12283
354 4 0.267612 0.319029 0.0820862
387 4 0.320279 0.320545 0.110953
244 2 0.258657 0.296272 0.150281
352 2 0.284648 0.318676 0.100384
353 4 0.301684 0.318322 0.118682
385 2 0.340825 0.317997 0.0969323
386 4 0.36137 0.315448 0.082912
1047 4 0.473417 0.298545 0.093698
659 4 0.481295 0.306645 0.110262
658 2 0.48376 0.326015 0.125879
361 2 0.157132 0.339763 0.114542
736 2 0.218788 0.328399 0.11868
362 4 0.180205 0.3489 0.111496
738 4 0.196033 0.337894 0.11453
1619 4 0.255075 0.384979 0.157249
612 4 0.33798 0.368114 0.154895
498 4 0.346751 0.397642 0.0961262
496 2 0.345691 0.383246 0.116542
302 4 0.401925 0.33566 0.0970152
543 4 0.352264 0.415584 0.102994
497 4 0.344632 0.36885 0.136959
301 2 0.402894 0.353461 0.114547
303 4 0.403863 0.371263 0.132078
660 4 0.486225 0.345386 0.141495
713 4 0.478468 0.364476 0.139038
712 2 0.486827 0.387921 0.136666
495 4 0.489467 0.413598 0.115079
2966 4 0.00609027 0.487182 0.0893217
621 4 0.0251571 0.48712 0.0827845
1710 4 0.072598 0.497228 0.109312
647 4 0.0884691 0.409372 0.0760052
646 2 0.103243 0.417177 0.0946066
648 4 0.118016 0.424981 0.113208
524 4 0.125403 0.439749 0.125362
523 2 0.146832 0.441929 0.138061
525 4 0.16826 0.44411 0.150759
507 4 0.253348 0.447973 0.15194
913 2 0.211378 0.446644 0.161193
915 4 0.236278 0.446383 0.163446
914 4 0.186477 0.446905 0.158941
506 4 0.258967 0.480127 0.114055
505 2 0.256157 0.46405 0.132997
541 2 0.356854 0.429512 0.0827421
2650 2 0.475014 0.492685 0.107918
494 4 0.480221 0.461847 0.105736
2651 4 0.462951 0.471036 0.104608
493 2 0.484844 0.437723 0.110408
3808 2 0.0726705 0.0759876 0.189702
590 4 0.0690982 0.0522769 0.251086
380 4 0.0505267 0.0540425 0.253486
1231 2 0.133144 0.0512203 0.169851
589 2 0.0859704 0.0338831 0.24961
3809 4 0.0939741 0.0655605 0.181789
1232 4 0.113156 0.0636644 0.178267
591 4 0.102843 0.0154893 0.248135
1553 4 0.110534 0.996644 0.250628
285 4 0.169427 0.0560829 0.19221
358 2 0.212258 0.0265871 0.176374
360 4 0.216113 0.0511361 0.179143
283 2 0.176875 0.0581464 0.215989
284 4 0.184323 0.0602098 0.239769
460 2 0.314896 0.00347977 0.241564
462 4 0.334664 0.0139473 0.230391
332 4 0.348019 0.0235811 0.219801
742 2 0.457948 0.015594 0.18075
1730 4 0.479452 0.00897322 0.235573
3810 4 0.0513669 0.0864146 0.197615
616 2 0.152825 0.155607 0.176959
2461 2 0.162607 0.125316 0.22222
2463 4 0.149126 0.143574 0.211728
618 4 0.141019 0.139918 0.192439
2462 4 0.176088 0.107058 0.232713
2767 2 0.323641 0.10216 0.169542
527 4 0.294275 0.146168 0.214564
474 4 0.309073 0.139822 0.226354
472 2 0.311696 0.117505 0.23732
2769 4 0.341683 0.0947497 0.185186
404 4 0.356009 0.0966807 0.198979
403 2 0.377747 0.105666 0.207459
405 4 0.399486 0.114651 0.215939
297 4 0.493573 0.113293 0.178212
633 4 0.419176 0.111605 0.213849
631 2 0.425696 0.132606 0.22575
632 4 0.432217 0.153606 0.237651
528 4 0.270052 0.189584 0.219951
526 2 0.282164 0.167876 0.217258
624 4 0.2667 0.208478 0.22412
622 2 0.254012 0.23 0.225121
355 2 0.332917 0.222278 0.176286
356 4 0.350599 0.236059 0.187358
15 3 0.341697 0.238429 0.204959
312 4 0.42063 0.207955 0.202373
12 3 0.370781 0.250524 0.224979
254 4 0.40925 0.221863 0.194912
253 2 0.41493 0.246051 0.192109
641 4 0.372145 0.243473 0.243101
311 4 0.439026 0.170821 0.230361
310 2 0.429828 0.189388 0.216367
677 4 0.240836 0.271168 0.230486
623 4 0.241323 0.251522 0.226121
488 4 0.160185 0.265494 0.240615
402 4 0.210815 0.32897 0.213933
246 4 0.264584 0.291215 0.17404
338 4 0.27343 0.30717 0.184543
337 2 0.289875 0.325489 0.188924
13 3 0.336017 0.253675 0.238915
255 4 0.420609 0.270239 0.189307
14 3 0.347067 0.275388 0.209745
520 2 0.386891 0.297746 0.18571
522 4 0.365417 0.310306 0.188221
521 4 0.408365 0.285187 0.183199
11 1 0.348771 0.254425 0.219545
2944 2 0.500028 0.247895 0.205156
761 4 0.487035 0.264255 0.24367
2945 4 0.487927 0.25324 0.226374
705 4 0.0635217 0.421521 0.222088
475 2 0.142303 0.354727 0.242022
477 4 0.157552 0.339397 0.229465
400 2 0.188168 0.33955 0.213307
401 4 0.165522 0.35013 0.212681
339 4 0.306319 0.343807 0.193305
1618 2 0.266197 0.401725 0.172116
344 4 0.266211 0.414393 0.203877
610 2 0.352114 0.383082 0.169085
611 4 0.366248 0.39805 0.183275
308 4 0.383223 0.394958 0.193982
307 2 0.386531 0.379496 0.213351
309 4 0.389839 0.364034 0.23272
1454 4 0.397236 0.376878 0.246659
1776 4 0.0185939 0.409412 0.188699
735 4 0.0769168 0.432761 0.214334
703 2 0.0398475 0.418735 0.214542
704 4 0.0161733 0.415948 0.206995
2527 2 0.995727 0.486744 0.25149
733 2 0.0962447 0.442298 0.227009
1767 4 0.130903 0.447951 0.226395
1765 2 0.151639 0.461757 0.224251
734 4 0.115572 0.451835 0.239684
1766 4 0.172375 0.475563 0.222108
343 2 0.250941 0.423612 0.2214
1790 4 0.189767 0.482549 0.226666
345 4 0.235672 0.432831 0.238922
603 4 0.220702 0.488244 0.238158
1789 2 0.201252 0.496045 0.209027
601 2 0.22686 0.465702 0.247054
1620 4 0.277319 0.418472 0.186983
231 4 0.317892 0.43527 0.203647
229 2 0.31744 0.429006 0.227849
288 4 0.338212 0.437103 0.204343
286 2 0.357687 0.448064 0.193128
608 4 0.383202 0.477712 0.182081
287 4 0.377161 0.459025 0.181913
607 2 0.394021 0.490083 0.200925
381 4 0.0286615 0.0599829 0.298065
379 2 0.0395941 0.0570127 0.275775
20 3 0.0295352 0.0784477 0.306224
1403 4 0.179155 0.0466471 0.25539
1402 2 0.201539 0.0405922 0.264744
1404 4 0.223923 0.0345373 0.274098
692 4 0.233265 0.0170053 0.275315
683 4 0.190146 0.0881964 0.308218
682 2 0.192955 0.0672801 0.321627
693 4 0.278809 0.00130916 0.261897
691 2 0.256037 0.00915725 0.268606
898 2 0.276912 0.0644704 0.335225
900 4 0.29342 0.0460849 0.339052
1426 2 0.404039 0.0198865 0.313151
1427 4 0.405841 0.024619 0.288666
653 4 0.422999 0.017375 0.281575
1729 2 0.473968 0.0305715 0.246914
1731 4 0.468484 0.0521698 0.258255
2664 4 0.457863 0.0488915 0.274219
2662 2 0.458256 0.0620572 0.295472
2663 4 0.458649 0.0752228 0.316725
16 1 0.0252741 0.0889816 0.32596
18 3 0.00365948 0.0974202 0.325925
675 4 0.0410539 0.162097 0.30063
19 3 0.0404931 0.106196 0.329194
2845 2 0.0953197 0.155956 0.309724
2846 4 0.0954262 0.135055 0.323447
1406 4 0.176764 0.099126 0.251248
1407 4 0.174294 0.0998777 0.301189
1405 2 0.175529 0.0995019 0.276219
1700 4 0.211613 0.138611 0.307035
1479 4 0.222267 0.121791 0.304678
1477 2 0.235099 0.108841 0.32179
1699 2 0.21081 0.163552 0.308604
473 4 0.314318 0.095188 0.248286
1478 4 0.24793 0.0958911 0.338902
2837 4 0.496615 0.139554 0.316946
1516 2 0.472047 0.110633 0.32756
1517 4 0.454467 0.0933052 0.323574
2836 2 0.492614 0.163778 0.321675
673 2 0.0206469 0.176514 0.301558
2897 4 0.075726 0.244106 0.299231
2847 4 0.0952131 0.176858 0.296002
512 4 0.0960001 0.18911 0.310908
511 2 0.089825 0.210158 0.298906
513 4 0.08365 0.231205 0.286904
411 4 0.204414 0.250639 0.280181
1701 4 0.210007 0.188493 0.310174
410 4 0.208979 0.208453 0.306643
409 2 0.206696 0.229546 0.293412
615 4 0.256967 0.241932 0.333729
613 2 0.257284 0.216943 0.3345
640 2 0.385073 0.240112 0.264238
642 4 0.398001 0.236751 0.285374
2838 4 0.488612 0.188002 0.326404
760 2 0.468581 0.251291 0.254467
762 4 0.450127 0.238327 0.265263
2898 4 0.0509189 0.28731 0.294899
2896 2 0.0633224 0.265708 0.297065
2717 4 0.0563607 0.319541 0.293815
487 2 0.182836 0.262762 0.250844
489 4 0.205487 0.26003 0.261074
2 3 0.244886 0.257639 0.333955
4 3 0.239441 0.294013 0.326213
676 2 0.242601 0.274545 0.255198
1 1 0.251995 0.275225 0.32094
3 3 0.249003 0.269713 0.2986
678 4 0.244366 0.277922 0.279909
437 4 0.322851 0.337206 0.313697
120 3 0.322128 0.332518 0.333467
5 3 0.274035 0.279192 0.325081
335 4 0.491057 0.27308 0.312705
2716 2 0.0723924 0.336699 0.302404
391 2 0.00821273 0.386084 0.299434
392 4 0.0197591 0.403721 0.31288
417 4 0.0398341 0.403109 0.316989
2718 4 0.0884241 0.353857 0.310993
465 4 0.103096 0.38348 0.315239
463 2 0.108828 0.382589 0.290917
464 4 0.114559 0.381697 0.266596
476 4 0.127054 0.370056 0.254578
1758 4 0.0945869 0.367913 0.324553
438 4 0.282082 0.36615 0.314622
414 4 0.282635 0.38002 0.328447
436 2 0.302466 0.351678 0.314159
412 2 0.27692 0.403722 0.322903
751 2 0.383681 0.365273 0.319788
1453 2 0.39862 0.38671 0.269607
1455 4 0.400004 0.396542 0.292555
752 4 0.39536 0.380961 0.304211
415 2 0.052028 0.424932 0.316504
416 4 0.0642219 0.446755 0.316019
2297 4 0.0693012 0.4402 0.333516
602 4 0.233019 0.443161 0.25595
1319 4 0.229203 0.488964 0.320006
1318 2 0.243452 0.472437 0.307798
500 4 0.21624 0.489494 0.304169
499 2 0.193478 0.49793 0.298177
1437 4 0.325409 0.435288 0.265422
1320 4 0.2577 0.45591 0.29559
413 4 0.271205 0.427424 0.317359
230 4 0.316988 0.422742 0.252051
1435 2 0.321392 0.436954 0.290045
1436 4 0.317374 0.43862 0.314667
1803 4 0.332717 0.447613 0.323454
669 4 0.415784 0.464288 0.25181
1801 2 0.33903 0.4706 0.330999
1802 4 0.345343 0.493587 0.338544
667 2 0.423205 0.467947 0.275405
668 4 0.430625 0.471605 0.299001
2925 4 0.439284 0.46694 0.316288
2923 2 0.46064 0.466454 0.329283
2538 4 0.490416 0.477917 0.326613
1128 4 0.0235353 0.0797539 0.363077
399 4 0.13964 0.0589447 0.400984
397 2 0.129501 0.0816515 0.398375
318 4 0.143861 0.0495384 0.418808
684 4 0.195765 0.0463638 0.335036
732 4 0.188572 0.0292383 0.340394
730 2 0.193194 0.00779953 0.352402
899 4 0.260404 0.0828559 0.331397
1059 4 0.282619 0.0280854 0.340264
1057 2 0.279969 0.00988071 0.357198
256 2 0.392976 0.0290836 0.375619
1031 4 0.371689 0.0511658 0.407634
257 4 0.378929 0.0389269 0.393812
258 4 0.407023 0.0192402 0.357427
1428 4 0.402237 0.0151539 0.337637
1030 2 0.388662 0.0665119 0.417713
1060 2 0.492672 0.067506 0.384859
717 4 0.425046 0.0160504 0.395263
1062 4 0.470378 0.067717 0.396176
715 2 0.446283 0.00526817 0.402873
17 3 0.0273388 0.0738941 0.343201
1126 2 0.0130322 0.0891992 0.383708
1035 4 0.12147 0.117456 0.379096
1033 2 0.105514 0.122452 0.360505
398 4 0.119363 0.104358 0.395767
1034 4 0.0895578 0.127448 0.341914
588 4 0.184161 0.147879 0.411463
586 2 0.177849 0.168 0.398029
1518 4 0.489627 0.12796 0.331547
587 4 0.171536 0.18812 0.384594
431 4 0.19338 0.247698 0.403525
614 4 0.257601 0.191953 0.33527
2585 4 0.0185004 0.28839 0.392721
1219 2 0.0519955 0.287445 0.368778
1221 4 0.0281609 0.284471 0.375724
1220 4 0.0758301 0.290419 0.361832
291 4 0.0941215 0.285365 0.354007
290 4 0.117885 0.2576 0.388141
289 2 0.106003 0.271483 0.371074
433 2 0.307428 0.250137 0.396003
434 4 0.309343 0.244079 0.37182
119 3 0.340084 0.303683 0.349709
116 1 0.33979 0.326676 0.346604
680 4 0.0186142 0.406535 0.395317
679 2 0.00223003 0.412 0.377237
681 4 0.985846 0.417465 0.359157
1756 2 0.100156 0.366192 0.348867
1757 4 0.105726 0.364471 0.373182
326 4 0.112848 0.372819 0.389149
325 2 0.11643 0.358212 0.409123
117 3 0.337707 0.336921 0.367095
446 4 0.323071 0.349951 0.369702
445 2 0.327868 0.370546 0.383045
753 4 0.372001 0.349585 0.335365
118 3 0.359622 0.333592 0.336741
447 4 0.332666 0.39114 0.396388
1742 4 0.485698 0.37843 0.416587
1741 2 0.48154 0.353852 0.418547
2630 4 0.991787 0.47096 0.404041
2296 2 0.0768135 0.455988 0.35139
2298 4 0.0843257 0.471776 0.369264
1862 4 0.230091 0.433771 0.346145
1861 2 0.242801 0.446378 0.3636
930 4 0.328327 0.407483 0.405616
1863 4 0.255511 0.458986 0.381056
1704 4 0.253236 0.461266 0.40152
928 2 0.345213 0.415833 0.422057
2924 4 0.481996 0.465967 0.342278
685 2 0.0827791 0.000494024 0.431148
686 4 0.0584749 0.00411759 0.435769
316 2 0.127877 0.0387532 0.434726
317 4 0.111894 0.0279681 0.450644
1781 4 0.211708 0.0655081 0.476963
321 4 0.206278 0.0614034 0.495206
1032 4 0.405636 0.081858 0.427792
305 4 0.416687 0.0716041 0.486537
3270 4 0.432338 0.0623918 0.478025
3268 2 0.442227 0.0458207 0.462126
3269 4 0.452116 0.0292496 0.446227
4581 4 0.470001 0.0196865 0.447544
4579 2 0.485568 0.00872286 0.46375
384 4 0.0603675 0.15028 0.440635
382 2 0.0550064 0.165346 0.459856
342 4 0.186525 0.149774 0.432561
1780 2 0.22503 0.0724142 0.456963
1782 4 0.238352 0.0793202 0.436963
340 2 0.180418 0.128001 0.443229
341 4 0.17431 0.106228 0.453897
920 4 0.225383 0.130412 0.49318
306 4 0.415266 0.120048 0.474212
304 2 0.415977 0.095826 0.480375
347 4 0.00785649 0.23036 0.498637
346 2 0.0224981 0.210295 0.495771
348 4 0.0371398 0.19023 0.492906
383 4 0.0496452 0.180411 0.479078
430 2 0.210706 0.248251 0.421544
649 2 0.317431 0.241462 0.449536
651 4 0.334848 0.226741 0.45979
813 4 0.349749 0.219453 0.471713
811 2 0.371598 0.216676 0.459876
467 4 0.411343 0.204962 0.449998
812 4 0.393446 0.213898 0.448039
466 2 0.422968 0.195222 0.469877
3159 4 0.42058 0.185569 0.504898
468 4 0.434594 0.185482 0.489755
954 4 0.487248 0.226874 0.482769
266 4 0.479369 0.238746 0.495608
3037 2 0.00677863 0.263669 0.449799
3038 4 0.00469665 0.287453 0.457226
374 4 0.0084438 0.306522 0.459666
390 4 0.111442 0.3257 0.423344
388 2 0.116613 0.305668 0.437386
389 4 0.121783 0.285636 0.451428
510 4 0.136298 0.292974 0.465446
508 2 0.146449 0.288196 0.487791
432 4 0.228033 0.248805 0.439563
576 4 0.241797 0.262598 0.437999
435 4 0.305514 0.256194 0.420186
650 4 0.300014 0.256183 0.439283
574 2 0.253403 0.277827 0.454079
575 4 0.265008 0.293057 0.470159
240 4 0.272435 0.291483 0.487417
238 2 0.292166 0.280108 0.497736
239 4 0.311897 0.268733 0.508055
377 4 0.337725 0.333473 0.473617
376 2 0.353699 0.330135 0.49256
1743 4 0.477383 0.329275 0.420507
265 2 0.470632 0.262143 0.494417
267 4 0.461894 0.28554 0.493225
3308 4 0.459932 0.289319 0.472991
3307 2 0.468969 0.304507 0.455304
3309 4 0.478006 0.319695 0.437617
3108 4 0.0370265 0.387921 0.437184
3106 2 0.0142937 0.377997 0.434035
767 4 0.0414469 0.407544 0.440593
327 4 0.120011 0.343604 0.429098
773 4 0.304219 0.404835 0.489547
768 4 0.0334642 0.45608 0.431579
766 2 0.0374556 0.431812 0.436086
504 4 0.0342594 0.492977 0.450281
503 4 0.0744858 0.468349 0.466895
502 2 0.0543726 0.480663 0.458588
850 2 0.0763589 0.440355 0.488996
852 4 0.0722408 0.447833 0.465495
1812 4 0.147428 0.485646 0.432959
549 4 0.118201 0.463327 0.474858
548 4 0.136577 0.49845 0.444371
547 2 0.127389 0.480889 0.459614
1702 2 0.269041 0.461225 0.420895
791 4 0.299981 0.415515 0.474165
790 2 0.306526 0.43922 0.46965
1703 4 0.284846 0.461185 0.44027
1587 4 0.293343 0.479624 0.436739
2154 4 0.314018 0.477289 0.480006
792 4 0.313071 0.462926 0.465135
929 4 0.362099 0.424184 0.438498
585 4 0.378651 0.4175 0.447997
583 2 0.387525 0.433792 0.46476
2355 4 0.384983 0.44221 0.495072
584 4 0.396399 0.450084 0.481523
3771 4 0.493112 0.50255 0.430585
2292 4 0.0968032 0.00983679 0.570604
1602 4 0.144212 0.0690878 0.561355
911 4 0.153731 0.0714606 0.543391
1600 2 0.133564 0.071135 0.583886
320 4 0.229305 0.0433629 0.535764
1152 4 0.229595 0.0563773 0.552317
1150 2 0.24441 0.0448819 0.568856
319 2 0.217792 0.0523831 0.515485
892 2 0.279691 0.0709104 0.520591
1182 4 0.280404 0.016385 0.512213
894 4 0.292571 0.0736777 0.541842
938 4 0.304787 0.0844536 0.554036
893 4 0.26681 0.068143 0.499339
1216 2 0.496441 0.999878 0.578262
1218 4 0.476611 0.00913799 0.590352
3266 4 0.01716 0.102219 0.551852
1272 4 0.016675 0.102397 0.573667
3265 2 0.00217714 0.095847 0.532876
910 2 0.166585 0.0928394 0.541689
912 4 0.179439 0.114218 0.539988
921 4 0.195034 0.124265 0.532447
919 2 0.210209 0.127338 0.512813
937 2 0.329123 0.0851413 0.559737
939 4 0.353458 0.0858289 0.565438
605 4 0.381272 0.15129 0.531112
604 2 0.371863 0.128153 0.529956
606 4 0.362455 0.105016 0.5288
3158 4 0.401346 0.146915 0.53013
45 3 0.413096 0.132239 0.582188
798 4 0.356906 0.0835392 0.585699
43 3 0.379708 0.133966 0.56487
4465 2 0.444164 0.152982 0.562221
4467 4 0.422015 0.142511 0.567218
872 4 0.481622 0.131438 0.516123
4466 4 0.466313 0.163452 0.557225
694 2 0.243254 0.230202 0.545536
695 4 0.228191 0.236676 0.526658
569 4 0.209353 0.245797 0.525219
2132 4 0.244733 0.209383 0.570696
696 4 0.258316 0.223728 0.564415
1096 2 0.324154 0.241125 0.583946
3157 2 0.410963 0.166242 0.517514
1098 4 0.338177 0.223753 0.572687
49 3 0.475735 0.176717 0.567843
47 3 0.48218 0.18021 0.530979
46 1 0.487395 0.188664 0.551727
48 3 0.481267 0.211032 0.55247
710 4 0.0637587 0.325806 0.567374
3276 4 0.0953122 0.260262 0.577546
2448 4 0.0763695 0.316612 0.554443
2446 2 0.0874759 0.294517 0.558136
2447 4 0.0985822 0.272423 0.56183
509 4 0.1566 0.283418 0.510137
568 2 0.189029 0.256791 0.515668
570 4 0.168705 0.267785 0.506116
634 2 0.324029 0.286817 0.545231
635 4 0.325264 0.301132 0.565694
636 4 0.322793 0.272502 0.524768
1137 4 0.325326 0.298938 0.586816
1097 4 0.310132 0.258497 0.595204
2455 2 0.409316 0.334678 0.511718
806 4 0.495523 0.308293 0.515283
805 2 0.473266 0.318865 0.511039
2456 4 0.433682 0.33063 0.515605
709 2 0.0626838 0.350033 0.561284
983 4 0.030151 0.398562 0.525293
982 2 0.0206456 0.391397 0.547281
1189 2 0.0758681 0.393233 0.521804
1191 4 0.0673992 0.373911 0.535226
711 4 0.0616089 0.37426 0.555194
984 4 0.0111401 0.384231 0.569269
1040 4 0.0150775 0.398371 0.581683
1190 4 0.084337 0.412554 0.508383
1446 4 0.110324 0.41684 0.579579
774 4 0.312053 0.403917 0.538928
772 2 0.308136 0.404376 0.514238
2457 4 0.38495 0.338726 0.50783
378 4 0.369674 0.326797 0.511503
4335 4 0.498611 0.39887 0.573151
807 4 0.451008 0.329437 0.506794
3113 4 0.504943 0.380065 0.572312
851 4 0.0804769 0.432877 0.512497
7 3 0.0655645 0.4496 0.517989
6 1 0.0532679 0.456753 0.536066
10 3 0.0504059 0.479307 0.534739
1172 4 0.0384716 0.491327 0.546284
9 3 0.0646988 0.451354 0.555523
8 3 0.0326432 0.446125 0.535787
1444 2 0.127141 0.428332 0.565077
1819 2 0.128174 0.455817 0.51265
1820 4 0.138984 0.443231 0.531356
1821 4 0.117364 0.468403 0.493944
1445 4 0.143957 0.439824 0.550575
2172 4 0.145264 0.489134 0.568739
1239 4 0.162396 0.490427 0.557443
1237 2 0.178435 0.485445 0.53892
2142 4 0.207419 0.48362 0.53623
2140 2 0.230995 0.476952 0.531244
1238 4 0.194473 0.480463 0.520396
1953 4 0.30436 0.424163 0.584933
1951 2 0.305962 0.43741 0.563787
1952 4 0.307564 0.450656 0.542641
2141 4 0.254572 0.470285 0.526258
2152 2 0.31493 0.491376 0.500644
2353 2 0.378128 0.458524 0.512737
1268 4 0.379675 0.488727 0.540783
2354 4 0.371273 0.474838 0.530402
1267 2 0.391626 0.482795 0.561929
1269 4 0.403576 0.476863 0.583075
3382 2 0.00386499 0.0547551 0.644234
3384 4 0.0152319 0.0622118 0.665219
1227 4 0.0241489 0.0782267 0.65693
2291 4 0.0703868 0.0174356 0.612379
2290 2 0.083595 0.0136362 0.591491
1998 4 0.0566101 0.00586072 0.623157
1996 2 0.040779 0.0041472 0.642435
1271 4 0.0388002 0.076614 0.61036
459 4 0.0581667 0.0716492 0.616772
1245 4 0.156558 0.0713778 0.652408
1601 4 0.122917 0.0731823 0.606416
457 2 0.0829561 0.0748721 0.617299
458 4 0.107745 0.078095 0.617826
1244 4 0.177316 0.0394054 0.620041
1243 2 0.166937 0.0553916 0.636224
1151 4 0.259226 0.0333866 0.585394
2049 4 0.256836 0.0425626 0.60289
2047 2 0.254713 0.0416387 0.627786
2048 4 0.25259 0.0407148 0.652682
1163 4 0.374377 0.0514307 0.630817
1162 2 0.366944 0.027815 0.634313
797 4 0.360018 0.0646683 0.631904
796 2 0.358462 0.0741037 0.608801
1164 4 0.359511 0.00419925 0.637809
2195 4 0.457669 0.00773798 0.585137
1270 2 0.0277376 0.0895055 0.592013
1198 2 0.073026 0.160084 0.60545
1200 4 0.0482848 0.158643 0.608763
3103 2 0.00500825 0.167996 0.614138
3104 4 0.0291538 0.163183 0.609779
2376 4 0.111403 0.147023 0.598687
1199 4 0.0977672 0.161525 0.602138
44 3 0.383156 0.14512 0.601039
41 1 0.390597 0.130101 0.584992
42 3 0.385837 0.108727 0.592038
1142 4 0.41652 0.168132 0.661769
1259 4 0.0113206 0.215186 0.649401
2374 2 0.129028 0.164287 0.602748
2375 4 0.146652 0.181552 0.606808
824 4 0.164375 0.190003 0.610583
2991 4 0.122513 0.245319 0.634382
2989 2 0.142075 0.247086 0.649853
3275 4 0.107034 0.243118 0.623037
2990 4 0.161638 0.248854 0.665325
825 4 0.212043 0.180001 0.621914
2131 2 0.236246 0.196516 0.590383
823 2 0.188209 0.185002 0.616248
2133 4 0.227759 0.18365 0.610071
981 4 0.399333 0.176911 0.660181
979 2 0.374733 0.174381 0.663869
3499 2 0.00299365 0.320593 0.583436
3501 4 0.0267234 0.317301 0.576278
3274 2 0.101173 0.25169 0.600291
1207 2 0.137432 0.326547 0.653953
274 2 0.239367 0.317945 0.630201
275 4 0.240419 0.293237 0.626517
858 4 0.292283 0.265458 0.590082
857 4 0.253612 0.280593 0.617943
856 2 0.272947 0.273025 0.604012
1135 2 0.344784 0.314639 0.586988
1024 2 0.480322 0.26768 0.654413
1025 4 0.459959 0.280028 0.662031
1026 4 0.500686 0.255332 0.646794
1208 4 0.151055 0.340534 0.638333
1187 4 0.154332 0.398868 0.657997
1160 4 0.143559 0.411222 0.646799
276 4 0.238316 0.342653 0.633885
936 4 0.256703 0.376567 0.671077
663 4 0.337098 0.397205 0.678117
4484 4 0.337563 0.39772 0.658525
1136 4 0.364242 0.330341 0.58716
4483 2 0.35841 0.404417 0.646453
4485 4 0.379257 0.411114 0.634382
1039 2 0.0196135 0.409702 0.603505
3240 4 0.0158641 0.425601 0.64163
3238 2 0.000146588 0.423977 0.661008
1041 4 0.0241495 0.421033 0.625327
2170 2 0.147488 0.474352 0.588782
2171 4 0.149711 0.459569 0.608825
1161 4 0.141793 0.457048 0.626859
1159 2 0.142676 0.434135 0.636829
1250 4 0.40068 0.48263 0.643106
1249 2 0.3947 0.477854 0.619302
1251 4 0.38872 0.473079 0.595498
4181 4 0.410622 0.489975 0.658021
1183 2 0.155817 0.0567839 0.712414
1185 4 0.142372 0.0560379 0.733482
945 4 0.132041 0.0440284 0.745648
1184 4 0.169261 0.0575299 0.691346
1203 4 0.18564 0.0616069 0.679646
1201 2 0.194417 0.0844723 0.684678
2231 4 0.296887 0.00468375 0.69695
2230 2 0.317394 0.0188228 0.699124
2232 4 0.337901 0.0329618 0.701298
951 4 0.335337 0.0466312 0.686864
949 2 0.349131 0.067373 0.689029
3356 4 0.396818 0.0567111 0.740693
1005 4 0.373325 0.0850963 0.674797
2321 4 0.406464 0.0268549 0.730363
88 3 0.408918 0.00832987 0.735859
1145 4 0.46799 0.0457952 0.70039
1144 2 0.489839 0.056017 0.693807
2322 4 0.449804 0.0402405 0.709311
2320 2 0.428134 0.0335477 0.719837
1225 2 0.0356162 0.0934195 0.673143
1226 4 0.0470834 0.108612 0.689356
4521 4 0.0527918 0.107199 0.707641
4519 2 0.0455816 0.11371 0.73068
4520 4 0.0383714 0.120221 0.753719
1283 4 0.210275 0.154985 0.71086
1202 4 0.203194 0.107338 0.689711
1282 2 0.215239 0.134968 0.696722
1284 4 0.220203 0.114952 0.682584
1130 4 0.194991 0.164699 0.718253
973 2 0.300896 0.155064 0.742526
975 4 0.324015 0.146394 0.746469
950 4 0.362925 0.0881148 0.691194
1003 2 0.395932 0.0952234 0.678196
1261 2 0.356164 0.11591 0.74438
1262 4 0.376537 0.101481 0.742988
1263 4 0.335791 0.130338 0.745771
1143 4 0.42856 0.121756 0.676088
1004 4 0.418539 0.10535 0.681595
1141 2 0.42254 0.144944 0.668928
1129 2 0.188426 0.174138 0.740456
948 4 0.192349 0.218504 0.732997
946 2 0.196053 0.243063 0.735881
978 4 0.259349 0.209856 0.711355
974 4 0.277778 0.163734 0.738583
1167 4 0.316134 0.224674 0.69102
977 4 0.261995 0.172794 0.744823
1210 2 0.256754 0.236806 0.693076
1212 4 0.264076 0.212906 0.69247
976 2 0.260672 0.191325 0.728089
1165 2 0.32859 0.203525 0.686247
980 4 0.350132 0.171851 0.667558
1166 4 0.341046 0.182377 0.681474
2358 4 0.0473382 0.31955 0.686041
896 4 0.0650515 0.328265 0.687689
895 2 0.0898056 0.327236 0.684319
1209 4 0.123808 0.312561 0.669572
897 4 0.11456 0.326208 0.680949
814 2 0.195849 0.298382 0.744348
947 4 0.199758 0.267622 0.738766
815 4 0.186482 0.318641 0.733079
878 4 0.196194 0.33418 0.743261
1211 4 0.249431 0.260706 0.693682
2986 2 0.302528 0.320503 0.721058
2988 4 0.322921 0.309557 0.730518
1194 4 0.446058 0.280379 0.676049
1193 4 0.441152 0.272224 0.725142
1064 4 0.432952 0.273958 0.744068
1192 2 0.443605 0.276301 0.700596
2356 2 0.0363375 0.337049 0.700111
2357 4 0.0253368 0.354547 0.714181
1186 2 0.164248 0.390716 0.679454
877 2 0.183758 0.349941 0.728357
879 4 0.171322 0.365702 0.713454
1188 4 0.174164 0.382563 0.70091
2796 4 0.235918 0.378164 0.718808
2794 2 0.227057 0.392618 0.737187
934 2 0.263507 0.361415 0.689767
935 4 0.270311 0.346264 0.708457
662 4 0.298726 0.365358 0.674367
661 2 0.317912 0.381281 0.676242
2987 4 0.282134 0.331449 0.711599
1292 4 0.384301 0.414495 0.749546
889 2 0.209171 0.474973 0.703943
891 4 0.19361 0.456046 0.708923
1988 4 0.190884 0.458454 0.728699
890 4 0.224733 0.4939 0.698964
1987 2 0.198672 0.441049 0.744872
1002 4 0.315493 0.50083 0.711566
1909 2 0.340408 0.484787 0.728999
1138 2 0.405813 0.441009 0.725097
1911 4 0.356432 0.465593 0.728937
4180 2 0.417086 0.479948 0.679995
1043 4 0.490902 0.419555 0.694989
1140 4 0.417378 0.451624 0.705636
4182 4 0.42355 0.469922 0.70197
1044 4 0.44488 0.421204 0.675495
1042 2 0.467891 0.420379 0.685242
943 2 0.128897 0.0571573 0.766694
944 4 0.125753 0.0702863 0.78774
827 4 0.24617 0.0538868 0.793968
1148 4 0.174046 0.023982 0.824111
826 2 0.25273 0.0316333 0.803292
828 4 0.25929 0.00937979 0.812615
1686 4 0.278827 0.00688387 0.807805
3355 2 0.390411 0.0436479 0.761027
3357 4 0.384005 0.0305847 0.781361
1086 4 0.364111 0.0351287 0.788361
1084 2 0.364562 0.0274594 0.812155
2064 4 0.506485 0.0762408 0.785849
2062 2 0.488168 0.0733383 0.802618
2063 4 0.46985 0.0704358 0.819388
2198 4 0.452052 0.0626997 0.81865
2197 2 0.447236 0.0428461 0.833066
1074 4 0.0323205 0.132234 0.767999
1072 2 0.0451286 0.153615 0.769996
330 4 0.0313364 0.136837 0.818153
328 2 0.0130315 0.151386 0.82701
2114 4 0.14301 0.0813724 0.789464
965 4 0.0873918 0.155339 0.769321
964 2 0.0940116 0.145719 0.79143
2113 2 0.137382 0.0917053 0.811526
966 4 0.100631 0.136099 0.813539
822 4 0.103487 0.147496 0.829935
1081 2 0.180875 0.161601 0.837234
2906 4 0.384789 0.101159 0.761416
2905 2 0.402299 0.11096 0.776332
2907 4 0.419809 0.120762 0.791249
2975 4 0.42552 0.134732 0.777557