ITEM: TIMESTEP
5920000
ITEM: NUMBER OF ATOMS
4590
ITEM: BOX BOUNDS pp pp pp
-9.9985700000000008e+00 9.9985700000000008e+00
-9.9985700000000008e+00 9.9985700000000008e+00
-9.9985700000000008e+00 9.9985700000000008e+00
ITEM: ATOMS id type xs ys zs
1633 2 0.0536816 0.0450587 0.0558555
1148 4 0.0367747 0.0291225 0.0182271
1634 4 0.0423767 0.0340996 0.0364319
1635 4 0.0649865 0.0560179 0.075279
996 4 0.136441 0.0419695 0.0752809
567 4 0.227562 0.058626 0.0431814
565 2 0.237687 0.0408813 0.0287668
566 4 0.247813 0.0231366 0.0143522
1037 4 0.267858 0.0207068 0.0105008
3232 2 0.16087 0.12194 0.0706109
3234 4 0.16697 0.124045 0.0464543
1170 4 0.169081 0.12633 0.0257671
1168 2 0.190868 0.136043 0.0182728
1169 4 0.212655 0.145756 0.0107786
2259 4 0.313273 0.0900701 0.994086
2162 4 0.479605 0.144829 0.0447933
1761 4 0.482706 0.146954 0.0247627
2622 4 0.420568 0.157258 0.0410218
2620 2 0.438389 0.162705 0.0243509
1759 2 0.498866 0.130674 0.0148143
2161 2 0.490515 0.152001 0.0661173
3090 4 0.0590701 0.248568 0.0182208
2771 4 0.0457763 0.237453 0.0079032
2770 2 0.061657 0.223149 0.994927
741 4 0.170472 0.188316 0.0727579
689 4 0.184194 0.17443 0.0763281
309 4 0.313494 0.246533 0.0609626
2791 2 0.376215 0.168948 0.0865719
2793 4 0.393011 0.184759 0.0769252
1007 4 0.401569 0.242796 0.0630044
1006 2 0.396976 0.222061 0.0762013
324 4 0.387542 0.253081 0.0530021
2911 2 0.486138 0.194611 0.0065266
2621 4 0.45621 0.168152 0.00767988
2912 4 0.472707 0.174875 0.999091
1368 4 0.0305078 0.299169 0.0158168
3089 4 0.0269992 0.285194 0.0296555
3088 2 0.0430346 0.266881 0.0239381
1366 2 0.0267735 0.318189 2.17716e-05
782 4 0.182957 0.248777 0.0195916
1290 4 0.1817 0.26908 0.0240775
639 4 0.223075 0.316358 0.031783
1289 4 0.218176 0.302728 0.0179123
1288 2 0.199938 0.285904 0.0209949
307 2 0.320513 0.26823 0.0712163
308 4 0.327533 0.289927 0.08147
2288 4 0.32128 0.307991 0.0749597
2287 2 0.334592 0.329156 0.0750704
322 2 0.38033 0.275148 0.0437169
323 4 0.373117 0.297215 0.0344316
483 4 0.384023 0.295534 0.0168318
481 2 0.381613 0.319747 0.0110768
2722 2 0.492719 0.256138 0.0239344
2724 4 0.483315 0.279227 0.0258458
2790 4 0.473046 0.315211 0.0632102
2788 2 0.488682 0.318085 0.0439116
2789 4 0.504318 0.32096 0.024613
637 2 0.225179 0.340832 0.0364497
942 4 0.209477 0.379253 0.00877127
638 4 0.227284 0.365306 0.0411164
1094 4 0.22614 0.364129 0.0607336
1093 2 0.236851 0.373066 0.0814845
2289 4 0.347904 0.350321 0.0751811
560 4 0.394738 0.340928 0.0509803
559 2 0.407354 0.361532 0.0574223
561 4 0.419969 0.382135 0.0638643
3491 4 0.440261 0.382405 0.0615311
3490 2 0.454276 0.399649 0.072993
648 4 0.999377 0.425199 0.0617827
646 2 0.0224376 0.428964 0.070682
3519 4 0.0638678 0.434804 0.087694
1726 2 0.186599 0.487229 0.0705283
2165 4 0.201568 0.504963 0.0385845
1620 4 0.323692 0.456208 0.0670652
4548 4 0.335261 0.444365 0.0558236
1618 2 0.3126 0.478017 0.0722119
4547 4 0.319098 0.425136 0.0125836
4546 2 0.32718 0.434751 0.0342036
2006 4 0.265517 0.496189 0.0154058
2005 2 0.288119 0.489166 0.00734316
3492 4 0.468292 0.416894 0.084455
1232 4 0.995508 0.0812737 0.122205
33 3 0.118776 0.0330708 0.0805752
994 2 0.159193 0.0346528 0.0826271
34 3 0.084785 0.0497277 0.07717
31 1 0.10329 0.046937 0.0908873
32 3 0.0965356 0.0371817 0.110594
3508 2 0.113788 0.0313568 0.146562
3510 4 0.110974 0.040724 0.123551
35 3 0.11275 0.0671594 0.0953844
995 4 0.181946 0.0273361 0.0899733
2330 4 0.177829 0.0343716 0.10766
2329 2 0.196642 0.0417912 0.122365
2331 4 0.215454 0.0492108 0.13707
532 2 0.390621 0.0102019 0.094594
2767 2 0.411364 0.0364341 0.139109
533 4 0.402146 0.0175237 0.11554
2769 4 0.420092 0.0290745 0.116863
2768 4 0.402637 0.0437936 0.161354
578 4 0.0836297 0.137744 0.11796
359 4 0.122061 0.0852719 0.0920753
3233 4 0.15477 0.119835 0.0947674
360 4 0.0910393 0.120664 0.108981
358 2 0.10655 0.102968 0.100528
284 4 0.143718 0.124498 0.110333
577 2 0.10011 0.156457 0.11612
283 2 0.160374 0.136642 0.124486
285 4 0.177029 0.148785 0.13864
236 4 0.194731 0.146118 0.148625
235 2 0.207376 0.130415 0.163413
690 4 0.223299 0.14882 0.0940932
616 2 0.258298 0.153541 0.118973
52 3 0.318079 0.145399 0.151015
51 1 0.306309 0.164015 0.157653
54 3 0.285803 0.16419 0.146796
618 4 0.277543 0.150293 0.134601
404 4 0.337845 0.138604 0.150459
403 2 0.344196 0.137115 0.126321
405 4 0.350546 0.135625 0.102184
2792 4 0.359418 0.153137 0.0962187
2163 4 0.501425 0.159173 0.0874414
664 2 0.0730709 0.222429 0.121876
371 4 0.0457247 0.215508 0.153682
666 4 0.0602713 0.210042 0.139423
665 4 0.0858705 0.234816 0.104328
739 2 0.151917 0.182159 0.0883458
740 4 0.133362 0.176002 0.103934
579 4 0.116591 0.17517 0.11428
688 2 0.203747 0.161625 0.0852106
617 4 0.239053 0.15679 0.103345
53 3 0.318434 0.18297 0.151987
1008 4 0.392384 0.201326 0.0893981
13 3 0.0899997 0.253973 0.111704
15 3 0.0689508 0.282508 0.099041
553 2 0.027796 0.272618 0.0981853
554 4 0.0526378 0.27229 0.0953653
11 1 0.0902532 0.274903 0.10169
513 4 0.0428745 0.272752 0.142938
511 2 0.051726 0.256443 0.159696
555 4 0.0029541 0.272947 0.101005
12 3 0.100294 0.273158 0.0810672
14 3 0.102406 0.289771 0.114715
612 4 0.166463 0.320638 0.14506
288 4 0.186502 0.316918 0.144913
286 2 0.210838 0.318141 0.150522
525 4 0.278176 0.270151 0.166641
339 4 0.488017 0.316491 0.133639
246 4 0.498376 0.322605 0.117576
337 2 0.493581 0.295256 0.14561
610 2 0.157515 0.340271 0.157695
507 4 0.142639 0.415152 0.139423
703 2 0.1555 0.396022 0.164423
1095 4 0.247561 0.382003 0.102235
737 4 0.242322 0.404939 0.163259
1157 4 0.2456 0.386089 0.154612
1156 2 0.255504 0.38798 0.131731
1158 4 0.265407 0.389872 0.10885
959 4 0.352436 0.356782 0.0932943
958 2 0.369671 0.360276 0.111069
960 4 0.386905 0.36377 0.128844
2571 4 0.403244 0.372723 0.124008
244 2 0.484452 0.342845 0.112922
2569 2 0.427733 0.36874 0.120903
2570 4 0.452221 0.364757 0.117799
245 4 0.470529 0.363085 0.108269
335 4 0.465182 0.410786 0.167514
647 4 0.0454985 0.432729 0.0795813
3517 2 0.0813033 0.446982 0.100842
3518 4 0.0987389 0.45916 0.11399
506 4 0.111108 0.444532 0.114059
505 2 0.126874 0.429842 0.126741
705 4 0.147883 0.41919 0.158912
386 4 0.182607 0.466831 0.109166
385 2 0.194256 0.459178 0.129924
1727 4 0.187116 0.471904 0.0902782
387 4 0.205904 0.451525 0.150683
738 4 0.217723 0.448413 0.165626
736 2 0.230023 0.426676 0.164442
334 2 0.475414 0.413474 0.144859
336 4 0.485647 0.416161 0.122204
2757 4 0.00715539 0.0267595 0.195595
3509 4 0.116602 0.0219895 0.169574
1070 4 0.132058 0.0107782 0.165479
1796 4 0.12975 0.0334313 0.247922
1851 4 0.129105 0.048095 0.23474
1849 2 0.153798 0.0512562 0.23707
1069 2 0.151222 0.00137408 0.178497
1850 4 0.178491 0.0544175 0.2394
545 4 0.228896 0.0267647 0.236759
2429 4 0.216595 0.0101657 0.237624
1763 4 0.241803 0.070375 0.2086
544 2 0.241989 0.0413691 0.221252
654 4 0.297302 0.0142559 0.194839
546 4 0.255082 0.0559735 0.205746
653 4 0.316297 0.0165746 0.24104
652 2 0.306799 0.0154152 0.217939
1436 4 0.326064 0.0410571 0.209764
1435 2 0.334287 0.0639212 0.203865
1437 4 0.34251 0.0867853 0.197966
521 4 0.400476 0.0519714 0.179706
520 2 0.407217 0.04506 0.20277
522 4 0.413958 0.0381487 0.225835
1354 2 0.451464 0.014414 0.220812
1355 4 0.461438 0.0110938 0.198126
1356 4 0.44149 0.0177341 0.243498
296 4 0.458275 0.0253027 0.25074
379 2 0.0727285 0.158217 0.223224
488 4 0.0650506 0.126641 0.235726
380 4 0.077538 0.14152 0.241204
684 4 0.143307 0.169021 0.230702
366 4 0.152618 0.153802 0.241364
237 4 0.22002 0.114711 0.178201
1762 2 0.240604 0.0902399 0.193463
1764 4 0.239405 0.110105 0.178326
55 3 0.30316 0.163255 0.180195
623 4 0.360089 0.0946943 0.198419
622 2 0.355735 0.108214 0.177841
624 4 0.351381 0.121733 0.157263
357 4 0.421573 0.165253 0.189277
2836 2 0.441803 0.151367 0.216113
2837 4 0.419357 0.158455 0.207681
2838 4 0.46425 0.14428 0.224545
641 4 0.475458 0.146226 0.241007
372 4 0.0636792 0.184893 0.18891
370 2 0.0547019 0.200201 0.171296
381 4 0.0679191 0.174913 0.205244
682 2 0.16009 0.187252 0.227367
674 4 0.115915 0.243605 0.203311
673 2 0.124483 0.220368 0.199879
675 4 0.13305 0.19713 0.196446
683 4 0.176873 0.205484 0.224032
1403 4 0.233489 0.179996 0.203008
1404 4 0.190454 0.204901 0.208342
1402 2 0.211972 0.192448 0.205675
248 4 0.294809 0.167609 0.197192
249 4 0.250381 0.185531 0.211535
247 2 0.272595 0.17657 0.204364
1103 4 0.330707 0.241732 0.191685
472 2 0.296298 0.247882 0.205545
474 4 0.310541 0.24163 0.185969
473 4 0.282055 0.254133 0.225122
250 2 0.406089 0.23219 0.200849
1102 2 0.354161 0.244513 0.199894
1104 4 0.377614 0.247294 0.208102
356 4 0.419959 0.2096 0.166225
251 4 0.418049 0.21906 0.18325
355 2 0.420766 0.187427 0.177751
932 4 0.471148 0.231797 0.233061
931 2 0.468623 0.242584 0.210645
512 4 0.0605775 0.240134 0.176455
735 4 0.0408834 0.257679 0.204293
733 2 0.0331199 0.259511 0.227991
734 4 0.0253564 0.261343 0.251688
524 4 0.248927 0.310639 0.169074
287 4 0.235173 0.319365 0.156132
523 2 0.263551 0.290395 0.167858
252 4 0.394129 0.24532 0.218449
933 4 0.466098 0.253371 0.18823
621 4 0.992536 0.366522 0.170118
1510 2 0.0581636 0.35729 0.221364
1512 4 0.0385616 0.366778 0.20908
620 4 0.0222234 0.352564 0.207861
619 2 0.00737966 0.359543 0.18899
2716 2 0.0165648 0.416 0.242793
2718 4 0.999409 0.405264 0.22811
611 4 0.148566 0.359904 0.17033
1511 4 0.0777655 0.347801 0.233649
704 4 0.163117 0.372853 0.169935
1454 4 0.476355 0.397714 0.178179
301 2 0.477572 0.328698 0.232581
1455 4 0.470639 0.350185 0.192636
1453 2 0.473497 0.37395 0.185407
303 4 0.475854 0.339247 0.209977
2649 4 0.00128778 0.485415 0.2063
1776 4 0.0819574 0.487811 0.188481
393 4 0.0811823 0.468283 0.188445
2141 4 0.164216 0.506659 0.235013
392 4 0.109143 0.427474 0.181132
391 2 0.0951628 0.447878 0.184789
3717 4 0.246631 0.489899 0.186359
1585 2 0.275302 0.416137 0.244537
1586 4 0.290674 0.432535 0.233582
756 4 0.266459 0.484765 0.182864
754 2 0.284956 0.483344 0.199628
755 4 0.303453 0.481923 0.216391
1790 4 0.318039 0.495732 0.215601
1694 4 0.0360976 0.0145385 0.262165
1462 2 0.0517665 0.0777199 0.295974
1464 4 0.0652986 0.0615527 0.309416
20 3 0.0799145 0.0519244 0.319616
1693 2 0.0584405 0.00886289 0.252482
1695 4 0.0807834 0.00318723 0.242799
2552 4 0.0163493 0.0222899 0.262193
17 3 0.0458829 0.0425671 0.331748
1795 2 0.11185 0.0167989 0.253225
1797 4 0.0939495 0.000166581 0.258527
587 4 0.176564 0.063574 0.257601
586 2 0.182999 0.0693687 0.281058
588 4 0.189433 0.0751635 0.304514
691 2 0.313616 0.999874 0.272202
692 4 0.316906 0.00100284 0.296962
1405 2 0.310387 0.0372941 0.313108
1407 4 0.319469 0.0139991 0.312916
693 4 0.310327 0.998744 0.247441
295 2 0.462003 0.0437114 0.267244
297 4 0.465731 0.06212 0.283749
2559 4 0.474445 0.0801539 0.279259
2557 2 0.490185 0.0813772 0.298648
1463 4 0.0382344 0.0938872 0.282532
489 4 0.0368258 0.110915 0.273894
487 2 0.0509382 0.118778 0.25481
364 2 0.1644 0.139135 0.257834
365 4 0.176182 0.124468 0.274303
2513 4 0.190453 0.134722 0.28425
2512 2 0.215387 0.135058 0.286085
2514 4 0.240321 0.135393 0.28792
1866 4 0.318775 0.13618 0.291974
1864 2 0.313469 0.155706 0.277285
899 4 0.312892 0.116941 0.292287
898 2 0.305966 0.117024 0.316312
640 2 0.484772 0.166411 0.252452
2655 4 0.0178074 0.234039 0.291548
382 2 0.0530445 0.243278 0.292638
383 4 0.0306157 0.246817 0.282169
1219 2 0.109175 0.218401 0.309633
1221 4 0.125176 0.203075 0.32122
1220 4 0.0931745 0.233728 0.298047
527 4 0.280963 0.237338 0.266723
1865 4 0.308164 0.175232 0.262596
528 4 0.301165 0.192818 0.256209
526 2 0.291064 0.215078 0.261466
2462 4 0.268066 0.240854 0.28271
642 4 0.494086 0.186597 0.263896
761 4 0.492198 0.204988 0.267381
2599 2 0.469015 0.221397 0.321076
2600 4 0.445694 0.219509 0.312258
1584 4 0.441666 0.225532 0.29352
2652 4 0.502134 0.205734 0.331669
2459 4 0.0393345 0.275846 0.256054
384 4 0.0754734 0.239739 0.303107
2458 2 0.0369826 0.298069 0.267269
2460 4 0.0346307 0.320292 0.278485
464 4 0.0161001 0.327507 0.282357
2461 2 0.276847 0.261899 0.292965
2463 4 0.285628 0.282944 0.303221
229 2 0.402617 0.305061 0.297435
2457 4 0.367956 0.313097 0.315745
230 4 0.382553 0.319469 0.301309
2455 2 0.36128 0.324951 0.336724
2909 4 0.500429 0.346083 0.311954
231 4 0.422681 0.290652 0.293561
1582 2 0.43237 0.248356 0.289298
1583 4 0.423073 0.27118 0.285077
2908 2 0.495534 0.33848 0.288642
302 4 0.479291 0.318149 0.255185
2717 4 0.0337208 0.426737 0.257475
680 4 0.0511683 0.378626 0.284262
463 2 0.0241232 0.351175 0.283172
679 2 0.0505111 0.395519 0.302684
465 4 0.0321462 0.374842 0.283987
681 4 0.049854 0.412412 0.321106
411 4 0.247654 0.354246 0.329393
753 4 0.252293 0.362326 0.310295
751 2 0.252692 0.379308 0.291948
752 4 0.25309 0.39629 0.2736
1587 4 0.25993 0.399739 0.255491
120 3 0.390477 0.412075 0.332919
2910 4 0.49064 0.330878 0.26533
3959 4 0.0605454 0.487711 0.322699
913 2 0.0491318 0.453879 0.310193
915 4 0.0540693 0.478109 0.306489
914 4 0.0441943 0.429649 0.313896
727 2 0.173105 0.486765 0.273433
501 4 0.198986 0.470093 0.299635
728 4 0.180379 0.476077 0.294835
499 2 0.209129 0.448527 0.29207
500 4 0.219272 0.426962 0.284504
1862 4 0.299372 0.42837 0.287635
1861 2 0.313002 0.447954 0.295113
1863 4 0.326631 0.467537 0.302591
1400 4 0.314174 0.484364 0.303098
668 4 0.406951 0.461811 0.313038
667 2 0.385717 0.474093 0.317882
669 4 0.364483 0.486374 0.322726
1698 4 0.424996 0.471344 0.310031
119 3 0.409166 0.442529 0.321048
1696 2 0.442893 0.488791 0.310709
1697 4 0.46079 0.506239 0.311387
117 3 0.427355 0.414434 0.33815
19 3 0.0752633 0.0206494 0.340058
2846 4 0.0060525 0.0431683 0.383762
18 3 0.0716233 0.0548509 0.356226
16 1 0.0683178 0.0425524 0.33683
2847 4 0.0434859 0.0405345 0.350709
2845 2 0.0247692 0.0418514 0.367236
724 2 0.112987 0.0055403 0.339451
726 4 0.0927971 0.0162945 0.329357
458 4 0.103617 0.0362653 0.384425
457 2 0.119345 0.0424819 0.402841
1780 2 0.205776 0.0267056 0.396025
1781 4 0.211777 0.0509375 0.397433
893 4 0.205886 0.0692688 0.39169
1782 4 0.199775 0.00247366 0.394618
1406 4 0.301305 0.0605892 0.3133
3437 4 0.44963 0.0085242 0.407248
257 4 0.447734 0.0267683 0.415332
892 2 0.218069 0.0867287 0.404801
900 4 0.299039 0.117107 0.340336
813 4 0.291524 0.121221 0.357132
811 2 0.290156 0.122749 0.382051
812 4 0.288788 0.124277 0.40697
44 3 0.277285 0.107058 0.408268
570 4 0.1368 0.214536 0.332818
568 2 0.150004 0.221637 0.352828
1 1 0.20349 0.22394 0.388203
3 3 0.217475 0.222222 0.369767
569 4 0.163209 0.228738 0.372838
2 3 0.181641 0.223698 0.381012
5 3 0.206958 0.206354 0.402252
401 4 0.225231 0.235293 0.355602
614 4 0.191311 0.195514 0.406574
4 3 0.207497 0.243891 0.399353
400 2 0.248624 0.244121 0.355581
402 4 0.272017 0.25295 0.355561
3548 4 0.315779 0.180811 0.413953
266 4 0.372674 0.200905 0.420704
265 2 0.397293 0.200645 0.416344
3549 4 0.358748 0.204706 0.40482
3547 2 0.337264 0.192759 0.409386
2601 4 0.492336 0.223285 0.329895
267 4 0.421912 0.200384 0.411983
3308 4 0.432332 0.216665 0.404765
3307 2 0.450672 0.231917 0.397269
3235 2 0.194954 0.290576 0.330862
3237 4 0.196419 0.265818 0.334037
3236 4 0.193489 0.315334 0.327688
410 4 0.203493 0.331013 0.332676
676 2 0.248391 0.30073 0.404178
677 4 0.257935 0.297814 0.381252
576 4 0.328907 0.265186 0.373141
574 2 0.341156 0.274617 0.392793
575 4 0.353405 0.284048 0.412445
1741 2 0.499243 0.280141 0.383557
3309 4 0.469012 0.247169 0.389773
1743 4 0.482338 0.263092 0.390536
1757 4 0.0119418 0.362052 0.354382
345 4 0.0278456 0.365465 0.364551
343 2 0.0528221 0.36558 0.363394
344 4 0.0777987 0.365696 0.362237
414 4 0.0867333 0.384088 0.355953
477 4 0.13609 0.354534 0.386858
413 4 0.128792 0.360839 0.369782
412 2 0.107763 0.372463 0.362868
475 2 0.152193 0.368044 0.400398
409 2 0.225574 0.342629 0.331034
695 4 0.298021 0.406278 0.411833
239 4 0.30823 0.38961 0.413666
2456 4 0.354605 0.336804 0.357703
438 4 0.361955 0.353562 0.364118
437 4 0.363168 0.40064 0.38094
1392 4 0.368181 0.418442 0.389041
436 2 0.362562 0.377101 0.372529
1390 2 0.375136 0.416682 0.412994
1473 4 0.491522 0.333363 0.32642
694 2 0.313605 0.419307 0.397252
696 4 0.329188 0.432335 0.382672
378 4 0.357439 0.478593 0.341738
116 1 0.407653 0.426293 0.337555
773 4 0.402244 0.457655 0.405684
377 4 0.338461 0.450369 0.378398
376 2 0.34795 0.464481 0.360068
118 3 0.404292 0.436296 0.35822
2507 4 0.45823 0.493753 0.351744
3771 4 0.493782 0.435156 0.405583
1556 4 0.419433 0.466709 0.400356
1555 2 0.432481 0.474318 0.38043
2506 2 0.483007 0.490791 0.353324
1557 4 0.44553 0.481926 0.360505
1034 4 0.00468264 0.0444038 0.421974
1033 2 0.0134887 0.0596464 0.439731
1035 4 0.0222947 0.0748889 0.457488
459 4 0.135073 0.0486985 0.421258
1376 4 0.149479 0.0608625 0.425373
1375 2 0.16435 0.0490867 0.441663
1377 4 0.179221 0.0373109 0.457953
1601 4 0.176768 0.0417667 0.478207
1600 2 0.198929 0.044843 0.489369
1152 4 0.285145 0.0355987 0.458199
1150 2 0.277583 0.0594197 0.458944
1839 4 0.304106 0.0388162 0.463089
1837 2 0.312968 0.0196529 0.476484
1838 4 0.32183 0.000489612 0.489878
1216 2 0.402867 0.0181569 0.480357
1217 4 0.378936 0.0172115 0.487538
1218 4 0.426798 0.0191023 0.473176
258 4 0.44373 0.0232953 0.465058
256 2 0.445732 0.0250318 0.440195
398 4 0.0215374 0.0911323 0.444904
397 2 0.0274028 0.106772 0.46351
4421 4 0.0137121 0.127387 0.487551
399 4 0.0332683 0.122411 0.482116
389 4 0.0700887 0.137522 0.493911
388 2 0.0948828 0.140741 0.493646
320 4 0.124327 0.139571 0.513039
390 4 0.119677 0.14396 0.493381
42 3 0.245015 0.116709 0.424946
894 4 0.230252 0.104189 0.417912
99 3 0.21965 0.164493 0.493925
731 4 0.164326 0.16777 0.46299
1151 4 0.270021 0.0832407 0.45969
2238 4 0.283297 0.137894 0.42102
2236 2 0.300722 0.154986 0.426443
43 3 0.268013 0.0924269 0.442097
45 3 0.277405 0.12876 0.439036
41 1 0.267068 0.111321 0.42866
2544 4 0.410692 0.0954583 0.439633
2542 2 0.418345 0.118464 0.433521
2543 4 0.425998 0.141469 0.427408
2816 4 0.445694 0.139846 0.429294
2815 2 0.464258 0.156479 0.431272
2448 4 0.120099 0.215163 0.444057
2446 2 0.141197 0.228233 0.441024
1812 4 0.104744 0.227896 0.442528
2447 4 0.162296 0.241303 0.437992
1810 2 0.0887924 0.246891 0.439376
732 4 0.201746 0.172098 0.495881
615 4 0.16423 0.172602 0.441821
730 2 0.183036 0.169934 0.479436
613 2 0.17777 0.184058 0.424197
2237 4 0.318147 0.172078 0.431866
2817 4 0.482821 0.173112 0.433249
452 4 0.488051 0.181776 0.449379
1142 4 0.480639 0.200569 0.494308
4308 4 0.0322529 0.301865 0.41946
4306 2 0.0533884 0.293061 0.429508
4307 4 0.0745239 0.284256 0.439555
1811 4 0.0728408 0.265885 0.436225
678 4 0.238847 0.303646 0.427104
3276 4 0.174639 0.255932 0.446151
3275 4 0.186669 0.300612 0.465117
3274 2 0.180654 0.278272 0.455634
445 2 0.217182 0.31874 0.447191
447 4 0.20143 0.314975 0.46624
446 4 0.232935 0.322505 0.428142
1332 4 0.294384 0.288563 0.438366
1330 2 0.305464 0.310299 0.432892
1331 4 0.316544 0.332034 0.427418
432 4 0.367001 0.29933 0.409213
430 2 0.378236 0.296863 0.431413
431 4 0.389471 0.294396 0.453614
510 4 0.0626997 0.411607 0.42839
547 2 0.0278749 0.421994 0.438952
508 2 0.0781596 0.392022 0.430001
2298 4 0.170743 0.399241 0.404648
509 4 0.0936195 0.372437 0.431611
710 4 0.102446 0.373506 0.448418
709 2 0.12582 0.372918 0.457278
711 4 0.149194 0.37233 0.466137
290 4 0.0938267 0.39786 0.494983
2172 4 0.140449 0.376001 0.484288
476 4 0.168296 0.381555 0.413938
2296 2 0.179699 0.409258 0.425734
2550 4 0.210826 0.397147 0.468642
2548 2 0.229723 0.412924 0.464267
238 2 0.308575 0.368222 0.426612
240 4 0.30892 0.346834 0.439558
3222 4 0.406544 0.387212 0.489452
3220 2 0.393369 0.392078 0.468766
3221 4 0.380194 0.396944 0.448079
1391 4 0.382092 0.414921 0.436946
549 4 0.0526622 0.424771 0.4407
2384 4 0.148606 0.455064 0.498064
851 4 0.163218 0.447334 0.487336
850 2 0.176666 0.443092 0.466688
2297 4 0.188655 0.419275 0.446819
852 4 0.190113 0.438851 0.44604
2549 4 0.24862 0.428701 0.459892
2308 2 0.28452 0.442984 0.464197
2310 4 0.3024 0.455975 0.475889
928 2 0.307214 0.498146 0.469534
930 4 0.296193 0.476251 0.474463
2309 4 0.26664 0.429993 0.452505
806 4 0.399792 0.489428 0.453756
774 4 0.407877 0.470699 0.45363
772 2 0.40506 0.464177 0.429657
1602 4 0.22109 0.0479193 0.500532
1163 4 0.304839 0.0712664 0.584189
442 2 0.0546073 0.12834 0.535102
444 4 0.0465991 0.122121 0.557957
443 4 0.0626155 0.13456 0.512247
4420 2 0.00676066 0.135455 0.510173
319 2 0.149038 0.136855 0.515717
321 4 0.173749 0.134139 0.518394
1162 2 0.319295 0.0846175 0.568763
100 3 0.252132 0.1615 0.51273
1164 4 0.333751 0.0979685 0.553337
939 4 0.337117 0.112919 0.565453
937 2 0.354309 0.131056 0.564645
938 4 0.371502 0.149193 0.563837
4466 4 0.386446 0.161838 0.566421
4465 2 0.404394 0.165202 0.54934
3354 4 0.0559436 0.209902 0.552177
3117 4 0.0734334 0.214447 0.545482
3115 2 0.0793786 0.236822 0.536038
3352 2 0.050651 0.193193 0.570009
3116 4 0.0853239 0.259197 0.526595
2132 4 0.152556 0.239375 0.555191
2131 2 0.129141 0.2384 0.563907
2133 4 0.105726 0.237425 0.572623
4434 4 0.0996731 0.22819 0.589535
1700 4 0.173604 0.239275 0.552715
96 1 0.231197 0.170456 0.513148
98 3 0.21976 0.162978 0.5319
1699 2 0.194432 0.247168 0.541354
1701 4 0.21526 0.255061 0.529992
911 4 0.234428 0.246114 0.530707
910 2 0.242776 0.223141 0.525441
97 3 0.232783 0.193387 0.514059
912 4 0.251123 0.200168 0.520175
4467 4 0.422342 0.168566 0.53226
1144 2 0.481523 0.161404 0.57161
1145 4 0.459364 0.167409 0.581513
1143 4 0.484655 0.245299 0.516305
1141 2 0.482647 0.222934 0.505306
947 4 0.0988883 0.29585 0.56434
946 2 0.108265 0.307038 0.54404
948 4 0.117642 0.318225 0.52374
3192 4 0.136228 0.323371 0.520897
3190 2 0.16006 0.316928 0.524861
3191 4 0.183891 0.310485 0.528825
583 2 0.215339 0.31826 0.53184
585 4 0.201608 0.299128 0.523438
1137 4 0.308496 0.282446 0.571231
1211 4 0.25179 0.256537 0.573882
3019 2 0.502245 0.252551 0.551042
3020 4 0.488392 0.258587 0.531121
275 4 0.0268534 0.363053 0.554569
936 4 0.0158127 0.368092 0.56995
274 2 0.0456027 0.379593 0.554324
276 4 0.0643519 0.396134 0.554079
1191 4 0.0942433 0.366634 0.554969
291 4 0.0984921 0.3695 0.535905
289 2 0.0961594 0.38368 0.515444
1189 2 0.0972661 0.385335 0.571288
2170 2 0.157709 0.378152 0.50225
584 4 0.22907 0.337392 0.540242
2376 4 0.23907 0.34616 0.554857
2171 4 0.17497 0.380302 0.520212
2374 2 0.240964 0.336478 0.577832
3379 2 0.397248 0.373214 0.570531
3380 4 0.376049 0.361216 0.564888
3381 4 0.418447 0.385211 0.576174
3168 4 0.464812 0.38599 0.522416
3166 2 0.445561 0.387912 0.506577
2777 4 0.435243 0.389109 0.565541
2776 2 0.460187 0.388663 0.563866
2778 4 0.48513 0.388217 0.56219
3167 4 0.426309 0.389833 0.490738
1382 4 0.108329 0.460131 0.533947
2385 4 0.105143 0.470655 0.51726
1381 2 0.108225 0.455564 0.55853
1383 4 0.10812 0.450997 0.583113
2700 4 0.111313 0.500243 0.563267
2383 2 0.126874 0.46286 0.507662
1361 4 0.191528 0.487292 0.53293
2157 4 0.210376 0.496621 0.536084
2155 2 0.23461 0.491122 0.538849
1015 2 0.306725 0.444973 0.560382
1017 4 0.297593 0.432406 0.540791
1016 4 0.315857 0.457541 0.579974
2156 4 0.258845 0.485624 0.541614
3092 4 0.427847 0.489957 0.556511
3093 4 0.448113 0.446907 0.571899
3091 2 0.43798 0.468432 0.564205
3497 4 0.467802 0.451887 0.575282
3496 2 0.490213 0.440804 0.574963
4507 2 0.0100267 0.0853273 0.658576
329 4 0.00259212 0.011118 0.662266
1131 4 0.133105 0.0389203 0.651746
1129 2 0.12532 0.0153918 0.655062
1283 4 0.116398 0.0488907 0.652497
1282 2 0.100853 0.0681396 0.656102
1182 4 0.206675 0.0543437 0.631215
1180 2 0.192908 0.0456765 0.612227
2135 4 0.196567 0.051179 0.647815
1181 4 0.179141 0.0370092 0.59324
3524 4 0.289328 0.0597935 0.591455
3523 2 0.277165 0.0405722 0.601836
3525 4 0.265001 0.0213509 0.612218
1097 4 0.367613 0.0697622 0.662339
1096 2 0.390329 0.0791557 0.657766
4508 4 0.0303443 0.0928186 0.646076
317 4 0.0391944 0.127337 0.648971
316 2 0.0616945 0.116672 0.651246
340 2 0.0169852 0.15842 0.658023
342 4 0.0304745 0.138183 0.663828
318 4 0.0841946 0.106007 0.653521
1284 4 0.0853075 0.0873885 0.659708
1199 4 0.133733 0.172529 0.610128
606 4 0.331081 0.106226 0.642885
604 2 0.308048 0.0990484 0.649452
605 4 0.285014 0.0918712 0.65602
879 4 0.27043 0.104768 0.658853
1098 4 0.413046 0.0885491 0.653194
1194 4 0.425072 0.105215 0.653429
1192 2 0.442934 0.122652 0.651984
1193 4 0.460795 0.140089 0.650539
2354 4 0.459775 0.159305 0.645312
4239 4 0.496068 0.0975546 0.636023
3353 4 0.0453584 0.176485 0.587842
1226 4 0.0358948 0.200465 0.633281
1225 2 0.0600559 0.195245 0.629516
1227 4 0.0842171 0.190026 0.625751
943 2 0.0259147 0.242431 0.631869
4432 2 0.0791342 0.23879 0.599072
4433 4 0.0585953 0.249391 0.60861
945 4 0.0503419 0.24158 0.626599
259 2 0.0702474 0.245189 0.664807
341 4 0.00349592 0.178656 0.652218
2048 4 0.151308 0.165647 0.616869
1198 2 0.112361 0.173146 0.623091
1200 4 0.0909885 0.173763 0.636053
779 4 0.145072 0.210222 0.658443
778 2 0.124461 0.22249 0.65138
261 4 0.087979 0.245993 0.647197
780 4 0.103851 0.234757 0.644318
2047 2 0.170813 0.180817 0.613052
2049 4 0.190319 0.195987 0.609235
467 4 0.201793 0.210464 0.611606
466 2 0.210128 0.225103 0.593129
468 4 0.218463 0.239742 0.574652
824 4 0.232773 0.195801 0.659954
1210 2 0.262053 0.244047 0.592957
1230 4 0.252105 0.189823 0.654472
1212 4 0.272316 0.231556 0.612031
1229 4 0.266215 0.211961 0.61191
1228 2 0.25916 0.200892 0.633191
636 4 0.307393 0.18896 0.626609
634 2 0.314505 0.190989 0.650494
2353 2 0.454814 0.166531 0.621895
2355 4 0.449852 0.173757 0.598478
1207 2 0.0892611 0.297192 0.60896
1208 4 0.0850978 0.298303 0.63359
1209 4 0.0934245 0.296081 0.584331
2375 4 0.242859 0.326796 0.600807
1952 4 0.241592 0.310897 0.615592
1136 4 0.310692 0.269336 0.619438
980 4 0.298518 0.253602 0.622189
979 2 0.30258 0.25834 0.646401
1135 2 0.309594 0.275891 0.595335
1951 2 0.251167 0.324288 0.634411
3338 4 0.273158 0.322349 0.655407
2036 4 0.382091 0.293961 0.584128
2035 2 0.378396 0.31816 0.579032
1190 4 0.100289 0.404036 0.587607
1953 4 0.260743 0.33768 0.65323
2037 4 0.374701 0.342358 0.573937
984 4 0.123526 0.466872 0.647151
897 4 0.106667 0.455223 0.64602
895 2 0.102732 0.459006 0.62162
896 4 0.098798 0.462789 0.597219
982 2 0.134619 0.455616 0.666527
2153 4 0.310109 0.446873 0.654676
1204 2 0.314325 0.451161 0.615978
1205 4 0.303669 0.456195 0.63803
1206 4 0.324981 0.446128 0.593926
792 4 0.402758 0.453614 0.654155
328 2 0.0265209 0.0113779 0.669513
1944 4 0.0638995 0.0141694 0.691328
1942 2 0.0870692 0.0210411 0.697741
330 4 0.0504498 0.0116378 0.676761
1943 4 0.110239 0.0279128 0.704154
2090 4 0.120071 0.0440662 0.711894
2089 2 0.143092 0.0353703 0.707468
2091 4 0.166113 0.0266744 0.703041
2136 4 0.169359 0.0386979 0.687873
2134 2 0.182963 0.0449384 0.667844
1083 4 0.23215 0.079012 0.747101
1081 2 0.236992 0.0628513 0.728647
1082 4 0.241834 0.0466905 0.710193
2231 4 0.307737 0.0365252 0.715808
2230 2 0.284117 0.0410041 0.708935
2232 4 0.260498 0.045483 0.702062
2240 4 0.320512 0.0243916 0.703898
2239 2 0.340223 0.00901018 0.70366
797 4 0.499307 0.00584177 0.670122
2322 4 0.500792 0.0506011 0.743793
2320 2 0.489546 0.0288514 0.748859
2321 4 0.478301 0.00710178 0.753926
1258 2 0.0508352 0.164012 0.735287
1153 2 0.230147 0.150461 0.715633
1155 4 0.239801 0.130187 0.704635
878 4 0.239164 0.134003 0.684708
877 2 0.254797 0.119386 0.67178
1064 4 0.313615 0.132156 0.697577
1063 2 0.319705 0.156144 0.69402
949 2 0.333289 0.112549 0.728815
950 4 0.318896 0.128827 0.716445
1005 4 0.399397 0.141975 0.708876
1003 2 0.395499 0.13676 0.733017
951 4 0.347682 0.0962707 0.741186
89 3 0.498998 0.100477 0.747785
3477 4 0.00538261 0.250217 0.704291
1259 4 0.0502408 0.184195 0.72054
1087 2 0.0665247 0.21484 0.745117
1089 4 0.061221 0.194403 0.731724
3475 2 0.0270065 0.239155 0.698357
260 4 0.0525157 0.244385 0.682417
3476 4 0.0486304 0.228093 0.692422
651 4 0.145003 0.177633 0.721876
858 4 0.133995 0.177837 0.737139
649 2 0.166493 0.187785 0.71411
650 4 0.187982 0.197937 0.706344
825 4 0.205258 0.204542 0.700786
823 2 0.219016 0.200172 0.68037
1154 4 0.220494 0.170735 0.726631
4521 4 0.222029 0.178812 0.744631
635 4 0.321616 0.193017 0.674379
1065 4 0.325796 0.180132 0.690462
3371 4 0.319787 0.190958 0.724002
3370 2 0.335782 0.19975 0.741092
2015 4 0.318581 0.253365 0.684307
4180 2 0.422971 0.238271 0.737671
4182 4 0.434329 0.245183 0.716495
558 4 0.477615 0.268519 0.68888
981 4 0.306642 0.263077 0.670613
2016 4 0.304125 0.272276 0.728286
2014 2 0.311353 0.26282 0.706297
1166 4 0.306596 0.316046 0.711715
1165 2 0.303569 0.310583 0.735926
3339 4 0.306753 0.320236 0.692389
3337 2 0.289956 0.321293 0.673898
557 4 0.430594 0.255068 0.699313
556 2 0.454104 0.261793 0.694097
989 4 0.0597504 0.326315 0.714325
988 2 0.0514498 0.334597 0.736409
1920 4 0.252432 0.341076 0.758734
1918 2 0.259453 0.357105 0.740875
1919 4 0.266475 0.373133 0.723015
1079 4 0.281229 0.367121 0.711967
1078 2 0.290343 0.389348 0.705032
1080 4 0.299456 0.411575 0.698097
2154 4 0.318671 0.418379 0.69487
1911 4 0.417568 0.380038 0.713602
3011 4 0.426973 0.389156 0.72886
1909 2 0.428901 0.382879 0.691496
1910 4 0.440234 0.38572 0.66939
3010 2 0.443129 0.396063 0.74665
983 4 0.145712 0.44436 0.685903
2152 2 0.31439 0.432626 0.674773
4481 4 0.317049 0.494336 0.741134
2379 4 0.319171 0.506103 0.724614
2377 2 0.33402 0.505601 0.704503
790 2 0.391839 0.472096 0.666975
791 4 0.38092 0.490578 0.679795
4028 4 0.0124545 0.0431154 0.82704
2114 4 0.236488 0.0819639 0.76724
3579 4 0.208939 0.0114546 0.748997
1247 4 0.213695 0.00784365 0.767401
1246 2 0.204784 0.0199391 0.787388
1248 4 0.195873 0.0320345 0.807374
455 4 0.208529 0.0427947 0.817805
3356 4 0.386834 0.00901594 0.800171
2198 4 0.392954 0.0294757 0.798412
2197 2 0.391651 0.0445259 0.818336
2276 4 0.0149292 0.128346 0.811499
1260 4 0.0514296 0.143829 0.750034
2277 4 0.0010886 0.163219 0.778438
2275 2 0.00800888 0.145783 0.794969
1184 4 0.0583319 0.13917 0.767799
856 2 0.130337 0.159615 0.753865
857 4 0.126678 0.141393 0.77059
1185 4 0.107953 0.135692 0.772934
1183 2 0.0831424 0.137431 0.770367
2113 2 0.246413 0.104655 0.763806
2115 4 0.256339 0.127345 0.760372
1257 4 0.331433 0.160021 0.799998
1004 4 0.391601 0.131545 0.757158
2064 4 0.376498 0.144901 0.759938
2062 2 0.362186 0.14583 0.780418
2063 4 0.347873 0.146759 0.800899
1088 4 0.0718285 0.235277 0.758511
869 4 0.0927165 0.234793 0.764376