ITEM: TIMESTEP
3550000
ITEM: NUMBER OF ATOMS
4590
ITEM: BOX BOUNDS pp pp pp
-9.9985700000000008e+00 9.9985700000000008e+00
-9.9985700000000008e+00 9.9985700000000008e+00
-9.9985700000000008e+00 9.9985700000000008e+00
ITEM: ATOMS id type xs ys zs
1635 4 0.0703801 0.020379 0.0557022
449 4 0.0339579 0.0737165 0.0527206
3984 4 0.0426346 0.0727256 0.0711114
701 4 0.0661505 0.00914312 0.0722478
1633 2 0.0823862 0.0049861 0.0400788
235 2 0.15421 0.0553672 0.0296784
995 4 0.159279 0.02314 0.0145704
236 4 0.143311 0.034979 0.0201546
237 4 0.16511 0.0757554 0.0392022
35 3 0.209117 0.100085 0.0353945
994 2 0.169672 0.0118395 0.994836
34 3 0.175379 0.0898058 0.0485762
248 4 0.253403 0.0692788 0.0921686
249 4 0.289485 0.0605436 0.0586652
2162 4 0.312921 0.0168416 0.020098
2161 2 0.309534 0.0334621 0.0384683
2001 4 0.305643 0.0117263 0.0024098
2163 4 0.306146 0.0500825 0.0568385
247 2 0.271444 0.0649112 0.0754169
1827 4 0.35859 0.0567684 0.0784715
1840 2 0.389306 0.0411819 0.0595431
1841 4 0.378426 0.0561114 0.0763932
1825 2 0.355413 0.0811427 0.0738911
1842 4 0.400185 0.0262525 0.0426931
1109 4 0.474885 0.0358555 0.0239155
1108 2 0.46784 0.0128917 0.0169727
372 4 0.078471 0.0898321 0.010492
448 2 0.0501203 0.0733641 0.0336462
450 4 0.0662827 0.0730116 0.0145718
546 4 0.0783172 0.160176 0.0700741
1232 4 0.0882987 0.144117 0.0779403
33 3 0.17985 0.123443 0.0314594
32 3 0.181673 0.0916064 0.0115653
31 1 0.186653 0.101262 0.0318413
54 3 0.20327 0.131008 0.0611797
1133 4 0.212586 0.127826 0.0438277
1132 2 0.227737 0.137697 0.0265587
360 4 0.188726 0.100591 0.0805427
51 1 0.190891 0.13358 0.0806359
53 3 0.168401 0.135983 0.0754557
1134 4 0.242887 0.147567 0.00928976
4212 4 0.317316 0.147552 0.988895
4210 2 0.339885 0.152944 0.998208
483 4 0.375977 0.151111 0.995989
481 2 0.393259 0.166725 0.00508306
1826 4 0.352236 0.105517 0.0693107
2948 4 0.39366 0.0814843 0.0194882
2947 2 0.417914 0.0820276 0.0255393
2680 2 0.463805 0.0858402 0.0645513
2681 4 0.443995 0.0898706 0.0498369
2949 4 0.442168 0.0825709 0.0315905
2682 4 0.483614 0.0818098 0.0792658
545 4 0.0823983 0.197281 0.0367978
544 2 0.0803577 0.178729 0.053436
324 4 0.339696 0.225475 0.0841476
4211 4 0.362454 0.158337 0.00752054
322 2 0.342905 0.238615 0.0631185
1304 4 0.421519 0.179131 0.0298468
323 4 0.346113 0.251755 0.0420894
482 4 0.410541 0.18234 0.0141776
1303 2 0.419496 0.202053 0.0396275
1305 4 0.417473 0.224975 0.0494082
554 4 0.0771279 0.310925 0.0578746
553 2 0.0551598 0.312286 0.0697374
299 4 0.0955273 0.315118 0.0516296
298 2 0.106879 0.294701 0.0427151
294 4 0.12533 0.256691 0.0260767
292 2 0.143619 0.263149 0.0102973
300 4 0.118231 0.274285 0.0338006
293 4 0.161907 0.269607 0.994518
933 4 0.24373 0.309429 0.0354449
958 2 0.218677 0.322118 0.00917269
960 4 0.232216 0.304053 0.0199219
455 4 0.218292 0.250787 0.998899
931 2 0.262014 0.30432 0.0517169
932 4 0.280298 0.299212 0.0679889
354 4 0.293532 0.313866 0.0685758
352 2 0.316029 0.319291 0.0780443
1234 2 0.256627 0.260593 0.998979
1122 4 0.295814 0.270164 0.00172757
1235 4 0.281189 0.256791 0.00169954
968 4 0.40584 0.321799 0.0602192
2772 4 0.0261939 0.3289 0.0360097
2770 2 0.0341915 0.338217 0.0142288
3519 4 0.0202696 0.403766 0.0565179
3517 2 0.0107123 0.425594 0.0489427
2874 4 0.00549429 0.3278 0.031699
1103 4 0.160333 0.378037 0.00239993
959 4 0.205137 0.340182 0.998423
524 4 0.226251 0.367497 0.0721074
1094 4 0.22084 0.41304 0.0675266
353 4 0.338525 0.324716 0.0875128
967 2 0.413719 0.345497 0.0589901
799 2 0.405208 0.401557 0.0359126
2567 4 0.38011 0.415917 0.00561555
387 4 0.349711 0.341308 0.0860393
800 4 0.389559 0.416798 0.0237468
969 4 0.421597 0.369195 0.057761
801 4 0.420857 0.386317 0.0480784
2740 2 0.0170728 0.475038 0.0799782
2741 4 0.00672545 0.497026 0.0740943
1709 4 0.109641 0.495214 0.0273452
1629 4 0.123652 0.481253 0.0292922
1093 2 0.230188 0.429813 0.0515118
638 4 0.244814 0.460988 0.0237056
1095 4 0.239535 0.446586 0.035497
498 4 0.336222 0.469586 0.075628
541 2 0.372947 0.471688 0.0576531
543 4 0.355317 0.470921 0.0753668
542 4 0.390577 0.472456 0.0399394
3982 2 0.0327693 0.0583897 0.0890651
2798 4 0.00944689 0.0566487 0.11534
3983 4 0.022904 0.0440537 0.107019
285 4 0.142596 0.0669908 0.161283
358 2 0.191132 0.0762244 0.0856078
1566 4 0.204731 0.0371657 0.0826849
359 4 0.193538 0.0518577 0.0906728
1564 2 0.192955 0.0191685 0.0954363
2768 4 0.24932 0.0893661 0.0941431
1565 4 0.181179 0.00117126 0.108188
571 2 0.357479 0.0154404 0.146878
404 4 0.372596 0.0461093 0.154446
572 4 0.357627 0.0343789 0.163202
3809 4 0.137566 0.0695746 0.142562
3808 2 0.121315 0.0848258 0.131227
3810 4 0.105064 0.100077 0.119891
1231 2 0.101348 0.128916 0.0929001
1233 4 0.114398 0.113714 0.10786
52 3 0.198067 0.152504 0.0915684
55 3 0.193858 0.115513 0.0941795
2767 2 0.245797 0.0875821 0.118833
2769 4 0.242274 0.0857981 0.143523
759 4 0.365818 0.153975 0.102652
758 4 0.343925 0.112503 0.0852895
757 2 0.354871 0.133239 0.093971
629 4 0.384336 0.158461 0.0976097
582 4 0.469719 0.164551 0.150629
2513 4 0.0709258 0.228802 0.115381
2512 2 0.0482411 0.238835 0.112229
2514 4 0.0255564 0.248868 0.109078
689 4 0.162973 0.242932 0.0928062
688 2 0.176496 0.225648 0.104789
690 4 0.190019 0.208364 0.116771
617 4 0.210104 0.207165 0.120865
616 2 0.224932 0.198335 0.138957
618 4 0.23976 0.189505 0.15705
664 2 0.280129 0.17987 0.149883
665 4 0.304275 0.180541 0.143427
252 4 0.31428 0.182377 0.12596
666 4 0.255983 0.179198 0.156339
250 2 0.325445 0.20175 0.114771
251 4 0.33661 0.221123 0.103582
628 2 0.406839 0.163475 0.107288
580 2 0.449099 0.174225 0.140312
630 4 0.429342 0.168489 0.116967
581 4 0.42848 0.183898 0.129995
2833 2 0.007463 0.301833 0.109539
2834 4 0.0246962 0.316791 0.0993191
555 4 0.0331916 0.313647 0.0816002
2835 4 0.99023 0.286875 0.11976
741 4 0.164701 0.252239 0.111523
740 4 0.146525 0.298706 0.114861
739 2 0.155613 0.275473 0.113192
361 2 0.160321 0.329208 0.107688
363 4 0.164047 0.304699 0.104433
357 4 0.410658 0.268825 0.175953
2609 4 0.0116778 0.348567 0.156543
2827 2 0.00350544 0.355347 0.123064
2828 4 0.0180356 0.342207 0.138601
646 2 0.111546 0.374637 0.114468
647 4 0.0981729 0.362911 0.0968942
648 4 0.12492 0.386363 0.132041
362 4 0.156596 0.353717 0.110944
523 2 0.222959 0.368849 0.0968564
738 4 0.237068 0.368217 0.133445
525 4 0.219668 0.3702 0.121606
246 4 0.284482 0.346089 0.177686
737 4 0.276769 0.355157 0.160902
736 2 0.256919 0.361687 0.147173
385 2 0.363282 0.358571 0.0979974
386 4 0.376854 0.375834 0.109955
339 4 0.389764 0.383251 0.12442
337 2 0.412328 0.3732 0.128298
1046 4 0.434723 0.355022 0.114344
338 4 0.434891 0.363149 0.132177
1045 2 0.458077 0.346786 0.110887
1047 4 0.481431 0.33855 0.107429
659 4 0.49364 0.339201 0.124662
2742 4 0.0274202 0.453049 0.0858621
704 4 0.0655667 0.452899 0.157563
1774 2 0.043004 0.442173 0.123711
1775 4 0.0278229 0.443302 0.103876
1776 4 0.0581851 0.441044 0.143546
703 2 0.0859193 0.439369 0.162845
287 4 0.244846 0.447638 0.128093
1559 4 0.172588 0.47151 0.128111
505 2 0.208966 0.457038 0.119775
507 4 0.233535 0.459069 0.115602
506 4 0.184397 0.455008 0.123948
496 2 0.314698 0.464271 0.0871877
286 2 0.264609 0.444153 0.113179
288 4 0.284372 0.440667 0.0982645
497 4 0.293173 0.458956 0.0987475
2481 4 0.0308857 0.0174813 0.251909
283 2 0.146713 0.076664 0.183969
1403 4 0.1671 0.0947599 0.215797
1402 2 0.184207 0.0796946 0.226073
1404 4 0.201313 0.0646294 0.236348
403 2 0.384448 0.0677448 0.158522
1730 4 0.38873 0.0479462 0.220383
744 4 0.385879 0.0276672 0.217116
1729 2 0.403676 0.0664911 0.227989
1731 4 0.418623 0.085036 0.235596
742 2 0.383628 0.0123656 0.236762
405 4 0.3963 0.0893803 0.162598
2743 2 0.455835 0.0338884 0.223925
2745 4 0.45298 0.034087 0.199085
2744 4 0.45869 0.0336899 0.248764
284 4 0.150829 0.0863371 0.206655
473 4 0.270242 0.107444 0.207869
472 2 0.289486 0.120242 0.217411
474 4 0.308731 0.13304 0.226952
527 4 0.324696 0.135859 0.237748
633 4 0.409023 0.0928458 0.177707
631 2 0.405095 0.114357 0.189833
632 4 0.401166 0.135868 0.201958
311 4 0.385337 0.146639 0.208451
2664 4 0.438146 0.0875257 0.235134
2662 2 0.437795 0.108905 0.248094
513 4 0.00744428 0.225036 0.217756
2897 4 0.0161767 0.243089 0.223986
511 2 0.996342 0.205703 0.229077
2462 4 0.261689 0.211311 0.228296
310 2 0.379241 0.159055 0.22928
312 4 0.373145 0.171471 0.250109
2896 2 0.0139308 0.265809 0.23418
2898 4 0.0116848 0.288529 0.244374
402 4 0.239851 0.313841 0.235255
245 4 0.326179 0.318484 0.17792
13 3 0.332503 0.303971 0.190408
12 3 0.333977 0.300093 0.227764
244 2 0.30533 0.332287 0.177803
1436 4 0.334002 0.298032 0.24732
11 1 0.346323 0.305106 0.209013
14 3 0.354916 0.326549 0.211201
355 2 0.38804 0.277706 0.181845
356 4 0.365421 0.286587 0.187738
15 3 0.363326 0.290091 0.20699
641 4 0.404888 0.312425 0.217847
230 4 0.40538 0.318646 0.236866
640 2 0.427236 0.322119 0.21221
303 4 0.354947 0.334484 0.191358
2945 4 0.495497 0.264273 0.180024
760 2 0.472033 0.301195 0.190171
761 4 0.480332 0.27806 0.18558
762 4 0.463734 0.32433 0.194761
2749 2 0.0235684 0.386558 0.236717
2750 4 0.0283309 0.367916 0.220748
2610 4 0.0286993 0.358833 0.20243
2608 2 0.0201885 0.3537 0.179487
2751 4 0.0188059 0.405199 0.252685
734 4 0.139259 0.397352 0.21078
733 2 0.125512 0.414258 0.198517
476 4 0.148232 0.383685 0.222081
400 2 0.220474 0.329004 0.230807
475 2 0.170752 0.372822 0.222264
401 4 0.201097 0.344167 0.226358
477 4 0.193272 0.36196 0.222446
914 4 0.213975 0.404108 0.204099
913 2 0.215314 0.420618 0.222829
1620 4 0.229331 0.39169 0.200173
1618 2 0.243797 0.372514 0.207116
1619 4 0.258263 0.353339 0.214059
612 4 0.263975 0.34924 0.233466
308 4 0.38969 0.389329 0.17346
302 4 0.387706 0.370361 0.179511
301 2 0.371327 0.352422 0.185435
307 2 0.401563 0.396639 0.194216
1453 2 0.392295 0.41817 0.246965
1454 4 0.397337 0.404764 0.22647
642 4 0.449584 0.331813 0.206572
309 4 0.413435 0.40395 0.214971
393 4 0.00461787 0.419261 0.253349
735 4 0.111765 0.431164 0.186253
705 4 0.106272 0.42584 0.168127
915 4 0.216652 0.437128 0.241559
344 4 0.233372 0.444967 0.247266
1656 4 0.304568 0.496548 0.230695
1654 2 0.314128 0.47436 0.237134
2480 4 0.0193869 0.041875 0.294021
16 1 0.0120799 0.0473814 0.325941
2479 2 0.0251363 0.0296782 0.272965
20 3 0.0345715 0.0492814 0.322914
18 3 0.00156368 0.0443712 0.305478
19 3 0.00385596 0.0664196 0.336349
380 4 0.0908538 0.049599 0.329101
683 4 0.193343 0.0567677 0.252943
682 2 0.192292 0.0598209 0.277737
732 4 0.181264 0.0748273 0.314213
684 4 0.191242 0.0628741 0.302531
692 4 0.239666 0.0763968 0.266457
693 4 0.273356 0.039444 0.266037
691 2 0.256511 0.0579204 0.266247
653 4 0.336252 0.0171291 0.293886
1428 4 0.395483 0.0115929 0.337855
652 2 0.356279 0.00517071 0.28488
2701 2 0.483832 0.00732437 0.269031
2702 4 0.466581 0.0249232 0.264807
1407 4 0.230008 0.0926609 0.273535
1405 2 0.244332 0.112785 0.277409
1406 4 0.258657 0.132909 0.281283
526 2 0.3281 0.154382 0.254194
900 4 0.264433 0.127945 0.300113
898 2 0.275549 0.131712 0.322191
899 4 0.286666 0.135478 0.344268
2663 4 0.437444 0.130285 0.261054
1031 4 0.436655 0.0822397 0.332174
2519 4 0.42215 0.139951 0.268832
2518 2 0.429117 0.158829 0.283674
487 2 0.145287 0.222463 0.301986
489 4 0.167328 0.21292 0.295032
488 4 0.123247 0.232005 0.30894
411 4 0.18137 0.199258 0.299549
2463 4 0.237989 0.197925 0.270247
410 4 0.222719 0.210294 0.273681
409 2 0.202045 0.204776 0.286615
677 4 0.246848 0.228949 0.317018
676 2 0.241638 0.247812 0.301455
2461 2 0.249839 0.204618 0.249271
622 2 0.335143 0.208061 0.264291
624 4 0.335325 0.184553 0.255777
528 4 0.331504 0.172906 0.27064
623 4 0.33496 0.23157 0.272805
254 4 0.382618 0.186318 0.259563
253 2 0.391186 0.201193 0.277743
255 4 0.399753 0.216067 0.295924
2520 4 0.436085 0.177706 0.298515
522 4 0.417 0.223854 0.287675
520 2 0.436441 0.230262 0.302033
521 4 0.455882 0.23667 0.316391
2717 4 0.0246749 0.295667 0.257111
2716 2 0.0307775 0.309398 0.277096
2718 4 0.0368801 0.323129 0.297081
1758 4 0.0395319 0.323443 0.318111
678 4 0.236428 0.266675 0.285891
1 1 0.235499 0.299591 0.274404
4 3 0.215345 0.305115 0.284488
3 3 0.235464 0.277183 0.268381
431 4 0.210551 0.314401 0.300839
430 2 0.193169 0.321022 0.317548
5 3 0.238792 0.312581 0.25599
432 4 0.175786 0.327644 0.334256
2 3 0.252561 0.303235 0.289396
1437 4 0.334151 0.250718 0.263508
1435 2 0.334076 0.274375 0.255414
229 2 0.393279 0.306432 0.255019
231 4 0.381178 0.294218 0.273173
417 4 0.0272894 0.416122 0.337405
465 4 0.0435286 0.407256 0.301564
463 2 0.0377725 0.389558 0.318262
464 4 0.0320164 0.371859 0.33496
1756 2 0.0295725 0.335647 0.337529
610 2 0.278237 0.344618 0.253477
611 4 0.292499 0.339997 0.273487
438 4 0.355613 0.333683 0.301024
118 3 0.337846 0.412605 0.31592
436 2 0.352447 0.357564 0.307724
753 4 0.350125 0.400265 0.30772
751 2 0.369571 0.410755 0.296017
437 4 0.349282 0.381444 0.314423
1455 4 0.387254 0.431576 0.267459
120 3 0.344326 0.380288 0.334119
391 2 0.0146583 0.438908 0.265111
392 4 0.0246988 0.458556 0.276872
3511 2 0.0322419 0.486421 0.287176
3512 4 0.0112815 0.473509 0.282804
1767 4 0.134684 0.490887 0.260994
343 2 0.22908 0.448269 0.271676
345 4 0.224788 0.451571 0.296086
1320 4 0.213959 0.456925 0.31069
1318 2 0.216806 0.478933 0.322209
1655 4 0.323689 0.452172 0.243574
594 4 0.340117 0.493056 0.295402
592 2 0.357464 0.490064 0.313159
752 4 0.389018 0.421245 0.284313
593 4 0.374811 0.487073 0.330916
669 4 0.387302 0.491687 0.345591
381 4 0.0428988 0.0372079 0.335993
17 3 0.0077438 0.0291512 0.339283
2755 2 0.031994 0.00962236 0.360911
2756 4 0.0262147 0.0289659 0.34616
379 2 0.0668763 0.0434035 0.332547
399 4 0.0766547 0.0657573 0.411648
318 4 0.0801294 0.0464577 0.405777
317 4 0.126952 0.0487328 0.388365
316 2 0.103541 0.0475952 0.397071
730 2 0.185088 0.0662068 0.33737
731 4 0.188911 0.0575863 0.360527
1058 4 0.201634 0.0471975 0.37136
1057 2 0.210566 0.0318251 0.388942
1059 4 0.219498 0.0164526 0.406523
258 4 0.395447 0.0302155 0.345288
256 2 0.408212 0.0515249 0.342435
716 4 0.400079 0.0224423 0.418662
257 4 0.420977 0.0728344 0.339581
1034 4 0.991925 0.112788 0.397128
1033 2 0.0159244 0.115646 0.403535
397 2 0.0643783 0.0868401 0.417124
342 4 0.126293 0.119332 0.403199
587 4 0.161491 0.151937 0.372893
1477 2 0.265985 0.150659 0.374894
1478 4 0.279716 0.132983 0.363749
1479 4 0.252254 0.168335 0.386038
1030 2 0.449914 0.102019 0.339799
1032 4 0.463174 0.121798 0.347424
3270 4 0.46156 0.11826 0.367869
3268 2 0.457711 0.128626 0.390294
3269 4 0.453861 0.138993 0.412719
588 4 0.125105 0.185572 0.379635
586 2 0.143298 0.168755 0.376264
1699 2 0.228716 0.194039 0.390036
1701 4 0.206548 0.200717 0.399479
911 4 0.202984 0.202042 0.419083
615 4 0.257742 0.222614 0.333121
613 2 0.266459 0.221353 0.356522
1700 4 0.250884 0.187361 0.380594
434 4 0.265677 0.224395 0.396428
433 2 0.27765 0.213323 0.415381
614 4 0.275176 0.220093 0.379923
2838 4 0.455384 0.241673 0.336333
2836 2 0.47595 0.227927 0.339971
3308 4 0.475565 0.244344 0.403193
267 4 0.480564 0.233234 0.417628
2585 4 0.0185156 0.282344 0.387888
1221 4 0.0327353 0.291409 0.375219
1219 2 0.0547459 0.295071 0.386501
1220 4 0.0767564 0.298733 0.397784
291 4 0.0835273 0.316227 0.403113
2456 4 0.311245 0.31764 0.41198
2455 2 0.329076 0.307401 0.397753
2457 4 0.346907 0.297163 0.383526
1741 2 0.485904 0.313712 0.370198
1743 4 0.468437 0.301655 0.383417
3307 2 0.468425 0.264165 0.389727
3309 4 0.461284 0.283986 0.376261
1757 4 0.0196132 0.34785 0.356947
327 4 0.0105902 0.355088 0.372554
681 4 0.0370283 0.374808 0.354015
679 2 0.0396053 0.384958 0.37672
680 4 0.0421824 0.395108 0.399425
2297 4 0.0509848 0.414039 0.40281
413 4 0.126485 0.399192 0.355861
412 2 0.129216 0.381086 0.372886
414 4 0.131947 0.362979 0.389912
1811 4 0.1146 0.413452 0.361498
446 4 0.302517 0.375178 0.337603
117 3 0.309244 0.391044 0.327307
447 4 0.264523 0.38797 0.367495
445 2 0.28352 0.381574 0.352549
116 1 0.330434 0.398269 0.332591
119 3 0.329697 0.409454 0.352907
407 4 0.999652 0.498125 0.342376
2296 2 0.0584116 0.434237 0.41554
547 2 0.0703459 0.480632 0.357598
548 4 0.0843712 0.465763 0.343197
1810 2 0.098064 0.431732 0.357301
1812 4 0.0815283 0.450011 0.353104
1319 4 0.219653 0.500942 0.333728
667 2 0.411954 0.490827 0.34968
3563 4 0.500627 0.481875 0.414385
668 4 0.436606 0.489966 0.353769
893 4 0.232505 0.00975922 0.420158
1647 4 0.164999 0.992067 0.494704
892 2 0.255615 0.008001 0.429538
894 4 0.278726 0.00624278 0.438918
2237 4 0.309338 0.00869382 0.469047
2236 2 0.312127 0.0233546 0.448985
2238 4 0.314915 0.0380154 0.428924
2018 4 0.3277 0.0137213 0.475627
3757 2 0.356425 0.0267215 0.417085
3758 4 0.38002 0.0198958 0.412405
3759 4 0.332831 0.0335472 0.421765
4581 4 0.467036 0.0230345 0.445431
4579 2 0.47938 0.0347751 0.42713
715 2 0.415234 0.00300474 0.422867
3265 2 0.00818924 0.103113 0.476226
398 4 0.0521019 0.107923 0.4226
1035 4 0.0399234 0.118504 0.409943
340 2 0.139919 0.114943 0.423699
1780 2 0.144238 0.0967389 0.484423
341 4 0.153545 0.110555 0.4442
1782 4 0.144977 0.100523 0.459719
1151 4 0.16012 0.131116 0.505742
1150 2 0.16759 0.145336 0.48658
1152 4 0.17506 0.159556 0.467419
304 2 0.417654 0.13403 0.491631
3201 4 0.453806 0.14486 0.432339
305 4 0.417241 0.130822 0.466838
3199 2 0.47302 0.153126 0.446038
2458 2 0.0056979 0.229258 0.450894
383 4 0.0347926 0.215399 0.437497
382 2 0.0472356 0.194581 0.431416
2459 4 0.0221788 0.21053 0.452573
384 4 0.0596786 0.173763 0.425335
912 4 0.184593 0.169087 0.451892
910 2 0.193788 0.185564 0.435488
650 4 0.293353 0.211216 0.451864
435 4 0.289624 0.202251 0.434334
649 2 0.313064 0.20669 0.466568
651 4 0.332775 0.202165 0.481271
813 4 0.343467 0.21034 0.495463
811 2 0.36846 0.209605 0.495364
812 4 0.393453 0.20887 0.495265
467 4 0.407629 0.222854 0.494704
3200 4 0.492234 0.161392 0.459737
468 4 0.44934 0.212385 0.469184
266 4 0.464333 0.206428 0.456599
466 2 0.428484 0.217619 0.481944
265 2 0.472448 0.219831 0.437114
373 2 0.993945 0.291482 0.475625
374 4 0.00524358 0.269182 0.476066
289 2 0.102042 0.319758 0.419542
290 4 0.120557 0.323289 0.435972
390 4 0.13492 0.31173 0.429065
388 2 0.149649 0.324045 0.445084
389 4 0.164378 0.336359 0.461102
510 4 0.179321 0.321783 0.463973
508 2 0.193119 0.312428 0.482609
576 4 0.293846 0.323085 0.417816
575 4 0.290944 0.306878 0.465035
574 2 0.292395 0.314981 0.441426
240 4 0.288744 0.307601 0.485299
1190 4 0.0719796 0.397289 0.493334
851 4 0.0608416 0.411594 0.486019
1189 2 0.0584258 0.382043 0.507792
377 4 0.238491 0.362285 0.48445
1445 4 0.170663 0.40023 0.494396
1819 2 0.203001 0.37324 0.500245
1444 2 0.176808 0.420658 0.481352
1820 4 0.179632 0.38208 0.501201
376 2 0.258905 0.373213 0.475013
378 4 0.279318 0.38414 0.465576
584 4 0.299251 0.378551 0.469166
583 2 0.305338 0.402681 0.471594
806 4 0.383053 0.386345 0.496083
3222 4 0.38854 0.391847 0.476107
3220 2 0.408883 0.402901 0.466666
807 4 0.348073 0.350692 0.493639
805 2 0.365563 0.368518 0.494861
1392 4 0.472874 0.369625 0.438079
1390 2 0.457718 0.385237 0.450398
1391 4 0.442563 0.400848 0.462718
3221 4 0.429227 0.413955 0.457226
2298 4 0.0658385 0.454434 0.428271
850 2 0.0620897 0.435886 0.480229
852 4 0.0633378 0.460178 0.47444
503 4 0.0611598 0.479032 0.480564
502 2 0.0463585 0.492704 0.495369
774 4 0.22772 0.499996 0.479226
1863 4 0.18045 0.455807 0.456112
1446 4 0.182953 0.441085 0.468309
1861 2 0.195367 0.472824 0.466747
1862 4 0.210284 0.48984 0.477381
773 4 0.270508 0.475913 0.469744
928 2 0.321762 0.463564 0.454024
772 2 0.249114 0.487955 0.474485
930 4 0.333103 0.482353 0.442042
791 4 0.288519 0.470601 0.481884
585 4 0.311424 0.426811 0.474021
929 4 0.310421 0.444776 0.466006
1586 4 0.339368 0.497008 0.43155
1696 2 0.412254 0.457434 0.448246
1698 4 0.391407 0.443819 0.445967
1697 4 0.433101 0.47105 0.450525
1556 4 0.443025 0.486367 0.461299
1555 2 0.440988 0.498334 0.483158
1270 2 0.0302558 0.059016 0.534425
1271 4 0.0348032 0.0522898 0.558074
459 4 0.045722 0.0396806 0.56999
1272 4 0.0257084 0.0657422 0.510776
321 4 0.135866 0.0804961 0.520783
319 2 0.128243 0.0820304 0.544546
320 4 0.120619 0.0835646 0.56831
2048 4 0.201181 0.0946637 0.541374
1180 2 0.267587 0.999171 0.575183
939 4 0.388647 0.0559355 0.567436
937 2 0.385036 0.0803196 0.563246
348 4 0.0311173 0.124027 0.50505
346 2 0.0290671 0.148454 0.509981
3266 4 0.019293 0.121812 0.488564
1781 4 0.143499 0.0929545 0.509127
1199 4 0.14895 0.174339 0.579065
2047 2 0.188882 0.106741 0.523262
2049 4 0.176583 0.118818 0.50515
938 4 0.381425 0.104704 0.559056
41 1 0.375262 0.143707 0.549191
42 3 0.383463 0.12471 0.55924
45 3 0.36724 0.15779 0.565191
43 3 0.392438 0.154005 0.537471
44 3 0.358211 0.137729 0.534634
606 4 0.342673 0.148671 0.529115
4467 4 0.426396 0.155724 0.520193
306 4 0.418066 0.137238 0.516425
3039 4 0.0171584 0.246944 0.540089
347 4 0.0270168 0.17288 0.514912
2375 4 0.170076 0.229742 0.550647
2374 2 0.161573 0.206779 0.555702
2376 4 0.15307 0.183815 0.560757
824 4 0.221892 0.182471 0.544777
823 2 0.230567 0.186756 0.567833
604 2 0.328721 0.16929 0.526801
605 4 0.314769 0.18991 0.524487
1135 2 0.374268 0.251077 0.532734
1136 4 0.390834 0.237186 0.545296
857 4 0.382297 0.221648 0.557049
856 2 0.39192 0.201329 0.567991
858 4 0.401543 0.18101 0.578932
4465 2 0.440982 0.170335 0.534299
49 3 0.475248 0.176898 0.550057
4466 4 0.455568 0.184945 0.548405
50 3 0.501072 0.204026 0.553915
46 1 0.495512 0.185194 0.542378
3037 2 0.00956027 0.252716 0.516978
2448 4 0.0602753 0.288067 0.543421
710 4 0.0542713 0.305393 0.534333
709 2 0.0573096 0.329794 0.529801
3038 4 0.0019621 0.258489 0.493867
2446 2 0.0826514 0.279048 0.549989
3276 4 0.118345 0.265899 0.541669
2447 4 0.105028 0.270028 0.556556
3274 2 0.141742 0.257513 0.544396
3275 4 0.165139 0.249127 0.547123
569 4 0.182687 0.25929 0.547391
568 2 0.194233 0.273889 0.530696
509 4 0.206917 0.303074 0.501245
570 4 0.205779 0.288488 0.514
636 4 0.296722 0.262415 0.527934
239 4 0.288236 0.344273 0.519295
634 2 0.31999 0.270694 0.52403
238 2 0.28849 0.325937 0.502297
635 4 0.343258 0.278973 0.520126
1137 4 0.357702 0.264968 0.520172
4433 4 0.0107126 0.390111 0.576405
1191 4 0.044872 0.366797 0.52225
711 4 0.0603478 0.354195 0.525268
984 4 0.0202489 0.40664 0.578634
4432 2 0.00425706 0.381389 0.553879
1821 4 0.22637 0.3644 0.499288
695 4 0.303191 0.357197 0.516836
694 2 0.319077 0.373354 0.527407
696 4 0.334963 0.389512 0.537979
2355 4 0.361104 0.349066 0.542711
2353 2 0.375054 0.357811 0.561529
1381 2 0.0758105 0.455787 0.566648
1383 4 0.0874921 0.461588 0.545316
3538 2 0.00799792 0.48324 0.534475
3539 4 0.0271657 0.488651 0.519358
2157 4 0.0838052 0.477947 0.535218
1952 4 0.202162 0.458089 0.576908
792 4 0.301955 0.474825 0.529867
2154 4 0.32236 0.476739 0.5316
2152 2 0.319703 0.48569 0.554795
790 2 0.295237 0.472713 0.505876
1251 4 0.385181 0.445791 0.581548
1249 2 0.3978 0.463311 0.568938
1250 4 0.410419 0.480831 0.556329
1269 4 0.395849 0.429173 0.588188
457 2 0.0523164 0.0585272 0.585039
458 4 0.0589108 0.0773738 0.600089
1602 4 0.126603 0.0791096 0.586767
1106 4 0.225703 0.00479111 0.63464
1105 2 0.215342 0.0150857 0.614346
1107 4 0.204981 0.0253802 0.594052
1244 4 0.278161 0.0166582 0.612136
1245 4 0.28253 0.0433643 0.654188
1243 2 0.280346 0.0300112 0.633162
1182 4 0.278685 0.0138783 0.592086
1203 4 0.278824 0.0613384 0.662184
1162 2 0.41284 0.0100799 0.653136
798 4 0.386917 0.0442159 0.584182
796 2 0.411068 0.0378834 0.58552
1163 4 0.430839 0.0241642 0.642995
797 4 0.435219 0.0315508 0.586858
1601 4 0.0788237 0.0822687 0.601186
1600 2 0.102713 0.0806891 0.593977
1200 4 0.161554 0.169387 0.627204
1198 2 0.155252 0.171863 0.603135
1098 4 0.341358 0.147212 0.620496
3116 4 0.0314884 0.181268 0.663287
1225 2 0.0673343 0.195113 0.649644
1226 4 0.0424868 0.193856 0.652134
1227 4 0.0921818 0.19637 0.647153
921 4 0.154641 0.174334 0.645372
1284 4 0.104962 0.181351 0.641414
1282 2 0.116664 0.170579 0.660706
919 2 0.175643 0.182769 0.655999
2132 4 0.205644 0.187153 0.649161
2131 2 0.221203 0.189888 0.62978
2133 4 0.236762 0.192623 0.610399
825 4 0.239242 0.191041 0.590888
1096 2 0.354311 0.156625 0.601293
1097 4 0.367264 0.166039 0.582089
1192 2 0.497987 0.187107 0.664607
3375 4 0.0640502 0.277521 0.659094
1260 4 0.0648428 0.25838 0.666582
1209 4 0.11243 0.316048 0.647721
897 4 0.103013 0.332006 0.640512
2991 4 0.155451 0.27209 0.669589
947 4 0.244551 0.328247 0.657602
276 4 0.233356 0.339714 0.645589
2990 4 0.205116 0.277909 0.670064
2989 2 0.180284 0.274999 0.669827
895 2 0.0955289 0.350276 0.655855
274 2 0.227074 0.362853 0.652685
275 4 0.220793 0.385991 0.659781
936 4 0.24019 0.387624 0.664568
934 2 0.253291 0.40849 0.668829
1267 2 0.396513 0.404305 0.590699
2354 4 0.389003 0.366557 0.580346
1268 4 0.397178 0.379436 0.593209
3114 4 0.485302 0.385523 0.650247
3020 4 0.484157 0.366546 0.658838
3019 2 0.484681 0.350885 0.639355
3112 2 0.483793 0.409883 0.644815
3021 4 0.485205 0.335223 0.619871
9 3 0.0306679 0.486206 0.604658
982 2 0.0116271 0.427195 0.589962
1382 4 0.0641289 0.449987 0.587981
1067 4 0.036713 0.495079 0.6207
1066 2 0.0594559 0.50269 0.613628
1160 4 0.130181 0.477019 0.668076
1159 2 0.135625 0.489982 0.6474
1187 4 0.118859 0.461441 0.674372
1951 2 0.209655 0.481108 0.583166
2794 2 0.254705 0.464535 0.669868
2796 4 0.250066 0.439997 0.668631
2308 2 0.341087 0.495274 0.60638
2309 4 0.358121 0.483931 0.620745
1909 2 0.372076 0.466942 0.651676
1910 4 0.372378 0.473553 0.627565
1019 4 0.493025 0.448653 0.630953
3113 4 0.482285 0.434243 0.639383
4509 4 0.0214716 0.00699166 0.710202
1081 2 0.18057 0.0424373 0.737667
1082 4 0.190765 0.0289877 0.719219
1202 4 0.307192 0.07481 0.7011
1201 2 0.293008 0.0680742 0.681642
1971 4 0.268684 0.025234 0.722012
2230 2 0.251372 0.0593629 0.721789
2231 4 0.251244 0.0357433 0.729992
1969 2 0.27603 0.00287421 0.730453
2232 4 0.251501 0.0829826 0.713587
1141 2 0.389681 0.0691588 0.723599
1257 4 0.379 0.0420048 0.71059
1255 2 0.381582 0.0171358 0.710379
1142 4 0.397659 0.0471604 0.71479
1145 4 0.47583 0.988209 0.734207
1146 4 0.497264 0.0269953 0.711035
1144 2 0.486547 0.00760201 0.722621
3115 2 0.0122328 0.165612 0.666332
944 4 0.124534 0.137258 0.739467
1283 4 0.128366 0.159807 0.679999
943 2 0.101842 0.128369 0.745056
951 4 0.264453 0.0981708 0.71903
949 2 0.286418 0.109097 0.72386
950 4 0.308384 0.120023 0.728691
1005 4 0.31482 0.103006 0.734183
1143 4 0.381703 0.0911573 0.732408
1004 4 0.362937 0.0906657 0.72842
1003 2 0.338878 0.0968357 0.731301
3192 4 0.409364 0.170369 0.732183
3190 2 0.413945 0.155021 0.712984
3191 4 0.418526 0.139672 0.693784
1065 4 0.437475 0.147118 0.689171
1063 2 0.461675 0.146351 0.682929
905 4 0.49135 0.15413 0.731663
2975 4 0.485474 0.135474 0.738603
1064 4 0.485875 0.145585 0.676686
1258 2 0.0662683 0.238927 0.682226
1259 4 0.0676939 0.219474 0.697869
1130 4 0.127437 0.154931 0.699391
1129 2 0.14284 0.17226 0.708753
1131 4 0.158242 0.189588 0.718115
920 4 0.196645 0.191204 0.666625
978 4 0.228565 0.191612 0.761043
1154 4 0.168823 0.186513 0.734638
1153 2 0.188764 0.188414 0.749602
1155 4 0.208705 0.190315 0.764565
2988 4 0.335943 0.205327 0.746222
981 4 0.397444 0.176151 0.74753
979 2 0.375467 0.187858 0.749797
980 4 0.35349 0.199566 0.752063
1193 4 0.490304 0.164403 0.671727
904 2 0.489468 0.178576 0.736568
3373 2 0.046935 0.291509 0.670781
261 4 0.018045 0.30318 0.698528
3374 4 0.0298198 0.305497 0.682468
1207 2 0.131721 0.303643 0.657678
1208 4 0.151013 0.291238 0.667634
946 2 0.259324 0.31412 0.672001
1211 4 0.266637 0.287648 0.700833
948 4 0.274098 0.299993 0.686401
1210 2 0.258503 0.267674 0.713484
1212 4 0.250368 0.2477 0.726135
896 4 0.088045 0.368545 0.671198
2356 2 0.0816352 0.386948 0.705186
2357 4 0.0670045 0.395072 0.723763
3302 4 0.068821 0.413629 0.731052
2358 4 0.0962659 0.378825 0.686608
539 4 0.135735 0.379462 0.754054
4180 2 0.483528 0.4244 0.705826
3301 2 0.0469884 0.425151 0.735024
3303 4 0.0251557 0.436672 0.738995
1955 4 0.0170998 0.454644 0.735324
1186 2 0.134858 0.44229 0.675931
1188 4 0.150857 0.423138 0.677489
2795 4 0.259343 0.489074 0.671105
935 4 0.266391 0.429357 0.67309
661 2 0.293922 0.459649 0.741036
4484 4 0.322058 0.471039 0.715872
663 4 0.30922 0.458097 0.721319
1989 4 0.272444 0.504529 0.671031
4483 2 0.344441 0.46879 0.704958
1911 4 0.371774 0.460331 0.675788
4485 4 0.366825 0.466542 0.694044
4181 4 0.464079 0.440107 0.705388
1139 4 0.418512 0.418704 0.745672
1140 4 0.444817 0.439418 0.708529
1138 2 0.431665 0.429061 0.727101
4521 4 0.0701582 0.0335684 0.780115
4519 2 0.0579454 0.0550512 0.783925
4520 4 0.0457326 0.076534 0.787735
3578 4 0.0890723 0.0262879 0.781902
1083 4 0.170374 0.055887 0.756116
3577 2 0.108869 0.0249943 0.797121
3579 4 0.128665 0.0237006 0.812339
786 4 0.132895 0.0380031 0.825483
2114 4 0.157221 0.0681458 0.7469
1685 4 0.209225 0.0389608 0.807513
1684 2 0.186691 0.0325471 0.816247
826 2 0.298945 0.0460617 0.83312
827 4 0.304785 0.0228497 0.82589
1242 4 0.374244 0.0497387 0.800637
1240 2 0.357076 0.034125 0.791328
1241 4 0.339907 0.0185114 0.78202
1007 4 0.377693 0.0674212 0.792822
1006 2 0.376288 0.0802255 0.814253
2198 4 0.415158 0.00838909 0.821868
2063 4 0.429381 0.0207467 0.827516
2062 2 0.440835 0.0429675 0.827977
2064 4 0.45229 0.0651882 0.828438
557 4 0.450755 0.0847591 0.8294
3476 4 0.037596 0.155528 0.748286
3475 2 0.0177144 0.166597 0.758648
1184 4 0.0463687 0.0965471 0.796057
1183 2 0.0554255 0.112481 0.779049
1185 4 0.0644823 0.128415 0.762041
964 2 0.0211738 0.14006 0.818733
966 4 0.00168749 0.155341 0.815272
2113 2 0.149686 0.0887282 0.758932
2115 4 0.142151 0.109311 0.770964
945 4 0.0791505 0.11948 0.750646
822 4 0.20708 0.169997 0.782638
1086 4 0.309753 0.0808273 0.838715
1084 2 0.316396 0.101748 0.826741
1085 4 0.323039 0.122669 0.814768
1262 4 0.335324 0.136375 0.80588
1261 2 0.327729 0.160185 0.806625
2974 2 0.483984 0.120496 0.758568
556 2 0.457575 0.0956414 0.807947
558 4 0.464395 0.106524 0.786494
2976 4 0.482494 0.105518 0.778533
3477 4 0.997833 0.177665 0.769011
1295 4 0.161651 0.212589 0.830337
1294 2 0.165388 0.229726 0.812518
1296 4 0.169126 0.246864 0.7947
820 2 0.205556 0.183659 0.803523
821 4 0.204031 0.197322 0.824409
976 2 0.250983 0.202648 0.761935
3339 4 0.228793 0.255455 0.814273
977 4 0.273401 0.213685 0.762827
2987 4 0.291074 0.223601 0.758613