ITEM: TIMESTEP
1580000
ITEM: NUMBER OF ATOMS
4590
ITEM: BOX BOUNDS pp pp pp
-9.9985700000000008e+00 9.9985700000000008e+00
-9.9985700000000008e+00 9.9985700000000008e+00
-9.9985700000000008e+00 9.9985700000000008e+00
ITEM: ATOMS id type xs ys zs
1677 4 0.0123584 0.0380504 0.0469877
1675 2 0.036371 0.0312262 0.0484025
1676 4 0.0603837 0.0244021 0.0498174
1667 4 0.0659033 0.0107752 0.037351
1666 2 0.0878869 0.0210196 0.0312723
1668 4 0.109871 0.031264 0.0251937
1684 2 0.184943 0.00912644 0.0278399
1686 4 0.197504 0.027926 0.0171634
1475 4 0.21192 0.0157964 0.00887405
1474 2 0.235755 0.0177171 0.00156507
492 4 0.29981 0.0729365 0.0221784
1023 4 0.314787 0.0749086 0.00819072
759 4 0.419848 0.0232641 0.0699418
757 2 0.433546 0.0248103 0.0490813
758 4 0.447243 0.0263566 0.0282208
1827 4 0.459596 0.0411571 0.0262423
1825 2 0.481247 0.0516135 0.0331045
1826 4 0.502898 0.0620698 0.0399668
702 4 0.00689818 0.139422 0.0504181
700 2 0.0239852 0.135262 0.0681918
3232 2 0.100838 0.0960402 0.0218284
3233 4 0.116328 0.110005 0.0356208
1037 4 0.127018 0.125644 0.0264782
1036 2 0.14782 0.139238 0.0237024
1038 4 0.168621 0.152832 0.0209266
995 4 0.204462 0.0977692 0.0128918
236 4 0.216055 0.103952 0.0281152
235 2 0.203618 0.110881 0.0486697
237 4 0.191181 0.11781 0.0692242
423 4 0.178831 0.133555 0.076014
55 3 0.221826 0.153431 0.0435173
2162 4 0.238193 0.161072 0.0355518
490 2 0.282191 0.0898418 0.0275595
2161 2 0.254737 0.143002 0.030559
491 4 0.264572 0.106747 0.0329407
2163 4 0.271282 0.124932 0.0255662
296 4 0.45994 0.137657 0.0550382
295 2 0.471643 0.118645 0.0662959
558 4 0.470622 0.148533 0.0405557
3299 4 0.503503 0.0897544 0.983306
985 2 0.440816 0.123048 0.0106741
986 4 0.428461 0.109942 0.0280166
555 4 0.0613611 0.247663 0.0763963
52 3 0.189621 0.169545 0.0337168
360 4 0.240084 0.180155 0.0283179
51 1 0.210481 0.173161 0.0427126
54 3 0.208029 0.181763 0.064123
53 3 0.22189 0.188315 0.0293471
741 4 0.205621 0.238683 0.028066
358 2 0.250753 0.197623 0.0139572
4211 4 0.279657 0.214529 0.00577926
4210 2 0.287734 0.232284 0.990136
352 2 0.401607 0.199561 0.0691726
353 4 0.380487 0.205892 0.0809651
357 4 0.360046 0.207587 0.0802815
355 2 0.354715 0.230564 0.0885763
354 4 0.422726 0.193231 0.0573801
324 4 0.440466 0.202928 0.0484552
557 4 0.44329 0.18984 0.0336719
556 2 0.456956 0.169187 0.0371138
322 2 0.453459 0.222731 0.0564696
323 4 0.466451 0.242533 0.0644839
835 2 0.018392 0.292773 0.0143801
836 4 0.0179948 0.299744 0.0383888
456 4 0.028851 0.318092 0.0385095
553 2 0.0856847 0.25095 0.0716284
554 4 0.110008 0.254237 0.0668605
739 2 0.212394 0.262684 0.0262693
740 4 0.219168 0.286685 0.0244725
914 4 0.230914 0.301038 0.032734
913 2 0.230722 0.323676 0.0433492
245 4 0.234179 0.275362 0.07695
385 2 0.313654 0.298511 0.0640212
483 4 0.267745 0.316569 0.0194246
481 2 0.285883 0.301107 0.011866
387 4 0.336396 0.308831 0.0628198
3335 4 0.467663 0.250864 0.0444299
3334 2 0.465609 0.275747 0.043091
3336 4 0.463555 0.30063 0.0417522
3213 4 0.460666 0.318811 0.0499791
3211 2 0.477253 0.328222 0.0661492
454 2 0.0480379 0.333976 0.0406884
455 4 0.0672247 0.34986 0.0428673
2873 4 0.979017 0.379443 0.990289
1103 4 0.0817504 0.361773 0.0401897
1102 2 0.0989516 0.376778 0.0299849
1104 4 0.116153 0.391783 0.0197801
915 4 0.23053 0.346313 0.0539644
756 4 0.213095 0.347833 0.0632355
754 2 0.214849 0.363357 0.0827575
294 4 0.209316 0.376298 0.0206764
957 4 0.228104 0.382463 0.0189735
955 2 0.250633 0.391755 0.0245658
781 2 0.305699 0.37529 0.0283329
782 4 0.291518 0.394329 0.0361796
956 4 0.273162 0.401048 0.0301581
783 4 0.31988 0.35625 0.0204863
659 4 0.357248 0.359588 0.0567587
1046 4 0.361885 0.349821 0.0391709
1045 2 0.369433 0.362526 0.0190024
658 2 0.355272 0.341054 0.0734249
3212 4 0.49384 0.337633 0.0823194
1439 4 0.0774689 0.495275 0.0275441
1692 4 0.0774352 0.47822 0.0151527
1222 2 0.134457 0.426358 0.00652905
1777 2 0.153364 0.45297 0.0549865
1779 4 0.159082 0.435985 0.0375516
1690 2 0.0877936 0.456945 0.00707358
1223 4 0.153858 0.423131 0.0219681
1778 4 0.147645 0.469955 0.0724214
524 4 0.132563 0.473916 0.0869794
495 4 0.430699 0.49602 0.092865
20 3 0.0354138 0.0510344 0.140658
2799 4 0.0211936 0.0405983 0.129871
16 1 0.034172 0.0659258 0.157844
2797 2 0.00230063 0.0440682 0.113865
1850 4 0.319103 0.0049077 0.145957
22 3 0.325841 0.023006 0.144915
573 4 0.337102 0.0678325 0.134573
21 1 0.34358 0.0376371 0.145549
25 3 0.353417 0.0383928 0.125023
23 3 0.335736 0.0586901 0.151349
24 3 0.358847 0.0302348 0.161377
1542 4 0.376452 0.0204158 0.160886
1540 2 0.395164 0.00545312 0.153734
1110 4 0.490121 0.039537 0.114671
1108 2 0.480389 0.0167041 0.111648
29 3 0.485365 0.0594581 0.113337
26 1 0.488828 0.0821709 0.11009
701 4 0.0410722 0.131102 0.0859656
17 3 0.0466612 0.0845354 0.152661
381 4 0.0498078 0.0880664 0.133544
380 4 0.0358715 0.126306 0.104489
379 2 0.0428397 0.107186 0.119016
19 3 0.0121291 0.0723701 0.161158
372 4 0.162194 0.115793 0.138817
422 4 0.175575 0.122268 0.124622
370 2 0.145573 0.116325 0.157489
421 2 0.177203 0.127911 0.100318
248 4 0.197697 0.117244 0.122972
247 2 0.217241 0.115735 0.138493
249 4 0.236785 0.114226 0.154015
565 2 0.243361 0.154738 0.105499
567 4 0.265793 0.145861 0.112071
581 4 0.28048 0.134365 0.104547
580 2 0.304298 0.133931 0.112143
571 2 0.336559 0.0920027 0.128195
582 4 0.328116 0.133497 0.119739
572 4 0.336016 0.116173 0.121816
1759 2 0.405236 0.117398 0.161522
297 4 0.483346 0.0996319 0.0775536
28 3 0.469642 0.093982 0.115642
27 3 0.493673 0.0858586 0.0879073
1760 4 0.421555 0.100372 0.153218
2835 4 0.0532384 0.261416 0.0888817
465 4 0.0924894 0.188606 0.161742
463 2 0.115845 0.196574 0.157712
464 4 0.1392 0.204541 0.153683
476 4 0.136089 0.218259 0.168592
338 4 0.198556 0.20239 0.156572
337 2 0.215459 0.220712 0.15463
566 4 0.22093 0.163615 0.0989261
339 4 0.232362 0.239034 0.152688
356 4 0.349384 0.253542 0.096871
2681 4 0.492102 0.180102 0.14754
763 2 0.465343 0.211467 0.164448
765 4 0.480309 0.19486 0.153249
2833 2 0.0401375 0.260957 0.110173
2807 4 0.0327208 0.271419 0.146984
2834 4 0.0270366 0.260498 0.131465
298 2 0.120446 0.31493 0.0999889
299 4 0.112313 0.292885 0.0914441
244 2 0.258363 0.281036 0.0797943
246 4 0.282548 0.28671 0.0826386
386 4 0.290911 0.28819 0.0652226
254 4 0.364461 0.25039 0.110779
253 2 0.376083 0.261037 0.130189
255 4 0.387705 0.271683 0.1496
629 4 0.404113 0.272814 0.160472
628 2 0.418579 0.254961 0.170331
536 4 0.0661121 0.380624 0.125012
535 2 0.0471502 0.389481 0.138694
537 4 0.0281883 0.398337 0.152375
2541 4 0.0113157 0.409306 0.151171
362 4 0.0759069 0.375726 0.0869466
300 4 0.12858 0.336976 0.108534
363 4 0.11764 0.350219 0.0973611
361 2 0.0967735 0.362972 0.0921538
755 4 0.216602 0.378881 0.102279
1619 4 0.233803 0.38781 0.0989947
1618 2 0.238723 0.412154 0.101889
522 4 0.357534 0.335686 0.10633
660 4 0.353296 0.32252 0.090091
520 2 0.350265 0.344201 0.128687
521 4 0.342996 0.352715 0.151044
738 4 0.0861918 0.427562 0.0880487
737 4 0.0949925 0.435431 0.136642
736 2 0.0905921 0.431497 0.112345
646 2 0.107749 0.451819 0.161924
523 2 0.122459 0.4782 0.109446
525 4 0.112355 0.482484 0.131912
647 4 0.114073 0.472603 0.149547
1791 4 0.202402 0.423855 0.14256
1789 2 0.192889 0.444342 0.153281
1620 4 0.243642 0.436497 0.104784
506 4 0.309798 0.441214 0.0857313
505 2 0.285659 0.441888 0.0922148
287 4 0.324587 0.44168 0.0985824
507 4 0.26152 0.442562 0.0986983
288 4 0.353442 0.442385 0.139418
286 2 0.339014 0.442032 0.119
608 4 0.37295 0.438097 0.142547
644 4 0.337825 0.480234 0.166956
607 2 0.387735 0.436567 0.162653
1575 4 0.342595 0.493112 0.151909
2650 2 0.441196 0.477602 0.123767
2651 4 0.458195 0.464352 0.136442
714 4 0.471668 0.465557 0.150073
2652 4 0.424197 0.490852 0.111091
18 3 0.0426318 0.0563731 0.177224
283 2 0.0919226 0.0202642 0.222666
721 2 0.121653 0.0673405 0.214056
723 4 0.109626 0.0469505 0.222104
284 4 0.102089 0.0373544 0.237823
1506 4 0.217393 0.0314921 0.207307
1504 2 0.238674 0.0446121 0.206887
461 4 0.277612 0.0676519 0.200486
1505 4 0.259954 0.057732 0.206467
460 2 0.282586 0.085068 0.183248
653 4 0.482325 0.00954135 0.233017
742 2 0.445158 0.0730417 0.177558
744 4 0.459386 0.0550086 0.187435
654 4 0.469452 0.0464853 0.20187
652 2 0.475889 0.0280133 0.217443
1731 4 0.499067 0.00387163 0.241521
512 4 0.0397682 0.0741413 0.187323
511 2 0.0424301 0.0897338 0.206687
513 4 0.0450921 0.105326 0.226051
693 4 0.0245265 0.106385 0.228827
371 4 0.128951 0.116857 0.17616
722 4 0.13368 0.0877304 0.206007
1701 4 0.148356 0.0888679 0.218342
578 4 0.117947 0.126614 0.191597
577 2 0.104313 0.14339 0.204161
579 4 0.0906786 0.160166 0.216725
690 4 0.228597 0.112302 0.172128
688 2 0.221887 0.103743 0.194643
689 4 0.215177 0.0951837 0.217157
1699 2 0.172726 0.0903125 0.212938
1700 4 0.197096 0.091757 0.207535
528 4 0.301735 0.112824 0.175307
526 2 0.3112 0.135796 0.1725
462 4 0.287559 0.102484 0.166011
527 4 0.320665 0.158768 0.169692
331 2 0.373652 0.130443 0.211542
332 4 0.377448 0.131343 0.186845
1761 4 0.388916 0.134425 0.169826
333 4 0.369857 0.129544 0.23624
743 4 0.43093 0.0910747 0.167681
2898 4 0.00326791 0.22379 0.24154
395 4 0.0197763 0.232857 0.234021
475 2 0.15398 0.23039 0.181158
477 4 0.171871 0.242521 0.193725
401 4 0.190638 0.238053 0.198408
624 4 0.337552 0.163484 0.179875
622 2 0.334799 0.182626 0.195723
623 4 0.332046 0.201769 0.211571
13 3 0.338733 0.214511 0.22428
11 1 0.35578 0.230247 0.224682
15 3 0.375931 0.219938 0.222172
12 3 0.355332 0.241181 0.244916
312 4 0.383073 0.215919 0.239958
14 3 0.35265 0.245752 0.207706
764 4 0.450378 0.228075 0.175646
2806 2 0.0444072 0.272891 0.16904
394 2 0.0335192 0.248047 0.219683
396 4 0.047262 0.263237 0.205345
2808 4 0.0560936 0.274364 0.191095
748 2 0.0143168 0.326481 0.203104
750 4 0.0319988 0.327505 0.185456
291 4 0.175317 0.346165 0.185286
400 2 0.203645 0.25701 0.208237
402 4 0.216653 0.275967 0.218066
344 4 0.225485 0.280284 0.236388
343 2 0.237166 0.300993 0.244126
610 2 0.321889 0.268227 0.206583
611 4 0.311395 0.290663 0.203163
612 4 0.332382 0.245792 0.210003
630 4 0.433046 0.237109 0.180191
290 4 0.125577 0.351221 0.18633
289 2 0.150447 0.348693 0.185808
416 4 0.18605 0.341207 0.202195
417 4 0.221352 0.373988 0.188782
603 4 0.226704 0.390591 0.181866
415 2 0.203701 0.357597 0.195488
601 2 0.247939 0.396872 0.193478
602 4 0.269173 0.403153 0.205089
303 4 0.284504 0.414426 0.21048
301 2 0.308257 0.409778 0.204203
302 4 0.332009 0.40513 0.197925
308 4 0.351475 0.353383 0.168755
309 4 0.32884 0.385858 0.199312
307 2 0.340158 0.36962 0.184034
496 2 0.42736 0.376311 0.232028
498 4 0.440585 0.387377 0.213922
621 4 0.0444879 0.442705 0.223077
2619 4 0.0387981 0.439167 0.202983
2617 2 0.0602655 0.437901 0.190226
1512 4 0.0138231 0.478176 0.211292
2618 4 0.0817329 0.436636 0.17747
1510 2 0.0329635 0.490552 0.221571
619 2 0.0536585 0.432802 0.244125
648 4 0.101424 0.431035 0.174302
1766 4 0.173494 0.47033 0.181846
1790 4 0.183376 0.46483 0.164002
1765 2 0.177971 0.494568 0.186045
767 4 0.204502 0.440389 0.217329
766 2 0.206541 0.457488 0.235458
768 4 0.208581 0.474587 0.253587
728 4 0.288418 0.480606 0.191595
727 2 0.278064 0.482089 0.214305
729 4 0.267711 0.483572 0.237016
609 4 0.40252 0.435037 0.182758
231 4 0.361669 0.471962 0.224447
643 2 0.352458 0.480361 0.187231
645 4 0.36709 0.480487 0.207505
543 4 0.414437 0.422081 0.190774
229 2 0.351075 0.4525 0.23603
713 4 0.497937 0.451779 0.190332
712 2 0.484803 0.458668 0.170202
541 2 0.431144 0.433645 0.205346
542 4 0.447851 0.445208 0.219918
1772 4 0.120821 0.0341668 0.325199
1402 2 0.205045 0.0322844 0.325043
1403 4 0.213344 0.0479317 0.307394
440 4 0.263167 0.0116755 0.323726
1428 4 0.395286 0.035714 0.310098
258 4 0.39974 0.0290593 0.329256
1426 2 0.417341 0.0292471 0.300251
1517 4 0.459209 0.0285455 0.286493
1516 2 0.469811 0.0492304 0.295708
1427 4 0.439395 0.0227802 0.290405
1518 4 0.480413 0.0699154 0.304922
691 2 0.0187436 0.11686 0.250782
692 4 0.0129607 0.127335 0.272737
2480 4 0.10108 0.0929959 0.275766
2479 2 0.119281 0.110005 0.277908
2481 4 0.137482 0.127014 0.28005
410 4 0.146312 0.143487 0.274484
409 2 0.156872 0.153085 0.295016
397 2 0.0983317 0.152329 0.318981
732 4 0.118736 0.127109 0.321013
398 4 0.098339 0.127553 0.322345
640 2 0.255911 0.159349 0.32677
2768 4 0.32293 0.162635 0.262852
405 4 0.28809 0.151512 0.324218
403 2 0.313077 0.152415 0.324075
641 4 0.275542 0.160603 0.311335
2769 4 0.362548 0.133185 0.254866
2767 2 0.342739 0.14791 0.258859
404 4 0.338064 0.153317 0.323933
633 4 0.357173 0.157576 0.328016
631 2 0.378809 0.149799 0.318187
632 4 0.400444 0.142023 0.308359
707 4 0.412791 0.156687 0.313739
706 2 0.43728 0.152405 0.316407
708 4 0.46177 0.148123 0.319075
2643 4 0.479714 0.159325 0.316051
618 4 0.0835603 0.254357 0.320104
399 4 0.0983244 0.177105 0.315617
2461 2 0.0921932 0.212663 0.330576
2462 4 0.101064 0.18934 0.332159
642 4 0.23628 0.158095 0.342205
411 4 0.167432 0.162682 0.315548
489 4 0.162289 0.178678 0.327079
487 2 0.17519 0.199705 0.331157
310 2 0.398579 0.213596 0.259435
762 4 0.388461 0.240001 0.303684
311 4 0.414086 0.211274 0.278911
760 2 0.388194 0.261346 0.290665
2641 2 0.491743 0.180641 0.321161
2642 4 0.503773 0.201956 0.326271
546 4 0.997022 0.278082 0.27123
617 4 0.0567783 0.262867 0.27874
545 4 0.0467153 0.275733 0.266158
544 2 0.0218685 0.276907 0.268694
616 2 0.0701693 0.258612 0.299422
2716 2 0.00343759 0.333444 0.259903
388 2 0.183877 0.300045 0.287231
389 4 0.205909 0.29327 0.296921
678 4 0.20411 0.279471 0.311067
676 2 0.203465 0.256202 0.320195
390 4 0.161846 0.30682 0.277541
345 4 0.248847 0.321702 0.251864
277 2 0.240539 0.328109 0.29048
278 4 0.243276 0.324045 0.314998
761 4 0.387927 0.282692 0.277646
269 4 0.443983 0.297737 0.282032
268 2 0.450332 0.305878 0.304805
2529 4 0.0248108 0.340535 0.291751
2527 2 0.0235918 0.357306 0.310256
2717 4 0.00980387 0.346717 0.280114
704 4 0.0772512 0.417665 0.252116
2528 4 0.0223729 0.374076 0.328762
735 4 0.135111 0.391528 0.271958
733 2 0.153658 0.405889 0.280614
705 4 0.121773 0.395528 0.257451
703 2 0.0995122 0.406596 0.254783
1863 4 0.172563 0.411567 0.308779
734 4 0.172206 0.42025 0.289271
279 4 0.237803 0.332174 0.265961
669 4 0.302982 0.400608 0.29265
1454 4 0.318508 0.412665 0.298406
667 2 0.304032 0.393151 0.316492
753 4 0.410932 0.378595 0.264594
751 2 0.398875 0.39207 0.281863
752 4 0.386818 0.405544 0.299133
336 4 0.406601 0.333874 0.316974
334 2 0.414306 0.356469 0.324409
497 4 0.414135 0.365245 0.250133
118 3 0.421793 0.400124 0.324166
2923 2 0.486019 0.371819 0.330266
620 4 0.0628292 0.4229 0.265173
3717 4 0.0596717 0.503382 0.250119
1511 4 0.052104 0.502928 0.23185
1861 2 0.172479 0.423555 0.330721
1453 2 0.325509 0.428614 0.280467
1430 4 0.278609 0.489175 0.252961
1455 4 0.33251 0.444562 0.262528
1803 4 0.388109 0.421823 0.310938
230 4 0.340482 0.433038 0.247614
1801 2 0.372065 0.439603 0.318125
1802 4 0.356022 0.457383 0.325313
109 3 0.350548 0.476988 0.326837
117 3 0.442064 0.429696 0.335444
1771 2 0.134491 0.0257924 0.344387
1773 4 0.148161 0.017418 0.363575
2238 4 0.156189 0.0349214 0.37121
2236 2 0.162745 0.0580138 0.378206
1404 4 0.196746 0.0166372 0.342691
2237 4 0.169301 0.0811061 0.385202
1479 4 0.205397 0.999108 0.344183
439 2 0.279546 0.0135029 0.342528
441 4 0.295926 0.0153304 0.361331
424 2 0.342622 0.00519439 0.350574
426 4 0.346955 0.017085 0.32901
257 4 0.400583 0.0403109 0.377973
256 2 0.400162 0.0346851 0.353615
1031 4 0.383245 0.0350177 0.384626
1030 2 0.369622 0.0426268 0.404164
316 2 0.0305528 0.145399 0.395951
1375 2 0.0772308 0.115474 0.401123
317 4 0.0402413 0.123527 0.388674
1377 4 0.0597154 0.122631 0.384778
731 4 0.157765 0.10109 0.338347
730 2 0.138251 0.114099 0.32968
1376 4 0.0947462 0.108317 0.417469
1406 4 0.173627 0.0947903 0.330504
1407 4 0.221111 0.101925 0.34447
684 4 0.240405 0.0952167 0.33836
1405 2 0.197369 0.0983578 0.337487
682 2 0.262979 0.103592 0.345102
683 4 0.285552 0.111968 0.351844
474 4 0.286295 0.126139 0.366151
472 2 0.29774 0.130118 0.388022
473 4 0.309185 0.134096 0.409893
318 4 0.0208644 0.16727 0.403228
2585 4 0.00779894 0.179919 0.395708
2463 4 0.0833224 0.235987 0.328994
677 4 0.202821 0.232933 0.329323
488 4 0.188091 0.220732 0.335235
383 4 0.193121 0.233065 0.389535
1221 4 0.177336 0.226322 0.401655
382 2 0.217302 0.237685 0.385158
384 4 0.241482 0.242304 0.380782
586 2 0.30544 0.204101 0.390423
588 4 0.312943 0.180986 0.384543
587 4 0.297938 0.227216 0.396304
1220 4 0.13563 0.251485 0.390336
1219 2 0.156483 0.238903 0.395996
437 4 0.230568 0.312385 0.35366
509 4 0.243161 0.307192 0.368146
510 4 0.251407 0.260247 0.383273
508 2 0.247284 0.28372 0.37571
435 4 0.389846 0.310625 0.39945
5 3 0.366634 0.340378 0.390679
615 4 0.370543 0.304718 0.400599
433 2 0.407412 0.321368 0.385265
613 2 0.365471 0.284271 0.414067
1 1 0.346597 0.329832 0.388238
3 3 0.345421 0.311647 0.402601
4 3 0.343988 0.322773 0.366289
650 4 0.387289 0.320294 0.417088
270 4 0.456681 0.31402 0.327577
2909 4 0.474648 0.238547 0.375894
516 4 0.468804 0.254163 0.365234
515 4 0.421152 0.266726 0.356735
514 2 0.444978 0.260445 0.360985
434 4 0.424978 0.33211 0.37108
438 4 0.227355 0.361919 0.359726
436 2 0.228962 0.337152 0.356693
412 2 0.238571 0.402668 0.372429
414 4 0.236767 0.378275 0.36724
668 4 0.305082 0.385693 0.340335
2 3 0.32964 0.344494 0.3934
446 4 0.328264 0.362925 0.386152
445 2 0.329314 0.381469 0.402891
2924 4 0.461806 0.376591 0.334278
335 4 0.422011 0.379064 0.331845
120 3 0.429328 0.405334 0.360686
116 1 0.437511 0.407525 0.339547
119 3 0.457115 0.395309 0.337341
679 2 0.00733027 0.416599 0.405033
680 4 0.0309335 0.424848 0.404851
406 2 0.0664544 0.416035 0.386125
408 4 0.0426253 0.422626 0.389853
407 4 0.0902836 0.409443 0.382397
1756 2 0.155282 0.463483 0.379251
1757 4 0.15466 0.482932 0.394953
1758 4 0.155903 0.444034 0.36355
1862 4 0.172394 0.435543 0.352663
413 4 0.240376 0.42706 0.377619
1436 4 0.249942 0.443765 0.384633
1435 2 0.257067 0.46018 0.36717
1587 4 0.279887 0.485307 0.341775
1437 4 0.264192 0.476595 0.349707
1585 2 0.303491 0.48777 0.349648
1586 4 0.327094 0.490234 0.357522
1555 2 0.258727 0.50207 0.410811
106 1 0.359 0.493287 0.341026
1472 4 0.365676 0.460493 0.412201
110 3 0.373108 0.483827 0.356196
1471 2 0.373961 0.474583 0.393279
1473 4 0.382246 0.488673 0.374358
926 4 0.441153 0.415402 0.372316
925 2 0.430217 0.414059 0.394761
686 4 0.0717518 0.0493942 0.417306
429 4 0.0744167 0.0380009 0.481841
685 2 0.0698768 0.0486889 0.442229
687 4 0.0680018 0.0479835 0.467152
1601 4 0.159871 0.0741261 0.464114
1782 4 0.160188 0.0551312 0.470077
1780 2 0.174617 0.0371923 0.479833
1781 4 0.189046 0.0192534 0.489589
1032 4 0.355999 0.0502359 0.423701
2663 4 0.478514 0.0382256 0.433952
1035 4 0.054079 0.143793 0.504316
1033 2 0.0292703 0.146233 0.506255
1034 4 0.00446165 0.148672 0.508194
1600 2 0.146107 0.0906066 0.476925
1602 4 0.132342 0.107087 0.489736
1058 4 0.205044 0.0819305 0.452476
1057 2 0.211215 0.0934017 0.473819
1059 4 0.217386 0.104873 0.495161
342 4 0.29785 0.143868 0.422856
340 2 0.279222 0.14618 0.439374
341 4 0.260594 0.148492 0.455891
305 4 0.496961 0.152 0.466991
717 4 0.470841 0.108267 0.42297
716 4 0.484397 0.144925 0.454165
715 2 0.477619 0.126596 0.438567
2584 2 0.00872485 0.192182 0.417478
2586 4 0.00965075 0.204445 0.439248
1152 4 0.260359 0.164243 0.468812
1150 2 0.265231 0.176609 0.48999
430 2 0.298718 0.253079 0.455779
431 4 0.314655 0.25004 0.436755
3159 4 0.402862 0.182616 0.507467
267 4 0.365621 0.247345 0.437169
265 2 0.387354 0.235295 0.434398
266 4 0.409086 0.223245 0.431628
467 4 0.342446 0.202482 0.489072
466 2 0.363244 0.18993 0.494996
468 4 0.384041 0.177378 0.500919
378 4 0.425023 0.22604 0.442707
376 2 0.434544 0.229362 0.465587
377 4 0.444065 0.232684 0.488467
2457 4 0.45145 0.244716 0.503798
3108 4 0.0131043 0.292101 0.480751
326 4 0.0226103 0.310132 0.476366
568 2 0.101082 0.278817 0.463611
570 4 0.0874843 0.268182 0.445523
696 4 0.120321 0.296782 0.499995
569 4 0.114679 0.289453 0.481699
432 4 0.28278 0.256118 0.474804
576 4 0.287112 0.245443 0.491683
614 4 0.3604 0.263825 0.427536
649 2 0.39838 0.322106 0.439424
651 4 0.40947 0.323919 0.46176
812 4 0.402979 0.307826 0.47425
811 2 0.396852 0.292496 0.493028
325 2 0.0369162 0.325527 0.462819
327 4 0.051222 0.340922 0.449272
1381 2 0.0531898 0.3832 0.464228
1383 4 0.0514497 0.359364 0.456878
374 4 0.0718693 0.402294 0.482545
1382 4 0.0549299 0.407035 0.471578
710 4 0.152515 0.414477 0.449298
261 4 0.0787714 0.337109 0.487136
711 4 0.168562 0.368975 0.462443
709 2 0.160538 0.391726 0.455871
1191 4 0.167437 0.368967 0.482986
447 4 0.330364 0.400013 0.41963
585 4 0.316816 0.40953 0.429137
930 4 0.283571 0.395682 0.464578
928 2 0.270153 0.38132 0.480034
2549 4 0.0320043 0.507213 0.417443
2550 4 0.0459669 0.464448 0.439282
2548 2 0.0389856 0.48583 0.428363
373 2 0.0801804 0.420279 0.497798
503 4 0.11191 0.455542 0.449338
502 2 0.128373 0.438663 0.441017
500 4 0.108948 0.456888 0.469433
504 4 0.144836 0.421783 0.432695
499 2 0.120247 0.47084 0.486837
803 4 0.216966 0.498007 0.473739
1821 4 0.23397 0.43307 0.442424
1556 4 0.240248 0.485297 0.409261
1819 2 0.232396 0.456766 0.434599
1820 4 0.230822 0.480461 0.426775
584 4 0.311761 0.452092 0.454897
583 2 0.314288 0.430811 0.442017
1742 4 0.403038 0.41684 0.42678
1741 2 0.382067 0.429764 0.422489
1743 4 0.361097 0.442687 0.418198
3601 2 0.499395 0.496647 0.448973
927 4 0.419281 0.412715 0.417206
428 4 0.0534722 0.0148512 0.520907
427 2 0.0639444 0.026426 0.501374
320 4 0.184356 0.00892664 0.506055
2194 2 0.392037 0.0184448 0.57086
2195 4 0.39912 0.0423457 0.572801
4467 4 0.473892 0.0736369 0.513096
1200 4 0.035975 0.136117 0.561507
1198 2 0.0140588 0.144473 0.570169
1282 2 0.130593 0.121013 0.526141
1284 4 0.120383 0.115455 0.504004
1283 4 0.140803 0.126572 0.548278
1227 4 0.173315 0.141094 0.58859
2133 4 0.244668 0.123368 0.594844
824 4 0.186105 0.135848 0.572224
823 2 0.205996 0.131509 0.586739
2131 2 0.263636 0.111019 0.58422
1163 4 0.396281 0.100748 0.595199
605 4 0.38516 0.112239 0.583421
606 4 0.394981 0.131226 0.538213
604 2 0.39007 0.121733 0.560817
3158 4 0.412154 0.141114 0.533771
3157 2 0.407508 0.161865 0.520619
4465 2 0.475945 0.087547 0.533772
46 1 0.468048 0.129297 0.574917
47 3 0.446088 0.129928 0.581736
4466 4 0.477998 0.101457 0.554447
49 3 0.475113 0.107201 0.57441
50 3 0.469717 0.138467 0.554138
1151 4 0.270104 0.188975 0.511169
857 4 0.260195 0.200351 0.524908
856 2 0.267098 0.200502 0.54894
858 4 0.274001 0.200653 0.572971
275 4 0.30974 0.23237 0.55523
274 2 0.334452 0.234355 0.558481
575 4 0.299744 0.239241 0.53967
574 2 0.293428 0.242342 0.515677
276 4 0.359163 0.23634 0.561733
635 4 0.366011 0.254401 0.559978
694 2 0.125486 0.293658 0.524258
695 4 0.130652 0.290533 0.548522
1244 4 0.137271 0.292561 0.566986
1243 2 0.141116 0.279051 0.587672
634 2 0.38101 0.268203 0.545497
636 4 0.396009 0.282005 0.531015
813 4 0.390725 0.277166 0.511806
2456 4 0.475296 0.283067 0.525273
2455 2 0.463373 0.263892 0.514536
896 4 0.0577722 0.340313 0.543753
895 2 0.0689826 0.341361 0.566078
259 2 0.0776565 0.33988 0.511961
260 4 0.0765417 0.34265 0.536786
1189 2 0.171471 0.373072 0.507319
1190 4 0.175506 0.377176 0.531651
929 4 0.256736 0.366957 0.495489
773 4 0.293071 0.412362 0.547322
772 2 0.311424 0.395467 0.545615
774 4 0.329776 0.378572 0.543907
239 4 0.347506 0.386646 0.539727
238 2 0.364804 0.378266 0.555718
240 4 0.382102 0.369886 0.57171
3309 4 0.396794 0.36417 0.559076
3307 2 0.421362 0.368743 0.558251
3308 4 0.44593 0.373316 0.557426
806 4 0.455876 0.356941 0.553745
805 2 0.472255 0.347861 0.570312
1446 4 0.0866111 0.426589 0.5291
375 4 0.0884915 0.438264 0.51305
1444 2 0.0947653 0.432533 0.551977
501 4 0.131545 0.484791 0.50424
1445 4 0.102919 0.438477 0.574854
548 4 0.141625 0.501381 0.501221
1237 2 0.242667 0.485853 0.563046
792 4 0.256821 0.446994 0.564343
791 4 0.288306 0.425327 0.532095
1238 4 0.245905 0.462541 0.571487
790 2 0.272563 0.436161 0.548219
1183 2 0.0592985 0.0014166 0.643743
1184 4 0.0559093 0.0246995 0.652205
2990 4 0.00734339 0.0709104 0.62687
1155 4 0.076485 0.0945037 0.605754
1153 2 0.0922992 0.0876885 0.623883
1154 4 0.108113 0.0808733 0.642011
938 4 0.289394 0.0642462 0.65271
43 3 0.294403 0.0555021 0.634898
45 3 0.321912 0.0306277 0.641394
41 1 0.316435 0.0527319 0.641631
42 3 0.318757 0.0608841 0.663016
44 3 0.330574 0.0645433 0.627524
963 4 0.274806 0.000669701 0.591249
798 4 0.331795 0.0791151 0.613391
1091 4 0.300074 0.0624201 0.670004
961 2 0.258447 0.986215 0.60344
1162 2 0.400356 0.0762959 0.591933
950 4 0.321086 0.0199097 0.657816
949 2 0.340703 0.00850502 0.668319
1164 4 0.404431 0.0518437 0.588667
3269 4 0.411637 0.0689133 0.671401
458 4 0.0380047 0.124935 0.577154
457 2 0.0586266 0.11967 0.590277
2991 4 0.0283826 0.0997108 0.661921
2989 2 0.017863 0.0853106 0.644395
459 4 0.0792484 0.114405 0.603399
1225 2 0.155455 0.152858 0.601545
2376 4 0.118528 0.0903223 0.656126
1226 4 0.137596 0.164622 0.614501
2374 2 0.126322 0.111791 0.666301
825 4 0.225887 0.12717 0.601255
937 2 0.274132 0.0836244 0.656799
2132 4 0.282605 0.0986701 0.573596
797 4 0.293318 0.101192 0.590308
796 2 0.312556 0.0901538 0.601849
939 4 0.258869 0.103003 0.660888
1004 4 0.332789 0.120619 0.640456
1003 2 0.357579 0.119548 0.637383
1005 4 0.38237 0.118477 0.63431
3270 4 0.386608 0.102226 0.64375
3268 2 0.399122 0.0855694 0.657576
48 3 0.480925 0.141387 0.589964
872 4 0.462427 0.140796 0.650919
842 4 0.465636 0.146722 0.632573
850 2 0.00917813 0.215148 0.651935
851 4 0.0227614 0.225096 0.670421
893 4 0.273235 0.215703 0.587936
908 4 0.278233 0.191963 0.64772
892 2 0.281968 0.20592 0.609225
894 4 0.290701 0.196136 0.630513
907 2 0.290619 0.185986 0.668602
841 2 0.4734 0.165591 0.618122
843 4 0.481165 0.184461 0.60367
3009 4 0.49599 0.18501 0.589151
982 2 0.073972 0.302647 0.66259
1259 4 0.129451 0.256072 0.616359
1245 4 0.14496 0.265541 0.608357
1258 2 0.130154 0.264543 0.639873
983 4 0.0891189 0.318552 0.650641
1063 2 0.323045 0.271964 0.656238
1064 4 0.300969 0.261106 0.651775
1096 2 0.382334 0.294927 0.668281
1167 4 0.420925 0.300572 0.649384
1098 4 0.359567 0.286633 0.674452
1097 4 0.4051 0.303221 0.662111
1165 2 0.438984 0.310736 0.663375
1194 4 0.500712 0.325682 0.598284
1192 2 0.494192 0.331091 0.621809
807 4 0.488633 0.338781 0.586879
1166 4 0.457043 0.320901 0.677365
897 4 0.080193 0.342409 0.588403
9 3 0.123301 0.34977 0.617561
8 3 0.0985696 0.334563 0.642087
10 3 0.0958243 0.370833 0.63236
6 1 0.101318 0.349999 0.624982
7 3 0.0875081 0.344266 0.607501
1193 4 0.487671 0.3365 0.645333
1019 4 0.473694 0.347796 0.678081
2139 4 0.0734912 0.476281 0.636893
2106 4 0.0570325 0.469301 0.646747
2137 2 0.0673257 0.484953 0.614267
2138 4 0.0611603 0.493626 0.591641
1002 4 0.305888 0.427225 0.641116
1000 2 0.328425 0.432848 0.631862
891 4 0.294078 0.411974 0.640753
889 2 0.277265 0.416266 0.658756
662 4 0.356867 0.433166 0.603739
1001 4 0.350962 0.438471 0.622608
661 2 0.379914 0.441028 0.60941
663 4 0.402962 0.448891 0.61508
1910 4 0.396451 0.496581 0.617123
1251 4 0.420077 0.44611 0.624361
1249 2 0.422899 0.44059 0.648583
4458 4 0.505316 0.493342 0.656202
2114 4 0.0458433 0.0205334 0.669019
2115 4 0.045706 0.0182947 0.718975
2113 2 0.0457747 0.019414 0.693997
945 4 0.0664594 0.039649 0.736823
1201 2 0.12787 0.000814949 0.706652
1202 4 0.134619 5.56918e-05 0.730716
910 2 0.179247 0.0123873 0.682841
912 4 0.203201 0.0194453 0.681603
921 4 0.220686 0.0294704 0.685449
919 2 0.227562 0.0451347 0.703684
920 4 0.234438 0.0607991 0.72192
1106 4 0.181939 0.0677504 0.741538
1085 4 0.305119 0.0368923 0.732689
1092 4 0.300618 0.049852 0.718403
1090 2 0.300346 0.056136 0.694203
4581 4 0.397311 0.0569993 0.677305
4579 2 0.404949 0.0355883 0.687718
4580 4 0.412586 0.0141774 0.69813
3437 4 0.482439 0.0493932 0.668284
1081 2 0.0529186 0.0926363 0.68988
1083 4 0.0579349 0.0861414 0.713499
1082 4 0.0479024 0.0991311 0.666262
2375 4 0.134116 0.13326 0.676476
1107 4 0.149949 0.105857 0.73652
1105 2 0.165944 0.0868039 0.739029
1129 2 0.235926 0.132424 0.682151
1130 4 0.227541 0.153559 0.692553
1131 4 0.244311 0.11129 0.671748
3426 4 0.499725 0.151384 0.699813
873 4 0.480635 0.156034 0.69493
871 2 0.471531 0.148415 0.672925
3039 4 0.0209639 0.243905 0.677728
1211 4 0.312502 0.196432 0.695139
909 4 0.303004 0.18001 0.689484
1210 2 0.316377 0.218452 0.706333
1212 4 0.320252 0.240471 0.717527
3037 2 0.0352251 0.262061 0.668128
984 4 0.0588251 0.286742 0.674539
3038 4 0.0494863 0.280217 0.658528
1260 4 0.130858 0.273015 0.663388
3418 2 0.0987625 0.293526 0.72271
3420 4 0.116341 0.305992 0.73539
878 4 0.142952 0.327313 0.693725
3419 4 0.0811837 0.28106 0.710031
877 2 0.157138 0.307735 0.7001
879 4 0.171324 0.288157 0.706474
1209 4 0.184567 0.295871 0.719075
1207 2 0.20123 0.290761 0.737003
947 4 0.273215 0.255182 0.74695
1029 4 0.290719 0.259433 0.736728
1027 2 0.301133 0.282117 0.738196
1028 4 0.311547 0.304802 0.739664
2988 4 0.299117 0.319733 0.734684
2986 2 0.314122 0.338082 0.742642
1065 4 0.345121 0.282822 0.660702
1024 2 0.495715 0.301092 0.672065
1025 4 0.475412 0.314478 0.677877
4482 4 0.0207784 0.381486 0.735788
538 2 0.0484193 0.406847 0.723646
539 4 0.0283009 0.399507 0.736551
540 4 0.0685376 0.414187 0.71074
935 4 0.0817741 0.403541 0.699785
4480 2 0.999739 0.376717 0.723147
934 2 0.105493 0.404959 0.70757
1136 4 0.13659 0.386786 0.714891
936 4 0.129211 0.406376 0.715355
1137 4 0.147718 0.338312 0.709682
1135 2 0.142154 0.362549 0.712287
1187 4 0.228974 0.407925 0.728856
1160 4 0.212509 0.415049 0.737549
1186 2 0.234997 0.41421 0.705417
1188 4 0.24102 0.420495 0.681977
1229 4 0.263621 0.327358 0.706246
1230 4 0.275641 0.375689 0.701739
1228 2 0.269631 0.351524 0.703992
2987 4 0.329127 0.356432 0.7506
1139 4 0.348214 0.363265 0.74389
1018 2 0.465313 0.370707 0.68356
4485 4 0.464233 0.401538 0.706472
1020 4 0.456932 0.393618 0.689039
4483 2 0.44701 0.418371 0.699749
4174 2 0.0111591 0.487616 0.739029
2104 2 0.0549241 0.481412 0.668519
2105 4 0.0528158 0.493523 0.690292
1952 4 0.325508 0.496642 0.70367
890 4 0.260452 0.420558 0.676758
1951 2 0.330982 0.481013 0.722403
1953 4 0.336455 0.465383 0.741136
1250 4 0.425721 0.43507 0.672806