ITEM: TIMESTEP
4570000
ITEM: NUMBER OF ATOMS
4590
ITEM: BOX BOUNDS pp pp pp
-9.9985700000000008e+00 9.9985700000000008e+00
-9.9985700000000008e+00 9.9985700000000008e+00
-9.9985700000000008e+00 9.9985700000000008e+00
ITEM: ATOMS id type xs ys zs
2422 2 0.0691845 0.026218 0.0254284
449 4 0.0273959 0.0705543 0.0806334
372 4 0.0465547 0.0720972 0.0767771
2423 4 0.0525687 0.043823 0.031686
1149 4 0.0399682 0.0574673 0.0249396
2424 4 0.0858002 0.00861288 0.0191708
2331 4 0.102832 0.998308 0.0201692
359 4 0.195013 0.04388 0.0603998
358 2 0.190771 0.0660221 0.0712126
1566 4 0.214112 0.038229 0.0618629
1564 2 0.210004 0.0135706 0.062383
1110 4 0.395737 0.0143312 0.0324165
1759 2 0.37065 0.048976 0.0163211
1760 4 0.383593 0.0304119 0.0269532
1761 4 0.357708 0.0675401 0.00568889
1108 2 0.417814 0.00473268 0.0256607
3300 4 0.473144 0.048983 0.00387972
1449 4 0.461358 0.0643707 0.00662083
1109 4 0.439891 0.995134 0.0189049
370 2 0.0549757 0.0906224 0.0622485
371 4 0.0633966 0.109148 0.0477198
3233 4 0.0801777 0.115313 0.0392621
3232 2 0.0897268 0.137166 0.031748
3234 4 0.0992758 0.159018 0.0242338
1170 4 0.116546 0.167873 0.0202219
995 4 0.195549 0.142666 0.0670465
994 2 0.184344 0.154506 0.048087
35 3 0.168912 0.0974306 0.0753808
32 3 0.180336 0.132315 0.0686375
2947 2 0.417759 0.125226 0.000940538
1305 4 0.378246 0.160407 0.0592835
1303 2 0.402255 0.164413 0.0535635
2948 4 0.395598 0.130999 0.990904
1447 2 0.456775 0.0875845 0.0147009
1448 4 0.452191 0.110798 0.022781
2949 4 0.43992 0.119453 0.0109772
298 2 0.0481693 0.210873 0.0629514
554 4 0.0214324 0.193565 0.0535554
299 4 0.0272364 0.212793 0.0494122
553 2 0.998359 0.184009 0.0523297
300 4 0.0691022 0.208954 0.0764905
1168 2 0.126898 0.185346 0.00563787
1169 4 0.137251 0.202819 0.991054
996 4 0.17314 0.166345 0.0291275
4210 2 0.326015 0.182744 0.0695937
4211 4 0.320285 0.181866 0.0452715
1289 4 0.275137 0.225767 0.0444699
1288 2 0.270209 0.235879 0.0221398
1304 4 0.426264 0.168418 0.0478436
482 4 0.440473 0.180541 0.0403139
483 4 0.443727 0.230408 0.042139
481 2 0.4421 0.205474 0.0412264
2912 4 0.454599 0.238239 0.0274461
2609 4 0.021225 0.326069 0.0750694
3143 4 0.998906 0.329066 0.998631
741 4 0.15629 0.288667 0.0688846
740 4 0.119206 0.322215 0.06879
739 2 0.137748 0.305441 0.0688373
363 4 0.104308 0.329995 0.059052
1094 4 0.239398 0.303255 0.0124024
638 4 0.234492 0.320333 0.00328268
1093 2 0.251047 0.304929 0.0344635
1095 4 0.262695 0.306602 0.0565246
1158 4 0.273237 0.323467 0.0535808
353 4 0.368585 0.293707 0.0276624
322 2 0.394534 0.289929 0.0547062
324 4 0.371286 0.296416 0.0481743
352 2 0.356368 0.308515 0.0116422
931 2 0.348926 0.327169 0.068238
323 4 0.417781 0.283443 0.061238
338 4 0.436385 0.29029 0.0606028
2911 2 0.465832 0.260317 0.0240469
337 2 0.452836 0.302455 0.0749743
2722 2 0.499517 0.303978 0.0110973
2913 4 0.477066 0.282395 0.0206478
2723 4 0.490488 0.281213 0.00605464
1627 2 0.0405329 0.397246 0.0610076
1629 4 0.0187141 0.399441 0.0489951
1367 4 0.0224178 0.382684 0.0386538
1366 2 0.0133002 0.364378 0.0242675
646 2 0.0879474 0.41049 0.0352452
647 4 0.0953444 0.391205 0.0493352
361 2 0.108183 0.354392 0.0551852
362 4 0.112058 0.378789 0.0513185
1779 4 0.214316 0.389216 0.012048
1777 2 0.235428 0.394574 0.999769
1156 2 0.277068 0.343812 0.0676018
1157 4 0.280899 0.364157 0.0816228
932 4 0.338039 0.334614 0.0469959
648 4 0.0805504 0.429776 0.0211552
386 4 0.28442 0.424771 0.0344378
385 2 0.289394 0.427744 0.0587607
387 4 0.294368 0.430716 0.0830836
2165 4 0.273752 0.479296 0.997673
2012 4 0.382271 0.42214 0.00754005
2289 4 0.414203 0.450573 0.0767331
2287 2 0.43617 0.462224 0.0741039
2788 2 0.483152 0.451716 0.0402618
2789 4 0.466471 0.462517 0.0250866
2288 4 0.458136 0.473874 0.0714748
4089 4 0.465411 0.485232 0.056895
1634 4 0.0267753 0.00461767 0.0945523
448 2 0.0246771 0.0471089 0.0888857
450 4 0.0219583 0.0236635 0.097138
1633 2 0.0365623 0.993874 0.114899
1070 4 0.138036 0.0561172 0.0939051
1069 2 0.116073 0.0467419 0.101316
1071 4 0.0941102 0.0373666 0.108726
236 4 0.204406 0.079045 0.145201
1356 4 0.243496 0.0212682 0.151005
285 4 0.198811 0.0797059 0.165405
2767 2 0.259734 0.0368045 0.113772
2768 4 0.264386 0.0469803 0.0914119
2769 4 0.255082 0.0266286 0.136133
743 4 0.413771 0.05773 0.0975372
744 4 0.420126 0.0294816 0.138309
742 2 0.416948 0.0436058 0.117923
1730 4 0.425203 0.0362403 0.156527
3808 2 0.0242219 0.141649 0.152118
1231 2 0.0762542 0.119476 0.15776
3810 4 0.0383573 0.12144 0.15624
3809 4 0.0100865 0.161857 0.147995
3983 4 0.993994 0.159601 0.13753
34 3 0.153171 0.126198 0.093882
1232 4 0.0991343 0.120864 0.147773
546 4 0.103954 0.119332 0.128497
544 2 0.125131 0.128885 0.119253
545 4 0.146308 0.138438 0.110008
360 4 0.186529 0.0881641 0.0820254
33 3 0.188991 0.115907 0.101326
237 4 0.191784 0.0958125 0.0998114
235 2 0.198095 0.0874288 0.122506
31 1 0.172803 0.117793 0.0848089
665 4 0.224096 0.15048 0.174337
52 3 0.259435 0.107299 0.167721
294 4 0.08839 0.211158 0.0783541
292 2 0.087472 0.222316 0.100711
293 4 0.0865541 0.233474 0.123068
664 2 0.219422 0.170481 0.160079
666 4 0.214748 0.190482 0.145821
690 4 0.170034 0.235853 0.096276
617 4 0.169245 0.216263 0.0971938
618 4 0.201432 0.198745 0.13122
616 2 0.185339 0.207504 0.114207
4212 4 0.331745 0.183622 0.0939159
762 4 0.457721 0.227832 0.155104
577 2 0.0689613 0.248861 0.1548
2608 2 0.0446455 0.325326 0.0837933
579 4 0.0877884 0.245803 0.138633
689 4 0.171805 0.283932 0.0826369
688 2 0.17092 0.259893 0.0894564
523 2 0.188887 0.307695 0.132032
525 4 0.176278 0.291816 0.117401
524 4 0.201497 0.323573 0.146663
1102 2 0.325379 0.315562 0.148909
1103 4 0.335239 0.297937 0.134168
933 4 0.359813 0.319724 0.08948
252 4 0.354053 0.295465 0.138594
250 2 0.378543 0.291428 0.141613
251 4 0.403033 0.287391 0.144633
356 4 0.405831 0.284185 0.162753
339 4 0.469288 0.31462 0.0893458
246 4 0.471166 0.308894 0.10736
244 2 0.46923 0.329045 0.122035
1628 4 0.0623518 0.395052 0.0730201
2610 4 0.068066 0.324582 0.0925172
2750 4 0.059779 0.397837 0.0925452
2749 2 0.0714844 0.398075 0.114638
2751 4 0.0831898 0.398313 0.136731
391 2 0.112819 0.41027 0.150724
393 4 0.0997266 0.406963 0.129681
506 4 0.248897 0.396204 0.0907779
287 4 0.198605 0.336998 0.160605
505 2 0.233436 0.410962 0.103754
1104 4 0.31552 0.333187 0.163651
738 4 0.288643 0.367169 0.0993765
736 2 0.28976 0.392143 0.0988994
960 4 0.360218 0.329884 0.107383
959 4 0.360854 0.37603 0.126641
958 2 0.360536 0.352957 0.117012
1620 4 0.378507 0.382781 0.132322
1618 2 0.386985 0.404012 0.122196
245 4 0.467295 0.349196 0.13671
302 4 0.462339 0.341706 0.154283
621 4 0.0661781 0.479641 0.108375
2649 4 0.0862182 0.49476 0.168384
619 2 0.0874699 0.48967 0.116815
1774 2 0.15345 0.500148 0.127735
620 4 0.108762 0.4997 0.125256
1776 4 0.178165 0.500126 0.131523
507 4 0.217976 0.425719 0.116729
705 4 0.214095 0.444434 0.112195
704 4 0.183998 0.481593 0.126826
703 2 0.199047 0.463013 0.11951
737 4 0.290877 0.417117 0.0984223
1619 4 0.395463 0.425244 0.11207
607 2 0.388273 0.4652 0.103926
608 4 0.376593 0.486144 0.0968472
609 4 0.399953 0.444256 0.111005
3347 4 0.46598 0.4695 0.0894704
3346 2 0.486929 0.482695 0.0859787
495 4 0.472595 0.468593 0.166565
269 4 0.491138 0.475024 0.16867
493 2 0.459227 0.483564 0.181477
3508 2 0.163892 0.0425325 0.177474
3509 4 0.156241 0.0192918 0.172327
3510 4 0.171544 0.0657732 0.182622
249 4 0.318105 0.0729183 0.183111
404 4 0.336295 0.0774662 0.17273
758 4 0.47611 0.0268855 0.159384
747 4 0.488693 0.016898 0.171771
1729 2 0.426297 0.0142739 0.168421
757 2 0.476251 0.0480449 0.172705
759 4 0.476392 0.0692044 0.186025
629 4 0.46407 0.081576 0.194772
2664 4 0.433474 0.994216 0.198637
1233 4 0.053374 0.118088 0.167748
1462 2 0.0769813 0.110718 0.242717
1463 4 0.067588 0.0955735 0.260255
1464 4 0.0863747 0.125863 0.225179
380 4 0.104028 0.128686 0.233334
379 2 0.109262 0.151129 0.223635
381 4 0.114495 0.173573 0.213935
53 3 0.235729 0.135132 0.17644
1402 2 0.18213 0.125116 0.227616
283 2 0.20415 0.0936913 0.185432
1403 4 0.20325 0.125741 0.214246
284 4 0.20949 0.107677 0.205459
472 2 0.234531 0.14074 0.234397
248 4 0.276807 0.0967826 0.168087
247 2 0.297456 0.0848505 0.175599
54 3 0.254681 0.11676 0.203784
474 4 0.249156 0.129634 0.217428
55 3 0.272901 0.139787 0.180215
51 1 0.255773 0.124893 0.18208
527 4 0.286226 0.136616 0.166211
403 2 0.353849 0.0950469 0.175551
405 4 0.371403 0.112628 0.178372
633 4 0.384746 0.1034 0.167088
631 2 0.405779 0.115608 0.172899
521 4 0.442348 0.139497 0.172377
632 4 0.426811 0.127816 0.178709
581 4 0.48917 0.125497 0.219372
630 4 0.483886 0.110442 0.230476
628 2 0.473978 0.0960089 0.212624
512 4 0.0574798 0.240274 0.186249
511 2 0.0380313 0.244104 0.201489
513 4 0.0185828 0.247934 0.21673
675 4 0.0257392 0.24456 0.234681
14 3 0.126038 0.19773 0.172184
13 3 0.127725 0.170615 0.198762
11 1 0.138595 0.188962 0.189616
12 3 0.140994 0.205053 0.205879
15 3 0.159177 0.182821 0.182045
526 2 0.303854 0.154207 0.163984
528 4 0.321483 0.171798 0.161757
624 4 0.332092 0.188294 0.165904
1437 4 0.369033 0.185963 0.207631
622 2 0.353713 0.18418 0.17777
623 4 0.375333 0.180065 0.189636
1435 2 0.385815 0.180218 0.225252
2836 2 0.398474 0.243924 0.238195
2945 4 0.50401 0.20895 0.191574
760 2 0.48054 0.222419 0.163775
520 2 0.444187 0.16442 0.173175
2837 4 0.418074 0.232734 0.227433
642 4 0.436627 0.231129 0.223668
641 4 0.432976 0.199874 0.184803
522 4 0.446026 0.189343 0.173973
640 2 0.434801 0.215501 0.204236
761 4 0.503358 0.217007 0.172447
578 4 0.0501343 0.251919 0.170967
355 2 0.406601 0.281613 0.187612
357 4 0.407372 0.279042 0.212471
659 4 0.493778 0.311576 0.162927
2528 4 0.0720582 0.408664 0.219954
465 4 0.0913874 0.404385 0.226231
392 4 0.125912 0.413576 0.171768
463 2 0.0888931 0.386917 0.243947
610 2 0.147782 0.393549 0.190099
611 4 0.129352 0.410428 0.190878
286 2 0.192235 0.355067 0.176672
288 4 0.185866 0.373135 0.192738
612 4 0.166212 0.37667 0.189321
307 2 0.403241 0.402289 0.19128
308 4 0.380457 0.402539 0.201575
303 4 0.455887 0.362242 0.199419
301 2 0.459113 0.351974 0.176851
1453 2 0.454716 0.406857 0.212899
1455 4 0.471088 0.404504 0.23165
334 2 0.497793 0.374076 0.213095
335 4 0.480806 0.390255 0.221749
309 4 0.426025 0.40204 0.180985
1454 4 0.438344 0.409211 0.194149
2527 2 0.0808361 0.418558 0.198735
1510 2 0.0991877 0.463336 0.170433
1512 4 0.102215 0.487276 0.176984
2529 4 0.0896139 0.428451 0.177516
1319 4 0.0997997 0.453305 0.224464
1511 4 0.0961599 0.439397 0.163882
1318 2 0.110944 0.460045 0.245807
1797 4 0.111844 0.00719756 0.32121
1851 4 0.0937745 0.0473727 0.292707
1796 4 0.0795505 0.0347645 0.294792
1849 2 0.089836 0.0678172 0.278861
1795 2 0.0956974 0.020981 0.308001
333 4 0.233664 0.996554 0.314943
2467 2 0.323463 0.00933418 0.267621
1865 4 0.300794 0.0165318 0.306257
1866 4 0.254538 0.00082421 0.316951
1864 2 0.277666 0.00867802 0.311604
654 4 0.403435 0.0209969 0.266743
2468 4 0.334782 0.00311629 0.246211
652 2 0.40846 0.0451316 0.27092
653 4 0.413485 0.0692662 0.275097
1032 4 0.42692 0.028273 0.301801
2520 4 0.42396 0.0115219 0.292687
1030 2 0.425109 0.0289948 0.326729
1850 4 0.0858976 0.0882617 0.265016
682 2 0.144635 0.152857 0.267508
683 4 0.155062 0.132456 0.257495
1404 4 0.16101 0.12449 0.240985
473 4 0.219906 0.151847 0.251365
2462 4 0.204829 0.140641 0.25683
2461 2 0.204655 0.153596 0.278215
693 4 0.405392 0.0865019 0.275148
691 2 0.391552 0.0921364 0.295195
692 4 0.377712 0.0977709 0.315242
1407 4 0.386696 0.10155 0.333233
673 2 0.0219306 0.25567 0.256754
2458 2 0.0451466 0.244623 0.305206
2460 4 0.0278764 0.251436 0.288458
684 4 0.134208 0.173258 0.27752
2513 4 0.147317 0.177685 0.291386
2512 2 0.134138 0.191984 0.307103
2514 4 0.120958 0.206283 0.32282
3237 4 0.120296 0.251686 0.311249
3235 2 0.097461 0.2515 0.321433
2463 4 0.204482 0.166552 0.2996
410 4 0.197007 0.172953 0.31704
1436 4 0.402598 0.174474 0.242874
2459 4 0.0624169 0.237809 0.321953
3236 4 0.0746262 0.251314 0.331617
674 4 0.018122 0.26678 0.278828
1757 4 0.0210947 0.323548 0.335422
681 4 0.00840743 0.33014 0.322263
476 4 0.131233 0.327572 0.289102
475 2 0.155656 0.332927 0.289247
2838 4 0.378874 0.255113 0.248956
231 4 0.369609 0.26799 0.2633
118 3 0.395612 0.273047 0.320815
229 2 0.373977 0.269235 0.287887
230 4 0.378346 0.27048 0.312475
679 2 0.000487776 0.332436 0.298659
464 4 0.0863989 0.369449 0.261662
734 4 0.127603 0.341253 0.30464
733 2 0.114365 0.336246 0.325253
477 4 0.180079 0.338282 0.289392
400 2 0.196053 0.329027 0.327674
401 4 0.182986 0.328 0.306382
1320 4 0.122089 0.466786 0.267151
914 4 0.139174 0.461541 0.274822
913 2 0.145542 0.453269 0.297542
915 4 0.15191 0.444998 0.320263
729 4 0.154921 0.427887 0.330179
1791 4 0.188037 0.492214 0.248444
751 2 0.198953 0.477997 0.273916
752 4 0.214855 0.482886 0.292581
1587 4 0.216716 0.472417 0.310248
753 4 0.183051 0.473109 0.25525
1585 2 0.229797 0.467857 0.331063
1672 2 0.386905 0.494394 0.276354
1674 4 0.406182 0.486954 0.262275
3564 4 0.487798 0.501818 0.308455
2924 4 0.467058 0.500462 0.311786
1034 4 0.00618837 0.0587048 0.357796
1033 2 0.0132442 0.0655171 0.380796
1035 4 0.0203001 0.0723293 0.403795
730 2 0.298377 0.0598173 0.407451
732 4 0.306488 0.0768259 0.391016
256 2 0.408543 0.0651962 0.375737
258 4 0.40044 0.0856618 0.387598
257 4 0.416647 0.0447306 0.363877
1031 4 0.423297 0.0297166 0.351656
488 4 0.130736 0.132447 0.377291
588 4 0.128518 0.12551 0.395024
487 2 0.143919 0.150593 0.36624
586 2 0.1334 0.123229 0.41944
899 4 0.313439 0.090394 0.405242
898 2 0.333964 0.100914 0.395586
1405 2 0.368801 0.105936 0.350136
1406 4 0.350906 0.110323 0.367039
900 4 0.354489 0.111434 0.385929
311 4 0.419666 0.166186 0.36643
3269 4 0.411299 0.0993945 0.378449
3268 2 0.417225 0.123422 0.374882
3270 4 0.423151 0.14745 0.371315
2817 4 0.49163 0.109308 0.390449
2238 4 0.430527 0.085215 0.416543
365 4 0.0794997 0.166865 0.361046
489 4 0.157102 0.168738 0.35519
366 4 0.111195 0.197659 0.337639
364 2 0.0953472 0.182262 0.349342
409 2 0.18428 0.178006 0.33796
411 4 0.171553 0.18306 0.358881
1221 4 0.18843 0.174175 0.392539
1219 2 0.16976 0.185794 0.404438
1479 4 0.318949 0.201326 0.392791
615 4 0.294359 0.243558 0.357624
613 2 0.302845 0.221568 0.365969
614 4 0.311332 0.199579 0.374315
312 4 0.375024 0.185888 0.35549
310 2 0.397345 0.176037 0.36096
1756 2 0.0170505 0.318642 0.359603
1758 4 0.0130063 0.313735 0.383785
2585 4 0.0216817 0.29816 0.392852
2584 2 0.00413004 0.290104 0.408734
568 2 0.138733 0.308695 0.413931
569 4 0.162881 0.315175 0.413722
570 4 0.114584 0.302215 0.41414
509 4 0.100354 0.313478 0.423701
5 3 0.228591 0.332927 0.344178
4 3 0.220875 0.321457 0.3792
1 1 0.237381 0.323687 0.363046
3 3 0.246547 0.302936 0.358169
431 4 0.20861 0.332363 0.36872
430 2 0.188525 0.329044 0.383236
432 4 0.168439 0.325725 0.397753
677 4 0.292651 0.263577 0.36259
678 4 0.262101 0.30229 0.370878
676 2 0.277376 0.282934 0.366734
447 4 0.263672 0.320457 0.378889
445 2 0.278584 0.327231 0.397782
2 3 0.253952 0.337407 0.37119
2457 4 0.312016 0.327376 0.411632
446 4 0.293497 0.334004 0.416674
119 3 0.409884 0.30435 0.336967
116 1 0.401998 0.282874 0.340842
117 3 0.383685 0.284067 0.354711
438 4 0.419386 0.314733 0.350581
2455 2 0.335026 0.319169 0.416959
120 3 0.418174 0.270342 0.350837
1741 2 0.471359 0.275354 0.417219
1742 4 0.470608 0.290336 0.397215
1472 4 0.463709 0.301171 0.38127
1471 2 0.460647 0.325908 0.383234
735 4 0.101128 0.331238 0.345865
402 4 0.209121 0.330053 0.348967
106 1 0.498108 0.369326 0.371731
110 3 0.495508 0.351113 0.358308
436 2 0.415828 0.339371 0.34824
107 3 0.490736 0.388057 0.360597
437 4 0.41227 0.36401 0.345898
1391 4 0.422259 0.395213 0.38937
1473 4 0.457584 0.350646 0.385198
109 3 0.485623 0.366723 0.391115
1392 4 0.465144 0.369492 0.389356
1390 2 0.443701 0.382353 0.389363
3221 4 0.420248 0.4013 0.408973
343 2 0.128433 0.418307 0.409187
344 4 0.107093 0.43029 0.414306
414 4 0.0866784 0.428816 0.41505
727 2 0.17114 0.430613 0.349013
1360 2 0.187397 0.4492 0.402936
728 4 0.187358 0.433338 0.367847
1362 4 0.197634 0.445573 0.380414
1586 4 0.242879 0.463297 0.351878
398 4 0.0181763 0.088643 0.416058
340 2 0.149814 0.0517669 0.446186
342 4 0.13487 0.0497054 0.466126
317 4 0.123877 0.057598 0.482141
341 4 0.164758 0.0538285 0.426246
316 2 0.110048 0.0740098 0.494972
1059 4 0.210641 0.00303897 0.435608
894 4 0.168439 0.0359494 0.419942
892 2 0.190352 0.0239424 0.419019
1151 4 0.232571 0.0578431 0.454143
893 4 0.212264 0.0119354 0.418096
1057 2 0.221968 0.00207386 0.457877
1781 4 0.219104 0.056461 0.468264
1058 4 0.233296 0.00110876 0.480147
1780 2 0.224796 0.0699634 0.488524
3758 4 0.250336 0.0118785 0.486816
1150 2 0.251619 0.0535479 0.438525
1152 4 0.270666 0.0492527 0.422907
731 4 0.290266 0.0428086 0.423886
813 4 0.329503 0.0698764 0.477698
811 2 0.313704 0.0882281 0.471472
3759 4 0.299489 0.0151831 0.495402
3757 2 0.274913 0.0135308 0.491109
42 3 0.30947 0.0310374 0.501062
43 3 0.333151 0.0594511 0.494389
45 3 0.345542 0.0238977 0.494678
937 2 0.383409 0.00963757 0.498627
305 4 0.493258 0.0728883 0.498153
397 2 0.0253578 0.110537 0.425765
399 4 0.0325392 0.132432 0.435473
384 4 0.0467466 0.146454 0.437758
382 2 0.0715959 0.147017 0.440473
1699 2 0.162825 0.101879 0.471855
1700 4 0.155094 0.112506 0.450583
587 4 0.138283 0.120948 0.443856
383 4 0.0964453 0.147579 0.443188
290 4 0.113759 0.158301 0.442371
1701 4 0.170556 0.0912523 0.493126
467 4 0.283754 0.114522 0.47739
466 2 0.289271 0.132362 0.494018
812 4 0.297904 0.10658 0.465245
468 4 0.294787 0.150203 0.510645
2236 2 0.411608 0.0941438 0.430236
2237 4 0.392688 0.103073 0.443929
3548 4 0.380111 0.114505 0.453675
3547 2 0.390387 0.132896 0.467142
3549 4 0.400664 0.151286 0.480609
266 4 0.419541 0.153825 0.487298
1220 4 0.15109 0.197413 0.416338
289 2 0.124882 0.179543 0.435284
291 4 0.136005 0.200785 0.428197
1477 2 0.335537 0.205547 0.411017
910 2 0.322569 0.176996 0.498849
1478 4 0.352125 0.209769 0.429243
912 4 0.337977 0.187938 0.482477
3307 2 0.461267 0.225077 0.443784
3308 4 0.44371 0.208621 0.450576
265 2 0.426902 0.173969 0.474445
267 4 0.434262 0.194113 0.461591
508 2 0.0842112 0.332571 0.423768
2456 4 0.358036 0.310962 0.422287
576 4 0.374893 0.301503 0.42487
574 2 0.376071 0.296935 0.449424
575 4 0.377249 0.292366 0.473979
240 4 0.36295 0.300332 0.484841
1743 4 0.472111 0.260372 0.437223
3309 4 0.478824 0.241532 0.436992
510 4 0.068068 0.351665 0.423834
345 4 0.149773 0.406324 0.404068
2296 2 0.163362 0.384073 0.493068
850 2 0.170772 0.409281 0.442005
852 4 0.187283 0.406193 0.460526
2297 4 0.179186 0.394183 0.476558
585 4 0.218092 0.400822 0.476983
583 2 0.233696 0.408404 0.458978
851 4 0.154262 0.412369 0.423483
930 4 0.322311 0.419844 0.483996
3222 4 0.400033 0.42006 0.450688
3220 2 0.41014 0.41068 0.429831
1330 2 0.413383 0.409661 0.487514
547 2 0.0104944 0.43054 0.423465
548 4 0.0189747 0.435057 0.446549
407 4 0.000978603 0.437023 0.453997
412 2 0.0797061 0.442551 0.434746
413 4 0.0727339 0.456285 0.454442
1446 4 0.0794395 0.467288 0.468763
1819 2 0.156425 0.477963 0.457689
1445 4 0.12483 0.487446 0.474598
1820 4 0.143335 0.491847 0.473847
1444 2 0.102135 0.477367 0.47168
1361 4 0.177161 0.452827 0.425457
1821 4 0.169515 0.464079 0.441532
584 4 0.2493 0.415986 0.440972
772 2 0.301074 0.473618 0.48942
377 4 0.305902 0.428378 0.478981
378 4 0.266868 0.415107 0.450681
376 2 0.286385 0.421743 0.464831
774 4 0.287908 0.487004 0.472907
773 4 0.314239 0.460232 0.505933
1332 4 0.396612 0.415906 0.470052
1556 4 0.416565 0.491103 0.469474
2507 4 0.483026 0.489526 0.455109
1555 2 0.440384 0.486763 0.463231
1557 4 0.464203 0.482422 0.456987
2506 2 0.49489 0.491882 0.433225
348 4 0.00335679 0.0787584 0.583311
321 4 0.0890664 0.096026 0.527365
319 2 0.0873488 0.0825436 0.548352
320 4 0.0856312 0.0690611 0.569338
96 1 0.234915 0.0749513 0.583655
100 3 0.229009 0.060038 0.567488
1105 2 0.234903 0.0305614 0.541508
1107 4 0.232471 0.0544905 0.548339
2135 4 0.299403 0.0320422 0.565367
1182 4 0.294142 0.0476503 0.555999
2134 2 0.307545 0.00850843 0.563119
1180 2 0.306616 0.0656934 0.568
41 1 0.330975 0.0385579 0.504245
44 3 0.335094 0.04008 0.527029
938 4 0.364458 0.0258968 0.497335
3354 4 0.0106616 0.0924344 0.570141
3352 2 0.00787069 0.107816 0.550627
3117 4 0.013187 0.117567 0.513414
3115 2 0.0315983 0.133814 0.508698
3353 4 0.0050798 0.123198 0.531113
1226 4 0.0688637 0.150839 0.510356
3116 4 0.0500096 0.150061 0.503983
1225 2 0.0872052 0.152533 0.527265
318 4 0.0962204 0.0904216 0.507802
1227 4 0.105547 0.154226 0.544173
1200 4 0.173531 0.105513 0.505854
1198 2 0.179043 0.125291 0.520124
1199 4 0.184554 0.14507 0.534394
2047 2 0.231607 0.106637 0.538335
2048 4 0.226317 0.102219 0.5143
2376 4 0.193181 0.161965 0.52908
98 3 0.243072 0.0943681 0.573916
2049 4 0.236896 0.111056 0.562371
1782 4 0.230489 0.0834657 0.508784
1181 4 0.319091 0.0837365 0.58
605 4 0.336995 0.0903871 0.583196
306 4 0.469431 0.104357 0.528856
4467 4 0.484862 0.117514 0.525972
304 2 0.481345 0.0886227 0.513504
4465 2 0.485725 0.141617 0.532567
4466 4 0.486588 0.16572 0.539162
259 2 0.0301984 0.210197 0.569961
260 4 0.0210983 0.195722 0.551717
261 4 0.0392984 0.224672 0.588205
1178 4 0.011294 0.178517 0.554094
3274 2 0.144838 0.231725 0.530299
3275 4 0.157279 0.213596 0.542206
3276 4 0.132398 0.249854 0.518393
2375 4 0.167795 0.198808 0.551414
2374 2 0.180488 0.180386 0.540247
1136 4 0.286191 0.227725 0.529802
1135 2 0.277342 0.219902 0.55184
1137 4 0.268494 0.212078 0.573878
911 4 0.307161 0.166054 0.515222
49 3 0.498886 0.180868 0.54197
710 4 0.0639509 0.273797 0.520516
2448 4 0.0771135 0.264177 0.53105
709 2 0.047896 0.274684 0.539664
711 4 0.0318411 0.27557 0.558812
3501 4 0.0175633 0.261861 0.560755
3499 2 0.00675618 0.260266 0.583246
390 4 0.00510449 0.333726 0.520888
2447 4 0.116341 0.246118 0.505834
2446 2 0.0967273 0.255147 0.518442
238 2 0.350711 0.298057 0.506525
239 4 0.338471 0.295782 0.528209
857 4 0.374092 0.275102 0.56638
695 4 0.335743 0.311558 0.540756
1810 2 0.0211199 0.363544 0.541016
1811 4 0.0233521 0.387543 0.547666
2157 4 0.0723394 0.349491 0.543416
1812 4 0.0188876 0.339544 0.534366
2155 2 0.0873173 0.368374 0.536762
2156 4 0.102295 0.387257 0.530107
2549 4 0.102834 0.404069 0.540957
2298 4 0.147538 0.373963 0.509578
1952 4 0.307526 0.410657 0.578746
928 2 0.330786 0.419083 0.507507
2310 4 0.337228 0.414034 0.550668
2308 2 0.34696 0.392743 0.559452
2309 4 0.356693 0.371453 0.568237
696 4 0.351272 0.351992 0.565749
694 2 0.343507 0.331775 0.553252
3498 4 0.488542 0.338892 0.531849
3168 4 0.431256 0.371019 0.561915
3166 2 0.432557 0.378694 0.538154
3167 4 0.433859 0.38637 0.514394
1331 4 0.430154 0.403416 0.504975
1251 4 0.476215 0.401874 0.578227
2117 4 0.484289 0.419997 0.571043
3571 2 0.0339067 0.456349 0.544962
3572 4 0.0373748 0.477644 0.532326
1067 4 0.0356896 0.484956 0.51446
3540 4 0.0177979 0.422091 0.549222
3573 4 0.0304386 0.435054 0.557599
2548 2 0.116313 0.424999 0.543279
2385 4 0.13598 0.46459 0.553572
2383 2 0.151307 0.48115 0.542801
2550 4 0.129793 0.44593 0.5456
2384 4 0.166635 0.49771 0.532031
792 4 0.301282 0.488868 0.578599
2306 4 0.333989 0.458783 0.509893
929 4 0.339262 0.418323 0.531017
2153 4 0.310069 0.429377 0.57293
805 2 0.411032 0.49893 0.514085
2305 2 0.349647 0.475074 0.520598
2307 4 0.365305 0.491366 0.531303
806 4 0.407059 0.499462 0.538765
3093 4 0.412751 0.497455 0.557065
1017 4 0.367605 0.510531 0.532109
3091 2 0.424551 0.477626 0.566695
2118 4 0.455079 0.460586 0.570871
2116 2 0.469684 0.440292 0.570957
3092 4 0.436351 0.457797 0.576326
1284 4 0.0641215 0.0475596 0.635005
1601 4 0.0661694 0.0620848 0.621661
1600 2 0.067271 0.0700363 0.597981
1282 2 0.0844551 0.0480388 0.649548
1129 2 0.140114 0.06264 0.646848
1130 4 0.115809 0.0617882 0.652654
1283 4 0.104789 0.048518 0.664091
1131 4 0.164419 0.0634917 0.641043
97 3 0.216405 0.0801713 0.596275
919 2 0.19755 0.0674475 0.627572
921 4 0.213579 0.0824831 0.615648
920 4 0.181521 0.0524119 0.639497
99 3 0.251049 0.0656485 0.597494
1203 4 0.28324 0.00465984 0.669923
1201 2 0.303181 0.0192014 0.665914
1602 4 0.0683726 0.0779879 0.574301
2133 4 0.145784 0.144614 0.64035
825 4 0.161399 0.142868 0.630198
823 2 0.182266 0.135392 0.618627
824 4 0.203133 0.127917 0.607057
636 4 0.22089 0.134482 0.598658
634 2 0.234387 0.154543 0.605027
604 2 0.338884 0.112179 0.595309
606 4 0.340772 0.13397 0.607423
1097 4 0.335512 0.133012 0.626365
1096 2 0.339183 0.145514 0.647705
1098 4 0.342854 0.158016 0.669045
1143 4 0.404607 0.115658 0.668444
943 2 0.0344295 0.208452 0.626327
945 4 0.0431373 0.213835 0.603515
944 4 0.0257217 0.203069 0.649139
3476 4 0.0351796 0.209785 0.66558
2131 2 0.147439 0.167371 0.650577
2132 4 0.149094 0.190127 0.660803
651 4 0.248051 0.230151 0.618061
649 2 0.248051 0.205811 0.623781
635 4 0.247884 0.174604 0.611396
1209 4 0.230765 0.240446 0.609473
650 4 0.248052 0.18147 0.629502
1194 4 0.367581 0.176178 0.648112
1192 2 0.391104 0.182873 0.642912
1193 4 0.414627 0.189568 0.637713
2353 2 0.413064 0.232048 0.625104
2354 4 0.411281 0.209115 0.634904
433 2 0.153006 0.261977 0.623195
434 4 0.131209 0.256797 0.634295
435 4 0.174804 0.267158 0.612096
1208 4 0.189814 0.266841 0.598205
1207 2 0.210289 0.253643 0.603839
856 2 0.364564 0.287413 0.585946
1210 2 0.342775 0.326933 0.631924
1212 4 0.344175 0.316089 0.609438
858 4 0.355035 0.299723 0.605512
2355 4 0.414848 0.254982 0.615304
1211 4 0.341375 0.337777 0.65441
4432 2 0.0469433 0.372965 0.616607
984 4 0.0145816 0.390687 0.602948
4433 4 0.0222732 0.376176 0.614105
4434 4 0.0716133 0.369753 0.619108
1190 4 0.0861454 0.381311 0.610195
1383 4 0.146989 0.380199 0.590479
1191 4 0.1359 0.377377 0.60707
1189 2 0.111022 0.379344 0.608633
2172 4 0.209436 0.374432 0.608615
935 4 0.164556 0.360364 0.650415
1382 4 0.196732 0.375873 0.593226
1381 2 0.171861 0.378036 0.591853
2170 2 0.23419 0.377852 0.609476
936 4 0.213652 0.353886 0.657367
934 2 0.189104 0.357125 0.653891
275 4 0.230553 0.362225 0.652313
2171 4 0.258943 0.381272 0.610336
274 2 0.253761 0.367918 0.659672
1953 4 0.278116 0.381323 0.606589
1951 2 0.292821 0.39599 0.592667
276 4 0.276969 0.373611 0.667032
1249 2 0.471891 0.378333 0.585459
1250 4 0.467567 0.354792 0.592691
3302 4 0.119024 0.422537 0.626108
1161 4 0.115568 0.489709 0.632087
3303 4 0.122801 0.471213 0.636927
3301 2 0.120913 0.446875 0.631517
2154 4 0.29009 0.47381 0.584211
2152 2 0.300079 0.451593 0.578571
1140 4 0.445711 0.44661 0.6705
3578 4 0.0391306 0.0267952 0.756895
1074 4 0.00832146 0.0857613 0.74611
1685 4 0.109044 0.990152 0.676197
1244 4 0.264364 0.00931056 0.671369
951 4 0.32562 0.0522903 0.67059
1202 4 0.323122 0.033743 0.661904
1146 4 0.495439 0.0800462 0.718251
2264 4 0.485437 0.0635624 0.714227
2145 4 0.44146 0.0232796 0.748227
949 2 0.332257 0.0756836 0.67641
950 4 0.338894 0.099077 0.682231
1005 4 0.351209 0.101965 0.696817
1003 2 0.370929 0.114179 0.687485
1004 4 0.39065 0.126393 0.678152
1141 2 0.42928 0.116479 0.672413
1145 4 0.467314 0.110523 0.690308
1144 2 0.481376 0.0952847 0.704279
1142 4 0.453952 0.1173 0.676382
557 4 0.438208 0.163602 0.734303
1184 4 0.0658291 0.162558 0.735697
3475 2 0.0189824 0.215684 0.683691
3477 4 0.0027851 0.221582 0.701803
3419 4 0.00608215 0.217861 0.721177
3418 2 0.00329127 0.226897 0.744323
1154 4 0.153277 0.200087 0.67829
1153 2 0.17465 0.212802 0.680878
1155 4 0.196024 0.225517 0.683466
878 4 0.200688 0.240682 0.726253
2016 4 0.216244 0.251686 0.715487
877 2 0.187555 0.229454 0.744327
1065 4 0.375067 0.217758 0.678419
1063 2 0.360941 0.201097 0.690588
1064 4 0.346815 0.184437 0.702756
2987 4 0.425297 0.157051 0.747849
904 2 0.49103 0.225936 0.714209
906 4 0.483467 0.20246 0.718312
556 2 0.440723 0.178743 0.714565
558 4 0.443237 0.193884 0.694827
2907 4 0.436211 0.209408 0.703966
2905 2 0.43281 0.234178 0.704115
3363 4 0.490642 0.18703 0.727995
3375 4 0.0576 0.286538 0.726893
1260 4 0.0601562 0.277422 0.710459
1258 2 0.082274 0.286808 0.703539
3373 2 0.034863 0.278731 0.733769
3374 4 0.0121259 0.270925 0.740644
1259 4 0.104392 0.296194 0.696619
2989 2 0.127638 0.327542 0.698701
2990 4 0.121226 0.305293 0.689264
1229 4 0.237081 0.299207 0.668207
2015 4 0.234902 0.283387 0.681611
2014 2 0.225573 0.267536 0.698549
1228 2 0.256065 0.311137 0.679272
1230 4 0.27505 0.323067 0.690336
3192 4 0.287698 0.321798 0.706273
3190 2 0.307957 0.307144 0.706114
3191 4 0.328215 0.29249 0.705954
980 4 0.337974 0.306553 0.695306
981 4 0.385958 0.316542 0.705229
979 2 0.361966 0.311548 0.700267
3371 4 0.38791 0.295713 0.699352
3370 2 0.410945 0.286215 0.697272
2906 4 0.429409 0.258949 0.704264
3372 4 0.433981 0.276716 0.695193
1268 4 0.488217 0.312605 0.702025
2358 4 0.0631687 0.385203 0.694702
779 4 0.0476143 0.388708 0.683776
778 2 0.0355242 0.408786 0.675063
2991 4 0.13405 0.34979 0.708139
2356 2 0.0864991 0.393529 0.691304
2357 4 0.109829 0.401856 0.687907
895 2 0.147054 0.413317 0.69208
896 4 0.123771 0.415303 0.683183
869 4 0.166085 0.368487 0.699341
868 2 0.173617 0.363852 0.722728
870 4 0.181149 0.359218 0.746116
897 4 0.170337 0.411331 0.700976
946 2 0.315808 0.358553 0.66941
947 4 0.296828 0.37446 0.665961
948 4 0.334789 0.342646 0.67286
662 4 0.349724 0.40045 0.742351
1267 2 0.496567 0.329106 0.718853
4181 4 0.488206 0.347647 0.746386
780 4 0.0234342 0.428863 0.666351
2531 4 0.0975973 0.492603 0.744354
4482 4 0.195558 0.493029 0.741281
2378 4 0.260717 0.475047 0.716117
4484 4 0.340364 0.441345 0.701334
4483 2 0.353849 0.458821 0.68959
663 4 0.339932 0.444485 0.720771
4485 4 0.367333 0.476297 0.677846
661 2 0.344828 0.422468 0.731561
1909 2 0.392021 0.495908 0.672432
1911 4 0.368036 0.491972 0.666568
1910 4 0.416007 0.499845 0.678296
3024 4 0.49815 0.467067 0.689709
1138 2 0.462686 0.45923 0.683833
1139 4 0.479661 0.471851 0.697166
4508 4 0.00668963 0.0651415 0.748088
3577 2 0.0522715 0.0451341 0.767674
328 2 0.0050453 0.0509728 0.82284
3579 4 0.0654124 0.063473 0.778453
2113 2 0.157834 0.0784722 0.779003
1081 2 0.162618 0.00924702 0.781754
1083 4 0.168645 0.0334129 0.77955
2114 4 0.162664 0.05403 0.776899
828 4 0.321622 0.0607142 0.812492
1086 4 0.313489 0.0480859 0.825817
1256 4 0.388642 0.0401417 0.804041
1255 2 0.375574 0.0191201 0.800503
88 3 0.384057 0.0595408 0.802864