ITEM: TIMESTEP
5360000
ITEM: NUMBER OF ATOMS
4590
ITEM: BOX BOUNDS pp pp pp
-9.9985700000000008e+00 9.9985700000000008e+00
-9.9985700000000008e+00 9.9985700000000008e+00
-9.9985700000000008e+00 9.9985700000000008e+00
ITEM: ATOMS id type xs ys zs
1633 2 0.0646725 0.0556677 0.039487
1635 4 0.0638314 0.0523716 0.0642581
1634 4 0.0655135 0.0589638 0.0147159
2331 4 0.14651 0.0122354 0.0339998
2424 4 0.150777 0.0141432 0.0142477
2329 2 0.155374 0.0272963 0.0518824
2330 4 0.164237 0.0423573 0.0697649
995 4 0.184378 0.0394741 0.070368
2769 4 0.323732 0.055427 0.0777481
1021 2 0.380545 0.0194013 0.00399692
1022 4 0.378556 0.0408109 0.0167582
1109 4 0.384156 0.059986 0.018478
1108 2 0.400696 0.0677096 0.0355646
1110 4 0.417236 0.0754331 0.0526513
1760 4 0.436047 0.078706 0.0473544
746 4 0.432553 0.991938 0.0714035
448 2 0.036183 0.136368 0.0528447
449 4 0.0523019 0.131252 0.0344278
2835 4 0.0460551 0.115357 0.0238394
450 4 0.020064 0.141484 0.0712617
292 2 0.0815484 0.169043 0.0656274
2833 2 0.0321627 0.108413 0.00424457
293 4 0.0900101 0.14678 0.0580159
34 3 0.146531 0.107293 0.0750224
3233 4 0.126125 0.0822721 0.999891
3232 2 0.149721 0.0854991 0.00750331
298 2 0.11872 0.162471 0.995646
3234 4 0.173318 0.088726 0.0151158
1170 4 0.185415 0.0931288 0.999819
1759 2 0.450885 0.0920164 0.0322598
2161 2 0.475253 0.140584 0.0330923
1761 4 0.465723 0.105327 0.0171651
2162 4 0.461029 0.121892 0.0245214
1826 4 0.491558 0.174452 0.0552239
554 4 0.00880581 0.225939 0.0744742
12 3 0.0550204 0.195144 0.083404
15 3 0.0230406 0.214346 0.082185
299 4 0.106642 0.177311 0.0117417
360 4 0.144548 0.18639 0.0821732
579 4 0.139175 0.236667 0.0815387
740 4 0.155234 0.247018 0.0800388
783 4 0.194325 0.19237 0.00188877
781 2 0.173875 0.206545 0.999427
837 4 0.212178 0.188183 0.0107095
483 4 0.41276 0.259229 0.0392322
2163 4 0.489476 0.159277 0.0416632
322 2 0.426383 0.245926 0.0128084
3089 4 0.0192957 0.258389 0.0292717
3088 2 0.0229333 0.256773 0.00458701
553 2 0.0129185 0.246307 0.0605675
555 4 0.0170311 0.266676 0.0466609
741 4 0.199906 0.262507 0.0637535
739 2 0.17757 0.254763 0.0718961
689 4 0.218767 0.255923 0.0659746
1290 4 0.215816 0.285207 0.00837441
481 2 0.393479 0.256878 0.0549767
482 4 0.374197 0.254527 0.0707212
353 4 0.361152 0.301131 0.0280893
2288 4 0.350458 0.315002 0.0388775
352 2 0.377453 0.308625 0.0106738
2287 2 0.358039 0.329297 0.05794
323 4 0.429426 0.263326 0.0305046
647 4 0.00932648 0.413696 0.068867
3519 4 0.0279748 0.408533 0.0710031
3517 2 0.0513281 0.409932 0.0798258
362 4 0.0972651 0.36649 0.0144217
909 4 0.0975938 0.416577 0.00635282
638 4 0.245995 0.370613 0.00212374
1093 2 0.255152 0.400251 0.0234786
2289 4 0.365619 0.343591 0.0770025
958 2 0.37267 0.380725 0.0814197
960 4 0.37584 0.404028 0.0729273
559 2 0.477357 0.385829 0.0584236
561 4 0.465261 0.366407 0.0685053
245 4 0.450082 0.354038 0.0682542
2790 4 0.483449 0.417718 0.0336471
560 4 0.489453 0.405252 0.0483419
908 4 0.0692739 0.418582 0.0475193
2966 4 0.0308171 0.492146 0.0181651
4436 4 0.0308713 0.471471 0.0216464
4435 2 0.029027 0.447618 0.0143778
4437 4 0.0271827 0.423765 0.0071092
907 2 0.0834338 0.417579 0.0269361
1156 2 0.236148 0.428068 0.0775119
4545 4 0.211845 0.506142 0.00745861
2164 2 0.27321 0.491575 0.0484354
1158 4 0.255585 0.423301 0.0625242
1095 4 0.256641 0.412674 0.0451265
2166 4 0.279598 0.46854 0.0411043
2006 4 0.288416 0.455992 0.0286465
2005 2 0.303861 0.441016 0.015906
2007 4 0.319306 0.426039 0.00316547
4089 4 0.375514 0.424064 0.078717
4547 4 0.359394 0.472886 0.0317064
4087 2 0.371035 0.440484 0.0604006
4088 4 0.366555 0.456904 0.0420842
4546 2 0.354681 0.497441 0.0319127
3508 2 0.0760756 0.043149 0.147337
1232 4 0.0733198 0.0799224 0.143343
3509 4 0.0706618 0.0201688 0.139104
3510 4 0.0814894 0.0661293 0.155569
1070 4 0.0755458 0.999877 0.139053
1762 2 0.156726 0.00705286 0.171531
994 2 0.193841 0.0428404 0.0932658
237 4 0.207909 0.0580143 0.132483
996 4 0.203303 0.0462067 0.116164
235 2 0.200647 0.0692786 0.153592
2767 2 0.310373 0.0715274 0.0914406
745 2 0.436473 0.00854439 0.0896805
758 4 0.453753 0.0398084 0.112767
757 2 0.453627 0.0396477 0.13777
759 4 0.4535 0.0394869 0.162772
747 4 0.440394 0.0251503 0.107958
1356 4 0.426213 0.0132354 0.167705
3983 4 0.00892497 0.14778 0.0882654
359 4 0.134919 0.139088 0.0952316
1231 2 0.0839905 0.0989677 0.131153
3808 2 0.0839117 0.158878 0.124264
358 2 0.139734 0.162739 0.0887024
1233 4 0.0946611 0.118013 0.118963
3810 4 0.0957863 0.137981 0.117374
32 3 0.135756 0.123075 0.107387
31 1 0.142626 0.10344 0.0975681
33 3 0.125923 0.087536 0.100109
35 3 0.161754 0.0962992 0.107658
2768 4 0.297013 0.0876278 0.105133
405 4 0.290655 0.104161 0.0946347
403 2 0.300306 0.123035 0.107894
404 4 0.309958 0.141909 0.121153
53 3 0.296216 0.154872 0.126812
52 3 0.286162 0.164705 0.161667
294 4 0.0730867 0.191306 0.0732388
11 1 0.0414742 0.209849 0.0947799
13 3 0.0351478 0.200187 0.114905
14 3 0.0533084 0.229408 0.0987575
512 4 0.0664411 0.239823 0.0890953
3809 4 0.072037 0.179776 0.131154
578 4 0.122887 0.217361 0.124698
577 2 0.131031 0.227014 0.103118
664 2 0.140515 0.202922 0.154131
665 4 0.138069 0.221748 0.137859
511 2 0.0798918 0.250901 0.107026
688 2 0.239364 0.247585 0.0774383
617 4 0.255206 0.225777 0.103186
690 4 0.259961 0.239248 0.088902
616 2 0.265648 0.2038 0.108945
618 4 0.27609 0.181823 0.114704
54 3 0.282181 0.18951 0.133712
51 1 0.295404 0.172359 0.142042
55 3 0.316437 0.180061 0.146158
931 2 0.455944 0.252647 0.152331
932 4 0.475616 0.237642 0.155944
2527 2 0.0123015 0.311157 0.125877
2529 4 0.0301065 0.326954 0.118221
2610 4 0.999981 0.276143 0.130747
513 4 0.0933426 0.26198 0.124957
675 4 0.0978881 0.270273 0.141851
673 2 0.118932 0.281991 0.14856
674 4 0.139976 0.293709 0.155269
288 4 0.232826 0.313108 0.130416
612 4 0.222588 0.329724 0.13829
286 2 0.248324 0.2967 0.141177
287 4 0.263822 0.280293 0.151937
309 4 0.326409 0.27746 0.110335
524 4 0.275841 0.265297 0.14718
1102 2 0.330709 0.299321 0.144308
1103 4 0.319114 0.293098 0.123048
308 4 0.361265 0.268202 0.0756933
307 2 0.343837 0.272831 0.0930141
337 2 0.445824 0.299529 0.124152
338 4 0.439345 0.286451 0.144455
339 4 0.452303 0.312607 0.10385
933 4 0.436272 0.267652 0.148718
246 4 0.452421 0.330127 0.112112
3633 4 0.498349 0.312342 0.0968843
1511 4 0.0486746 0.334755 0.119097
1510 2 0.0509637 0.353898 0.135017
1512 4 0.0532528 0.373042 0.150937
620 4 0.038987 0.381166 0.161504
3518 4 0.0746815 0.411332 0.0886486
619 2 0.0472589 0.404676 0.163512
505 2 0.107724 0.39787 0.108384
705 4 0.151787 0.397502 0.110342
507 4 0.132163 0.396919 0.113577
506 4 0.0832839 0.39882 0.10319
703 2 0.17412 0.387112 0.106046
610 2 0.217198 0.346424 0.12048
704 4 0.196453 0.376721 0.10175
611 4 0.211808 0.363125 0.102669
959 4 0.3695 0.357423 0.0899121
244 2 0.451251 0.342083 0.0901833
3849 4 0.00662453 0.479974 0.153439
737 4 0.215488 0.449904 0.0826157
736 2 0.201917 0.4709 0.0829866
738 4 0.188345 0.491897 0.0833574
1157 4 0.21671 0.432835 0.0924997
754 2 0.21718 0.492139 0.167774
755 4 0.240556 0.490628 0.159028
1790 4 0.255753 0.482292 0.169605
3490 2 0.480683 0.422395 0.135966
3491 4 0.485143 0.430366 0.11269
2569 2 0.465523 0.468846 0.105168
2571 4 0.458515 0.492594 0.101688
2570 4 0.472531 0.445099 0.108648
3492 4 0.476222 0.414425 0.159241
1763 4 0.148062 0.0304499 0.17317
546 4 0.161199 0.0437867 0.180462
544 2 0.140107 0.0570512 0.182546
1851 4 0.131051 0.0310467 0.235649
1796 4 0.12881 0.0141424 0.223656
1849 2 0.14699 0.0502999 0.236316
1850 4 0.162928 0.0695532 0.236983
545 4 0.119014 0.0703157 0.184629
236 4 0.193384 0.0805428 0.1747
2468 4 0.317975 0.0357724 0.248922
1355 4 0.383192 0.0380048 0.173743
1354 2 0.404702 0.0256201 0.170724
522 4 0.381112 0.058411 0.171914
652 2 0.407553 0.0208865 0.247897
520 2 0.376562 0.0698573 0.193673
1428 4 0.367203 0.0077399 0.256217
653 4 0.432082 0.0256974 0.247298
629 4 0.445403 0.0407207 0.182504
628 2 0.456688 0.0494683 0.203029
630 4 0.467974 0.0582159 0.223555
632 4 0.440709 0.00160444 0.172341
380 4 0.157435 0.0878057 0.232423
370 2 0.135699 0.155038 0.203748
379 2 0.141524 0.107087 0.232917
381 4 0.125613 0.126369 0.233411
372 4 0.13423 0.141024 0.224403
285 4 0.184642 0.0977263 0.178331
283 2 0.189725 0.11714 0.193246
284 4 0.194808 0.136554 0.20816
1403 4 0.203905 0.14729 0.222784
248 4 0.285963 0.160714 0.181867
249 4 0.267069 0.122692 0.208288
247 2 0.276516 0.141703 0.195078
528 4 0.321181 0.177573 0.215625
521 4 0.372012 0.0813035 0.215432
1436 4 0.377954 0.0933919 0.231647
1435 2 0.36607 0.113342 0.240919
1437 4 0.354186 0.133291 0.25019
642 4 0.508371 0.174785 0.224097
371 4 0.137167 0.169052 0.183093
666 4 0.142961 0.184095 0.170402
1402 2 0.210039 0.170017 0.214355
683 4 0.213392 0.211655 0.201679
682 2 0.202702 0.230755 0.213765
1404 4 0.216173 0.192744 0.205926
684 4 0.192012 0.249855 0.225852
624 4 0.323605 0.182624 0.234905
527 4 0.320711 0.178194 0.165624
526 2 0.320946 0.177884 0.190624
472 2 0.266955 0.249283 0.231304
474 4 0.259986 0.25121 0.207369
355 2 0.403237 0.242249 0.226017
2837 4 0.414469 0.205626 0.231637
357 4 0.416737 0.224836 0.237837
622 2 0.341009 0.167077 0.24388
640 2 0.491089 0.18111 0.241023
2836 2 0.435731 0.195329 0.239825
641 4 0.473806 0.187436 0.257949
525 4 0.276072 0.256359 0.196381
751 2 0.25947 0.327682 0.21678
753 4 0.269898 0.307499 0.206336
523 2 0.275957 0.260828 0.171781
1104 4 0.342304 0.305544 0.165569
356 4 0.389737 0.259663 0.214196
252 4 0.357321 0.291419 0.166022
250 2 0.366264 0.275627 0.183221
251 4 0.375207 0.259835 0.200421
1583 4 0.411718 0.301904 0.250121
1584 4 0.444972 0.31583 0.215467
1582 2 0.428345 0.308867 0.232794
464 4 0.0742414 0.378125 0.201425
463 2 0.0686344 0.391915 0.221515
465 4 0.0630274 0.405705 0.241604
1587 4 0.244122 0.36752 0.22495
1586 4 0.233314 0.394066 0.183972
1585 2 0.238718 0.380793 0.204461
752 4 0.249042 0.347865 0.227225
336 4 0.483131 0.397453 0.167658
334 2 0.474853 0.37684 0.179136
1453 2 0.46592 0.362561 0.233343
1454 4 0.464761 0.365814 0.208579
335 4 0.466574 0.356227 0.190615
621 4 0.0555308 0.428186 0.16552
391 2 0.0624503 0.451918 0.202156
392 4 0.0563853 0.439916 0.181076
393 4 0.0685153 0.46392 0.223235
1776 4 0.084812 0.460725 0.234293
1774 2 0.106909 0.460152 0.24598
1863 4 0.286657 0.446606 0.242551
1789 2 0.271223 0.501581 0.173319
268 2 0.486798 0.469138 0.202241
495 4 0.489999 0.453044 0.237424
269 4 0.480876 0.467433 0.226473
1464 4 0.00555274 0.0437479 0.279591
19 3 0.0181345 0.0283861 0.28621
1462 2 0.0145945 0.0626617 0.293218
489 4 0.0388975 0.0789031 0.319242
16 1 0.00609952 0.0111562 0.276377
1864 2 0.221385 0.0648429 0.296557
1865 4 0.245298 0.0625746 0.289614
725 4 0.196393 0.0832992 0.290841
1866 4 0.197473 0.0671113 0.3035
333 4 0.268837 0.017363 0.272036
2467 2 0.293554 0.0316011 0.252301
2469 4 0.269133 0.0274298 0.255679
1427 4 0.335517 0.0455623 0.24808
1426 2 0.35136 0.0266511 0.252148
693 4 0.430849 0.044281 0.259097
691 2 0.427551 0.0682635 0.265353
1463 4 0.0236362 0.0815756 0.306845
487 2 0.0600842 0.0916536 0.315537
488 4 0.081271 0.104404 0.311833
588 4 0.0870489 0.0999645 0.291476
586 2 0.110197 0.103118 0.282566
587 4 0.133345 0.106272 0.273655
726 4 0.152738 0.101723 0.274856
724 2 0.174566 0.0925109 0.282848
1407 4 0.415952 0.10138 0.288023
900 4 0.365777 0.0877628 0.329453
623 4 0.358414 0.15153 0.252854
1405 2 0.394399 0.0945545 0.298701
1406 4 0.372845 0.0877286 0.309379
692 4 0.424253 0.0922461 0.271609
364 2 0.118131 0.247624 0.32728
2513 4 0.22041 0.242912 0.296558
2462 4 0.289808 0.256062 0.264383
2838 4 0.456994 0.185032 0.248014
735 4 0.000308321 0.282416 0.26492
733 2 0.0251036 0.279253 0.264311
734 4 0.0498988 0.27609 0.263702
2459 4 0.05838 0.264934 0.278455
2458 2 0.0748797 0.265082 0.297241
2460 4 0.0913794 0.265229 0.316027
365 4 0.105006 0.254174 0.307032
2514 4 0.217284 0.266134 0.25238
2512 2 0.218847 0.254523 0.274469
409 2 0.244458 0.31282 0.313547
410 4 0.248824 0.299204 0.293035
3237 4 0.189958 0.287229 0.327998
411 4 0.240092 0.326436 0.334058
473 4 0.273924 0.247355 0.25524
2463 4 0.265221 0.268406 0.306142
2461 2 0.277515 0.262234 0.285263
118 3 0.391694 0.315898 0.317166
230 4 0.386247 0.308968 0.298815
229 2 0.394793 0.314022 0.275867
231 4 0.403339 0.319077 0.25292
116 1 0.407578 0.321827 0.333008
2651 4 0.487444 0.297177 0.300449
120 3 0.428192 0.314796 0.326353
2718 4 0.00624442 0.390405 0.266188
681 4 0.0563361 0.405665 0.260294
679 2 0.0330468 0.405817 0.269392
680 4 0.00975752 0.405968 0.278489
414 4 0.0802222 0.385275 0.322037
413 4 0.130174 0.384586 0.324282
412 2 0.105198 0.384931 0.323159
477 4 0.147353 0.38982 0.333257
119 3 0.40763 0.344844 0.335944
1455 4 0.46708 0.359308 0.258107
303 4 0.460741 0.364508 0.274711
302 4 0.491038 0.375931 0.31282
301 2 0.47589 0.37022 0.293765
2910 4 0.480475 0.381179 0.329701
1775 4 0.129005 0.459578 0.257667
2142 4 0.145634 0.468074 0.265003
2140 2 0.163713 0.464466 0.281893
2141 4 0.181793 0.460857 0.298783
729 4 0.188925 0.47066 0.315087
727 2 0.196648 0.460297 0.336492
1861 2 0.286417 0.461043 0.262964
500 4 0.296577 0.488182 0.295758
1862 4 0.286177 0.47548 0.283378
668 4 0.379142 0.501822 0.3052
1696 2 0.402362 0.486125 0.274768
1697 4 0.40965 0.469398 0.257671
667 2 0.385728 0.490857 0.326684
494 4 0.492727 0.439587 0.28551
493 2 0.491363 0.446315 0.261467
2846 4 0.0156732 0.00822781 0.36369
2845 2 0.0297819 0.999744 0.344871
1033 2 0.0353424 0.026666 0.398896
1034 4 0.0279777 0.0192198 0.376192
1839 4 0.19824 0.995595 0.341872
899 4 0.363155 0.0566698 0.368531
811 2 0.36552 0.0459386 0.404659
813 4 0.37366 0.0458532 0.381017
898 2 0.364466 0.0722163 0.348992
894 4 0.226398 0.139799 0.390981
892 2 0.210897 0.132037 0.372963
893 4 0.195397 0.124274 0.354945
732 4 0.246119 0.14215 0.391044
730 2 0.25343 0.164331 0.399973
2815 2 0.490341 0.141265 0.412959
1478 4 0.422614 0.102688 0.414457
1479 4 0.465114 0.0908401 0.390917
1477 2 0.443864 0.0967641 0.402687
2655 4 0.0397281 0.236375 0.339764
2653 2 0.015361 0.233647 0.334867
383 4 0.0553691 0.226118 0.32897
382 2 0.0703679 0.207184 0.33543
384 4 0.0853667 0.188251 0.34189
366 4 0.131257 0.241073 0.347529
1220 4 0.131021 0.252841 0.363036
731 4 0.260741 0.186512 0.408903
614 4 0.263446 0.204392 0.399799
613 2 0.259098 0.22499 0.386309
615 4 0.254751 0.245588 0.372819
3308 4 0.440079 0.217922 0.408568
3307 2 0.456324 0.236742 0.411226
2817 4 0.501203 0.159948 0.400384
1812 4 0.0434482 0.277052 0.404618
1221 4 0.144736 0.273251 0.40658
1219 2 0.137878 0.263046 0.384808
570 4 0.152856 0.28541 0.419802
3236 4 0.163439 0.329385 0.332509
3235 2 0.176699 0.308307 0.330254
678 4 0.221186 0.252963 0.372453
677 4 0.190016 0.271859 0.338217
676 2 0.205601 0.262411 0.355335
3 3 0.223583 0.257446 0.395413
431 4 0.270262 0.322696 0.375611
402 4 0.261022 0.305509 0.374651
400 2 0.252261 0.282382 0.378337
401 4 0.243501 0.259256 0.382022
575 4 0.318858 0.276787 0.370161
430 2 0.271562 0.329763 0.39956
574 2 0.339256 0.285929 0.381364
2457 4 0.401725 0.325223 0.369271
2455 2 0.383761 0.31851 0.385315
2456 4 0.365797 0.311796 0.401358
576 4 0.359655 0.29507 0.392568
117 3 0.402241 0.311792 0.353007
1741 2 0.493828 0.281762 0.40944
3309 4 0.472569 0.255563 0.413883
1743 4 0.492883 0.256842 0.411259
1756 2 0.00289654 0.356162 0.389077
344 4 0.0723169 0.399755 0.33279
343 2 0.0671553 0.411761 0.354107
1757 4 0.0234281 0.363825 0.401115
475 2 0.165892 0.381034 0.34755
476 4 0.184432 0.372249 0.361843
2296 2 0.195962 0.384613 0.397369
2298 4 0.188663 0.367509 0.380656
2297 4 0.203261 0.401717 0.414083
694 2 0.319086 0.395248 0.398873
696 4 0.332974 0.406894 0.381648
695 4 0.305199 0.383602 0.416098
436 2 0.402902 0.381879 0.338775
437 4 0.38828 0.401772 0.342731
377 4 0.346248 0.392609 0.379651
376 2 0.363304 0.404985 0.366193
378 4 0.38036 0.41736 0.352734
1471 2 0.498768 0.340622 0.403499
438 4 0.417523 0.361985 0.33482
1473 4 0.499826 0.359167 0.386762
2909 4 0.483758 0.36062 0.375168
2908 2 0.482116 0.370899 0.352435
345 4 0.0619937 0.423767 0.375424
548 4 0.050927 0.437272 0.381989
547 2 0.0321884 0.435299 0.398425
549 4 0.0134498 0.433326 0.414861
728 4 0.204372 0.449935 0.357896
643 2 0.319883 0.477878 0.38062
645 4 0.330081 0.456963 0.389771
929 4 0.342516 0.445406 0.399224
669 4 0.392314 0.479892 0.348168
1392 4 0.429635 0.463089 0.397294
1035 4 0.042707 0.0341121 0.421601
398 4 0.0567685 0.0486594 0.422511
397 2 0.0730604 0.0670245 0.427252
458 4 0.134394 0.0137486 0.438739
428 4 0.154674 0.0124515 0.445373
427 2 0.172121 0.00512027 0.429032
429 4 0.189568 0.997789 0.41269
1780 2 0.226654 0.055257 0.475163
1782 4 0.241096 0.050883 0.455226
1781 4 0.212212 0.059631 0.4951
1151 4 0.246496 0.05424 0.436876
99 3 0.192694 0.0570812 0.49375
43 3 0.314369 0.0442904 0.444019
1152 4 0.294511 0.0437452 0.4461
1150 2 0.270504 0.0489926 0.441488
41 1 0.329121 0.0619725 0.446869
938 4 0.332931 0.0666787 0.483079
812 4 0.357381 0.046024 0.4283
45 3 0.340313 0.0596567 0.466567
44 3 0.344186 0.0626407 0.429234
1216 2 0.401721 0.0189611 0.490082
2236 2 0.396565 0.0730662 0.474924
1217 4 0.400772 0.0420284 0.499683
717 4 0.463792 0.993811 0.477437
2544 4 0.471627 0.0695393 0.454464
3437 4 0.476692 0.0499675 0.453657
3436 2 0.467986 0.0316369 0.468264
3438 4 0.45928 0.0133062 0.482871
390 4 0.0638931 0.146162 0.441517
388 2 0.0449769 0.162396 0.439562
399 4 0.0893524 0.0853897 0.431992
1700 4 0.0895285 0.0937243 0.449429
1699 2 0.107306 0.0933521 0.467007
1701 4 0.125084 0.09298 0.484585
42 3 0.317186 0.0816345 0.447203
2237 4 0.402277 0.0950512 0.464473
3548 4 0.418287 0.10493 0.470956
2816 4 0.479479 0.122582 0.425534
2543 4 0.471168 0.118325 0.443487
2542 2 0.471398 0.0939319 0.448976
3549 4 0.43595 0.146371 0.449246
3547 2 0.427118 0.125651 0.460101
266 4 0.441591 0.164879 0.451019
389 4 0.0260608 0.17863 0.437608
442 2 0.0206394 0.190804 0.489859
443 4 0.0409219 0.204337 0.495396
3117 4 0.0562534 0.215453 0.489022
3115 2 0.0538482 0.232263 0.47067
289 2 0.121435 0.218742 0.445454
290 4 0.109693 0.21378 0.466964
291 4 0.133176 0.223705 0.423944
4 3 0.235941 0.235216 0.423654
267 4 0.439796 0.208476 0.426591
265 2 0.440694 0.186677 0.438805
3116 4 0.0514431 0.249074 0.452318
1810 2 0.0284817 0.280989 0.424257
1811 4 0.0135153 0.284926 0.443896
510 4 0.0768097 0.286109 0.417819
508 2 0.0953759 0.291624 0.433632
509 4 0.113942 0.297138 0.449446
5 3 0.204998 0.256195 0.428134
568 2 0.175407 0.278661 0.428232
569 4 0.197959 0.271912 0.436662
1 1 0.225583 0.255312 0.418432
2 3 0.238469 0.272615 0.426413
447 4 0.219545 0.276011 0.437831
445 2 0.223585 0.297439 0.450065
446 4 0.227626 0.318868 0.462299
585 4 0.228201 0.320225 0.483209
1472 4 0.49771 0.322077 0.420236
2171 4 0.207161 0.364709 0.475167
2170 2 0.190146 0.359958 0.492862
852 4 0.214912 0.399635 0.430526
432 4 0.272862 0.336829 0.423509
239 4 0.322109 0.362293 0.469221
238 2 0.318452 0.352241 0.491821
3222 4 0.425216 0.37931 0.47516
3220 2 0.434918 0.396994 0.460384
407 4 0.0118457 0.439861 0.43273
406 2 0.00163421 0.461099 0.441088
1821 4 0.120328 0.503208 0.415122
1361 4 0.135507 0.489716 0.418156
1360 2 0.143003 0.474547 0.436565
1362 4 0.150499 0.459378 0.454974
2549 4 0.224654 0.428223 0.475577
850 2 0.215227 0.419021 0.446314
851 4 0.215541 0.438408 0.462102
2384 4 0.208692 0.476026 0.505036
2309 4 0.309512 0.45123 0.503435
2548 2 0.239142 0.427373 0.495939
2308 2 0.319286 0.456959 0.481145
2310 4 0.32906 0.462688 0.458856
772 2 0.364721 0.503135 0.442105
928 2 0.338254 0.44591 0.423857
930 4 0.333993 0.446415 0.44849
773 4 0.38896 0.497597 0.439463
1557 4 0.44242 0.490775 0.443576
1391 4 0.442459 0.430372 0.432872
1390 2 0.436047 0.446731 0.415083
3221 4 0.444619 0.414678 0.445608
2507 4 0.451897 0.474167 0.438459
2506 2 0.464692 0.467354 0.458831
2508 4 0.477488 0.460541 0.479203
3394 2 0.0156771 0.0633159 0.574574
3395 4 0.997231 0.0695716 0.558896
320 4 0.0959272 0.0419146 0.522478
1600 2 0.139214 0.043481 0.531949
1602 4 0.116574 0.0368115 0.523694
319 2 0.0843761 0.0638487 0.52574
1601 4 0.161854 0.0501504 0.540203
1282 2 0.0864598 0.00325758 0.575679
97 3 0.168314 0.0571862 0.522355
98 3 0.203291 0.0446733 0.528074
96 1 0.190389 0.0601948 0.516627
100 3 0.196795 0.0813052 0.522281
939 4 0.330784 0.0436297 0.527405
937 2 0.331858 0.0551542 0.505242
1164 4 0.338881 0.0251987 0.52497
1162 2 0.335655 0.0108688 0.545205
2238 4 0.390853 0.0510813 0.485375
2194 2 0.492972 0.0219127 0.560563
2195 4 0.497758 0.0463154 0.563167
304 2 0.496145 0.0764451 0.54774
318 4 0.0718533 0.102488 0.539206
316 2 0.0526816 0.116324 0.54734
317 4 0.0335098 0.130161 0.555474
342 4 0.0139458 0.124237 0.555524
321 4 0.0728249 0.0857828 0.529003
340 2 0.00323052 0.13353 0.576115
1225 2 0.0906187 0.163831 0.536846
1198 2 0.143415 0.139123 0.548242
1200 4 0.123272 0.153779 0.550392
1227 4 0.108496 0.146605 0.53982
1199 4 0.163558 0.124466 0.546091
2048 4 0.180965 0.125339 0.555907
2049 4 0.204598 0.0835692 0.541854
2047 2 0.192782 0.104454 0.54888
466 2 0.333519 0.171691 0.552105
467 4 0.325901 0.147932 0.550475
4467 4 0.42756 0.129879 0.566531
3825 4 0.488918 0.118763 0.559785
306 4 0.492346 0.100855 0.551602
1226 4 0.0727409 0.181056 0.533871
3354 4 0.0406244 0.227601 0.553604
261 4 0.0351512 0.221802 0.572131
3352 2 0.0548836 0.213009 0.53915
3353 4 0.0691428 0.198417 0.524695
434 4 0.103028 0.213288 0.585253
3191 4 0.235073 0.240055 0.565777
912 4 0.312274 0.248975 0.564208
910 2 0.320811 0.225605 0.566697
911 4 0.329348 0.202236 0.569185
468 4 0.341138 0.19545 0.553735
2446 2 0.041834 0.311974 0.53253
2447 4 0.0483281 0.289046 0.524961
3276 4 0.0649319 0.279026 0.519912
3274 2 0.0898561 0.277106 0.520434
3275 4 0.11478 0.275185 0.520957
274 2 0.107012 0.297287 0.571691
947 4 0.137812 0.274145 0.578732
275 4 0.0896902 0.308281 0.557398
936 4 0.0758788 0.321229 0.565512
946 2 0.160877 0.275143 0.569131
3190 2 0.219529 0.259476 0.563246
3192 4 0.203985 0.278897 0.560714
948 4 0.183942 0.276141 0.559529
583 2 0.2371 0.328805 0.504943
2374 2 0.245727 0.315403 0.56433
2376 4 0.238322 0.328622 0.544441
1137 4 0.300975 0.24874 0.581962
1332 4 0.328485 0.338288 0.53049
2776 2 0.480386 0.32271 0.520158
2448 4 0.0353398 0.334903 0.540099
710 4 0.0521942 0.346029 0.536203
709 2 0.062579 0.36763 0.52908
711 4 0.0729638 0.389231 0.521957
934 2 0.0736005 0.338323 0.583617
1189 2 0.127759 0.393079 0.561871
1383 4 0.154658 0.367079 0.55684
1381 2 0.15774 0.353692 0.535948
1191 4 0.135378 0.370674 0.553799
2172 4 0.173131 0.355207 0.510557
1382 4 0.160822 0.340305 0.515056
584 4 0.245999 0.337384 0.526677
240 4 0.314795 0.34219 0.514422
1330 2 0.350406 0.349634 0.53448
1331 4 0.372327 0.36098 0.538471
3167 4 0.374455 0.36867 0.556845
3166 2 0.395706 0.380478 0.551001
3168 4 0.416957 0.392286 0.545157
2777 4 0.464399 0.34117 0.525529
3020 4 0.431991 0.37789 0.546049
3019 2 0.453056 0.365181 0.541584
3021 4 0.474121 0.352472 0.53712
1325 4 0.0190777 0.490346 0.512338
1324 2 0.036078 0.497672 0.529146
1190 4 0.12014 0.415485 0.569942
4434 4 0.112898 0.427296 0.583984
2383 2 0.194015 0.490148 0.519539
2385 4 0.179337 0.50427 0.534041
1017 4 0.306355 0.407974 0.531966
1015 2 0.305365 0.427022 0.548133
1016 4 0.304375 0.44607 0.564301
1206 4 0.32186 0.45385 0.573605
2550 4 0.253629 0.426523 0.5163
3092 4 0.404333 0.464911 0.567334
2118 4 0.404798 0.471913 0.587554
3093 4 0.448467 0.444042 0.5565
3496 2 0.484007 0.454401 0.569043
3497 4 0.464586 0.439408 0.564222
3091 2 0.4264 0.454477 0.561917
3396 4 0.0341229 0.0570601 0.590252
3393 4 0.0542083 0.0585597 0.588384
3391 2 0.0780347 0.0661161 0.589
1131 4 0.107094 0.0160083 0.614022
1129 2 0.111965 0.0137715 0.638445
1130 4 0.116836 0.0115348 0.662867
3392 4 0.101861 0.0736724 0.589615
1283 4 0.0981503 0.0114339 0.596213
919 2 0.209026 0.0265554 0.628625
921 4 0.221621 0.0339216 0.60832
920 4 0.196432 0.0191893 0.648931
1181 4 0.30343 0.0694329 0.613946
1180 2 0.303711 0.0491506 0.628565
1182 4 0.303991 0.0288683 0.643185
2135 4 0.309173 0.0305105 0.662243
605 4 0.287508 0.0766414 0.604176
823 2 0.141292 0.158677 0.657387
825 4 0.121346 0.167615 0.645243
606 4 0.311142 0.120387 0.598835
604 2 0.299325 0.0985141 0.601505
1097 4 0.317838 0.120296 0.618171
1096 2 0.328587 0.142681 0.615255
1098 4 0.339337 0.165067 0.612339
4465 2 0.439698 0.124567 0.587735
4466 4 0.451836 0.119254 0.60894
49 3 0.470652 0.115945 0.617575
46 1 0.479806 0.135365 0.626377
48 3 0.473249 0.137898 0.64849
47 3 0.472159 0.153352 0.614246
1146 4 0.457409 0.14844 0.645502
259 2 0.0321317 0.22974 0.595648
3476 4 0.0280321 0.244316 0.63765
435 4 0.0623933 0.184512 0.589886
3475 2 0.0129447 0.235925 0.655738
433 2 0.0827107 0.1989 0.58757
260 4 0.0291123 0.237679 0.619164
2132 4 0.117935 0.205125 0.595615
2131 2 0.14266 0.201405 0.595652
2133 4 0.167386 0.197686 0.595689
857 4 0.220356 0.207785 0.626095
856 2 0.219511 0.231478 0.634036
1194 4 0.357402 0.168725 0.604535
1193 4 0.375695 0.213524 0.617149
2354 4 0.390884 0.218892 0.628873
1192 2 0.366549 0.191125 0.610842
2353 2 0.410308 0.210583 0.642245
2355 4 0.429732 0.202273 0.655618
1144 2 0.440726 0.165751 0.652371
1145 4 0.424043 0.183061 0.65924
778 2 0.0501544 0.329849 0.657736
780 4 0.0294642 0.328989 0.671748
276 4 0.124334 0.286294 0.585983
1207 2 0.104302 0.317419 0.642649
651 4 0.133006 0.283432 0.634617
1209 4 0.119048 0.297313 0.640774
649 2 0.155811 0.273182 0.634838
650 4 0.178616 0.262932 0.635059
858 4 0.218666 0.255172 0.641978
1212 4 0.235698 0.263557 0.634104
1210 2 0.23569 0.282183 0.650785
1135 2 0.301592 0.263649 0.602026
1136 4 0.302208 0.278557 0.622089
980 4 0.301546 0.298336 0.617169
979 2 0.297123 0.300245 0.641705
2375 4 0.253133 0.302184 0.58422
3642 4 0.490003 0.25037 0.643838
779 4 0.0708447 0.33071 0.643723
2989 2 0.0580311 0.386172 0.643159
2990 4 0.0409874 0.368768 0.648797
935 4 0.0713221 0.355417 0.601721
2991 4 0.0750748 0.403577 0.637522
1208 4 0.0895569 0.337524 0.644523
1953 4 0.250412 0.35147 0.594157
1951 2 0.253989 0.369072 0.611551
2153 4 0.261614 0.40584 0.631669
1952 4 0.257566 0.386674 0.628945
4433 4 0.0872498 0.414041 0.624815
4432 2 0.100074 0.420669 0.604399
2152 2 0.268347 0.426176 0.644564
2154 4 0.275079 0.446512 0.65746
791 4 0.270742 0.464384 0.665452
790 2 0.293895 0.472921 0.661423
792 4 0.317048 0.481458 0.657394
2036 4 0.32915 0.475981 0.641463
1205 4 0.336483 0.433455 0.616859
1204 2 0.329172 0.443653 0.595232
2037 4 0.376407 0.465923 0.65436
2035 2 0.352778 0.470952 0.647911
1910 4 0.393711 0.466169 0.645068
2116 2 0.402271 0.491536 0.602842
2117 4 0.399745 0.51116 0.618129
1998 4 0.124423 0.995396 0.674268
1973 4 0.201022 0.0246396 0.668619
1972 2 0.208592 0.0157204 0.690717
1974 4 0.216162 0.00680114 0.712815
2134 2 0.316828 0.0433177 0.682307
951 4 0.332873 0.0743754 0.706574
2136 4 0.324482 0.056125 0.702371
2321 4 0.442606 0.0189974 0.726015
2320 2 0.451087 0.0399379 0.736727
2145 4 0.4333 0.00200694 0.72024
2322 4 0.459568 0.0608784 0.747439
90 3 0.454958 0.0804853 0.752931
4508 4 0.0436005 0.138566 0.716352
4507 2 0.0346201 0.121221 0.731963
4509 4 0.0256396 0.103877 0.747574
1185 4 0.0560047 0.15446 0.7114
1183 2 0.0693684 0.164862 0.729795
824 4 0.161237 0.149739 0.669531
879 4 0.224024 0.115485 0.718238
877 2 0.238587 0.130947 0.73143
2986 2 0.321557 0.149356 0.727844
2988 4 0.318057 0.132235 0.709961
949 2 0.346467 0.0936149 0.698195
950 4 0.360062 0.112854 0.689816
1005 4 0.37465 0.125688 0.693476
1003 2 0.388131 0.131783 0.713633
2064 4 0.403875 0.155514 0.741411
1004 4 0.401611 0.137879 0.73379
2264 4 0.478006 0.122845 0.735339
2062 2 0.42385 0.169318 0.735438
89 3 0.479299 0.103867 0.736244
2263 2 0.49631 0.138368 0.728326
1184 4 0.0827321 0.175265 0.74819
2627 4 0.0113987 0.230679 0.688515
636 4 0.184338 0.173799 0.703859
634 2 0.20401 0.186223 0.713017
635 4 0.223681 0.198646 0.722174
1064 4 0.239407 0.203948 0.709795
1063 2 0.250702 0.225482 0.703974
1065 4 0.261996 0.247017 0.698153
2907 4 0.395233 0.240224 0.726893
558 4 0.410568 0.235186 0.73959
2063 4 0.443824 0.183122 0.729466
556 2 0.430977 0.249033 0.743698
3337 2 0.155835 0.310533 0.70593
3339 4 0.130929 0.311913 0.704205
896 4 0.125074 0.329792 0.698472
1211 4 0.235683 0.300809 0.667466
1229 4 0.231458 0.307116 0.686715
1228 2 0.207218 0.312854 0.688883
3338 4 0.18074 0.309152 0.707655
1230 4 0.182979 0.318592 0.691051
981 4 0.2927 0.302153 0.66624
2015 4 0.259515 0.262789 0.710331
3371 4 0.308364 0.304017 0.679056
3370 2 0.328838 0.292991 0.688245
2014 2 0.262724 0.271088 0.733698
2905 2 0.376556 0.253247 0.71656
3372 4 0.349311 0.281964 0.697434
2906 4 0.357879 0.266269 0.706227
4180 2 0.459491 0.302432 0.738378
4182 4 0.470918 0.322591 0.728985
557 4 0.451387 0.262881 0.747807
984 4 0.101 0.386654 0.678478
2356 2 0.0854402 0.399402 0.747154
2357 4 0.0814502 0.389939 0.724357
895 2 0.116965 0.353336 0.696216
897 4 0.108856 0.37688 0.693961
982 2 0.0909808 0.408151 0.686394
902 4 0.154048 0.405959 0.737023
901 2 0.14876 0.384048 0.747846
1920 4 0.21677 0.394625 0.720479
1079 4 0.224675 0.375532 0.722284
1918 2 0.193783 0.403736 0.724189
1919 4 0.170797 0.412848 0.7279
1078 2 0.247994 0.378292 0.713694
1080 4 0.271313 0.381053 0.705104
4482 4 0.273815 0.398045 0.714006
3112 2 0.404144 0.357347 0.735949
3113 4 0.38905 0.344555 0.751237
3114 4 0.419237 0.370138 0.72066
662 4 0.48693 0.398712 0.677303
3380 4 0.434474 0.382443 0.71604
3381 4 0.475314 0.386653 0.687491
3379 2 0.454894 0.384548 0.701765
3012 4 0.424764 0.414764 0.741664
983 4 0.0809621 0.429649 0.69431
3303 4 0.126695 0.468662 0.723976
3302 4 0.0904844 0.446835 0.697273
3301 2 0.10859 0.457749 0.710625
1161 4 0.135562 0.483218 0.712855
4480 2 0.283546 0.42082 0.717437
4481 4 0.293277 0.443595 0.720868
2379 4 0.293253 0.461859 0.727258
2377 2 0.306447 0.482718 0.723257
1909 2 0.402007 0.454349 0.66548
3011 4 0.414324 0.44741 0.705249
1911 4 0.410303 0.442529 0.685892
3010 2 0.419544 0.431087 0.723456
328 2 0.0109337 0.0575123 0.746043
1943 4 0.0535851 0.018296 0.808266
2090 4 0.0607711 0.998503 0.802742
1942 2 0.0425004 0.0257531 0.787131
1944 4 0.0314158 0.0332102 0.765996
330 4 0.0248835 0.0517005 0.765963
2232 4 0.228081 0.038328 0.791583
2230 2 0.235041 0.0143261 0.792383