ITEM: TIMESTEP
2550000
ITEM: NUMBER OF ATOMS
4590
ITEM: BOX BOUNDS pp pp pp
-9.9985700000000008e+00 9.9985700000000008e+00
-9.9985700000000008e+00 9.9985700000000008e+00
-9.9985700000000008e+00 9.9985700000000008e+00
ITEM: ATOMS id type xs ys zs
2424 4 0.0208917 0.0169474 0.0510223
701 4 0.00658161 0.0308726 0.0521296
370 2 0.0295443 0.072129 0.0257702
2422 2 0.0330115 0.998549 0.0391991
371 4 0.0491116 0.081473 0.0382196
372 4 0.009977 0.0627851 0.0133207
423 4 0.160168 0.00374489 0.0176927
1231 2 0.176693 0.0715332 0.0588293
1232 4 0.170535 0.0535459 0.0425903
421 2 0.169731 0.0265802 0.0211944
422 4 0.179295 0.0494156 0.0246962
567 4 0.232481 0.0632616 0.0309356
565 2 0.252528 0.0775921 0.0267009
758 4 0.415149 0.0523477 0.0750422
1827 4 0.431159 0.0492757 0.0623642
757 2 0.391053 0.0590145 0.0753305
759 4 0.366956 0.0656812 0.0756188
1825 2 0.435423 0.0477047 0.0377769
1826 4 0.439686 0.0461338 0.0131896
1108 2 0.457822 0.0041752 0.0725757
557 4 0.42693 0.0753961 0.984675
2886 4 0.498104 0.0199006 0.005947
2884 2 0.499357 0.997797 0.0175681
3232 2 0.0698442 0.0944412 0.0610694
3233 4 0.0623994 0.0729401 0.0507034
3234 4 0.077289 0.115942 0.0714355
1233 4 0.182852 0.0895205 0.0750684
566 4 0.272575 0.0919227 0.0224661
490 2 0.28135 0.150987 0.0335518
2163 4 0.279897 0.0989786 0.0395658
2161 2 0.301472 0.0915099 0.0497595
2162 4 0.323047 0.0840413 0.0599533
491 4 0.274853 0.169318 0.0492653
492 4 0.287847 0.132655 0.0178384
558 4 0.413306 0.11179 0.0161488
556 2 0.420118 0.0935931 0.000412041
931 2 0.19463 0.228322 0.0573146
932 4 0.20489 0.20682 0.0649008
4212 4 0.236855 0.232823 0.0737021
32 3 0.225707 0.187451 0.991262
4211 4 0.26916 0.223615 0.0366564
4210 2 0.253008 0.228219 0.0551792
481 2 0.302333 0.208408 0.0260358
483 4 0.288078 0.221476 0.0418846
482 4 0.316588 0.195339 0.0101869
1304 4 0.319605 0.189642 0.991304
665 4 0.367372 0.207751 0.0802708
664 2 0.36809 0.222457 0.0600621
1303 2 0.342443 0.17949 0.992021
1305 4 0.365282 0.169339 0.992737
764 4 0.403623 0.182993 0.0805501
666 4 0.368807 0.237163 0.0398535
763 2 0.423238 0.172246 0.0693732
968 4 0.398966 0.227691 0.00877374
2681 4 0.461986 0.16855 0.0558079
2680 2 0.484231 0.177796 0.0491092
765 4 0.442853 0.161498 0.0581963
2682 4 0.506475 0.187042 0.0424106
2514 4 0.986999 0.329331 0.0295047
363 4 0.0773282 0.270612 0.0666635
300 4 0.0584979 0.264524 0.0728757
361 2 0.102202 0.271266 0.0691199
362 4 0.127076 0.27192 0.0715763
738 4 0.135438 0.289408 0.0790423
933 4 0.18437 0.249825 0.0497284
960 4 0.196285 0.257462 0.0360255
958 2 0.196311 0.27632 0.0196075
354 4 0.260717 0.271446 0.0793278
353 4 0.276553 0.317686 0.0687516
352 2 0.268635 0.294566 0.0740397
387 4 0.276917 0.33813 0.0623482
323 4 0.356415 0.252205 0.0440455
322 2 0.35704 0.266761 0.023725
1046 4 0.474273 0.332316 0.0497934
1045 2 0.478671 0.322219 0.0722411
2772 4 0.000337579 0.338203 0.0171481
454 2 0.0332237 0.392886 0.0495656
455 4 0.0479914 0.394875 0.0294873
456 4 0.018456 0.390897 0.0696439
293 4 0.136158 0.373239 0.0127866
292 2 0.138812 0.394035 0.0264121
294 4 0.141466 0.414831 0.0400376
956 4 0.242029 0.378866 0.0248486
955 2 0.22389 0.393297 0.0342245
385 2 0.285632 0.34924 0.0829827
783 4 0.296894 0.395824 0.0400668
781 2 0.277996 0.385537 0.0273305
782 4 0.259098 0.375249 0.0145942
303 4 0.392423 0.367164 0.0866704
2872 2 0.0451299 0.447933 0.0583797
537 4 0.067084 0.476763 0.0528806
2874 4 0.0302592 0.430025 0.0492488
2873 4 0.0600006 0.46584 0.0675106
535 2 0.0883339 0.481381 0.04054
536 4 0.109584 0.486 0.0281994
1691 4 0.116907 0.468939 0.0211352
957 4 0.20575 0.407727 0.0436004
637 2 0.207767 0.451364 0.0379583
1779 4 0.218423 0.49234 0.0226387
639 4 0.209286 0.47489 0.029627
638 4 0.206248 0.427838 0.0462897
272 4 0.300956 0.411354 0.0513588
271 2 0.322856 0.422903 0.0548493
2567 4 0.390594 0.476633 0.0614917
2566 2 0.374126 0.458811 0.0675243
2287 2 0.406045 0.481205 0.0273027
2289 4 0.38687 0.471996 0.0404442
2288 4 0.42522 0.490413 0.0141613
273 4 0.344756 0.434452 0.0583398
2568 4 0.357659 0.440989 0.0735568
2650 2 0.464278 0.484576 0.0772659
2582 4 0.4498 0.508534 0.046649
2480 4 0.072404 0.0480219 0.156785
579 4 0.0790058 0.0650559 0.150447
577 2 0.090667 0.0850903 0.159818
1023 4 0.279465 0.0541266 0.119455
1021 2 0.298394 0.0688494 0.126534
3835 2 0.3472 0.0178144 0.12621
3836 4 0.36152 0.0297546 0.142869
1253 4 0.331445 0.00558234 0.0894906
1761 4 0.422067 0.083424 0.103893
1109 4 0.468239 0.0242113 0.08331
1760 4 0.432651 0.0750705 0.152048
1759 2 0.427359 0.0792473 0.12797
744 4 0.444687 0.0783808 0.168435
359 4 0.17734 0.10511 0.0850363
578 4 0.102328 0.105125 0.169189
545 4 0.10562 0.163066 0.161001
544 2 0.103496 0.138636 0.156121
546 4 0.101373 0.114205 0.151242
690 4 0.173186 0.11457 0.151848
360 4 0.165984 0.108123 0.133643
358 2 0.171662 0.106617 0.10934
249 4 0.228977 0.108269 0.148949
247 2 0.241469 0.124746 0.134891
248 4 0.253961 0.141223 0.120832
1022 4 0.317322 0.0835723 0.133613
52 3 0.266202 0.156145 0.115147
53 3 0.29773 0.143331 0.131098
51 1 0.28789 0.161535 0.120601
582 4 0.332459 0.0941142 0.127734
251 4 0.304225 0.184668 0.0936356
581 4 0.362457 0.0788375 0.0907549
580 2 0.347458 0.0864758 0.109244
299 4 0.0472146 0.236029 0.112391
554 4 0.0284272 0.229258 0.109383
553 2 0.0315074 0.220313 0.132528
555 4 0.0345877 0.211368 0.155672
617 4 0.0909507 0.176861 0.157564
54 3 0.29946 0.166673 0.101155
250 2 0.326187 0.194203 0.0864289
55 3 0.287861 0.179497 0.134601
252 4 0.348149 0.203739 0.0792222
629 4 0.411743 0.227213 0.131567
628 2 0.408563 0.213847 0.110677
630 4 0.405383 0.20048 0.0897863
253 2 0.419212 0.248905 0.163608
298 2 0.0528562 0.250276 0.0926332
736 2 0.131049 0.31361 0.0835312
244 2 0.189964 0.260224 0.157431
740 4 0.244993 0.279365 0.0892091
245 4 0.20927 0.267777 0.143453
741 4 0.210225 0.271867 0.124361
739 2 0.227609 0.275616 0.106785
356 4 0.266545 0.297064 0.138007
338 4 0.261843 0.315831 0.137981
355 2 0.265619 0.281186 0.157301
520 2 0.34612 0.324086 0.110435
522 4 0.346487 0.315353 0.133861
255 4 0.419221 0.244539 0.138989
1047 4 0.483069 0.312123 0.0946887
658 2 0.445437 0.3238 0.115982
659 4 0.467976 0.318547 0.106518
660 4 0.422898 0.329052 0.125446
737 4 0.12666 0.337813 0.08802
646 2 0.14141 0.375853 0.106689
647 4 0.135557 0.356612 0.0918318
648 4 0.147263 0.395093 0.121545
337 2 0.245254 0.331636 0.147988
339 4 0.228664 0.347442 0.157996
386 4 0.294347 0.360351 0.103617
521 4 0.345753 0.33282 0.087009
497 4 0.388614 0.382219 0.0992049
301 2 0.398992 0.348449 0.101894
496 2 0.38908 0.40666 0.104463
302 4 0.405561 0.329734 0.117118
713 4 0.462101 0.38006 0.131949
712 2 0.47323 0.40112 0.124349
714 4 0.48436 0.422181 0.116748
314 4 0.0141935 0.480684 0.130531
313 2 0.0389589 0.482377 0.127533
2618 4 0.014173 0.482152 0.149883
315 4 0.0637243 0.48407 0.124535
914 4 0.199917 0.448356 0.140745
913 2 0.219743 0.448703 0.125513
525 4 0.188574 0.439395 0.154587
915 4 0.239568 0.449049 0.110282
756 4 0.246486 0.464275 0.121941
754 2 0.264801 0.477389 0.11109
755 4 0.283117 0.490503 0.100238
507 4 0.291681 0.443676 0.130674
505 2 0.306344 0.43048 0.146038
498 4 0.389547 0.4311 0.10972
541 2 0.407859 0.46168 0.117993
543 4 0.407544 0.438535 0.10854
1575 4 0.333173 0.493033 0.12432
542 4 0.408173 0.484826 0.127447
608 4 0.41214 0.495326 0.146192
2651 4 0.466567 0.464301 0.0917183
494 4 0.478511 0.472935 0.107906
493 2 0.489652 0.451672 0.114902
2479 2 0.0537119 0.0321964 0.161819
2481 4 0.0350199 0.0163709 0.166853
589 2 0.0579328 0.0375921 0.233177
590 4 0.0419299 0.0542775 0.223655
591 4 0.0739357 0.0209067 0.2427
380 4 0.0303336 0.0564635 0.240496
2799 4 0.0210164 0.0293759 0.177502
3810 4 0.0864656 0.00593104 0.247176
3809 4 0.120961 0.999527 0.211542
3808 2 0.103713 0.0027289 0.229359
1506 4 0.236277 0.997409 0.18612
1504 2 0.255717 0.011851 0.192339
1505 4 0.275158 0.0262933 0.198558
461 4 0.274092 0.0448941 0.20665
460 2 0.297484 0.0518672 0.21207
462 4 0.320875 0.0588403 0.21749
332 4 0.332863 0.039822 0.216714
333 4 0.361325 0.000100055 0.227336
331 2 0.347094 0.019961 0.222025
24 3 0.430644 0.985282 0.201272
2468 4 0.494606 0.00807159 0.178989
22 3 0.421724 0.00129849 0.168461
742 2 0.443603 0.0579644 0.182828
743 4 0.442519 0.0375479 0.197222
23 3 0.445001 0.019205 0.191916
21 1 0.438566 0.998418 0.183862
2745 4 0.505307 0.996637 0.194
2469 4 0.513023 0.0538837 0.171065
2467 2 0.503814 0.0309776 0.175027
1700 4 0.167939 0.13287 0.215322
689 4 0.159421 0.132042 0.196636
688 2 0.166304 0.123306 0.174242
1699 2 0.189863 0.134233 0.227266
410 4 0.209063 0.153114 0.248263
1701 4 0.211787 0.135596 0.239209
2768 4 0.348121 0.106285 0.223668
2767 2 0.340614 0.121056 0.204942
528 4 0.26706 0.151032 0.232606
2769 4 0.333107 0.135826 0.186216
403 2 0.366361 0.155486 0.24202
405 4 0.389442 0.145939 0.240892
633 4 0.400305 0.129107 0.24042
632 4 0.446308 0.148181 0.244962
631 2 0.423306 0.138644 0.242691
2834 4 0.0402221 0.219583 0.17399
2833 2 0.0261711 0.234649 0.188159
616 2 0.0866261 0.184264 0.181052
618 4 0.0823014 0.191666 0.20454
2463 4 0.0913916 0.178597 0.216202
2461 2 0.0905209 0.187112 0.239695
622 2 0.271867 0.222677 0.186421
526 2 0.268543 0.173899 0.222603
527 4 0.270026 0.196767 0.2126
624 4 0.270733 0.198542 0.192854
404 4 0.343279 0.165034 0.243148
254 4 0.419204 0.253271 0.188227
706 2 0.447383 0.18945 0.250253
760 2 0.429537 0.228062 0.212528
762 4 0.447649 0.217035 0.225777
708 4 0.44565 0.214059 0.246183
761 4 0.411424 0.239089 0.19928
1776 4 0.0345171 0.318965 0.19843
395 4 0.00141745 0.307563 0.193984
1774 2 0.0540841 0.3287 0.186283
246 4 0.170657 0.252671 0.171409
464 4 0.117605 0.301665 0.233852
463 2 0.0950376 0.301403 0.244615
623 4 0.273001 0.246812 0.179989
357 4 0.264693 0.265309 0.176594
13 3 0.315934 0.287053 0.207743
15 3 0.338765 0.27243 0.181617
14 3 0.336074 0.309838 0.184947
11 1 0.335962 0.289606 0.196307
12 3 0.353253 0.2895 0.211478
641 4 0.37028 0.296316 0.220094
640 2 0.37126 0.283028 0.241251
612 4 0.344186 0.327639 0.187419
620 4 0.012488 0.406647 0.194741
1775 4 0.0736511 0.338434 0.174136
703 2 0.0293231 0.40538 0.230416
705 4 0.048443 0.406782 0.246468
735 4 0.0595865 0.411184 0.229772
1620 4 0.231761 0.365946 0.165184
1619 4 0.204845 0.36907 0.207214
1618 2 0.218303 0.367508 0.186199
506 4 0.321007 0.417285 0.161403
610 2 0.363202 0.3404 0.177383
611 4 0.382217 0.353162 0.167346
308 4 0.38339 0.369602 0.179736
307 2 0.390424 0.3931 0.184588
309 4 0.397459 0.416597 0.189441
704 4 0.0102032 0.403978 0.214365
2619 4 0.00633859 0.488299 0.198889
2617 2 0.0102558 0.485226 0.174386
2528 4 0.0191745 0.501972 0.198329
1790 4 0.12951 0.491101 0.173518
733 2 0.080674 0.422296 0.222221
734 4 0.101761 0.433409 0.21467
1767 4 0.10667 0.440612 0.1963
1765 2 0.118478 0.456902 0.181455
1766 4 0.130287 0.473192 0.166609
524 4 0.211367 0.434232 0.198797
523 2 0.19997 0.436814 0.176692
344 4 0.236597 0.408403 0.215253
343 2 0.246738 0.428712 0.225734
345 4 0.256879 0.449021 0.236216
286 2 0.322135 0.423772 0.199841
602 4 0.26391 0.466259 0.226325
601 2 0.284272 0.475149 0.237794
287 4 0.327461 0.411079 0.178967
231 4 0.329392 0.441853 0.236519
1455 4 0.41067 0.424446 0.202059
288 4 0.31681 0.436466 0.220714
1453 2 0.413133 0.44157 0.220111
19 3 0.00625916 0.061142 0.311101
379 2 0.0148927 0.0615781 0.259486
723 4 0.0256394 0.0663283 0.314399
381 4 0.999452 0.0666927 0.278475
675 4 0.0913453 0.0842854 0.28487
285 4 0.12628 0.036702 0.316953
674 4 0.117733 0.0447197 0.300328
283 2 0.148718 0.0343791 0.306168
673 2 0.104539 0.0645025 0.292599
284 4 0.171157 0.0320563 0.295383
1404 4 0.230254 0.0608651 0.277707
1402 2 0.208276 0.0494193 0.28104
1403 4 0.186297 0.0379736 0.284373
1479 4 0.243025 0.0692364 0.290425
1477 2 0.248436 0.0717591 0.314706
1478 4 0.253848 0.0742817 0.338986
653 4 0.374251 0.00531443 0.289762
1427 4 0.376268 0.0236198 0.281702
1426 2 0.36389 0.0354111 0.299949
1428 4 0.351512 0.0472025 0.318195
258 4 0.345155 0.0607993 0.332214
2664 4 0.472648 0.0422534 0.311353
2662 2 0.481434 0.0505485 0.333243
1731 4 0.478859 0.00276081 0.27826
513 4 0.13031 0.116607 0.320128
693 4 0.136864 0.135694 0.314253
691 2 0.146833 0.150729 0.29694
511 2 0.10655 0.116706 0.327915
512 4 0.0827906 0.116805 0.335703
1405 2 0.213488 0.115917 0.324308
1406 4 0.189363 0.112844 0.330116
1407 4 0.237613 0.118991 0.318501
684 4 0.256018 0.115478 0.31629
682 2 0.267946 0.134435 0.305177
683 4 0.279875 0.153393 0.294064
474 4 0.29121 0.168678 0.288156
707 4 0.449116 0.164841 0.254323
2898 4 0.0557779 0.240468 0.298659
2896 2 0.0710844 0.223447 0.288601
2718 4 0.0482771 0.24792 0.282219
692 4 0.156801 0.165765 0.279627
2897 4 0.086391 0.206426 0.278542
2462 4 0.0896502 0.195627 0.263188
409 2 0.217636 0.173928 0.259147
411 4 0.226209 0.194742 0.270031
489 4 0.241342 0.19613 0.282803
487 2 0.243766 0.219751 0.290635
488 4 0.24619 0.243372 0.298467
472 2 0.29808 0.189435 0.276026
473 4 0.304949 0.210192 0.263897
310 2 0.385398 0.229028 0.263287
311 4 0.393875 0.206604 0.256183
2717 4 0.056125 0.287726 0.252985
465 4 0.0724705 0.301141 0.255378
2716 2 0.0522011 0.267823 0.267602
476 4 0.122674 0.313539 0.249159
475 2 0.144588 0.317175 0.260635
677 4 0.249295 0.258887 0.310923
477 4 0.166503 0.320811 0.272111
676 2 0.24569 0.280981 0.32206
401 4 0.183354 0.318148 0.283701
4 3 0.298828 0.310838 0.331439
642 4 0.372239 0.26974 0.262409
312 4 0.376922 0.251453 0.27039
752 4 0.384937 0.298537 0.315037
751 2 0.403609 0.308357 0.301616
753 4 0.42228 0.318177 0.288196
392 4 0.00707303 0.374815 0.321431
408 4 0.00940733 0.413448 0.271649
402 4 0.205798 0.356044 0.307384
400 2 0.194576 0.337096 0.295543
414 4 0.230708 0.384936 0.309194
438 4 0.243206 0.372096 0.30035
412 2 0.227711 0.404717 0.324191
2 3 0.277205 0.341153 0.326332
436 2 0.264814 0.364934 0.310693
437 4 0.286422 0.357773 0.321036
669 4 0.411809 0.395854 0.330661
2297 4 0.0565857 0.421022 0.318058
407 4 0.0482667 0.427523 0.299802
406 2 0.028837 0.420485 0.285725
2296 2 0.0797116 0.430223 0.320448
727 2 0.151173 0.502589 0.295061
767 4 0.140767 0.465449 0.300451
728 4 0.136162 0.484414 0.303399
2298 4 0.102838 0.439424 0.322838
766 2 0.150385 0.449298 0.316938
603 4 0.304634 0.484038 0.249264
1454 4 0.415596 0.458694 0.238163
230 4 0.370779 0.430769 0.262307
229 2 0.350086 0.436311 0.249413
721 2 0.0308398 0.0596169 0.337917
722 4 0.0360403 0.0529055 0.361435
1034 4 0.0229169 0.0776334 0.397024
1033 2 0.046352 0.0769671 0.388333
1035 4 0.0697871 0.0763008 0.379642
1057 2 0.237863 0.00492629 0.39602
900 4 0.271292 0.0241916 0.383806
899 4 0.259759 0.0625221 0.353831
898 2 0.265525 0.0433568 0.368818
1059 4 0.262136 0.0108165 0.397161
256 2 0.361042 0.056842 0.351111
1031 4 0.384117 0.0337483 0.375058
257 4 0.37693 0.0528846 0.370008
1030 2 0.385948 0.0128655 0.388686
716 4 0.49231 0.0559608 0.408075
1517 4 0.480509 0.0721112 0.366638
2663 4 0.490221 0.0588435 0.355132
715 2 0.469878 0.0616084 0.417565
397 2 0.124245 0.0915354 0.39216
398 4 0.126307 0.0835168 0.368567
732 4 0.143486 0.0942262 0.366323
730 2 0.163785 0.0947159 0.351731
731 4 0.184083 0.0952055 0.337139
341 4 0.184959 0.120114 0.378578
1782 4 0.195845 0.113387 0.392605
340 2 0.177174 0.14386 0.379411
1780 2 0.215197 0.10357 0.405025
2612 4 0.991366 0.208217 0.355462
342 4 0.16939 0.167606 0.380244
588 4 0.178003 0.175723 0.396485
586 2 0.180678 0.194233 0.41308
389 4 0.195506 0.256917 0.39971
1219 2 0.0826757 0.321654 0.390313
291 4 0.0974689 0.283377 0.378113
1220 4 0.0856088 0.297972 0.382848
289 2 0.120099 0.272801 0.377006
290 4 0.142728 0.262225 0.375898
390 4 0.160323 0.26627 0.365426
388 2 0.177915 0.261594 0.382568
678 4 0.242084 0.303075 0.333197
3 3 0.261389 0.309014 0.337718
1 1 0.280289 0.322386 0.339272
649 2 0.29762 0.289604 0.400075
650 4 0.304043 0.293416 0.376214
435 4 0.309985 0.312104 0.37697
433 2 0.331236 0.321491 0.367728
118 3 0.375428 0.285647 0.358056
117 3 0.393109 0.306536 0.332295
434 4 0.352488 0.330879 0.358486
120 3 0.371148 0.323051 0.35755
116 1 0.385849 0.306 0.354116
119 3 0.404156 0.308379 0.368172
926 4 0.423395 0.313286 0.36397
925 2 0.443735 0.327362 0.367622
1382 4 0.00622095 0.35166 0.409482
1221 4 0.0797427 0.345337 0.397778
417 4 0.0208732 0.374804 0.335444
416 4 0.052608 0.374078 0.374084
415 2 0.0367406 0.374441 0.354764
3107 4 0.0742946 0.365474 0.400728
1756 2 0.12525 0.390674 0.380262
1758 4 0.131823 0.393295 0.356281
1757 4 0.118676 0.388053 0.404243
5 3 0.283613 0.328657 0.360911
667 2 0.405696 0.406822 0.352283
334 2 0.494981 0.324112 0.350051
927 4 0.464075 0.341438 0.371275
335 4 0.477091 0.340274 0.356675
1741 2 0.446979 0.371999 0.414467
1742 4 0.450498 0.348705 0.422844
1743 4 0.443459 0.395293 0.406089
1472 4 0.440748 0.414714 0.403794
1811 4 0.134822 0.505666 0.372857
768 4 0.160002 0.433147 0.333425
413 4 0.224715 0.424499 0.339188
1862 4 0.239275 0.426642 0.352716
1863 4 0.206879 0.450909 0.382081
1861 2 0.223077 0.438776 0.367399
668 4 0.399584 0.41779 0.373905
1437 4 0.385914 0.42896 0.365215
1587 4 0.368223 0.475224 0.399659
1436 4 0.361578 0.469145 0.382352
1435 2 0.373746 0.449052 0.373783
1585 2 0.373329 0.49607 0.412487
1473 4 0.442103 0.463771 0.394188
106 1 0.431998 0.503576 0.403905
1803 4 0.44323 0.476637 0.330347
110 3 0.439128 0.482098 0.40136
2924 4 0.458383 0.469261 0.340153
2923 2 0.479317 0.455597 0.340653
1801 2 0.430253 0.489455 0.347449
1471 2 0.441426 0.439243 0.398991
1802 4 0.417276 0.502272 0.364551
3235 2 0.00555411 0.000947029 0.458538
1127 4 0.0210454 0.0418856 0.456882
3236 4 0.010802 0.0251864 0.455361
1126 2 0.0232713 0.0556025 0.436096
686 4 0.0740115 0.0627385 0.464589
1128 4 0.0254972 0.0693195 0.41531
685 2 0.0918378 0.0452101 0.46498
1773 4 0.154204 0.00196325 0.425619
1771 2 0.133586 0.00757417 0.438603
687 4 0.109664 0.0276817 0.465372
316 2 0.140995 0.0688051 0.440233
1772 4 0.112967 0.0131851 0.451587
317 4 0.150234 0.0482727 0.451106
318 4 0.131755 0.0893375 0.429359
319 2 0.248743 0.078585 0.454388
320 4 0.253513 0.076484 0.478842
1152 4 0.267446 0.073741 0.492792
3758 4 0.50069 0.0493156 0.424312
717 4 0.447445 0.0672559 0.427056
3270 4 0.436184 0.0548696 0.48881
304 2 0.433772 0.0692583 0.458952
306 4 0.428836 0.0627579 0.435318
305 4 0.438709 0.0757587 0.482586
3111 4 0.999612 0.119822 0.478687
399 4 0.122183 0.099554 0.415753
1781 4 0.23455 0.0937523 0.417446
321 4 0.243972 0.0806859 0.429934
606 4 0.331245 0.169011 0.487028
604 2 0.34539 0.150039 0.495099
383 4 0.0538324 0.217374 0.431377
382 2 0.0603653 0.216379 0.455491
384 4 0.0668981 0.215383 0.479606
510 4 0.0779169 0.207246 0.49501
508 2 0.0989539 0.218239 0.50287
587 4 0.183352 0.212743 0.429676
431 4 0.179162 0.21464 0.449486
430 2 0.168096 0.237062 0.449576
3158 4 0.333071 0.181491 0.472341
468 4 0.36935 0.229118 0.454868
3159 4 0.366996 0.218207 0.471023
3157 2 0.350033 0.199849 0.471682
952 2 0.493677 0.222883 0.458331
954 4 0.472968 0.224347 0.472264
266 4 0.456984 0.235525 0.473864
265 2 0.449933 0.227756 0.496561
3039 4 0.0880524 0.300525 0.483447
432 4 0.15703 0.259483 0.449665
3037 2 0.082091 0.286326 0.503145
615 4 0.202268 0.271827 0.411464
576 4 0.164223 0.275655 0.457892
574 2 0.179777 0.291932 0.468769
613 2 0.217973 0.274617 0.430719
614 4 0.233677 0.277408 0.449974
240 4 0.207203 0.310925 0.463052
575 4 0.195332 0.308209 0.479646
651 4 0.291196 0.285791 0.423937
811 2 0.288403 0.301841 0.459429
812 4 0.291773 0.283095 0.443231
813 4 0.285033 0.320588 0.475627
466 2 0.364537 0.253112 0.46
467 4 0.359724 0.277105 0.465131
378 4 0.355676 0.297463 0.469674
376 2 0.375965 0.307259 0.458832
377 4 0.396254 0.317056 0.447989
3308 4 0.412113 0.308058 0.441123
3307 2 0.434448 0.302934 0.451126
3309 4 0.456783 0.297809 0.461128
852 4 0.0670323 0.39503 0.4603
3108 4 0.0637213 0.392966 0.44114
3106 2 0.0690079 0.37922 0.420934
850 2 0.0667308 0.401646 0.48441
326 4 0.132047 0.38016 0.416282
325 2 0.137329 0.396254 0.434675
238 2 0.223007 0.329013 0.469998
239 4 0.238811 0.347101 0.476944
446 4 0.330327 0.347309 0.459749
445 2 0.331871 0.368175 0.446059
447 4 0.333415 0.389041 0.432369
774 4 0.252932 0.357841 0.467664
772 2 0.26899 0.371592 0.481015
2457 4 0.405881 0.369226 0.459603
807 4 0.455569 0.351555 0.482094
2456 4 0.439131 0.341297 0.484405
2455 2 0.422506 0.355262 0.472004
805 2 0.477376 0.342152 0.489919
2550 4 0.0145481 0.456721 0.449109
2548 2 0.00865246 0.478904 0.439193
504 4 0.0262893 0.449933 0.46524
502 2 0.0491749 0.457507 0.471878
503 4 0.0720606 0.465081 0.478515
327 4 0.142612 0.412347 0.453067
1820 4 0.191536 0.473788 0.494199
930 4 0.345264 0.404914 0.433123
583 2 0.401302 0.465492 0.46402
584 4 0.404892 0.482717 0.481784
928 2 0.363871 0.420012 0.440262
929 4 0.382479 0.435111 0.447401
585 4 0.397712 0.448266 0.446256
2355 4 0.388465 0.486147 0.490389
1271 4 0.0587558 0.0328457 0.534726
459 4 0.0609646 0.0531733 0.531438
1270 2 0.0425708 0.0140315 0.537768
457 2 0.0673162 0.0583328 0.555064
458 4 0.0736677 0.0634924 0.578691
910 2 0.157632 0.0375978 0.574479
911 4 0.140951 0.0391353 0.593041
919 2 0.197681 0.0154966 0.527514
921 4 0.178086 0.0275344 0.537328
912 4 0.174313 0.0360602 0.555916
920 4 0.217275 0.00345878 0.5177
4581 4 0.470153 0.0314295 0.541519
3269 4 0.467043 0.0454716 0.527022
4579 2 0.494221 0.0326702 0.54818
3268 2 0.451614 0.0501706 0.507916
2375 4 0.120866 0.149602 0.564766
2374 2 0.122921 0.131928 0.5472
2376 4 0.124977 0.114254 0.529633
824 4 0.136383 0.143933 0.574995
1150 2 0.251739 0.079368 0.511414
892 2 0.313353 0.096174 0.588243
937 2 0.253544 0.109959 0.561541
894 4 0.304077 0.0916442 0.56547
1151 4 0.236032 0.0849951 0.530036
938 4 0.240911 0.0933728 0.547739
605 4 0.359535 0.131066 0.50317
872 4 0.502823 0.159806 0.550019
1198 2 0.0222251 0.195457 0.54975
1199 4 0.0450783 0.204148 0.544519
3275 4 0.0661092 0.20396 0.544636
3274 2 0.082007 0.219927 0.555476
1200 4 0.999372 0.186765 0.554982
3276 4 0.0979047 0.235893 0.566316
2447 4 0.104735 0.25326 0.560603
509 4 0.119991 0.229231 0.51073
48 3 0.457351 0.192006 0.546942
46 1 0.477702 0.19334 0.558009
49 3 0.474174 0.196513 0.580722
50 3 0.490018 0.210542 0.549581
47 3 0.48914 0.173618 0.554944
267 4 0.442883 0.219988 0.519257
3038 4 0.0761296 0.272126 0.522843
710 4 0.130186 0.314206 0.567109
2446 2 0.115842 0.275563 0.558512
2448 4 0.126949 0.297867 0.556422
709 2 0.125434 0.337003 0.558004
569 4 0.212129 0.263404 0.554681
570 4 0.169878 0.254497 0.529458
568 2 0.191003 0.258951 0.54207
695 4 0.226238 0.262019 0.568121
694 2 0.249167 0.262857 0.558184
635 4 0.275953 0.251695 0.533686
634 2 0.286365 0.268354 0.518218
696 4 0.272096 0.263694 0.548248
636 4 0.296777 0.285012 0.502749
1190 4 0.0812772 0.395283 0.515921
851 4 0.0664292 0.408263 0.508521
1189 2 0.0953722 0.385593 0.534158
1191 4 0.109467 0.375902 0.552396
711 4 0.120682 0.359799 0.548898
790 2 0.307592 0.400527 0.517101
791 4 0.297313 0.378911 0.509871
773 4 0.285047 0.385344 0.494366
1171 2 0.0789501 0.486357 0.556766
1172 4 0.0577704 0.481354 0.569077
8 3 0.0129904 0.452589 0.574846
1173 4 0.10013 0.491361 0.544455
1819 2 0.183724 0.462159 0.514909
1821 4 0.175911 0.450529 0.535619
1239 4 0.195311 0.452529 0.544848
1237 2 0.207589 0.44307 0.564468
792 4 0.31787 0.422143 0.524332
2152 2 0.327438 0.454126 0.522378
2154 4 0.335988 0.430833 0.519289
2223 4 0.317489 0.493575 0.538663
2153 4 0.318889 0.477418 0.525466
2353 2 0.395289 0.485638 0.514439
2354 4 0.402112 0.485129 0.538488
1268 4 0.397601 0.500147 0.550911
1267 2 0.393369 0.497983 0.575459
1601 4 0.0761225 0.0499392 0.591778
1600 2 0.0999568 0.0445518 0.597077
1602 4 0.123791 0.0391643 0.602376
1284 4 0.143042 0.0655585 0.652002
1202 4 0.13986 0.046607 0.6583
1107 4 0.167866 0.0160331 0.632494
2047 2 0.23654 0.00763449 0.666128
2049 4 0.217648 0.0218748 0.658035
1106 4 0.215761 0.0283511 0.639919
1105 2 0.191813 0.0221921 0.636206
1163 4 0.371242 0.000832934 0.602803
798 4 0.389686 0.0529166 0.627255
797 4 0.364724 0.0102737 0.619559
796 2 0.377205 0.0315952 0.623407
43 3 0.395168 0.0629594 0.642693
41 1 0.395041 0.0845629 0.651159
44 3 0.412959 0.0875161 0.665603
3382 2 0.0152165 0.0878801 0.636118
3384 4 0.0295184 0.0988569 0.653443
1227 4 0.0402361 0.0908449 0.668365
1282 2 0.149656 0.0896713 0.65213
1283 4 0.156269 0.113784 0.652258
823 2 0.146374 0.152883 0.596096
825 4 0.156365 0.161833 0.617197
2133 4 0.154806 0.155291 0.637341
939 4 0.266177 0.126545 0.575342
893 4 0.32263 0.100704 0.611016
42 3 0.39704 0.0994045 0.633698
2131 2 0.168309 0.172389 0.649609
1192 2 0.381328 0.221423 0.66375
1193 4 0.357472 0.227461 0.659328
4465 2 0.463938 0.20076 0.618296
4467 4 0.448083 0.201688 0.637607
4466 4 0.479792 0.199833 0.598984
3372 4 0.479682 0.232633 0.650541
1026 4 0.462577 0.236498 0.65985
897 4 0.0799574 0.315701 0.646262
1155 4 0.0990744 0.269842 0.672633
374 4 0.0815145 0.334964 0.639207
895 2 0.0956771 0.298634 0.636946
896 4 0.111397 0.281567 0.627631
858 4 0.257193 0.275905 0.594931
856 2 0.236166 0.281513 0.607243
857 4 0.215139 0.287121 0.619555
275 4 0.210918 0.295068 0.637584
274 2 0.217802 0.318489 0.642991
1208 4 0.201987 0.261025 0.687331
662 4 0.389982 0.330351 0.62953
935 4 0.379347 0.313547 0.632296
936 4 0.337566 0.312217 0.604849
934 2 0.358456 0.312882 0.618573
1136 4 0.337769 0.331925 0.599319
982 2 0.0637341 0.41427 0.604272
983 4 0.0654224 0.392417 0.616303
375 4 0.0585587 0.373537 0.617164
373 2 0.0700366 0.35425 0.628186
1444 2 0.163758 0.414708 0.595667
1446 4 0.145808 0.405507 0.610443
276 4 0.224686 0.34191 0.648399
878 4 0.23482 0.359907 0.647683
1445 4 0.181708 0.423908 0.580891
1137 4 0.326724 0.380651 0.597205
1135 2 0.332247 0.356288 0.598262
661 2 0.394185 0.353394 0.638277
4485 4 0.406313 0.394436 0.644399
4483 2 0.407786 0.419196 0.641247
663 4 0.398388 0.376438 0.647025
4335 4 0.498056 0.363449 0.59348
10 3 0.0440991 0.473067 0.580375
984 4 0.0620459 0.436124 0.592241
7 3 0.0423836 0.43807 0.593229
6 1 0.0303768 0.457327 0.589464
9 3 0.0218848 0.464943 0.60967
2139 4 0.0317585 0.465524 0.626193
2137 2 0.0255544 0.464074 0.650371
2172 4 0.127476 0.412382 0.617997
2170 2 0.124735 0.414379 0.642769
2698 2 0.136385 0.492311 0.612759
2700 4 0.16006 0.486355 0.618163
2699 4 0.11271 0.498267 0.607355
2310 4 0.167366 0.499823 0.631486
1238 4 0.219867 0.43361 0.584088
2142 4 0.230384 0.45016 0.591945
2140 2 0.249105 0.454425 0.60796
2141 4 0.267827 0.458691 0.623975
1002 4 0.309851 0.506214 0.609786
4484 4 0.409259 0.443956 0.638094
1250 4 0.420541 0.454684 0.651012
1249 2 0.440703 0.468414 0.645518
1251 4 0.460865 0.482143 0.640024
1185 4 0.0618381 0.031032 0.715908
4521 4 0.0444502 0.0261292 0.724843
4519 2 0.0322367 0.0284954 0.746532
1183 2 0.078701 0.0235224 0.699043
1201 2 0.118645 0.0336181 0.660832
1184 4 0.0955639 0.0160128 0.682178
1203 4 0.0974307 0.0206292 0.663365
88 3 0.337525 0.00316081 0.713867
950 4 0.382709 0.044475 0.72394
949 2 0.369104 0.0235282 0.722796
1003 2 0.380325 0.0781965 0.711747
1005 4 0.388125 0.0625093 0.729586
951 4 0.355499 0.00258125 0.721651
45 3 0.37548 0.0884903 0.66214
1145 4 0.414889 0.0231396 0.72955
1144 2 0.439232 0.0282702 0.727046
2264 4 0.477643 0.0418774 0.713147
1146 4 0.463575 0.0334007 0.724542
2263 2 0.485376 0.0633167 0.702864
1226 4 0.0711328 0.0870999 0.707506
1225 2 0.0556845 0.0889724 0.687936
3296 4 0.00812292 0.131079 0.755196
1130 4 0.136125 0.127942 0.717836
1129 2 0.143469 0.15065 0.710379
976 2 0.325418 0.172866 0.731148
1142 4 0.318302 0.128905 0.711321
977 4 0.328632 0.153883 0.747102
1004 4 0.372525 0.0938838 0.693907
1141 2 0.339712 0.119383 0.702594
1143 4 0.361121 0.109862 0.693866
981 4 0.348029 0.146949 0.745294
2265 4 0.493109 0.0847559 0.692581
906 4 0.503954 0.100588 0.698619
904 2 0.49695 0.11721 0.715935
1153 2 0.117798 0.25439 0.678619
1259 4 0.0864762 0.248437 0.719487
2990 4 0.133356 0.236762 0.70368
2989 2 0.141026 0.213509 0.708742
1131 4 0.150812 0.173358 0.702922
2991 4 0.148697 0.190256 0.713805
1258 2 0.0939911 0.242867 0.742675
1154 4 0.136521 0.238937 0.684605
2132 4 0.181812 0.189486 0.661877
1244 4 0.197604 0.187661 0.674015
1245 4 0.240034 0.208752 0.690001
1243 2 0.218819 0.198207 0.682008
978 4 0.322205 0.191848 0.715195
1212 4 0.313141 0.190403 0.696679
1210 2 0.322093 0.213748 0.696379
1211 4 0.331044 0.237092 0.696078
1097 4 0.348347 0.245806 0.69347
1194 4 0.405185 0.215384 0.668173
2986 2 0.395773 0.233113 0.747766
1025 4 0.413131 0.234511 0.66705
1024 2 0.437854 0.235505 0.66345
2358 4 0.0629291 0.302512 0.695268
2356 2 0.0386779 0.296707 0.693434
2357 4 0.0144267 0.290903 0.6916
1209 4 0.16425 0.289204 0.704141
1207 2 0.183119 0.275115 0.695736
946 2 0.236457 0.256076 0.691073
948 4 0.215053 0.2486 0.680531
947 4 0.257861 0.263552 0.701616
1029 4 0.270428 0.269066 0.685491
1027 2 0.283241 0.278979 0.704536
1028 4 0.296054 0.288891 0.723582
908 4 0.309745 0.285353 0.737029
1098 4 0.332974 0.293048 0.699172
2987 4 0.409953 0.252502 0.740823
1096 2 0.340661 0.269427 0.696321
1064 4 0.408068 0.265168 0.725823
1063 2 0.430371 0.276383 0.724414
1065 4 0.452674 0.287598 0.723005
3191 4 0.467044 0.293216 0.735961
3190 2 0.470635 0.308057 0.75576
1161 4 0.131598 0.403715 0.678387
1159 2 0.150951 0.413224 0.691044
877 2 0.234312 0.378491 0.664403
879 4 0.233805 0.397075 0.681123
1188 4 0.233924 0.409699 0.696522
1186 2 0.211081 0.414803 0.705316
1160 4 0.170304 0.422733 0.703701
1951 2 0.322254 0.378038 0.682302
1953 4 0.319733 0.378693 0.70717
1139 4 0.328616 0.418428 0.732654
1952 4 0.324776 0.377382 0.657435
1292 4 0.336267 0.401301 0.724926
1291 2 0.348631 0.382955 0.736575
1293 4 0.360996 0.364609 0.748225
4175 4 0.0291574 0.463871 0.690716
4174 2 0.0334752 0.467442 0.715084
4176 4 0.037793 0.471012 0.739452
2138 4 0.0193504 0.462625 0.674549
2171 4 0.121993 0.416375 0.667542
1187 4 0.188238 0.419907 0.71411
1316 4 0.167558 0.474309 0.737639
889 2 0.237211 0.479483 0.700523
890 4 0.215789 0.466909 0.69767
1317 4 0.195543 0.469621 0.696462
1315 2 0.181551 0.471965 0.71705
1910 4 0.273306 0.490122 0.717214
1909 2 0.296051 0.479902 0.715373
1911 4 0.318796 0.469682 0.713532
891 4 0.258633 0.492058 0.703376
3024 4 0.496144 0.486274 0.675603
3023 4 0.463776 0.480249 0.713242