LAMMPS data file via write_data, version 19 Nov 2024, timestep = 100001, units = lj

32 atoms
4 atom types
22 bonds
1 bond types
15 angles
2 angle types

-2.068243 2.068243 xlo xhi
-2.068243 2.068243 ylo yhi
-2.068243 2.068243 zlo zhi
0 0 0 xy xz yz

Masses

1 1
2 1
3 0.1
4 0.1

Bond Coeffs # harmonic/omp

1 100 0.45

Angle Coeffs # harmonic/omp

1 100 180
2 100 109.471

Atoms # full

14 4 4 0 -1.363652998166651 0.9449154480651836 -0.18324482718301627 1 0 0
7 2 4 0 -1.0072004879607368 0.8804069968140427 -0.4652811130221446 0 0 0
6 2 2 0 -0.45252206162077147 0.7250666936325012 -0.3617963545016474 0 0 0
12 4 2 0 -1.8634344410578536 1.0660195083627544 -0.3838764808015094 1 0 0
26 8 4 0 -0.021054531762785267 2.0659434462545567 1.9016260191017205 0 -1 0
21 7 2 0 0.5846288889107814 -2.0469575895319028 -1.6807865549667216 0 0 0
22 7 4 0 0.9132370677932435 -1.9968678181114432 -1.4505503693224249 0 0 0
31 10 4 0 1.8844382786046436 -2.0567533667267757 -0.3222582879264413 0 1 0
19 6 4 0 1.811961379740357 -0.211552910251386 -0.5911222379510408 0 0 0
32 10 4 0 1.258272542282434 -1.7327776701724882 0.40362741445771544 0 1 0
30 10 2 0 1.5809346634503587 -1.8983228891826094 0.030080721111679587 0 1 0
28 9 4 0 1.2794876299632811 -2.043665440857971 0.5275577823520479 0 1 -1
23 7 4 0 0.24654520946509928 2.0330865830162788 -1.9168543748227918 0 -1 0
10 3 4 0 1.445026020327692 2.0220873146550113 -1.4778702232036276 0 -1 0
9 3 2 0 1.7137442992704068 2.0079333161536823 -1.0996864584825459 0 -1 0
8 2 4 0 0.11141079471750492 0.5624877579383702 -0.24112272680241564 0 0 0
16 5 4 0 0.25290065684495255 0.7231604372243963 -0.05087941952485542 0 0 1
18 6 2 0 1.7375548743348768 0.12920906570099033 -0.7496655337451537 0 0 0
15 5 2 0 0.4047443511549429 0.9559445364170029 -0.030760245095563743 0 0 1
4 1 3 0 1.5639529160273722 0.7778715695837919 -0.7710298467246699 0 0 1
20 6 4 0 1.6487337111060305 0.4744191865860592 -0.8993180263319132 0 0 0
2 1 3 0 0.6960102976186677 1.238037840247217 -0.34852225144759563 0 0 1
5 1 3 0 0.6925059666450184 1.43120875612671 -1.0175920987776597 0 0 1
3 1 3 0 1.2238656903645513 1.4093131466904811 -0.49311919983380825 0 0 1
1 1 1 0 1.0436625226784262 1.2134405896589184 -0.6616130599391847 0 0 1
13 4 4 0 1.7539421346444093 1.2036706656483336 -0.5838870177130606 0 0 0
11 3 4 0 1.984957167922861 1.9836733500913715 -0.707074683999871 0 -1 0
17 5 4 0 0.5754492360062375 1.1879875673987774 -0.00046787836563577656 0 0 1
24 8 2 0 0.15771484881925346 1.9828758198261278 1.4543799970330893 0 -1 0
27 9 2 0 1.0409164820719248 1.9414589859135791 0.6819648469443331 0 0 -1
29 9 4 0 0.8030054194571901 1.779357581193434 0.8459937941562896 0 0 -1
25 8 4 0 0.34195248661526767 1.8892609031971537 1.0048669521362368 0 -1 0

Velocities

14 -0.2000348430414521 -0.22730363704689321 0.49255263536719496
7 0.054881834829920415 -0.23331359655070272 0.19748240867304515
6 -0.21044038197173934 -0.316650806060284 -0.16260312453452513
12 0.3155811154112283 0.25030021022499926 -0.49061341248131096
26 0.1014051465547178 -0.5346625392547633 -0.8944025131203847
21 0.11886381779800977 -0.033225968115845814 0.31382742635821276
22 0.24836954517569923 -0.5517740856065219 0.12546146177636436
31 -0.054515273766125645 0.3694512403110629 0.1423465617044938
19 -0.37031350563457266 -0.8083700100156525 -0.29081287435251424
32 0.7281739102659798 -0.7100781639507946 -0.1476273325688731
30 0.031149630346748287 0.12035490164422732 -0.3684389505946205
28 0.5124097045138271 0.6931264588159234 -0.12900470746306977
23 -0.16027667649827146 -0.6030689793384716 2.111880452439268
10 -0.4828034686607256 -0.12834817785874464 -0.6715929514203112
9 0.31122810208938195 -0.003590054631792876 0.00683819532961236
8 0.33314639156196696 -0.09092658689672357 -1.4960734675359597
16 -0.48134539911913155 -0.07580169604224309 -0.7559143170361264
18 0.15076881986520643 0.02054660769827624 0.11085736227677356
15 -0.08351033729735252 -0.16488221404776604 0.35079746287617386
4 -0.9614126375364571 0.29379799520999766 0.8604767649759206
20 1.103556152558532 0.20640049789368178 -0.5224480265468123
2 0.16419013136022162 0.5219993250360608 0.8144448570518261
5 -0.14665130929527204 -0.9263209411088386 0.8324530559127172
3 0.5017518770160029 -0.20357147405514045 -0.34392656958074036
1 -0.36990459556623184 0.12299553303088218 0.20810009330326182
13 -0.808413449919274 -0.1979563198437354 0.9962438509317197
11 0.6475387708531198 -1.4348614250190865 1.1629792468410747
17 0.439325372373765 -0.4953994935095508 -1.1149278886450804
24 -0.030460114693792284 0.45775489594197744 -0.1529524516998867
27 -0.08747399271843538 0.017830366631555128 0.12170510190454228
29 0.7807710424412667 0.5930185697975163 -0.8600004699072896
25 -0.21767757449057906 -0.17037168412866016 0.1152327951211993

Bonds

1 1 6 7
2 1 6 8
3 1 12 13
4 1 12 14
5 1 21 22
6 1 21 23
7 1 30 31
8 1 30 32
9 1 9 10
10 1 9 11
11 1 18 19
12 1 18 20
13 1 15 16
14 1 15 17
15 1 1 2
16 1 1 3
17 1 1 4
18 1 1 5
19 1 24 25
20 1 24 26
21 1 27 28
22 1 27 29

Angles

1 1 7 6 8
2 1 13 12 14
3 1 22 21 23
4 1 31 30 32
5 1 10 9 11
6 1 19 18 20
7 1 16 15 17
8 2 2 1 3
9 2 2 1 4
10 2 2 1 5
11 2 3 1 4
12 2 3 1 5
13 2 4 1 5
14 1 25 24 26
15 1 28 27 29
