LAMMPS data file via write_data, version 19 Nov 2024, timestep = 1000000, units = lj

79 atoms
4 atom types
54 bonds
1 bond types
35 angles
2 angle types

-3.045986 3.045986 xlo xhi
-3.045986 3.045986 ylo yhi
-3.045986 3.045986 zlo zhi

Masses

1 1
2 1
3 0.1
4 0.1

Bond Coeffs # harmonic/omp

1 100 0.45

Angle Coeffs # harmonic/omp

1 100 180
2 100 109.471

Atoms # full

19 5 4 0 -2.727123468239999 -0.21264678932024744 -0.3705391685294645 1 0 0
53 17 2 0 -1.7599640757286328 -0.060860343604748936 -1.6591654264560527 1 0 1
17 5 2 0 -2.494590565579004 -0.0639745899866723 -0.7310595444318059 1 0 0
55 17 4 0 -1.3404591966732844 -0.15445692922337553 -1.8218898248234674 1 0 1
28 8 4 0 -0.9494439697340733 -0.028229710013152765 -1.7438567600789232 0 0 1
51 16 4 0 -0.2639592403534922 -0.0696667649328276 -0.14486275751088404 0 -1 1
11 3 2 0 -2.821849347004048 -2.1052759864348545 2.275687554243288 0 0 0
13 3 4 0 -2.685164037867892 -1.718263876190825 2.057708651562144 0 0 0
46 14 4 0 -2.2932455124858513 -1.683263271035992 2.1272369566477347 0 -1 0
66 21 4 0 -0.4238722516460112 -1.6898254574151002 2.5550077066325576 0 0 0
12 3 4 0 -2.9533850567046738 -2.486324981539184 2.478202091065243 0 0 0
44 14 2 0 -1.8954218078376122 -1.457798766058313 2.1597059633423212 0 -1 0
45 14 4 0 -1.507889910705648 -1.2310129279099211 2.1947692907581966 0 -1 0
48 15 4 0 -0.08916893376255415 -1.911879869702781 2.538534485935025 0 0 0
65 21 2 0 -0.7927914852080914 -1.5841394577551937 2.3408429246693196 0 0 0
67 21 4 0 -1.1870400016758524 -1.4689540608886855 2.125903436198414 0 0 0
71 23 2 0 -3.0233417662069404 -0.37322247685977816 0.22902933639682935 1 0 0
72 23 4 0 -2.7518607836410074 -0.10464914765609307 0.0016744888929985443 1 0 0
18 5 4 0 -2.26351651270577 0.07763511271332273 -1.0881283746927295 1 0 0
54 17 4 0 -2.1970359898340823 0.02281182666378749 -1.4850519715064303 1 0 1
27 8 4 0 -0.25125846724035966 0.1758305900246987 -2.2189246509898286 0 0 1
26 8 2 0 -0.5971150014206106 0.07056107859051729 -1.9804585960771637 0 0 1
39 12 4 0 -2.8039404805182224 2.5478971419219487 2.4039545033876113 0 0 0
38 12 2 0 -2.966494055235445 2.9444978353787725 2.557138611600756 0 0 0
4 1 3 0 -2.8059260788795584 2.37178969603987 2.0333641351846667 0 0 0
2 1 3 0 -2.9697223141730893 1.8294149150421284 1.5315397886714162 0 0 0
37 11 4 0 2.126262493458759 -2.482246815900134 -0.6630682730003723 -1 1 1
16 4 4 0 2.371995361769606 -2.174080668032906 -0.7782873307266023 -1 1 1
14 4 2 0 2.328777174471491 -1.7558948160926864 -0.9041190566815522 -1 1 1
15 4 4 0 2.287598522127519 -1.3149907334225555 -1.031827232313345 -1 1 1
35 11 2 0 1.8124352911404402 -2.7747511315574345 -0.8485931658382625 -1 1 1
52 16 4 0 0.5883643453533552 -0.2437888497153774 -0.33773397828949303 0 -1 1
25 7 4 0 1.6405114923623334 -0.2967322848780271 -0.6569693367483397 -1 0 1
24 7 4 0 1.9973355589549013 -1.0907610834221155 -0.86294660922388 -1 0 1
23 7 2 0 1.8160991135796947 -0.6879326050746497 -0.7635608372667619 -1 0 1
50 16 2 0 0.16813135929937298 -0.16425799039983732 -0.2415743543380391 0 -1 1
78 25 4 0 1.7133533589592622 -2.794974135186377 2.3107029665209966 0 1 1
68 22 2 0 2.3877960289528155 -0.43983429482276126 1.0802295585273858 0 0 0
70 22 4 0 2.612073658748742 -0.7310400437029628 0.8100217390160851 0 0 0
73 23 4 0 2.782816495099839 -0.6527624741268829 0.4624300729247964 0 0 0
69 22 4 0 2.160888047370859 -0.13561737109571848 1.338730180742576 0 0 0
77 25 2 0 1.456330673331679 -2.4317252381539203 2.380032111242135 0 1 1
79 25 4 0 1.2012385477226275 -2.082287793789058 2.4460067217352286 0 1 1
49 15 4 0 0.7918484497252625 -2.1051436334794422 2.4639853208013824 0 0 0
47 15 2 0 0.34567109071309626 -2.0035620838311408 2.5067240141291878 0 0 0
40 12 4 0 2.972438478562904 -2.7632434395136096 2.6936499058476993 -1 1 0
22 6 4 0 0.9069097910740959 0.26951997348400636 -2.7478220735047105 0 0 1
58 18 4 0 1.0595059696781455 0.6442379696383272 -2.7092991098659356 0 0 1
56 18 2 0 1.4056995507119083 0.8601652413382999 -2.886356946075713 0 0 1
20 6 2 0 0.5372608480673514 0.21625045898421658 -2.4729781986233577 0 0 1
21 6 4 0 0.1609205912732731 0.1557680977870588 -2.207633761333779 0 0 1
36 11 4 0 1.516806602245956 3.030094263042827 -1.0288418961702783 -1 0 1
32 10 2 0 1.4059378134678433 1.1686327674864765 -1.218662520267345 0 0 0
33 10 4 0 1.294525800765661 0.8148436279418262 -0.9823799357939706 0 0 0
7 2 3 0 0.8845500819949463 0.026720796162250832 -0.36111597704774573 0 0 1
9 2 3 0 1.0434638081753789 0.6135275526638544 -0.7487620725169053 0 0 1
34 10 4 0 1.5179439852300871 1.522287871663444 -1.4527074947918837 0 0 0
8 2 3 0 1.5332820506139535 0.08061722042143286 -0.7030416478723088 0 0 1
76 24 4 0 1.5882625165394508 0.8812563887271974 -0.08674763761945933 0 0 1
6 2 1 0 1.2140226473070344 0.31021707138845966 -0.4823664622997174 0 0 1
10 2 3 0 1.4022187025223125 0.5143656943391293 -0.09412149767032782 0 0 1
42 13 4 0 1.4529153076987862 1.79694296753051 -1.1344012354517132 0 0 1
43 13 4 0 1.3045588496345308 2.6946263369473957 -0.9541938776478137 0 0 1
41 13 2 0 1.3803724146836225 2.2389335257847476 -1.0446949063152124 0 0 1
3 1 3 0 2.9776640595242463 1.7394019223615313 2.2423539627519666 -1 0 0
75 24 4 0 2.276717464695557 1.3787433463689092 0.24742322841952266 0 0 1
62 20 2 0 2.585820135291448 1.5833090713453162 0.935134889936749 0 0 0
74 24 2 0 1.9409666611304048 1.1342352739718247 0.08594718038225084 0 0 1
63 20 4 0 2.873427728701675 1.7919244722406984 1.1925847692030482 0 0 0
64 20 4 0 2.275821891232554 1.3623491616329824 0.6561310732905198 0 0 0
59 19 2 0 2.4843872019908777 1.4361331171251839 2.7730000027101127 0 0 0
60 19 4 0 2.8633200449602807 1.5593086045625966 2.6000077545580487 0 0 0
29 9 2 0 2.0965238834991777 2.720131107720796 2.2939820789419123 -1 0 0
31 9 4 0 2.368808483886903 2.4831575209975334 2.068051842757968 -1 0 0
5 1 3 0 2.5702093768248235 2.2087567394108887 1.861781158872822 -1 0 0
1 1 1 0 2.989153847969898 2.0377544238838414 1.9237397712712507 -1 0 0
30 9 4 0 1.818021537522774 2.9669148980416518 2.542340846929726 -1 0 0
57 18 4 0 1.774325052909426 1.0866282650225445 3.0289987090668906 0 0 0
61 19 4 0 2.084345007539738 1.30959514757142 2.9557984772088846 0 0 0

Velocities

19 -0.14369325650262307 -0.4662225487973816 0.4555500826365396
53 0.06285519379860682 -0.11162672503258507 -0.16585012640276212
17 -0.19193881388144876 -0.0031529080430695903 0.04375631343528702
55 0.14661253459233636 -1.2163319758077114 -0.5616337058858099
28 0.9308206950771734 0.87804663209802 0.2015611901574598
51 -0.17278726780520548 -0.42680066986742127 -0.049245297609590906
11 0.0004519063982729235 -0.0620289864249772 -0.27957510529820184
13 0.06751004943995018 -0.4833052277535313 -0.36125638224484646
46 -0.09985396202627594 -0.12524007338575444 -0.599984439406863
66 0.302045142365335 0.5182149040213493 1.4179927614180465
12 0.3269574479646021 0.302047272123748 0.09849525670988661
44 0.1017213653718785 0.3008068107687189 -0.25838076940445454
45 0.19438489463957562 0.07222499314240854 -1.51526541959283
48 0.37332825957868626 1.3635425052049461 -0.6032935985262492
65 -0.00017152575765088827 0.4345528624556424 0.055380123099075564
67 -0.7331934105956199 0.5789293060243773 0.7073630108700871
71 0.0012297666607467422 -0.33054747112514893 -0.14434413030184498
72 0.06242520267800396 0.6895442411368418 0.610135499340221
18 0.06544509991023272 0.7954862940671793 0.837363327321175
54 -0.4574075052114862 -0.24682313556199698 -0.2675765932412634
27 -0.04987352359771558 -0.24191540075755438 -0.6616718734718255
26 0.22637291882424207 0.198316754107406 -0.1110570711922464
39 -0.36524957964241717 -0.04990337937874175 -0.4254453692796364
38 -0.17543022337581818 0.06977297607110788 0.1994343570938021
4 -0.6655281205501363 0.26423613260678575 1.0069096610483468
2 0.24656368237066806 -0.03628664578706789 -0.09493449577807118
37 -0.3442357069145981 0.733965353333867 -0.6240558538582759
16 -0.680116179018552 -0.454531668424592 -0.25659856708980894
14 0.09088387822603676 0.02956455072982416 -0.0051534601848520515
15 0.16848939627036089 0.7124791456940472 -0.19111387379027905
35 -0.16531242477729952 -0.010253697347667557 -0.06911207633092244
52 1.0288308028645272 0.4323090823620636 0.32982259896591126
25 0.3755766173759176 -0.8494573954170951 0.059711786346402035
24 -0.24119666998950326 -0.3357071554726596 -0.14139742870609368
23 -0.15180917386294504 0.06476914607023836 -0.14027481742216755
50 -0.21627000846769473 0.027830857831259638 -0.118037735150294
78 -0.524848415390391 -0.1656872142085254 -0.08657057175157419
68 0.08768015767578827 -0.2580224997190706 -0.16200701125592537
70 -0.4962500178431803 -0.050571317835773 1.3647044184233588
73 1.4213373179642192 0.6282530836523237 -0.8136284921746748
69 -0.4337793671180973 1.051839784091074 -0.06287437692193092
77 -0.23659334815163374 -0.07734910719081779 -0.16230120491684988
79 -0.4392518121583871 0.03443547733346831 -0.07198207199802835
49 1.0638523742284858 0.22557040216076618 -0.3763827687004506
47 0.22678066833993732 0.07185142424520898 -0.2773610788553673
40 -0.522392326624014 -0.7023195677062499 -0.1733473662022811
22 1.034697888884005 0.6236318228688613 -0.7313034960177793
58 0.35826585294046137 -0.7254976721480556 -0.19865132360740542
56 -0.04875049954555168 0.17827824822613797 -0.23106462098986846
20 0.4851052074664614 0.4285802009530445 0.051967303450424024
21 -0.2310689808031573 -0.4182717911304396 -0.0717021027766771
36 0.24601679624734665 -0.4088565478276161 -0.9400723298927258
32 -0.10413359348755692 0.39806366309348995 0.33449433553337987
33 -0.5442779624811867 0.7948988158736224 -1.312328634087101
7 -0.6460870011954043 -0.17599151629032653 0.09623812694089064
9 -0.9700356734316664 0.5027269533470218 -0.7262963790431819
34 -0.40494532375403003 -0.7807778754683149 -0.04349593407324139
8 -0.5080580909171233 0.514009811154049 0.1964309102604044
76 -0.33471478034889024 0.3621106494909099 0.22877110847834656
6 -0.14330792262018915 -0.15213787418898045 0.10124306020645336
10 0.4798418803775085 -0.4389723998195339 0.4479120142870621
42 0.03448525996259801 -1.3340818460806692 -0.21809200218710573
43 -0.64092192461215 1.1608977140238503 -0.5571628025791235
41 -0.21082272974754357 0.03935389047972325 -0.04811815825837654
3 0.8843609332084063 -0.03809972164159876 0.03345147009841073
75 0.2288019560727793 0.8118661062129253 0.39426700960406497
62 0.32891611030587004 0.07900168831114641 0.14477400528622
74 -0.02600783656085215 0.34507141986967343 -0.14546340373438102
63 -1.0406320047316764 1.2529865539074252 0.8052852460924365
64 -0.7225529703859561 -0.44458868117052164 -0.36352400998723355
59 0.3244636948420887 -0.047550380263441785 -0.15787838940689705
60 -0.43489694859027794 1.089452637192918 0.011606146005778285
29 -0.22020916915526934 -0.06867184283056314 -0.2024119795731138
31 -0.02120520586496919 0.38231258863182377 0.34824470324075424
5 -0.3127758682060173 -0.7423457503773485 -0.7686530294232227
1 0.13606350697569197 0.15045136325060057 -0.1801673486121532
30 1.7290346061395547 -0.23936520296376584 0.6897221029135584
57 0.4962806516789229 0.34560651503162615 0.9007650856242065
61 0.9766932439539568 1.1939170742175151 1.1801656381279275

Bonds

1 1 53 54
2 1 53 55
3 1 17 18
4 1 17 19
5 1 11 12
6 1 11 13
7 1 44 45
8 1 44 46
9 1 65 66
10 1 65 67
11 1 71 72
12 1 71 73
13 1 26 27
14 1 26 28
15 1 38 39
16 1 38 40
17 1 14 15
18 1 14 16
19 1 35 36
20 1 35 37
21 1 23 24
22 1 23 25
23 1 50 51
24 1 50 52
25 1 68 69
26 1 68 70
27 1 77 78
28 1 77 79
29 1 47 48
30 1 47 49
31 1 56 57
32 1 56 58
33 1 20 21
34 1 20 22
35 1 32 33
36 1 32 34
37 1 6 7
38 1 6 8
39 1 6 9
40 1 6 10
41 1 41 42
42 1 41 43
43 1 62 63
44 1 62 64
45 1 74 75
46 1 74 76
47 1 59 60
48 1 59 61
49 1 29 30
50 1 29 31
51 1 1 2
52 1 1 3
53 1 1 4
54 1 1 5

Angles

1 1 54 53 55
2 1 18 17 19
3 1 12 11 13
4 1 45 44 46
5 1 66 65 67
6 1 72 71 73
7 1 27 26 28
8 1 39 38 40
9 1 15 14 16
10 1 36 35 37
11 1 24 23 25
12 1 51 50 52
13 1 69 68 70
14 1 78 77 79
15 1 48 47 49
16 1 57 56 58
17 1 21 20 22
18 1 33 32 34
19 2 7 6 8
20 2 7 6 9
21 2 7 6 10
22 2 8 6 9
23 2 8 6 10
24 2 9 6 10
25 1 42 41 43
26 1 63 62 64
27 1 75 74 76
28 1 60 59 61
29 1 30 29 31
30 2 2 1 3
31 2 2 1 4
32 2 2 1 5
33 2 3 1 4
34 2 3 1 5
35 2 4 1 5
