LAMMPS data file via write_data, version 27 Jun 2024, timestep = 1500000, units = lj

6800 atoms
4 atom types
4800 bonds
1 bond types

-10.69 10.69 xlo xhi
-10.69 10.69 ylo yhi
-10.69 10.69 zlo zhi

Masses

1 1
2 1
3 0.5
4 0.5

Bond Coeffs # zero

1 0

Atoms # bond

3518 906 4 -9.629516874992515 -9.624837565607288 -9.70242768496171 0 1 0
4921 1374 4 -9.982492675457143 -9.79511590848202 -9.602335410924745 1 0 0
3516 906 2 -9.136375616030946 -9.553966160901986 -9.744723579620405 0 1 0
4920 1374 2 -10.277960344685846 -10.13374075891092 -9.821497604545499 1 0 0
5334 1512 2 -2.2739876130046577 -4.7759992818132435 -10.687815888404579 0 0 1
3517 906 4 -8.643234357069378 -9.483094756196683 -9.7870194742791 0 1 0
760 152 3 -8.293355807565856 -9.664487284700716 -9.77752452966636 0 1 0
756 152 1 -7.8799399511857535 -9.812151723789496 -9.89869607385956 0 1 0
758 152 3 -7.9191476644929555 -10.165998523314544 -10.196278327502423 0 1 0
759 152 3 -7.643445651516373 -9.946723439960556 -9.522849164293005 0 1 0
757 152 3 -7.650954912473475 -9.469988134388872 -10.103854378918074 0 1 0
4628 1276 4 -7.5860618039203835 -10.045859889019733 -9.130881910916157 1 0 0
3749 983 4 -7.635345386278484 -10.452483016025615 -10.244842727124503 0 1 0
2270 490 4 -7.3681357281400786 -9.578148041375893 -10.38278429518523 0 0 0
2758 653 4 -3.6522877686073487 -9.76964763931155 -9.683017561284366 0 0 1
2757 653 2 -3.5730819871023134 -10.084055785377625 -9.302394438151152 0 0 1
159 32 3 -3.4660036867759683 -9.430035779615087 -9.612934081848087 0 0 0
3172 791 4 -9.29468805825205 -7.599483117984148 -10.4170725991291 0 1 0
3256 819 4 -9.054643200410645 -7.8521255985164515 -10.235947989308992 0 1 0
3059 753 4 -7.337438290533383 -7.966487554166266 -9.535977273611918 0 0 1
63 13 3 -7.028757408040413 -7.7734151574526695 -9.368568624422187 0 0 0
3058 753 4 -8.335873730205309 -8.018944842290031 -9.516614791071783 0 0 1
3057 753 2 -7.836656010369346 -7.992716198228148 -9.52629603234185 0 0 1
62 13 3 -6.5668324048551465 -7.211716978433842 -9.178778089571502 0 0 0
5753 1651 4 -4.977897638550046 -7.646609463583152 -8.752155742603655 0 1 0
156 32 1 -3.598020571104015 -9.046743723634496 -9.838674512596105 0 0 0
6126 1776 2 -4.572404414726263 -8.902123140354847 -10.533703006726881 0 1 0
157 32 3 -3.857793093143728 -9.168057402785298 -10.198398334498188 0 0 0
6128 1776 4 -4.12513104160113 -8.875374057393172 -10.31182237157823 0 1 0
158 32 3 -3.848435231121424 -8.775613201635604 -9.557461536208478 0 0 0
160 32 3 -3.232038743885142 -8.820253017824287 -9.98753438740107 0 0 0
3173 791 4 -9.914275397490684 -7.172301848932497 -9.758568466699206 0 1 0
3171 791 2 -9.604481727871367 -7.385892483458322 -10.087820532914153 0 1 0
3656 952 4 -10.141468898351945 -7.181930464216764 -9.43262800297092 0 1 0
64 13 3 -7.045737658060435 -7.482456752514044 -8.666674844919545 0 0 0
2255 485 4 -7.288209594806502 -6.671021796017002 -9.320376006178819 0 0 0
65 13 3 -7.2979058874606775 -7.080133802852505 -9.251009875750714 0 0 0
2253 485 2 -7.197409915302155 -6.20309144665046 -9.471361456946855 0 0 0
61 13 1 -6.988100371555539 -7.385769680054682 -9.116818769929612 0 0 0
6607 1936 4 -3.9385440139151844 -6.937897475602706 -9.908116101134956 0 1 1
6606 1936 2 -3.9758968555406233 -6.790185549277218 -10.38433658793033 0 1 1
4890 1364 2 -8.322203856710574 -4.755417331370519 -9.471077648282114 1 0 0
4891 1364 4 -7.893215762539965 -4.989152964225779 -9.36460291422011 1 0 0
4892 1364 4 -8.751191950881184 -4.521681698515259 -9.577552382344116 1 0 0
2348 516 4 -9.068634754547324 -4.699275409187699 -9.459687641202564 0 0 0
2254 485 4 -7.106610235797809 -5.735161097283918 -9.622346907714892 0 0 0
224 45 3 -7.56178322472885 -4.91484076413515 -9.56748894077998 0 0 0
2069 423 4 -6.865143385261691 -4.41468113687527 -10.053247106308914 0 0 0
225 45 3 -7.20627444944468 -5.483050487635108 -9.910492178104642 0 0 0
221 45 1 -7.158019808306547 -5.06279489839534 -9.741800953314927 0 0 0
223 45 3 -6.832648873774731 -5.061377920401261 -9.410996256953261 0 0 0
222 45 3 -7.028415847874258 -4.778107076558239 -10.079077779583194 0 0 0
2067 423 2 -7.0323721674485 -4.116902136591566 -10.418435005065596 0 0 0
29 6 3 -4.7276455280680505 -4.431903724298611 -9.523790234336717 0 0 0
2396 532 4 -4.889804530172511 -4.050733411856301 -9.555681609519338 0 0 0
30 6 3 -3.994671021076878 -4.601932984429833 -9.496616298287467 0 0 0
5335 1512 4 -1.9010413469281542 -4.609422466759004 -10.399435501925108 0 0 1
608 122 3 -10.61988392205209 -5.0115918870750145 -3.9665343580529964 0 0 0
463 93 3 -1.5653287386083934 -4.774970132509365 -10.251083477528374 0 0 1
154 31 3 -1.958599004752426 -5.9894950631822175 -9.234496745285833 0 0 0
2491 564 4 -10.635098708742255 -3.9169281955859856 -10.437468030927523 0 0 0
4172 1124 4 -1.1786671260865877 -0.3792877670561895 -0.17885585385334835 0 0 0
2842 681 4 -4.703035883506281 -8.69911395026163 -0.44143933167808735 0 0 0
4546 1249 4 -0.01824791134178866 -3.1584556823509877 -4.190114538717708 0 0 0
2685 629 2 -6.0625864286050515 -3.2325799188521227 -9.59886693300231 0 0 1
2687 629 4 -6.161469078962547 -2.7768800837678507 -9.418423363534774 0 0 1
2686 629 4 -5.963703778247556 -3.6882797539363947 -9.779310502469844 0 0 1
2395 532 4 -5.845231537508792 -4.061258618929946 -9.850721358822254 0 0 0
2394 532 2 -5.367518033840652 -4.055996015393124 -9.703201484170796 0 0 0
3457 886 4 -3.7882043115745088 -4.492200380662685 -9.81161202052468 0 0 0
3456 886 2 -3.45582906734378 -4.11944204196229 -9.78757209640559 0 0 0
5504 1568 4 -1.3885334894814396 -5.099727795001768 -9.209363597005567 0 0 1
3458 886 4 -3.123453823113051 -3.746683703261895 -9.7635321722865 0 0 0
462 93 3 -1.8422609536045567 -4.273770905119845 -9.764248923740448 0 0 1
4393 1198 4 -2.8095670177904575 -3.533616774563152 -9.586055619614184 0 0 1
465 93 3 -1.5697654074723217 -4.921373255427453 -9.512540018028767 0 0 1
2953 718 4 -0.8159453168000957 -4.5905614108705715 -10.043252349970299 0 0 1
461 93 1 -1.5187750976554981 -4.594936417784021 -9.825970998205097 0 0 1
464 93 3 -1.1011386426632122 -4.397493496943833 -9.78242694612295 0 0 1
6379 1860 4 -1.6957331659025785 -3.8896762530858604 -9.800733943140928 0 0 1
6378 1860 2 -1.6631451635019092 -3.6125083543906666 -9.385865315702882 0 0 1
2952 718 2 -0.3683629628804355 -4.479949048973187 -10.236733464953895 0 0 1
4882 1361 4 -9.941632178125232 -2.1563549531345347 -10.210666280782478 1 0 0
5690 1630 4 -10.169140577715966 -2.482086254888171 -10.095858359243655 1 0 0
4881 1361 2 -9.468091684395437 -2.014557614717937 -10.135480407001616 1 0 0
4883 1361 4 -8.994551190665643 -1.8727602763013393 -10.060294533220754 1 0 0
3371 857 4 -8.929389595474634 -1.9778861602475175 -9.677905303409466 0 0 0
5183 1461 4 -5.5477368002764385 -2.1303194821977325 -10.194426965035097 1 0 1
2083 428 4 -5.638527068161551 -2.2818700265888388 -9.828448745975566 0 0 0
2082 428 2 -5.177127222458924 -2.147102654549495 -9.690797237377149 0 0 0
5181 1461 2 -5.685192167405326 -2.040376653936782 -10.666672991690595 1 0 1
2459 553 4 -4.647074733682822 -2.2860102289590345 -10.197702366817213 0 0 0
2457 553 2 -4.350134413601961 -1.9701727232362307 -10.446847136558116 0 0 0
2449 550 4 -10.23182860739943 -0.018302900996255644 -1.1399896306442763 0 0 0
5318 1506 4 -1.3725702745293853 -1.5693757263409633 -9.762422003621188 0 0 1
5316 1506 2 -1.221255740621135 -1.834088926945287 -9.366150842351734 0 0 1
5059 1420 4 -0.8368468424585151 -2.941000614241791 -9.473291302003881 0 0 1
524 105 3 -1.6826889356772687 -1.334816667865473 -10.538372434682246 0 0 0
4078 1093 4 -9.789969298964504 -0.011538174386511557 -10.331548465935173 0 0 1
522 105 3 -1.0423155308341958 -1.7164015252416218 -10.44237816927637 0 0 0
5058 1420 2 -0.33815777350546516 -2.934740065553113 -9.437653989577925 0 0 1
944 189 3 -9.6658639384652 -10.650900152756167 -1.17987685995186 0 1 0
114 23 3 -9.494656787606512 -0.2654267712621583 -10.39034246135183 0 -1 0
5688 1630 2 -10.586967801692452 -2.246000502977996 -10.236157784221303 1 0 0
6042 1748 2 -4.99979842934236 -10.35707853260921 -3.0778794759943 0 0 0
4266 1156 2 -8.53915228217062 -0.7988488096937975 -10.217720810170476 0 0 0
4268 1156 4 -8.189309884577913 -0.8435386774754755 -9.86330140809955 0 0 0
3327 843 2 -8.24942260551434 -0.35634794903553957 -9.22247016718989 0 0 0
3329 843 4 -8.035996741763398 -0.6393758640993037 -9.575095464037492 0 0 0
468 94 3 -4.568373282916995 -1.7299745918283977 -9.308180206628654 0 0 1
2084 428 4 -4.715727376756297 -2.012335282510151 -9.553145728778732 0 0 0
2476 559 4 -3.9291354402408896 -0.8302649465066771 -9.50543873842628 0 0 0
2475 559 2 -3.67646884527061 -0.7464728147112304 -9.928686266989969 0 0 0
2477 559 4 -3.42380225030033 -0.6626806829157836 -10.351933795553657 0 0 0
470 94 3 -4.101146050718325 -1.1442483474222156 -9.382500325749017 0 0 1
2227 476 4 -6.4020031509301685 -0.10380155360235016 -1.8266079069286445 0 0 0
4922 1374 4 -10.57342801391455 -10.47236560933982 -10.040659798166253 1 0 0
2561 587 4 -4.988883516387081 -0.29111463945488425 -0.6068782382139727 0 0 0
525 105 3 -1.2627205250852855 -1.2282937993234022 -9.922596978381566 0 0 0
521 105 1 -1.2508952699905143 -1.3128596171735452 -10.369932183561353 0 0 0
523 105 3 -1.0126284875408698 -0.9796055465604561 -10.587809820782022 0 0 0
6643 1948 4 -1.1015902543170994 -0.5999912175656235 -10.444579704696732 0 0 1
4626 1276 2 -7.384366588590898 -9.857248928373702 -8.714054673757703 1 0 0
6456 1886 2 -7.59792991850218 -9.97433888900977 -7.636260779190074 1 1 1
6457 1886 4 -7.904896333315213 -9.74456801690277 -7.315360535332235 1 1 1
4627 1276 4 -7.182671373261412 -9.66863796772767 -8.297227436599249 1 0 0
6365 1855 4 -6.86917506002229 -9.702861263783483 -8.017002241912817 0 1 1
6363 1855 2 -6.403500813876759 -9.523892596787636 -8.050434452587188 0 1 1
5606 1602 4 -7.1806171316556995 -10.564343334220345 -7.905266887465781 1 1 0
6458 1886 4 -7.290963503689147 -10.20410976111677 -7.957161023047914 1 1 1
2138 446 4 -5.439581308573331 -10.041994042572366 -7.548065714726802 0 0 1
6364 1855 4 -5.9378265677312285 -9.34492392979179 -8.08386666326156 0 1 1
2517 573 2 -5.2268262049541585 -9.688401313873335 -8.207730320535562 0 0 0
4445 1215 4 -4.50178612232858 -9.413272104070636 -8.101927141734393 0 0 0
2519 573 4 -5.714963213806515 -9.6321273115518 -8.300226251535594 0 0 0
2759 653 4 -3.493876205597278 -10.398463931443702 -8.92177131501794 0 0 1
6052 1751 4 -3.2336395331868526 -9.333794698812886 -7.815193952029219 0 1 0
6051 1751 2 -3.0146513613080566 -9.76811396620045 -7.6993882762048385 0 1 0
6053 1751 4 -2.7956631894292605 -10.202433233588016 -7.583582600380457 0 1 0
2198 466 4 -2.9891487468587883 -10.40713195265484 -7.853215318869909 0 0 0
3244 815 4 -6.746672910790794 -3.474797295116876 -0.2733978075292785 0 0 0
2518 573 4 -4.738689196101802 -9.74467531619487 -8.11523438953553 0 0 0
190 38 3 -6.161540512776925 -8.317960337932305 -7.455185645796492 0 0 0
186 38 1 -5.984446363764729 -7.912858102186298 -7.345961834384427 0 0 0
5751 1651 2 -5.324369006129065 -7.715344316861021 -8.39827283627358 0 1 0
188 38 3 -6.319164859152376 -7.591727416186779 -7.33418850201587 0 0 0
4444 1215 4 -3.560140902291945 -9.149786451336407 -7.8924525838870165 0 0 0
6083 1761 4 -3.7416433512274807 -8.494869979731728 -9.27696931739826 0 1 0
4443 1215 2 -4.0309635123102625 -9.281529277703521 -7.997189862810705 0 0 0
6081 1761 2 -3.5126157820195276 -8.05130902070781 -9.248684194586298 0 1 0
6082 1761 4 -3.283588212811575 -7.6077480616838935 -9.220399071774336 0 1 0
2300 500 4 -3.1592534577677944 -7.52086439179073 -9.575849600954335 0 0 0
3654 952 2 -10.113306195531134 -6.9877141666184155 -8.972750962973372 0 1 0
3655 952 4 -10.085143492710323 -6.793497869020068 -8.512873922975823 0 1 0
5360 1520 4 -9.944004889009456 -6.405909897655948 -8.531566494076994 1 0 1
5358 1520 2 -9.625437868574167 -6.299985468955265 -8.161033001804428 1 0 1
2363 521 4 -5.8424205499098285 -6.3692237538922285 -7.613361899739977 0 0 0
189 38 3 -5.660642699643985 -7.7928697730379195 -7.655887612548028 0 0 0
5752 1651 4 -5.670840373708084 -7.78407917013889 -8.044389929943506 0 1 0
2298 500 2 -3.0028092849423538 -7.063102130913955 -9.449441795395478 0 0 0
2299 500 4 -2.846365112116913 -6.605339870037181 -9.32303398983662 0 0 0
151 31 1 -2.2756543835634444 -6.149171524547366 -8.935700302112572 0 0 0
153 31 3 -2.6608980289717925 -6.2712158287769615 -9.16371898879787 0 0 0
155 31 3 -2.1091189522944096 -6.507402800892706 -8.709125142882552 0 0 0
5218 1473 4 -1.8109742012551622 -6.762436124387447 -8.750965298066362 0 0 0
4710 1304 2 -1.1726659367312355 -7.492471051022694 -7.101489160468182 0 0 0
22 5 3 -0.5921714745917555 -6.8105002877023315 -8.190371092896706 0 0 0
21 5 1 -0.3950368276881198 -6.937682830747594 -7.794691258011442 0 0 0
5217 1473 2 -1.366383873157238 -6.869281551783813 -8.548669735073593 0 0 0
5219 1473 4 -0.9217935450593138 -6.976126979180179 -8.346374172080825 0 0 0
4267 1156 4 -8.888994679763329 -0.7541589419121194 -10.572140212241402 0 0 0
25 5 3 -0.6742245186890055 -7.220332764762281 -7.5720632094748845 0 0 0
4711 1304 4 -0.9147616112071112 -7.097442471424898 -7.26713269392731 0 0 0
24 5 3 -0.31548616632596455 -6.559222774945962 -7.5382937571664 0 0 0
2471 557 4 -10.657875588999778 -10.016302427682476 -3.6127753387627077 0 0 0
1036 208 1 -10.592927563414746 -5.067209470050454 -7.8374249885143605 1 0 0
2346 516 2 -9.44600646642463 -4.576064664597728 -9.155697997477258 0 0 0
1038 208 3 -10.583596393374094 -4.837689142429589 -8.240579237499215 1 0 0
2347 516 4 -9.823378178301935 -4.452853920007756 -8.851708353751953 0 0 0
237 48 3 -7.138889818169091 -0.37293316805540955 -3.3467190242043774 0 0 0
3255 819 2 -8.865428056585175 -7.971076217473571 -10.683215671571922 0 1 0
4988 1396 4 -6.862640930023585 -5.033167710399655 -8.990618327765866 1 0 0
4986 1396 2 -6.469937863175118 -5.149585455746276 -8.7038584807576 1 0 0
4987 1396 4 -6.077234796326651 -5.266003201092897 -8.417098633749333 1 0 0
3053 751 4 -5.995893778181437 -4.911384827263981 -8.25842589528022 0 0 1
4979 1393 4 -4.753231324566835 -5.8243857238866275 -8.021941323840732 1 0 0
4977 1393 2 -4.693420316122246 -5.547673084178102 -8.434073290927113 1 0 0
4978 1393 4 -4.633609307677657 -5.270960444469577 -8.846205258013494 1 0 0
2362 521 4 -5.097831978890811 -5.941385779228948 -8.125750938795033 0 0 0
2361 521 2 -5.47012626440032 -6.1553047665605884 -7.8695564192675045 0 0 0
26 6 1 -4.381181897948034 -4.585890314980429 -9.25629989265257 0 0 0
28 6 3 -4.483214786208603 -5.007751960734937 -9.092220516878056 0 0 0
27 6 3 -4.327423898681585 -4.2975173806730576 -8.901967946204225 0 0 0
6602 1934 4 -3.511045415011546 -4.691875762680445 -8.195197236310893 0 0 1
4924 1375 4 -3.2250895379066042 -4.913396943604683 -8.059616485915305 0 0 0
5502 1568 2 -1.6927754522291716 -5.136991031376633 -8.814334130613194 0 0 1
5503 1568 4 -1.9970174149769038 -5.174254267751499 -8.419304664220821 0 0 1
152 31 3 -2.3793422407731963 -5.815518346850523 -8.63649404335428 0 0 0
4923 1375 2 -2.7616057544178734 -4.909647497359585 -8.247149747220288 0 0 0
4925 1375 4 -2.2981219709291425 -4.905898051114487 -8.43468300852527 0 0 0
2195 465 4 -2.026261442030817 -5.924154940102053 -8.423201883725023 0 0 0
2193 465 2 -1.7757654933238114 -5.943667826930787 -7.990916067476997 0 0 0
2194 465 4 -1.5252695446168056 -5.963180713759522 -7.558630251228971 0 0 0
1087 218 3 -9.67866201929126 -4.083476394815161 -8.741280855596841 1 0 0
1086 218 1 -9.604861395328047 -3.7503294355786134 -8.432790059212195 1 0 0
1088 218 3 -9.745593388774159 -3.3461165141116487 -8.61197270385105 1 0 0
6002 1734 4 -9.738853700173534 -2.95678510409845 -8.696050236527688 1 0 0
1089 218 3 -9.846362613981015 -3.845787750368315 -8.048258042955302 1 0 0
1090 218 3 -9.160212921879314 -3.7311002070689097 -8.33626041697426 1 0 0
4889 1363 4 -8.942952524477727 -3.466244166277268 -8.586250721971078 1 0 0
4887 1363 2 -8.641624859487534 -3.189222716402162 -8.299090915207659 1 0 0
6600 1934 2 -3.74386410919327 -4.259972187805576 -8.291398887283078 0 0 1
6300 1834 2 -3.803615345301281 -3.096152521619474 -8.254509689419095 0 0 1
6601 1934 4 -3.9766828033749935 -3.8280686129307067 -8.387600538255263 0 0 1
6302 1834 4 -4.130873747242348 -3.4522781437586803 -8.38130274764715 0 0 1
4392 1198 2 -2.764434125047337 -3.364810236643588 -9.117582168127212 0 0 1
6380 1860 4 -1.63055716110124 -3.335340455695473 -8.970996688264835 0 0 1
6001 1734 4 -10.282273681971857 -2.2359351083076 -8.265852599445422 1 0 0
6000 1734 2 -10.010563691072695 -2.596360106203025 -8.480951417986555 1 0 0
4888 1363 4 -8.34029719449734 -2.912201266527056 -8.011931108444239 1 0 0
1456 292 1 -7.925467296488231 -2.2066708822256786 -8.286779965456178 1 0 0
1459 292 3 -8.10681715919017 -2.6172605178799473 -8.16918583978936 1 0 0
1458 292 3 -7.952911229163298 -2.14709632451004 -8.746124827876967 1 0 0
3370 857 4 -8.307927101379972 -2.2304458601965402 -8.9362868257584 0 0 0
3369 857 2 -8.618658348427303 -2.1041660102220288 -9.307096064583932 0 0 0
1460 292 3 -8.147892101764706 -1.871622909303786 -8.073074416069385 1 0 0
1457 292 3 -7.482809894880384 -2.19837820172891 -8.161937439640546 1 0 0
4960 1387 4 -7.224883165598817 -2.3613448253115 -8.444168359693096 1 0 0
4961 1387 4 -6.4158912206246 -2.1255799457818503 -7.905701132698157 1 0 0
4959 1387 2 -6.820387193111708 -2.243462385546675 -8.174934746195627 1 0 0
740 148 3 -6.156558364686996 -1.8842858989862035 -7.630294521981711 0 0 0
4058 1086 4 -5.207904222507693 -1.3474187427143192 -7.757642889077259 0 0 0
4056 1086 2 -4.860034341066886 -1.4079337912989152 -8.111654858481321 0 0 0
737 148 3 -5.504613149738839 -1.608136401303732 -7.86632183318901 0 0 0
6301 1834 4 -3.4763569433602144 -2.7400268994802675 -8.12771663119104 0 0 1
330 66 3 -3.1891755920070906 -2.9865164790268697 -7.990582195615099 0 0 1
4057 1086 4 -4.512164459626078 -1.4684488398835112 -8.465666827885384 0 0 0
4394 1198 4 -2.7193012323042165 -3.196003698724024 -8.64910871664024 0 0 1
327 66 3 -2.528376771613097 -3.083571962828672 -8.323636473518587 0 0 1
326 66 1 -2.7462007742160717 -2.882475178464624 -7.971908187467515 0 0 1
329 66 3 -2.690020810216446 -2.4229797490924763 -8.003653455320714 0 0 1
2038 413 4 -2.5554340547501466 -2.0384001800499942 -7.967186221040183 0 0 0
2037 413 2 -2.3522669925881865 -1.5843847535242515 -7.916263364391599 0 0 0
328 66 3 -2.5638447290482445 -3.037259626113879 -7.574305310771899 0 0 1
5317 1506 4 -1.0699412067128848 -2.0988021275496105 -8.969879681082281 0 0 1
1725 345 3 -0.9304991113640277 -2.809527820697501 -9.08979551795456 0 0 1
1723 345 3 -1.5386809987913037 -3.0241125912087785 -8.701249294102274 0 0 1
1721 345 1 -1.1952811778250643 -2.7135702716615313 -8.73190921469111 0 0 1
1724 345 3 -1.3713542067816338 -2.286462226930221 -8.775233648903226 0 0 1
1722 345 3 -0.9431794369890762 -2.732210746105261 -8.347595221997738 0 0 1
4715 1305 4 -0.566421469829421 -2.7211623062419608 -8.251117369637567 0 0 0
2039 413 4 -2.149099930426227 -1.1303693269985082 -7.865340507743015 0 0 0
3328 843 4 -8.462848469265282 -0.07332003397177544 -8.869844870342288 0 0 0
4969 1390 4 -8.607476959229567 -0.13200494612796948 -8.513069935708808 1 0 0
6512 1904 4 -6.708845697255397 -0.12288265326133024 -8.024280013858982 1 0 0
6510 1904 2 -6.430703301077563 -0.5333021090171013 -7.9595291236271155 1 0 0
1365 273 3 -0.06259747512911273 -4.3196425598112995 -7.320701095591588 0 0 1
736 148 1 -5.935121731072644 -1.5027020654235648 -7.7432529004098685 0 0 0
739 148 3 -6.147134400093865 -1.2965713733186623 -8.100829138360302 0 0 0
6511 1904 4 -6.15256090489973 -0.9437215647728723 -7.8947782333952485 1 0 0
738 148 3 -5.9209371647639975 -1.2144330436269968 -7.379935175613764 0 0 0
467 94 3 -4.180952777548784 -1.4733869697015585 -8.717444949350234 0 0 1
466 94 1 -4.397198574627462 -1.3499679787199008 -9.10423366158338 0 0 1
469 94 3 -4.742146016335668 -1.0587932671949631 -8.996862576893715 0 0 1
3619 940 4 -1.673885616528034 -0.04612496932695706 -7.83917981617835 0 0 0
2469 557 2 -10.580729377553522 -10.107710789735538 -4.098257545858167 0 0 0
148 30 3 -1.390741702113787 -0.29490167067458983 -7.968902842380588 0 0 0
3491 897 4 -0.9413758210520642 -0.5929263647739151 -8.407738375455905 0 0 0
3489 897 2 -0.4729591281672351 -0.5726584803977836 -8.581447945398395 0 0 0
150 30 3 -1.1500369483624315 -0.9079801470519073 -8.333726091809943 0 0 0
147 30 3 -1.782101406922671 -0.9358175525081558 -7.937847828852444 0 0 0
146 30 1 -1.3584748459145963 -0.7576484509486768 -7.957755316335711 0 0 0
3251 817 4 -8.284178965886024 -9.623293154006376 -7.399908490699686 0 1 0
3250 817 4 -8.801641078115328 -10.041711987987014 -6.65347788992158 0 1 0
3249 817 2 -8.542910022000676 -9.832502570996695 -7.026693190310633 0 1 0
4033 1078 4 -4.591066763677627 -10.665662949322414 -1.0480162739167902 0 1 0
2515 572 4 -6.494808680833304 -10.554865699609223 -7.147697812393237 0 0 0
2137 446 4 -6.159947499809469 -10.401625839117987 -6.954991080775321 0 0 1
125 25 3 -10.633548229136508 -9.075144788910723 -0.5458874254487396 0 0 0
2136 446 2 -5.7997644041914 -10.221809940845176 -7.251528397751062 0 0 1
537 108 3 -5.057490647708338 -10.027413152196209 -6.326334498131782 0 1 0
540 108 3 -4.473786038716083 -9.754054795096005 -6.7025845985239 0 1 0
536 108 1 -4.774009614488363 -9.6679274928473 -6.371151509714083 0 1 0
538 108 3 -5.024187982634142 -9.29201300473345 -6.4779179919928085 0 1 0
539 108 3 -4.551568608619706 -9.601314834610415 -5.969426787210088 0 1 0
3736 979 4 -4.024903690633116 -10.407190336772 -6.36034620469985 0 1 0
3737 979 4 -3.4024196353922433 -9.794462188540841 -6.847252579001841 0 1 0
3735 979 2 -3.7136616630126795 -10.10082626265642 -6.6037993918508455 0 1 0
3294 832 2 -1.3611602678647896 -9.853789906669013 -6.875041939198226 0 1 0
3295 832 4 -1.0651932354693232 -10.256075732825515 -6.851175020489584 0 1 0
547 110 3 -0.3043769171522509 -2.2246669845600655 -5.409803632631864 -1 0 0
3403 868 4 -0.8057623610638189 -10.077830220658262 -7.100835011970941 0 1 0
3402 868 2 -0.31758558423331534 -10.114783902463687 -7.202411879240671 0 1 0
3187 796 4 -1.2894368177193627 -0.45600423769278164 -0.5699334671929259 0 0 0
4004 1068 4 -6.630056629227745 -8.050155162313109 -6.360438666050924 0 1 1
4717 1306 4 -6.749992982920014 -7.710917588782635 -6.51819075123396 0 0 0
2266 489 4 -5.270538311181078 -9.00704831982111 -6.320596100778048 0 0 0
187 38 3 -5.789560161792103 -7.939835787731229 -6.930159510240522 0 0 0
2265 489 2 -5.495968257209372 -8.682965058143441 -6.627437067622624 0 0 0
2267 489 4 -5.7213982032376665 -8.358881796465774 -6.934278034467201 0 0 0
3296 832 4 -1.657127300260256 -9.45150408051251 -6.898908857906869 0 1 0
3196 799 4 -1.4261812251778068 -9.142862291367225 -6.808741800874515 0 1 0
3195 799 2 -1.3455021228313773 -8.655803010496179 -6.729595484714058 0 1 0
3197 799 4 -1.2648230204849478 -8.168743729625133 -6.650449168553601 0 1 0
104 21 3 -0.6358874732965841 -8.519265208506628 -5.874681115655177 0 0 0
5094 1432 2 -9.137203016983976 -6.069377154925033 -6.960695202804581 1 0 0
5095 1432 4 -8.940827976529363 -6.101841559588601 -6.502020038972478 1 0 0
5096 1432 4 -9.33357805743859 -6.0369127502614655 -7.419370366636685 1 0 0
5359 1520 4 -9.306870848138878 -6.1940610402545815 -7.7904995095318625 1 0 1
1114 223 3 -6.828867004938777 -6.307459027492139 -7.3156751085376746 1 0 0
4716 1306 2 -6.631613346617817 -7.239834624246803 -6.636795566621813 0 0 0
1113 223 3 -6.266841793004941 -6.4582090786567345 -6.8267967154537095 1 0 0
4718 1306 4 -6.51323371031562 -6.76875165971097 -6.7554003820096655 0 0 0
1111 223 1 -6.423593157748156 -6.1592332283065225 -7.145140005878399 1 0 0
1112 223 3 -6.487040640980015 -5.749522947579226 -6.945861550600825 1 0 0
1115 223 3 -6.11959115054307 -6.116926007277056 -7.481581499549969 1 0 0
3662 954 4 -6.763742280484246 -5.7722934957549885 -6.665740794926184 0 1 0
4712 1304 4 -1.43057026225536 -7.887499630620489 -6.935845627009053 0 0 0
1059 212 3 -9.137629079087509 -6.170337341496451 -6.159876774073738 1 0 0
1039 208 3 -10.162500410501393 -5.189819357214595 -7.714953434247416 1 0 0
2441 547 4 -9.935321642277037 -5.308082498938746 -7.417973675146102 0 0 0
2439 547 2 -9.777188978782718 -5.011618239191399 -7.047699447810692 0 0 0
2440 547 4 -9.619056315288399 -4.715153979444051 -6.677425220475283 0 0 0
140 28 3 -9.276001901293428 -4.469952545647927 -6.6546040735488114 0 0 0
3051 751 2 -5.980554008908769 -4.810150791635381 -7.769021807119019 0 0 1
3052 751 4 -5.965214239636102 -4.708916756006782 -7.279617718957818 0 0 1
2249 483 4 -5.966477544740065 -4.708008639681959 -6.872722754119303 0 0 0
2247 483 2 -6.396028060538349 -4.638669125525101 -6.626392922076738 0 0 0
2317 506 4 -1.1370799343266234 -5.895018376480381 -7.54514328285086 0 0 0
2316 506 2 -1.005495342463922 -5.450478936183579 -7.357872940284845 0 0 0
2318 506 4 -0.8739107506012204 -5.005939495886777 -7.170602597718831 0 0 0
2257 486 4 -0.7103789735776904 -5.565816311116618 -6.429802891501973 0 0 0
3186 796 2 -1.74914726417194 -0.48773612662766924 -0.7639937481546867 0 0 0
3188 796 4 -2.2088577106245175 -0.5194680155625568 -0.9580540291164474 0 0 0
2985 729 2 -10.075474121074933 -3.8911400717470723 -7.206878997561548 0 0 1
2986 729 4 -10.253225641606528 -3.8201218854468486 -6.744969034296866 0 0 1
1644 329 3 -10.215017986427322 -4.047547386427566 -6.4303548340012995 1 0 0
2987 729 4 -9.897722600543338 -3.962158258047296 -7.668788960826229 0 0 1
138 28 3 -9.107931020987378 -3.8870802889060756 -6.208608432859829 0 0 0
136 28 1 -8.99500626894047 -4.320808465725529 -6.328724497596932 0 0 0
139 28 3 -8.556389922735255 -4.334316476485424 -6.479499941508757 0 0 0
2018 406 4 -8.247349453692069 -4.10194049837024 -6.591396165902878 0 0 0
2016 406 2 -7.9222864929733765 -3.812328703315601 -6.345511884717024 0 0 0
137 28 3 -9.033715403998288 -4.592258655829568 -5.959378593117853 0 0 0
120 24 3 -6.880967467090207 -4.149245437602825 -6.367170024362654 0 0 0
2017 406 4 -7.597223532254685 -3.522716908260962 -6.099627603531171 0 0 0
119 24 3 -7.1849457939385415 -3.5234038420240315 -6.079386296452896 0 0 0
4378 1193 4 -1.7272558087769556 -3.144247004133021 -6.553113866353313 0 0 1
1364 273 3 -0.6575211198952671 -4.683191901901394 -7.036451675601745 0 0 1
6559 1920 4 -0.6047887870705588 -3.5011374285352854 -7.034670234893957 0 0 1
6558 1920 2 -1.034076828880387 -3.2663699959971244 -6.93173321638991 0 0 1
1362 273 3 -0.6296992897919517 -3.932148354557655 -7.028735733431109 0 0 1
1361 273 1 -0.378024608502783 -4.3154599058936824 -6.992237659364548 0 0 1
550 110 3 -0.004419935188315155 -1.7079686814494397 -4.962535622895439 -1 0 0
4681 1294 4 -8.034020139860969 -1.6068772620572223 -7.789467597784766 1 0 0
4680 1294 2 -7.988286629407437 -1.182001094272895 -7.52987428494617 1 0 0
4377 1193 2 -2.1209707783727363 -3.125987926825482 -6.8607746028991965 0 0 1
4379 1193 4 -2.514685747968517 -3.107728849517943 -7.16843533944508 0 0 1
6560 1920 4 -1.4633648706902151 -3.031602563458964 -6.828796197885863 0 0 1
2296 499 4 -1.5414817644985779 -2.4761967004253163 -5.089033315221219 0 0 0
4682 1294 4 -7.942553118953905 -0.7571249264885676 -7.2702809721075745 1 0 0
2393 531 4 -7.775924099979134 -0.6983631389595181 -6.8849478474360915 0 0 0
2391 531 2 -7.682125218739809 -0.524469055586179 -6.425641176848745 0 0 0
1363 273 3 -0.17317869844216463 -4.321333488033591 -6.575940104526076 0 0 1
3205 802 4 -5.870950216966924 -0.34200167137010884 -6.498554205614246 0 0 0
3044 748 4 -4.7603987303527875 -10.564950359338468 -0.6887967846732379 0 0 0
3206 802 4 -5.663136793818608 -0.8818191334274015 -7.314281297733608 0 0 0
3204 802 2 -5.767043505392766 -0.6119104023987552 -6.906417751673927 0 0 0
3287 829 4 -3.5141838880919485 -0.5113138042474634 -6.029851481874294 0 1 0
3965 1055 4 -1.6877679143388922 -1.4073402970381559 -5.918644369333223 0 0 0
259 52 3 -10.620543997350618 -2.3547777521204445 -8.057288048908378 0 0 0
149 30 3 -1.1218634551753863 -0.8909204582430245 -7.581519191217287 0 0 0
3445 882 4 -1.0346192411965829 -0.777470452294599 -7.226521664685946 0 0 0
3444 882 2 -0.7823495076992362 -0.36574098298304863 -7.096757163911091 0 0 0
3629 943 4 -1.4309412355825026 -1.431412198179473 -6.238119364193502 0 0 0
2499 567 2 -4.931122636530245 -1.687592430016684 -1.5254270499108276 0 0 0
5914 1705 4 -10.460524095388589 -9.93477006304276 -5.70790423517685 1 1 0
5913 1705 2 -10.344637435557782 -9.937458264560792 -5.221526752509058 1 1 0
5915 1705 4 -10.228750775726976 -9.940146466078824 -4.735149269841266 1 1 0
2470 557 4 -10.503583166107267 -10.1991191517886 -4.583739752953626 0 0 0
2559 587 2 -4.81591536103554 -0.4697688949052389 -0.1730987155947492 0 0 0
4713 1305 2 -0.12461200082957652 -2.938314275706733 -8.338578305258753 0 0 0
105 21 3 -0.47402884062366285 -9.229325800495706 -6.065772033107974 0 0 0
4002 1068 2 -6.598242901440399 -8.063223979053836 -5.861622975887583 0 1 1
4003 1068 4 -6.566429173653052 -8.076292795794563 -5.362807285724242 0 1 1
2786 662 4 -6.226190637915579 -7.909926338671744 -5.230198004714473 0 0 0
2784 662 2 -5.939757622483884 -8.039848346522158 -4.841512528336763 0 0 0
2418 540 2 -1.811481103411156 -8.5411801175395 -5.575194853688529 0 0 0
2420 540 4 -2.2296714948826453 -8.277571278659332 -5.500180344792596 0 0 0
4499 1233 4 -0.41741496300443304 -8.751202573477794 -5.1723469332733245 0 0 0
102 21 3 -0.6100001407623754 -9.058773025078308 -5.352032895652561 0 0 0
101 21 1 -0.7223882187808479 -8.96692143416693 -5.788532844296552 0 0 0
103 21 3 -1.1738212865735866 -9.055519500208108 -5.8490189418466505 0 0 0
2419 540 4 -1.393290711939667 -8.80478895641967 -5.650209362584463 0 0 0
4497 1233 2 -0.5821004199318528 -8.799164479700552 -4.702689232572055 0 0 0
4655 1285 4 -0.5964982554715446 -8.044367719248406 -4.506561582308957 0 0 0
4653 1285 2 -0.14529802406928574 -7.835002695790457 -4.455722245815003 0 0 0
5864 1688 4 -10.405945292085574 -6.8219192396619786 -4.367627050714156 1 0 0