LAMMPS data file via write_data, version 4 Feb 2025, timestep = 4000000, units = lj

2000 atoms
4 atom types
1500 bonds
1 bond types
1750 angles
2 angle types

-8.346487 8.346487 xlo xhi
-8.346487 8.346487 ylo yhi
-8.346487 8.346487 zlo zhi
8.526512829121202e-14 0 0 xy xz yz

Masses

1 1
2 1
3 0.1
4 0.1

Bond Coeffs # harmonic/omp

1 100 0.45

Angle Coeffs # harmonic/omp

1 100 180
2 100 109.471

Atoms # full

1393 298 4 0 -7.50422214472443 -8.086188085673625 -7.8887706854705835 11 0 0
1392 298 2 0 -7.384241164331644 -8.039506702943381 -8.305270754647234 11 0 0
1023 205 3 0 -7.440881727829289 -7.857652347056242 -7.555471709455258 16 0 1
1491 331 2 0 3.75306314013684 -7.999177190766752 -8.238234904882091 30 1 1
1493 331 4 0 4.101997257881576 -8.230272780134813 -8.096660084091392 30 1 1
984 197 3 0 4.460035748276493 -8.299688755410827 -7.911268118004233 12 0 0
1025 205 3 0 -8.004304753845267 -7.367335161908472 -7.512375319675525 16 0 1
52 11 3 0 2.7346165951100847 -6.952256415918622 -8.088380581248867 9 0 -1
53 11 3 0 3.354919778186165 -7.364636664158311 -8.232966399172161 9 0 -1
55 11 3 0 3.421610524275108 -6.630023198199115 -8.138552160732806 9 0 -1
51 11 1 0 3.1503450986021697 -6.95609040997364 -8.306992517821532 9 0 -1
1979 493 4 0 -7.69738708416077 -5.56989346485565 -8.314358368616874 9 0 1
515 103 3 0 -6.766379045773972 -5.642037907580001 -8.326160592880857 14 0 1
1262 254 4 0 -6.375887408344242 -5.693405492369536 -8.213942230446191 20 0 0
115 23 3 0 -3.0235392514246913 -6.141235089681938 -8.228419006796742 10 0 0
112 23 3 0 -2.4089793336302785 -5.959546380278947 -7.796657258275172 10 0 0
111 23 1 0 -2.7001373428401925 -5.80970858657732 -8.143276203797603 10 0 0
1588 363 4 0 3.8967840843358843 -5.682888018364441 -8.164773160847998 8 0 1
1587 363 2 0 3.6013011541017104 -5.979844294131544 -8.254097299587029 8 0 1
1589 363 4 0 3.284989938294279 -6.30010353195218 -8.346083062387843 8 0 1
410 82 3 0 8.193770466870404 -6.115730143284988 -7.549838649122226 10 0 1
511 103 1 0 -7.016967849529879 -5.365593279538974 -8.117096382189503 14 0 1
514 103 3 0 -6.787749018275611 -4.951171961804821 -8.042771683213255 14 0 1
512 103 3 0 -7.135872752499301 -5.533496013728539 -7.721503835931035 14 0 1
113 23 3 0 -2.905166739448645 -5.418854130997587 -8.018769621499626 10 0 0
224 45 3 0 3.885859679775063 -5.2686868370135755 -8.123249691839483 9 0 0
221 45 1 0 4.281941698338519 -5.10004110177333 -8.21597862218645 9 0 0
223 45 3 0 4.429641896116827 -4.858363268132744 -7.870976303167452 9 0 0
225 45 3 0 4.5601963234010086 -5.4244097977475665 -8.30150560894827 9 0 0
1712 404 4 0 -6.7654045706226675 -4.580734742297584 -8.203201819298283 31 1 1
1710 404 2 0 -6.584367613342057 -4.175560539040953 -8.161058461315395 31 1 1
1711 404 4 0 -6.406044187708636 -3.776012863980565 -8.133911257922865 31 1 1
852 171 3 0 -4.185483448554958 -3.9107740925970047 -7.4953941291737864 14 0 1
855 171 3 0 -3.679196296762493 -3.880849952332853 -8.046267932621422 14 0 1
955 191 3 0 0.7435360662323571 -3.7442950063828757 -7.789175429741329 24 0 0
677 136 3 0 -7.085618605189854 -3.0720281400703175 -8.133642480728776 35 1 0
1670 390 4 0 -7.382303683847226 -3.3142212357366523 -8.236155750779037 15 0 0
676 136 1 0 -6.652714446548448 -3.043467227383756 -7.948419609886342 35 1 0
679 136 3 0 -6.685769288074858 -2.9652347627398834 -7.499259304755235 35 1 0
680 136 3 0 -6.453237268008256 -3.39834320499096 -8.013535253972794 35 1 0
1274 258 4 0 -4.040462912254667 -2.927214737450422 -7.898815038339597 14 0 0
851 171 1 0 -3.8325781203094227 -3.6859538762649873 -7.646434646291085 14 0 1
853 171 3 0 -3.9422204374669745 -3.2742639540799185 -7.721209319815399 14 0 1
1523 341 4 0 -2.513999102319021 -3.5619838776299346 -8.026186275096153 14 0 1
147 30 3 0 -2.139032310256125 -3.477906029838813 -8.01250996898512 10 0 1
146 30 1 0 -2.026934510478987 -3.3099423560482064 -7.62149531049082 10 0 1
150 30 3 0 -2.127284234714761 -2.8921647729227615 -7.599750468866218 10 0 1
149 30 3 0 -1.5768699984073633 -3.3516553215347695 -7.563605044138543 10 0 1
954 191 3 0 0.04542603222888353 -3.6706562674151924 -7.72258170275696 24 0 0
951 191 1 0 0.3980942673832857 -3.5762296587917692 -7.972406802410315 24 0 0
953 191 3 0 0.4433826341627558 -3.103547380973981 -7.999810804055529 24 0 0
678 136 3 0 -6.430163385276847 -2.698372217741209 -8.135274849348146 35 1 0
1453 318 4 0 -6.0969936198030315 -2.458457624534815 -7.982412032628194 12 0 0
1452 318 2 0 -5.826373505213426 -2.407938720000601 -7.626851040785445 12 0 0
1272 258 2 0 -3.962606164358766 -2.594437233316442 -8.217298309029376 14 0 0
1486 329 4 0 5.392672013792536 -1.8719749201650187 -7.801951174661732 21 0 0
480 96 3 0 -7.824030178286523 -1.484434046934541 -7.457225461506709 -12 -2 0
1432 311 4 0 -7.831045588272309 -1.5316126112132569 -7.870701119225283 16 0 1
1431 311 2 0 -7.931728249068419 -1.5810545977590316 -8.305594969155882 16 0 1
127 26 3 0 5.512407990761272 -1.818907686083099 -8.196381182780412 16 0 0
126 26 1 0 5.837363350116588 -1.526488153298395 -8.299225547113338 16 0 0
128 26 3 0 5.840685006530768 -1.1864253664854365 -8.008021293898144 16 0 0
129 26 3 0 6.244937763123115 -1.7448734012546083 -8.29028803464381 16 0 0
1376 292 4 0 -6.189650174019247 -0.4383538208340534 -7.746517992049174 8 -1 0
904 181 3 0 -5.9521845353182865 -0.1344550236869111 -7.800096957269725 30 0 -1
1374 292 2 0 -6.557769858447636 -0.6096217135053008 -7.5525530083929215 8 -1 0
903 181 3 0 -5.263173764823931 -0.37096482818320897 -7.660741323735734 30 0 -1
901 181 1 0 -5.553277027198025 -0.022922355202396716 -7.626363557307676 30 0 -1
1024 205 3 0 -8.011451752087389 -8.006408730288564 -7.12196849301809 16 0 1
1021 205 1 0 -7.7483032945854955 -7.671429276017913 -7.2802960649369695 16 0 1
1022 205 3 0 -7.527949471757466 -7.456921611168368 -6.91695579568 16 0 1
985 197 3 0 4.747680816944795 -8.18877417651901 -7.269452874105101 12 0 0
124 25 3 0 5.147130372444559 -7.5185354006191725 -7.1508038697750145 11 0 0
125 25 3 0 5.784799053479196 -7.484056278376508 -6.726672231887115 11 0 0
1355 285 4 0 6.178734880958572 -7.489592087942902 -6.586731617616215 29 1 0
121 25 1 0 5.341224437016079 -7.316011254820476 -6.793325427362942 11 0 0
122 25 3 0 5.366171922099985 -6.855339921091118 -6.870389996602746 11 0 0
1477 326 4 0 7.541199088252961 -7.303089097291631 -6.623706774010671 12 0 0
1478 326 4 0 7.8293776329362075 -6.541188295187001 -7.004339093738676 12 0 0
1476 326 2 0 7.681804889037625 -6.935090584680082 -6.807075874701284 12 0 0
409 82 3 0 -7.9334685036388315 -6.405464727210021 -7.154824119777415 11 0 1
406 82 1 0 -8.309310164198973 -6.132970060499582 -7.145741029171967 11 0 1
408 82 3 0 -8.18701481377405 -5.729169902602044 -7.030312147317872 11 0 1
490 98 3 0 -1.3360637153453245 -6.129845971288232 -6.730268317104744 9 0 0
487 98 3 0 -1.7118173090726216 -5.742084563989334 -7.23611452085136 9 0 0
488 98 3 0 -0.9906776372262627 -5.853457480795291 -7.337681765326753 9 0 0
486 98 1 0 -1.3145305799650746 -5.779724095715405 -7.029926953144645 9 0 0
1306 269 4 0 5.34175517906885 -6.468790570557489 -6.771728784774341 15 0 0
1305 269 2 0 5.472353105818241 -6.041483779423385 -6.738105454287955 15 0 0
1307 269 4 0 5.60527703097846 -5.600001484328443 -6.70068695468206 15 0 0
1184 237 3 0 6.792003309511669 -5.964024331093474 -7.185096660916831 30 1 2
1183 237 3 0 7.058998384651369 -6.361590897260602 -6.6489575903587985 30 1 2
1181 237 1 0 6.960851960614196 -5.950601940021294 -6.794759395689766 30 1 2
1182 237 3 0 6.670466436089782 -5.7576298598023605 -6.514837847452524 30 1 2
1185 237 3 0 7.340327341251655 -5.701180957801583 -6.806641722355597 30 1 2
407 82 3 0 8.08927968759215 -6.288439987495928 -6.84596262981067 10 0 1
1709 403 4 0 7.535297293531105 -5.569704926132053 -6.504683017420732 28 1 0
40 8 3 0 -7.895418681985545 -4.75362880987427 -6.775855681193387 -3 -1 1
460 92 3 0 -1.619731042742262 -4.71158731666767 -6.644261367368432 5 -1 0
489 98 3 0 -1.2324640921874304 -5.418070211464814 -6.820293338122121 9 0 0
1663 388 4 0 5.632899342035925 -5.212712319591192 -6.8503732691504 9 0 0
1662 388 2 0 5.534945578631204 -4.7836944441925375 -6.951414396426899 9 0 0
1981 494 4 0 -5.066877055158644 -3.8557213522636085 -6.71410438797447 12 0 1
1037 208 3 0 -5.460530546792679 -3.9672194000033034 -6.704742095376911 29 1 1
1980 494 2 0 -4.740923980159788 -3.7423287872466044 -6.986332865409551 12 0 1
1549 350 4 0 -3.3586176165217267 -3.7650692246549777 -7.0062740054897805 19 0 1
1548 350 2 0 -2.8980271748312436 -3.723667064436709 -6.989133572187547 19 0 1
457 92 3 0 -2.223861088015627 -4.263310643525052 -6.650803014941873 5 -1 0
458 92 3 0 -1.5982702848271684 -4.032334012220813 -7.017688033709628 5 -1 0
456 92 1 0 -1.776248611697163 -4.26942791739188 -6.638928833116695 5 -1 0
935 187 3 0 5.149838819871837 -4.114290823803145 -6.93619823535976 22 1 1
1664 388 4 0 5.438150566604042 -4.363631887134302 -7.057735373121494 9 0 0
931 187 1 0 5.126229213231751 -3.782691034689237 -6.691223137395066 22 1 1
1525 342 4 0 -6.979936241479909 -2.9907633469219403 -7.211975279065937 15 0 1
1524 342 2 0 -7.0833266717509415 -2.833240946581144 -6.814246302826316 15 0 1
1982 494 4 0 -4.410121885833554 -3.6305105228755963 -7.269148487041477 12 0 1
854 171 3 0 -3.5159351575566857 -3.6998052392207823 -7.3619388651365485 14 0 1
1550 350 4 0 -2.449581525842122 -3.6788035071051635 -6.985684300725868 19 0 1
148 30 3 0 -2.2570778391926343 -3.533137152632608 -7.291968389498433 10 0 1
1964 488 4 0 -1.2588291217774046 -3.455700422105239 -7.372095897540349 41 1 1
1962 488 2 0 -0.8980185698960472 -3.276650126711984 -7.125862490078899 41 1 1
1963 488 4 0 -0.5674542087692167 -3.1257201058310713 -6.907105831845406 41 1 1
932 187 3 0 4.7165109735294255 -3.699004453459221 -6.604570750107846 22 1 1
933 187 3 0 5.327753760562688 -3.4205913605559424 -6.920355060537996 22 1 1
1454 318 4 0 -5.5553484987042845 -2.351448427038708 -7.262304546382239 12 0 0
418 84 3 0 -5.309877951141248 -2.524991465272988 -7.010824955705152 -4 -1 1
416 84 1 0 -5.200920671064362 -2.4672699851413764 -6.561065866858545 -4 -1 1
417 84 3 0 -4.963652297605201 -2.0847194631985912 -6.510199540723331 -4 -1 1
355 71 3 0 -0.5917594024655113 -2.762966831883544 -6.737960329813344 23 0 0
354 71 3 0 0.09249020826462306 -2.4848997901353167 -6.61922987054147 23 0 0
1485 329 2 0 5.352221496627337 -2.037679424147141 -7.397412481739119 21 0 0
345 69 3 0 5.248874228918856 -2.5151327406127946 -6.754647113075077 9 0 1
1487 329 4 0 5.301238316966803 -2.2006569407015295 -6.998529486574217 21 0 0
479 96 3 0 -7.567577978960218 -1.4578101808326398 -6.745583683321798 -12 -2 0
476 96 1 0 -7.593214197637191 -1.224103558179789 -7.139823284055749 -12 -2 0
478 96 3 0 -7.17325153346463 -1.1287726838995313 -7.299200892131489 -12 -2 0
477 96 3 0 -7.796711669561764 -0.855528685496008 -7.073831760242314 -12 -2 0
1375 292 4 0 -6.924337911676724 -0.7710637580841846 -7.356715691308787 8 -1 0
1716 406 2 0 2.1704704962320616 -0.08478636039641607 -6.992126597401044 29 0 0
1717 406 4 0 2.5644017745409133 -0.2720777434371069 -7.060519616965418 29 0 0
1162 233 3 0 2.885048996164853 -0.2765609272020342 -6.781510039387969 20 0 1
1161 233 1 0 3.324451161422644 -0.2321614925411506 -6.968982340188362 20 0 1
1163 233 3 0 3.3590390599575475 -0.5256944941436128 -7.314824580716948 20 0 1
1165 233 3 0 3.6525301321473354 -0.32557677114944816 -6.635204717614931 20 0 1
1518 340 2 0 -8.061927120687413 -8.257092131436428 -5.875386095783909 18 0 1
348 70 3 0 1.6289053589261364 -8.06788676138421 -5.83862563020771 11 0 1
346 70 1 0 1.6337753471488785 -7.6493755601562405 -5.631830405528332 11 0 1
1007 202 3 0 3.4928491683888154 -8.222954371579151 -5.723244799625747 47 2 0
1300 267 4 0 3.0998377406205684 -8.181076461981487 -5.694138872144384 9 0 0
1353 285 2 0 6.48970616011462 -7.726532806761922 -6.430093634646481 29 1 0
1354 285 4 0 6.83938011913234 -7.993828899714481 -6.255611979420152 29 1 0
1208 242 3 0 7.16287165617258 -7.893400280080339 -6.037423509790172 -6 -1 0
1206 242 1 0 7.589743875050802 -7.753644766137032 -6.046719752154894 -6 -1 0
1207 242 3 0 7.864108514843686 -8.09010861762352 -5.9659061436776835 -6 -1 0
1210 242 3 0 7.6727240008694295 -7.593200184185329 -6.42476114134334 -6 -1 0
1519 340 4 0 8.245538717471263 -8.044849342812638 -5.840312355550761 17 0 1
1277 259 4 0 1.959370894636253 -7.005633088744586 -5.93146722187324 28 1 1
349 70 3 0 1.74239209423739 -7.34094542680927 -5.927002081368944 11 0 1
1275 259 2 0 2.3882242451992006 -6.884803005921322 -6.046014076348229 28 1 1
1276 259 4 0 2.808301922864393 -6.766066071185716 -6.189112814469159 28 1 1
1063 213 3 0 3.649658068888389 -6.920873615903968 -6.37017782237504 9 0 1
1065 213 3 0 3.335033733885977 -7.045050302665469 -5.698567788701093 9 0 1
1061 213 1 0 3.4505970970515634 -6.717542534940716 -5.985902287376298 9 0 1
123 25 3 0 5.082148751821935 -7.398218756674979 -6.400493445934935 11 0 0
1209 242 3 0 7.656037898390419 -7.416721343143606 -5.727590752862644 -6 -1 0
1610 370 4 0 -5.190761246174089 -5.646229561405763 -5.835943861414506 10 0 0
220 44 3 0 -5.1233266332575145 -5.993429029191249 -5.628130026298395 9 0 1
1062 213 3 0 3.0582844555569935 -6.474588762417301 -6.122017359750166 9 0 1
1064 213 3 0 3.7360610317825227 -6.449342484973998 -5.795148398883423 9 0 1
36 8 1 0 -7.721937052388419 -4.880679974780037 -6.377853277023708 -3 -1 1
38 8 3 0 -8.023724941661547 -5.066829869239867 -6.136493220963924 -3 -1 1
37 8 3 0 -7.378701892411301 -5.169598445146561 -6.451239816286571 -3 -1 1
1609 370 4 0 -5.329503034588486 -4.745931250487953 -6.105976232976039 10 0 0
1608 370 2 0 -5.253156740406032 -5.185651604357264 -5.977305042744499 10 0 0
1751 417 4 0 -2.9695798547529746 -5.206145684712185 -6.363120335166169 12 0 0
1749 417 2 0 -2.7631182148583617 -4.790888661472317 -6.407980106333225 12 0 0
1220 244 3 0 3.546805683835828 -4.787173784187632 -5.996712573052599 13 0 2
1216 244 1 0 3.260007350684212 -4.684434270844964 -5.6639939439384985 13 0 2
1708 403 4 0 8.330560170132859 -5.19458816559759 -6.270151872554149 28 1 0
1707 403 2 0 7.947490939288926 -5.375675412858452 -6.38299339880243 28 1 0
39 8 3 0 -7.557582540377649 -4.52343143379283 -6.160135240394002 -3 -1 1
1888 463 4 0 -7.275943455155064 -4.26009827737517 -6.050326473924462 16 0 1
1887 463 2 0 -7.127780878749752 -3.88392901903185 -5.8692540760233065 16 0 1
1039 208 3 0 -6.157643745933768 -4.10649057226503 -6.443828726506495 29 1 1
1036 208 1 0 -5.714621965616338 -4.043030177874325 -6.330516903548854 29 1 1
1040 208 3 0 -5.56602577856841 -4.410359623055932 -6.127028845061021 29 1 1
1750 417 4 0 -2.559724836608585 -4.396634319168772 -6.4543824817095805 12 0 0
1778 426 4 0 -1.6119514682746487 -3.8433167850049763 -5.937309133586209 27 0 0
459 92 3 0 -1.6436549288230848 -4.075167564185005 -6.261181804675857 5 -1 0
1217 244 3 0 2.906964808780476 -4.507356677724311 -5.835355324845181 13 0 2
934 187 3 0 5.350971912062743 -3.8597776890970357 -6.31959838132461 22 1 1
1889 463 4 0 -6.9666544219310165 -3.4794364222971064 -5.680396005657094 16 0 1
49 10 3 0 -7.326368283979259 -2.867724275578893 -6.109836033550698 9 0 1
46 10 1 0 -7.241632522492525 -2.7922560913084062 -5.6411933892978405 9 0 1
1038 208 3 0 -5.684219769024655 -3.6776976120648115 -6.040038581663994 29 1 1
1753 418 4 0 -4.836246092160762 -3.0241183735455808 -6.092408224403892 33 1 0
419 84 3 0 -4.964770236629561 -2.821658581000581 -6.4136890886430775 -4 -1 1
1752 418 2 0 -4.627838384899926 -3.264971138213463 -5.794454506292029 33 1 0
1776 426 2 0 -1.5042419003810243 -3.4925195938151514 -5.668282410389503 27 0 0
352 71 3 0 -0.13092995512233152 -3.0735633912798077 -6.247058119036218 23 0 0
1526 342 4 0 -7.1869229993253 -2.6832295990011783 -6.423756899145522 15 0 1
47 10 3 0 -6.931104203684867 -2.478937023577237 -5.5875359179115645 9 0 1
1314 272 2 0 -6.1644086631330275 -2.3413861999376833 -5.824471686087694 9 0 0
1316 272 4 0 -5.810119889668995 -2.238327639826073 -6.0406764330756415 9 0 0
1315 272 4 0 -6.526176546440573 -2.4504231100614824 -5.6047266269740295 9 0 0
420 84 3 0 -5.57342351397428 -2.4386898078185455 -6.31927005638776 -4 -1 1
353 71 3 0 -0.4261789636104041 -2.406251472493955 -6.0883818512272185 23 0 0
351 71 1 0 -0.26473868595256356 -2.688057097032816 -6.427218722893209 23 0 0
1652 384 4 0 5.216766729956085 -2.781285715044503 -5.705534181030531 32 1 0
343 69 3 0 5.155906818808312 -2.5511192146619486 -6.0442024194185135 9 0 1
341 69 1 0 5.425193868168211 -2.4152845292923857 -6.376383304473233 9 0 1
344 69 3 0 5.470002103170458 -1.9723215237691143 -6.353474370493958 9 0 1
342 69 3 0 5.825778664921922 -2.6067500727008115 -6.340310118908831 9 0 1
1994 498 4 0 3.7117259718578968 -0.090674212077138 -6.318521803364079 25 0 1
347 70 3 0 1.2194974338323519 -7.559282580616432 -5.451369234976464 11 0 1
350 70 3 0 1.9547114628707671 -7.650784015695588 -5.283990163064983 11 0 1
1299 267 2 0 2.688106105563106 -8.046989142668767 -5.550037903826437 9 0 0
1301 267 4 0 2.2772753058960724 -7.90342988022602 -5.410856931655862 9 0 0
1006 202 1 0 3.9168198517593265 -8.21701928816431 -5.521705914688725 47 2 0
1009 202 3 0 4.044811945336603 -7.763810529870582 -5.44105903408756 47 2 0
1245 249 3 0 6.217586769165541 -8.010478466233025 -5.460014103318441 18 1 0
1581 361 2 0 -4.568400536150278 -6.910755057557432 -4.677723504460055 13 0 1
1582 361 4 0 -4.4683937706941546 -6.557987379198626 -4.95212353123105 13 0 1
1868 456 4 0 -5.891920269595724 -6.277358654619202 -5.0331335106153325 10 0 1
1866 456 2 0 -6.103508552730964 -6.076016384443248 -4.688095621409252 10 0 1
219 44 3 0 -5.496354833667089 -6.167832664605697 -5.034948324977847 9 0 1
216 44 1 0 -5.090264064444698 -6.034409495743569 -5.206499189517776 9 0 1
217 44 3 0 -4.971538784606114 -5.632856208789071 -5.023429703882825 9 0 1
218 44 3 0 -4.778116776202383 -6.347191645965107 -5.099022728791691 9 0 1
1310 270 4 0 3.761073839764567 -6.160563187138038 -5.50019657414037 11 0 0
1308 270 2 0 3.5989167071453494 -5.775162690909425 -5.433698953821963 11 0 0
1219 244 3 0 3.1288502352529157 -5.098297111268174 -5.431906399907948 13 0 2
1309 270 4 0 3.4266036703585403 -5.370046468779078 -5.366853206032118 11 0 0
308 62 3 0 -4.03631399612301 -4.364756902930479 -4.963124715470416 16 0 0
310 62 3 0 -4.189974035133159 -3.717961981223219 -5.252503938308305 16 0 0
306 62 1 0 -3.8861222809689933 -3.943399545672251 -5.0229409996741925 16 0 0
307 62 3 0 -3.5011866114716446 -3.9454350376808787 -5.232620772298459 16 0 0
309 62 3 0 -3.8305343063286745 -3.7623647157227875 -4.651638896661152 16 0 0
1218 244 3 0 3.4495217871178117 -4.4159486897707625 -5.387649580519843 13 0 2
50 10 3 0 -7.10007708838576 -3.1994011958820607 -5.452099189028976 9 0 1
1754 418 4 0 -4.402060234527853 -3.4987877307958426 -5.495624286031369 33 1 0
1777 426 4 0 -1.3988127227260687 -3.13353334621846 -5.386318378521338 27 0 0
1135 227 3 0 -1.265264708889437 -3.1061289783516823 -5.011937092135 8 -1 1
1674 392 2 0 2.8078688154466853 -3.16619423136331 -4.77990000637568 31 1 0
1676 392 4 0 3.1951187061621837 -3.0824155385000527 -5.01601143981983 31 1 0
1228 246 3 0 3.5357263101942866 -2.8795759938194454 -4.9747663525678245 23 0 1
1650 384 2 0 4.820544361030441 -2.8629767727573485 -5.555009881234513 32 1 0
1229 246 3 0 4.272326166784682 -2.9487933705681675 -5.018817803353849 23 0 1
1651 384 4 0 4.409372680580908 -2.938046469121235 -5.403828220060508 32 1 0
48 10 3 0 -7.619376694735586 -2.6598780913360773 -5.436598415805539 9 0 1
1131 227 1 0 -1.3952753170550025 -2.7396207677100985 -4.7555490003609755 8 -1 1
1132 227 3 0 -1.8364143906795016 -2.7606878657626392 -4.676312581614176 8 -1 1
1133 227 3 0 -1.2963701231706484 -2.356911607975107 -4.987450531593473 8 -1 1
1226 246 1 0 3.9256648739373947 -2.7717020125369647 -4.774508654743105 23 0 1
1227 246 3 0 3.968551380431533 -2.3115241842143712 -4.758052214085802 23 0 1
715 143 3 0 -6.361147669807868 -0.060320426652641146 -5.020468486128852 18 0 1
604 121 3 0 -1.1959918517949406 -0.2456089183724668 -4.72804780442393 3 -1 0
1448 316 4 0 -1.3023367087389959 -0.20051453268690267 -5.116848326902763 11 0 1
864 173 3 0 -4.916332836798385 -7.973458726387246 -4.506561330220398 9 0 1
862 173 3 0 -5.36448604354757 -7.5525881874619545 -4.1278516495851925 9 0 1
861 173 1 0 -4.977252045132273 -7.780972719472723 -4.127507908711593 9 0 1
863 173 3 0 -4.987403197110316 -8.0727210631735 -3.8272362141466427 9 0 1
865 173 3 0 -4.634414836427126 -7.485382126257879 -4.054662159835721 9 0 1
888 178 3 0 -1.6835523353996162 -7.75052537455899 -4.385637195628065 50 2 1
887 178 3 0 -1.4576731766613173 -8.198289048989542 -3.866973784509173 50 2 1
886 178 1 0 -1.6250287832757762 -7.777470377775375 -3.9689120486846834 50 2 1
890 178 3 0 -1.3263619666438098 -7.455648281805427 -3.8366267606189703 50 2 1
889 178 3 0 -2.03350145950814 -7.702645429302079 -3.750658254779509 50 2 1
899 180 3 0 2.4763037447958354 -7.585318862332705 -3.793398260076753 30 1 1
1386 296 2 0 3.7348178303912345 -8.240600913070882 -4.024090047508411 28 1 0
1388 296 4 0 3.274104931124837 -8.288800676701753 -3.936522652375788 28 1 0
897 180 3 0 3.163561732661556 -7.8923398767381405 -3.912439991852815 30 1 1
1387 296 4 0 4.196516945377715 -8.187886611808759 -4.119994809434201 28 1 0
278 56 3 0 4.41940546692706 -8.255383823907142 -3.780796883004532 -8 -1 -1
277 56 3 0 4.745183590994543 -7.624278586433261 -3.7477488886733896 -8 -1 -1
279 56 3 0 5.1326871171090005 -8.230478030158073 -3.9096638907216885 -8 -1 -1
1583 361 4 0 -4.672685078968465 -7.259005851492902 -4.394504466985492 13 0 1
1744 415 4 0 -1.0147135142144155 -7.2486943565803115 -4.007507027371299 29 1 0
1743 415 2 0 -0.6012786308960019 -7.264842811038352 -3.855136715255311 29 1 0
2 1 3 0 -8.110368572868664 -6.446227166419986 -3.931230883550617 16 0 0
3 1 3 0 -7.398903916964189 -6.464613622671512 -3.7359898332007324 16 0 0
1867 456 4 0 -6.316695302257957 -5.8851758034112684 -4.351125791772371 10 0 1
718 144 3 0 -6.205295370514108 -5.695449682731427 -4.011638971395136 9 0 0
716 144 1 0 -6.005671648607745 -5.383725477194926 -3.7650060168607515 9 0 0
717 144 3 0 -5.697842590150531 -5.167570067914327 -4.010726814286412 9 0 0
482 97 3 0 2.4645767750092276 -4.087723150683192 -3.810912392701807 11 0 1
1639 380 4 0 3.344329908118816 -4.002670226707248 -4.073919012989635 26 1 0
31 7 1 0 2.0544371579885414 -2.8874820158969925 -4.020122913974784 1 -1 1
32 7 3 0 1.8971709572659154 -3.242407417157387 -3.775063864281849 1 -1 1
33 7 3 0 2.160872537823689 -3.017386218931856 -4.422316765956218 1 -1 1
1675 392 4 0 2.454266809465592 -3.250709573834045 -4.558508592331035 31 1 0
1638 380 2 0 3.6199208453699416 -3.684742758221363 -4.178323680515331 26 1 0
1640 380 4 0 3.898488657942524 -3.3653393384757013 -4.2847049404471536 26 1 0
1230 246 3 0 3.9317082961817356 -2.963899696496192 -4.329800474027872 23 0 1
1075 215 3 0 -6.006418120019337 -1.8698931065352866 -4.014518862812432 32 1 0
1790 430 4 0 -5.861846130974449 -1.8696872649391976 -4.381776446899716 16 0 1
1072 215 3 0 -6.516479029422958 -2.3733247240820976 -3.7399178765970014 32 1 0
1134 227 3 0 -1.177355199366965 -2.7412209391737337 -4.366629826651655 8 -1 1
1996 499 4 0 -0.8273114567662834 -2.6431600490369203 -4.20795937638779 32 1 1
1995 499 2 0 -0.462329389419482 -2.471144760573887 -4.017163340093776 32 1 1
1997 499 4 0 -0.08916963591785887 -2.299696316495168 -3.818313159044915 32 1 1
1088 218 3 0 0.2960222360924316 -2.2068737797792464 -3.770653688202195 31 1 1
1090 218 3 0 0.8907801895394982 -2.495542259359138 -4.092843561705873 31 1 1
1086 218 1 0 0.6463960243979141 -2.135880788398712 -4.063872719245885 31 1 1
1089 218 3 0 0.4831081857850599 -2.030451894903999 -4.458262461253533 31 1 1
34 7 3 0 1.7492215290588096 -2.5923531930571606 -4.045534152626064 1 -1 1
35 7 3 0 2.4148810177474562 -2.7085725330365964 -3.8253930898961492 1 -1 1
1351 284 4 0 2.748696334561304 -2.47340087491218 -3.785695327175784 24 0 0
1788 430 2 0 -5.481176340623211 -1.6067848861422194 -4.4348514486798605 16 0 1
1789 430 4 0 -5.111666855210888 -1.3690403728045553 -4.482887223194144 16 0 1
1147 230 3 0 -4.849130755166588 -1.0958390814332661 -4.406754208447682 40 1 1
1255 252 4 0 1.3062592225634706 -1.768318950947756 -3.9216352889159136 19 0 0
1087 218 3 0 0.8998615715371674 -1.7936928872362916 -3.915357898400302 31 1 1
1254 252 2 0 1.7118525319938787 -1.6185239731297285 -3.7503333748249963 19 0 0
1146 230 1 0 -4.8595552305276595 -0.667270690173674 -4.253487937163608 40 1 1
1150 230 3 0 -5.2603460748419515 -0.5474819106193705 -4.204038337195675 40 1 1
1148 230 3 0 -4.632121017081213 -0.6479077590861433 -3.847778042698982 40 1 1
1149 230 3 0 -4.661915058980652 -0.4000525806259452 -4.550521876819058 40 1 1
601 121 1 0 -1.1959700124141595 -0.17063438337015135 -4.281955985604389 3 -1 0
602 121 3 0 -1.2484747725448546 -0.5488924959916162 -4.0543769661139795 3 -1 0
1107 222 3 0 1.9326681308786995 -0.3617766301933374 -4.2851847879903415 21 0 0
1110 222 3 0 2.1761074211214417 -0.007289454026187414 -3.712780736069041 21 0 0
444 89 3 0 -7.848530306660433 -7.5454434202892715 -3.512104341414627 17 0 1
441 89 1 0 -7.662967772738264 -7.693833804933658 -3.107870975829629 17 0 1
443 89 3 0 -7.928945274062538 -7.979350957912685 -2.9221904994163346 17 0 1
445 89 3 0 -7.279227156515059 -7.893983988367737 -3.196204854942607 17 0 1
702 141 3 0 0.3784436033304317 -7.665267408898578 -2.927397706420418 34 1 0
705 141 3 0 0.19510412522680198 -7.446688818957864 -3.617234623793557 34 1 0
701 141 1 0 0.4780647522302104 -7.7018098723671455 -3.373186688979242 34 1 0
704 141 3 0 0.44244113341143 -8.138886574848716 -3.499469318139516 34 1 0
703 141 3 0 0.9173816154205099 -7.568759313346597 -3.4531012628608053 34 1 0
1436 312 4 0 1.0839624402702466 -7.680562087405537 -3.126960033308251 9 0 0
1434 312 2 0 1.4281089911125093 -7.698928149270087 -2.839170377435444 9 0 0
896 180 1 0 2.8413400680986705 -7.75512144198684 -3.5878814699699833 30 1 1
900 180 3 0 2.7243190167471045 -8.117419071405875 -3.3406312899282105 30 1 1
276 56 1 0 4.782866236492664 -8.062076772751807 -3.6676887850293785 -8 -1 -1
280 56 3 0 4.853962728540745 -8.120688903336902 -3.251055424065151 -8 -1 -1
442 89 3 0 -7.59173318456577 -7.362602107800871 -2.835406133566983 17 0 1
5 1 3 0 -7.915166603156896 -6.631685538710143 -3.2421297480232667 16 0 0
1745 415 4 0 -0.17104778767945383 -7.2802251209776 -3.702748859913024 29 1 0
898 180 3 0 3.0342999873105967 -7.4143209786215 -3.2965087817058185 30 1 1
1188 238 3 0 4.671675308935804 -6.531937151327529 -3.201930815915225 28 1 2
4 1 3 0 -7.837888720410948 -5.947914694593031 -3.4633283973265705 16 0 0
1 1 1 0 -7.814683814385832 -6.376736404166464 -3.5917002810696186 16 0 0
1757 419 4 0 -5.830528776966814 -5.6060200057734555 -3.008641382690344 31 1 0
719 144 3 0 -5.8080803770813905 -5.587402190375248 -3.414595141300981 9 0 0
1186 238 1 0 4.7223187622131455 -6.412324958238147 -2.7844326373000614 28 1 2
720 144 3 0 -6.303964842774633 -5.093361489628501 -3.613427471168997 9 0 0
481 97 1 0 2.782362188028788 -4.0246366179762765 -3.5062813875968537 11 0 1
485 97 3 0 2.8303260855725263 -4.4134294062086745 -3.2412657708595622 11 0 1
483 97 3 0 3.1847334867639603 -3.9361320328495273 -3.703837037720149 11 0 1
936 188 1 0 7.281923239766703 -3.78715621687482 -2.8371862789980096 9 0 1
939 188 3 0 7.036601523525645 -3.8853226437066093 -3.185679146155807 9 0 1
937 188 3 0 7.667845835749631 -4.068459819588802 -2.849444208902833 9 0 1
484 97 3 0 2.6647357748950267 -3.6620702334274204 -3.2428407105059938 11 0 1
362 73 3 0 4.757202434354161 -2.798451434247699 -3.568163325698306 11 0 0
361 73 1 0 4.687624920642552 -3.2030401711846457 -3.4024861402388735 11 0 0
363 73 3 0 4.2459387390387615 -3.2727263809721574 -3.3310897248458833 11 0 0
364 73 3 0 4.8368793600592035 -3.5102351205084235 -3.6900313477482056 11 0 0
365 73 3 0 4.912402741731228 -3.2458848889670735 -3.0145255442519723 11 0 0
1967 489 4 0 4.953149860714008 -2.9254213327614167 -2.785091426981575 23 0 0
938 188 3 0 7.394696822838666 -3.385970788051562 -2.8566761893516803 9 0 1
1071 215 1 0 -6.15261395114786 -2.0799591629044665 -3.6268352606573533 32 1 0
1074 215 3 0 -5.821064226506667 -2.310426113400932 -3.4345272388633514 32 1 0
1574 358 4 0 -5.577580185657128 -2.420156807862355 -3.15292793964311 32 1 1
1572 358 2 0 -5.351144474539691 -2.549720313358968 -2.7994047006154235 32 1 1
1350 284 2 0 3.1057258743980523 -2.335109932386673 -3.4907186054223347 24 0 0
1352 284 4 0 3.455814672781866 -2.1915717801053773 -3.1942874925871063 24 0 0
697 140 3 0 3.698496527661332 -1.8744417282960564 -3.2202557128974885 13 0 0
1073 215 3 0 -6.292965385676135 -1.7847364954563387 -3.345851925340379 32 1 0
1256 252 4 0 2.084697149983082 -1.48577325400362 -3.58594283642132 19 0 0
1832 444 4 0 2.25890315981065 -1.1293723003890417 -3.617344349363367 23 0 0
1830 444 2 0 2.6894022248367264 -1.1255611530232263 -3.5408059837433035 23 0 0
1831 444 4 0 3.1407400267401613 -1.112410127935883 -3.4469632986064127 23 0 0
698 140 3 0 3.3808343442169146 -1.2069470423145052 -3.1575071991495944 13 0 0
696 140 1 0 3.6671441969389154 -1.5033161163485236 -2.9661777894528605 13 0 0
1990 497 4 0 4.4309857358912055 -1.0666137173458772 -2.881559622481233 23 0 1
700 140 3 0 4.110964690291302 -1.2925877791720906 -2.923572768478394 13 0 0
1056 212 1 0 6.368859096701778 -1.0178923804089868 -3.406472249664505 25 0 1
1058 212 3 0 6.083383499200133 -1.0113826333542244 -3.072792584769423 25 0 1
1060 212 3 0 6.242011274739742 -1.3290690872115807 -3.694825337308375 25 0 1
1057 212 3 0 6.7653174807531915 -1.120567317261318 -3.2524185978787212 25 0 1
1801 434 4 0 2.0416220220901096 -0.16227296268713687 -3.357327754050006 23 0 1
1059 212 3 0 6.3775626990157 -0.6257676685680957 -3.6056236064185505 25 0 1
1828 443 4 0 -8.162393645320586 -7.925660632876744 -2.6057929943790032 23 1 -1
1827 443 2 0 -8.174715542675552 -7.916870104001825 -2.172392506197829 23 1 -1
502 101 3 0 1.9561700046225496 -7.794213124703183 -2.2140662090236543 9 0 1