LAMMPS data file via write_data, version 4 Feb 2025, timestep = 1013, units = lj

40 atoms
4 atom types
30 bonds
1 bond types
35 angles
2 angle types

-2.265589 2.265589 xlo xhi
-2.265589 2.265589 ylo yhi
-2.265589 2.265589 zlo zhi
0 0 0 xy xz yz

Masses

1 1
2 1
3 0.1
4 0.1

Bond Coeffs # harmonic/omp

1 100 0.45

Angle Coeffs # harmonic/omp

1 100 180
2 100 109.471

Atoms # full

9 2 3 0 -1.9173712957660074 -0.3329671373733154 -0.8246197588119388 1 0 0
6 2 1 0 -1.590028495703725 -0.34790328523058145 -1.1243076887368137 1 0 0
8 2 3 0 -1.7141115704384657 -0.6181940282833847 -1.4683507853036875 1 0 0
7 2 3 0 -1.1970509684295998 -0.5213012897985265 -0.9193716683460817 1 0 0
4 1 3 0 0.08225371208798826 -0.352001029759051 -1.648650441465937 1 0 0
1 1 1 0 0.24278728673265126 -0.7664118745975501 -1.4931039250252425 1 0 0
3 1 3 0 0.024674486252002303 -0.8788604269239748 -1.0909335995882266 1 0 0
5 1 3 0 0.15539800275137283 -1.092650540299344 -1.8067051726762593 1 0 0
2 1 3 0 0.6878108516819226 -0.7416191737825955 -1.4229233705269837 1 0 0
13 3 3 0 -2.1236636042815493 -1.9375721813311675 0.4697597748977538 1 0 0
28 6 4 0 -0.23457894481981656 -2.03681223082873 -0.1095536614936603 0 0 0
14 3 3 0 1.7249320858826915 -2.13546273424962 0.536445200242361 0 0 0
11 3 1 0 2.0883209913069556 -2.0269743899081254 0.7530722911896364 0 0 0
19 4 3 0 0.7483997882218212 -1.1016063828458131 1.5325153300862246 0 0 0
15 3 3 0 2.0159907199035465 -1.6606752013257975 0.9952822724110946 0 0 0
20 4 3 0 0.7083005951817918 -0.5741936442839153 1.0240859221849692 0 0 0
18 4 3 0 1.1823587862115894 -1.1058325704784975 0.9384899018651613 0 0 0
16 4 1 0 0.9888672993797805 -0.8417643816945519 1.22943238867632 0 0 0
17 4 3 0 1.326290069791117 -0.565672825736176 1.4531078046073875 0 0 0
10 2 3 0 -1.5087963993477023 0.06488002784005431 -1.2835252904804775 1 0 0
39 10 4 0 -0.6598034990393524 0.5985125667533535 -1.8876823557980238 1 0 1
38 10 2 0 -0.35837164740017635 0.7338620208285263 -2.230812650683277 1 0 1
31 7 4 0 1.031907067488619 0.27013731204161306 -1.3284126201743005 1 0 0
29 7 2 0 1.3927484976908326 0.5118236706440573 -1.2046456409838053 1 0 0
30 7 4 0 1.7289763860620004 0.7410717483071969 -1.0861850037349852 1 0 0
32 8 2 0 -2.2454529140110178 1.6878972622268842 -1.7109177669531876 2 0 0
34 8 4 0 -2.2544283121554645 1.8948678233089438 -2.0862118812152515 2 0 0
33 8 4 0 -2.223939084377145 1.4705187813640577 -1.290213710985567 2 0 0
21 5 1 0 -2.0928799161438048 0.48121473936500436 0.5225424091917055 2 0 0
25 5 3 0 -1.75483377080386 0.7824809818734084 0.5556383643326375 2 0 0
23 5 3 0 -1.9106633436636686 0.06424725365749673 0.47850731982696537 2 0 0
36 9 4 0 0.7123957992425383 0.6934071520680107 0.2806382493008073 1 0 0
35 9 2 0 1.1489983783536921 0.8757837275073039 0.21711557385552194 1 0 0
37 9 4 0 1.5550619665180188 1.0407014679314837 0.1578466405601966 1 0 0
24 5 3 0 2.1895731242224277 0.5711211038472421 0.13776577042313232 1 0 0
27 6 4 0 -0.9031875100340994 1.957331025102238 -0.3558482009665531 0 -1 0
26 6 2 0 -0.5534074452224087 2.231298932451979 -0.2308732174061232 0 -1 0
40 10 4 0 -0.08137512220680065 0.8513458647613472 1.9711245748276647 1 0 0
22 5 3 0 2.1605994959685195 0.4978811789826989 0.9162342021691239 1 0 0
12 3 3 0 2.2266027779134654 2.157473846191578 1.0445997297271865 0 -1 0

Velocities

9 1.528100192218357 1.2948378816704358 -0.8305965638232506
6 1.6472358448458182 0.11004747462288411 0.03963203603828194
8 2.1510733244120632 1.584485176450668 -0.7756767489189543
7 0.8042365971846235 -1.5027964278133388 0.00032215438010693015
4 3.348118985351238 0.1126997360518712 -0.7297964001777311
1 1.257349935690857 -0.27763851520209937 0.42335453166589604
3 1.2086331244732087 0.8074968556354005 -0.19269505716213375
5 1.125389271323057 -0.8488644943058746 1.0166505653210733
2 1.3077185583599802 0.15736960794664262 -0.3078584822142405
13 0.12981293259242271 -0.1878004584132156 -0.9906433859121995
28 2.893370952322066 0.7320588418745573 0.6714322022260437
14 1.237112994730043 -0.8063872809642253 1.5059752367701777
11 0.7679255267680984 -0.08401768392839887 -0.16079731758357343
19 0.35659464585680745 -0.771285182811412 -1.0092535970789878
15 0.874783466498187 0.9103766407042405 0.010154831462137776
20 1.7749316629466225 0.6889230085120138 -0.26955075368549575
18 -0.2573265549199608 0.2704190175037631 -0.4629687353936461
16 1.2802933223327113 0.015710864426338414 -0.06041815630265408
17 1.434981372798378 -0.973775215251071 0.8287373792064036
10 0.42047855230521325 0.5827533723505247 -0.620378989587124
39 3.5166135661106974 -0.2586027554677721 -1.593809190979224
38 3.2970829911376054 0.47689996069870305 -0.06741701934749053
31 3.68604751311181 0.5225372084364425 -0.3287915648803581
29 2.603987852148667 0.13121162827883354 -0.08214753121604511
30 2.203431268351595 -0.11370885946231025 1.2116513872886585
32 3.79890963944727 -0.03888627739974414 -0.40081861390519186
34 5.31173590704188 -0.2141741951153046 0.9234445565674338
33 3.1611617049007132 -0.1282818325060819 0.039464682328584494
21 2.6949880392778405 -0.08224281635651237 0.09303139780671711
25 3.191474140920266 -0.3569712447902906 0.032480142042465764
23 4.160360865705105 0.40446535288649055 -0.1732086374832496
36 3.380735316588956 -0.5467686670055805 -0.027431533111704792
35 3.246696132263258 -0.26443100578622986 0.5684197747023528
37 3.733554188463963 0.25581665705074486 -0.32154299008353304
24 2.666283001013073 0.21340339574779305 -0.08321538670088788
27 3.5788813269726925 -1.0232234662695296 -0.9658269437863959
26 3.5974219152128173 -0.19841261528844661 0.05099437315940099
40 3.8041440344362516 0.25436586377648274 -0.013731250370406345
22 2.868381332395193 1.31163051261752 -0.6668336786851302
12 1.8337188014190313 -0.2532905358324882 0.08536203860477373

Bonds

1 1 6 7
2 1 6 8
3 1 6 9
4 1 6 10
5 1 1 2
6 1 1 3
7 1 1 4
8 1 1 5
9 1 11 12
10 1 11 13
11 1 11 14
12 1 11 15
13 1 16 17
14 1 16 18
15 1 16 19
16 1 16 20
17 1 38 39
18 1 38 40
19 1 29 30
20 1 29 31
21 1 32 33
22 1 32 34
23 1 21 22
24 1 21 23
25 1 21 24
26 1 21 25
27 1 35 36
28 1 35 37
29 1 26 27
30 1 26 28

Angles

1 2 7 6 8
2 2 7 6 9
3 2 7 6 10
4 2 8 6 9
5 2 8 6 10
6 2 9 6 10
7 2 2 1 3
8 2 2 1 4
9 2 2 1 5
10 2 3 1 4
11 2 3 1 5
12 2 4 1 5
13 2 12 11 13
14 2 12 11 14
15 2 12 11 15
16 2 13 11 14
17 2 13 11 15
18 2 14 11 15
19 2 17 16 18
20 2 17 16 19
21 2 17 16 20
22 2 18 16 19
23 2 18 16 20
24 2 19 16 20
25 1 39 38 40
26 1 30 29 31
27 1 33 32 34
28 2 22 21 23
29 2 22 21 24
30 2 22 21 25
31 2 23 21 24
32 2 23 21 25
33 2 24 21 25
34 1 36 35 37
35 1 27 26 28
