LAMMPS data file via write_data, version 4 Feb 2025, timestep = 1000, units = lj

8 atoms
4 atom types
6 bonds
1 bond types
7 angles
2 angle types

-1.5 1.5 xlo xhi
-1.5 1.5 ylo yhi
-1.5 1.5 zlo zhi
0 0 0 xy xz yz

Masses

1 1
2 1
3 0.1
4 0.1

Bond Coeffs # harmonic/omp

1 100 0.45

Angle Coeffs # harmonic/omp

1 100 180
2 100 109.471

Atoms # full

1 1 1 0 0.3741727359721265 -0.6971951696135921 -1.0088362488745262 0 0 0
3 1 3 0 0.34559079581066054 -1.090573468329425 -0.8037666948090361 0 0 0
4 1 3 0 0.1494366680109671 -0.3920906513508222 -0.776858234886842 0 0 0
5 1 3 0 0.19753401725296338 -0.7322063604038406 -1.3983691233548905 0 0 0
8 2 4 0 0.4166877437077301 -0.34622242251320334 -0.16428765592543426 0 0 0
2 1 3 0 0.8114388830505588 -0.5814826213311619 -1.0527821034918576 0 0 0
6 2 2 0 0.5553179350869848 -0.3287121841704468 0.30513393657530163 0 0 0
7 2 4 0 0.6962684341499701 -0.3030353215734054 0.745166007494328 0 0 0

Velocities

1 0.6853861644735327 -0.02707728472253846 0.2979199017996087
3 -0.299190302202844 0.08517380639680944 -0.6241920533859133
4 1.3900971093369625 0.6763262577680803 0.26821285111753546
5 -0.31667250950054815 -0.5848673450137448 0.007750833524112381
8 0.6107983312791996 0.4269426362928703 -0.5960903599719121
2 -0.017551459706689254 -0.3679333344867775 -0.6057107697950572
6 0.8360939713131741 0.059750685160249076 -0.01905016739978179
7 -0.14653330006634935 -0.7676738802272305 -0.965794540604258

Bonds

1 1 1 2
2 1 1 3
3 1 1 4
4 1 1 5
5 1 6 7
6 1 6 8

Angles

1 2 2 1 3
2 2 2 1 4
3 2 2 1 5
4 2 3 1 4
5 2 3 1 5
6 2 4 1 5
7 1 7 6 8
