LAMMPS data file via write_data, version 19 Nov 2024, timestep = 1500000, units = lj

11 atoms
4 atom types
8 bonds
1 bond types
8 angles
2 angle types

-4 4 xlo xhi
-4 4 ylo yhi
-4 4 zlo zhi

Masses

1 1
2 1
3 1
4 1

Bond Coeffs # harmonic/omp

1 100 0.45

Angle Coeffs # harmonic/omp

1 100 180
2 100 109.471

Atoms # full

10 3 4 0 -2.94403424718875 -0.4122987842915439 2.1418902318695676 0 0 0
9 3 2 0 -3.2900833768214905 -0.40258379921790793 2.435692367060105 0 0 0
11 3 4 0 -3.633283232403591 -0.4036798825324958 2.732260234416056 0 0 0
8 2 4 0 2.620725779472225 2.269827151408361 1.6462672915209582 0 0 0
3 1 3 0 2.2208020743150794 1.6045124548862164 3.055369074966401 0 0 0
1 1 1 0 2.271393575100375 2.0344676641376096 3.0465008877939654 0 0 0
5 1 3 0 1.9333964101045757 2.2109780531764236 2.830704772535329 0 0 0
4 1 3 0 2.2827842838323242 2.189139692009826 3.4810634040915023 0 0 0
2 1 3 0 2.6704849402270097 2.137382597668751 2.839005406645071 0 0 0
7 2 4 0 2.8463116268010866 2.2616572000188824 2.5071307420894287 0 0 0
6 2 2 0 2.7389329577723314 2.268535395061426 2.0752357593547215 0 0 0

Velocities

10 0.09041363190137494 0.02571434677038669 -0.19133461853914438
9 -0.04097001360518272 -0.2738145996437441 0.25381325691139367
11 0.328246617913538 0.12691598032799062 -0.09126250034559762
8 0.19607795329704739 -0.2932710437593215 0.08065424350365938
3 0.13537230456170415 -0.02083717707191988 -0.11138532748342272
1 0.034106052668184936 0.4356464161757344 -0.046273193211051944
5 0.1784910276774867 -0.050078615932582796 -0.08020505125596078
4 -0.18750994716265154 0.1823167518603136 -0.08093373533121212
2 -0.07213570106155663 0.06633726406088623 0.35102096269802335
7 0.1796544907271849 -0.025446030965702596 -0.02734365199002614
6 0.08605048838060318 -0.176556943093798 0.20576683074736915

Bonds

1 1 9 10
2 1 9 11
3 1 1 2
4 1 1 3
5 1 1 4
6 1 1 5
7 1 6 7
8 1 6 8

Angles

1 1 10 9 11
2 2 2 1 3
3 2 2 1 4
4 2 2 1 5
5 2 3 1 4
6 2 3 1 5
7 2 4 1 5
8 1 7 6 8
