LAMMPS data file via write_data, version 4 Feb 2025, timestep = 4000, units = lj

64 atoms
4 atom types
48 bonds
1 bond types
56 angles
2 angle types

-2.5 2.5 xlo xhi
-2.5 2.5 ylo yhi
-2.5 2.5 zlo zhi
0 0 0 xy xz yz

Masses

1 1
2 1
3 0.1
4 0.1

Bond Coeffs # harmonic/omp

1 100 0.45

Angle Coeffs # harmonic/omp

1 100 180
2 100 109.471

Atoms # full

26 6 1 0 -2.2696366781339856 -0.6954790327250804 -1.7052585261360447 3 1 1
29 6 3 0 -2.2836304080515313 -0.803860738393511 -2.14168836165528 3 1 1
28 6 3 0 -1.881638848296543 -0.7468302942636038 -1.5632143709167625 3 1 1
30 6 3 0 -2.4005695259076734 -0.2539832435454823 -1.6569214722988774 3 1 1
12 3 3 0 -1.5089897765921885 1.5911648541638943 1.274901378550961 -2 -3 0
13 3 3 0 -1.3158457389663853 2.3028378789985915 1.3249361445534822 -2 -3 0
14 3 3 0 -0.9302164779544659 1.751095627443755 1.675067664512091 -2 -3 0
11 3 1 0 -1.1665136231878992 1.8525093729396538 1.3031620824592416 -2 -3 0
50 12 2 0 -0.11929118199983035 1.9014026146705536 1.5762437463602597 1 -1 0
51 12 4 0 -0.5418121370502125 1.8065237852884017 1.6765267837533395 1 -1 0
15 3 3 0 -0.9020335856919481 1.7995523549061785 0.9416409604329967 -2 -3 0
47 11 2 0 0.3520511841767804 -2.357937276084614 -1.2049714774736933 1 1 1
6 2 1 0 2.047228723791637 -1.9062260584758555 -1.986019535432907 -2 -1 2
10 2 3 0 2.234452574185326 -1.6468380022746998 -1.708961100880437 -2 -1 2
7 2 3 0 1.796921747198775 -2.2002493703251496 -1.774353029514999 -2 -1 2
9 2 3 0 1.786282123261655 -1.6712607149543026 -2.272598190305368 -2 -1 2
8 2 3 0 2.369266060490628 -2.1376113253359414 -2.234249109387141 -2 -1 2
45 10 4 0 1.5777497096854844 -2.4689914268293585 -2.059738505791152 2 2 1
61 15 4 0 2.1198042426748778 -1.016231238343865 -1.224853572898904 1 0 2
59 15 2 0 1.683026478950043 -1.163486243631677 -1.1362178270963388 1 0 2
27 6 3 0 2.443357049395752 -0.974297018683854 -1.46166628933656 2 1 1
60 15 4 0 1.262528227272686 -1.2898585246493464 -1.0583208085217768 1 0 2
25 5 3 0 1.0940154908489075 1.7277701080425514 -1.5371056194831882 2 0 0
21 5 1 0 1.0375183761747842 2.075880866620432 -1.8428673073331951 2 0 0
23 5 3 0 1.0719276650415148 1.9040070328713474 -2.2757321308859737 2 0 0
22 5 3 0 0.6533574738191565 2.261572952483009 -1.7943800434758006 2 0 0
48 11 4 0 0.31062542678270955 2.4052675043365017 -1.5843227872099837 1 0 1
56 14 2 0 1.5100507358875408 1.5205127571196329 -0.9069350869867208 1 -1 1
24 5 3 0 1.347435415000593 2.3803644330323195 -1.7784281765193244 2 0 0
58 14 4 0 1.3857149456960727 1.8380371153979151 -1.2685235780361224 1 -1 1
2 1 3 0 1.2216137110898195 -1.7618686358546554 -0.22477287336100504 1 1 0
4 1 3 0 0.7533872961689889 -1.9887063035127865 -0.7301122187979776 1 1 0
43 9 4 0 0.16609798428522327 -1.5778768139828414 -0.022662456178702328 -1 -1 0
1 1 1 0 0.8740318677769214 -1.6502949411149623 -0.46021893397029423 1 1 0
5 1 3 0 0.5152459560422589 -1.534082962098596 -0.18369906365241162 1 1 0
41 9 2 0 0.15361546038656426 -1.8498243081231527 0.32086822354382827 -1 -1 0
42 9 4 0 0.1458109953575848 -2.135836784263488 0.6882184902460264 -1 -1 0
49 11 4 0 0.3810586089359358 -2.1060585750229754 -0.8214801687358486 1 1 1
55 13 4 0 1.363412730069423 -1.689422778837895 0.11469933424685674 2 1 1
53 13 2 0 1.5829346004280351 -1.8316060446771911 0.45941050942555917 2 1 1
54 13 4 0 1.8039389600680984 -1.9828620051585124 0.818918277286298 2 1 1
3 1 3 0 0.9776971398361538 -1.2623785553533933 -0.7247066491682759 1 1 0
38 8 3 0 1.6885448754747383 0.3315615962607983 0.043309129635837884 1 -1 1
37 8 3 0 1.0095085760236575 0.5925111862558152 0.02964742288789468 1 -1 1
40 8 3 0 1.5473061804265047 1.0223377914867804 0.303799102714033 1 -1 1
36 8 1 0 1.430880059361595 0.7088225312885887 -0.01714869753476922 1 -1 1
64 16 4 0 1.8709016522885706 0.9476110036159002 0.5632345619131582 3 1 1
62 16 2 0 2.04367535125518 1.3655358378383764 0.6565506626759188 3 1 1
39 8 3 0 1.494788064674962 0.88487340403272 -0.431463636489557 1 -1 1
57 14 4 0 1.6442099550543023 1.235619852107046 -0.5493807033661589 1 -1 1
35 7 3 0 0.8733883400572906 2.1890923660739396 0.531534351655556 2 0 0
20 4 3 0 2.306288775428956 2.1590281563291267 0.8218332944070381 2 0 0
63 16 4 0 2.228891635180805 1.7845061775569633 0.7680255998774821 3 1 1
34 7 3 0 1.0199205613207596 -2.46042375442207 1.13757789936888 2 1 0
33 7 3 0 0.4055108150504645 -2.4122132521292308 0.8523583837219739 2 1 0
18 4 3 0 1.7212223397738509 -2.352756378182673 0.9202731289308641 2 1 0
19 4 3 0 2.352983867387871 -2.2318753583362607 1.2863939219347698 2 1 0
31 7 1 0 0.7140513404135178 2.340194787195667 0.9286525565242476 2 0 0
32 7 3 0 0.5649748188568586 1.9871899639383441 1.1795698761880824 2 0 0
52 12 4 0 0.3082503328610904 1.9949451996595773 1.472846737440797 1 -1 0
44 10 2 0 1.7091943578773208 2.346750513892834 2.3746865414931975 2 1 0
46 10 4 0 1.8232467301258817 2.2092029500151735 1.9243689699939228 2 1 0
17 4 3 0 1.9316396465897618 2.1857217726754765 1.4986778786337234 2 0 0
16 4 1 0 2.0780477844843324 2.4494621593972017 1.1281191581114314 2 0 0

Velocities

26 -0.09263354761027093 -0.45159711046414697 0.07824810291391338
29 0.27480983161620964 -0.9846388359868102 -0.442561967161542
28 -0.21067157388972158 0.6825374620210645 0.35042180072952744
30 0.4603011118664347 0.175537576670678 0.4944127098832897
12 0.721635914934168 -0.6890413466319445 0.6090517354234706
13 1.4778773445339939 -0.12870038059056846 0.007685351483520719
14 0.9130858114933496 0.9299812342360421 -0.1340689678951113
11 0.6049507085328657 -0.09039884725444221 -0.2546324304788286
50 1.1729826852481275 -0.3150468792136719 -0.1808664702738125
51 1.2054594046276441 -0.9209638994987429 0.1657615406754472
15 -0.6449771044055652 0.4793274302436137 -0.16910371355276568
47 0.2395636445516216 0.06091960764001936 -0.23935154109348952
6 0.44429132678649685 0.7459014916920269 1.2267248666338428
10 1.0478212733595647 1.9851346068341533 0.09198104173965845
7 1.2529330929630849 2.8574664399591763 0.9481926321512354
9 -0.3010678609612317 0.5810578799548807 0.6575375526195868
8 -0.7711287517405038 -0.9141221679513006 0.5135584853217864
45 0.9020954449793241 -0.1671082404317285 4.322224628188954
61 -0.6346818530620375 -0.16433653080213412 1.665443452531011
59 0.3683274647067837 -0.15206476879629158 -0.060588988643085
27 0.003939633895509498 -0.15434380388582045 -0.6172641434867223
60 1.2585184349093481 0.22936133971753536 0.5922530902123451
25 0.1820809320904948 -0.023345178355213075 0.06342845252474799
21 0.8096486077574531 0.11905520690562674 0.5089868086666698
23 2.3400676763422092 0.03136664036433007 -0.7530104423986017
22 0.10694853992128772 -0.1286200798480406 -0.04649784674927034
48 1.6427876396880112 0.2101693294160611 -0.8525138385746325
56 0.8819762572968136 0.005509421283560047 -0.12458986718924761
24 0.27117751819838376 0.6247942853685031 2.520432044828359
58 0.48170337411389796 0.9804272081509102 -1.1548891982846068
2 -0.7669617231623618 0.5091026244636062 -1.1527860578462599
4 2.15639471970706 -1.0481386147302696 -0.7362830105480598
43 1.2807942179233258 -0.18418873134609182 0.6008458352413463
1 0.6498169576320844 0.22729228868559145 -0.1880822280667695
5 -0.05706359011247708 -0.5267912252797783 0.34818873192558186
41 0.7502900031807048 -0.060319159210254915 -0.0015077409780721793
42 1.2467667259656543 0.8018900284953602 -0.21804883912086015
49 0.2703290543621403 -1.5847160175890236 1.0175471189997016
55 -0.2545388186240862 0.05812170122083044 0.13800802394384784
53 0.27630484859041093 0.36241997739841547 -0.05432664300266414
54 0.026764553054584084 -1.3474335058148026 0.5936264005316775
3 -1.2234256418189475 0.06605702075029152 0.35774789803467544
38 2.278517415783924 -0.1586653270925401 0.37738091895164755
37 0.7338097295967092 -1.0672182343929626 0.5126295583798728
40 0.5878372946152572 -0.16036195806947628 1.5629713647218972
36 1.120118474481374 0.13941046882534913 -0.2458835799863602
64 0.4054387325778392 1.2136573322937259 1.099142762953841
62 1.2053895877809795 0.17568260619666892 0.18552332266110508
39 -0.9033752326269497 -0.7021510192904955 0.32634282087379896
57 1.0633965662325227 1.5111271684002858 -0.33821618013564103
35 0.6503330969788348 0.38275155177800285 0.42089716968710733
20 -1.072584437723545 0.49236329501372744 0.9745305440380116
63 1.263953050937871 0.7589514378649461 -1.019894859224995
34 0.12452959457129678 -0.42740860006391107 0.6643745452070965
33 1.0130640087094236 0.747403858987425 0.6479953264404487
18 0.8254950740441006 1.3358565354363576 -0.9059649186209621
19 -0.07724688521265363 0.8399770865770224 -0.9370701890792215
31 0.8307267872241094 0.030234816016249215 0.37763064787868617
32 0.9034863189350782 -1.2199692603182861 0.37865638654447364
52 -0.18246296657497862 0.8569133595451639 0.6200346417041286
44 0.9032417033075336 -0.3916979413491228 1.3559549881593722
46 1.9752921969733777 -0.654080995323603 0.10227124691267812
17 1.6629572760671063 0.5307496186001759 -0.723048177902433
16 0.8744319520450299 -0.22324064741787975 0.02873914556152107

Bonds

1 1 26 27
2 1 26 28
3 1 26 29
4 1 26 30
5 1 11 12
6 1 11 13
7 1 11 14
8 1 11 15
9 1 50 51
10 1 50 52
11 1 47 48
12 1 47 49
13 1 6 7
14 1 6 8
15 1 6 9
16 1 6 10
17 1 59 60
18 1 59 61
19 1 21 22
20 1 21 23
21 1 21 24
22 1 21 25
23 1 56 57
24 1 56 58
25 1 1 2
26 1 1 3
27 1 1 4
28 1 1 5
29 1 41 42
30 1 41 43
31 1 53 54
32 1 53 55
33 1 36 37
34 1 36 38
35 1 36 39
36 1 36 40
37 1 62 63
38 1 62 64
39 1 31 32
40 1 31 33
41 1 31 34
42 1 31 35
43 1 44 45
44 1 44 46
45 1 16 17
46 1 16 18
47 1 16 19
48 1 16 20

Angles

1 2 27 26 28
2 2 27 26 29
3 2 27 26 30
4 2 28 26 29
5 2 28 26 30
6 2 29 26 30
7 2 12 11 13
8 2 12 11 14
9 2 12 11 15
10 2 13 11 14
11 2 13 11 15
12 2 14 11 15
13 1 51 50 52
14 1 48 47 49
15 2 7 6 8
16 2 7 6 9
17 2 7 6 10
18 2 8 6 9
19 2 8 6 10
20 2 9 6 10
21 1 60 59 61
22 2 22 21 23
23 2 22 21 24
24 2 22 21 25
25 2 23 21 24
26 2 23 21 25
27 2 24 21 25
28 1 57 56 58
29 2 2 1 3
30 2 2 1 4
31 2 2 1 5
32 2 3 1 4
33 2 3 1 5
34 2 4 1 5
35 1 42 41 43
36 1 54 53 55
37 2 37 36 38
38 2 37 36 39
39 2 37 36 40
40 2 38 36 39
41 2 38 36 40
42 2 39 36 40
43 1 63 62 64
44 2 32 31 33
45 2 32 31 34
46 2 32 31 35
47 2 33 31 34
48 2 33 31 35
49 2 34 31 35
50 1 45 44 46
51 2 17 16 18
52 2 17 16 19
53 2 17 16 20
54 2 18 16 19
55 2 18 16 20
56 2 19 16 20
