LAMMPS data file via write_data, version 4 Feb 2025, timestep = 13, units = lj

8 atoms
4 atom types
6 bonds
1 bond types
7 angles
2 angle types

-1.5 1.5 xlo xhi
-1.5 1.5 ylo yhi
-1.5 1.5 zlo zhi

Masses

1 1
2 1
3 0.1
4 0.1

Bond Coeffs # harmonic/omp

1 100 0.45

Angle Coeffs # harmonic/omp

1 100 180
2 100 109.471

Atoms # full

1 1 1 0 -0.7600086444286401 -0.5568563147674981 -1.1126817462779426 0 0 0
2 1 3 0 -0.6917615037015016 -0.14645470506038716 -0.9238745911177932 0 0 0
3 1 3 0 -0.7242835205570057 -0.8856008861929219 -0.7906798756763812 0 0 0
4 1 3 0 -1.1811771949561114 -0.5727482238142018 -1.3030396134841615 0 0 0
5 1 3 0 -0.4474248570752833 -0.6285896785106782 -1.4352078604113798 0 0 0
6 2 2 0 -1.0747204411799058 -0.46240851538169375 0.3852299979712839 0 0 0
7 2 4 0 -0.6707493653740846 -0.26187188451231896 0.5787491795104525 0 0 0
8 2 4 0 -1.477851065510272 -0.663908453272549 0.19163960106188085 0 0 0

Velocities

1 0.022292312600954836 0.0893620904679952 0.10267812403729172
2 0.20065848485309343 -0.24399658556512718 -0.32121548640805625
3 -0.06747566792301518 -0.1118185564669785 -0.5192098617283891
4 0.2756805055343 -0.4398620197432323 -0.033590058277662066
5 -0.3296293078057332 -0.4439262016895486 0.08180195624902309
6 0.05781540558473407 -0.0069433685048649555 0.04330789953674535
7 -1.1037043931970683 -0.5786649146453805 -0.5626387822958316
8 1.2183897475044203 0.4357444850909741 0.6371095707049246

Bonds

1 1 1 2
2 1 1 3
3 1 1 4
4 1 1 5
5 1 6 7
6 1 6 8

Angles

1 2 2 1 3
2 2 2 1 4
3 2 2 1 5
4 2 3 1 4
5 2 3 1 5
6 2 4 1 5
7 1 7 6 8
