LAMMPS data file via write_data, version 19 Nov 2024, timestep = 1000000, units = lj

160 atoms
4 atom types
110 bonds
1 bond types
75 angles
2 angle types

-3.758247 3.758247 xlo xhi
-3.758247 3.758247 ylo yhi
-3.758247 3.758247 zlo zhi

Masses

1 1
2 1
3 0.1
4 0.1

Bond Coeffs # harmonic/omp

1 100 0.45

Angle Coeffs # harmonic/omp

1 100 180
2 100 109.471

Atoms # full

100 30 4 0 -1.025758275752162 -3.463352883523952 -2.8621720855047874 0 0 0
87 26 4 0 -1.2394053889003804 -3.1737480678127676 -3.0309291040284734 0 0 0
86 26 2 0 -1.1563635386259232 -2.99447633594935 -3.445498688894429 0 0 0
55 15 4 0 -0.1188174831723162 -0.13330176923765938 -1.020419294831214 0 0 1
27 6 4 0 -2.8130222681181922 -3.407270538307659 -0.31929259213342326 0 0 0
26 6 2 0 -2.9594891854583585 -3.138780189789403 -0.020037242606772334 0 0 0
140 44 2 0 -1.980413632487889 -3.655745774168972 -0.12611820945047694 0 1 1
141 44 4 0 -2.3970372906854576 -3.4665247443771445 -0.19404099202099598 0 1 1
110 34 2 0 -0.644580323896441 -0.273699464285291 -1.537260190464892 1 0 1
111 34 4 0 -1.0400413865359104 -0.2266692041269485 -1.7005961643609444 1 0 1
112 34 4 0 -0.21771345662112176 -0.32455219074472 -1.3493343664514557 1 0 1
148 46 4 0 -3.1961246150684786 -2.5790216361559875 0.5670356616229478 1 0 1
36 9 4 0 -1.1958253547782025 -2.723779485398536 2.2010618436297227 0 0 0
146 46 2 0 -3.5604301487226833 -2.602323134757967 0.821307683659628 1 0 1
28 6 4 0 -3.1244044986856383 -2.861997178580742 0.2993942730458366 0 0 0
109 33 4 0 -1.3278302571501375 -2.5735749730736446 3.425304939543778 0 0 0
37 9 4 0 -1.0419229882821752 -3.5616043052552793 1.8784075237802722 0 0 0
75 22 4 0 -0.21614738960402352 -3.687416627290921 1.3007368551126095 0 1 0
108 33 4 0 -1.3427449096428574 -2.6666094579775392 2.5636447272673784 0 0 0
107 33 2 0 -1.3347918613586363 -2.620684962976178 2.982307349634812 0 0 0
88 26 4 0 -1.0735384367151288 -2.8082630157373623 3.6446364952035815 0 0 -1
35 9 2 0 -1.1171197971503837 -3.1495478126351015 2.0385392725860196 0 0 0
154 48 4 0 -3.1313078847769518 1.0803362244342274 -2.6414071371269654 1 0 0
152 48 2 0 -2.687617483748043 1.2208318504367355 -2.7082154591384677 1 0 0
153 48 4 0 -2.2541872027994834 1.370627079534223 -2.7736183301169053 1 0 0
94 28 4 0 -3.4456134307021675 1.1542899371939848 -2.8788045259505695 1 0 0
3 1 3 0 -1.84127545582318 1.472807450531913 -1.8159564173277571 0 0 0
33 8 4 0 -1.933162956312098 1.2904828405064828 -1.4679222401951195 0 -1 0
159 50 4 0 -1.1680380180770724 3.5433109982928186 -0.059630003537193194 0 0 0
4 1 3 0 -1.9567089733109524 1.5483158942738382 -2.541787905526779 0 0 0
5 1 3 0 -1.3742707624089774 1.140487891037806 -2.299787754844879 0 0 0
41 11 2 0 -1.3075172240656312 0.4557812031073136 -2.051504156602582 0 0 0
1 1 1 0 -1.6445301645883896 1.516923550002922 -2.2127889435515047 0 0 0
42 11 4 0 -1.5231032870824348 0.745435239560605 -2.305839558632783 0 0 0
43 11 4 0 -1.0827055009129571 0.16936957417284634 -1.8059415076392025 0 0 0
2 1 3 0 -1.3944659313018033 1.8929327861542649 -2.2097113799269446 0 0 0
60 17 4 0 -1.3392006058098371 2.300631672242394 -2.193656605148326 0 0 0
61 17 4 0 -1.6206663621477293 3.0308585230616787 -2.655783478775579 0 0 0
59 17 2 0 -1.474951142773344 2.6645724690291646 -2.4211563692854576 0 0 0
99 30 4 0 -1.6010491910505387 3.429076240968609 -2.58142396118784 0 -1 0
73 21 4 0 -3.3067909237867017 0.18347443488972004 -1.4421525192652236 0 0 1
80 24 2 0 -3.179125088315736 0.9603507769391155 -1.0526720224490924 1 0 1
23 5 3 0 -3.294581894487936 1.575049795467283 -0.5126239777436482 1 0 0
21 5 1 0 -3.326557925833593 1.6357857090807904 -0.06997843463148574 1 0 0
82 24 4 0 -3.2044190192020827 0.5594846659370772 -1.3200979291360313 1 0 1
81 24 4 0 -3.1551378544004436 1.3328360924543408 -0.7899047087836764 1 0 1
71 21 2 0 -3.7007482700589516 0.060423335590716526 -1.5493155181298779 0 0 1
32 8 2 0 -2.114970227431088 1.6366967944046098 -1.2276007935808677 0 -1 0
106 32 4 0 -2.557869254081998 2.27119430142717 -1.0364590548126036 0 -1 0
34 8 4 0 -2.2895722372002116 1.9758004759027086 -1.0025010271596881 0 -1 0
105 32 4 0 -3.284844353937229 2.82023131473214 -1.0037098649748857 0 -1 0
104 32 2 0 -2.909996704887954 2.5368680345289962 -1.0290840959011398 0 -1 0
98 30 2 0 -1.3202910824411076 3.7315863709508696 -2.7141672327888586 0 -1 0
142 44 4 0 -1.5648152212071798 3.676238608761679 -0.053091300854564746 0 0 1
25 5 3 0 -2.9432372747640243 1.6485592962802353 0.10310547641415525 1 0 0
22 5 3 0 -3.565842773114875 1.2866408988661497 0.10940089200491468 1 0 0
150 47 4 0 -2.188448112698632 2.4499867558604445 0.6651570406353912 1 0 1
149 47 2 0 -2.401018484531949 2.179641782298932 0.3687390646636208 1 0 1
151 47 4 0 -2.612843797904844 1.8993755989707763 0.05608241358534778 1 0 1
24 5 3 0 -3.541579489492059 2.0124651291832722 0.018613253065259287 1 0 0
135 42 4 0 -2.0892892236128264 2.333871998532609 1.0422283472759877 1 0 1
134 42 2 0 -1.9785854506574199 2.0550887324391525 1.371455983558718 1 0 1
136 42 4 0 -1.8464764845783572 1.7527108763417403 1.7247725758149175 1 0 1
15 3 3 0 -0.8918002175725243 2.9943899357367423 1.6305047465410254 0 0 0
160 50 4 0 -0.989509151653675 3.056771573397819 0.6447249279220273 0 0 0
158 50 2 0 -1.0716516550361752 3.300402144062606 0.2959052798427782 0 0 0
14 3 3 0 -1.0670147378387047 3.2862964738889224 0.9700162664778879 0 0 0
11 3 1 0 -0.9073378646248335 3.3741707721956216 1.3876608081424544 0 0 0
12 3 3 0 -0.49204840250449416 3.5510154458377765 1.3539407623503243 0 0 0
83 25 2 0 -1.2317577441534917 1.8055328037343592 2.1393580881961194 0 0 1
58 16 4 0 -0.740312360735592 1.2736197731591612 2.286974889009749 1 0 1
84 25 4 0 -0.8317521701652217 1.6525140144688997 2.243960903158977 0 0 1
56 16 2 0 -0.5648032201561014 0.9518056581359365 2.5417124579735897 1 0 1
57 16 4 0 -0.3843488784752444 0.6214047290977339 2.808445260459137 1 0 1
113 35 2 0 -2.533539490015016 3.05099323164376 3.322933883061859 0 0 0
115 35 4 0 -2.154999733038804 3.0690925111460494 3.5481438212863856 0 0 0
31 7 4 0 -3.0911872823086393 2.6748094490078227 3.177930587311898 0 -1 -1
29 7 2 0 -3.5470289328542717 2.648797347829849 3.138500830032849 0 -1 -1
85 25 4 0 -1.6601101511624115 1.967624757428464 2.022167167846107 0 0 1
114 35 4 0 -2.923905047914623 3.0191621823631123 3.0871474234489975 0 0 0
144 45 4 0 -0.04796492446257756 0.5492266669421465 3.0000051623455652 0 0 0
13 3 3 0 -1.1778738308902539 3.6682421599099917 1.5944567077826097 0 0 0
129 40 4 0 -3.5112050127359233 2.3958843746815623 0.08068221314812463 1 0 0
62 18 2 0 3.054699962938765 -0.1373136272873206 -2.4145250470659008 -1 0 1
63 18 4 0 2.802828152853917 -0.13389756604012165 -2.8063959245571777 -1 0 1
121 37 4 0 2.9257429468363965 -0.484283767248516 -0.3932478402956611 0 0 0
53 15 2 0 0.32361927499418325 -0.058591592358324354 -0.9776676131843071 0 0 1
18 4 3 0 2.711656355443131 -0.1561974790411128 -0.4551082021161313 0 0 0
124 38 4 0 1.0165416788135835 -0.1924578935299901 -0.7227510279434339 0 0 0
122 38 2 0 1.4540326697075876 -0.08317830838975918 -0.8423430785371234 0 0 0
120 37 4 0 3.6568024547907263 -0.9566108521572889 -0.6523419457084872 0 0 0
72 21 4 0 3.4080808146403783 -0.06885260489853062 -1.6463721613937812 -1 0 1
119 37 2 0 3.288717029373305 -0.7238436841369841 -0.5221910081267059 0 0 0
131 41 2 0 1.6179850714463846 -0.17359638338522498 -2.890366374461003 0 0 1
133 41 4 0 1.5245892157274794 -0.48548210392428115 -2.552291802634104 0 0 1
64 18 4 0 3.291294193520134 -0.137623569965949 -2.045323464264971 -1 0 1
125 39 2 0 1.2279271141551313 -2.6003956473211085 0.21710299178567133 0 1 0
127 39 4 0 1.0395429395606561 -2.1772949906899064 0.2238856208878167 0 1 0
147 46 4 0 3.5956866329507857 -2.628061369816675 1.0738702492323542 0 0 1
38 10 2 0 2.0848996675926648 -3.6428317056200217 2.2693931307025346 -1 0 0
44 12 2 0 1.3447800677179458 -3.6278452917010884 1.3511856110815565 -1 0 0
74 22 2 0 0.21090167453069866 -3.7552295418998725 1.2821546343683856 0 1 0
46 12 4 0 1.6884457474128494 -3.4151610028310717 1.6075475614548222 -1 0 0
126 39 4 0 1.4041184902103165 -2.9964869904996028 0.21352602721758288 0 1 0
67 19 4 0 1.6699344232720412 -3.1893676606076053 0.42807480268642917 0 1 0
65 19 2 0 2.0672148957050034 -3.3948452037646994 0.4595037283920516 0 1 0
66 19 4 0 2.4574073639657312 -3.601506310362044 0.49834487417479406 0 1 0
69 20 4 0 1.1292864656133221 -1.9094332498386493 0.530649462931574 -1 1 0
68 20 2 0 1.0319710456296551 -1.5572187601356628 0.8276495952983295 -1 1 0
39 10 4 0 1.999843686184908 -3.543707841648526 1.8251688590631139 -1 0 0
116 36 2 0 1.0059383558090007 -0.4126069011665873 0.9061115790322243 0 0 0
70 20 4 0 0.9415803190024683 -1.2239458405457357 1.1101202469485862 -1 1 0
118 36 4 0 0.8689259754553992 -0.8477969554953547 0.9573834087881576 0 0 0
156 49 4 0 2.771843386794369 -3.5782005415985165 0.20028231084765294 0 1 2
40 10 4 0 2.1684242179960718 -3.7426982835271243 2.7006840002717833 -1 0 0
95 29 2 0 1.2432419774974663 0.4910328013883758 -3.7083122860115725 0 0 1
96 29 4 0 1.570085735374633 0.45811521717764736 -3.4044095974856985 0 0 1
92 28 2 0 3.6595903954696922 1.1600111426782485 -2.95702024005137 0 0 0
132 41 4 0 1.7105883369467654 0.1229059363344588 -3.218087869882365 0 0 1
54 15 4 0 0.7760195930277508 0.026040529903046693 -0.9336964745299471 0 0 1
77 23 2 0 2.9131570804251625 0.18336697853668513 -3.5112831448999384 -1 0 1
93 28 4 0 3.222572262513416 1.1657982588486038 -3.0457277026213236 0 0 0
79 23 4 0 2.994156097046215 0.07666991346766654 -3.071610104163918 -1 0 1
90 27 4 0 2.855720166376478 0.877219696640761 -0.2920373141609893 0 0 0
123 38 4 0 1.8478947072169345 0.017257383849126527 -0.9574059491599058 0 0 0
89 27 2 0 3.273541884180697 0.9313536440876475 -0.16497767604495772 0 0 0
20 4 3 0 2.624530670382231 0.5620586073212721 -0.39393864297310127 0 0 0
19 4 3 0 2.179963007406376 0.15866465040641808 -0.8172460137173406 0 0 0
16 4 1 0 2.420829121489307 0.169135844412347 -0.4402904878653955 0 0 0
17 4 3 0 2.1555858654601443 0.10794652194338297 -0.08922394564006372 0 0 0
91 27 4 0 3.7161328688658193 0.990976223239214 -0.036820147235946364 0 0 0
47 13 2 0 1.6290032319313419 0.3319703326750686 0.3230807092973751 -1 0 0
49 13 4 0 1.2580054236718095 0.2516391854853899 0.5547257978199062 -1 0 0
48 13 4 0 1.9861930488119663 0.4086590009289018 0.083533874986095 -1 0 0
117 36 4 0 1.1481671862581735 0.019956352324665003 0.8571823330022633 0 0 0
139 43 4 0 2.642087306065655 2.172085636717416 1.4792880589010697 -1 0 0
45 12 4 0 1.0310155589135095 3.676474256196065 1.1234965327873552 -1 -1 0
155 49 2 0 3.095885559386537 3.6417637599433315 0.2333092495302852 0 0 2
30 7 4 0 3.515267852442504 2.6136423944660696 3.09597299096407 -1 -1 -1
157 49 4 0 3.4355358866171595 3.3229872364716764 0.26872552789340814 0 0 2
103 31 4 0 2.7432655200787686 2.8027753996662805 3.0280320141616386 0 -1 -1
143 45 2 0 0.3071448428562988 0.6903232473099261 3.264081316476584 0 0 0
145 45 4 0 0.6648889688410637 0.8259499917709103 3.5248151251961404 0 0 0
97 29 4 0 0.9203957157414012 0.5311481729955361 3.505681206092832 0 0 0
51 14 4 0 2.791848293904168 1.405795532456649 2.8966065010861466 -1 -1 0
9 2 3 0 2.9547847126590447 1.7376780365700217 3.1072482625181963 -1 -1 0
50 14 2 0 2.85453957182999 1.0440635307862272 3.136359525382775 -1 -1 0
52 14 4 0 2.907561714151425 0.6562608701225824 3.390051839859784 -1 -1 0
137 43 2 0 2.761846082187839 2.0160740859390778 1.881491579458324 -1 0 0
101 31 2 0 2.478915698418278 3.1502872797450467 3.021019866351579 0 -1 -1
10 2 3 0 3.3728721303780085 2.2965362457405267 2.9069046411517263 -1 -1 0
138 43 4 0 2.86992030753532 1.8427505594250273 2.297589288609934 -1 0 0
6 2 1 0 2.957728796809627 2.1512525266251017 2.936911818719731 -1 -1 0
7 2 3 0 2.766555846812544 2.1459877307537383 2.521045946307538 -1 -1 0
8 2 3 0 2.723641058691913 2.4203684026866394 3.1873846849347958 -1 -1 0
102 31 4 0 2.2135811788416215 3.4937996522650647 3.0253854958231456 0 -1 -1
76 22 4 0 0.6512995474075504 3.6966467577486997 1.2723925054417762 0 0 0
130 40 4 0 3.3149320349244538 2.9345825028977015 0.22352328515820907 0 0 0
128 40 2 0 3.653050725180517 2.667992618143744 0.15082665873665288 0 0 0
78 23 4 0 2.828568211496925 0.288210234619646 3.5412113701628782 -1 0 0

Velocities

100 0.9997715877193428 -0.16432225979286852 -0.06335201857689116
87 0.1536930199124449 1.7578863284038133 0.009579216037292195
86 -0.5472932871698856 -0.20652825520198317 -0.06299809021442333
55 -0.7677214277272824 -0.03371692596574297 -0.0018746216830149102
27 0.06372509222542139 -0.8359304928154266 -0.6897977253020194
26 -0.05483634150113666 0.1821648560110455 0.30117086540006016
140 -0.3230472431385617 -0.3665481174875039 0.08847955404558892
141 0.30817718710891684 0.4471701366807179 0.614299590557695
110 -0.2538753067831193 0.14192895028336242 0.41346522956805537
111 0.48377310672039414 -0.2153700464185819 -0.2211878958435953
112 -1.4047458466019194 -0.7515237221638115 0.7578699822278104
148 -0.5824659009423 -0.3197638765177262 -0.5537910922808948
36 1.5074955276974293 -0.042526849739609504 -0.7288788516158905
146 -0.38702988335965555 -0.17543261246523867 -0.042516428738287454
28 -0.07106483787359277 1.3537888245955432 0.16602402565987107
109 -1.0342679627567324 0.4224788561718905 -0.5411396803020705
37 -0.2547861592219554 -1.3253083425648648 -0.9179242455994882
75 -0.47646164412186787 -0.44159609774768 -0.7367790446044941
108 -0.9857729252845981 0.3279718893928237 0.21242950738557437
107 0.26323738662627455 -0.017471370864399646 -0.23506074313012987
88 0.4079705130403335 -0.25023465948661816 -0.14645535468898108
35 0.23069352697353201 0.25007916534173646 0.2322580832067615
154 -0.10700908297763168 1.0359459562076525 0.9310040779234547
152 -0.28673116951873334 -0.026431996517735184 0.25767322244269214
153 -0.18138658542771086 0.4342581772114814 -0.8982597478218561
94 -0.18496241651991252 0.05548380160481079 0.5714951363824379
3 0.5591256611282778 -1.4416446132412608 0.6616325296897192
33 0.7715156300953756 1.0106544173203036 0.11682922140551183
159 0.42845874599063993 0.17829485249183505 -0.4253156409506149
4 -0.7666654552683269 -0.24508003527400535 -1.078434702374102
5 0.5741526643537593 0.35527498737762087 -0.13243154600864931
41 -0.07048229154088925 0.11803791671110002 0.31429100076004496
1 -0.03503653937289128 -0.24696862290271274 -0.06473401849215883
42 0.2347056917537916 -0.427783465299835 0.6140852087763671
43 0.18954126889771575 0.16286651217924614 -0.37856123699593425
2 -0.8220647603871293 -0.8328703069257394 -0.221441294775039
60 0.07228525757247961 0.24131089212133378 0.5552594345239262
61 -0.4213010739495911 -0.118757885190238 0.21311086108620642
59 0.07630067337778555 -0.27753068013288473 0.09820301677934393
99 -0.17046910769727613 -1.0483187828538525 0.31919476271447333
73 -0.6820259609291232 0.04972844375608075 -0.39573108528962486
80 0.023582744853181688 -0.17531677264460585 -0.16281207616577367
23 0.4987595205657516 0.39363690094757775 -0.24755729473802615
21 -0.1610904267266052 0.3592841762476995 0.09547470538406153
82 0.5714229108609653 -0.4831035492050872 -0.018081657067839436
81 -1.111980207403613 -0.34005952287654445 0.7811541064546303
71 -0.08215267251062347 -0.16938338286268695 -0.14564375860042988
32 0.15826534324929087 -0.22917323033964804 -0.18096727703583587
106 0.7825787047303325 1.4161841285766839 0.02638211589629408
34 -0.3421676813142848 -0.4217253880936232 -0.5276051263474685
105 0.3729068138745232 0.17496386257210375 1.252175756384192
104 -0.1913040076141873 0.3228935248492918 0.056777286017063215
98 -0.06061525834990026 -0.49814187617909117 -0.24498806546865637
142 0.10245935249259398 -0.4325255513309584 -0.7553694004883438
25 -0.9321339438083486 0.025481522491335905 -0.37241194868868693
22 0.7713656008457491 0.11732052275280863 -0.055760577969276234
150 0.4461993150113206 -0.26973594773874165 -0.05964633768045617
149 -0.06776243254504458 0.3373757388890502 -0.30434089236591677
151 0.49865997972289033 -0.8406835679488456 -0.23343229548203231
24 -0.7632307561146142 -0.17510360294410596 0.19884769313444337
135 1.2010348393894192 0.9580200169885914 0.8240498571270407
134 0.15235640794189267 -0.25806924744187415 -0.40442146350476293
136 0.30281556247582797 -0.10602631420357016 0.7309111054581899
15 0.235681068637635 -1.0071693687305647 0.18943372836433245
160 0.0040733156519194985 -0.08163588513332165 -0.9920833924688951
158 0.00227685353691286 0.09606655597499805 0.1242527507619564
14 -0.2661142931189905 -0.029302803836899982 0.94938186434897
11 0.1191367113521248 -0.13025645403824496 -0.13328269955600192
12 -0.7189393482411137 -0.034037875789573964 -0.5701581753495097
83 0.08265742521306682 -0.15447010622705654 0.26803024966551386
58 1.4117537370807347 -0.46624282270628564 -0.42914923937576976
84 0.46554683642230343 -0.9857094698356558 -0.495658955180875
56 -0.10460541066736373 -0.03042126165142949 -0.2569970767372443
57 -1.877053664809331 -0.8796196711986777 -0.1361629597302727
113 0.12793518634260298 0.07755410667577035 -0.36704644291057154
115 -0.2722349862468518 -0.04265309249030484 -0.6284730676833867
31 0.21604816185432774 0.8468326913932892 0.576295221516469
29 0.3090821875377815 -0.18367450502854044 0.030044246960812086
85 -0.3959513484286638 -0.12632804925092175 0.4890736447599599
114 -0.7508746925415437 -0.40712565985177024 0.8028128237125031
144 0.3680603462501977 -0.20159158185489562 1.8820975081856928
13 -0.1290653328950262 -1.1208272819687046 -1.2005623510678898
129 -0.36668650096294836 1.1682006939663898 0.6805628447216201
62 0.290086191065061 -0.0444819812259679 0.15776007560551347
63 0.7178998883578679 1.2853712705041975 0.1708695496750202
121 -0.017936861880661268 -0.3981844347886876 0.9399751513858444
53 0.015661424261568475 0.21248766443375328 -0.06086819024701576
18 1.0420013879599663 -0.37784356984725953 -1.1635417931134315
124 0.4368109197748408 -0.08130033059365357 0.3206591255536107
122 -0.11322405042999004 -0.11301200167018932 0.2038854755710011
120 0.5339934810741832 0.8319868488378156 1.6583681432184514
72 0.672444209276948 0.5838734730886327 -0.6481675628574957
119 0.34245621610251825 0.5128031298502037 0.12787389656183956
131 -0.18779628865250333 -0.17617833604737876 -0.4002089646874709
133 0.1665109988902759 0.07995081096602452 -0.26706862692979827
64 0.290890420728359 0.6105337427129348 -0.08327571001784505
125 0.12959253982851898 0.3527903717052009 -0.12752697791112358
127 -0.6767542714059808 0.8205550249110656 0.43796576452094776
147 0.2411739423390091 -1.0702281795952158 -0.10402924947294516
38 -0.05637571418133922 -0.06375119828594704 0.20238695019891462
44 0.4207018200898338 -0.13292205816410824 -0.26450315301399296
74 -0.014866945394726598 0.195536008964455 0.2079679380459439
46 0.22046258830374002 -0.14924737462598464 -0.2965394176755541
126 0.31805550297038643 0.15074826079253145 -0.1295338125881956
67 0.6219332889162855 -0.8975643605154633 -1.0766781284117874
65 0.044364885692677804 -0.09356467141216272 -0.35154423714887273
66 -0.2212057265810155 0.6073496660274627 -0.3655025002524373
69 0.40043290876102905 -0.07531609612748726 0.6090597971816025
68 -0.23346975066952483 -0.049373954036387946 0.07665588560004663
39 -0.6859384825626017 -1.8858157861943134 0.9492785966392573
116 0.5596135582294389 -0.2228062072592109 0.1019584126591094
70 0.32121315832840897 0.3559109820494562 -0.14456528254498954
118 1.1132184678178756 -0.004993499444276003 0.2315557839983626
156 0.18677140185871746 -0.9539295138218228 0.8564469815796993
40 0.18146035242665495 0.27387948423380803 -0.1137132299058864
95 -0.07382835295083427 -0.7128781440352525 -0.24629825362305746
96 0.05213818327631036 -1.2179328947725687 -0.8962110616443669
92 -0.4566094475367641 -0.20341663438777507 0.0751357585426166
132 0.4865970280028084 -0.643611591859604 -0.06092360516313633
54 -0.30398984107639565 0.44766533212253656 0.1093338530765286
77 -0.2794858949758233 0.07797213328519292 -0.2743822608950556
93 0.6777654248326878 0.21969068989186152 -0.9027719310992104
79 -0.19448917273608368 -1.319465740705208 0.04498237156245032
90 -0.6076878188598575 0.604946932442971 -0.13725219672103073
123 -0.1370625976647046 0.8872246849922405 -0.79477020869969
89 0.024691837120648284 0.23748475458307083 0.3958877819167373
20 -1.0946178460370293 -0.6415450908179402 -0.012778020681630538
19 0.5848846521771263 -0.10495237458089984 -0.7020062898137591
16 0.22902855830967908 -0.30321138496852934 -0.23406276055372965
17 -1.1909023441814919 -0.8649757674817862 0.17139575002975457
91 -0.9319233633842868 1.0850187185000457 -0.0851451329283896
47 0.12374691019277008 -0.48254883397649817 0.31595092166430716
49 0.7572300412151892 0.5608725709624597 -0.6443451192182197
48 0.2846288824641556 0.021978689102479243 0.1232013945212016
117 -0.7727391450169555 0.7674276053577537 1.4114523137758195
139 0.0005200201664140244 -1.1809073931121872 0.3511134665989139
45 -0.9544427644089181 0.8046031998928802 -0.9200427548892287
155 0.03609311771510912 -0.08181792598742457 0.2685956936986728
30 0.3198202029145072 0.949714928308949 0.19973856296627132
157 0.029536347123608628 0.16356075728770023 -0.630528401663756
103 0.8685919623575751 0.06691673207272224 -0.7292860195757886
143 0.03661898055983421 0.20658728777093602 -0.053671509107064225
145 0.17340622527737554 -0.7861548329885601 1.2106309977085044
97 -0.17694349655214733 -0.5588064065258099 -0.4566545236305357
51 -0.32152618110864967 0.6766897789391856 -0.02309534844574894
9 0.027483451843810784 0.19574646754599564 0.33519299485657084
50 0.19662916883275233 0.13394028179856343 -0.2841561697077976
52 0.20063831895334505 -0.6328980941425608 0.6538330503918977
137 -0.12501111436696433 -0.05812939668719327 -0.24015178123880673
101 -0.058542189803786226 -0.18344987753477882 0.3409038282103263
10 0.2032428167408789 -0.769660625746395 -0.44156768125559936
138 -0.45498438568831046 1.224403065480539 0.14886886824298623
6 -0.017580716724069367 0.035688799572003986 -0.15831744607762732
7 -0.3318359545978387 -0.708580278760218 -0.11306342839318394
8 0.13103484110139557 -0.5232953234884986 0.8293370826977647
102 -0.5737135288963487 -1.0997702142830068 0.17309971838252883
76 0.612426543269687 0.07717531471903169 -0.08360128555491504
130 -0.4568333672275731 0.4072421183098307 0.22906659364837895
128 -0.1448375016446116 -0.015505872827429254 -0.020858047243069985
78 0.5241373731144199 0.06947430323784098 -1.0897415931695251

Bonds

1 1 86 87
2 1 86 88
3 1 26 27
4 1 26 28
5 1 140 141
6 1 140 142
7 1 110 111
8 1 110 112
9 1 146 147
10 1 146 148
11 1 107 108
12 1 107 109
13 1 35 36
14 1 35 37
15 1 152 153
16 1 152 154
17 1 41 42
18 1 41 43
19 1 1 2
20 1 1 3
21 1 1 4
22 1 1 5
23 1 59 60
24 1 59 61
25 1 80 81
26 1 80 82
27 1 21 22
28 1 21 23
29 1 21 24
30 1 21 25
31 1 71 72
32 1 71 73
33 1 32 33
34 1 32 34
35 1 104 105
36 1 104 106
37 1 98 99
38 1 98 100
39 1 149 150
40 1 149 151
41 1 134 135
42 1 134 136
43 1 158 159
44 1 158 160
45 1 11 12
46 1 11 13
47 1 11 14
48 1 11 15
49 1 83 84
50 1 83 85
51 1 56 57
52 1 56 58
53 1 113 114
54 1 113 115
55 1 29 30
56 1 29 31
57 1 62 63
58 1 62 64
59 1 53 54
60 1 53 55
61 1 122 123
62 1 122 124
63 1 119 120
64 1 119 121
65 1 131 132
66 1 131 133
67 1 125 126
68 1 125 127
69 1 38 39
70 1 38 40
71 1 44 45
72 1 44 46
73 1 74 75
74 1 74 76
75 1 65 66
76 1 65 67
77 1 68 69
78 1 68 70
79 1 116 117
80 1 116 118
81 1 95 96
82 1 95 97
83 1 92 93
84 1 92 94
85 1 77 78
86 1 77 79
87 1 89 90
88 1 89 91
89 1 16 17
90 1 16 18
91 1 16 19
92 1 16 20
93 1 47 48
94 1 47 49
95 1 155 156
96 1 155 157
97 1 143 144
98 1 143 145
99 1 50 51
100 1 50 52
101 1 137 138
102 1 137 139
103 1 101 102
104 1 101 103
105 1 6 7
106 1 6 8
107 1 6 9
108 1 6 10
109 1 128 129
110 1 128 130

Angles

1 1 87 86 88
2 1 27 26 28
3 1 141 140 142
4 1 111 110 112
5 1 147 146 148
6 1 108 107 109
7 1 36 35 37
8 1 153 152 154
9 1 42 41 43
10 2 2 1 3
11 2 2 1 4
12 2 2 1 5
13 2 3 1 4
14 2 3 1 5
15 2 4 1 5
16 1 60 59 61
17 1 81 80 82
18 2 22 21 23
19 2 22 21 24
20 2 22 21 25
21 2 23 21 24
22 2 23 21 25
23 2 24 21 25
24 1 72 71 73
25 1 33 32 34
26 1 105 104 106
27 1 99 98 100
28 1 150 149 151
29 1 135 134 136
30 1 159 158 160
31 2 12 11 13
32 2 12 11 14
33 2 12 11 15
34 2 13 11 14
35 2 13 11 15
36 2 14 11 15
37 1 84 83 85
38 1 57 56 58
39 1 114 113 115
40 1 30 29 31
41 1 63 62 64
42 1 54 53 55
43 1 123 122 124
44 1 120 119 121
45 1 132 131 133
46 1 126 125 127
47 1 39 38 40
48 1 45 44 46
49 1 75 74 76
50 1 66 65 67
51 1 69 68 70
52 1 117 116 118
53 1 96 95 97
54 1 93 92 94
55 1 78 77 79
56 1 90 89 91
57 2 17 16 18
58 2 17 16 19
59 2 17 16 20
60 2 18 16 19
61 2 18 16 20
62 2 19 16 20
63 1 48 47 49
64 1 156 155 157
65 1 144 143 145
66 1 51 50 52
67 1 138 137 139
68 1 102 101 103
69 2 7 6 8
70 2 7 6 9
71 2 7 6 10
72 2 8 6 9
73 2 8 6 10
74 2 9 6 10
75 1 129 128 130
