LAMMPS data file via write_data, version 19 Nov 2024, timestep = 10000, units = lj

32 atoms
4 atom types
22 bonds
1 bond types
15 angles
2 angle types

-2.129109 2.129109 xlo xhi
-2.129109 2.129109 ylo yhi
-2.129109 2.129109 zlo zhi

Masses

1 1
2 1
3 0.1
4 0.1

Bond Coeffs # harmonic/omp

1 100 0.45

Angle Coeffs # harmonic/omp

1 100 180
2 100 109.471

Atoms # full

13 4 4 0 -0.8205120773607053 -0.7038772140954068 -0.8903100171629883 0 0 0
14 4 4 0 -1.2747634855905956 -1.5184839115923952 -0.8920960774833854 0 0 0
12 4 2 0 -1.0411940986159383 -1.1145114260361741 -0.8901133762184559 0 0 0
15 5 2 0 -0.28873492911922677 -0.15026108768816723 1.323507894873466 0 0 0
16 5 4 0 -0.025907353974793525 -0.10875482932694663 1.6837570074856558 0 0 0
9 3 2 0 -1.8971904562457567 -1.5333835394845559 0.9392849907099794 0 0 -1
10 3 4 0 -1.4829574927460867 -1.4926910522388992 1.1072706745376424 0 0 -1
17 5 4 0 -0.558443828983638 -0.19662218158040692 0.9452068096943838 0 0 0
18 6 2 0 -1.0756359894072458 1.2138993412093244 0.8548700176399008 0 0 0
19 6 4 0 -1.5032711809801624 1.3428972778047537 0.6718551130237652 0 0 0
20 6 4 0 -0.6738906842259212 1.1047019422991629 1.0191317578914627 0 0 0
8 2 4 0 0.42892157738208814 -1.2564628029016276 -2.1176678492122343 0 0 0
26 8 4 0 0.9380400785799597 -1.6289622175896645 1.5269873764181714 0 0 -1
24 8 2 0 1.2390576129187896 -1.6899678790292727 1.2111780548623812 0 0 -1
25 8 4 0 1.5657022268657619 -1.751886654357126 0.8742328546717693 0 0 -1
6 2 2 0 0.28392709733366306 -0.8657680964903822 1.9559385823190403 0 0 -1
7 2 4 0 0.14413966685728802 -0.48484529835933216 1.7830802364410698 0 0 -1
11 3 4 0 1.9573556209015397 -1.571807264083526 0.7691230705365806 -1 0 -1
29 9 4 0 1.4360626846637448 -0.07038709800792183 0.7205487469804253 0 0 0
21 7 2 0 1.2246889770931544 1.1913582237015032 -1.6701400541590272 0 -1 0
32 10 4 0 1.14933605294066 0.7522926896498441 -0.13933199501429308 0 0 0
23 7 4 0 1.1241169095782189 1.1523009688593602 -1.2635581765579957 0 -1 0
22 7 4 0 1.328882397527937 1.2381548872657386 -2.0948763433988074 0 -1 0
30 10 2 0 1.0223175558919542 0.9182263317402238 -0.5277873772285379 0 0 0
31 10 4 0 0.876947235641122 1.0828796421427422 -0.9456560388012542 0 0 0
3 1 3 0 1.468099962143751 0.5430985767925245 1.35062033905572 0 0 -1
27 9 2 0 1.3188106589588726 0.2803027345563201 0.46574692910973564 0 0 0
2 1 3 0 1.4416888683300968 0.8421464799853592 2.03862535102218 0 0 -1
1 1 1 0 1.7110011573098884 0.7677297631663101 1.6681264033992087 0 0 -1
28 9 4 0 1.2122955520641259 0.6400175507581044 0.2227806757791553 0 0 0
5 1 3 0 2.0732284336704763 0.5176887638451403 1.778914980053512 0 0 -1
4 1 3 0 1.8550919396550611 1.1712238765937217 1.5000966203080457 0 0 -1

Velocities

13 0.6498100940276303 0.6676873706786505 0.1262458261799406
14 -0.3211561699773703 0.5789117594142497 -0.08589822102219573
12 0.2580900855013235 -0.09812707429305455 -0.054415712530895735
15 -0.09377720610553779 0.12458137256949348 -0.017437042685374264
16 0.5245438441836928 -0.345180501162923 -0.266346208352336
9 0.30698877340201164 -0.25187566669518524 0.09621271026419827
10 0.4096602660196843 0.13061629970910368 -0.19796794232928888
17 -0.8563867343551566 1.0575925715168493 0.5456090836576327
18 -0.061995346223900225 0.3464276914832929 -0.189530659561813
19 0.697174299675492 -1.0491642009241393 0.8321233788203564
20 0.19046688058322386 -0.4617201596941937 0.4920682236422146
8 -1.6489044862294688 -1.2877527349579967 0.2494846380961293
26 0.2336244296309649 -0.6906516714584907 -1.265682885103312
24 -0.03658766142691633 0.003424317016397566 -0.1243871602933023
25 -0.07151558304527876 -0.3381236942846336 0.8650606690318129
6 0.26601943634779596 0.13394761127593002 0.18520167899624382
7 -0.2170283145435638 0.4477622968872294 0.5564006785603524
11 1.2720305701986556 -0.6384114296285424 1.2068470218338814
29 0.5891955041953847 0.16301102700887113 -0.1570477452301271
21 -0.07958394203888873 0.0365555888510918 -0.09529603063994026
32 -1.05270619307086 0.00017412301447670975 0.16423625734344283
23 -0.5579337842018575 0.9096338176095001 1.5338389818647729
22 0.6098231736122981 0.6945957301649448 0.024881159077161583
30 0.6003226935529834 -0.24255817018101114 0.014450215085173775
31 -0.1502104796981875 -0.009768625755195257 0.7200415568236003
3 0.9451658146160593 -1.218001682464271 0.4065992569162276
27 0.04326331314158587 0.10269280101636816 0.0917459031488479
2 -1.0409340450011109 -0.6133914479392205 0.5826528099704753
1 0.17437909312660227 -0.5750342511657253 -0.17199459952381851
28 -0.0262534582749124 -0.28270820241193567 -0.4770597876395687
5 1.790842461388654 0.25221876116187714 0.762602647573162
4 0.9606881652720176 -1.0430230242703988 0.6914503216332034

Bonds

1 1 12 13
2 1 12 14
3 1 15 16
4 1 15 17
5 1 9 10
6 1 9 11
7 1 18 19
8 1 18 20
9 1 24 25
10 1 24 26
11 1 6 7
12 1 6 8
13 1 21 22
14 1 21 23
15 1 30 31
16 1 30 32
17 1 27 28
18 1 27 29
19 1 1 2
20 1 1 3
21 1 1 4
22 1 1 5

Angles

1 1 13 12 14
2 1 16 15 17
3 1 10 9 11
4 1 19 18 20
5 1 25 24 26
6 1 7 6 8
7 1 22 21 23
8 1 31 30 32
9 1 28 27 29
10 2 2 1 3
11 2 2 1 4
12 2 2 1 5
13 2 3 1 4
14 2 3 1 5
15 2 4 1 5
