LAMMPS data file via write_data, version 19 Nov 2024, timestep = 100000, units = lj

799 atoms
4 atom types
566 bonds
1 bond types
483 angles
2 angle types

-4.807498 4.807498 xlo xhi
-4.807498 4.807498 ylo yhi
-4.807498 4.807498 zlo zhi
0 0 0 xy xz yz

Masses

1 1
2 1
3 0.1
4 0.1

Bond Coeffs # harmonic/omp

1 100 0.45

Angle Coeffs # harmonic/omp

1 100 180
2 100 109.471

Atoms # full

560 154 2 0 -4.042225569192209 -4.6014215862207255 -4.537785297568872 1 0 0
561 154 4 0 -4.518348954599372 -4.577602753157107 -4.571307123561289 1 0 0
562 154 4 0 -3.611925877454647 -4.613674551169235 -4.502898140974897 1 0 0
603 168 4 0 -3.258403796598328 -4.458749806965478 -4.460621105875274 1 0 0
602 168 2 0 -3.0212094079400877 -4.127884315625111 -4.260691702300126 1 0 0
789 230 4 0 -3.308710138309586 -4.733949632848883 -4.753426447920182 2 1 1
674 192 2 0 -0.04610891370280967 -3.5623461244208903 -0.2034678366921039 1 0 0
604 168 4 0 -2.77526274342575 -3.7830575620328606 -4.0420482092768 1 0 0
572 158 2 0 -2.1178850874563815 -3.1921668405704513 -4.000020407806059 1 0 0
574 158 4 0 -2.4576913268633596 -3.5133658077710628 -4.015655442615635 1 0 0
573 158 4 0 -1.7585755351163002 -2.8670105977763924 -3.993121252524566 1 0 0
145 29 3 0 -1.3592947559661392 -2.8056799268728696 -3.9131894516804593 1 0 0
142 29 3 0 -1.2547636571182381 -2.2144610106060147 -4.351894822687772 1 0 0
141 29 1 0 -1.172987365327931 -2.393023414940303 -3.946809672925161 1 0 0
143 29 3 0 -0.7441829977242405 -2.416082946905249 -3.878473627255625 1 0 0
585 162 4 0 -0.3454424171745485 -2.295072660183898 -3.8652585390331238 1 0 0
584 162 2 0 -0.14525829037617655 -2.0976534080282656 -4.250767440610262 1 0 0
32 7 3 0 -4.392757426277209 -0.9612973580994177 -3.96727722973824 1 0 1
648 183 4 0 -1.4925672872924047 -1.910836030529722 -4.158104841797371 1 0 1
352 84 4 0 -4.511849169700801 -0.6006880084513391 -0.46253938038505815 1 0 0
647 183 2 0 -1.56425300753369 -1.5857054297191526 -4.470243982639678 1 0 1
714 205 4 0 -0.048911686520958675 -0.5361566843523731 -0.13758377329092486 1 0 0
359 87 2 0 -3.9839964924017353 -0.36903430934746684 -4.401587908919377 1 0 1
360 87 4 0 -4.309185589003416 -0.6920239003138224 -4.253556559516091 1 0 1
385 95 4 0 -4.719479480478066 -0.788379318041061 -4.1312214893199695 1 0 1
361 87 4 0 -3.6598260525048882 -0.04921453886824967 -4.548523342791173 1 0 1
528 143 4 0 -2.602277086983504 -0.33981623262618577 -3.8339717899487993 1 0 1
628 176 4 0 -2.275170035979114 -0.3601077356281017 -4.09000526240184 1 0 1
626 176 2 0 -2.0874010886195142 -0.6282618981572909 -4.418215652658997 1 0 1
43 9 3 0 -2.317336799726453 -0.0107147292193428 -3.867623616263253 1 0 1
296 66 2 0 -4.6963672296970085 -3.351864432729034 -3.201878709943254 1 0 0
297 66 4 0 -4.360000040997306 -3.4994709101705492 -2.9090498154217506 1 0 0
566 156 2 0 -2.706863181812318 -3.8673607778746324 -3.300207693197345 1 0 0
567 156 4 0 -2.6151017036328494 -3.7120047564937146 -3.688208314620994 1 0 0
593 165 2 0 -1.991472521704038 -1.8960326293766911 -3.4314506075820366 1 0 0
595 165 4 0 -1.666338094491731 -1.9409333466741083 -3.7824354982092245 1 0 0
144 29 3 0 -1.3441069975309579 -2.1398274823715795 -3.6514661196431484 1 0 0
13 3 3 0 -0.3753502383889673 -2.154979458836908 -3.462872426300923 0 0 0
31 7 1 0 -4.193388668109645 -1.0632674512401366 -3.569804461072115 1 0 1
33 7 3 0 -4.33287471180987 -1.4969420383670484 -3.4330087871211696 1 0 1
309 70 4 0 -4.593957174401743 -1.7999094161582283 -3.267074994186071 1 0 0
34 7 3 0 -3.74271402663849 -1.0629750062032017 -3.617186654576798 1 0 1
594 165 4 0 -2.2967806326086113 -1.8604849204187133 -3.1024519457075157 1 0 0
558 153 4 0 -2.6845916450657166 -1.8673307587185342 -2.925904809889999 1 0 0
627 176 4 0 -1.88928881625616 -0.9043196729658773 -4.752552150448735 1 0 1
11 3 1 0 -0.19663129496984855 -1.846796615927392 -3.164909949774791 0 0 0
14 3 3 0 -0.5234344335436178 -1.688970765219537 -2.9021487316388646 0 0 0
35 7 3 0 -4.322899481083524 -0.7609724672660807 -3.2492227002376484 1 0 1
395 99 2 0 -4.297763445692404 -0.03381552444082381 -3.247956723181084 1 0 0
396 99 4 0 -4.440251919494642 -0.4149552611898679 -3.449555704849854 1 0 0
529 143 4 0 -3.4091480212578738 -0.8087648662917255 -3.672382672233737 1 0 1
527 143 2 0 -3.0092774096723938 -0.5775467419136762 -3.742915069384628 1 0 1
601 167 4 0 -0.018752910423808444 -2.2392413751022584 -0.7354927720876585 1 0 0
252 51 4 0 -0.6825490006316972 -0.16200849960004593 -2.9193451601576608 1 0 0
448 116 4 0 -0.37747789695422895 -0.3413097882670648 -3.0680646301107988 1 0 0
351 84 4 0 -3.677321183412907 -0.13816423860613725 -0.43648086051140744 1 0 0
698 200 2 0 -3.5071128863634673 -4.422528589487002 -2.5447314453506826 2 1 0
700 200 4 0 -3.1236573098265996 -4.1604404773528305 -2.628170074615694 2 1 0
568 156 4 0 -2.809669391511506 -4.0418977767380015 -2.868568973017795 1 0 0
537 146 4 0 -2.7808748843082833 -4.139936255191544 -2.4783275619316414 1 0 0
536 146 2 0 -2.4847800146968226 -3.910176302748364 -2.2133395252464183 1 0 0
587 163 2 0 -4.381902548817056 -3.6847731985128815 -2.147536793703674 1 0 0
589 163 4 0 -4.5316099834492585 -3.53949334447302 -2.5335928562842187 1 0 0
538 146 4 0 -2.210074781021691 -3.6823999481372365 -1.9644498697846462 1 0 0
134 27 3 0 -1.5400461498855034 -4.1029338891242 -2.0451595277719865 1 0 0
552 151 4 0 -2.3814784804939837 -2.749941662573829 -2.1335028950651975 1 0 0
553 151 4 0 -2.3845386748141837 -2.106456823643599 -2.7830118082411097 1 0 0
551 151 2 0 -2.3803714372547145 -2.429386358257311 -2.4561096528192703 1 0 0
293 65 2 0 -3.9572030283078585 -1.6441204506576548 -2.176171033094084 1 0 0
295 65 4 0 -3.904042582011572 -1.5175477692174169 -2.599160491928029 1 0 0
557 153 2 0 -3.1015655498753 -1.7098510564345148 -2.8367281086165987 1 0 0
559 153 4 0 -3.517696853773366 -1.553319017832854 -2.7515219220874165 1 0 0
261 54 4 0 -3.6959045685574345 -1.1804462305974956 -2.7234497869388536 1 0 0
277 59 4 0 -0.6472233457051288 -1.4209173201309437 -2.6402901065461792 1 0 0
275 59 2 0 -0.6403266937165544 -0.9692327447194469 -2.7289812287704396 1 0 0
4 1 3 0 -3.8575740708661224 -0.16905699679683117 -2.259812519448851 1 0 0
260 54 2 0 -3.661876805988693 -0.7399640412194346 -2.649414592810308 1 0 0
262 54 4 0 -3.630584784061779 -0.2814427557005166 -2.56891142215851 1 0 0
276 59 4 0 -0.6290519024078858 -0.552388145189588 -2.8098316153046863 1 0 0
320 74 2 0 -4.551483182339764 -4.329109612706384 -1.2721404627175272 1 0 0
322 74 4 0 -4.252197709220391 -4.021839653733873 -1.4070183079189174 1 0 0
588 163 4 0 -4.220712869741496 -3.8349702459666433 -1.7348084067917062 1 0 0
215 43 3 0 -0.09735132016512704 -4.266145470627113 -1.4525177505625555 2 1 0
350 84 2 0 -4.076570873428357 -0.36575049973205775 -0.45121033428478263 1 0 0
547 149 4 0 -3.9040877437284385 -3.792396798117605 -1.4912231808928635 1 0 0
545 149 2 0 -3.5956202592719704 -3.444503073346396 -1.3797765943630318 1 0 0
546 149 4 0 -3.285811767624412 -3.114763301449944 -1.269405863257242 1 0 0
124 25 3 0 -2.9219193101976737 -2.9421974629943337 -1.2634553241975786 1 0 0
122 25 3 0 -2.387183145145138 -2.9591679928993777 -1.761123438650876 1 0 0
125 25 3 0 -2.1713620630106494 -2.955152656102087 -1.050903924567967 1 0 0
135 27 3 0 -1.8712831868062572 -3.4811374841255027 -1.8656612373527013 1 0 0
765 222 4 0 -1.0531253266350373 -3.912834749040083 -1.1786066887512416 2 1 0
132 27 3 0 -1.3083409090429257 -3.693367796773845 -1.4332013355338606 1 0 0
133 27 3 0 -1.2049526398391364 -3.4389247146196915 -2.145620245213517 1 0 0
131 27 1 0 -1.4916429685704915 -3.6725287389501187 -1.8781128238017484 1 0 0
211 43 1 0 -0.17409503621605982 -3.86925197329355 -1.2701530064369875 2 1 0
212 43 3 0 -0.6567625599855198 -3.812393972513687 -1.1915852187727167 2 1 0
317 73 2 0 -4.671816155257059 -2.165230284224723 -1.4252227309496162 1 0 0
607 169 4 0 -3.818610232715886 -2.0280321664547927 -1.5136966233724238 1 0 0
318 73 4 0 -4.2464524362712535 -1.9826935123841531 -1.5041917861706517 1 0 0
606 169 4 0 -3.2536872730689193 -2.709526006790979 -1.3194525512018362 1 0 0
605 169 2 0 -3.5392251347621517 -2.3638969069714975 -1.416402969174059 1 0 0
121 25 1 0 -2.4853210703277675 -2.799644168706204 -1.3788733640358286 1 0 0
123 25 3 0 -2.483217284469553 -2.360362676381174 -1.4003838237382369 1 0 0
294 65 4 0 -4.000232949066945 -1.7770876299256604 -1.742056677257573 1 0 0
633 178 4 0 -3.997878345235842 -1.7044272832969605 -1.3747580599889102 1 0 0
632 178 2 0 -3.925299879903855 -1.3559098402956327 -1.104806876714675 1 0 0
699 200 4 0 -3.8967615612196234 -4.689831904216038 -2.4553720991264627 2 1 0
555 152 4 0 -1.8854830065014188 -4.253102491427075 -0.278654407930075 1 0 0
766 222 4 0 -1.5966445061532348 -3.9828667263788873 -0.39209468657314783 2 1 0
764 222 2 0 -1.3244209426405198 -3.949315588300572 -0.7871409493803192 2 1 0
15 3 3 0 -0.005664709352021902 -1.5091391823578384 -3.3994177114406217 0 0 0
591 164 4 0 -3.186255592078039 -2.872093760518228 -0.9648089979491847 1 0 0
590 164 2 0 -3.1475222351871395 -2.7915045390818904 -0.490607118490626 1 0 0
582 161 4 0 -2.097398987606138 -2.9759888977510136 -0.6538653786058566 1 0 0
715 205 4 0 -0.7129141510469115 -1.1577295491866901 -0.0718470334992869 1 0 0
147 30 3 0 -0.40907963704538997 -2.8580326144739456 -0.7350301960438026 1 0 0
713 205 2 0 -0.3663710862585523 -0.8389002307278588 -0.09734223505496686 1 0 0
592 164 4 0 -3.104406475408288 -2.716986466835249 -0.03978697280961363 1 0 0
581 161 2 0 -1.704512724518961 -2.8446909047563778 -0.455212914165565 1 0 0
583 161 4 0 -1.3097837450134593 -2.7008958333250788 -0.263809186064738 1 0 0
148 30 3 0 -0.968871275944958 -2.530752552148136 -0.3646006371624644 1 0 0
146 30 1 0 -0.4998217261864335 -2.6088998722081578 -0.38469066488644277 1 0 0
150 30 3 0 -0.2673099296981798 -2.1895920749058124 -0.4229904365055708 1 0 0
47 10 3 0 -2.5408690225081263 -0.1343886796800957 -0.47053783592558407 1 0 0
634 178 4 0 -3.8520654528158205 -1.0105622331980197 -0.8350103354400127 1 0 0
637 179 4 0 -1.0194675217754776 -1.426645503825318 -0.05032350451161971 1 0 0
301 67 4 0 -4.7526013366125754 -0.8784421336705659 -0.6118145486906368 1 0 0
213 43 3 0 -0.016511427537322376 -3.5356500068227508 -1.542503180216999 2 1 0
649 183 4 0 -1.6475241231305935 -1.2384227456101713 -4.789136664808247 1 0 1
287 63 2 0 -4.326531965408344 -3.832127894966146 0.37415029469912575 1 0 0
208 42 3 0 -3.6480723751928235 -3.86638542625091 0.6198729691926124 2 1 0
207 42 3 0 -2.925000109371821 -4.090402544657898 0.5649832097645326 2 1 0
206 42 1 0 -3.3699136491008934 -4.198668699432061 0.710871478070298 2 1 0
209 42 3 0 -3.512108588401487 -4.5722015010835975 0.5000517604695203 2 1 0
645 182 4 0 -2.664957037227189 -3.7617398603510432 0.5390106131745611 1 0 0
556 152 4 0 -2.578334426442982 -4.082508159548473 0.3034798293766121 1 0 0
289 63 4 0 -3.9327325726671094 -3.6223497910098827 0.44837463640485975 1 0 0
160 32 3 0 -3.8570692115493053 -3.23783026586167 0.39328346739812314 1 0 0
156 32 1 0 -3.7559087628638856 -2.804515480489183 0.502807362333856 1 0 0
646 182 4 0 -2.9511542487997975 -2.8698529240601145 0.3157097999245968 1 0 0
644 182 2 0 -2.80569834196463 -3.305003501659501 0.4294336664804792 1 0 0
669 190 4 0 -0.23289014227278937 -3.0131311810522363 0.3839090353589967 1 0 0
676 192 4 0 -0.17442742613477513 -3.2165242518968182 0.06749190815020434 1 0 0
391 97 4 0 -4.450941312688669 -2.7119180328024837 0.5017946390234682 1 0 0
157 32 3 0 -4.077697647987457 -2.5320754595341874 0.3624306696983668 1 0 0
158 32 3 0 -3.322288535330272 -2.674477364253253 0.29980169845904214 1 0 0
667 189 4 0 -2.9609137252714213 -2.4642069409839533 0.22727349533516072 1 0 0
665 189 2 0 -2.6261432411803924 -2.10162315442801 0.1966279546078269 1 0 0
668 190 2 0 -0.1998510842041572 -2.66952033929872 0.6468367013819538 1 0 0
619 173 4 0 -0.38213705254533625 -1.971438824274669 0.9034086540064816 1 0 0
670 190 4 0 -0.16230794530346593 -2.3004446996689567 0.944011059112853 1 0 0
666 189 4 0 -2.3229779722917914 -1.7720462370324732 0.18171086083853893 1 0 0
613 171 4 0 -2.1621339066417042 -1.4535821913720914 0.3989003673189062 1 0 0
611 171 2 0 -2.144601842379573 -1.1042499382657085 0.7070359370737878 1 0 0
621 174 4 0 -4.768306237407713 -4.450641009438375 4.0420639495618635 1 0 0
618 173 4 0 -0.7350738873663971 -1.3979427734238206 0.2494091227995412 1 0 0
617 173 2 0 -0.5631732438100796 -1.678312188710362 0.5703833595661827 1 0 0
49 10 3 0 -2.8993123334768347 -0.2661966181107305 0.14802977684357632 1 0 0
612 171 4 0 -2.121322812525962 -0.7706010838831778 1.003382726068156 1 0 0
344 82 2 0 -1.3563635121860527 -0.350733307084627 0.9659196380002175 1 0 0
346 82 4 0 -0.9561673671517084 -0.11404013451729877 0.9374001468149435 1 0 0
643 181 4 0 -3.290274007626571 -4.519786170251724 1.4810177786679546 1 0 0
210 42 3 0 -3.3585574552731856 -4.265406868316149 1.176440034901308 2 1 0
641 181 2 0 -3.5258134772364658 -4.587758048594597 1.8700285235956073 1 0 0
159 32 3 0 -3.719901796079 -2.7686197141123916 0.9704474104181369 1 0 0
29 6 3 0 -1.1316222845789725 -1.8703621816079932 1.31747445288367 0 0 0
27 6 3 0 -1.0747785867707647 -2.5961245765696646 1.4999838294189285 0 0 0
28 6 3 0 -0.5300463847586556 -2.2820873488112037 1.1364252864486968 0 0 0
26 6 1 0 -0.8380734107792067 -2.2192090914607903 1.4493964493350893 0 0 0
30 6 3 0 -0.6238704814658353 -2.1116691257001676 1.853616686486954 0 0 0
167 34 3 0 -4.78724891948209 -4.382465997449675 2.5293454771523685 1 0 0
332 78 2 0 -2.157025594419795 -0.552912783906292 1.6975592629571574 1 0 0
333 78 4 0 -1.996661375726513 -0.5376474647923821 1.3123974485740497 1 0 0
345 82 4 0 -1.75283055047562 -0.5813024596951966 0.9951188828348769 1 0 0
169 34 3 0 -4.127723436875985 -4.549143260404864 2.2665914395931592 1 0 0
166 34 1 0 -4.377310937756476 -4.278387350633 2.5484708206815165 1 0 0
642 181 4 0 -3.7571476592300304 -4.660866703410706 2.279084201256917 1 0 0
220 44 3 0 -3.5708359550566007 -4.543344026565442 2.594052992365971 2 1 0
170 34 3 0 -4.326509844522716 -3.8505295982681322 2.4246854313746438 1 0 0
623 175 2 0 -0.27741525769345454 -2.1447936707020347 2.5123437033171205 1 0 0
625 175 4 0 -0.501532580042996 -1.9466250180018339 2.177690240994231 1 0 0
636 179 4 0 -1.941615263868533 -1.6643011280868025 0.09748626755041379 1 0 0
334 78 4 0 -2.3384410787592165 -0.5626268928426708 2.1286211426469483 1 0 0
620 174 2 0 -4.466491899067064 -4.427389046747053 3.701156341656197 1 0 0
622 174 4 0 -4.1820827112538215 -4.411522525921437 3.3833470490855353 1 0 0
168 34 3 0 -4.2250403473969875 -4.335551341958034 2.98057603850929 1 0 0
217 44 3 0 -3.7606310901356506 -4.438235342562483 3.312027482306168 2 1 0
216 44 1 0 -3.467284036679068 -4.645326389989399 3.035850378092287 2 1 0
218 44 3 0 -3.0430632613080633 -4.501307464746486 3.12137725563802 2 1 0
777 226 4 0 -2.7871272111024874 -4.262045770934833 3.2603612406459215 2 1 0
776 226 2 0 -2.3932683232107275 -4.2075115345881455 3.4502223954671107 2 1 0
778 226 4 0 -1.9962526488982753 -4.158237291754622 3.646444442643719 2 1 0
616 172 4 0 -1.6751179251090016 -3.912714660001362 3.5255465046005403 1 0 0
614 172 2 0 -1.2131046719738756 -3.8380700687593587 3.470037553381549 1 0 0
155 31 3 0 -0.4090511646795356 -3.835632615077321 3.542016983203605 1 0 0
615 172 4 0 -0.7526965280602838 -3.745272353357855 3.4152677571797296 1 0 0
673 191 4 0 -0.4192400785540622 -3.5420114373185827 3.2898106795417954 1 0 0
671 191 2 0 -0.24693118983951923 -3.1449040548830776 3.117849700072723 1 0 0
672 191 4 0 -0.08179552986138283 -2.7491945950865886 2.9559952919889367 1 0 0
482 128 2 0 -0.2716066287821777 -0.2512008932187806 3.5598587504283588 1 0 0
775 225 4 0 -0.0027660644364235765 -0.585957570982532 1.9526630751990943 1 0 0
154 31 3 0 -0.024240478310760594 -3.776271718694391 4.2045562022362715 1 0 0
151 31 1 0 -0.10871870019640895 -4.041490605450378 3.810384145883728 1 0 0
153 31 3 0 -0.2565211961035798 -4.439821746347269 3.927609125958056 1 0 0
624 175 4 0 -0.06177696130731736 -2.352658837247026 2.854013815681273 1 0 0
288 63 4 0 -4.743593833519686 -4.048948946093734 0.2827147710470488 1 0 0
651 184 4 0 -0.7757440254056531 -0.6218247415078837 4.142558199878255 1 0 0
652 184 4 0 -1.4945538229603672 -0.9223849433276472 4.663860868934793 1 0 0
650 184 2 0 -1.1427683180262145 -0.7742998531793912 4.405273657569178 1 0 0
483 128 4 0 -0.5973697105737408 -0.4848614287306434 3.814610771567316 1 0 0
149 30 3 0 -0.3543155557244635 -2.843295032150996 0.024300007464571394 1 0 0
635 179 2 0 -1.4735260150536065 -1.5545879622727852 0.01788904405477787 1 0 0
554 152 2 0 -2.2362080377186957 -4.169957002585921 0.01687195336153291 1 0 0
372 91 4 0 -3.309274718797788 0.1868724227091514 -4.58785670521652 1 0 1
371 91 2 0 -2.9596323028229543 0.4977344961506809 -4.658581885017653 1 0 1
795 232 4 0 -0.44147778673502724 0.5381344856565029 -4.556771593791766 1 0 1
794 232 2 0 -0.8665137749550555 0.40994558595908703 -4.460364498533513 1 0 1
796 232 4 0 -1.3365736765827143 0.2695990260954515 -4.342798906549682 1 0 1
45 9 3 0 -1.64828319043502 0.18412724638223477 -4.134048687854245 1 0 1
41 9 1 0 -1.9293569236395212 0.25620724214839186 -3.800653465268147 1 0 1
53 11 3 0 -0.9874404215576238 2.357429972521131 -4.15234040992912 1 0 0
487 129 4 0 -1.0645086431565414 2.365335279087023 -4.55713953927198 1 0 1
492 131 4 0 -0.7755491177670217 2.6084729680816254 -4.400323933919627 1 0 1
491 131 2 0 -0.323234950129371 2.7074656954894145 -4.409482010585505 1 0 1
685 195 4 0 -3.0521604664191244 4.055673221705738 -3.8347546848125527 2 0 0
683 195 2 0 -3.1940125885685626 4.418973801233981 -4.114871646473875 2 0 0
728 210 2 0 -2.2134242330955765 3.944039387211249 -3.8890570026749525 2 0 0
729 210 4 0 -1.758491538128431 3.889759295649875 -4.0424630200769895 2 0 0
744 215 4 0 -1.4696501711230816 3.887142505317347 -4.329156187620734 2 0 1
743 215 2 0 -1.3121335857106042 3.914605040651394 -4.7515295385317 2 0 1
430 110 4 0 -3.9142527139922976 0.7061644130922078 -3.031081597780756 1 0 0
77 16 3 0 -4.318492563263868 0.7553027840909774 -3.0668538168375936 1 0 0
397 99 4 0 -4.135707920857718 0.3806975147571121 -3.036704193610206 1 0 0
428 110 2 0 -3.449317774277606 0.6458648192617584 -3.1108815359502575 1 0 0
429 110 4 0 -3.0271262197050195 0.5979305297304078 -3.1788743980907994 1 0 0
44 9 3 0 -2.02497122065449 0.6934742025477796 -3.787931804439138 1 0 1
609 170 4 0 -0.027985433822623307 4.290312964614663 -0.8755659300040071 1 -1 0
307 69 4 0 -1.6764554315889035 0.886169011548879 -3.6121172688656924 1 0 0
253 51 4 0 -1.3661156371752985 0.22317260110494885 -3.3619302728210494 1 0 0
305 69 2 0 -1.3126756642703747 1.157504431124683 -3.62145385074876 1 0 0
55 11 3 0 -0.9614355076075367 1.8302950456029743 -3.626621153112624 1 0 0
306 69 4 0 -0.9344715236711068 1.4336083593477618 -3.6186141755562042 1 0 0
408 103 4 0 -0.6034184122225978 1.6676941604279518 -3.668353054255697 1 0 0
407 103 2 0 -0.20000768434781158 1.807740459210188 -3.524236077356458 1 0 0
732 211 4 0 -3.00264639815925 2.1475581311336036 -2.9585379375332486 2 0 0
731 211 2 0 -3.2107035725535704 2.554337152129995 -2.9897920230933552 2 0 0
52 11 3 0 -1.6001359802209811 2.1478390379584393 -3.8094063093541086 1 0 0
51 11 1 0 -1.1711704745660496 2.2195456251928123 -3.7550658695290466 1 0 0
54 11 3 0 -1.1073226732208674 2.547702622635631 -3.430529014528753 1 0 0
733 211 4 0 -3.4155661070582006 2.9547676391503854 -3.0088395673376085 2 0 0
678 193 4 0 -2.969952074865862 3.8259644987540993 -3.533993783812045 2 0 0
677 193 2 0 -3.2191030760723436 3.598158433035361 -3.2744727500302586 2 0 0
679 193 4 0 -3.4924108821389623 3.3455714299428925 -2.9842657791583456 2 0 0
730 210 4 0 -2.6862181495153927 4.007688443707123 -3.7366824254071274 2 0 0
204 41 3 0 -1.3870659988701348 3.9677312744258844 -3.9582174432455868 2 0 0
201 41 1 0 -1.1141839428223457 4.0035105498853705 -3.5920720189358155 2 0 0
202 41 3 0 -1.2612014490099526 3.7315221626015047 -3.2792731362109366 2 0 0
205 41 3 0 -1.122405110399531 4.42315155572243 -3.4437318774692813 2 0 0
203 41 3 0 -0.698842375393034 3.897928924122895 -3.705386738216302 2 0 0
5 1 3 0 -4.477297507351449 0.24946437349879513 -2.1639357338160297 1 0 0
76 16 1 0 -4.60987099469343 0.9615083020906905 -2.82737757214589 1 0 0
3 1 3 0 -3.928791902393394 0.4907263325218727 -2.6892064493433576 1 0 0
1 1 1 0 -4.024550853595832 0.26137268460360197 -2.238211152633473 1 0 0
452 118 2 0 -3.130509696798981 1.0081338182735555 -1.9072268260559095 1 0 0
78 16 3 0 -4.379280614114594 1.3029594501385366 -2.552319667631735 1 0 0
565 155 4 0 -4.021379578593027 1.4140292563805454 -2.503747902960025 2 0 0
563 155 2 0 -3.676123039187231 1.6684957653533115 -2.6083271615345507 2 0 0
564 155 4 0 -3.300233431944549 1.9435914644050998 -2.7213824811442886 2 0 0
188 38 3 0 -2.8875032756281156 1.9841210910223879 -2.5999282813551194 2 0 0
454 118 4 0 -2.818091768511799 1.3346668723886337 -2.0258701018864005 1 0 0
186 38 1 0 -2.729373580467251 1.977331135144695 -2.170035481676958 2 0 0
190 38 3 0 -2.491936340246019 1.6005640727421246 -2.096284021914974 2 0 0
185 37 3 0 -3.936255565177488 2.6160007750333536 -2.1782358873854313 2 0 0
736 212 4 0 -2.4617442458368166 2.7751310199884784 -2.0948909014237054 2 0 0
189 38 3 0 -2.465972355042674 2.344650062331799 -2.1053129491932823 2 0 0
457 119 4 0 -2.1232221132732727 2.5498746571768356 -2.145518395281103 1 0 0
455 119 2 0 -1.6654485131493066 2.560082369117527 -2.011785630131959 1 0 0
192 39 3 0 -0.8814157815528993 2.6953647825923843 -2.0926962072450563 2 0 0
456 119 4 0 -1.2110440841946648 2.577113142329102 -1.8782046790172875 1 0 0
690 197 4 0 -4.59485634754413 3.0589579802057907 -2.181659195953887 2 0 0
183 37 3 0 -4.256468511986743 3.2676903237539916 -2.2646370043589883 2 0 0
181 37 1 0 -3.878046076306724 3.0588405518745363 -2.2946148220422464 2 0 0
184 37 3 0 -3.7069667431504945 3.0960094053265887 -2.7343118297959252 2 0 0
182 37 3 0 -3.5743270770298072 3.2519176810831416 -1.9925050505114186 2 0 0
735 212 4 0 -3.1996152808388727 3.333645878161348 -1.9837609639823515 2 0 0
734 212 2 0 -2.835432169049275 3.057766129847982 -2.044875790345986 2 0 0
194 39 3 0 -0.8113184740694224 3.36329048947412 -2.387790287384757 2 0 0
193 39 3 0 -0.24327771036737822 3.0921204138129115 -2.0176114634277744 2 0 0
191 39 1 0 -0.7017887430259551 3.1226474796143604 -2.04391816105137 2 0 0
196 40 1 0 -4.459402553197432 4.337709125767662 -2.4125264412798257 2 0 0
197 40 3 0 -4.337110662949876 3.914270430345211 -2.608630050976142 2 0 0
198 40 3 0 -4.441033864796466 4.304362833129075 -1.9807258764469662 2 0 0
441 114 4 0 -0.1387973555812101 3.929877553821874 -0.9322828814964685 1 0 0
453 118 4 0 -3.462145031923643 0.6782562893362529 -1.7846798119169334 1 0 0
2 1 3 0 -3.804218879977873 0.5127275187589975 -1.8819760421925236 1 0 0
284 62 2 0 -3.5369445331695744 0.23032651342396715 -1.1855425085536302 1 0 0
286 62 4 0 -3.560593582301461 0.34422180412414516 -1.5988400275741483 1 0 0
394 98 4 0 -0.03397879903158785 1.7329009349468576 -1.181183806445814 1 0 0
187 38 3 0 -3.060246522418068 1.9893137531591627 -1.898012102838471 2 0 0
60 12 3 0 -1.0744442116949497 2.5949161257461775 -1.4979067854133712 1 0 0
56 12 1 0 -1.1109958124437513 2.759604072410456 -1.0771494449669365 1 0 0
392 98 2 0 -0.2785260307910775 1.996577890225221 -0.9296226651474662 1 0 0
59 12 3 0 -0.7923076242334046 2.562976085330299 -0.7969647474067578 1 0 0
393 98 4 0 -0.5411600570409165 2.283597330751639 -0.6671425519767453 1 0 0
680 194 2 0 -4.294644165322477 3.725398127392565 -1.357636255451042 2 0 0
705 202 4 0 -1.9497432683770812 3.9085171414001687 -1.3451046339598252 2 0 0
687 196 4 0 -2.2247712865497347 3.841757926903152 -1.074012932652109 2 0 0
704 202 2 0 -1.5387906807606107 3.689160252103746 -1.393111227884897 2 0 0
706 202 4 0 -1.144268366886736 3.472888269283776 -1.437797655182953 2 0 0
58 12 3 0 -1.045029332452859 3.2300596143431184 -1.0918494323058732 1 0 0
195 39 3 0 -0.859765848912359 3.311751978621092 -1.680498117060107 2 0 0
442 114 4 0 -0.7704048485659927 3.4300087096542002 -1.3175994270123663 1 0 0
440 114 2 0 -0.45094309153838097 3.67519451278348 -1.1310294871096556 1 0 0
682 194 4 0 -4.387925127345805 3.9917991651024023 -1.7050318043644799 2 0 0
684 195 4 0 -3.3293774840467742 4.758696588758961 -4.367116030345228 2 0 0
285 62 4 0 -3.510329558948947 0.0976102321612089 -0.712410739431772 1 0 0
48 10 3 0 -3.290818193872812 0.00824686616287007 -0.3883096430509596 1 0 0
46 10 1 0 -2.871870255200105 5.353672534180731e-05 -0.16875029161261157 1 0 0
660 187 4 0 -2.7111795024903285 0.8446903639997876 -0.02985971753546046 2 0 0
659 187 2 0 -2.9314483972935435 1.1408663794976368 -0.3150008145562664 2 0 0
661 187 4 0 -3.150217518766194 1.4413912991214417 -0.6080783665389307 2 0 0
42 9 3 0 -1.7339304577899566 0.1333318695107284 -3.399916635936273 1 0 1
737 213 2 0 -2.5856251773900727 2.5840331725451495 -0.21413566422134522 2 0 0
57 12 3 0 -1.511879444280694 2.6771081062782915 -0.9202550366701154 1 0 0
727 209 4 0 -0.5494150950359487 2.632920221304585 -0.48929973975437857 2 0 0
725 209 2 0 -0.22829456647155855 2.8108550878228513 -0.17968048893000876 2 0 0
752 218 2 0 -4.40490372029783 3.759839928597887 -0.27085786958181046 2 0 0
681 194 4 0 -4.191283317521604 3.4565581571149986 -0.9988485589270617 2 0 0
702 201 4 0 -3.9552171284351494 3.2758058457137613 -0.7349642040392812 2 0 0
753 218 4 0 -4.249278180468424 3.523735646424462 -0.6124609854729606 2 0 0
739 213 4 0 -2.6947850052390177 2.89746265370517 -0.5013011834563192 2 0 0
703 201 4 0 -3.07764921249517 3.0176183072621 -0.5298397135350079 2 0 0
701 201 2 0 -3.5337604646755225 3.1522678774456576 -0.6382578011122728 2 0 0
688 196 4 0 -2.788693112526306 3.2500142777376615 -0.6758047686977235 2 0 0
686 196 2 0 -2.5066916732011233 3.5462414344348554 -0.8757083962416878 2 0 0
199 40 3 0 -4.187122422114986 4.651531260470912 -2.553368023628016 2 0 0
501 134 4 0 -0.16016551279071223 0.7939315897943056 -4.699104223392797 1 0 1
251 51 2 0 -1.0288716180656485 0.03817165325275251 -3.141188674707963 1 0 0
50 10 3 0 -2.7524207195756585 0.4430687493609886 -0.01160438587895296 1 0 0
224 45 3 0 -2.4098628500155392 1.7185487665061432 -4.804626163420293 2 0 1
373 91 4 0 -2.6114643503374335 0.7964925926034949 -4.729723990902571 1 0 1
498 133 4 0 -2.4512087088079757 0.6522051937657753 0.19594706827762565 1 0 0
497 133 2 0 -2.0922422936823324 0.8421828507005698 0.41205922912457105 1 0 0
722 208 2 0 -0.67195842950591 4.471967979199813 4.082105199329464 2 0 -1
520 140 4 0 -0.6177486216620283 0.08365412213112577 0.9006972522458669 1 0 0
518 140 2 0 -0.36107916362752235 0.39001402753382397 0.7372035275662414 1 0 0
499 133 4 0 -1.7234330973281997 1.0222258248795217 0.6327935785575178 1 0 0
354 85 4 0 -1.4061931726141772 1.272493319872905 0.6038361924899851 1 0 0
353 85 2 0 -1.0051196999580352 1.481347760962481 0.5409410845283453 1 0 0
109 22 3 0 -1.5565290107377434 1.1933565262618098 0.9488498643297048 1 0 0
355 85 4 0 -0.594868573243061 1.6971610104080659 0.4845207062917547 1 0 0
97 20 3 0 -0.1940100844023176 1.731811847150107 0.46419788520487604 1 0 0
754 218 4 0 -4.560866450784387 3.997775075787385 0.06971538964604651 2 0 0
723 208 4 0 -0.39578057470638406 4.80406775547531 3.9779278304087144 2 0 -1
242 49 3 0 -0.08026524914409094 3.1719660865733683 0.4099235467577875 2 0 0
788 230 2 0 -3.15272871661242 4.724910365627571 4.472138027422674 2 0 0
710 204 2 0 -4.038105919749248 4.480132473841359 0.48406659376080885 2 0 0
712 204 4 0 -4.439181013837769 4.251811167721338 0.35241785327207786 2 0 0
711 204 4 0 -3.646763074047608 4.685437414739833 0.62307694043725 2 0 0
108 22 3 0 -1.2025276012543897 0.7526407911755735 1.4168029187422677 1 0 0
107 22 3 0 -1.9373891569087553 0.8069169061303336 1.4837366992596648 1 0 0
106 22 1 0 -1.5309999526190827 1.0336346096471827 1.3819733535509764 1 0 0
110 22 3 0 -1.462230796527137 1.377368656524732 1.6641947739844536 1 0 0
755 219 2 0 -0.5006895461127341 3.4240835065841706 1.7533773794879162 2 0 0
757 219 4 0 -0.09988405401989198 3.4080264351880336 1.4927979909073468 2 0 0
243 49 3 0 -0.2032752389014636 3.390946806850148 1.0993217313110302 2 0 0
325 75 4 0 -1.4948607521152653 1.5135818161490997 2.056186921876871 1 0 0
323 75 2 0 -1.4060109518143662 1.641041431272539 2.4754910423077243 1 0 0
370 90 4 0 -0.339247140742847 2.920414758223262 3.02045673204156 0 -1 0
797 233 2 0 -1.2689335103806823 3.306872249189751 2.6703554562701832 2 0 0
799 233 4 0 -1.1543096940059083 3.542585227074274 2.3143964454675094 2 0 0
756 219 4 0 -0.8904691451184852 3.4241022166269284 2.0261651382349113 2 0 0
724 208 4 0 -0.9499876640432285 4.1286809944186045 4.192328274379778 2 0 -1
324 75 4 0 -1.3116388715651564 1.7751479825578702 2.9126241704929194 1 0 0
494 132 2 0 -1.438222877991031 1.639602817836992 3.7261923032787303 1 0 0
496 132 4 0 -1.339487169965146 1.7591461280370115 3.2950991144195383 1 0 0
741 214 4 0 -2.431431148050197 2.6217666081672553 3.2322070601840993 2 0 0
740 214 2 0 -2.0000511903674787 2.775021785994774 3.311681183279261 2 0 0
94 19 3 0 -1.1162027907793903 2.054719137757136 3.1547738125621985 1 0 0
95 19 3 0 -1.2455820420923778 2.7898228195025387 3.3069038899264447 1 0 0
91 19 1 0 -0.9203469207160375 2.463120565248593 3.2920767891602294 1 0 0
93 19 3 0 -0.5850476301452714 2.5985031918558565 3.000812470984936 1 0 0
92 19 3 0 -0.7479525395752376 2.4198330337392457 3.7047708981824856 1 0 0
742 214 4 0 -1.6009336869472284 2.9250709809435875 3.388330014651408 2 0 0
798 233 4 0 -1.3969653670729962 3.0565669299073948 3.0504716489802 2 0 0
474 125 4 0 -1.3017773455721469 3.151789688987516 3.444984935407038 1 0 0
219 44 3 0 -3.494209707841369 4.524546075863408 3.100172082818556 2 0 0
790 230 4 0 -2.989124468918979 4.569718968025803 4.0934332655835055 2 0 0
745 215 4 0 -1.1653349668825967 3.944673375603382 4.448692721009389 2 0 0
473 125 2 0 -1.2457042699828982 3.4829760890274857 3.7486481861914163 1 0 0
223 45 3 0 -2.42029493892254 1.387972325618036 4.16209593459942 2 0 0