LAMMPS data file via write_data, version 19 Nov 2024, timestep = 100000, units = lj

799 atoms
4 atom types
566 bonds
1 bond types
483 angles
2 angle types

-4.807498 4.807498 xlo xhi
-4.807498 4.807498 ylo yhi
-4.807498 4.807498 zlo zhi

Masses

1 1
2 1
3 0.1
4 0.1

Bond Coeffs # harmonic/omp

1 100 0.45

Angle Coeffs # harmonic/omp

1 100 180
2 100 109.471

Atoms # full

579 160 4 0 -4.670988813946856 -3.454287979727664 -3.4583981391187035 1 0 0
270 57 4 0 -4.584206265211586 -3.089088107911703 -3.6516864867999677 0 0 0
302 68 2 0 -1.5899360315914046 -3.6726823239580315 -3.606023591202398 0 0 0
304 68 4 0 -1.6773528204510517 -3.683513645170389 -4.027517358300296 0 0 0
522 141 4 0 -1.569943871238669 -4.651975225866106 -4.24074360648987 0 1 1
10 2 3 0 -1.4556510956771056 -3.767822753323817 -4.34498150097463 0 0 0
9 2 3 0 -1.232523730747302 -4.4546882709128175 -4.321210798501528 0 0 0
6 2 1 0 -1.3498394836816654 -4.117499042882633 -4.5906723951893875 0 0 0
21 5 1 0 -0.25025881097685027 -3.3175132759413937 -4.685662562802388 0 0 1
22 5 3 0 -0.18052138237682946 -3.6368658289497704 -4.359837276617812 0 0 1
269 57 2 0 -4.433312237813905 -2.8710041650764664 -4.041044502897884 0 0 0
271 57 4 0 -4.288537701225768 -2.6505159223514703 -4.426065977977491 0 0 0
383 95 2 0 -3.7006913018990275 -2.1042450434404714 -4.527824207402982 0 0 1
384 95 4 0 -3.9557470757154753 -2.4808107070325436 -4.56449105476404 0 0 1
385 95 4 0 -3.4301587248612915 -1.7140306877051041 -4.492336770475492 0 0 1
630 177 4 0 -4.272395220280997 -2.4990402241456744 -4.79646543678407 1 0 1
33 7 3 0 -2.769129033993341 -1.9646221969599398 -3.813937373301965 0 0 1
309 70 4 0 -2.8125337061703237 -2.012620660877974 -3.413860677651011 0 0 0
32 7 3 0 -3.065899238307916 -1.654091357084582 -4.4402713057845675 0 0 1
31 7 1 0 -2.771256946860707 -1.5903649082751412 -4.0857197942912995 0 0 1
34 7 3 0 -2.3559267453335013 -1.517149044447807 -4.260663158971067 0 0 1
24 5 3 0 -0.34041175247355043 -2.9131515156867507 -4.482954166911136 0 0 1
316 72 4 0 -0.15856934829044636 -2.635555606324965 -4.251600979681912 0 0 0
79 16 3 0 -4.571727728096399 -0.7807329206198811 -3.89766488445962 0 0 0
395 99 2 0 -3.446330120193237 -0.7498442080423269 -3.5041638013956393 0 0 0
76 16 1 0 -4.531601090987769 -0.48445263277849915 -3.5359272208034986 0 0 0
77 16 3 0 -4.105669830865527 -0.3505389708550841 -3.500953113709843 0 0 0
397 99 4 0 -3.709546836013066 -0.4089792750915283 -3.3489054457096286 0 0 0
430 110 4 0 -3.843014706303045 -0.04531656786008751 -3.342710135693213 0 0 0
360 87 4 0 -3.196521236376406 -1.5794402481887484 -4.801739169975524 0 0 1
396 99 4 0 -3.196682325625492 -1.075162178766877 -3.662639294888439 0 0 0
35 7 3 0 -2.8879219886374425 -1.254285876635036 -3.859572534893139 0 0 1
527 143 2 0 -1.7710160873359146 -0.9644260129925409 -4.15588127447152 0 0 1
529 143 4 0 -2.0776387218692927 -1.2801353269283895 -4.126416638835987 0 0 1
320 74 2 0 -0.05793089961461953 -3.9752702531790236 -1.4646434351596522 0 0 0
43 9 3 0 -1.2197129242581148 -0.27667519401951257 -4.159179170167661 0 0 1
528 143 4 0 -1.4287641327099918 -0.6181873939931227 -4.198927993626006 0 0 1
626 176 2 0 -0.7206267927464464 -0.8492009104527976 -4.539997096738334 0 0 1
628 176 4 0 -1.0607144169114118 -0.6137840962763261 -4.339269131834413 0 0 1
627 176 4 0 -0.3644456946794897 -1.0817292410990977 -4.745575655041826 0 0 1
49 10 3 0 -2.5319372019856266 -0.12633940145974779 -0.5903568433257759 0 0 0
321 74 4 0 -0.4123097694877918 -4.2258152945471705 -1.3589957611968284 0 0 0
303 68 4 0 -1.5019527505517398 -3.65781901727346 -3.163952110707692 0 0 0
274 58 4 0 -1.7448176968517257 -3.521235701562392 -2.852597669849761 0 0 0
280 60 4 0 -1.49986614635316 -3.8423812165412863 -2.791041068511701 0 0 0
278 60 2 0 -1.3647925175873432 -4.227130227021321 -2.620593479517342 0 0 0
279 60 4 0 -1.2383193903170555 -4.612753999848729 -2.4480441467324527 0 0 0
371 91 2 0 -3.210167247300931 -0.10712835924092046 -4.675739389998226 0 0 1
272 58 2 0 -1.9474042661082487 -3.1362193450424765 -2.7100331677854106 0 0 0
308 70 2 0 -2.590633730017248 -2.2343176058626653 -3.083722373988338 0 0 0
310 70 4 0 -2.355739887354541 -2.468252960877046 -2.75208778648334 0 0 0
273 58 4 0 -2.138541106691448 -2.7398232446975057 -2.5660739326099318 0 0 0
263 55 2 0 -2.6642384071392016 -2.7389610007366896 -1.9989031134747477 0 0 0
264 55 4 0 -2.4810716151072487 -2.6749539563894973 -2.4210468448708022 0 0 0
265 55 4 0 -2.834419969228238 -2.7977450738470626 -1.6067767884013375 0 0 0
632 178 2 0 -1.0572584358082546 -1.6321202448857184 -0.34673520377406575 0 0 0
3 1 3 0 -3.8000044797734636 -0.22727053412190168 -2.991330744081917 0 0 0
48 10 3 0 -3.1423084799333987 -0.20669968294666477 -0.9877660187507223 0 0 0
291 64 4 0 -4.7453217803558 -0.7275766599944755 -2.7621557779496495 0 0 0
80 16 3 0 -4.646151196178636 -0.6905449762345978 -3.165337705725864 0 0 0
5 1 3 0 -4.387700017520773 -0.5793456920770665 -2.5977999694127663 0 0 0
4 1 3 0 -3.6361081970654006 -0.6505646480389464 -2.4122946758080066 0 0 0
1 1 1 0 -3.9258641391714995 -0.3600419311091 -2.567243788647722 0 0 0
262 54 4 0 -3.4224309267617055 -0.9635317647741105 -2.278761269042015 0 0 0
557 153 2 0 -0.11251721456939615 -1.3370617728498904 -2.353798048347574 0 0 0
649 183 4 0 -0.10028333541276802 -1.2831063475097941 -4.486712481807255 0 0 1
261 54 4 0 -2.566779571885845 -0.8298299560014349 -2.028941869183515 0 0 0
260 54 2 0 -2.9930637049041726 -0.892590249229135 -2.1591969439088037 0 0 0
293 65 2 0 -0.7656040884586008 -1.4701210058813374 -1.490690002417177 0 0 0
295 65 4 0 -0.6646117107580816 -1.191430292249655 -1.8098384314658664 0 0 0
559 153 4 0 -0.45694225692009266 -1.1696084516716843 -2.1644258508792946 0 0 0
285 62 4 0 -3.485049817869063 -0.1606903699263831 -1.1736250835106927 0 0 0
561 154 4 0 -0.20719889992724755 -4.03367129858304 -4.1750433215187375 0 0 0
281 61 2 0 -4.774741083926856 -3.223762435438033 -1.3787991424217514 0 0 0
81 17 1 0 -2.319493818633888 -4.771255500905352 -0.19051702411362348 0 1 0
451 117 4 0 -2.4001270683788207 -4.440164221367959 -0.9330858185834459 0 1 0
84 17 3 0 -2.37157447443952 -4.463756355880547 -0.5557489084805984 0 1 0
257 53 2 0 -2.3794559739694097 -3.727760913343391 -0.5802302400880394 0 0 0
259 53 4 0 -2.276977285037919 -4.1257211276534 -0.7320601573369977 0 0 0
258 53 4 0 -2.473201070640983 -3.3302065412487214 -0.42586048567247914 0 0 0
449 117 2 0 -2.1467093445276832 -4.559892181305463 -1.2769667257126953 0 1 0
450 117 4 0 -1.8916491104035 -4.682480620809085 -1.6312248455098692 0 1 0
540 147 4 0 -0.5487350897638219 -4.41026315338109 -1.0381263190025884 0 0 0
445 115 4 0 -0.39917479629259073 -4.623987673014254 -1.3620067373367657 0 1 0
539 147 2 0 -0.637046740647524 -4.229935504407634 -0.6051986794405751 0 0 0
541 147 4 0 -0.7319562794529352 -4.045265440011801 -0.2047615868125425 0 0 0
268 56 4 0 -3.9990358541557436 -3.2022170715268543 -1.4178932114174316 0 0 0
283 61 4 0 -4.375757429982231 -3.1991187854245444 -1.2281840415957697 0 0 0
266 56 2 0 -3.567805635645899 -3.0452282107658077 -1.3911393853267187 0 0 0
267 56 4 0 -3.1123210428021624 -2.88274253525261 -1.3585799327592396 0 0 0
352 84 4 0 -3.775309182353443 -1.1591428028747848 -0.636153438045687 0 0 0
299 67 2 0 -3.4153840414259697 -1.886127147194563 -0.5729817577621934 0 0 0
139 28 3 0 -4.630692502517544 -1.9947163492871798 -1.467837865024373 1 0 0
301 67 4 0 -3.7201027403997764 -1.5462833049378515 -0.46292012116054293 0 0 0
338 80 2 0 -4.47901602659062 -1.5481273945664134 -0.391540645926226 0 0 0
376 92 4 0 -2.327550035988548 -3.0836444323267154 -0.16983991546542668 0 0 0
319 73 4 0 -1.9136117562558759 -2.3421570711993205 -1.2968119562496334 0 0 0
20 4 3 0 -2.757862357141996 -2.8005470738217726 -1.2060553812532535 0 0 0
18 4 3 0 -2.4088946521378527 -2.964242419637144 -0.548400012614061 0 0 0
300 67 4 0 -3.1206545789290225 -2.2024943278299625 -0.6701627386588371 0 0 0
19 4 3 0 -2.743685447377066 -2.324798400811664 -0.6381088417762663 0 0 0
16 4 1 0 -2.51145045824626 -2.630036569820076 -0.8380362331597794 0 0 0
17 4 3 0 -2.1320179479387527 -2.455882067238801 -0.9812815638665747 0 0 0
294 65 4 0 -0.8860721287151537 -1.7767919775123846 -1.142731254214525 0 0 0
633 178 4 0 -1.0409166774737992 -1.7894023029948412 -0.7773673027717735 0 0 0
607 169 4 0 -0.7323828995077386 -2.0561976829099557 -0.8648443931429625 0 0 0
605 169 2 0 -0.29737906016897314 -2.244301886587657 -0.8591551811983911 0 0 0
317 73 2 0 -1.5016921566752985 -2.22341338999602 -1.1448286893364559 0 0 0
318 73 4 0 -1.0929554692748544 -2.1088724637036997 -0.9899648007788555 0 0 0
351 84 4 0 -3.45733535622032 -0.31772931279543243 -0.7936552225216913 0 0 0
350 84 2 0 -3.6143849265261627 -0.7275223139472738 -0.7150031214628576 0 0 0
339 80 4 0 -4.083030721669246 -1.4306501154091205 -0.5455168195759689 0 0 0
284 62 2 0 -3.6978748171237807 -0.008504093884559168 -1.545963799664442 0 0 0
379 93 4 0 -1.895742065202454 -4.263672109927433 0.3123841992936193 0 0 0
83 17 3 0 -2.030311742554889 -4.589958871984992 0.13571026950555584 0 1 0
287 63 2 0 -0.3953632366785725 -3.8812445912492572 0.48464603638362724 0 0 0
288 63 4 0 -0.6903341288603253 -4.068157912469903 0.2177031381167396 0 0 0
160 32 3 0 -0.09763036413989097 -3.31369331669047 0.6478467127683462 0 0 0
378 93 4 0 -1.0541241683441862 -3.9719066584436202 0.018902820887373096 0 0 0
377 93 2 0 -1.4738134420381417 -4.114543534828836 0.1652008344165993 0 0 0
375 92 4 0 -1.9032255631541317 -2.665242215923682 0.5305907069445603 0 0 0
337 79 4 0 -1.9594306404869464 -2.5689794353265256 0.9222599808528064 0 0 0
335 79 2 0 -2.088665740147839 -2.7827290181558793 1.2946633993169976 0 0 0
336 79 4 0 -2.223641991328997 -3.00370193045021 1.6773492263205556 0 0 0
374 92 2 0 -2.1182822189325505 -2.871587880633915 0.16868263692816662 0 0 0
390 97 4 0 -1.6230326132437622 -2.4968789282713466 0.733962018579728 0 0 0
389 97 2 0 -1.2059775294912918 -2.541336985921488 0.5755937633033575 0 0 0
391 97 4 0 -0.7734900748787588 -2.5858521759439035 0.4165148033812701 0 0 0
156 32 1 0 -0.10188577006945453 -2.845776148753336 0.6596452102173939 0 0 0
157 32 3 0 -0.40903575900571354 -2.6975218578649414 0.33189704315886553 0 0 0
159 32 3 0 -0.23947431020306814 -2.700547639287163 1.0713944094022474 0 0 0
344 82 2 0 -0.14140417836766261 -0.40367710729793127 1.3223253704592366 0 0 0
346 82 4 0 -0.20752959043825783 -0.09004800459499487 1.0185868764885226 0 0 0
359 87 2 0 -3.1498537521886636 -1.1760251518958516 4.616898778554532 0 0 0
345 82 4 0 -0.08001954812611392 -0.7310678704723838 1.6263073717892864 0 0 0
342 81 4 0 -3.0731203725383973 -3.88026832197697 2.0418792547940385 0 0 0
349 83 4 0 -3.216749038075617 -4.23306417099766 1.9827123637992063 0 0 0
347 83 2 0 -3.168331333842801 -4.527856341821347 2.3101029062705987 0 0 0
341 81 2 0 -2.7516277505252105 -3.5460022850350654 1.9604145313844452 0 0 0
343 81 4 0 -2.4618523270492703 -3.24000885926919 1.887878698935064 0 0 0
120 24 3 0 -2.3553039284469763 -4.405052369326655 3.0761714631742 0 1 0
363 88 4 0 -2.345297894646712 -4.030093331162177 2.9076472061180993 0 0 0
362 88 2 0 -2.2136303410908886 -3.7155424259109284 3.1520940030160376 0 0 0
631 177 4 0 -4.704762306755512 -2.252987876521929 4.0436975627473295 1 0 0
152 31 3 0 -4.660509594403992 -4.034985914355677 3.6684856723711725 1 0 0
326 76 2 0 -0.6681392680059277 -3.474909219744609 3.101309637871402 0 0 0
327 76 4 0 -0.3733869351517554 -3.573190616708276 2.7642424073307414 0 0 0
387 96 4 0 -2.1447592028946167 -3.1280792377294313 2.0900525589425776 0 0 0
386 96 2 0 -1.791374942355651 -2.9719383168510642 2.3670271412633164 0 0 0
388 96 4 0 -1.4291680333895946 -2.821359199204772 2.6673186448489887 0 0 0
364 88 4 0 -2.083465807165542 -3.3779496627758396 3.4055784364909862 0 0 0
40 8 3 0 -1.4612360402235505 -2.650584539535706 3.040195953305824 0 0 0
382 94 4 0 -1.3682399539179864 -2.4191706070513157 2.728140297619694 0 0 0
380 94 2 0 -1.1339283692840372 -2.0479091151127617 2.578599606652189 0 0 0
381 94 4 0 -0.9051974025964514 -1.6890677196627646 2.4273413625298907 0 0 0
334 78 4 0 -1.0405932597709004 -1.4759590039207255 2.0900520335168284 0 0 0
332 78 2 0 -0.7080580202652086 -1.226640350035288 1.9074659591403562 0 0 0
333 78 4 0 -0.3751561547974955 -0.9713649712283686 1.7105320684710918 0 0 0
311 71 2 0 -3.3702780453781838 -4.4909305642493 3.8877217746523893 0 0 -1
312 71 4 0 -3.7852243918095696 -4.33214668846655 3.967122462703669 0 0 -1
662 188 2 0 -4.412836229128612 -3.286697433474729 3.5011253722144264 1 0 0
664 188 4 0 -4.522676008529381 -3.7273962299859336 3.4353929724862797 1 0 0
116 24 1 0 -2.521996997685263 -4.801158810834708 3.2013239456083666 0 1 0
313 71 4 0 -2.9566178533286838 -4.653179998645355 3.8232361691331147 0 0 -1
508 136 4 0 -2.6388153173484787 -4.643620676750218 4.055680755063524 0 1 0
506 136 2 0 -2.3338367817146723 -4.396262538027673 4.304241980876089 0 1 0
507 136 4 0 -2.051003101094473 -4.1617409530554745 4.536437112563532 0 1 0
8 2 3 0 -1.7185335253832241 -4.250268967031843 4.769237009358613 0 0 -1
117 24 3 0 -2.629551485643838 -4.7764281243483495 3.654414508514892 0 1 0
328 76 4 0 -0.957764668587467 -3.377651690378185 3.446762468880133 0 0 0
356 86 2 0 -1.0374908538038312 -3.582732304979249 4.1378219992092635 0 0 0
357 86 4 0 -0.8435338356305999 -3.7065296366518665 4.534816991554272 0 0 0
23 5 3 0 -0.5973293394598459 -3.441501526772875 4.684791172660409 0 0 0
358 86 4 0 -1.221807805720023 -3.4719196168523476 3.7668132096119282 0 0 0
7 2 3 0 -0.9962213636725468 -4.010310103569017 4.75017005531961 0 0 -1
173 35 3 0 -4.5264446217320735 -2.605905085294874 3.3663139372385156 1 0 0
663 188 4 0 -4.303847310344124 -2.8543422763238486 3.566145293387635 1 0 0
629 177 2 0 -4.505079076210271 -2.368598242625857 4.4199266203361125 1 0 0
39 8 3 0 -1.9501054868610932 -3.010280086930656 3.387839583560514 0 0 0
38 8 3 0 -1.2848893081012538 -3.142922664486316 3.55539314902943 0 0 0
36 8 1 0 -1.5834968137904453 -2.8361548917961836 3.426436876620883 0 0 0
37 8 3 0 -1.6105019754611045 -2.523139397220856 3.72221696744651 0 0 0
361 87 4 0 -3.1080562476662057 -0.7494856303435462 4.422154791410051 0 0 0
372 91 4 0 -3.179842412242903 -0.5000352724145568 4.722574380007332 0 0 0
289 63 4 0 -0.08877907283297758 -3.6904358892754474 0.7548184338009388 0 0 0
108 22 3 0 -4.072310612321367 -0.04714064622856358 0.9355707081263616 0 0 0
652 184 4 0 -0.022741625343262194 -1.2203203814317598 4.7373649344226765 0 0 0
634 178 4 0 -1.0452407846088139 -1.464204992347459 0.0847613484071738 0 0 0
428 110 2 0 -3.603035497239509 0.323198080417074 -3.4865249704625767 0 0 0
429 110 4 0 -3.3670744597751914 0.7198532777079807 -3.6402456245108734 0 0 0
52 11 3 0 -3.4450250383718535 0.920211312180451 -3.9863382699805707 0 0 0
487 129 4 0 -3.412011811944891 1.320074396910179 -4.730955411996761 0 0 1
431 111 2 0 -1.1409648442426614 3.6713845425323273 -1.232516685875863 0 0 0
54 11 3 0 -3.5730506287345043 1.6035225242487936 -3.9013718491450726 0 0 0
400 100 4 0 -0.8047981657966465 3.247390074328981 -0.6352315622621761 0 0 0
53 11 3 0 -3.1514112933261647 1.4128271746318404 -4.428004471575724 0 0 0
51 11 1 0 -3.272031071276379 1.3245719310515969 -4.007898462659591 0 0 0
305 69 2 0 -2.3381599417691756 0.7297495438109349 -3.69037370905375 0 0 0
307 69 4 0 -2.0227770622598698 0.3720553946590004 -3.7351880025478574 0 0 0
55 11 3 0 -2.89604654019544 1.3571498574340295 -3.7216977362341472 0 0 0
306 69 4 0 -2.6317548932117796 1.0671462765467572 -3.644149901332076 0 0 0
44 9 3 0 -1.6486045566297827 0.18992576407887168 -3.7620888545648157 0 0 1
408 103 4 0 -2.6192468400555238 1.3960167360227156 -3.4184018124417963 0 0 0
60 12 3 0 -4.764098118021104 2.438155167703195 -1.5849679600060171 0 0 0
373 91 4 0 -3.242911160548731 0.2752526134824068 -4.47510703088065 0 0 1
253 51 4 0 -0.6694648466865653 0.06802866725731867 -3.26607651410012 0 0 0
796 232 4 0 -1.109246660872447 0.5969662888376467 -4.48156888457912 0 0 1
45 9 3 0 -1.0442818860887195 0.4632702886033246 -4.10261999947717 0 0 1
251 51 2 0 -0.27313254149210014 0.0617484070589831 -3.066869877187447 0 0 0
2 1 3 0 -3.9403444012259357 0.009827558600042755 -2.2902364189372326 0 0 0
514 138 4 0 -1.682356121205648 2.689089281479512 -4.515468499337653 0 0 1
286 62 4 0 -3.9141251931876155 0.1378501684000834 -1.9072316606148114 0 0 0
406 102 4 0 -1.6225739315250076 3.011524321181702 -4.259710340502176 0 0 0
517 139 4 0 -1.3142371138339206 2.8740506314518175 -4.45996748513694 0 0 1
515 139 2 0 -0.918715576501125 2.947552637299998 -4.730438436423787 0 0 1
404 102 2 0 -1.6739281927552148 3.4132025214838966 -4.037228916610545 0 0 0
405 102 4 0 -1.7248867651581061 3.8013612096146785 -3.8380260803279915 0 0 0
65 13 3 0 -1.587936133402161 4.015899004523567 -3.5277580389946457 0 0 0
523 141 4 0 -1.592488254649048 4.174738914847051 -3.9081160572681966 0 0 1
521 141 2 0 -1.5856278508659618 4.5814078430147305 -4.079201120390483 0 0 1
453 118 4 0 -4.090488515995138 0.3673169047838102 -2.18119751267229 0 0 0
452 118 2 0 -4.264730480577962 0.7376852171069148 -2.323492787425807 0 0 0
454 118 4 0 -4.453978016199673 1.1173648757820425 -2.465933744031463 0 0 0
407 103 2 0 -2.562399927766195 1.7379119108166372 -3.1795643135026843 0 0 0
398 100 2 0 -0.5318109040966883 3.308763243617067 -0.2808595447590183 0 0 0
191 39 1 0 -4.589030887479793 3.212593642213412 -2.0315023560427132 1 0 0
394 98 4 0 -3.792034461816109 1.3181535824729176 -1.6600035196463832 0 0 0
192 39 3 0 -4.560997638607905 2.774620919386187 -2.035407832299722 1 0 0
409 103 4 0 -2.503398860895095 2.130507405841466 -2.919835775635416 0 0 0
424 108 4 0 -2.762830616775667 2.217926287096401 -2.636257027226448 0 0 0
422 108 2 0 -2.7402834451937617 2.6197907159970635 -2.4287138614241486 0 0 0
423 108 4 0 -2.720473438294171 3.0240063301662654 -2.2193428416095546 0 0 0
463 121 4 0 -2.9440963981530524 3.265411306000877 -2.009538192829194 0 0 0
193 39 3 0 -4.1768842402651325 3.387459781747761 -2.145650600226102 1 0 0
462 121 4 0 -3.822435367857312 3.6058579746624915 -2.174360603773214 0 0 0
461 121 2 0 -3.3715755796257088 3.430143221891928 -2.0912020579435873 0 0 0
402 101 4 0 -2.5858153398353227 3.4004739976539056 -2.1157745872648124 0 0 0
62 13 3 0 -1.8000043463152364 3.939880362820716 -2.8280431007195355 0 0 0
403 101 4 0 -1.862776982460617 3.8066753414395413 -2.4450506737723217 0 0 0
401 101 2 0 -2.2387066930076327 3.592738429105695 -2.2676657047912583 0 0 0
74 15 3 0 -1.8496098482303949 4.7504433510068536 -1.9958358648591206 0 0 0
75 15 3 0 -1.7013982905552518 4.079667118682215 -2.2257849870656274 0 0 0
444 115 4 0 -0.9186401214700518 4.304395346487754 -1.5577901376791792 0 0 0
71 15 1 0 -1.5218995141194684 4.445665348652603 -2.09664132205689 0 0 0
468 123 4 0 -0.0749848845971879 4.156815305375694 -2.6074589401220067 0 0 0
64 13 3 0 -1.232211093372049 3.551155596908948 -3.0987408947653803 0 0 0
61 13 1 0 -1.4463410730753792 3.9415625325643147 -3.1166034491664076 0 0 0
72 15 3 0 -1.2509173797627127 4.60716134800684 -2.422231072125851 0 0 0
73 15 3 0 -1.2707276551642763 4.362650375389822 -1.7268261974972932 0 0 0
469 123 4 0 -0.978056936313357 4.416151265848805 -2.6694849161807843 0 0 0
467 123 2 0 -0.5319435399232189 4.290635328354143 -2.6395348715548597 0 0 0
63 13 3 0 -1.1769719431500965 4.271099119759636 -3.004607119364112 0 0 0
659 187 2 0 -3.7429379768863744 0.8853611586257127 -0.6684516374598156 1 0 0
661 187 4 0 -4.065389537281773 1.1198368101987533 -0.7970668129131543 1 0 0
660 187 4 0 -3.38938990539452 0.6116630068020078 -0.5207014365806202 1 0 0
498 133 4 0 -3.266896444285753 0.3238105699183947 -0.28288165738209714 0 0 0
50 10 3 0 -3.0435538703653595 0.4276064369369824 -0.603159795563878 0 0 0
47 10 3 0 -2.6179518587902706 0.26733580222245434 -1.2299213017166715 0 0 0
46 10 1 0 -2.8369582189414837 0.08115029997326216 -0.8550805127828042 0 0 0
205 41 3 0 -4.744614754330494 3.2422026489688385 -4.300540903926876 1 0 0
392 98 2 0 -3.903508803409809 1.696642491937907 -1.3692573413733338 0 0 0
56 12 1 0 -4.6485266554606435 2.5599525292294287 -1.170002560463249 0 0 0
58 12 3 0 -4.627844276524107 3.0406602643928764 -1.1279190168547129 0 0 0
59 12 3 0 -4.2250296926881985 2.379215261827821 -1.0650372549165223 0 0 0
393 98 4 0 -4.004434424133875 2.04540493299234 -1.096008664489313 0 0 0
727 209 4 0 -3.880987881399765 2.302307774331624 -0.8368081747426539 1 0 0
725 209 2 0 -3.73095949328598 2.2839351549236464 -0.42093975134993056 1 0 0
41 9 1 0 -1.2243735998269996 0.10083659101177754 -3.875063314081016 0 0 1
465 122 4 0 -2.1123774423051547 2.4341375226685127 -0.15388773989896992 0 0 0
435 112 4 0 -1.7672036632125747 2.2510556580660905 -0.11629718660711709 0 0 0
42 9 3 0 -0.9902510930614632 0.017885456997097843 -3.5057269842529846 0 0 1
224 45 3 0 -4.780653708149802 0.9328730643323131 -4.389388826280137 1 0 1
418 106 4 0 -1.7988991075514118 2.5782091492365824 -0.37102248529935045 0 0 0
416 106 2 0 -1.4140207262530728 2.757330375423353 -0.5774604841190432 0 0 0
417 106 4 0 -1.0375472398457664 2.949062209561932 -0.7732883847397187 0 0 0
442 114 4 0 -4.531475870929253 3.4201751695031617 -1.2288186535308487 0 0 0
195 39 3 0 -4.704495219134811 3.361695384300149 -1.5945196961161248 1 0 0
441 114 4 0 -3.805544795003327 3.7015683509509585 -0.8574658888401882 0 0 0
440 114 2 0 -4.175459197483235 3.5603927696029882 -1.0420174310541919 0 0 0
427 109 4 0 -3.548395370191121 3.5146056183682104 -0.5916502476771636 0 0 0
425 109 2 0 -3.289212275320607 3.341192498970671 -0.2948629275281879 0 0 0
426 109 4 0 -3.0436634180217985 3.167134087899911 -0.007362625901480263 0 0 0
82 17 3 0 -2.140188557464536 4.443588627971132 -0.3619005953531782 0 0 0
433 111 4 0 -1.2050872847561225 4.012077852565153 -1.531168861313798 0 0 0
443 115 2 0 -0.6600708825884546 4.646358368241002 -1.4571494465677297 0 0 0
432 111 4 0 -1.0783358742874747 3.3265348025535975 -0.9217611811310465 0 0 0
434 112 2 0 -1.735677577236249 1.81322648850442 -0.023517566550434275 0 0 0
609 170 4 0 -4.447716701952947 4.538359385048625 -0.28692575016968913 1 -1 0
109 22 3 0 -3.4060277140462927 0.325299204233644 0.9311310219692638 0 0 0
106 22 1 0 -3.8622368593806913 0.34897049533942565 1.0576921657501537 0 0 0
107 22 3 0 -4.058271017169575 0.6841644902017153 0.8565366713126559 0 0 0
497 133 2 0 -3.192437110580449 0.3144798555726138 0.17330558402172808 0 0 0
110 22 3 0 -3.8959599793934117 0.40794254130318 1.5270759446037043 0 0 0
415 105 4 0 -0.09055904480634562 1.6463978695056292 0.40596570405092886 0 0 0
499 133 4 0 -3.1376663492821693 0.2985986475606739 0.6228591483507944 0 0 0
353 85 2 0 -2.575677695938299 0.64292659390977 1.015190031492576 0 0 0
354 85 4 0 -3.0204689925147123 0.48130646077727407 0.9309244051019195 0 0 0
97 20 3 0 -1.7852763423295048 0.9959647943335634 1.1278225190070936 0 0 0
355 85 4 0 -2.1486950377572764 0.8054658859071244 1.095532223081697 0 0 0
99 20 3 0 -1.8242338268107718 1.1450910313204257 0.4068488837051856 0 0 0
96 20 1 0 -1.5447606602248363 1.0951771432759276 0.7771017392018235 0 0 0
98 20 3 0 -1.232511987778339 0.751324876457792 0.6878298484347858 0 0 0
519 140 4 0 -0.9929754225973156 0.5623740984527825 0.4132361575512377 0 0 0
100 20 3 0 -1.323708240006842 1.4828674102021648 0.846973273123417 0 0 0
366 89 4 0 -1.1651933880354528 1.7855517265442036 0.5999728672955361 0 0 0
518 140 2 0 -0.6537391307759236 0.4246110159342902 0.6719477693943953 0 0 0
520 140 4 0 -0.31097189281260956 0.2983569323972218 0.9277198216559636 0 0 0
242 49 3 0 -3.7251284580157664 2.5102488769384785 0.2848904107223922 1 0 0
243 49 3 0 -3.968868644623221 2.688355282000826 0.94105986674451 1 0 0
241 49 1 0 -3.763692866638511 2.838125544184221 0.5809803172508521 1 0 0
757 219 4 0 -4.294690378864196 2.7232124010386753 1.1591709651510413 1 0 0
755 219 2 0 -4.5661982327534405 2.927423759181297 1.4649539044644588 1 0 0
436 112 4 0 -1.7082136329759234 1.3426527362886667 0.0702710072011162 0 0 0
244 49 3 0 -3.3532659870936223 2.974991514296886 0.7011321472153434 1 0 0
119 24 3 0 -2.8853936088180205 4.739969050938023 2.973018286956376 0 0 0
365 89 2 0 -0.7176911102871917 1.894711253746911 0.5682797302302707 0 0 0
367 89 4 0 -0.2790457712720471 1.9854736825487473 0.5332792445131815 0 0 0
245 49 3 0 -4.001384998178394 3.1938713524383426 0.4058480193643446 1 0 0
793 231 4 0 -4.096102191769379 3.5639301346378853 0.37665096051387553 1 0 0
791 231 2 0 -4.288031490275591 3.9453549501914185 0.21596900272014988 1 0 0
792 231 4 0 -4.4815428824036125 4.323165394245843 0.053624255054818375 1 0 0
348 83 4 0 -3.121707100032516 4.776847262887604 2.667370371306686 0 -1 0
85 17 3 0 -2.751109475969019 4.75762484785314 4.500399564203155e-05 0 0 0
104 21 3 0 -0.4977914931702969 3.0734153366183374 0.9514412530401493 0 0 0
105 21 3 0 -0.2763648140685699 3.7270550686705133 1.1623399924898146 0 0 0
101 21 1 0 -0.20501026210112794 3.39216015305345 0.8715931148696061 0 0 0
103 21 3 0 -0.25951012133255064 3.5507572971166934 0.4395240072703588 0 0 0
399 100 4 0 -0.246570681103452 3.3790942392527987 0.08198769644114069 0 0 0
325 75 4 0 -3.756941675906979 0.7474262504824944 1.642978532331933 0 0 0
323 75 2 0 -3.5287454512165883 1.0334865990732072 1.912748523906437 0 0 0
324 75 4 0 -3.304171707981869 1.3208564017486768 2.1771521817987427 0 0 0
370 90 4 0 -4.174967789162001 2.7571969169490735 2.6361725967822305 0 -1 0
93 19 3 0 -4.288810938822035 2.8065948447153968 3.014195927028058 0 0 0
531 144 4 0 -0.27026810468688905 3.246215504239446 4.453670973350783 0 0 0
368 90 2 0 -3.802722113046704 3.020524417923028 2.6316917876126675 0 -1 0
511 137 4 0 -1.6484360228704513 2.242003318461892 3.3112630212897463 0 0 0
509 137 2 0 -1.3273568129878834 2.4752007787708354 3.082912098136111 0 0 0
510 137 4 0 -1.0267992174858578 2.703934854690676 2.8628923942804247 0 0 0
111 23 1 0 -0.38383836377040936 2.9305087602556674 2.504152070233612 0 0 0
115 23 3 0 -0.8081968863676454 2.999507662042494 2.685375605895121 0 0 0
114 23 3 0 -0.33335798085346935 2.481798144351686 2.376894888443717 0 0 0
113 23 3 0 -0.32835875979605655 3.19691811863771 2.1387040673728026 0 0 0
112 23 3 0 -0.061372746168896535 3.034873631318338 2.800057718401928 0 0 0
369 90 4 0 -3.426305606995368 3.2941372327102845 2.645995375411424 0 -1 0
488 130 2 0 -3.0549315581452876 3.9484494789799993 2.7113379098563084 0 0 0
490 130 4 0 -3.0642024917723836 3.504947691937755 2.6518490117217985 0 0 0
530 144 2 0 -0.12625217565943153 3.6331256004739982 4.331026911905064 0 0 0
489 130 4 0 -3.0290659194972207 4.415150912638179 2.778477138287517 0 0 0
524 142 2 0 -1.771918272318731 3.994014061992868 2.9584775761458855 0 0 0
525 142 4 0 -2.076732388279274 4.325691403281864 2.8276668464113204 0 0 0
118 24 3 0 -2.2313399501475284 4.493512067829994 3.132148595517993 0 0 0
526 142 4 0 -1.4773867275925372 3.672957889292747 3.0863661666389075 0 0 0
495 132 4 0 -4.513920703664719 1.5057831727634214 4.287495440655793 0 0 0
225 45 3 0 -4.6607571074103795 1.2077495800985703 4.540600653229546 1 0 0
494 132 2 0 -4.63653350401348 1.7444424929982474 3.9505377525617793 0 0 0
486 129 4 0 -4.2720726651459175 1.296975541225053 4.542388417140879 0 0 0
485 129 2 0 -3.8472670887251796 1.3030268163796024 4.712884191213026 0 0 0
502 134 4 0 -1.1673647043519257 1.252569619660821 3.276495629200793 0 0 0
500 134 2 0 -1.026269618837761 1.1367084646863643 3.696308346419444 0 0 0
501 134 4 0 -0.8898192248683563 1.0133423660827579 4.1098727262120605 0 0 0
795 232 4 0 -0.6231982566187514 0.8879342834102347 4.397023053835104 0 0 0
94 19 3 0 -4.6176083154933645 2.2565783836074784 3.344631914043759 0 0 0
91 19 1 0 -4.596184006032445 2.704060376414278 3.3024573182763244 0 0 0
92 19 3 0 -4.496909375198966 2.900905045832719 3.714533856622815 0 0 0
496 132 4 0 -4.742907650146018 1.9825255979854777 3.6062822912255643 0 0 0
479 127 2 0 -2.876881472524292 3.038297862859909 4.2479517519091035 0 0 0
471 124 4 0 -2.3856418283148897 2.388084739408815 4.106660449779552 0 0 0
470 124 2 0 -2.199657598453752 2.2711245599286642 3.6856089885460745 0 0 0
472 124 4 0 -2.029190544483359 2.16765003599985 3.281730679562464 0 0 0
481 127 4 0 -2.663448301511986 2.647629586734122 4.22980465670112 0 0 0
493 131 4 0 -2.6356610877759254 2.2922049969849154 4.397367761163023 0 0 0
491 131 2 0 -2.8537728757929517 1.9245835564227274 4.59278709640355 0 0 0
513 138 4 0 -2.361025399969271 2.573784323194072 4.473149320490212 0 0 0
516 139 4 0 -0.5402224666767098 3.0162683309266902 4.631296795158115 0 0 0
748 216 4 0 -0.1412800850931147 2.9049336904384364 4.601710710396691 0 0 0
410 104 2 0 -2.804721570179106 4.189562263071527 4.0741899665866255 0 0 -1
480 127 4 0 -3.108806168905754 3.4617250040338745 4.269390097685151 0 0 0
412 104 4 0 -2.840000618420609 3.753973482395942 4.21310346482283 0 0 -1
411 104 4 0 -2.7695639017658182 4.620743805503499 3.9443500807214518 0 0 -1
794 232 2 0 -0.8728997689624217 0.7367982947196137 4.768565512032903 0 0 0
492 131 4 0 -3.079367199646537 1.5483365996558998 4.796812258635821 0 0 0
512 138 2 0 -2.0240034906967033 2.6357641214857734 4.796114407892272 0 0 0
726 209 4 0 -3.556313261725934 2.270840035827812 0.006240388024937659 1 0 0
464 122 2 0 -2.4227249601438987 2.7255072304558667 0.017022760873592287 0 0 0
466 122 4 0 -2.7314384068935516 3.0057234687338616 0.1859400392156052 0 0 0
560 154 2 0 0.18940662185706952 -4.250953067956831 -4.190246099536758 0 0 0
562 154 4 0 0.5803170564703833 -4.479668026654368 -4.2077412718790255 0 0 0
603 168 4 0 0.9487649542434542 -4.307668418758154 -4.309648330423909 0 0 0
602 168 2 0 1.349122107393399 -4.128333668071 -4.160273002034398 0 0 0
150 30 3 0 3.2693336215466178 -2.2823199574940647 -0.4964426417763104 0 0 0
789 230 4 0 0.7073681963057962 -4.508922564855673 -4.6053130817264964 0 1 1
566 156 2 0 2.520937183209665 -3.977967809905933 -3.9317181407459896 0 0 0
574 158 4 0 1.7889612195436795 -3.5351449183678425 -4.026473300085236 0 0 0
567 156 4 0 2.096776502980769 -3.8022244667558 -4.055371956030982 0 0 0
568 156 4 0 2.9087962136277197 -4.139927034288417 -3.814198968526499 0 0 0