LAMMPS data file via write_data, version 19 Nov 2024, timestep = 100000, units = lj

79 atoms
4 atom types
54 bonds
1 bond types
35 angles
2 angle types

-3.045986 3.045986 xlo xhi
-3.045986 3.045986 ylo yhi
-3.045986 3.045986 zlo zhi
-1.120259440767768e-11 0 0 xy xz yz

Masses

1 1
2 1
3 0.1
4 0.1

Bond Coeffs # harmonic/omp

1 100 0.45

Angle Coeffs # harmonic/omp

1 100 180
2 100 109.471

Atoms # full

32 10 2 0 -2.6495698104670815 -1.5823351183140162 -1.9846602674407208 1 0 1
34 10 4 0 -3.0059096574746733 -1.8518109714602555 -1.9296918550905888 1 0 1
33 10 4 0 -2.299855287704661 -1.320397263863519 -2.033839954375658 1 0 1
76 24 4 0 -2.2518420591305466 -0.91420965460749 -2.107336890676239 1 0 1
74 24 2 0 -2.3036237472660304 -0.5153238371621325 -1.9016941882231653 1 0 1
75 24 4 0 -2.356872401159854 -0.11007013008120259 -1.6923589406841775 1 0 1
14 4 2 0 -0.5158631931583901 -1.972118269216713 -1.01151962607902 0 0 1
15 4 4 0 -0.234056816034518 -2.2813253642155353 -1.1816330188818116 0 0 1
16 4 4 0 -0.7862556709430399 -1.6658311081462112 -0.8555888454022305 0 0 1
46 14 4 0 -0.7072761594095285 -1.3582852889735493 -0.6165985257909021 0 0 1
45 14 4 0 -0.7418264954025284 -0.47700848228034776 -0.7408306793905632 0 0 1
44 14 2 0 -0.7181597632433641 -0.9166706967082421 -0.6802999284245326 0 0 1
60 19 4 0 -0.8610862316886352 -0.11588370921352276 -0.6256303788568878 0 0 1
57 18 4 0 -2.7821982546845705 -0.4658111021086211 1.6815659227539603 1 0 0
19 5 4 0 -2.634485352486963 -0.27494768932223623 1.9962021355280584 1 0 0
17 5 2 0 -2.2012894743842337 -0.3259813616489864 2.0723013879208176 1 0 0
18 5 4 0 -1.7611021741227744 -0.3794982293405722 2.150733554740226 1 0 0
27 8 4 0 -1.872608556322256 0.9891196733235876 -1.822823159650933 0 1 1
7 2 3 0 -2.1341603751252647 0.7666653459815231 -1.6178994027160742 0 0 1
26 8 2 0 -1.5029846264492654 1.1239445376743165 -2.0873228271410196 0 1 1
28 8 4 0 -1.144741367502308 1.25135096635805 -2.3544667478424657 0 1 1
3 1 3 0 -1.0069468269686168 1.2300886286155368 -2.7407147854591365 0 0 1
5 1 3 0 -0.5689713088612263 0.6937372342515875 -2.476162065316519 0 0 1
1 1 1 0 -0.7140335631262764 0.8973623844764216 -2.8538491254975966 0 0 1
30 9 4 0 -0.49190057955607003 0.8580046227144025 -2.1152662363563492 0 1 1
29 9 2 0 -0.3066428800044485 0.5145678280636998 -1.888108671891602 0 1 1
31 9 4 0 -0.11914759136992359 0.1759927158449881 -1.6593003240016262 0 1 1
6 2 1 0 -2.1443483445238836 0.4559075943868449 -1.3156418579786684 0 0 1
8 2 3 0 -2.5648587478781457 0.4344374720384514 -1.1376180719157911 0 0 1
10 2 3 0 -1.8392764025980268 0.5561951455565337 -0.9858660655552938 0 0 1
36 11 4 0 -2.936545398003706 0.33072256016829016 -1.1799134411495686 0 0 1
61 19 4 0 -1.5976157105654318 0.3605206768406046 -0.7479841220780536 0 0 1
9 2 3 0 -2.042869439772913 0.06296215053035459 -1.497614024070821 0 0 1
59 19 2 0 -1.2258135944722335 0.12128684707507453 -0.6875129541524894 0 0 1
48 15 4 0 -1.654006459282135 0.0042103371241850596 2.2479244434153207 0 0 0
2 1 3 0 -0.35764685861212264 1.07179617905767 3.0158709099839873 0 0 0
4 1 3 0 -0.9290410105522957 0.5853820232797622 2.967119199800778 0 0 0
47 15 2 0 -1.2765797635412475 0.1939422771804602 2.431967443105971 0 0 0
49 15 4 0 -0.90252040594424 0.3845523817056371 2.6056699987542222 0 0 0
25 7 4 0 2.7130735611802095 -1.9919585249655163 -1.9043958196578539 0 0 1
23 7 2 0 2.322327015158397 -1.7875070092832916 -1.9077087628825518 0 0 1
24 7 4 0 1.9195782495518525 -1.5785624023866067 -1.9116867357839837 0 0 1
69 22 4 0 1.249077818176386 -0.5396468646509591 -1.7887322480336065 0 0 1
72 23 4 0 0.9047563471681928 -0.36460948858382247 -1.6869291950426113 0 1 1
71 23 2 0 0.47192796311270113 -0.25489963142640937 -1.5686825371264568 0 1 1
68 22 2 0 1.4479212181306984 -0.9226002026618629 -1.8920965319489174 0 0 1
70 22 4 0 1.6434456403029927 -1.302817458090635 -2.0017382812500024 0 0 1
51 16 4 0 0.9034605665949953 -2.8141793751318414 -1.4570831323738374 1 0 1
50 16 2 0 0.5136608613954596 -2.6379781814103 -1.361184606939369 1 0 1
52 16 4 0 0.11383449555170477 -2.455233379849542 -1.2719244472859537 1 0 1
41 13 2 0 0.6350739836909272 -2.05705984464457 -0.2957673622032493 1 0 0
43 13 4 0 0.7954007529846092 -1.6242711666238399 -0.25039575173771045 1 0 0
42 13 4 0 0.4771957949666481 -2.4735999870141843 -0.3434435328913601 1 0 0
78 25 4 0 1.1796411028466895 -1.6512510671577842 -0.29100968569285257 0 1 1
73 23 4 0 0.03123420491331874 -0.1457971766451207 -1.4465758580829373 0 1 1
53 17 2 0 2.474734757783697 -0.8128410330323641 -0.49177639416799934 0 0 1
54 17 4 0 2.410942336653604 -1.248798035417369 -0.434634859393642 0 0 1
55 17 4 0 2.5466196217154424 -0.3565103643395475 -0.5535925807333415 0 0 1
77 25 2 0 1.5987522913151162 -1.4647613443279894 -0.32075682022007346 0 1 1
79 25 4 0 2.011900678580905 -1.290914185238297 -0.3515952164113729 0 1 1
37 11 4 0 2.8810952660120828 -0.14450676000658236 -0.4587403639449663 -1 0 1
40 12 4 0 1.3296858572293866 -0.25123737108865374 0.14646207019346225 1 0 0
58 18 4 0 2.557882715001159 -0.6307557562025159 1.2161933996826715 0 0 0
67 21 4 0 1.5959913654758644 -0.3836283356913608 0.42722794533670916 0 0 0
56 18 2 0 2.9466461453926476 -0.5504328786952848 1.455743663991953 0 0 0
65 21 2 0 1.8907471012841421 -0.48018127461739235 0.7460261979411844 0 0 0
66 21 4 0 2.1927837446266425 -0.572364000633236 1.0730961415870608 0 0 0
64 20 4 0 0.8301188348522919 1.2303903747153795 -2.863027337787046 2 0 1
21 6 4 0 1.0024163781066564 1.5001495465113424 -2.633935733135105 1 0 1
62 20 2 0 0.4325718132953038 1.129769113027522 -3.0234079654567645 2 0 1
20 6 2 0 0.9583283176581423 1.6301297460341209 -2.1750972581384205 1 0 1
13 3 4 0 1.0818896331079646 2.0754466833501466 -1.5849568915550114 1 0 2
22 6 4 0 0.9156631895770593 1.7579222468186204 -1.7387085254812782 1 0 1
35 11 2 0 3.015630842159921 0.0865546661767218 -0.8092168954730887 -1 0 1
11 3 2 0 1.1046549429433368 2.526944013320885 -1.471138015795075 1 0 2
12 3 4 0 1.131412718329564 2.9610120041853563 -1.3624310949495515 0 0 2
38 12 2 0 1.2628853672781943 0.19825871814814366 0.14839087355278124 1 0 0
39 12 4 0 1.194931459129906 0.6566139502789552 0.14272317287170067 1 0 0
63 20 4 0 0.014125835265691666 1.025105692517183 2.902098190887596 2 0 0

Velocities

32 0.01810026180600996 0.01140171181233209 0.14873804858635253
34 -0.3688469462327154 0.20660713051825236 0.3005090628985968
33 0.2761956512878866 -0.09889086849248144 0.8183581634809779
76 -0.22553401801391307 -0.5411479119937812 1.0936464931372265
74 0.17448798625754677 0.16028088332074888 -0.21308181704808057
75 -1.14879025875057 -0.6844164259503837 0.4500502045299476
14 -0.1500244450557294 -0.05907558733818097 -0.01819983918659032
15 1.0574514649676456 0.7135676771569841 0.5008081361257711
16 -0.28894871392609495 -0.8864542197889768 -0.3047829444507751
46 0.31466807300256927 -0.9936507209955199 0.3314139005559447
45 0.47858736639199717 -0.5070595645182002 0.507067630489967
44 0.02510118094630784 -0.34155263733341334 -0.13792833125879045
60 -0.4658291337928434 -0.5216985324351259 -0.04640884946425451
57 0.5924680688159101 -0.34490820916088044 -0.3491554438603175
19 -0.07622099317724863 0.2816743810954172 0.5175670690659592
17 0.32179587159042433 0.02357796512171823 -0.030738060549603038
18 0.07329925180813905 -1.192838889064518 -0.2745882623128872
27 -0.1424362622402147 0.5852280017346556 0.3730191742555463
7 -0.2896079424705224 0.44799495167935244 0.305368693726565
26 -0.1440968320240271 0.1199390539931834 -0.12774200354336743
28 0.6018717574268274 0.04353874318994404 0.27103900039352813
3 -1.0934175824584569 -0.43392111913394765 -0.21406276982832473
5 -0.43347667825261704 -0.16385537869035674 -0.07103469307491583
1 0.04227876795721338 0.09957416401857726 0.26396150597127205
30 0.4391286764542601 -0.335542300430999 -0.06305333920633385
29 -0.3213588151912365 -0.12324997706495618 -0.14699079259300887
31 0.05520282496440103 0.44799714381740824 -0.22936364524447772
6 0.17884346444384408 -0.13072945196880778 -0.06852197518448139
8 -0.47545921024200605 -0.34730661853974454 -0.5209946054260938
10 -0.5120286614932252 0.2792597395290731 -0.21738311041534625
36 -0.6062576719772207 0.16409969378596845 0.044136618404634176
61 0.6542501632006212 -0.24565654451454674 0.11965886405362468
9 0.4703030497057332 -0.01978118271726734 -0.11291392402354328
59 0.3306110998228847 -0.11599396945925393 0.23791547391619494
48 -0.49325619780581664 -0.26529107065785773 0.19717665362344958
2 0.5687234553385545 -1.386386498006416 0.2401616930603239
4 1.0922542894153786 0.7458524375549634 -0.03108175618074578
47 -0.09423642057275752 0.18041560054687722 -0.03256977780514207
49 -0.2706039570793203 -0.33630795836004795 -0.40409276171313185
25 0.38631467756471893 0.11091692229041988 0.8216008335755497
23 -0.2804099762334899 -0.2086792637053584 0.003341961122175272
24 -0.8104957842148526 -0.41907652970467585 -0.09183260718495875
69 0.35947394588996506 -1.0458751273678217 -1.1634423961438873
72 -0.2681335668723224 -0.34408987215605774 -0.33140227384644616
71 0.19008508756732156 0.04153366370477295 -0.07658258883576541
68 0.08869418047372575 -0.1914105429276538 0.09132659457036463
70 -0.6823440253543791 -0.3927908900917609 0.2364512496140185
51 -0.4792970619516096 0.22639441556705572 0.11524563697423845
50 0.20131188293105742 -0.10114283895497116 0.02246182576418479
52 -0.06544753731688711 -0.24690079506918478 -0.22707854329110058
41 0.29190118070845034 -0.04434542933146554 -0.17622099620350004
43 -0.8757942750899179 -0.7347090077385539 -0.3327543883173025
42 0.27748417754866567 -0.7665623084437412 -0.3176146420403725
78 0.9233718601710958 -0.8837730105069581 0.09373388152662429
73 -0.20188240201915464 0.019677665992128557 -0.969804398057444
53 -0.1544986904655405 -0.252589215693996 0.1664006342685674
54 -1.054358990449702 0.8239571698357918 -1.0728293293589535
55 0.9048582039790741 0.11339124921947763 -0.020238983874068882
77 -0.2357801254987338 -0.07693839182876236 -0.08821515124377992
79 -0.6490157519060773 -0.3883761059774492 0.9666086514191529
37 0.5479001711789565 0.01434302742535129 -0.6157888687789472
40 0.17555570002961948 -0.37209346499355606 -0.18766558075514012
58 0.689943567255592 -0.5467486490680011 -0.5470422962998212
67 -1.1896982457034988 0.507116383368797 0.49128014060180103
56 0.26021906278983603 -0.017304042635400307 -0.07873357114610777
65 -0.0990151705088227 0.07436038141228409 -0.24819979872321038
66 -0.26327805411863325 0.4304710825550221 -0.6121741325349426
64 -0.05510551646076249 -0.4879486566028055 0.09096533365195768
21 0.5596603247033481 0.31526856388401014 -0.8849354289539247
62 -0.28825593700940105 -0.010508019314307806 -0.25413744087075524
20 0.11597340683130596 -0.0011353426834676637 -0.13664636708996497
13 0.3154328151668016 0.4620618674533462 0.08225121545088601
22 -0.29097776984704893 -0.4219349570020568 0.12467602254888376
35 -0.02847491415173632 -0.09562727145304101 -0.07715223222550618
11 0.022145994396322588 0.26405511197915077 0.10248103783490384
12 0.33358895181889187 -0.6326736811811909 -0.31488879536016195
38 0.074469628997716 -0.15104334367803465 0.10760308503551366
39 -0.7828534997491576 -0.3252813171020678 -0.07238425702356172
63 0.9581537638782727 0.39315135984477956 0.3186237589976949

Bonds

1 1 32 33
2 1 32 34
3 1 74 75
4 1 74 76
5 1 14 15
6 1 14 16
7 1 44 45
8 1 44 46
9 1 17 18
10 1 17 19
11 1 26 27
12 1 26 28
13 1 1 2
14 1 1 3
15 1 1 4
16 1 1 5
17 1 29 30
18 1 29 31
19 1 6 7
20 1 6 8
21 1 6 9
22 1 6 10
23 1 59 60
24 1 59 61
25 1 47 48
26 1 47 49
27 1 23 24
28 1 23 25
29 1 71 72
30 1 71 73
31 1 68 69
32 1 68 70
33 1 50 51
34 1 50 52
35 1 41 42
36 1 41 43
37 1 53 54
38 1 53 55
39 1 77 78
40 1 77 79
41 1 56 57
42 1 56 58
43 1 65 66
44 1 65 67
45 1 62 63
46 1 62 64
47 1 20 21
48 1 20 22
49 1 35 36
50 1 35 37
51 1 11 12
52 1 11 13
53 1 38 39
54 1 38 40

Angles

1 1 33 32 34
2 1 75 74 76
3 1 15 14 16
4 1 45 44 46
5 1 18 17 19
6 1 27 26 28
7 2 2 1 3
8 2 2 1 4
9 2 2 1 5
10 2 3 1 4
11 2 3 1 5
12 2 4 1 5
13 1 30 29 31
14 2 7 6 8
15 2 7 6 9
16 2 7 6 10
17 2 8 6 9
18 2 8 6 10
19 2 9 6 10
20 1 60 59 61
21 1 48 47 49
22 1 24 23 25
23 1 72 71 73
24 1 69 68 70
25 1 51 50 52
26 1 42 41 43
27 1 54 53 55
28 1 78 77 79
29 1 57 56 58
30 1 66 65 67
31 1 63 62 64
32 1 21 20 22
33 1 36 35 37
34 1 12 11 13
35 1 39 38 40
