LAMMPS data file via write_data, version 29 Aug 2024, timestep = 100000, units = lj

805 atoms
4 atom types
570 bonds
1 bond types
485 angles
2 angle types

-4.496439 4.496439 xlo xhi
-4.496439 4.496439 ylo yhi
-4.496439 4.496439 zlo zhi
0 0 0 xy xz yz

Masses

1 1
2 1
3 0.1
4 0.1

Bond Coeffs # harmonic/omp

1 100 0.361231

Angle Coeffs # harmonic/omp

1 100 180
2 100 109.471

Atoms # full

583 161 4 0 -3.2739518331248476 -3.6608363567270437 -3.131341928841285 1 0 0
581 161 2 0 -3.5423191167967576 -3.396169426533503 -3.246845233390207 1 0 0
582 161 4 0 -3.8029605525815366 -3.14560931219338 -3.358999903582215 1 0 0
690 197 4 0 -3.06626939299791 -4.010020247266668 -3.1198268198422157 1 0 1
689 197 2 0 -2.9967092573667315 -4.361384877855136 -3.283594924519213 1 0 1
618 173 4 0 -3.9831246697721134 -2.895786987151343 -3.6638302596254064 1 0 0
735 212 4 0 -0.7104927036782835 -3.377282744884303 -3.5174942725479013 2 1 0
654 185 4 0 -0.6131845535009703 -3.7715497080356024 -3.594290137510486 1 0 1
734 212 2 0 -0.8372907859180447 -3.024007490050488 -3.6088392927430295 2 1 0
653 185 2 0 -0.5430573514005861 -4.095315410201611 -3.708662616850066 1 0 1
655 185 4 0 -0.4577113211659256 -4.451586863660797 -3.813976131943934 1 0 1
642 181 4 0 -4.04994696503514 -2.842524490064461 -3.2737112994724527 1 0 1
617 173 2 0 -3.9816954522752215 -2.8109788611637194 -4.0529278877966455 1 0 0
641 181 2 0 -4.22725883737145 -2.559922801066249 -3.0408802758882567 1 0 1
298 66 4 0 -3.0146450480327407 -1.5620922264211483 -3.242311824592826 1 0 0
296 66 2 0 -3.274093815768368 -1.587295892992457 -3.0095681148127857 1 0 0
615 172 4 0 -2.801996784834345 -1.7808262677977673 -3.497570694109316 1 0 0
589 163 4 0 -1.8598082063442862 -2.106375976663302 -4.147071946552758 1 0 0
587 163 2 0 -1.5642138195071906 -2.312646535266405 -3.982099540114469 1 0 0
616 172 4 0 -2.2554171169522315 -2.050187429099713 -4.01399813089498 1 0 0
388 96 4 0 -2.1545777679322824 -1.9694078006046647 -4.37921138563665 1 0 1
614 172 2 0 -2.527326426683171 -1.9147781509180533 -3.75811157058874 1 0 0
588 163 4 0 -1.2816650092874302 -2.505146394013634 -3.840866565458644 1 0 0
736 212 4 0 -0.9557440923458209 -2.6829600830300357 -3.7014552128261373 2 1 0
263 55 2 0 -3.527048280117428 -0.3493934974644528 -2.836444353943196 1 0 0
265 55 4 0 -3.8349700154301263 -0.5629937488491925 -2.886948024933501 1 0 0
264 55 4 0 -3.242488002389833 -0.15464035167346957 -2.7955203149439884 1 0 0
312 71 4 0 -1.798348165027296 -0.9601610913254577 -3.271496433851156 1 0 0
280 60 4 0 -1.6811458986086874 -0.7747086647530215 -3.603248592388768 1 0 0
278 60 2 0 -1.521943163123634 -0.8085239020509389 -3.9456151653439226 1 0 0
279 60 4 0 -1.3675394233263574 -0.840585944934392 -4.289331861941602 1 0 0
613 171 4 0 -0.014698619646595468 -1.1667277275406978 -3.604946627218456 1 0 0
602 168 2 0 -3.865921091703293 -3.2227520996018253 -2.045116963069583 1 0 0
603 168 4 0 -4.127984642324701 -3.4857316940463767 -2.0045869353909977 1 0 0
626 176 2 0 -3.5360869430210613 -4.383129869621328 -2.0019487007520236 1 0 0
596 166 2 0 -0.6810369294479943 -1.2307517368639855 -0.5459053539378784 1 0 0
624 175 4 0 -3.027968846978675 -3.7176204866624065 -2.811489531182538 1 0 0
623 175 2 0 -2.793489276823175 -3.6900859380501347 -2.5011096018595866 1 0 0
625 175 4 0 -2.586440813764946 -3.6659925319707845 -2.221485368694236 1 0 0
595 165 4 0 -2.3832156473933948 -3.6579557117183383 -1.8801296018998777 1 0 0
266 56 2 0 -0.8620492800952215 -3.057781199984105 -1.8156043516548284 0 0 0
268 56 4 0 -0.9018549296701108 -3.403074951847876 -1.755863943800842 0 0 0
607 169 4 0 -0.9227145574130722 -3.6929380628466175 -1.4877372585582678 1 0 0
604 168 4 0 -3.5979224852102334 -2.9490545851499506 -2.0863229118910778 1 0 0
567 156 4 0 -3.22028641887521 -2.8087627307380405 -2.063830071571467 1 0 0
93 19 3 0 -3.770092093237747 -1.6928526875487995 -2.4197586677885896 1 0 0
94 19 3 0 -3.995047761885167 -1.991823554927509 -1.9973688141127965 1 0 0
91 19 1 0 -4.074900050420598 -1.83023353778127 -2.2565243805762805 1 0 0
92 19 3 0 -4.2517940628964475 -2.0649966644941107 -2.5021998205916134 1 0 0
643 181 4 0 -4.385918774202708 -2.301008779177557 -2.822288207088241 1 0 1
297 66 4 0 -3.5613884403086797 -1.6204144093795998 -2.7530764945312396 1 0 0
310 70 4 0 -3.804781709754137 -2.03545317233565 -1.6360452496850932 1 0 0
566 156 2 0 -3.0111178396229086 -2.482702260301811 -2.1413723601432437 1 0 0
568 156 4 0 -2.8218867299715047 -2.1838258789065432 -2.206779003212937 1 0 0
119 24 3 0 -2.6179010198611854 -1.8356984571874135 -2.16016016769115 1 0 0
118 24 3 0 -2.0184767868332214 -1.816446437303036 -2.087154245974738 1 0 0
116 24 1 0 -2.3093806304642324 -1.606714053089552 -2.1173776220198945 1 0 0
591 164 4 0 -1.6271171098788506 -1.906431472454802 -2.175923303034154 1 0 0
590 164 2 0 -1.3148570211576591 -2.100161394688618 -2.0724198011516974 1 0 0
267 56 4 0 -0.8245441307238535 -2.6696744937096364 -1.873345762473713 0 0 0
592 164 4 0 -0.996193188340114 -2.3047506538427265 -1.9589340464915614 1 0 0
255 52 4 0 -0.589371689496752 -2.338362244362388 -1.8887503547430406 0 0 0
254 52 2 0 -0.23302878599510546 -2.164668825724891 -1.9875840814139174 0 0 0
95 19 3 0 -4.303812348552958 -1.5555062573051774 -2.1614178365585603 1 0 0
305 69 2 0 -4.33373409405051 -0.9015388799399053 -1.802453502032769 1 0 0
306 69 4 0 -4.369494319036905 -1.1667015725383552 -2.043393637099445 1 0 0
319 73 4 0 -4.232722901436967 -0.6395879413584264 -2.9519168225886157 1 0 0
311 71 2 0 -1.9348724666876578 -1.0247898097854096 -2.9342952370342736 1 0 0
117 24 3 0 -2.2751719158447634 -1.3794867148842909 -2.419621776866254 1 0 0
120 24 3 0 -2.351560028181671 -1.3883177849156576 -1.8144515983837919 1 0 0
313 71 4 0 -2.0770420276297523 -1.0895249816480934 -2.579346792569131 1 0 0
489 130 4 0 -1.1957948765223403 -0.09221931131368688 -2.94451879212075 1 0 0
593 165 2 0 -2.3854273722258275 -3.6641675317476032 -1.5160129529522557 1 0 0
137 28 3 0 -2.3142377210718523 -3.52044015860204 -0.30345366407948937 1 0 0
594 165 4 0 -2.392909891184144 -3.666057006392896 -1.1134459049739904 1 0 0
140 28 3 0 -1.721724115147604 -3.3867843515509253 -0.4039434333729055 1 0 0
139 28 3 0 -2.136774569490789 -3.474039506987058 -0.8846994960817707 1 0 0
136 28 1 0 -2.0950411653515895 -3.3415639465620144 -0.5222024223156922 1 0 0
660 187 4 0 -1.4947409518686547 -3.652715635723576 -0.18957302280732158 1 0 0
766 222 4 0 -1.4022044010767507 -3.2529678903088457 -0.18877484220514873 2 1 0
659 187 2 0 -1.34128245634014 -3.998321149618227 -0.1349866166070015 1 0 0
605 169 2 0 -0.8997507509072404 -3.97351785180105 -1.2217390263358796 1 0 0
661 187 4 0 -1.1673129074712385 -4.373951721402414 -0.08480059111298033 1 0 0
606 169 4 0 -0.8732291340975578 -4.242251136865382 -0.9635235490018483 1 0 0
308 70 2 0 -3.6466808790584975 -2.124400111357864 -1.3111215584808056 1 0 0
309 70 4 0 -3.511309181275016 -2.199542713638669 -1.0168345995558488 1 0 0
158 32 3 0 -3.3103468778416567 -1.547653640686819 -0.5162382515142525 1 0 0
138 28 3 0 -2.184808769257109 -2.974359798727704 -0.5055692066197475 1 0 0
160 32 3 0 -2.727290004585501 -1.5999419842539435 -0.541422874318521 1 0 0
374 92 2 0 -2.306560818692707 -2.2606859256062117 -0.4817546740934713 1 0 0
376 92 4 0 -2.1669817516456655 -2.6002178780961733 -0.533613405492205 1 0 0
375 92 4 0 -2.456550190659481 -1.9131759408056 -0.4303975934339892 1 0 0
619 173 4 0 -3.972667126745392 -2.7215867764011614 -4.413179291634534 1 0 0
764 222 2 0 -1.1840953064581452 -2.956612297407978 -0.05067858153518667 2 1 0
349 83 4 0 -4.104364374217551 -0.5426676548031169 -1.2119830239551153 1 0 0
307 69 4 0 -4.283811583280572 -0.6366537225066002 -1.5625457652564894 1 0 0
348 83 4 0 -3.8795639684691654 -0.161788179630042 -0.6309346188677507 1 0 0
346 82 4 0 -3.5171634747740144 -0.09081655439383152 -0.43624233948723123 1 0 0
344 82 2 0 -3.241413703686855 -0.11589233541219279 -0.1810446137974564 1 0 0
347 83 2 0 -3.9927799928437175 -0.3595760908225225 -0.9307499788352716 1 0 0
156 32 1 0 -3.00687505127753 -1.4067213912956502 -0.6514434756485139 1 0 0
157 32 3 0 -3.0174127625502534 -1.4206919793677564 -1.00619721728151 1 0 0
159 32 3 0 -2.970762704882381 -1.0602916903685866 -0.5383988093482914 1 0 0
609 170 4 0 -2.2713492483138076 -1.083253704338361 -1.5684506988850035 1 0 0
608 170 2 0 -2.305100356594837 -0.7975172010914897 -1.3382651826318215 1 0 0
610 170 4 0 -2.339201813419093 -0.5256244785173529 -1.1107962070806563 1 0 0
597 166 4 0 -1.0078327450467843 -1.2757192380082292 -0.7482805739248151 1 0 0
598 166 4 0 -0.3585313343790073 -1.1824985011554325 -0.35158168908290666 1 0 0
13 3 3 0 -2.9024688387996607 -0.028420848569380652 -2.938748938465938 1 0 0
628 176 4 0 -3.3191520903413276 -4.124862030932895 -1.9848132020639264 1 0 0
427 109 4 0 -0.04122097405021563 -0.09207664163428309 -0.8830094042688486 1 0 0
425 109 2 0 -0.36152885723128225 -0.03970444021116215 -0.6530645947588263 1 0 0
38 8 3 0 -0.08354629116032619 -2.541679893651883 -0.11833796704017985 0 0 0
438 113 4 0 -0.011752222884049424 -3.8345000746626012 -3.210620723592182 1 1 0
633 178 4 0 -2.565974843506217 -3.592544032708022 -0.035314546265928115 1 0 0
634 178 4 0 -3.058083638623054 -3.7842655855493925 0.500597509245928 1 0 0
687 196 4 0 -3.334939772165847 -3.972009036661774 0.7144919781598631 1 0 0
686 196 2 0 -3.67815370143803 -3.877540241130146 0.817142228538744 1 0 0
688 196 4 0 -4.031443938449498 -3.782116567838951 0.9220495362031791 1 0 0
632 178 2 0 -2.8103862601316987 -3.686278533213934 0.22724757189896838 1 0 0
41 9 1 0 -2.5505654863230607 -1.3394555091604827 3.319514735012655 1 0 0
363 88 4 0 -4.416897158087084 -2.4502927255150135 0.734402005733032 1 0 0
364 88 4 0 -4.049880373586733 -2.572889999241733 1.388775333011651 1 0 0
362 88 2 0 -4.242705635416476 -2.502936056837382 1.043437079243522 1 0 0
37 8 3 0 -0.055224186465297365 -2.900263327653491 0.42262683734142037 0 0 0
36 8 1 0 -0.2187834345853874 -2.563989707715397 0.22701288534652697 0 0 0
39 8 3 0 -0.1099238873986863 -2.233309367362239 0.4213970863095824 0 0 0
40 8 3 0 -0.5919053505852787 -2.598079507837955 0.21811361935798246 0 0 0
285 62 4 0 -0.023311628124622175 -3.1156472742020687 1.504906670039209 0 0 0
380 94 2 0 -3.0520203425578734 -0.46776554562698003 0.795531808372524 1 0 0
382 94 4 0 -3.196974397521811 -0.5958187023291526 1.1179306977783865 1 0 0
759 220 4 0 -3.478062942399633 -0.5246232852209096 1.3989387372893285 2 0 0
758 220 2 0 -3.7937103252194087 -0.6838066128511331 1.5553015895336273 2 0 0
345 82 4 0 -2.9559576273577566 -0.13760618753923204 0.08705202951971103 1 0 0
381 94 4 0 -2.890422123745486 -0.3271978171570282 0.43707501292174733 1 0 0
540 147 4 0 -2.589141220296935 -0.11823199020901676 0.21730761977562008 1 0 0
539 147 2 0 -2.2247062665341715 -0.0357928359088433 0.20831681145035486 1 0 0
600 167 4 0 -4.421675972770448 -3.866060319030781 0.9926128029812622 1 0 0
321 74 4 0 -0.3781687595601042 -1.5532395513919912 3.836788292624255 0 0 -1
672 191 4 0 -3.1698983898351907 -3.1467915119779395 1.7244627329116877 1 0 0
769 223 4 0 -2.861096655045084 -3.4162876776480586 1.6109549650265196 2 1 0
767 223 2 0 -2.5542250938252193 -3.589878914616542 1.6936465120303188 2 1 0
135 27 3 0 -1.784468861857278 -4.309973519284154 2.539139284661732 1 0 0
768 223 4 0 -2.2172981191220673 -3.7685839224348094 1.7869981692533452 2 1 0
131 27 1 0 -1.6873482378123041 -4.007501306306203 2.316496206003552 1 0 0
134 27 3 0 -1.6709145698147307 -3.7115920654164354 2.513577352130498 1 0 0
133 27 3 0 -1.9648644311230012 -3.9619735083758756 2.0485144816265732 1 0 0
132 27 3 0 -1.3521381347575785 -4.064375651866535 2.1523188720059645 1 0 0
504 135 4 0 -0.9580044285553067 -3.9794697049159415 2.1630877830815614 1 1 0
503 135 2 0 -0.632508667735638 -4.095086649227127 2.020405146878838 1 1 0
505 135 4 0 -0.28590781818021416 -4.214875991268024 1.86074174137382 1 1 0
671 191 2 0 -3.4848089617154927 -2.951015221832928 1.6758858708413245 1 0 0
673 191 4 0 -3.793758364395006 -2.74902219752627 1.6350229703148251 1 0 0
23 5 3 0 -3.9775212605689845 -2.4192589069637735 1.7776002937671747 1 0 0
22 5 3 0 -4.331339526309742 -1.9075084543076284 1.8461582386575692 1 0 0
21 5 1 0 -4.1183521295718375 -2.1330637276455193 2.0372880653522447 1 0 0
25 5 3 0 -3.8382920505344518 -1.9496281245198634 2.1871454702670547 1 0 0
683 195 2 0 -3.186779669928148 -1.818167094013897 2.5676447681144765 1 0 0
684 195 4 0 -3.463681797813601 -1.8335634905955258 2.3501010776871185 1 0 0
24 5 3 0 -4.326913251692676 -2.2957984746205486 2.308564075862887 1 0 0
685 195 4 0 -2.8690121875680505 -1.806383159927757 2.8149987184648166 1 0 0
17 4 3 0 -0.2571169091230372 -2.8810327968766876 2.7889866517911557 0 0 -1
760 220 4 0 -4.0781185299197285 -0.8294713779889862 1.6958022934248138 2 0 0
66 14 1 0 -0.1839794232433949 -0.0688024946004493 2.2200687495450024 1 0 0
549 150 4 0 -0.5405288956713421 -0.6919117465118756 2.479759423680556 1 0 0
68 14 3 0 -0.35131081751823956 -0.4003537792770109 2.2800944052632772 1 0 0
550 150 4 0 -0.8728339495759339 -1.2818643815946098 2.2988609545951375 1 0 0
548 150 2 0 -0.7049617834079371 -0.9915030711810697 2.387205727016692 1 0 0
681 194 4 0 -3.1662085309682038 -3.377317137079944 3.126954262677959 1 0 0
680 194 2 0 -3.4535627052168696 -3.201655491718027 3.2864860217214913 1 0 0
682 194 4 0 -3.741894079427002 -3.0154033998474663 3.45946817499462 1 0 0
112 23 3 0 -2.2757840851494593 -3.68653741235344 2.9517883487893526 1 0 -1
115 23 3 0 -2.7717063775644797 -3.4102306802616758 3.1566082401525506 1 0 -1
111 23 1 0 -2.389709792752463 -3.464178740158101 3.2020367770837668 1 0 -1
114 23 3 0 -2.33519227217006 -3.6014170943174744 3.5082155293270683 1 0 -1
113 23 3 0 -2.209862099639694 -3.1423375956786397 3.1813994270883086 1 0 -1
639 180 4 0 -1.8569296621055034 -2.9021761626878453 3.0659596566582517 1 0 0
638 180 2 0 -1.457349776652706 -2.8963747350612326 3.1355971257738027 1 0 0
640 180 4 0 -1.1046973886404485 -2.9053410265592046 3.1902518154276267 1 0 0
18 4 3 0 -0.21047910060758124 -3.0212276783642946 3.3804113816432233 0 0 -1
141 29 1 0 -4.07207344822906 -2.505418929892861 3.8634954910748815 1 0 0
143 29 3 0 -3.83423677938038 -2.2147743753291302 3.8800519690945903 1 0 0
630 177 4 0 -3.8017470586356215 -1.8003246590716282 3.832574960748599 1 0 0
142 29 3 0 -3.9879504458425834 -2.725122295049977 3.576907020655624 1 0 0
144 29 3 0 -4.0437153405725965 -2.6961957208180047 4.157131535068252 1 0 0
629 177 2 0 -3.5361505104406237 -1.5400659437878632 3.761057849347597 1 0 0
145 29 3 0 -4.426369998214885 -2.3764133381840185 3.8319453012427998 1 0 0
387 96 4 0 -2.193814077163747 -1.7009592807188048 3.8779123017241774 1 0 0
669 190 4 0 -2.6150842812214963 -2.03946754811439 3.04783403055192 1 0 0
44 9 3 0 -2.6286356210330455 -1.630775028825033 3.0550552109599947 1 0 0
670 190 4 0 -2.2034825540749767 -2.713083026942 3.1345235992137424 1 0 0
668 190 2 0 -2.4075272930649287 -2.37451990271851 3.0902419540486195 1 0 0
386 96 2 0 -2.1770229209553813 -1.8238638203598891 4.235178756537393 1 0 0
19 4 3 0 -0.7236750729710422 -2.83377363173463 3.165795771491127 0 0 -1
320 74 2 0 -0.32366135578248745 -1.799165952300747 3.608468731160099 0 0 -1
322 74 4 0 -0.26776309568310097 -2.0593087131547425 3.3678862362115582 0 0 -1
16 4 1 0 -0.3754892267187211 -2.795087121399554 3.140269580897362 0 0 -1
20 4 3 0 -0.2838215239627857 -2.4539586959131423 3.2149662046041056 0 0 -1
498 133 4 0 -3.02402508057156 -0.9176268867727306 3.6637101022478786 1 0 0
499 133 4 0 -3.19489439713104 -0.18623837617607908 3.8803630494273866 1 0 0
631 177 4 0 -3.2497725783329763 -1.2497015840420294 3.681343825700206 1 0 0
497 133 2 0 -3.115721678733376 -0.5309768017866383 3.774368787607707 1 0 0
42 9 3 0 -2.399973119839032 -1.0244745158183277 3.131913652056441 1 0 0
389 97 2 0 -1.844707348062244 -0.517474545141249 3.0955938999037356 1 0 0
391 97 4 0 -2.115704883274606 -0.7507560708538072 3.1649296825011666 1 0 0
45 9 3 0 -2.874769349751137 -1.2358171261820727 3.497572954633827 1 0 0
43 9 3 0 -2.312750067156702 -1.4572607917927334 3.562900607150623 1 0 0
390 97 4 0 -1.567025806469064 -0.2821152763913286 3.025375363658852 1 0 0
765 222 4 0 -0.9733705628513207 -2.668267377823917 0.08988608336405512 2 1 0
738 213 4 0 -4.164083717193247 1.298828401348647 -3.496623879411614 2 0 0
737 213 2 0 -3.915306630524384 1.287433183542773 -3.215193674157036 2 0 0
739 213 4 0 -3.6927812600384797 1.282551310212738 -2.96577177592967 2 0 0
526 142 4 0 -2.7872182638981955 0.7522244861994762 -3.4785166210062948 1 0 1
208 42 3 0 -0.018545534302380595 2.940062896182557 -2.5267660829343663 2 0 0
15 3 3 0 -2.7363233149380988 0.5652049995725612 -3.126054598190159 1 0 0
524 142 2 0 -2.753785599040686 0.9847185802240999 -3.7911418175415847 1 0 1
290 64 2 0 -1.7451093159532642 0.457599661470959 -3.568712453406101 1 0 0
14 3 3 0 -2.32231535381892 0.10216698877441743 -3.1600559202240905 1 0 0
292 64 4 0 -1.990427265901701 0.2261944808611709 -3.3844200137417175 1 0 0
525 142 4 0 -2.7173248809755473 1.1926890668921892 -4.075676011447318 1 0 1
711 204 4 0 -2.5450408005420333 1.5273156994276293 -4.280446869271627 2 0 0
291 64 4 0 -1.4911803404778072 0.6890367357840121 -3.7580570671247844 1 0 0
436 112 4 0 -1.1191364198213112 0.8729259707353618 -3.859945742237292 1 0 0
434 112 2 0 -0.8363425688881301 1.00486295426128 -3.705984672862971 1 0 0
435 112 4 0 -0.4874130524885292 1.167596053276113 -3.513503360417218 1 0 0
192 39 3 0 -0.08977460942163074 1.2184611243509726 -3.6010171644388436 1 0 0
456 119 4 0 -0.24333474575416147 1.3374240033884712 -3.229401798591071 1 0 0
247 50 3 0 -4.331335071642357 1.5166086334575803 -4.426013023713046 2 0 1
627 176 4 0 -3.7713992149634237 4.32960069396088 -2.0202176608373876 1 -1 0
102 21 3 0 -1.0342725118046703 4.263289904374399 -0.26141322435959946 1 -1 0
455 119 2 0 -0.33017313998464015 1.4927548165827984 -2.8808372207223396 1 0 0
743 215 2 0 -0.7471250595147736 2.1103082435677942 -3.989706432618129 2 0 0
744 215 4 0 -0.518815934962106 2.2389252664861115 -3.712972975197317 2 0 0
729 210 4 0 -0.5204105597138349 2.4493247280268493 -3.357619033890036 2 0 0
745 215 4 0 -0.9652526272128128 1.9875709116947968 -4.268486422878319 2 0 0
728 210 2 0 -0.3421266660191682 2.685127470602743 -3.1216445869827774 2 0 0
584 162 2 0 -3.010082954018016 3.6429219592730986 -3.771369252129288 1 -1 0
586 162 4 0 -3.0063017735721167 3.3190880962132185 -3.9916729426204975 1 -1 0
184 37 3 0 -3.21903218170252 3.0834728591611897 -4.282716684244694 2 0 0
691 197 4 0 -2.9351127850901193 4.317470986416125 -3.422268470306902 1 -1 1
585 162 4 0 -3.0235621798526733 3.97296007846493 -3.5569346761917355 1 -1 0
444 115 4 0 -0.42621137638395457 4.250587994809087 -4.0858747187044955 1 0 0
443 115 2 0 -0.5337660997388469 3.9344724819286414 -4.251508646818722 1 0 0
105 21 3 0 -1.1744678680470244 3.8151564485608924 -0.6962288056106507 1 -1 0
445 115 4 0 -0.6473729231200211 3.626524161959785 -4.418711306943884 1 0 0
664 188 4 0 -4.257306433684175 0.7156612559782518 -1.9070680949048127 2 0 1
662 188 2 0 -3.90604236834528 0.7719664914174693 -1.7977406112898704 2 0 1
663 188 4 0 -3.5773777630408103 0.8149838196641772 -1.6989386200383914 2 0 1
557 153 2 0 -0.26772281219422034 2.195768284642866 -0.015677171043763316 1 0 0
11 3 1 0 -2.610831876289713 0.2453928950593136 -2.960390578238914 1 0 0
12 3 3 0 -2.492496767681689 0.3267899719975027 -2.6129183581835065 1 0 0
325 75 4 0 -2.3783985399137535 0.5621951712550866 -2.322616784176927 1 0 0
323 75 2 0 -2.1854770147495652 0.778565346364636 -2.0747039868015147 1 0 0
324 75 4 0 -1.9910296018902662 1.0036385391059603 -1.8341379736416945 1 0 0
412 104 4 0 -1.927440334546581 1.2890237834728202 -1.5657371594499048 1 0 0
327 76 4 0 -1.2499190434779393 0.08813479955103087 -1.6542811819745618 1 0 0
488 130 2 0 -0.9494856526536699 0.0986209236791673 -2.7478858490278197 1 0 0
490 130 4 0 -0.7069961118901036 0.28746940459368187 -2.548881917992559 1 0 0
421 107 4 0 -0.37710107713350727 0.3647383454766677 -2.298572088006386 1 0 0
419 107 2 0 -0.12492802940067271 0.6189880185647931 -2.2138307525430068 1 0 0
579 160 4 0 -4.183769902216183 2.5855118021195214 -2.1584567801759618 1 -1 0
578 160 2 0 -3.937188730120555 2.8684839909982145 -2.1778280000649244 1 -1 0
480 127 4 0 -0.4356863711568222 1.9337514567824154 -2.288704780424188 1 0 0
457 119 4 0 -0.40757848463020974 1.6363169961331634 -2.5552634160758885 1 0 0
481 127 4 0 -0.45731984768510436 2.22552940555451 -1.598961562236167 1 0 0
479 127 2 0 -0.4504213007487783 2.0787942391044334 -1.9440705182631604 1 0 0
730 210 4 0 -0.16494940344959375 2.9187912410490293 -2.8981975706777368 2 0 0
104 21 3 0 -0.978951117144673 4.377594976869081 -0.8875052020693501 1 -1 0
249 50 3 0 -4.3942145118806915 1.3158118402037937 -3.8765921900904186 2 0 1
575 159 2 0 -3.1712342261301925 3.5955553622654106 -2.376659730151176 1 -1 0
577 159 4 0 -3.5167595936011753 3.487711995350055 -2.3080715138023034 1 -1 0
580 160 4 0 -3.697673294158928 3.1463361045169114 -2.198280387032187 1 -1 0
576 159 4 0 -2.8139816145982537 3.6923502298418134 -2.454409087265028 1 -1 0
433 111 4 0 -1.779472477956654 4.019146177422619 -2.38454330124337 2 0 0
432 111 4 0 -2.447336034562927 3.793317260478756 -2.567339668129757 2 0 0
431 111 2 0 -2.1157866210006175 3.900268300759552 -2.476285048083613 2 0 0
3 1 3 0 -1.1809008387124993 0.7212032484964963 -0.15617845524451024 1 0 0
731 211 2 0 -1.1366033817098788 3.570816736679851 -1.545729713059374 2 0 0
733 211 4 0 -0.8728461776587584 3.6175182890321294 -1.784518780715728 2 0 0
727 209 4 0 -0.5962128851005581 3.8958259229721017 -1.9103144395407723 2 0 0
726 209 4 0 -0.26163103387948894 3.921864844537267 -2.590391398652287 2 0 0
725 209 2 0 -0.4298922053758716 3.9095097846736673 -2.2554275535564963 2 0 0
410 104 2 0 -1.7599109948524094 1.5378538747021002 -1.3837237153492756 1 0 0
326 76 2 0 -1.2785439370916851 0.22369619734350277 -1.314104438143188 1 0 0
2 1 3 0 -1.4467340535693465 0.4002621684726577 -0.5746839937144488 1 0 0
328 76 4 0 -1.3146317772719294 0.3606745458471563 -0.9625635566120816 1 0 0
1 1 1 0 -1.292072863399814 0.38939911555245743 -0.24527307904560836 1 0 0
101 21 1 0 -0.9399000035250529 4.1065776453120675 -0.6172274875528596 1 -1 0
103 21 3 0 -0.613877309451492 3.987559438925291 -0.6129171958319848 1 -1 0
4 1 3 0 -1.015322172151087 0.16780414122257614 -0.24989900493984774 1 0 0
411 104 4 0 -1.5859165491328073 1.7857204670810756 -1.191090322406938 1 0 0
559 153 4 0 -0.37051037963375677 2.3610038083619065 -0.3808780230874129 1 0 0
261 54 4 0 -1.1913913942427024 1.851584604347603 -1.0701766930241705 1 0 0
722 208 2 0 -0.17961817241504008 2.8939643406241062 -0.8544941339056598 2 0 0
260 54 2 0 -0.9215817914100639 2.0630835781901675 -0.8586389520496729 1 0 0
262 54 4 0 -0.6553676179894072 2.274479229775923 -0.6592993362829467 1 0 0
723 208 4 0 -0.42280756715837153 2.6028714051940645 -0.7146559618632469 2 0 0
748 216 4 0 -2.2704840581986327 3.381740444005233 -0.685939820019053 2 0 0
732 211 4 0 -1.424838899449902 3.5190475395635454 -1.2852176591288078 2 0 0
747 216 4 0 -1.8274533276086808 3.485658855512412 -1.2638848428798601 2 0 0
746 216 2 0 -2.050571308896799 3.4318820335405897 -0.9750161104208059 2 0 0
426 109 4 0 -0.6588500854593913 0.02103508920204522 -0.4365230792827113 1 0 0
541 147 4 0 -1.847858890270647 0.03323736074882255 0.1987951618443482 1 0 0
396 99 4 0 -2.988511625786154 3.2983461556349374 3.7734736205039203 1 -1 0
465 122 4 0 -1.1654975111404315 1.0469841396079618 0.06074861289901712 1 0 0
464 122 2 0 -1.1550191682054707 1.413171123618639 0.13917321679505346 1 0 0
778 226 4 0 -0.7742347292830467 3.3257406847645257 4.33874364296696 2 0 0
776 226 2 0 -0.9276210738244073 3.0438070284836893 4.247455866773342 2 0 0
58 12 3 0 -0.01629210185369434 1.9687692371042518 1.2473796167083409 1 0 0
558 153 4 0 -0.17002910664389415 2.061640694395468 0.29302600684767466 1 0 0
466 122 4 0 -1.1507516727670435 1.794620574744875 0.21744313917996205 1 0 0
395 99 2 0 -2.7713601331096296 3.497406315224576 3.559995198404578 1 -1 0
532 144 4 0 -3.7131718660117627 3.7668473866211754 1.463039166490912 2 0 0
531 144 4 0 -2.9696056580862997 3.951491894315745 1.4349732122715988 2 0 0
530 144 2 0 -3.350367418968758 3.8566022754553684 1.448275197966841 2 0 0
637 179 4 0 -1.6127992023677722 3.640638611896301 1.4461778885779948 1 -1 0
802 234 4 0 -2.7151130816095796 3.6649170003516582 1.6183972327242584 2 0 0
800 234 2 0 -2.3360825696459684 3.598695445748512 1.598544584852056 2 0 0
801 234 4 0 -1.9686072054950157 3.538684647454228 1.577105564914417 2 0 0
635 179 2 0 -1.2740740156258203 3.5579069392229306 1.4125439034036216 1 -1 0
719 207 2 0 -0.7467176949916303 4.217037720705577 0.41461031471475973 2 0 0
720 207 4 0 -0.5081806342025872 4.114393725069866 0.7073137853320786 2 0 0
215 43 3 0 -0.12046874091469206 3.9360566433922513 0.7396264631789107 2 0 0
636 179 4 0 -0.9344482562168759 3.4710098491141084 1.3809595975101212 1 -1 0
721 207 4 0 -0.9649813004631627 4.313186350595202 0.12796369854711376 2 0 0
782 228 2 0 -4.3763165124417265 1.0062587794577853 2.4507168133684507 2 0 0
784 228 4 0 -4.117227030258894 1.2614403430760524 2.5137814416546957 2 0 0
227 46 3 0 -3.8702730809375216 1.5963205210395808 2.3659321427380124 2 0 0
229 46 3 0 -3.6531290232114766 1.7653262871297182 2.9095418477661807 2 0 0
397 99 4 0 -2.55836567864256 3.6931109970989935 3.3530820685524008 1 -1 0
522 141 4 0 -0.0009580964758617583 1.2220857504003595 2.6922301330401064 1 0 0
517 139 4 0 -0.6638221285618671 0.277094316577446 2.71828270354621 1 0 0
523 141 4 0 -0.35125188887731085 0.5755536403465449 2.583443164857818 1 0 0
521 141 2 0 -0.16159121140500066 0.919785747185033 2.6414376695861774 1 0 0
69 14 3 0 -0.36099083423261824 0.20369558601706572 2.434554830528019 1 0 0
226 46 1 0 -3.6022535468819905 1.7986308173797694 2.552407628959009 2 0 0
228 46 3 0 -3.258712623069105 1.672634923902744 2.4563957995010908 2 0 0
230 46 3 0 -3.627585911140657 2.1647028691596715 2.4576244008068793 2 0 0
798 233 4 0 -2.375242219066037 3.8994039623712977 3.052761934013093 2 0 0
799 233 4 0 -2.0933517593605817 4.458282988190162 2.6581714816177184 2 0 0
797 233 2 0 -2.2360211191640538 4.175805838032233 2.8567462682171625 2 0 0
358 86 4 0 -4.17146699394773 0.030190862032509536 3.703020239874369 1 0 0
79 16 3 0 -3.862164630131332 0.3072327797795378 3.6568249152469248 1 0 0
77 16 3 0 -3.720511229389012 0.5551951335363983 4.186750846093122 1 0 0
78 16 3 0 -3.446671758796974 0.7451458198069103 3.675044021201461 1 0 0
76 16 1 0 -3.5879955200675173 0.44799206591315066 3.8561303017775304 1 0 0
80 16 3 0 -3.3256972357050296 0.18839175132206787 3.89932706958992 1 0 0
515 139 2 0 -0.9954057895048676 0.158773083986131 2.84876184789793 1 0 0
772 224 4 0 -3.7810135992943685 2.438739152255609 4.232487516184327 2 0 0
182 37 3 0 -3.5281573864273166 2.7324551777310573 4.299420356611722 2 0 -1
770 224 2 0 -3.95703339476065 2.1490219045186896 4.304704352733515 2 0 0
235 47 3 0 -1.6861986852959667 1.9641418121558925 4.132504387590722 2 0 0
712 204 4 0 -2.059377262338939 1.9075527232722749 4.254555476607844 2 0 -1
232 47 3 0 -1.2990860094601673 2.4390289093837696 4.03478795980767 2 0 0
231 47 1 0 -1.335200126408978 2.056402518761768 4.059232168134339 2 0 0
234 47 3 0 -1.2411577863734329 1.913150507831464 3.7640686859255963 2 0 0
777 226 4 0 -1.0719257806958482 2.7696001637654657 4.146837722545313 2 0 0
233 47 3 0 -1.103155815384171 1.9197787510667208 4.351269972979407 2 0 0
181 37 1 0 -3.386679003373349 3.069664009098621 4.360622336662618 2 0 -1
183 37 3 0 -3.1623040034834897 3.13597200978412 4.1149180415332305 2 0 -1
185 37 3 0 -3.643530711205441 3.3123235272861136 4.354773579938189 2 0 -1
771 224 4 0 -4.151900013781226 1.8465747764619085 4.3862402446801125 2 0 0
710 204 2 0 -2.311567397636682 1.7117365873792654 4.489766850034477 2 0 -1
67 14 3 0 -0.20462056811829488 0.01619982717798152 1.895666836896897 1 0 0
516 139 4 0 -1.3176251717230785 0.03628085061608832 2.9644355036932906 1 0 0
5 1 3 0 -1.5502351438889015 0.26265396353660897 0.012877882492987602 1 0 0
299 67 2 0 0.9214935280956507 -3.451148863807101 -4.260745754043038 0 0 0
205 41 3 0 0.9133145222292764 -4.490320366696011 -3.8467233844608804 2 1 0
300 67 4 0 0.9686059443331478 -3.448831711395276 -3.8790723481765306 0 0 0
204 41 3 0 0.5705407512631622 -4.317186822089476 -4.265347768789448 2 1 0
570 157 4 0 1.2660304928510735 -3.645652959818932 -3.6589219780309135 0 0 0
569 157 2 0 1.4904399641750228 -3.6834840224492167 -3.3444124062439426 0 0 0
612 171 4 0 0.4127571636221026 -1.4955264780915316 -3.097819866032319 1 0 0
293 65 2 0 2.7851672693849086 -2.1785973870780224 -3.1621154081354588 0 0 0
294 65 4 0 2.9736254644970197 -1.8808542164795012 -3.087319547874221 0 0 0
611 171 2 0 0.19783948476737656 -1.3296241793467178 -3.3515323821214427 1 0 0
701 201 2 0 0.6623634176001199 -0.19616602780525128 -3.670764439161977 1 0 0
564 155 4 0 0.6849583116602469 -0.4471529962153511 -4.354741687649647 1 0 0
702 201 4 0 0.5465390543762139 -0.2923068178029222 -4.021148922613799 1 0 0
703 201 4 0 0.7671821012628639 -0.10493340538915952 -3.3431206225943733 1 0 0
788 230 2 0 2.4199673375607533 -1.0270429436257023 -4.4716807073963984 1 0 1
789 230 4 0 2.7778428132970543 -0.9699061755205931 -4.430914745552551 1 0 1
110 22 3 0 3.0365537845656627 -0.6991649120284129 -4.283080074497492 1 0 0
109 22 3 0 3.284017623464207 -0.3202477269592148 -3.830894038061425 1 0 0
106 22 1 0 3.3360134796332996 -0.4638268446789988 -4.185183073322628 1 0 0
107 22 3 0 3.6372824194131104 -0.6573289078338629 -4.199639448413913 1 0 0
108 22 3 0 3.35090225811952 -0.16337071057752617 -4.4437206161277585 1 0 0
437 113 2 0 0.2200530070586586 -3.7290399295896077 -2.949389968864526 1 1 0
439 113 4 0 0.458444109363465 -3.627742781171857 -2.662957215207342 1 1 0
316 72 4 0 0.6257174215346977 -3.2919939585284976 -2.477424427671389 0 0 0
253 51 4 0 0.5056875830379557 -3.6104377696209284 -2.262065636689809 0 0 0