LAMMPS data file via write_data, version 29 Aug 2024, timestep = 9000, units = lj

805 atoms
4 atom types
570 bonds
1 bond types
485 angles
2 angle types

-4.496439 4.496439 xlo xhi
-4.496439 4.496439 ylo yhi
-4.496439 4.496439 zlo zhi

Masses

1 1
2 1
3 0.1
4 0.1

Bond Coeffs # harmonic/omp

1 100 0.361231

Angle Coeffs # harmonic/omp

1 100 180
2 100 109.471

Atoms # full

9 2 3 0 -3.806744538934739 -3.1260321740709114 -3.0970917791397685 0 0 0
20 4 3 0 -3.1578983471360917 -3.694388937957518 -3.832137020225294 0 0 0
585 162 4 0 -0.04434355105936728 -4.319468962306645 -3.295339427694775 0 0 0
7 2 3 0 -3.671383422159134 -2.749375773636995 -3.532275337030286 0 0 0
17 4 3 0 -3.372083422019417 -4.166722839015928 -3.5310969510464365 0 0 0
320 74 2 0 -3.668909889715488 -3.204578630964988 -4.351071109749398 0 0 0
322 74 4 0 -3.5816785468456924 -3.400171761294791 -4.050009889501488 0 0 0
18 4 3 0 -3.256364702442711 -4.201852782310965 -4.11113417850758 0 0 0
16 4 1 0 -3.145313801829148 -4.054542388194165 -3.805305035833547 0 0 0
19 4 3 0 -2.8070340751251197 -4.159469554989013 -3.7344387166339676 0 0 0
576 159 4 0 -0.1300426879149801 -4.312327422556333 -1.0988639686518806 0 0 0
299 67 2 0 -1.64405624285516 -4.233343469536168 -3.383371073862698 0 0 0
6 2 1 0 -3.918225271375317 -2.849147192453447 -3.2933862387879147 0 0 0
10 2 3 0 -4.250993032846273 -2.9398875987950457 -3.483775539745271 0 0 0
8 2 3 0 -3.9833018728375036 -2.572288018652945 -3.072035794561073 0 0 0
317 73 2 0 -3.343308294522628 -1.5084672672604569 -4.387858943117232 0 0 0
264 55 4 0 -2.5249987513366534 -2.7086177504753253 -3.608872778602438 0 0 0
263 55 2 0 -2.7704139117123017 -2.703917233960833 -3.329956963808321 0 0 0
265 55 4 0 -3.0190285964356818 -2.6899804568873185 -3.0503902357885373 0 0 0
306 69 4 0 -0.5455714821080083 -2.893530480612228 -3.5758259934224315 0 0 0
307 69 4 0 -0.9356234851024563 -2.762605289045826 -4.17603703488344 0 0 0
305 69 2 0 -0.738366540769241 -2.831284717570062 -3.8680282749546357 0 0 0
318 73 4 0 -3.345272713495752 -1.2003895948648615 -4.164363672587263 0 0 0
274 58 4 0 -0.6326978583216121 -0.08262788241482774 -3.0695024342676507 0 0 0
272 58 2 0 -0.33572480284594775 -0.292905606401745 -3.128622691987689 0 0 0
273 58 4 0 -0.013646141361694035 -0.5195148400318335 -3.186066262661027 0 0 0
388 96 4 0 -1.5890783206614842 -0.9457810110555255 -4.184119904889424 0 0 1
386 96 2 0 -1.3113701916621303 -1.0008879259187453 -4.420404566280501 0 0 1
277 59 4 0 -0.9519327309232806 -0.026612147594864816 -2.815185757336278 0 0 0
315 72 4 0 -3.700740496761488 -3.521691828766334 -3.0179160947319232 0 0 0
314 72 2 0 -3.4072852558901134 -3.664002631094901 -2.8033110708708406 0 0 0
316 72 4 0 -3.1306388865787786 -3.7994795838175484 -2.5992552356091103 0 0 0
253 51 4 0 -2.8812388960232056 -4.120920741025302 -2.5015987230632724 0 0 0
259 53 4 0 -1.9658152097383168 -4.434439102331154 -1.9932472180596128 0 0 0
251 51 2 0 -2.5669191785380443 -4.162635260908448 -2.349509329909965 0 0 0
252 51 4 0 -2.2432782259157515 -4.2041044574423205 -2.1860952203164774 0 0 0
257 53 2 0 -1.6312765653817651 -4.475269578908897 -1.8382400246713033 0 0 0
329 77 2 0 -2.287906088105488 -3.1153635017113066 -2.021960976841391 0 0 0
331 77 4 0 -2.1139015375978647 -3.4368053291274565 -2.1011713586906655 0 0 0
301 67 4 0 -1.4565724645142641 -3.9346823545880194 -3.354277778306255 0 0 0
571 157 4 0 -0.3259142629295339 -3.047949948695636 -2.4489923630653543 0 0 0
569 157 2 0 -0.421788658487716 -3.3549365661886004 -2.610177549452457 0 0 0
526 142 4 0 -4.382401793227674 -0.15845657132381838 -4.085666699067745 0 0 1
570 157 4 0 -0.5225642960569364 -3.6604059526956823 -2.768341470081054 0 0 0
5 1 3 0 -1.5872055845019344 -0.07378657904039296 -0.25885268205500156 0 0 0
293 65 2 0 -2.899233426574454 -2.266914448430164 -1.694845166067272 0 0 0
294 65 4 0 -2.631031682248718 -2.4644398538280474 -1.7988871262983066 0 0 0
330 77 4 0 -2.4517017539939987 -2.8057308328708292 -1.9469853438284486 0 0 0
280 60 4 0 -1.5008939506681085 -2.3126776873657104 -2.570426020666196 0 0 0
13 3 3 0 -2.8641215293487132 -1.3689336528711 -2.67490834422706 0 0 0
279 60 4 0 -1.4460837059617062 -1.688218095066829 -2.3006780042998507 0 0 0
278 60 2 0 -1.474483415541735 -2.003047336588125 -2.4357571492664385 0 0 0
334 78 4 0 -0.48413939168203285 -2.732458291286114 -1.772002263845578 0 0 0
612 171 4 0 -4.407626252023068 -3.215100881077349 -3.7358531564764283 1 0 0
14 3 3 0 -2.3362417167195373 -1.290524490357858 -2.436990883943397 0 0 0
323 75 2 0 -2.813506862974905 -0.40825713824053333 -1.8450054113351597 0 0 0
324 75 4 0 -2.788496296087631 -0.14257455571811267 -1.5467995847494682 0 0 0
11 3 1 0 -2.5804021233939536 -1.1383368911040956 -2.6256426946197022 0 0 0
12 3 3 0 -2.6960639934136257 -0.8445766675997266 -2.4640754744092614 0 0 0
15 3 3 0 -2.4241510587056925 -1.0377148301725343 -2.9861911888982635 0 0 0
2 1 3 0 -1.2956126466138378 -0.28557286812052934 -0.7519267212404829 0 0 0
325 75 4 0 -2.838980606955271 -0.6619603463907381 -2.1228265216186966 0 0 0
311 71 2 0 -1.9234755841706264 -1.1462032985424149 -1.6471734870619497 0 0 0
312 71 4 0 -2.125572737802074 -1.1734524562931476 -1.3130587512474805 0 0 0
275 59 2 0 -1.2435436828658673 -0.007264849927632447 -2.6325160398880865 0 0 0
266 56 2 0 -3.75320860931175 -3.4108350580763274 -0.9373696067661903 0 0 0
268 56 4 0 -3.6093761718826443 -3.2887657661832903 -0.6376380942211879 0 0 0
267 56 4 0 -3.9014111522304233 -3.5282983788658924 -1.2299298457521792 0 0 0
304 68 4 0 -1.9603138878659387 -4.3840444908048095 -0.1168658150327848 0 0 0
309 70 4 0 -0.3706349095372521 -1.5146201183803942 -1.009009606308723 0 0 0
295 65 4 0 -3.178445433366149 -2.048546825214113 -1.5904963383242512 0 0 0
262 54 4 0 -3.7560946476278283 -1.645959014458192 -0.7499551805279966 0 0 0
405 102 4 0 -3.0855441290720615 -1.9221256543703866 -0.08948106854733243 0 0 0
339 80 4 0 -1.413173583357773 -2.731229266042571 -1.1884267892743379 0 0 0
338 80 2 0 -1.677116972240771 -2.5592403136779205 -1.002778407040718 0 0 0
340 80 4 0 -1.9693076403079814 -2.371447652620693 -0.7960977432741049 0 0 0
269 57 2 0 -2.5825593773262057 -2.095506531785809 -0.5984800945066944 0 0 0
270 57 4 0 -2.33653351450577 -2.242892187448293 -0.7716683668765547 0 0 0
271 57 4 0 -2.8544461290966194 -1.9366335954105744 -0.40969703015631115 0 0 0
332 78 2 0 -0.8330759312440636 -2.7375259602763067 -1.6595799040246557 0 0 0
333 78 4 0 -1.1826575912940247 -2.738796345657476 -1.5472328799584854 0 0 0
435 112 4 0 -1.2450207096135284 -0.16571716962877026 -3.9202791236254657 0 0 0
308 70 2 0 -0.17682085234527092 -1.7225399653381481 -1.2059637548132232 0 0 0
260 54 2 0 -3.95951790826302 -1.3624282460460695 -0.7212051347583399 0 0 0
261 54 4 0 -4.169312085066986 -1.0715173521558883 -0.6879174962463919 0 0 0
327 76 4 0 -2.5736799462405515 -0.6573192871943595 -0.9199878454177569 0 0 0
326 76 2 0 -2.898425341352922 -0.7876331560550567 -0.7979095325174258 0 0 0
328 76 4 0 -3.1872507161436108 -0.9127858437872015 -0.6936645573039008 0 0 0
313 71 4 0 -1.7463471477163202 -1.1161818376210835 -1.9399389001902945 0 0 0
434 112 2 0 -1.565125088344218 -0.002500210758390086 -3.8729380801333595 0 0 0
288 63 4 0 -1.5274706481195133 -3.2159287018519844 -0.040805305987238374 0 0 0
287 63 2 0 -1.1648966619584469 -3.1680657523338627 -0.0008441809476542315 0 0 0
393 98 4 0 -1.9482682781225065 -1.3857248271224514 -0.22813529015130388 0 0 0
36 8 1 0 -3.6864170068737647 -3.682444605884437 0.9074976872788978 0 0 0
37 8 3 0 -3.4945215183719527 -3.8847764435909062 1.1207344074514711 0 0 0
38 8 3 0 -3.468109684716159 -3.4095163974113754 0.7720990045053142 0 0 0
40 8 3 0 -3.8028486473289838 -3.870225326660054 0.647498226992253 0 0 0
39 8 3 0 -3.9553492225710745 -3.537514971672662 1.0782357341232234 0 0 0
354 85 4 0 -4.214860767845623 -3.272338069414118 1.203073355672049 0 0 0
353 85 2 0 -4.381610315162098 -3.0423300275492093 1.4267465984333962 0 0 0
385 95 4 0 -1.8975226895921282 -3.829949515463097 0.8397939709113226 0 0 0
383 95 2 0 -1.8933410877606927 -4.004089678851361 0.523828592826059 0 0 0
384 95 4 0 -1.8838269983265017 -4.1809035285583835 0.20389571130773987 0 0 0
33 7 3 0 -2.1295002786391533 -3.83254223916441 1.1846635185022119 0 0 0
285 62 4 0 -2.2522482853102974 -3.225045323174612 0.4504878547411381 0 0 0
284 62 2 0 -2.522988130067605 -3.066351989812142 0.2801914639285843 0 0 0
514 138 4 0 -1.261682678772822 -4.3411527802179775 3.665165217549011 0 1 0
365 89 2 0 -1.5838251271799848 -4.4403918480178 2.220118998546773 0 0 0
21 5 1 0 -0.5579834646034705 -2.879369297990902 1.279902071371178 0 0 0
24 5 3 0 -0.38830144015677465 -3.1371360006417115 1.0858469962442991 0 0 0
289 63 4 0 -0.7834307778879256 -3.1273312307296655 0.04638309641022793 0 0 0
352 84 4 0 -3.07770368737036 -3.049611766924432 1.6947959685207599 0 0 0
406 102 4 0 -3.5912342065056753 -1.8261308336693427 0.42753119794253863 0 0 0
404 102 2 0 -3.3395776686547505 -1.8776368500678404 0.15843581377204902 0 0 0
350 84 2 0 -2.9463520676382835 -2.8414684559933603 1.3944813911016538 0 0 0
351 84 4 0 -2.8290080667783126 -2.6549966194020422 1.1227596708332732 0 0 0
286 62 4 0 -2.7831964426348037 -2.9116013374433027 0.10536332989721134 0 0 0
392 98 2 0 -1.692007032379613 -1.5391315171121278 0.0015009842241950747 0 0 0
394 98 4 0 -1.4567370194850302 -1.6837667894139678 0.2071525253472769 0 0 0
362 88 2 0 -1.1925574858527466 -2.1584819027405535 0.7308532237226938 0 0 0
364 88 4 0 -1.0698682209657275 -2.469232858774255 0.892322084619405 0 0 0
363 88 4 0 -1.3175307940287593 -1.8428999551924485 0.564087930707724 0 0 0
23 5 3 0 -0.7445867357826018 -2.6678102164450292 1.0630452453491768 0 0 0
601 167 4 0 -0.4442484678318426 -3.1354614132577665 0.2846577842111381 0 0 0
380 94 2 0 -3.300330865238668 -0.42493364246596216 0.3824652942644937 0 0 0
152 31 3 0 -4.27125164910484 -0.8520434188328835 2.1882409984718327 1 0 0
381 94 4 0 -3.4441558673436434 -0.12448133997249489 0.5484294955932689 0 0 0
382 94 4 0 -3.162653468689754 -0.719805875500491 0.21433644767684049 0 0 0
344 82 2 0 -1.3633257149746878 -1.0480146093366456 1.2626213238895065 0 0 0
345 82 4 0 -1.3635233244677674 -0.859151227005064 0.9460075051160162 0 0 0
539 147 2 0 -1.5634379156614389 -0.44768596221697354 0.3737735428025127 0 0 0
540 147 4 0 -1.4672615278153711 -0.6987930748493948 0.6088395274090443 0 0 0
346 82 4 0 -1.363864366633605 -1.2260427612811833 1.5452829443378413 0 0 0
512 138 2 0 -0.9808194875823817 -4.4535876803468675 3.4518116986549314 0 1 0
158 32 3 0 -0.33672666763508574 -1.469314183451919 0.975644478165106 0 0 0
31 7 1 0 -2.258667016562297 -3.9130426856050944 1.530149050380305 0 0 0
35 7 3 0 -2.4356431836891326 -3.607372098388394 1.6702482698125138 0 0 0
32 7 3 0 -2.4789660320332136 -4.180701004719062 1.5064152546375804 0 0 0
34 7 3 0 -1.9472945908909713 -4.011978866143075 1.7696133640114822 0 0 0
367 89 4 0 -1.702904872854078 -4.20927108153662 2.0054166921803365 0 0 0
220 44 3 0 -0.43094067611261017 -4.303664991021132 1.956760646701658 0 1 0
22 5 3 0 -0.7790791648812311 -3.0393646500168217 1.5200625399525307 0 0 0
379 93 4 0 -2.7285713896946957 -2.907495513079385 2.9174917267150486 0 0 0
157 32 3 0 -0.07018882972066784 -1.5834428757228847 1.5008792381456115 0 0 0
50 10 3 0 -0.6740297165774054 -1.4223963595922249 2.810405285713961 0 0 0
47 10 3 0 -0.7458527855740112 -1.8026046555003452 2.374231306738023 0 0 0
154 31 3 0 -4.073157946171465 -0.9869997403685857 1.653849831585439 1 0 0
153 31 3 0 -4.262709549404512 -0.45508918886160754 1.7654240624762354 1 0 0
398 100 2 0 -4.162212382581191 -0.4077275431176666 3.1108162304902574 0 0 0
151 31 1 0 -4.093340129368896 -0.7325936895208064 1.8964588796079132 1 0 0
155 31 3 0 -3.7468628949441785 -0.6246993680558983 1.9961083857170465 1 0 0
400 100 4 0 -3.8256147986420515 -0.47480097348547595 3.2919610867768148 0 0 0
349 83 4 0 -2.11837131325264 -0.7211116360013705 2.2245256765090633 0 0 0
347 83 2 0 -2.0562168040560067 -1.0587588670385477 2.3471569834429644 0 0 0
348 83 4 0 -1.9964118351489688 -1.3950418557417428 2.4812690954751693 0 0 0
46 10 1 0 -0.8923270296556958 -1.5252478115464039 2.569471160216935 0 0 0
48 10 3 0 -1.2083084621901883 -1.6414259978948673 2.736505916823676 0 0 0
391 97 4 0 -0.3179374182824639 -0.1043108968583892 2.715551049423255 0 0 0
49 10 3 0 -0.9711670258038098 -1.2430403760864905 2.3509281652388685 0 0 0
389 97 2 0 -0.6648802520303437 -0.00750018892146327 2.7736968051615363 0 0 0
369 90 4 0 -3.3966130988296497 -4.232495933562763 3.688044459760945 0 0 0
372 91 4 0 -2.355778417999816 -3.6784371971457688 4.018810109760771 0 0 0
371 91 2 0 -2.0597160302447275 -3.618530241931473 3.8338282924508107 0 0 0
373 91 4 0 -1.7563431453824283 -3.5595386431301734 3.6354382222311576 0 0 0
359 87 2 0 -0.033980206508971766 -3.1112455936900014 3.146573531318707 0 0 0
361 87 4 0 -0.36481153007353284 -3.263533573133679 3.199606833780895 0 0 0
26 6 1 0 -3.8214154904476896 -1.6465703115840244 3.513653406642099 0 0 0
27 6 3 0 -3.563863026347568 -1.5014524458781295 3.2622766805902312 0 0 0
28 6 3 0 -4.015271905645686 -1.3724886271577992 3.66883274353649 0 0 0
29 6 3 0 -3.637435446342231 -1.8310417102838956 3.7902486814488094 0 0 0
30 6 3 0 -4.043803393531299 -1.8683039217772965 3.3403368066993027 0 0 0
402 101 4 0 -3.212690510399928 -1.3442784573256505 3.3633412454306764 0 0 0
319 73 4 0 -3.330855935473434 -1.8123906811895993 4.387385157428008 0 0 -1
378 93 4 0 -2.540353365458929 -2.716886716540514 3.5720708826123504 0 0 0
341 81 2 0 -1.6777525446405246 -1.537229296595475 3.343294381996901 0 0 0
335 79 2 0 -2.137163338312605 -2.4044601232466034 4.068170119994728 0 0 -1
377 93 2 0 -2.6372053630221344 -2.814860547112628 3.2270209464015998 0 0 0
337 79 4 0 -2.33974082284101 -2.6301757627251887 3.9166511964573294 0 0 -1
343 81 4 0 -1.9173504151690013 -1.4668527309843402 3.599382535989853 0 0 0
336 79 4 0 -1.9020832206467062 -2.1485595598008342 4.235717105014789 0 0 -1
342 81 4 0 -1.4359269490307267 -1.605533081464743 3.0782739895210955 0 0 0
356 86 2 0 -2.4243658981211196 -0.1715318118414738 3.1328338105030116 0 0 0
403 101 4 0 -2.6289366058264436 -0.9005636951010897 3.2421704816330608 0 0 0
357 86 4 0 -2.526604545579201 -0.531884597237895 3.0974090210781737 0 0 0
401 101 2 0 -2.9243967396141164 -1.1199586293321582 3.3073507894533263 0 0 0
45 9 3 0 -0.6221575643692225 -1.261286318925738 3.4468870650286507 0 0 0
399 100 4 0 -4.48522871058157 -0.3476348834570771 2.9460348244089842 0 0 0
387 96 4 0 -1.0068348403420304 -1.0722489208528019 4.320764198386284 0 0 0
43 9 3 0 -0.8924360275086366 -1.0806165751061394 3.923985981612125 0 0 0
41 9 1 0 -0.7325831935558774 -0.9707391774208354 3.6254978145886234 0 0 0
42 9 3 0 -0.9631803889337581 -0.7846761025993351 3.4260286642255613 0 0 0
44 9 3 0 -0.46414497386934633 -0.7757552008365711 3.7056362449636246 0 0 0
217 44 3 0 -0.08874746772803224 -4.291575822777801 1.458808895066219 0 1 0
25 5 3 0 -0.316241376227958 -2.6858191746623246 1.4579796405699006 0 0 0
156 32 1 0 -0.028532648185587466 -1.6031612007750857 1.1502474258926256 0 0 0
216 44 1 0 -0.09317312466633487 -4.252122876437209 1.8274814780817439 0 1 0
532 144 4 0 -0.5139668474468767 -4.266701942422946 0.11099285407294422 0 1 0
321 74 4 0 -3.757670578709649 -3.004463246287838 4.342988268355732 0 0 -1
541 147 4 0 -1.6538638204702032 -0.1875920034691937 0.14167404679103077 0 0 0
599 167 2 0 -0.12847422136457162 -2.949686671014524 0.19113943097647262 0 0 0
420 107 4 0 -3.6207934613152126 1.0672008175678867 -3.4935761881832206 0 0 0
419 107 2 0 -3.280549974464226 1.1124976180513535 -3.537632772900427 0 0 0
447 116 4 0 -1.166518505816982 3.362769056847744 -0.8665363785516242 0 0 0
292 64 4 0 -2.9606157609248998 0.36323212714505876 -3.6191307014065774 0 0 0
302 68 2 0 -2.140292870093984 4.444538843213065 -0.4029888244749072 0 -1 0
421 107 4 0 -2.9004244558336905 1.165952725589526 -3.5870207471086952 0 0 0
490 130 4 0 -2.4978305276966264 1.1680337888645071 -3.478666301442702 0 0 0
436 112 4 0 -1.8713966365386734 0.15160014490189067 -3.823316824321039 0 0 0
489 130 4 0 -1.9503144237728463 1.3280788592145343 -2.993845165496389 0 0 0
488 130 2 0 -2.226892713460007 1.2528574697476484 -3.2320992066464473 0 0 0
290 64 2 0 -2.61028003067506 0.22472502966211808 -3.6693239284502117 0 0 0
291 64 4 0 -2.263356404611934 0.0890433589956692 -3.728777237911898 0 0 0
121 25 1 0 -0.09089776973792862 0.9026121605139641 -2.3152913820773673 0 0 0
81 17 1 0 -4.486598144935922 2.933138960018045 -0.30329010810915324 0 0 0
492 131 4 0 -0.20241882271345596 1.3715637208297866 -3.648175490690119 0 0 0
193 39 3 0 -0.38587538072195876 1.0434773848084171 -4.344157825901609 0 0 0
491 131 2 0 -0.21784568289446252 1.3705610467269953 -3.297586255012099 0 0 0
446 116 2 0 -1.041821817423307 3.5855865941697465 -1.1280790119030308 0 0 0
455 119 2 0 -4.177473159412797 2.467702220764664 -3.5813844376552217 0 0 0
456 119 4 0 -4.487190331185215 2.327851958389571 -3.5791631265191275 0 0 0
457 119 4 0 -3.8337104062063663 2.63462039891792 -3.595717845482836 0 0 0
480 127 4 0 -3.5693451608273343 2.934215100398174 -3.638998230778129 0 0 0
534 145 4 0 -1.3989858864994147 1.8997452812625728 -4.060323305968913 0 0 1
428 110 2 0 -1.63965392493724 3.0252039827563983 -2.9546557510449394 0 0 0
429 110 4 0 -1.8994262498447885 2.7715477591030506 -2.8669488955828415 0 0 0
533 145 2 0 -1.1616613040154606 1.647002669234424 -4.081626760343398 0 0 1
535 145 4 0 -0.8920824355946025 1.3733266971774631 -4.0985716414225335 0 0 1
479 127 2 0 -3.273074932423632 3.1227813333112286 -3.502649721613564 0 0 0
448 116 4 0 -0.9090670135096078 3.8060134715103127 -1.4004537559451313 0 0 0
408 103 4 0 -2.2411507816433955 3.597110544957738 -4.299120936521072 0 -1 1
481 127 4 0 -2.9827261617207634 3.30813625248507 -3.368344270867341 0 0 0
276 59 4 0 -1.5421839478174677 0.0012441764823210892 -2.463419645928843 0 0 0
453 118 4 0 -0.5853683615036221 3.0419866794448103 -4.0628206629878525 0 0 0
430 110 4 0 -1.3959320236460098 3.2664866867005564 -3.038112398592962 0 0 0
452 118 2 0 -0.7540887053940702 3.1423095325608448 -4.390442777474464 0 0 0
461 121 2 0 -0.877604646277447 3.7097180665175933 -3.356281340111629 0 0 0
463 121 4 0 -1.1101642504664129 3.5283193204835785 -3.143909920994623 0 0 0
462 121 4 0 -0.6628083403991927 3.889575547377115 -3.562963022701882 0 0 0
742 214 4 0 -4.073757770704377 1.5242679899960596 -1.7139464015173407 1 0 0
450 117 4 0 -1.2585810295531905 1.192469266042001 -2.687640016827162 0 0 0
493 131 4 0 -0.23575234992380578 1.366960607765747 -2.919373934490023 0 0 0
449 117 2 0 -1.1578666237968913 1.1326605111182249 -2.3536478117534787 0 0 0
451 117 4 0 -1.0538925728423791 1.0754924338068979 -2.0219233990008507 0 0 0
125 25 3 0 -0.005833866687641416 1.146336486870471 -2.032451828134943 0 0 0
740 214 2 0 -4.43190116919933 1.4043935946065733 -1.6738967473801287 1 0 0
484 128 4 0 -3.9776773961106544 2.077360459797947 -2.416590615425597 0 0 0
483 128 4 0 -4.173894802761718 1.6208134000511136 -2.9224149260694916 0 0 0
482 128 2 0 -4.071849827561367 1.8503035807090882 -2.660067616264513 0 0 0
52 11 3 0 -2.587202041742908 2.3990858931392336 -2.4124448117662105 0 0 0
53 11 3 0 -2.4014687026521826 2.0739386232811063 -2.8449715587373516 0 0 0
51 11 1 0 -2.3106650816547156 2.2548932050579107 -2.538765598268479 0 0 0
54 11 3 0 -2.168145526293827 2.014587442119289 -2.2954492551942973 0 0 0
55 11 3 0 -2.064818142946094 2.5052835117137047 -2.614550619071835 0 0 0
433 111 4 0 -0.05506614798629118 2.8589433194994225 -1.681176152004126 0 0 0
469 123 4 0 -0.9946158470263288 2.571691029158383 -2.1700643370500354 0 0 0
467 123 2 0 -1.1395387132725872 2.777656072623273 -1.948311175068842 0 0 0
438 113 4 0 -3.386016378682994 3.7220824616248676 -2.972003255552192 0 0 0
437 113 2 0 -3.603496985612771 3.956376789786483 -2.792132489598975 0 0 0
439 113 4 0 -3.846548188509192 4.206693607671354 -2.5888306930189247 0 0 0
487 129 4 0 -3.6085364015012904 3.883607397043332 -1.6895913716886548 0 0 0
458 120 2 0 -2.491214015175334 3.6010817740953254 -1.004765574056383 0 0 0
410 104 2 0 -3.86400296922718 0.38670543961713394 -1.128827123148504 0 0 0
411 104 4 0 -3.7595596664385127 0.23619364498167375 -0.8197904587151852 0 0 0
412 104 4 0 -3.96779049053229 0.545358568844723 -1.4500623958813883 0 0 0
466 122 4 0 -2.444271737879939 0.690356978531027 -1.329095186427687 0 0 0
464 122 2 0 -2.168772757471847 0.4803247452209912 -1.2444182053194315 0 0 0
465 122 4 0 -1.8751413502343564 0.26236877991224433 -1.1562680352441848 0 0 0
3 1 3 0 -1.6724956561166913 0.19002163239467076 -0.817095075864034 0 0 0
59 12 3 0 -2.5536119237813275 1.4203528037959312 -0.23619454792102246 0 0 0
4 1 3 0 -1.1659803288771255 0.23098758305791972 -0.5314825785183536 0 0 0
425 109 2 0 -1.1636723425231956 1.0940396005283077 -0.7400323476688125 0 0 0
426 109 4 0 -1.1789593124865365 0.7888266964622763 -0.5322925428693277 0 0 0
427 109 4 0 -1.139656015316421 1.3922689035158557 -0.9453669810753509 0 0 0
303 68 4 0 -2.312142986776615 4.270622597095528 -0.6980130761965423 0 -1 0
83 17 3 0 -4.490440318546392 3.2149544351840422 -0.5134230168725544 0 0 0
415 105 4 0 -3.8004216587034647 1.7580738673849625 -1.5144085352379117 0 0 0
413 105 2 0 -3.507024436188021 1.867626150221952 -1.301118926865022 0 0 0
477 126 4 0 -4.0473520916385315 1.264850335135267 -0.01479129866604631 0 0 0
414 105 4 0 -3.238257147478438 1.9723500506463527 -1.090074868261417 0 0 0
424 108 4 0 -2.8587716140440844 2.191548973244617 -1.053971610901486 0 0 0
422 108 2 0 -2.7271591867058946 2.528070929552424 -1.011681411990729 0 0 0
56 12 1 0 -2.181300277647629 1.5217164380323454 -0.21204949794543204 0 0 0
57 12 3 0 -2.104486382705203 1.7573827023002462 -0.45813263165253487 0 0 0
1 1 1 0 -1.4231780878347788 0.018460030500472867 -0.591018124023496 0 0 0
423 108 4 0 -2.597763822563543 2.8582192462065135 -0.9700142129487569 0 0 0
58 12 3 0 -1.9757456483333107 1.2261910035482977 -0.25594825677340577 0 0 0
468 123 4 0 -1.288448865563422 2.9827901827555263 -1.7203853997716763 0 0 0
472 124 4 0 -0.4906858422084366 2.201244740970509 -0.7233744561555393 0 0 0
470 124 2 0 -0.7822813633885674 2.4120748967693397 -0.7657868742719932 0 0 0
417 106 4 0 -0.24316599925828528 1.883287566820563 -0.6895977671441597 0 0 0
471 124 4 0 -1.0824446513753683 2.629534870176965 -0.802324504331328 0 0 0
486 129 4 0 -3.6836855729539244 3.889088488907866 -1.0218358516495767 0 0 0
485 129 2 0 -3.647364733685817 3.8908384970153453 -1.3592744724250199 0 0 0
85 17 3 0 -4.168340205445292 2.777119966332805 -0.31544334125504186 0 0 0
460 120 4 0 -2.3652300032445854 3.9327746073964494 -0.9245321453531992 0 0 0
459 120 4 0 -2.612194284683923 3.238260173555983 -1.094932748984391 0 0 0
524 142 2 0 -4.415957773964507 0.0900880376695581 -4.332618701284675 0 0 1
122 25 3 0 -0.35644713979781767 0.6655419822793004 -2.206001423506385 0 0 0
123 25 3 0 -0.21261533004000469 1.1029421917843636 -2.6206322500590167 0 0 0
200 40 3 0 -4.373030913639082 4.2927357826244315 -1.6355844470214256 1 0 0
300 67 4 0 -1.8204353833067666 4.466552793250671 -3.410779425325789 0 -1 0
258 53 4 0 -1.3118865114007905 4.487435720995526 -1.6870449817716393 0 -1 0
559 153 4 0 -3.3417120644138496 0.6403773911212982 -0.09612012496372524 0 0 0
557 153 2 0 -3.034453835603737 0.8743123896892271 -0.1397455169349662 0 0 0
558 153 4 0 -2.7333595967364457 1.094944597336683 -0.17414093199736666 0 0 0
390 97 4 0 -0.994374389854741 0.08401510115448402 2.831761799993824 0 0 0
531 144 4 0 -0.3138706164777428 4.12974997618111 0.5287511647713056 0 0 0
499 133 4 0 -3.457009360595494 0.7940812387199838 1.2917363995041116 0 0 0
759 220 4 0 -4.328739541763387 1.062078277452147 0.7607539422450412 1 0 0
500 134 2 0 -3.403758246796964 2.146089711874997 0.9930157275647651 0 0 0
502 134 4 0 -3.5305133769446644 1.8732877890776174 0.7739767848737781 0 0 0
478 126 4 0 -3.7619526847024 1.7422318788465105 0.4532071687536456 0 0 0
476 126 2 0 -3.91359590197013 1.4918289223177632 0.20708008435483283 0 0 0
501 134 4 0 -3.2862569498454928 2.412880310951977 1.2125510663770893 0 0 0
552 151 4 0 -2.4735533213384198 2.247511371536961 1.327563843953048 0 0 0
551 151 2 0 -2.2291145089159117 2.0036778363199397 1.3195120831144942 0 0 0
553 151 4 0 -1.9912020416178853 1.7691188411137146 1.3090031626729113 0 0 0
66 14 1 0 -0.491224682361535 1.9652249818854834 0.7709164443615056 0 0 0
67 14 3 0 -0.23630141472324176 1.7296519612584347 0.7819906342808739 0 0 0
68 14 3 0 -0.7900317336050394 1.812334337499136 0.6040119901066393 0 0 0
69 14 3 0 -0.38468046233827285 2.2513823234916455 0.5901946501835497 0 0 0
70 14 3 0 -0.5899631302921112 2.0674223553298026 1.1248703552083543 0 0 0
496 132 4 0 -0.7507574817805401 2.021319039932213 1.4811728504114587 0 0 0
73 15 3 0 -1.8182869047559453 3.2730045415308644 0.11835174433133033 0 0 0
75 15 3 0 -1.6999547406735092 3.578223960404759 0.6566261586441433 0 0 0
71 15 1 0 -1.5719379987062065 3.3087169457793855 0.41727099365876097 0 0 0
72 15 3 0 -1.5483609500143676 2.989815244553526 0.5898292411815657 0 0 0
74 15 3 0 -1.2421846506895797 3.412482271472786 0.28415061087542076 0 0 0
538 146 4 0 -0.9458982140111153 3.4600994441849164 1.4832655036115918 0 0 0
525 142 4 0 -4.444376863476325 0.3700046495813127 4.384948855955981 0 0 0
530 144 2 0 -0.4084672394675509 4.415014502114214 0.3214945964639654 0 0 0
498 133 4 0 -3.349508126746619 0.4340060135793901 1.9141290245109577 0 0 0
497 133 2 0 -3.403088529321718 0.6038984068294794 1.6247032636527527 0 0 0
556 152 4 0 -0.4810451021681882 4.260426108480079 2.9325897120198428 0 0 0
513 138 4 0 -0.7110599021080549 4.429886712692436 3.247036113436819 0 0 0
76 16 1 0 -2.617523759658563 0.8424657245280734 2.8465061228229107 0 0 0
78 16 3 0 -2.8217354996026427 0.7341632741956052 2.562988493912565 0 0 0
80 16 3 0 -2.3412849109526244 1.0564152465665957 2.725802759692562 0 0 0
522 141 4 0 -1.594526846662816 1.6476022953601965 3.095061671139304 0 0 0
548 150 2 0 -0.9877879558402547 0.7767373209925423 1.843339966174565 0 0 0
549 150 4 0 -1.0669090654789621 1.0963742453705982 2.0306144269203497 0 0 0
550 150 4 0 -0.8980611995475947 0.4636018460548728 1.6621375649429242 0 0 0
508 136 4 0 -3.191108779317857 3.0243893291850052 1.7269957760814358 0 0 0
88 18 3 0 -2.327969817711582 2.0573941181961724 2.582489028893918 0 0 0
89 18 3 0 -1.8110030535207675 1.7994678187175381 2.777053826011519 0 0 0
87 18 3 0 -1.8194662358602953 2.1926551294022105 2.3342443920414624 0 0 0
90 18 3 0 -2.0270508199673394 1.6722581540782389 2.2452179871767175 0 0 0
86 18 1 0 -1.9874546349482634 1.9334805581927244 2.4788167270322865 0 0 0
494 132 2 0 -0.8699341518820528 2.215988875163941 1.7672605551485507 0 0 0
495 132 4 0 -0.9795451091180625 2.4181020436706664 2.057171774714587 0 0 0
506 136 2 0 -2.8978227244512995 3.2385781986723727 1.6839622716216571 0 0 0
505 135 4 0 -4.111740741079591 3.3530330034699807 2.5188680603475624 0 0 0
503 135 2 0 -4.401487846100461 3.5656154038771573 2.551996421379483 0 0 0
507 136 4 0 -2.6228929787342143 3.441065659549913 1.6454143208742436 0 0 0
528 143 4 0 -1.6564082238732534 3.578319886310694 2.371460173518295 0 0 0
527 143 2 0 -1.7180499630975792 3.4463787129144396 2.7211132484815495 0 0 0
511 137 4 0 -0.1843382266201204 2.821367994620335 2.5077300323822835 0 0 0
366 89 4 0 -1.4588621911318589 4.31059379787261 2.4517499471440782 0 -1 0
537 146 4 0 -1.5395836982492275 3.5890191144396013 1.9644854346242917 0 0 0
554 152 2 0 -0.2077964714501147 4.12581012210434 2.747414541293318 0 0 0
536 146 2 0 -1.2447819878537978 3.5214964243849445 1.7218384832427334 0 0 0
543 148 4 0 -3.1939277135431063 1.664269525465934 4.319310855730114 0 0 0
509 137 2 0 -0.1408559376452612 2.569845971512015 2.7626295603314954 0 0 0
77 16 3 0 -2.826524003791498 1.016995164381548 3.082775415560075 0 0 0
79 16 3 0 -2.475378156949949 0.5564891775127916 3.0140985106233296 0 0 0
542 148 2 0 -2.9220536557808665 1.4662776212857784 4.278169937340407 0 0 0
358 86 4 0 -2.3158072328035693 0.18618037105296356 3.165539233137622 0 0 0
516 139 4 0 -1.524263162714427 0.19424132305952002 4.039440327995627 0 0 0
517 139 4 0 -1.6848455859715987 0.6926680297317249 3.523042425911193 0 0 0
515 139 2 0 -1.6025897291006566 0.43186724634192236 3.7890107553961223 0 0 0
544 148 4 0 -2.63359467182527 1.2535443340312737 4.230334145160703 0 0 0
519 140 4 0 -0.19532581580245859 0.7957352684726543 2.9791650428197456 0 0 0
521 141 2 0 -1.5558308031012205 1.3390125703802587 3.284450797598768 0 0 0
520 140 4 0 -0.14505876152655325 0.9909690569521279 3.6782554611642504 0 0 0
523 141 4 0 -1.5118216850661776 1.0366976518901974 3.4701672947052504 0 0 0
518 140 2 0 -0.17005277249547834 0.8924330465551413 3.3254206648009372 0 0 0
195 39 3 0 -0.19942989781308265 1.019763755974177 4.073639108663596 0 0 -1
191 39 1 0 -0.09905478657611959 1.0030757425944128 4.424364480043697 0 0 -1
510 137 4 0 -0.0987671948103149 2.3121477386334783 3.028073067397559 0 0 0
454 118 4 0 -0.9190874922974868 3.2519445358055923 4.267140565094889 0 0 -1
409 103 4 0 -2.650141465965553 3.3770617925173765 4.143027925806147 0 -1 0
368 90 2 0 -3.194725054822371 4.491144541794893 3.5523390559653105 0 -1 0
61 13 1 0 -2.8593002853832514 3.4552896692332418 3.4187315143270434 0 0 0
445 115 4 0 -4.412294057401754 3.7966423593639202 4.314962369790708 0 0 -1
63 13 3 0 -2.9156531617899213 3.814655602252242 3.4026531073258917 0 0 0
65 13 3 0 -3.169450672228445 3.2841891382306168 3.3130607603446376 0 0 0
370 90 4 0 -3.0051353057801538 4.220396120920361 3.4157831274501036 0 -1 0
62 13 3 0 -2.5677978024929384 3.3598799346630557 3.1796879177979536 0 0 0
64 13 3 0 -2.7823902996944496 3.359163120510254 3.7645733897906144 0 0 0
529 143 4 0 -1.7844855907462813 3.3138246469591253 3.0623739439299538 0 0 0
758 220 2 0 -4.392873526517086 0.8785085050936958 1.0619117795249198 1 0 0
760 220 4 0 -4.472181511291582 0.6735500992199491 1.3857188968464969 1 0 0
711 204 4 0 -4.43827085401525 0.7717626486751095 4.305866781296648 1 0 -1