LAMMPS data file via write_data, version 19 Nov 2024, timestep = 200000, units = lj

32 atoms
4 atom types
22 bonds
1 bond types
15 angles
2 angle types

-2.068243 2.068243 xlo xhi
-2.068243 2.068243 ylo yhi
-2.068243 2.068243 zlo zhi
4.136486 0 0 xy xz yz

Masses

1 1
2 1
3 0.1
4 0.1

Bond Coeffs # harmonic/omp

1 100 0.45

Angle Coeffs # harmonic/omp

1 100 180
2 100 109.471

Atoms # full

25 8 4 0 -0.7909818358114413 -1.2857353131236786 -1.504570538746157 1 0 1
24 8 2 0 -0.47437800810987696 -1.5901675865462834 -1.627507895636165 1 0 1
26 8 4 0 -0.1735523793629572 -1.908708172557082 -1.744158477413458 1 0 1
10 3 4 0 -0.5680177885946853 -0.9721201300902456 -1.3591300562838051 1 0 0
9 3 2 0 -0.4393339961085312 -0.519743758869756 -1.2757286591066535 1 0 0
14 4 4 0 -0.2152126858419754 -2.052575633822281 1.1338228793402783 1 1 -1
32 10 4 0 0.6593642855354056 0.5756203734519607 -1.1934359609457417 1 1 0
19 6 4 0 0.9121768263973662 0.5248486591715298 -0.9008432763625231 1 0 0
18 6 2 0 1.323494022739701 0.3154651274178759 -0.8381232494977109 1 0 0
20 6 4 0 1.7414477301071045 0.10344839666501571 -0.7648515035110144 1 0 0
17 5 4 0 2.5233034657889277 0.7472502074222538 -0.3074291283862389 1 0 1
15 5 2 0 2.7373218029073305 0.9995708145345228 -0.03182814876433282 1 0 1
16 5 4 0 2.9499954339128207 1.2526647008805831 0.24917820434538474 1 0 1
27 9 2 0 3.43796908002519 1.6741445257817351 0.6486413017948993 1 0 -1
28 9 4 0 3.272225895738619 1.4836513661216406 0.2687943494611491 1 0 -1
29 9 4 0 3.609347281863604 1.8544281180175135 1.029435489171263 1 0 -1
12 4 2 0 3.9396586583724273 2.065984241119911 1.5630118560391866 1 0 -1
13 4 4 0 3.9620326651594207 2.065168637852417 2.018355692973725 1 0 -1
22 7 4 0 2.926799321418975 -0.057349690472022985 -1.369717517260574 1 -1 0
11 3 4 0 3.8200507570178504 -0.10073424654149998 -1.2001276998727317 0 0 0
1 1 1 0 2.525430048927511 -0.007567342905418606 -0.657660036685408 1 0 1
3 1 3 0 2.8150779237247345 -0.14343302272191383 -0.9889020794609227 1 0 1
2 1 3 0 2.5441983444174765 -0.30461813904530866 -0.2974178744359337 1 0 1
4 1 3 0 2.1060311247314383 -0.0008673424812899455 -0.8119588814563037 1 0 1
6 2 2 0 2.719474096129102 -0.3086636195246699 0.4006707400369951 0 0 0
7 2 4 0 3.0241632315294815 -0.3165552095324362 0.7017840737465013 0 0 0
8 2 4 0 2.395263821872896 -0.29696349952313716 0.08653273859639876 0 0 0
21 7 2 0 2.8670715575354953 0.09683420613615956 -1.800371589110891 1 -1 0
31 10 4 0 4.045541793765646 0.1392348459446544 -1.428566576571655 0 1 0
30 10 2 0 4.431360282929008 0.3571437916913789 -1.3168877755760087 0 1 0
5 1 3 0 2.6406064463754158 0.39894267090643964 -0.5191128696355372 1 0 1
23 7 4 0 2.8037260950800524 0.24756834334873767 1.8950014864261515 1 -1 -1

Velocities

25 0.5060195396664644 -0.5579278998680753 0.3237882094771124
24 0.055586157484682236 0.18962723842439955 -0.05739802838868621
26 0.1805736469214735 -0.7223733288345218 -0.7095933345569748
10 -0.6131529613471335 -0.5511794042493006 0.783817156171882
9 -0.2573260799934607 0.03440971785032996 -0.07627397044119308
14 -0.566993525989055 0.5165578904352852 0.06772133796039834
32 0.5881851210951046 0.6583416079656853 -0.6938912810979836
19 0.9211685924100161 -0.14124232303089584 -0.5604213664275618
18 0.15054032527984385 0.07196280902287396 0.1851741611390454
20 0.5430760085228592 -0.7319605089960618 -0.5497620195218715
17 -0.2602161163086347 -0.418271928799613 -1.0052917852882206
15 0.3698248599018912 0.13860528901974123 0.27944527757820276
16 0.06264168751314036 0.7008130138576855 0.3196140022416032
27 -0.49883194119677393 -0.1535851265322985 0.08893803724173102
28 -0.5186164853030496 0.28951092242284293 0.4919483287729292
29 -0.6892092265672223 0.5565408256431756 0.8801586999253016
12 0.13997892731171527 0.13928961847188429 0.5150133850100292
13 0.3622620030034467 -0.8876686684982459 -0.565800477775678
22 -1.049428827815779 -0.5851087225301723 0.43485643654160744
11 -0.16465765560138257 0.09544032763506129 -1.170964281596898
1 0.08694768640272348 0.3277015463173831 -0.3389450242610318
3 0.7910325980399376 0.874578754506651 -2.499892776130534
2 -0.8965089596735099 -0.05986644709856907 -0.7084924086756493
4 0.7893859607362383 0.46871115964629984 0.6806225410603669
6 0.19926144369849505 -0.4104715229111694 -0.02967875589535017
7 -1.7421643857774756 0.03383631903149404 0.05285032948362022
8 -1.3114394774725162 0.5053590900159485 -0.727494849815697
21 0.13971284146822477 -0.2983751661722502 0.24174707427049438
31 0.32765098280940136 0.735292056856491 -0.6257857840474338
30 0.03614859053303095 -0.07131410567097902 -0.10971500831132533
5 0.3087981910265126 -0.8318131603997279 0.07211199343275546
23 0.8875898437727714 0.3739310132378424 -1.273197582759446

Bonds

1 1 24 25
2 1 24 26
3 1 9 10
4 1 9 11
5 1 18 19
6 1 18 20
7 1 15 16
8 1 15 17
9 1 27 28
10 1 27 29
11 1 12 13
12 1 12 14
13 1 1 2
14 1 1 3
15 1 1 4
16 1 1 5
17 1 6 7
18 1 6 8
19 1 21 22
20 1 21 23
21 1 30 31
22 1 30 32

Angles

1 1 25 24 26
2 1 10 9 11
3 1 19 18 20
4 1 16 15 17
5 1 28 27 29
6 1 13 12 14
7 2 2 1 3
8 2 2 1 4
9 2 2 1 5
10 2 3 1 4
11 2 3 1 5
12 2 4 1 5
13 1 7 6 8
14 1 22 21 23
15 1 31 30 32
