LAMMPS data file via write_data, version 19 Nov 2024, timestep = 100000, units = lj

79 atoms
4 atom types
54 bonds
1 bond types
35 angles
2 angle types

-3.045986 3.045986 xlo xhi
-3.045986 3.045986 ylo yhi
-3.045986 3.045986 zlo zhi
-1.120259440767768e-11 0 0 xy xz yz

Masses

1 1
2 1
3 0.1
4 0.1

Bond Coeffs # harmonic/omp

1 100 0.45

Angle Coeffs # harmonic/omp

1 100 180
2 100 109.471

Atoms # full

26 8 2 0 -1.7203438350307068 -2.9084658352319552 -2.987732682056065 0 0 1
27 8 4 0 -1.479932499800108 -2.519932051879361 -2.9444942704136006 0 0 1
61 19 4 0 -0.5955722714014722 -2.102822563434846 -2.3278043399482637 0 0 1
12 3 4 0 -0.46938449270437 -2.2832150294519 -1.9956605968888106 -1 0 1
11 3 2 0 -0.5803495672893844 -2.46860150796602 -1.596837252394702 -1 0 1
59 19 2 0 -0.923571973026942 -2.131819374482737 -2.6367086671018902 0 0 1
60 19 4 0 -1.2609866229362225 -2.1551820200730707 -2.943770981107264 0 0 1
38 12 2 0 -0.08574467341816039 -0.7682049727229541 -2.5362420421873235 1 0 1
40 12 4 0 -0.39498137542271605 -0.806277504678969 -2.8369882587795883 1 0 1
42 13 4 0 -0.7251235906490643 -0.9283077957764974 -3.010222861508898 0 0 1
13 3 4 0 -0.6911010048850024 -2.648251105467501 -1.195166641520705 -1 0 1
47 15 2 0 -0.2741053059109473 -2.875301659834889 -0.2534507521841416 0 0 0
4 1 3 0 -0.6812243071289119 -3.024901636809603 -1.2180231045699978 0 0 1
49 15 4 0 -0.1107925188079748 -2.51931358775072 -0.0105973095884635 0 0 0
51 16 4 0 -1.8331472290437418 -1.8361659118457487 0.8046000516328036 0 0 1
50 16 2 0 -1.428248406561031 -1.9346495659743166 0.9629109067960986 0 0 1
52 16 4 0 -1.023757920329646 -2.0343284445252428 1.1200267150038732 0 0 1
29 9 2 0 -0.40682260846206564 -2.1087967962942513 0.5587656425959246 0 0 1
31 9 4 0 -0.730001009799667 -1.9944709871961945 0.845860804645699 0 0 1
30 9 4 0 -0.07946522554691304 -2.2201446577499233 0.2582111564305367 0 0 1
41 13 2 0 -0.965683954349875 -0.6924570839941291 2.7964372122815018 0 0 0
16 4 4 0 -1.1822057547529123 -0.25997751641802846 2.1512879386739154 0 0 0
43 13 4 0 -1.2125840422256604 -0.45065673489487823 2.4931326116477663 0 0 0
35 11 2 0 -2.725835736353588 2.435076782277241 -2.0131716735885434 1 0 1
37 11 4 0 -2.9192262020328448 2.3574479311239855 -2.408737065073322 1 0 1
10 2 3 0 -2.8036395739595332 2.2420727903844204 -2.7609757821480754 1 0 0
36 11 4 0 -2.5293177529285122 2.514852902069637 -1.6092934934934906 1 0 1
28 8 4 0 -1.9538493098230914 2.8124092705867687 -3.0184465323544547 1 -1 1
62 20 2 0 -1.859989109675593 0.8991216273564206 -1.2935398158800797 2 0 0
63 20 4 0 -2.249031050329028 0.6478027313780306 -1.3572226030794905 2 0 0
72 23 4 0 -2.649663838507413 0.69134153388999 -1.3914376451749033 2 0 0
66 21 4 0 -1.2689852336487835 1.3054217691097012 -1.48359703988576 2 0 0
64 20 4 0 -1.4952995459365992 1.132530930906876 -1.2243356185600898 2 0 0
75 24 4 0 -2.3481392333336437 2.7860865832500794 -1.3803299066536237 2 0 1
74 24 2 0 -1.896480301600362 2.8618463542190753 -1.3861785655308672 2 0 1
2 1 3 0 -1.2950856654106686 2.681299737490253 -1.1186361114912813 1 -1 1
3 1 3 0 -0.6625764432433003 2.3250087199058145 -1.2785417361705176 1 -1 1
76 24 4 0 -1.4529974981530394 2.9338561283448596 -1.4019164990821198 2 0 1
48 15 4 0 -0.4379177835938943 2.857390802784648 -0.4920379073923167 0 -1 0
67 21 4 0 -0.6656567679763303 1.9208629029878939 -1.2777328791347256 2 0 0
5 1 3 0 -0.7584731026362732 2.6595690909720915 -0.6058073159127009 0 -1 1
1 1 1 0 -0.8496132183784075 2.685454656835473 -1.0610289243052942 0 -1 1
65 21 2 0 -0.9723030586336332 1.608381981203114 -1.3819261742130746 2 0 0
15 4 4 0 -0.8007932749640934 0.4012517071207111 1.6953030566905811 0 0 0
34 10 4 0 -0.393572281489742 0.4874735088494462 1.6613961407677973 0 0 0
32 10 2 0 -0.13590047602141464 0.8106953820571063 1.8144451132514954 0 0 0
14 4 2 0 -0.9844506443695105 0.08031025699674288 1.9143235007985853 0 0 0
6 2 1 0 -2.673360528668418 2.491721897891779 2.973005733514289 1 0 -1
8 2 3 0 -2.222223924683264 2.535373397254988 2.97012098992521 1 0 -1
7 2 3 0 -2.8121414338230633 2.286075263288816 2.586941774651587 1 0 -1
9 2 3 0 -2.8639293483778676 2.8965072245514856 3.005296023105977 1 0 -1
17 5 2 0 2.0917948770387484 -2.83665315112652 -1.6107017049718522 -1 0 1
24 7 4 0 2.305255056661048 -2.768825839663627 -2.328850898495023 -1 0 1
23 7 2 0 2.591176766056769 -2.9121063761642385 -2.673101339201263 -1 0 1
19 5 4 0 2.272750110930853 -3.0037195039247675 -2.0023568220990864 -1 0 1
25 7 4 0 2.8709470988305226 -3.041649508896122 -3.007914086885247 -1 0 1
22 6 4 0 0.5927844351798113 -0.5081432978858267 -2.2390982369173513 1 -1 0
20 6 2 0 1.0000670904341238 -0.28664878726824394 -2.181965918338767 1 -1 0
39 12 4 0 0.2505207952008828 -0.7302127255401567 -2.2158329078195655 1 0 1
21 6 4 0 1.3935132815033606 -0.06387946739629413 -2.1224080917178356 1 -1 0
44 14 2 0 1.759996849469533 -1.939774994756849 -1.0420920076131797 0 0 1
46 14 4 0 1.664208674170644 -2.360281393317329 -1.146665640125082 0 0 1
18 5 4 0 1.91010822406081 -2.673996895454219 -1.2257293640112223 -1 0 1
45 14 4 0 1.8582787563975716 -1.516127946075575 -0.9367864097954528 0 0 1
58 18 4 0 1.6238816342408198 0.23097508937225797 -1.9780672351376118 1 0 0
56 18 2 0 1.942774416141618 0.2289992088857442 -1.6551449520792358 1 0 0
71 23 2 0 3.04206140466104 0.47621574345334183 -1.4327796075109358 1 0 0
73 23 4 0 2.639061352925837 0.26306119984512577 -1.4685588786570338 1 0 0
57 18 4 0 2.2766605972094203 0.22784422997929754 -1.3166024706917012 1 0 0
69 22 4 0 1.290240394397113 2.02265775552707 1.4745175995612394 1 0 0
78 25 4 0 0.3149274998669451 1.4531042109917003 1.786421625795442 1 0 0
33 10 4 0 0.14224192470717156 1.135570262180397 1.9746474234396674 0 0 0
79 25 4 0 1.004909047697904 2.032974645309272 1.7498964999988216 1 0 0
77 25 2 0 0.657546119831288 1.7394540947311077 1.7637776231038655 1 0 0
68 22 2 0 1.6616462547286215 2.2641532543291536 1.5266806749000876 1 0 0
70 22 4 0 2.0266822262542643 2.502493249405471 1.5861206902695333 1 0 0
55 17 4 0 2.2480636867556925 2.3380956094371568 1.8586366017596392 1 0 0
53 17 2 0 2.583174352118748 2.249779497685596 2.127947091502162 1 0 0
54 17 4 0 2.931777619124559 2.1613168338028377 2.4021049222740753 1 0 0

Velocities

26 -0.06304233376756968 -0.29164908182212923 0.04348636284833517
27 0.2968884955838604 -0.9514679782551012 -0.12995756448005266
61 -0.5019204137934393 0.293950674047738 0.21817492427572768
12 0.5808927890825146 -0.3867465842158156 0.08669791180371608
11 -0.019640531128815114 0.2129354531571291 0.08312401658313504
59 0.06129872696890146 -0.18903788380663397 0.16771429492678536
60 -0.07290027803326601 -0.22395835699307945 -0.14987534227277077
38 -0.0066679837026832785 0.018177174466908325 0.033980358147800475
40 -0.7336649260900149 1.1894870845867642 -0.33237227438737144
42 0.20303258949572003 -0.2788927460060458 -0.024764591786879408
13 0.049660717946259945 0.3882674783960501 0.8080111196992417
47 0.2239300003481862 -0.0052015625124873675 0.17767463353161744
4 -0.4460522602384912 -0.9164754177394027 0.8278515021401167
49 -0.006929628720748215 -0.6400383111131231 0.25746378169628087
51 1.1032383767505765 -0.7648371364344335 1.2283215917369217
50 0.06058297608185394 0.2310133516883341 -0.11494215007321663
52 -0.3671729060365202 -0.7945451525225558 -0.8615429483081403
29 0.024487372800293693 -0.26688184271600385 -0.14685480036242338
31 0.4433064149643011 -0.9154382602272728 -0.15422078988046614
30 -0.11843026277498253 0.34635018627558944 -0.6871994262587084
41 0.03473202026671138 -0.13366938721759117 0.14845433100607505
16 0.03688913933580727 0.46696870924691825 -0.30559563000514134
43 0.16369416246927532 0.372022338096937 0.43956131539121
35 -0.2943877932612898 -0.3037817682792812 0.17253100056687992
37 0.2563050756546605 -0.16987880504907202 0.2671418882391215
10 0.7054688273718583 -0.6991237254754114 0.10299973200851312
36 -0.44587881814511865 0.16265974596828023 0.5788511280554863
28 -0.21477530410418355 0.13111039729796156 0.35790711957515353
62 0.29396085188986554 0.031785417005632394 0.2267539095986431
63 0.010817528985845159 -0.03768073528649793 -0.26283031110913513
72 -0.16802753178681573 0.04262758871381386 -0.6829518586793719
66 0.32463107432312255 -0.18822402445608302 0.3268066930588893
64 0.08633578609124694 -0.3459118471871613 0.9730871177176571
75 0.06490264840400439 0.35455394332919815 0.023136835002209966
74 0.43251249090131133 0.27247220160354696 0.004420878759178848
2 0.28667063022245093 0.16150095197430675 0.0702006766978393
3 -0.45177861868246927 -0.39051117096174776 0.019366184694661195
76 -0.06867718623161928 -0.4494909849123125 0.7034026937066911
48 -0.1603920061019648 -0.21440572198593177 0.6604960520008324
67 -0.8345821078361442 0.5004077611787188 0.034250257249029414
5 0.15165419656498716 -0.2864290225050549 -0.5137494610830167
1 0.025794108522078696 -0.0648792251912952 -0.038622562261317196
65 0.06357549113935683 -0.025604535284267732 -0.08935246318147601
15 0.22754557368834552 -0.5109738510298154 -0.10011979204320416
34 -0.34256302708302316 -0.008439792626100916 -0.916690156373832
32 -0.14786858225126506 0.14260364767310274 -0.1800768321457594
14 -0.0009091479593103967 -0.02435102740312603 0.10630600297820529
6 -0.061310477896264114 -0.1368533484412776 0.04163401634626901
8 -0.06458762825765037 0.0726334749670657 0.02792324592911903
7 -0.08929364970895037 -0.04364843320057678 -0.09226269847484568
9 0.2975775885762564 -0.3679267316981087 0.44994082941465685
17 0.001391608521486393 0.28025956792754453 0.2308357547466506
24 -0.2497500985077858 -0.6451454271587376 -0.8832897495077288
23 0.013944598052982947 0.074829666096278 -0.08124002050886939
19 -0.025706341233160034 -0.264719175089496 0.194091907224798
25 -0.46019481710653504 -0.6669004669178504 0.13086551417145484
22 -0.17209609282144217 -0.3494928607848743 -0.8190566430304497
20 0.18196475338318055 0.04035163651790545 0.07207839761451719
39 0.3488625109433622 0.003896736774555383 0.021185944499714608
21 -0.7526058197153978 0.4654641831446309 0.017930979763307944
44 -0.3350649948885678 -0.028177885186884105 -0.05657407873891886
46 0.7183180388450179 -0.1763464220677847 -0.2851211600955583
18 -0.36736165424569184 -0.17455148325661177 0.22166950608804034
45 -0.005595716480958399 -0.6109924425776772 0.5952704669440593
58 -0.5705830056600182 -0.6083960988901076 -0.8478932224703103
56 0.0834530024211322 0.2021821048167009 0.21328752702263712
71 0.04511029035892193 -0.002379490651191355 -0.011024670294621564
73 0.35151071101582276 -1.0930439866638906 -0.5086274563600469
57 -0.10651993962807998 0.5661307545074282 0.5056920585283913
69 -0.8117626862944309 -0.4051548137269392 0.015494687640422205
78 -0.4578562464438334 -0.442908793572635 0.1858134856988345
33 0.1863898262293197 0.5317712911857897 0.1640223576749125
79 0.37160595214091957 0.29321192732838497 0.1508726731856797
77 -0.12863272926604735 0.2717647739660314 -0.05868174319825879
68 0.02420643789838481 -0.08758755153706443 -0.04500780420785601
70 -0.8884473311039192 0.37015012076985176 0.5080609929323607
55 0.26260218192820944 0.9451069079215668 0.45097552285349224
53 0.12826327429496664 -0.07110193505549793 -0.010354987724844339
54 -1.2065323964283303 -0.22091406743292963 -0.10887334958131671

Bonds

1 1 26 27
2 1 26 28
3 1 11 12
4 1 11 13
5 1 59 60
6 1 59 61
7 1 38 39
8 1 38 40
9 1 47 48
10 1 47 49
11 1 50 51
12 1 50 52
13 1 29 30
14 1 29 31
15 1 41 42
16 1 41 43
17 1 35 36
18 1 35 37
19 1 62 63
20 1 62 64
21 1 74 75
22 1 74 76
23 1 1 2
24 1 1 3
25 1 1 4
26 1 1 5
27 1 65 66
28 1 65 67
29 1 32 33
30 1 32 34
31 1 14 15
32 1 14 16
33 1 6 7
34 1 6 8
35 1 6 9
36 1 6 10
37 1 17 18
38 1 17 19
39 1 23 24
40 1 23 25
41 1 20 21
42 1 20 22
43 1 44 45
44 1 44 46
45 1 56 57
46 1 56 58
47 1 71 72
48 1 71 73
49 1 77 78
50 1 77 79
51 1 68 69
52 1 68 70
53 1 53 54
54 1 53 55

Angles

1 1 27 26 28
2 1 12 11 13
3 1 60 59 61
4 1 39 38 40
5 1 48 47 49
6 1 51 50 52
7 1 30 29 31
8 1 42 41 43
9 1 36 35 37
10 1 63 62 64
11 1 75 74 76
12 2 2 1 3
13 2 2 1 4
14 2 2 1 5
15 2 3 1 4
16 2 3 1 5
17 2 4 1 5
18 1 66 65 67
19 1 33 32 34
20 1 15 14 16
21 2 7 6 8
22 2 7 6 9
23 2 7 6 10
24 2 8 6 9
25 2 8 6 10
26 2 9 6 10
27 1 18 17 19
28 1 24 23 25
29 1 21 20 22
30 1 45 44 46
31 1 57 56 58
32 1 72 71 73
33 1 78 77 79
34 1 69 68 70
35 1 54 53 55
