LAMMPS data file via write_data, version 19 Nov 2024, timestep = 10000, units = lj

14 atoms
4 atom types
10 bonds
1 bond types
9 angles
2 angle types

-1.25992 1.25992 xlo xhi
-1.25992 1.25992 ylo yhi
-1.25992 1.25992 zlo zhi

Masses

1 1
2 1
3 0.1
4 0.1

Bond Coeffs # harmonic/omp

1 100 0.45

Angle Coeffs # harmonic/omp

1 100 180
2 100 109.471

Atoms # full

3 1 3 0 -1.0261620422721978 -0.152087711916499 -0.3641082177230899 0 0 0
5 1 3 0 -0.9327358272680557 -0.8969112144320038 -0.4687758954326826 0 0 0
14 4 4 0 -0.6849216891807041 -1.1299983392512227 -0.22744035880289468 0 1 0
1 1 1 0 -1.2422096683625 -0.5766019816229522 -0.45487097171099933 0 0 0
8 2 4 0 -0.03716228684243801 -1.1226262050175202 0.5834788659792827 0 1 -1
12 4 2 0 -0.3078467861323997 1.1627538107263073 -0.12623079817282892 0 0 0
9 3 2 0 -0.3385026525479731 0.1130728543821473 -0.6984204819609173 0 0 0
10 3 4 0 -0.7374670849402903 0.12602767903165515 -0.42666664046599845 0 0 0
2 1 3 0 1.0647705414500803 -0.5482489855918365 -0.8536493421605407 -1 0 0
4 1 3 0 0.972636936343678 -0.6682756116231 -0.1185250531374171 -1 0 0
6 2 2 0 0.26327269076150084 -1.107616609473123 0.8939008242491424 0 1 -1
7 2 4 0 0.5764609301202994 -1.0910167539346267 1.2117811304995643 0 1 -1
13 4 4 0 0.08263646520935904 0.9340325154167786 -0.026551026369918056 0 0 0
11 3 4 0 0.05149847081349835 0.08594612208037797 -0.9714052415011214 0 0 0

Velocities

3 -0.9950850105682713 0.37545752942938426 0.02141470790889858
5 0.24225634600728607 -0.8917880947206428 -0.8876666318246011
14 0.21778083535958717 -0.7240080796298209 -0.4842682451301201
1 -0.03947179627342081 0.1787458557765583 0.10870801122112428
8 1.4386530234901183 -1.0619400015517908 -0.37837364458426176
12 -0.052523543389955116 -0.007050252868682969 0.2880512394961324
9 -0.7036879764175981 -0.30103018160156975 -0.17916636020118362
10 -0.6689345598064967 -0.9213979942208083 0.21139240157061817
2 0.1531787092116934 -0.7564051479131262 -0.12272838529315472
4 0.23098083194718222 -0.8870170834605192 -1.0941948600459221
6 -0.05400692013765513 0.2354544911944758 0.521736928497995
7 0.3249815720469633 0.605243534007141 -0.5925086926918494
13 1.4043671551252193 0.3011589436678328 -0.4426052770426728
11 -0.9011833442769439 0.27295957866356724 -0.36620800677966187

Bonds

1 1 1 2
2 1 1 3
3 1 1 4
4 1 1 5
5 1 12 13
6 1 12 14
7 1 9 10
8 1 9 11
9 1 6 7
10 1 6 8

Angles

1 2 2 1 3
2 2 2 1 4
3 2 2 1 5
4 2 3 1 4
5 2 3 1 5
6 2 4 1 5
7 1 13 12 14
8 1 10 9 11
9 1 7 6 8
