LAMMPS data file via write_data, version 29 Aug 2024, timestep = 900000, units = lj

676 atoms
4 atom types
484 bonds
1 bond types
442 angles
2 angle types

-4.496439 4.496439 xlo xhi
-4.496439 4.496439 ylo yhi
-4.496439 4.496439 zlo zhi

Masses

1 1
2 1
3 0.1
4 0.1

Bond Coeffs # harmonic/omp

1 100 0.45

Angle Coeffs # harmonic/omp

1 100 180
2 100 109.471

Atoms # full

110 22 3 0 -3.619091773915497 -3.973060282188873 -3.856159385601234 0 1 1
106 22 1 0 -3.2830750194175153 -3.6952744554451673 -3.7405345326481663 0 1 1
108 22 3 0 -3.4382138877935264 -3.403906819001056 -3.40279265949041 0 1 1
511 137 4 0 -3.7109028927076646 -3.1473885222954854 -3.251999284632709 1 0 0
509 137 2 0 -4.028300053041245 -2.9813379511833733 -3.5220083478527946 1 0 0
109 22 3 0 -3.1571140212302544 -3.449957737398689 -4.119788963942037 0 1 1
541 147 4 0 -2.956448825988452 -3.350594965640973 -4.456354571210189 1 0 1
107 22 3 0 -2.9338501136421242 -3.936754270906581 -3.590761265161199 0 1 1
334 78 4 0 -2.584160581061985 -4.075567410253613 -3.6627853386371134 0 0 1
332 78 2 0 -2.17599170522168 -4.220787294238746 -3.7817377727238757 0 0 1
333 78 4 0 -1.7240635676503233 -4.371222123686354 -3.903167460215499 0 0 1
408 103 4 0 -2.8431709490555623 -4.312023425507227 -3.475794906327028 0 1 1
486 129 4 0 -1.3461241260621821 -4.320657160478036 -3.992840022804347 0 0 0
485 129 2 0 -0.9760921070702441 -4.271186009746164 -4.241223082970149 0 0 0
2 1 3 0 -0.9272626023695762 -4.12979570148011 -3.2099240090246512 0 0 0
1 1 1 0 -1.276448390756649 -4.360566739995969 -3.160622009211503 0 0 0
3 1 3 0 -1.464734971573965 -4.456204383137209 -3.593435783327035 0 0 0
510 137 4 0 -4.359215752785082 -2.8199834709890372 -3.794386812191753 1 0 0
256 52 4 0 -4.251372001847303 -1.7519799852695468 -3.9648851914364265 0 0 0
178 36 3 0 -4.345597163634549 -2.0189984524660933 -4.2339892926027805 1 0 1
254 52 2 0 -3.822772387019927 -1.6361679018177624 -3.8668071366708605 0 0 0
28 6 3 0 -2.5726549393203797 -1.6421442169602405 -3.9383082934448614 0 0 1
255 52 4 0 -3.402003850478806 -1.5250868851548691 -3.7760560417719944 0 0 0
21 5 1 0 -4.273557100051046 -0.4545061736994471 -3.2064746504783512 0 0 0
296 66 2 0 -3.3475092099366757 -0.9678898793747114 -2.8843551553349673 0 0 0
23 5 3 0 -4.078085398841062 -0.14182973477734237 -3.4635101130743893 0 0 0
297 66 4 0 -3.752187183855621 -0.8573614381197686 -2.6787915687359067 0 0 0
484 128 4 0 -0.11017112202205583 -2.477927523277366 -0.8512580587517744 0 0 0
30 6 3 0 -3.1512651396249374 -1.2029229706645235 -3.844969862340445 0 0 1
26 6 1 0 -2.7247666492300313 -1.2228889560130252 -3.792607697641356 0 0 1
29 6 3 0 -2.6158580004056144 -1.1542427709127396 -3.3652604788824294 0 0 1
27 6 3 0 -2.5292001155301773 -0.8985929191428529 -4.050986851956609 0 0 1
351 84 4 0 -2.3000458367208934 -0.59276890750974 -4.163028142856814 0 0 1
98 20 3 0 -1.68704836434371 -0.30685373788831716 -3.3741891932765347 0 0 1
99 20 3 0 -1.942856309940871 -0.40873483408943095 -4.099365282917757 0 0 1
304 68 4 0 -2.6767873345508364 -1.3485124546859621 -3.025536001817285 0 0 0
298 66 4 0 -2.94213440177278 -1.0675463866740909 -3.0944274391517315 0 0 0
274 58 4 0 -1.8966887448027283 -0.3758689962755586 -3.00510968986331 0 0 0
272 58 2 0 -2.2312494411811774 -0.6670584326220325 -2.9903881939429624 0 0 0
273 58 4 0 -2.567889627331146 -0.9716542369811804 -2.9745870888921666 0 0 0
96 20 1 0 -1.7611671105719526 -0.09454531617859191 -3.776736576247941 0 0 1
370 90 4 0 -0.23883084514487693 -0.11767806327844389 -3.785410664022097 0 0 0
25 5 3 0 -4.49047921812516 -0.76394707305994 -3.489126425963346 0 0 0
257 53 2 0 -1.323233915159881 -0.3000892117507971 -0.769233954344881 0 0 0
147 30 3 0 -0.45971760203804796 -1.002063714334137 -3.2384268446408275 0 0 0
146 30 1 0 -0.11644342237637646 -0.9051391673359073 -3.48434338289422 0 0 0
149 30 3 0 -0.1856728745642485 -0.49362315725167566 -3.6650695273659246 0 0 0
148 30 3 0 -0.07391526902501792 -1.1995330716716728 -3.791991719490483 0 0 0
277 59 4 0 -3.4967014250911514 -3.362259989769175 -2.9897217887036094 0 0 0
276 59 4 0 -3.2384692397610686 -3.524681771571176 -2.11864192909032 0 0 0
275 59 2 0 -3.3685402068045587 -3.43884906240808 -2.5641009340825414 0 0 0
253 51 4 0 -3.3697651098495855 -3.8286027964722886 -1.876269223110685 0 0 0
280 60 4 0 -3.17069117521373 -3.481513275969274 -1.7317899198734368 0 0 0
284 62 2 0 -1.857920257288052 -3.6207902229821682 -2.463004091186243 0 0 0
286 62 4 0 -1.8727731692298861 -4.040522382892565 -2.6408178891640337 0 0 0
5 1 3 0 -1.5726551034579948 -4.131596878487139 -2.9224813450811697 0 0 0
285 62 4 0 -1.846422691891009 -3.203877986761265 -2.288483705497652 0 0 0
278 60 2 0 -2.9270004448211946 -3.1095391460952393 -1.58198698288136 0 0 0
13 3 3 0 -1.9524445532824788 -2.9312865437243607 -1.9838185101673467 0 0 0
303 68 4 0 -2.4200719767482433 -2.101391849195611 -2.5575012680350246 0 0 0
11 3 1 0 -2.118621967584972 -2.5293493502864717 -1.9818497753638262 0 0 0
12 3 3 0 -2.3210357861908837 -2.4479017908346066 -2.387270123689538 0 0 0
15 3 3 0 -2.424775846556551 -2.501412371850688 -1.6560052248940527 0 0 0
14 3 3 0 -1.8105285196084304 -2.243263872683873 -1.9145137855683843 0 0 0
302 68 2 0 -2.549999907547737 -1.7253609805992385 -2.793898532046658 0 0 0
9 2 3 0 -0.19560415078589563 -1.864664173901816 -2.6088726072263873 0 0 0
10 2 3 0 -0.9103659315058859 -1.7920528369565993 -2.4185230713011703 0 0 0
6 2 1 0 -0.538742145775218 -1.5721606803861532 -2.436789785424462 0 0 0
24 5 3 0 -3.9747619156060607 -0.6572069583443974 -2.9798124264720807 0 0 0
85 17 3 0 -1.6591829768627029 -0.04933089054791826 -2.950841996139616 0 0 0
282 61 4 0 -1.4984227636487004 -0.4210612193161509 -3.053356562063394 0 0 0
281 61 2 0 -1.1134425400573262 -0.7110853325136965 -3.0075272316132726 0 0 0
283 61 4 0 -0.7458406019198763 -0.983571218429564 -2.9645475911993757 0 0 0
490 130 4 0 -0.1200291598787083 -1.506282184420274 -1.7685474835648654 0 0 0
7 2 3 0 -0.41843979876334464 -1.4294176886774441 -2.0037998114005724 0 0 0
8 2 3 0 -0.580722917081619 -1.2206565627113959 -2.699164379602294 0 0 0
393 98 4 0 -0.18210863866725682 -0.25193344209172414 -2.0921507571825115 0 0 0
19 4 3 0 -0.09531321299251579 -0.48156807498222887 -1.7411310191541414 0 0 0
17 4 3 0 -0.2730603760823709 -1.1650484060845765 -1.5883719783823569 0 0 0
20 4 3 0 -0.6483010785210251 -0.5912112418821384 -1.258415482813989 0 0 0
251 51 2 0 -3.4030050920848387 -4.1351930066640605 -1.5428286759131005 0 0 0
252 51 4 0 -3.4322087657347784 -4.444868521108581 -1.2227135727368599 0 0 0
301 67 4 0 -3.372066142480066 -4.3512270871813294 -0.8228379950345043 0 0 0
299 67 2 0 -3.1393246088407065 -4.362086570833668 -0.4484143129895791 0 0 0
300 67 4 0 -2.9052545742407148 -4.369780205863258 -0.06015537817980207 0 0 0
279 60 4 0 -2.6946865884626763 -2.7330565921349637 -1.4392187326401529 0 0 0
264 55 4 0 -2.4702547279483653 -2.458983526490267 -1.262398033336902 0 0 0
263 55 2 0 -2.4134377478696085 -2.4497460101534796 -0.8268352391992142 0 0 0
265 55 4 0 -2.3581778383766325 -2.442927307004074 -0.39962340559990406 0 0 0
489 130 4 0 -0.11726716809415265 -2.19018979756792 -1.1545829306267057 0 0 0
488 130 2 0 -0.12137475876714367 -1.8552613530020186 -1.447891155315545 0 0 0
259 53 4 0 -0.9904685123669238 -0.47531206845937723 -1.0500073758032848 0 0 0
16 4 1 0 -0.23020636186160015 -0.7374770291089907 -1.424279353943674 0 0 0
258 53 4 0 -1.6375949576573814 -0.12148668203514006 -0.48017428537612855 0 0 0
268 56 4 0 -2.4560875614553415 -2.1938212006817253 -0.11436593034991406 0 0 0
294 65 4 0 -2.4014435561450673 -2.5864216044213983 -0.03486210893016381 0 0 0
322 74 4 0 -2.116800963891611 -3.6787540185116727 0.5524837061992195 0 0 0
312 71 4 0 -1.9701730020875206 -3.3866823138359776 0.7339667134432754 0 0 0
320 74 2 0 -2.433455351602919 -4.000217136377345 0.42932949317650326 0 0 0
295 65 4 0 -2.034046244510868 -3.3054304423195173 0.34435238603151813 0 0 0
311 71 2 0 -1.900135649174748 -3.3866482847250166 1.190053643296113 0 0 0
420 107 4 0 -1.7349761656621303 -3.564620854922774 0.46458383663344216 0 1 0
321 74 4 0 -2.746779465575906 -4.3113428090036745 0.30799753751381465 0 0 0
419 107 2 0 -1.32518181449448 -3.701076042640398 0.29492467647351206 0 1 0
421 107 4 0 -0.8956933048611785 -3.840320919310605 0.12388208509828141 0 1 0
476 126 2 0 -3.653850060719779 -1.693435424571376 0.7271563148895969 1 0 0
478 126 4 0 -4.1153828781584 -1.765621042746148 0.778824795370014 1 0 0
547 149 4 0 -4.474118361760779 -1.9642365707631486 0.7505780257807412 1 0 0
477 126 4 0 -3.189235153665839 -1.6168441351759315 0.6835997263986966 1 0 0
267 56 4 0 -2.811782091920086 -1.6578116252473913 0.5300842677265162 0 0 0
293 65 2 0 -2.2108281291905287 -2.9520652623834645 0.15519360487539943 0 0 0
266 56 2 0 -2.647150822353696 -1.911321424113559 0.23278206119429654 0 0 0
120 24 3 0 -2.489655693699678 -0.0867278073278172 3.6438454148320645 0 0 0
558 153 4 0 -3.4125640755303532 -0.037720629831889944 3.113702073738116 1 0 0
52 11 3 0 -2.3148424137918107 -1.2302372095962288 1.3071378761311083 0 0 0
54 11 3 0 -2.865194577447302 -1.4380684110060205 0.8587044398989754 0 0 0
55 11 3 0 -3.0021196625861664 -0.9237833775417938 1.3192198594756719 0 0 0
51 11 1 0 -2.6999896882536807 -1.0947548306855273 1.0525301819036015 0 0 0
53 11 3 0 -2.5779090526355364 -0.8011467816974036 0.7497924022293452 0 0 0
354 85 4 0 -2.433156848455736 -0.4642215973249053 0.9430491400778023 0 0 0
353 85 2 0 -2.210381667783944 -0.0826542478320019 0.8818876192369098 0 0 0
338 80 2 0 -0.22574868313432128 -1.2514061917335437 2.9177641688285867 0 0 0
349 83 4 0 -0.06044507981584414 -3.7244131785263153 3.4096108356850885 0 0 0
352 84 4 0 -2.631940497258103 -0.26605329761826435 4.009791294034082 0 0 0
35 7 3 0 -3.114458108011974 -4.483315537578448 3.0142817165341826 0 0 0
335 79 2 0 -2.1646465255561322 -3.7839797566543174 2.1942331594590248 0 0 0
313 71 4 0 -1.8398300622352046 -3.3960598907845214 1.6350662329590413 0 0 0
337 79 4 0 -1.841568262320306 -3.5511597092318725 1.9951238132631504 0 0 0
316 72 4 0 -1.6940982834326492 -3.1909475034542822 1.9684514919865146 0 0 0
336 79 4 0 -2.4947297343350727 -4.024554883143895 2.403337222038905 0 0 0
33 7 3 0 -2.5035477438708207 -4.213765559337904 2.7787560782774126 0 0 0
324 75 4 0 -0.2591345500137293 -2.6621913412137177 2.764668940251246 0 0 0
314 72 2 0 -1.4097754404483427 -2.9069792587164707 2.13802490889396 0 0 0
315 72 4 0 -1.1102983695076158 -2.6221540171567956 2.322242548622222 0 0 0
42 9 3 0 -1.0587527654604985 -2.461034795789347 2.6920713255557147 0 0 0
350 84 2 0 -2.4727824523204474 -0.4229674669548973 4.410363247828899 0 0 0
592 164 4 0 -3.8764622983164982 -0.08886637841439972 4.443773689109908 1 0 -1
307 69 4 0 -3.4452347455300028 -4.459818706300186 2.746014850226966 0 0 0
540 147 4 0 -3.26407617919656 -3.1359524882032117 3.725833507330011 1 0 0
539 147 2 0 -3.10971722987321 -3.24377890500644 4.11963721201935 1 0 0
38 8 3 0 -0.3810899432936455 -4.219750109140236 4.1583612166356305 0 0 0
347 83 2 0 -0.22747669785734745 -3.3307205946274365 3.200410668226428 0 0 0
342 81 4 0 -0.02082219091746726 -4.109103424991467 3.3430054278508066 0 0 0
487 129 4 0 -0.5889942216489398 -4.226041538926052 4.4930519114856144 0 0 -1
341 81 2 0 -0.2881721597251697 -4.4588649009649854 3.165258981443327 0 0 0
48 10 3 0 -3.0180270725527403 -0.1785622291319822 4.063345490034805 0 0 0
331 77 4 0 -4.474889496105992 -2.621558488040925 3.9433860201357906 0 0 0
330 77 4 0 -3.6727570727328183 -3.0373952089931606 3.7588409871924497 0 0 0
329 77 2 0 -4.0905714254781955 -2.8265529225637023 3.85402216511708 0 0 0
41 9 1 0 -0.7891702338442805 -2.2779109887679043 3.013541765144199 0 0 0
43 9 3 0 -0.43824187809745474 -2.5674395978510542 3.118703425343248 0 0 0
44 9 3 0 -0.6228573390157052 -1.886190915930143 2.866411608282528 0 0 0
340 80 4 0 -0.5462833426720803 -1.4911048500368795 2.76082643706918 0 0 0
348 83 4 0 -0.387603885840242 -2.9617134832892895 3.0047616366677143 0 0 0
45 9 3 0 -1.0490973851020684 -2.1971219006821534 3.407505099128857 0 0 0
119 24 3 0 -2.395003046557264 -0.176593276467271 2.9219184040340513 0 0 0
47 10 3 0 -3.4765955243850897 -0.7293596728711992 3.9781668529957837 0 0 0
50 10 3 0 -3.7567242684050783 -0.07988325372098626 4.075281431079521 0 0 0
49 10 3 0 -3.4267923062036245 -0.256353338095451 3.444457687180089 0 0 0
628 176 4 0 -4.148304444363023 -0.22542168755195283 4.186900081492262 1 0 0
46 10 1 0 -3.423644227246387 -0.3195468347422519 3.893597744882966 0 0 0
270 57 4 0 -0.20916333216856622 -0.11225262448036966 0.8070221731620237 0 0 0
197 40 3 0 -4.006850585759194 0.4748218881265822 -3.482755842446241 1 0 0
196 40 1 0 -4.3110432289503455 0.6966100104175751 -3.244790887942413 1 0 0
200 40 3 0 -4.082293673163728 1.0133640935486319 -2.9817512036539737 1 0 0
591 164 4 0 -3.9143606740028876 0.14089464360638287 -3.687181197552521 1 0 0
97 20 3 0 -2.0306392192353924 0.2228436946281345 -3.7147569861363023 0 0 1
382 94 4 0 -2.452487877652873 1.4028182707289234 -3.132384775588278 0 0 0
442 114 4 0 -1.5690466613772618 1.5620573745160868 -3.993712782609377 0 0 1
380 94 2 0 -2.308634009120882 1.052812567269142 -2.8282692478159572 0 0 0
114 23 3 0 -1.3097273628032966 1.2623122023869746 -4.071986363075321 0 0 1
112 23 3 0 -1.0355222519122347 0.6316305529651643 -4.210997947874382 0 0 1
111 23 1 0 -1.1826035677554936 0.9999724142723374 -4.380155565937603 0 0 1
100 20 3 0 -1.3644305379615649 0.06517051288806212 -3.933695608115062 0 0 1
369 90 4 0 -1.01078726765254 0.26728516820386344 -4.007672941805747 0 0 0
368 90 2 0 -0.637733153395861 0.08435343356635566 -3.902947919830087 0 0 0
82 17 3 0 -1.2939471071137068 0.5758545367911697 -3.155423362627518 0 0 0
440 114 2 0 -1.897222471693435 1.5450355802915299 -3.726983796895666 0 0 1
441 114 4 0 -2.25770741929368 1.5269738909463535 -3.4424030932461456 0 0 1
361 87 4 0 -2.4503134157059048 1.788706767460574 -3.236262121766579 0 0 0
359 87 2 0 -2.7007317829102946 2.1221320158519332 -3.0625788395067133 0 0 0
63 13 3 0 -2.8374958636564043 2.7662989071558655 -3.1532400514553145 0 0 0
590 164 2 0 -3.890716305845406 0.020709285539226338 -4.130837499201409 1 0 0
409 103 4 0 -3.1257949334991864 3.8855791909821815 -3.0921650105370504 0 0 1
64 13 3 0 -3.061063216921025 3.4740011106350117 -3.0925805502392185 0 0 0
407 103 2 0 -2.9869070156600115 4.292514125417093 -3.284465515260868 0 0 1
65 13 3 0 -2.473143859907134 3.2986796991525518 -3.522400917848389 0 0 0
61 13 1 0 -2.696428529142303 3.1949065538334884 -3.144469420273329 0 0 0
346 82 4 0 -1.6134133934427488 3.364718669311072 -4.1106531395619355 0 -1 1
344 82 2 0 -1.5599800585908863 3.825530580249115 -4.002034197996822 0 -1 1
345 82 4 0 -1.5024876485598293 4.292051569774389 -3.8999222376852907 0 -1 1
84 17 3 0 -1.8384934587268238 0.5769679344468376 -2.6491691459086284 0 0 0
381 94 4 0 -2.1899771754732913 0.7242181653346504 -2.545617635244928 0 0 0
81 17 1 0 -1.5011947501843022 0.3409578648254352 -2.8026150564280896 0 0 0
83 17 3 0 -1.1756102467479883 0.26665318474658456 -2.436724655219906 0 0 0
367 89 4 0 -1.1741182880195737 0.5571672122175569 -2.1406310064549214 0 0 0
365 89 2 0 -1.1029582888680565 0.9360058258376974 -1.9229921686476508 0 0 0
394 98 4 0 -0.8222796366071468 0.41743599446867136 -2.308481833989706 0 0 0
392 98 2 0 -0.4965700480142433 0.08030198291679434 -2.1964921242819924 0 0 0
366 89 4 0 -1.0341489768059715 1.3131510370555681 -1.7115551941799216 0 0 0
234 47 3 0 -3.2185411105977697 2.3159644923196527 -2.671885008056941 1 0 0
232 47 3 0 -3.570845751562527 1.9670178157944496 -2.097030753310312 1 0 0
231 47 1 0 -3.388602095541907 2.3529940897635466 -2.2269590378702686 1 0 0
235 47 3 0 -3.709869832595418 2.7079812478928567 -2.2048189842712107 1 0 0
233 47 3 0 -3.027832213442736 2.455765648629145 -1.9312380956319795 1 0 0
516 139 4 0 -4.0402882379818 2.929705510897868 -2.0000166127943673 1 -1 0
90 18 3 0 -3.072942559599397 2.789930134753954 -1.5576383951866206 0 0 0
372 91 4 0 -2.917494275892845 2.439271284023661 -1.5541905882549187 0 0 0
360 87 4 0 -2.931223905538217 2.4471747138969793 -2.90137964401404 0 0 0
364 88 4 0 -2.7285753479969794 2.706105689038154 -1.7676190805597323 0 0 0
362 88 2 0 -2.5135598503148167 2.9813323613190272 -2.0775687312809024 0 0 0
397 99 4 0 -0.7437659484009626 1.4101233372247994 -1.456059997254612 0 0 0
515 139 2 0 -4.472847274011151 3.0611015592716386 -2.0188887030842015 1 -1 0
88 18 3 0 -3.7278128416985705 3.1137708996381535 -1.8245767487039546 0 0 0
388 96 4 0 -3.3785680105865405 3.596406424718052 -2.8944256975467217 0 0 0
387 96 4 0 -3.7757316014775273 3.1131572674764825 -2.2317412404931942 0 0 0
386 96 2 0 -3.574111868331352 3.360415093133429 -2.568375479978286 0 0 0
86 18 1 0 -3.404435299600517 3.102421339929935 -1.4592134951981426 0 0 0
363 88 4 0 -2.305260832673457 3.235748252506627 -2.381001028582851 0 0 0
455 119 2 0 -1.7236082132105448 3.7476017981131102 -2.675953592794746 0 0 1
62 13 3 0 -2.399801129426671 3.272963232220155 -2.760909220286045 0 0 0
457 119 4 0 -2.1005892514105646 3.5112696188349406 -2.5731280715527016 0 0 1
4 1 3 0 -1.1719731394308712 4.259638690259987 -2.9659323551277 0 -1 0
456 119 4 0 -1.3586495153733034 3.969152580180508 -2.7691903838696152 0 0 1
422 108 2 0 -0.5340870247908203 3.826761472324171 -2.7476481911401365 0 0 1
423 108 4 0 -0.9638880960865115 3.969255211175724 -2.7404284057577137 0 0 1
67 14 3 0 -1.5979571911864303 0.0652180046054461 -0.10664993141043097 0 0 0
424 108 4 0 -0.09281338515899126 3.6896890703677783 -2.7629987259193327 0 0 1
87 18 3 0 -3.6152886189205216 2.9799635972808005 -1.0850429951918033 0 0 0
371 91 2 0 -2.8435419553089294 2.150615170494897 -1.1858807274255467 0 0 0
373 91 4 0 -2.772397526317059 1.8750707403617906 -0.8450292693239722 0 0 0
358 86 4 0 -2.9518075402675152 1.7772086511272815 -0.5067812462341083 0 0 0
356 86 2 0 -2.899482063858784 1.6856678154445452 -0.08053821773769754 0 0 0
395 99 2 0 -0.7299665182771627 1.842525323611535 -1.2468758756327063 0 0 0
77 16 3 0 -1.0050628382510423 3.1007747962950702 -0.42380301399951287 0 0 0
396 99 4 0 -0.7213915678140738 2.2501592331923406 -1.0533069419731684 0 0 0
78 16 3 0 -0.7096488433359109 2.6233358219501293 -0.9152118678432103 0 0 0
76 16 1 0 -0.636769516406694 2.8568073348922263 -0.5228396448827589 0 0 0
80 16 3 0 -0.5509144488089489 2.579681245170375 -0.19197568052274605 0 0 0
89 18 3 0 -3.227847988810788 3.504826506141197 -1.4056729068555973 0 0 0
400 100 4 0 -2.968619612232929 3.676021971538527 -1.1042953512510982 0 0 0
402 101 4 0 -2.1583957834367395 3.590067835484342 -0.2133723485990517 0 0 0
399 100 4 0 -2.5257381087367903 3.573990025189527 -0.35646077745468685 0 0 0
401 101 2 0 -1.7938569636258732 3.3503908101438893 -0.2774809284684753 0 0 0
398 100 2 0 -2.751111039112334 3.626483499517617 -0.732367504372614 0 0 0
79 16 3 0 -0.2776946122166833 3.15786480369308 -0.582321310798392 0 0 0
403 101 4 0 -1.4140123481301412 3.1024448771176663 -0.3522614003809035 0 0 0
615 172 4 0 -0.05529346425355882 3.488892432985895 -0.45905171248691656 0 0 0
378 93 4 0 -0.16801002745032073 3.4538402712370844 -0.8328833560916985 0 0 0
69 14 3 0 -1.4017760850221626 0.8016877630533508 -0.011146892346182059 0 0 0
125 25 3 0 -1.5020543950057974 3.2601677742636976 -4.474132858311926 0 0 1
187 38 3 0 -3.8275877389605366 1.4766183503959573 0.7699724056417213 1 0 0
188 38 3 0 -3.117558421886007 1.5974978906555408 0.6597365657234217 1 0 0
602 168 2 0 -4.486086904860749 1.5790256166108687 0.6288975781920019 1 0 0
190 38 3 0 -3.3670062937866656 1.5137544223959714 1.3404170331007805 1 0 0
186 38 1 0 -3.4626752764150233 1.678768672337531 0.9441529078253743 1 0 0
262 54 4 0 -2.8003091513457474 1.3429409097353728 0.6712954893293226 0 0 0
260 54 2 0 -2.5015547569257284 0.9768474612726542 0.6933182820435696 0 0 0
261 54 4 0 -2.212137770105218 0.6286194324140644 0.7224030029463706 0 0 0
73 15 3 0 -1.9297759429657613 0.63578603325434 1.034379096466389 0 0 0
70 14 3 0 -1.918716328819272 0.47578394236426785 0.4533393110674788 0 0 0
355 85 4 0 -1.9797328721453313 0.3073496063312771 0.8190168924230146 0 0 0
71 15 1 0 -1.5445618042986144 0.7541233394959619 1.2629657500949112 0 0 0
74 15 3 0 -1.5136610296651232 1.2197290140581203 1.2763900420265994 0 0 0
66 14 1 0 -1.521404008046872 0.4053238585462464 0.205103660794232 0 0 0
75 15 3 0 -1.1989009864748938 0.5868930337588885 1.0602636185408187 0 0 0
68 14 3 0 -1.1915519369057341 0.27963812571255386 0.49330925319095037 0 0 0
309 70 4 0 -0.4132885267070178 4.413761053979948 4.356890487762277 0 -1 0
269 57 2 0 -0.6211242944540922 0.09515641467772415 0.8176191379494273 0 0 0
406 102 4 0 -0.2017476913432565 0.2860795639332173 3.4351393747033714 0 0 0
271 57 4 0 -1.0352896908816305 0.296630679137082 0.8440581141621688 0 0 0
603 168 4 0 -4.098754271689947 1.806962018629171 0.72553353985655 1 0 0
583 161 4 0 -3.9295103791674584 2.1587522607775433 0.8797870198897462 1 0 0
189 38 3 0 -3.543961295838667 2.140455442889486 0.9870973814162327 1 0 0
581 161 2 0 -4.063240474769489 2.5860723336948923 0.859496073508408 1 0 0
582 161 4 0 -4.187397665154959 3.013122688726452 0.83678213989357 1 0 0
357 86 4 0 -2.8449317370697806 1.6001785919742282 0.34712709222509924 0 0 0
103 21 3 0 -2.3194654476474192 1.7526374446039263 1.5154056828857292 0 0 0
434 112 2 0 -0.1592975128986529 2.313836471955604 0.3917190557743655 0 0 0
435 112 4 0 -0.5473514123306928 2.3510220357448404 0.16347526159334763 0 0 0
656 186 2 0 -0.035281443704487804 2.1027045319983126 1.4309126265959922 0 0 0
429 110 4 0 -4.441929763691001 3.2972565221938948 0.997617653180269 0 0 0
414 105 4 0 -4.075557690315353 3.3995031973498437 0.8831601161899663 0 0 0
413 105 2 0 -3.739423448392241 3.625880600789474 0.6918959743168099 0 0 0
415 105 4 0 -3.3809427535044123 3.8524713416517935 0.5015692661892501 0 0 0
93 19 3 0 -3.0362144469820382 3.655261369213671 0.5125626263783055 0 0 0
94 19 3 0 -2.393806224410659 3.9869097002737357 0.6904122352663581 0 0 0
91 19 1 0 -2.6922816974909476 3.8915201923364937 0.3513344397293035 0 0 0
95 19 3 0 -2.8461100395953842 4.292805283856636 0.16884264940795732 0 0 0
92 19 3 0 -2.479233793851981 3.6580858561995275 0.02978808492719099 0 0 0
328 76 4 0 -1.231986789543432 3.3297354186862655 3.4412853408835473 0 -1 0
460 120 4 0 -3.337618548326763 1.2648846450573312 1.654938167272021 1 0 0
664 188 4 0 -4.059455145097443 0.43218281405683245 2.110534405456467 1 0 0
459 120 4 0 -3.857554691105693 0.7672499836457582 2.2227808743300006 1 0 0
458 120 2 0 -3.5885599079681807 1.0238859310193498 1.931428499369698 1 0 0
559 153 4 0 -3.939160554589368 0.48584808086592757 2.488134136169371 1 0 0
239 48 3 0 -4.233148302004176 0.6962444322563831 2.3598226367593598 1 0 0
237 48 3 0 -4.27821496171016 1.3534592805845822 2.753036411339182 1 0 0
557 153 2 0 -3.6688970376221297 0.20654066864452877 2.820607879703828 1 0 0
662 188 2 0 -4.323910644337207 0.17055958275688762 1.8597649546523194 1 0 0
437 113 2 0 -2.3560896392933297 1.1075769197794538 2.83536312617677 0 0 0
72 15 3 0 -1.5684835467556886 0.5930646320558931 1.6734960153507348 0 0 0
443 115 2 0 -1.8659934081814389 0.2580116322511675 2.373820922645123 0 0 0
438 113 4 0 -2.516649218803462 1.334482866939998 2.491113777142304 0 0 0
445 115 4 0 -1.597345321302566 0.4797827899850467 2.0641456367353093 0 0 0
104 21 3 0 -2.9996164688420475 1.472153730052067 1.5443323705454575 0 0 0
102 21 3 0 -2.5233986224771403 1.3430292573284004 2.0948821225201395 0 0 0
418 106 4 0 -1.2621352157248478 0.5785850953621965 1.9126827339037085 0 0 0
416 106 2 0 -0.938532458893833 0.7681671896337747 2.1767422936591174 0 0 0
417 106 4 0 -0.6184710378577312 0.946416650185999 2.44498604084919 0 0 0
242 49 3 0 -0.3373811308932033 1.1817122750230489 2.548436120626777 0 0 0
405 102 4 0 -0.41227086992760903 0.8585723413943651 2.778248472433456 0 0 0
453 118 4 0 -0.6691044588074545 1.162177026202319 2.795008022366771 0 0 0
618 173 4 0 -4.359249939813609 1.645992582583446 2.992780128532512 1 0 0
105 21 3 0 -2.8079704912648737 2.0237609031252153 2.010538515861298 0 0 0
101 21 1 0 -2.661642129208593 1.6454198185805566 1.7910313182210182 0 0 0
244 49 3 0 -0.12497584472776295 1.638204262035207 1.9607476824114034 0 0 0
658 186 4 0 -0.26192194053479245 1.9714023099136433 1.795570941089828 0 0 0
452 118 2 0 -0.8987341576037949 1.532033874875756 2.9506050700870663 0 0 0
34 7 3 0 -2.6525901407553905 4.128643966411791 2.5969476015352124 0 -1 0
31 7 1 0 -2.675169830557708 4.430763806356067 2.915467856841933 0 -1 0
327 76 4 0 -0.6262694167050444 3.8291659206487383 2.9431320320552716 0 -1 0
343 81 4 0 -0.5462389427516023 4.208793627900382 2.992878172615498 0 -1 0
308 70 2 0 -0.48757496235039055 3.992689342038319 4.190307776001153 0 -1 0
439 113 4 0 -2.2039617222994443 0.8911392463270569 3.1782948083668443 0 0 0
117 24 3 0 -2.391375936431221 0.5084914050546335 3.225584952131572 0 0 0
288 63 4 0 -2.091364795738691 0.6597738658318691 3.4722158101050624 0 0 -1
287 63 2 0 -1.987601714143527 0.8296478884320045 3.878166514670924 0 0 -1
116 24 1 0 -2.5804928929741444 0.08916640433434309 3.2502265379752653 0 0 0
118 24 3 0 -3.0362752722389392 0.1138415505817115 3.1890963528451226 0 0 0
121 25 1 0 -1.2158673836078502 3.1343746546761238 4.197405145087968 0 0 0
289 63 4 0 -1.8955288932970624 0.997087572624714 4.28559329274572 0 0 -1
113 23 3 0 -1.5157306980583383 0.9139768518442093 4.3459958408410175 0 0 0
404 102 2 0 -0.30723554419355464 0.5654735748029549 3.112405620502481 0 0 0
427 109 4 0 -1.3024313592981538 2.254588512842716 3.028229651782964 0 0 0
454 118 4 0 -1.14334305453517 1.8964153487319952 3.1076905186839183 0 0 0
425 109 2 0 -1.4186196214284588 2.6322032536818627 3.2581704069115833 0 0 0
123 25 3 0 -1.1512965968015212 2.673100688616102 4.234724833554456 0 0 0
447 116 4 0 -0.19951091566527865 2.109968836834211 3.9422977413095426 0 0 0
432 111 4 0 -2.3696201370591843 3.915520291001095 3.454670278641397 0 0 0
32 7 3 0 -2.4620624627105645 4.275262324972183 3.294726363616372 0 -1 0
433 111 4 0 -1.638855020781427 3.3909993787439996 3.494448671982796 0 0 0
431 111 2 0 -2.019517814976006 3.655954438129058 3.477259959757551 0 0 0
124 25 3 0 -0.8189408902682493 3.344553644835293 4.256488981740909 0 0 0
326 76 2 0 -0.913539303443528 3.5849723715261073 3.1784851250761466 0 -1 0
426 109 4 0 -1.5452423723159645 3.0245542089809314 3.488767619346621 0 0 0
444 115 4 0 -2.1381892524692083 0.023090326298778857 2.6874368080935755 0 0 0
122 25 3 0 -1.378150615697516 3.2317589812739653 3.7775621555592074 0 0 0
310 70 4 0 -0.5678811619097378 3.57226049183167 4.034570031971316 0 -1 0
306 69 4 0 -4.301806421637661 4.21202255091148 2.803829547970176 0 -1 0
305 69 2 0 -3.8768793773278283 4.376559177324452 2.770028431023237 0 -1 0
115 23 3 0 -0.8745506023924828 1.1856909645327425 4.398017443279834 0 0 0
448 116 4 0 -0.6086926016118223 1.5116059255190115 4.41152632655872 0 0 0
446 116 2 0 -0.40933514029097434 1.7941466928646397 4.188041657659892 0 0 0
566 156 2 0 4.246293050302711 -3.48414803283311 -4.171257714815497 0 0 1
568 156 4 0 4.029527980009226 -3.85381520570053 -4.265893753556213 0 0 1
567 156 4 0 4.479904103247401 -3.083147738893165 -4.072103962619045 0 0 1
474 125 4 0 1.9318239641933528 -2.4064797265736426 -3.6042490941905916 0 0 0
475 125 4 0 2.671409446980208 -2.111129466397749 -3.1529948799492526 0 0 0
473 125 2 0 2.29335528998477 -2.256340042566205 -3.384181847901384 0 0 0
143 29 3 0 2.8139554747672686 -1.7251467703676187 -3.098317183592558 0 0 0
462 121 4 0 2.9531951153579237 -1.9676112856667929 -3.3936456391939416 0 0 0
461 121 2 0 3.287710479334359 -1.938374104479125 -3.7117565086567823 0 0 0
180 36 3 0 3.8632321266210052 -2.173994007720888 -4.221933428997193 0 0 1
463 121 4 0 3.625594483759401 -1.9182153654987943 -4.022900983376954 0 0 0
176 36 1 0 4.288121314322325 -2.3611648796278493 -4.31339080410421 0 0 1
471 124 4 0 3.8640671927657118 -1.7661655101226654 -4.288882129843563 0 0 0
177 36 3 0 4.347964197515813 -2.7100418697128914 -4.063733307837146 0 0 1
479 127 2 0 1.0043722876624608 -0.789796119395723 -3.4643124776478897 0 0 0
480 127 4 0 1.3521905368403035 -0.7357262476664844 -3.7577602268144115 0 0 0
150 30 3 0 0.24475796545754444 -0.8997003497994235 -3.225788855090318 0 0 0
501 134 4 0 0.04588746000816097 -0.3499796036791913 -3.972520689030608 0 0 0
481 127 4 0 0.6398687568165903 -0.8388710321030537 -3.1323808129900055 0 0 0
468 123 4 0 0.48792562531855466 -1.206848794614649 -3.0952045618201782 0 0 0
500 134 2 0 0.3062603761490006 -0.34163081978285226 -4.370486719594185 0 0 0
174 35 3 0 1.8747094465534313 -1.492830147601534 -3.96741190298341 0 0 1
513 138 4 0 1.5690592338825184 -0.40341645375142965 -3.715799210224707 0 0 0
173 35 3 0 1.7449956132976527 -0.8086246924043359 -3.7592114600342263 0 0 1
171 35 1 0 2.0324234051004146 -1.0804525953227875 -3.9865547297793587 0 0 1
175 35 3 0 2.4484143232012103 -1.074786922778609 -3.780165640574599 0 0 1
494 132 2 0 2.8613752177020553 -0.398691708314505 -3.4309048706530403 0 0 0
142 29 3 0 2.662708707373297 -1.0252270298853865 -3.2133754852579224 0 0 0
496 132 4 0 2.658342999600758 -0.7816039283839457 -3.55555189351548 0 0 0
172 35 3 0 2.0655086685820487 -0.9446608159358875 -4.439483830566041 0 0 1
470 124 2 0 3.8552679624023116 -1.3355734111530706 -4.476673261927326 0 0 0
138 28 3 0 1.6256934569953874 -2.9553552405965706 -0.455933877877231 0 0 0
385 95 4 0 0.4078422368310593 -3.727578965527846 -2.722762112958933 0 1 0
383 95 2 0 0.5987271996081822 -4.089124367991495 -2.552285374233056 0 1 0
492 131 4 0 0.5420777301852394 -3.424459836939362 -2.9251526211829595 0 0 0
384 95 4 0 0.7993539136292545 -4.4711832181231586 -2.360029741106839 0 1 0
58 12 3 0 0.7275168255001981 -4.351488320549181 -1.976166470669094 0 1 0
56 12 1 0 0.6563800544763344 -4.389329088548839 -1.5072178840527992 0 1 0
491 131 2 0 0.5919112054967686 -2.9527689649374715 -3.0252058978026968 0 0 0
469 123 4 0 0.5463773936520394 -2.1301580736088837 -2.9537696921389864 0 0 0
467 123 2 0 0.5156286072148433 -1.6752152674536465 -3.022381622071385 0 0 0