LAMMPS data file via write_data, version 29 Aug 2024, timestep = 100000, units = lj

676 atoms
4 atom types
484 bonds
1 bond types
442 angles
2 angle types

-4.496439 4.496439 xlo xhi
-4.496439 4.496439 ylo yhi
-4.496439 4.496439 zlo zhi
0 0 0 xy xz yz

Masses

1 1
2 1
3 0.1
4 0.1

Bond Coeffs # harmonic/omp

1 100 0.45

Angle Coeffs # harmonic/omp

1 100 180
2 100 109.471

Atoms # full

272 58 2 0 -1.7106226020644306 -0.03173148847034124 -2.9313005211806247 1 0 0
254 52 2 0 -3.1447134960812138 -1.074521858061917 -3.9189319233545374 1 0 0
22 5 3 0 -4.278892208436171 -0.2416284643198896 -3.5461512431273134 1 0 0
24 5 3 0 -3.637145271085661 -0.20730720744740783 -3.123190050926005 1 0 0
23 5 3 0 -3.628823372920863 -0.18552056062921718 -3.8910161109434003 1 0 0
21 5 1 0 -3.8424258528480197 -0.37222342817459797 -3.5365438243571234 1 0 0
25 5 3 0 -3.802680977625222 -0.8162918748135155 -3.554477288482889 1 0 0
256 52 4 0 -3.5593017589430147 -1.0740257831108035 -3.7123072416246785 1 0 0
296 66 2 0 -2.936708238032376 -0.06991430021375145 -3.029929100483557 1 0 0
30 6 3 0 -2.540364761281609 -0.815586981725358 -3.844420217802714 1 0 1
255 52 4 0 -2.7046306969483043 -1.0726458622887387 -4.127132124253448 1 0 0
29 6 3 0 -2.239751636153629 -0.39980533291473197 -3.2772547529899745 1 0 1
26 6 1 0 -2.1549159135162395 -0.6271758326740011 -3.6899488950746737 1 0 1
27 6 3 0 -2.0012591030634983 -0.33160503402446295 -3.9861818199424763 1 0 1
28 6 3 0 -1.846109199659077 -0.9561114058610478 -3.6155214435079115 1 0 1
351 84 4 0 -1.7614524888243124 -0.048753902743779776 -4.179237160589047 1 0 1
370 90 4 0 -0.018522502906551885 -0.5697851063582666 -4.286485105267763 1 0 0
148 30 3 0 -0.0027976748216991254 -1.4757285188206293 -3.767412045690725 1 0 0
282 61 4 0 -0.974929871009786 -0.07869778184938436 -3.0608879537689377 1 0 0
281 61 2 0 -0.7623541581281352 -0.4783325635067328 -3.0663008348179233 1 0 0
147 30 3 0 -0.35558396126098746 -0.9106818708745741 -3.4101116612382083 1 0 0
368 90 2 0 -0.20071030048572602 -0.13010646915761193 -4.196515413085396 1 0 0
493 131 4 0 -4.26605157116759 -4.142036071474163 -2.001113650720839 1 0 0
488 130 2 0 -0.9931353103740106 -1.968324191343446 -1.5357670159812447 1 0 0
490 130 4 0 -0.7671777144201246 -1.6805438836019864 -1.831224784617961 1 0 0
9 2 3 0 -0.697284083675223 -1.8477583320192155 -2.691721325077234 1 0 0
7 2 3 0 -0.5656382960785638 -1.4264075988765699 -2.098135436654787 1 0 0
298 66 4 0 -2.514011405368926 -0.21761860727779148 -2.9871773978935825 1 0 0
304 68 4 0 -2.346364087708598 -0.5839301638080645 -2.924442572913736 1 0 0
273 58 4 0 -2.1286344074928962 -0.21959111066642212 -2.9390694933226347 1 0 0
303 68 4 0 -2.3953926125875036 -1.3469195966015044 -2.398675241955533 1 0 0
302 68 2 0 -2.3736641385666903 -0.9551785106736186 -2.6613915425768195 1 0 0
258 53 4 0 -0.9383743897629713 -0.5890852932718027 -0.049321814693582766 1 0 0
283 61 4 0 -0.5548378369442366 -0.8785054849721363 -3.0657045863746863 1 0 0
10 2 3 0 -1.1777776149402528 -1.3351543530029204 -2.4910439754582514 1 0 0
6 2 1 0 -0.7449476498830934 -1.4390211401536845 -2.5132855627157573 1 0 0
17 4 3 0 -0.48302055075809225 -1.4445849454681854 -1.6999856106394589 1 0 0
8 2 3 0 -0.537688653263221 -1.141211428751606 -2.7784819110023524 1 0 0
19 4 3 0 -0.1792961468637273 -0.7732698448194721 -1.8423667282987761 1 0 0
393 98 4 0 -0.10146929230728308 -0.4248495097615006 -2.0230327427166506 1 0 0
16 4 1 0 -0.3157495645243875 -1.04478041304937 -1.5228609241811633 1 0 0
483 128 4 0 -2.057921298409082 -2.683799779805187 -0.27061429897685674 1 0 0
482 128 2 0 -1.7802929075338763 -2.577768370364296 -0.6455672730279707 1 0 0
484 128 4 0 -1.4960239813850076 -2.478491238819873 -1.0177351948064466 1 0 0
20 4 3 0 -0.6490892351921329 -0.8456175131302635 -1.2913065766621656 1 0 0
489 130 4 0 -1.2201002594246422 -2.2586943459007442 -1.2518528898108547 1 0 0
257 53 2 0 -0.8941035309807988 -0.6734508608746133 -0.5171720669403852 1 0 0
259 53 4 0 -0.8478961140454415 -0.7498914286996312 -0.9799618216483248 1 0 0
130 26 3 0 -0.1755425547492937 -3.7246089968842893 -4.448590960738959 1 0 0
152 31 3 0 -3.068152598429325 -4.275937313347992 1.302406782930925 1 0 0
627 176 4 0 -4.453864335028892 -0.3037571295067183 3.881887959395841 2 0 0
524 142 2 0 -3.383226739009203 -3.5150055739637516 1.455259328228367 1 0 0
525 142 4 0 -3.47180476348918 -3.0552987634429014 1.451619443734554 1 0 0
151 31 1 0 -2.892783093483061 -4.38325430728286 0.9051422946694032 1 0 0
153 31 3 0 -2.739087232694487 -3.981214258152853 0.6769041821112776 1 0 0
507 136 4 0 -2.5387244928475106 -3.677750000959139 0.493120256060954 1 0 0
506 136 2 0 -2.3615617459568266 -3.3217244522725213 0.2536469592522774 1 0 0
552 151 4 0 -3.226489572273149 -2.8839509080727868 1.1965952446099637 1 0 0
47 10 3 0 -2.6988721852247677 -0.37649169228199497 3.3400170780178122 1 0 0
55 11 3 0 -4.231502645905975 -2.2862321801350434 0.08502437323267475 1 0 0
551 151 2 0 -2.8734181881594454 -2.6354944114690646 1.0874860409817613 1 0 0
553 151 4 0 -2.5220299318285315 -2.394696041715281 0.9762427235365791 1 0 0
140 28 3 0 -2.043898102374742 -1.8303536355615297 0.1688123358430369 1 0 0
136 28 1 0 -1.960571044926537 -2.229175957293776 0.3971665086270564 1 0 0
137 28 3 0 -2.1967506411518443 -2.245497671923095 0.7662248568591812 1 0 0
466 122 4 0 -2.13386711834929 -2.422001964627904 1.1284664903851311 1 0 0
139 28 3 0 -2.074575780507957 -2.5894532264615027 0.1198872062197811 1 0 0
138 28 3 0 -1.5199849364806148 -2.245712210606616 0.5039957646171329 1 0 0
637 179 4 0 -3.6919857635078195 -0.14427296170296966 0.5580564611036722 2 0 0
609 170 4 0 -4.010979226385423 -0.1780602223535821 0.3107148661896506 2 0 0
635 179 2 0 -3.6553895736064765 -0.038609347061759 0.9796506999286132 2 0 0
67 14 3 0 -1.0919478900046755 -0.368277154027596 0.2785253352932848 1 0 0
68 14 3 0 -0.6543914035904672 -0.33144841479155485 0.8705588652705103 1 0 0
66 14 1 0 -0.8179557242970379 -0.09559240575306305 0.5394378496007661 1 0 0
271 57 4 0 -0.5999256167762748 -0.38106391038184473 1.2637915195692848 1 0 0
269 57 2 0 -0.8479103259504326 -0.6431589447703683 1.5274647605692522 1 0 0
75 15 3 0 -0.44537459378993915 -0.10472790590032233 1.533869778030713 1 0 0
270 57 4 0 -1.1034121287513665 -0.9071438239962673 1.803047238432705 1 0 0
626 176 2 0 -3.993088833824163 -0.1943746707698102 3.8307024655080886 2 0 0
526 142 4 0 -3.2918350961856704 -3.9623021651437473 1.4570396428700825 1 0 0
544 148 4 0 -3.3565545405047303 -4.323273797419513 1.6151838723873277 1 0 0
577 159 4 0 -0.24740049068213832 -2.920146963702142 3.7836308966511227 1 0 0
325 75 4 0 -3.764374686039753 -3.0097122349497023 3.080971507449596 1 0 0
534 145 4 0 -2.9845297835048017 -4.125891960573855 1.66175604190002 1 0 0
630 177 4 0 -2.2566696095446366 -4.366022294644933 2.6058210033526565 2 1 0
533 145 2 0 -2.6128828726066007 -4.1930110500355635 1.9493608860190204 1 0 0
535 145 4 0 -2.248265557661291 -4.2618092807112395 2.2245066427038296 1 0 0
183 37 3 0 -0.49204136556899236 -3.3842133373285046 2.8433145133061055 1 0 0
290 64 2 0 -2.9712345904028545 -2.813675030015001 2.895696532407725 1 0 0
464 122 2 0 -1.8607499620195145 -2.4920799517675807 1.5118968210228818 1 0 0
465 122 4 0 -1.6113598363467987 -2.563456240956304 1.8653706010123559 1 0 0
168 34 3 0 -2.169397027576749 -2.484338767535541 2.846314789132106 1 0 0
169 34 3 0 -1.8314013194329024 -2.440713325354991 2.197505814699146 1 0 0
166 34 1 0 -1.7798448994286749 -2.415641863710526 2.656873420148824 1 0 0
167 34 3 0 -1.6255008479175617 -1.9942496137082113 2.774386754920994 1 0 0
291 64 4 0 -2.558524918900057 -2.6544067728873424 2.861892548609224 1 0 0
318 73 4 0 -1.38843038548374 -1.8288355098970506 2.507879762004575 1 0 0
170 34 3 0 -1.4930312565032726 -2.724383047370635 2.8035974211072068 1 0 0
317 73 2 0 -1.2237267871649968 -1.5740321324047155 2.184085575573472 1 0 0
521 141 2 0 -4.3266575395945255 -0.25332736114440824 1.79654683635881 2 0 0
319 73 4 0 -1.0492360232459577 -1.311443302306496 1.8605216981364032 1 0 0
350 84 2 0 -1.8691295801572032 -0.017478202275288623 4.389934169227252 1 0 0
323 75 2 0 -4.181524881895047 -3.193518830742678 2.9873026316286246 1 0 0
631 177 4 0 -2.104585378325277 -4.232424064034421 3.5094289207284186 2 1 0
574 158 4 0 -1.801317173096094 -4.271748872921854 3.7736065625783892 1 0 0
629 177 2 0 -2.180781283827038 -4.301730879661762 3.035053961720142 2 1 0
185 37 3 0 -1.1813187752448497 -3.165276754841398 3.0971414111625366 1 0 0
127 26 3 0 -0.30623672984335126 -3.1984112439089563 4.048942680841768 1 0 -1
572 158 2 0 -1.3579092258339371 -4.1010629555212015 3.764412118624427 1 0 0
573 158 4 0 -0.9302855466863438 -3.9396145957568764 3.75205954538188 1 0 0
184 37 3 0 -0.8073913121805698 -3.752539811396691 3.403430205914387 1 0 0
563 155 2 0 -0.38095179025402093 -4.367190132286872 3.348797120782004 1 0 0
565 155 4 0 -0.5703925520832356 -4.043905807602296 3.5951616808047904 1 0 0
129 26 3 0 -0.5697394497970301 -3.8802568162034468 3.951539189968554 1 0 -1
126 26 1 0 -0.4703845553215533 -3.567712501419211 4.263755167847044 1 0 -1
181 37 1 0 -0.7590137487436976 -3.341678421610384 3.2179605690993105 1 0 0
182 37 3 0 -0.5496423239963093 -3.06247193067399 3.5212058182251935 1 0 0
628 176 4 0 -3.525757848396082 -0.07283017898476629 3.7862490704218237 2 0 0
292 64 4 0 -3.369477023855021 -2.982220167234121 2.9399817894712523 1 0 0
523 141 4 0 -3.8881347666206407 -0.03202931903424311 1.7040875666932775 2 0 0
128 26 3 0 -0.8489603212177377 -3.4564285443354623 4.486017412177563 1 0 -1
508 136 4 0 -2.1841728739106023 -2.9711562403237273 0.011431971656898021 1 0 0
198 40 3 0 -3.657289589134574 1.1189131376493204 -3.4123426545389375 2 0 0
197 40 3 0 -3.4258945621673047 0.5588346476629695 -3.838061521025534 2 0 0
200 40 3 0 -3.4494185939796926 0.4887689254952887 -3.088890430593817 2 0 0
196 40 1 0 -3.654929319892609 0.6824484566391185 -3.455578830564582 2 0 0
672 191 4 0 -4.006061454229359 1.3447935723044644 -3.4302708060770337 2 0 1
591 164 4 0 -3.404670893398867 0.17433883446728515 -3.9782801271923383 2 0 0
199 40 3 0 -4.11308393492538 0.5327265306919022 -3.48777364827161 2 0 0
589 163 4 0 -4.281793697729155 0.17314927156845883 -3.4776836766478794 2 0 0
297 66 4 0 -3.3711836420118146 0.08652375884531427 -3.072068063554739 1 0 0
590 164 2 0 -3.3369565031180795 0.16528343126427547 -4.44772689193417 2 0 0
671 191 2 0 -4.416236824750431 1.4304731719164323 -3.6039273109628525 2 0 1
97 20 3 0 -1.2896290629302238 0.7468641777820455 -3.7910867058741995 1 0 1
274 58 4 0 -1.3135325794822803 0.14570587161514048 -2.926416663856297 1 0 0
96 20 1 0 -1.1579136869772784 0.31575909486322207 -3.7584394869116156 1 0 1
100 20 3 0 -0.740531755934311 0.2738423163138899 -3.9437862138505544 1 0 1
369 90 4 0 -0.37014062577569895 0.2749745163334314 -4.126760817949791 1 0 0
82 17 3 0 -0.43418336473183494 0.7589663555135013 -3.1529153458570125 1 0 0
112 23 3 0 -0.18370160994053375 0.6106234612193351 -4.316696650123027 1 0 1
98 20 3 0 -1.1498142908035303 0.18164207931200416 -3.3165352140277564 1 0 1
381 94 4 0 -1.0158549754450537 1.3588988168246825 -2.942977938639961 1 0 0
606 169 4 0 -3.247197545031886 2.7441602913590213 -4.178352246357745 2 0 0
651 184 4 0 -3.4986324028034206 3.0671303434561787 -4.25417258390169 2 0 1
585 162 4 0 -3.5632171753350868 2.6875937781041648 -4.405982059823219 2 0 0
605 169 2 0 -2.8332670119211967 2.5994526507533164 -4.025022645614815 2 0 0
607 169 4 0 -2.449964024794721 2.453066380564663 -3.887364499303761 2 0 0
612 171 4 0 -2.2426162807244214 2.411062209885002 -3.546501487999361 2 0 0
611 171 2 0 -2.276823708057369 2.5561272287474726 -3.1006437219135363 2 0 0
380 94 2 0 -0.7638529398553091 1.6576188655399262 -3.1818786434900175 1 0 0
441 114 4 0 -0.11558025151263163 1.9215688220104274 -3.549087296134713 1 0 1
361 87 4 0 -0.18384192259665522 2.138068232092058 -3.2143056321617065 1 0 0
382 94 4 0 -0.5071948627817746 1.9698601057509109 -3.432986258569219 1 0 0
675 192 4 0 -3.909180196284104 3.058694744872266 -3.181159186310454 2 0 1
650 184 2 0 -3.657083908012394 3.237317973549991 -3.8394617544545073 2 0 1
652 184 4 0 -3.817671527274297 3.398000087163223 -3.423117023981591 2 0 1
227 46 3 0 -3.8076598133015285 3.759238355482192 -1.560061250056998 2 0 0
84 17 3 0 -1.1139495475350216 0.9962885955273739 -2.7893544835242365 1 0 0
85 17 3 0 -0.9318325364484137 0.24742850339170896 -2.865805139859773 1 0 0
81 17 1 0 -0.754602369394445 0.6536664418087126 -2.7964554646659097 1 0 0
83 17 3 0 -0.5304938550314042 0.6502982126257839 -2.3838123606107007 1 0 0
367 89 4 0 -0.19743970687171952 0.7831189166711061 -2.2112026728625054 1 0 0
394 98 4 0 -0.37655442726120025 0.4590226455561206 -2.0884257220089117 1 0 0
86 18 1 0 -0.12909198444362513 3.5966830661937133 -1.4140268742401734 1 0 0
578 160 2 0 -3.9877861181177794 2.5481181560689743 -1.759602183594481 2 0 0
580 160 4 0 -4.210322572080635 2.8734742722074307 -1.9581479303834897 2 0 0
579 160 4 0 -3.7759955432663888 2.2384690530938594 -1.5765313644415833 2 0 0
613 171 4 0 -2.312585570510023 2.6971147389802477 -2.657325306856868 2 0 0
135 27 3 0 -2.2659179414792607 2.7294240414041795 -2.2493418807597263 1 -1 0
133 27 3 0 -2.5914337826527234 2.8444551319976092 -1.5555850974537688 1 -1 0
132 27 3 0 -1.836771126390743 2.911046992457008 -1.6317565793126407 1 -1 0
232 47 3 0 -0.37716023535972365 2.343899642616961 -1.667756271920211 2 0 0
231 47 1 0 -0.0530631449153125 2.6120681876282275 -1.8504335552559272 2 0 0
87 18 3 0 -0.49024289955483447 3.5905170215586493 -1.1092535914955919 1 0 0
676 192 4 0 -4.236040633105345 3.053622392921704 -2.330284316753465 2 0 1
674 192 2 0 -4.07483493585101 3.057107870959265 -2.7434183043113434 2 0 1
230 46 3 0 -4.108848390028992 3.955618981778719 -2.1890811763221523 2 0 0
228 46 3 0 -4.050178655385247 3.2273886546537707 -2.0420320756491823 2 0 0
226 46 1 0 -4.124432595448074 3.6673094768235215 -1.8727541086818666 2 0 0
131 27 1 0 -2.2513727431741195 2.9824971602344386 -1.839063446418176 1 -1 0
517 139 4 0 -1.4657775359654566 3.1154970652409704 -1.7403624202476684 1 -1 0
134 27 3 0 -2.2987366904144415 3.4137058448233883 -1.9424692269214123 1 -1 0
235 47 3 0 -0.2515599848394787 2.9877495850496283 -2.0091883635194208 2 0 0
515 139 2 0 -1.03407970234719 3.1634822500778625 -1.8317664414916406 1 -1 0
516 139 4 0 -0.5695598592690749 3.2256975500680714 -1.9240503752158058 1 -1 0
88 18 3 0 -0.28412867966315947 3.512345857730044 -1.8387814335899693 1 0 0
387 96 4 0 -0.305635523884356 3.3654318106736527 -2.202446305236028 1 0 0
386 96 2 0 -0.01616881242826196 3.44535050356036 -2.5401665400046207 1 0 0
599 167 2 0 -4.335522040579676 2.281238167668768 -0.24057326670824697 2 0 0
601 167 4 0 -3.8790455151125767 2.2523976802393095 -0.26415582547666716 2 0 0
209 42 3 0 -3.7131994775404333 2.0804012863464925 -1.2301926301697832 2 0 0
206 42 1 0 -3.385528854706291 2.2125429009479847 -0.9464729287776636 2 0 0
208 42 3 0 -3.2036093711948013 2.6154592280961237 -1.1104910203716467 2 0 0
207 42 3 0 -3.06742656089643 1.903639968657056 -0.9342511641233262 2 0 0
210 42 3 0 -3.555448931199918 2.2775202495995632 -0.5188267498325358 2 0 0
595 165 4 0 -3.523438606096272 2.3621126024086694 -0.10495201464737924 2 0 0
597 166 4 0 -2.933216077353328 2.843065812593352 -1.342952854437864 2 0 0
358 86 4 0 -0.3143972669616044 2.3381633269773143 -0.16673374563775667 1 0 0
373 91 4 0 -0.027467897092923188 2.480821722804759 -0.4216745080221296 1 0 0
598 166 4 0 -3.5361968483373096 3.55478386521036 -1.3561603885041063 2 0 0
596 166 2 0 -3.252084723231536 3.2188932515161444 -1.350873897038249 2 0 0
99 20 3 0 -1.442389849284344 0.07361363987704905 -3.980015590033206 1 0 1
392 98 2 0 -0.23787695501804773 0.011781231889612442 -2.0590093281336537 1 0 0
636 179 4 0 -3.6225216385071293 0.06514407447714987 1.4284381115935938 2 0 0
608 170 2 0 -4.399043350657805 0.061340991513318954 0.19409362904037497 2 0 0
195 39 3 0 -3.270069698453221 1.4327415509370658 0.24922272654157762 2 0 0
353 85 2 0 -1.486477576710945 0.26650442853760925 1.387881509305485 1 0 0
460 120 4 0 -1.8907907308189449 1.5331028550034755 1.496148843847771 2 0 0
262 54 4 0 -0.8412772431413815 1.420928406755852 0.4411316743715439 1 0 0
260 54 2 0 -0.8577770522999311 1.023579634335234 0.6436954528739598 1 0 0
355 85 4 0 -1.1444490917829118 0.3937302207120581 1.0793448977316702 1 0 0
261 54 4 0 -0.8820451630396602 0.6067843781287694 0.8627031440063746 1 0 0
70 14 3 0 -1.058611494252594 0.25663431486631527 0.7100544019784403 1 0 0
73 15 3 0 -0.7859473824550887 0.498720328305561 1.2153520540311353 1 0 0
71 15 1 0 -0.40033136657338986 0.3269768581132624 1.4645990607519712 1 0 0
74 15 3 0 -0.043333811960339474 0.39953036230809236 1.2398637661336744 1 0 0
192 39 3 0 -3.9945695004741313 1.4298338993882052 0.36414303545628357 2 0 0
191 39 1 0 -3.62412063533768 1.6850238387105634 0.3524104572815485 2 0 0
194 39 3 0 -3.5649528842617473 1.8647946759639193 0.765242477408437 2 0 0
193 39 3 0 -3.66714676215362 2.016559634254336 0.04289635318591589 2 0 0
593 165 2 0 -3.1555531492683624 2.6125680275492167 0.04040053170328495 2 0 0
594 165 4 0 -2.79037301832215 2.8551573953428404 0.19082130229935768 2 0 0
604 168 4 0 -2.391512138610166 2.8313912019596392 0.01541337370636331 2 0 0
602 168 2 0 -2.050807750588986 2.59406816056478 0.2513076308361297 2 0 0
190 38 3 0 -1.6264520428747042 1.6311677666498587 1.1915331355270196 2 0 0
187 38 3 0 -1.806508255003778 1.9628574588163339 0.5376183417282041 2 0 0
603 168 4 0 -1.7009141185652368 2.356657011784373 0.4842344560619276 2 0 0
186 38 1 0 -1.4721699274995608 1.890800293338173 0.8035281291809655 2 0 0
583 161 4 0 -1.4230388292688962 2.5555846658302412 0.6761333389592785 2 0 0
189 38 3 0 -1.3150183539207378 2.2925129899720993 0.9436235693853607 2 0 0
188 38 3 0 -1.1386491729452786 1.6570118655934083 0.5885851603199432 2 0 0
357 86 4 0 -0.7835769795140588 1.8247871547108288 0.49096326426498305 1 0 0
356 86 2 0 -0.5507269564762667 2.0800552726284316 0.16535259396720736 1 0 0
581 161 2 0 -1.1064257566925972 2.9274883640388376 0.7323596091234217 2 0 0
154 31 3 0 -2.551753656465765 4.326804857373404 0.9656741603008756 1 -1 0
582 161 4 0 -0.8148278564066196 3.2762002706567994 0.7784830540509571 2 0 0
429 110 4 0 -0.75834292177821 3.5093500352056894 1.1060280717151985 1 0 0
414 105 4 0 -0.4538448769899661 3.3851383129934476 0.9165011961227005 1 0 0
413 105 2 0 -0.09726886119460776 3.6213463706413114 0.6873295034953877 1 0 0
663 188 4 0 -3.5819393194113727 0.25227873800407963 1.764572953058419 2 0 0
662 188 2 0 -3.2317015451248343 0.546057173922633 1.8349244200273844 2 0 0
111 23 1 0 -0.020553070497391523 0.9047666185454366 4.353413021346575 1 0 0
664 188 4 0 -2.8934377701428886 0.8381231536793585 1.9148525952901974 2 0 0
239 48 3 0 -2.88494950515799 1.1935175422933177 2.124946366186715 2 0 0
559 153 4 0 -2.61213327059642 0.8932613446910755 2.2206681555234917 2 0 0
354 85 4 0 -1.7992508294321952 0.14666091976845763 1.673796866418126 1 0 0
557 153 2 0 -2.477235848612975 0.7311584189147551 2.610969740278315 2 0 0
459 120 4 0 -2.5874059723420926 1.1034490983903558 1.8834460218831062 2 0 0
458 120 2 0 -2.2240906999352905 1.3207732109864603 1.6818874076674097 2 0 0
118 24 3 0 -2.017332653246511 0.31871731196178565 2.9825253027067005 1 0 0
444 115 4 0 -1.0698324491423308 0.5840366292564694 2.89231874431485 1 0 0
443 115 2 0 -0.7585875802729074 0.6804921407804816 2.5450718695790897 1 0 0
72 15 3 0 -0.37743369286271555 0.5608501638715433 1.891459063103433 1 0 0
445 115 4 0 -0.4518746561589957 0.7816348170907492 2.202587848895969 1 0 0
418 106 4 0 -0.17560925343355116 0.9040355868811218 1.9314750849951556 1 0 0
437 113 2 0 -1.4738666526091775 1.4908398781767698 2.83392565879627 1 0 0
240 48 3 0 -3.3164161715030795 1.4746981521554714 2.667427906178556 2 0 0
236 48 1 0 -3.107159685373717 1.5649168563292086 2.2673283251230796 2 0 0
238 48 3 0 -3.415042508762667 1.675463993504409 1.968914000375034 2 0 0
237 48 3 0 -2.793773350921909 1.935876713030794 2.326701115139291 2 0 0
618 173 4 0 -2.59835044242194 2.133734287289541 2.6457295710313806 2 0 0
617 173 2 0 -2.205518301821694 2.222015575367899 2.457583988113776 2 0 0
619 173 4 0 -1.796716694452027 2.323417446907314 2.257585207297315 2 0 0
104 21 3 0 -1.5555837700375545 1.6877133998711678 1.6357098974662554 1 0 0
643 181 4 0 -1.467874393435415 2.5641811819557914 2.3181174093010295 2 0 0
105 21 3 0 -1.4814793862126536 2.3564664422469894 1.9680608708276148 1 0 0
438 113 4 0 -1.4553829782871488 1.829370579345773 2.552692442489163 1 0 0
102 21 3 0 -1.1832526662447052 1.7545304107679565 2.287016248489027 1 0 0
101 21 1 0 -1.2723977408000975 1.9583290931976833 1.8912026411841536 1 0 0
103 21 3 0 -0.8610586107568454 2.0300544822866273 1.662542522439499 1 0 0
530 144 2 0 -4.33866912232857 4.06762032543585 2.765141754421248 1 -1 0
543 148 4 0 -3.8833586482490405 4.316671343333712 2.244944392764685 1 -1 0
532 144 4 0 -3.9858478838429505 4.0087356496927855 2.4941179330306493 1 -1 0
620 174 2 0 -1.73578582138922 4.110611909390447 2.2203389272314746 2 0 0
621 174 4 0 -2.0483450464700863 4.391389886874431 2.337848661766782 2 0 0
428 110 2 0 -0.8983236106995101 3.6412818357101093 1.5230798376822552 1 0 0
641 181 2 0 -1.345240625523513 3.0043162712206284 2.225663011545312 2 0 0
642 181 4 0 -1.2190976365101167 3.4388793516641565 2.1327137780514853 2 0 0
622 174 4 0 -1.4072712308074782 3.8127900168003075 2.1053591072828866 2 0 0
430 110 4 0 -1.0369290152152923 3.772989626009724 1.9329003451749944 1 0 0
450 117 4 0 -1.1132817339058696 3.759558803441659 2.360664719494798 1 0 0
451 117 4 0 -0.3682607872126056 4.1095160308660015 2.7936386232299855 1 0 0
449 117 2 0 -0.7284793199451767 3.933919454773952 2.574715864003415 1 0 0
670 190 4 0 -4.164122381583537 0.5199438353206824 2.6048585120912193 2 0 0
50 10 3 0 -3.1419226088467833 0.11466098977418504 3.6982346771013033 1 0 0
592 164 4 0 -3.2777067421208566 0.16508159697225455 4.082424324073176 2 0 -1
668 190 2 0 -4.373838985842811 0.34994442201741816 2.9508037499202544 2 0 0
49 10 3 0 -2.6288387170618703 0.34161837611081314 3.1868382307631347 1 0 0
558 153 4 0 -2.3548628339714472 0.5639335772204639 2.9999827764801053 2 0 0
116 24 1 0 -1.668919806082184 0.4049147583733781 3.2699343383170145 1 0 0
117 24 3 0 -1.6548903344835253 0.8301964687638277 3.361439961914571 1 0 0
120 24 3 0 -1.7286472015435397 0.16774467026624595 3.6556106260874275 1 0 0
119 24 3 0 -1.2698451892366132 0.275666237094792 3.0572809881238348 1 0 0
439 113 4 0 -1.502918745829135 1.1221007109884154 3.129831231026304 1 0 0
288 63 4 0 -1.275255053060345 1.0084592785321131 3.433451163814829 1 0 -1
287 63 2 0 -0.9804720917317722 1.088326167399729 3.75494063134673 1 0 -1
289 63 4 0 -0.6728138811138242 1.172481318454528 4.070708588199959 1 0 -1
113 23 3 0 -0.3198195926122702 0.9421588344219458 4.02237437410023 1 0 0
212 43 3 0 -4.463563636630616 1.7535873769113977 4.241183990144955 2 0 -1
586 162 4 0 -4.220266214249918 2.111131262589394 4.37852576236543 2 0 -1
584 162 2 0 -3.905456368435397 2.3884799321703234 4.479521426120892 2 0 -1
248 50 3 0 -3.260473416219183 2.9218514247036547 4.440325875313282 2 0 0
249 50 3 0 -3.138823671321779 3.1588305849772045 3.7541388310019785 2 0 0
247 50 3 0 -3.5467544157863595 3.578874264155803 4.230797161059097 2 0 0
246 50 1 0 -3.1895680106029562 3.2814568741011954 4.186082755509857 2 0 0
250 50 3 0 -2.793879137482218 3.485508389928305 4.331605230429903 2 0 0
660 187 4 0 -2.659283624174865 3.816556102902033 4.144519937482467 2 0 0
659 187 2 0 -2.3852512159140393 4.1323866828633475 3.9638922749954206 2 0 0
661 187 4 0 -2.0993801661506075 4.463046018100246 3.786856877794359 2 0 0
564 155 4 0 -0.19129020802743568 4.301886204565256 3.106869848371341 1 -1 0
634 178 4 0 -4.363393205243426 1.4981648874052373 0.2456064937976512 2 0 0
155 31 3 0 -3.226112260190757 4.395136333601314 0.6409231852820279 1 -1 0
48 10 3 0 -2.394563217743502 0.07751757974066287 3.8483784308900466 1 0 0
352 84 4 0 -1.9792609203377913 0.020839607506114355 3.926650976997606 1 0 0
69 14 3 0 -0.4626047994814826 0.08050027003937466 0.27239424745444296 1 0 0
46 10 1 0 -2.712029862454217 0.03462701312723304 3.5065931849904333 1 0 0
542 148 2 0 -3.6249250988271156 4.487480362855465 1.9403420464552168 1 -1 0
106 22 1 0 1.2328726255601197 -3.9237481967395205 -3.6325963519603035 1 1 1
107 22 3 0 1.348094146200994 -4.269597112244214 -3.3524784344324274 1 1 1
110 22 3 0 0.7698202577814559 -3.910209166952782 -3.670120498908243 1 1 1
568 156 4 0 0.18382329117574514 -3.488625030762026 -4.4480838700602945 1 0 1
566 156 2 0 0.452306368308788 -3.1693338748056306 -4.260137120164839 1 0 1
109 22 3 0 1.4267845955024114 -4.001173182779444 -4.051898415701614 1 1 1
108 22 3 0 1.389486024632319 -3.5408973139928324 -3.4671801920830396 1 1 1
511 137 4 0 1.5408917044804342 -3.1499293305240172 -3.4215757210006776 1 0 0
277 59 4 0 1.3376565254730446 -3.3350159168505775 -3.1198477063978056 0 0 0
541 147 4 0 1.4453365035217258 -4.2255248185142795 -4.353749975693299 1 0 1
567 156 4 0 0.7308959889166262 -2.831220986159985 -4.0679930848973855 1 0 1
177 36 3 0 0.7608534182485958 -2.43912823023167 -4.140066633291293 1 0 1
510 137 4 0 0.9288070765363381 -2.5694968660823463 -3.8140501165019125 1 0 0
509 137 2 0 1.2386468763566452 -2.8623311713185204 -3.6155561443668858 1 0 0
176 36 1 0 0.8405637013679508 -2.125128620286155 -4.406162934639086 1 0 1
180 36 3 0 0.5261350948939603 -1.7863041319920825 -4.340293901776886 1 0 1
178 36 3 0 1.2469947072510994 -1.9741770012047275 -4.337569320110064 1 0 1
474 125 4 0 1.6389096839965465 -1.938766214019584 -4.198357715682018 1 0 0
473 125 2 0 1.9802429354898106 -1.6897103285729047 -4.028697957440432 1 0 0
468 123 4 0 0.601762230055777 -1.3479774032661034 -3.1463719354874233 1 0 0
479 127 2 0 1.1714918885919614 -0.8173262277988322 -3.471613194106845 1 0 0
481 127 4 0 0.8044556486216274 -1.053060555297566 -3.2678214178133564 1 0 0
150 30 3 0 0.4081922553099915 -1.0219036994181314 -3.3252010833383605 1 0 0
51 11 1 0 4.376948167876219 -2.282638340629471 -0.16149916262471997 0 0 0
501 134 4 0 0.3186266221510632 -0.7791202170566316 -4.369062296260642 1 0 0
146 30 1 0 0.05237761556707721 -1.04803986079094 -3.628114065275053 1 0 0
149 30 3 0 0.145932432791807 -0.7833810675318977 -3.9987558387993887 1 0 0
480 127 4 0 1.5157646209179925 -0.5860690377299496 -3.6592546851871957 1 0 0
173 35 3 0 1.8832572714192857 -0.5859356744080806 -3.779216646418183 1 0 1
171 35 1 0 2.2879676855983675 -0.5868579790634061 -3.966366165069823 1 0 1
475 125 4 0 2.3575409241114498 -1.409956090039337 -3.853566592240899 1 0 0
174 35 3 0 2.437392530048112 -1.0390177020868867 -4.020033751882567 1 0 1
172 35 3 0 2.257604600518774 -0.39069112070057255 -4.378716317704467 1 0 1
462 121 4 0 2.7410756974662744 -1.2848978776410176 -3.9586273225805026 1 0 0
143 29 3 0 2.6518431893344676 -1.3929077541644457 -3.580698708983326 1 0 0
175 35 3 0 2.583576279171126 -0.33610012392588917 -3.6989843297743756 1 0 1
496 132 4 0 2.820602306127511 -0.42400178780329334 -3.395128524068969 1 0 0
142 29 3 0 2.853825378575138 -0.7949619438630648 -3.159746652519689 1 0 0
141 29 1 0 2.676169693006412 -1.2240771384290996 -3.149919730575843 1 0 0
494 132 2 0 3.1214794816406073 -0.0551109941402359 -3.4526010764806947 1 0 0
461 121 2 0 3.1617627915198767 -1.2514311938567242 -4.139704659121852 1 0 0
463 121 4 0 3.5731527593400036 -1.2145760432641008 -4.317415663926037 1 0 0
18 4 3 0 0.026340420050447122 -1.1357319386073663 -1.2392505090759727 1 0 0
253 51 4 0 1.3900381771988277 -3.195512966326472 -1.88891424090161 0 0 0
275 59 2 0 1.403797617381496 -3.3583300132329845 -2.6571571376613696 0 0 0
286 62 4 0 2.986917406758841 -4.421577642471205 -3.0678669850461144 0 0 0
276 59 4 0 1.4796262671342681 -3.377593105413707 -2.2045170831942817 0 0 0
280 60 4 0 1.793708920410963 -3.319608891698882 -1.9657568914941228 0 0 0
278 60 2 0 2.242370340877267 -3.2532332025796977 -1.8451530261606202 0 0 0
279 60 4 0 2.6730834275784803 -3.1817925117117354 -1.7285533681574452 0 0 0
284 62 2 0 3.0716586955819585 -4.0204674989775215 -2.896767928688103 0 0 0
285 62 4 0 3.159962201001452 -3.612742541493807 -2.732657901966556 0 0 0
13 3 3 0 3.2484364951434417 -3.36931211692036 -2.441241231395181 0 0 0
491 131 2 0 4.413310208621344 -3.8267492063869133 -2.0479956011629166 0 0 0
492 131 4 0 4.087828688510428 -3.493437545008015 -2.111621679355056 0 0 0
14 3 3 0 3.7357217297253547 -3.4692287018972134 -1.9074675219414674 0 0 0
11 3 1 0 3.412579770923074 -3.2071623143658115 -2.0576482469394173 0 0 0
15 3 3 0 3.071265859257336 -3.176040381728546 -1.7522540659599604 0 0 0
12 3 3 0 3.5853904295842502 -2.78510388172118 -2.1350213232303634 0 0 0
469 123 4 0 0.6413700605831991 -2.237293050142698 -3.046932881534049 1 0 0
467 123 2 0 0.6240387135640058 -1.7958369637736347 -3.0910892504526712 1 0 0
390 97 4 0 0.5758194375739016 -0.9956204940154207 -2.9469381461558193 1 0 0
389 97 2 0 0.347839751733801 -0.8735401963006826 -2.5410883554699666 1 0 0
391 97 4 0 0.12115556108610193 -0.7508405722165148 -2.136803977392917 1 0 0
145 29 3 0 2.2493618169307705 -1.2130238423169404 -2.968417831836418 1 0 0
144 29 3 0 2.913363868208811 -1.4679726053210564 -2.9186086066384336 1 0 0
251 51 2 0 1.1226626090055953 -3.392287472007677 -1.5410583087142373 0 0 0
301 67 4 0 0.8581329308880559 -3.795689925772139 -0.8642345282724646 0 0 0
299 67 2 0 0.9151523694143497 -3.9180816948571864 -0.4575661867059191 0 0 0
252 51 4 0 0.8864882396699247 -3.5826100940671877 -1.2158134333269004 0 0 0
300 67 4 0 0.982448150140736 -4.047610812597849 -0.018300324007202384 0 0 0
264 55 4 0 2.907199917855582 -3.2891091797915264 -1.4143053409521884 0 0 0
263 55 2 0 2.9174316401374885 -3.186580678317179 -0.969771315134814 0 0 0
294 65 4 0 2.6889146550211906 -3.0524563348255946 -0.2263222446045985 0 0 0
265 55 4 0 2.9260185666615843 -3.0926900498620706 -0.5572516170688715 0 0 0
268 56 4 0 2.9392567898012665 -2.7690421229410855 -0.32965535161833337 0 0 0