

10 atoms
9 bonds
8 angles
7 dihedrals
1 atom types
1 bond types
1 angle types
1 dihedral types
-20 20 xlo xhi
-20 20 ylo yhi
-20 20 zlo zhi

Bond Coeffs

1 1.0 10.0 10.0 2.0

Angle Coeffs

1 harmonic 10.0 185.0

Dihedral Coeffs

1 0.001 -1 1

Masses

1 1.0

Atoms

1 1 1 0.0 0.0 10.0
2 1 1 0.0 0.0 8.0
3 1 1 0.0 0.0 6.0
4 1 1 0.0 0.0 4.0
5 1 1 0.0 0.0 2.0
6 1 1 0.0 0.0 0.0
7 1 1 0.0 0.0 -2.0
8 1 1 0.0 0.0 -4.0
9 1 1 0.0 0.0 -6.0
10 1 1 0.0 0.0 -8.0

Bonds

1 1 1 2
2 1 2 3
3 1 3 4
4 1 4 5
5 1 5 6
6 1 6 7
7 1 7 8
8 1 8 9
9 1 9 10

Angles

1 1 1 2 3
2 1 2 3 4
3 1 3 4 5
4 1 4 5 6
5 1 5 6 7
6 1 6 7 8
7 1 7 8 9
8 1 8 9 10
  
Dihedrals

1 1 1 2 3 4
2 1 2 3 4 5
3 1 3 4 5 6
4 1 4 5 6 7
5 1 5 6 7 8
6 1 6 7 8 9
7 1 7 8 9 10