

11 atoms
10 bonds
9 angles
1 atom types
1 bond types
1 angle types
-20 20 xlo xhi
-20 20 ylo yhi
-20 20 zlo zhi

Masses

1 1.0

Atoms

1 1 1 0.0 0.0 10.0
2 1 1 0.0 0.0 8.0
3 1 1 0.0 0.0 6.0
4 1 1 0.0 0.0 4.0
5 1 1 0.0 0.0 2.0
6 1 1 0.0 0.0 0.0
7 1 1 0.0 0.0 -2.0
8 1 1 0.0 0.0 -4.0
9 1 1 0.0 0.0 -6.0
10 1 1 0.0 0.0 -8.0
11 1 1 0.0 0.0 -10.0

Bonds

1 1 1 2
2 1 2 3
3 1 3 4
4 1 4 5
5 1 5 6
6 1 6 7
7 1 7 8
8 1 8 9
9 1 9 10
10 1 10 11

Angles

1 1 1 2 3
2 1 2 3 4
3 1 3 4 5
4 1 4 5 6
5 1 5 6 7
6 1 6 7 8
7 1 7 8 9
8 1 8 9 10
9 1 9 10 11
  
Bond Coeffs

1 1.0 10.0 10.0 2.0

Angle Coeffs

1 harmonic 15.0 175.0