LAMMPS (2 Aug 2023 - Update 3)
OMP_NUM_THREADS environment is not set. Defaulting to 1 thread. (src/comm.cpp:98)
  using 1 OpenMP thread(s) per MPI task
Loaded 1 plugins from F:\LAMMPS\LAMMPS 64-bit 2Aug2023\plugins

units lj
dimension 3
atom_style molecular
angle_style hybrid harmonic
dihedral_style harmonic
bond_style fene
boundary p p p

neighbor 0.3 nsq
neigh_modify delay 5

read_data data.polymer2.lmp
Reading data file ...
  orthogonal box = (-20 -20 -20) to (20 20 20)
  1 by 1 by 1 MPI processor grid
  reading atoms ...
  10 atoms
  scanning bonds ...
  1 = max bonds/atom
  scanning angles ...
  1 = max angles/atom
  scanning dihedrals ...
  1 = max dihedrals/atom
  reading bonds ...
  9 bonds
  reading angles ...
  8 angles
  reading dihedrals ...
  7 dihedrals
Finding 1-2 1-3 1-4 neighbors ...
  special bond factors lj:    0        0        0       
  special bond factors coul:  0        0        0       
     2 = max # of 1-2 neighbors
     2 = max # of 1-3 neighbors
     4 = max # of 1-4 neighbors
     6 = max # of special neighbors
  special bonds CPU = 0.001 seconds
  read_data CPU = 0.018 seconds
read_data data.polymer2.lmp add append shift 0.0 5.0 0.0
Reading data file ...
WARNING: Non-zero image flags with growing box leads to bad coordinates (src/read_data.cpp:589)
  orthogonal box = (-20 -20 -20) to (20 25 20)
  1 by 1 by 1 MPI processor grid
  reading atoms ...
  10 atoms
  scanning bonds ...
  1 = max bonds/atom
  scanning angles ...
  1 = max angles/atom
  scanning dihedrals ...
  1 = max dihedrals/atom
  reading bonds ...
  9 bonds
  reading angles ...
  8 angles
  reading dihedrals ...
  7 dihedrals
Finding 1-2 1-3 1-4 neighbors ...
  special bond factors lj:    0        0        0       
  special bond factors coul:  0        0        0       
     2 = max # of 1-2 neighbors
     2 = max # of 1-3 neighbors
     4 = max # of 1-4 neighbors
     6 = max # of special neighbors
  special bonds CPU = 0.000 seconds
  read_data CPU = 0.002 seconds
read_data data.polymer2.lmp add append shift 0.0 -5.0 0.0
Reading data file ...
WARNING: Non-zero image flags with growing box leads to bad coordinates (src/read_data.cpp:589)
  orthogonal box = (-20 -25 -20) to (20 25 20)
  1 by 1 by 1 MPI processor grid
  reading atoms ...
  10 atoms
  scanning bonds ...
  1 = max bonds/atom
  scanning angles ...
  1 = max angles/atom
  scanning dihedrals ...
  1 = max dihedrals/atom
  reading bonds ...
  9 bonds
  reading angles ...
  8 angles
  reading dihedrals ...
  7 dihedrals
Finding 1-2 1-3 1-4 neighbors ...
  special bond factors lj:    0        0        0       
  special bond factors coul:  0        0        0       
     2 = max # of 1-2 neighbors
     2 = max # of 1-3 neighbors
     4 = max # of 1-4 neighbors
     6 = max # of special neighbors
  special bonds CPU = 0.000 seconds
  read_data CPU = 0.002 seconds
read_data data.polymer2.lmp add append shift 5.0 0.0 0.0
Reading data file ...
WARNING: Non-zero image flags with growing box leads to bad coordinates (src/read_data.cpp:589)
  orthogonal box = (-20 -25 -20) to (25 25 20)
  1 by 1 by 1 MPI processor grid
  reading atoms ...
  10 atoms
  scanning bonds ...
  1 = max bonds/atom
  scanning angles ...
  1 = max angles/atom
  scanning dihedrals ...
  1 = max dihedrals/atom
  reading bonds ...
  9 bonds
  reading angles ...
  8 angles
  reading dihedrals ...
  7 dihedrals
Finding 1-2 1-3 1-4 neighbors ...
  special bond factors lj:    0        0        0       
  special bond factors coul:  0        0        0       
     2 = max # of 1-2 neighbors
     2 = max # of 1-3 neighbors
     4 = max # of 1-4 neighbors
     6 = max # of special neighbors
  special bonds CPU = 0.000 seconds
  read_data CPU = 0.002 seconds
read_data data.polymer2.lmp add append shift -5.0 0.0 0.0
Reading data file ...
WARNING: Non-zero image flags with growing box leads to bad coordinates (src/read_data.cpp:589)
  orthogonal box = (-25 -25 -20) to (25 25 20)
  1 by 1 by 1 MPI processor grid
  reading atoms ...
  10 atoms
  scanning bonds ...
  1 = max bonds/atom
  scanning angles ...
  1 = max angles/atom
  scanning dihedrals ...
  1 = max dihedrals/atom
  reading bonds ...
  9 bonds
  reading angles ...
  8 angles
  reading dihedrals ...
  7 dihedrals
Finding 1-2 1-3 1-4 neighbors ...
  special bond factors lj:    0        0        0       
  special bond factors coul:  0        0        0       
     2 = max # of 1-2 neighbors
     2 = max # of 1-3 neighbors
     4 = max # of 1-4 neighbors
     6 = max # of special neighbors
  special bonds CPU = 0.004 seconds
  read_data CPU = 0.007 seconds
read_data data.polymer2.lmp add append shift -5.0 5.0 0.0
Reading data file ...
  orthogonal box = (-25 -25 -20) to (25 25 20)
  1 by 1 by 1 MPI processor grid
  reading atoms ...
  10 atoms
  scanning bonds ...
  1 = max bonds/atom
  scanning angles ...
  1 = max angles/atom
  scanning dihedrals ...
  1 = max dihedrals/atom
  reading bonds ...
  9 bonds
  reading angles ...
  8 angles
  reading dihedrals ...
  7 dihedrals
Finding 1-2 1-3 1-4 neighbors ...
  special bond factors lj:    0        0        0       
  special bond factors coul:  0        0        0       
     2 = max # of 1-2 neighbors
     2 = max # of 1-3 neighbors
     4 = max # of 1-4 neighbors
     6 = max # of special neighbors
  special bonds CPU = 0.000 seconds
  read_data CPU = 0.002 seconds
read_data data.polymer2.lmp add append shift -5.0 -5.0 0.0
Reading data file ...
  orthogonal box = (-25 -25 -20) to (25 25 20)
  1 by 1 by 1 MPI processor grid
  reading atoms ...
  10 atoms
  scanning bonds ...
  1 = max bonds/atom
  scanning angles ...
  1 = max angles/atom
  scanning dihedrals ...
  1 = max dihedrals/atom
  reading bonds ...
  9 bonds
  reading angles ...
  8 angles
  reading dihedrals ...
  7 dihedrals
Finding 1-2 1-3 1-4 neighbors ...
  special bond factors lj:    0        0        0       
  special bond factors coul:  0        0        0       
     2 = max # of 1-2 neighbors
     2 = max # of 1-3 neighbors
     4 = max # of 1-4 neighbors
     6 = max # of special neighbors
  special bonds CPU = 0.000 seconds
  read_data CPU = 0.003 seconds
read_data data.polymer2.lmp add append shift 5.0 5.0 0.0
Reading data file ...
  orthogonal box = (-25 -25 -20) to (25 25 20)
  1 by 1 by 1 MPI processor grid
  reading atoms ...
  10 atoms
  scanning bonds ...
  1 = max bonds/atom
  scanning angles ...
  1 = max angles/atom
  scanning dihedrals ...
  1 = max dihedrals/atom
  reading bonds ...
  9 bonds
  reading angles ...
  8 angles
  reading dihedrals ...
  7 dihedrals
Finding 1-2 1-3 1-4 neighbors ...
  special bond factors lj:    0        0        0       
  special bond factors coul:  0        0        0       
     2 = max # of 1-2 neighbors
     2 = max # of 1-3 neighbors
     4 = max # of 1-4 neighbors
     6 = max # of special neighbors
  special bonds CPU = 0.000 seconds
  read_data CPU = 0.002 seconds
read_data data.polymer2.lmp add append shift 5.0 -5.0 0.0
Reading data file ...
  orthogonal box = (-25 -25 -20) to (25 25 20)
  1 by 1 by 1 MPI processor grid
  reading atoms ...
  10 atoms
  scanning bonds ...
  1 = max bonds/atom
  scanning angles ...
  1 = max angles/atom
  scanning dihedrals ...
  1 = max dihedrals/atom
  reading bonds ...
  9 bonds
  reading angles ...
  8 angles
  reading dihedrals ...
  7 dihedrals
Finding 1-2 1-3 1-4 neighbors ...
  special bond factors lj:    0        0        0       
  special bond factors coul:  0        0        0       
     2 = max # of 1-2 neighbors
     2 = max # of 1-3 neighbors
     4 = max # of 1-4 neighbors
     6 = max # of special neighbors
  special bonds CPU = 0.000 seconds
  read_data CPU = 0.002 seconds


minimize 1.0e-4 1.0e-6 1000 10000
Switching to 'neigh_modify every 1 delay 0 check yes' setting during minimization
WARNING: Use special bonds = 0,1,1 with bond style fene (src/MOLECULE/bond_fene.cpp:185)
WARNING: No pairwise cutoff or binsize set. Atom sorting therefore disabled. (src/atom.cpp:2366)
Per MPI rank memory allocation (min/avg/max) = 7.258 | 7.258 | 7.258 Mbytes
   Step          Temp          E_pair         E_mol          TotEng         Press     
         0   0              0              10.898613      10.898613      0.063675     
        26   0              0              2.3720078      2.3720078     -5.4366247e-05
Loop time of 0.000688 on 1 procs for 26 steps with 90 atoms

0.0% CPU use with 1 MPI tasks x 1 OpenMP threads

Minimization stats:
  Stopping criterion = energy tolerance
  Energy initial, next-to-last, final = 
      10.8986132373688   2.37204181507447   2.37200779349198
  Force two-norm initial, final = 500.27805 0.48931478
  Force max component initial, final = 117.91667 0.080218827
  Final line search alpha, max atom move = 0.26340877 0.021130343
  Iterations, force evaluations = 26 45

MPI task timing breakdown:
Section |  min time  |  avg time  |  max time  |%varavg| %total
---------------------------------------------------------------
Pair    | 0          | 0          | 0          |   0.0 |  0.00
Bond    | 0.000446   | 0.000446   | 0.000446   |   0.0 | 64.83
Neigh   | 2.8e-05    | 2.8e-05    | 2.8e-05    |   0.0 |  4.07
Comm    | 1.1e-05    | 1.1e-05    | 1.1e-05    |   0.0 |  1.60
Output  | 0          | 0          | 0          |   0.0 |  0.00
Modify  | 0          | 0          | 0          |   0.0 |  0.00
Other   |            | 0.000203   |            |       | 29.51

Nlocal:             90 ave          90 max          90 min
Histogram: 1 0 0 0 0 0 0 0 0 0
Nghost:              0 ave           0 max           0 min
Histogram: 1 0 0 0 0 0 0 0 0 0
Neighs:              0 ave           0 max           0 min
Histogram: 1 0 0 0 0 0 0 0 0 0

Total # of neighbors = 0
Ave neighs/atom = 0
Ave special neighs/atom = 4.8
Neighbor list builds = 6
Dangerous builds = 0

fix 1 all langevin 1.0 1.0 50.0 12345
fix 2 all nve

thermo 50
compute t all temp
compute ep all pe
compute ek all ke
compute ea all angle
compute tm all momentum


fix at1 all ave/time 1 5 5 c_t file temperatureDihedral.csv
fix at2 all ave/time 1 5 5 c_ep file potentialDihedral.csv
fix at3 all ave/time 1 5 5 c_ek file kineticDihedral.csv
fix at4 all ave/time 1 5 5 c_ea file angleDihedral.csv mode vector
fix at5 all ave/time 1 5 5 c_tm file momentumDihedral.csv mode vector

dump 1 all atom 50 dump.polymerDihedral

timestep 0.001
run 100000
WARNING: Use special bonds = 0,1,1 with bond style fene (src/MOLECULE/bond_fene.cpp:185)
Per MPI rank memory allocation (min/avg/max) = 6.133 | 6.133 | 6.133 Mbytes
   Step          Temp          E_pair         E_mol          TotEng         Press     
        26   0              0              2.3720078      2.3720078     -5.4366247e-05
        50   0.34145225     0              2.4046159      2.9111035      0.00020831952
       100   0.25236017     0              2.5342298      2.908564       8.040836e-05 
       150   0.1578502      0              2.678799       2.9129434     -2.1277095e-05
       200   0.085795817    0              2.7846043      2.9118681     -8.3894991e-05
       250   0.057768052    0              2.8304245      2.9161138     -2.1514996e-05
       300   0.064204788    0              2.8260125      2.9212496      0.0001344233 
       350   0.094907593    0              2.7824802      2.9232598      0.00021746537
       400   0.14760253     0              2.7084767      2.9274204      0.00015004459
       450   0.2001284      0              2.6330172      2.9298743      0.0001877669 
       500   0.24328456     0              2.5712297      2.9321018      0.00023602527
       550   0.25577951     0              2.5585185      2.9379248      0.00025192666
       600   0.23456255     0              2.5903895      2.9383239      0.00020901755
       650   0.18018409     0              2.6654548      2.9327279      0.0001378469 
       700   0.12920696     0              2.7428917      2.9345487      8.0189607e-05
       750   0.10537092     0              2.7821748      2.938475      -4.2240484e-05
       800   0.10706359     0              2.7816087      2.9404197     -0.00011752921
       850   0.12861435     0              2.7561893      2.9469673     -0.00011780013
       900   0.15027385     0              2.7229055      2.9458117     -9.7079949e-05
       950   0.17358621     0              2.6899272      2.9474134     -2.2516052e-05
      1000   0.18934662     0              2.6788071      2.9596713     -6.6209304e-05
      1050   0.18056499     0              2.693513       2.9613511     -8.8650414e-05
      1100   0.170766       0              2.7138172      2.9671201     -0.00011970152
      1150   0.1687151      0              2.7226051      2.9728658     -0.00019531055
      1200   0.1686644      0              2.720755       2.9709405     -0.00021962254
      1250   0.17021079     0              2.7217718      2.9742511     -8.3861558e-05
      1300   0.17608566     0              2.7132091      2.9744028     -7.9782983e-05
      1350   0.1769209      0              2.7107867      2.9732194     -0.00016624663
      1400   0.17845326     0              2.7108222      2.9755279     -0.00019858782
      1450   0.18456226     0              2.7058798      2.9796472     -0.00016669616
      1500   0.20150564     0              2.6819938      2.9808939     -0.00016870096
      1550   0.22015737     0              2.661647       2.9882137     -7.4966996e-05
      1600   0.22923275     0              2.6533346      2.9933632     -5.1343368e-05
      1650   0.21619264     0              2.6747228      2.9954085     -0.00016238734
      1700   0.19374966     0              2.7090623      2.9964576     -0.0002046761 
      1750   0.17172732     0              2.7446252      2.9993541     -0.00022187517
      1800   0.15511141     0              2.775535       3.005617      -0.00022137447
      1850   0.1535116      0              2.7816517      3.0093606     -0.00023535356
      1900   0.1629449      0              2.7711426      3.0128442     -0.00023536132
      1950   0.17430512     0              2.7565368      3.0150894     -8.5851226e-05
      2000   0.17912058     0              2.752181       3.0178765      0.00021767369
      2050   0.20745378     0              2.7194312      3.0271543      0.00020786531
      2100   0.23544507     0              2.6828402      3.0320838      1.9942757e-05
      2150   0.24187536     0              2.6703061      3.0290878      7.1186161e-05
      2200   0.24749033     0              2.6720879      3.0391986     -5.2614561e-05
      2250   0.22543764     0              2.7049633      3.0393625     -8.1945605e-05
      2300   0.17805511     0              2.7761458      3.0402609      0.00013363141
      2350   0.13611818     0              2.8371645      3.0390731      0.00010612528
      2400   0.11719814     0              2.8651791      3.039023      -0.00010557459
      2450   0.10495714     0              2.887185       3.0428715     -0.00016301296
      2500   0.10582736     0              2.8855379      3.0425151     -0.00014477732
      2550   0.12382778     0              2.8577701      3.041448      -0.00013266151
      2600   0.16867501     0              2.7992209      3.0494222     -0.00017277063
      2650   0.20920122     0              2.744908       3.0552232     -3.8450294e-05
      2700   0.25432184     0              2.6744376      3.0516817      8.9618577e-05
      2750   0.29668424     0              2.6109392      3.0510208      4.8195393e-05
      2800   0.30530849     0              2.5941002      3.0469745      9.1821845e-05
      2850   0.28813612     0              2.6188716      3.0462735      6.3253231e-05
      2900   0.25193617     0              2.678044       3.0517494     -4.8828268e-05
      2950   0.20785229     0              2.7459925      3.0543067     -0.00021718637
      3000   0.16708931     0              2.8017521      3.0496012     -0.00033552153
      3050   0.13950344     0              2.8367347      3.0436648     -0.00022358377
      3100   0.13830092     0              2.844496       3.0496423     -4.1010393e-05
      3150   0.14913772     0              2.8368915      3.0581125      0.0001022056 
      3200   0.18043407     0              2.7912439      3.0588878      4.1581259e-05
      3250   0.21518475     0              2.7463762      3.0655669      3.1850941e-05
      3300   0.24357057     0              2.7109246      3.072221       8.0617018e-05
      3350   0.2532556      0              2.6971121      3.0727746      0.00024177536
      3400   0.26722406     0              2.6847034      3.0810858      0.00022567214
      3450   0.25151796     0              2.7054033      3.0784883      0.00021599838
      3500   0.22560613     0              2.7426385      3.0772875      0.00020843196
      3550   0.2020263      0              2.7745601      3.0742324      0.00014887699
      3600   0.1878635      0              2.7968718      3.075536       8.2394547e-05
      3650   0.17850318     0              2.8164225      3.0812022      2.7317516e-05
      3700   0.16248519     0              2.8408505      3.0818702      2.2253006e-06
      3750   0.15442832     0              2.8551146      3.0841833     -6.464855e-05 
      3800   0.15722386     0              2.8590571      3.0922725     -0.00026822625
      3850   0.14912241     0              2.8739452      3.0951435     -0.00033659133
      3900   0.1414143      0              2.8884225      3.098187      -0.00019679497
      3950   0.13910841     0              2.8914397      3.0977838     -2.5946023e-05
      4000   0.14851313     0              2.8765647      3.0968591     -5.2010167e-05
      4050   0.17433928     0              2.8394137      3.0980169     -0.00011696231
      4100   0.20665292     0              2.7983099      3.1048451     -0.00020214059
      4150   0.23227638     0              2.7621292      3.1066725     -5.8036597e-05
      4200   0.23720644     0              2.7512757      3.1031319      0.00017292564
      4250   0.23960047     0              2.755055       3.1104624      0.00015284056
      4300   0.2459852      0              2.7456981      3.1105761     -0.00014297294
      4350   0.22670997     0              2.7755686      3.1118551     -0.00017270903
      4400   0.20982175     0              2.8043507      3.1155863     -0.00019191894
      4450   0.20430947     0              2.819184       3.1222431     -0.00022623598
      4500   0.20073539     0              2.8283543      3.1261118     -0.00020380908
      4550   0.19403266     0              2.8426645      3.1304797      2.3986224e-05
      4600   0.19688922     0              2.8426872      3.1347395      8.1029395e-05
      4650   0.21746667     0              2.8191583      3.1417338     -0.00013925109
      4700   0.23026975     0              2.7976459      3.1392127     -0.00016861324
      4750   0.24768282     0              2.7773328      3.144729      -5.8241687e-05
      4800   0.24758118     0              2.7672923      3.1345377      4.2348951e-05
      4850   0.26373411     0              2.7449335      3.1361391     -8.0396815e-05
      4900   0.26617007     0              2.7434715      3.1382904     -0.00019235124
      4950   0.25613864     0              2.7601787      3.1401177     -0.00014355398
      5000   0.21516009     0              2.8235068      3.1426609      0.00012299599
      5050   0.19995424     0              2.8525181      3.1491169     -3.9232344e-05
      5100   0.17800749     0              2.8875018      3.1515463     -0.00026046806
      5150   0.15386186     0              2.9286991      3.1569275     -0.00012303091
      5200   0.13971768     0              2.9478051      3.155053      -6.2358897e-05
      5250   0.14982319     0              2.9369948      3.1592326     -0.0002732731 
      5300   0.1557721      0              2.9281593      3.1592213     -0.00030340159
      5350   0.17540136     0              2.9036156      3.1637942     -0.00030175295
      5400   0.19858815     0              2.872075       3.1666474     -0.00032279399
      5450   0.21958257     0              2.8385444      3.1642586     -0.0003264628 
      5500   0.24094637     0              2.8053752      3.1627789     -0.00027554218
      5550   0.2613141      0              2.784619       3.1722349     -0.00023058963
      5600   0.27174029     0              2.7668402      3.1699216     -0.00021574399
      5650   0.27307688     0              2.7683226      3.1733866     -0.00015666853
      5700   0.27815014     0              2.760736       3.1733253     -0.0001179636 
      5750   0.27926195     0              2.7619486      3.1761871     -3.2756202e-05
      5800   0.266857       0              2.7875288      3.1833666      0.00021222315
      5850   0.24450344     0              2.8193547      3.1820348      0.00054246339
      5900   0.25079459     0              2.8068403      3.1788522      0.00035551744
      5950   0.25395425     0              2.8016859      3.1783847      5.9641861e-05
      6000   0.25408975     0              2.8101323      3.1870321      4.5365199e-05
      6050   0.25372838     0              2.8137231      3.1900868      0.00011518025
      6100   0.26327946     0              2.8046366      3.1951678      0.00012524549
      6150   0.26483852     0              2.812126       3.2049698      0.00027560975
      6200   0.26995874     0              2.8074597      3.2078985      0.00023263768
      6250   0.27108505     0              2.8071603      3.2092698      6.7406435e-05
      6300   0.27043189     0              2.8077192      3.2088598     -0.00012165095
      6350   0.25619515     0              2.8349996      3.2150224      0.00020551857
      6400   0.22660799     0              2.8830945      3.2192297      0.00052065359
      6450   0.26000493     0              2.8409448      3.2266188     -2.0764024e-05
      6500   0.24763587     0              2.8579278      3.2252543      0.00019013797
      6550   0.23449622     0              2.8759657      3.2238018      0.00026180176
      6600   0.23399672     0              2.8851         3.2321951      0.00023276758
      6650   0.22483939     0              2.9052559      3.2387676      0.00028880644
      6700   0.22134286     0              2.9147845      3.2431097      0.00021158517
      6750   0.21771075     0              2.9250834      3.248021       0.00013815488
      6800   0.21525621     0              2.9294527      3.2487494     -3.9094505e-05
      6850   0.19046335     0              2.9615459      3.2440666      0.00024809371
      6900   0.18347533     0              2.9686694      3.2408245      0.00029900653
      6950   0.21919771     0              2.9145111      3.2396544     -0.00012052182
      7000   0.23041847     0              2.8977722      3.2395596     -0.00012862806
      7050   0.22931098     0              2.8988453      3.2389899     -5.418991e-05 
      7100   0.25117937     0              2.874045       3.2466277     -9.4833913e-05
      7150   0.24618252     0              2.8784778      3.2436486      6.5107355e-05
      7200   0.25866428     0              2.8614469      3.2451322     -0.00010289726
      7250   0.25652016     0              2.861807       3.2423119     -0.00010877982
      7300   0.25173816     0              2.8730634      3.246475       0.00016176576
      7350   0.24422072     0              2.8872376      3.2494984      0.00031430366
      7400   0.27362983     0              2.8438947      3.249779       5.5996391e-05
      7450   0.28405227     0              2.8326255      3.2539697      0.00031497294
      7500   0.30694878     0              2.8040235      3.2593309      0.00033260984
      7550   0.32386246     0              2.7771871      3.2575831      2.8986261e-05
      7600   0.33581178     0              2.7696097      3.2677305     -5.192438e-05 
      7650   0.34610105     0              2.7620161      3.2753993      4.0570436e-05
      7700   0.32521025     0              2.7982819      3.2806771      0.00057966499
      7750   0.32223263     0              2.7999185      3.2778969      0.00052187985
      7800   0.34676069     0              2.762477       3.2768386      8.7418965e-05
      7850   0.34025745     0              2.7724657      3.2771809     -7.6299426e-06
      7900   0.31836042     0              2.8065235      3.2787581     -0.00011572806
      7950   0.2781282      0              2.8630912      3.275648      -1.3450143e-05
      8000   0.2577027      0              2.8990445      3.2813035     -0.00016096999
      8050   0.23681864     0              2.9364651      3.2877461     -0.00019508565
      8100   0.19506665     0              2.9926711      3.28202        9.9762626e-05
      8150   0.19647289     0              2.9965671      3.2880019      3.1118008e-05
      8200   0.20566521     0              2.9855101      3.2905802     -0.00016814516
      8250   0.21199602     0              2.9723017      3.2867625     -0.00018772412
      8300   0.22080059     0              2.961616       3.2891368     -0.00014721142
      8350   0.24435202     0              2.93053        3.2929855     -0.00030730751
      8400   0.26601276     0              2.902593       3.2971786     -0.00028986867
      8450   0.27932684     0              2.8896029      3.3039378     -0.00023215371
      8500   0.29445502     0              2.876824       3.3135989     -0.00026222636
      8550   0.29559992     0              2.8788417      3.3173149     -0.00016278413
      8600   0.29487516     0              2.8782815      3.3156796     -8.9257937e-05
      8650   0.304011       0              2.8698827      3.3208323     -2.8404777e-05
      8700   0.31211318     0              2.8607187      3.3236866     -0.00017942944
      8750   0.32173197     0              2.848715       3.3259507     -0.00029967148
      8800   0.30225206     0              2.8821421      3.3304827      6.4677268e-05
      8850   0.30059319     0              2.8906712      3.3365511      0.00012693626
      8900   0.29800719     0              2.9011378      3.3431818      2.0271439e-05
      8950   0.28938113     0              2.9112059      3.3404546     -0.00012686851
      9000   0.28507685     0              2.9169102      3.3397742     -0.00022148065
      9050   0.27623425     0              2.928912       3.3386595     -0.00014941604
      9100   0.27399663     0              2.9371949      3.3436232      6.5237741e-05
      9150   0.26978213     0              2.9375562      3.3377331      0.00010199517
      9200   0.28219141     0              2.9172717      3.3358556     -0.00013140269
      9250   0.30290612     0              2.8903573      3.3396681     -0.00039269597
      9300   0.30796128     0              2.8790989      3.3359081     -0.00025921596
      9350   0.31641056     0              2.8692738      3.3386161     -0.00012028554
      9400   0.32534831     0              2.8560785      3.3386784     -0.00024356677
      9450   0.32086343     0              2.8642385      3.3401859     -0.00032831518
      9500   0.29049554     0              2.9035249      3.3344266     -0.0001449939 
      9550   0.26005551     0              2.9465647      3.3323137      8.0256435e-05
      9600   0.24664722     0              2.9689036      3.3347637      2.2573178e-05
      9650   0.23612316     0              2.9826184      3.3328678     -0.00014304324
      9700   0.23347621     0              2.9983323      3.3446553     -3.7981253e-05
      9750   0.224396       0              3.013891       3.3467451     -2.2868616e-06
      9800   0.23124035     0              3.0049827      3.3479892     -0.00018719134
      9850   0.22667182     0              3.007799       3.3440289     -2.6450209e-05
      9900   0.23125363     0              3.003496       3.3465223      0.00012596058
      9950   0.25624691     0              2.9701406      3.3502402     -6.2037579e-05
     10000   0.25894665     0              2.9657517      3.3498559      0.00010835187
     10050   0.27177481     0              2.9489283      3.3520609      0.00012056085
     10100   0.29005063     0              2.9281446      3.3583864      4.9992637e-07
     10150   0.30162789     0              2.9169628      3.3643775     -3.5253204e-05
     10200   0.30361042     0              2.9106886      3.361044       0.00035171822
     10250   0.29569576     0              2.9260192      3.3646345      0.00073962958
     10300   0.32348125     0              2.8858632      3.3656937      0.00055044454
     10350   0.33137182     0              2.8826699      3.3742047      0.00057189078
     10400   0.35597161     0              2.837672       3.3656966      0.00050659039
     10450   0.39348016     0              2.7965648      3.380227       0.00027147402
     10500   0.40459458     0              2.7880744      3.388223       0.00019455952
     10550   0.41089624     0              2.7848797      3.3943758      4.3282505e-05
     10600   0.40302371     0              2.7971086      3.3949271     -6.9955419e-05
     10650   0.37541527     0              2.8342099      3.3910759      0.00010320081
     10700   0.3633847      0              2.858581       3.3976016      5.8091265e-05
     10750   0.34500555     0              2.8899422      3.4017005      4.1556987e-05
     10800   0.31646943     0              2.9352823      3.404712       0.00029524593
     10850   0.29554189     0              2.9703321      3.4087192      0.00014891711
     10900   0.28325594     0              2.9988968      3.4190597     -7.8479693e-05
     10950   0.25125762     0              3.0541072      3.426806       0.00015991653
     11000   0.23914752     0              3.0721086      3.4268441      0.0001902351 
     11050   0.23862982     0              3.0745668      3.4285344      0.00016056587
     11100   0.25780108     0              3.0538773      3.4362822      0.00016442972
     11150   0.27887352     0              3.0255747      3.4392371      0.00017199499
     11200   0.31020426     0              2.9835003      3.4436366      0.00015719583
     11250   0.31801185     0              2.9642363      3.4359539      0.0001026974 
     11300   0.33385427     0              2.9415057      3.4367229     -1.0193141e-05
     11350   0.33513718     0              2.9420002      3.4391204      3.9982142e-05
     11400   0.33156619     0              2.9438592      3.4356824      0.00020152182
     11450   0.31393108     0              2.9691651      3.4348296      0.00059995301
     11500   0.32823136     0              2.9504517      3.4373282      0.00040864635
     11550   0.37845124     0              2.8839624      3.4453318     -0.00020997906
     11600   0.38846334     0              2.8722266      3.4484472     -0.00017552679
     11650   0.38054182     0              2.8909371      3.4554075      1.5746825e-05
     11700   0.40804256     0              2.8509939      3.456257      -0.00038275468
     11750   0.40352849     0              2.8577411      3.4563083     -0.0005279549 
     11800   0.36435769     0              2.9050131      3.445477      -0.00031557365
     11850   0.32557937     0              2.961737       3.4446797      2.0156959e-05
     11900   0.2969775      0              3.0085524      3.4490691      0.00024800983
     11950   0.29245682     0              3.016947       3.4507579      0.00017919998
     12000   0.29791275     0              3.0111677      3.4530716      0.00012962304
     12050   0.32029928     0              2.9753573      3.4504678      6.6961673e-05
     12100   0.31166133     0              2.9880053      3.4503029      0.00041317946
     12150   0.34107571     0              2.944148       3.4500769      0.00023802241
     12200   0.33969236     0              2.9402683      3.4441453      0.00043366809
     12250   0.34402957     0              2.9363496      3.4466602      0.00031751908
     12300   0.35987927     0              2.9167911      3.4506121     -0.00023129333
     12350   0.34372666     0              2.9349195      3.4447807     -0.00037492797
     12400   0.34036583     0              2.9482887      3.4531646     -0.00052138332
     12450   0.31732589     0              2.9744514      3.4451515     -0.00028667055
     12500   0.31558443     0              2.9766122      3.4447291     -0.00015272633
     12550   0.33888494     0              2.9448268      3.4475062     -0.00026916093
     12600   0.31566041     0              2.9799756      3.4482052      4.1030948e-05
     12650   0.33822565     0              2.9534793      3.4551807      0.00023411032
     12700   0.33912539     0              2.9491547      3.4521907      0.00023239327
     12750   0.34707431     0              2.9353012      3.4501281      1.2271109e-05
     12800   0.34087172     0              2.9399727      3.4455991     -0.0001076825 
     12850   0.3362048      0              2.9473421      3.4460459     -0.00016020494
     12900   0.327397       0              2.9612208      3.4468597     -0.00012792846
     12950   0.31706687     0              2.9827893      3.4531052      5.0703767e-05
     13000   0.31695925     0              2.9875737      3.4577299     -2.0372337e-05
     13050   0.31394947     0              2.9915109      3.4572026      0.00010286818
     13100   0.33056916     0              2.97692        3.4672643      0.0003002441 
     13150   0.33966567     0              2.957441       3.4612785      0.00052750105
     13200   0.35265085     0              2.9429089      3.4660077      0.00082887425
     13250   0.3695085      0              2.912871       3.4609753      0.0006709186 
     13300   0.38930916     0              2.8850283      3.4625036      0.00045123396
     13350   0.37376262     0              2.9114434      3.465858       0.0007327904 
     13400   0.3700552      0              2.9088312      3.4577464      0.00055431121
     13450   0.37687408     0              2.899137       3.4581669      0.00031530083
     13500   0.39205401     0              2.87583        3.4573768      0.00021926923
     13550   0.40249469     0              2.8630862      3.46012        8.9467802e-05
     13600   0.39843757     0              2.8688545      3.4598702      7.9865742e-05
     13650   0.37571229     0              2.9023309      3.4596375      0.00013365457
     13700   0.35793903     0              2.9419085      3.4728514      0.00027789863
     13750   0.31895399     0              2.9902073      3.4633224      0.00047279097
     13800   0.3050072      0              3.0120646      3.4644919      0.00030649171
     13850   0.31625642     0              3.0042971      3.4734108     -2.6835549e-05
     13900   0.29553986     0              3.0438273      3.4822115      0.00025574106
     13950   0.2913071      0              3.0550496      3.4871552      0.00012376126
     14000   0.28261053     0              3.0637449      3.4829505     -0.00023284967
     14050   0.277226       0              3.0795679      3.4907865     -0.00027060856
     14100   0.26530214     0              3.0949981      3.4885296     -8.3998487e-06
     14150   0.28064929     0              3.074227       3.4905234      2.1148949e-05
     14200   0.30325791     0              3.0396197      3.4894522     -0.00025972022
     14250   0.31587566     0              3.0172054      3.4857543     -0.00040733271
     14300   0.31129381     0              3.0171854      3.4789378     -0.00043891622
     14350   0.30404693     0              3.0254369      3.4764398     -0.00028678722
     14400   0.29883742     0              3.0402188      3.4834943     -0.00011805588
     14450   0.31682512     0              3.0199718      3.4899291     -0.00019364164
     14500   0.32231959     0              3.0106954      3.4888028     -0.00020797056
     14550   0.33386251     0              3.0021519      3.4973813     -0.00018191344
     14600   0.33456677     0              2.9899498      3.4862239     -0.00015028361
     14650   0.34152032     0              2.9869171      3.4935056     -9.9738484e-05
     14700   0.33290429     0              3.00013        3.4939381      8.1382287e-06
     14750   0.33199652     0              2.9999361      3.4923976      6.4578289e-05
     14800   0.34290818     0              2.9888657      3.4975129     -4.9915938e-05
     14850   0.34336542     0              2.9948143      3.5041397      7.2266833e-05
     14900   0.34982784     0              2.9947481      3.5136594      8.2149291e-05
     14950   0.33148266     0              3.0244962      3.5161954      9.7043357e-05
     15000   0.33085535     0              3.0231527      3.5139214     -0.00023209982
     15050   0.32121884     0              3.0435029      3.5199775     -0.00032780264
     15100   0.30885214     0              3.0668094      3.5249401     -0.00021571895
     15150   0.30937734     0              3.078158       3.5370677     -0.00023103123
     15200   0.29911463     0              3.0923524      3.5360391     -0.00022813616
     15250   0.29880331     0              3.0933814      3.5366063     -0.00029464478
     15300   0.29714933     0              3.0939726      3.5347441     -0.00031683388
     15350   0.29088901     0              3.1018039      3.5332893     -0.00011069017
     15400   0.30261697     0              3.083916       3.5327978     -0.00021496143
     15450   0.31736092     0              3.0552794      3.5260315     -0.00046675891
     15500   0.334441       0              3.0388504      3.5349379     -0.0004789758 
     15550   0.33797063     0              3.035988       3.5373111     -0.00027742184
     15600   0.35161674     0              3.0118879      3.5334528     -0.00024446759
     15650   0.36320899     0              2.9978321      3.5365921     -0.00028109133
     15700   0.33228153     0              3.035846       3.5287303      7.1042257e-05
     15750   0.33528754     0              3.0340474      3.5313906     -2.4841224e-05
     15800   0.32962457     0              3.0432702      3.5322133     -0.00032868412
     15850   0.33123923     0              3.0477494      3.5390876     -0.0004242772 
     15900   0.32070082     0              3.0622639      3.5379701     -0.00028789551
     15950   0.32585277     0              3.05548        3.5388283     -0.00027353448
     16000   0.32397977     0              3.0692109      3.5497809     -0.00016309221
     16050   0.32562488     0              3.0605318      3.543542      -5.0905881e-05
     16100   0.32676825     0              3.060784       3.5454903      0.00010342243
     16150   0.3321627      0              3.0473936      3.5401016      0.00019064848
     16200   0.34865857     0              3.0310877      3.5482646      0.00023808527
     16250   0.35376531     0              3.0301544      3.5549062      0.00037464695
     16300   0.35350387     0              3.0294574      3.5538214      0.00042833737
     16350   0.3637767      0              3.0210165      3.5606186      0.00048742971
     16400   0.37451366     0              3.0037324      3.559261       0.00045349121
     16450   0.37596134     0              2.9965342      3.5542102      0.00029486148
     16500   0.389242       0              2.9806685      3.5580441      0.00017754075
     16550   0.37092435     0              3.0069093      3.5571137      0.00047576975
     16600   0.3719111      0              2.9990292      3.5506973      0.0004178574 
     16650   0.39327953     0              2.9681019      3.5514665     -4.1591921e-07
     16700   0.39960475     0              2.9609144      3.5536614     -0.0001678929 
     16750   0.38475532     0              2.9844621      3.5551825     -0.00030466551
     16800   0.36026521     0              3.0193273      3.5537207     -0.00012972093
     16850   0.3318949      0              3.0635561      3.5558669      2.9763902e-05
     16900   0.33682926     0              3.0626751      3.5623052     -1.8222145e-05
     16950   0.32386256     0              3.0831403      3.5635364      0.00014686353
     17000   0.34680607     0              3.0530378      3.5674668     -1.0269864e-05
     17050   0.35491793     0              3.04552        3.5719816      6.5537209e-05
     17100   0.39563556     0              2.9869014      3.5737608     -0.00019345338
     17150   0.40997857     0              2.9750562      3.5831911     -0.00015371561
     17200   0.39273308     0              2.9982769      3.580831       4.504037e-05 
     17250   0.34490622     0              3.0638816      3.5754925      0.00032456355
     17300   0.35065159     0              3.0592723      3.5794055      4.8890496e-05
     17350   0.34734182     0              3.061481       3.5767046     -2.2213405e-05
     17400   0.34506549     0              3.0725782      3.5844254      0.00012286003
     17450   0.35063675     0              3.0641318      3.584243       0.00012801518
     17500   0.34647309     0              3.0673952      3.5813303      0.00015675348
     17550   0.38821384     0              2.9965009      3.5723515      8.8623802e-05
     17600   0.42194492     0              2.9439069      3.5697919      0.00026022444
     17650   0.47227574     0              2.8748357      3.5753781      0.00016273569
     17700   0.46010197     0              2.8972077      3.5796923      0.00072752116
     17750   0.45274044     0              2.9108162      3.5823811      0.00079605539
     17800   0.40774846     0              2.9776482      3.582475       0.0010035017 
     17850   0.37398107     0              3.0290228      3.5837613      0.0010403007 
     17900   0.37504019     0              3.0361138      3.5924234      0.00051167879
     17950   0.38204167     0              3.0327575      3.5994527      0.00014560668
     18000   0.36763053     0              3.0590556      3.6043743      0.00056183668
     18050   0.38418408     0              3.0276333      3.5975064      0.0006446238 
     18100   0.3928461      0              3.0150026      3.5977243      0.00059859503
     18150   0.42474729     0              2.9666877      3.5967296      0.00016982423
     18200   0.42079307     0              2.9792195      3.6033958      0.00018493312
     18250   0.39131856     0              3.0261549      3.6066108      0.00043694768
     18300   0.39503225     0              3.0290557      3.6150202     -7.115062e-05 
     18350   0.37398483     0              3.0562618      3.6110059     -0.00019188306
     18400   0.37029739     0              3.0640097      3.6132842     -0.00020318212
     18450   0.37342089     0              3.0585126      3.6124203     -9.1935225e-05
     18500   0.39510292     0              3.0306115      3.6166808     -3.8949394e-05
     18550   0.41049542     0              3.0111854      3.6200869      6.9465448e-05
     18600   0.41419318     0              3.0083621      3.6227487      0.00013843985
     18650   0.39720218     0              3.0401088      3.629292       0.00025438894
     18700   0.36806894     0              3.0852777      3.6312466      0.00014197913
     18750   0.34565252     0              3.1250469      3.6377648     -1.0038709e-05
     18800   0.33223259     0              3.1507995      3.6436112     -4.5098963e-05
     18850   0.34541687     0              3.135804       3.6481723     -0.00018860604
     18900   0.36155664     0              3.1173597      3.6536687     -0.00012650494
     18950   0.37539944     0              3.101727       3.6585695     -0.00014499558
     19000   0.39638985     0              3.0719091      3.6598874     -0.00046256114
     19050   0.39610001     0              3.065096       3.6526444     -0.00034701059
     19100   0.40053769     0              3.0683021      3.662433      -0.00029185686
     19150   0.38247695     0              3.0910009      3.6583417     -6.3158548e-05
     19200   0.37276414     0              3.0983518      3.6512853      8.7241371e-05
     19250   0.38603178     0              3.0804148      3.6530286     -0.0001235687 
     19300   0.41253142     0              3.0464156      3.6583372     -0.0004724727 
     19350   0.41889195     0              3.0366499      3.6580063     -0.00044114679
     19400   0.43657443     0              3.0130836      3.660669      -0.00025461019
     19450   0.44301417     0              3.0042315      3.6613692     -7.0937673e-05
     19500   0.42405477     0              3.0256924      3.654707      -0.0002188834 
     19550   0.39180245     0              3.0686986      3.6498722     -0.00028134876
     19600   0.36001728     0              3.1110644      3.64509       -0.00028189882
     19650   0.35364736     0              3.1192015      3.6437785     -0.00058966436
     19700   0.35127772     0              3.1238318      3.6448938     -0.00066576195
     19750   0.36228501     0              3.1119307      3.6493201     -0.00041148705
     19800   0.3918574      0              3.0780115      3.6592666     -0.00033911045
     19850   0.42172608     0              3.035235       3.6607954     -0.0002880939 
     19900   0.42738164     0              3.0334292      3.6673786     -4.2011933e-05
     19950   0.40965719     0              3.0657         3.6733582      4.7773058e-05
     20000   0.37859876     0              3.1131465      3.6747346     -3.2137629e-05
     20050   0.34604333     0              3.1597854      3.673083      -0.00012332948
     20100   0.31054638     0              3.2197599      3.6804037      0.00014003919
     20150   0.314656       0              3.2198815      3.6866212      9.0251589e-05
     20200   0.33337735     0              3.1899114      3.6844212     -6.9210317e-05
     20250   0.36669744     0              3.139232       3.6831665     -0.00011921258
     20300   0.39224913     0              3.1001499      3.6819861     -0.0001870588 
     20350   0.40524986     0              3.0783152      3.6794358     -7.5736228e-05
     20400   0.42475438     0              3.061791       3.6918433     -0.00011688869
     20450   0.42844345     0              3.0634356      3.69896        0.00013731374
     20500   0.42636629     0              3.0668882      3.6993315      0.0001772679 
     20550   0.42905831     0              3.0688326      3.7052691      2.7529953e-05
     20600   0.41294653     0              3.0919092      3.7044466     -4.8673483e-05
     20650   0.41456219     0              3.0829284      3.6978623     -0.00014475723
     20700   0.4008309      0              3.1048927      3.6994586      7.8851275e-05
     20750   0.38626932     0              3.1313493      3.7043155      0.0003443574 
     20800   0.40347304     0              3.1110796      3.7095646      0.00030132038
     20850   0.42942194     0              3.0731217      3.7100976      2.9993656e-05
     20900   0.43548945     0              3.0648783      3.7108543     -7.1154524e-05
     20950   0.42632788     0              3.0693847      3.7017711     -0.00015232587
     21000   0.40732692     0              3.1080263      3.7122279      3.7455692e-05
     21050   0.37682312     0              3.1557214      3.7146757      0.00028276685
     21100   0.38039036     0              3.1487171      3.7129628      2.4617489e-05
     21150   0.38647265     0              3.136365       3.7096328     -3.242796e-05 
     21200   0.40480406     0              3.1037008      3.7041601      0.00032273663
     21250   0.42405697     0              3.0784376      3.7074555      0.00067743362
     21300   0.45959358     0              3.0297241      3.7114546      0.00047635185
     21350   0.48421254     0              2.9982347      3.7164833      3.14304e-05  
     21400   0.47262313     0              3.0222972      3.7233548      0.00027489531
     21450   0.4434736      0              3.0679737      3.7257929      0.00033801104
     21500   0.42407101     0              3.088425       3.7174637      8.1011577e-05
     21550   0.39657656     0              3.1396606      3.7279159      0.00025817696
     21600   0.36986921     0              3.1873898      3.7360291      0.00063345234
     21650   0.36908925     0              3.200279       3.7477614      0.00064345035
     21700   0.37247489     0              3.1968843      3.7493887      0.00044627353
     21750   0.37696224     0              3.1939228      3.7530835      0.00051880093
     21800   0.37674973     0              3.1960293      3.7548747      0.00065452629
     21850   0.40632319     0              3.161887       3.7645997      0.00035716474
     21900   0.42007487     0              3.1452863      3.7683973      2.2488457e-05
     21950   0.44796466     0              3.1082908      3.7727717     -0.0003508289 
     22000   0.44429741     0              3.1145074      3.7735486     -0.00023495553
     22050   0.43248041     0              3.130091       3.7716036     -6.906694e-05 
     22100   0.45976875     0              3.0992049      3.7811952     -0.00040802664
     22150   0.45657502     0              3.1023539      3.7796069     -0.00023117305
     22200   0.45667123     0              3.1098534      3.787249      -0.00016151679
     22250   0.45378612     0              3.119051       3.7921671     -0.00036198642
     22300   0.44301328     0              3.1429413      3.8000777     -0.00027824093
     22350   0.43831118     0              3.1520042      3.8021658     -0.00031263969
     22400   0.42478161     0              3.1751435      3.8052362     -0.00018028688
     22450   0.41993279     0              3.181129       3.8040293     -0.00012236905
     22500   0.40928803     0              3.2016846      3.8087952     -0.00012419842
     22550   0.42826197     0              3.1747656      3.8100209     -0.00032284203
     22600   0.43386685     0              3.1725299      3.816099      -0.00024098908
     22650   0.43985978     0              3.1681462      3.8206048     -0.00025076206
     22700   0.42737184     0              3.1912697      3.8252046     -8.3937196e-05
     22750   0.41439602     0              3.2146281      3.8293155      0.00016273914
     22800   0.42488172     0              3.1975896      3.8278309     -4.6160022e-05
     22850   0.43909362     0              3.188677       3.8399992     -0.00020113288
     22900   0.45403588     0              3.1770227      3.8505092     -0.00017654824
     22950   0.45842665     0              3.1718579      3.8518574     -0.00030443726
     23000   0.4533543      0              3.1789435      3.851419      -0.00021891609
     23050   0.43316845     0              3.2089665      3.8514997     -3.5744405e-05
     23100   0.41840267     0              3.2315733      3.852204      -8.8197144e-06
     23150   0.41789479     0              3.2218108      3.8416881     -0.00042100318
     23200   0.4133098      0              3.2213256      3.8344018     -0.00017402981
     23250   0.41957533     0              3.2169383      3.8393084      0.00029946439
     23300   0.45971517     0              3.159816       3.8417269      0.00011714135
     23350   0.45353387     0              3.1649571      3.837699       0.00052996686
     23400   0.46734184     0              3.1435711      3.8367948      0.00047133726
     23450   0.45693421     0              3.1578757      3.8356614      0.00026656775
     23500   0.45391254     0              3.1655343      3.8388379      5.5959421e-05
     23550   0.46443655     0              3.1497671      3.8386813     -0.00031302774
     23600   0.46262849     0              3.1556139      3.8418462     -4.7163781e-05
     23650   0.47551708     0              3.1409728      3.8463231      0.00013016799
     23700   0.49496253     0              3.1136027      3.8477972      0.00012479191
     23750   0.50970994     0              3.0937398      3.8498096      9.0399379e-05
     23800   0.50418235     0              3.0996616      3.8475321      0.00011884537
     23850   0.48568997     0              3.1299975      3.8504376      0.0001824619 
     23900   0.4573672      0              3.1728944      3.8513224      0.00032959462
     23950   0.4101841      0              3.2382956      3.8467354      0.00062110339
     24000   0.40482675     0              3.2506071      3.8511001      0.00041108797
     24050   0.41542814     0              3.222652       3.8388704     -5.5080319e-05
     24100   0.43087099     0              3.1958601      3.8349854     -4.749906e-05 
     24150   0.46649851     0              3.1483226      3.8402954      0.00024137442
     24200   0.50474634     0              3.0966559      3.845363       0.00027559288
     24250   0.5226414      0              3.0633564      3.8386078     -0.00019652061
     24300   0.48409817     0              3.1163566      3.8344356      2.5475942e-05
     24350   0.43974325     0              3.1810837      3.8333695      9.6063755e-05
     24400   0.42402828     0              3.2058672      3.8348425     -0.00023442711
     24450   0.41223962     0              3.2312628      3.8427515     -0.00031985166
     24500   0.41908571     0              3.2110856      3.8327294     -0.00044869989
     24550   0.43917207     0              3.1871131      3.8385516     -0.00031004721
     24600   0.45527126     0              3.1723434      3.8476624     -9.558739e-05 
     24650   0.47091904     0              3.1502515      3.8487814     -0.00017706303
     24700   0.46143565     0              3.1660584      3.8505213     -0.00013599692
     24750   0.45240701     0              3.1811279      3.8521983     -0.00020063586
     24800   0.44239002     0              3.2028836      3.8590954     -0.00016965703
     24850   0.43060464     0              3.2190735      3.8578037      4.0862042e-05
     24900   0.44780403     0              3.1992937      3.8635363     -2.10761e-05  
     24950   0.47562564     0              3.1535375      3.8590488     -0.00045814505
     25000   0.49632045     0              3.1257613      3.8619699     -0.00064188654
     25050   0.49826314     0              3.1356871      3.8747774     -0.00024045796
     25100   0.50965685     0              3.1318137      3.8878047      2.6198654e-05
     25150   0.50233038     0              3.1458299      3.8909533      0.0002244083 
     25200   0.49982871     0              3.1474103      3.8888229      0.00037863516
     25250   0.52885378     0              3.1084892      3.8929556      2.8541458e-05
     25300   0.5399104      0              3.0949431      3.8958102     -0.00014143171
     25350   0.53423194     0              3.1095229      3.901967      -8.4009664e-05
     25400   0.52147951     0              3.1297372      3.9032651     -0.00014138943
     25450   0.49123567     0              3.1742164      3.9028826      0.00023407775
     25500   0.45722174     0              3.214511       3.8927233      0.00051794088
     25550   0.44097015     0              3.234479       3.8885847      0.00029426148
     25600   0.45464049     0              3.2130791      3.8874625      9.5475421e-05
     25650   0.44255407     0              3.2350256      3.8914808      0.00044849084
     25700   0.43086209     0              3.2561106      3.8952227      0.00075673659
     25750   0.45565858     0              3.2246849      3.9005784      0.00049384295
     25800   0.50143472     0              3.1585292      3.9023241     -3.6883598e-05
     25850   0.50884026     0              3.142426       3.8972057      5.7271821e-05
     25900   0.50775945     0              3.1411288      3.8943053      0.00035779736
     25950   0.51173813     0              3.1440688      3.9031471      0.00025011491
     26000   0.50991789     0              3.1463483      3.9027265      1.8768157e-05
     26050   0.46927663     0              3.2094076      3.9055012      0.00031455729
     26100   0.4458356      0              3.2494006      3.9107234      0.00039140144
     26150   0.45183501     0              3.2543575      3.9245794      0.00040435673
     26200   0.45758848     0              3.2436091      3.9223654      0.00022007972
     26250   0.49479391     0              3.189308       3.9232523     -0.00012238359
     26300   0.51662805     0              3.1502492      3.9165808     -0.00031047226
     26350   0.53326384     0              3.1227689      3.9137769     -0.0002537823 
     26400   0.52264788     0              3.1411733      3.9164343     -7.7842997e-05
     26450   0.52534629     0              3.1365722      3.9158359     -0.00028157441
     26500   0.51276081     0              3.1676552      3.9282504      0.00010293266
     26550   0.50557041     0              3.175486       3.9254155      0.00027337796
     26600   0.53280981     0              3.1274207      3.9177553     -0.00012460303
     26650   0.53520358     0              3.1208649      3.9147502     -5.7630909e-05
     26700   0.53031445     0              3.1236312      3.9102643     -4.8237704e-05
     26750   0.50300698     0              3.1668976      3.9130246      0.00011589713
     26800   0.49649452     0              3.1696865      3.9061534     -0.0001970963 
     26850   0.49863384     0              3.1761734      3.9158136     -0.00032619766
     26900   0.47400093     0              3.217349       3.9204504      7.9343865e-05
     26950   0.47498235     0              3.2151019      3.9196591      5.9755207e-05
     27000   0.47725872     0              3.2115334      3.9194671     -0.00012371685
     27050   0.48350624     0              3.2056091      3.92281       -0.00010922647
     27100   0.48338828     0              3.2020782      3.9191042      7.3666366e-05
     27150   0.49111969     0              3.1876284      3.9161226     -5.8219609e-05
     27200   0.50556048     0              3.1610009      3.9109156     -0.00013996964
     27250   0.49883009     0              3.1687235      3.9086548      7.0448972e-05
     27300   0.48724159     0              3.1880676      3.9108093      0.0002096381 
     27350   0.49282893     0              3.1863728      3.9174023      0.00018300428
     27400   0.46630036     0              3.2289022      3.9205811      0.00038382756
     27450   0.4751556      0              3.2191619      3.9239761      0.00026431636
     27500   0.45607492     0              3.2473228      3.9238339      0.00046960419
     27550   0.45436711     0              3.2624404      3.9364182      0.00054745481
     27600   0.4707158      0              3.2413172      3.9395456      0.00025868564
     27650   0.48175733     0              3.226343       3.9409497      2.7899348e-05
     27700   0.4823172      0              3.2283138      3.943751       0.00011391388
     27750   0.46939895     0              3.2421814      3.9384565      0.00039326235
     27800   0.49432375     0              3.2194319      3.9526788      8.9351926e-05
     27850   0.5205783      0              3.1849761      3.9571673     -0.00031625625
     27900   0.5286706      0              3.1694922      3.953687      -0.00051261441
     27950   0.52622183     0              3.1719345      3.9524969     -0.00052833408
     28000   0.50721654     0              3.1896135      3.9419847     -0.00036944932
     28050   0.49803296     0              3.2060948      3.9448437     -0.00023796778
     28100   0.49658314     0              3.2020006      3.9385989     -0.00018515462
     28150   0.48525263     0              3.213906       3.9336974     -6.6904547e-05
     28200   0.49003527     0              3.2107395      3.9376251     -0.00014298845
     28250   0.49598965     0              3.2185384      3.9542564     -0.00013150976
     28300   0.50639273     0              3.2136721      3.9648213     -0.00024742963
     28350   0.51562059     0              3.200324       3.9651612     -0.00049190221
     28400   0.51603922     0              3.2032421      3.9687002     -0.00026517527
     28450   0.5021216      0              3.2187545      3.9635682      0.00013070522
     28500   0.50137647     0              3.2198723      3.9635808      0.00019213854
     28550   0.5034071      0              3.2168598      3.9635803     -0.00016417768
     28600   0.51335378     0              3.2087694      3.9702442     -0.00043405089
     28650   0.48021289     0              3.2590164      3.9713322      7.2115688e-05
     28700   0.47525533     0              3.2600765      3.9650386     -1.4668488e-05
     28750   0.4971734      0              3.2386504      3.9761243     -0.00032377708
     28800   0.50111805     0              3.2399822      3.9833073     -0.00012426445
     28850   0.49667964     0              3.2449313      3.9816728      0.00043079185
     28900   0.48703042     0              3.2644547      3.9868832      0.00087472342
     28950   0.50503325     0              3.2312093      3.9803419      0.00038511446
     29000   0.5040186      0              3.229078       3.9767056      0.0002344803 
     29050   0.50630798     0              3.2311645      3.982188       0.00015491898
     29100   0.51352078     0              3.2189667      3.9806892     -6.6273993e-05
     29150   0.50023962     0              3.2416771      3.9836992      0.00010842559
     29200   0.53190357     0              3.1942986      3.9832889     -2.3088254e-06
     29250   0.53223956     0              3.2015492      3.9910378      0.00024194862
     29300   0.51988508     0              3.2181097      3.9892726      0.00037496707
     29350   0.51847003     0              3.2205995      3.9896633      0.00027168444
     29400   0.4989007      0              3.255134       3.9951701      0.000570872  
     29450   0.50576169     0              3.2561354      4.0063486      0.0007526325 
     29500   0.52472708     0              3.234679       4.0130241      0.00057068635
     29550   0.52802776     0              3.2232185      4.0064596      0.00036428486
     29600   0.53222598     0              3.2125698      4.0020383      0.00035400435
     29650   0.54067257     0              3.2097231      4.0117208      0.00045630636
     29700   0.55816155     0              3.1934582      4.0213978      0.00057529988
     29750   0.56042708     0              3.1958493      4.0271495      0.00056067006
     29800   0.56188845     0              3.2004625      4.0339304      0.00016522108
     29850   0.53210588     0              3.2297192      4.0190096     -0.0001639386 
     29900   0.48893077     0              3.292807       4.0180543     -0.00025748592
     29950   0.43973755     0              3.3703829      4.0226603      0.00018426549
     30000   0.44890926     0              3.3567459      4.022628       0.00012334495
     30050   0.48876466     0              3.3043792      4.0293801     -0.0001518055 
     30100   0.51666649     0              3.2587203      4.0251089     -0.00012479929
     30150   0.52921009     0              3.2399259      4.0249209     -0.00020116717
     30200   0.52719552     0              3.2481037      4.0301104     -0.00026912745
     30250   0.49065046     0              3.2974477      4.0252459     -0.00017606209
     30300   0.46078779     0              3.3465927      4.0300946     -2.9208109e-05
     30350   0.45547856     0              3.3635508      4.0391773     -8.0179855e-05
     30400   0.47109707     0              3.3359389      4.0347328     -0.00021246079
     30450   0.49578523     0              3.2980149      4.0334296     -0.00022748325
     30500   0.51415443     0              3.2703832      4.0330456     -0.00018918298
     30550   0.54003458     0              3.2404331      4.0414844     -0.00026201519
     30600   0.5432077      0              3.2494752      4.0552333     -0.00025418998
     30650   0.52238577     0              3.2831319      4.0580042     -0.00021082527
     30700   0.48549678     0              3.3385288      4.0586824     -0.00012997785
     30750   0.49817838     0              3.3167859      4.0557504     -0.00052088232
     30800   0.50043921     0              3.3201998      4.062518      -0.00032215789
     30850   0.51886335     0              3.2983478      4.0679951     -0.00019501804
     30900   0.53334339     0              3.2808594      4.0719855     -5.8471265e-07
     30950   0.54035419     0              3.2698429      4.0713683      0.00019629264
     31000   0.54668188     0              3.2588796      4.0697911      0.00021928209
     31050   0.54626794     0              3.2613896      4.071687       0.00042951435
     31100   0.51663337     0              3.3086173      4.0749568      0.00074804248
     31150   0.58707366     0              3.2110981      4.081924      -6.7978174e-05
     31200   0.59784561     0              3.1970639      4.0838682     -8.8961546e-05
     31250   0.57924132     0              3.2221166      4.0813245      0.00032054843
     31300   0.58237247     0              3.21847        4.0823225      0.00017898448
     31350   0.53653056     0              3.275681       4.0715346      0.00034994114
     31400   0.51217274     0              3.3124844      4.0722073      0.00041018475
     31450   0.52964531     0              3.2868974      4.0725379     -0.00018587293
     31500   0.52965252     0              3.2876804      4.0733317     -0.00023802621
     31550   0.51996702     0              3.2977374      4.0690218      2.4646743e-05
     31600   0.53604237     0              3.2811271      4.0762566      6.5861406e-05
     31650   0.54698401     0              3.2740909      4.0854505      5.7886737e-05
     31700   0.5427963      0              3.2746646      4.0798125     -0.00011929921
     31750   0.53734731     0              3.2802582      4.0773234     -0.00025977394
     31800   0.51975527     0              3.3005122      4.0714825     -0.00023865365
     31850   0.51815766     0              3.3028539      4.0714544     -0.00042322182
     31900   0.49766325     0              3.3419184      4.0801188     -0.0001672663 
     31950   0.47231072     0              3.3778233      4.0784175      0.00019415801
     32000   0.48428205     0              3.3596565      4.0780082     -2.9974141e-05
     32050   0.51839074     0              3.3142336      4.0831799     -0.00024756109
     32100   0.50777416     0              3.3302325      4.0834309      0.00022379605
     32150   0.54847154     0              3.2770398      4.090606      -5.5398598e-05
     32200   0.56224803     0              3.2545641      4.0885653     -0.00018076627
     32250   0.57199694     0              3.2412027      4.0896649     -0.00031079442
     32300   0.54440448     0              3.2861644      4.0936977      0.00028059854
     32350   0.54971706     0              3.2703937      4.0858074      0.00017853435
     32400   0.55710588     0              3.2546974      4.0810711     -0.0001151076 
     32450   0.5654253      0              3.2385195      4.0772337     -0.00032198034
     32500   0.56174097     0              3.2337781      4.0670272     -0.00025441528
     32550   0.52126639     0              3.296297       4.0695088      0.00062200062
     32600   0.53931374     0              3.2829217      4.0829037      0.0004262329 
     32650   0.5821206      0              3.2252912      4.0887701     -0.00051584136
     32700   0.57402501     0              3.2487823      4.1002528     -0.00036853527
     32750   0.54480244     0              3.2984003      4.1065239     -7.4865439e-07
     32800   0.52193854     0              3.3337388      4.1079476     -5.6480107e-05
     32850   0.50505667     0              3.3515987      4.1007661     -0.00025131634
     32900   0.48203423     0              3.3746823      4.0896997     -0.00017300867
     32950   0.50505826     0              3.3463343      4.095504      -0.00035396501
     33000   0.53954208     0              3.3052376      4.1055584     -0.00028951925
     33050   0.56698206     0              3.2740032      4.1150266     -0.00017305045
     33100   0.58192821     0              3.2586152      4.1218087     -5.702443e-05 
     33150   0.57787942     0              3.2784893      4.1356771      0.00035603433
     33200   0.58483814     0              3.2804025      4.1479124      0.00023718046
     33250   0.59904796     0              3.2538393      4.1424271     -7.9620883e-05
     33300   0.61231825     0              3.2390643      4.1473364     -0.00011958069
     33350   0.62551477     0              3.2221986      4.1500455      2.0582102e-05
     33400   0.63874064     0              3.1938816      4.1413468      8.4739862e-07
     33450   0.63771878     0              3.1961402      4.1420897      7.5535393e-05
     33500   0.58984224     0              3.2638286      4.1387613      0.00038365131
     33550   0.56263278     0              3.2891731      4.123745       0.00014200254
     33600   0.55096616     0              3.3054837      4.1227502     -0.00016482535
     33650   0.54569915     0              3.3051581      4.1146118     -0.00024872514
     33700   0.52715692     0              3.3229777      4.1049272      0.00024322051
     33750   0.53257799     0              3.3136281      4.1036188      0.00046174731
     33800   0.56400038     0              3.2567657      4.0933663      8.6229567e-05
     33850   0.55901004     0              3.2667785      4.0959767      0.00024918642
     33900   0.55980765     0              3.2594975      4.0898788      0.00023658787
     33950   0.58679914     0              3.2193414      4.0897602     -6.1511292e-05
     34000   0.57325498     0              3.2422435      4.0925717      0.00017014605
     34050   0.57861117     0              3.2417115      4.0999848      0.00029475044
     34100   0.55047802     0              3.2809413      4.0974837      0.000674118  
     34150   0.53598706     0              3.3046218      4.0996692      0.00092123733
     34200   0.53486463     0              3.2965579      4.0899405      0.00053840746
     34250   0.55394465     0              3.2735601      4.0952446      2.3594771e-05
     34300   0.56517387     0              3.2688616      4.1072028     -2.8093924e-05
     34350   0.56267735     0              3.2733539      4.107992       0.0002813308 
     34400   0.55175976     0              3.2922982      4.1107419      0.00072328158
     34450   0.54653138     0              3.2947731      4.1054613      0.0008536035 
     34500   0.55403767     0              3.2854153      4.1072378      0.00062671149
     34550   0.5762512      0              3.2504651      4.1052378      0.00020884924
     34600   0.56768674     0              3.2703522      4.1124209      0.00044313758
     34650   0.5520897      0              3.2786727      4.0976058      0.00052887848
     34700   0.55736115     0              3.2760189      4.1027713      0.00040244285
     34750   0.53914341     0              3.2968688      4.0965982      0.00049131763
     34800   0.53122652     0              3.3095148      4.0975008      0.00030845271
     34850   0.52548995     0              3.3234424      4.1029191      9.6173397e-06
     34900   0.50943476     0              3.3481618      4.1038233     -5.3370521e-05
     34950   0.50810353     0              3.3449476      4.0986345     -0.00017568118
     35000   0.5073392      0              3.3417461      4.0942992     -3.1410042e-06
     35050   0.53455529     0              3.2974746      4.0903983     -0.00012889313
     35100   0.55484776     0              3.2711195      4.0941437     -9.3565465e-05
     35150   0.56937403     0              3.2536204      4.0981919     -0.00023030794
     35200   0.55229607     0              3.2713965      4.0906357      1.8611599e-05
     35250   0.53481167     0              3.286966       4.08027        8.4584243e-05
     35300   0.54754965     0              3.2650396      4.0772382     -0.00036511511
     35350   0.54359337     0              3.2702523      4.0765825     -0.00032158458
     35400   0.57652138     0              3.2364141      4.0915875     -0.00039039285
     35450   0.5813653      0              3.2173619      4.0797204     -0.0003289052 
     35500   0.5683709      0              3.2372304      4.0803139      8.7543864e-05
     35550   0.55536255     0              3.2509194      4.0747071     -0.00011285048
     35600   0.55361137     0              3.2474346      4.0686248     -0.00031557445
     35650   0.49383747     0              3.3299502      4.0624758      0.00019382624
     35700   0.51400951     0              3.2963626      4.05881       -0.00023492   
     35750   0.51291825     0              3.2969601      4.0577888     -0.00046941657
     35800   0.50067656     0              3.3153305      4.0580007     -0.0003584514 
     35850   0.47365493     0              3.3529464      4.0555345      0.00013911889
     35900   0.46577514     0              3.3671951      4.0580949      0.00026892656
     35950   0.49325073     0              3.3265922      4.0582475     -6.2669384e-05
     36000   0.50514199     0              3.3154069      4.0647009     -0.00010208295
     36050   0.50484504     0              3.3051958      4.0540493     -0.00021865144
     36100   0.52063081     0              3.2801782      4.0524473     -0.00033350044
     36150   0.52082907     0              3.282557       4.0551201      7.9282317e-05
     36200   0.53163639     0              3.2710194      4.0596134      0.00038831432
     36250   0.54451804     0              3.2421131      4.0498149      0.00030086222
     36300   0.55501743     0              3.2357393      4.0590152      0.00022471764
     36350   0.57048089     0              3.2166189      4.0628322      3.5850328e-05
     36400   0.57237041     0              3.2206538      4.0696699      5.3291472e-05
     36450   0.55356453     0              3.2440017      4.0651225      0.00027679974
     36500   0.55009824     0              3.2547183      4.0706973      0.00017821937
     36550   0.54784962     0              3.2573443      4.0699879      8.4016887e-06
     36600   0.5406979      0              3.2682787      4.0703139     -0.00015767166
     36650   0.53079672     0              3.2793589      4.0667073      2.7727229e-06
     36700   0.51394231     0              3.3079276      4.0702754      0.00052153286
     36750   0.53417022     0              3.2844069      4.0767594      0.00051030963
     36800   0.52706553     0              3.2903281      4.0721419      0.00065880243
     36850   0.56833957     0              3.2331706      4.0762077      0.00036915978
     36900   0.56349026     0              3.2302219      4.0660658      0.00018897499
     36950   0.56615485     0              3.229709       4.0695054     -1.6896145e-05
     37000   0.53403245     0              3.2748629      4.0670111      0.00012474015
     37050   0.51812231     0              3.300123       4.0686711      0.00030558083
     37100   0.50645031     0              3.3107708      4.0620054      0.0004408607 
     37150   0.53900825     0              3.268273       4.0678019      5.0094677e-05
     37200   0.55790245     0              3.2352677      4.062823      -5.0828052e-05
     37250   0.55402676     0              3.2316411      4.0534475      3.633202e-05 
     37300   0.55532771     0              3.2225431      4.0462792     -0.0001628279 
     37350   0.52364186     0              3.2729427      4.0496781     -0.00013528961
     37400   0.48769541     0              3.3309436      4.0543585     -5.2264358e-05
     37450   0.46236157     0              3.3721114      4.0579478     -6.6249403e-05
     37500   0.46503945     0              3.368865       4.0586735      6.8007671e-05
     37550   0.4859433      0              3.340319       4.0611349      0.00030235025
     37600   0.52510248     0              3.2845426      4.0634446      0.00015838711
     37650   0.56205629     0              3.2282473      4.0619641     -2.3206132e-05
     37700   0.59057143     0              3.1962397      4.072254      -0.00016631035
     37750   0.59228823     0              3.1961037      4.0746646     -0.00012467484
     37800   0.55882774     0              3.2405098      4.0694376      0.00018091255
     37850   0.56422674     0              3.2389377      4.075874       0.00038975764
     37900   0.53101798     0              3.289378       4.0770546      0.00085678045
     37950   0.54111058     0              3.2710162      4.0736635      0.00051564421
     38000   0.54046077     0              3.2706321      4.0723156      0.00014305859
     38050   0.54804559     0              3.2651724      4.0781067     -0.00011036768
     38100   0.57743767     0              3.2307937      4.0873263     -0.00038170781
     38150   0.57208193     0              3.2434596      4.0920478      2.0739406e-05
     38200   0.56827818     0              3.2405446      4.0834906      8.0833092e-05
     38250   0.58033432     0              3.2254284      4.0862576     -0.00029082322
     38300   0.55884711     0              3.2487763      4.0777328     -0.00010308587
     38350   0.54274427     0              3.2763185      4.0813892      4.7593499e-05
     38400   0.5570119      0              3.2547038      4.0809382     -0.0002062742 
     38450   0.53057439     0              3.2943147      4.0813334      0.0002339481 
     38500   0.52801113     0              3.3014044      4.0846209      0.00036076977
     38550   0.53663057     0              3.2935652      4.0895672      3.2333573e-05
     38600   0.51926482     0              3.3223542      4.092597       2.6254569e-05
     38650   0.50926672     0              3.3402824      4.0956947     -0.00019200838
     38700   0.48378862     0              3.3776386      4.0952583     -0.00022450526
     38750   0.48021774     0              3.3804821      4.0928051     -0.00036109577
     38800   0.47793761     0              3.3794246      4.0883654     -0.00032687826
     38850   0.4870223      0              3.3676705      4.0900869     -0.00022335504
     38900   0.50946632     0              3.3413403      4.0970487     -0.00035980985
     38950   0.52882054     0              3.3141478      4.0985649     -0.0005221366 
     39000   0.53392273     0              3.3161886      4.108174      -0.00054880687
     39050   0.5142601      0              3.3525709      4.1153901     -0.00035494748
     39100   0.48605606     0              3.3956599      4.1166431     -5.3562336e-05
     39150   0.47005044     0              3.4183773      4.1156187     -6.5046942e-05
     39200   0.5007274      0              3.3745291      4.1172747     -0.00051214751
     39250   0.54251382     0              3.3153957      4.1201245     -0.00067418594
     39300   0.56979185     0              3.282708       4.1278992     -0.00033346517
     39350   0.57409493     0              3.2771949      4.128769      -1.9114678e-05
     39400   0.58715447     0              3.2647404      4.1356862     -0.00042782767
     39450   0.57382479     0              3.288123       4.1392964     -0.00040312145
     39500   0.52348794     0              3.3613903      4.1378974      4.2045313e-05
     39550   0.50825971     0              3.373458       4.1273765     -0.00023325743
     39600   0.50471144     0              3.3840533      4.1327086     -0.00016526366
     39650   0.51232224     0              3.3790295      4.1389741     -6.7874208e-07
     39700   0.55915769     0              3.3224854      4.1519027     -0.00034756567
     39750   0.5756899      0              3.3037371      4.1576771     -0.00018605959
     39800   0.57503543     0              3.3054162      4.1583855      0.00039674092
[...]
     89350   0.96689896     0              3.7441521      5.1783856      0.00056899295
     89400   0.91462454     0              3.8140534      5.1707464      0.00071150334
     89450   0.89811571     0              3.8471038      5.1793088      0.00075755301
     89500   0.84533535     0              3.9225812      5.1764953      0.0010943209 
     89550   0.86179859     0              3.8910578      5.1693924      0.00055407107
     89600   0.90272362     0              3.835243       5.174283       5.4787059e-05
     89650   0.92217334     0              3.808548       5.1764385      0.00043927971
     89700   0.9616469      0              3.7606027      5.1870456      0.00016817967
     89750   0.93147992     0              3.8064275      5.1881227      0.0002947184 
     89800   0.86329997     0              3.9063994      5.186961       0.00061160951
     89850   0.86881808     0              3.91369        5.2024369     -5.5226083e-05
     89900   0.78976115     0              4.0327569      5.2042359      0.00014852549
     89950   0.75529277     0              4.0861225      5.2064734      6.3480859e-05
     90000   0.74038751     0              4.1159349      5.2141764      3.8795121e-05
     90050   0.78104187     0              4.0592063      5.2177517     -0.00042012621
     90100   0.79481022     0              4.0384596      5.2174281     -0.00030645852
     90150   0.82794808     0              3.9905666      5.2186896     -0.00012689772
     90200   0.8136118      0              4.0054405      5.212298       0.00038994484
     90250   0.79738711     0              4.0303611      5.213152       0.00078256572
     90300   0.82502302     0              4.0005746      5.2243587      0.00024244275
     90350   0.79652118     0              4.0274696      5.208976       0.00036602283
     90400   0.78419452     0              4.0398659      5.2030878      0.00026947022
     90450   0.81181518     0              4.0020969      5.2062894     -0.00042123605
     90500   0.82657679     0              3.9828092      5.2088981     -0.00039328067
     90550   0.78557551     0              4.0259657      5.191236       0.00021807429
     90600   0.79627777     0              3.998735       5.1798803     -5.172096e-05 
     90650   0.80220156     0              3.9959777      5.1859101     -0.0004240684 
     90700   0.78069746     0              4.0202099      5.1782445     -0.00036297507
     90750   0.76307764     0              4.046621       5.1785195     -4.2110451e-05
     90800   0.77658353     0              4.0276586      5.1795908     -0.00016211372
     90850   0.79601229     0              3.9942934      5.175045      -0.00033097775
     90900   0.80993861     0              3.9688274      5.1702364     -0.00032482008
     90950   0.82626827     0              3.9387837      5.1644149     -0.00033946403
     91000   0.80717621     0              3.9764785      5.1737899      0.00011131531
     91050   0.81606976     0              3.970672       5.1811754     -0.00015125457
     91100   0.81376783     0              3.9831734      5.1902624     -0.00056974853
     91150   0.758962       0              4.0543956      5.1801893     -0.00025286078
     91200   0.76361901     0              4.0409613      5.1736628     -0.00031857232
     91250   0.77492607     0              4.0229095      5.1723832     -0.00036915729
     91300   0.80673986     0              3.9700434      5.1667075     -0.00044304125
     91350   0.8037275      0              3.9855169      5.1777127      0.00027491719
     91400   0.7807811      0              4.009991       5.1681497      0.00058297675
     91450   0.8226863      0              3.9492125      5.1695305     -0.00038234561
     91500   0.80637832     0              3.9718095      5.1679373     -0.00065040571
     91550   0.7923684      0              3.99179        5.1671365     -0.00067389752
     91600   0.7763082      0              4.028039       5.1795628     -0.00038418976
     91650   0.79958636     0              4.0032402      5.1892933     -0.000381088  
     91700   0.81975877     0              3.9781053      5.1940808     -0.00011409418
     91750   0.85667332     0              3.9328518      5.2035839     -9.1707101e-05
     91800   0.88006238     0              3.9010679      5.2064937     -0.00041220838
     91850   0.86575329     0              3.927654       5.2118547      5.9565046e-05
     91900   0.87020406     0              3.9172523      5.208055      -0.00014669917
     91950   0.88819995     0              3.8928168      5.2103134     -0.00054367664
     92000   0.8846665      0              3.9038929      5.2161483     -0.00032012146
     92050   0.88249545     0              3.9006703      5.2097052     -0.00032370191
     92100   0.87981915     0              3.9114701      5.2165352     -0.0002282221 
     92150   0.87913269     0              3.9228519      5.2268987     -0.00052426614
     92200   0.83431595     0              3.9842075      5.2217762     -0.00042478314
     92250   0.75344094     0              4.0979776      5.2155817      0.00014354544
     92300   0.72532865     0              4.1283113      5.2042155     -0.00013411147
     92350   0.72657818     0              4.1234517      5.2012093     -0.00035528854
     92400   0.73358656     0              4.1131321      5.2012855     -0.00020512891
     92450   0.77859418     0              4.0490016      5.2039162     -0.00034092454
     92500   0.80546516     0              4.0209399      5.2157132     -0.00014612467
     92550   0.82621005     0              3.9962579      5.2218028      1.8781029e-05
     92600   0.79169048     0              4.0535997      5.2279406      0.00037184125
     92650   0.79382199     0              4.0576531      5.2351557     -5.4211174e-05
     92700   0.74158202     0              4.1162214      5.2162348      4.5654841e-05
     92750   0.71550859     0              4.1515871      5.2129249      0.00021601713
     92800   0.75606431     0              4.0936981      5.2151935     -2.7186007e-05
     92850   0.79080416     0              4.0358396      5.2088658      6.052969e-05 
     92900   0.80559337     0              4.0220716      5.2170351      0.00084794138
     92950   0.82832655     0              3.9925562      5.2212406      0.00089361013
     93000   0.86897628     0              3.9312183      5.2201998      0.00040078691
     93050   0.841011       0              3.9697062      5.2172059      0.00067218101
     93100   0.86878642     0              3.9255824      5.2142823      0.00021488689
     93150   0.8938461      0              3.8985423      5.224414       0.00011525263
     93200   0.8898689      0              3.8981961      5.2181683      0.00046559158
     93250   0.8367826      0              3.9794315      5.220659       0.0011658442 
     93300   0.85576845     0              3.9600316      5.2294215      0.00081433094
     93350   0.86607084     0              3.9369916      5.2216634      0.00018769623
     93400   0.8627587      0              3.9305299      5.2102887     -6.5825409e-05
     93450   0.86583982     0              3.9340976      5.2184267     -2.6106599e-05
     93500   0.87501035     0              3.9220184      5.2199504      0.00028000786
     93550   0.89247404     0              3.8968791      5.2207156      0.00037608633
     93600   0.87359789     0              3.9281796      5.2240164      0.00088196039
     93650   0.87858465     0              3.9303833      5.2336172      0.00078242792
     93700   0.86258075     0              3.9552236      5.2347184      0.00045299966
     93750   0.83030814     0              3.9989368      5.2305605      0.0002895611 
     93800   0.82180882     0              4.0151772      5.2341936      2.0889905e-05
     93850   0.83579461     0              3.992621       5.232383       6.0956538e-05
     93900   0.8312843      0              3.9967846      5.2298563      0.00083247397
     93950   0.8915878      0              3.9079012      5.2304231      0.00073213585
     94000   0.94738933     0              3.8384525      5.2437467      0.00072660545
     94050   0.91810061     0              3.8839068      5.2457561      0.00140537   
     94100   0.91436692     0              3.8887942      5.2451051      0.0011773953 
     94150   0.91962943     0              3.8849657      5.2490827      0.00059959059
     94200   0.909815       0              3.8931004      5.2426593      0.00024073162
     94250   0.91723741     0              3.883905       5.2444738      0.00025280541
     94300   0.93970055     0              3.8562199      5.250109       0.00081444191
     94350   0.96628527     0              3.8242945      5.2576177      0.0011801141 
     94400   1.0454408      0              3.7087667      5.2595038      0.00059247574
     94450   1.0271497      0              3.7386876      5.2622931      0.00072001914
     94500   1.0145262      0              3.7569252      5.2618058      0.0004728637 
     94550   0.92828313     0              3.8741053      5.2510586      0.00068969548
     94600   0.9003996      0              3.9219875      5.2575802      0.00068760484
     94650   0.8822681      0              3.9487929      5.2574906      0.00053498463
     94700   0.89279086     0              3.9328005      5.2571069      0.00022022463
     94750   0.86942806     0              3.9533179      5.2429695      0.0006200623 
     94800   0.87366233     0              3.9448584      5.2407909      0.00051647359
     94850   0.87908874     0              3.9458256      5.2498072     -7.9428448e-05
     94900   0.84542062     0              3.9823345      5.2363751     -0.00032298032
     94950   0.81679077     0              4.0335565      5.2451295     -0.00013204538
     95000   0.82526656     0              4.0227317      5.2468771     -9.6144626e-05
     95050   0.87335557     0              3.9582298      5.2537073     -0.00028602795
     95100   0.94302339     0              3.8552175      5.2540355     -0.00060076982
     95150   0.97197004     0              3.8174451      5.2592006     -0.00022459644
     95200   0.95841187     0              3.8417542      5.2633985      5.8339395e-05
     95250   0.8903926      0              3.9486204      5.2693694     -1.2156891e-05
     95300   0.81600097     0              4.0630679      5.2734693     -0.00014313571
     95350   0.7221586      0              4.2073868      5.2785887     -1.1327898e-06
     95400   0.68785091     0              4.2593459      5.2796581     -0.00027156757
     95450   0.68104283     0              4.2648033      5.2750168     -0.00027200804
     95500   0.72666326     0              4.2043865      5.2822704     -0.00040706309
     95550   0.80148635     0              4.0877542      5.2766256     -0.00080684332
     95600   0.8159237      0              4.0577117      5.2679985     -0.00051848957
     95650   0.82961041     0              4.0483139      5.2789026     -0.00026760117
     95700   0.84587719     0              4.030422       5.2851398     -0.00045601537
     95750   0.84743441     0              4.0399115      5.2969392     -0.00067942171
     95800   0.82181992     0              4.0621278      5.2811607     -0.0005694623 
     95850   0.81199682     0              4.0793539      5.2838159     -0.0001802645 
     95900   0.80674654     0              4.090995       5.287669       0.00014052549
     95950   0.82593773     0              4.0705204      5.2956614      3.0140989e-05
     96000   0.86008004     0              4.0369565      5.3127419     -0.00045185401
     96050   0.85745077     0              4.0379124      5.3097977     -0.00070426926
     96100   0.80406646     0              4.1170438      5.3097424     -5.1832861e-05
     96150   0.80338809     0              4.1216796      5.313372      -0.0001809479 
     96200   0.80362912     0              4.1266621      5.318712      -0.00043162938
     96250   0.79081665     0              4.1385915      5.3116362     -0.00024235615
     96300   0.75118529     0              4.208876       5.3231342      0.00036628445
     96350   0.79623847     0              4.1436777      5.3247648     -0.00010127873
     96400   0.7741617      0              4.1731799      5.3215198      9.82233e-05  
     96450   0.80064803     0              4.1397809      5.3274088     -0.0001817253 
     96500   0.82889964     0              4.1040916      5.3336261     -0.0006475783 
     96550   0.84423096     0              4.0879411      5.3402171     -0.00078254401
     96600   0.8213395      0              4.1285961      5.3469164     -9.8252352e-05
     96650   0.84669017     0              4.0923306      5.3482544     -0.0003326259 
     96700   0.86967376     0              4.0502851      5.3403011     -0.00084635948
     96750   0.87260546     0              4.0342759      5.3286406     -0.00078803371
     96800   0.883608       0              4.0176961      5.3283813     -0.00066434783
     96850   0.87798944     0              4.0213602      5.3237112     -0.0002499425 
     96900   0.86692597     0              4.0179497      5.3038899     -0.00015446403
     96950   0.85671629     0              4.0286273      5.2994231     -0.00011656418
     97000   0.85371375     0              4.0208695      5.2872116     -0.0001789439 
     97050   0.84725603     0              4.0381589      5.294922      -0.00021798047
     97100   0.84043259     0              4.0496731      5.2963148     -0.00049431993
     97150   0.82591558     0              4.0638474      5.2889555     -0.00083148077
     97200   0.80251454     0              4.1047326      5.2951291     -0.00043059766
     97250   0.7746063      0              4.1406288      5.2896282     -0.00022846395
     97300   0.77780463     0              4.1348011      5.2885447     -0.00041890997
     97350   0.79762963     0              4.1041508      5.2873014     -0.00065896279
     97400   0.80314475     0              4.0981114      5.2894427     -0.00045216437
     97450   0.79131048     0              4.1151187      5.2888959     -0.00010886828
     97500   0.82834556     0              4.066869       5.2955816     -0.00034265361
     97550   0.81001341     0              4.1122933      5.3138132     -1.52998e-05  
     97600   0.84466771     0              4.0755267      5.3284505     -0.00045283919
     97650   0.8397391      0              4.0892889      5.3349019     -0.00050208865
     97700   0.84163612     0              4.0754541      5.323881      -0.00056673444
     97750   0.87020836     0              4.0260219      5.316831      -0.00058158119
     97800   0.87203692     0              4.028707       5.3222284      0.00015083831
     97850   0.90635541     0              3.9892702      5.3336974      0.00027297601
     97900   0.93510858     0              3.9400548      5.3271325     -0.00025927419
     97950   0.89116046     0              3.9983666      5.3202546     -0.00018623216
     98000   0.87369176     0              4.0266579      5.322634      -0.00052510178
     98050   0.85416041     0              4.0559169      5.3229215     -0.00049570546
     98100   0.87276623     0              4.048895       5.3434983     -4.3161638e-05
     98150   0.89347532     0              4.0256745      5.3509963      0.00047657223
     98200   0.93082354     0              3.9713626      5.3520842      0.00015619558
     98250   0.90950987     0              3.9910325      5.3401388      0.00014923944
     98300   0.89476235     0              4.0135333      5.3407641     -1.8219353e-05
     98350   0.88820855     0              4.0307848      5.3482941     -0.0004528998 
     98400   0.86852456     0              4.0498666      5.338178      -0.00042303774
     98450   0.86447907     0              4.061982       5.3442926     -0.00012246739
     98500   0.88270367     0              4.0438872      5.353231       0.00018577563
     98550   0.9697057      0              3.9227287      5.3611255     -0.00028933588
     98600   0.97824599     0              3.9078256      5.3588905      0.00041725386
     98650   0.97712055     0              3.9046235      5.354019       0.00093587015
     98700   0.96909484     0              3.9237414      5.3612321      0.000986316  
     98750   0.93816342     0              3.9637092      5.3553183      0.00094631669
     98800   0.92116232     0              3.9828876      5.3492784      0.00056526201
     98850   0.87624942     0              4.0530013      5.3527713      0.00075071831
     98900   0.85353968     0              4.0775657      5.3436495      0.0010852147 
     98950   0.89581233     0              4.0223385      5.3511268      0.00059986334
     99000   0.97688498     0              3.8947637      5.3438098      0.0001877504 
     99050   0.94126325     0              3.9493822      5.3455894      0.0011585136 
     99100   0.9370453      0              3.946268       5.3362185      0.0011947949 
     99150   1.0059498      0              3.8537226      5.3458815      0.00029087162
     99200   1.0100401      0              3.8628758      5.361102       0.00022373183
     99250   1.0054055      0              3.8680146      5.3593661      0.00036079807
     99300   0.99327486     0              3.8898248      5.3631825      0.00067078651
     99350   0.92604608     0              4.0057363      5.3793713      0.0014033922 
     99400   0.96041668     0              3.9544095      5.3790276      0.00084731297
     99450   0.95496516     0              3.9623317      5.3788634      0.00055911474
     99500   0.93745258     0              3.9741898      5.3647445      0.00060713896
     99550   0.94140991     0              3.9607001      5.3571248      0.00087077098
     99600   0.89256964     0              4.0535526      5.3775309      0.0016337975 
     99650   1.0061587      0              3.8792588      5.3717275      0.00036227586
     99700   0.97997771     0              3.9239194      5.377553       0.00061900445
     99750   0.9582181      0              3.9498374      5.3711942      0.00054858633
     99800   0.93806765     0              3.9826585      5.3741256      0.00044240878
     99850   0.88075255     0              4.0756522      5.3821019      0.00081834042
     99900   0.88663814     0              4.0658001      5.38098        0.00042204661
     99950   0.91146265     0              4.0348819      5.3868848      2.2456391e-06
    100000   0.93143309     0              4.0052847      5.3869105      5.1725858e-05
    100026   0.94318872     0              3.9846128      5.3836761      1.9997519e-05
Loop time of 3.87607 on 1 procs for 100000 steps with 90 atoms

Performance: 2229060.185 tau/day, 25799.308 timesteps/s, 2.322 Matom-step/s
65.3% CPU use with 1 MPI tasks x 1 OpenMP threads

MPI task timing breakdown:
Section |  min time  |  avg time  |  max time  |%varavg| %total
---------------------------------------------------------------
Pair    | 0          | 0          | 0          |   0.0 |  0.00
Bond    | 1.3202     | 1.3202     | 1.3202     |   0.0 | 34.06
Neigh   | 0.021244   | 0.021244   | 0.021244   |   0.0 |  0.55
Comm    | 0.039656   | 0.039656   | 0.039656   |   0.0 |  1.02
Output  | 1.1367     | 1.1367     | 1.1367     |   0.0 | 29.33
Modify  | 1.2518     | 1.2518     | 1.2518     |   0.0 | 32.30
Other   |            | 0.1065     |            |       |  2.75

Nlocal:             90 ave          90 max          90 min
Histogram: 1 0 0 0 0 0 0 0 0 0
Nghost:             63 ave          63 max          63 min
Histogram: 1 0 0 0 0 0 0 0 0 0
Neighs:              0 ave           0 max           0 min
Histogram: 1 0 0 0 0 0 0 0 0 0

Total # of neighbors = 0
Ave neighs/atom = 0
Ave special neighs/atom = 4.8
Neighbor list builds = 2140
Dangerous builds = 0
Total wall time: 0:00:03
