LAMMPS data file via write_data, version 4 Feb 2025, timestep = 320000, units = lj

4650 atoms
4 atom types
3150 bonds
1 bond types
1875 angles
2 angle types

-11.917153 11.917153 xlo xhi
-11.917153 11.917153 ylo yhi
-11.917153 11.917153 zlo zhi
2.1316282072803006e-14 0 0 xy xz yz

Masses

1 1
2 1
3 0.1
4 0.1

Bond Coeffs # harmonic/omp

1 100 0.45

Angle Coeffs # harmonic/omp

1 100 180
2 100 109.471

Atoms # full

3174 1008 4 0 -2.6562923715398874 -7.064783337781721 -11.098606854946464 4 0 1
3172 1008 2 0 -2.6614054002917626 -7.097610925419489 -11.53976529309258 4 0 1
2918 923 4 0 -4.6800677664360215 -5.905536829505266 -11.771892670026208 4 0 0
3021 957 4 0 -4.3234986644925915 -5.7959921035532735 -11.592602039933855 4 0 0
3019 957 2 0 -4.066245207266862 -5.869620541832311 -11.238785247812144 4 0 0
1741 531 2 0 -8.28767408762788 -3.3123847947786356 -11.629625924318288 14 1 0
1742 531 4 0 -8.139897350392491 -3.363314409696617 -11.214291151700959 14 1 0
2912 921 4 0 -5.254162327543614 -6.710595012103443 -10.281278697228156 4 0 0
2814 888 4 0 -4.903351406464661 -6.6429393269165935 -10.433689142964985 4 0 0
2812 888 2 0 -4.517910084950102 -6.747292686037723 -10.611428361869027 4 0 0
2813 888 4 0 -4.117130631253916 -6.864360999499479 -10.797184327128225 4 0 0
3267 1039 4 0 -3.8202997974134707 -6.93845846849149 -10.564775734621563 4 0 1
3265 1039 2 0 -3.4106794931855884 -6.902665611091707 -10.728052429544292 4 0 1
3266 1039 4 0 -2.9528624570592825 -6.86785412251743 -10.904820429067412 4 0 1
3348 1066 4 0 -2.620213735792584 -6.676005146322376 -10.98713783894623 4 0 1
3020 957 4 0 -3.8055074178832307 -5.950128959301981 -10.875292679227126 4 0 0
2582 811 4 0 -3.778659787735174 -5.912733614744485 -10.476794378749979 4 0 0
2581 811 2 0 -3.50491197908827 -5.762655383074613 -10.183213680511837 4 0 0
3346 1066 2 0 -2.355774851813612 -6.3410154179120894 -10.742353760807804 4 0 1
3347 1066 4 0 -2.127429813025273 -6.035077394550278 -10.517123240235161 4 0 1
3422 1091 4 0 -2.003362414177097 -5.737663890492808 -10.310989669979113 4 0 1
3421 1091 2 0 -1.589181484386053 -5.542917505629993 -10.218081168260566 4 0 1
3246 1032 4 0 -0.8635849592655251 -5.524220419352887 -10.344667805667163 4 0 1
3244 1032 2 0 -0.49650387874235946 -5.7220920639034 -10.199666004040031 4 0 1
3423 1091 4 0 -1.179427115208867 -5.363854388922597 -10.11854466013444 4 0 1
1791 547 4 0 -7.916039725669072 -3.3542668897696384 -10.885942895075306 14 1 0
1789 547 2 0 -7.867573159266549 -3.3157795841578093 -10.435237306201225 14 1 0
858 236 4 0 -4.205683556197817 -1.8951339651091033 -10.687385066901278 7 0 0
1267 373 2 0 -8.64047009419614 -1.1836845933833633 -10.206933298902898 7 0 1
1269 373 4 0 -9.085165720058782 -1.32280224499406 -10.164610822605233 7 0 1
1268 373 4 0 -8.198014773188078 -1.0422367502421697 -10.240677157841716 7 0 1
674 175 4 0 -6.825525202334705 -1.2648074177218565 -10.11089391322535 7 0 0
856 236 2 0 -3.842688141241034 -1.7219963630151742 -10.466185954751522 7 0 0
857 236 4 0 -3.480550160694241 -1.5472089656439731 -10.23926519568949 7 0 0
3360 1070 4 0 -7.906075802994916 -0.7948549486779815 -10.404978583196906 8 0 1
3358 1070 2 0 -7.4199960499929745 -0.8408136196178067 -10.33449432370962 8 0 1
3359 1070 4 0 -6.956706084056406 -0.8812366641785285 -10.258438448874104 8 0 1
4129 1327 2 0 -8.395517592606327 -11.885116102696268 -9.394746555487224 11 1 0
2850 900 4 0 -7.759999022118915 -11.696276340014048 -9.647510703967175 7 0 0
2848 900 2 0 -7.342747943213668 -11.890389726688596 -9.671504732312702 7 0 0
4131 1327 4 0 -8.072862632770597 -11.600749337451491 -9.389497569450768 11 1 0
3730 1194 2 0 -5.63719723335491 -11.396375184585844 -9.438973281511835 12 1 0
3732 1194 4 0 -5.283895154373292 -11.501325167938901 -9.745956351050502 12 1 0
4233 1361 4 0 -4.90856358875713 -11.600240765730383 -9.628236416430635 12 1 1
4231 1361 2 0 -4.464120505271662 -11.64946504077137 -9.589442683128972 12 1 1
4232 1361 4 0 -4.006317850443095 -11.707675769416644 -9.55789580330315 12 1 1
4487 1446 4 0 -3.629694131289096 -11.54233642935176 -9.609131973791877 12 1 1
4486 1446 2 0 -3.4414715081321017 -11.16484260360161 -9.492713462153866 12 1 1
4488 1446 4 0 -3.242552436615208 -10.763396146799755 -9.367682964773566 12 1 1
2967 939 4 0 -4.043495321087273 -7.696090316085265 -9.7628857174038 4 0 0
2965 939 2 0 -3.8980475127293897 -7.34475004834548 -9.491625979760935 4 0 0
2911 921 2 0 -5.334254131351279 -6.565073564381712 -9.87321131559974 4 0 0
2966 939 4 0 -3.760560862545031 -6.977136074476436 -9.206184890970976 4 0 0
757 203 2 0 -1.692910229366671 -6.758121018717724 -9.287361807529564 3 0 0
758 203 4 0 -1.2825345800656596 -6.563204884645663 -9.42268364525469 3 0 0
43 9 3 0 -0.9371813623939431 -6.5575575712215395 -9.65509032849356 3 0 0
44 9 3 0 -0.3796035464632457 -6.765070941013228 -9.217187564699996 3 0 0
2913 921 4 0 -5.408456988092489 -6.410494702454826 -9.448505357147173 4 0 0
2583 811 4 0 -3.1873721258252576 -5.600699859285497 -9.85188059385422 4 0 0
219 44 3 0 -3.22402225825701 -5.586218766443952 -9.455398006612704 4 0 0
41 9 1 0 -0.5902608733943158 -6.411714718064827 -9.395387193635196 3 0 0
42 9 3 0 -0.24999669151571524 -6.119355070157741 -9.687716049201768 3 0 0
3245 1032 4 0 -0.10792894625289051 -5.944000635525052 -10.03215065985331 4 0 1
2659 837 2 0 -1.9429062950164546 -4.921105838189789 -9.229356313469296 4 0 0
2660 837 4 0 -1.4979188230581446 -4.893679773294868 -9.353701999569843 4 0 0
2543 798 4 0 -1.1092466382121966 -4.992566391048665 -9.281187815383237 4 0 0
1206 352 4 0 -9.684976489717195 -3.997895205012517 -9.345236338092231 6 0 1
1204 352 2 0 -9.48312118704513 -3.591727854956485 -9.37227712859229 6 0 1
1205 352 4 0 -9.283888814870405 -3.202618900369144 -9.402567104092332 6 0 1
870 240 4 0 -8.889737671494974 -3.081852780410065 -9.339471223001876 6 0 0
868 240 2 0 -8.486617527378383 -3.0986651611192 -9.530680468460023 6 0 0
869 240 4 0 -8.083642284904201 -3.10371193867611 -9.72440429002017 6 0 0
1790 547 4 0 -7.828086567729582 -3.2653993454045516 -10.009102585517047 14 1 0
977 276 4 0 -9.91305914423939 -2.0416080348560026 -9.646297508385729 7 0 1
976 276 2 0 -9.512750409129268 -1.8639712454363409 -9.880361861385966 7 0 1
1127 326 4 0 -11.038669177409506 -1.7014399657452 -9.505663615563433 7 0 1
1126 326 2 0 -10.565881603445366 -1.7151616032036863 -9.51691553846141 7 0 1
1128 326 4 0 -10.152075556111553 -1.7292048723934883 -9.530668757502472 7 0 1
978 276 4 0 -9.154867640544676 -1.7006901406481472 -10.08262643237094 7 0 1
673 175 2 0 -6.468708149407786 -1.5399570074372466 -9.99787161580582 7 0 0
675 175 4 0 -6.112972878018619 -1.8122780477826357 -9.89033044628191 7 0 0
1028 293 4 0 -5.7306931719468945 -1.7503170814553055 -9.77030524786076 7 0 1
1027 293 2 0 -5.3809694974942 -1.4981151870929867 -9.647482180977072 7 0 1
1029 293 4 0 -5.024388122965107 -1.2341076827893254 -9.520482441974229 7 0 1
884 245 4 0 -3.7293632542167465 -0.9460385721535118 -9.293729272233337 7 0 0
883 245 2 0 -3.5608999633832017 -1.0846878823452908 -9.632955580853038 7 0 0
885 245 4 0 -3.3618374627781655 -1.2395859013556834 -10.031037997915485 7 0 0
2569 807 2 0 -11.60069810563684 -11.014287945703774 -8.523166702391753 2 0 0
2570 807 4 0 -11.165646037411838 -11.042158692302264 -8.638017142627982 2 0 0
3731 1194 4 0 -5.966512192171633 -11.304577982182805 -9.155698109367892 12 1 0
2568 806 4 0 -10.780582103616268 -10.980589074688588 -8.54051570194256 2 0 0
3206 1019 4 0 -8.051339796606687 -9.276350797032439 -8.707304639934405 3 0 0
3205 1019 2 0 -8.182252099074178 -9.140263828279693 -8.272146031825518 3 0 0
2923 925 2 0 -2.1738765723628486 -7.542247120670997 -8.648193070286228 4 0 0
2924 925 4 0 -2.188299858991847 -7.822361113238614 -8.280468689251903 4 0 0
2565 805 4 0 -5.563329593996314 -6.438198150718426 -9.07314516793833 4 0 0
2494 782 2 0 -4.137260180319371 -6.7103056460157084 -8.661749635643558 4 0 0
2496 782 4 0 -4.531171964463453 -6.62343246543691 -8.475933285048452 4 0 0
2495 782 4 0 -3.7510122488811835 -6.798950659239071 -8.841255713112622 4 0 0
2603 818 4 0 -3.4070145678077584 -6.756915836544049 -9.04961724810293 4 0 0
2602 818 2 0 -2.956474486969963 -6.864624701032812 -9.048999802613922 4 0 0
759 203 4 0 -2.0597621268237205 -6.9351137806849446 -9.156740528175861 3 0 0
2604 818 4 0 -2.454536158100799 -6.986381916689134 -9.061688443675969 4 0 0
2925 925 4 0 -2.169939827793213 -7.279683994809318 -8.987495400410536 4 0 0
2563 805 2 0 -5.20814546638125 -6.411713306663034 -8.771923187146697 4 0 0
2564 805 4 0 -4.873743731288241 -6.394866840434956 -8.480619714916234 4 0 0
217 44 3 0 -2.8837819566315552 -5.852799398360213 -8.874630754994417 4 0 0
550 134 2 0 -1.2382008850016941 -6.110235630810668 -8.301158905051944 3 0 0
552 134 4 0 -0.9664059767970592 -6.072357053577229 -8.687645898164766 3 0 0
2544 798 4 0 -0.8428376689668884 -5.784826169249531 -8.919743634154303 4 0 0
45 9 3 0 -0.757868353061653 -6.13774249280265 -9.04728768618597 3 0 0
220 44 3 0 -3.392871796373216 -5.334515640875085 -8.78259696279544 4 0 0
216 44 1 0 -3.0593001190004347 -5.484498471076155 -9.044723757654507 4 0 0
2796 882 4 0 -3.6347509582107396 -5.339303933705593 -8.468734403641003 4 0 0
2661 837 4 0 -2.3823626095743187 -4.948648748359664 -9.10394342300801 4 0 0
218 44 3 0 -2.7291404455888113 -5.160855423313502 -9.086431449902747 4 0 0
2542 798 2 0 -0.9725956720644025 -5.392462160770189 -9.09146826392636 4 0 0
2108 653 4 0 -4.897736852510152 -1.238251300613932 -9.147300985175935 15 1 1
2107 653 2 0 -4.501445205416862 -1.0632118752675268 -9.120884063617423 15 1 1
2109 653 4 0 -4.053288302745845 -0.8577158059178256 -9.088398465819095 15 1 1
756 202 4 0 -3.7261214381219343 -0.599308516081555 -9.10330049379159 7 0 0
754 202 2 0 -3.66803063109373 -0.4705590524980341 -8.684716162787119 7 0 0
755 202 4 0 -3.6017640314091963 -0.3267876115773909 -8.252221708975998 7 0 0
2566 806 2 0 -10.489103660043055 -10.844580827943904 -8.222170616516841 2 0 0
2567 806 4 0 -10.190483062797206 -10.708105444870112 -7.912241168283181 2 0 0
2634 828 4 0 -9.897756490024785 -10.808262853198396 -7.668978304005757 3 0 0
2632 828 2 0 -9.493987319066179 -10.715597254403992 -7.5413897737786 3 0 0
2633 828 4 0 -9.086413042381176 -10.624614982715515 -7.402148594092649 3 0 0
3207 1019 4 0 -8.309464740841998 -9.016510582752382 -7.857120171180412 3 0 0
862 238 2 0 -8.257623993292512 -8.600413293173219 -7.340315781985117 2 0 0
864 238 4 0 -8.025089845259389 -8.771855743485013 -7.683182407321886 2 0 0
2954 935 4 0 -11.744425560800227 -8.246531629629313 -7.802411369659867 3 0 0
2784 878 4 0 -11.36300726430966 -8.121280069384099 -7.688191175763299 3 0 0
2782 878 2 0 -10.920022657776416 -8.05208304133648 -7.582111270914349 3 0 0
2783 878 4 0 -10.441734088666111 -7.9912568813709886 -7.483272047021526 3 0 0
2626 826 2 0 -8.535607329949709 -7.370611217979189 -7.350585510366685 4 0 0
3537 1129 4 0 -2.3136526985797943 -8.128511640884554 -8.028084652128415 4 0 1
3535 1129 2 0 -1.9600823403911942 -8.09693921292742 -7.758541131064061 4 0 1
3536 1129 4 0 -1.5966055426029069 -8.077734488787447 -7.476427160147256 4 0 1
467 106 4 0 -1.3073256015518933 -7.962212345195621 -7.743674409080156 3 0 0
466 106 2 0 -0.9085667746857631 -7.852863963745186 -7.956934205292144 3 0 0
468 106 4 0 -0.5251474871777067 -7.737400550032456 -8.176736239339396 3 0 0
224 45 3 0 -0.18595920599432425 -7.538591131454712 -8.138920462623881 4 0 0
2628 826 4 0 -8.09098455210847 -7.236829954104695 -7.413067228708048 4 0 0
2596 816 2 0 -2.190266633599606 -6.50477883427209 -7.528217378602483 4 0 0
2597 816 4 0 -2.545091173739399 -6.732385313412839 -7.353376925975775 4 0 0
2653 835 2 0 -4.836704266270279 -5.834416874846398 -7.3992939022823645 4 0 0
2654 835 4 0 -4.433930543126232 -5.764400592946455 -7.574900248934272 4 0 0
2795 882 4 0 -4.262973420025455 -5.7298331695308855 -7.935991494648422 4 0 0
2794 882 2 0 -3.948559442557829 -5.534121709756263 -8.203200807903357 4 0 0
2598 816 4 0 -1.8319411006859259 -6.279249808920907 -7.697525458470628 4 0 0
280 56 3 0 -1.6884505845357012 -5.881037119807855 -7.664781485652857 4 0 0
551 134 4 0 -1.5116879470217945 -6.143928812499238 -7.9256893416966445 3 0 0
278 56 3 0 -2.2032055413107106 -5.354672144734299 -7.636692724572201 4 0 0
276 56 1 0 -1.7601708260209126 -5.437554042703557 -7.660842202318116 4 0 0
279 56 3 0 -1.583725358542054 -5.25176001341932 -8.03503417736204 4 0 0
527 126 4 0 -6.593998089218898 -3.705194831671898 -7.551673177555735 6 0 0
526 126 2 0 -6.923198484437788 -3.4810872339530636 -7.401212127189793 6 0 0
3512 1121 4 0 -4.286033975089693 -2.9709417125834445 -7.6368579531129495 7 0 0
1274 375 4 0 -11.20751093406594 -2.511593066622897 -7.798678509318243 7 0 0
581 144 4 0 -11.628486703003851 -2.493228966826857 -7.728275237655928 7 0 0
1273 375 2 0 -10.838210716645229 -2.254753464495879 -7.733194718497481 7 0 0
1275 375 4 0 -10.474037912595332 -2.012849242709864 -7.6638184938328155 7 0 0
425 92 4 0 -10.085340759154343 -2.0674222223002126 -7.7182513334823275 7 0 0
424 92 2 0 -9.741413019084964 -1.8691001284907554 -7.963994223619194 7 0 0
426 92 4 0 -9.402749133297835 -1.6736199119846713 -8.19559185464337 7 0 0
439 97 2 0 -8.558698728420776 -1.635959800009445 -8.214759207405674 7 0 0
440 97 4 0 -9.006643454179441 -1.7556320153840996 -8.184044592182094 7 0 0
441 97 4 0 -8.11869132381562 -1.5201111337737512 -8.242564879287606 7 0 0
687 179 4 0 -3.723298928592685 -0.5415626348610179 -7.957334215754036 7 0 0
685 179 2 0 -3.546207435379232 -0.6018558399202512 -7.532957454456423 7 0 0
4099 1317 2 0 -2.3433384562038384 -10.112406876113326 -6.721825733895248 10 1 0
4100 1317 4 0 -1.9292163373453945 -10.22595389003742 -6.829501839655375 10 1 0
4091 1314 4 0 -1.535148604693676 -10.396746295854332 -6.928577676667804 10 1 0
4090 1314 2 0 -1.1818011258527132 -10.302102083440099 -6.697385474144299 10 1 0
4092 1314 4 0 -0.7948396796290869 -10.192501268062308 -6.4495227518387175 10 1 0
4101 1317 4 0 -2.7635449548133195 -10.002286463908932 -6.602997074674269 10 1 0
863 238 4 0 -8.502048070463708 -8.429115999760992 -6.998006630007157 2 0 0
2978 943 4 0 -10.20788329683169 -7.775215067325624 -7.264897400996215 3 0 0
2977 943 2 0 -9.767238576365955 -7.72990974831371 -7.257969197019572 3 0 0
2979 943 4 0 -9.31327204955527 -7.67648191985462 -7.242237497187265 3 0 0
2627 826 4 0 -8.933797028540283 -7.490766551155994 -7.294784534672085 4 0 0
234 47 3 0 -6.06636917463156 -6.517922899280255 -7.15038311124736 4 0 0
232 47 3 0 -5.588008668207655 -6.649164675736908 -6.599771165496396 4 0 0
3227 1026 4 0 -3.577011640353973 -7.202336883881904 -6.592985801825851 4 0 0
3226 1026 2 0 -3.219002772592953 -7.0294580657444925 -6.864670846403327 4 0 0
3228 1026 4 0 -2.8650186236388997 -6.851780369036276 -7.137304073790257 4 0 0
2920 924 2 0 -0.9623820422421971 -6.547949887088264 -6.55611874944537 4 0 0
2921 924 4 0 -0.8035819283589838 -6.446935014893498 -6.9553072168046235 4 0 0
795 215 4 0 -9.665379411045018 -6.246026099686915 -6.634316639727826 5 0 0
231 47 1 0 -5.842538704331736 -6.332736984448774 -6.806047098532154 4 0 0
235 47 3 0 -6.17152782000265 -6.140794875945057 -6.478323207730386 4 0 0
233 47 3 0 -5.56686575193805 -5.998975739928056 -6.956735829915973 4 0 0
2655 835 4 0 -5.254841171837786 -5.910001487059849 -7.215215322928868 4 0 0
3684 1178 4 0 -0.5848715386382537 -6.100973059426113 -7.01552148032124 12 1 0
3682 1178 2 0 -0.2621919867790403 -6.124765044299115 -7.293524286136733 12 1 0
277 56 3 0 -1.5615615600916914 -5.260323919091102 -7.294826590364185 4 0 0
2817 889 4 0 -1.2132216938447336 -5.168072738455067 -7.138984931854917 4 0 0
2815 889 2 0 -0.8275240469721457 -5.189768594696019 -6.859985082280173 4 0 0
2816 889 4 0 -0.4476279049099894 -5.211509358006627 -6.590946130870071 4 0 0
194 39 3 0 -0.06337936655592458 -5.116001025808477 -6.56262622449497 4 0 0
485 112 4 0 -11.055359341867442 -4.355028681922417 -7.228538264414759 5 0 0
484 112 2 0 -11.441912862173076 -4.448698471566145 -7.025809813816697 5 0 0
486 112 4 0 -11.826842312530264 -4.546603910752296 -6.82544170992589 5 0 0
386 79 4 0 -10.654842678045807 -4.336663290681773 -7.15377789324149 6 0 0
385 79 2 0 -10.289129243509505 -4.091615051725196 -7.245331212493257 6 0 0
387 79 4 0 -9.917834826407695 -3.84780750328542 -7.326473090955587 6 0 0
984 278 4 0 -9.559592477038327 -3.7858408915328408 -7.139019954395459 6 0 1
982 278 2 0 -9.153369536304828 -3.7678696472225077 -6.967337517704218 6 0 1
983 278 4 0 -8.732731235163566 -3.74144560699572 -6.787300156969302 6 0 1
1758 536 4 0 -4.332850443825797 -3.8476562227239626 -6.684736346386599 7 0 0
1886 579 4 0 -1.445766907767224 -3.850384512975671 -7.238152787251009 7 0 0
1885 579 2 0 -1.4903357971828761 -3.7806121127001546 -6.780405847069108 7 0 0
735 195 4 0 -8.344466205870962 -3.5919634177037523 -6.779822522511387 6 0 0
733 195 2 0 -7.992265960596553 -3.4736261207306836 -7.045122022353482 6 0 0
734 195 4 0 -7.634618144822804 -3.362289535399457 -7.318481411595039 6 0 0
528 126 4 0 -7.258169035889604 -3.2647277591223585 -7.244741645738138 6 0 0
3511 1121 2 0 -4.309891149658461 -3.235997119188889 -7.24114778798809 7 0 0
3513 1121 4 0 -4.338401504582931 -3.4881247406833786 -6.872837065995032 7 0 0
99 20 3 0 -0.8500017737519325 -2.85320499019166 -6.554695118203661 7 0 0
3775 1209 2 0 -2.168319183544291 -1.973539941276691 -6.874614359099933 8 0 0
3777 1209 4 0 -2.0475927864613777 -2.1577367698902474 -7.311940131590112 8 0 0
2884 912 2 0 -3.468595315431992 -1.3591782757771895 -6.646012424787183 7 0 0
2886 912 4 0 -3.4448916236253275 -0.9764715847634928 -6.901959654394308 7 0 0
3776 1209 4 0 -2.287240277048607 -1.7774499859655855 -6.44451289538736 8 0 0
1715 522 4 0 -3.0514012131310615 -0.8920988626616264 -6.977680352418657 7 0 0
686 179 4 0 -3.3708326824004615 -0.671026088543611 -7.1324015890159504 7 0 0
1714 522 2 0 -2.5834529478862347 -0.8068907327601487 -7.060540224504795 7 0 0
1716 522 4 0 -2.1263519974993788 -0.7179453055215337 -7.14629404626387 7 0 0
3978 1276 4 0 -1.8130725408076689 -0.49493526103824514 -6.984141358682135 16 1 0
3976 1276 2 0 -1.3608951076860532 -0.5283063272298492 -6.928651272517608 16 1 0
3977 1276 4 0 -0.8821299909519258 -0.5725265821993215 -6.860750161485513 16 1 0
677 176 4 0 -0.5741304123390165 -0.7609830168371055 -6.746959106264533 7 0 0
676 176 2 0 -0.19683117278242612 -0.7086840584592533 -6.5216794150270125 7 0 0
3828 1226 4 0 -3.033919673036012 -10.101237725164417 -6.330499259849583 10 1 0
3826 1226 2 0 -3.1440269035655124 -10.220804764798457 -5.924574369316439 10 1 0
3827 1226 4 0 -3.2554267551372984 -10.34088847179077 -5.520551801571358 10 1 0
4020 1290 4 0 -0.7019999837307953 -9.8469147556827 -6.243303719404324 10 1 0
4018 1290 2 0 -0.5117962521147188 -9.913492828737947 -5.859670363756511 10 1 0
2619 823 4 0 -2.597131954157364 -8.406184557518014 -5.594193510082307 3 0 0
811 221 2 0 -1.0299778233890429 -8.829164663465985 -5.54165260227533 2 0 0
812 221 4 0 -1.4191094553885897 -9.069997627372853 -5.625464658227005 2 0 0
2579 810 4 0 -8.357924476417407 -7.492991368995504 -5.6903902021959025 4 0 0
2519 790 4 0 -8.738869668178985 -7.606666979377367 -5.605322040821696 4 0 0
187 38 3 0 -3.9090456550297947 -7.565150489161663 -5.7403375982304325 4 0 0
3987 1279 4 0 -2.9522356636541254 -8.2433392518417 -5.5876640363045595 11 1 0
2489 780 4 0 -2.601543436847459 -7.5580716479629215 -5.511604745310635 4 0 0
2617 823 2 0 -2.249279481202551 -8.161977014216113 -5.811438917590639 3 0 0
2618 823 4 0 -1.897496755250943 -7.926519117484694 -6.035307195097629 3 0 0
3269 1040 4 0 -1.4867841555117085 -7.981325344676998 -6.0341056361488565 3 0 0
3268 1040 2 0 -1.0814517089329936 -7.820904966451974 -6.059075081093596 3 0 0
3270 1040 4 0 -0.6706768515780155 -7.640035064284862 -6.075687611206569 3 0 0
4032 1294 4 0 -0.3043619759017133 -7.478164845232538 -6.164526691485604 11 1 0
2578 810 2 0 -7.940781616263269 -7.267327264446283 -5.793557045496363 4 0 0
2580 810 4 0 -7.52034780012695 -7.05264632330651 -5.89828184512347 4 0 0
2760 870 4 0 -7.230136634114964 -6.837092097753723 -6.101606494927805 4 0 0
2758 870 2 0 -6.874993297528083 -6.5276208452094595 -6.225909953997336 4 0 0
2846 899 4 0 -5.366656750416795 -6.8598252456901445 -6.362801973244648 4 0 0
2845 899 2 0 -5.031714769630726 -6.882208622354045 -6.045937318767355 4 0 0
2847 899 4 0 -4.698354507415831 -6.899326788837627 -5.721775251939 4 0 0
2529 793 4 0 -4.384281284967968 -6.833771377160801 -5.510670930556609 4 0 0
188 38 3 0 -4.349448741092241 -7.059736563042019 -5.838613185021594 4 0 0
190 38 3 0 -3.9126656221646616 -7.212642174069589 -6.35249307233881 4 0 0
186 38 1 0 -3.979598946469528 -7.1755594864381065 -5.909446205382058 4 0 0
189 38 3 0 -3.693152506184644 -6.8912064350553175 -5.7310405047050414 4 0 0
2488 780 2 0 -2.954232069864041 -7.273434113072085 -5.606731252686005 4 0 0
2490 780 4 0 -3.2975569924576114 -6.993586765458324 -5.704936941267378 4 0 0
2688 846 4 0 -1.2374262675966339 -6.666672822386541 -5.758547464984843 4 0 0
2922 924 4 0 -1.1203177996811924 -6.647055123975516 -6.145519252050996 4 0 0
793 215 2 0 -9.53675281251291 -5.910568059041866 -6.377415812871566 5 0 0
794 215 4 0 -9.413608459603514 -5.589566360714704 -6.1264406423277045 5 0 0
2759 870 4 0 -6.551038385885282 -6.246384203706054 -6.357777485304435 4 0 0
2711 854 4 0 -6.340025215747066 -5.906294558963639 -6.223021600954366 4 0 0
2710 854 2 0 -6.1525327847665245 -5.570731921045916 -6.037724001714335 4 0 0
588 146 4 0 -9.1027230974273 -5.435710572701778 -5.89268507970483 5 0 0
586 146 2 0 -8.913514536799976 -5.157491335789672 -5.591397279891003 5 0 0
2712 854 4 0 -5.954068831701568 -5.218997408233898 -5.842545661371514 4 0 0
2025 625 4 0 -2.580601754726983 -5.425299954408962 -5.541234864615414 4 0 0
2023 625 2 0 -2.1087985388254147 -5.404121894306136 -5.524278446031372 4 0 0
2024 625 4 0 -1.6532479167336938 -5.3773563454100275 -5.505244393481841 4 0 0
1254 368 4 0 -1.2418706843400855 -5.427792252895658 -5.573709663001108 4 0 0
1252 368 2 0 -0.804685441891893 -5.443878286834563 -5.6296964642081395 4 0 0
1253 368 4 0 -0.3237491284577523 -5.4535724799681216 -5.678551596611201 4 0 0
1756 536 2 0 -4.062602799596401 -3.873915965406743 -6.272859445536487 7 0 0
1757 536 4 0 -3.817776606408721 -3.89571635464487 -5.8767520408423515 7 0 0
2866 906 2 0 -1.000038407911319 -3.834121682554464 -5.75979047449368 5 0 0
1887 579 4 0 -1.5388296215938588 -3.720130505708994 -6.343357910279327 7 0 0
649 167 2 0 -6.448914417413833 -2.9619123315073317 -5.562889817875404 5 0 0
650 167 4 0 -6.043530841621498 -3.030474936409872 -5.768938491915968 5 0 0
1620 490 4 0 -5.660474384176132 -2.897789414854971 -5.814208072692503 7 0 0
2748 866 4 0 -3.471750115895711 -3.6455856685781267 -5.890792472731227 7 0 0
2746 866 2 0 -3.133920019700442 -3.483578768223918 -5.676650720196601 7 0 0
2868 906 4 0 -1.302415613125774 -3.631321652771156 -6.042930210451163 5 0 0
1618 490 2 0 -5.323653461775393 -2.655671712344173 -6.0091991133768445 7 0 0
1619 490 4 0 -4.967697579649335 -2.401117930047892 -6.205676857543359 7 0 0
1730 527 4 0 -4.606380901185163 -2.3374888585364033 -6.063796022559278 7 0 0
1729 527 2 0 -4.170780037736258 -2.1577100433833216 -6.141544637808742 7 0 0
1731 527 4 0 -3.7178024781059023 -1.9645223530550382 -6.2251401433600835 7 0 0
25 5 3 0 -3.2755379305425247 -1.955886287349049 -6.180853320751112 7 0 0
21 5 1 0 -2.8816336786886776 -2.088893033934143 -6.030201817479552 7 0 0
23 5 3 0 -2.883322974510012 -2.119226592199894 -5.574986878614295 7 0 0
22 5 3 0 -2.781330423279286 -2.488033237931649 -6.205592923255133 7 0 0
806 219 4 0 -2.438703055324206 -2.71292487302607 -6.111448997041619 7 0 0
805 219 2 0 -1.9552535131093496 -2.7304471578993326 -6.087575406648947 7 0 0
807 219 4 0 -1.5186130513714318 -2.733981823919228 -6.069122311013349 7 0 0
98 20 3 0 -1.2389962065092952 -2.434476540157334 -6.058373355430147 7 0 0
97 20 3 0 -0.6185462680114018 -2.1695803440150225 -6.345991492106036 7 0 0
100 20 3 0 -0.5795477327808687 -2.7148636567927618 -5.868106325436446 7 0 0
96 20 1 0 -0.8159763511482048 -2.543098443112802 -6.203851266919518 7 0 0
642 164 4 0 -0.2037900946579363 -2.0503496530858776 -6.378863996077755 7 0 0
1746 532 4 0 -0.3501824241636591 -2.5724640175084215 -5.567641507295125 7 0 0
2885 912 4 0 -3.503378566300265 -1.714170424662134 -6.405013648748182 7 0 0
24 5 3 0 -2.5654258603357842 -1.7907460909914938 -6.161567279068071 7 0 0
559 137 2 0 -0.19181675561452316 -1.2949893537603856 -5.609436127524521 7 0 0
3915 1255 4 0 -3.153205583095769 -10.208467558105088 -5.152748334124157 10 1 0
3913 1255 2 0 -2.8310871985009936 -10.325621048898899 -4.845559717145467 10 1 0
4117 1323 2 0 -0.754004811489926 -9.91391690559393 -4.744841386959078 10 1 0
4119 1323 4 0 -0.5219891752219254 -9.896800016246816 -5.140197871045607 10 1 0
4019 1290 4 0 -0.3215435470178356 -9.971530986542458 -5.476207279737441 10 1 0
3923 1258 4 0 -0.16356466154947036 -9.735148351913185 -5.185586484493399 10 1 0
3700 1184 2 0 -9.918650219730637 -8.57137155521305 -4.778705374079343 12 1 0
3985 1279 2 0 -3.3094271357565965 -8.458011375987637 -5.4125756690967375 11 1 0
3986 1279 4 0 -3.6597968319097287 -8.664423608784398 -5.253732751344565 11 1 0
4095 1315 4 0 -2.4999352697127577 -9.030852479874596 -4.936008055036059 2 0 0
4093 1315 2 0 -2.1216544339175627 -9.075604012340042 -5.156247580979339 2 0 0
2837 896 4 0 -2.6843867349650985 -9.104337879150687 -4.605150869432579 2 0 0
4094 1315 4 0 -1.7437130589515863 -9.127278341445955 -5.374768474116689 2 0 0
813 221 4 0 -0.6501483416792961 -8.60474637646244 -5.4356643950311625 2 0 0
3855 1235 4 0 -0.2944027779268943 -8.436104234691438 -5.451100303274645 10 1 0
991 281 2 0 -11.372426301231021 -7.968309174373565 -5.011174198083994 3 0 0
993 281 4 0 -11.778233925298368 -8.125919889265221 -4.8750964780954575 3 0 0
992 281 4 0 -10.969472158475503 -7.806636235238437 -5.142866677741799 3 0 0
329 66 3 0 -10.593504941170167 -7.792507511349493 -5.244175518592353 12 1 0
326 66 1 0 -10.28577286253165 -7.566698815880607 -4.975997513715268 12 1 0
3701 1184 4 0 -9.80689183451218 -8.151594460197371 -4.975765066984788 12 1 0
327 66 3 0 -9.870723706763332 -7.7711557618853835 -5.012083947567971 12 1 0
2520 790 4 0 -9.475672312362835 -7.9066877801638675 -5.092190789948038 4 0 0
2518 790 2 0 -9.098297063766307 -7.755582095182393 -5.353297346013328 4 0 0
2732 861 4 0 -2.2964944729143753 -7.530315203629677 -5.2396026570192795 4 0 0
3196 1016 2 0 -0.24602489842290254 -7.346742432294519 -4.902241100679632 4 0 0
328 66 3 0 -10.264814705813208 -7.132489236692681 -5.105336497741649 12 1 0
2528 793 4 0 -4.672906497970091 -6.76625309376639 -4.604898977843496 4 0 0
2527 793 2 0 -4.541716730592889 -6.796892850296461 -5.024423181548415 4 0 0
2715 855 4 0 -3.46217894764448 -6.698792727593772 -5.498207582015592 4 0 0
2731 861 2 0 -2.0550179798012653 -7.323752715110688 -4.928293025992444 4 0 0
2733 861 4 0 -1.7923582333543884 -7.102393387131422 -4.603819745868999 4 0 0
2686 846 2 0 -1.0287733041803744 -6.744170637936755 -5.366855424899765 4 0 0
82 17 3 0 -0.9255840086233995 -7.02268704641364 -4.614447720307081 3 0 0
2687 846 4 0 -0.8285543944866038 -6.836021347721162 -4.979700615064228 4 0 0
3198 1016 4 0 -0.6414196774285532 -7.153319599940678 -4.843475815193507 4 0 0
692 181 4 0 -11.745571728657108 -5.946260829404526 -5.045724305718935 3 0 0
2713 855 2 0 -3.4509045320153113 -6.378211627605122 -5.194001646655631 4 0 0
2714 855 4 0 -3.426810941167064 -6.054902016423867 -4.885301388567519 4 0 0
587 146 4 0 -8.735968432113527 -4.895262122557102 -5.310750621204426 5 0 0
3323 1058 4 0 -4.977204828248697 -5.228538329641154 -4.759015842926925 5 0 0
3324 1058 4 0 -4.170817802858836 -5.266577986580045 -5.147190889647688 5 0 0
3322 1058 2 0 -4.578933183121436 -5.245422031966657 -4.949776921919834 5 0 0
1110 320 4 0 -3.8543183320113847 -5.198058913998677 -5.331890797231426 4 0 0
1109 320 4 0 -2.9734088728433843 -5.299731718783123 -5.401866301418906 4 0 0
1108 320 2 0 -3.3910440818547 -5.251238916421252 -5.371264007680202 4 0 0
572 141 4 0 -1.9379412396427806 -3.795060866505592 -4.849738163649618 6 0 0
2867 906 4 0 -0.7046189013828528 -4.028777949396656 -5.491514064764107 5 0 0
2648 833 4 0 -0.4427839628310508 -4.299769780740385 -5.348406590238015 5 0 0
658 170 2 0 -7.345503439271678 -2.89383546781146 -4.939395264410363 5 0 0
659 170 4 0 -7.664377685187648 -3.175440021388477 -4.775506134796445 5 0 0
651 167 4 0 -6.865819951769888 -2.8981067331722965 -5.363988575250719 5 0 0
2747 866 4 0 -2.786257940885422 -3.3148155980642358 -5.469467236179473 7 0 0
573 141 4 0 -2.488234541605669 -3.1808611274216414 -5.241067174413537 6 0 0
571 141 2 0 -2.214256260297338 -3.497724746697447 -5.042278534967012 6 0 0
660 170 4 0 -7.042216702826912 -2.6262203826612236 -5.099233796043083 5 0 0
1744 532 2 0 -0.1513072544357854 -2.395333494488055 -5.2226473743294 7 0 0
724 192 2 0 -4.150548142084262 -1.0231471808646564 -5.154186850208043 6 0 0
725 192 4 0 -3.7765170850088907 -1.220319099955434 -5.246531408884074 6 0 0
2740 864 2 0 -3.217143524739452 -1.0450519479305367 -4.6516390720397425 7 0 0
2742 864 4 0 -3.516751096696872 -1.1559649507367773 -4.943912949608923 7 0 0
1112 321 4 0 -1.9630194534413672 -1.7954677088724704 -4.92115016000716 7 0 0
1111 321 2 0 -2.2789816695097507 -1.7080655014794122 -4.623227941925697 7 0 0
893 248 4 0 -1.736647706498724 -1.5827545982855256 -5.1790509328836345 7 0 0
892 248 2 0 -1.3540145673377086 -1.4390837842207649 -5.301651437609755 7 0 0
894 248 4 0 -0.9935284413298042 -1.3027761811297847 -5.427525572379717 7 0 0
560 137 4 0 -0.6042643500020528 -1.2487908262566325 -5.405840965177823 7 0 0
209 42 3 0 -4.842884899748776 -0.7579549080859262 -4.827489948429094 7 0 0
726 192 4 0 -4.524469896451651 -0.8154734471715788 -5.063881332576636 6 0 0
450 100 4 0 -0.5700173567507285 -0.469945151732448 -4.706833296855867 7 0 0
1073 308 4 0 -0.2569941683504382 -0.3249598347170721 -4.910118230125558 7 0 0
3914 1255 4 0 -2.507394185074448 -10.449344274303234 -4.5355542711288725 10 1 0