LAMMPS data file via write_data, version 19 Nov 2024, timestep = 100000, units = lj

79 atoms
4 atom types
54 bonds
1 bond types
35 angles
2 angle types

-3.045986 3.045986 xlo xhi
-3.045986 3.045986 ylo yhi
-3.045986 3.045986 zlo zhi
-1.120259440767768e-11 0 0 xy xz yz

Masses

1 1
2 1
3 0.1
4 0.1

Bond Coeffs # harmonic/omp

1 100 0.45

Angle Coeffs # harmonic/omp

1 100 180
2 100 109.471

Atoms # full

53 17 2 0 -2.1614389606054374 -2.9175413637309564 -0.5909568701936059 2 0 1
54 17 4 0 -1.8003223202465963 -2.719948507215933 -0.44068155681764587 1 0 1
78 25 4 0 -1.5058540849879951 -2.4909064602027584 -0.3492998826042273 1 1 1
77 25 2 0 -1.206835173364872 -2.324494833818657 -0.05387171009423808 1 1 1
32 10 2 0 -0.19615645733495102 -2.4734174482458484 0.49475807372257297 0 1 1
33 10 4 0 -0.5398036513399997 -2.196510216768904 0.40527758622817034 0 1 1
79 25 4 0 -0.915721144142267 -2.162726081034589 0.24163125744665415 1 1 1
21 6 4 0 -1.8295817147836653 -0.5505700674290015 0.9131459678853329 1 1 1
20 6 2 0 -2.1287215256175163 -0.7758169310339653 1.184000561412307 1 1 1
31 9 4 0 -1.6300631571572712 -0.3147511411347672 0.6215129808318243 1 1 1
22 6 4 0 -2.437771519190946 -1.0103178972036893 1.4630500535923776 1 1 1
29 9 2 0 -1.3576900709670228 -0.043812966336636006 0.33280115101071406 1 1 1
50 16 2 0 -2.9027928209528464 -1.5084235347131383 2.0075631748632494 1 1 1
51 16 4 0 -2.683870723674794 -1.2217978574012998 1.697849106641213 1 1 1
47 15 2 0 -2.3878306360490034 0.7284380142670126 -2.8235714889910577 1 0 0
49 15 4 0 -2.7784540831821416 0.6580798160969219 -2.635395991034803 1 0 0
16 4 4 0 -2.992246545345731 0.330998678173803 -2.7543772913887015 1 0 0
48 15 4 0 -1.9819592765853942 0.800980557040138 -3.0152538302079597 1 0 0
23 7 2 0 -0.641532243447172 0.7986944135216523 -0.43429089696004963 1 -1 1
25 7 4 0 -0.3583512763378045 1.108568241671585 -0.6661879764554528 1 -1 1
24 7 4 0 -0.9225267921813805 0.4839063663349563 -0.20271615680201238 1 -1 1
37 11 4 0 -0.11593195464297557 1.3465273453170612 -0.9084677883730627 1 0 1
9 2 3 0 -2.9484752929691123 3.006664767451155 -0.6732965943062634 2 0 1
55 17 4 0 -2.5290185285390874 2.9731772213823238 -0.7347089288435362 2 -1 1
30 9 4 0 -1.0952423601644463 0.21693867295673908 0.05217410287330848 1 1 1
46 14 4 0 -1.7070968277483913 1.001269203117138 2.8676063096349393 1 0 -1
44 14 2 0 -1.3293319933598364 1.271298104840282 2.861128685416805 1 0 -1
72 23 4 0 -0.14013532817917929 2.477646710172401 2.660802812090103 1 0 0
45 14 4 0 -0.9602909661888925 1.5283163077141326 2.866240081868294 1 0 -1
71 23 2 0 -0.4411160821658049 2.161502681584258 2.75095926881738 1 0 0
73 23 4 0 -0.7300862170232696 1.85959497562499 2.8338983539977347 1 0 0
62 20 2 0 0.4980999166260367 -2.6478772027775546 -2.6343964388864807 2 1 0
61 19 4 0 1.0474988713949198 -2.217825969162929 -2.819821686628713 1 1 0
64 20 4 0 0.9152893210998094 -2.498513108263942 -2.5719060326797627 1 1 0
59 19 2 0 1.210234886935953 -1.8050062455160256 -2.7903592262672197 1 1 0
63 20 4 0 0.06985584146034185 -2.8059856516462185 -2.695364118557625 2 1 0
26 8 2 0 1.5475504640184115 -2.9337279943281414 -2.4838917538200107 -1 0 1
28 8 4 0 1.8386192292855794 -2.7217838021587477 -2.7876853800774106 -1 0 1
60 19 4 0 1.3812277913960749 -1.3849360151054197 -2.757017546826575 1 1 0
14 4 2 0 2.8706683821639407 -0.03939679676758301 -2.7431446325185758 0 0 0
17 5 2 0 1.9818782431977375 -0.9178450288958069 -2.6139904162066725 0 0 0
19 5 4 0 1.6899500678414086 -1.2390899587694255 -2.5400682046667344 0 0 0
15 4 4 0 2.635483240340851 -0.41711257594229956 -2.73273414734258 0 0 0
18 5 4 0 2.2717193290555633 -0.5986089447566081 -2.6956660478973196 0 0 0
43 13 4 0 0.4617062371526601 -2.7698518705753714 0.8187985899337766 0 1 0
34 10 4 0 0.13977879715486097 -2.747093297542509 0.5834147299929642 0 1 1
41 13 2 0 0.5832997165275664 -2.937415707772617 1.205289756955068 0 1 0
12 3 4 0 2.6681021569259036 -1.9325531263468974 2.5853447827672875 -1 0 -1
52 16 4 0 2.9669156511561443 -1.7994152186119536 2.3182480332887048 0 1 1
11 3 2 0 2.357134679778518 -2.2008480037552847 2.812020288683354 -1 0 -1
13 3 4 0 2.0529885335631715 -2.463224676048637 3.0360878471865496 -1 0 -1
1 1 1 0 1.0055081845914424 2.3127963352304066 -1.7694591256758059 1 0 1
4 1 3 0 0.9921140103328785 2.7241655942727494 -1.9973188717087165 1 0 1
5 1 3 0 1.2233344840643827 1.9863926229637814 -2.0439634517257423 1 0 1
27 8 4 0 1.2663946543140687 2.952198237392083 -2.191265272019744 -1 -1 1
3 1 3 0 0.5512460096766625 2.1664964692524338 -1.677115069876742 1 0 1
76 24 4 0 2.7227323944232253 1.2847928279715974 -0.04590810005579149 1 0 1
2 1 3 0 1.2324153107355862 2.3604277557650084 -1.387262896277138 1 0 1
36 11 4 0 0.3495966784925808 1.9091672814184566 -1.4509489436091 1 0 1
35 11 2 0 0.11154215029080872 1.62260853966613 -1.1781422516997264 1 0 1
6 2 1 0 2.8172513414184586 2.808338913735665 -0.4763983794302433 1 0 1
74 24 2 0 2.876659476446809 1.6877490548765106 -0.2010544695365497 1 0 1
39 12 4 0 1.6281125017285776 2.350728643157156 -1.4126683564620854 1 -1 0
10 2 3 0 2.8448288621638786 2.8948951763487383 -0.03688531098117931 1 0 1
8 2 3 0 2.8471176669142357 2.3636970472386656 -0.5436497175471735 1 0 1
38 12 2 0 1.8642370634466072 2.5730802299838267 -1.1042042102967897 1 -1 0
40 12 4 0 2.0968744610457533 2.7895950958455478 -0.8028194964947994 1 -1 0
7 2 3 0 2.432361126378951 2.9602872045271944 -0.6397029252558886 1 0 1
75 24 4 0 3.0125440897081637 2.072201548234432 -0.34151645689147037 1 0 1
69 22 4 0 2.2510258136555024 1.1726028457923219 1.159392153323057 1 0 1
66 21 4 0 2.4625291875165862 0.8963739876097803 0.960250101562 1 0 1
65 21 2 0 2.5476821855393794 0.8952868728760266 0.5143218597738488 1 0 1
67 21 4 0 2.634382719046924 0.8957725905975402 0.05130006823166067 1 0 1
68 22 2 0 2.0811451851046128 1.296985974469841 1.5520587172085687 1 0 1
70 22 4 0 1.9172052201847025 1.426543452688887 1.954005750121273 1 0 1
57 18 4 0 0.2555196073493011 2.423099382891122 2.6309802382735983 1 0 1
58 18 4 0 0.7597455164778601 2.798926815070141 1.9551260345684511 1 0 1
56 18 2 0 0.5111411739500928 2.6124355766283047 2.2945256021999603 1 0 1
42 13 4 0 0.7034180214975776 2.987112219300646 1.5952987334636806 0 0 0

Velocities

53 0.17229824866238644 0.4066793117628069 -0.04697768222093589
54 0.4835133243539597 -0.7033376133565273 -0.06111348900081571
78 0.41044995324536954 0.18486313275631155 -0.06376293515313054
77 0.1335363489337043 0.08113342593901933 0.14792762331476678
32 -0.07193443668552503 0.015376273862746386 0.2627608732638977
33 0.35544792751609217 -0.473512464643457 -0.04979752655216571
79 -0.26707495459189323 0.09502412484700432 1.0390835131163505
21 -0.30423450933621826 0.6486616361103233 -0.8051564926758203
20 0.08120493435101736 -0.2666462456087977 -0.013710569302416459
31 -0.5349814527710938 0.23306990351841259 1.1208243770643405
22 -0.3913524284010852 0.2279568225253762 -0.4608787548264055
29 0.16251472438684159 -0.2967682915879179 -0.26068573379277993
50 -0.11787129571368762 0.12603855463815322 0.08751908555724178
51 0.5625072371245922 0.3723888935627457 -0.08968869571361213
47 -0.03168011729834133 -0.06515605322881975 -0.006188375663426971
49 0.11216708080432068 0.43492630278095523 -0.8600649169656646
16 0.06216335796782129 0.7487148945059283 -0.4863670575344425
48 0.5979436510391779 0.5294650948488075 -0.6355449682589468
23 -0.22084385124891454 -0.07886174236089948 0.1895897683825758
25 0.543742549626231 0.20372849928025272 -0.27894787853048736
24 0.14870968203336277 0.2153904150912731 0.2015463458564301
37 -0.49156908875394817 0.13065853830143245 0.03255302495286269
9 0.3618770044208256 -0.6551560194627124 0.2512313897485936
55 0.5077944305434521 0.11694868978620501 -0.01366232129689321
30 0.6903462706430672 0.7347925408927934 0.21048082689428005
46 -0.26132949323407156 0.4906128443826286 -0.07768175999042609
44 0.07730030693521675 0.2511522295285705 -0.02201008395084598
72 0.20743311082478616 -0.007596302389526121 0.9337033721405256
45 0.10463450699216725 -0.4317716878532531 -1.1269066019552751
71 0.05465797437831889 -0.03958181670932776 -0.37687890939071916
73 0.9181155235559969 -0.8243940667676323 -0.7005115302679513
62 0.22836344167100053 -0.10284754219491085 -0.3334828661656993
61 -0.9691946473474429 0.3144362946365358 -0.6170836663694369
64 -0.09743957072636507 0.36916506419225215 0.07592436399971535
59 0.1878666825164163 0.08770354020573992 -0.013729439002583698
63 -0.2572333815000781 -0.18605121454415618 0.5515862248316546
26 0.17541530347503334 0.25290505717080636 -0.0027387802103007695
28 -0.003149852272138688 -0.145681865597544 -0.41228393821345577
60 -0.23028058697945594 -0.2364341303916558 0.40720331426121664
14 -0.04896662820218726 0.09733345092529394 0.10602685929389709
17 0.004680703737131629 0.19159198144403172 0.0546056969581985
19 -0.3592394629370471 -0.4466065451243242 0.02740751633726044
15 0.48235208187222905 -0.19888515127871323 0.5435103160102913
18 -0.14075316408693828 -0.2648838820538557 0.5460969399097431
43 0.6765869574916451 -0.604828455481529 -0.15771172565323574
34 0.04643710310057389 -0.16134374738948085 -0.06282251893593283
41 0.35997667297651126 0.02118257828789956 0.008502181080291278
12 -0.40306735270966154 -0.15874584548062465 -1.1218265184601592
52 0.7278248321340641 -0.15974396016126272 0.2825477173197716
11 -0.06490907206875218 0.11221589724457753 0.18257351791764215
13 1.0837242303330785 -0.1586385551831441 0.4284364267350272
1 -0.05701716353745261 -0.19232229053667152 0.1623128517505458
4 0.28307349212905497 0.2684983674158664 0.11221488555363279
5 -0.2597323079029423 -0.6049912166164666 -0.052359105847713215
27 0.22994671454102547 0.2374686141012343 0.35301644896911366
3 -0.26774973828160187 -0.16590881165517402 -0.33842829409202835
76 -0.740371281586364 0.06194674840783153 -0.1504966085394314
2 0.14209517494769683 0.40265444193098476 0.5973769142871842
36 -0.9958978955070802 0.13812268724050347 -0.049698816094251905
35 0.0721813610385585 0.0014870390993131487 -0.18480435796661163
6 -0.37911084385771393 0.11303467458015433 0.22625713550608945
74 0.14302841411534326 -0.12251095664705786 0.11374054814376204
39 0.6037836445040256 -0.2518716352286039 -0.1494034873018395
10 -0.7060943266691371 -0.16364937333138527 -0.3501998822806663
8 1.0336452532239362 -0.4992958133182241 0.753119030964853
38 -0.2900319053661617 -0.238978257724717 0.19429232810165772
40 0.23438424199657015 0.6763781181420896 0.5368766101214871
7 0.43364271605883725 0.31661260218987264 -0.013343837104064931
75 0.3847741195887782 -0.4189870823332938 0.03168580187149753
69 -0.3065969008596372 0.6495903113626859 0.08902213077694099
66 -0.3705702560976361 -0.7918530724288231 0.7496842855242097
65 0.3433248653289746 -0.3774719003687851 -0.026130956885029245
67 0.6266332225939157 -0.6760867052434049 0.6935948890077357
68 0.18930675850505513 0.28056340233454075 0.008826358072307739
70 -0.5636789171933393 -0.8924816967147406 0.3711552553997629
57 -0.34970552725072257 -0.48692432989673573 -0.03202127561775771
58 0.02153736353071238 1.0146656731859147 -0.32476577584295113
56 -0.21136979105879686 -0.10332876076618014 0.18417342578835663
42 0.4162116149680383 0.730599853181609 0.32057551707448206

Bonds

1 1 53 54
2 1 53 55
3 1 77 78
4 1 77 79
5 1 32 33
6 1 32 34
7 1 20 21
8 1 20 22
9 1 29 30
10 1 29 31
11 1 50 51
12 1 50 52
13 1 47 48
14 1 47 49
15 1 23 24
16 1 23 25
17 1 44 45
18 1 44 46
19 1 71 72
20 1 71 73
21 1 62 63
22 1 62 64
23 1 59 60
24 1 59 61
25 1 26 27
26 1 26 28
27 1 14 15
28 1 14 16
29 1 17 18
30 1 17 19
31 1 41 42
32 1 41 43
33 1 11 12
34 1 11 13
35 1 1 2
36 1 1 3
37 1 1 4
38 1 1 5
39 1 35 36
40 1 35 37
41 1 6 7
42 1 6 8
43 1 6 9
44 1 6 10
45 1 74 75
46 1 74 76
47 1 38 39
48 1 38 40
49 1 65 66
50 1 65 67
51 1 68 69
52 1 68 70
53 1 56 57
54 1 56 58

Angles

1 1 54 53 55
2 1 78 77 79
3 1 33 32 34
4 1 21 20 22
5 1 30 29 31
6 1 51 50 52
7 1 48 47 49
8 1 24 23 25
9 1 45 44 46
10 1 72 71 73
11 1 63 62 64
12 1 60 59 61
13 1 27 26 28
14 1 15 14 16
15 1 18 17 19
16 1 42 41 43
17 1 12 11 13
18 2 2 1 3
19 2 2 1 4
20 2 2 1 5
21 2 3 1 4
22 2 3 1 5
23 2 4 1 5
24 1 36 35 37
25 2 7 6 8
26 2 7 6 9
27 2 7 6 10
28 2 8 6 9
29 2 8 6 10
30 2 9 6 10
31 1 75 74 76
32 1 39 38 40
33 1 66 65 67
34 1 69 68 70
35 1 57 56 58
