LAMMPS data file via write_data, version 4 Feb 2025, timestep = 8500000, units = lj

3100 atoms
4 atom types
2100 bonds
1 bond types
1250 angles
2 angle types

-10.410592 10.410592 xlo xhi
-10.410592 10.410592 ylo yhi
-10.410592 10.410592 zlo zhi

Masses

1 1
2 1
3 0.1
4 0.1

Bond Coeffs # harmonic/omp

1 100 0.45

Angle Coeffs # harmonic/omp

1 100 180
2 100 109.471

Atoms # full

489 130 4 0 -6.400574241785415 -10.108417191486362 -10.24108001684904 0 0 0
1630 510 4 0 -6.597762678609512 -9.79319298898318 -10.098945534831483 0 0 0
1628 510 2 0 -6.411080576247091 -9.387915819418422 -10.131405020286014 0 0 0
1629 510 4 0 -6.2173254572780685 -8.980628480128333 -10.168554233734701 0 0 0
1631 511 2 0 -2.8504579781720505 -10.358053089858842 -9.989277019639067 0 1 1
735 212 4 0 -10.367680652345424 -3.9780964177498515 -1.99645994018167 0 0 0
439 113 4 0 -0.06275057897926688 -4.093993921764045 -3.9415883690699087 0 0 0
381 94 4 0 -2.1342295284572614 -10.286231400555868 -10.182004612244267 0 0 0
1633 511 4 0 -2.5138973762539516 -10.190137255245563 -10.218956315022739 0 1 1
380 94 2 0 -1.7278889391046541 -10.11646952628363 -9.988526342155906 0 0 0
382 94 4 0 -1.3281057467798802 -9.947824636245606 -9.79728813520845 0 0 0
445 115 4 0 -0.9933283530622549 -9.814030861124975 -9.631934744006713 -1 0 0
443 115 2 0 -0.7387660399208967 -9.624211830923555 -9.361171283921436 -1 0 0
444 115 4 0 -0.4597939050728515 -9.414674174344029 -9.06020883599712 -1 0 0
1839 580 4 0 -0.3594185855440209 -9.018803450835772 -9.041805499851597 0 0 0
1690 530 4 0 -0.802173176152677 -0.024526755434780695 -1.2287154671010947 0 0 0
2473 791 4 0 -5.857549001085335 -8.893231846303605 -10.282083563872396 0 1 0
2737 879 4 0 -5.104335559018463 -8.16279134562574 -9.421084756951041 1 1 0
2735 879 2 0 -5.3377404977350436 -7.763780967950708 -9.45400080869912 1 1 0
2855 919 2 0 -5.378342265185568 -10.357040342736173 -2.4629328595911946 0 1 0
342 81 4 0 -3.132016750255567 -7.580779868449786 -10.244608338419123 0 0 0
341 81 2 0 -2.848521866273007 -7.902517515782222 -10.185364499368976 0 0 0
343 81 4 0 -2.552287259075396 -8.24162433114267 -10.111976509090812 0 0 0
2407 769 4 0 -2.301101956922624 -8.462539035984529 -10.315816111095094 0 0 0
881 261 2 0 -8.355283720817871 -5.9909960442871135 -10.088724218349116 0 0 0
883 261 4 0 -8.144496012808162 -6.029748281985122 -9.699548317477182 0 0 0
2187 696 4 0 -6.192161342140898 -6.26122815285691 -9.673093833323351 1 0 1
2186 696 2 0 -6.496467737058444 -5.931554949480967 -9.55010927665328 1 0 1
2202 701 4 0 -5.853759145739477 -6.323225855614559 -9.480004767925342 1 0 1
2201 701 2 0 -5.633718513840783 -6.706294791301082 -9.400450645495349 1 0 1
2736 879 4 0 -5.559236804567351 -7.389453502644254 -9.49751801291606 1 1 0
2203 701 4 0 -5.4117826113827325 -7.086640846418494 -9.308322172435494 1 0 1
3074 992 2 0 -10.256092914057016 -5.228705309391213 -10.21151376285569 1 0 0
507 136 4 0 -8.134993657817027 -5.750383376037555 -9.440431843015757 0 0 0
506 136 2 0 -8.188206311374717 -5.4722249777731555 -9.08271340304666 0 0 0
784 228 4 0 -7.682144616749105 -5.181906334195162 -10.165083513924179 1 0 1
782 228 2 0 -7.347995582584558 -5.23727981980973 -9.856152508146751 1 0 1
783 228 4 0 -7.014188123446954 -5.297146546123152 -9.55374125294448 1 0 1
2188 696 4 0 -6.787940510143933 -5.617038952669118 -9.436633444415277 1 0 1
739 213 4 0 -1.8480678113120412 -5.02020824179859 -9.036432271978493 0 1 1
1903 601 4 0 -1.5200219359977611 -5.113294267915224 -9.234022629687166 0 0 1
1901 601 2 0 -1.0746421631999283 -5.13857551960412 -9.150785642315904 0 0 1
1902 601 4 0 -0.6344822146258893 -5.1691594888015775 -9.074208186248924 0 0 1
802 234 4 0 -9.12301072120861 -3.483344047863477 -10.205507446589642 0 0 1
801 234 4 0 -8.366485931784503 -3.9435574883129383 -10.019748204664296 0 0 1
800 234 2 0 -8.738697961717685 -3.7182951438064 -10.116075076959673 0 0 1
2113 671 4 0 -7.530457385760332 -1.9893392593989252 -9.283965238504738 0 0 1
2111 671 2 0 -7.824468389606306 -1.9300512435396995 -8.963583864979073 0 0 1
1926 609 4 0 -7.298599039613719 -1.735490407267982 -9.48183462103886 0 0 0
1925 609 2 0 -7.098832123794009 -1.7518005085721062 -9.857230783406052 0 0 0
1927 609 4 0 -6.887392730085492 -1.7658656674265287 -10.262384658384267 0 0 0
3073 991 4 0 -1.5970691685361833 -0.1615540903246256 -3.9107804825001273 0 0 1
1768 556 4 0 -5.47215834437668 -1.777189218407962 -10.404647422445755 0 0 0
1305 402 4 0 -0.8452382873257206 -1.5010747932171473 -9.340806715625902 0 1 0
3070 990 4 0 -1.000808440517558 -1.825701482727031 -9.53852831486326 0 1 0
3068 990 2 0 -1.3038177875204513 -2.0178385628637527 -9.280579245265066 0 1 0
1304 402 2 0 -0.40240757623408707 -1.4477370634357238 -9.47333534650393 0 1 0
3087 996 4 0 -10.194664537526268 -9.963838880054645 -8.054377844963737 0 1 0
3086 996 2 0 -9.989966579327705 -10.218629897035257 -8.357857681110854 0 1 0
809 237 2 0 -0.04481462272765109 -7.863379386187661 -7.095299380140903 0 0 0
2170 690 4 0 -1.843044724317343 -10.26420475822737 -7.611053127577381 0 0 1
2151 684 4 0 -1.653254905394956 -10.229580607846628 -7.988127719348067 0 0 1
1026 309 4 0 -2.4360613435748784 -7.87584677103047 -7.926296490762212 0 1 0
2038 646 4 0 -2.642116338497611 -7.658520745946237 -7.673548064333933 0 0 1
1025 309 2 0 -2.150699735535982 -8.125251097524735 -7.723298037898671 0 1 0
1027 309 4 0 -1.8535256569786434 -8.386103911609963 -7.5240773819966895 0 1 0
567 156 4 0 -6.495908749938195 -6.913345478982555 -7.943321486112557 0 0 0
566 156 2 0 -6.085355202154146 -6.8043790989098065 -7.950167869024574 0 0 0
568 156 4 0 -5.65185318382927 -6.692513392838216 -7.959628746024171 0 0 0
2517 806 4 0 -5.334376071590833 -6.425137286690431 -7.99429752427672 0 1 0
2516 806 2 0 -4.978976927150812 -6.557817999905378 -8.233428544071097 0 1 0
2518 806 4 0 -4.612620595972683 -6.6988301123630825 -8.469477490636686 0 1 0
2036 646 2 0 -2.9497340148411646 -7.384429993264713 -7.489463352782157 0 0 1
886 262 4 0 -9.19497860749801 -4.612486548623039 -8.20688163705538 0 0 1
508 136 4 0 -8.22914856296167 -5.189967003344016 -8.721130424674929 0 0 0
885 262 4 0 -8.461349063253882 -5.074372731998705 -8.416077413319563 0 0 1
884 262 2 0 -8.822535102065824 -4.842609679702993 -8.314181239381709 0 0 1
495 132 4 0 -6.741714097426617 -4.88826625502593 -7.770265542286957 0 0 1
262 54 4 0 -6.520003869773731 -4.7401573603920175 -8.084501309263148 0 0 1
260 54 2 0 -6.078874201652623 -4.624261668310165 -8.213014785103155 0 0 1
30 6 3 0 -5.229346785745398 -5.0088285635053005 -7.937980400479387 0 0 0
26 6 1 0 -4.98865942764982 -4.731631874721178 -8.200245146849044 0 0 0
28 6 3 0 -5.276280755160779 -4.441955798173777 -8.418974059905924 0 0 0
29 6 3 0 -4.76118725904529 -4.96402063927727 -8.493762184701621 0 0 0
261 54 4 0 -5.653054758235175 -4.506151367102082 -8.341988215930545 0 0 1
737 213 2 0 -2.1933003260920203 -5.17782373860238 -8.741849327601251 0 1 1
738 213 4 0 -2.507796969677594 -5.326160330876424 -8.465824049992156 0 1 1
59 12 3 0 -4.056865944266351 -0.8057808695029121 -1.1713813883910957 0 0 0
891 264 4 0 -0.4681410996300032 -4.823426268444325 -8.916076017326043 0 0 1
890 264 2 0 -0.22053597750021622 -4.563676337131945 -8.648634457501432 0 0 1
2842 914 4 0 -9.381949644732615 -3.535612229152359 -7.636263155340412 1 0 1
2840 914 2 0 -9.222122701738781 -3.912404444568615 -7.857495332443263 1 0 1
2841 914 4 0 -9.063054944797736 -4.259967128747685 -8.064187315535477 1 0 1
27 6 3 0 -4.715108134003833 -4.492265548475113 -7.947695660478571 0 0 0
1239 380 4 0 -4.578557895634939 -4.084764858142013 -7.914585872041444 0 0 0
1238 380 2 0 -4.404581618581983 -3.776300323046657 -7.614223285532439 0 0 0
2112 671 4 0 -8.1272485553902 -1.8669670436148607 -8.627264839308772 0 0 1
2895 932 4 0 -8.22176471586525 -1.7954103353276756 -8.273860849702315 0 0 0
2894 932 2 0 -8.345192234368762 -1.5588426997801286 -7.89623671168455 0 0 0
865 255 4 0 -1.6026838799753114 -2.253938725838703 -8.64782925666885 0 0 1
3069 990 4 0 -1.603133471009672 -2.212587090501698 -9.035777637253128 0 1 0
863 255 2 0 -1.608029151706154 -2.4749028635467614 -8.231777444445775 0 0 1
864 255 4 0 -1.604501960795752 -2.6791388005684746 -7.829273313881116 0 0 1
2896 932 4 0 -8.469131717447938 -1.3243752876304786 -7.521479787302127 0 0 0
267 56 4 0 -8.371231290113005 -0.9329816746074338 -7.466401960267987 -1 0 0
266 56 2 0 -8.12352577503828 -0.5446428106459995 -7.536698632428006 -1 0 0
2168 690 2 0 -1.9661968859653773 -10.157793422643852 -7.1770597102801625 0 0 1
2169 690 4 0 -2.0980111466309257 -10.047169104025851 -6.703693630700975 0 0 1
2124 675 4 0 -2.058738535287344 -10.150310004936312 -6.330100939136475 0 0 1
2123 675 2 0 -2.2106294148700307 -9.94960048197994 -5.988868807528166 0 0 1
1158 353 4 0 -6.904990799677456 -7.465839623770838 -6.427844030187859 0 1 0
1960 620 4 0 -6.927400742068396 -7.403312381746963 -6.826884706458125 1 0 0
1047 316 4 0 -1.494550433267322 -8.313777039868159 -7.3249007792728165 0 1 0
1046 316 2 0 -1.066609882015649 -8.258169508730905 -7.194348586474465 0 1 0
1048 316 4 0 -0.6350729866995062 -8.206836849174126 -7.05908053965336 0 1 0
811 237 4 0 -0.45020077557568394 -7.95913667278535 -7.301244323963403 0 0 0
1959 620 4 0 -6.502662699431507 -7.069274694154576 -7.58184073251841 1 0 0
1157 353 2 0 -7.182322155021778 -7.537708002517514 -6.078807331261405 0 1 0
1958 620 2 0 -6.729483956226362 -7.244523249405884 -7.1809732499291865 1 0 0
2037 646 4 0 -3.2585028211356155 -7.1071344437194055 -7.303556256597503 0 0 1
1412 438 2 0 -3.498368046993838 -6.377486278204791 -7.105223384717578 0 1 0
1414 438 4 0 -3.3280406126118627 -6.709390985106544 -7.376328034219494 0 1 0
494 132 2 0 -6.830317294902319 -4.74756577285344 -7.341644385456745 0 0 1
2521 807 4 0 -7.094011568423388 -4.674509494764015 -6.525846699566229 1 0 0
496 132 4 0 -6.92061750679527 -4.603810167521637 -6.911883933946654 0 0 1
2519 807 2 0 -7.097313921064888 -5.028574566517207 -6.2590254765932505 1 0 0
2520 807 4 0 -7.09095992608643 -5.3882250997455845 -5.975688378810596 1 0 0
1413 438 4 0 -3.660942094304569 -6.060021765970175 -6.831403029605677 0 1 0
513 138 4 0 -3.7324926242766794 -5.842587146163052 -6.50515497786372 0 0 0
512 138 2 0 -3.8465690808488278 -5.551628227936444 -6.152030747563498 0 0 0
1209 370 4 0 -1.3209544592756548 -5.552671275527651 -6.797490859103815 0 1 0
1210 370 4 0 -0.5570603505838216 -5.426921625810824 -7.235377867537682 0 1 0
1208 370 2 0 -0.9383541186837395 -5.485653815250391 -7.0148909338303795 0 1 0
973 291 4 0 -0.40237555568837 -5.715901139176328 -7.480727430134583 0 1 0
1911 604 4 0 -9.311789413943119 -3.195267482800305 -7.445081842293856 1 0 0
1240 380 4 0 -4.225707567347413 -3.4669711252403728 -7.333256924117485 0 0 0
2362 754 4 0 -3.86520186123062 -3.6645513845030395 -7.225579934054297 1 0 0
2360 754 2 0 -3.5215731292809775 -3.5890317464595998 -6.969436416051572 1 0 0
2361 754 4 0 -3.152724519191212 -3.5130939310252396 -6.705746821805528 1 0 0
2182 694 4 0 -2.9391378238652757 -3.457416910103227 -6.361931144761514 1 0 0
2180 694 2 0 -3.010213477973096 -3.3827601776883762 -5.9199660496037 1 0 0
1796 566 2 0 -0.49611607609719965 -3.0510926235542555 -6.069518361377278 0 0 0
2385 762 4 0 -0.9082602014053833 -2.9394311573617258 -6.8138513654638695 1 -1 0
1910 604 2 0 -8.966543308981738 -2.9107526180871277 -7.36380341630556 1 0 0
1912 604 4 0 -8.62883106457186 -2.6332808502465546 -7.288612115363073 1 0 0
618 173 4 0 -8.508940290491406 -2.281036794403163 -7.130765184767539 0 0 1
617 173 2 0 -8.437092336569231 -2.0406342297863223 -6.733635657789539 0 0 1
619 173 4 0 -8.353372662028026 -1.8025065586629938 -6.32842111677537 0 0 1
2496 799 4 0 -8.318484535259687 -2.031904971688009 -5.989293101005891 1 0 0
2384 762 2 0 -1.1943091099294132 -2.897086999106219 -7.157027143783961 1 -1 0
2386 762 4 0 -1.471766373004972 -2.8597661505341034 -7.500819310684439 1 -1 0
1797 566 4 0 -0.7473812720327461 -2.9490971251833042 -6.442306939515138 0 0 0
849 250 4 0 -4.820642438033978 -8.94595627467802 -4.402772687084637 0 0 0
2028 643 4 0 -3.1682161604940284 -10.36042711034355 -4.638158449691098 1 0 0
1875 592 4 0 -2.8485447895576512 -10.153983443433518 -4.524953202986168 0 0 0
1874 592 2 0 -2.6097005248405147 -10.026258937936545 -4.914449639675792 0 0 0
1876 592 4 0 -2.38339337052176 -9.902119771859617 -5.2833772314121745 0 0 0
2125 675 4 0 -2.3763169374099298 -9.735256713567615 -5.624859857182759 0 0 1
1777 559 4 0 -10.408952558371686 -7.4920966846573345 -5.29440335914481 1 0 0
2514 805 4 0 -7.547166924821719 -7.541689187597551 -5.341750894294748 1 1 -1
2515 805 4 0 -7.099366460505746 -7.958632367151847 -4.652490499770021 1 1 -1
2513 805 2 0 -7.330770675589103 -7.742185535732811 -5.001404916677263 1 1 -1
848 250 2 0 -5.182251555237119 -8.680355844640248 -4.440340162346428 0 0 0
563 155 2 0 -0.333480250123321 -8.543556141416921 -4.542632680234103 0 0 0
1775 559 2 0 -10.015386293763525 -7.467432310886248 -5.095376071990351 1 0 0
1776 559 4 0 -9.603145424761967 -7.433423737111044 -4.893387959553859 1 0 0
2388 763 4 0 -9.358273251583128 -7.10921036736061 -4.898972202614419 0 2 0
2387 763 2 0 -9.015475220060207 -7.019111495575711 -4.600433215086553 0 2 0
1159 353 4 0 -7.46747467270647 -7.613540170341641 -5.725511210747223 0 1 0
3016 972 4 0 -6.927350114366601 -6.4145621725896875 -4.739062174594497 1 0 1
3014 972 2 0 -6.53566661813939 -6.399832859169787 -4.503795600109067 1 0 1
2997 966 4 0 -7.156926618841838 -6.235997418584089 -4.996048751215132 0 1 0
2996 966 2 0 -7.102694251577004 -5.944249693862176 -5.339729515005756 0 1 0
994 298 4 0 -1.676870747145079 -6.657885312964663 -4.698931170454229 0 1 0
992 298 2 0 -1.2740695405595395 -6.7609801446458775 -4.783532259598975 0 1 0
2025 642 4 0 -0.4878026163255351 -7.1168595534394825 -4.915690058042808 1 1 1
2024 642 2 0 -0.2074994219515593 -7.451457886273088 -4.933170299408331 1 1 1
993 298 4 0 -0.8132686128449533 -6.8806620472598645 -4.880215660092174 0 1 0
2998 966 4 0 -7.032461829286376 -5.649805754718335 -5.6906425314596625 0 1 0
461 121 2 0 -3.910307215093876 -5.37342300384084 -5.0507411285985615 0 0 0
514 138 4 0 -3.9682955339080426 -5.263360345001336 -5.802424774629305 0 0 0
463 121 4 0 -4.156633842711361 -5.300422545212426 -5.43928376632482 0 0 0
462 121 4 0 -3.683425048306448 -5.437750789425444 -4.699207505543186 0 0 0
696 199 4 0 -7.550961097191564 -3.1996504999814355 -4.739254068032911 1 0 0
695 199 2 0 -7.4022318690545745 -3.4470285352832475 -4.435898569896006 1 0 0
2681 861 2 0 -3.533329120441931 -2.9459704952121446 -5.016167126001708 0 1 0
2181 694 4 0 -3.074159613947185 -3.3175548480239208 -5.4838927513948565 1 0 0
2682 861 4 0 -3.368014855839847 -3.3154173310763646 -5.200339967200693 0 1 0
1798 566 4 0 -0.2466640798862828 -3.1584319676646375 -5.687907612266986 0 0 0
79 16 3 0 -0.1463830720216839 -3.5290044903277513 -5.526611665038633 0 0 1
2495 799 2 0 -7.967387867850073 -1.844018942274825 -5.738596010157637 1 0 0
2497 799 4 0 -7.606974996604531 -1.6532695499163235 -5.490990967694343 1 0 0
975 292 4 0 -7.516107222028543 -2.810321964489772 -4.7742866449498935 0 0 0
974 292 2 0 -7.623358453489633 -2.3727437540484386 -4.636972814201437 0 0 0
976 292 4 0 -7.743961577657339 -1.9404551941102677 -4.505300649799603 0 0 0
2683 861 4 0 -3.702696317522538 -2.572190516873592 -4.82604729889566 0 1 0
432 111 4 0 -3.622013533204546 -2.199281940083515 -4.943471233807986 0 0 0
431 111 2 0 -3.729658075385716 -1.8184414300753207 -4.678873118542326 0 0 0
1205 369 2 0 -8.304293493912782 -1.4707181295426197 -4.426397942908634 0 1 0
1207 369 4 0 -8.567084503907754 -1.1302678235554222 -4.589519328072096 0 1 0
2226 709 4 0 -8.614664724573291 -0.838029611683687 -4.884175503575336 0 0 1
2225 709 2 0 -8.675236098197242 -0.3867245202529406 -4.965171542926131 0 0 1
3081 994 4 0 -7.549300292246594 -1.2819277187732094 -5.332382102718004 1 0 1
3080 994 2 0 -7.332342765731823 -0.8835531755710658 -5.2703327838631875 1 0 1
3082 994 4 0 -7.126412887385622 -0.4956468448263752 -5.205212703750846 1 0 1
868 256 4 0 -7.206166082844604 -0.19657970351724616 -5.454935229320735 0 0 0
582 161 4 0 -4.727861201189205 -0.8186023296909586 -5.070149866045545 0 -1 0
2091 664 4 0 -4.983946695980046 -0.8537054490490243 -4.754881644005775 0 0 1
2090 664 2 0 -5.368018161951711 -0.7436495402559461 -4.554797511746293 0 0 1
433 111 4 0 -3.831799098565021 -1.4590370422797156 -4.439604461372781 0 0 0
581 161 2 0 -4.355305613883153 -0.9971324980302442 -4.90499253221252 0 -1 0
2396 766 2 0 -3.2670855171378013 -0.40113162038903416 -5.637739954805828 0 1 0
583 161 4 0 -3.976831781250551 -1.1740690566334828 -4.731813451193553 0 -1 0
2398 766 4 0 -3.258414882010052 -0.8308872468276061 -5.4270063184224435 0 1 0
2005 635 4 0 -4.682577376872276 -9.274269672926826 -4.175128889002598 0 0 0
2003 635 2 0 -4.742026371558723 -9.614769341623186 -3.8926046008044364 0 0 0
2004 635 4 0 -4.809887539430289 -9.975948743938387 -3.5973542252869954 0 0 0
2604 835 4 0 -7.910265587623567 -8.541678131154368 -3.4288759671439033 1 1 -1
416 106 2 0 -7.5837293223851345 -8.26312006565104 -4.061959892753945 0 1 0
417 106 4 0 -7.94885905980281 -8.380442047301067 -3.8165484342837144 0 1 0
2603 835 2 0 -8.358359001548186 -8.585905876343109 -3.3044826629143964 1 1 -1
2605 835 4 0 -8.794961177396049 -8.62855232572948 -3.1835027025858684 1 1 -1
418 106 4 0 -7.214075222842485 -8.141435356408554 -4.319434207949257 0 1 0
1889 597 2 0 -6.1222710167015855 -8.37017677861247 -3.8860018575044615 0 0 0
1890 597 4 0 -6.397084077632249 -8.441203764716871 -3.5366851346765795 0 0 0
1891 597 4 0 -5.835403446412091 -8.29758828370942 -4.243563602186264 0 0 0
850 250 4 0 -5.545753944449591 -8.412427555353583 -4.4763656859583625 0 0 0
2220 707 4 0 -3.845880553588046 -7.255112491536117 -4.1390173309888025 0 0 1
2206 702 4 0 -1.488408729541089 -8.49899368938278 -3.5545792261040656 1 0 1
564 155 4 0 -0.6606296547431508 -8.39049544874925 -4.260874804596301 0 0 0
2204 702 2 0 -1.2232420428994737 -8.322073528396837 -3.837253125880873 1 0 1
2205 702 4 0 -0.9481900775102817 -8.133792513285691 -4.1477251289345105 1 0 1
912 271 4 0 -1.6232672527373553 -8.468157803737238 -3.168602574314478 -1 0 0
2389 763 4 0 -8.654289075371237 -6.918736010608207 -4.2996305558006584 0 2 0
837 246 4 0 -8.332495589659446 -6.900473136090703 -4.071507546017706 1 0 0
836 246 2 0 -8.239081065176721 -7.141158035385258 -3.691739302465037 1 0 0
838 246 4 0 -8.135725300709646 -7.391340051689518 -3.3239421918664114 1 0 0
3015 972 4 0 -6.137489621478224 -6.377230103044478 -4.2717402551577175 1 0 1
895 265 4 0 -5.939052694983953 -6.449529796067197 -3.9218671701552323 0 0 1
659 187 2 0 -4.566353268970677 -7.046170592478619 -3.8985914367878456 0 0 0
894 265 4 0 -5.293205451765496 -7.0566770051233725 -3.6855500253908655 0 0 1
661 187 4 0 -4.9775029075965485 -6.8592941839825325 -3.893350104131922 0 0 0
893 265 2 0 -5.625466859063162 -6.746606645883333 -3.811734235460759 0 0 1
660 187 4 0 -4.165650604652178 -7.232990923334246 -3.899569568198015 0 0 0
2221 707 4 0 -2.9843011456566284 -7.329838374797254 -4.004438900045685 0 0 1
2219 707 2 0 -3.420178475383275 -7.287894937821219 -4.0768718953142775 0 0 1
298 66 4 0 -2.649342019352287 -7.1857287370703915 -4.180252224400248 0 0 0
297 66 4 0 -1.9633715961787104 -6.637707854016722 -4.43541963303306 0 0 0
296 66 2 0 -2.3042486598456957 -6.907772256980698 -4.3135459912482155 0 0 0
1755 552 4 0 -7.329565681653693 -4.11336786313599 -4.088026518605573 0 0 0
1756 552 4 0 -7.577980057354708 -4.388189274577644 -3.263619979351934 0 0 0
1754 552 2 0 -7.451800530893965 -4.25274305898226 -3.668580872764274 0 0 0
697 199 4 0 -7.249704130639324 -3.7102000947223592 -4.11395844719315 1 0 0
1206 369 4 0 -8.021076339035343 -1.8042072308643002 -4.270572613623772 0 1 0
1467 456 4 0 -0.018805834494035327 -2.7491553273899068 -3.305451446715007 0 1 1
3040 980 4 0 -6.050392705347783 -0.8716939959108669 -4.235980436694834 0 1 1
3038 980 2 0 -6.165304616971431 -1.0338877090648935 -3.811720371466701 0 1 1
3039 980 4 0 -6.286879881645722 -1.1935783575650858 -3.396048997815546 0 1 1
1831 577 4 0 -6.209803433011225 -1.1633653167027584 -2.996395809984454 1 -1 0
2092 664 4 0 -5.751243194439731 -0.6382598406971383 -4.3587468223186185 0 0 1
3071 991 2 0 -1.9468061915723434 -0.40926656106336573 -3.829206677418993 0 0 1
3072 991 4 0 -2.3125194332129317 -0.6695540880708479 -3.741493632471579 0 0 1
483 128 4 0 -2.665198028644775 -0.7275862596033319 -3.50992620552956 0 0 0
482 128 2 0 -2.801579942159088 -0.5276364488070279 -3.146661950666548 0 0 0
2856 919 4 0 -5.601541583633043 -9.945942450512115 -2.3596314082580467 0 1 0
2270 724 2 0 -5.419229423531259 -9.446985197813989 -1.7693711904832952 1 0 0
2272 724 4 0 -5.612375989415138 -9.811677134208592 -1.9733390031632652 1 0 0
2271 724 4 0 -5.240918031111948 -9.083543764105587 -1.5731154054597656 1 0 0
913 271 4 0 -1.4549020956057175 -9.089754194468334 -2.567923958049289 -1 0 0
1435 445 4 0 -1.4645966930721508 -9.371319169113704 -2.282000231440023 0 1 1
1433 445 2 0 -1.3882510470620297 -9.428614608555323 -1.8363326547781644 0 1 1
2359 753 4 0 -8.944534074948217 -8.062507133423342 -1.784999972899163 1 1 0
1522 474 4 0 -9.224895004232152 -8.287582578842034 -1.96174921327168 0 1 0
1520 474 2 0 -9.056641092167432 -8.396446359227278 -2.363802795068568 0 1 0
1521 474 4 0 -8.87168246453227 -8.514051632109322 -2.7934859758768886 0 1 0
1537 479 4 0 -7.516075099861619 -7.448629598264898 -2.2981237611377083 1 1 0
1004 302 2 0 -6.895928996387729 -8.995511310616974 -1.9229883123160934 0 1 0
1005 302 4 0 -6.861436151246646 -8.748587194287458 -2.31066716263529 0 1 0
217 44 3 0 -3.702819321493236 -7.48028237458555 -1.8695188562833196 0 1 0
220 44 3 0 -3.768173786446952 -7.990228663122806 -1.365427542764509 0 1 0
911 271 2 0 -1.541969973922421 -8.765288479954036 -2.8829922837854194 -1 0 0
1536 479 4 0 -8.140409882334174 -7.398779206322898 -2.9348425565091305 1 1 0
1535 479 2 0 -7.82040519077902 -7.4213471632908075 -2.6107191886873773 1 1 0
932 278 2 0 -6.863567500063709 -6.960533790971763 -2.314810354402166 -1 0 0
933 278 4 0 -6.513051347770565 -6.688054336334432 -2.1794512206187737 -1 0 0
1503 468 4 0 -6.131438808629657 -6.5946804582858976 -2.232762131015996 -1 1 0
934 278 4 0 -7.203545067116436 -7.244160913011013 -2.4436934516915674 -1 0 0
1502 468 2 0 -5.7201298317811755 -6.480637182205219 -2.386455452268834 -1 1 0
2669 857 2 0 -4.672015376996167 -6.429890857481447 -2.746799669486112 0 0 0
1504 468 4 0 -5.304974338237921 -6.371243161965694 -2.546495040834532 -1 1 0
2670 857 4 0 -5.027418449644517 -6.10391061192684 -2.716884577980181 0 0 0
1863 588 4 0 -3.59168727485034 -7.229487663895672 -2.174184319849651 0 1 0
2671 857 4 0 -4.338701478917932 -6.734733583075041 -2.7754562328278176 0 0 0
1864 588 4 0 -4.235103908918745 -7.137275763956653 -2.82361208620107 0 1 0
1862 588 2 0 -3.923102446943595 -7.18848477238494 -2.510704182427216 0 1 0
2470 790 4 0 -8.032671001561429 -4.234349053968553 -1.7795231374753475 0 0 1
2313 738 4 0 -10.085019628662774 -4.026613362462001 -1.7138087201087855 1 0 0
2312 738 2 0 -9.63473228788315 -4.035579426420417 -1.6349957940959718 1 0 0
2314 738 4 0 -9.19344836010957 -4.036843763368494 -1.5706681726580016 1 0 0
2469 790 4 0 -8.890252866854027 -4.253609093778604 -1.5373802571478785 0 0 1
922 274 4 0 -7.859545634268647 -4.399611095070169 -2.1052284344161487 0 0 1
920 274 2 0 -7.736101316666874 -4.265255060060062 -2.534952465196842 0 0 1
2468 790 2 0 -8.46110548346503 -4.244323445577733 -1.6552311899359762 0 0 1
921 274 4 0 -7.6122537283686755 -4.14210426182578 -2.9460409364697 0 0 1
3046 982 4 0 -0.8201108637126941 -4.238638096655422 -2.1070076379974907 0 0 0
3044 982 2 0 -0.4072541384964705 -4.229386055616635 -2.0407693051914455 0 0 0
522 141 4 0 -1.1119940727465667 -4.30603123821798 -1.85158660740878 0 0 -1
521 141 2 0 -1.3825732805559041 -4.074057170403095 -1.551735554148746 0 0 -1
1830 577 4 0 -6.968359482738649 -0.9910753212995658 -2.585343380384076 1 -1 0
1829 577 2 0 -6.598267983874327 -1.0737680096421094 -2.7931707584857213 1 -1 0
2417 773 2 0 -3.5832065685270984 -0.5370065005733878 -2.3637894150682 0 1 0
2419 773 4 0 -3.824061446507068 -0.7679152863498471 -2.078776250594543 0 1 0
2418 773 4 0 -3.345867139007652 -0.30552452002229247 -2.654777405443224 0 1 0
57 12 3 0 -4.148468192872375 -0.9569350878027076 -1.8857036305505546 0 0 0
484 128 4 0 -2.949118772484415 -0.3113081382355229 -2.7462209164119273 0 0 0
1705 535 4 0 -8.801161576731198 -10.336282207616774 -0.4318574337817552 0 1 -1
999 300 4 0 -8.815198219517464 -9.933459484863487 -0.4273883029945868 0 1 0
998 300 2 0 -8.681734982470571 -9.5536173435217 -0.2192064591745097 0 1 0
2054 652 2 0 -6.830984289004878 -9.04111068296987 -0.7984518544327569 0 0 1
40 8 3 0 -6.673735725805058 -9.21356458475841 -0.0646132690427928 0 0 0
2055 652 4 0 -6.90437412129268 -9.011812702258666 -0.34696086275503907 0 0 1
1006 302 4 0 -6.92240351388529 -9.236616672542013 -1.5487057200021668 0 1 0
2771 891 2 0 -5.323491698282085 -10.240130792554798 -0.5300057300656082 1 1 0
70 14 3 0 -5.196260101711458 -9.466300910794299 -0.6655939057394723 0 0 1
2773 891 4 0 -5.1166415578888005 -9.841656861288214 -0.6700371788893917 1 1 0
66 14 1 0 -5.026521951523354 -9.068579105002847 -0.7960693408439107 0 0 1
67 14 3 0 -5.056406641716269 -9.031422456345487 -1.2448522770012977 0 0 1
68 14 3 0 -4.603411497138057 -9.041486174605929 -0.6794279160503304 0 0 1
1263 388 4 0 -4.339184664968686 -8.799220907990284 -0.8404386634709621 0 0 0
1434 445 4 0 -1.3117964019137816 -9.501582904263733 -1.3952026755598788 0 1 1
2073 658 4 0 -0.205281242573756 -10.30545885016395 -0.8988639478270058 1 0 0
598 166 4 0 -0.523687127548278 -10.222419421820414 -0.6305315225610255 0 0 0
597 166 4 0 -0.9892081926281114 -9.619115201437985 -1.1669029891108604 0 0 0
596 166 2 0 -0.7609020161214616 -9.92072510577274 -0.8947271304182829 0 0 0
2357 753 2 0 -9.076950558462068 -7.962163639314042 -1.3605184322701522 1 1 0
2358 753 4 0 -9.205163253925704 -7.856004080110003 -0.9331028417298017 1 1 0
3048 983 4 0 -9.43489037932557 -8.011175676736798 -0.6529121791975593 1 1 0
3047 983 2 0 -9.780924696607736 -8.308053812212298 -0.5070794654310592 1 1 0
3049 983 4 0 -10.106241485493904 -8.600828919657271 -0.35912584583181895 1 1 0
2853 918 4 0 -10.377112646812995 -8.818744756673825 -0.15445790183008454 0 1 0
2056 652 4 0 -6.763046343049518 -9.06440458587091 -1.232493403168894 0 0 1
69 14 3 0 -5.256398088768473 -8.7356732657475 -0.5982160538181955 0 0 1
453 118 4 0 -5.541115283799357 -8.520025670516347 -0.4111631262423373 0 0 0
452 118 2 0 -5.818535221510671 -8.677335380532226 -0.10418864468062637 0 0 0
1264 388 4 0 -3.7855615231561006 -8.375236071493749 -1.3431578475299224 0 0 0
1262 388 2 0 -4.065317843255845 -8.588739686197364 -1.0870208555851937 0 0 0
216 44 1 0 -3.534955431452469 -7.648476273314512 -1.4852700267375785 0 1 0
218 44 3 0 -3.1007434023275406 -7.771363092113 -1.541252621214996 0 1 0
1423 441 4 0 -3.4691537150769562 -7.524968413634213 -0.8103817211083493 0 1 0
219 44 3 0 -3.558162723569224 -7.3329039128546905 -1.1648840028442746 0 1 0
1812 571 4 0 -2.752663179336147 -7.825243023552527 -1.3803026636844402 0 0 -1
1811 571 2 0 -2.5769204377729684 -7.834288518534774 -0.9600286584550509 0 0 -1
1813 571 4 0 -2.3896929724270852 -7.829983972253117 -0.5430956889272176 0 0 -1
1779 560 4 0 -8.358023102289593 -6.683422029806734 -0.11707861001380761 1 0 0
1778 560 2 0 -7.969526297249258 -6.887737022899684 -0.18280720399582123 1 0 0
1780 560 4 0 -7.555486831064527 -7.096983460768431 -0.25227848914052076 1 0 0
648 183 4 0 -7.1863883057615485 -7.002202120190904 -0.10303807429308225 0 -1 1
1421 441 2 0 -3.368077303426666 -7.329510412334736 -0.3969083184894691 0 1 0
2215 705 4 0 -6.048883277135079 -4.329480210769657 -0.26566618662096897 0 1 0
1236 379 4 0 -5.077618365361398 -5.040169977140606 -0.14962629830728738 0 1 -1
1235 379 2 0 -5.456389385119959 -4.830692489768359 -0.2785890297149877 0 1 -1
3058 986 4 0 -9.735162680123226 -2.985482853587343 -0.002896250657217488 1 1 0
706 202 4 0 -10.096191185027262 -3.055697681495835 -0.156595175945684 0 0 1
899 267 2 0 -7.204342628886642 -3.387534657516911 -0.0632890029752977 0 -1 1
901 267 4 0 -6.996219564099566 -3.7190202912108514 -0.23491520779359784 0 -1 1
2213 705 2 0 -6.4801186853119885 -4.212807632435605 -0.3235093038391997 0 1 0
2214 705 4 0 -6.939592379410149 -4.085136380986167 -0.38371361646102425 0 1 0
1237 379 4 0 -5.840708955234339 -4.616576599270698 -0.4117926108429091 0 1 -1
523 141 4 0 -1.6324663392627665 -3.8542955636636265 -1.2636997293955083 0 0 -1
588 163 4 0 -1.9043970729699349 -3.631295098474779 -1.076819337729331 0 1 0
587 163 2 0 -2.1477063449444893 -3.6122895361386553 -0.7151641864400808 0 1 0
589 163 4 0 -2.400267721825681 -3.6075727233853394 -0.3319568112762445 0 1 0
268 56 4 0 -7.87739872877995 -0.1707045764203784 -7.603207215100066 -1 0 0
2150 684 2 0 -1.3260314419134074 -10.405520612627765 -8.250835117190439 0 0 1
1288 396 4 0 -6.873236370846963 -1.3691695188650785 -0.08119040238874364 0 0 0
56 12 1 0 -4.188814534957448 -1.124219812119755 -1.460286091975203 0 0 0
643 181 4 0 -3.985812399373383 -2.1984083685135682 -0.5182087253996851 0 0 0
870 257 4 0 -4.2945909914676985 -2.130514817767778 -0.2510390853187243 0 0 0
58 12 3 0 -3.928677733459277 -1.4763246458945507 -1.4103099600021514 0 0 0
641 181 2 0 -3.839592094383741 -1.9796188751931256 -0.870726326987969 0 0 0
642 181 4 0 -3.695052712291546 -1.7599845416944027 -1.250575991428503 0 0 0
1996 632 4 0 -0.3463814317147778 -2.046496699250157 -0.2080640068823386 0 0 0
1788 563 4 0 -0.08623915581873785 -2.009699387218694 -0.5077076121516965 0 0 0
2828 910 2 0 -6.304938350596357 -0.20138115962352254 -1.2167567778444548 0 0 0
1287 396 4 0 -6.517538803591468 -0.7828772178446338 -0.6679268695618672 0 0 0
1286 396 2 0 -6.690166760319238 -1.0731729472775011 -0.38579770318378553 0 0 0
2830 910 4 0 -6.2620699254203975 -0.5340674490654073 -0.8809760459059377 0 0 0