LAMMPS data file via write_data, version 4 Feb 2025, timestep = 800000, units = lj

3100 atoms
4 atom types
2100 bonds
1 bond types
1250 angles
2 angle types

-10.410592 10.410592 xlo xhi
-10.410592 10.410592 ylo yhi
-10.410592 10.410592 zlo zhi
-7.105427357601002e-15 0 0 xy xz yz

Masses

1 1
2 1
3 0.1
4 0.1

Bond Coeffs # harmonic/omp

1 100 0.45

Angle Coeffs # harmonic/omp

1 100 180
2 100 109.471

Atoms # full

2710 870 4 0 -8.836735306816333 -9.266707807920408 -9.720227569473995 4 0 -1
2708 870 2 0 -8.627847906079124 -9.203001613557108 -10.121598994164511 4 0 -1
2559 820 4 0 -1.4421379460874366 -7.831105860177915 -10.40629591306097 11 1 0
449 117 2 0 -8.614204232960487 -7.710856309636934 -9.840450201897685 2 0 0
451 117 4 0 -8.415105027843355 -7.777517038964762 -10.244120999677232 2 0 0
2558 820 2 0 -1.3663780288471052 -7.768765864503447 -9.988718809279888 11 1 0
1854 585 4 0 -1.0854833566732545 -5.237512373919346 -9.849238785810476 4 0 0
1853 585 2 0 -0.7101986454905003 -5.21939263454623 -10.081365351429625 4 0 0
2144 682 2 0 -2.968145758940114 -4.584598443234308 -9.564360856022628 -2 -1 1
2146 682 4 0 -2.55779366255869 -4.658485327035814 -9.737465322440647 -2 -1 1
2371 757 4 0 -2.4293935649634086 -4.522175935127889 -10.115708722464753 4 0 1
1887 596 4 0 -2.1378142830753237 -4.676788722253622 -9.84287126628662 4 0 0
1886 596 2 0 -1.777822007853615 -4.87688180647508 -9.72003270284226 4 0 0
1888 596 4 0 -1.3827341022761477 -5.0827933509164085 -9.601537439708013 4 0 0
1855 585 4 0 -0.3099382106005777 -5.19325276032946 -10.33589167571514 4 0 0
2282 728 2 0 -4.196448160317329 -3.481760564985686 -9.767936958158657 6 0 1
2944 948 4 0 -1.583933457095176 -4.201825961507547 -10.144928079915513 7 0 1
2942 948 2 0 -1.22389480028634 -3.9327066004566786 -10.047471825929252 7 0 1
2943 948 4 0 -0.9058843894642532 -3.690984842465185 -9.962480769246477 7 0 1
2445 782 4 0 -0.5139255759216415 -3.6175454034173606 -10.050525600056567 6 0 0
2444 782 2 0 -0.07301118771193238 -3.570572173469939 -10.125925417383026 6 0 0
1573 491 4 0 -6.546663718651544 -2.679567735866458 -10.08766119444211 6 0 1
1571 491 2 0 -6.291035756811154 -3.0744669747995115 -10.074921625993118 6 0 1
1572 491 4 0 -6.051183400035713 -3.4684646250830307 -10.057226595704169 6 0 1
1193 365 2 0 -5.25453068979978 -3.431649663282121 -9.92473082080721 5 0 0
1195 365 4 0 -5.684896203609783 -3.401684899838136 -9.946024664019738 5 0 0
2283 728 4 0 -4.474073698751275 -3.247905800057807 -9.978653917739123 6 0 1
1194 365 4 0 -4.82212905379457 -3.4509030302960895 -9.89122125121825 5 0 0
173 35 3 0 -9.21478428159432 -2.0571428783028516 -9.996538540879166 7 0 0
171 35 1 0 -9.296089144533893 -2.0319037070791843 -9.577340677528884 7 0 0
672 191 4 0 -8.559647870400191 -1.999849169807094 -9.547068462130103 5 0 1
2933 945 2 0 -7.158785639361488 -2.440018000448939 -9.757650437203225 14 1 1
2935 945 4 0 -6.875877560125147 -2.4530791889794834 -10.111225910517526 14 1 1
3019 973 4 0 -10.283229515577334 -0.9310875848291094 -9.693796080697128 14 1 0
1087 329 4 0 -10.288482598200229 -0.7650153830996889 -10.070034959297447 6 0 0
841 247 4 0 -8.885980405721632 -9.450508685694954 -9.357346703385788 4 0 1
839 247 2 0 -8.984384336985846 -9.158890202360343 -8.996714769071074 4 0 1
450 117 4 0 -8.810216892779032 -7.638962423969159 -9.447401951942378 2 0 0
2297 733 2 0 -9.23887775676957 -7.467943026965099 -8.898152106389478 4 0 1
2299 733 4 0 -9.08628179370493 -7.378442835354519 -9.287925712167937 4 0 1
2560 820 4 0 -1.2875978508790045 -7.699296456584051 -9.531330177982605 11 1 0
1560 487 4 0 -1.091589189229369 -7.333449170587985 -9.51420910663003 3 0 0
1559 487 2 0 -0.7484724156910225 -7.278500395653416 -9.198587537225311 3 0 0
1561 487 4 0 -0.43371006978568616 -7.208796030619851 -8.907374459037076 3 0 0
2794 898 4 0 -7.986348777329942 -5.0031442092542395 -8.781031785066613 13 1 1
2793 898 4 0 -7.094185684710398 -5.060281382073463 -8.700414912883378 13 1 1
2792 898 2 0 -7.546896295225089 -5.035987156930339 -8.737204335510864 13 1 1
2364 755 4 0 -4.5967915174295975 -4.76981991071342 -8.739113917668242 6 0 1
197 40 3 0 -4.365699915297496 -4.581315544422583 -9.019413614978173 6 0 1
196 40 1 0 -3.9581991527995903 -4.374138783854137 -9.077668965978415 6 0 1
200 40 3 0 -3.6387381544160924 -4.691321258180309 -9.135378480344883 6 0 1
2145 682 4 0 -3.3929650069973514 -4.485404448278467 -9.377912059743664 -2 -1 1
198 40 3 0 -3.9740304693125523 -4.11711663777721 -9.439719084148694 6 0 1
2284 728 4 0 -3.8995474290707044 -3.72586189795226 -9.531588799066046 6 0 1
199 40 3 0 -3.8635552060868967 -4.130003041013431 -8.727083069659793 6 0 1
1057 319 4 0 -10.296934518173265 -3.208226501776683 -8.907312158515378 6 0 0
1055 319 2 0 -10.121308598631547 -2.8383736177711825 -9.10051933496501 6 0 0
1056 319 4 0 -9.945032583127798 -2.4649210480560777 -9.304932179525121 6 0 0
172 35 3 0 -9.567008712111505 -2.385837616618671 -9.457973580086856 7 0 0
175 35 3 0 -8.893690389250027 -2.0494442931054078 -9.337457792702418 7 0 0
673 191 4 0 -7.841292232443024 -2.503815586676332 -9.386252009954587 5 0 1
671 191 2 0 -8.20318338369658 -2.2540477386829743 -9.464350974181137 5 0 1
2934 945 4 0 -7.4430434327211445 -2.42321196141095 -9.402355371256016 14 1 1
3017 973 2 0 -10.078738942164952 -1.283327636634354 -9.523225942670058 14 1 0
3018 973 4 0 -9.875614941714014 -1.6328883049192786 -9.34553424108551 14 1 0
174 35 3 0 -9.511937693689847 -1.6328778670677462 -9.487943899903687 7 0 0
1508 470 2 0 -3.9671154220921787 -0.9999253704383406 -8.952038652540262 8 0 1
487 129 4 0 -3.7592532870714823 -0.3574230703266146 -9.410972338889247 8 0 1
1510 470 4 0 -3.7645290064014274 -0.7281569436049917 -9.26706094487357 8 0 1
485 129 2 0 -3.4151727475608276 -0.09879328752215777 -9.229140760333195 8 0 1
335 79 2 0 -6.244306632840376 -9.858755726505537 -7.882889036727587 4 0 -1
840 247 4 0 -9.08126300966881 -8.881524164511214 -8.654317834790168 4 0 1
1299 400 4 0 -8.801424091864442 -8.847478424670477 -8.376681905192648 11 1 0
1298 400 2 0 -8.464428144195162 -8.759220991536047 -8.095249538627886 11 1 0
1765 555 4 0 -6.237830606118906 -9.243505734470778 -8.278518869359797 12 1 0
337 79 4 0 -6.035787614853053 -9.516069620256621 -8.06526106745287 4 0 -1
1763 555 2 0 -5.9702052302540904 -8.864587941633918 -8.321781556023177 12 1 0
1764 555 4 0 -5.721684755849755 -8.505952193556112 -8.363838848215986 12 1 0
1167 356 4 0 -9.619597798587249 -7.421885866628361 -8.161530840273906 12 1 0
1166 356 2 0 -9.866833316871753 -7.264589962357631 -7.842108215242422 12 1 0
2298 733 4 0 -9.397066342398842 -7.572113347862675 -8.47023137609871 4 0 1
1840 580 4 0 -0.33546257479079244 -6.988838920639532 -8.598811531111789 3 0 0
1838 580 2 0 -0.12205669607047298 -6.893120007420263 -8.204122283925223 3 0 0
1124 342 2 0 -9.882278159633197 -4.884956793301945 -8.29142365983929 13 1 0
1125 342 4 0 -10.292269588826766 -4.748336315675393 -8.184389069244439 13 1 0
1126 342 4 0 -9.498793713236811 -5.012805522748952 -8.386392804413243 13 1 0
2110 670 4 0 -9.166520290689412 -5.0017539596557326 -8.586120718260142 5 0 1
2108 670 2 0 -8.733548604262078 -5.021889670281654 -8.559852543826398 5 0 1
2109 670 4 0 -8.295643506831675 -5.038015349685495 -8.520348775577256 5 0 1
283 61 4 0 -6.746104166728486 -4.894244289497826 -8.637533623119184 6 0 0
281 61 2 0 -6.3007265888425525 -4.897946098474331 -8.60876434405352 6 0 0
2365 755 4 0 -5.4711638992123 -4.757662754309 -8.484741054328438 6 0 1
282 61 4 0 -5.844854987793766 -4.913657454254293 -8.572355420301955 6 0 0
2363 755 2 0 -5.014170047362465 -4.7685014254682665 -8.62048563599042 6 0 1
2659 853 4 0 -10.307998677489005 -3.634963621127799 -8.31113455114586 6 0 0
2657 853 2 0 -10.115103432786485 -3.372373500855863 -7.97270687841278 6 0 0
2672 858 2 0 -4.706786522424093 -1.0220614706870883 -8.064927334177856 8 0 1
2674 858 4 0 -4.35859931436503 -1.1785361280014808 -8.320907063103153 8 0 1
1509 470 4 0 -4.1530336122448785 -1.2581864439995627 -8.654138489107101 8 0 1
2673 858 4 0 -5.0438953158596 -0.8604343661280698 -7.812340247857672 8 0 1
336 79 4 0 -6.450113903105559 -10.195011933565478 -7.7078862771578525 4 0 -1
993 298 4 0 -1.7237168901529518 -8.744978945222014 -7.191451671373378 11 1 0
1300 400 4 0 -8.123169687238255 -8.658187740765868 -7.801723109117464 11 1 0
1252 384 4 0 -10.282854502796898 -7.234524441521983 -7.169067502122281 12 1 0
1168 356 4 0 -10.123504568554251 -7.093805329839297 -7.5127428926231445 12 1 0
2658 853 4 0 -9.944930382078 -3.118579690293906 -7.648911134010811 6 0 0
1678 526 4 0 -9.804349220043722 -2.7822068623062712 -7.48396177212385 8 0 1
1676 526 2 0 -9.917901748497096 -2.360643626132692 -7.340435052460075 8 0 1
1677 526 4 0 -10.035521297248433 -1.9383651068267742 -7.194100747068763 8 0 1
2972 958 2 0 -10.266900516811557 -9.782906124434243 -6.470192597573087 13 1 1
2973 958 4 0 -10.086718920974015 -9.488584670410583 -6.72441264018262 13 1 1
2628 843 4 0 -10.081750259798472 -9.127516281479599 -6.883572063693788 4 0 0
2627 843 2 0 -10.101360671602803 -8.68310466398833 -6.797658698772765 4 0 0
1251 384 4 0 -10.273661544373594 -7.912475865578111 -6.5638817601597825 12 1 0
2629 843 4 0 -10.112541420968174 -8.238551534685184 -6.713237713119635 4 0 0
992 298 2 0 -1.7775436330508168 -8.392501888794898 -6.919771099777373 11 1 0
994 298 4 0 -1.8133370055028628 -8.0500444167571 -6.661108079794661 11 1 0
297 66 4 0 -1.8342859490731396 -8.05526961851506 -6.270611176555225 3 0 0
1250 384 2 0 -10.27895693144889 -7.581685134175055 -6.869948986143237 12 1 0
299 67 2 0 -3.644823076238805 -4.922313829525946 -6.231133482770462 4 0 0
2683 861 4 0 -2.817712890228182 -4.897005554930062 -6.431107924514739 13 1 0
300 67 4 0 -3.2179545669311187 -4.93578685836269 -6.426725069926256 4 0 0
2681 861 2 0 -2.6022031653109394 -4.471329545624504 -6.529830252965065 13 1 0
2362 754 4 0 -0.15251540898681348 -4.429452786473358 -6.180713404258047 6 0 0
2181 694 4 0 -2.0011041284067073 -4.023009852244125 -6.560959655461426 6 0 0
2682 861 4 0 -2.3992594078646174 -4.061101174378998 -6.619528026719609 13 1 0
2361 754 4 0 -0.8751259212840363 -4.084243321120496 -6.661466138931919 6 0 0
2182 694 4 0 -1.1369793809841742 -3.801393248918987 -6.789377963849173 6 0 0
2180 694 2 0 -1.576720808014823 -3.9158116909005667 -6.669784424477612 6 0 0
2360 754 2 0 -0.5148206165341218 -4.261067436277336 -6.421056912804092 6 0 0
2649 850 4 0 -5.6040633625527105 -9.723527643757562 -5.679610063295367 3 0 0
2648 850 2 0 -5.668720991943202 -10.070349541643756 -5.9548337770919355 3 0 0
2464 788 4 0 -5.783220273448851 -9.347752242876533 -5.757083918610938 11 1 0
2462 788 2 0 -5.694406421984455 -8.98167734231824 -5.558381051361616 11 1 0
2463 788 4 0 -5.594294545797814 -8.591090693815664 -5.343580444400952 11 1 0
296 66 2 0 -2.0631872403299525 -7.810225104245346 -5.963788460718578 3 0 0
298 66 4 0 -2.293770271915868 -7.565641683485941 -5.647792321811243 3 0 0
1632 511 4 0 -2.5989847136150503 -7.366455187211509 -5.470910951075671 11 1 1
504 135 4 0 -7.332110162517743 -5.180878939693686 -5.2840680143428145 4 0 0
1105 335 4 0 -6.232516270446921 -4.521300669075858 -5.529045872116167 13 1 0
505 135 4 0 -6.457697319709293 -4.847094371438043 -5.4107188329730045 4 0 0
503 135 2 0 -6.89499792303282 -5.013555271275529 -5.342608674014687 4 0 0
1999 633 4 0 -4.414428391780595 -4.848352575141369 -5.973403037836915 5 0 0
1997 633 2 0 -4.77612583121072 -4.570024453923934 -5.883473233187568 5 0 0
301 67 4 0 -4.041562325581179 -4.907871457448949 -6.049463059046152 4 0 0
1103 335 2 0 -5.812649842796783 -4.31706512326617 -5.559982104337322 13 1 0
1104 335 4 0 -5.42144509921103 -4.127398264248693 -5.586579366418322 13 1 0
1998 633 4 0 -5.1331534198374005 -4.305601161904977 -5.792425872939916 5 0 0
1240 380 4 0 -0.041561291846990756 -4.284770540335821 -5.812357004276433 5 0 0
2408 770 2 0 -10.299364403209402 -1.947094142963449 -5.582880828826317 7 0 0
2410 770 4 0 -9.883112228523935 -2.0572323931122707 -5.352428906887753 7 0 0
2085 662 4 0 -9.699345426421681 -1.7094267445219042 -5.486462548919383 4 -1 0
2084 662 2 0 -9.394469110374612 -1.3685739782018214 -5.491858761592036 4 -1 0
2086 662 4 0 -9.094599792396378 -1.039936887865835 -5.50078961488114 4 -1 0
2419 773 4 0 -1.8156321381297058 -1.4063917818019647 -5.412924183679231 15 1 0
2417 773 2 0 -1.3851447284369236 -1.5162677082084048 -5.599425841504891 15 1 0
2418 773 4 0 -0.9848941202923331 -1.6244923618515212 -5.7680689689005336 15 1 0
484 128 4 0 -0.6399273292561354 -1.5547838207744515 -5.571070706012032 7 0 0
482 128 2 0 -0.2984883856776701 -1.4473070682420133 -5.286388582131505 7 0 0
1587 496 4 0 -5.311473092668265 -8.667671869169137 -5.061155823619645 11 1 1
1586 496 2 0 -5.0580948040927955 -8.32234903594311 -4.967662986992241 11 1 1
1588 496 4 0 -4.8034737042694635 -7.975740635712167 -4.884365934211434 11 1 1
568 156 4 0 -4.706629739522338 -7.656320225347463 -4.673600219162848 2 0 0
566 156 2 0 -4.308066861644276 -7.646359339437378 -4.436458993820644 2 0 0
1633 511 4 0 -2.6592667809900474 -7.200487919294334 -4.57106437634174 11 1 1
1631 511 2 0 -2.62747305237646 -7.279907678621116 -5.030595796734194 11 1 1
3044 982 2 0 -8.777812783172882 -6.103848261001195 -4.399335899544642 4 0 0
3046 982 4 0 -8.506775792176342 -6.005605521536876 -4.735830297350895 4 0 0
522 141 4 0 -8.396919691211144 -5.761223922446015 -5.0056570293495355 4 0 -1
521 141 2 0 -8.04621197140904 -5.5148499765738235 -5.093147591748707 4 0 -1
523 141 4 0 -7.698386084777164 -5.268193774838052 -5.182512465165238 4 0 -1
2166 689 4 0 -9.682683230811346 -3.502012275116919 -4.4860258081596065 6 0 0
624 175 4 0 -2.1067098793433647 -4.131602161138469 -4.408737057036573 3 0 0
623 175 2 0 -1.6503278553785492 -4.066795771782677 -4.432648083448574 3 0 0
625 175 4 0 -1.226508206522075 -3.9973308473659044 -4.4482101604270685 3 0 0
808 236 4 0 -1.0724296350919893 -3.833548740982284 -4.764126682404191 4 0 0
806 236 2 0 -0.6955878774624686 -3.655812158395727 -4.962427154376838 4 0 0
807 236 4 0 -0.32872299654422577 -3.493130359744386 -5.1498461981886985 4 0 0
2165 689 2 0 -9.257659630885582 -3.275216280588851 -4.4380772421699035 6 0 0
2167 689 4 0 -8.861964382314095 -3.051635906837742 -4.386678836327627 6 0 0
2817 906 4 0 -0.14061311033499635 -3.131157272086302 -5.124656599715596 11 1 0
567 156 4 0 -3.927472750282286 -7.643299929567586 -4.203957031937773 2 0 0
382 94 4 0 -3.686102955886902 -7.493519412954667 -3.8955353110193043 3 0 0
380 94 2 0 -3.2737367587954314 -7.449848632447479 -4.083607067648623 3 0 0
381 94 4 0 -2.845542503372336 -7.398375263347074 -4.277436085361325 3 0 0
1045 315 4 0 -10.200151470182266 -6.623696492324191 -3.6092610482094987 3 0 0
1043 315 2 0 -9.806363611848187 -6.522884455088104 -3.802089294471954 3 0 0
1044 315 4 0 -9.415897222853925 -6.439840762693694 -3.999920735543787 3 0 0
3045 982 4 0 -9.074138449533697 -6.21858199224236 -4.035840021693145 4 0 0
2312 738 2 0 -3.7592231980225117 -4.49561606675398 -3.5216675298750486 4 0 0
1493 465 2 0 -10.344999600083547 -3.8121314265202564 -4.091187565271793 13 1 1
1495 465 4 0 -9.925725926236298 -3.700394444230519 -4.244827324645094 13 1 1
2313 738 4 0 -3.566588407178977 -4.095780925160478 -3.624123668495079 4 0 0
1979 627 2 0 -2.790912644219354 -4.10124364844194 -3.9945599845672968 5 0 0
1980 627 4 0 -3.237720382295773 -4.16808706635175 -3.8671279984937073 5 0 0
1981 627 4 0 -2.346541517688415 -4.034712484331083 -4.127373170550313 5 0 0
1236 379 4 0 -8.57140982158596 -2.836147943009557 -4.2136199106568375 13 1 -1
1235 379 2 0 -8.189975184132452 -2.868089487860275 -3.9616862146120475 13 1 -1
1237 379 4 0 -7.799425749174842 -2.8990925582974 -3.6908845886575676 13 1 -1
2215 705 4 0 -7.496803236572385 -2.736090315820107 -3.880874463052743 13 1 0
2213 705 2 0 -7.083105191213465 -2.5866939469013257 -3.7376081170891347 13 1 0
2214 705 4 0 -6.671667197611211 -2.4475924941440557 -3.593706177658772 13 1 0
3087 996 4 0 -0.14548675273116096 -10.192267773778413 -2.7494422701800856 13 1 0
2073 658 4 0 -4.9699939860989675 -8.836174142847515 -2.7580245228168723 4 0 0
598 166 4 0 -4.701836572946359 -9.013034006937886 -2.9893254846156774 3 0 0
596 166 2 0 -4.242086311807068 -8.98252657222393 -2.968825908575173 3 0 0
597 166 4 0 -3.7939272780310986 -8.94861196357526 -2.9528776652698987 3 0 0
1224 375 4 0 -5.542633316120803 -7.836718742425986 -2.975421825670839 3 0 0
2074 658 4 0 -5.35299202676381 -8.078436881577588 -2.7207089472731294 4 0 0
2072 658 2 0 -5.159132690831768 -8.46359941476031 -2.7399211269426686 4 0 0
916 272 4 0 -3.6480557806025082 -8.615968109633412 -2.7390462778175824 3 0 0
1225 375 4 0 -5.632723784953862 -7.0488939043520125 -3.3352333463337374 3 0 0
1223 375 2 0 -5.587264421671295 -7.444204337442168 -3.153087741912932 3 0 0
1639 513 4 0 -5.2618993444751645 -6.920463577987594 -3.365723601517633 3 0 0
1637 513 2 0 -5.067163343062617 -6.5327075323528 -3.33769337562601 3 0 0
1638 513 4 0 -4.865738183949563 -6.13343888177384 -3.2932912585001786 3 0 0
388 96 4 0 -4.525750235321322 -5.926106130998517 -3.1751779704841443 3 0 0
386 96 2 0 -4.3906272740007575 -5.532907098068654 -3.2230540086861588 3 0 0
387 96 4 0 -4.243378426953985 -5.110439264507803 -3.2709130166079046 3 0 0
2314 738 4 0 -3.944849560620442 -4.902580365328022 -3.4249818881394543 4 0 0
3061 987 4 0 -3.4756500458057022 -3.6865836873576043 -2.627376416845081 13 1 0
2829 910 4 0 -5.1094784402100535 -2.7290080778363617 -3.042255377611678 6 0 0
2828 910 2 0 -4.795245875497758 -2.677035768316605 -2.7243753302613296 6 0 0
2863 921 4 0 -6.316336489116457 -2.3218170332437715 -3.3854337640126255 6 0 0
2861 921 2 0 -5.881656926286657 -2.4585345101476133 -3.3052021157637315 6 0 0
2862 921 4 0 -5.43857301443405 -2.5842278684831506 -3.217829324575968 6 0 0
1113 338 4 0 -7.040478093039978 -1.233837914220926 -2.6206429483168074 17 1 0
2118 673 4 0 -4.0717335056963515 -1.1351336158082663 -2.9299470554915716 7 0 1
2117 673 2 0 -3.63075356605263 -0.9544947535664718 -2.935005739059531 7 0 1
345 82 4 0 -3.0401643430073033 -1.09500701591298 -3.168997378758581 6 0 0
344 82 2 0 -2.6167488278300066 -1.1310530080988546 -3.288226104306265 6 0 0
1641 514 4 0 -1.7843726716639363 -1.0739818216986432 -3.3380081840851066 6 0 1
346 82 4 0 -2.1812565315841184 -1.165357647734039 -3.407162035555791 6 0 0
1642 514 4 0 -0.921004817530271 -1.3768156155973639 -3.356198563994342 6 0 1
1640 514 2 0 -1.3599095945045505 -1.219769706820676 -3.3450677035488026 6 0 1
1497 466 4 0 -0.5999309594356887 -1.5436578562992693 -3.424508506025802 15 1 1
1496 466 2 0 -0.20277062640808197 -1.4286334721033427 -3.220748456764756 15 1 1
2119 673 4 0 -3.192110243158109 -0.7852240450868333 -2.9316875026678684 7 0 1
3088 996 4 0 -0.6687522442768703 -9.631117978923783 -2.251131022153377 13 1 0
3086 996 2 0 -0.4190633254661833 -9.910778908988494 -2.4926381091199072 13 1 0
914 272 2 0 -3.283383986290005 -8.49613500734194 -2.570707767213465 3 0 0
915 272 4 0 -2.8728940720775507 -8.36305031484961 -2.390644492439705 3 0 0
945 282 4 0 -2.870301504036222 -7.979515626762657 -2.4984360519104936 11 1 0
944 282 2 0 -2.513917267647347 -7.7338670816167365 -2.4346881197384374 11 1 0
946 282 4 0 -2.1627143986453756 -7.481086174219609 -2.3763427740439216 11 1 0
472 124 4 0 -5.927188226275703 -3.9575416713504667 -1.9969690907863953 5 0 -1
1932 611 4 0 -5.8052637945568835 -3.654904498645216 -1.8016702143091976 5 0 -1
3059 987 2 0 -3.287347463046081 -3.788582155889369 -2.249825356409513 13 1 0
3060 987 4 0 -3.077722236562477 -3.8939237500359374 -1.8418042663740657 13 1 0
1933 611 4 0 -5.334296125089885 -2.963468591579316 -2.221982424355554 5 0 -1
1931 611 2 0 -5.564119188885125 -3.309328526847212 -2.0146251087829405 5 0 -1
2830 910 4 0 -4.484478476782466 -2.625349690841948 -2.3994551741709884 6 0 0
1287 396 4 0 -4.374336965383333 -2.5676497592301484 -2.020275385562515 6 0 0
1603 501 4 0 -4.997711980766174 -1.7681101232664531 -2.528181376131398 7 0 0
1601 501 2 0 -4.608513270003882 -1.5017304115207644 -2.556631190265671 7 0 0
1602 501 4 0 -4.248699665669835 -1.2483912577936476 -2.5694402780715926 7 0 0
1112 338 2 0 -7.068168957769005 -0.7667381302448071 -2.587896287497969 17 1 0
1114 338 4 0 -7.090217571120305 -0.31450870781846163 -2.566592949175316 17 1 0
540 147 4 0 -6.779281764131349 -0.16893673468685222 -2.3734392204592023 9 0 0
937 279 4 0 -0.281251924734919 -8.65922607588961 -1.39259840216436 14 1 0
935 279 2 0 -0.015615773860407245 -8.336323121936724 -1.3992703128823223 14 1 0
2461 787 4 0 -6.339454533029597 -4.709006651446913 -1.1842437211661174 14 1 -1
471 124 4 0 -6.362455146367894 -4.3415306066567885 -1.314713258072441 5 0 -1
2459 787 2 0 -6.557344264555942 -5.063868053282454 -0.9686298266777467 14 1 -1
933 278 4 0 -0.7096518836132013 -4.4477990416785245 -1.2441771720140764 3 0 0
2470 790 4 0 -0.4385394590349936 -4.740282446519095 -1.1712396967769703 4 0 1
470 124 2 0 -6.140567630732633 -4.15557060416968 -1.6587883348500423 5 0 -1
601 167 4 0 -2.7894548900103686 -4.039769432974731 -1.5203782994295185 5 0 1
599 167 2 0 -2.383726202721867 -4.137322882702391 -1.3566494948486607 5 0 1
600 167 4 0 -1.9530691704747305 -4.230406183729411 -1.193785476729314 5 0 1
932 278 2 0 -1.1469761481882568 -4.317433685659559 -1.1341687234127455 3 0 0
934 278 4 0 -1.5964660754856386 -4.17494453685017 -1.017026285739055 3 0 0
1286 396 2 0 -4.184155322442779 -2.5803722612871205 -1.633150019646619 6 0 0
1288 396 4 0 -3.9840155673930306 -2.6023942911418665 -1.2087141577987914 6 0 0
1830 577 4 0 -3.584233503096806 -2.497075606905449 -1.210903383013525 -1 -1 0
987 296 4 0 -3.5048916845025637 -0.6058109156810438 -1.1601085207707449 13 1 0
1688 530 2 0 -10.167714300679597 -8.741786368964524 -0.2328578034077271 6 0 0
1690 530 4 0 -10.36503522725105 -8.870022615939263 -0.6217536746927994 6 0 0
1841 581 2 0 -9.634956375724938 -7.236425783600652 -0.5642195334778162 -3 -1 0
1842 581 4 0 -9.991485407504769 -6.967150502975421 -0.5697465707630585 -3 -1 0
1843 581 4 0 -9.27568031957772 -7.51348100072822 -0.5401166167779383 -3 -1 0
900 267 4 0 -8.88043499417947 -7.440374690898292 -0.5942979156389754 -3 -1 1
899 267 2 0 -8.51029973444103 -7.2783878304291445 -0.4634846020542991 -3 -1 1
901 267 4 0 -8.07659647556005 -7.100762885977012 -0.31191459575348723 -3 -1 1
2295 732 4 0 -7.739964665123985 -7.286436033041101 -0.25302517094482013 5 0 0
2294 732 2 0 -7.376094546835837 -7.002774718892283 -0.06708521886097962 5 0 0
2252 718 2 0 -10.255174908716963 -6.261544582785182 -0.23968828634503936 6 0 0
2253 718 4 0 -10.196316976750815 -6.691760297190383 -0.3929027732855861 6 0 0
2254 718 4 0 -10.3149549147211 -5.821155648616847 -0.08430105567878776 6 0 0
1529 477 2 0 -6.7903024302345205 -6.065973665481113 -0.21265444431407765 5 0 -1
1531 477 4 0 -6.766621886011282 -5.782775159915849 -0.5844404596268422 5 0 -1
2460 787 4 0 -6.77144104251076 -5.40549352373198 -0.7596958725965397 14 1 -1
1463 455 2 0 -10.151193631031182 -4.452129772873741 -0.2627122189893356 5 0 0
1465 455 4 0 -9.738762448609739 -4.344721833365339 -0.42809829140614397 5 0 0
586 162 4 0 -9.389353905300368 -4.325952904980107 -0.24869550284373432 5 0 0
584 162 2 0 -9.058755087186674 -4.0389916545061295 -0.12407663914464173 5 0 0
72 15 3 0 -6.4025567308786275 -3.4668546912544027 -0.02511584747649387 6 0 0
75 15 3 0 -6.697134257607402 -2.8243759183804897 -0.23742071764412565 6 0 0
2121 674 4 0 -6.845110250705071 -2.4497130078324876 -0.22873762144528165 6 0 0
2120 674 2 0 -6.903629485143453 -2.0450503642412396 -0.4416899467352007 6 0 0
1829 577 2 0 -3.3805961501804846 -2.326937116910578 -0.8553348958245799 -1 -1 0
1831 577 4 0 -3.165502372001101 -2.1460404183176465 -0.47449222270780567 -1 -1 0
60 12 3 0 -3.2304716192764635 -1.821649379236085 -0.21335933586623845 6 0 0
1188 363 4 0 -0.38952561513309725 -1.796485603758379 -0.3141056124178121 6 0 0
2122 674 4 0 -6.945823383840634 -1.6404732392283226 -0.6573067354045321 6 0 0
59 12 3 0 -3.3134698932302102 -1.1148518064274366 -0.23010930329462553 6 0 0
1187 363 2 0 -0.701579614961835 -1.7220461893215315 -0.017030616321777714 6 0 0
986 296 2 0 -3.460227122508348 -0.6656008171213781 -0.7073438181588294 13 1 0
988 296 4 0 -3.40706246770592 -0.7178861751538488 -0.26064906202116767 13 1 0
1689 530 4 0 -9.97923115787735 -8.625510309404266 0.15129211800363862 6 0 0
2359 753 4 0 -1.5884529976910535 -8.660013841731214 0.7815947662301355 11 1 0
1522 474 4 0 -1.1849427181664254 -8.591267939598051 0.834181586085915 10 1 0
1520 474 2 0 -0.9276620749486 -8.252274281792502 0.694521051066479 10 1 0
1521 474 4 0 -0.6575157016294924 -7.897285252243934 0.5410492586851348 10 1 0
615 172 4 0 -6.966817397948406 -7.318595515903123 0.658579087307686 3 0 -1
1078 326 4 0 -6.732242120139894 -7.089755176515984 0.42689698808821497 11 1 -1
1076 326 2 0 -6.305492393462466 -7.135997092384972 0.3689964259267313 11 1 -1
1077 326 4 0 -5.857147277037753 -7.173915688834579 0.3070343622855418 11 1 -1
1147 349 4 0 -5.492948083064622 -6.963105716541184 0.30932054965952105 11 1 -1
2605 835 4 0 -0.3131423378253366 -7.798781404465695 0.7554138399422712 11 1 -1
2296 732 4 0 -7.0249835935042855 -6.731355387534541 0.10624351330930537 5 0 0
1530 477 4 0 -6.82039343921201 -6.362786966344051 0.1634260496065778 5 0 -1
1145 349 2 0 -5.09404625616154 -6.847601873234209 0.28211703448091363 11 1 -1
1146 349 4 0 -4.6578235020080925 -6.7197219575834914 0.2543335180218005 11 1 -1
585 162 4 0 -8.72242302536025 -3.7471682279211587 0.013799547817589186 5 0 0
5 1 3 0 -8.629919631571585 -3.482957890882326 0.30146014558357415 5 0 0
2 1 3 0 -8.055064679755883 -3.541147630274258 0.759333893583845 5 0 0
4 1 3 0 -8.490660073459702 -2.9643232486773403 0.8373914928670096 5 0 0
1 1 1 0 -8.469642667897373 -3.4128655201003824 0.7355885279153149 5 0 0
422 108 2 0 -7.3075407496276625 -3.2373445332147277 0.840701187606296 5 0 0
73 15 3 0 -6.658585871450935 -2.98515933029344 0.4795589642069338 6 0 0
71 15 1 0 -6.450975620231109 -3.0274049278420287 0.0741514379196282 6 0 0
424 108 4 0 -6.905958815936975 -3.130573673455996 0.7574803584473564 5 0 0
74 15 3 0 -6.05841352296436 -2.8393764096499776 0.10512985940390607 6 0 0
869 257 2 0 -5.3271837977998615 -2.638057608175383 0.3541154949316532 6 0 0
871 257 4 0 -5.731844939015944 -2.8220338553009414 0.3118510151032474 6 0 0
870 257 4 0 -4.9031233352902515 -2.459093211650085 0.38353495833717766 6 0 0
643 181 4 0 -4.55114016480533 -2.5916024865190312 0.26810165844625544 6 0 0
641 181 2 0 -4.2994736480267735 -2.217661406107796 0.21042373762339217 6 0 0
642 181 4 0 -4.053681397931259 -1.8547497891141234 0.14711842335161052 6 0 0
1600 500 4 0 -1.3075798726211811 -1.8559921770677459 0.5303778145561999 6 0 0
1598 500 2 0 -1.646262695555297 -1.7366738815868779 0.7875770489326577 6 0 0
1099 333 4 0 -5.232722954380163 -1.553505210097553 0.8609521491779564 9 0 0
58 12 3 0 -3.8094023407068525 -1.5546723824329707 0.07469747097533563 6 0 0
57 12 3 0 -3.153640897621205 -1.4510849343991143 0.4238846376862444 6 0 0
2034 645 4 0 -3.1247682422939693 -1.2348497383957326 0.7776267302298301 15 1 0
56 12 1 0 -3.378869719400722 -1.4917369160893958 0.008018172481850883 6 0 0
1189 363 4 0 -1.0453524349748022 -1.652471545856116 0.3075760520715658 6 0 0
1170 357 4 0 -9.958677614108135 -0.15590901084977205 0.31050393621474015 9 0 0
1169 357 2 0 -10.316148372764061 -0.36379736864532575 0.43640079243837704 9 0 0
2357 753 2 0 -1.9572101426937998 -8.862884639577691 0.9479190020006207 11 1 0
2358 753 4 0 -2.318183322075546 -9.056998359424565 1.1111758068838462 11 1 0
3048 983 4 0 -2.3839992747357126 -9.247546549510048 1.4311753830718477 11 1 0
1987 629 4 0 -7.021748392947922 -8.043173991946386 1.5771037287233902 3 0 -1
616 172 4 0 -7.19853189889149 -7.761556303867995 1.3750691542586395 3 0 -1
614 172 2 0 -7.0802566888974905 -7.535048142860514 1.0047964213243148 3 0 -1
524 142 2 0 -8.946813856735183 -4.089740008383473 1.6987549415744088 5 0 0
526 142 4 0 -8.834168243617388 -3.784978165742862 1.3922623123815558 5 0 0
3 1 3 0 -8.714837821611155 -3.6374737101548966 1.021049363374912 5 0 0
2526 809 4 0 -8.429113483259586 -2.988084345368023 1.244930005668138 14 1 -1
2525 809 2 0 -8.436843265292957 -2.6572564793029727 1.5659095670600376 14 1 -1
423 108 4 0 -7.725574947533374 -3.3584505156311986 0.9286463569670484 5 0 0
2784 895 4 0 -3.2417627111787253 -2.7923429287383765 1.708676721803192 13 1 0
1331 411 2 0 -6.454963650252022 -2.036377567327481 1.7253192214591042 17 1 0
1333 411 4 0 -6.275155022917604 -1.8908272143859968 1.3327724237012255 17 1 0
1098 333 4 0 -5.903952100597064 -1.986104705382692 1.2291016223325375 9 0 0
1097 333 2 0 -5.570792343502883 -1.7708374146931583 1.0431154692310987 9 0 0
2785 895 4 0 -3.595280975623573 -2.058836817611761 1.4111223104686026 13 1 0
2783 895 2 0 -3.4202921077036876 -2.4140418926575204 1.5518842321612727 13 1 0
2033 645 2 0 -2.7322256611920803 -1.3655571518884706 0.9418212464061853 15 1 0
2035 645 4 0 -2.3584861668007626 -1.4893995516898588 1.1189377443171349 15 1 0
1599 500 4 0 -1.9946326644393348 -1.6195924059947497 1.0342384705678338 6 0 0
1869 590 4 0 -1.310253144001372 -0.4388998345494315 1.6364584667274489 6 0 0
1924 608 4 0 -1.0468876477085072 -0.5980987069329249 1.389882299373527 17 1 0
1923 608 4 0 -0.21919350385372738 -0.31500768613696195 1.2860228981969435 17 1 0
1922 608 2 0 -0.6230273570021563 -0.4568240413395479 1.3363966392616593 17 1 0
3049 983 4 0 -2.490666239124182 -9.610005453640502 2.221422598292426 11 1 0
2853 918 4 0 -2.1550875993183976 -9.644222391836138 2.4397458146275355 10 1 0
3047 983 2 0 -2.4384763962252123 -9.424333855029401 1.8181213637531783 11 1 0
1986 629 4 0 -6.494116618274452 -8.549662035402156 2.090155779253866 3 0 -1
351 84 4 0 -6.606406699845833 -8.621576351309628 2.476167861510307 3 0 -1
1985 629 2 0 -6.758125788260086 -8.28776234367865 1.8309721455061556 3 0 -1
2103 668 4 0 -9.837206048805822 -4.994606247516707 2.5917001660397485 6 0 1
2104 668 4 0 -9.194559123176756 -4.762900913051749 1.987256158874784 6 0 1
525 142 4 0 -9.06121591008979 -4.397341732245443 1.9975754364322835 5 0 0