LAMMPS data file via write_data, version 19 Nov 2024, timestep = 2000000, units = lj

400 atoms
4 atom types
300 bonds
1 bond types
350 angles
2 angle types

-4 4 xlo xhi
-4 4 ylo yhi
-4 4 zlo zhi

Masses

1 1
2 1
3 1
4 1

Bond Coeffs # harmonic/omp

1 100 0.45

Angle Coeffs # harmonic/omp

1 100 180
2 100 109.471

Atoms # full

323 75 2 0 -3.011811560969348 -2.233722691389292 -3.056814590954611 0 0 1
325 75 4 0 -2.9353753105118674 -2.2624522269952805 -2.6052744644706567 0 0 1
38 8 3 0 -3.021342451919713 -2.5404261285623564 -2.3192925906652806 0 0 0
36 8 1 0 -2.957773392286912 -2.962199788122467 -2.202944041918557 0 0 0
324 75 4 0 -3.086626608340584 -2.186508522049405 -3.505145394528614 0 0 1
80 16 3 0 -3.039198677607226 -2.3950214670629237 -3.8335619627137265 0 0 1
128 26 3 0 -3.1395687391009215 -3.6720929982501898 -2.3293139550864876 0 1 0
130 26 3 0 -3.743524644456498 -3.8066932376438367 -2.757024867659429 0 1 0
39 8 3 0 -2.6863185622288457 -3.1517446084397003 -2.486038888937013 0 0 0
40 8 3 0 -3.3706989560899094 -3.1884822047000423 -2.2141126004450022 0 0 0
289 63 4 0 -1.301746750844603 -2.617622244985253 -2.6056900621967753 0 0 0
353 85 2 0 -1.4029873788100458 -3.3310938399710652 -3.844841109880577 0 1 0
355 85 4 0 -1.2530659738017638 -2.91346270986625 -3.87262529326588 0 1 0
287 63 2 0 -1.3117336030620286 -2.32317454533298 -2.9560924813308955 0 0 0
342 81 4 0 -1.603960774927556 -2.8186545026413965 -2.4731119671649457 0 1 0
341 81 2 0 -1.7003902981668795 -3.284463707725592 -2.5250602327567684 0 1 0
70 14 3 0 -0.8988494523592906 -2.82377260276122 -3.7640038032034306 0 0 0
166 34 1 0 2.706312800025633 -1.1634159092702665 -1.1861060019856609 0 0 0
343 81 4 0 -1.7944292136216082 -3.722928407458641 -2.57254741307512 0 1 0
170 34 3 0 2.6980799704463165 -0.8082452586096481 -1.2086251194749593 0 0 0
262 54 4 0 0.23507676758702659 -2.892100461788301 -3.7070304625359825 1 0 0
68 14 3 0 -0.16020152061906495 -2.7583852986047503 -3.7185044858444294 0 0 0
260 54 2 0 0.5624385369746081 -3.2580121700911904 -3.7544656813510127 1 0 0
261 54 4 0 0.9962730102892564 -3.7636614770550865 -3.812531149414126 1 0 0
66 14 1 0 -0.5458913444072279 -2.532798085157265 -3.767973742240704 0 0 0
270 57 4 0 2.2953525387324967 -1.1075350984387864 -0.6528688280703192 0 0 0
69 14 3 0 -0.5943441983662138 -2.2227785998314618 -3.4260922786617627 0 0 0
362 88 2 0 1.4257228156327364 -2.2592935261071236 -2.3335790484707433 -1 1 1
363 88 4 0 1.7300895246520722 -2.5255986961198156 -2.5690186538330746 -1 1 1
148 30 3 0 1.9671664964768352 -2.84308575604994 -2.591445595923914 -1 1 0
147 30 3 0 2.5694500961739344 -2.610532914807145 -2.944956872160386 -1 1 0
146 30 1 0 2.1493118494014567 -2.806703794366979 -2.9914727006585684 -1 1 0
327 76 4 0 1.3623973924024908 -3.7892829053028736 -3.6840316047226294 0 0 1
150 30 3 0 2.1868158988792956 -3.2083354964250055 -3.1572362516970753 -1 1 0
149 30 3 0 1.879029444089573 -2.5445419246217362 -3.2681467050762647 -1 1 0
391 97 4 0 3.6603940800827774 -2.2684377434929934 -2.154642553703169 0 0 0
28 6 3 0 3.6098332626948375 -2.6452774927007194 -2.080536788515128 0 0 0
29 6 3 0 3.107836623990169 -3.2052337668116735 -2.106516604834921 0 0 0
53 11 3 0 -3.816982627337404 -1.289557916201157 -2.4580831995650096 1 0 0
51 11 1 0 -3.8742000889613877 -0.8439003887710924 -2.6007744984260897 1 0 0
52 11 3 0 -3.6863961790484567 -0.7943565770088525 -3.0351206453299726 1 0 0
54 11 3 0 -3.6526968385277523 -0.5415015845972705 -2.2855075313217683 1 0 0
294 65 4 0 -3.7342835854254544 -0.17071654957314067 -2.263205716565434 1 0 1
264 55 4 0 -3.707268841815953 -0.40948556323200597 -3.132938663936287 0 0 0
390 97 4 0 3.830069650007747 -1.4021151641194016 -2.317789065363769 0 0 0
263 55 2 0 -3.8656050666200574 -0.26940659388467186 -3.541243761393079 0 0 0
288 63 4 0 -1.3124372764419 -2.0419224542648857 -3.2820440931188566 0 0 0
177 36 3 0 -1.3439318736553403 -1.6570391167672114 -3.3659916889007353 0 0 0
176 36 1 0 -1.4498386390098477 -1.4249871703054653 -3.737235369224728 0 0 0
178 36 3 0 -1.7866625175720432 -1.6367432721011395 -3.9731779073018494 0 0 0
179 36 3 0 -1.5752887789223102 -1.0339272943411426 -3.6228689046159075 0 0 0
284 62 2 0 2.8413538795659172 -0.10808818229664709 -0.7630344933554146 0 0 -1
320 74 2 0 0.5422998969761198 -0.11237872939158691 -3.0173022741961972 0 0 1
321 74 4 0 0.8947974071218873 -0.3143698428213869 -2.7710165695086832 0 0 1
25 5 3 0 0.5276595375425575 -1.1517150403627523 -2.4688114903400984 0 0 0
24 5 3 0 1.029685174013845 -1.6179448577495898 -2.2362891381658034 0 0 0
364 88 4 0 1.122405701283307 -1.9926870916784074 -2.0992488574620864 -1 1 1
21 5 1 0 0.9725475323249216 -1.2271010151512585 -2.396212566890555 0 0 0
23 5 3 0 1.210979885732214 -1.1896422489616045 -2.802774721668036 0 0 0
22 5 3 0 1.1300350039021623 -0.9133174777493095 -2.10169986428392 0 0 0
153 31 3 0 2.1602639978326743 -1.0126099757739062 -3.6226153378418253 0 0 0
155 31 3 0 1.9734878679407601 -0.3625227370678807 -3.3201731641195775 0 0 0
151 31 1 0 2.2907153524309423 -0.5763639775791488 -3.542514504247651 0 0 0
152 31 3 0 2.361725389951466 -0.38074266019933006 -3.9103220133531105 0 0 0
389 97 2 0 3.7445289958598456 -1.8195487244117774 -2.2469678390752303 0 0 0
154 31 3 0 2.653807061602414 -0.5694653041302826 -3.2919421123863652 0 0 0
253 51 4 0 2.751704408011766 -0.29622042620391836 -3.0069070992982723 0 0 0
251 51 2 0 3.194971587723987 -0.3705558186272752 -2.915048151063544 0 0 0
55 11 3 0 3.6803469077939366 -0.7449192011995296 -2.6113507632313184 0 0 0
252 51 4 0 3.632971398050198 -0.44426452686594137 -2.828809518539142 0 0 0
37 8 3 0 -2.7760700146214132 -2.9693638374289244 -1.7854535548019796 0 0 0
233 47 3 0 3.9335341618364703 -2.59956135368802 -0.17904819542665534 0 1 0
326 76 2 0 1.560469177464405 -3.887235290702047 -3.4001957669983183 0 0 1
268 56 4 0 -2.5057872075703163 -2.830094475345009 -1.5221979003963937 0 0 0
266 56 2 0 -2.1877417791087317 -2.6069889898164877 -1.3102434548469506 0 0 0
267 56 4 0 -1.878803856851704 -2.3900844183502437 -1.082611219900694 0 0 0
58 12 3 0 -1.5965349236774848 -2.1077660287854183 -0.972711081464312 1 0 0
63 13 3 0 3.601395361463312 -1.1770112140696465 -0.6102826438189624 0 0 0
259 53 4 0 0.8686425339662669 -2.2399037736300573 -0.36218321705976203 0 0 0
122 25 3 0 1.0608936189298757 -2.5994643714996903 -0.289722096320283 0 0 0
121 25 1 0 1.4135302385773625 -2.7670890482784842 -0.5081590307077648 0 0 0
123 25 3 0 1.288836352650542 -2.84365879657786 -0.9652694531384224 0 0 0
124 25 3 0 1.7719188570180278 -2.461688225191204 -0.49709618745058864 0 0 0
125 25 3 0 1.5432530009811072 -3.168930281713749 -0.31951097594145245 0 0 0
345 82 4 0 3.0097592372554476 -3.683585540305704 -0.6064123185933801 0 1 0
30 6 3 0 3.0000428421709318 -2.621112982499617 -1.659353633489427 0 0 0
344 82 2 0 3.3067795967161238 -3.3996864462025393 -0.8592970250435303 0 1 0
26 6 1 0 3.3182224494678425 -2.89122918845888 -1.8354300562514894 0 0 0
27 6 3 0 3.5521131381547097 -3.1132388110584595 -1.5010557098626975 0 0 0
346 82 4 0 3.573816463196653 -3.1484855857334177 -1.0951524969081299 0 1 0
330 77 4 0 3.7319687613995978 -2.296353350289299 -0.3737775897611987 0 0 0
160 32 3 0 3.0378689975316244 -3.5880863241524463 -0.20599687257186253 -1 1 0
275 59 2 0 -3.5648306825664897 -1.1023718210556108 -1.2997245019633115 1 0 -1
276 59 4 0 -3.888070266948092 -1.2791522379471398 -1.5315993528344627 1 0 -1
277 59 4 0 -3.2370341169919095 -0.92623392850718 -1.0810472767787975 1 0 -1
59 12 3 0 -1.9443896759980257 -1.5214213100837248 -1.1981759267583543 1 0 0
48 10 3 0 -2.0206505230787823 -2.0329144376600103 -0.3549259230346286 0 0 0
57 12 3 0 -1.3164115930629339 -1.4607042853382912 -0.7881127637174025 1 0 0
60 12 3 0 -1.2747279903480389 -1.7270924598716806 -1.5148180888037477 1 0 0
56 12 1 0 -1.5401131557846557 -1.7131379876061767 -1.1141916821403683 1 0 0
257 53 2 0 0.5499475390161639 -1.9944537339163293 -0.6275419755525373 0 0 0
258 53 4 0 0.2540840380087436 -1.76179363590823 -0.8698580316442001 0 0 0
5 1 3 0 0.28150734498387875 -0.40674174461723883 -0.36829866109137466 0 0 0
1 1 1 0 0.6569035778766911 -0.25981353063577833 -0.5076716825192007 0 0 0
307 69 4 0 1.3032276708285453 -0.6892989052000414 -1.8046484586716112 0 0 1
2 1 3 0 0.8448654392123722 -0.5502390719795069 -0.76858079335255 0 0 0
305 69 2 0 1.1787650531800797 -0.7461349075267912 -1.4055486532138102 0 0 1
306 69 4 0 1.0513316287947825 -0.7980912715983794 -0.9950967262788499 0 0 1
167 34 3 0 2.4368146019478227 -1.3180596556318633 -1.4262448243768224 0 0 0
269 57 2 0 2.0079923917321465 -1.1988167608264138 -0.30540957677243324 0 0 0
61 13 1 0 3.5566475164723688 -0.8132031180534368 -0.3303878366156782 0 0 0
65 13 3 0 3.2035369916925274 -0.6940960001250276 -0.3419865471012705 0 0 0
169 34 3 0 3.110192745438422 -1.316782518204351 -1.3104149012180286 0 0 0
62 13 3 0 3.8217211177543775 -0.48645668868028485 -0.4639939731369295 0 0 0
329 77 2 0 3.723946279033705 -1.927820959528542 -0.5746945585661652 0 0 0
285 62 4 0 2.9492169986774845 -0.6683644637122232 -0.8059224702011046 0 0 -1
331 77 4 0 3.707204768193059 -1.5315708538070032 -0.7839401926719659 0 0 0
168 34 3 0 2.614497256873861 -1.3043104894632547 -0.7347000302395781 0 0 0
3 1 3 0 0.9021926761162126 -0.1870376792491838 -0.16225906495546322 0 0 0
354 85 4 0 -1.5404808960314829 -3.735212145511171 -3.8214674984306853 0 1 0
79 16 3 0 -2.7514005940516086 -1.7157399508860247 -3.888333484288343 0 0 1
265 55 4 0 3.9804029341628473 -0.13485006404846858 -3.935314589524631 -1 0 0
180 36 3 0 -1.0913621476526465 -1.3994155720837373 -3.994408699782709 0 0 0
100 20 3 0 0.5109121926814043 -1.5610969859493697 -3.7836317258302614 0 0 1
232 47 3 0 -3.977857587677193 -2.7234400822731217 0.5507298905729667 1 1 0
231 47 1 0 -3.909791758363778 -2.887535650891108 0.11440933143874492 1 1 0
280 60 4 0 3.807496572040711 -1.1384676065602328 3.0799897372048437 -1 0 -1
200 40 3 0 -3.6416910398860014 -3.2811894513205297 1.8962726760637962 1 1 0
165 33 3 0 -1.1724626581202056 -3.8512782384240607 1.2981711426006564 1 0 0
278 60 2 0 3.7891126591472784 -1.2671895249360106 2.657638946507485 -1 0 -1
50 10 3 0 -1.5920049472049445 -2.1325812854667467 0.2251956297437335 0 0 0
245 49 3 0 0.38463264690131854 -2.7712322396427465 1.2195332498220157 -1 1 0
310 70 4 0 0.29820615096840375 -2.4298370270610667 1.061741132972157 1 0 0
308 70 2 0 0.10951443144051617 -2.2818861604236105 0.6786813776356974 1 0 0
243 49 3 0 0.4101035647568779 -3.360725093203857 1.6757241134052323 -1 1 0
241 49 1 0 0.6511316445544866 -3.0808661196640554 1.3726906885789145 -1 1 0
242 49 3 0 0.802950947569338 -3.311112446243206 1.0509764184315324 -1 1 0
396 99 4 0 0.16314776103334488 -3.093711773753276 1.867285844204423 0 1 0
244 49 3 0 1.005915831397257 -2.8854202208933226 1.5998889556850235 -1 1 0
235 47 3 0 3.8716248545999306 -3.2755856854381853 0.05900516232181962 0 1 0
35 7 3 0 3.836888417763377 -0.7679557349470331 3.254072229897104 -1 0 -1
158 32 3 0 2.8514581167846993 -3.778422703382784 0.514731560603167 -1 1 0
156 32 1 0 3.2108231566784866 -3.6892572126366843 0.21936801368146233 -1 1 0
159 32 3 0 3.4465934486539864 -3.3448173496566476 0.36372822023090695 -1 1 0
198 40 3 0 3.8593799330358425 -2.8375948057139944 1.6359250842061508 0 1 0
240 48 3 0 -2.62635931840428 -0.37163522060339343 1.0360090785650113 0 0 0
109 22 3 0 -0.9053128236731482 -2.035250080927012 0.7966106228472831 0 0 0
204 41 3 0 -1.1735214134009972 -1.3475905997510194 1.6675435699945622 0 1 0
311 71 2 0 -2.3255047204414576 -1.0762105522657024 0.6604994338877942 1 0 0
312 71 4 0 -2.1583322226945847 -1.4576006636853636 0.39870238743335706 1 0 0
313 71 4 0 -2.4749579194999303 -0.7221949755114069 0.9103053480964938 1 0 0
46 10 1 0 -1.9388644946487636 -1.9246505736967539 0.0781908632140201 0 0 0
319 73 4 0 -1.497956054383636 -0.3232452184521168 0.7877485067813106 0 0 0
317 73 2 0 -1.2166850973326366 -0.6825635262932328 0.7105261664890172 0 0 0
239 48 3 0 -1.9942420373363192 -0.11664217593611181 1.3293033751059484 0 0 0
106 22 1 0 -0.8362712999496378 -1.8276150236089508 0.384482073798199 0 0 0
49 10 3 0 -1.8806384033934676 -1.4982007247602223 0.11147962825343068 0 0 0
108 22 3 0 -0.7803648641572896 -1.3499708698243846 0.45617614438165177 0 0 0
318 73 4 0 -0.9283049827902324 -1.0325363666038145 0.6343298652568218 0 0 0
236 48 1 0 -2.4179985636198436 -0.049377666802997426 1.3253538899983208 0 0 0
107 22 3 0 -1.185748620239611 -1.8992168879278803 0.11424598745681687 0 0 0
309 70 4 0 -0.09439458258128912 -2.123038932604201 0.27128629297062645 1 0 0
110 22 3 0 -0.46326370733202543 -1.9910034155522471 0.19906072744879713 0 0 0
209 42 3 0 0.9134496158095909 -0.22607970647067605 1.8822756974245325 1 0 0
225 45 3 0 1.7964663073052156 -1.7408025126088167 1.0816627544996296 0 0 0
223 45 3 0 1.3614255727930191 -1.2124939531490144 0.8577559305475267 0 0 0
296 66 2 0 1.797087366201617 -0.42846149783300014 1.4890550735955739 0 0 0
297 66 4 0 1.9044012465832276 -0.6999407315291629 1.1200405217117761 0 0 0
222 45 3 0 2.0434007854435134 -1.055028358264205 0.9983238455201446 0 0 0
221 45 1 0 1.7615350743415248 -1.354551021488405 0.8359719360153008 0 0 0
224 45 3 0 1.8790419229422957 -1.4484545034311682 0.36861136745561146 0 0 0
271 57 4 0 1.7375708570884738 -1.2735454009680078 0.03712868941952717 0 0 0
279 60 4 0 3.7627536915841095 -1.3946414386433637 2.24398254144294 -1 0 -1
164 33 3 0 -1.8947833117291384 -3.9922622725494605 1.3904002957093966 1 0 0
64 13 3 0 3.663469618071766 -0.9320301147053736 0.07617504111572418 0 0 0
398 100 2 0 -3.4959199067805575 -2.4292847841092833 2.9555218766751685 0 1 0
399 100 4 0 -3.2979106531363165 -2.1599809110156025 3.270045852756913 0 1 0
77 16 3 0 -3.2679483524649813 -1.96419487060902 3.6300542550697363 0 0 0
76 16 1 0 -2.918017605759676 -2.0873118509605484 3.8769238350975272 0 0 0
400 100 4 0 -3.6900028975675814 -2.690697541175825 2.6528260977454994 0 1 0
199 40 3 0 -3.871826949729855 -2.70225311894305 2.2943493674193243 1 1 0
78 16 3 0 -2.582767251343886 -2.2527716266341313 3.592991589685229 0 0 0
205 41 3 0 -1.3470497592351551 -1.965414254810907 2.0416853771051686 0 1 0
384 95 4 0 -2.4407977374857066 -2.4624100535056117 3.2453787809192343 1 1 0
383 95 2 0 -1.9936570534587346 -2.355513857297449 3.121850426148641 1 1 0
385 95 4 0 -1.5523438815924515 -2.2600264281828277 3.005255494340188 1 1 0
143 29 3 0 -1.2183848550273029 -2.4474258944317504 3.0892642318533547 0 1 -1
142 29 3 0 -1.0863034898043198 -3.1382463755250045 2.940594984832005 0 1 -1
237 48 3 0 -2.5865362219358534 -0.09757314988411026 1.7549146646592637 0 0 0
254 52 2 0 -0.7029319721857205 -3.841130455405389 3.0416781730994304 0 0 -1
255 52 4 0 -0.9641259681978633 -3.477897904388945 3.055560808729843 0 0 -1
141 29 1 0 -0.920214307984695 -2.765435599986959 3.102370698144674 0 1 -1
395 99 2 0 -0.05097708459172581 -2.981321798699185 2.22725001532042 0 1 0
144 29 3 0 -0.7818935768953448 -2.826182230524066 3.51694542877132 0 1 -1
145 29 3 0 -0.5541830890910094 -2.6343830736356555 2.839045329900423 0 1 -1
397 99 4 0 -0.28079838958455977 -2.8442766543024574 2.6071191579091173 0 1 0
67 14 3 0 -0.5444922016938379 -2.323133746891072 3.8293338568269237 0 0 -1
197 40 3 0 3.668798663167849 -3.287330264239338 2.190596403381683 0 1 0
196 40 1 0 -3.996591056028395 -3.0179452090417205 1.998189769239563 1 1 0
34 7 3 0 3.9362097795717004 -0.13594707552030003 3.663812283278686 -1 0 -1
32 7 3 0 -3.811027332193068 -0.15678925455994297 2.949952125089062 0 0 -1
290 64 2 0 -3.0089032705739482 -1.0401359777045112 3.850406285891247 0 0 0
33 7 3 0 -3.4851005639856303 -0.5504562709086552 3.4711579291022625 0 0 -1
291 64 4 0 -3.281469262801974 -0.6967332280135428 3.810444461169648 0 0 0
292 64 4 0 -2.7081935589114217 -1.398765642518699 3.8912808289894603 0 0 0
373 91 4 0 2.381227836926492 -0.05077592364417397 3.863801023639373 0 0 0
31 7 1 0 -3.8681144338569418 -0.40506915304087965 3.3366281169131455 0 0 -1
298 66 4 0 1.6925403765451195 -0.15922969875687887 1.8631432950994626 0 0 0
201 41 1 0 -1.0879316058914084 -1.58876149009922 2.044110599418032 0 1 0
304 68 4 0 -1.0536145875333802 -1.4412285926336346 3.629167693514043 0 0 0
302 68 2 0 -1.0929346518543406 -1.3113111685302168 3.181680461782192 0 0 0
303 68 4 0 -1.1311842764729814 -1.1963248421705581 2.773413397289306 0 0 0
203 41 3 0 -1.1845256213816586 -1.3361249087735523 2.3999564438757037 0 1 0
366 89 4 0 -1.048291270296527 -0.17094344034899459 2.428845653976149 1 0 0
365 89 2 0 -0.9053106854197742 -0.18252389051768278 2.879038793742873 1 0 0
274 58 4 0 0.764823946850747 -0.8262616213530983 3.6521230685638035 0 0 -1
202 41 3 0 -0.6346603185135564 -1.7123104335974606 2.0535735262625696 0 1 0
273 58 4 0 -0.04263778944744677 -0.36967472471893165 3.7448701701476845 0 0 -1
96 20 1 0 0.4608732825269881 -1.7727568293002913 3.8220623578391812 0 0 0
99 20 3 0 0.8758591207703037 -1.7868475526868945 3.6051130931080952 0 0 0
367 89 4 0 -0.7873978537840616 -0.19608405764584474 3.269940839829107 1 0 0
97 20 3 0 0.1598989045307043 -1.54393495603857 3.5680394827217023 0 0 0
272 58 2 0 0.358199469860429 -0.5985629243754856 3.7011646367127566 0 0 -1
98 20 3 0 0.30885579580673245 -2.2140510544922143 3.8985542152739114 0 0 0
234 47 3 0 -3.4635149848806788 -2.953030399757242 0.03988082040513521 1 1 0
47 10 3 0 -2.278205700102215 -2.037872438454571 0.3185627181048704 0 0 0
43 9 3 0 -2.8499470413407137 1.4804201421639687 -2.826627043454473 1 0 0
293 65 2 0 -3.6532603503996857 0.276251642990051 -2.2919626507205693 1 0 1
41 9 1 0 -2.8309359427318297 1.0686021383050626 -2.6548947903375835 1 0 0
44 9 3 0 -2.6718816575430355 1.093037389936282 -2.233537033901309 1 0 0
42 9 3 0 -3.2884026415374272 0.8729026344425604 -2.640618820611973 1 0 0
295 65 4 0 -3.563742386374265 0.72723655021116 -2.3333148661635903 1 0 1
45 9 3 0 -2.5688865940674965 0.8196843835698391 -2.898954790281098 1 0 0
14 3 3 0 -1.9497447138451856 1.8693301008320462 -2.150197271555577 0 0 0
18 4 3 0 -0.4234395168653121 0.8808248702611856 -2.6510853349746646 0 0 0
334 78 4 0 -0.033141828045644105 1.1524873213210451 -2.1038568628043044 0 0 0
17 4 3 0 0.06453787446097003 0.7723929835868212 -2.1672888969942177 0 0 0
16 4 1 0 -0.08678695301702492 0.6504704009197018 -2.552945784236364 0 0 0
19 4 3 0 0.2260609759079209 0.7216959811702004 -2.8700339285473193 0 0 0
20 4 3 0 -0.1981252097738876 0.22601585871456775 -2.536437911506206 0 0 0
322 74 4 0 0.1914939360904301 0.08702749191705281 -3.248507249112517 0 0 1
193 39 3 0 2.8573202012672065 1.4724578739536993 -3.851812064641851 0 0 1
335 79 2 0 -2.637798629692484 3.141634649722538 -2.512985221813319 0 0 0
337 79 4 0 -2.8510264981213997 3.572447576380243 -2.5457353027203284 0 0 0
129 26 3 0 -3.169130422217313 3.6929083774916864 -2.736993080680544 0 0 0
336 79 4 0 -2.441099918764316 2.7492309942898054 -2.479077534137387 0 0 0
126 26 1 0 -3.416795995169589 3.999933148834747 -2.485978431817148 0 0 0
7 2 3 0 -3.9317985053350846 3.3663321518934026 -3.681598620437267 1 0 0
127 26 3 0 -3.6115677014723206 3.801251588186672 -2.1529438270836225 0 0 0
15 3 3 0 -2.4801191708006094 2.371398747505682 -2.328125904882432 0 0 0
13 3 3 0 -1.7623734346891948 2.5654522929071675 -2.304213038503715 0 0 0
133 27 3 0 -1.106802357237129 3.709058911797291 -3.498442380200523 0 0 0
11 3 1 0 -2.0690150152826474 2.3060223390484587 -2.110853342058617 0 0 0
132 27 3 0 -1.6128864933072022 3.6293915669957406 -2.9772554718600404 0 0 0
131 27 1 0 -1.5272760320036323 3.653515874561604 -3.432142339887125 0 0 0
134 27 3 0 -1.66429529139563 3.2805637385171083 -3.6156322501128035 0 0 0
350 84 2 0 -0.7231282207467352 3.8727887409971933 -2.223852427248885 0 0 0
351 84 4 0 -0.9447815837732247 3.787580140637117 -2.5894144796282363 0 0 0
116 24 1 0 0.5027978254683025 3.623347869428722 -3.9298579854253317 0 0 0
348 83 4 0 2.2463377539160567 2.342774465624461 -3.585932662398788 0 0 0
117 24 3 0 0.6764823329376076 3.279507965018628 -3.7054148630415478 0 0 0
347 83 2 0 2.0947657085907467 2.2935500256470727 -3.1729421264308053 0 0 0
75 15 3 0 2.5579903839668674 2.700123400504514 -2.0320734104704523 0 0 1
328 76 4 0 1.8151979756132919 3.993999764399726 -3.0543106971634253 0 -1 1
74 15 3 0 2.167507660181745 3.210805343619418 -2.400869715751509 0 0 1
349 83 4 0 1.9513655237039 2.235464245304814 -2.7423483495103333 0 0 0
73 15 3 0 2.001017131394644 2.4705679289757754 -2.4113031457467193 0 0 1
71 15 1 0 2.1623742900001393 2.8056289190341954 -2.1542102240022056 0 0 1
9 2 3 0 3.3672004707383585 3.1879974182862956 -3.6057273048664102 0 0 0
301 67 4 0 -2.514642261817594 1.9120020796184338 -0.5033690618478772 0 -1 0
112 23 3 0 -2.3495026115694353 1.5877849035181129 -0.32143531450244905 0 0 0
115 23 3 0 -2.771448378725574 0.9628424589279468 -0.19316571399601348 0 0 0
111 23 1 0 -2.388535519339174 1.199226721556427 -0.06740876730490865 0 0 0
113 23 3 0 -2.0204945271488617 0.9385941455747961 -0.13348075637392343 0 0 0
382 94 4 0 -1.635733894737779 0.940717933505636 -0.15461791972695957 1 0 0
380 94 2 0 -1.228144453128797 0.941138006397572 -0.3544781758283398 1 0 0
381 94 4 0 -0.8427054915964326 0.9385538965442383 -0.5422369507961528 1 0 0
187 38 3 0 -0.15357528017104366 0.5980673204465664 -0.7790522354569013 0 0 1
332 78 2 0 0.06481798962600695 1.2548900596603423 -1.668263009249732 0 0 0
189 38 3 0 0.012912334968142597 0.9413589105923218 -0.16046065193302486 0 0 1
333 78 4 0 0.16810313664753004 1.3620245192637244 -1.222500447026506 0 0 0
188 38 3 0 -0.5530665574997998 1.20997548516223 -0.5923117401521037 0 0 1
186 38 1 0 -0.1285084625042554 1.0016310011675231 -0.5862539083026574 0 0 1
190 38 3 0 0.15749668478340073 1.251758057301899 -0.8154626754598828 0 0 1
4 1 3 0 0.5927465334642036 0.14186953209414566 -0.7464631200763289 0 0 0
172 35 3 0 2.333333333103633 1.224013762244293 -1.2254095558581455 -1 0 0
82 17 3 0 2.104049057433033 1.3752435933438185 -0.4937391166730514 0 0 0
85 17 3 0 1.5262387629209617 0.9953047939202647 -0.4586152956193025 0 0 0
81 17 1 0 1.8657254767960203 1.1518550566555923 -0.24387315334752668 0 0 0
83 17 3 0 2.111807040402224 0.8005520580239535 -0.0731498421668275 0 0 0
175 35 3 0 2.8968429599610817 1.2774303156633746 -0.776939144686493 -1 0 0
173 35 3 0 2.6984040457631107 0.6292345161049132 -1.0600792919008413 -1 0 0
174 35 3 0 3.042614444453867 1.1385503659427116 -1.506060351668805 -1 0 0
171 35 1 0 2.7352032285658354 1.0677126275423054 -1.135593588910141 -1 0 0
72 15 3 0 1.8851639404210074 2.852055896324285 -1.769843655592044 0 0 1
286 62 4 0 2.740543298354419 0.3928886624926171 -0.7374636566969284 0 0 -1
374 92 2 0 -3.6918141730298313 3.5127697926080033 -1.4986542597340673 0 0 0
376 92 4 0 -3.5475025230428012 3.4857946766203463 -1.0481442432243206 0 0 0
139 28 3 0 -3.2030943157879426 3.478737917835383 -0.8395866177580672 1 0 0
375 92 4 0 -3.827631939647877 3.5386136599467886 -1.942844852120031 0 0 0
136 28 1 0 -3.373698793185175 3.384635089226173 -0.4333789651904271 1 0 0
138 28 3 0 -3.795054382065235 3.503723499930659 -0.4246694614201052 1 0 0
299 67 2 0 -2.828257649905383 2.238734785392507 -0.4068476096271838 0 -1 0
140 28 3 0 -3.337548177596546 2.938634569969354 -0.3523952081513673 1 0 0
300 67 4 0 -3.1392732294658083 2.5806166745122785 -0.3015929152626553 0 -1 0
12 3 3 0 -2.110827935053406 2.4124631540452897 -1.6702295963035707 0 0 0
352 84 4 0 -0.4937931184514947 3.9522112235541087 -1.8665940290306888 0 0 0
135 27 3 0 -1.7559386274882522 3.9898385542272674 -3.608221411119612 0 0 0
120 24 3 0 0.09822333559830078 3.728779009886294 -3.7507557072628717 0 0 0
118 24 3 0 0.7097331862337114 3.887612699003169 -3.910952972774279 0 0 0
8 2 3 0 3.844428914363958 2.7471108020480286 -3.9453157717457144 0 0 0
137 28 3 0 -3.140985286487628 3.6210110209976376 -0.10217851889513066 1 0 0
6 2 1 0 3.739629113270088 3.169542218959297 -3.867641561844601 0 0 0
210 42 3 0 1.5285689565119183 0.1926213592698412 2.017649855275815 1 0 0
339 80 4 0 -2.805762115066273 0.1984118634819786 1.8965374844629088 0 0 -1
386 96 2 0 -2.405314442964311 1.0778425027385927 1.0441072089105123 0 0 0
388 96 4 0 -2.40372144568753 1.436046913234413 0.7693872425947752 0 0 0
114 23 3 0 -2.4071279284162617 1.3080708664599487 0.37634474097439313 0 0 0
387 96 4 0 -2.407114876967175 0.7321049475513964 1.3181754019567766 0 0 0
238 48 3 0 -2.508816489303752 0.37406920742285743 1.1702181886925727 0 0 0
105 21 3 0 -0.18064408286265257 1.8469089808854295 0.3706112017102038 0 0 0
102 21 3 0 -0.13295609071864714 1.511992001275454 1.0320398844611145 0 0 0
104 21 3 0 0.428829982450134 1.9342303205510976 0.7893955056531827 0 0 0
101 21 1 0 -0.025746074116636417 1.8808975970035806 0.8004163704873307 0 0 0
394 98 4 0 0.7626703285101698 1.9867123070097668 0.557979762956722 0 0 0
392 98 2 0 1.1384083096098223 1.7576523732143388 0.492004757999128 0 0 0
393 98 4 0 1.5340399368270725 1.5249774981364472 0.42341203568482394 0 0 0
207 42 3 0 0.8948092833837396 0.5177128384684332 1.7577276859900572 1 0 0
84 17 3 0 1.7204386252146961 1.4035536702853855 0.10453036988471624 0 0 0
220 44 3 0 -3.0534360293097125 3.5580637352000952 1.4337063482014263 0 0 0
216 44 1 0 -3.3819464855176884 3.508259646173884 1.1138871398394423 0 0 0
219 44 3 0 -3.768730192518272 3.430893127831047 1.3084308315830866 0 0 0
357 86 4 0 2.7325611407906685 3.908774216177794 0.31811541408848537 0 0 0
217 44 3 0 -3.2852063111821757 3.1633173323040245 0.8394884208238147 0 0 0
283 61 4 0 -2.6610903348659365 3.4049287603644807 1.3875904718302194 0 -1 0
281 61 2 0 -2.2741327245771608 3.2431554383020544 1.6113366705062102 0 -1 0
10 2 3 0 3.656468982747644 3.3576968260658098 3.7622451588018433 0 0 -1
87 18 3 0 -0.9097337634816984 2.749056217811419 1.7938969868771304 0 -1 0
162 33 3 0 -1.455491380783484 3.445382932413648 1.195137508615137 1 -1 0
161 33 1 0 -1.537974003626725 3.899214162048079 1.1520219046554285 1 -1 0
282 61 4 0 -1.8948073324788148 3.080078399612638 1.8412393971494068 0 -1 0
370 90 4 0 -0.5676527733882663 2.936660660889566 1.759173379558753 0 0 0
368 90 2 0 -0.28399439296077345 2.6912197003935825 1.5189494978976081 0 0 0
103 21 3 0 -0.20436111490726627 2.2202421945671524 0.9968013968108113 0 0 0
369 90 4 0 -0.006091168454010102 2.4503463563353476 1.2870520085178476 0 0 0
212 43 3 0 1.9345073275892928 2.7397899066165077 1.4330122434142951 0 0 0
211 43 1 0 2.223864680206542 2.4050004639501594 1.5603243225892542 0 0 0
214 43 3 0 2.3792063159156704 2.2316042004505663 1.2038865504894467 0 0 0
213 43 3 0 2.0222069291403764 2.110045562998339 1.7831558632185673 0 0 0
358 86 4 0 1.9677659600226463 3.4905040463583403 0.5842849930515375 0 0 0
356 86 2 0 2.338400829447199 3.694649566334048 0.45357789983900276 0 0 0
215 43 3 0 2.538779403644078 2.578219777631621 1.8075776547295748 0 0 0
157 32 3 0 3.46697902107223 3.968033638521261 0.19468283745993964 -1 0 0
378 93 4 0 3.0128786239804404 2.780676419482699 0.38115258596670887 -1 0 0
377 93 2 0 2.858267587203357 2.4713485092710656 0.6711680881509999 -1 0 0
379 93 4 0 2.6963126041294094 2.17011817320803 0.9639547054681002 -1 0 0
338 80 2 0 -3.0142886003003144 0.5376926199456841 2.1185631344172755 0 0 -1
340 80 4 0 -3.21005796206152 0.8813490468401097 2.3350069951180505 0 0 -1
92 19 3 0 -3.388857705583004 1.2614838820292003 2.301374773440999 1 0 0
95 19 3 0 -3.2176237249829316 1.517706295162583 2.941131061337861 1 0 0
91 19 1 0 -3.375026594725014 1.6302411927253708 2.5703751025875996 1 0 0
93 19 3 0 -3.1112192194013373 1.9531257031501017 2.375146326576066 1 0 0
94 19 3 0 -3.7852932308226834 1.7863567734382049 2.6272292786261335 1 0 0
248 50 3 0 -1.0002673954944905 0.7824768424034376 2.873592055518628 0 0 0
250 50 3 0 -0.6829982890244387 0.9050790400269142 2.227355922149037 0 0 0
246 50 1 0 -0.6507615683788389 0.9583341461897111 2.6834207351782844 0 0 0
247 50 3 0 -0.30105537821151074 0.769676803893031 2.8196124449315048 0 0 0
316 72 4 0 -0.7084918784184954 1.5111855729156431 3.1668141436787445 0 -1 0
249 50 3 0 -0.6292643185484349 1.39476987214826 2.7811275837361604 0 0 0
314 72 2 0 -0.6313414473199228 1.9693975434431645 3.2647842661323656 0 -1 0
208 42 3 0 0.9223549008218792 0.26678603286967656 2.4672143221856735 1 0 0
206 42 1 0 1.066847162031229 0.1928223059321598 2.0294990846666034 1 0 0
192 39 3 0 2.2798087054868663 1.4667863853268452 3.6943209402857704 0 0 0
360 87 4 0 1.8751152802089381 1.9582944760302696 2.137039671336377 0 0 0
195 39 3 0 2.908077640685688 1.7513512250889836 3.4727038599049385 0 0 0
191 39 1 0 2.7152162829354727 1.4262502051993533 3.71041729477821 0 0 0
194 39 3 0 2.846451603547276 1.042024586648397 3.5473620923900264 0 0 0
372 91 4 0 2.870171004191532 0.6896135112938626 3.7315820172269 0 0 0
371 91 2 0 2.625246760819432 0.3148508950152723 3.7905091989465043 0 0 0
88 18 3 0 -1.3213592851028098 2.6974899230652465 2.4144610896613212 0 -1 0
86 18 1 0 -1.15283147181439 2.982644720657828 2.085141896677792 0 -1 0
90 18 3 0 -1.514370202775218 3.1963927946854342 1.8523999120348686 0 -1 0
89 18 3 0 -0.8709075316545586 3.3104475929415202 2.2804166422901315 0 -1 0
185 37 3 0 -0.9927623426045344 3.227793773853904 3.473225558501816 0 0 0
230 46 3 0 0.7763611427689602 2.540553072187981 3.4565703097062546 0 0 0
181 37 1 0 -0.5636226364969716 3.100406747634401 3.359019255080355 0 0 0
182 37 3 0 -0.3279024447304213 3.021460518151974 3.731579371277325 0 0 0
256 52 4 0 -0.45262654154518295 3.8133296890857804 3.034972114472882 0 -1 -1
183 37 3 0 -0.36700250091798137 3.4413344288915466 3.119347909952396 0 0 0
315 72 4 0 -0.5617092861054348 2.397164079811758 3.361404363845329 0 -1 0
184 37 3 0 -0.5623502549851348 2.7290198842640447 3.1032229118430954 0 0 0
119 24 3 0 0.45411304136050773 3.508381811985772 3.64112443350446 0 0 -1
359 87 2 0 1.6247757680062498 2.0979597073838234 2.5004524671459607 0 0 0
227 46 3 0 1.4697122802632887 2.517964769449596 3.7347081692701294 0 0 0
361 87 4 0 1.3774881477121257 2.2345529068807655 2.8494290993900697 0 0 0
226 46 1 0 1.2044865071202469 2.702263510679568 3.405476356102634 0 0 0