LAMMPS data file via write_data, version 29 Aug 2024, timestep = 9000, units = lj

847 atoms
4 atom types
598 bonds
1 bond types
499 angles
2 angle types

-4.496439 4.496439 xlo xhi
-4.496439 4.496439 ylo yhi
-4.496439 4.496439 zlo zhi

Masses

1 1
2 1
3 0.1
4 0.1

Bond Coeffs # harmonic/omp

1 100 0.361231

Angle Coeffs # harmonic/omp

1 100 180
2 100 109.471

Atoms # full

298 66 4 0 -4.248327480961708 -3.4736686295760713 -3.016397008892043 0 0 0
29 6 3 0 -3.0584038491772927 -3.64657541158202 -3.048630666871103 0 0 0
422 108 2 0 -3.149282087239877 -3.8375751781032243 -3.774264524591614 0 1 0
424 108 4 0 -3.1176686337495996 -3.7467220030248423 -3.4241078992867124 0 1 0
423 108 4 0 -3.1795760174186913 -3.9339127900690842 -4.163463988720652 0 1 0
19 4 3 0 -0.18819564879081463 -3.593292364546112 -3.6836394030664596 0 0 0
16 4 1 0 -0.02730017188471884 -3.7546276200036246 -3.3951805894589917 0 0 0
18 4 3 0 -0.17710410727172696 -4.05620950164485 -3.337174941016431 0 0 0
20 4 3 0 -0.05898483667720567 -3.5534767195666586 -3.1111690829081784 0 0 0
32 7 3 0 -4.002585785456293 -4.4518478870426215 -0.29182568527838304 0 0 0
293 65 2 0 -3.3728863701439846 -2.3706496916842523 -4.315125536667623 0 0 0
295 65 4 0 -3.069834597229218 -2.334073960054847 -4.138383238430944 0 0 0
302 68 2 0 -2.2716218163949926 -2.4143671094919394 -4.1256210481906965 0 0 0
304 68 4 0 -2.634208742112004 -2.4399232837107427 -4.0935358419096275 0 0 0
303 68 4 0 -1.92155516332443 -2.4001866230566336 -4.157181295909784 0 0 0
38 8 3 0 -1.3382518165944763 -2.2800034596396066 -3.3605988864094556 0 0 0
36 8 1 0 -1.288784584632946 -2.2739879210439597 -3.037547300534097 0 0 0
8 2 3 0 -0.8346100194824109 -1.484613005561357 -4.054944318257362 0 0 0
40 8 3 0 -0.9658519853663445 -2.3966995553142043 -2.967728010872541 0 0 0
382 94 4 0 -3.620171656819046 -0.7181927412140551 -4.341580828181582 0 0 1
380 94 2 0 -3.3187641103527366 -0.8133023368151195 -4.184336180567187 0 0 1
134 27 3 0 -4.209291635808131 -0.7849393607268493 -3.977716627392936 1 0 0
133 27 3 0 -4.350920986227561 -0.2080571772906657 -3.875318164836595 1 0 0
131 27 1 0 -4.451968859753696 -0.5249720664885447 -4.042960483485467 1 0 0
132 27 3 0 -4.485145544367589 -0.4671277424911173 -4.416250201268212 1 0 0
259 53 4 0 -2.825130564556931 -1.2811328735479282 -3.169883281593347 0 0 0
381 94 4 0 -3.004972647013257 -0.9140612350014568 -4.002377527443086 0 0 1
395 99 2 0 -2.651767761968232 -0.024075041439721674 -3.531574090752473 0 0 0
257 53 2 0 -2.5144877646509567 -1.1331394453049382 -3.1521812607017625 0 0 0
397 99 4 0 -2.6604508345036924 -0.3687005054789073 -3.61313501520083 0 0 0
6 2 1 0 -0.8167371279587764 -1.3720091587634697 -4.414408489043511 0 0 0
775 225 4 0 -0.4116901599086077 -0.25166641090676023 -3.9533872716153344 0 0 0
277 59 4 0 -0.7229395615309959 -0.6313836554890699 -3.3034677783008206 0 0 0
773 225 2 0 -0.057992966061850615 -0.31105904211623614 -3.8930530044969553 0 0 0
9 2 3 0 -0.6104342448156677 -1.0685870447999097 -4.436756595738599 0 0 0
296 66 2 0 -4.33043792394798 -3.758451501393451 -2.8398096659499195 0 0 0
297 66 4 0 -4.412854460073912 -4.059551685405869 -2.6524024917502635 0 0 0
30 6 3 0 -3.3643237395314753 -3.3849802914549265 -2.64344802879657 0 0 0
262 54 4 0 -3.1169615202919303 -4.4412636364083005 -1.7928841623313279 0 0 0
26 6 1 0 -3.046695921400307 -3.517001474231813 -2.724985066962309 0 0 0
28 6 3 0 -2.9592958652617303 -3.773719744041889 -2.492945935570773 0 0 0
260 54 2 0 -3.2032615845195007 -4.130886110532448 -1.6238973843131184 0 0 0
261 54 4 0 -3.2869634590165355 -3.8238886024756202 -1.4610088301101458 0 0 0
271 57 4 0 -1.554173358801594 -4.460281728045725 -2.9034945445469877 0 0 0
27 6 3 0 -2.7998464378665493 -3.248804686358045 -2.70455534547934 0 0 0
283 61 4 0 -2.4825235227568014 -3.074380928883054 -2.8846494397995404 0 0 0
269 57 2 0 -1.7542250687338536 -4.154721981270606 -2.957716985341944 0 0 0
270 57 4 0 -1.9382370563213245 -3.8879453690054695 -3.0174693913355037 0 0 0
307 69 4 0 -3.560922163803625 -2.7736240876771086 -1.721934124086143 0 0 0
305 69 2 0 -3.4039334099946323 -2.584786382737087 -1.983229530154323 0 0 0
306 69 4 0 -3.2427818921451377 -2.3879627824843808 -2.250979087277949 0 0 0
553 151 4 0 -4.275046023688475 -1.8338804392034427 -1.749964080851055 1 0 0
559 153 4 0 -3.938016937498812 -2.7421156244152396 -1.5545270230766453 1 0 0
39 8 3 0 -1.5418764129712732 -2.486727815142476 -2.8680458227558727 0 0 0
282 61 4 0 -1.8584709199696723 -2.7293211462345983 -2.8782253156372626 0 0 0
281 61 2 0 -2.139073803055234 -2.8869274265170612 -2.8791670234849627 0 0 0
23 5 3 0 -1.0018557256758054 -1.3341188605439143 -1.500185578733127 0 0 0
37 8 3 0 -1.3170242567686472 -1.9153711480290596 -2.906699229414598 0 0 0
288 63 4 0 -0.7609476527499615 -1.5433588792881368 -2.289027297875529 0 0 0
287 63 2 0 -0.49792240757665607 -1.6748308320852365 -2.466713199260273 0 0 0
25 5 3 0 -1.5521993521117297 -1.4956058482396422 -1.6887135447333326 0 0 0
289 63 4 0 -0.23506437233039137 -1.8066070526620877 -2.6497669870993343 0 0 0
70 14 3 0 -2.9969660780460585 -0.09651624857723577 -2.1369667962865155 0 0 0
67 14 3 0 -3.1389933465672657 -0.52487852562805 -2.4948945563362623 0 0 0
69 14 3 0 -2.598611105297915 -0.3704658339316412 -2.4814820366166894 0 0 0
258 53 4 0 -2.178034049222783 -0.9687254249885322 -3.142902055080987 0 0 0
448 116 4 0 -1.7765968577399918 -0.09213118275313573 -2.443698514117847 0 0 0
66 14 1 0 -2.928642596826251 -0.2553181395878826 -2.462868925192494 0 0 0
446 116 2 0 -1.6447594330185817 -0.356221574122027 -2.2175399714359996 0 0 0
275 59 2 0 -0.5801849322946253 -0.5193579483875542 -2.972223260442933 0 0 0
447 116 4 0 -1.5106634984279972 -0.6135453166160949 -1.9839121485693498 0 0 0
22 5 3 0 -1.3222941096965757 -0.9658288163483469 -1.8766754164836683 0 0 0
276 59 4 0 -0.4337780361810956 -0.41097001008303913 -2.6389240312845987 0 0 0
24 5 3 0 -1.1021739062290765 -1.4902583706112995 -2.068053358629573 0 0 0
21 5 1 0 -1.2520070246229753 -1.327087442621786 -1.7829289055615192 0 0 0
44 9 3 0 -0.12151078608444982 -0.3760052692744155 -2.3807988830199873 0 0 0
252 51 4 0 -0.607490647239873 -0.043057630760364916 -0.7834217568257921 0 0 0
572 158 2 0 -0.15607883338540754 -1.3827801676023292 -0.06277610601285248 0 0 0
35 7 3 0 -4.166616189233458 -4.127652361351685 -0.7870662548162493 0 0 0
558 153 4 0 -4.375508431993073 -3.0582204586670327 -1.0022847110672657 1 0 0
31 7 1 0 -4.042470830694282 -4.4587346265081615 -0.6682316076942356 0 0 0
264 55 4 0 -0.0034861580699602508 -3.424171524249188 -2.2548423462491485 0 0 0
309 70 4 0 -1.4217748690280636 -4.340392026162473 -1.129700648899287 0 0 0
292 64 4 0 -3.0389660199515425 -3.444498479486305 -0.02520590995335682 0 0 0
13 3 3 0 -2.481923616959444 -3.8983310021457322 -0.7171507391708143 0 0 0
14 3 3 0 -2.3095581919186907 -3.6593323930027535 -1.2151667008810898 0 0 0
15 3 3 0 -2.431689580131283 -3.3331021648093766 -0.7258243954419511 0 0 0
11 3 1 0 -2.2919357056917073 -3.640119804162179 -0.8444740289454536 0 0 0
12 3 3 0 -1.9568069014532075 -3.671993440793845 -0.7335983225136556 0 0 0
5 1 3 0 -0.22266031916008538 -4.219672541268084 -0.280436494948633 0 0 0
68 14 3 0 -2.9889224088697204 -0.01535777343107661 -2.727622229547224 0 0 0
557 153 2 0 -4.152217180748869 -2.9044032945189904 -1.2705480088256584 1 0 0
551 151 2 0 -4.201052564411477 -1.6852555977310135 -1.4334285903277868 1 0 0
326 76 2 0 -3.091668168074872 -2.020077606556307 -0.028795028694760257 0 0 0
327 76 4 0 -2.8613421224736815 -2.0802105559231348 -0.3056330163721055 0 0 0
279 60 4 0 -2.167314120604944 -1.9343752589250627 -0.6991653194053118 0 0 0
278 60 2 0 -2.0061890041970685 -1.7299324651848753 -0.43079574528056624 0 0 0
280 60 4 0 -1.8505913657624116 -1.5400568403894217 -0.18065154668405414 0 0 0
274 58 4 0 -3.034276318098384 -0.532679400629383 -1.467104437950454 0 0 0
266 56 2 0 -3.999680182194194 -1.320176033351067 -0.39306408342601623 0 0 0
552 151 4 0 -4.122788641620886 -1.5125623559847654 -1.0753318062112798 1 0 0
267 56 4 0 -4.168916805457088 -1.3816719153089285 -0.7133903926143403 0 0 0
273 58 4 0 -2.5175367801076423 -0.6900452022798967 -0.8962356748687198 0 0 0
272 58 2 0 -2.7732514972595848 -0.6061154477187293 -1.1820067464910657 0 0 0
355 85 4 0 -0.7561364762574813 -0.12442522695760798 -4.108318207432901 0 0 1
268 56 4 0 -3.844214787079499 -1.2582286196257104 -0.08422018178881326 0 0 0
347 83 2 0 -3.9412399553521755 -3.509344521840694 0.9310057621501417 0 0 0
348 83 4 0 -4.129771830362861 -3.62144239853597 0.6402436949041113 0 0 0
349 83 4 0 -3.7535957092427634 -3.404049281466289 1.2461148384688145 0 0 0
373 91 4 0 -2.931271331515504 -4.263997537797556 1.3247251473889614 0 0 0
291 64 4 0 -3.658398801403451 -3.0544764057002993 0.12023661944144189 0 0 0
300 67 4 0 -1.741385652472564 -3.616973697161064 0.5524235258780986 0 0 0
299 67 2 0 -1.8073037120719708 -3.9674857591243664 0.41005684751047733 0 0 0
301 67 4 0 -1.8620656197832923 -4.28555905256801 0.28362957538364747 0 0 0
156 32 1 0 -0.03961743619046916 -2.615980090536409 3.241069433260994 0 0 0
377 93 2 0 -0.8574900393708553 -4.37207828689231 0.9328442205883827 0 0 0
378 93 4 0 -0.6205615084998822 -4.409171829586566 0.6227579662446512 0 0 0
4 1 3 0 -0.36388049951190005 -4.3662668933293025 0.30503392200866664 0 0 0
379 93 4 0 -1.0850435691642815 -4.334868377218684 1.2268891430500544 0 0 0
1 1 1 0 -0.19775017777149242 -4.113080513374394 0.08656632729252342 0 0 0
330 77 4 0 -0.5152633937249225 -3.386447058330933 0.1128746712468835 0 0 0
329 77 2 0 -0.35852742009749594 -3.060838631454084 0.24328628828495497 0 0 0
328 76 4 0 -3.324010342226286 -1.96700720591247 0.24824705931959626 0 0 0
321 74 4 0 -3.0841184980644645 -1.7260091382791019 1.0803421796231294 0 0 0
325 75 4 0 -2.0573705225421657 -2.679163599303218 0.7267059944489648 0 0 0
323 75 2 0 -1.815705815241787 -2.876866437262935 0.5320981530673424 0 0 0
388 96 4 0 -2.257320220631138 -2.415115405426041 0.9078654152194064 0 0 0
386 96 2 0 -2.523711062543872 -2.1926911064357144 1.0408688746959083 0 0 0
387 96 4 0 -2.7659562876738146 -1.9830093584077264 1.1669727570421744 0 0 0
324 75 4 0 -1.57811929454419 -3.062088379615357 0.34530272961446146 0 0 0
317 73 2 0 -0.09747780377097975 -1.6398632457843716 1.2699943980345 0 0 0
385 95 4 0 -0.2925535555327714 -2.3603257776517137 1.4047477190385496 0 0 0
331 77 4 0 -0.21151521706766863 -2.7626309309022967 0.3634462767637868 0 0 0
319 73 4 0 -0.06443436134655879 -2.0549005909453215 1.2620208216395303 0 0 0
320 74 2 0 -3.3302703394600464 -1.4243013238001925 1.0885986034417 0 0 0
322 74 4 0 -3.5381883371190193 -1.1487854837226874 1.091838610927905 0 0 0
150 30 3 0 -4.389397293684609 -0.7766193972871995 1.1186391672911875 1 0 0
149 30 3 0 -3.9994598371463366 -0.28319321079229026 1.2386079133744619 1 0 0
147 30 3 0 -3.7658191206028166 -0.8311361893401564 1.0388858342992244 1 0 0
146 30 1 0 -4.063193503920725 -0.5892977051366082 1.0073514906477405 1 0 0
148 30 3 0 -4.091876110041308 -0.493317044408588 0.6545505835523321 1 0 0
546 149 4 0 -4.005291306287263 -0.002936157780100484 1.5561463992437834 0 0 0
361 87 4 0 -2.3278050305578595 -1.3281464529183558 1.2070401144229024 0 0 0
332 78 2 0 -1.5068972582617572 -1.2186271383836278 0.42060267040693483 0 0 0
333 78 4 0 -1.5883918095768776 -1.3740340152929627 0.07466693534106429 0 0 0
334 78 4 0 -1.4258925265499436 -1.0731840676440199 0.7600630433570263 0 0 0
335 79 2 0 -1.2834265628864263 -0.8655160622354141 1.4509012434849764 0 0 0
337 79 4 0 -1.3581563424305392 -0.9775787104223057 1.1327007420093274 0 0 0
542 148 2 0 -0.6773526787569195 -0.16561533596435604 0.4980567556077863 0 0 0
544 148 4 0 -0.9749151648395893 -0.0939461553785382 0.3466483162824351 0 0 0
543 148 4 0 -0.36610298575362327 -0.23432644718454562 0.6555354315681051 0 0 0
574 158 4 0 -0.4983829524429627 -1.4154656596001667 0.11517846414032194 0 0 0
358 86 4 0 -3.7272829067433735 -3.1279789146009134 1.5368510060815233 0 0 0
103 21 3 0 -3.7806883459514107 -4.393804336695127 3.044815580804426 0 1 0
371 91 2 0 -3.1239257700219696 -4.231277080907875 1.636923967637708 0 0 0
372 91 4 0 -3.299359840921616 -4.202192674096438 1.9255455618403634 0 0 0
61 13 1 0 -2.985538312563733 -3.711705542767232 2.685047120035184 0 0 0
64 13 3 0 -3.163742335178185 -4.03490497927258 2.545120040087608 0 0 0
63 13 3 0 -3.16859054956561 -3.4095646370757975 2.569773899830741 0 0 0
356 86 2 0 -3.6235655922762757 -3.052923783662786 1.884847832386865 0 0 0
65 13 3 0 -2.661321348666535 -3.7021437104393993 2.570716730787609 0 0 0
351 84 4 0 -1.6755623678145564 -4.1358400396363475 2.1243898004019117 0 0 0
374 92 2 0 -1.6772072685835782 -3.493497855681071 2.939806262609532 0 0 0
62 13 3 0 -2.985401576198372 -3.7227812076367366 3.033876093393473 0 0 0
376 92 4 0 -2.030650098943871 -3.4512448787760084 3.020964659177815 0 0 0
352 84 4 0 -1.2536327323808256 -4.195300725974577 1.5681387033411986 0 0 0
375 92 4 0 -1.309622284279458 -3.5353839063055488 2.8507474613895356 0 0 0
350 84 2 0 -1.4632445522021988 -4.165300041627716 1.8478716721861244 0 0 0
340 80 4 0 -0.916298645212458 -3.4373983776107524 2.7272678620496493 0 0 0
338 80 2 0 -0.5777892542950999 -3.414887073674473 2.685450381879398 0 0 0
339 80 4 0 -0.20372162037074773 -3.385252068249587 2.6497222511161227 0 0 0
108 22 3 0 -0.901044981523445 -4.456535984954376 2.9975511329325424 0 1 0
357 86 4 0 -3.524108595030272 -2.9792521618292933 2.2126171506462184 0 0 0
362 88 2 0 -3.147891494892901 -1.9051150521291216 2.445626580106223 0 0 0
364 88 4 0 -3.2899444921405987 -1.6037280218612642 2.299459431848075 0 0 0
363 88 4 0 -3.0033456957410687 -2.220634072739458 2.599899034400131 0 0 0
368 90 2 0 -2.476881294824939 -2.6924862065055795 2.821849283016306 0 0 0
369 90 4 0 -2.7253207405917417 -2.4645585282341558 2.734211309351111 0 0 0
384 95 4 0 -0.8060541204460907 -2.949719381869855 1.3953937491041726 0 0 0
383 95 2 0 -0.549281457155008 -2.65272148870817 1.4036052034355517 0 0 0
46 10 1 0 -3.622488155748151 -0.9215594965787129 2.2559822147431388 0 0 0
47 10 3 0 -3.911952386529351 -0.9676621600079766 2.487578016856614 0 0 0
48 10 3 0 -3.3862202746287724 -0.7041425282829181 2.3994465078382863 0 0 0
50 10 3 0 -3.455164459026721 -1.257184070522589 2.193019581256688 0 0 0
49 10 3 0 -3.750498043640279 -0.77474296871672 1.9285894881063004 0 0 0
359 87 2 0 -2.362566146986907 -1.213594401985182 1.5654219104813396 0 0 0
52 11 3 0 -2.104459675432079 -0.7726554385326954 2.7276765445490003 0 0 0
360 87 4 0 -2.392619825824574 -1.098679134270168 1.9136124853135363 0 0 0
51 11 1 0 -2.4490677321308345 -0.7332382316556991 2.5708815616248684 0 0 0
54 11 3 0 -2.467865264772156 -0.9219523979831804 2.252988249987142 0 0 0
55 11 3 0 -2.5221272074096635 -0.3563376094453155 2.5078320526045013 0 0 0
53 11 3 0 -2.6984000820270895 -0.8647485081016169 2.802552454490596 0 0 0
367 89 4 0 -1.6738353832722874 -0.7382933400257816 2.733543964138261 0 0 0
534 145 4 0 -2.4375840693103457 -0.06578395315437176 2.2620473569158874 0 0 0
336 79 4 0 -1.208386543605706 -0.7413154694755185 1.7918791772105847 0 0 0
365 89 2 0 -1.3277602955906858 -0.7220346863844684 2.8832728410989126 0 0 0
366 89 4 0 -0.9835685821482607 -0.7093723708668034 3.035346653651564 0 0 0
254 52 2 0 -3.0668467930897565 -3.6602752725438834 4.133012677963941 0 0 -1
256 52 4 0 -3.0720131858623327 -3.527824190968229 3.7859767271803713 0 0 -1
255 52 4 0 -3.068557164010915 -3.794608228708604 4.493990899448216 0 0 -1
56 12 1 0 -0.37005067101836053 -3.5049979060120013 3.8623008551488143 0 0 0
57 12 3 0 -0.423869141985248 -3.6176107018779047 3.5168289425786514 0 0 0
58 12 3 0 -0.4936604856514997 -3.7496048681491922 4.078179867950467 0 0 0
59 12 3 0 -0.536609955307292 -3.1923487478606623 3.910443666826393 0 0 0
60 12 3 0 -0.015070289660947155 -3.458136935771382 3.9290622592769444 0 0 0
672 191 4 0 -4.413535965916158 -2.816485243723041 3.501397379165936 1 0 0
341 81 2 0 -4.067210400423673 -2.1748594852968406 3.6125531799716613 0 0 0
343 81 4 0 -3.8779644174521275 -1.846529725680038 3.5637889122296564 0 0 0
342 81 4 0 -4.256276061247116 -2.494547694379428 3.664618308857225 0 0 0
370 90 4 0 -2.2303190442382386 -2.9251541225336273 2.9097729461577395 0 0 0
157 32 3 0 -0.3575210242207922 -2.5909324759200976 3.3339863823583933 0 0 0
344 82 2 0 -0.9352739530147254 -2.6135017509886698 3.8510733023559065 0 0 0
345 82 4 0 -1.2281286138660201 -2.572046539762479 4.056626722187757 0 0 0
346 82 4 0 -0.6265279567074717 -2.6587445918844006 3.6363364434782888 0 0 0
10 2 3 0 -0.6713076183355855 -1.6184827758314941 4.3904028997379445 0 0 -1
798 233 4 0 -4.437791521401935 -0.5727493102043278 4.206121704652874 1 0 0
799 233 4 0 -4.091379014180041 -0.6161787389834313 3.5444828866374567 1 0 0
797 233 2 0 -4.265930951688885 -0.5936414231716967 3.8733247392913754 1 0 0
316 72 4 0 -2.1347887018671297 -1.33111095173156 3.8989844159597284 0 0 0
314 72 2 0 -1.8245296133554507 -1.3289642887715833 4.0381876083570445 0 0 0
315 72 4 0 -1.4774234453485318 -1.3299222762915277 4.187415220589521 0 0 0
232 47 3 0 -0.3265426146218526 -0.3632374274601322 3.293341003406916 0 0 0
231 47 1 0 -0.5564045656146706 -0.2125355815699454 3.5350674838592306 0 0 0
233 47 3 0 -0.48016730142734737 -0.34938444723033685 3.8949913176141853 0 0 0
7 2 3 0 -1.1818596045484757 -1.3002550732256382 4.440770043400754 0 0 -1
234 47 3 0 -0.896133887042696 -0.29709318390149925 3.444939153064457 0 0 0
318 73 4 0 -0.12943876580170638 -1.2959057176670117 1.2785106867900164 0 0 0
294 65 4 0 -3.6734083072888715 -2.40456043716173 4.488732329140383 0 0 -1
290 64 2 0 -3.340366588499636 -3.2590818513367896 0.04501365222523436 0 0 0
3 1 3 0 -0.3742621774898929 -3.798604820372452 0.13235854723365623 0 0 0
426 109 4 0 -4.008225913005594 0.4216817086343836 -4.494758282421293 0 0 0
415 105 4 0 -3.9436562088804665 0.6732440646220795 -3.1731346874561326 0 0 0
413 105 2 0 -3.6565078447440653 0.8967104597480964 -3.069631090915082 0 0 0
425 109 2 0 -4.378432657391847 0.46274441793758136 -4.463294666819515 0 0 0
396 99 4 0 -2.644243858017599 0.3226719404586453 -3.45635293331736 0 0 0
749 217 2 0 -4.485953351188427 1.7291898609429568 -0.20983275334892848 1 0 0
353 85 2 0 -1.0455014324616667 0.1019617652516606 -4.085081104130721 0 0 1
88 18 3 0 -0.4534064255280514 0.6762302591052615 -3.025377943324891 0 0 0
354 85 4 0 -1.3368162153147811 0.33694410884741904 -4.057335468966653 0 0 1
401 101 2 0 -4.133288053250132 2.6934099580621855 -3.790029537471055 0 0 0
403 101 4 0 -3.9864808479823077 2.8259390186866438 -4.083681726554551 0 0 0
402 101 4 0 -4.274425231495035 2.5551995759601187 -3.506008663955835 0 0 0
408 103 4 0 -4.401375947084153 2.330349509333538 -3.182329941442542 0 0 0
392 98 2 0 -1.556911383744398 1.8379399824990483 -3.721080027488239 0 0 0
393 98 4 0 -1.6383704491492346 1.9691435907296693 -4.052693137298923 0 0 0
394 98 4 0 -1.4732161412295044 1.7169556280856721 -3.393754664898897 0 0 0
418 106 4 0 -0.8434715548857017 3.073335674310709 -4.415754056170369 0 0 0
34 7 3 0 -3.7201163793293035 4.461305633809692 -0.8301226903595963 0 -1 0
420 107 4 0 -0.815693080666331 4.2339483709554315 -3.8919566788621838 0 0 0
419 107 2 0 -0.5748654301599495 4.237273687580575 -4.19052879816355 0 0 0
421 107 4 0 -0.32834844757738285 4.234787735846004 -4.485092035941147 0 0 0
414 105 4 0 -3.386772746167884 1.0999406993061673 -2.9721389898229913 0 0 0
200 40 3 0 -4.493144742440951 0.7115510298947334 -2.116895956768824 1 0 0
410 104 2 0 -1.9581852912746864 1.1084537536054895 -1.7441100045661841 0 0 0
411 104 4 0 -1.9598837288405777 1.1932522675093362 -2.0656421830747544 0 0 0
430 110 4 0 -0.4686038440556806 4.1579300688854115 -1.191444735525788 0 0 0
42 9 3 0 -0.12791191088168946 0.08727063008055526 -2.0279007278082073 0 0 0
90 18 3 0 -0.19009043422466992 0.652092237759903 -2.469866490266109 0 0 0
87 18 3 0 -0.11448382069981479 1.1174841204823225 -2.8252165775293485 0 0 0
86 18 1 0 -0.3414512071551437 0.8810829835900019 -2.7306197886558334 0 0 0
89 18 3 0 -0.6067603973872037 1.038822278502926 -2.5911897579193175 0 0 0
733 211 4 0 -0.28361279286803676 1.2860025089517089 -1.7551691722705922 0 0 0
463 121 4 0 -3.2477473704114366 2.1613422686366532 -2.495374073254118 0 0 0
786 229 4 0 -3.555044595581341 2.5245987816192548 -1.5408516740707434 1 0 0
785 229 2 0 -3.7687819897520622 2.237950156358578 -1.448322923116743 1 0 0
462 121 4 0 -2.5530134147345755 2.3869295010209166 -2.3802737332393833 0 0 0
461 121 2 0 -2.8860977367757576 2.276142698592948 -2.4335538748250216 0 0 0
95 19 3 0 -1.638583634117216 2.0603236091363275 -2.148961207462907 0 0 0
91 19 1 0 -1.788927901076711 2.346499058036435 -2.271131942887443 0 0 0
94 19 3 0 -2.1684621822766137 2.3386427903608644 -2.206299552990269 0 0 0
93 19 3 0 -1.7219601926467143 2.3728460503554007 -2.636416823129415 0 0 0
92 19 3 0 -1.643744180714637 2.6353294064139594 -2.0966551998326532 0 0 0
714 205 4 0 -0.40567465864597524 2.7737502352576664 -1.2644933529017157 0 0 0
455 119 2 0 -0.25474256831546105 2.988941785113117 -2.36867594834296 0 0 0
456 119 4 0 -0.36064419983677026 2.6262043107712096 -2.3475058978187278 0 0 0
760 220 4 0 -4.315442494555457 3.413848677182127 -2.730301126892801 1 0 0
433 111 4 0 -3.962619347683344 3.5565141887509193 -2.577989991477616 0 0 0
431 111 2 0 -3.704516254099495 3.782423764102222 -2.5230505829761314 0 0 0
432 111 4 0 -3.430444854216276 4.018333728000782 -2.4634627579405803 0 0 0
441 114 4 0 -2.722398468108126 3.4214734627617265 -2.1172711965120574 0 0 0
440 114 2 0 -2.544153205890261 3.3287757223824133 -2.405519919278635 0 0 0
442 114 4 0 -2.3521233571860316 3.2338287158491714 -2.715013319204789 0 0 0
77 16 3 0 -1.457117162630332 4.196794232793142 -2.7305326885230583 0 0 0
80 16 3 0 -1.3952728767328153 3.5913870988965915 -2.7826227474733347 0 0 0
457 119 4 0 -0.15641147063343233 3.3203701743837426 -2.390982459809238 0 0 0
78 16 3 0 -1.5270286924756202 3.828164135295554 -2.2483667274214207 0 0 0
76 16 1 0 -1.3386375213514725 3.8769738571789216 -2.564466077797746 0 0 0
79 16 3 0 -0.9714903987822551 3.908814671160723 -2.482380314123758 0 0 0
399 100 4 0 -3.24391483143965 0.42590649855441054 -0.34608155093492565 0 0 0
398 100 2 0 -3.226276529100953 0.7850903137289784 -0.2799823714609798 0 0 0
400 100 4 0 -3.2116166252619225 1.1101973065875455 -0.22109943534864598 0 0 0
460 120 4 0 -4.475345873691677 0.9472000182532048 -1.1942262027132664 0 0 0
458 120 2 0 -4.268521178414392 1.2644522641991347 -1.3049348473807392 0 0 0
435 112 4 0 -1.803699131006734 0.6417611998078622 -0.356449825009694 0 0 0
434 112 2 0 -1.8834826170506365 0.7731250786477081 -0.6909484928011941 0 0 0
436 112 4 0 -1.9556624300957217 0.8976015021455783 -1.0241038933523923 0 0 0
412 104 4 0 -1.9692028578995244 1.0144337199367313 -1.389522250205604 0 0 0
731 211 2 0 -0.4687167295740723 1.4016403062207856 -1.4591689745426788 0 0 0
732 211 4 0 -0.6547867387930334 1.5301866078519142 -1.1534533695812441 0 0 0
71 15 1 0 -0.4673534586775202 1.237212359502661 -0.33712427628032743 0 0 0
73 15 3 0 -0.4857179963115764 0.961953027134214 -0.6244438419133513 0 0 0
251 51 2 0 -0.5958079179922975 0.299245880447663 -0.8405529058884006 0 0 0
253 51 4 0 -0.595487416704639 0.691937592310278 -0.9053449872072378 0 0 0
75 15 3 0 -0.16483887397026123 1.1695922304296062 -0.11123481291186423 0 0 0
74 15 3 0 -0.7495155625181521 1.2278426674183005 -0.15057061605379646 0 0 0
751 217 4 0 -4.167124578679339 1.6550074545351383 -0.39210620446031963 1 0 0
787 229 4 0 -3.9791583933838908 1.945136968093738 -1.364362013525012 1 0 0
459 120 4 0 -4.083127448237911 1.5651801017227862 -1.4150646683834203 0 0 0
84 17 3 0 -3.2471518499262957 1.5515620548343045 -0.1248732334827155 0 0 0
405 102 4 0 -3.968447870746174 2.92002762824683 -0.6038741481753203 0 0 0
81 17 1 0 -3.326512740859018 1.9022130677525566 -0.19423950572653265 0 0 0
85 17 3 0 -3.054368550336613 2.042753206582443 -0.3695555408166931 0 0 0
404 102 2 0 -4.2955795015894775 2.8132379789691493 -0.5569227844669192 0 0 0
83 17 3 0 -3.608027276017206 1.9160355961673508 -0.38759737880713135 0 0 0
72 15 3 0 -0.439524111333112 1.5903747445990002 -0.49911065451036773 0 0 0
454 118 4 0 -0.9951376991597494 2.4677276036554154 -0.4131875762663986 0 0 0
449 117 2 0 -1.1364003542180516 2.3094387989316894 -1.1533922287278244 0 0 0
450 117 4 0 -0.8668447154096812 2.541503498856718 -1.3054680444451847 0 0 0
451 117 4 0 -1.3638023712809624 2.1019347649189712 -1.0194811173075595 0 0 0
713 205 2 0 -0.06992311062498581 2.6316657311960907 -1.3183322515714304 0 0 0
310 70 4 0 -0.8193347434007617 4.295632420051545 -1.0342407505381372 0 -1 0
33 7 3 0 -4.273404299320574 4.282445973582154 -0.7571999926525966 0 -1 0
444 115 4 0 -3.015493490775917 3.4794171216010703 -0.5302131319174638 0 0 0
443 115 2 0 -2.995866220631788 3.4704116913717655 -0.17252829483120408 0 0 0
390 97 4 0 -1.8426650470045407 3.327132006188355 -1.0437314579762829 0 0 0
391 97 4 0 -2.0947663776327348 4.0277239762049115 -1.0828997041545674 0 0 0
389 97 2 0 -1.9732416636197907 3.6972748408122755 -1.063003749493546 0 0 0
428 110 2 0 -0.12327698751906924 4.014535125929751 -1.2055040120206635 0 0 0
308 70 2 0 -1.1145641989250787 4.468595858764393 -1.0807206761857477 0 -1 0
452 118 2 0 -0.9681637078503937 2.4969107555543895 -0.05200615437338428 0 0 0
478 126 4 0 -3.613155226506844 0.3301740964638836 -4.4524477254639265 0 0 1
99 20 3 0 -4.019776344139857 1.1154523950944724 1.2558946031409173 0 0 0
545 149 2 0 -3.9393290676338197 0.36352104512392586 1.486779496696965 0 0 0
527 143 2 0 -0.004178776359463404 2.6974840162724565 1.9023618885942406 0 0 0
417 106 4 0 -0.15725884095341092 3.0300298121696176 4.385921900044646 0 0 -1
96 20 1 0 -4.140599204305888 1.4787158108571747 1.2232771043039024 0 0 0
100 20 3 0 -4.041033535888078 1.6053172316956945 0.8890903407511596 0 0 0
465 122 4 0 -1.6430233785735955 0.9019486098349033 0.5224164009806563 0 0 0
464 122 2 0 -1.3173541748117716 1.0353473000919415 0.3284211407134898 0 0 0
466 122 4 0 -1.0060108044714888 1.168360602921891 0.13960252359222644 0 0 0
494 132 2 0 -0.5949490747798977 0.7645843807127246 1.3822198439418238 0 0 0
495 132 4 0 -0.8722808004918869 0.6330378765361284 1.2143561239146459 0 0 0
82 17 3 0 -3.375555335639053 2.0623675298980157 0.0853795548366003 0 0 0
97 20 3 0 -3.988095974764693 1.6824491624057272 1.4695872110765853 0 0 0
489 130 4 0 -1.9460772174187777 2.8890599435842397 1.3604526757330513 0 0 0
491 131 2 0 -0.62334451156023 2.538134490830371 0.9847247426146637 0 0 0
492 131 4 0 -0.7779969652947537 2.460090533798726 0.6700174812653535 0 0 0
493 131 4 0 -0.4533571109825912 2.6267781428036954 1.3198324678780775 0 0 0
453 118 4 0 -0.9375597631698079 2.52077260689362 0.3150428001916583 0 0 0
498 133 4 0 -2.881829164873548 4.491072196246144 0.9819112792933207 0 0 0
484 128 4 0 -3.761056794426661 3.426572597620824 1.4012879825519073 0 0 0
482 128 2 0 -3.939238039366135 3.421893932243472 1.1042059731840126 0 0 0
483 128 4 0 -4.131764796068715 3.4075164972556014 0.7904891999870267 0 0 0
445 115 4 0 -2.9768061987666297 3.4618011504540345 0.18920554629231057 0 0 0
505 135 4 0 -2.965795131376304 3.3924936876525487 0.5634253920320327 0 0 0
503 135 2 0 -2.8399244949610494 3.2248414425537795 0.8847075666075928 0 0 0
504 135 4 0 -2.7132301041610907 3.066245170031191 1.203539447502817 0 0 0
499 133 4 0 -2.7113976452481956 4.201113658725879 0.30452555749158644 0 0 0
497 133 2 0 -2.800794941369746 4.346289100937319 0.6411028899450725 0 0 0
490 130 4 0 -1.805307916299544 3.5778681413216584 1.344525179796218 0 0 0
488 130 2 0 -1.877163025794917 3.2241314710063347 1.3499789598323644 0 0 0
512 138 2 0 -0.538221082288265 3.602883195898014 0.3433144452727204 0 0 0
513 138 4 0 -0.2576731299056568 3.7819563357315293 0.1832835527000724 0 0 0
514 138 4 0 -0.812741702029914 3.423438361709419 0.5048681639019548 0 0 0
479 127 2 0 -0.05925996676984512 3.6461166743173044 3.1378299563372316 0 0 0
547 149 4 0 -3.8656731476498845 0.7565829217902253 1.4174588078361356 0 0 0
521 141 2 0 -4.229623196433392 0.5477377174323521 2.71075742249219 0 0 0
522 141 4 0 -4.001918126737942 0.6280323911774859 2.50312790069424 0 0 0
523 141 4 0 -4.479903722452124 0.4573962164897835 2.933768964425294 0 0 0
117 24 3 0 -2.844736973383526 1.3615580119534187 1.4587131994856761 0 0 0
120 24 3 0 -2.767953724577001 0.9723461056600246 1.905484542331423 0 0 0
533 145 2 0 -2.5295722458583354 0.2700770389137594 2.1178342778233885 0 0 0
535 145 4 0 -2.6180154098352104 0.6243653621497617 1.977002044176584 0 0 0
116 24 1 0 -2.7584697529152713 1.3318290891775548 1.8085785165063528 0 0 0
119 24 3 0 -2.4107147877658774 1.4685078981673134 1.8729078981907235 0 0 0
473 125 2 0 -1.8500674444692764 1.4978262693110505 2.401111273018708 0 0 0
474 125 4 0 -1.5382181996163093 1.4675972498980947 2.6538436600138064 0 0 0
475 125 4 0 -2.146443209328552 1.5254043675217646 2.1534389264269578 0 0 0
519 140 4 0 -1.7249072242065386 0.8903182556517444 2.9409338772303917 0 0 0
789 230 4 0 -0.06751361063635346 1.1748984742650876 1.797885448562502 0 0 0
496 132 4 0 -0.29294514146053674 0.9137018684573356 1.5783186556475988 0 0 0
538 146 4 0 -3.8832306782206194 2.2046748876431126 2.0643987878651378 0 0 0
536 146 2 0 -3.599271464480914 1.9781329843277453 2.125466860786217 0 0 0
537 146 4 0 -3.307679306729992 1.7563050297635956 2.1922547102345646 0 0 0
118 24 3 0 -3.0148957426395153 1.5222225676354764 2.0129972920373174 0 0 0
526 142 4 0 -2.8351321580046633 2.734215892841577 1.3944765518437425 0 0 0
525 142 4 0 -2.6539460009155174 2.3524329008632137 1.9988276417773871 0 0 0
524 142 2 0 -2.739636611109642 2.5351659353264693 1.7176998767585838 0 0 0
529 143 4 0 -0.16182431527597305 2.762855019057172 1.5757065701837594 0 0 0
509 137 2 0 -4.3742037285232325 4.242708582760937 2.022219028047668 0 0 0
467 123 2 0 -3.1229224403752056 3.8012953796684603 2.241501545601469 0 0 0
510 137 4 0 -4.029966063133218 4.344836484925796 2.1419687075678433 0 0 0
469 123 4 0 -3.23381241367944 3.4603050000556625 2.11625822775151 0 0 0