LAMMPS data file via write_data, version 29 Aug 2024, timestep = 100000, units = lj

847 atoms
4 atom types
598 bonds
1 bond types
499 angles
2 angle types

-4.496439 4.496439 xlo xhi
-4.496439 4.496439 ylo yhi
-4.496439 4.496439 zlo zhi
0 0 0 xy xz yz

Masses

1 1
2 1
3 0.1
4 0.1

Bond Coeffs # harmonic/omp

1 100 0.361231

Angle Coeffs # harmonic/omp

1 100 180
2 100 109.471

Atoms # full

634 178 4 0 -1.9430572274343842 -3.193596087730831 -3.6985581777302348 1 0 0
632 178 2 0 -1.8425321828528407 -3.493489743586097 -3.5079572533739976 1 0 0
633 178 4 0 -1.73892361199762 -3.7833573987854554 -3.3152653562680214 1 0 0
298 66 4 0 -0.0005399388049553977 -4.483386995168672 -3.190102116291084 0 0 0
263 55 2 0 -4.31217821741689 -1.7325980274589803 -3.25736590525221 1 0 0
265 55 4 0 -3.9913950358407404 -1.5709911729324553 -3.1499855587348424 1 0 0
138 28 3 0 -1.865017807937329 -2.846270793036201 -3.8660691583340614 1 0 0
139 28 3 0 -2.1943595147635557 -2.773190804321409 -4.387693234374633 1 0 0
621 174 4 0 -2.5056215808411295 -2.3889774546977116 -3.647493239357876 1 0 0
620 174 2 0 -2.715612180002637 -2.283970080098704 -3.3385378817806193 1 0 0
136 28 1 0 -1.9913729714242985 -2.5949633008483843 -4.108379707755854 1 0 0
140 28 3 0 -2.2223816979037463 -2.354024037041855 -3.9372429574357417 1 0 0
137 28 3 0 -1.6860236247292315 -2.404567820240428 -4.270743649672444 1 0 0
285 62 4 0 -1.3121101073469057 -2.2601926649463335 -4.201397616038738 1 0 0
622 174 4 0 -2.9219025171171427 -2.172258267633131 -3.033245120640431 1 0 0
284 62 2 0 -1.0526331408577825 -1.9814829115272028 -4.299079961049009 1 0 0
286 62 4 0 -0.8193757320174635 -1.7292797712349923 -4.38785806902757 1 0 0
673 191 4 0 -0.07166766354056975 -2.418312906765273 -4.044416741698787 1 0 1
478 126 4 0 -4.036318835412175 -0.12829990922902024 -4.193823769837604 1 0 1
476 126 2 0 -4.101366391943095 -0.13782843409088752 -3.829267176542745 1 0 1
477 126 4 0 -4.1625610219763125 -0.14314945615346364 -3.451725876506304 1 0 1
129 26 3 0 -3.602260656786224 -1.5044668754995492 -3.093890689497594 1 0 0
128 26 3 0 -3.074204869245119 -1.2315185901785881 -3.077725503103955 1 0 0
133 27 3 0 -4.332458576580512 -0.32570947531463634 -3.1205315574343793 2 0 0
631 177 4 0 -2.8367582952155646 -0.9502078800625151 -3.2903955501149453 1 0 0
629 177 2 0 -2.5004318314199465 -0.7198604206051855 -3.3868006483000785 1 0 0
630 177 4 0 -2.1971236754028465 -0.5109174313262308 -3.479747389764818 1 0 0
8 2 3 0 -1.9247889599799168 -0.2149360907200828 -3.4006600965911202 1 0 0
436 112 4 0 -0.23563544064024633 -0.40380278202530473 -0.8443402121025185 1 0 0
690 197 4 0 -0.43033723959381387 -1.5674329751302478 -4.328811529951488 1 0 1
689 197 2 0 -0.10844553816414493 -1.494248661434642 -4.4476664065359355 1 0 1
678 193 4 0 -1.640515572293968 -4.084462294497038 -3.036935519171148 1 0 1
625 175 4 0 -2.560095262723242 -4.344015326577783 -2.148157364539557 1 0 0
623 175 2 0 -2.255865369761012 -4.145433054031622 -2.142621707627713 1 0 0
624 175 4 0 -1.9578506746361732 -3.952340205596485 -2.147242553981276 1 0 0
594 165 4 0 -1.6388615193928904 -3.7338451914077004 -2.096095027523221 1 0 0
15 3 3 0 -0.3332252036182801 -3.908980370101978 -1.4473186325611955 0 0 0
593 165 2 0 -1.389998535695173 -3.52454155505071 -1.9554321816939737 1 0 0
595 165 4 0 -1.1296337117775832 -3.2991386566893106 -1.814438375770937 1 0 0
677 193 2 0 -1.3746682552028986 -4.335936321161074 -2.9609263799054224 1 0 1
550 150 4 0 -0.7934126889455251 -3.0796551636576672 -1.8502638853795141 1 0 0
130 26 3 0 -3.07778606137024 -1.7937312089368511 -2.8648052509540873 1 0 0
565 155 4 0 -3.0553798023093597 -2.1579415063708396 -2.670074803998128 1 0 0
563 155 2 0 -3.05021620896468 -2.303864075939995 -2.313374407643701 1 0 0
564 155 4 0 -3.0474357997263515 -2.443597576967256 -1.9847851595880242 1 0 0
612 171 4 0 -3.064238020677446 -2.667859934967939 -1.6360961778642418 1 0 0
548 150 2 0 -0.46452436322123614 -2.989396530207374 -2.0111882981029425 1 0 0
549 150 4 0 -0.1260077218797342 -2.8983277424858933 -2.1717666228808334 1 0 0
126 26 1 0 -3.2680882423471465 -1.4460454953761261 -2.9042664541647936 1 0 0
127 26 3 0 -3.345886078112525 -1.2892873669613634 -2.538248900863933 1 0 0
313 71 4 0 -3.124243620172088 -1.3307159647660907 -2.1566694088295257 1 0 0
287 63 2 0 -3.78838516330697 -1.0095345791771484 -2.0659918938557853 1 0 0
289 63 4 0 -3.501310960272957 -1.1984007959373324 -2.1984013844120804 1 0 0
288 63 4 0 -4.097114127226799 -0.8065747569514152 -1.921670116879457 1 0 0
24 5 3 0 -4.403542660682042 -0.6923119013791279 -1.7375971871197509 1 0 0
311 71 2 0 -2.7696287398897277 -1.3063035114641441 -1.9513102621316585 1 0 0
312 71 4 0 -2.4382392168831455 -1.282258859883533 -1.763479771609251 1 0 0
123 25 3 0 -0.17258577466986402 -1.0837763051700247 -2.83691752979088 1 0 0
124 25 3 0 -0.7370692672111141 -0.8727974024087048 -2.767783720638132 1 0 0
411 104 4 0 -0.300259849516638 -0.5688569252151678 -1.9887753153072438 1 0 0
125 25 3 0 -0.35338402572916117 -0.8214339092091669 -2.3134254755146713 1 0 0
121 25 1 0 -0.39259983798399123 -0.8125387334590961 -2.6789293181255864 1 0 0
122 25 3 0 -0.29720376214939925 -0.4976823939022603 -2.7985142888581365 1 0 0
410 104 2 0 -0.29678282992984784 -0.5335952448534118 -1.5989611851682817 1 0 0
577 159 4 0 -3.939465667174372 -3.873864647838545 -0.5143487684022388 1 0 0
742 214 4 0 -3.693468629047668 -4.192731609652772 -0.49790895361602416 2 1 0
740 214 2 0 -3.3390074746752303 -4.215967227938179 -0.37880665265236946 2 1 0
741 214 4 0 -2.973265625958339 -4.246082109554875 -0.2550053818407889 2 1 0
575 159 2 0 -4.117815429380825 -3.476699349330725 -0.49745022541356265 1 0 0
603 168 4 0 -3.985745400819386 -4.217130449729839 -0.7614260151308123 1 0 0
576 159 4 0 -4.262832146177734 -3.1546946196953005 -0.47620825390875243 1 0 0
412 104 4 0 -0.28470332615269367 -0.5034189585193989 -1.2175012748524825 1 0 0
602 168 2 0 -4.242956974499362 -4.4855373379497205 -0.9782267592288347 1 0 0
11 3 1 0 -0.23202313826477905 -4.120658261541387 -1.1704050243907211 0 0 0
290 64 2 0 -0.8695408360907342 -4.078008573996896 -0.3003191848355513 0 0 0
585 162 4 0 -0.9230963784201487 -1.04888210772731 -0.18581787792085347 1 0 0
13 3 3 0 -0.498039165168112 -4.104128336800969 -0.8906656080096291 0 0 0
291 64 4 0 -0.8236491911806061 -4.202722423987765 -0.6496802430755437 0 0 0
584 162 2 0 -1.209038062013199 -1.1674229076090628 -0.37594630238358295 1 0 0
573 158 4 0 -4.477326730811914 -2.812308431848555 -0.5893912174161446 1 0 0
613 171 4 0 -3.3768049837126903 -2.8245668064419744 -0.9766208827805376 1 0 0
611 171 2 0 -3.21692378775258 -2.748431102515414 -1.3174002071237467 1 0 0
599 167 2 0 -1.664984970751386 -2.731332646154888 -0.2339060659597525 1 0 0
568 156 4 0 -0.9526680251729003 -3.0843607070315096 -1.4898877283497964 1 0 0
566 156 2 0 -1.0348368046780858 -2.9529770414263856 -1.107409511760634 1 0 0
601 167 4 0 -1.3657606803380906 -2.675379510975308 -0.4521656909237546 1 0 0
567 156 4 0 -1.117744301862981 -2.8208651215379223 -0.7365707392406131 1 0 0
598 166 4 0 -0.9646199859084406 -2.549164595134674 -0.4643592362676916 1 0 0
596 166 2 0 -0.6640760496410492 -2.297563291897542 -0.3434978227112584 1 0 0
597 166 4 0 -0.3940803903982246 -2.077097163642476 -0.23837694967331213 1 0 0
558 153 4 0 -0.01965672441948474 -1.9259219902538005 -0.36838790429800117 1 0 0
447 116 4 0 -4.077827752693212 -0.014084616760092317 -1.144991331609985 1 0 0
22 5 3 0 -4.251027362152409 -0.38770088048960627 -1.239251341070279 1 0 0
592 164 4 0 -2.229146275114513 -1.3948138409878021 -1.413502837589311 1 0 0
590 164 2 0 -2.0103182415437733 -1.3498988739450195 -1.13578063856222 1 0 0
591 164 4 0 -1.7860997248655486 -1.2984057981500507 -0.8504087385605961 1 0 0
586 162 4 0 -1.4943764476382926 -1.2776842883407875 -0.57059287088765 1 0 0
434 112 2 0 -0.11035688399375321 -0.23631784509016995 -0.5605567157053986 1 0 0
14 3 3 0 -0.19113741234633697 -4.470004235976432 -1.2828529499765176 0 0 0
600 167 4 0 -1.955443872974712 -2.7954408147426966 -0.008857860721663613 1 0 0
697 199 4 0 -4.072034197440881 -3.1539655948341925 1.038591451290781 1 0 0
695 199 2 0 -4.4480858044946 -3.1696247002502718 1.1122550397450999 1 0 0
674 192 2 0 -2.517067191371152 -3.994809710139618 0.3012293598956761 1 0 0
660 187 4 0 -2.2258684464942906 -3.6620309048462003 0.9814981598539196 1 0 0
676 192 4 0 -2.346908744111661 -3.764585588698394 0.6081984172787402 1 0 0
152 31 3 0 -2.335322183783535 -3.358938648654011 0.7452376275369978 1 0 0
659 187 2 0 -2.1390380176558517 -3.8546269790938528 1.309700117997358 1 0 0
34 7 3 0 -1.6743261647592216 -4.248492872941444 0.5414921577971556 0 0 0
151 31 1 0 -2.3024063889282367 -2.9836714460817735 0.6311699408153411 1 0 0
31 7 1 0 -1.2958540181688152 -4.201746212344689 0.6508887582788789 0 0 0
32 7 3 0 -1.2790064310314655 -4.051889541528344 1.0093595757671698 0 0 0
33 7 3 0 -1.1153196605815405 -3.953164456635645 0.40532574291484647 0 0 0
684 195 4 0 -1.1214417953904543 -3.771669578966898 1.2438676188563793 1 0 0
347 83 2 0 -0.6015059459850876 -3.369910929367407 0.4200201210958472 0 0 0
349 83 4 0 -0.4163660557954749 -3.0664967401461403 0.48707402136631117 0 0 0
348 83 4 0 -0.7996830736177767 -3.6927589753193524 0.33596195324451283 0 0 0
292 64 4 0 -0.9123012243354447 -3.94871563610176 0.04174949994510957 0 0 0
63 13 3 0 -0.06880570773643946 -2.7875058520368468 2.1167007882594353 0 0 0
688 196 4 0 -3.7360632795414164 -2.9945503484790303 0.8702139083166891 1 0 0
686 196 2 0 -3.3842860443133405 -2.8974238649215462 0.7887292154834995 1 0 0
687 196 4 0 -3.0372069957033414 -2.806399470826273 0.7050609659480065 1 0 0
155 31 3 0 -2.11702713783038 -2.969246871877722 0.3382526850448455 1 0 0
153 31 3 0 -2.1426495743543774 -2.793003114294132 0.8780305397444454 1 0 0
154 31 3 0 -2.6494634062124995 -2.843821367497357 0.5812264659629589 1 0 0
509 137 2 0 -1.4362327142382667 -4.469899476591616 1.8321008328020394 1 1 0
358 86 4 0 -0.14854074526417715 -2.7567517632225806 0.5017121891497887 0 0 0
546 149 4 0 -4.194529897616807 -0.18820576655055543 0.9607293556256389 1 0 0
832 244 4 0 -0.030784650255338164 -1.4143781207230646 0.27474923927910044 1 0 0
830 244 2 0 -0.2941517959078128 -1.2031003764863648 0.1768464855294969 1 0 0
831 244 4 0 -0.5906349632705843 -0.9710572240501198 0.06795098358530627 1 0 0
642 181 4 0 -3.8698548774399173 -4.173276733479945 2.060638418630341 1 0 0
699 200 4 0 -4.239182855713006 -4.035556758116308 2.22087179647779 1 0 0
641 181 2 0 -3.656705074131472 -4.487312907292462 2.0351421384747317 1 0 0
661 187 4 0 -2.051441645147411 -4.041632435608639 1.6485007646002652 1 0 0
703 201 4 0 -2.5766638228392003 -4.3082384992356575 2.5527513641492696 1 0 0
701 201 2 0 -2.3722529758530246 -4.232531291729096 2.2880511958539076 1 0 0
702 201 4 0 -2.1516862445438245 -4.1472287865192525 2.0069825869326463 1 0 0
510 137 4 0 -1.8331785988104787 -4.337207869890515 1.8180082084626834 1 1 0
683 195 2 0 -0.9623608544458326 -3.53726011439331 1.4841750526260498 1 0 0
685 195 4 0 -0.8106096888000658 -3.307765104749136 1.7233319958746662 1 0 0
62 13 3 0 -0.511848891176919 -3.201440807011023 1.9618606550711872 0 0 0
61 13 1 0 -0.23424345600816476 -3.1492572347521084 2.1908054630987106 0 0 0
65 13 3 0 -0.3558747750483686 -3.161193254224563 2.5349921090940892 0 0 0
162 33 3 0 -0.49429152950947675 -1.909424011779557 2.1015781489765777 1 0 0
161 33 1 0 -0.2886378418022275 -2.0711735814552013 2.339227105360213 1 0 0
163 33 3 0 -0.4918760397665345 -2.259866338305599 2.566717588232833 1 0 0
164 33 3 0 -0.10328482862523636 -1.8196847483354621 2.5313919557951987 1 0 0
165 33 3 0 -0.0673615802640688 -2.281620517010762 2.1795822181863818 1 0 0
361 87 4 0 -3.2591398978282484 -0.6808385186346957 1.2761248844566175 1 0 0
359 87 2 0 -3.0789742612128967 -0.552584555255295 1.5287619842957199 1 0 0
360 87 4 0 -2.8691578558156103 -0.4116428940403889 1.8003317674419002 1 0 0
345 82 4 0 -2.7691743559904145 -1.2872268223897487 2.6393210041759216 1 0 0
344 82 2 0 -2.599987123127761 -0.9696475201694801 2.6067049238001117 1 0 0
346 82 4 0 -2.429167291071744 -0.6530957699688584 2.5784021384059175 1 0 0
157 32 3 0 -2.1138988899358053 -0.3958340327714245 2.620381675537895 1 0 0
160 32 3 0 -1.5611085783535947 -0.4139982604038206 2.346114461063329 1 0 0
156 32 1 0 -1.7894174983093971 -0.2022971737321706 2.5571630833750776 1 0 0
158 32 3 0 -1.6243756562437528 -0.12000111750958009 2.8933265746738526 1 0 0
54 11 3 0 -2.818745572238491 -0.09357271704867554 2.100516788116944 1 0 0
636 179 4 0 -0.8047942847643621 -0.058749140958054724 3.5903527727453755 1 0 0
543 148 4 0 -0.9145566453003613 -1.283410510400139 1.591284733339415 1 0 0
542 148 2 0 -0.6873076451467721 -0.9996014044061394 1.5977130101292323 1 0 0
544 148 4 0 -0.46083154892626865 -0.7090024533704158 1.6101114374906125 1 0 0
804 235 4 0 -0.2293657498614161 -0.42330496359578884 1.8167563187095181 1 0 0
175 35 3 0 -2.791054233006692 -4.37451671002625 2.8985997237626933 1 0 0
668 190 2 0 -0.16246780081716672 -0.450598434060991 3.630972250558046 1 0 0
735 212 4 0 -2.1279817615534973 -3.792176500184887 4.12324832093764 2 1 -1
736 212 4 0 -2.3155286775019563 -3.106656902489923 4.407786786022876 2 1 -1
734 212 2 0 -2.209607040585024 -3.469498234356506 4.257132339703689 2 1 -1
256 52 4 0 -0.2778516190318445 -3.2311916204817583 2.9020122047394343 0 0 -1
254 52 2 0 -0.24772553641446837 -3.3345076522561654 3.2779416003250885 0 0 -1
423 108 4 0 -0.15042446883835492 -3.563097929019154 4.013081069842037 1 1 -1
255 52 4 0 -0.21877834092014847 -3.416327911791269 3.629691356607448 0 0 -1
681 194 4 0 -4.386445622633842 -2.3554902392943933 4.096396129075658 1 0 0
58 12 3 0 -3.7606509952532754 -2.7662057522503383 3.4555320319626066 1 0 0
59 12 3 0 -4.149872476484613 -2.459355737617843 3.7859867782601695 1 0 0
56 12 1 0 -3.795053574795764 -2.4879589531249655 3.6644397766115775 1 0 0
57 12 3 0 -3.6954818294868605 -2.1862594935939006 3.47542880527394 1 0 0
60 12 3 0 -3.564615124097846 -2.5194376081977805 3.963361121086879 1 0 0
693 198 4 0 -3.246137292804647 -2.5702620839417465 4.211619245785212 1 0 0
692 198 2 0 -2.919928252684371 -2.6731717712416607 4.335133733220654 1 0 0
694 198 4 0 -2.5737648770228327 -2.7824657739900136 4.455159110987139 1 0 0
426 109 4 0 -4.089640129887421 -0.10049471542068478 4.373457419885857 1 0 -1
637 179 4 0 -1.4897080597436712 -0.10960292924522097 3.289252135327872 1 0 0
635 179 2 0 -1.1476983586898446 -0.0809707376750941 3.437824525868999 1 0 0
669 190 4 0 -0.42943116953990756 -0.1676285411455689 3.6834581878682693 1 0 0
675 192 4 0 -2.677174734321089 -4.215733162662075 0.005696280315012459 1 0 0
9 2 3 0 -1.9477164236482167 0.3641759336037307 -3.318469901477947 1 0 0
7 2 3 0 -1.8106443427440428 0.17391408226123417 -3.8581454285516124 1 0 0
315 72 4 0 -2.032584456793368 0.2616011917882828 -4.1852771891132035 1 0 1
616 172 4 0 -2.6660545229250356 4.4660357970466675 -0.26194838739936976 1 -1 0
277 59 4 0 -1.0419673732078385 0.11251841768912563 -3.263550132227106 1 0 0
355 85 4 0 -0.136493077821096 0.4324263761335345 -4.470684005769093 1 0 1
275 59 2 0 -0.7073967660148699 0.2334419609211933 -3.148093753062831 1 0 0
10 2 3 0 -1.4424665952857305 0.11028950814663929 -3.3897603486912624 1 0 0
778 226 4 0 -4.371252495368158 2.275351586398692 -4.072458445913917 2 0 0
555 152 4 0 -4.123046362415169 2.3795751813574144 -3.734742058574452 1 -1 0
554 152 2 0 -3.9170837677911736 2.410873779178755 -3.4028446872820606 1 -1 0
556 152 4 0 -3.73355625615664 2.436921044454519 -3.101257986672049 1 -1 0
191 39 1 0 -0.453906406559077 2.4133219839052265 -3.717953779377357 2 0 0
193 39 3 0 -0.25406684469909724 2.304655360477578 -3.4412319561497173 2 0 0
195 39 3 0 -0.26698529412264715 2.3336871969460287 -4.055721318172147 2 0 0
194 39 3 0 -0.5095443781132412 2.7861451298817235 -3.6968037013795567 2 0 0
192 39 3 0 -0.7623762520270478 2.24960968388811 -3.7201286429123397 2 0 0
757 219 4 0 -1.106521686671878 3.614378326379824 -3.3495765863624465 2 0 0
755 219 2 0 -0.8272667458305545 3.4034690278938964 -3.4787975569482383 2 0 0
756 219 4 0 -0.5356871173794868 3.1929865197830685 -3.617168376201292 2 0 0
296 66 2 0 -0.321513426642384 4.3988393433217405 -3.0322776897029406 0 -1 0
237 48 3 0 -0.303693628426152 3.2834539293721834 -3.984501213119119 2 0 1
236 48 1 0 -0.15240023133360392 3.273693247114485 -4.320083109328931 2 0 1
610 170 4 0 -3.0800787863330985 1.0687510197064682 -2.7052929295878023 2 0 0
608 170 2 0 -2.825129710708151 1.3566506876794309 -2.658886472882471 2 0 0
739 213 4 0 -3.403835923435449 0.7958119418419756 -2.701925767767881 2 0 0
737 213 2 0 -3.761088308126783 0.6386758952934937 -2.697433279827928 2 0 0
738 213 4 0 -4.113089441392675 0.47827062390839803 -2.69376669858668 2 0 0
609 170 4 0 -2.584787120231282 1.6208670227606987 -2.6114590108395355 2 0 0
276 59 4 0 -0.37364461520722436 0.3489496735660893 -3.034799513542205 1 0 0
604 168 4 0 -4.48420748606737 4.275303148983176 -1.1663920346563623 1 -1 0
204 41 3 0 -3.502394143803966 2.5755752381588817 -2.7915091842099633 2 0 0
203 41 3 0 -3.208791593761847 2.2402177723407863 -2.3885115048036623 2 0 0
747 216 4 0 -3.9055495725281903 2.423245174757761 -1.8776845757568266 2 0 0
205 41 3 0 -3.680415261780848 2.5363310650604385 -2.2089600409104624 2 0 0
201 41 1 0 -3.3887543973309993 2.5408703523488683 -2.4313963127284106 2 0 0
202 41 3 0 -3.1791092633152473 2.829767473138742 -2.3435708171627674 2 0 0
746 216 2 0 -4.01492788167657 2.417598930082703 -1.5092695199920492 2 0 0
397 99 4 0 -1.4847471835119794 1.660658203812173 -2.102945255471353 1 0 0
199 40 3 0 -1.856743324091994 1.7919674191735266 -2.0645387050576245 2 0 0
786 229 4 0 -2.6294204731014883 1.7903331358929124 -1.609246290778814 2 0 0
197 40 3 0 -2.360266319392829 1.9000545482763824 -2.382726888929509 2 0 0
196 40 1 0 -2.1469524925410917 2.0117780700395107 -2.093853990675404 2 0 0
198 40 3 0 -2.035700359849189 2.350911842397214 -2.142061562834144 2 0 0
781 227 4 0 -1.8249124921424387 2.689482462482001 -2.0889507857086604 2 0 0
200 40 3 0 -2.3387608886970206 1.9984764640629562 -1.787825934723008 2 0 0
779 227 2 0 -1.5267719602593477 2.9147598896870077 -2.066288050274299 2 0 0
414 105 4 0 -0.49144911450462203 1.591244937032644 -2.6601928628567313 1 0 0
413 105 2 0 -0.15809061465776786 1.7856103850542908 -2.7196754793972455 1 0 0
395 99 2 0 -1.1436193089620303 1.617742955565638 -2.253847996786088 1 0 0
396 99 4 0 -0.8038161054601174 1.5825512311627001 -2.404548663784832 1 0 0
780 227 4 0 -1.2139654129277484 3.146067340877461 -2.0388011001174733 2 0 0
770 224 2 0 -0.4984473982626043 3.1200383939102236 -1.6958264575060658 2 0 0
679 193 4 0 -1.0711927159457986 4.372207296063418 -2.875132951587133 1 -1 1
297 66 4 0 -0.6624343326686652 4.282727358493445 -2.8618046014940584 0 -1 0
744 215 4 0 -0.9229373942416017 4.103074995105927 -2.6303429494860255 2 0 0
743 215 2 0 -0.9813064158911518 3.811737698006426 -2.38266347354122 2 0 0
745 215 4 0 -1.0484712012747237 3.5261606114172386 -2.137828967031437 2 0 0
771 224 4 0 -0.8256558714285016 3.2503720399841383 -1.902014666502101 2 0 0
460 120 4 0 -4.205517571852527 1.0931734311170311 -0.76627547992606 1 0 0
458 120 2 0 -3.8581437389089466 1.2661491929404658 -0.8949025977783132 1 0 0
459 120 4 0 -3.5555694380891203 1.423299316996813 -0.9902214479577807 1 0 0
448 116 4 0 -3.6693182877281156 0.323407143799999 -0.6635605934662587 1 0 0
787 229 4 0 -3.3342568516538256 1.6503052210881082 -1.2531306439281664 2 0 0
215 43 3 0 -3.0923511745865646 1.493096947615773 -0.2861484216068195 2 0 0
446 116 2 0 -3.8742051579642354 0.15080105456895332 -0.9060818161992334 1 0 0
721 207 4 0 -4.4606841438274465 0.980629737515418 -0.47353355496122607 2 0 0
772 224 4 0 -0.1942285360667837 2.9976992830938753 -1.4987718271453314 2 0 0
6 2 1 0 -1.7810198265990502 0.10984070711224625 -3.4864198009666962 1 0 0
748 216 4 0 -4.134276828556699 2.405417485385012 -1.1375660565586267 2 0 0
190 38 3 0 -4.486262446907554 2.386228196815803 -0.9339258574356326 2 0 0
730 210 4 0 -4.0829569480793335 2.7236861335084033 -0.22965676078255726 2 0 0
187 38 3 0 -4.420643562277574 2.507023331849889 -0.3322025602758041 2 0 0
728 210 2 0 -3.7315337434288907 2.8485367006843036 -0.14444480136732007 2 0 0
785 229 2 0 -2.9762661402220028 1.7194590171201964 -1.426779716394611 2 0 0
817 239 4 0 -1.7693583485250324 2.928915287637448 -0.4451458060217979 2 0 0
214 43 3 0 -2.5761617282335174 1.7962152356440164 -0.09720126442885135 2 0 0
800 234 2 0 -2.0342247503030944 2.251431403340397 -0.19170725897829932 2 0 0
801 234 4 0 -1.8732671356743094 2.604259207581733 -0.26492755940645285 2 0 0
802 234 4 0 -2.1926934623959387 1.9087969152462971 -0.11736536781204521 2 0 0
759 220 4 0 -0.30624911570766145 1.776920627986203 -1.3769128553445422 2 0 0
134 27 3 0 -4.396829209676573 0.18512011095403658 -2.728724644323477 2 0 0
815 239 2 0 -1.8334360055810337 3.284446488261546 -0.48166290456469074 2 0 0
615 172 4 0 -2.1546440426215407 3.951711941804386 -0.539357465922762 1 -1 0
816 239 4 0 -1.892775424656382 3.6617752178931893 -0.5354207542358052 2 0 0
614 172 2 0 -2.413751382553133 4.202831000071762 -0.39819365332025747 1 -1 0
400 100 4 0 -0.12932072622731727 1.3445856438680384 -0.05003076167998266 1 0 0
729 210 4 0 -3.397791145133168 2.968699227975507 -0.06301250049561347 2 0 0
398 100 2 0 -0.027756037272535394 1.7213083013439636 -0.11354905535817661 1 0 0
796 232 4 0 -0.0973571793814898 2.4896842851468888 -4.404831564528062 2 0 1
238 48 3 0 -0.09154266692496016 2.9035271838538357 -4.4276585533638215 2 0 1
547 149 4 0 -3.8362153519217905 0.37348318205153763 1.2221620621189322 1 0 0
545 149 2 0 -4.02549787768009 0.08705822646492045 1.089541596306752 1 0 0
99 20 3 0 -3.572368407335552 0.6018710955926743 1.4425063863613667 1 0 0
834 245 4 0 -1.9038795334545884 0.3878502391383565 0.29269747694171944 2 0 0
833 245 2 0 -1.7074022235173425 0.6256103163803877 0.45306796155330264 2 0 0
213 43 3 0 -2.834293973452046 1.3860502943416435 0.25479939987904565 2 0 0
537 146 4 0 -2.1288390767955616 1.448384917558342 1.2967201650731734 1 0 0
536 146 2 0 -2.479851550192492 1.3128398021767707 1.3218037018354627 1 0 0
118 24 3 0 -1.7309180084496099 1.5196526744736163 1.2336634309562493 1 0 0
835 245 4 0 -1.4871414375775958 0.8963052034140313 0.6451625465696269 2 0 0
117 24 3 0 -1.3499297317540986 1.2091616171396034 0.8973935632612671 1 0 0
116 24 1 0 -1.4027877639517805 1.3743982497622556 1.2284414750602943 1 0 0
406 102 4 0 -1.1135867490105547 1.0733625453181466 0.6011272151909086 1 0 0
404 102 2 0 -0.7756641239640416 1.1018263632390255 0.3715155294589758 1 0 0
405 102 4 0 -0.43214249208414124 1.1332786920093714 0.14306766896171563 1 0 0
173 35 3 0 -3.1472807787345616 4.477989863310026 3.3651401092353117 1 -1 0
120 24 3 0 -1.3743814436843431 1.1054065746609858 1.5187216744579004 1 0 0
212 43 3 0 -3.1196297164882707 1.9223624655011156 0.18559657763937487 2 0 0
766 222 4 0 -3.230929954543834 2.036755110146329 0.5559149540034047 2 0 0
764 222 2 0 -3.380868965697318 2.1307168061315336 0.8657103418960101 2 0 0
765 222 4 0 -3.5228603075891134 2.246020896701845 1.177101339604345 2 0 0
159 32 3 0 -1.8656042633102512 0.10946429122919454 2.379627631027791 1 0 0
211 43 1 0 -2.9010460508648457 1.6407180377229764 0.0189716052931983 2 0 0
246 50 1 0 -1.99506812095456 3.0010521297251893 1.072078340879604 2 0 0
250 50 3 0 -1.6409170249953244 2.938711798454044 1.082013378879581 2 0 0
247 50 3 0 -2.113031466842043 2.999661956170617 0.7208511999560967 2 0 0
248 50 3 0 -2.1691072565184255 2.7463983033953037 1.2629693536880984 2 0 0
119 24 3 0 -1.1567721384015979 1.6304133290946403 1.2784396559399225 1 0 0
475 125 4 0 -0.8655374789020018 1.905490792794616 1.3491287772468592 1 0 0
473 125 2 0 -0.4890169510969491 1.9488369775991066 1.3420504328648954 1 0 0
474 125 4 0 -0.12312274200564577 1.9892344419910915 1.335911604693484 1 0 0
513 138 4 0 -3.034785033138049 2.98814670481375 0.0332727972702358 2 0 0
249 50 3 0 -2.0586543419599828 3.321634558981696 1.2125399041677882 2 0 0
512 138 2 0 -2.711950322121824 2.9955986413552944 0.22632711021845964 2 0 0
514 138 4 0 -2.391336384267676 3.008032080762942 0.4212607992142754 2 0 0
606 169 4 0 -1.5929527061474458 4.025699931647801 3.769536169183506 1 -1 -1
814 238 4 0 -0.16814843656919454 3.8905956564667354 1.3800815436948168 2 0 0
100 20 3 0 -3.1027840268370976 0.9248223158574325 1.4879305229941675 1 0 0
96 20 1 0 -3.4046286663513214 0.8542874196856509 1.6354751049467646 1 0 0
97 20 3 0 -3.3457179434201896 0.7320324533886717 1.989265277304649 1 0 0
522 141 4 0 -3.3706166714860233 0.6403787196896316 2.395430088543253 1 0 0
98 20 3 0 -3.612326700839377 1.1438362288179533 1.637664497216007 1 0 0
521 141 2 0 -3.6790584391973216 0.5929500191941184 2.651614114699054 1 0 0
53 11 3 0 -3.059025978080938 0.42276846072080954 2.3515750102678066 1 0 0
829 243 4 0 -3.7684635425917357 1.4473713837531408 1.8564402013876506 2 0 0
538 146 4 0 -2.8352125755737188 1.1800906219305638 1.341930602179855 1 0 0
52 11 3 0 -2.661387925885269 0.0705780348523577 2.693948872324638 1 0 0
51 11 1 0 -2.754526220889228 0.20054067862499725 2.334136400379391 1 0 0
534 145 4 0 -2.0634243769992517 0.43533532985180123 2.187808864087642 1 0 0
535 145 4 0 -1.6986544502736702 0.9009871631250377 1.6867556798116814 1 0 0
533 145 2 0 -1.86996672652672 0.6784470426453311 1.9195697170309112 1 0 0
55 11 3 0 -2.471004883096763 0.4013539754586386 2.200875179254532 1 0 0
827 243 2 0 -3.8571608384288245 1.7413722141853496 2.0771045840012876 2 0 0
828 243 4 0 -3.9351412961023566 2.032944255236486 2.2959763143008542 2 0 0
227 46 3 0 -3.9203550264809826 2.4098012442862613 2.444581607712725 2 0 0
226 46 1 0 -4.157841978746668 2.690925023669247 2.5810360100707586 2 0 0
229 46 3 0 -4.024789073144448 3.0144459378526385 2.477024369814247 2 0 0
240 48 3 0 -0.3726522229029676 3.4458058670121092 4.4233797885635395 2 0 0
230 46 3 0 -4.173638982795891 2.6739773228224335 2.947086691857371 2 0 0
810 237 4 0 -3.6778188205763533 3.239116434587703 2.5419290334542124 2 0 0
809 237 2 0 -3.463239291754533 3.5311751651008363 2.6171191414062873 2 0 0
643 181 4 0 -3.4473402436111815 4.206258875457361 2.007552562096514 1 -1 0
811 237 4 0 -3.2344013332884183 3.836283681434538 2.714814925700658 2 0 0
35 7 3 0 -1.1332440263055097 4.47232441464464 0.6424362899048157 0 -1 0
812 238 2 0 -0.45779839420531854 4.0610946044271925 1.564521516678206 2 0 0
511 137 4 0 -1.0624603132206971 4.395698084493593 1.8334950403522923 1 0 0
813 238 4 0 -0.7209523997065785 4.215802430380088 1.7334881513752771 2 0 0
425 109 2 0 -3.970317968815386 0.11999742241237588 4.101788675286323 1 0 -1
523 141 4 0 -3.9442572133185836 0.5646633710441256 2.871251044204059 1 0 0
427 109 4 0 -3.868889262572327 0.33000889198927297 3.8462826765487366 1 0 -1
316 72 4 0 -2.3111997187766233 0.3578698445529245 4.130113091098049 1 0 0
365 89 2 0 -2.58996635353265 0.24496971067319873 3.418919092312737 1 0 0
366 89 4 0 -2.4390632905293486 0.24924513688072114 3.750631349035598 1 0 0
367 89 4 0 -2.752052358121322 0.2430320708021716 3.061162089065445 1 0 0
353 85 2 0 -0.49786559061179236 0.32114762877881464 4.483620904209572 1 0 0
354 85 4 0 -0.8385388808637044 0.21755359412894393 4.441666496584154 1 0 0
819 240 4 0 -0.6281830940550872 3.691057101817285 4.204595532322819 2 0 0
820 240 4 0 -1.2218719592061311 3.9656664536577173 3.870750122289585 2 0 0
818 240 2 0 -0.9073414879519395 3.825421407413141 4.044866756807944 2 0 0
607 169 4 0 -2.301660928027884 4.229119492631358 3.6085428182302612 1 -1 -1
172 35 3 0 -2.5955434329465215 4.263786708758775 3.3565390915688047 1 -1 0
171 35 1 0 -2.8885201677323815 4.350635262117424 3.148311617002239 1 -1 0
174 35 3 0 -3.0075565569995306 4.045038940213039 2.9641611734793587 1 -1 0
605 169 2 0 -1.9281670834395626 4.128551366179432 3.699257627646479 1 -1 -1
314 72 2 0 -2.1685856061468085 0.31245640612726167 4.481898272145444 1 0 0
84 17 3 0 -0.09470467327579968 0.934327943660243 0.00039353697830879497 1 0 0
283 61 4 0 0.70407734046809 -3.4581425305804165 -3.4551807753672215 0 0 0
28 6 3 0 0.7330147154640594 -4.3803344200635905 -3.843535275893365 0 0 0
281 61 2 0 0.9841105738282643 -3.2227888771029662 -3.4786358519182876 0 0 0
26 6 1 0 0.43639310862203384 -4.133937894544995 -3.7479787761708128 0 0 0
27 6 3 0 0.5782251963007949 -3.803685134877959 -3.627121274601667 0 0 0
29 6 3 0 0.23598872964974404 -4.07070051061663 -4.049482824035348 0 0 0
30 6 3 0 0.21106100548954299 -4.2914533746032175 -3.4695197458144 0 0 0
424 108 4 0 0.14692948506604164 -3.8159935615541887 -4.355236651525449 1 1 0
441 114 4 0 1.0814534722824085 -4.459690003643628 -3.9733003871621726 1 1 0
440 114 2 0 1.4668699629676842 -4.33782404865524 -4.049148117945488 1 1 0
442 114 4 0 1.8532889828412982 -4.215488325598866 -4.123999446079223 1 1 0
271 57 4 0 2.8028955075865127 -3.315088671582644 -3.8282235380133094 0 0 0
77 16 3 0 2.5903313893813067 -3.66744692862273 -3.8980818634285486 1 1 0
78 16 3 0 2.228701918291713 -4.141011385360005 -4.024347507329691 1 1 0
76 16 1 0 2.4664556138628067 -3.9711771203629214 -3.7645382130771448 1 1 0
79 16 3 0 2.2817744182404525 -3.905879931566069 -3.446970048459543 1 1 0
80 16 3 0 2.753476666202131 -4.206896087340235 -3.69308988059573 1 1 0
391 97 4 0 2.2397156784111036 -3.756246225716037 -3.077000828565361 1 1 0
532 144 4 0 2.202002053290877 -4.29850707678321 -4.3692883684510395 1 1 1
269 57 2 0 3.0376066532507577 -3.018080996278178 -3.6956404612435936 0 0 0
282 61 4 0 1.2563595899895814 -2.986105693780509 -3.4984947617416227 0 0 0
705 202 4 0 0.6955181852424852 -1.7336442022655114 -3.296320872801852 1 0 0
671 191 2 0 0.21640621416822814 -2.5383075522057865 -4.2521366371544165 1 0 1
663 188 4 0 1.8493578546600489 -1.7611027435405413 -3.4808308089704196 1 0 1
39 8 3 0 1.5524683745265904 -2.713256641366319 -3.5003686432780468 0 0 0
38 8 3 0 1.7591503961315258 -2.147331013292174 -3.5150057765604443 0 0 0
40 8 3 0 1.846357238411552 -2.512640400638129 -3.9673707767305744 0 0 0