LAMMPS data file via write_data, version 19 Nov 2024, timestep = 10000, units = lj

5 atoms
4 atom types
4 bonds
1 bond types
6 angles
2 angle types

-0.5 0.5 xlo xhi
-0.5 0.5 ylo yhi
-0.5 0.5 zlo zhi

Masses

1 1
2 1
3 0.1
4 0.1

Bond Coeffs # harmonic/omp

1 100 0.45

Angle Coeffs # harmonic/omp

1 100 180
2 100 109.471

Atoms # full

1 1 1 0 -0.23782328372683673 -0.4300203960789932 -0.30170516106908357 1 1 -3
4 1 3 0 -0.32775657053898577 -0.39288825829012514 0.12867036100277018 1 1 -3
3 1 3 0 -0.46314883176219696 -0.13193724738851295 0.4858727339499479 1 1 -4
2 1 3 0 -0.35386429043308754 0.1519372907067062 -0.43380441682146204 1 0 -3
5 1 3 0 0.1569659469482099 -0.35771494008461735 -0.35639081139048157 1 1 -3

Velocities

1 0.37716408844228244 -0.3586518915443635 -0.4683827963887174
4 -0.4905296537849345 0.7892431919008943 0.3235321837897664
3 0.03257744450365495 -0.45429126727154173 0.059157569613283154
2 -0.07134257181131709 -0.4251914491128219 -1.158200604496731
5 -1.047679149311926 0.6130430735584166 -0.2391520925325323

Bonds

1 1 1 2
2 1 1 3
3 1 1 4
4 1 1 5

Angles

1 2 2 1 3
2 2 2 1 4
3 2 2 1 5
4 2 3 1 4
5 2 3 1 5
6 2 4 1 5
