LAMMPS data file via write_data, version 19 Nov 2024, timestep = 1000000, units = lj

160 atoms
4 atom types
110 bonds
1 bond types
75 angles
2 angle types

-3.758247 3.758247 xlo xhi
-3.758247 3.758247 ylo yhi
-3.758247 3.758247 zlo zhi

Masses

1 1
2 1
3 0.1
4 0.1

Bond Coeffs # harmonic/omp

1 100 0.45

Angle Coeffs # harmonic/omp

1 100 180
2 100 109.471

Atoms # full

82 24 4 0 -2.72702721593469 -2.1338011921235647 -2.409502250407559 0 1 0
81 24 4 0 -3.085915818907604 -2.9928203607437034 -2.513085499919581 0 1 0
80 24 2 0 -2.9094204884184003 -2.5630487213893063 -2.4638697455138883 0 1 0
75 22 4 0 -2.3905690239224118 -1.935074601992346 -2.3090200895412294 0 1 0
74 22 2 0 -2.2905590553289636 -1.7312727865603366 -1.9452673559832276 0 1 0
96 29 4 0 -0.9181410929852843 -0.8252057007796169 -1.0800193067947235 0 0 1
99 30 4 0 -2.0808053021358752 -0.021490263134697853 -2.2708151285503733 1 0 0
23 5 3 0 -0.41803721877279154 -0.9011987889699081 -2.9328699006641528 1 1 1
21 5 1 0 -0.42724373586092246 -0.7072336634389679 -3.3118713900892427 1 1 1
22 5 3 0 -0.8470414014049668 -0.5109693523121874 -3.3980683770086406 1 1 1
24 5 3 0 -0.35582776267365646 -1.0335249963605198 -3.6501357296178427 1 1 1
25 5 3 0 -0.09687010674571744 -0.3916321476241275 -3.3242323202571713 1 1 1
70 20 4 0 -3.650184320237511 -0.14004745964425105 -0.7472156287051974 0 0 1
76 22 4 0 -2.1935182716758583 -1.5093352708029701 -1.5440628593516765 0 1 0
84 25 4 0 -2.078392847622956 -1.1856459630898557 -1.3353737170235864 0 1 0
95 29 2 0 -0.5728353775150304 -0.5406809440423453 -1.0388876938935498 0 0 1
85 25 4 0 -1.2490223514927152 -1.0653743158266011 -0.9460746395467007 0 1 0
97 29 4 0 -0.22749454145434903 -0.2642880879219417 -1.0028742511197073 0 0 1
83 25 2 0 -1.6710997573614912 -1.1273779417534513 -1.1437765165647895 0 1 0
72 21 4 0 -0.28363895453624893 -0.07417094585724775 -3.1310829405822886 0 0 1
120 37 4 0 -3.4000597668217427 -0.725895494108699 0.9146345100514811 0 0 0
101 31 2 0 -1.247950277705397 -0.05933249090678472 3.6357987426271956 1 0 -1
104 32 2 0 -2.6179763764262733 -0.472128905529853 0.7252575061620203 0 0 0
105 32 4 0 -2.1810641405427336 -0.40676167117313183 0.6418965348372867 0 0 0
106 32 4 0 -3.0538570790789508 -0.5413050019288489 0.8124330963434576 0 0 0
40 10 4 0 -0.5140041702872593 -0.406773431073829 0.8813427550513797 0 0 0
38 10 2 0 -0.23689944737358257 -0.4980207122910795 0.5217737431967622 0 0 0
34 8 4 0 -0.9156133049906877 -0.4934334401715799 0.9247241972903237 0 0 0
32 8 2 0 -1.378997874860792 -0.48059907246086686 0.887490957034366 0 0 0
33 8 4 0 -1.8434790606861562 -0.46708697623640266 0.8562103854238433 0 0 0
102 31 4 0 -1.3146432317626475 -0.21995156158477963 3.2176747186957746 1 0 -1
43 11 4 0 -0.8640069475016972 -2.931068670894748 2.3749876193918285 0 1 0
41 11 2 0 -1.097881297486898 -3.340841691501445 2.2795903836764184 0 1 0
52 14 4 0 -0.48989601881837436 -2.8735724458548826 2.507718692339269 0 0 -1
50 14 2 0 -0.41177404863035527 -2.580458195428151 2.8579563159734254 0 0 -1
51 14 4 0 -0.3420559780810381 -2.2980369675362273 3.1993637833715063 0 0 -1
139 43 4 0 -0.48825896069736885 -1.9598889851701478 3.0482716979257045 1 1 -1
42 11 4 0 -1.3044850078589854 -3.7136394616309687 2.191048291578978 0 1 0
138 43 4 0 -0.5785609770589281 -1.192807941852399 3.578094223181376 1 1 -1
137 43 2 0 -0.5291907285192937 -1.5665765188179241 3.3178658497664575 1 1 -1
98 30 2 0 -2.335371157717932 0.03854944094772205 -1.87123084837264 1 0 0
107 33 2 0 -1.8514849641313438 0.029477799280554263 -2.9788674343745716 1 0 0
46 12 4 0 -0.26403354724882905 1.1939351129580327 -1.2401715338471528 0 0 1
71 21 2 0 -0.07918380044519222 0.2659037357900215 -2.903245376635037 0 0 1
31 7 4 0 -0.1268752245124793 1.1620987450990643 -1.6213036171816548 0 0 0
103 31 4 0 -1.1702149062808371 0.09958793150199037 -3.459432963706979 1 0 0
108 33 4 0 -1.5466090341332017 0.05671548414735461 -3.2873120381531455 1 0 0
4 1 3 0 -3.4023723153296745 3.187753102635487 -3.4588960631525287 0 0 1
159 50 4 0 -3.7457254589188453 2.167113870988322 -3.469067761416338 1 0 1
5 1 3 0 -3.665505897999838 2.52424959627608 -3.6577049609131906 0 0 1
100 30 4 0 -2.5953545236281976 0.10460394699279345 -1.4884548339764245 1 0 0
134 42 2 0 -3.1462331970914734 0.21690093914569838 -1.1024571135555554 1 0 0
135 42 4 0 -2.9151125848614754 0.36516217395637574 -1.4901471996914102 1 0 0
136 42 4 0 -3.3487876318744223 0.10907719742824779 -0.7583768323393287 1 0 0
117 36 4 0 -0.11842658656555871 0.02064715944313187 -0.7398218609512276 1 0 1
118 36 4 0 -0.24443705807838093 0.6983059616557966 -0.14394297697409614 1 0 1
116 36 2 0 -0.1779931623693569 0.3461770713273678 -0.4536617924633745 1 0 1
109 33 4 0 -2.168593540704642 0.004288500558009842 -2.6612815920699178 1 0 0
157 49 4 0 -0.5313036981304083 1.084177364269783 0.9278380952048133 1 0 0
152 48 2 0 -0.8952277374238505 1.6975768192436873 1.2156788262200118 1 0 0
153 48 4 0 -0.5960965246723283 1.457920450648119 1.030276801872332 1 0 0
155 49 2 0 -0.42343315210022403 0.8311660721113664 0.5872809211850785 1 0 0
156 49 4 0 -0.30497763804366373 0.5608705082410453 0.22293053759872583 1 0 0
131 41 2 0 -2.5186170062748667 2.924756062602513 1.9265409218577512 1 0 0
133 41 4 0 -2.9077699540719055 2.7560917427420053 1.9793068748417229 1 0 0
154 48 4 0 -1.1829999623739038 1.947777760234814 1.4126536272745223 1 0 0
129 40 4 0 -1.3603226601594154 1.8740212091455404 1.7673522440300309 1 0 0
132 41 4 0 -2.087618140495787 3.11952438004296 1.8775377390343195 1 0 0
59 17 2 0 -3.4365798851301372 2.920270011759841 2.591615295469493 0 -1 0
146 46 2 0 -2.2994658982472354 3.1563321416518044 3.3944129067803592 1 0 0
60 17 4 0 -3.2131409344832704 2.9142158936846965 2.1853836551369468 0 -1 0
148 46 4 0 -1.9926143538294432 3.406113473143508 3.201187627708614 1 0 0
2 1 3 0 -3.557569289444234 3.0711476837675202 3.338849016061314 0 0 0
61 17 4 0 -3.646876263410297 2.928996342751301 2.973543325459222 0 -1 0
1 1 1 0 -3.397466182000342 2.8789025291278967 3.7306471391536404 0 0 0
13 3 3 0 -1.8942096785865024 3.235828051667411 2.213998506989356 1 0 0
147 46 4 0 -2.6113771152433043 2.900807275163076 3.5867607325341675 1 0 0
3 1 3 0 -2.9691921619192443 2.730178222890945 3.666833015160458 0 0 0
128 40 2 0 -1.3806495787760265 2.2122581867175324 2.1092728497670428 1 0 0
14 3 3 0 -1.7394149116151567 3.173438075956733 2.9870136077365164 1 0 0
15 3 3 0 -1.319028533044313 3.632107805360088 2.5502070752971258 1 0 0
11 3 1 0 -1.5476505336874342 3.2363547499055527 2.554864241552056 1 0 0
130 40 4 0 -1.3975531102064929 2.509485633907762 2.4170861354420268 1 0 0
12 3 3 0 -1.2511667259535508 2.8962453740025045 2.4769424268386615 1 0 0
48 13 4 0 1.1847034340167377 -2.7066155828945044 -2.061530209540441 0 0 1
149 47 2 0 0.9767233454486447 -2.051113199488387 -1.8286916507009763 0 0 1
47 13 2 0 1.4112445358846544 -2.961423315000558 -2.422486858877276 0 0 1
93 28 4 0 1.623696276103428 -3.3084236085398335 -3.113248267396087 0 1 1
49 13 4 0 1.6198521108374206 -3.198908097641943 -2.738896424537192 0 0 1
92 28 2 0 1.7616247586549736 -3.4057367123795332 -3.506769080849218 0 1 1
123 38 4 0 0.6634838800430859 -1.5721745929526805 -2.2850641504838793 0 0 1
122 38 2 0 0.6251601655832834 -1.557828095955465 -2.740822966718769 0 0 1
150 47 4 0 0.7422027441631496 -1.6675059652268573 -1.8844855224790906 0 0 1
124 38 4 0 0.5823099105786368 -1.5423592545564566 -3.20488182321927 0 0 1
127 39 4 0 0.9506842775420239 -1.5506163005654243 -3.3792842276854436 0 0 1
125 39 2 0 1.272414081387314 -1.5633797229240878 -3.730197952839483 0 0 1
151 47 4 0 1.2084382031153067 -2.429125803419325 -1.7803292783421234 0 0 1
140 44 2 0 3.1059290438934894 -2.460728851171857 -0.5289652345770707 0 0 1
141 44 4 0 3.2299226750493184 -2.857492315280486 -0.7256550591796432 0 0 1
64 18 4 0 2.9572113568645264 -3.049827033073054 -0.9461192830682829 0 0 1
62 18 2 0 2.81726670303623 -3.466076802457753 -1.1055386887702094 0 0 1
142 44 4 0 2.9896804033291677 -2.0853408977214016 -0.3304055504792631 0 0 1
36 9 4 0 0.11120083740247082 -0.9099179481491744 -0.014100844020394876 0 0 0
57 16 4 0 1.9193846447740406 -0.11306053322181922 -0.3176648012306283 0 0 1
35 9 2 0 0.25314376426879165 -1.3299547648851442 -0.1245727427211999 0 0 0
37 9 4 0 0.3993467994467621 -1.7442510582711939 -0.23669396795837566 0 0 0
58 16 4 0 2.390606885415886 -0.8187692644644426 -0.6182812726698219 0 0 1
8 2 3 0 2.4434190646091762 -1.1829748484809017 -0.4351273845331457 0 0 0
69 20 4 0 3.418539019878944 -0.7777080091558077 -0.2717620084391667 -1 0 1
68 20 2 0 3.6425439534933153 -0.46568184485811365 -0.5004583980481052 -1 0 1
10 2 3 0 2.8985169762488923 -1.728456372898778 -0.49150252876885714 0 0 0
6 2 1 0 2.819921754006473 -1.3460786022197666 -0.301018099124272 0 0 0
9 2 3 0 3.1592899035647775 -1.0580238305052845 -0.40940365519066474 0 0 0
56 16 2 0 2.1666758211271717 -0.4819002521061214 -0.46834226247042143 0 0 1
26 6 2 0 1.8360021385164806 -2.984534567327494 0.7495197969160685 0 0 0
28 6 4 0 1.7049298727788338 -3.381064151877856 0.593249537005484 0 0 0
27 6 4 0 1.978049722144648 -2.581821743804335 0.909331464957157 0 0 0
87 26 4 0 2.1172591259947113 -2.2982386694832355 0.6949682252556167 0 0 0
86 26 2 0 2.4258992685138505 -1.969068117959597 0.5891467732863168 0 0 0
121 37 4 0 3.33860936829087 -1.147408528948186 1.2157452255958099 -1 0 0
111 34 4 0 3.2569475928436273 -1.2973996078604515 1.5773194446328702 -1 0 0
7 2 3 0 2.80891303785601 -1.40159476579109 0.15513012375128013 0 0 0
88 26 4 0 2.7389136297625836 -1.6341473124499177 0.48936462837269157 0 0 0
110 34 2 0 3.3079865937425663 -1.72338005886523 1.7666706419756075 -1 0 0
115 35 4 0 3.3306187530777778 -2.2990952610587723 2.2876151511724427 -1 0 0
94 28 4 0 1.9216420362387188 -3.523370287696918 3.566301648090657 0 1 0
113 35 2 0 3.547903677376689 -2.4630535034410928 2.651164029500722 -1 0 0
114 35 4 0 3.7509637408192247 -2.6361591515826706 3.008885958759525 -1 0 0
91 27 4 0 2.1895322505408896 -3.7027055498883374 3.329374108243492 0 1 0
126 39 4 0 1.5804824318523403 -1.5758922001008884 3.4622911060138497 0 0 0
112 34 4 0 3.3504855918291088 -2.1075303637784537 1.9387920972324955 -1 0 0
119 37 2 0 3.73121587880974 -0.934803065244663 1.0666929978511421 -1 0 0
39 10 4 0 0.021332564768991178 -0.5847725836765911 0.196484863586974 0 0 0
30 7 4 0 0.1901381878319579 0.5781985204997431 -2.2980805419535377 0 0 0
29 7 2 0 0.027413369358759137 0.8779463150752042 -1.953508138554923 0 0 0
18 4 3 0 2.5911250061566413 1.7649900573519481 -2.0709960486197803 0 0 1
19 4 3 0 2.707114546191732 2.490966482475819 -2.1351883187050635 0 0 1
160 50 4 0 3.3365708358351203 2.139598020534175 -2.6941284587294203 0 0 1
20 4 3 0 2.9460051458553496 2.014389635803971 -2.6624586503390604 0 0 1
16 4 1 0 2.882275411329952 2.0655727617006394 -2.2149861831292266 0 0 1
158 50 2 0 3.552994755415018 2.147102307197159 -3.084121662075687 0 0 1
17 4 3 0 3.2783007387310836 2.0190630195660995 -1.9945611054652919 0 0 1
63 18 4 0 2.6948425604216095 3.6624059780915936 -1.2538975874900076 0 -1 1
44 12 2 0 0.07828622193976037 1.4082570784732613 -0.9776466156073598 0 0 1
79 23 4 0 0.698066731191413 1.6262272394348147 -0.4490874735098044 0 0 0
45 12 4 0 0.407554918646998 1.607020555893637 -0.7244257221182413 0 0 1
77 23 2 0 1.1006011409772984 1.4644638224605158 -0.3675256748142715 0 0 0
53 15 2 0 1.7483929883498732 0.5079233439655659 -0.04312186114582732 0 0 1
78 23 4 0 1.5040857880131924 1.3009764687558312 -0.2779036012001815 0 0 0
73 21 4 0 0.1238457695290356 0.5899519603532912 -2.6794581914692004 0 0 1
144 45 4 0 2.534427995382933 2.8551577024213453 -2.0303918562335266 0 0 1
145 45 4 0 2.3481250464285615 3.4782340322671197 -1.3773298497109863 0 0 1
143 45 2 0 2.4415739135567507 3.168235480614801 -1.7040601037057914 0 0 1
54 15 4 0 1.5221395968210079 0.9229809735422179 -0.11580763054624128 0 0 1
89 27 2 0 2.1370660187743766 3.6729419747878946 2.9035220331539007 0 0 0
66 19 4 0 2.3265335788142836 3.1083965742029736 1.4019494213289783 0 -1 0
65 19 2 0 2.2631764594707247 3.143561274854829 1.8565384662743711 0 -1 0
67 19 4 0 2.2021892050516567 3.1752828047389485 2.30882242259611 0 -1 0
90 27 4 0 2.096597702537993 3.5312319261689833 2.475921390876954 0 0 0
55 15 4 0 1.9632146916241282 0.113995845061572 0.019373294167753272 0 0 1

Velocities

82 -0.8814266884729681 -0.47597123137860126 0.3590685439479871
81 0.6345876381073282 -0.6750488626430274 -0.05076983622045642
80 -0.010474495084247176 0.20507806799234826 -0.11731081492620618
75 -0.668210365506417 0.3572559082259548 -0.712887180009922
74 -0.208276308389481 0.3425013395644177 0.08694511724305067
96 -0.39660941493979784 0.07154950274204581 0.2556848863115772
99 0.26745938437815947 -0.9083058264830124 -0.8545416451374667
23 0.5437372729219949 0.45796511878861484 -0.03505029826009459
21 -0.40033333668135745 0.1028312811985935 -0.041797672909492406
22 0.24303907465316701 0.5262217519432633 -0.5446250097410461
24 0.03654613004799652 0.9092818408151528 0.32763393049577133
25 0.2387268039966156 -0.41911604940137737 -0.4271652571739865
70 -1.03955790926413 0.1876446452903049 -0.48447303584511164
76 -1.2148333309308315 0.3683541840552339 0.09635860347955369
84 -1.9926000131859005 0.11150579343210126 -0.34091598659252254
95 0.35999061641452007 -0.41473144102991416 -0.061743981840074715
85 0.07144420214367089 -0.08731854097719445 -0.8167344183655869
97 -0.7977561893066557 -0.030867022969552037 -0.21938641569950518
83 -0.009612720960975495 -0.16772700474069985 -0.06290072327748408
72 -0.6335143910615451 -0.4310213212029474 0.5523377381733434
120 0.6903640122646484 0.35964450165891243 -0.28254200982322125
101 -0.21044350300239437 0.1482234280814197 0.32675400933137644
104 -0.05054837405954704 -0.07727117794929375 0.1741713365880198
105 -0.26661388355830395 -0.42718719843687086 0.5355828627545506
106 -1.2598858669347797 0.36016474046365365 -0.04286104997990116
40 0.6515207738098272 -0.3648164923809138 -0.3064616438295798
38 0.01295916241731719 -0.44373615153727036 -0.10295517429639897
34 -1.4760854977395597 -0.939510363640597 -0.293860045363331
32 -0.37144915010435564 -0.13551502373558935 0.02052643025510586
33 -0.8143797789458808 -0.7612873989597422 -1.2649182069742957
102 0.6265453235904398 0.9380165060650717 0.06788879933781562
43 1.1767940243596182 -1.2013934806176936 0.03578927791203039
41 -0.013676764454165338 0.2727908356424103 0.3842940277797062
52 0.3614537975339276 0.4916006640510694 -1.2515656940344457
50 0.23602423719774607 0.04048514308663452 0.2572031198454873
51 0.9041058809054212 -1.7677249956575842 0.749548006817054
139 0.35586200383233524 1.717917339107311 -0.590256991872694
42 -0.34565453704542143 -0.6972662357343175 -0.6373049540285124
138 0.5869850273859284 0.040841098933281535 0.641956947270207
137 0.0007007651470321286 0.12287256093348235 0.12649957266605283
98 0.004947727345838485 0.2772215824867439 0.4564581418340474
107 0.1535069352228657 0.059181025701619934 -0.006519768645584891
46 -1.0138126196123207 -0.3965111469474339 1.0774700888942486
71 0.3176246196701332 -0.027697343837228407 -0.25287757347349593
31 -0.41450388738000876 0.31460016159213167 -0.3137471949199861
103 0.307053433662314 -0.0741185164642533 -0.3385318123123965
108 -0.30162216520600327 -0.42491264157967396 0.6903017466697966
4 0.5885083688930561 -0.6122919128826532 0.9282128505618279
159 0.2598266977303395 0.13077201236663494 -0.861652428831299
5 -0.995694869829152 -0.654867715614672 -1.1482891420753443
100 -0.14628147712647963 -0.7141001978114964 -0.5133502736653667
134 0.2082750439188091 0.11037059629000898 -0.32254230620628643
135 -0.21051357232707033 -0.610813772538882 -1.3238036012971865
136 0.44360716131984196 0.0010256988024708313 -0.06848170904872106
117 -0.12496973917320686 -0.6645501169832748 0.29640542201197845
118 -0.11206110528766078 -0.4254705562157048 -0.2319826600603618
116 -0.011571575942902304 -0.6099987854458617 -0.0437085002471369
109 -0.649006083513409 -0.2730830920261148 -0.24607755781615362
157 0.0782961892040211 0.18179755407383857 0.7354349795318669
152 0.06344868990664014 0.47579742563877636 -0.0973975594284764
153 -0.7688813474984838 -0.388411829043021 0.25799645303916674
155 -0.3655660502181769 0.533484687260198 -0.355413830204552
156 -0.5801179700295636 -0.04017172915294818 0.07849122288637862
131 -0.25490969702727906 -0.23771606859972327 0.6795772686906254
133 0.9030193724248088 -0.059374568859784455 0.25854578353421426
154 -0.6542107755746178 -0.6670484922972335 1.1091009592297558
129 1.258267780177617 0.18932066247548238 -0.2420367414557132
132 -0.45464973983663814 0.47974343704300315 -0.8409062071449596
59 0.09551549435408349 -0.0454368517456949 -0.07723920217025444
146 -0.4467076013006353 -0.2874772720987114 0.1278548065635719
60 0.4669395472652128 -0.35230851344896363 -0.05233012015973666
148 1.144740955588086 0.33986179465315114 0.42668893016106224
2 0.01830961966554282 -1.4056477708441535 0.40768118913662194
61 0.21065312849189424 -0.47339920154343423 -0.30429952848576336
1 -0.25553267212969943 -0.1574844103387607 -0.008804474347528686
13 -0.451212285522148 -0.8987527934447285 0.13089690550262045
147 0.3528347722684133 -0.19378193216583406 -0.5850230980514983
3 -0.6171283635084527 0.48278708915248814 0.007733311263854018
128 0.2653799866068929 0.0010706671320383724 -0.07075156842764538
14 -0.6478640965899034 0.905643149550693 0.03807964771653602
15 -1.0826576348176067 0.26476806645405704 -0.09294864556949907
11 0.29066886323123486 -0.08734417878579524 0.08392526450674893
130 0.009484301277268122 1.4714233282540137 0.12017021335666325
12 -0.005544799938296416 0.33810393808903416 0.23248964504273933
48 0.41085894437633885 1.2493519460157183 -0.26505044365769054
149 0.2717440670892099 -0.07210413273984967 0.05284530957363255
47 0.28796951148962935 0.16117698281613946 -0.015767511998253745
93 1.3212825248801554 -0.18818951404351864 -0.35562946192138434
49 -0.5448406506819441 0.3430693673196765 1.9218147069461358
92 0.08687220131618237 -0.0522022692795881 -0.20920007299829468
123 -0.3510759097084466 0.26542925545261425 0.8457955557207498
122 0.22590935168305712 -0.0484405737903564 0.18027232615444833
150 0.06720349011835043 0.6467061044708465 0.5056951620559397
124 -0.938954098783042 -1.0982393232037448 -0.4784400483099662
127 0.7398653221088793 -2.0469591624077896 0.6637269822533193
125 0.22027206689509699 0.3196888992165027 0.16911987729239472
151 -0.10999243431995115 -0.3194483628732001 -0.39876971193634275
140 0.07813172891015857 0.1834464640246676 -0.09035600214066121
141 -0.7168099627724036 -0.09394437323630735 0.9317296592886083
64 0.24782277076260617 0.34714855956500074 0.047192063958379334
62 -0.15501959274606267 0.48717828235379107 -0.2416661621545078
142 0.021361591133411923 0.820457412097599 1.14499288264871
36 -0.11250328037044723 -0.27601980962313405 1.342719616856198
57 -0.19278649232250256 -0.26336077073001524 0.3619498488403241
35 0.05408765964844295 0.43800880858750607 0.28858618610519765
37 -0.15980581735098617 0.13153977665735114 -0.7424387932293075
58 -1.1340885931350309 0.4053611228201565 -0.6464852032811552
8 -0.8369114437221279 -0.5999169790468758 -0.33988980556731546
69 0.14168540845437827 0.42080943301756313 -0.45791759497765083
68 0.20726395550988905 -0.15708404655730357 0.19737147944037636
10 0.41208481817494647 0.6258436046796764 -0.3741818161597396
6 -0.08156981444073699 -0.037483797071242955 0.07828654243481392
9 0.6128327507823437 0.13173515840679068 -0.2549879562289132
56 0.22809043323054096 -0.08593524524499056 0.0028097531661813654
26 -0.029687260127882215 0.27113038373800885 -0.15574253161903773
28 0.047483719540032804 -0.47554519492005587 0.5687199413980267
27 -0.8893032692964266 -0.43100737989785265 0.04895078013742579
87 -1.42580848198528 -0.4238461610646587 -0.4892292609466331
86 -0.357705980872843 0.5361180078160172 0.21257717194546802
121 -0.27539580469256897 -0.46895115542933113 0.7432457247392679
111 -0.1017167915932633 -0.8748998930672253 0.2073226372921047
7 -0.8165012821570684 -0.7553876406289571 0.002486386531594314
88 0.5612166985218591 -0.17111109626950874 -0.4514781839667554
110 0.11457823898411085 -0.4587905749043762 -0.28472931846476224
115 0.30709279555948377 -0.20531896961773938 0.5889545143179954
94 1.1942449700740927 0.04992176581777934 0.23229172341457094
113 0.10609289812611646 0.011029400970660502 -0.28204415315461273
114 -0.07567564415583716 -0.48751677183219744 0.5203507280366931
91 -0.20807984170963945 2.2022676973144097 -0.7135061309061874
126 -0.5582507839749136 -0.3010180466264787 -0.28300603937127244
112 -1.5918460301886288 -0.6615135423471904 0.0943403960381534
119 -0.23962848482199106 -0.2680503215845608 -0.17004981348577114
39 -0.8194603897710396 0.38573616316296117 0.0016766175129404697
30 -0.9553859539003051 -0.5029910430455724 1.1614647829298506
29 -0.03161174705459242 -0.3063812378247035 -0.18856828457219538
18 -0.6398752858170336 -0.45416925353743753 -0.0035560707661638352
19 1.0902710260105022 0.829676732008856 -0.11579201061229764
160 0.8607870946826754 -0.5418631673903372 -0.6842678114978197
20 0.010195893390305473 0.27864422281853146 0.5103284109525547
16 -0.14356255031094023 0.07840291885908848 0.5450400150359459
158 -0.09680420492973972 -0.07248050238077668 0.221046952812546
17 -0.3796067422030687 0.3651960010773945 -0.04480399346133657
63 0.30610983698222677 -0.2041655015644476 0.63441091318399
44 -0.3360641967227185 -0.2920656165011396 -0.06744823967303974
79 0.018950738737466503 1.4216442215696405 0.3772980877363141
45 -1.3400662392324856 -0.6093984052976689 -0.6264743869658189
77 -0.11278180618998944 -0.18965235535640235 -0.154433361540974
53 -0.3465512464167312 -0.19441491490190127 -0.22097021328790942
78 0.2543405098460949 1.3269933290697036 1.0620935049397078
73 1.5611274487098459 -0.43774549389866996 0.18513848421148066
144 -0.006549648111070269 -0.40738258694745916 -0.20452122685388782
145 0.39761810262007047 0.29869743390300935 1.4624043754415996
143 0.23511766614857788 -0.002621425659506329 -0.3655349473424068
54 -0.00016694128517270347 -1.183792309083314 -0.23196558883346832
89 -0.045520094162966394 -0.0647719554360104 -0.0961208074592752
66 0.2175617792063708 -0.7203812690436523 1.059221803889298
65 0.10733750595852314 0.2877205542603163 -0.03135772549611698
67 0.4490073149181037 0.038373232189372504 0.5185667754164425
90 -0.1620431226254414 -0.20728602504976917 -0.1774187486752807
55 0.7300891191321189 -0.4672248669301636 0.5741054911765545

Bonds

1 1 80 81
2 1 80 82
3 1 74 75
4 1 74 76
5 1 21 22
6 1 21 23
7 1 21 24
8 1 21 25
9 1 95 96
10 1 95 97
11 1 83 84
12 1 83 85
13 1 101 102
14 1 101 103
15 1 104 105
16 1 104 106
17 1 38 39
18 1 38 40
19 1 32 33
20 1 32 34
21 1 41 42
22 1 41 43
23 1 50 51
24 1 50 52
25 1 137 138
26 1 137 139
27 1 98 99
28 1 98 100
29 1 107 108
30 1 107 109
31 1 71 72
32 1 71 73
33 1 134 135
34 1 134 136
35 1 116 117
36 1 116 118
37 1 152 153
38 1 152 154
39 1 155 156
40 1 155 157
41 1 131 132
42 1 131 133
43 1 59 60
44 1 59 61
45 1 146 147
46 1 146 148
47 1 1 2
48 1 1 3
49 1 1 4
50 1 1 5
51 1 128 129
52 1 128 130
53 1 11 12
54 1 11 13
55 1 11 14
56 1 11 15
57 1 149 150
58 1 149 151
59 1 47 48
60 1 47 49
61 1 92 93
62 1 92 94
63 1 122 123
64 1 122 124
65 1 125 126
66 1 125 127
67 1 140 141
68 1 140 142
69 1 62 63
70 1 62 64
71 1 35 36
72 1 35 37
73 1 68 69
74 1 68 70
75 1 6 7
76 1 6 8
77 1 6 9
78 1 6 10
79 1 56 57
80 1 56 58
81 1 26 27
82 1 26 28
83 1 86 87
84 1 86 88
85 1 110 111
86 1 110 112
87 1 113 114
88 1 113 115
89 1 119 120
90 1 119 121
91 1 29 30
92 1 29 31
93 1 16 17
94 1 16 18
95 1 16 19
96 1 16 20
97 1 158 159
98 1 158 160
99 1 44 45
100 1 44 46
101 1 77 78
102 1 77 79
103 1 53 54
104 1 53 55
105 1 143 144
106 1 143 145
107 1 89 90
108 1 89 91
109 1 65 66
110 1 65 67

Angles

1 1 81 80 82
2 1 75 74 76
3 2 22 21 23
4 2 22 21 24
5 2 22 21 25
6 2 23 21 24
7 2 23 21 25
8 2 24 21 25
9 1 96 95 97
10 1 84 83 85
11 1 102 101 103
12 1 105 104 106
13 1 39 38 40
14 1 33 32 34
15 1 42 41 43
16 1 51 50 52
17 1 138 137 139
18 1 99 98 100
19 1 108 107 109
20 1 72 71 73
21 1 135 134 136
22 1 117 116 118
23 1 153 152 154
24 1 156 155 157
25 1 132 131 133
26 1 60 59 61
27 1 147 146 148
28 2 2 1 3
29 2 2 1 4
30 2 2 1 5
31 2 3 1 4
32 2 3 1 5
33 2 4 1 5
34 1 129 128 130
35 2 12 11 13
36 2 12 11 14
37 2 12 11 15
38 2 13 11 14
39 2 13 11 15
40 2 14 11 15
41 1 150 149 151
42 1 48 47 49
43 1 93 92 94
44 1 123 122 124
45 1 126 125 127
46 1 141 140 142
47 1 63 62 64
48 1 36 35 37
49 1 69 68 70
50 2 7 6 8
51 2 7 6 9
52 2 7 6 10
53 2 8 6 9
54 2 8 6 10
55 2 9 6 10
56 1 57 56 58
57 1 27 26 28
58 1 87 86 88
59 1 111 110 112
60 1 114 113 115
61 1 120 119 121
62 1 30 29 31
63 2 17 16 18
64 2 17 16 19
65 2 17 16 20
66 2 18 16 19
67 2 18 16 20
68 2 19 16 20
69 1 159 158 160
70 1 45 44 46
71 1 78 77 79
72 1 54 53 55
73 1 144 143 145
74 1 90 89 91
75 1 66 65 67
