LAMMPS data file via write_data, version 27 Jun 2024, timestep = 6000000, units = lj

4590 atoms
4 atom types
3090 bonds
1 bond types

-9.99857 9.99857 xlo xhi
-9.99857 9.99857 ylo yhi
-9.99857 9.99857 zlo zhi

Masses

1 1
2 1
3 0.5
4 0.5

Bond Coeffs # zero

1 0

Atoms # bond

1633 515 2 -8.725428962540082 -9.603927295783096 -8.711712218384347 0 1 0
1148 353 4 -8.967251800440566 -9.226524307126981 -9.280821131769418 0 0 1
1634 515 4 -9.053088388099484 -9.558769159508557 -9.08667894166767 0 1 0
1635 515 4 -8.39776953698068 -9.649085432057635 -8.336745495101026 0 1 0
1147 353 2 -8.927309946109288 -9.293327828367763 -9.774725917960817 0 0 1
996 302 4 -7.2074573240393045 -9.042237612670943 -8.34724331606085 0 0 1
566 159 4 -4.6915098947772895 -9.226143200041921 -9.349081176558855 0 0 0
1037 316 4 -3.620860417633168 -9.334540491172902 -9.418922956109412 0 0 1
565 159 2 -4.555046298349797 -8.751002064374275 -9.274123935105562 0 0 0
1036 316 2 -3.7987142527860063 -9.790798224118626 -9.519902629553536 0 0 1
2259 723 4 -3.263901500551169 -9.378258771778752 -9.600201852987722 0 1 1
534 148 4 -2.4480510214248343 -9.760174660447603 -8.82318992555126 0 0 0
28 6 3 -1.9655858596100595 -9.822431448170384 -9.39750764246034 0 0 0
2257 723 2 -2.951276568093902 -9.19886558849307 -9.946732857944689 0 1 1
532 148 2 -2.103613200005634 -9.530156681064925 -8.543092948886768 0 0 0
27 6 3 -2.6982088967060736 -9.882549102193058 -9.554189974553173 0 0 0
2769 893 4 -1.3855487939259494 -9.210102806037224 -8.372633367889874 0 0 0
3234 1048 4 -6.094482133778596 -7.672521267206224 -8.744697058643538 1 0 1
1170 360 4 -6.218272974085572 -7.810875272865498 -9.10765052613402 0 0 1
1168 360 2 -6.207052873968992 -7.391915632522683 -9.38031685907057 0 0 1
1169 360 4 -6.195832773852413 -6.972955992179868 -9.65298319200712 0 0 1
836 249 4 -5.934912065145207 -6.701635802682827 -9.449141588131244 0 0 1
567 159 4 -4.418582701922305 -8.275860928706628 -9.19916669365227 0 0 0
2161 691 2 -0.25846786692813445 -6.827419630872224 -9.321671702084478 0 1 1
2162 691 4 -0.7562764558079558 -6.827893631904871 -9.368430489071525 0 1 1
2771 894 4 -8.731645997876287 -5.327068382751336 -9.979702310910708 1 0 0
300 70 4 -7.989299869929628 -6.4147389444634655 -9.930030092254366 0 0 0
835 249 2 -5.808392444268815 -6.300570286451637 -9.719584257145378 0 0 1
837 249 4 -5.681872823392424 -5.899504770220447 -9.990026926159512 0 0 1
324 78 4 -2.801392279263389 -5.290013460389345 -9.366046870678126 0 0 0
2620 844 2 -1.3803330575426191 -6.411282975192922 -9.747392890143056 0 0 0
2621 844 4 -1.087395656360828 -6.612510837538036 -9.395689852902002 0 0 0
3090 1000 4 -8.79696725374096 -4.9286627878971805 -9.8577071964059 1 0 1
3089 1000 4 -9.107724837105184 -4.149516809415426 -9.313316464855745 1 0 1
3088 1000 2 -8.952346045423072 -4.5390897986563035 -9.585511830630823 1 0 1
555 155 4 -8.895767041642168 -3.8295384928202485 -8.585175403767579 0 0 0
553 155 2 -8.585126605700465 -4.129084402590725 -8.332638738116897 0 0 0
1366 426 2 -9.189309002536184 -3.344242796924778 -9.420006535603674 0 0 0
2609 840 4 -9.860989160806305 -3.378456413388566 -9.170271394605681 1 0 0
1368 426 4 -9.60024444479812 -3.6228120183498467 -9.360582204162785 0 0 0
639 183 4 -5.77702397328624 -3.5216190868588026 -9.813170027387244 0 0 0
1289 400 4 -5.623696742113116 -3.9068177336832313 -9.812513024181662 0 0 1
322 78 2 -2.6284357146247688 -4.834025840615842 -9.255768507604822 0 0 0
323 78 4 -2.4554791499861484 -4.378038220842339 -9.145490144531518 0 0 0
483 131 4 -2.600120474895685 -4.001340881847117 -9.132265929609071 0 0 0
481 131 2 -2.5487942560745416 -3.535187847099048 -8.958867638221017 0 0 0
1367 426 4 -8.778373560274249 -3.0656735754997095 -9.479430867044563 0 0 0
1629 513 4 -8.485328729037995 -2.9175010744807124 -9.735774542799694 0 0 0
4436 1449 4 -9.99545853261904 -1.8793290494228627 -9.374166860431535 1 0 1
942 284 4 -7.029339732397208 -1.9667978871876493 -9.953597027302953 0 0 1
637 183 2 -5.635404695912376 -3.13813946974968 -9.525268371369233 0 0 0
638 183 4 -5.493785418538512 -2.7546598526405575 -9.237366715351222 0 0 0
1094 335 4 -5.674909593210569 -2.770426135370551 -8.87761826155269 0 0 1
1093 335 2 -5.389405291099676 -2.476609934368856 -8.590983766933707 0 0 1
482 131 4 -2.497468037253398 -3.069034812350979 -8.785469346832963 0 0 0
560 157 4 -2.101227332107158 -3.025548631773683 -8.866920048867833 0 0 0
559 157 2 -1.8415223757934167 -2.6829541337078306 -8.611611714571124 0 0 0
561 157 4 -1.5818174194796755 -2.3403596356419785 -8.356303380274415 0 0 0
3849 1253 4 -9.56323270623528 -0.6200815462245869 -9.011216416826732 1 0 0
3518 1143 4 -8.051057271900142 -1.1929663423557915 -8.421903612943606 1 0 0
2164 692 2 -5.69508799958293 -0.06186121164082107 -9.539841518843556 0 0 1
1728 546 4 -6.159988348359215 -0.06912992432707077 -8.949170216627056 0 0 0
2165 692 4 -6.148974633971796 -0.0192770002020411 -9.334479623499892 0 0 1
2166 692 4 -5.2412013651940645 -0.10444542307960106 -9.74520341418722 0 0 1
1726 546 2 -6.176230743992185 -0.06740932358612897 -8.449437063717419 0 0 0
1618 510 2 -3.3871944936674043 -0.08228968379057156 -8.851704158229621 0 0 0
2006 639 4 -4.956537925039747 -0.40931850985643153 -9.766176695459025 0 0 1
1620 510 4 -3.085352276987608 -0.4240489073579025 -9.056867286828368 0 0 0
4548 1486 4 -3.1703635631692713 -0.7460757847629271 -9.262742926474234 0 0 1
4546 1486 2 -3.0616168387320113 -1.0397226998332323 -9.652544977768732 0 0 1
4088 1333 4 -3.2068295402685925 -1.6283770454803717 -9.936423280594829 0 0 1
359 90 4 -8.38731784731275 -8.695413389199956 -7.7983122667513145 0 0 0
34 7 3 -8.03258154333279 -9.524660552131687 -8.192910292705522 0 0 1
33 7 3 -7.434875644656279 -9.080987979062476 -8.039605672441995 0 0 1
994 302 2 -6.715094222902903 -9.127718029317437 -8.33076074923957 0 0 1
35 7 3 -8.12231131877899 -8.781813736038988 -8.109082044364081 0 0 1
32 7 3 -7.9599465287690805 -9.205338480841561 -7.516406361122716 0 0 1
31 7 1 -7.888535202793287 -9.14587311905246 -7.96692194716822 0 0 1
3508 1140 2 -7.438065668343194 -9.447971060744663 -7.009082261204402 1 1 0
3510 1140 4 -7.677172806269262 -9.075035977777823 -7.240916685924326 1 1 0
3509 1140 4 -7.198958530417126 -9.820906143711504 -6.777247836484479 1 1 0
995 302 4 -6.222731121766501 -9.213198445963931 -8.31427818241829 0 0 1
2330 747 4 -6.1784000015973675 -9.340389173608122 -7.9152684496944 0 1 1
2329 747 2 -6.041165970764198 -9.26138589476833 -7.441005545058303 0 1 1
2331 747 4 -5.903931939931029 -9.182382615928537 -6.966742640422206 0 1 1
2468 793 4 -3.9736634577019285 -9.747831234087272 -7.410804687303113 0 0 0
533 148 4 -1.7591753785864337 -9.300138701682247 -8.262995972222276 0 0 0
521 144 4 -0.7037145086549161 -9.59265452263188 -7.29514637928464 0 0 0
2767 893 2 -1.0420460919410017 -9.338607915951323 -8.032791742342175 0 0 0
2768 893 4 -0.698543389956054 -9.467113025865423 -7.692950116794476 0 0 0
520 144 2 -0.5002811317486325 -9.43586761051901 -6.866156023506136 0 0 0
360 90 4 -8.26502013527285 -7.732139998597454 -7.55925653143546 0 0 0
358 90 2 -8.3261689912928 -8.213776693898705 -7.678784399093387 0 0 0
578 163 4 -8.32969529570412 -7.383638535197915 -7.373739674639747 0 0 0
577 163 2 -8.170133662431207 -6.969623789063165 -7.604243199928133 0 0 0
3232 1048 2 -6.168878135706365 -7.528151125090784 -8.271809654536426 1 0 1
3233 1048 4 -6.243274137634132 -7.383780982975344 -7.798922250429315 1 0 1
284 65 4 -6.176677523947949 -7.764279824029802 -7.672994936710054 0 0 0
283 65 2 -6.219250133209562 -7.634738644323921 -7.191947479902194 0 0 0
285 65 4 -6.261822742471176 -7.50519746461804 -6.710900023094335 0 0 0
616 176 2 -4.871712493127284 -6.765827424398877 -7.549482115889538 0 0 0
51 11 1 -3.8827639186020435 -7.1390877936007175 -6.95544417119903 0 0 1
54 11 3 -4.201504639275733 -7.24437226055218 -7.27578700942567 0 0 1
618 176 4 -4.517436528864096 -7.010926516060307 -7.295681059130839 0 0 0
53 11 3 -3.534371063959684 -6.902605060956419 -7.150375789966147 0 0 1
52 11 3 -3.7163705965207834 -7.529227425760328 -6.777387074218704 0 0 1
624 178 4 -3.315655713548568 -7.5651961077192 -6.831739006409773 0 0 0
404 105 4 -3.2738204381664557 -7.231588760443584 -7.082814957167561 0 0 0
403 105 2 -2.8042151060606617 -7.101709299758373 -7.195074289742369 0 0 0
405 105 4 -2.3346097739548677 -6.971829839073163 -7.307333622317176 0 0 0
2792 901 4 -2.233165059088791 -6.916260649076093 -7.684215646215754 0 0 0
371 94 4 -8.796568877701718 -6.493121105941456 -7.055020992468889 0 0 0
666 192 4 -8.557424513007978 -6.1760319555384315 -7.102922241173169 0 0 0
370 94 2 -9.190865504444881 -6.504841986644058 -6.747786894272272 0 0 0
513 141 4 -9.65162504698225 -5.086247814142361 -6.884769449504503 0 0 0
664 192 2 -8.279159805642738 -5.837555404556501 -7.3437590678220594 0 0 0
674 195 4 -6.884347690938789 -6.61429263606381 -7.063557145213327 0 0 0
665 192 4 -8.000895098277498 -5.499078853574571 -7.58459589447095 0 0 0
579 163 4 -8.010572029158293 -6.555609042928416 -7.834746725216519 0 0 0
739 217 2 -7.250680375857343 -6.192126988901549 -7.760140321395113 0 0 0
740 217 4 -7.711375293150283 -6.366511484565395 -7.674406775731176 0 0 0
13 3 3 -7.832264308493793 -5.449424981543889 -7.936542524718974 0 0 0
741 217 4 -6.789985458564402 -6.017742493237704 -7.84587386705905 0 0 0
11 3 1 -7.734313353451677 -5.000626608516752 -7.871077795479399 0 0 0
617 176 4 -5.225988457390473 -6.520728332737447 -7.8032831726482375 0 0 0
689 200 4 -6.478185248105269 -5.988251810101505 -7.607074688336423 0 0 0
690 200 4 -5.603402961662076 -6.38724178513712 -7.881961849090162 0 0 0
688 200 2 -6.040794104883672 -6.187746797619313 -7.744518268713293 0 0 0
524 145 4 -4.839099216437371 -5.383030855670619 -7.00067133089152 0 0 0
2791 901 2 -1.9043473735603116 -6.652659264998173 -7.953275565185823 0 0 0
251 54 4 -1.850668014784683 -5.062498797816562 -7.265431179171657 0 0 0
250 54 2 -2.1896215501946097 -5.113713466226502 -6.901442774723808 0 0 0
356 89 4 -1.9860799539665652 -5.872013939361743 -6.7899200406018805 0 0 0
2793 901 4 -1.5755296880318324 -6.3890578809202525 -8.222335484155893 0 0 0
1008 306 4 -1.323563979079246 -6.11540598358528 -8.089229984365945 0 0 1
1006 306 2 -1.4409835053380613 -5.656968931934068 -7.927835670567648 0 0 1
1007 306 4 -1.5584030315968767 -5.1985318802828555 -7.76644135676935 0 0 1
12 3 3 -7.405190744634451 -4.875534228280416 -8.167101789054298 0 0 0
554 155 4 -8.274486169758761 -4.428630312361201 -8.080102072466214 0 0 0
15 3 3 -8.10609610142741 -4.748104279517288 -7.944630916855602 0 0 0
14 3 3 -7.580397183693034 -4.933544785214475 -7.438515844229466 0 0 0
288 66 4 -6.258204448394721 -3.7045748115853367 -7.927750600842966 0 0 0
286 66 2 -6.155035064812029 -4.114827671041589 -7.6612010377234325 0 0 0
287 66 4 -6.051865681229338 -4.525080530497842 -7.394651474603899 0 0 0
612 174 4 -6.577520658210454 -3.6646036933984614 -7.68081312208615 0 0 0
525 145 4 -5.265951883522343 -4.505756977342105 -6.7811551743013405 0 0 0
523 145 2 -5.052525549979857 -4.944393916506361 -6.89091325259643 0 0 0
2288 733 4 -3.9729355466465996 -3.5565264238399714 -7.239164694149028 0 0 1
309 73 4 -4.9928414334807965 -4.224485829046463 -6.833672880904616 0 0 0
308 73 4 -4.359349443726378 -3.5011554736163575 -7.108411112375895 0 0 0
307 73 2 -4.676095438603587 -3.8628206513314103 -6.971041996640255 0 0 0
339 83 4 -0.14494212442132925 -4.0137620038629995 -7.109157857505547 0 0 0
246 52 4 -0.5132453926209583 -4.174040920880472 -6.982681593342013 0 0 0
244 52 2 -0.7931345401374026 -3.8726951156644915 -7.26702780974228 0 0 0
245 52 4 -1.073023687653847 -3.571349310448511 -7.551374026142547 0 0 0
3519 1143 4 -8.507516163454696 -1.990386858875532 -8.027231850397444 1 0 0
647 186 4 -8.75910896092682 -2.3155055844363583 -8.009214323855065 0 0 0
646 186 2 -9.235940982670671 -2.172205789859385 -7.963427951275444 0 0 0
648 186 4 -9.712773004414522 -2.0289059952824116 -7.917641578695822 0 0 0
2993 968 4 -9.942658599970633 -1.8294218186891753 -7.672425553584196 1 0 1
703 205 2 -6.738891031397982 -1.9971715336395013 -7.5846084683310195 0 0 0
611 174 4 -6.927847948872233 -2.7566666107337556 -7.4507673802487435 0 0 0
610 174 2 -6.7526843035413435 -3.2106351520661085 -7.565790251167447 0 0 0
704 205 4 -6.637662090818065 -2.486323046012449 -7.562619845537301 0 0 0
1095 335 4 -5.103900988988783 -2.182793733367161 -8.304349272314724 0 0 1
1158 356 4 -5.119073915973446 -2.0796622446434907 -7.9118625315628 0 0 1
1156 356 2 -5.124606624906609 -1.8338305994379691 -7.47650498729922 0 0 1
2287 733 2 -3.6801911926326336 -3.2800549807969617 -7.535583796729537 0 0 1
2289 733 4 -3.3874468386186676 -3.003583537753952 -7.832002899310047 0 0 1
959 290 4 -3.163252000405415 -2.7825753422708672 -8.08165005100232 0 0 1
958 290 2 -2.7359422221530343 -2.6302943277759723 -7.871372030196933 0 0 1
960 290 4 -2.3086324439006534 -2.4780133132810773 -7.6610940093915465 0 0 1
2571 827 4 -1.9817123911057801 -2.507431708551386 -7.457327348676565 0 0 0
2569 827 2 -1.6871896693928627 -2.9057223830855468 -7.525304587322396 0 0 0
3491 1134 4 -1.4113575727521073 -1.9619502687489005 -8.294287722065116 0 0 1
3490 1134 2 -0.971523484099737 -1.8999320871674668 -8.06472352709474 0 0 1
3492 1134 4 -0.5316893954473667 -1.837913905586033 -7.8351593321243636 0 0 1
2570 827 4 -1.3926669476799451 -3.3040130576197075 -7.593281825968227 0 0 0
334 82 2 -0.7386738979234045 -1.8259947311407319 -6.766877419641261 0 0 0
3194 1035 4 -0.16114716824840564 -2.002164467774892 -7.792239943206638 0 0 1
3195 1035 4 -0.0047465576269111465 -2.975494442769322 -7.6244078581530585 0 0 1
3193 1035 2 -0.08294686293765861 -2.4888294552721075 -7.708323900679848 0 0 1
336 82 4 -0.42137693780132035 -1.75802258492757 -7.147275141028329 0 0 0
3517 1143 2 -8.279286717677419 -1.591676600615662 -8.224567731670525 1 0 0
705 205 4 -6.840119971977899 -1.508020021266554 -7.606597091124738 0 0 0
506 139 4 -7.713843549490374 -1.0758574519021178 -8.241006299959182 0 0 0
507 139 4 -6.866762571384172 -1.1205957247221858 -7.71142882359088 0 0 0
505 139 2 -7.290303060437273 -1.098226588312152 -7.97621756177503 0 0 0
385 99 2 -6.060738170616162 -0.21964658395373626 -7.302146112272364 0 0 0
387 99 4 -5.776190331615145 -0.5078506424623674 -7.0089380837687125 0 0 0
736 216 2 -5.251659778172538 -0.8708663519886941 -6.76781402969337 0 0 0
738 216 4 -5.527804200542162 -0.45575061741335626 -6.730088906731576 0 0 0
1157 356 4 -5.130139333839773 -1.587998954232448 -7.0411474430356416 0 0 1
1727 546 4 -6.192473139625155 -0.06568872284518718 -7.949703910807781 0 0 0
737 216 4 -4.975515355802914 -1.285982086564032 -6.805539152655164 0 0 0
104 21 3 -0.03801715942721012 -1.6184386405893918 -7.1275955082374685 0 0 0
2757 889 4 -9.402729632240673 -9.060828457142074 -5.436407405656281 1 0 0
2755 889 2 -9.734873827811613 -8.761387785940764 -5.66004889952262 1 0 0
1796 569 4 -7.56257296019992 -9.786977283821022 -5.260658005630166 0 1 0
1070 327 4 -6.983402327434034 -9.963150903742203 -6.466483263841236 0 0 1
1069 327 2 -6.607865897608942 -9.965651570333026 -6.1363830721705055 0 0 1
1071 327 4 -6.23232946778385 -9.96815223692385 -5.806282880499774 0 0 1
1436 449 4 -4.2652875103172425 -9.093293183283514 -5.9353222722920105 0 0 0
1435 449 2 -3.8035857881203827 -8.930343988605703 -6.036708068508083 0 0 0
654 188 4 -4.56356921292518 -9.341259502398309 -5.842401073699532 0 0 0
652 188 2 -4.547212499695389 -9.532947845638327 -5.380894803971455 0 0 0
1437 449 4 -3.341884065923523 -8.767394793927892 -6.138093864724155 0 0 0
1763 558 4 -4.941938824018829 -8.52827524984816 -5.113659342343012 0 1 0
623 178 4 -3.218146402264854 -8.433324363029284 -6.345071495120266 0 0 0
522 144 4 -0.296847754842349 -9.279080698406139 -6.437165667727631 0 0 0
1354 422 2 -0.7583018269043486 -9.455030132345856 -5.292943252916138 0 1 0
1355 422 4 -0.975875487278471 -9.294837126058823 -5.713656817052014 0 1 0
379 97 2 -9.451017852642378 -7.036718604763253 -5.760667061708918 0 0 0
380 97 4 -9.473499437367062 -7.419920566969171 -5.4402753725060276 0 0 0
488 133 4 -9.469161631845287 -7.562234805265044 -5.062483435914232 0 0 0
673 195 2 -7.164821349239369 -6.736869289537802 -6.668197194000956 0 0 0
675 195 4 -7.445295007539949 -6.859445943011794 -6.272837242788585 0 0 0
236 49 4 -6.285756530086138 -7.749358485504097 -6.424169901763667 0 0 0
235 49 2 -5.913052137261174 -7.87511166162901 -6.1154992451345835 0 0 0
237 49 4 -5.540347744436211 -8.000864837753921 -5.8068285885055 0 0 0
1764 558 4 -5.1621074645730864 -7.8163144799819655 -5.780470883850611 0 1 0
1762 558 2 -5.052023144295958 -8.172294864915063 -5.447065113096811 0 1 0
55 11 3 -4.072051912203075 -6.891428646777191 -6.623427601622935 0 0 1
622 178 2 -3.266901057906711 -7.999260235374242 -6.588405250765019 0 0 0
2837 916 4 -1.9973011912590748 -6.978272958772016 -6.041740397346063 0 0 0
2836 916 2 -1.5360009007637314 -7.111012731007923 -5.901804001595603 0 0 0
2838 916 4 -1.074700610268388 -7.24375250324383 -5.7618676058451435 0 0 0
641 184 4 -0.8433744032720443 -6.906485915117533 -5.714860916199767 0 0 0
381 97 4 -9.428536267917695 -6.653516642557336 -6.081058750911808 0 0 0
372 94 4 -9.585162131188044 -6.51656286734666 -6.440552796075655 0 0 0
511 141 2 -9.68048695953332 -5.1254007177139735 -6.387141033770779 0 0 0
512 141 4 -9.70934887208439 -5.164553621285586 -5.889512618037054 0 0 0
684 198 4 -6.797846738944099 -5.9905998564042475 -5.496197967339376 0 0 0
366 92 4 -6.927520254952825 -6.260609193570955 -5.226735100642066 0 0 0
682 198 2 -6.337155536231459 -5.820171060729775 -5.5895662775311035 0 0 0
683 198 4 -5.87646433351882 -5.649742265055303 -5.682934587722831 0 0 0
1404 438 4 -5.607730252640287 -5.453075067435971 -5.88573312405498 0 1 0
1402 438 2 -5.281054834197921 -5.778222126800563 -6.079543755270607 0 1 0
248 53 4 -3.9540766450306135 -6.5881087207122 -6.440690377349081 0 0 0
1403 438 4 -4.954379415755555 -6.103369186165156 -6.2733543864862344 0 1 0
249 53 4 -4.630940567024678 -5.979867729765582 -6.026084386033632 0 0 0
247 53 2 -4.292508606027646 -6.2839882252388914 -6.233387381691356 0 0 0
357 89 4 -2.1975155992223967 -6.6550571277259145 -6.204994119590196 0 0 0
355 89 2 -2.091797776594481 -6.263535533543829 -6.497457080096038 0 0 0
252 54 4 -2.5285750856045364 -5.164928134636441 -6.5374543702759595 0 0 0
642 184 4 -0.1264750644747759 -6.337947163311886 -5.311352520094505 0 0 0
640 184 2 -0.48492473387340995 -6.622216539214709 -5.513106718147136 0 0 0
735 215 4 -9.805014257113678 -4.7836857189329605 -5.772551908421205 0 0 0
733 215 2 -9.537941394772796 -4.476895281770985 -5.48177413439605 0 0 0
734 215 4 -9.270868532431914 -4.17010484460901 -5.190996360370896 0 0 0
473 128 4 -4.76615038851695 -4.376633127604389 -5.659992428394233 0 0 0
472 128 2 -4.34425686448604 -4.342480528085626 -5.926149251201881 0 0 0
474 128 4 -3.92236334045513 -4.308327928566863 -6.1923060740095295 0 0 0
2462 791 4 -4.90518193044247 -4.331393478681759 -5.2850029197762005 1 0 0
1103 338 4 -3.5553458452450526 -4.3456523419161055 -6.394825365946754 0 0 1
1104 338 4 -2.6810203607541734 -4.827257896446434 -6.334733461208965 0 0 1
1102 338 2 -3.118183102999613 -4.586455119181269 -6.3647794135778595 0 0 1
933 281 4 -0.35812576194943896 -4.838345937099199 -5.175870424820615 0 0 1
931 281 2 -0.7614245627688432 -4.828462151121859 -5.471255576838244 0 0 1
932 281 4 -1.1647233635882475 -4.8185783651445195 -5.766640728855873 0 0 1
1512 474 4 -8.829489231373445 -2.4038846315553037 -6.0294519289269575 0 0 0
620 177 4 -9.084515097044223 -2.6292981290547894 -6.274873350996461 0 0 0
619 177 2 -9.566687204377251 -2.5879124275358767 -6.400560592273437 0 0 0
1510 474 2 -8.447410221820292 -2.0861880065145137 -6.084990068042579 0 0 0
1511 474 4 -8.065331212267136 -1.7684913814737242 -6.1405282071582015 0 0 0
751 221 2 -5.130843469353823 -2.2608501730626447 -5.173030295342991 0 0 0
753 221 4 -5.489893003768808 -2.5932456783842635 -5.0700902162792 0 0 0
752 221 4 -4.771793934938838 -1.9284546677410261 -5.275970374406781 0 0 0
1587 499 4 -4.588963194784393 -1.8141216647012868 -5.622442472260994 0 0 0
301 71 2 -0.23342644994665454 -3.2859063558853134 -5.7833439018124295 0 0 0
335 82 4 -1.0559708580454887 -1.8939668773538938 -6.386479698254194 0 0 0
1454 455 4 -1.1162927797059825 -2.000650054406427 -6.015680158076149 0 0 0
1455 455 4 -0.7021317258332676 -2.849966520692238 -5.688369660917854 0 0 0
303 71 4 -0.6265044556359792 -3.0808658405391576 -6.014532284976772 0 0 0
1453 455 2 -0.909212252769625 -2.4253082875493326 -5.852024909497001 0 0 0
2742 884 4 -9.910926824876857 -0.12016685184827547 -5.657883767840887 1 0 0
392 101 4 -7.975539104426025 -1.500411583958386 -6.426103024050596 0 0 0
1776 562 4 -7.878707650526956 -0.4426984545805333 -6.091871037298711 0 0 0
393 101 4 -8.224308933938756 -0.5394879822603349 -6.3046970784777265 0 0 0
391 101 2 -8.09992401918239 -1.0199497831093605 -6.365400051264161 0 0 0
1586 499 4 -4.696123214406386 -1.3486720494062872 -6.501005723150868 0 0 0
1585 499 2 -4.642543204595389 -1.5813968570537869 -6.061724097705931 0 0 0
3562 1158 2 -2.077069596589308 -0.13502717157052302 -5.223013607496895 0 0 0
3563 1158 4 -1.6884868796916837 -0.3992376551882297 -5.0521443812597555 0 0 0
270 60 4 -0.070498156161028 -0.6459388576794033 -5.955983681044544 0 0 0
268 60 2 -0.08339260928382955 -0.6016494881552714 -5.458116043186863 0 0 0
3347 1086 4 -0.1592179226064504 -0.9960973269801698 -6.116314992369674 0 0 1
2551 821 2 -9.642937080143067 -9.372108835290963 -4.410561849745812 1 0 0
2552 821 4 -9.415890055027688 -9.808239171111513 -4.501336177411537 1 0 0
2553 821 4 -9.869984105258448 -8.935978499470412 -4.3197875220800865 1 0 0
1462 458 2 -8.719112469368746 -8.502005500312627 -4.049666319107882 0 1 0
1464 458 4 -8.85588499369316 -8.81630557212055 -3.685648817535101 0 1 0
20 4 3 -8.51019610415287 -8.8810635796962 -3.5186187996165224 0 0 0
1851 587 4 -7.3307719195001235 -9.607875699364671 -4.973076883839423 0 1 0
1849 587 2 -7.002871883955233 -9.241105742940853 -4.88385039811597 0 1 0
1850 587 4 -6.674971848410343 -8.874335786517035 -4.794623912392518 0 1 0
546 152 4 -5.286600312995339 -8.674590361532015 -4.9680783068145375 0 0 0
2429 780 4 -5.534679870538559 -9.860450564936297 -4.826554442513142 0 1 0
544 152 2 -5.391796476395543 -9.119162405329295 -4.764880213614979 0 0 0
545 152 4 -5.496992639795747 -9.563734449126576 -4.56168212041542 0 0 0
587 166 4 -6.647117493630782 -8.516741246182022 -4.701501929515585 0 0 0
586 166 2 -6.460212671842789 -8.498987776099105 -4.238089152509737 0 0 0
588 166 4 -6.273307850054795 -8.481234306016187 -3.774676375503889 0 0 0
691 201 2 -4.148093661215869 -9.804635765036377 -4.324036660518127 0 0 0
653 188 4 -4.530855786465598 -9.724636188878346 -4.919388534243378 0 0 0
692 201 4 -4.13213593809305 -9.96248881786774 -3.849876598108301 0 0 0
1407 439 4 -3.8501876209341916 -9.689726425800242 -3.7339714955189867 0 1 0
1405 439 2 -3.6230375323570683 -9.377652209120756 -3.416146826018001 0 1 0
693 201 4 -4.164051384338688 -9.646782712205013 -4.798196722927953 0 0 0
2557 823 2 -0.12134218187693832 -8.571164766381528 -3.6622726356012407 0 0 0
1356 422 4 -0.5407281665302262 -9.615223138632889 -4.872229688780262 0 1 0
296 69 4 -0.8117453817953049 -9.448194678755957 -4.6310603557882795 0 0 0
295 69 2 -0.8426620233403044 -9.236664310944084 -4.179065815147436 0 0 0
297 69 4 -0.8735786648853039 -9.02513394313221 -3.727071274506593 0 0 0
2559 823 4 -0.5941920190376399 -8.733673025455824 -3.6602484741997103 0 0 0
1463 458 4 -8.582339945044332 -8.187705428504705 -4.413683820680663 0 1 0
487 133 2 -9.218116268814303 -7.892423659741484 -4.783285394946379 0 0 0
489 133 4 -8.967070905783318 -8.222612514217923 -4.504087353978526 0 0 0
365 92 4 -7.3548790069135555 -6.970860095342488 -4.667353161662654 0 0 0
2513 808 4 -7.3453375463754185 -7.350241229965054 -4.580238111617564 1 0 0
2512 808 2 -7.023642894633314 -7.407922947062153 -4.201839683299939 1 0 0
2514 808 4 -6.70194824289121 -7.465604664159254 -3.8234412549823142 1 0 0
1866 592 4 -4.4236837877701225 -7.455932126153502 -4.48423872593717 0 1 0
1864 592 2 -4.423141349375441 -6.9822896393816904 -4.644433920888374 0 1 0
899 270 4 -4.422908628325998 -7.591354945568488 -4.109050142901372 0 0 0
898 270 2 -4.156793274879916 -7.841133408189155 -3.7672997394329415 0 0 0
900 270 4 -3.890677921433834 -8.09091187080982 -3.4255493359645106 0 0 0
1220 377 4 -8.701035140124402 -5.222287129284397 -3.3414157851529565 0 0 0
364 92 2 -7.14119963093319 -6.6157346444567215 -4.94704413115236 0 0 0
2463 791 4 -5.2064437142028535 -5.042657630461253 -4.6499087188575565 1 0 0
1865 592 4 -4.42259891098076 -6.508647152609879 -4.804629115839577 0 1 0
527 146 4 -4.85126817417273 -5.233820135876054 -4.5681412257290255 0 0 0
528 146 4 -4.42755274525691 -6.135235786575446 -4.657107848534654 0 0 0
526 146 2 -4.63941045971482 -5.684527961225751 -4.61262453713184 0 0 0
2599 837 2 -0.28082051653914386 -5.2376492168501745 -3.864860972121084 0 0 0
2600 837 4 -0.7110025335454 -5.012303731803234 -3.983868722343767 0 0 0
2459 790 4 -9.447656854066885 -4.266686684251459 -4.821426113564766 1 0 0
2458 790 2 -9.121201479703165 -4.156530098092959 -4.459083161274325 1 0 0
2460 790 4 -8.794746105339446 -4.046373511934458 -4.096740208983884 1 0 0
384 98 4 -8.828822745831786 -4.878245450777573 -3.4914348148104892 0 0 0
382 98 2 -9.292985964131933 -4.718084001166064 -3.3970906743695535 0 0 0
2461 791 2 -5.055812822322662 -4.687025554571506 -4.9674558193168785 1 0 0
410 107 4 -5.7160735969445815 -3.803384807606426 -4.845297268801998 0 0 0
409 107 2 -5.498555427886829 -3.355253174538318 -4.888470009893488 0 0 0
3237 1049 4 -5.565951043435758 -4.1533415216680165 -3.5340153389343567 1 0 0
229 47 2 -2.3262270558839275 -4.088017759058276 -4.273996946511263 0 0 0
2457 789 4 -2.6759205795873755 -3.5303325831638204 -4.0634411964392 0 0 0
230 47 4 -2.517438043938767 -3.6474324299801357 -4.413003873850393 0 0 0
231 47 4 -2.135016067829088 -4.528603088136415 -4.1349900191721325 0 0 0
1583 498 4 -1.9168499510325034 -4.84389868336613 -4.024056006984728 0 0 0
1584 498 4 -0.9622238126321513 -4.933042567730788 -4.308207909607796 0 0 0
1582 498 2 -1.4395368818323273 -4.888470625548459 -4.166131958296262 0 0 0
464 125 4 -8.657443914836783 -2.9389886518805772 -4.283617814403087 0 0 0
680 197 4 -9.354657927162046 -2.013425512719129 -3.612996989069224 0 0 0
463 125 2 -8.928523163663437 -2.643006119921644 -3.985439375158261 0 0 0
465 125 4 -9.19960241249009 -2.3470235879627106 -3.6872609359134345 0 0 0
679 197 2 -9.023211298648544 -1.7433720983608492 -3.3537398081840157 0 0 0
411 107 4 -5.281037258829076 -2.9071215414702096 -4.931642750984977 0 0 0
2455 789 2 -2.7154997173645357 -3.213573794774498 -3.678606995995937 0 0 0
117 24 3 -1.7069669725753407 -2.4767189900171154 -3.8398743788174943 0 0 0
119 24 3 -1.2704375968645505 -1.903755437533932 -3.6252703908142143 0 0 0
116 24 1 -1.4742808541383963 -2.2967170104587744 -3.4862411540751848 0 0 0
118 24 3 -1.1529595932781205 -2.601348791990914 -3.3474891270646503 0 0 0
915 275 4 -8.420275957077386 -0.23972023504300777 -3.4736169172189597 0 0 1
913 275 2 -8.503527206369142 -0.7313462157767684 -3.436561221858372 0 0 1
914 275 4 -8.586778455660898 -1.2229721965105291 -3.399505526497784 0 0 1
667 193 2 -2.643480289568785 -0.31877321619577675 -3.7926302832808254 0 0 0
669 193 4 -3.007060300028064 -0.5308949949506877 -3.522789724853757 0 0 0
668 193 4 -2.2799002791095058 -0.10665143744086578 -4.062470841707894 0 0 0
269 60 4 -0.0962870624066311 -0.5573601186311395 -4.960248405329183 0 0 0
495 135 4 -0.2312348531263694 -0.7522403292743929 -4.653173402613574 0 0 0
593 168 4 -0.6178776378420383 -0.16015896854157513 -4.463599375583719 0 0 0
594 168 4 -1.4726191158460749 -0.5705679532255483 -4.781375194473986 0 0 0
1698 536 4 -1.3701109060172403 -1.5331230419650008 -3.709946217878756 0 0 0
127 26 3 -0.4532423738404547 -0.20558604517197726 -4.058849397995857 0 0 0
592 168 2 -1.0452483768440566 -0.36536346088356175 -4.6224872850288525 0 0 0
126 26 1 -0.6337413331484104 -0.08444196807683217 -3.653455468251276 0 0 0
1696 536 2 -1.108446842980056 -1.140405749669277 -3.5447038309231527 0 0 0
130 26 3 -0.962548709455111 -0.3790238950276498 -3.5416198853606495 0 0 0
1697 536 4 -0.8467827799428718 -0.7476884573735532 -3.3794614439675494 0 0 0
128 26 3 -0.2990333631291719 -0.09131091927972494 -3.332171493681705 0 0 0
2847 919 4 -9.328205684687589 -8.968963232488248 -2.8424455613351327 1 0 0
2846 919 4 -9.451478996232503 -8.675854944612881 -1.8943468205701581 1 0 0
17 4 3 -8.933178060971052 -9.032282204300012 -2.9226161219558566 0 0 0
2845 919 2 -9.389842340460046 -8.822409088550565 -2.3683961909526454 1 0 0
16 4 1 -8.501770132165928 -8.997602861277038 -3.0784511056128534 0 0 0
725 212 4 -7.1161254618587595 -9.918816765469073 -2.7039400171854284 0 0 0
18 4 3 -8.279244721403785 -8.672803465309975 -2.8329153771650923 0 0 0
19 4 3 -8.290372576056713 -9.40746332247404 -3.0272117104345857 0 0 0
726 212 4 -7.925910827069934 -9.54709117398333 -3.157886871918894 0 0 0
724 212 2 -7.521018144464347 -9.732953969726202 -2.930913444552161 0 0 0
459 123 4 -7.792756202777445 -9.580216106973063 -1.7864001461022916 0 0 0
1782 564 4 -5.30933928565745 -9.994264267961006 -2.562090021497059 0 1 0
1780 564 2 -5.643765782948089 -9.647277776141397 -2.4288260263433035 0 1 0
1781 564 4 -5.978192280238727 -9.300291284321789 -2.295562031189548 0 1 0
893 268 4 -5.8703105729942315 -8.936113350546522 -2.1181363478462933 0 0 0
892 268 2 -5.639487980766762 -8.522484439089045 -1.9580362087976328 0 0 0
1406 439 4 -3.395887443779945 -9.06557799244127 -3.0983221565170154 0 1 0
894 268 4 -5.408665388539292 -8.108855527631567 -1.7979360697489726 0 0 0
42 9 3 -5.021307397847421 -7.988755660000168 -1.7561416937965282 0 0 0
813 241 4 -3.807468190453067 -7.92264933363111 -3.082631714250805 0 0 0
811 241 2 -3.97931409965475 -7.845351904985524 -2.61949664646226 0 0 0
812 241 4 -4.151160008856433 -7.7680544763399375 -2.156361578673715 0 0 0