LAMMPS data file via write_data, version 27 Jun 2024, timestep = 3500000, units = lj

4590 atoms
4 atom types
3090 bonds
1 bond types

-9.99857 9.99857 xlo xhi
-9.99857 9.99857 ylo yhi
-9.99857 9.99857 zlo zhi

Masses

1 1
2 1
3 0.5
4 0.5

Bond Coeffs # zero

1 0

Atoms # bond

702 204 4 -9.46623487253976 -9.385506889890513 -9.510292958847028 0 0 0
700 204 2 -9.650724935667709 -9.175438029970062 -9.0957637189869 0 0 0
701 204 4 -9.835214998795658 -8.96536917004961 -8.681234479126772 0 0 0
450 120 4 -9.979172387274588 -8.600335869177428 -8.604431770034262 0 0 0
1667 526 4 -9.960729776483687 -8.838535782453718 -8.306770903742647 0 1 0
464 125 4 -9.48513900591497 -9.282671853222299 -9.881823425542187 0 0 0
490 134 2 -4.050405022827477 -8.527026105498644 -9.923537070296023 0 0 0
297 69 4 -2.115101665352445 -9.710988766058097 -8.42062743334047 0 0 0
759 223 4 -1.9382231898558306 -9.360374395932054 -8.452032331426704 0 0 0
2467 793 2 -1.3937145963475968 -9.45972841246327 -8.91409145983791 0 0 0
2468 793 4 -1.0409655919784835 -9.243419817097784 -9.194766951265061 0 0 0
629 180 4 -1.0875592488246013 -8.855740809321663 -9.194180533261106 0 0 0
746 219 4 -0.8031310880042846 -9.029446531759248 -9.452316412181936 0 0 0
745 219 2 -0.652160338648202 -9.336045505544849 -9.817288879791114 0 0 0
628 180 2 -1.2241562998207645 -8.377869654275084 -9.139587449142246 0 0 0
2469 793 4 -1.74646360071671 -9.676037007828757 -8.63341596841076 0 0 0
421 111 2 -9.0447573624249 -7.436086070335925 -9.106134074344027 0 0 0
448 120 2 -9.871564343709192 -8.152593759743892 -8.799232982556399 0 0 0
422 111 4 -8.67235625598534 -7.10588877053558 -9.058309821847084 0 0 0
449 120 4 -9.763956300143796 -7.7048516503103555 -8.994034195078536 0 0 0
423 111 4 -9.417158468864459 -7.76628337013627 -9.15395832684097 0 0 0
555 155 4 -8.366925272923801 -7.18971139579784 -9.314060240094028 0 0 0
590 167 4 -8.454526434463304 -6.8080368746695985 -9.193335063307764 0 0 0
476 129 4 -8.292648622918104 -7.038465224950675 -8.941047747012544 0 0 0
235 49 2 -7.084284648247502 -7.874820243857633 -9.518690012134519 0 0 0
553 155 2 -8.095442144301229 -7.4974490065264865 -9.599707704316025 0 0 0
554 155 4 -7.823959015678657 -7.805186617255133 -9.885355168538021 0 0 0
236 49 4 -7.4480189358491025 -7.7204722196755675 -9.82507874471847 0 0 0
237 49 4 -6.720550360645902 -8.0291682680397 -9.212301279550568 0 0 0
475 129 2 -8.132340268701034 -7.07972126976102 -8.469243581775448 0 0 0
567 159 4 -6.6459536018346705 -7.735474466297892 -8.979133246616282 0 0 0
565 159 2 -6.436321337913907 -7.696685799353106 -8.526861477388989 0 0 0
492 134 4 -3.8631901238229402 -8.354010808182704 -9.493401872380971 0 0 0
253 55 2 -4.337321754722885 -8.284945013710127 -8.811322499984081 0 0 0
254 55 4 -3.983698286061701 -8.169618564794696 -9.145463566889134 0 0 0
558 156 4 -3.6146370637929217 -8.090705235678142 -9.303176664307399 0 0 0
255 55 4 -4.69094522338407 -8.400271462625557 -8.477181433079028 0 0 0
556 156 2 -3.2373815880284273 -7.850916521777143 -9.527184875520799 0 0 0
557 156 4 -2.860126112263933 -7.611127807876144 -9.7511930867342 0 0 0
985 299 2 -2.1115543784864435 -7.564589167961425 -9.432851524985 0 0 1
986 299 4 -1.7254376879051025 -7.694063483920751 -9.142764809051066 0 0 1
987 299 4 -2.4976710690677844 -7.435114852002099 -9.722938240918936 0 0 1
666 192 4 -2.768544703366587 -7.278325861247042 -9.972970187554402 0 0 0
664 192 2 -2.789776541464275 -6.785601352488286 -9.890679437651675 0 0 0
24 5 3 -2.1431712067674056 -7.417161648501986 -8.466341227739271 0 0 0
21 5 1 -1.819843039141015 -7.73756179297123 -8.37632654314016 0 0 0
22 5 3 -1.613511219300457 -7.855361715366565 -8.770217845919193 0 0 0
630 180 4 -1.3607533508169278 -7.899998499228505 -9.084994365023386 0 0 0
462 124 4 -1.41304624879594 -7.539781819992169 -8.925119141481689 0 0 0
460 124 2 -1.1105886042144644 -7.2448582756086495 -9.192587786751087 0 0 0
461 124 4 -0.8081309596329886 -6.94993473122513 -9.460056432020485 0 0 0
3299 1070 4 -0.42731182060720785 -6.802652636179717 -9.55696725583489 0 0 1
765 225 4 -0.7290240700509745 -6.620713322728935 -9.719323018200196 0 0 0
2798 903 4 -9.607921991333408 -5.220714752586895 -8.975721221540127 1 0 0
591 167 4 -8.092672688526921 -5.935118941234624 -9.520559982954527 0 0 0
589 167 2 -8.273599561495113 -6.371577907952111 -9.356947523131145 0 0 0
1069 327 2 -3.1369365467738817 -5.540846870848652 -9.621924514172413 0 0 1
665 192 4 -2.811008379561963 -6.29287684372953 -9.808388687748948 0 0 0
1071 327 4 -3.0594371000696845 -6.030709354869594 -9.685395629725173 0 0 1
1070 327 4 -3.214435993478079 -5.050984386827711 -9.558453398619653 0 0 1
622 178 2 -1.3866069318152998 -5.185743706724057 -9.72107486960701 0 0 0
624 178 4 -1.4734847468040817 -5.67764304695287 -9.699000351592396 0 0 0
763 225 2 -0.9521043239009676 -6.194162295146098 -9.584084631599836 0 0 0
764 225 4 -1.1751845777509606 -5.767611267563261 -9.448846244999476 0 0 0
2771 894 4 -9.114709497558765 -3.682666502031489 -9.815983235240331 1 0 0
2770 894 2 -9.137676336839773 -3.8253260354449155 -9.337317608920928 1 0 0
2772 894 4 -9.16064317612078 -3.967985568858342 -8.858651982601526 1 0 0
329 80 4 -9.208915861431677 -3.892722646729827 -8.47490383283835 0 0 0
1491 467 4 -9.432424871407735 -9.943921858649459 -1.559283676188035 0 1 0
755 222 4 -6.1488516116281895 -3.8438200266753286 -9.510989110009435 0 0 0
754 222 2 -5.698777022125498 -3.660697664262008 -9.393094817237817 0 0 0
756 222 4 -5.248702432622806 -3.4775753018486872 -9.275200524466198 0 0 0
506 139 4 -6.062393894321948 -3.9788351241165842 -9.8765403059454 0 0 0
571 161 2 -4.727785536197824 -5.0728245539686245 -8.48822287669186 0 0 0
322 78 2 -3.7972832086412134 -4.716325149289081 -9.169544092169364 0 0 0
572 161 4 -4.638196295230325 -4.803848189878451 -8.900079020829427 0 0 0
739 217 2 -4.67922956965784 -4.020164520880004 -9.161418712886002 0 0 0
324 78 4 -4.242730604289907 -4.734876472538109 -8.943198192900716 0 0 0
741 217 4 -4.512858422740219 -4.487277074526277 -9.097180844774842 0 0 0
740 217 4 -4.84560071657546 -3.5530519672337313 -9.225656580997162 0 0 0
323 78 4 -3.3518358129925203 -4.697773826040053 -9.395889991438011 0 0 0
518 143 4 -3.18395696135889 -4.71086111886963 -9.74819354215099 0 0 0
623 178 4 -1.299729116826518 -4.693844366495243 -9.743149387621624 0 0 0
250 54 2 -5.249382248954752 -2.94833644875975 -8.682916619284773 0 0 0
251 54 4 -5.472159451853486 -2.666973396785588 -8.334771317934107 0 0 0
482 131 4 -4.994584404436563 -3.2113183711971476 -9.443319804298293 0 0 0
252 54 4 -5.026605046056018 -3.229699500733912 -9.03106192063544 0 0 0
956 289 4 -4.665112870784619 -3.1628975087339617 -9.2213915753864 0 0 1
955 289 2 -4.217771350573509 -3.0075043914655946 -9.060959211441453 0 0 1
481 131 2 -4.941060572353855 -2.9428550938784017 -9.861724713603218 0 0 0
957 289 4 -3.770429830362399 -2.8521112741972274 -8.900526847496506 0 0 1
670 194 2 -1.078073489617422 -2.150886999041601 -9.277964552329165 0 0 0
672 194 4 -1.3590490122134786 -2.5436163329032686 -9.407642715590315 0 0 0
282 64 4 -1.453256422297739 -2.331966923525309 -9.735368650327331 0 0 0
671 194 4 -0.7970979670213653 -1.758157665179933 -9.148286389068014 0 0 0
563 158 4 -0.38858363499232634 -1.736339066617533 -9.10222602386292 0 0 0
562 158 2 -0.0315331412370547 -1.8079001439872109 -9.444854039522312 0 0 0
550 154 2 -8.881635718766747 -0.3346152013059797 -9.192423770028107 0 0 0
551 154 4 -8.99179456990018 -0.554054278483438 -9.627982628191164 0 0 0
456 122 4 -8.61950074623159 -0.5619230795450401 -9.822678814578387 0 0 0
552 154 4 -8.771476867633314 -0.11517612412852143 -8.75686491186505 0 0 0
417 109 4 -8.523434377635999 -0.2112096601759592 -8.494938610856547 0 0 0
1788 566 4 -8.880197022889483 -0.2500173462130832 -9.87302928361112 0 0 0
454 122 2 -8.250251933379737 -0.8713122788872955 -9.956595346558624 0 0 0
287 66 4 -7.589664775019474 -1.4112410403248252 -9.95093014064724 0 0 0
286 66 2 -7.117304999403811 -1.2878015504958908 -9.84304624596725 0 0 0
244 52 2 -5.8455832515211394 -0.05702416830120249 -8.39546158177003 0 0 0
246 52 4 -6.141006148640898 -0.04004646516063758 -8.7984964058901 0 0 0
271 61 2 -6.502371932154942 -0.40547459859720436 -9.468300998678902 0 0 0
273 61 4 -6.389295766924216 -0.04358909657632193 -9.142336791619195 0 0 0
272 61 4 -6.615448097385667 -0.7673601006180863 -9.79426520573861 0 0 0
1579 497 2 -1.4918386715467866 -9.835065337193923 -2.2909220752828223 0 1 0
288 66 4 -6.644945223788148 -1.1643620606669565 -9.73516235128726 0 0 0
227 46 4 -0.6131793106477508 -1.7064291895032673 -8.773933096058599 0 0 0
226 46 2 -0.5739307863012171 -1.2894741666839902 -8.500788331725717 0 0 0
4015 1309 2 -9.149878715486265 -9.970333227257594 -7.687273599268614 1 1 0
4016 1309 4 -9.444356975577554 -9.567113382730117 -7.660885887864195 1 1 0
1806 572 4 -9.674412511029407 -9.415974327467943 -7.36612339025921 0 1 0
1668 526 4 -9.38327598602453 -9.199047487053107 -7.574255763468245 0 1 0
1666 526 2 -9.672002881254109 -9.018791634753413 -7.9405133336054465 0 1 0
581 164 4 -4.713966571038393 -8.332963569726195 -8.086144954794053 0 0 0
1506 472 4 -4.098635228330416 -9.224326007400375 -7.213549759591783 0 1 0
582 164 4 -4.313994736593152 -9.026909720613952 -7.487428601819383 0 0 0
580 164 2 -4.513980653815772 -8.679936645170073 -7.786786778306718 0 0 0
654 188 4 -4.068020273029473 -8.814740993151027 -7.2636903078671615 0 0 0
1504 472 2 -3.969285475792146 -9.706361452168958 -7.183375739230528 0 1 0
692 201 4 -4.389245922223533 -8.992881539905534 -7.088649532579789 0 0 0
652 188 2 -3.651356824362877 -8.598480365078768 -7.091577230818142 0 0 0
758 223 4 -2.194229312587803 -8.461809943346617 -8.095601707499345 0 0 0
757 223 2 -2.066226251221817 -8.911092169639335 -8.273817019463024 0 0 0
653 188 4 -3.23469337569628 -8.382219737006508 -6.919464153769123 0 0 0
1761 557 4 -2.9714554760155623 -8.39303351052176 -7.24366038011144 0 1 0
339 83 4 -7.854528632636452 -7.1433170449585806 -7.594019243621178 0 0 0
477 129 4 -7.972031914483963 -7.120977314571364 -7.997439416538351 0 0 0
337 83 2 -7.7191940245752555 -6.881167430300819 -7.190333569617215 0 0 0
338 83 4 -7.583859416514059 -6.619017815643057 -6.786647895613251 0 0 0
360 90 4 -4.927815677385206 -8.091252426315567 -8.346343995845173 0 0 0
566 159 4 -6.2266890739931435 -7.65789713240832 -8.074589708161696 0 0 0
358 90 2 -5.392168116869482 -7.9459470693894945 -8.231178179765426 0 0 0
359 90 4 -5.8565205563537575 -7.800641712463422 -8.116012363685678 0 0 0
353 88 4 -5.943797413493015 -7.439153027021158 -7.909818657290453 0 0 0
352 88 2 -5.771887003474881 -7.111604180946649 -7.573428163425048 0 0 0
354 88 4 -5.599976593456747 -6.78405533487214 -7.237037669559644 0 0 0
285 65 4 -5.303699628227968 -6.856098506815018 -6.966961472761918 0 0 0
1760 557 4 -2.3865090124462927 -8.119955332815131 -8.007378877738246 0 1 0
1759 557 2 -2.6789822442309275 -8.256494421668446 -7.625519628924843 0 1 0
25 5 3 -2.0135468885887446 -8.106371375876805 -8.192320265350041 0 0 0
2745 885 4 -1.5988045572935499 -6.928839565372113 -6.842980269301792 0 0 0
2743 885 2 -1.5697855260420013 -7.158292360868817 -7.286273976074454 0 0 0
2744 885 4 -1.5407664947904527 -7.387745156365521 -7.729567682847115 0 0 0
23 5 3 -1.5017173272309483 -7.564443006969397 -8.0862818614875 0 0 0
2591 834 4 -0.19441050934482473 -7.3265727801502925 -8.040683532614905 0 0 0
2590 834 2 -0.6891751542728268 -7.35719802215447 -7.975337984327047 0 0 0
2592 834 4 -1.1839397992008291 -7.387823264158647 -7.90999243603919 0 0 0
573 161 4 -4.817374777165322 -5.341800918058798 -8.076366732554295 0 0 0
762 224 4 -1.6835343100032754 -6.563403446134221 -6.670993523986719 0 0 0
328 80 2 -9.3652729905322 -3.6945650235212866 -8.043295208568926 0 0 0
330 80 4 -9.521630119632722 -3.496407400312746 -7.611686584299502 0 0 0
621 177 4 -9.813596892034443 -3.4602757155247175 -7.349817473724383 0 0 0
611 174 4 -5.977534223603353 -3.9111692502831397 -6.981421950801995 0 0 0
734 215 4 -6.30006751843212 -3.731903836743749 -6.833801004202625 0 0 0
610 174 2 -5.608603441901742 -4.176806126327493 -6.773270255160624 0 0 0
619 177 2 -9.693973476146583 -3.1602017071744397 -6.96818174703748 0 0 0
704 205 4 -9.762648381370594 -2.4997638142164686 -6.703354163283254 0 0 0
626 179 4 -5.6233982160906315 -2.341980316736761 -8.196884448376085 0 0 0
625 179 2 -5.731340764485644 -2.0120785047905465 -7.837005023122666 0 0 0
415 109 2 -8.350155688101973 -0.5283650528292618 -8.149414439973942 0 0 0
290 67 4 -8.26179190561659 -1.0214828754834742 -7.454445241718167 0 0 0
416 109 4 -8.176876998567947 -0.8455204454825644 -7.803890269091338 0 0 0
291 67 4 -7.416020047131565 -1.5313121875058908 -7.611747612954527 0 0 0
536 149 4 -7.025316228295389 -1.4723654780776136 -7.480396530803944 0 0 0
289 67 2 -7.838905976374078 -1.2763975314946825 -7.533096427336347 0 0 0
627 179 4 -5.8392833128806565 -1.6821766928443314 -7.4771255978692475 0 0 0
535 149 2 -6.534517852852409 -1.4371602278369078 -7.39164099566332 0 0 0
537 149 4 -6.04371947740943 -1.401954977596202 -7.302885460522695 0 0 0
1431 447 4 -5.7323694525712545 -1.542727939506751 -7.09774664711558 0 0 0
241 51 2 -5.577624844920992 -0.8994351504909165 -7.635928660389141 0 0 0
242 51 4 -5.670470321923155 -1.3405008471812436 -7.419501377905702 0 0 0
243 51 4 -5.484779367918829 -0.4583694538005894 -7.85235594287258 0 0 0
1559 490 4 -5.295729448122674 -0.15600217858530907 -7.702161265119611 0 0 0
245 52 4 -5.550160354401381 -0.07400187144176731 -7.992426757649961 0 0 0
228 46 4 -0.5346822619546834 -0.8725191438647131 -8.227643567392835 0 0 0
597 169 4 -0.7484561644171701 -0.5898029413917165 -8.089655679677056 0 0 0
595 169 2 -0.6976859434180633 -0.3781715687249722 -7.6395062080984495 0 0 0
596 169 4 -0.6469157224189566 -0.16654019605822798 -7.1893567365198425 0 0 0
1569 493 4 -0.5215481852219686 -0.16434511727993842 -6.817951661006801 0 0 0
405 105 4 -5.51317525060891 -8.915857654060884 -5.151274456151469 0 0 0
403 105 2 -5.210112211852035 -8.810087199355127 -5.534635128952968 0 0 0
693 201 4 -4.954144524854802 -8.746410338411815 -6.3011588878238465 0 0 0
404 105 4 -4.90704917309516 -8.70431674464937 -5.917995801754467 0 0 0
691 201 2 -4.671695223539167 -8.869645939158675 -6.694904210201818 0 0 0
29 6 3 -1.341823075884293 -8.402900109199816 -5.450036559592875 0 0 0
737 216 4 -7.355431234464691 -6.867882228014885 -6.578405743488122 0 0 0
633 181 4 -1.914505536305783 -7.583689836855238 -5.781261999172324 0 0 0
631 181 2 -1.763845824927863 -7.243249354591578 -6.115031274876086 0 0 0
311 74 4 -1.3234108383681373 -6.715805559360748 -6.646312093446312 0 0 0
632 181 4 -1.613186113549943 -6.902808872327918 -6.448800550579849 0 0 0
28 6 3 -1.5889345054421442 -7.698171720921419 -5.591082084641193 0 0 0
331 81 2 -0.3700282736885992 -7.4881021942310895 -5.776730047997133 0 0 0
333 81 4 -0.2054603821703109 -7.121003072470096 -6.073640209298211 0 0 0
310 74 2 -0.8572997847109317 -6.758703175126502 -6.470527338075995 0 0 0
312 74 4 -0.39118873105372626 -6.801600790892256 -6.2947425827056795 0 0 0
332 81 4 -0.5345961652068876 -7.855201315992083 -5.479819886696055 0 0 0
27 6 3 -0.9072535895111229 -7.809646209490814 -5.2947974794835995 0 0 0
26 6 1 -1.3408319109948015 -7.963130103157221 -5.302045480884177 0 0 0
350 87 4 -0.5922794513547794 -7.907174064029698 -5.0750433801941135 0 0 0
2769 893 4 -0.03348597692257471 -6.775583341904391 -6.127543216208578 0 0 0
444 118 4 -9.137419846113003 -5.697106597342775 -5.833231437395519 0 0 0
513 141 4 -9.189420843730035 -5.967544009757535 -5.5410636857863995 0 0 0
511 141 2 -9.198325853237009 -6.335139483541904 -5.202250657025007 0 0 0
442 118 2 -8.675994812837825 -5.51479056710714 -5.895262105503516 0 0 0
736 216 2 -7.156792569220474 -6.608732084781201 -6.1997450986726115 0 0 0
361 91 2 -7.473252937555908 -5.686542147932853 -5.717990251091062 0 0 0
362 91 4 -7.8806390770703505 -5.399076392003708 -5.7554064574690695 0 0 0
738 216 4 -6.958153903976257 -6.349581941547518 -5.821084453857101 0 0 0
363 91 4 -7.065866798041466 -5.974007903861998 -5.680574044713055 0 0 0
443 118 4 -8.214569779562646 -5.332474536871506 -5.957292773611512 0 0 0
750 220 4 -8.150657494077086 -5.074000844188829 -5.658047063935589 0 0 0
392 101 4 -6.828298043000724 -6.223167862108139 -5.466406625379111 0 0 0
391 101 2 -6.656945066835846 -6.4330027612031495 -5.046159706673573 0 0 0
283 65 2 -5.409184072430971 -6.423005833195188 -6.74045812159799 0 0 0
284 65 4 -5.514668516633974 -5.989913159575359 -6.5139547704340615 0 0 0
371 94 4 -6.698069975158983 -6.05957782485003 -5.810604720395608 0 0 0
343 85 2 -5.41163087069326 -5.1409245121759914 -6.276902658392403 0 0 0
345 85 4 -5.534775971053094 -5.623800852289704 -6.317715945632982 0 0 0
370 94 2 -6.244150608483624 -5.992522591849516 -6.009252157540386 0 0 0
372 94 4 -5.790231241808264 -5.925467358849002 -6.2078995946851645 0 0 0
520 144 2 -3.564344844417042 -5.442718727901213 -5.50348551528845 0 0 0
521 144 4 -3.7962700525177833 -5.857775525708709 -5.348764629688409 0 0 0
761 224 4 -2.2331150510338396 -5.732761762137199 -6.760410535196672 0 0 0
522 144 4 -3.332419636316301 -5.027661930093717 -5.658206400888489 0 0 0
420 110 4 -2.523688952216618 -5.475084791694041 -6.652801992408554 0 0 0
418 110 2 -2.7537536433062324 -5.300880793408943 -6.244484462910778 0 0 0
419 110 4 -2.983818334395847 -5.1266767951238466 -5.836166933413002 0 0 0
760 224 2 -1.9583246805185575 -6.14808260413571 -6.715702029591696 0 0 0
298 70 2 -8.566082823820281 -3.6763492169679313 -5.901191531191137 0 0 0
300 70 4 -8.183002427913706 -3.9970541644243642 -5.881247937006643 0 0 0
748 220 2 -7.992762982362517 -4.600893761112416 -5.693246653616083 0 0 0
390 100 4 -7.858295212592455 -3.7942551385858327 -5.93041088499859 0 0 0
749 220 4 -7.8348684706479474 -4.127786678036003 -5.7284462432965775 0 0 0
388 100 2 -7.437142194308587 -3.5322922215957853 -5.867121349431216 0 0 0
389 100 4 -7.015989176024719 -3.270329304605738 -5.803831813863843 0 0 0
733 215 2 -6.49089582661978 -3.4888831230466195 -6.4407037013519695 0 0 0
612 174 4 -5.239672660200132 -4.4424430023718475 -6.565118559519254 0 0 0
344 85 4 -5.288485770333427 -4.658048172062279 -6.236089371151823 0 0 0
278 63 4 -5.049719787324529 -4.340177645778612 -6.236197112510178 0 0 0
277 63 2 -4.965084448384487 -4.110393245511727 -5.800265938130009 0 0 0
279 63 4 -4.880449109444445 -3.8806088452448417 -5.36433476374984 0 0 0
727 213 2 -4.04176361001577 -3.7269802773641514 -5.167025775911576 0 0 0
729 213 4 -4.518661839129589 -3.663232623826873 -5.303056345036721 0 0 0
309 73 4 -4.872405288228945 -3.4980949056484016 -5.226762129677356 0 0 0
728 213 4 -3.564865380901951 -3.7907279309014297 -5.0309952067864305 0 0 0
14 3 3 -3.2038805646854343 -3.6437078147033155 -4.901477109140766 0 0 0
542 151 4 -3.0106248957454853 -4.74740897685338 -5.7019817870007685 0 0 0
541 151 2 -3.123194606320358 -4.3569946815821945 -5.410597610511035 0 0 0
620 177 4 -9.574350060258723 -2.860127698824162 -6.5865460203505775 0 0 0
299 70 4 -8.949163219726856 -3.3556442695114983 -5.921135125375631 0 0 0
647 186 4 -9.128730132627716 -3.0998335487962967 -5.654019429547089 0 0 0
646 186 2 -9.417992909187115 -2.8584822808812813 -5.982769504182863 0 0 0
648 186 4 -9.707255685746514 -2.617131012966266 -6.311519578818636 0 0 0
735 215 4 -6.68172413480744 -3.24586240934949 -6.047606398501314 0 0 0
678 196 4 -6.756402906606071 -2.982656617373769 -5.780366127421563 0 0 0
307 73 2 -5.2706602548007355 -3.229391053941014 -5.088229744732986 0 0 0
308 73 4 -5.668915221372526 -2.9606872022336264 -4.949697359788615 0 0 0
677 196 4 -5.927543820475315 -2.850044740211794 -5.236852829172217 0 0 0
676 196 2 -6.341973363540693 -2.9163506787927815 -5.50860947829689 0 0 0
386 99 4 -3.7073550675254725 -1.878763730934949 -5.457520395930965 0 0 0
385 99 2 -3.449651894606082 -2.2096804015349347 -5.185338045683246 0 0 0
609 173 4 -3.5958839636085873 -1.6546196542109928 -5.7477904101354715 0 0 0
15 3 3 -2.905173961696343 -3.1519720464520953 -5.387141910782149 0 0 0
882 264 4 -3.3235493582916877 -0.22273954630495935 -0.10704193461447686 0 0 0
635 182 4 -4.970511376423951 -1.5053731432218174 -1.5874037026367274 0 0 0
1429 447 2 -5.594834374864596 -1.4512841788643576 -6.625812180224503 0 0 0
639 183 4 -5.413941859044159 -0.9702108979808532 -6.17082226640596 0 0 0
1430 447 4 -5.457299297157937 -1.359840418221964 -6.153877713333426 0 0 0
637 183 2 -5.033800459634582 -0.8923083936709391 -5.855507001508486 0 0 0
303 71 4 -3.7703753457466025 -1.48440832987859 -5.433212454251283 0 0 0
638 183 4 -4.653659060225006 -0.8144058893610249 -5.540191736611012 0 0 0
229 47 2 -4.361314946367582 -0.03707509821937353 -5.793316683967541 0 0 0
301 71 2 -4.04306342945662 -1.0661136257624166 -5.45911128647957 0 0 0
302 71 4 -4.315751513166637 -0.6478189216462432 -5.485010118707857 0 0 0
231 47 4 -4.602231809511774 -0.46517440698927787 -5.700096263008046 0 0 0
768 226 4 -4.661777045011731 -0.4721414966904304 -5.3053592286923195 0 0 0
607 173 2 -3.202364813861664 -1.5531594888366793 -6.039078092031926 0 0 0
525 145 4 -2.607766107634417 -1.243552656780519 -6.57721854477686 0 0 0
523 145 2 -2.656305828981205 -0.7496077823409465 -6.516701138468235 0 0 0
608 173 4 -2.808845664114741 -1.4516993234623659 -6.3303657739283805 0 0 0
524 145 4 -2.704845550327993 -0.2556629079013731 -6.4561837321596105 0 0 0
1583 498 4 -2.83815265821201 -0.143271831026267 -6.054752703194651 0 0 0
1567 493 2 -0.16319626287099914 -0.3479595249030516 -6.521523509407306 0 0 0
108 22 3 -0.5951131249029467 -0.8849193454789007 -5.492283923387267 0 0 0
713 208 4 -0.7342653083791778 -1.0238966542453194 -5.152736369012538 0 0 0
106 22 1 -0.1543532752984465 -0.7414106038388389 -5.471403404972224 0 0 0
107 22 3 -0.14429038538190173 -0.317432222128572 -5.29324316785785 0 0 0
1402 438 2 -9.503612604279333 -8.94748370848101 -3.9532843199727274 0 1 0
1403 438 4 -9.11415060968216 -8.924571897142107 -3.640563352231037 0 1 0
1404 438 4 -9.893074598876506 -8.970395519819915 -4.266005287714418 0 1 0
234 48 4 -8.924257556358432 -9.048442236293887 -3.3017495218525066 0 0 0
249 53 4 -5.589556089854003 -8.72631378112501 -4.819242328026188 0 0 0
247 53 2 -5.868439026570232 -8.446193472483532 -4.513044809592163 0 0 0
379 97 2 -9.635248601379157 -7.06033437269645 -4.469703877329673 0 0 0
380 97 4 -9.160616941484998 -6.915631439169409 -4.531233126105672 0 0 0
722 211 4 -6.409953277909966 -6.857136922204318 -4.319483164325889 0 0 0
721 211 2 -6.351774498133165 -7.3530532543117895 -4.345602527510051 0 0 0
723 211 4 -6.293595718356363 -7.84896958641926 -4.371721890694214 0 0 0
248 53 4 -6.147321963286459 -8.166073163842057 -4.206847291158138 0 0 0
606 172 4 -6.419172211581932 -7.9559943872946 -4.016098379913329 0 0 0
604 172 2 -6.363160938753674 -8.0800305445619 -3.534977013721077 0 0 0
30 6 3 -1.5151255231118546 -7.940163799184721 -4.881933251049168 0 0 0
349 87 2 -0.35456467306743855 -8.2880986284997 -4.8550702900966405 0 0 0
512 141 4 -9.207230862743982 -6.702734957326273 -4.863437628263615 0 0 0
544 152 2 -6.828471287928882 -6.180095193652764 -4.016803336448441 0 0 0
546 152 4 -6.9497603387742135 -5.80165838031225 -3.713365460674855 0 0 0
599 170 4 -7.113550197360289 -5.99749906770257 -3.407208728252929 0 0 0
545 152 4 -6.7071822370835505 -6.558532006993277 -4.320241212222026 0 0 0
393 101 4 -6.485592090670967 -6.64283766029816 -4.625912787968035 0 0 0
466 126 2 -0.6006133921218441 -5.7457445739437025 -3.4314751113490303 0 0 0
467 126 4 -0.9333905736593922 -6.115954872706231 -3.3845317184375245 0 0 0
2880 930 4 -1.1713910248414185 -6.456280870964619 -3.4626278283463594 0 0 0
515 142 4 -1.340099844436506 -6.123702050685641 -3.3642510307197946 0 0 0
514 142 2 -1.7022391866192141 -5.782608314348862 -3.3141495349851553 0 0 0
468 126 4 -0.2678362105842959 -5.375534275181174 -3.478418504260536 0 0 0
543 151 4 -3.2357643168952306 -3.9665803863110094 -5.119213434021301 0 0 0
613 175 2 -2.5729707939041457 -3.9432076579797344 -4.236430178762246 0 0 0
615 175 4 -2.5540109194541354 -4.400585587886383 -4.035318387971167 0 0 0
614 175 4 -2.591930668354156 -3.4858297280730866 -4.437541969553325 0 0 0
716 209 4 -2.7100336426347726 -4.760957630304919 -3.94538021003447 0 0 0
715 209 2 -2.358830661729245 -4.9125723172466795 -3.6234027994808864 0 0 0
667 193 2 -3.479617413332413 -2.441330528951655 -4.1324014389131705 0 0 0
668 193 4 -3.544834590976924 -2.282700917357431 -3.662738404317505 0 0 0
11 3 1 -3.016565121327665 -3.22211126053736 -4.951168860922887 0 0 0
669 193 4 -3.4144002356879017 -2.599960140545879 -4.602064473508836 0 0 0
387 99 4 -3.1919487216866913 -2.5405970721349203 -4.9131556954355275 0 0 0
13 3 3 -2.639643084567015 -3.183668377038903 -4.683303366854264 0 0 0
12 3 3 -3.324512582273664 -2.9062568034749328 -4.820768234962692 0 0 0
435 115 4 -2.3126662010402947 -3.193064223300961 -4.439957350348999 0 0 0
433 115 2 -2.3018478187464697 -2.761266197156844 -4.188097414624828 0 0 0
434 115 4 -2.2910294364526442 -2.329468171012728 -3.9362374789006562 0 0 0
5 1 3 -2.47634260996787 -2.0996102896644513 -3.6668715428215606 0 0 0
446 119 4 -2.2088574415491418 -1.9330637062461404 -3.9239785009633756 0 0 0
4 1 3 -3.20115700421447 -2.1802938199514648 -3.4796971272809674 0 0 0
1 1 1 -2.7996824610220465 -1.974258946841444 -3.371679433217346 0 0 0
1400 437 4 -2.071839621713541 -2.159960308031567 -3.6126703975895618 0 0 0
928 280 2 -4.272304850268323 -1.105960308448564 -1.3691597777029285 0 0 0
366 92 4 -9.758602656340699 -1.037987807451488 -3.894830699451907 0 0 0
364 92 2 -9.41528639362505 -1.0960777969754747 -3.5359999637670563 0 0 0
122 25 3 -0.04804720102643481 -8.741731273829465 -2.304398063976328 0 0 0
767 226 4 -4.669213524637965 -0.26092760225369416 -4.32794765234947 0 0 0
766 226 2 -4.665495284824848 -0.36653454947206227 -4.816653440520895 0 0 0
445 119 2 -1.9799967164766787 -1.7022992870592712 -4.303939750773106 0 0 0
2 1 3 -2.856028385835199 -1.5182351441580473 -3.393299519780018 0 0 0
447 119 4 -1.7511359914042155 -1.471534867872402 -4.683901000582836 0 0 0
712 208 2 -1.056161626417841 -1.2984646561888162 -4.886287175465455 0 0 0
644 185 4 -0.1859094284573541 -0.22744473966169715 -4.9029964320755095 0 0 0
714 208 4 -1.3780579444565042 -1.5730326581323126 -4.619837981918372 0 0 0
592 168 2 -0.2955883865847111 -0.6004471206408927 -3.2732926052932414 0 0 0
2755 889 2 -9.051044322163648 -8.566286644559575 -1.9480314025102758 1 0 0
2757 889 4 -8.601366688355514 -8.514271298379613 -2.1603623456494025 1 0 0
232 48 2 -8.690607430744835 -8.860102575498617 -2.901829791191418 0 0 0
233 48 4 -8.456957305131239 -8.671762914703347 -2.5019100605303293 0 0 0
2756 889 4 -9.500721955971782 -8.618301990739537 -1.7357004593711494 1 0 0
318 76 4 -8.237687412164547 -8.678130824668736 -2.1707012651845408 0 0 0
1375 429 2 -7.207754796223064 -9.877706783496706 -2.497159675457891 0 1 0
1376 429 4 -7.124485457007919 -9.489458157828377 -2.1933024362597293 0 1 0
316 76 2 -7.817698255947401 -8.949044390334526 -2.156040139769054 0 0 0
317 76 4 -7.397709099730255 -9.219957956000316 -2.1413790143535674 0 0 0
1782 564 4 -7.040018113358834 -9.159801831395345 -1.967193728918318 0 1 0
429 113 4 -7.072768629034504 -9.122119018757507 -2.350176012563792 0 0 0
427 113 2 -6.81458713429212 -8.762628667909752 -2.582789433113405 0 0 0
682 198 2 -3.8178021217547102 -8.440219899348744 -2.4052097328039888 0 0 0
684 198 4 -3.9000077348871867 -8.593213685365104 -1.9363439325903427 0 0 0
1699 537 2 -4.74859121057171 -8.383020860770737 -1.8179447545429883 0 1 0
698 203 4 -3.9956650881182543 -8.892825318956795 -1.6991428563163335 0 0 0
1700 537 4 -4.301090669616444 -8.605986682957182 -1.8125126295748215 0 1 0
697 203 2 -3.674530120356775 -9.267517984161667 -1.6186584533386745 0 0 0
699 203 4 -3.353395152595296 -9.64221064936654 -1.5381740503610155 0 0 0
258 56 4 -3.041672050100922 -9.67445608637413 -1.7755430922253492 0 0 0
257 56 4 -2.1247188169397573 -9.738816836919915 -2.1693126466390744 0 0 0
1580 497 4 -1.7780907723494832 -9.523611851638075 -2.0243578970428775 0 1 0
256 56 2 -2.5831954335203395 -9.706636461647022 -1.9724278694322117 0 0 0
1650 520 4 -0.36988196304656024 -9.34881276702619 -3.192756485937152 0 1 0
1648 520 2 -0.6444142824849237 -9.725816228397047 -3.012477824699378 0 1 0
124 25 3 -0.14108049689916233 -9.136200251792314 -2.9373585929852406 0 0 0
731 214 4 -8.295561818473445 -8.324455577887875 -2.3347669925767587 0 0 0
730 214 2 -8.417440444632655 -7.850299737351909 -2.436363446111436 0 0 0
399 103 4 -8.687707710598831 -7.005745077145391 -2.5063116127504688 0 0 0
732 214 4 -8.539319070791866 -7.376143896815943 -2.537959899646114 0 0 0
397 103 2 -8.339524842215718 -6.651091882878331 -2.451632531183655 0 0 0
428 113 4 -6.5564056395497365 -8.403138317061996 -2.8154028536630187 0 0 0
1407 439 4 -6.282277175592265 -8.146619375552058 -2.6585134790279756 0 1 0
1405 439 2 -5.918521661718339 -8.118375704751397 -2.316630134616594 0 1 0
605 172 4 -6.307149665925415 -8.2040667018292 -3.0538556475288257 0 0 0
1701 537 4 -5.196091751526975 -8.160055038584291 -1.8233768795111551 0 1 0
1406 439 4 -5.554766147844413 -8.090132033950736 -1.974746790205212 0 1 0
1818 576 4 -5.2178386387225935 -7.809111847904474 -2.0233919828371754 0 1 0
1816 576 2 -5.047128892117297 -7.421822697289294 -2.2895973476026645 0 1 0
683 198 4 -3.735596508622234 -8.287226113332384 -2.874075533017635 0 0 0
1817 576 4 -4.876419145512001 -7.034533546674113 -2.5558027123681537 0 1 0
453 121 4 -0.7389202357312452 -7.424739797239835 -2.9556876430676873 0 0 0
2879 930 4 -1.0057677506696412 -7.1823578857392185 -2.795259039990905 0 0 0
641 184 4 -0.8016275624560858 -7.411820467220239 -2.558888936876686 0 0 0
451 121 2 -0.37100134185050765 -7.746970659061912 -3.059624928077416 0 0 0
640 184 2 -0.9168986810965457 -7.355214214872986 -2.0756619701185604 0 0 0
2878 930 2 -1.0885793877555299 -6.819319378351919 -3.128943434168632 0 0 0
452 121 4 -0.0030824479697700857 -8.069201520883988 -3.163562213087145 0 0 0