LAMMPS data file via write_data, version 27 Jun 2024, timestep = 6000000, units = lj

4800 atoms
4 atom types
3300 bonds
1 bond types

-9.99857 9.99857 xlo xhi
-9.99857 9.99857 ylo yhi
-9.99857 9.99857 zlo zhi

Masses

1 1
2 1
3 0.5
4 0.5

Bond Coeffs # zero

1 0

Atoms # bond

1638 446 4 -8.955635128359283 -8.715522355130634 -9.21566428654674 0 0 1
1636 446 2 -8.584083681500555 -9.003356272214736 -9.386254903267913 0 0 1
1716 472 4 -9.16743439695489 -8.414004537110392 -9.06219128829463 0 0 1
2139 613 4 -7.983701115782229 -8.972413917903177 -9.713137526600079 0 1 0
2137 613 2 -7.557474722965094 -9.220667189576952 -9.794999454069018 0 1 0
1637 446 4 -8.212532234641827 -9.291190189298838 -9.556845519989086 0 0 1
3306 1002 4 -6.828876649809419 -9.104290468587928 -8.348133631711004 0 0 1
2138 613 4 -7.131248330147959 -9.468920461250727 -9.876861381537957 0 1 0
3304 1002 2 -6.732530362104319 -9.154699422048113 -8.836166755849598 0 0 1
3305 1002 4 -6.636184074399218 -9.205108375508297 -9.324199879988193 0 0 1
92 19 3 -6.573651606272776 -9.271844159326204 -9.717910490191846 0 0 1
91 19 1 -6.555393531351987 -9.650298254613649 -9.978753624010908 0 0 1
2640 780 4 -3.6032508535052026 -9.645190356608268 -9.450648400320604 0 1 1
1941 547 4 -3.922590400871718 -9.886210037590411 -9.405249927560442 0 1 0
1939 547 2 -4.354190289271095 -9.818488002703136 -9.648427357280525 0 1 0
1940 547 4 -4.7857901776704725 -9.75076596781586 -9.891604787000608 0 1 0
3206 969 4 -2.65071541088783 -8.570550454995777 -9.24061801042066 0 0 0
3205 969 2 -2.4141608446488783 -8.974933769191537 -9.065929509392754 0 0 0
3207 969 4 -2.1776062784099266 -9.379317083387297 -8.89124100836485 0 0 0
771 157 4 -2.4389996574140467 -9.636350964595973 -8.667045766103621 0 0 0
2638 780 2 -3.3100933615940593 -9.611848768115086 -9.854315371241588 0 1 1
769 157 2 -2.79009261933573 -9.919638746141208 -8.451449465308505 0 0 0
1287 329 4 -1.7305936941878555 -9.945138615263758 -1.8376758515933767 0 0 0
850 184 2 -1.5999906284177032 -9.083603649529739 -9.753372898871557 0 0 0
2471 724 4 -1.577050612398454 -9.798724024090042 -9.247973768867046 0 1 1
851 184 4 -1.4825838302348466 -9.486173206690141 -9.481061688327893 0 0 0
3888 1196 4 -0.19885733065862138 -9.39528812751018 -9.859962696340796 0 1 0
1715 472 4 -8.742257392901289 -7.600551512911562 -8.665305041816298 0 0 1
1714 472 2 -8.95484589492809 -8.007278025010978 -8.863748165055464 0 0 1
1670 457 4 -8.646097601308306 -7.466564727849649 -8.286193965223696 0 0 1
1740 480 4 -6.7934664299702145 -6.879802197841235 -8.631295124836605 0 0 1
1456 386 2 -4.989795322748717 -6.967641147045229 -9.188048105397572 0 0 1
1328 343 4 -5.261431627893067 -7.616803395243492 -8.693799496771282 0 0 1
1457 386 4 -5.18719465450859 -7.255195623761435 -8.829794107874545 0 0 1
3298 1000 2 -3.443400474846897 -8.274855168270646 -9.263700155596574 0 0 0
1458 386 4 -4.792395990988843 -6.680086670329023 -9.546302102920599 0 0 1
3300 1000 4 -3.943034327770853 -8.257606911451884 -9.255423039604638 0 0 0
3299 1000 4 -2.943766621922941 -8.292103425089408 -9.27197727158851 0 0 0
1756 486 2 -0.8744975050281586 -7.018184000020087 -8.940961922746224 0 1 0
1758 486 4 -1.2242522780172027 -7.333056711469306 -8.772063212402433 0 1 0
1757 486 4 -0.5247427320391145 -6.703311288570868 -9.109860633090015 0 1 0
926 209 4 -8.545219418343438 -5.807933665379564 -8.982087973349152 0 0 0
1739 480 4 -7.576999833098554 -6.325121633759002 -8.911303835435877 0 0 1
925 209 2 -8.049330285216326 -5.871083225433279 -8.971787453389888 0 0 0
927 209 4 -7.553441152089216 -5.934232785486993 -8.961486933430624 0 0 0
1738 480 2 -7.1852331315343845 -6.602461915800118 -8.771299480136241 0 0 1
764 155 4 -7.1534662527387365 -4.980784663555009 -9.7166205012685 0 0 0
1219 307 2 -5.155547208550277 -5.9356983686379445 -9.88680683820693 0 0 0
1221 307 4 -4.967085367578888 -6.331080039714757 -9.645652388373692 0 0 0
1183 295 2 -3.639849138029341 -5.606569710548196 -9.493179659424483 0 0 0
1184 295 4 -3.8243050321862717 -5.447857674530051 -9.929970814020233 0 0 0
1127 276 4 -3.9377900570049813 -5.03305013317956 -9.887542785580552 0 0 0
1185 295 4 -3.4553932438724106 -5.76528174656634 -9.056388504828732 0 0 0
1151 284 4 -3.151694884406365 -5.768315497892191 -8.810145567610336 0 0 0
1150 284 2 -3.0191020598552902 -5.390425962594887 -8.510781839028892 0 0 0
3212 971 4 -0.15178865335212302 -6.789661195925452 -8.9900102524609 0 0 0
3666 1122 4 -0.4397014288535731 -5.079329488305375 -9.079601577001904 0 0 1
3664 1122 2 -0.23784060043310273 -5.106562747693226 -9.5362311375129 0 0 1
763 155 2 -6.890566229818199 -4.900143856473305 -9.299031423128863 0 0 0
776 159 4 -7.107265110653871 -3.9683252105238154 -9.498119609022893 0 0 0
866 189 4 -7.092720667215116 -4.239584384787348 -9.806467469000944 0 0 0
775 159 2 -6.873963394372983 -3.741017008402953 -9.118776373378344 0 0 0
765 155 4 -6.627666206897661 -4.819503049391599 -8.881442344989226 0 0 0
1406 369 4 -6.860049572150327 -4.789025111866505 -8.525202579129411 0 0 1
777 159 4 -6.640661678092095 -3.5137088062820903 -8.739433137733794 0 0 0
1010 237 4 -3.8369632641593867 -3.344137772096987 -8.877001440731334 0 0 0
1209 303 4 -2.852495906710479 -4.777265510553459 -8.561454130713422 0 0 0
3410 1037 4 -2.455498013219358 -3.652850428228082 -9.274831882426726 0 0 1
1207 303 2 -2.7577597268704297 -4.357688324430333 -8.816365960792925 0 0 0
1208 303 4 -2.66302354703038 -3.9381111383072067 -9.07127779087243 0 0 0
3409 1037 2 -2.078431624013862 -3.325302204410377 -9.25174294123642 0 0 1
2838 846 4 -0.09091217471744942 -5.019643570634055 -8.927664368656586 0 0 0
2836 846 2 -0.01634954185665958 -4.754942138523182 -8.510083758930424 0 0 0
766 156 2 -5.629111577775757 -2.1716808078075935 -9.084513932657309 0 0 0
768 156 4 -5.26200496386287 -1.8798377802597528 -9.257893231574684 0 0 0
767 156 4 -5.996218191688644 -2.463523835355434 -8.911134633739934 0 0 0
2054 585 4 -6.366612871792243 -2.6263513296678966 -8.802236874311847 0 0 0
2053 585 2 -6.2939211010633 -2.847896509767117 -8.359931957265388 0 0 0
1009 237 2 -3.5288135507625595 -3.1832070858786805 -8.517633845688724 0 0 0
1119 273 4 -4.264836714882653 -2.123092813727206 -9.235887116087655 0 0 0
1117 273 2 -4.0807653529364165 -1.751653345219323 -9.515441144758668 0 0 0
792 164 4 -4.289079652627045 -2.486149949082136 -9.054106344602502 0 0 0
790 164 2 -4.500843272773392 -2.5834017501615643 -8.611728388133953 0 0 0
3411 1037 4 -1.7013652348083659 -2.997753980592672 -9.228654000046115 0 0 1
756 152 4 -0.5455116245295191 -2.120553377271455 -8.44097768895559 0 0 0
4059 1253 4 -0.3508232456174979 -2.3149939444059813 -8.73900622219713 0 0 0
754 152 2 -1.0442587083637591 -2.1071677162180187 -8.473721702837963 0 0 0
755 152 4 -1.5430057921979994 -2.0937820551645823 -8.506465716720337 0 0 0
2992 898 2 -9.498980674406752 -1.7353293716120446 -8.675616052181354 1 0 0
2993 898 4 -9.347987820869175 -1.5808169112551906 -9.126534068870892 1 0 0
4529 1410 4 -5.189221833029551 -1.5918759751952987 -9.53687507541941 0 0 1
4528 1410 2 -5.0963197725133345 -1.1834260565294787 -9.809891322360455 0 0 1
1264 322 2 -3.9546106764599056 -0.663210064558727 -9.774452161979916 0 0 1
1265 322 4 -3.8196313778410245 -0.24122229801443817 -9.542704640241972 0 0 1
1034 245 4 -2.0216689123420717 -0.707664641487209 -8.488077854400432 0 0 0
1033 245 2 -2.006050568162455 -0.7118480587988152 -8.987816352361964 0 0 0
1035 245 4 -1.9904322239828383 -0.7160314761104214 -9.487554850323496 0 0 0
4215 1305 4 -2.0846028168079593 -1.0747994336606697 -9.704091044005738 0 0 0
315 63 3 -0.7001854721077334 -0.27851130623070763 -9.857843761011852 0 0 1
2111 604 4 -0.7403897232253446 -0.28624431743694734 -8.77936803403787 0 0 0
2110 604 2 -0.458919201840369 -0.5296844616055707 -8.445435044055413 0 0 0
311 63 1 -1.0239878471103807 -0.21093785934644385 -9.544816843289901 0 0 1
312 63 3 -1.2806997666388589 -0.5908561492991596 -9.507923980415335 0 0 1
1952 551 4 -0.4499243782975643 -0.1881569135347322 -9.575621833924943 0 0 0
314 63 3 -0.8298558405392101 -0.12052328268467784 -9.133188408471081 0 0 1
1439 380 4 -9.82770473852898 -9.335745589305398 -8.050795891865826 0 0 1
182 37 3 -8.677870214099405 -9.881854735230377 -7.374458953973369 0 1 0
2922 874 4 -9.584103100085311 -9.634696419414114 -8.049423481540927 1 0 0
2920 874 2 -9.292505933934999 -9.67086296694793 -7.644870551095396 1 0 0
2921 874 4 -9.000908767784686 -9.707029514481746 -7.240317620649864 1 0 0
3535 1079 2 -7.133079503992826 -8.365668159303793 -8.198948287977634 1 0 1
184 37 3 -8.224101954768166 -9.716873706772175 -6.798459277694959 0 1 0
3536 1079 4 -6.845353114172378 -8.768381159489051 -8.127985170213732 1 0 1
1886 529 4 -7.324622525335339 -9.293599769865118 -7.288558628868334 0 1 0
917 206 4 -7.1938253955443425 -9.577976065317992 -7.523505030916226 0 0 0
916 206 2 -7.517640399117706 -9.783994435353161 -7.843973866638089 0 0 0
1885 529 2 -7.410929169923444 -9.294779312131928 -6.796065205785214 0 1 0
918 206 4 -7.84145540269107 -9.99001280538833 -8.164442702359953 0 0 0
1096 266 2 -3.626398318751458 -8.523124178314179 -7.815525783803747 0 0 0
1097 266 4 -3.841115091886151 -8.766748231583813 -7.435336320505631 0 0 0
1938 546 4 -4.022456082572614 -8.872940331576256 -7.07152790842367 0 1 0
1936 546 2 -4.430388596256095 -8.77055366802611 -6.80114293212641 0 1 0
255 51 3 -0.9354163630439807 -8.630947964516778 -7.975628617174222 0 1 0
252 51 3 -0.9236673424022 -9.376222736115496 -7.9378466726324115 0 1 0
4089 1263 4 -0.6981405454171066 -9.711872563528768 -7.892765038755144 0 1 0
251 51 1 -0.846410671428557 -8.986727082385672 -7.705630087272973 0 1 0
253 51 3 -1.1235436521865472 -8.976396426998207 -7.333621231819485 0 1 0
254 51 3 -0.40203905152586294 -8.977128723513015 -7.572431983185998 0 1 0
1669 457 2 -8.797958225313192 -6.990675424919745 -8.264567078398015 0 0 1
1108 270 2 -9.561721614266487 -7.7234501534390985 -7.712422944989423 0 0 0
899 200 4 -9.181138656197406 -7.547177431935454 -7.104435798749921 0 0 0
1110 270 4 -9.273979935860206 -7.858384173905468 -7.326420954542519 0 0 0
3537 1079 4 -7.420805893813273 -7.9629551591185335 -8.269911405741537 1 0 1
3194 965 4 -7.340945535998469 -7.618186984257349 -8.097748645929384 1 0 0
3193 965 2 -7.504181983418654 -7.271392614272933 -7.776676181864154 1 0 0
3195 965 4 -7.667418430838839 -6.924598244288516 -7.455603717798923 1 0 0
4224 1308 4 -7.853506134801726 -6.845950267433838 -7.109080282744005 1 0 0
4222 1308 2 -7.526651879355533 -6.824839220464559 -6.731296456471959 1 0 0
1329 343 4 -5.147999427742004 -8.196816282533575 -7.887128444515649 0 0 1
966 222 4 -5.498653466000446 -8.210449647531558 -7.656239474561796 0 0 0
964 222 2 -5.753269506886339 -8.251895294545022 -7.227925419145478 0 0 0
1327 343 2 -5.204715527817536 -7.906809838888534 -8.290463970643465 0 0 1
965 222 4 -6.007885547772231 -8.293340941558487 -6.79961136372916 0 0 0
1098 266 4 -3.4116815456167653 -8.279500125044544 -8.195715247101862 0 0 0
1671 457 4 -8.949818849318078 -6.514786121989841 -8.242940191572334 0 0 1
803 168 4 -9.022919693883537 -6.396047999650388 -7.861749736365468 0 0 0
802 168 2 -9.253360413296338 -5.993517660419541 -7.675024267199653 0 0 0
3312 1004 4 -9.2529511981797 -5.5396371794190795 -7.161106066121286 1 0 1
804 168 4 -9.48380113270914 -5.5909873211886945 -7.4882987980338385 0 0 0
3310 1004 2 -9.061125719134033 -5.449331319841884 -6.708283984819921 1 0 1
905 202 4 -5.029452066402712 -4.935034445730875 -7.480746889227077 0 0 0
1152 284 4 -2.8865092353042154 -5.012536427297583 -8.211418110447449 0 0 0
938 213 4 -9.495991452404716 -4.259683118020859 -7.490213682725559 0 0 0
937 213 2 -9.464926761857665 -3.7637023151919533 -7.54533199389941 0 0 0
939 213 4 -9.433862071310614 -3.267721512363048 -7.60045030507326 0 0 0
2183 628 4 -6.820735162697724 -4.540980839603536 -7.209091890365368 0 0 0
2182 628 2 -6.927095960300023 -4.814881880825586 -6.804535836954771 0 0 0
1405 369 2 -6.821036489526329 -4.601237112496706 -8.06345194656176 0 0 1
1407 369 4 -6.782023406902331 -4.413449113126908 -7.601701313994107 0 0 1
904 202 2 -4.548387443059472 -4.802017673683503 -7.510468371720267 0 0 0
906 202 4 -4.067322819716232 -4.669000901636131 -7.540189854213458 0 0 0
1083 261 4 -3.75350529507404 -4.454047873903252 -7.38561969195597 0 0 0
1081 261 2 -3.3696340756012524 -4.133725785198399 -7.391673314689626 0 0 0
1082 261 4 -2.985762856128465 -3.813403696493545 -7.397726937423283 0 0 0
70 14 3 -2.6857781327854826 -3.533479698229105 -7.306578648403729 0 0 0
2045 582 4 -0.2224226511086093 -3.343161760267609 -7.408289716153419 0 0 0
1373 358 4 -9.805004216594137 -3.2319681531380837 -7.804909360406936 0 0 1
2994 898 4 -9.64997352794433 -1.8898418319688985 -8.224698035491816 1 0 0
2055 585 4 -6.221229330334357 -3.0694416898663373 -7.91762704021893 0 0 0
791 164 4 -4.712606892919739 -2.6806535512409924 -8.169350431665404 0 0 0
1011 237 4 -3.2206638373657324 -3.022276399660374 -8.158266250646115 0 0 0
67 14 3 -3.082772432613541 -3.132391429819038 -7.79496755782702 0 0 0
1968 556 4 -2.8694543330263294 -2.8370190163857174 -6.761509121303677 0 0 0
69 14 3 -3.1017485614081948 -2.954233757058001 -7.065036225322266 0 0 0
4360 1354 2 -1.991522179433843 -2.331629149619145 -7.971188132471392 0 0 1
66 14 1 -2.8341950105765403 -3.1151198349038762 -7.408301090102625 0 0 0
68 14 3 -2.473451261401585 -2.8308896471001894 -7.474461106518979 0 0 0
4361 1354 4 -2.262315751690611 -2.700920487113835 -7.770452611759311 0 0 1
4362 1354 4 -1.7207286071770744 -1.9623378121244552 -8.171923653183473 0 0 1
1059 253 4 -0.09128846531275653 -3.2043830164087894 -7.0672735303876575 0 0 0
1057 253 2 -0.2738521446558879 -2.8018760428785816 -6.833481658749258 0 0 0
1058 253 4 -0.45641582399901937 -2.399369069348374 -6.599689787110858 0 0 0
825 175 4 -9.801298050551637 -1.559032308928968 -8.065246273209691 0 0 0
4076 1259 4 -9.031661588312174 -0.7539306108769712 -7.516461721985557 1 0 0
3111 937 4 -9.221702766809665 -0.6321789568453504 -7.843678265926164 1 0 0
3109 937 2 -9.37272408096771 -0.17737993238566643 -7.98633312921609 1 0 0
4075 1259 2 -8.75402049392852 -0.611563119549043 -7.125761171535191 1 0 0
4077 1259 4 -8.476379399544866 -0.4691956282211147 -6.735060621084825 1 0 0
1913 538 4 -6.584310389707854 -1.5622771979361934 -8.246140390202848 0 0 0
1914 538 4 -5.981265957509382 -0.817664238009089 -7.959977931623165 0 0 0
1912 538 2 -6.282788173608618 -1.189970717972641 -8.103059160913006 0 0 0
1784 495 4 -5.633221953292525 -1.078635616801222 -7.938076201264419 0 0 0
1783 495 2 -5.163713365328463 -1.1412858485991881 -7.777961760054312 0 0 0
1785 495 4 -4.694204777364401 -1.2039360803971542 -7.6178473188442055 0 0 0
2824 842 2 -3.942682216654458 -1.083932804002501 -8.069578689169287 0 0 0
2825 842 4 -4.3968981854656555 -1.068902680226169 -7.861103393136422 0 0 0
2826 842 4 -3.4884662478432604 -1.0989629277788329 -8.278053985202153 0 0 0
3273 991 4 -2.029740944961281 -1.048591983135928 -8.264237599970077 0 0 0
3271 991 2 -1.6542654387096138 -1.2126075581372302 -7.977676898961734 0 0 0
3272 991 4 -1.2787899324579464 -1.3766231331385324 -7.6911161979533915 0 0 0
1676 459 4 -1.2847646040246943 -1.2273688226665487 -7.339669659848245 0 0 1
1675 459 2 -1.087649996017514 -1.280696006543979 -6.883268473642694 0 0 1
2112 604 4 -0.17744868045539341 -0.7731246057741941 -8.111502054072957 0 0 0
1887 529 4 -7.497235814511548 -9.295958854398737 -6.303571782702094 0 1 0
1163 288 4 -7.999798272781516 -8.465424509286725 -5.328656423076404 0 0 0
929 210 4 -6.354827644357759 -9.264089584103983 -5.631276145374744 0 0 0
1073 258 4 -6.16264695066543 -9.618932009904821 -5.66116219284613 0 0 0
928 210 2 -6.316539004056007 -8.924261852404696 -5.266514452221497 0 0 0
1000 234 2 -5.241289577021825 -8.371691504800822 -5.827302883578149 0 0 0
1002 234 4 -5.104169046935234 -8.525775815334557 -6.2827762477561775 0 0 0
1937 546 4 -4.838321109939576 -8.668167004475965 -6.53075795582915 0 1 0
2216 639 4 -3.093319192569914 -9.71432737957269 -5.997045864007523 0 1 0
3998 1233 4 -1.7345464561878743 -8.304275382601181 -5.344837322081789 0 1 0
4117 1273 2 -0.18928958573794027 -8.923505871058302 -6.1091889906586045 0 1 0
4118 1273 4 -0.6461269701956021 -8.729854540488585 -6.047554857825642 0 1 0
3999 1233 4 -0.8673703122838601 -8.533239539905297 -5.787082672665193 0 1 0
3997 1233 2 -1.3009583842358672 -8.41875746125324 -5.565959997373491 0 1 0
898 200 2 -9.007485775109037 -7.65728734595197 -6.648672171718482 0 0 0
900 200 4 -8.833832894020668 -7.767397259968487 -6.192908544687042 0 0 0
1031 244 4 -6.99354277137115 -6.540427523311199 -6.098054582889601 0 0 0
1164 288 4 -7.539913483709251 -7.602762228887317 -5.118133809665171 0 0 0
1162 288 2 -7.769855878245384 -8.03409336908702 -5.223395116370787 0 0 0
1030 244 2 -6.8811046460093435 -6.951577403216922 -5.836686175811125 0 0 0
1883 528 4 -7.184666370429804 -7.817778235535472 -5.055185422711442 0 1 0
1032 244 4 -6.768666520647537 -7.362727283122646 -5.575317768732649 0 0 0
1244 315 4 -5.09643391127969 -8.294193234428565 -5.122547247960384 0 0 0
1001 234 4 -5.378410107108416 -8.217607194267087 -5.37182951940012 0 0 0
3066 922 4 -2.1116276532221425 -8.182234808967507 -5.391040713329996 0 0 0
3065 922 4 -2.360337906786114 -7.213858057448044 -5.371300478078524 0 0 0
3576 1092 4 -2.1722714841187383 -6.87903113733584 -5.240821093621683 0 0 1
3064 922 2 -2.2359827800041283 -7.698046433207775 -5.38117059570426 0 0 0
3311 1004 4 -8.869300240088366 -5.359025460264687 -6.255461903518557 1 0 1
1047 249 4 -9.112803121162045 -5.483028977528901 -5.948574613152216 0 0 0
1045 249 2 -8.7888643056698 -5.2811593717769565 -5.625600456150828 0 0 0
1046 249 4 -8.464925490177556 -5.079289766025012 -5.3026262991494395 0 0 0
4223 1308 4 -7.1997976239093395 -6.803728173495281 -6.353512630199914 1 0 0
1169 290 4 -8.280687493731628 -5.412556816650431 -5.168613711724504 0 0 0
1168 290 2 -7.818782458580403 -5.5464111797941555 -5.031768003100134 0 0 0
2270 657 4 -6.790079891201356 -5.04210259631839 -6.104306015161907 0 0 0
1205 302 4 -3.482334057162687 -5.641081025675678 -5.38956824957117 0 0 0
28 6 3 -3.7293732746679 -5.103469206661721 -5.045223995084203 0 0 0
3574 1092 2 -1.8601649209455497 -6.618796114528022 -5.532140894061727 0 0 1
1204 302 2 -3.181689723272482 -5.882640925667022 -5.0713516578985685 0 0 0
3255 985 4 -2.888652545706574 -5.0149738604793015 -5.186566191818034 0 0 0
3575 1092 4 -1.5480583577723612 -6.358561091720205 -5.823460694501771 0 0 1
801 167 4 -1.2572267019326793 -6.19680804146359 -5.596589341962693 0 0 0
799 167 2 -0.9622690427825702 -5.972084449973097 -5.931998475314997 0 0 0
800 167 4 -0.6673113836324611 -5.747360858482604 -6.267407608667302 0 0 0
3294 998 4 -0.6102389787418647 -5.386647386965297 -6.076298140562627 0 0 0
3292 998 2 -0.16917835114888063 -5.179639300019975 -5.963989749399257 0 0 0
884 195 4 -9.654292624841894 -4.327064210962749 -5.183849436606392 0 0 0
880 194 2 -9.618064040861437 -3.775382352570968 -5.617399097322236 0 0 0
882 194 4 -9.336536139529278 -3.492779769953438 -5.918858582277713 0 0 0
881 194 4 -9.899591942193597 -4.0579849351884985 -5.315939612366759 0 0 0
2184 628 4 -7.033456757902322 -5.088782922047637 -6.399979783544174 0 0 0
3993 1231 4 -7.6543642735317 -3.502880189942994 -5.940976036191531 1 0 0
2269 657 2 -6.743379524154132 -4.7012002070877505 -5.741532481487361 0 0 0
3991 1231 2 -7.659757004712244 -3.8868858764864402 -6.2611487257715135 1 0 0
3992 1231 4 -7.665149735892788 -4.2708915630298865 -6.581321415351496 1 0 0
860 187 4 -6.630337286009568 -4.037533893073204 -5.615356474059875 0 0 0
2271 657 4 -6.6966791571069075 -4.360297817857111 -5.378758947812816 0 0 0
859 187 2 -6.28472289474065 -3.7104789540728045 -5.768933032893909 0 0 0
861 187 4 -5.939108503471732 -3.3834240150724053 -5.922509591727942 0 0 0
3254 985 4 -2.1623954002487715 -4.462052045122979 -5.595012056988372 0 0 0
1241 314 4 -1.8857858932467093 -4.719070876346151 -5.475194316416854 0 0 0
3253 985 2 -2.525523972977673 -4.73851295280114 -5.390789124403203 0 0 0
1240 314 2 -1.4325193929111135 -4.66128273701562 -5.272191827204673 0 0 0
1242 314 4 -0.9792528925755176 -4.603494597685089 -5.069189337992492 0 0 0
2156 619 4 -9.134363893632093 -3.1537572008290207 -5.940639201705694 0 0 0
2155 619 2 -8.997139094652821 -2.6729567313281133 -5.941152108130616 0 0 0
2157 619 4 -8.85991429567355 -2.192156261827206 -5.9416650145555385 0 0 0
3020 907 4 -9.00586175510338 -1.8716707843661817 -5.753244610986556 1 0 0
3019 907 2 -9.05475934697708 -1.7177606448298328 -5.2800420175268945 1 0 0
831 177 4 -7.949417808644572 -3.23937771197368 -6.0323851628238305 0 0 0
830 177 4 -7.955973418483495 -2.5103758860268544 -5.347904803903065 0 0 0
829 177 2 -7.952695613564034 -2.8748767990002673 -5.690144983363448 0 0 0
1027 243 2 -5.819031260466785 -2.7853412993781177 -5.330268866548925 0 0 0
1029 243 4 -5.786643796289905 -2.3423478449889665 -5.10068696061499 0 0 0
1028 243 4 -5.851418724643665 -3.228334753767269 -5.559850772482861 0 0 0
1891 531 2 -6.401675353040137 -1.8329022349700896 -5.060596938736055 0 0 0
980 227 4 -4.436088950045104 -2.204584301816666 -5.295653820415802 0 0 0
979 227 2 -4.2559207873729745 -2.6706833948199256 -5.278593085946205 0 0 0
981 227 4 -4.075752624700845 -3.136782487823185 -5.261532351476608 0 0 0
932 211 4 -3.6657617947568406 -3.1786123283284065 -5.243255437719335 0 0 0
1967 556 4 -3.150260027833869 -2.401108980021256 -5.906447368003297 0 0 0
1966 556 2 -3.009857180430099 -2.6190639982034867 -6.333978244653487 0 0 0
2047 583 2 -3.160275520980466 -2.0707860630423216 -5.3286908430777515 0 0 0
2048 583 4 -2.9629651499042007 -2.0561609094857363 -5.7878800441150595 0 0 0
3598 1100 2 -0.9459924655789075 -1.9298557795845666 -5.9551411300330495 0 0 1
3600 1100 4 -1.0100862456124695 -2.4194730695724913 -5.87661153875906 0 0 1
2834 845 4 -8.394421458408639 -0.2411016278966788 -6.418487334633102 1 0 0
3822 1174 4 -7.769725707998168 -0.3759527084121219 -5.248216349657666 1 0 0
2890 864 2 -7.338350997362597 -0.9179002405026111 -5.054413714252498 1 0 0
2891 864 4 -7.118752101018292 -1.3434037930951699 -5.19836874700892 1 0 0
1893 531 4 -6.827838761139156 -1.6250668110534519 -5.219307953358986 0 0 0
1677 459 4 -0.890535388010334 -1.3340231904214093 -6.426867287437143 0 0 1
3599 1100 4 -0.8818986855453456 -1.440238489596642 -6.033670721307039 0 0 1
1455 385 4 -1.5143842063307076 -1.1639937384531267 -0.06514071638230443 0 0 0
3952 1218 2 -8.281957731141528 -9.87457276246278 -4.366788942078267 1 1 0
1061 254 4 -7.322787971398905 -8.655182976438994 -4.856879828372436 0 0 0
3954 1218 4 -8.010954219951797 -9.490903041633544 -4.195456977045643 1 1 0
1062 254 4 -7.9113901504486295 -9.411667318314002 -4.571785255791283 0 0 0
1060 254 2 -7.617089060923767 -9.033425147376498 -4.714332542081859 0 0 0
930 210 4 -6.278250363754254 -8.584434120705408 -4.901752759068249 0 0 0
82 17 3 -5.933814608647056 -8.605352909853375 -3.7098807292587277 0 0 0
4245 1315 4 -5.2750959496443155 -9.29911053565562 -4.134639120777879 0 1 0
1878 526 4 -3.541408787115036 -8.501295236561122 -5.020483341295911 0 1 0
4243 1315 2 -4.8703964852153945 -9.008587279892286 -4.1772370239134045 0 1 0
1877 526 4 -4.106024134751686 -8.553843733148993 -4.19680369196702 0 1 0
4244 1315 4 -4.4656970207864735 -8.718064024128951 -4.21983492704893 0 1 0
1876 526 2 -3.823716460933361 -8.527569484855057 -4.608643516631465 0 1 0
826 176 2 -6.954402908564166 -8.308594314018142 -3.4681519669324303 0 0 0
1882 528 2 -6.735558942750049 -7.998259123601295 -4.929769445079733 0 1 0
827 176 4 -6.534771395898131 -8.271097189876873 -3.7374164452032765 0 0 0
85 17 3 -5.637727587816569 -8.142609476984495 -4.21505494814998 0 0 0
1884 528 4 -6.2864515150702935 -8.178740011667118 -4.804353467448025 0 1 0
1243 315 2 -5.3407868520898765 -8.041335730992195 -4.767083152342742 0 0 0
1245 315 4 -5.585139792900063 -7.788478227555824 -4.411619056725101 0 0 0
83 17 3 -6.305309468660951 -7.982129790834336 -3.906055429216117 0 0 0
81 17 1 -5.885071936036486 -8.164912824788825 -3.833317690235115 0 0 0
84 17 3 -5.669878260442606 -7.936312547358122 -3.4916547054928735 0 0 0
1141 281 2 -5.2512366163429585 -7.2192284689007735 -3.4858932020749087 0 0 0
1142 281 4 -5.203121973111983 -6.724515213898609 -3.4316366224574204 0 0 0
1159 287 2 -3.70413239282487 -7.5225088898274155 -3.8829808602698312 0 0 0
1160 287 4 -3.888618099713547 -7.798102672274053 -3.5087976283754796 0 0 0
1076 259 4 -4.019122694185722 -8.074757562342084 -3.299995432369972 0 0 0
1161 287 4 -3.519646685936193 -7.246915107380778 -4.2571640921641825 0 0 0
2967 889 4 -2.413719810649974 -7.173547578134649 -4.319857661626148 0 0 0
1788 496 4 -2.4850190009331925 -6.92269643181161 -3.481576607402676 0 1 0
2965 889 2 -2.674916751238123 -6.749887330753788 -4.36769230405647 0 0 0
56 12 1 -9.76991091994414 -6.08741445867086 -3.48099298777579 0 0 0
57 12 3 -9.446964116661661 -6.031242894756085 -3.8037159613254934 0 0 0
2272 658 2 -9.925117683673019 -5.009522168970692 -3.731572588874571 0 1 0
1170 290 4 -7.356877423429177 -5.68026554293788 -4.894922294475765 0 0 0
920 207 4 -4.561107776284229 -6.333734266674251 -4.107500402170663 0 0 0
919 207 2 -4.432682923338061 -6.376849344111723 -3.6262020048714416 0 0 0
2966 889 4 -2.9361136918262716 -6.3262270833729275 -4.415526946486791 0 0 0
1206 302 4 -2.881045389382277 -6.124200825658364 -4.753135066225967 0 0 0
883 195 2 -9.715914998058627 -4.435123366763655 -4.69957069252732 0 0 0
2274 658 4 -9.636483498589257 -4.618098132722371 -3.8476653580203606 0 1 0
885 195 4 -9.777537371275361 -4.543182522564561 -4.2152919484482485 0 0 0
3233 978 4 -9.37973643536458 -3.3736856503034196 -3.451996792662041 1 0 0
3152 951 4 -5.399447803883947 -3.689940940767959 -3.3530785066695388 1 0 0
3151 951 2 -4.992808587751864 -3.971527702558317 -3.4262457362733763 1 0 0
26 6 1 -3.4688256789079785 -4.829958128779441 -4.775767800834134 0 0 0
27 6 3 -3.609675126343356 -4.872848825220798 -4.339967592807278 0 0 0
3153 951 4 -4.586169371619781 -4.253114464348675 -3.4994129658772137 1 0 0
931 211 2 -3.482153360511627 -3.4649690678675764 -4.87680249313498 0 0 0
29 6 3 -3.5167981213196224 -4.387203949777686 -4.906026703585065 0 0 0
30 6 3 -3.031617646298127 -4.954032237452205 -4.80500393906753 0 0 0
933 211 4 -3.2985449262664135 -3.7513258074067464 -4.510349548550624 0 0 0
891 197 4 -2.850046639543753 -3.859090822520711 -4.023718887713342 0 0 0
889 197 2 -2.3985474229559602 -4.069720273523807 -4.065952663184724 0 0 0
890 197 4 -1.9470482063681676 -4.280349724526904 -4.108186438656107 0 0 0
605 121 3 -9.718802462525266 -2.091452076641399 -4.027575939079596 1 0 0
3232 978 2 -9.711437580417327 -3.0699215593012186 -3.6704040438881718 1 0 0
603 121 3 -9.072330220582874 -1.8525745746827391 -3.7244073730053744 1 0 0
1949 550 4 -1.344739004763132 -1.4722002538738317 -0.3141039455981669 0 0 0
601 121 1 -9.392476215596046 -1.774659970513233 -4.051111912817661 1 0 0
602 121 3 -9.19127098212583 -1.7948086306972004 -4.464283167283424 1 0 0
1892 531 4 -5.975511944941117 -2.0407376588867274 -4.901885924113125 0 0 0
876 192 4 -3.739347200538197 -1.7940372404157003 -3.918153070797727 0 0 0
874 192 2 -3.5020388386961647 -2.0791368290204018 -4.253418586437291 0 0 0
2049 583 4 -3.357585892056731 -2.085411216598907 -4.869501642040444 0 0 0
875 192 4 -3.2647304768541314 -2.3642364176251025 -4.588684102076854 0 0 0
1116 272 4 -0.5325479188544977 -1.7888851570194457 -3.3397687012743784 0 0 0
3865 1189 2 -9.755346460847692 -0.7025979157526018 -4.252496932441855 1 0 0
1848 516 4 -8.725235295868712 -1.6597311615639851 -3.6133749471018004 0 0 0
3866 1189 4 -9.409845131638136 -1.0060373626212402 -4.0561469041815 1 0 0
604 121 3 -9.577064011156324 -1.352722560397244 -3.994577253761194 1 0 0
3021 907 4 -9.103656938850781 -1.563850505293484 -4.806839424067233 1 0 0
2892 864 4 -7.557949893706902 -0.49239668791005226 -4.910458681496077 1 0 0
1981 561 2 -3.980582467388619 -0.3426796765020937 -3.5941017928429697 0 0 0
1982 561 4 -4.1066165928574785 -0.8261356759924776 -3.613740931676017 0 0 0
398 80 3 -9.005889293228847 -8.410735674115552 -2.3964294167294247 1 0 0
3920 1207 4 -9.562995349228935 -9.882811948415313 -1.582536365462889 1 1 0
1853 518 4 -7.706004951778386 -8.568690361713829 -3.220312575325271 0 0 0
828 176 4 -7.374034421230201 -8.346091438159412 -3.198887488661584 0 0 0
3182 961 4 -4.462552673547173 -9.298621870928123 -1.907560622648294 0 0 0
3181 961 2 -4.200261675681324 -9.248327188014489 -2.3302589516119725 0 0 0
3183 961 4 -3.9379706778154744 -9.198032505100855 -2.752957280575651 0 0 0
1100 267 4 -3.6034632645486484 -9.015052952494282 -2.802685584835335 0 0 0
1285 329 2 -2.0807421498317864 -9.669077259327809 -2.063919496297328 0 0 0
1099 267 2 -3.140189395241343 -9.157218830070939 -2.6795345179730314 0 0 0
1101 267 4 -2.6769155259340383 -9.299384707647596 -2.556383451110728 0 0 0
1286 329 4 -2.4308906054757173 -9.39301590339186 -2.2901631410012793 0 0 0
400 80 3 -9.331177538212666 -7.753242253791942 -2.566105460725299 1 0 0
396 80 1 -8.953671378544366 -7.9497411693865265 -2.4040027908444777 1 0 0
397 80 3 -8.598879284355586 -7.844742903318743 -2.6773120186867567 1 0 0
399 80 3 -8.864937850361136 -7.793327263239718 -1.9762633246505172 1 0 0
1854 518 4 -8.565556328293145 -8.113568720993998 -2.987856723005006 0 0 0
1472 391 4 -8.824762316197425 -8.077071318348123 -1.7079768339124166 0 0 0
1852 518 2 -8.135780640035765 -8.341129541353913 -3.1040846491651384 0 0 0
1143 281 4 -5.299351259573934 -7.713941723902938 -3.540149781692397 0 0 0
1322 341 4 -5.6929436399077895 -7.970899272643935 -1.8057433424449765 0 0 0
1321 341 2 -5.3697722578308325 -7.874506664826379 -2.174889279662953 0 0 0
1323 341 4 -5.0466008757538745 -7.778114057008823 -2.5440352168809297 0 0 0
1077 259 4 -4.756152023536986 -7.631761841966233 -2.789561735004857 0 0 0
1075 259 2 -4.387637358861354 -7.853259702154158 -3.0447785836874144 0 0 0
1786 496 2 -2.5283552820273396 -7.143796911009354 -3.0352173968563467 0 1 0