LAMMPS data file via write_data, version 27 Jun 2024, timestep = 3500000, units = lj

4590 atoms
4 atom types
3090 bonds
1 bond types

-9.99857 9.99857 xlo xhi
-9.99857 9.99857 ylo yhi
-9.99857 9.99857 zlo zhi

Masses

1 1
2 1
3 0.5
4 0.5

Bond Coeffs # zero

1 0

Atoms # bond

1247 386 4 -7.6006994530866265 -8.819684894882261 -8.825693209685861 0 0 1
1246 386 2 -7.692954685522721 -8.422874741322829 -9.115573657664397 0 0 1
1668 526 4 -7.62528315261643 -9.166115184630124 -8.666994059788104 0 1 0
1476 462 4 -7.289947898256036 -9.055210372226588 -8.792800139471193 0 1 0
1474 462 2 -6.909014026048645 -9.345244817469437 -8.936916084381977 0 1 0
1666 526 2 -7.911492184205939 -9.390052279243298 -8.32357512045478 0 1 0
1475 462 4 -6.528080153841254 -9.635279262712286 -9.08103202929276 0 1 0
534 148 4 -6.203320999684525 -9.768894469193027 -9.264757007892184 0 0 0
1152 354 4 -9.921442391377065 -8.619519139730357 -1.492535226670085 0 0 0
532 148 2 -5.814209004160165 -9.553388207630457 -9.49311835787609 0 0 0
533 148 4 -5.425097008635804 -9.337881946067887 -9.721479707859997 0 0 0
652 188 2 -3.795387748832106 -9.82751496610455 -9.34839394071027 0 0 0
654 188 4 -3.7577451940090203 -9.42113627179979 -9.637252720881031 0 0 0
485 132 4 -4.106437768980864 -9.26914356250535 -9.742768474315183 0 0 0
297 69 4 -3.839832029771014 -9.048822308269257 -9.586858701990025 0 0 0
484 132 2 -4.598635798245399 -9.205222444673264 -9.803226647320123 0 0 0
295 69 2 -3.416798914770577 -8.855300277172397 -9.770140471660358 0 0 0
296 69 4 -2.99376579977014 -8.661778246075537 -9.953422241330692 0 0 0
3836 1249 4 -0.5946569264613711 -8.814906619825312 -9.659226670754206 0 1 0
3835 1249 2 -0.17890075957336424 -8.976167186256701 -9.433081055255784 0 1 0
463 125 2 -8.531814976291406 -7.834212418544148 -9.524844873901108 0 0 0
465 125 4 -8.913839488222813 -7.626780573167426 -9.771885967258394 0 0 0
589 167 2 -9.650876953146273 -7.316539908565795 -9.888963664101501 0 0 0
1772 561 4 -6.789359747570717 -9.991182251742856 -0.6713652007804553 0 1 0
591 167 4 -9.150919072216396 -7.3210710744662295 -9.88431760859166 0 0 0
464 125 4 -8.149790464359999 -8.041644263920869 -9.277803780543822 0 0 0
1248 386 4 -7.785209917958815 -8.026064587763397 -9.405454105642933 0 0 1
2466 792 4 -0.36377602514301927 -7.343659582155944 -8.584266935346264 0 0 0
2893 935 2 -0.25753070280998913 -7.0771199099301025 -9.430961591759843 0 0 0
2894 935 4 -0.1793368039316974 -6.896591737130154 -9.890630269182674 0 0 0
2895 935 4 -0.3357246016882809 -7.257648082730051 -8.971292914337011 0 0 0
655 189 2 -9.711218139828505 -6.177518879151205 -8.499890318704551 0 0 0
656 189 4 -9.416937639200125 -6.090860613439557 -8.105062087781777 0 0 0
254 55 4 -3.521792326202555 -6.195919486450298 -8.406977407431421 0 0 0
253 55 2 -3.2518591747119165 -6.1537247735700165 -8.825732347618594 0 0 0
255 55 4 -2.9819260232212783 -6.111530060689735 -9.244487287805766 0 0 0
572 161 4 -2.7388574354888515 -5.773653636421441 -9.355001167165616 0 0 0
665 192 4 -2.9070475785790038 -6.016657258876418 -9.637261648857875 0 0 0
571 161 2 -2.5759063832985887 -5.301590824953179 -9.379570591641574 0 0 0
456 122 4 -6.468201036846472 -3.4172572479926058 -8.254924513496656 0 0 0
957 289 4 -3.520204208453408 -3.908115944849582 -9.601314507054107 0 0 1
357 89 4 -3.4454352297542084 -3.4906121815798525 -9.565179617238355 0 0 0
955 289 2 -3.8291618839512833 -4.0961495102945555 -9.946551430074644 0 0 1
1071 327 4 -3.185758680907658 -3.742091367433895 -9.446792940885327 0 0 1
573 161 4 -2.412955331108326 -4.829528013484916 -9.404140016117532 0 0 0
1070 327 4 -2.4824954104033115 -4.452489970332088 -9.419323005291758 0 0 1
323 78 4 -2.295125743809087 -4.596254144632921 -9.125009783900644 0 0 0
1069 327 2 -2.834127045655485 -4.097290668882992 -9.433057973088543 0 0 1
322 78 2 -1.8953231466420786 -4.4768977836967405 -8.84948856438592 0 0 0
324 78 4 -1.49552054947507 -4.35754142276056 -8.573967344871196 0 0 0
740 217 4 -1.3468440972186935 -3.990700464238872 -8.636757585008148 0 0 0
739 217 2 -1.1031528538375552 -3.5629056251824887 -8.723970849915222 0 0 0
619 177 2 -7.644149496105655 -1.7202035891635317 -8.501976808516684 0 0 0
535 149 2 -6.541936649837637 -1.8891666542406873 -8.593548013359136 0 0 0
286 66 2 -5.454611309732589 -2.0288515018529387 -8.87881072317614 0 0 0
287 66 4 -5.814796088564873 -2.2491117751193825 -8.610944455949552 0 0 0
537 149 4 -6.211791911168738 -2.2631731788118006 -8.560028301142445 0 0 0
455 122 4 -5.990268952258627 -2.5915636356777125 -8.554609316419276 0 0 0
454 122 2 -6.22923499455255 -3.004410441835159 -8.404766914957966 0 0 0
288 66 4 -5.0944265309003045 -1.808591228586495 -9.14667699040273 0 0 0
1289 400 4 -5.146365860326245 -1.7603531113732973 -9.539673332564755 0 0 1
252 54 4 -4.761546451945245 -1.7267126126673977 -9.366771526479717 0 0 0
355 89 2 -3.7442731285685236 -3.16615044018045 -9.329764051481755 0 0 0
356 89 4 -4.043111027382839 -2.8416886987810472 -9.094348485725154 0 0 0
251 54 4 -4.118482888677008 -2.4758776504396076 -9.207960318512402 0 0 0
482 131 4 -4.110705062494385 -2.549377453986962 -8.824295069083846 0 0 0
250 54 2 -4.440014670311126 -2.1012951315535027 -9.28736592249606 0 0 0
672 194 4 -0.9087662841597091 -2.7134487316604177 -8.785364609620569 0 0 0
670 194 2 -0.891956127754329 -2.401772148821664 -9.175973271008733 0 0 0
671 194 4 -0.875145971348949 -2.0900955659829106 -9.566581932396897 0 0 0
741 217 4 -0.8594616104564177 -3.135110786126105 -8.811184114822296 0 0 0
495 135 4 -0.9702807019742408 -2.9122356553584945 -8.454165682623763 0 0 0
564 158 4 -0.8496673473334124 -1.7351588218361276 -9.742015493338613 0 0 0
281 64 4 -0.8754772804288753 -2.0723533157146683 -9.9679964358447 0 0 0
1224 378 4 -8.57833743927409 -0.46985308179833324 -9.894101540649574 0 0 1
1222 378 2 -8.08747292306404 -0.45614637337525415 -9.799951910432503 0 0 1
536 149 4 -6.872081388506536 -1.515160129669574 -8.627067725575827 0 0 0
241 51 2 -7.097925972447664 -0.9166279700986668 -9.20472085453959 0 0 0
242 51 4 -7.243590484252534 -0.5926558918718421 -9.556607118167271 0 0 0
243 51 4 -6.952261460642794 -1.2406000483254913 -8.852834590911907 0 0 0
1223 378 4 -7.596608406853988 -0.44243966495217507 -9.705802280215432 0 0 1
1955 622 4 -7.296121779386241 -0.20901458064385464 -9.59816129019051 0 0 1
621 177 4 -7.281327783735958 -1.4247947484335708 -8.678311779102742 0 0 0
417 109 4 -7.049274176189267 -1.1732990774328813 -8.469560872816182 0 0 0
271 61 2 -5.232722896568628 -0.09696432381758734 -8.850050524029726 0 0 0
245 52 4 -5.072239910601126 -1.4406432957298558 -9.293528113259935 0 0 0
244 52 2 -4.815459769751073 -1.0247804723137364 -9.188066881684081 0 0 0
273 61 4 -4.798929209234174 -0.2568436805779412 -9.040475386142253 0 0 0
246 52 4 -4.558679628901021 -0.608917648897617 -9.082605650108228 0 0 0
2094 668 4 -4.427739951814773 -0.26306991352041154 -9.228776967219584 0 0 1
1778 563 4 -4.461772495552287 -0.3120808079323273 -8.826770653303528 0 0 0
1777 563 2 -4.331650033297845 -0.47608764291132366 -8.372711292759973 0 0 0
2386 766 2 -0.4216680272381162 -0.049006555919691434 -9.378544837090745 0 0 1
562 158 2 -0.60685736541484 -1.3235632531617263 -9.594935921240182 0 0 0
563 158 4 -0.36404738349626764 -0.911967684487325 -9.447856349141752 0 0 0
2388 766 4 -0.27018249296993735 -0.5251046264942156 -9.398109092825294 0 0 1
1673 528 4 -0.062082490154593245 -0.8230024930674804 -9.202220206490338 0 0 0
702 204 4 -8.581944241382745 -9.607673654970299 -7.866221433342707 0 0 0
2465 792 4 -0.010057113486303948 -7.187713850919593 -7.6620067440522766 0 0 0
1805 572 4 -8.30914472494766 -9.405468314190209 -7.658353300340831 0 1 0
1804 572 2 -8.053631871119661 -9.438363094370475 -7.229831288111188 0 1 0
1667 526 4 -8.197701215795448 -9.613989373856471 -7.9801561811214565 0 1 0
1806 572 4 -7.798119017291662 -9.47125787455074 -6.801309275881545 0 1 0
1539 483 4 -7.606619473016725 -9.141369375691138 -6.717074847592123 0 1 0
16 4 1 -6.205033115839954 -8.415696618859277 -6.62115301331846 0 0 0
20 4 3 -6.176593862400645 -8.595875955575483 -7.038437826706702 0 0 0
1504 472 2 -4.292017340385967 -9.894021510029654 -6.938410561805865 0 1 0
4086 1332 4 -0.011040882267512694 -0.8245110970083747 -0.737449191356414 0 0 0
579 163 4 -8.437148526608027 -6.7277669703908 -7.161220401014453 0 0 0
450 120 4 -7.0952211005342045 -7.167094357940015 -6.688777434716987 0 0 0
232 48 2 -7.587648228070151 -6.855597758540251 -7.183478272764558 0 0 0
692 201 4 -6.782252563230434 -7.029495760995716 -6.898924391207872 0 0 0
233 48 4 -7.134592024217102 -7.026079526824446 -7.058274267902653 0 0 0
338 83 4 -7.076505291291089 -6.796371847493465 -6.7490728960367665 0 0 0
234 48 4 -8.0407044319232 -6.685115990256057 -7.308682277626462 0 0 0
580 164 2 -5.183393044933938 -6.700122760482918 -7.388856269890583 0 0 0
691 201 2 -6.36094579318485 -7.027632707414316 -7.168177310496135 0 0 0
693 201 4 -5.939639023139267 -7.025769653832916 -7.437430229784397 0 0 0
29 6 3 -4.8460398630225825 -7.719643991772368 -7.367573342697037 0 0 0
582 164 4 -4.683653491164657 -6.710584897456909 -7.401141305027399 0 0 0
30 6 3 -4.3797415245055795 -7.497251827989108 -7.915302824269896 0 0 0
28 6 3 -4.095534805454986 -7.702673169730547 -7.249023143352314 0 0 0
26 6 1 -4.450799781301162 -7.497154056207819 -7.465468727538837 0 0 0
27 6 3 -4.484005500446303 -7.06289775406425 -7.317418586489787 0 0 0
758 223 4 -4.282749457709183 -6.748135086124577 -7.481352569821486 0 0 0
404 105 4 -4.394268825156056 -6.74952757951585 -7.109959516190653 0 0 0
1497 469 4 -3.9421530215673655 -7.567440013614888 -6.8883504595970395 0 1 0
403 105 2 -4.354503982188345 -6.713221946113001 -6.612867313227242 0 0 0
2464 792 2 -0.1869165693146616 -7.265686716537768 -8.12313683969927 0 0 0
2553 821 4 -0.08930135712439968 -7.529861053853321 -7.442738589729676 0 0 0
513 141 4 -9.04263735808735 -5.977004478731506 -7.984584702148219 0 0 0
381 97 4 -9.286688244268019 -5.729648455459427 -8.217939881830285 0 0 0
511 141 2 -8.709343082920597 -6.240857989587503 -7.721342891354647 0 0 0
379 97 2 -9.199413889926758 -5.291325853478326 -7.993760302771755 0 0 0
512 141 4 -8.376048807753845 -6.504711500443499 -7.458101080561075 0 0 0
581 164 4 -5.683132598703219 -6.689660623508927 -7.376571234753768 0 0 0
759 223 4 -3.532145376255239 -6.376390645626385 -8.027612200274916 0 0 0
757 223 2 -3.9074474169822113 -6.562262865875481 -7.754482385048202 0 0 0
279 63 4 -3.4034601572827095 -5.268501344239919 -7.116132371502682 0 0 0
460 124 2 -3.375740117579648 -5.601708611689632 -7.799163973509054 0 0 0
462 124 4 -3.3573552533272792 -5.1955955483236975 -7.508072619240482 0 0 0
284 65 4 -3.684641080990541 -5.054885283298778 -7.315503367724987 0 0 0
461 124 4 -3.394124981832017 -6.007821675055566 -8.090255327777626 0 0 0
442 118 2 -9.713186722487567 -4.8343613009297695 -7.076612298651567 0 0 0
380 97 4 -9.112139535585497 -4.853003251497225 -7.769580723713227 0 0 0
396 102 4 -8.933675805621096 -4.772903689159337 -7.436556869742839 0 0 0
394 102 2 -8.731328928854648 -4.421549501440655 -7.143971879979142 0 0 0
443 118 4 -9.348627378165759 -4.8102364083094145 -7.417954464262079 0 0 0
395 102 4 -8.5289820520882 -4.070195313721973 -6.851386890215444 0 0 0
361 91 2 -7.893860053260228 -3.491693668977203 -7.025612136531661 0 0 0
362 91 4 -8.275664937304827 -3.7939293950890027 -6.912128232910808 0 0 0
506 139 4 -6.571048946357811 -3.736716866329508 -8.054685093938028 0 0 0
505 139 2 -6.33952687226106 -4.1312628676578695 -7.852865912387004 0 0 0
354 88 4 -5.793526260217074 -4.5946147108915705 -7.857677531691076 0 0 0
507 139 4 -6.108004798164309 -4.52580886898623 -7.651046730835979 0 0 0
352 88 2 -5.296658039633023 -4.546219983353936 -7.829750453078243 0 0 0
353 88 4 -4.799789819048972 -4.497825255816301 -7.80182337446541 0 0 0
737 216 4 -4.614884421492898 -4.11848269189804 -7.702629526641806 0 0 0
736 216 2 -4.4162026079087395 -3.674224054796932 -7.817345699485827 0 0 0
283 65 2 -4.077403046801795 -4.767798930839231 -7.430913351883225 0 0 0
285 65 4 -4.470165012613048 -4.480712578379683 -7.546323336041463 0 0 0
738 216 4 -4.217520794324581 -3.229965417695824 -7.932061872329848 0 0 0
277 63 2 -3.1568087959486486 -4.9473842602395495 -6.822794811147275 0 0 0
763 225 2 -2.1064420650144386 -4.461828964311486 -6.73407839370775 0 0 0
764 225 4 -1.6555582912195463 -4.498904641974164 -6.946984985090852 0 0 0
518 143 4 -1.5664593850180388 -4.370080584554875 -7.314976037443709 0 0 0
624 178 4 -1.2746033216318362 -4.421920916773784 -7.056601514172312 0 0 0
517 143 2 -1.5367878735748732 -4.2323843575690985 -7.794725295371829 0 0 0
519 143 4 -1.5071163621317076 -4.094688130583322 -8.27447455329995 0 0 0
622 178 2 -1.0718184609499286 -4.055157267080307 -6.783906216190118 0 0 0
623 178 4 -0.8690336002680211 -3.6883936173868292 -6.511210918207924 0 0 0
263 58 4 -9.573505856974224 -2.144102877663346 -7.6209055518611795 0 0 0
262 58 2 -9.569824561469112 -2.5295046744241847 -7.302390398191831 0 0 0
551 154 4 -9.360012716290289 -2.113258125704066 -7.962253068407612 0 0 0
2694 868 4 -9.75842634317945 -2.181401139583288 -8.001019036227333 1 0 0
264 58 4 -9.566143265964 -2.914906471185023 -6.983875244522482 0 0 0
550 154 2 -8.874639222137219 -2.0863352032051825 -8.079247629895985 0 0 0
552 154 4 -8.38926572798415 -2.059412280706299 -8.196242191384359 0 0 0
363 91 4 -7.512055169215629 -3.1894579428654035 -7.1390960401525145 0 0 0
314 75 4 -8.115426279327782 -2.2163149554247545 -7.964190440260985 0 0 0
315 75 4 -7.676445044132409 -2.9052412699249857 -7.387409712136442 0 0 0
313 75 2 -7.895935661730095 -2.5607781126748703 -7.675800076198714 0 0 0
620 177 4 -8.00697120847535 -2.0156124298934923 -8.325641837930625 0 0 0
627 179 4 -5.97950561371909 -2.3440008403463843 -8.253336613058964 0 0 0
625 179 2 -5.789539401326625 -2.1703449642500083 -7.824668355724584 0 0 0
289 67 2 -5.053669652736169 -2.05711213471189 -6.912915327385031 0 0 0
626 179 4 -5.599573188934159 -1.996689088153632 -7.3960000983902034 0 0 0
291 67 4 -5.413632721345873 -1.7979967672014383 -7.143752533131972 0 0 0
481 131 2 -4.098597285644186 -2.7075806575411487 -8.350137765939682 0 0 0
483 131 4 -4.086489508793988 -2.8657838610953354 -7.8759804627955186 0 0 0
756 222 4 -4.1927526277080815 -3.0983887504483616 -7.541881980218954 0 0 0
754 222 2 -4.309086794574164 -2.8698711380707067 -7.112643046228974 0 0 0
290 67 4 -4.693706584126466 -2.316227502222342 -6.6820781216380905 0 0 0
387 99 4 -2.1181238813228767 -2.059354292701748 -7.23455630600283 0 0 0
609 173 4 -2.3531103034915803 -1.7769181438957324 -7.0631660262716345 0 0 0
385 99 2 -1.6232253349473291 -2.1132561273119443 -7.281139790424904 0 0 0
493 135 2 -0.9453407280205969 -2.636490206366473 -8.03782154004504 0 0 0
494 135 4 -0.920400754066953 -2.3607447573744516 -7.621477397466318 0 0 0
13 3 3 -0.7383871552223472 -2.130403664370365 -7.341887104898093 0 0 0
386 99 4 -1.1283267885717814 -2.1671579619221406 -7.327723274846978 0 0 0
645 185 4 -0.8745669414447369 -2.499415228081361 -7.244051624758311 0 0 0
643 185 2 -0.8770646173113079 -2.911835672725985 -6.961380192784038 0 0 0
11 3 1 -0.6360361126675798 -1.7360045436093177 -7.119910534893822 0 0 0
12 3 3 -0.4341242021746309 -1.8387722944566034 -6.7195727153128155 0 0 0
1510 474 2 -6.97762594514252 -0.301995980528163 -7.274352177618565 0 0 0
1512 474 4 -7.407585662365212 -0.09241685819115655 -7.128711410501984 0 0 0
415 109 2 -6.771054864943861 -0.9591023136358665 -8.113592108415247 0 0 0
1790 567 4 -7.730827665700809 -0.09441542420964859 -6.87910195484062 0 0 0
1511 474 4 -6.547666227919829 -0.5115751028651696 -7.419992944735145 0 0 0
416 109 4 -6.4928355536984546 -0.7449055498388517 -7.757623344014313 0 0 0
1431 447 4 -5.748511541406999 -1.6251313279772583 -7.253056311202482 0 0 0
1620 510 4 -6.2325440779543655 -0.44850422022962233 -7.6536752149298115 0 0 0
1430 447 4 -6.25045824221552 -0.7787261091437687 -7.430954358072488 0 0 0
1429 447 2 -5.999484891811259 -1.2019287185605134 -7.342005334637485 0 0 0
603 171 4 -6.17456135354316 -0.40001262462162235 -7.268127547306231 0 0 0
1618 510 2 -5.944625204938116 -0.17300856757376012 -7.955676651894693 0 0 0
601 171 2 -6.028303501058452 -0.24127781021332612 -6.817115464007666 0 0 0
767 226 4 -3.603839074663419 -1.6200607300044174 -6.753339822247629 0 0 0
1779 563 4 -4.201527571043403 -0.64009447789032 -7.918651932216418 0 0 0
524 145 4 -4.054556741221766 -0.6911338592897525 -7.540254470926957 0 0 0
523 145 2 -3.7963427287400124 -0.989688412547888 -7.233349432703857 0 0 0
525 145 4 -3.5381287162582598 -1.2882429658060228 -6.926444394480757 0 0 0
607 173 2 -2.7981620067775728 -1.6266412944644466 -6.891859721871964 0 0 0
608 173 4 -3.243213710063565 -1.4763644450331608 -6.720553417472294 0 0 0
14 3 3 -1.0243734754155362 -1.4966742290860184 -7.034968829918364 0 0 0
15 3 3 -0.35102947223895586 -1.4854495965290448 -7.37169106115665 0 0 0
303 71 4 -0.027485262903664626 -1.282039975766124 -7.23426317311885 0 0 0
1537 483 2 -7.270570436868229 -8.815006856246837 -6.542264804387095 0 1 0
1538 483 4 -6.934521400719733 -8.488644336802537 -6.367454761182067 0 1 0
1415 442 4 -7.748046971544573 -9.344315426918532 -6.4291143646310225 0 1 0
1414 442 2 -7.68387815035682 -9.732164563430723 -6.120155775667819 0 1 0
675 195 4 -6.652902003837887 -8.33517573274577 -6.122033599355868 0 0 0
1468 460 2 -7.966367979533567 -9.859218933566135 -5.046556467936831 0 1 0
17 4 3 -6.105027732828858 -8.738862006015927 -6.3094431226944385 0 0 0
690 200 4 -3.991959054794656 -9.552603224575847 -6.274233937198324 0 0 0
688 200 2 -3.8057468335940525 -9.099688095241122 -6.173274072422585 0 0 0
689 200 4 -3.619534612393449 -8.646772965906397 -6.072314207646847 0 0 0
1496 469 4 -3.704461663546344 -8.355381356571614 -6.320326465049635 0 1 0
633 181 4 -3.484795676625205 -8.288385596207187 -5.984239284476181 0 0 0
1505 472 4 -4.297791395644614 -9.569554416723632 -6.558032111249495 0 1 0
2592 834 4 -0.35204192340694307 -9.21001337671678 -6.646314116366143 0 0 0
3547 1153 2 -0.17787978142170766 -9.072385047688346 -5.832628842927575 0 1 0
3548 1153 4 -0.42943110677518503 -9.12803411806486 -6.261143850458302 0 1 0
577 163 2 -8.613433965293881 -6.648563627832093 -6.700080211229488 0 0 0
578 163 4 -8.789719403979735 -6.569360285273387 -6.238940021444523 0 0 0
392 101 4 -8.909309468133497 -6.625678586678478 -5.8673707312292445 0 0 0
448 120 2 -7.014339914487724 -7.62589701768234 -6.50723307882243 0 0 0
449 120 4 -6.933458728441244 -8.084699677424666 -6.325688722927873 0 0 0
19 4 3 -5.901911858198148 -8.067015762910062 -6.578267539550338 0 0 0
18 4 3 -6.635844740434638 -8.261417170223528 -6.544346790635131 0 0 0
673 195 2 -6.668395585665866 -8.311700767658978 -5.622825351290607 0 0 0
674 195 4 -6.683889167493845 -8.288225802572187 -5.123617103225346 0 0 0
236 49 4 -6.111662015577271 -6.765450093758121 -4.947539249008905 0 0 0
1495 469 2 -3.8233073425568547 -7.961410685093251 -6.604338462323337 0 1 0
405 105 4 -4.3147391392206345 -6.676916312710152 -6.115775110263831 0 0 0
631 181 2 -3.278317811239218 -8.07700524144446 -5.58089670461877 0 0 0
632 181 4 -3.071839945853231 -7.865624886681735 -5.177554124761358 0 0 0
25 5 3 -1.9866885853733443 -7.841035182695897 -5.457815195598758 0 0 0
22 5 3 -2.6983019542281363 -7.93707357388422 -5.254386975619048 0 0 0
21 5 1 -2.331187392198384 -7.662074542456083 -5.219710887908378 0 0 0
23 5 3 -2.4403545970744998 -7.24408138999024 -5.3890160735077055 0 0 0
388 100 2 -9.668329777818132 -5.164539975268652 -5.998795366969052 0 0 0
391 101 2 -9.080833597181657 -6.163454993829376 -5.784131177121531 0 0 0
371 94 4 -9.011419926157027 -5.4031816279191 -5.565515467286672 0 0 0
393 101 4 -9.252357726229818 -5.701231400980274 -5.700891623013818 0 0 0
390 100 4 -9.389050378171087 -5.3137719764859845 -5.61184210526236 0 0 0
370 94 2 -8.656041350346928 -5.05837216636849 -5.496143260459799 0 0 0
389 100 4 -9.947609177465177 -5.01530797405132 -6.385748628675744 0 0 0
475 129 2 -6.7626996883622095 -5.463035861607533 -5.666384986135729 0 0 0
337 83 2 -6.98916258916067 -6.513193244005221 -6.346355711264375 0 0 0
339 83 4 -6.901819887030251 -6.230014640516976 -5.943638526491984 0 0 0
477 129 4 -6.838957374664842 -4.981819720945169 -5.554064946758753 0 0 0
237 49 4 -6.703596619539886 -6.302891429970101 -5.6075793289945 0 0 0
476 129 4 -6.686442002059577 -5.944252002269898 -5.778705025512706 0 0 0
235 49 2 -6.407629317558579 -6.534170761864111 -5.277559289001703 0 0 0
249 53 4 -4.43850250008131 -6.65338904445377 -5.741664732092183 0 0 0
247 53 2 -4.610379528933746 -6.456331836510063 -5.315487839534531 0 0 0
704 205 4 -8.590011219412986 -3.7058120862405524 -6.6834570744941315 0 0 0
648 186 4 -8.337081834640523 -3.9724913564933355 -6.532952662889339 0 0 0
372 94 4 -8.30066277453683 -4.71356270481788 -5.426771053632925 0 0 0
703 205 2 -9.014836092791485 -3.4436307065018563 -6.711470483379319 0 0 0
646 186 2 -8.250183066553081 -4.178048185747724 -6.08552111052435 0 0 0
647 186 4 -8.163284298465639 -4.3836050150021135 -5.63808955815936 0 0 0
750 220 4 -8.318483034145029 -4.353076387549905 -5.276518762992888 0 0 0
299 70 4 -7.958830047679584 -4.519836762500946 -5.313901661919229 0 0 0
300 70 4 -7.104226582104802 -5.03687353149941 -5.2656741165582615 0 0 0
298 70 2 -7.531528314892193 -4.778355147000178 -5.289787889238745 0 0 0
308 73 4 -3.507734533773671 -3.576522421996801 -5.986708630472919 0 0 0
278 63 4 -2.9101574346145878 -4.62626717623918 -6.529457250791867 0 0 0
765 225 4 -2.557325838809331 -4.424753286648809 -6.521171802324648 0 0 0
309 73 4 -2.8972200013652727 -4.210526733940072 -6.461377502587836 0 0 0
307 73 2 -3.202477267569472 -3.8935245779684364 -6.224043066530378 0 0 0
596 169 4 -0.5409748096646712 -3.4496919137236226 -6.548118572349494 0 0 0
109 22 3 -1.2381667886444319 -3.746022082972371 -5.8105015741778665 0 0 0
595 169 2 -0.07578324627605343 -3.608067931607995 -6.455848066167006 0 0 0
107 22 3 -0.844415402506104 -3.341946773983316 -6.307072808321637 0 0 0
705 205 4 -9.439660966169985 -3.18144932676316 -6.739483892264507 0 0 0
734 215 4 -5.261083646769887 -2.721190891511503 -5.291742396108068 0 0 0
611 174 4 -5.125529906612742 -2.393531162521077 -5.488587156785608 0 0 0
755 222 4 -4.425420961440248 -2.641353525693052 -6.683404112238993 0 0 0
766 226 2 -3.958870133456374 -1.9553805351520088 -6.646038491556892 0 0 0
344 85 4 -3.622509774450866 -3.226573363956095 -5.8281921423658885 0 0 0
768 226 4 -4.31390119224933 -2.2907003402996002 -6.538737160866155 0 0 0
610 174 2 -4.866412647293962 -2.4334545067928532 -5.914338695250486 0 0 0
345 85 4 -4.236157177430133 -2.621157767839113 -6.335053879720876 0 0 0
612 174 4 -4.6072953879751815 -2.4733778510646296 -6.340090233715364 0 0 0
343 85 2 -3.9293334759404996 -2.923865565897604 -6.081623011043383 0 0 0
644 185 4 -0.8795622931778789 -3.3242561173706093 -6.678708760809765 0 0 0
108 22 3 -1.4245152765280966 -3.022810522418477 -5.951353552311599 0 0 0
106 22 1 -1.0736413666125602 -3.3234214927979027 -5.908685721010454 0 0 0
110 22 3 -0.7908008287744268 -3.1863563908877475 -5.579118750587721 0 0 0
1878 596 4 -5.725486041628621 -0.18535459555997205 -5.992934329105005 0 0 0
1658 523 4 -3.529176947546793 -1.3462451034555194 -6.5006491270112 0 0 0
1657 523 2 -3.4249956132347714 -1.062710672706962 -6.102209073601251 0 0 0
228 46 4 -0.0054820739382104855 -0.7619779643656711 -9.603997871209637 0 0 0
1659 523 4 -3.3208142789227497 -0.7791762419584046 -5.703769020191301 0 0 0
639 183 4 -3.4711070102079584 -0.43708842842551937 -5.799050756259935 0 0 0
1463 458 4 -8.065492186376343 -9.77202631634182 -4.242996950212466 0 1 0
1403 438 4 -8.065410118002404 -9.360823167175989 -4.341929006859874 0 1 0
1402 438 2 -7.682765671437989 -9.1261507406897 -4.121674427429123 0 1 0
1404 438 4 -7.300121224873573 -8.891478314203413 -3.9014198479983717 0 1 0
732 214 4 -7.144137387447863 -8.831058777103546 -3.5152177986113324 0 0 0
722 211 4 -6.941168361990585 -8.72139846417692 -3.8416396686549783 0 0 0
1470 460 4 -8.108063494195253 -9.649871551204772 -4.615167948591448 0 1 0
721 211 2 -6.80800882502217 -8.518596050476225 -4.2788349553534895 0 0 0
3699 1203 4 -0.106612396849053 -9.33670067070584 -4.2743752833676 0 1 0
3815 1242 4 -0.22701084001448538 -9.154285460568422 -3.9157983799797256 0 1 0
479 130 4 -0.2810086782973419 -8.969935618342443 -4.271869911805684 0 0 0
1650 520 4 -0.48686741191769656 -9.297797528239489 -4.162708222962919 0 1 0
1648 520 2 -0.7280707274461846 -9.719222075487647 -4.043450889626494 0 1 0
478 130 2 -0.4785978168197734 -8.512064194358256 -4.235644348501827 0 0 0
723 211 4 -6.674849288053754 -8.31579363677553 -4.716030242052 0 0 0
546 152 4 -6.470682964129023 -8.01300760482533 -4.8843617908003525 0 0 0
544 152 2 -6.322067803500598 -7.546583768047922 -4.782566218611607 0 0 0
545 152 4 -6.173452642872173 -7.080159931270516 -4.680770646422862 0 0 0
600 170 4 -5.973243023526096 -6.734948382586825 -4.568966748941466 0 0 0
24 5 3 -2.2126128005962116 -7.6258389552200825 -4.772578862166917 0 0 0
468 126 4 -2.1206877765623466 -7.489029598281136 -4.388446092973709 0 0 0
466 126 2 -2.1001663760602884 -7.012562887301759 -4.238251734058126 0 0 0
744 218 4 -1.8300455383049166 -7.543837667805266 -4.6940305201550645 0 0 0
350 87 4 -0.14747972309867202 -7.056986437101739 -3.885916545372788 0 0 0
480 130 4 -0.676186955342205 -8.054192770374069 -4.19941878519797 0 0 0
742 218 2 -1.390804891157153 -7.757719994835018 -4.587625613887884 0 0 0
743 218 4 -0.9515642440093892 -7.971602321864769 -4.481220707620703 0 0 0
351 87 4 -0.843628604187546 -7.6916877643030075 -4.221372892170229 0 0 0
349 87 2 -0.495554163643109 -7.374337100702373 -4.053644718771508 0 0 0
333 81 4 -0.03304654895371473 -6.717285027909489 -3.677258433140828 0 0 0
598 170 2 -5.5163271028476535 -6.532855850835401 -4.588625081543967 0 0 0
248 53 4 -4.782256557786181 -6.259274628566355 -4.889310946976877 0 0 0
599 170 4 -5.059411182169211 -6.330763319083977 -4.6082834141464675 0 0 0
707 206 4 -4.963954973959478 -5.953969168327259 -4.738046958934635 0 0 0
706 206 2 -4.611899545019616 -5.615970366238569 -4.6293557231304945 0 0 0
708 206 4 -4.259844116079755 -5.27797156414988 -4.520664487326354 0 0 0
717 209 4 -4.019227393919646 -5.4414657230017625 -4.223373335736102 0 0 0
467 126 4 -2.0796449755582302 -6.536096176322382 -4.088057375142544 0 0 0
419 110 4 -1.891762912537545 -6.2338560966360825 -3.8906256197369067 0 0 0
4084 1332 2 -0.1158335969689561 -0.3474206132625887 -0.6306636246136568 0 0 0
418 110 2 -1.4993214696948587 -6.1959330884755275 -3.583133246837488 0 0 0
331 81 2 -0.3650322566497553 -6.459025892939463 -3.4069110471905746 0 0 0
420 110 4 -1.1068800268521728 -6.158010080314972 -3.275640873938069 0 0 0
748 220 2 -8.352452245977053 -4.2063271383252765 -4.799747590941406 0 0 0
749 220 4 -8.386421457809078 -4.059577889100648 -4.322976418889924 0 0 0
364 92 2 -8.123521500458782 -4.587260433754016 -3.683693783173112 0 0 0
366 92 4 -8.161694667349758 -4.267586986424907 -4.066253185622165 0 0 0
2492 801 4 -8.114687366874413 -3.8852290931859805 -4.106874713691655 1 0 0
2491 801 2 -7.9347979072208075 -3.516768247246433 -3.8207342109394897 1 0 0
735 215 4 -5.360749500336528 -3.0923661958683057 -4.368543819924055 0 0 0
378 96 4 -5.250127513775914 -3.4380432677817265 -4.201283127751113 0 0 0
715 209 2 -3.8271636599738863 -5.0041289558240765 -4.075562395082276 0 0 0
613 175 2 -3.693514670775069 -3.8878402280034097 -3.732483353445458 0 0 0
614 175 4 -3.393714479752771 -4.285463316303842 -3.7773801808795566 0 0 0
716 209 4 -3.635099926028126 -4.5667921886463905 -3.9277514544284498 0 0 0
615 175 4 -3.9933148617973666 -3.4902171397029775 -3.6875865260113594 0 0 0
488 133 4 -3.493349493068083 -4.605239627859159 -3.563765473454603 0 0 0
434 115 4 -4.183528992989769 -3.4078382573014516 -3.340196911552574 0 0 0
376 96 2 -4.8184762502043625 -3.425718832067863 -3.949240879424272 0 0 0
2493 801 4 -7.754908447567201 -3.1483074013068855 -3.534593708187325 1 0 0
402 104 4 -7.3908625243644925 -2.991643968819147 -3.4675545444353064 0 0 0
400 104 2 -6.934975883268042 -2.786776152473263 -3.481574112736929 0 0 0
733 215 2 -5.310916573553207 -2.9067785436899043 -4.8301431080160615 0 0 0
401 104 4 -6.479089242171592 -2.581908336127379 -3.4955936810385513 0 0 0
508 140 2 -5.874642049974638 -3.0244893596987614 -3.7638595854402954 0 0 0
509 140 4 -5.605387201404382 -3.258522282089876 -4.114188599023929 0 0 0
510 140 4 -6.143896898544894 -2.790456437307647 -3.413530571856662 0 0 0
377 96 4 -4.38682498663281 -3.4133943963539997 -3.6971986310974314 0 0 0
496 136 2 -3.7744110105850535 -2.753175398944618 -3.6008845991946625 0 0 0
497 136 4 -4.118747323849775 -3.1156110623388535 -3.5923468437997 0 0 0
498 136 4 -3.430074697320331 -2.3907397355503823 -3.6094223545896256 0 0 0
231 47 4 -3.3367277271229896 -2.023196140450309 -3.7763956837011476 0 0 0
729 213 4 -2.3664923967044285 -2.87457926036803 -4.2746767040280895 0 0 0
728 213 4 -3.112433900932003 -2.339791132751272 -3.8777221337922163 0 0 0
727 213 2 -2.7394631488182157 -2.607185196559651 -4.076199418910153 0 0 0
447 119 4 -3.092735919676746 -2.1545461230936453 -3.4943428852531153 0 0 0
548 153 4 -9.178357582657224 -0.19917977534627418 -4.817280525730563 0 0 0
547 153 2 -9.112080117808388 -0.6329650993574805 -4.5776191180614605 0 0 0
549 153 4 -9.045802652959551 -1.0667504233686866 -4.337957710392358 0 0 0
777 229 4 -9.238274816326948 -1.0941163601762904 -3.987346743925159 0 0 0
775 229 2 -8.994325326287841 -1.027743255853782 -3.555973057509822 0 0 0
229 47 2 -3.581762128608862 -1.6030286821077462 -3.660561970825254 0 0 0
437 116 4 -4.654146819529728 -0.3235730861960423 -4.116730658848455 0 0 0
436 116 2 -4.288423713939593 -0.5742967968697078 -3.885680380893389 0 0 0
438 116 4 -3.922700608349457 -0.8250205075433735 -3.654630102938323 0 0 0
230 47 4 -3.8267965300947346 -1.182861223765183 -3.54472825794936 0 0 0
5 1 3 -3.376862237725251 -0.2768798266226159 -3.5173601109724535 0 0 0