LAMMPS data file via write_data, version 27 Jun 2024, timestep = 3500000, units = lj

4800 atoms
4 atom types
3300 bonds
1 bond types

-9.99857 9.99857 xlo xhi
-9.99857 9.99857 ylo yhi
-9.99857 9.99857 zlo zhi

Masses

1 1
2 1
3 0.5
4 0.5

Bond Coeffs # zero

1 0

Atoms # bond

966 222 4 -4.922014493494268 -9.923403534152596 -9.198919050922978 0 0 0
2640 780 4 -4.794201026533601 -9.574667698752727 -9.3515696194571 0 1 1
2638 780 2 -4.7885278205613755 -9.445518960579813 -9.834569017139815 0 1 1
1217 306 4 -1.6724883302150202 -8.429569306141353 -9.201692542612147 0 0 0
1212 304 4 -1.8532979368823632 -8.786070091341283 -9.197923406571304 0 0 0
1210 304 2 -1.624856740032923 -9.122610674193439 -8.907139886275168 0 0 0
1211 304 4 -1.3964155431834828 -9.459151257045594 -8.616356365979032 0 0 0
1431 377 4 -1.5804324383953618 -8.692702972016715 -9.491287855206025 0 0 1
807 169 4 -1.3033520744835174 -9.852083455762026 -8.609719341026844 0 0 0
1429 377 2 -1.256238440771717 -8.73017982627047 -9.870093527417609 0 0 1
1389 363 4 -7.082625259166286 -6.789380441742998 -9.624404720422985 0 0 1
1475 392 4 -6.9197969347346895 -6.960531257611717 -9.950407110793098 0 0 1
1048 250 2 -3.704433589929779 -7.1275063544114525 -8.552668002141052 0 0 0
1050 250 4 -4.010557576694372 -7.422988011910107 -8.290030048279313 0 0 0
1049 250 4 -3.3983096031651865 -6.832024696912798 -8.815305956002792 0 0 0
775 159 2 -2.684647939104369 -6.937868448553278 -8.938689921319137 0 0 0
777 159 4 -2.278963553661283 -7.223270748497566 -8.875716064884443 0 0 0
1218 306 4 -2.0689867836097298 -7.521528364174354 -9.066597671623434 0 0 0
1235 312 4 -1.9445226504732422 -7.105153224638665 -9.100798523674415 0 0 0
1216 306 2 -1.870737556912375 -7.975548835157854 -9.13414510711779 0 0 0
1234 312 2 -1.5217962692047504 -6.875486299711991 -9.237017135377341 0 0 0
1236 312 4 -1.0990698879362586 -6.645819374785317 -9.373235747080267 0 0 0
912 204 4 -8.60640740147799 -5.90324698221074 -8.448126813738861 0 0 0
910 204 2 -8.362341308161119 -5.979617041411467 -8.877777085646203 0 0 0
1030 244 2 -8.573223936950809 -6.382650563868431 -9.997996522000815 0 0 0
1387 363 2 -7.505358825698723 -6.522656160664933 -9.611975335470838 0 0 1
1032 244 4 -8.293221053704269 -6.121159772797052 -9.676716345895516 0 0 0
911 204 4 -8.118275214844248 -6.055987100612195 -9.307427357553545 0 0 0
802 168 2 -7.818151024765009 -5.387653960067838 -9.6644949972687 0 0 0
803 168 4 -7.9860112771645095 -5.858074076164971 -9.64152001009802 0 0 0
1388 363 4 -7.92809239223116 -6.255931879586869 -9.59954595051869 0 0 1
976 226 2 -5.3281417993946025 -5.132605590936966 -9.008002769999273 0 0 0
978 226 4 -5.132056924992651 -5.262744436153369 -8.566851318685394 0 0 0
977 226 4 -5.524226673796554 -5.002466745720563 -9.449154221313151 0 0 0
70 14 3 -4.969162608470735 -5.588087629587632 -8.369015382771511 0 0 0
1119 273 4 -3.437985526383757 -6.639385977891876 -9.180416487339008 0 0 0
67 14 3 -4.825900930161495 -6.094542867768156 -8.898145974636675 0 0 0
66 14 1 -4.738055722061692 -5.968708599102223 -8.464499855960131 0 0 0
946 216 2 -3.6895490695125397 -6.044374552058408 -8.682924974844418 0 0 0
69 14 3 -4.282504822897164 -5.892771020693794 -8.419701837523236 0 0 0
1117 273 2 -3.3987767635083874 -6.5001812808601445 -9.659044448533923 0 0 0
947 216 4 -3.4085812247449625 -6.417741966108314 -8.860840247747934 0 0 0
948 216 4 -3.970516914280117 -5.671007138008503 -8.505009701940903 0 0 0
776 159 4 -3.0903323245474548 -6.65246614860899 -9.00166377775383 0 0 0
1456 386 2 -0.915377890754398 -5.966952675294131 -9.186639788044328 0 0 1
1458 386 4 -0.9540736606221046 -6.449744049713196 -9.062482121422363 0 0 1
1457 386 4 -0.8766821208866914 -5.484161300875066 -9.310797454666293 0 0 1
1125 275 4 -1.018024884145532 -5.150657513246319 -9.141214549429003 0 0 0
825 175 4 -0.7178556259051345 -5.148891295866194 -9.420355712305607 0 0 0
798 166 4 -0.6534215338044962 -5.273942606899702 -9.030922518606202 0 0 0
1123 275 2 -1.248301840986537 -4.9366756224260575 -8.752390330084284 0 0 0
796 166 2 -0.18929993907899278 -5.104180996812443 -8.954947910676504 0 0 0
830 177 4 -9.839181770908453 -3.670317918815247 -8.338309764324736 0 0 0
295 59 3 -0.7261976344584203 -0.1322869355556463 -0.7080403980387369 0 0 0
804 168 4 -7.6502907723655085 -4.917233843970705 -9.687469984439382 0 0 0
132 27 3 -7.046007425982551 -4.804180331261334 -9.01724723415335 0 0 1
131 27 1 -7.184896820787617 -4.441330579094986 -9.263519021744681 0 0 1
134 27 3 -7.426172218180598 -4.156480139060269 -8.987935260567046 0 0 1
821 174 4 -7.561757906851514 -3.979965286711598 -8.64671995606126 0 0 0
133 27 3 -7.453370564543339 -4.59010995959574 -9.61149394160461 0 0 1
135 27 3 -6.820544310252903 -4.224725608261885 -9.430040896215786 0 0 1
1448 383 4 -7.244629160455833 -4.249375255425866 -8.630547574153049 0 0 1
820 174 2 -7.7278828034813705 -3.5139559141093266 -8.719092487910713 0 0 0
1517 406 4 -7.654454492028356 -4.64706113291768 -9.975211844046086 0 0 1
1373 358 4 -6.696277008829731 -3.867207969168143 -9.565811820832593 0 0 1
855 185 4 -5.516394925068536 -5.177974491930184 -9.784283960709338 0 0 0
962 221 4 -5.856634379758708 -4.985526433513498 -9.662630035646856 0 0 0
961 221 2 -6.1603141908899275 -4.588511606276846 -9.650068217882543 0 0 0
963 221 4 -6.463994002021147 -4.191496779040194 -9.63750640011823 0 0 0
1372 358 2 -6.536978477022405 -3.5963056108012834 -9.954702409552763 0 0 1
823 175 2 -0.7299005602636688 -4.98726476709374 -9.893358656010262 0 0 0
1173 291 4 -7.96580166851003 -2.7338460358550356 -8.562910351491398 0 0 0
1026 242 4 -7.82104493803368 -2.7004911131837317 -8.940108230517597 0 0 0
1024 242 2 -7.7371446865760145 -2.617681621663934 -9.42601288774919 0 0 0
822 174 4 -7.894007700111227 -3.0479465415070557 -8.791465019760164 0 0 0
1025 242 4 -7.653244435118349 -2.534872130144136 -9.911917544980783 0 0 0
2155 619 2 -5.197929506940076 -1.9112648098527676 -9.72922363517988 0 0 0
788 163 4 -5.249247452426291 -2.7516857128261916 -9.919957439650542 0 0 0
1066 256 2 -1.723387777719212 -2.4478539116174227 -9.931314446384013 0 0 0
1034 245 4 -1.3288063260831926 -1.722542010284674 -9.544314440159173 0 0 0
1067 256 4 -1.5201017801700367 -2.0152109755540826 -9.784703078902231 0 0 0
263 53 3 -1.420943765095437 -1.6615483697875848 -9.920169586145725 0 0 1
994 232 2 -5.179710262854473 -0.5540355067838301 -9.635936814039296 0 0 0
996 232 4 -5.2503170260939385 -1.0490209779297295 -9.633919801604351 0 0 0
995 232 4 -5.109103499615008 -0.05905003563792982 -9.63795382647424 0 0 0
75 15 3 -5.074781233111697 -1.1702506550474885 -9.290729768673934 0 0 0
2156 619 4 -5.231049989291929 -1.4558459781866524 -9.525516194440826 0 0 0
72 15 3 -5.130548750293115 -1.435090680154109 -8.595208564734293 0 0 0
74 15 3 -4.497351735093806 -1.5444826991205378 -8.985073831371174 0 0 0
71 15 1 -4.845932109531193 -1.2489010093048352 -8.904929042376159 0 0 0
73 15 3 -4.679753598421218 -0.8502447284177401 -8.735347580668776 0 0 0
53 11 3 -4.5671030768310334 -0.36789681345938297 -8.697862147450259 0 0 0
1071 257 4 -4.750788588689118 -0.6230337874317567 -8.428984031401445 0 0 0
2265 655 4 -4.364560577105619 -0.678834357168613 -8.538604368702655 0 0 0
2263 655 2 -3.9000298209763624 -0.5954914696688689 -8.373482778009446 0 0 0
1033 245 2 -1.1420202398614374 -1.629620073022636 -9.089917618461175 0 0 0
1035 245 4 -0.9552341536396821 -1.536698135760598 -8.635520796763178 0 0 0
1240 314 2 -0.8600666950684028 -0.6906044793819501 -8.55638243094357 0 0 0
1242 314 4 -1.00838311631313 -1.165831844578902 -8.50989382420023 0 0 0
1241 314 4 -0.7117502738236756 -0.21537711418499839 -8.602871037686912 0 0 0
16 4 1 -6.787801950072821 -8.69677800377133 -6.897177372494231 0 0 0
20 4 3 -6.9704826283702905 -9.083177197549885 -7.05441424102027 0 0 0
19 4 3 -7.100438611912774 -8.354462199176593 -6.916624932702048 0 0 0
17 4 3 -6.4263119205024894 -8.583010521687303 -7.157910796782935 0 0 0
1884 528 4 -5.292338417291868 -9.346808416886713 -6.883331375095519 0 1 0
1191 297 4 -5.118102863183179 -9.014457977401225 -6.812009413536057 0 0 0
1882 528 2 -5.398776901234964 -9.771180230095917 -7.125363218640141 0 1 0
1189 297 2 -4.745538989555653 -8.776439015556118 -7.045554128461795 0 0 0
1096 266 2 -3.7257267825072304 -8.82094863004955 -6.75914362461047 0 0 0
1098 266 4 -4.007114571145797 -8.591449332396696 -7.10287460194888 0 0 0
1190 297 4 -4.372975115928128 -8.538420053711011 -7.279098843387533 0 0 0
1074 258 4 -4.009825693943128 -8.4599526095261 -7.48589069742194 0 0 0
846 182 4 -9.113048757732749 -7.096687285854689 -8.194810372767556 0 0 0
1147 283 2 -7.137040691887294 -7.490485699654998 -6.965707620966168 0 0 0
1148 283 4 -7.066801747289829 -6.997518091118252 -6.920437016868819 0 0 0
1149 283 4 -7.207279636484759 -7.983453308191745 -7.010978225063518 0 0 0
867 189 4 -6.88657513844643 -6.787790971096663 -7.205953678845205 0 0 0
43 9 3 -6.727261663774678 -6.792762951292478 -6.827186200910444 0 0 0
1161 287 4 -7.060634637621877 -6.5849952157898795 -6.899984974940992 0 0 0
865 189 2 -6.609488389788628 -6.769711609840489 -7.621761411355017 0 0 0
45 9 3 -6.024860257159893 -7.046991218368171 -6.732845052912595 0 0 0
866 189 4 -6.332401641130826 -6.751632248584316 -8.037569143864829 0 0 0
852 184 4 -4.298417336929074 -7.361560003311676 -8.045880091492393 0 0 0
1073 258 4 -4.23341020667711 -7.72294581241267 -8.12372370587602 0 0 0
850 184 2 -4.623600868696234 -6.986693054964991 -7.984802749501013 0 0 0
1072 258 2 -4.121617950310119 -8.091449210969385 -7.8048072016489805 0 0 0
844 182 2 -8.95719745477585 -6.621939407306933 -8.212833224389955 0 0 0
1195 299 2 -9.396763144347 -5.5790621749005345 -8.345528910363415 0 0 0
1196 299 4 -9.840428991322202 -5.348573199222468 -8.339575061279884 0 0 0
845 182 4 -8.80134615181895 -6.147191528759177 -8.230856076012355 0 0 0
1197 299 4 -8.953097297371798 -5.809551150578601 -8.351482759446945 0 0 0
1254 318 4 -8.671917346583298 -5.8552028695913165 -8.041541585609869 0 0 0
1252 318 2 -8.374245093117672 -5.806471495947416 -7.642772877283899 0 0 0
1159 287 2 -7.401089038847547 -6.224591320650529 -6.964791093898496 0 0 0
1253 318 4 -8.076572839652046 -5.757740122303515 -7.244004168957929 0 0 0
1160 287 4 -7.741543440073217 -5.864187425511178 -7.029597212856 0 0 0
1185 295 4 -7.884487852163798 -5.495215270704719 -7.036505844608255 0 0 0
1183 295 2 -7.590491737692711 -5.121052259664909 -7.190025634359991 0 0 0
800 167 4 -6.07961437829878 -6.782755736591095 -8.35217163898877 0 0 0
799 167 2 -5.663437573442856 -6.554932958897461 -8.194394425602926 0 0 0
843 181 4 -5.993512382855174 -5.429665153643714 -7.20502186787919 0 0 0
814 172 2 -5.473797600045562 -5.370847295259211 -7.869770086916983 0 0 0
815 172 4 -5.865630816954011 -5.468723088196266 -7.575003977460609 0 0 0
841 181 2 -5.971524430224279 -5.7447755000063845 -6.817437039029643 0 0 0
801 167 4 -5.247260768586932 -6.327110181203827 -8.036617212217083 0 0 0
816 172 4 -5.081964383137113 -5.272971502322156 -8.164536196373357 0 0 0
1088 263 4 -6.051021011539529 -5.111424848532587 -7.450753648418431 0 0 0
794 165 4 -4.77336767466819 -5.2131844481887 -8.415123831996118 0 0 0
851 184 4 -4.948784400463395 -6.611826106618304 -7.923725407509634 0 0 0
68 14 3 -4.870523459504018 -6.310065802585964 -8.17949536798373 0 0 0
1124 275 4 -1.478578797827542 -4.722693731605796 -8.363566110739564 0 0 0
1184 295 4 -7.296495623221623 -4.746889248625099 -7.343545424111726 0 0 0
1447 383 2 -7.279551384965274 -4.377331120723146 -8.148460720182081 0 0 1
938 213 4 -7.138924758522659 -4.387191221710965 -7.314708516812519 0 0 0
1449 383 4 -7.3144736094747165 -4.505286986020428 -7.6663738662111145 0 0 1
937 213 2 -7.4227023562864645 -4.013370831401693 -7.142288707055488 0 0 0
939 213 4 -7.70647995405027 -3.6395504410924215 -6.969868897298456 0 0 0
1089 263 4 -6.931534271119325 -4.643260554098247 -7.525040882308845 0 0 0
1087 263 2 -6.491277641329427 -4.877342701315417 -7.487897265363638 0 0 0
793 165 2 -4.4463667664688815 -4.930335389578245 -8.163992758490547 0 0 0
795 165 4 -4.119365858269573 -4.647486330967789 -7.912861684984977 0 0 0
1221 307 4 -3.7538910705594253 -4.643197118950888 -7.760445771729062 0 0 0
1219 307 2 -3.3201321730849074 -4.438953021031807 -7.618538875044534 0 0 0
1082 261 4 -1.7104493705666175 -4.739402236896393 -8.022311963836604 0 0 0
1081 261 2 -2.1381560327568545 -4.559765179340257 -7.835770979947435 0 0 0
1083 261 4 -2.5658626949470915 -4.380128121784121 -7.649229996058268 0 0 0
1220 307 4 -2.8863732756103895 -4.234708923112725 -7.476631978360006 0 0 0
1205 302 4 -2.5174782805690823 -4.031579332892215 -7.455031161923736 0 0 0
1204 302 2 -2.4645270510581674 -3.604049934108714 -7.201230491181758 0 0 0
1206 302 4 -2.4115758215472534 -3.1765205353252135 -6.947429820439781 0 0 0
1171 291 2 -8.401589410221304 -2.752266038530841 -8.318472736390959 0 0 0
829 177 2 -9.517001558290348 -3.321263900634061 -8.182229006417357 0 0 0
1172 291 4 -8.837377151932577 -2.770686041206646 -8.07403512129052 0 0 0
831 177 4 -9.194821345672242 -2.9722098824528755 -8.026148248509978 0 0 0
1157 286 4 -9.20230845993122 -2.56325285314425 -8.053888583708206 0 0 0
1156 286 2 -9.46157464782392 -2.1593170260613403 -7.913828270220085 0 0 0
1158 286 4 -9.720840835716618 -1.755381198978431 -7.773767956731964 0 0 0
1104 268 4 -0.04896174735885511 -1.8085817658512895 -7.307353815931331 0 0 0
968 223 4 -0.402369950455516 -1.70123110155721 -7.481878556998875 0 0 0
1112 271 4 -0.41751774480555326 -1.914855147479234 -7.156439581825264 0 0 0
3086 929 4 -9.889931944911147 -1.3940757891264137 -7.813731962667156 1 0 0
905 202 4 -6.913623444558888 -0.4291852573429172 -6.861027148759641 0 0 0
765 155 4 -6.664240093809114 -0.2239985156045783 -7.09464018233005 0 0 0
763 155 2 -6.250314679498127 -0.23249387132066668 -7.374985648351524 0 0 0
1069 257 2 -5.119651739023523 -0.48639585167649707 -8.120325561830187 0 0 0
1070 257 4 -5.488514889357929 -0.3497579159212374 -7.81166709225893 0 0 0
764 155 4 -5.8363892651871385 -0.24098922703675504 -7.655331114372998 0 0 0
1857 519 4 -5.709384552646546 -0.04777734937492878 -7.9841889677001525 0 0 0
2007 569 4 -5.512222338628202 -0.013824791322454844 -7.636169745656416 0 0 0
2264 655 4 -3.435499064847105 -0.5121485821691248 -8.208361187316237 0 0 0
969 223 4 -0.9995705314018148 -1.4811316582871308 -8.253181157272321 0 0 0
967 223 2 -0.7009702409286654 -1.5911813799221703 -7.867529857135597 0 0 0
1127 276 4 -6.71052082105765 -9.727617384267466 -5.448017633233725 0 0 0
1126 276 2 -6.639563321125418 -9.390151757369972 -5.810070093336053 0 0 0
1128 276 4 -6.568605821193185 -9.052686130472479 -6.172122553438381 0 0 0
18 4 3 -6.644609102584772 -8.755865609102194 -6.459793715592952 0 0 0
930 210 4 -5.3663422111851835 -9.165868412362753 -6.530629260197272 0 0 0
928 210 2 -5.817558138501333 -8.985534419064683 -6.412799561913797 0 0 0
929 210 4 -6.268774065817483 -8.805200425766612 -6.294969863630322 0 0 0
1095 265 4 -5.004805564198469 -9.331766585983608 -6.587916428859594 0 0 0
1093 265 2 -4.745335645905139 -9.473751990888559 -6.184784308711939 0 0 0
26 6 1 -3.696505638458022 -9.312251783943996 -5.713931544400284 0 0 0
1094 265 4 -4.4858657276118095 -9.61573739579351 -5.781652188564284 0 0 0
27 6 3 -4.147056558157482 -9.385990187701694 -5.770203354123546 0 0 0
770 157 4 -4.370988586916853 -9.457800388281182 -5.429926888430451 0 0 0
30 6 3 -3.6215554878660012 -9.155801775292508 -5.292854509026148 0 0 0
29 6 3 -3.5555028752346103 -8.999580407969638 -6.026429274647982 0 0 0
2088 596 4 -4.183642350878812 -9.766508059931214 -5.620650727964388 0 1 0
769 157 2 -4.658259482655612 -9.282945694598656 -5.059925174166311 0 0 0
833 178 4 -3.546776013537411 -8.874581175247462 -4.998757729389076 0 0 0
28 6 3 -3.4700285287715764 -9.712316956775332 -5.776828096577705 0 0 0
1097 266 4 -3.4443389938686635 -9.050447927702404 -6.41541264727206 0 0 0
1208 303 4 -3.243397769437737 -8.800789239155051 -6.150151256578958 0 0 0
1209 303 4 -2.278954587630166 -8.956372659287595 -5.9365086848763635 0 0 0
1207 303 2 -2.7611761785339515 -8.878580949221323 -6.043329970727661 0 0 0
32 7 3 -2.064711041156519 -9.088051331003951 -5.615042243830716 0 0 0
31 7 1 -2.1805732581330637 -9.217334453911393 -5.189058886399377 0 0 0
34 7 3 -2.4663063937964718 -9.581970560428665 -5.215461253864714 0 0 0
2124 608 4 -2.6549425751469844 -9.961448176419164 -5.144640064374185 0 1 0
35 7 3 -1.8042243304161407 -9.331153534441736 -4.95926179870363 0 0 0
41 9 1 -6.350847685911112 -6.782645302947995 -6.55605864705246 0 0 0
42 9 3 -6.463834295617771 -6.939985434025577 -6.138831959052288 0 0 0
883 195 2 -9.692895358976365 -5.580516708095172 -6.0895782543840795 0 0 0
884 195 4 -9.834640256062075 -6.0200777782559 -6.281136208407513 0 0 0
885 195 4 -9.551150461890655 -5.140955637934444 -5.898020300360646 0 0 0
894 198 4 -6.987821944316124 -5.818444271670712 -5.1400680848903635 0 0 0
1016 239 4 -6.62720887682704 -5.752343548309616 -5.341391791304459 0 0 0
1015 239 2 -6.476243287291311 -5.920337822295164 -5.787471733337348 0 0 0
1017 239 4 -6.325277697755582 -6.088332096280712 -6.233551675370237 0 0 0
842 181 4 -5.949536477593384 -6.059885846369055 -6.429852210180095 0 0 0
44 9 3 -6.196615036088234 -6.346921290391315 -6.515353922385286 0 0 0
1227 309 4 -0.406778094254295 -5.0203809778172825 -5.813904287599149 0 0 0
982 228 2 -9.965203456342394 -4.874118501113949 -5.198094610446509 0 0 0
887 196 4 -9.872266340533109 -3.9817298604195774 -6.54240843756652 0 0 0
1214 305 4 -9.398969460759792 -4.771892326491065 -5.875146753689337 0 0 0
984 228 4 -9.693540391105133 -4.885162846650068 -5.617710150456148 0 0 0
1213 305 2 -8.916511430328876 -4.786863872366767 -5.744723973137945 0 0 0
1215 305 4 -8.43405339989796 -4.801835418242469 -5.614301192586553 0 0 0
888 196 4 -9.776540541961957 -4.814156494146349 -5.9966040120164745 0 0 0
861 187 4 -9.741827791316076 -3.5996530216330838 -6.435063933881665 0 0 0
859 187 2 -9.330672403344124 -3.3278147869876302 -6.351068570162786 0 0 0
886 196 2 -9.824403441247533 -4.397943177282963 -6.269506224791497 0 0 0
923 208 4 -8.354725057384988 -4.507420720890748 -5.34955163705241 0 0 0
837 179 4 -7.856221673068447 -3.4576503900843103 -6.663737789512729 0 0 0
922 208 2 -8.035680212688536 -4.704938078764373 -5.0191015191661155 0 0 0
909 203 4 -0.48470042376700745 -4.645377357852227 -5.68455061708232 0 0 0
908 203 4 -0.5626483316027717 -3.654126602414356 -5.791068519368654 0 0 0
2946 882 4 -0.5024657332937639 -3.2749293930580494 -5.631245869026732 0 0 0
907 203 2 -0.5236743776848897 -4.149751980133291 -5.737809568225487 0 0 0
993 231 4 -0.37098367241658164 -3.340035144839105 -6.015028271324243 0 0 0
836 179 4 -8.616310509027112 -2.8511054069627533 -6.430568012522255 0 0 0
860 187 4 -8.919517015372172 -3.0559765523421767 -6.267073206443907 0 0 0
1005 235 4 -8.609170508678512 -2.91872536401155 -6.0540561829643895 0 0 0
1003 235 2 -8.68208631822039 -2.6842235854998266 -5.6185195018526395 0 0 0
1004 235 4 -8.75500212776227 -2.4497218069881033 -5.1829828207408895 0 0 0
810 170 4 -8.432460158911441 -2.2291938858034404 -5.105932138488338 0 0 0
835 179 2 -8.23626609104778 -3.154377898523532 -6.547152901017492 0 0 0
1044 248 4 -7.119984697389018 -1.770142789094934 -5.053711319110464 0 0 0
809 170 4 -7.484785405373311 -1.9149147845978702 -5.1619786196548745 0 0 0
808 170 2 -7.958622782142376 -2.0720543352006553 -5.133955379071606 0 0 0
879 193 4 -2.227788730848254 -3.2290978229243983 -6.556637654844803 0 0 0
877 193 2 -2.1069944137190375 -2.8960633740547905 -6.203796629997217 0 0 0
12 3 3 -2.108013003812755 -3.1243483839140214 -5.206447075011664 0 0 0
878 193 4 -1.9862000965898212 -2.5630289251851828 -5.850955605149631 0 0 0
15 3 3 -1.9384206217622333 -2.4497024459137595 -5.476801069412861 0 0 0
11 3 1 -1.9461611553151048 -2.706867214626801 -5.101026714417037 0 0 0
1111 271 2 -0.5672029234000887 -1.7466806900414888 -6.709996193280898 0 0 0
2944 882 2 -0.8714308374215237 -3.155941394759037 -5.315482336938482 0 0 0
2945 882 4 -1.2403959415492836 -3.0369533964600244 -4.9997188048502315 0 0 0
904 202 2 -7.090444306043751 -0.6244218925516832 -6.436036514491014 0 0 0
1042 248 2 -7.131145544479991 -1.3771178012188987 -5.362591221981165 0 0 0
1043 248 4 -7.142306391570964 -0.9840928133428635 -5.671471124851866 0 0 0
906 202 4 -7.267265167528614 -0.8196585277604493 -6.011045880222387 0 0 0
2048 583 4 -5.647030583949403 -0.1288364157617612 -4.923667664921093 0 0 0
1113 271 4 -0.7168881019946242 -1.5785062326037438 -6.263552804736532 0 0 0
1059 253 4 -0.5812428450639918 -1.3234270842426974 -5.984048695595128 0 0 0
3161 954 4 -0.007925792092854489 -0.42754907023651456 -5.596229677433949 0 0 0
1175 292 4 -0.21821819580017737 -0.1344942400512344 -5.747900031279857 0 0 0
1057 253 2 -0.4744838264654354 -0.8864613475595033 -5.765729074597295 0 0 0
1058 253 4 -0.367724807866879 -0.44949561087630924 -5.547409453599462 0 0 0
1822 508 2 -6.851407750975795 -9.957533436420503 -3.497319258817424 0 1 0
3219 973 4 -9.99466809626075 -5.921146637978078 -0.7765915235104787 1 0 0
1080 260 4 -8.409921847301154 -8.797134379317107 -4.230256458231103 0 0 0
758 153 4 -7.348630640178464 -9.670628956341885 -4.123043094983711 0 0 0
759 153 4 -8.189891674930575 -9.131035381192662 -4.156489246724146 0 0 0
757 153 2 -7.76926115755452 -9.400832168767273 -4.139766170853928 0 0 0
1878 526 4 -7.124270815027476 -9.975232968517313 -4.290504472922652 0 1 0
1824 508 4 -7.151260593841406 -9.912922375151465 -3.8949348091142757 0 1 0
771 157 4 -4.94553037839437 -9.108091000916128 -4.68992345990217 0 0 0
22 5 3 -3.4819069046246014 -9.236767544383005 -4.84605523432319 0 0 0
23 5 3 -3.5131120691144355 -9.983118341204005 -4.763068935492387 0 0 0
832 178 2 -3.463463627516206 -8.532516325615482 -4.6437215552014495 0 0 0
33 7 3 -2.3941634555350335 -8.863685339646947 -4.977844465599907 0 0 0
24 5 3 -2.8658363804038647 -9.646988554133836 -4.976729762618534 0 0 0
25 5 3 -3.1256823108900686 -9.56002333929244 -4.275433003880007 0 0 0
21 5 1 -3.2451020800008417 -9.607759822100002 -4.7123084403085445 0 0 0
1248 316 4 -1.763150893179045 -8.532349782640015 -3.8659207091522587 0 0 0
1246 316 2 -1.7263516041595517 -8.864250731990028 -4.238059892990971 0 0 0
1247 316 4 -1.6895523151400578 -9.19615168134004 -4.610199076829684 0 0 0
1078 260 2 -8.543980202562478 -8.400877869482423 -3.9563785003772742 0 0 0
1154 285 4 -9.865284246164821 -7.630103188553482 -3.4414801906262844 0 0 0
1079 260 4 -8.678038557823804 -8.00462135964774 -3.682500542523445 0 0 0
1064 255 4 -8.713337849998453 -7.627856998893081 -3.5231096072496557 0 0 0
2931 877 4 -3.322051736755409 -6.813105164820013 -4.219756874326238 0 0 0
2929 877 2 -3.336188281797243 -7.312118083157468 -4.191716449463498 0 0 0
2930 877 4 -3.3503248268390764 -7.811131001494924 -4.163676024600758 0 0 0
834 178 4 -3.380151241495001 -8.190451475983503 -4.288685381013823 0 0 0
818 173 4 -2.144460835391225 -8.417475409789176 -3.869234371847116 0 0 0
817 173 2 -2.598559911440919 -8.240420425383832 -3.9807940492774083 0 0 0
819 173 4 -3.0526589874906134 -8.063365440978487 -4.0923537267077 0 0 0
2969 890 4 -9.711647177901 -4.975816612278043 -3.48219126824965 1 0 0
1245 315 4 -8.727333810803783 -5.09595489124933 -3.4546960020175517 0 0 0
1062 254 4 -8.506493194491972 -5.34436863868706 -3.6732529032065835 0 0 0
2968 890 2 -9.879625466184075 -4.950304208743705 -3.9524384499862792 1 0 0
1229 310 4 -8.613794680834674 -5.46525414235512 -3.3292768362960463 0 0 0
1060 254 2 -8.170097442682799 -5.188515890649316 -4.008734376754569 0 0 0
892 198 2 -7.289519209852528 -5.5435444782623575 -4.851262157749447 0 0 0
893 198 4 -7.591216475388931 -5.268644684854003 -4.56245623060853 0 0 0
1061 254 4 -7.8337016908736254 -5.032663142611572 -4.344215850302556 0 0 0
1167 289 4 -3.7055452900122843 -4.929833044061647 -3.7511147792354236 0 0 0
924 208 4 -7.716635367992084 -4.902455436637998 -4.688651401279821 0 0 0
882 194 4 -7.467522526053939 -4.914665133727845 -4.423846773982523 0 0 0
880 194 2 -7.313448390435086 -4.521231720117752 -4.156505587877437 0 0 0
1077 259 4 -7.318979262850358 -3.7581349618050863 -3.9579100960529927 0 0 0
881 194 4 -7.159374254816234 -4.1277983065076596 -3.8891644017723506 0 0 0
1130 277 4 -6.930418555915813 -3.847797367076875 -4.0757291954079395 0 0 0
1075 259 2 -7.3739176817281535 -3.325233629216879 -3.713823622902268 0 0 0
1129 277 2 -6.433500921328357 -3.7947976360783606 -4.059484413168666 0 0 0
891 197 4 -5.694294313258882 -3.496658382262907 -3.839396953851872 0 0 0
1131 277 4 -5.936583286740901 -3.741797905079846 -4.043239630929392 0 0 0
1107 269 4 -5.7400785831546335 -3.446462312059976 -4.256843075545414 0 0 0
1166 289 4 -3.933131241572312 -4.736338757181908 -4.705454653492841 0 0 0
1165 289 2 -3.819338265792298 -4.833085900621778 -4.228284716364132 0 0 0
64 13 3 -3.9083192836011307 -4.633058913380205 -3.5675329266387954 0 0 0
1178 293 4 -3.515084981278941 -4.659265223477049 -3.5703486593026708 0 0 0
1177 293 2 -3.0299720496466964 -4.630830854498951 -3.4526331963259755 0 0 0
1038 246 4 -2.1962028323416956 -4.490152192038176 -3.4773960416618044 0 0 0
1036 246 2 -1.845541227041805 -4.143778039715646 -3.561428090140394 0 0 0
1179 293 4 -2.5448591180144517 -4.6023964855208535 -3.3349177333492803 0 0 0
1037 246 4 -1.4948796217419147 -3.797403887393117 -3.6454601386189838 0 0 0
1224 308 4 -1.2692623607438924 -3.5846413804252233 -3.884253403118217 0 0 0
1014 238 4 -1.1126120958094163 -3.797925633865922 -3.6106053590039155 0 0 0
1222 308 2 -1.4010257748887895 -3.3261512029062885 -4.2914649339215885 0 0 0
1012 238 2 -0.7119745427047047 -4.022160522274087 -3.412594586915147 0 0 0
1022 241 4 -1.2788206527291879 -3.44331828062076 -3.5168145888819944 0 0 0
433 87 3 -9.403941035625152 -2.082864200061253 -4.575712053507952 1 0 0
3234 978 4 -8.901800317146943 -2.146281279649078 -3.7428424660720436 1 0 0
431 87 1 -9.0027668873057 -2.29312254915798 -4.474961225444866 1 0 0
435 87 3 -8.801361593584499 -2.0837100070311787 -4.124272909612731 1 0 0
1199 300 4 -8.661850175720035 -1.8568761829409541 -3.8599982187991047 0 0 0
434 87 3 -9.079310244845095 -2.738694311970646 -4.370525031523762 1 0 0
432 87 3 -8.727238214435399 -2.271789755791067 -4.842695997194302 1 0 0
1047 249 4 -8.525055835595467 -2.2525977526153613 -3.884015838658799 0 0 0
3232 978 2 -9.17690861446445 -2.2115346002292746 -3.3304622666196764 1 0 0
1045 249 2 -8.18063565156286 -2.5766588749737225 -3.7216609009249533 0 0 0
1076 259 4 -7.428856100605949 -2.8923322966286715 -3.4697371497515435 0 0 0
1046 249 4 -7.836215467530252 -2.9007199973320836 -3.5593059631911075 0 0 0
1106 269 4 -5.3552762494614194 -2.7684663206142974 -4.883140608326618 0 0 0
889 197 2 -5.396708063794392 -3.266233182587252 -3.510236428448175 0 0 0
1105 269 2 -5.5476774163080265 -3.1074643163371367 -4.569991841936016 0 0 0
1250 317 4 -5.046321156021291 -2.5204283037124373 -4.834316044665791 0 0 0
1249 317 2 -4.771911112550076 -2.258978331545269 -4.508213238643169 0 0 0
1251 317 4 -4.4975010690788615 -1.9975283593781006 -4.182110432620546 0 0 0
975 225 4 -4.487824145546842 -2.1701961308194946 -3.8073133170361126 0 0 0
973 225 2 -4.70870596315606 -2.429412498275945 -3.4412284942254194 0 0 0
1085 262 4 -4.4549945556818775 -1.777905207943918 -3.849793888238955 0 0 0
13 3 3 -2.223808537906593 -2.5142436693260075 -4.783051714243641 0 0 0
1152 284 4 -2.361283548807199 -2.2205555566104977 -4.570584319153683 0 0 0
1150 284 2 -2.438922775887689 -1.8050434542063194 -4.303522822164975 0 0 0
14 3 3 -1.5168735984772024 -2.7510646789190605 -4.930560360863902 0 0 0
1223 308 4 -1.5327891890336864 -3.0676610253873537 -4.69867646472496 0 0 0
3224 975 4 -0.9700998001865807 -2.303826006722597 -4.0428671344819005 0 0 0
3223 975 2 -0.9914011828827093 -1.9688580864506107 -3.6722693154329433 0 0 0
1198 300 2 -8.682782138354606 -1.3602163225044368 -3.91376471367858 0 0 0
231 47 1 -9.26982478928545 -0.48568188963589437 -3.546949338429302 0 0 0
234 47 3 -8.84834468976247 -0.5395720075198792 -3.733363878903954 0 0 0
235 47 3 -9.57031793757601 -0.3763099820785103 -3.8712048760343203 0 0 0
1200 300 4 -8.703714100989176 -0.8635564620679195 -3.967531208558055 0 0 0
900 200 4 -8.462190598558255 -0.550293112632029 -3.8408902015957986 0 0 0
232 47 3 -9.396942515627169 -0.881387227327985 -3.3498240752803854 0 0 0
898 200 2 -8.008789549668723 -0.34863474883721224 -3.90222039951817 0 0 0
899 200 4 -7.555388500779192 -0.1469763850423955 -3.963550597440541 0 0 0
1186 296 2 -7.044193108770116 -0.1651885402514778 -3.347628493961858 0 0 0
2149 617 2 -9.898613609519511 -8.103618045080353 -1.1634184721489012 0 1 0
1853 518 4 -5.51047230815565 -0.3353993204757771 -4.579967796329454 0 0 0
1852 518 2 -5.163074056436584 -0.4510916884192773 -4.239483243519557 0 0 0
4 1 3 -3.853013677331296 -0.12159005603094625 -4.339449966888025 0 0 0
755 152 4 -3.552329266019015 -0.04398120832844393 -4.614075811597706 0 0 0
1084 262 2 -4.4738236039473875 -1.2783577002225162 -3.8399068021813036 0 0 0
1854 518 4 -4.815675804717518 -0.5667840563627775 -3.8989986907096608 0 0 0
1086 262 4 -4.492652652212898 -0.7788101925011144 -3.8300197161236524 0 0 0
2 1 3 -4.461902959559107 -0.41735953774236656 -4.012839716473369 0 0 0
1 1 1 -4.044583635883617 -0.240660963089945 -3.933958820163116 0 0 0
3 1 3 -3.783344376281419 -0.5611513202197608 -3.723388213883012 0 0 0
2183 628 4 -3.416839025534728 -0.665878120565462 -3.8047592774402808 0 0 0
1151 284 4 -2.516562002968179 -1.389531351802141 -4.036461325176267 0 0 0
927 209 4 -2.4271541531840763 -1.392135753746967 -3.6231265974371407 0 0 0
2184 628 4 -2.4907547253349205 -1.0430067749753813 -3.81666922901058 0 0 0
2182 628 2 -2.9537968754348243 -0.8544424477704217 -3.8107142532254303 0 0 0
3225 975 4 -1.0127025655788378 -1.6338901661786245 -3.3016714963839866 0 0 0
85 17 3 -9.254640099603979 -8.462537005234621 -2.927906540924626 0 0 0
2040 580 4 -0.0804367346683329 -9.708125343111831 -1.5332053835017285 0 1 0
560 112 3 -9.987333149367931 -0.8157095864033812 -9.895347780012635 1 0 0