LAMMPS data file via write_data, version 27 Jun 2024, timestep = 6000000, units = lj

4590 atoms
4 atom types
3090 bonds
1 bond types

-9.99857 9.99857 xlo xhi
-9.99857 9.99857 ylo yhi
-9.99857 9.99857 zlo zhi

Masses

1 1
2 1
3 0.5
4 0.5

Bond Coeffs # zero

1 0

Atoms # bond

2251 721 2 -9.91481391289343 -9.546410272559724 -9.9012449706269 0 1 1
3960 1290 4 -9.708226495108459 -0.14479307713306663 -7.195600100934116 1 0 0
553 155 2 -7.659502862876347 -8.821692331624545 -9.98986781182065 0 0 0
555 155 4 -8.153714877554743 -8.889511387891737 -9.95588163589233 0 0 0
357 89 4 -6.702536386656031 -8.523100338205667 -8.638216149974667 0 0 0
486 132 4 -5.862379398544798 -9.78555519507586 -9.660308046684094 0 0 0
1476 462 4 -4.235957333641817 -9.663275831511557 -9.53129601713297 0 1 0
2468 793 4 -0.34193637863331505 -9.683802393324415 -9.317461877223591 0 0 0
148 30 3 -0.6527949588222967 -9.429305039072666 -9.342281237389555 0 0 1
146 30 1 -0.4248946345999797 -9.105519553408733 -9.584199408457103 0 0 1
150 30 3 -0.02064654036411656 -9.267189102403218 -9.71778995915036 0 0 1
1485 465 4 -0.9615103434419737 -0.6595788801146949 -1.755438283642622 0 0 0
147 30 3 -0.3597667425782158 -8.737690213556927 -9.315759593182019 0 0 1
1761 557 4 -0.27203433355834916 -8.506742687159518 -8.9960354018107 0 1 0
516 142 4 -4.316740268798653 -9.822230610943784 -5.609924391804182 0 0 0
149 30 3 -0.6748494833684751 -8.97892721513923 -9.954060130173415 0 0 1
1842 584 4 -7.238661204308009 -7.100893662762728 -9.638932987354584 0 1 0
1473 461 4 -2.7699988233789274 -0.05925904216403527 -5.490406014016942 0 0 0
1840 584 2 -7.053376606058152 -6.683346636046115 -9.435649692095303 0 1 0
701 204 4 -7.533209453361354 -6.905058122436863 -9.833538167271483 0 0 0
2442 784 4 -2.1692143048109642 -8.201726716095127 -9.96248169437232 0 1 1
1253 388 4 -2.9317577975357194 -6.834092785573333 -9.027398113403645 0 0 1
744 218 4 -2.6888981396647553 -7.719137248552662 -8.550865917421298 0 0 0
1252 388 2 -3.0688572684578355 -7.0542091224453465 -9.454893766381337 0 0 1
742 218 2 -2.902109196353293 -8.11760046128688 -8.336931082944606 0 0 0
2440 784 2 -1.8935040674347499 -7.880925564807261 -9.695891210036413 0 1 1
2441 784 4 -1.6177938300585355 -7.560124413519394 -9.429300725700505 0 1 1
1759 557 2 -0.4540650818516787 -8.166726193733384 -8.67783170781307 0 1 0
1760 557 4 -0.6360958301450083 -7.8267097003072506 -8.35962801381544 0 1 0
2976 962 4 -1.2270375397110125 -7.497548173885548 -9.37754898511716 0 0 1
2974 962 2 -0.8035299294748136 -7.247379273193422 -9.46730880462615 0 0 1
2975 962 4 -0.38002231923861485 -6.997210372501296 -9.55706862413514 0 0 1
24 5 3 -0.15307838043835256 -6.834576495314092 -9.827134761851722 0 0 0
623 178 4 -8.747931771438706 -6.113124936421422 -8.37925010516474 0 0 0
703 205 2 -9.086199769890104 -5.734925729368916 -8.947533534498602 0 0 0
704 205 4 -8.677111406442155 -5.879432145310476 -8.69900867328117 0 0 0
705 205 4 -9.495288133338054 -5.590419313427356 -9.196058395716033 0 0 0
2967 959 4 -9.38042776130264 -5.872851203024985 -9.51183688914265 1 0 0
1841 584 4 -6.868092007808295 -6.265799609329501 -9.232366396836023 0 1 0
450 120 4 -6.8221179045788976 -5.871670527682314 -9.28827492660057 0 0 0
448 120 2 -6.439490779597334 -5.737099131608252 -8.995893288007583 0 0 0
449 120 4 -6.056863654615771 -5.60252773553419 -8.703511649414596 0 0 0
280 64 2 -2.660643611984718 -5.500649525408647 -8.61363088455096 0 0 0
359 90 4 -2.3589655481794582 -5.802333510595251 -9.40913531408173 0 0 0
282 64 4 -2.4614718753682827 -5.663204279667916 -9.04247417900806 0 0 0
358 90 2 -2.708090429034783 -5.926711981607195 -9.744756847235253 0 0 0
1474 462 2 -4.616386602231888 -9.905742942167079 -9.315696221561797 0 1 0
25 5 3 -0.3321628263001374 -6.312857284051517 -9.314652736947505 0 0 0
969 293 4 -9.12271842555879 -3.8328192229791176 -9.031290613859396 0 0 1
462 124 4 -8.968485941294963 -4.1383928446980445 -8.872664233959572 0 0 0
460 124 2 -8.555701753562117 -4.417696334195332 -8.83267954798856 0 0 0
967 293 2 -8.927889200317313 -3.5011447435038776 -9.350717620633676 0 0 1
461 124 4 -8.14291756582927 -4.69699982369262 -8.792694862017548 0 0 0
455 122 4 -7.621930559801071 -4.818210660692157 -9.615814645020366 0 0 0
293 68 4 -8.002498321792856 -4.563062860033644 -8.43209550012528 0 0 0
2513 808 4 -5.413370268881413 -3.280389353950281 -8.463160465549429 1 0 0
902 271 4 -5.13432266177316 -4.3020843117735295 -8.399079313432868 0 0 1
2805 905 4 -0.15192269261584546 -0.1751828891250718 -9.956756619103937 0 0 0
2772 894 4 -9.466286941346024 -0.015941649553715076 -8.483441083794279 1 0 0
377 96 4 -0.012986283088401135 -7.009226631164929 -6.179174215321791 0 0 0
2876 929 4 -2.972700334800309 -5.002024986770564 -8.36489495861866 0 0 0
2541 817 4 -9.365079679181841 -2.0793239774550245 -8.489908844490957 1 0 0
968 293 4 -8.733059975075836 -3.1694702640286376 -9.670144627407955 0 0 1
2807 906 4 -9.040671986257253 -3.1940565798315896 -9.9047217899985 1 0 0
287 66 4 -7.131729497119118 -1.8068057120732908 -8.70090413682081 0 0 0
286 66 2 -7.158517672811669 -2.2696015191022436 -8.513547699410465 0 0 0
1079 330 4 -6.3935250912791854 -2.154474972936958 -9.65493500350388 0 0 1
494 135 4 -6.341285687551377 -2.498624010151308 -9.866622070470886 0 0 0
1078 330 2 -6.22836484365906 -1.772679408096637 -9.377528732352125 0 0 1
493 135 2 -5.876333896851625 -2.6702527469102324 -9.932678175743769 0 0 0
2512 808 2 -5.412765844601641 -2.784717997774384 -8.528807562499257 1 0 0
2445 785 4 -5.420843438045925 -1.9561938022456835 -8.826332531996897 0 0 1
2514 808 4 -5.412161420321871 -2.289046641598487 -8.594454659449084 1 0 0
21 5 1 -0.05211082596078905 -6.413956065815548 -9.659253830143326 0 0 0
1551 487 4 -3.9999903099625853 -1.948481959893083 -8.934300967482033 0 0 0
1070 327 4 -3.9751411317547114 -2.1671798621354275 -8.62102065348019 0 0 1
1549 487 2 -4.165850532026342 -1.6345402846398214 -9.286339333681294 0 0 0
609 173 4 -2.663803124166668 -3.168506084746602 -8.333341225010917 0 0 0
309 73 4 -1.4364672604760063 -2.965544842705506 -9.226365652235241 0 0 0
2841 917 4 -1.2782032575438633 -2.687280979219914 -9.455540403908016 0 0 0
307 73 2 -1.478154302913699 -2.9695274311183995 -8.728122408946794 0 0 0
2839 917 2 -1.2757123073902632 -2.977691028737578 -9.862548755549664 0 0 0
2771 894 4 -9.284087663964904 -0.48739126668898186 -9.346307633050039 1 0 0
2522 811 4 -9.225206486432002 -0.7837113089942451 -9.588824342344484 1 0 0
396 102 4 -9.878746695680919 -2.4361567580489014 -4.122048624243499 0 0 0
2770 894 2 -9.375187302655464 -0.25166645812134847 -8.914874358422159 1 0 0
3337 1083 2 -8.025600214270295 -0.8098243554620508 -9.905759376166543 1 0 1
3339 1083 4 -8.112212793266524 -0.7655186578303704 -9.415315427975358 1 0 1
3450 1120 4 -8.153401165022371 -0.4712192464011163 -9.144689040340653 1 0 1
3448 1120 2 -8.205436741363453 -0.5636298172419905 -8.656065887807404 1 0 1
330 80 4 -6.35534694728278 -0.1128146467544931 -8.106531539421926 0 0 0
1080 330 4 -6.0632045960389345 -1.3908838432563162 -9.100122461200371 0 0 1
2377 763 2 -6.26337395852264 -0.5401797908831241 -9.306788797712981 0 0 1
2378 763 4 -6.0624537858664365 -0.9782060163346833 -9.173506728265819 0 0 1
2379 763 4 -6.464294131178843 -0.1021535654315649 -9.440070867160143 0 0 1
638 183 4 -5.291860342534812 -0.29010406660649046 -8.697223128325476 0 0 0
243 51 4 -5.353044741454948 -0.0995352652963703 -9.060817205322953 0 0 0
596 169 4 -4.274171519406617 -0.9722796307171364 -9.782666596224981 0 0 0
1550 487 4 -4.331710754090099 -1.3205986093865598 -9.638377699880555 0 0 0
1863 591 4 -4.1398101898901025 -0.6006099679298149 -8.968589483138876 0 0 0
1861 591 2 -4.1610586186795535 -0.6967600331303786 -8.478381701442245 0 0 0
13 3 3 -2.852529301929379 -0.5519441438675811 -8.905780320051571 0 0 0
14 3 3 -3.23072197602414 -0.14318818674797507 -9.422973580621612 0 0 0
11 3 1 -2.8269881298459123 -0.19407166680022275 -9.200016515455573 0 0 0
15 3 3 -2.491432595319379 -0.26323256397056227 -9.500048602990837 0 0 0
2803 905 2 -0.04039136810898587 -0.5285051759075408 -9.621012482421415 0 0 0
2109 673 4 -3.162896924128681 -0.7982119456024215 -0.6415933955247048 0 0 0
2179 697 2 -4.167240751369549 -9.34861328796416 -6.9238801459309505 0 1 1
2181 697 4 -4.663219504084955 -9.30244363658676 -6.880596891126643 0 1 1
2180 697 4 -3.6712619986541437 -9.394782939341559 -6.967163400735258 0 1 1
1749 553 4 -3.5226690330720674 -9.010570652603393 -6.947557900351211 0 1 0
1747 553 2 -3.3213085080511364 -8.775889517330825 -7.3404684546898 0 1 0
254 55 4 -1.0548714657555458 -8.851523740044817 -7.461838267734925 0 0 0
253 55 2 -1.3935442500642277 -8.48650007789524 -7.416467889296048 0 0 0
556 156 2 -0.6603625739410752 -9.318175944584238 -7.3810162399776305 0 0 0
558 156 4 -0.16996186679834563 -9.406851312874 -7.421560357835623 0 0 0
654 188 4 -0.1918129490238701 -9.40481334798592 -7.813937914968903 0 0 0
557 156 4 -1.1507632810838049 -9.229500576294477 -7.340472122119638 0 0 0
578 163 4 -7.267559069400084 -7.259966379914191 -6.796774973751695 0 0 0
507 139 4 -7.50103300546488 -7.2204709184582665 -7.157031388750111 0 0 0
505 139 2 -7.636037379634702 -6.866842864577503 -7.483713219379987 0 0 0
355 89 2 -6.398398550408488 -8.169094490103713 -8.458828201461031 0 0 0
758 223 4 -5.72739588439802 -7.6155385816909344 -8.249318891003005 0 0 0
356 89 4 -6.094260714160945 -7.81508864200176 -8.279440252947396 0 0 0
757 223 2 -5.392102338518975 -7.247386336555274 -8.204128598983282 0 0 0
759 223 4 -5.056808792639929 -6.8792340914196135 -8.158938306963558 0 0 0
721 211 2 -4.212268201107253 -7.012223798668552 -8.05219270707976 0 0 0
723 211 4 -3.7561836637008614 -7.140902822080112 -7.892729220121936 0 0 0
1748 553 4 -3.1199479830302055 -8.541208382058256 -7.733379009028389 0 1 0
743 218 4 -3.1153202530418307 -8.516063674021098 -8.122996248467913 0 0 0
1505 472 4 -1.7455171611300122 -8.092443100630314 -6.980552061382158 0 1 0
255 55 4 -1.7322170343729095 -8.121476415745663 -7.3710975108571715 0 0 0
2894 935 4 -1.380543461991214 -6.532353827446725 -8.179962975316913 0 0 0
622 178 2 -8.434299101468506 -6.399598521340752 -8.115493714776857 0 0 0
506 139 4 -7.771041753804525 -6.513214810696739 -7.810395050009863 0 0 0
624 178 4 -8.120666431498305 -6.686072106260082 -7.851737324388974 0 0 0
915 275 4 -6.091874475744931 -5.610705105337586 -8.291363146442187 0 0 1
913 275 2 -6.291958417789823 -5.26839166884656 -7.98675203808671 0 0 1
914 275 4 -6.4920423598347154 -4.926078232355533 -7.682140929731234 0 0 1
722 211 4 -4.668352738513645 -6.883544775256992 -8.211656194037584 0 0 0
352 88 2 -4.147927278465778 -5.763318613064999 -7.627991597392833 0 0 0
353 88 4 -4.25239315404757 -6.244643395190104 -7.541890871779949 0 0 0
354 88 4 -4.043461402883985 -5.281993830939895 -7.714092323005716 0 0 0
281 64 4 -2.859815348601153 -5.338094771149379 -8.184787590093858 0 0 0
693 201 4 -2.614080023993454 -6.094572528287394 -7.494437719535587 0 0 0
691 201 2 -2.796413063463142 -6.412303440315153 -7.154141186700154 0 0 0
2600 837 4 -0.07462250080452948 -6.122131697713595 -7.908690221885221 0 0 0
2893 935 2 -0.9193215082733177 -6.362936636251278 -8.08737720569803 0 0 0
2895 935 4 -0.45809955455542145 -6.193519445055831 -7.9947914360791446 0 0 0
2797 903 2 -9.671379793488288 -3.9299485643271495 -7.474310271026966 1 0 0
2799 903 4 -9.383868486126456 -4.2929777779197 -7.285771049068465 1 0 0
756 222 4 -9.45732420757977 -4.558778721615414 -7.012177558773375 0 0 0
1698 536 4 -3.083699039775509 -0.5253421680560744 -0.3716290027007319 0 0 0
2798 903 4 -9.95889110085012 -3.566919350734599 -7.662849492985467 1 0 0
292 68 2 -7.728743184470414 -4.327860298256781 -8.086063883473185 0 0 0
294 68 4 -7.454988047147972 -4.09265773647992 -7.74003226682109 0 0 0
525 145 4 -7.166401383757147 -3.8116102776498364 -7.716150242081825 0 0 0
523 145 2 -7.258386983870378 -3.3397164116660765 -7.85346312792666 0 0 0
104 21 3 -7.383106180399832 -4.36983054759644 -7.462725573958301 0 0 0
102 21 3 -6.801754765577957 -3.901324262881412 -7.548936905387656 0 0 0
103 21 3 -6.903226309197648 -4.242965030372269 -6.887208024482954 0 0 0
101 21 1 -6.940731791697579 -4.290680296232113 -7.347226059114484 0 0 0
901 271 2 -5.156049877360743 -3.8246879041637873 -8.252039869391812 0 0 1
903 271 4 -5.177777092948325 -3.347291496554045 -8.105000425350756 0 0 1
105 21 3 -6.678960301808782 -4.635080426521638 -7.4895785699383035 0 0 0
296 69 4 -4.881585357885257 -4.345269716855347 -8.07104396429611 0 0 0
295 69 2 -4.512778368149834 -4.63034796908223 -7.89017994236364 0 0 0
297 69 4 -4.143971378414411 -4.915426221309113 -7.709315920431171 0 0 0
517 143 2 -3.1929686910387214 -4.250695374686887 -6.837139633037829 0 0 0
2875 929 2 -3.2497131629291545 -4.65028146062211 -8.14231826427619 0 0 0
2877 929 4 -3.526725991058 -4.298537934473655 -7.91974156993372 0 0 0
518 143 4 -2.758442898771275 -4.035402404734287 -6.9589438732873035 0 0 0
2108 673 4 -2.5250052005939914 -1.495380779160894 -0.9687780017636862 0 0 0
1952 621 4 -1.7779379399016815 -1.1731398400157305 -1.6257604839577926 0 0 0
2652 854 4 -0.3103000044156122 -3.264626447063199 -7.3020232226374615 0 0 0
2539 817 2 -9.716416049544481 -2.171281768120396 -8.146242553451678 1 0 0
2107 673 2 -2.843951062361336 -1.1467963623816577 -0.8051856986441956 0 0 0
1173 361 4 -3.711228271645737 -1.1511021562378954 -0.8945558413247916 0 0 0
288 66 4 -7.18530584850422 -2.7323973261311965 -8.326191262000119 0 0 0
524 145 4 -7.350372583983608 -2.8678225456823156 -7.990776013771495 0 0 0
416 109 4 -7.40335584208415 -2.6239000354171806 -6.657039688142534 0 0 0
415 109 2 -7.202531040562464 -2.166547642588767 -6.6347195656594335 0 0 0
2443 785 2 -5.5375427358964195 -1.5849980245942623 -8.512334174461122 0 0 1
1069 327 2 -3.8012180649775864 -2.4494029215025113 -8.246720090290022 0 0 1
1121 344 4 -4.605644354724553 -3.155193942730068 -7.0415268600938035 0 0 1
1071 327 4 -3.6272949982004614 -2.731625980869595 -7.872419527099854 0 0 1
1122 344 4 -3.824852909418326 -2.7616051560749852 -7.526761428067278 0 0 1
1120 344 2 -4.2152486320714395 -2.9583995494025266 -7.284144144080541 0 0 1
607 173 2 -2.8430325890784163 -3.1274348264432628 -7.868378914012359 0 0 0
608 173 4 -3.0222620539901643 -3.0863635681399235 -7.4034166030138016 0 0 0
2538 816 4 -2.9128685273855703 -3.2538761429249274 -7.070772851365424 0 0 0
528 146 4 -2.0791584216312016 -2.151497234369774 -7.136778891209017 0 0 0
526 146 2 -1.6722271483288946 -2.3191730947794755 -6.8995200775804975 0 0 0
308 73 4 -1.5198413453513917 -2.973510019531293 -8.229879165658346 0 0 0
527 146 4 -1.2652958750265877 -2.4868489551891773 -6.662261263951978 0 0 0
2651 854 4 -0.8877731005770659 -2.6219671686569224 -6.798521608849032 0 0 0
2650 854 2 -0.599036552496339 -2.9432968078600608 -7.050272415743247 0 0 0
1103 338 4 -9.460128440267837 -0.3579164408202772 -8.265503634346853 0 0 1
1102 338 2 -9.736272601085354 -0.3177310712505326 -7.8506186641218205 0 0 1
314 75 4 -8.838590366563189 -0.9642983117792281 -7.022605934786536 0 0 0
313 75 2 -8.937045948012852 -0.7032033210977747 -6.607713292862616 0 0 0
3449 1120 4 -8.257472317704536 -0.6560403880828647 -8.167442735274156 1 0 1
2094 668 4 -8.026641721770627 -0.48555678033200655 -7.884754760731698 0 0 1
2092 668 2 -7.6634124337816 -0.555376876883684 -7.548318082493025 0 0 1
2093 668 4 -7.300183145792572 -0.6251969734353614 -7.211881404254352 0 0 1
637 183 2 -5.483862751516386 -0.18722166263388537 -8.247167258574098 0 0 0
768 226 4 -5.45767454219349 -1.0697188114673002 -7.00278561137186 0 0 0
2444 785 4 -5.654242033746914 -1.2138022469428411 -8.198335816925347 0 0 1
766 226 2 -5.392499977347729 -1.04308537914049 -7.49780372859464 0 0 0
767 226 4 -5.327325412501968 -1.0164519468136797 -7.99282184581742 0 0 0
639 183 4 -5.6758651604979615 -0.08433925866128031 -7.79711138882272 0 0 0
1786 566 2 -4.459640397231829 -0.40522618926040216 -7.363874535652262 0 0 0
1787 566 4 -4.09964577193993 -0.5410966807508107 -7.683159798862997 0 0 0
1862 591 4 -4.1823070474690045 -0.7929100983309423 -7.9881739197456145 0 0 0
1788 566 4 -4.819635022523728 -0.2693556977699936 -7.044589272441527 0 0 0
741 217 4 -2.1906393642448405 -0.35714735526430436 -6.861778489933544 0 0 0
403 105 2 -5.180600277467736 -9.831690828108853 -6.635460613905762 0 0 0
404 105 4 -5.010052268131113 -9.494657416495311 -6.963060760375949 0 0 0
514 142 2 -3.978003179547016 -9.478124058405411 -5.739723717169434 0 0 0
515 142 4 -3.639266090295379 -9.134017505867039 -5.869523042534685 0 0 0
2910 940 4 -3.4148077079473707 -8.828009399151936 -5.791612141934502 0 0 0
2908 940 2 -3.1369365264602895 -8.77537492727817 -5.379280698955153 0 0 0
2573 828 4 -1.4129333211606192 -9.100308362339756 -5.240090916179186 0 0 0
2572 828 2 -1.6481131837434542 -8.752738763890783 -5.511910353434564 0 0 0
1219 377 2 -9.09776030272457 -6.607067498972481 -5.023130924833492 0 0 0
1221 377 4 -9.378109877352873 -6.302560924539882 -5.303630233448584 0 0 0
577 163 2 -7.474234983613314 -7.240004341794062 -6.341927105208833 0 0 0
236 49 4 -7.761279431500102 -7.439336537949916 -5.5388195681716095 0 0 0
235 49 2 -7.740440252399835 -7.0051633676549026 -5.2917175916315875 0 0 0
579 163 4 -7.680910897826545 -7.220042303673934 -5.887079236665969 0 0 0
237 49 4 -7.719601073299567 -6.570990197359889 -5.0446156150915655 0 0 0
30 6 3 -5.142141952672645 -8.02131529103727 -5.306320663561826 0 0 0
27 6 3 -4.533857123628236 -8.130688712085837 -5.724682972479504 0 0 0
604 172 2 -4.660712626621676 -6.657668675017534 -5.928405366190389 0 0 0
605 172 4 -4.924107777441558 -7.034536564283206 -5.731952856497298 0 0 0
29 6 3 -4.8575426955054475 -7.452536033344703 -5.709301331632842 0 0 0
26 6 1 -4.757899496743869 -7.829894752234976 -5.458359843994387 0 0 0
1504 472 2 -1.865989153522608 -8.098017510911923 -6.495314567984953 0 1 0
331 81 2 -1.8252066084184524 -6.649220055849778 -5.331593717185597 0 0 0
333 81 4 -2.160859668079766 -6.795331604819275 -4.991022962719707 0 0 0
1506 472 4 -1.986461145915204 -8.103591921193532 -6.010077074587747 0 1 0
692 201 4 -2.9787461029328304 -6.730034352342912 -6.813844653864721 0 0 0
2516 809 4 -2.559909445963079 -6.844724278142338 -5.063425070335026 0 0 0
2574 828 4 -1.8832930463262891 -8.405169165441809 -5.783729790689941 0 0 0
630 180 4 -1.186576491942808 -6.530779899040545 -5.920840485758527 0 0 0
628 180 2 -0.741992527600431 -6.757729849547426 -5.891878120272315 0 0 0
332 81 4 -1.489553548757139 -6.503108506880281 -5.672164471651487 0 0 0
629 180 4 -0.2974085632580543 -6.984679800054305 -5.862915754786103 0 0 0
475 129 2 -9.210209603578129 -5.845740972473846 -5.965623325964075 0 0 0
476 129 4 -9.317823236266687 -5.528952917733203 -6.337193823222971 0 0 0
477 129 4 -9.10259597088957 -6.162529027214489 -5.59405282870518 0 0 0
755 222 4 -9.038891428646263 -5.311303116491966 -6.503629582050658 0 0 0
754 222 2 -9.248107818113017 -4.93504091905369 -6.757903570412017 0 0 0
749 220 4 -7.154082597235741 -5.092724550106617 -4.943538749943424 0 0 0
748 220 2 -6.836622751153899 -4.982988029871463 -5.313913077148265 0 0 0
457 123 2 -7.373823697080439 -5.885266181975012 -4.995206713726358 0 0 0
458 123 4 -7.460996611884749 -6.347748991368673 -4.826356087610972 0 0 0
732 214 4 -5.412726494429495 -5.464398462381303 -6.684588457483974 0 0 0
581 164 4 -5.713471361856504 -5.603763961586097 -6.43610271503485 0 0 0
580 164 2 -6.079053442269714 -5.413467909650482 -6.153017648140429 0 0 0
582 164 4 -6.444635522682924 -5.223171857714867 -5.869932581246007 0 0 0
750 220 4 -6.519162905072058 -4.87325150963631 -5.684287404353106 0 0 0
606 172 4 -4.397317475801794 -6.280800785751861 -6.12485787588348 0 0 0
730 214 2 -5.0736360637118905 -5.759612129066056 -6.465804155491435 0 0 0
731 214 4 -4.734545632994287 -6.054825795750809 -6.247019853498895 0 0 0
251 54 4 -4.01796259202151 -5.382889632051037 -5.686849454691431 0 0 0
350 87 4 -4.23109558548942 -5.275461932745645 -6.025396677529659 0 0 0
250 54 2 -4.300743665172963 -5.316347094664252 -5.279901109829634 0 0 0
2517 809 4 -3.2513404799088184 -6.165516181816902 -4.817255439422724 0 0 0
2515 809 2 -2.9056249629359487 -6.50512022997962 -4.940340254878875 0 0 0
362 91 4 -7.183287699238486 -3.7496871306498805 -6.239006634672358 0 0 0
279 63 4 -6.510646469981773 -4.288998924181559 -6.885952885098317 0 0 0
277 63 2 -6.097011794562407 -4.211931857952359 -6.615828797699435 0 0 0
278 63 4 -5.683377119143041 -4.1348647917231585 -6.345704710300553 0 0 0
734 215 4 -5.652620330350238 -3.8434209721378685 -6.112645819479153 0 0 0
733 215 2 -5.624917754700595 -3.3587613772556244 -5.992905916391488 0 0 0
519 143 4 -3.6274944833061684 -4.465988344639488 -6.715335392788354 0 0 0
351 87 4 -4.007387851714302 -4.556475986090892 -6.68343471469873 0 0 0
349 87 2 -4.119241718601861 -4.915968959418269 -6.354415696114194 0 0 0
275 62 4 -0.8580211840043261 -3.649662603261115 -5.619711224178444 0 0 0
497 136 4 -0.6610676108643634 -3.3566101068138554 -5.846414518025363 0 0 0
496 136 2 -0.2787880831434103 -3.4936740571666203 -6.138092141780403 0 0 0
274 62 2 -1.093613720188832 -4.000112975697957 -5.3519787208231655 0 0 0
363 91 4 -7.635326563275681 -2.880336593245717 -6.438732718389107 0 0 0
361 91 2 -7.4093071312570835 -3.3150118619477986 -6.338869676530733 0 0 0
289 67 2 -5.821853185510137 -2.291637433817818 -6.110461827837285 0 0 0
290 67 4 -5.724687944839897 -2.7641301491157613 -6.2420275908453275 0 0 0
735 215 4 -5.597215179050953 -2.8741017823733803 -5.873166013303824 0 0 0
339 83 4 -6.106870430585011 -1.5647621580113416 -5.72123021934092 0 0 0
2536 816 2 -2.7312172928033487 -3.2847870806286354 -6.605963919754708 0 0 0
2537 816 4 -2.549566058221127 -3.3156980183323435 -6.141154988143992 0 0 0
714 208 4 -2.3747696798395945 -3.1629073583310174 -5.812116944653927 0 0 0
712 208 2 -2.2282717400130343 -3.078416367260003 -5.341585727778803 0 0 0
713 208 4 -2.0817738001864736 -2.993925376188989 -4.8710545109036785 0 0 0
315 75 4 -9.035501529462515 -0.4421083304163218 -6.192820650938698 0 0 0
680 197 4 -9.267528247198346 -1.3766402935617321 -5.187764970579232 0 0 0
681 197 4 -9.081268998957103 -0.6287504224074245 -5.824921335272587 0 0 0
679 197 2 -9.174398623077725 -1.0026953579845783 -5.5063431529259095 0 0 0
3672 1194 4 -8.262205628978759 -1.1640576059553056 -5.444124980119112 1 0 0
417 109 4 -7.001706239040777 -1.7091952497603535 -6.612399443176333 0 0 0
1383 431 4 -8.393180709813786 -0.9609639304461324 -5.118742590146035 0 0 0
728 213 4 -7.243500178638203 -0.5033593566818835 -6.832111586429697 0 0 0
3671 1194 4 -7.678778115826711 -1.9567554986764235 -5.6208801434702185 1 0 0
727 213 2 -7.210885543609769 -0.9606758531525881 -6.632617457099371 0 0 0
3670 1194 2 -7.970491872402735 -1.5604065523158646 -5.532502561794665 1 0 0
729 213 4 -7.178270908581335 -1.4179923496232927 -6.433123327769044 0 0 0
291 67 4 -5.919018426180377 -1.8191447185198744 -5.978896064829242 0 0 0
337 83 2 -6.125623215296983 -1.1850600024752378 -5.3964616769202705 0 0 0
338 83 4 -6.144376000008955 -0.805357846939134 -5.071693134499621 0 0 0
626 179 4 -4.64539755032361 -0.1796053723025411 -6.685018679403659 0 0 0
303 71 4 -2.286794958751429 -0.27760807310548286 -6.496912151398003 0 0 0
302 71 4 -2.487496216029937 -0.3836372044570284 -5.523014400794607 0 0 0
301 71 2 -2.387145587390683 -0.33062263878125564 -6.009963276096305 0 0 0
588 166 4 -0.4658742374694168 -0.47387070486409233 -6.11481329861303 0 0 0
587 166 4 -1.2306014214836472 -0.7732073289006092 -6.685418170251707 0 0 0
586 166 2 -0.848237829476532 -0.6235390168823507 -6.400115734432369 0 0 0
3819 1243 4 -0.1483178909508155 -0.43238324592778893 -6.364159571651949 0 0 0
2850 920 4 -8.418157331422234 -9.571035234234168 -4.088105198763306 1 0 0
2849 920 4 -9.13814780896857 -8.877082903434319 -4.094729005589158 1 0 0
1272 394 4 -9.231715562659204 -8.528307036173596 -3.935423129375127 0 0 0
1270 394 2 -9.720602367056369 -8.4956950269014 -4.035053191792196 0 0 0
2848 920 2 -8.778152570195402 -9.224059068834244 -4.091417102176232 1 0 0
1869 593 4 -8.047754766734716 -9.561646786207683 -4.187664327346167 0 1 0
471 127 4 -6.481538978034852 -8.579051960730494 -3.5378314624297897 0 0 0
707 206 4 -6.7915602017528816 -8.31442572010598 -3.4508509582578566 0 0 0
2909 940 4 -2.8590653449732084 -8.722740455404404 -4.966949255975804 0 0 0
599 170 4 -2.801224488690653 -9.21505901244739 -3.874542152606599 0 0 0
598 170 2 -2.963113356736042 -8.950453200988775 -4.266684676371917 0 0 0
600 170 4 -3.1250022247814306 -8.68584738953016 -4.658827200137235 0 0 0
1518 476 4 -2.683647130594829 -9.497694810145708 -3.628527380881037 0 1 0
1516 476 2 -2.227776295836639 -9.576593697414639 -3.4389047355965485 0 1 0
1220 377 4 -8.817410728096267 -6.91157407340508 -4.742631616218399 0 0 0
706 206 2 -7.02472044499191 -7.919729023002958 -3.251224260974138 0 0 0
544 152 2 -5.602732590315292 -7.755572171109686 -4.6216191615739195 0 0 0
545 152 4 -5.941471794527809 -7.551522811374702 -4.315645943267043 0 0 0
531 147 4 -6.071656623032983 -7.5547417153513745 -3.9513254118415735 0 0 0
546 152 4 -5.263993386102776 -7.959621530844671 -4.927592379880795 0 0 0
529 147 2 -6.035242122741676 -7.238836407218022 -3.565478524512403 0 0 0
28 6 3 -4.485948864602939 -7.714845284954864 -5.100440196926977 0 0 0
3158 1023 4 -4.4799470207791785 -7.161096762286902 -3.76992301762199 0 0 0
764 225 4 -1.279792421173932 -6.616491419993579 -3.1837827991677483 0 0 0
459 123 4 -7.28665078227613 -5.422783372581351 -5.164057339841743 0 0 0
390 100 4 -5.6389107045857765 -5.231908839841732 -3.8046986133481786 0 0 0
284 65 4 -5.306764481937247 -5.368475919091286 -3.9427677417137104 0 0 0
283 65 2 -4.979757863165782 -5.1667576919534035 -4.262730908531706 0 0 0
252 54 4 -4.5835247383244155 -5.249804557277467 -4.872952764967837 0 0 0
285 65 4 -4.652751244394317 -4.965039464815521 -4.582694075349702 0 0 0
2658 856 4 -3.8076850386560537 -5.7093115338900935 -3.843404487570831 0 0 0
2656 856 2 -3.5142400484228022 -5.748181191639863 -4.246367497552557 0 0 0
2657 856 4 -3.220795058189551 -5.787050849389633 -4.649330507534282 0 0 0
710 207 4 -9.81353932051998 -4.6965233584309045 -3.7038817565603233 0 0 0
613 175 2 -4.397950884920534 -0.19122893288337037 -1.31334297262123 0 0 0
709 207 2 -9.429922743943347 -4.86587338240407 -3.4315604545000493 0 0 0
2655 855 4 -7.374988960728222 -3.3145565798954424 -3.9010952947970736 1 0 0
2653 855 2 -7.016178018015708 -3.3372703994702833 -4.248570171284348 1 0 0
366 92 4 -5.2546782996321895 -3.4928349343291325 -3.504960113606196 0 0 0
2654 855 4 -6.657367075303194 -3.359984219045124 -4.596045047771623 1 0 0
364 92 2 -5.176587185500713 -3.676887082439446 -3.9632466884362625 0 0 0
365 92 4 -5.098496071369237 -3.86093923054976 -4.421533263266329 0 0 0
344 85 4 -4.796108737415993 -3.757134679555701 -4.642835155057369 0 0 0
343 85 2 -4.414416026693798 -4.074644171231038 -4.701982405861677 0 0 0
345 85 4 -4.032723315971604 -4.3921536629063755 -4.761129656665984 0 0 0
612 174 4 -3.7204393735940915 -4.584956742486945 -4.602714783651892 0 0 0
610 174 2 -3.4203408041049643 -4.32442905151072 -4.29929070612151 0 0 0
611 174 4 -3.120242234615837 -4.063901360534496 -3.995866628591128 0 0 0
387 99 4 -1.819545388379395 -4.876455288233733 -4.063848803714888 0 0 0
385 99 2 -1.6837411060276626 -4.778572784542892 -4.534992319393607 0 0 0
276 62 4 -1.329206256373338 -4.3505633481347985 -5.084246217467887 0 0 0
386 99 4 -1.54793682367593 -4.68069028085205 -5.0061358350723255 0 0 0
245 52 4 -4.228088491451633 -1.1663302562944111 -3.291059875222971 0 0 0
2862 924 4 -1.8320857527634242 -3.0760923103856253 -4.567962056285042 0 0 0
1573 495 2 -2.5803011219006753 -3.3256304931277487 -3.5482104542855275 0 0 0
1802 571 4 -2.6889949822149637 -2.4911476481042456 -3.5767099140574095 0 0 0
1801 571 2 -2.8739424496595376 -2.0513223873366457 -3.7262029716781306 0 0 0
1574 495 4 -2.7675359693577826 -2.8764561345319968 -3.4333822892845793 0 0 0
2860 924 2 -1.340242827498491 -3.089548247853919 -4.479026829214812 0 0 0
2861 924 4 -0.8483999022335577 -3.1030041853222126 -4.390091602144581 0 0 0
3990 1300 4 -0.5990811090564466 -3.0451562367789786 -4.068154430889011 0 0 0
3988 1300 2 -0.5478162401878717 -2.6143451871625354 -3.819611169566954 0 0 0
3989 1300 4 -0.4965513713192967 -2.183534137546092 -3.5710679082448964 0 0 0
3602 1171 4 -0.49008860636242463 -1.7800206892318893 -3.6395700592806115 0 0 0
1381 431 2 -8.365580214978301 -0.5011618355365342 -4.92426830855184 0 0 0
1382 431 4 -8.337979720142817 -0.04135974062693598 -4.729794026957644 0 0 0
3884 1265 4 -9.319084604754314 -1.0528306571465798 -4.933086496319469 1 0 0
3885 1265 4 -9.554168266663554 -1.226209786714821 -3.976699885510178 1 0 0
3883 1265 2 -9.436626435708934 -1.1395202219307003 -4.454893190914824 1 0 0
2532 814 4 -9.52444294320264 -0.9519962708106465 -3.6689529881491856 1 0 0
1451 454 4 -8.152209515415116 -0.5174311142946506 -3.630917031401622 0 0 0
570 160 4 -8.283392569222976 -0.841963055259585 -3.4280452083930713 0 0 0
1450 454 2 -7.896750891600189 -0.13961177486198456 -3.83584003711089 0 0 0
677 196 4 -5.802853355239652 -0.5879135219178899 -5.070336342090283 0 0 0
1425 445 4 -5.006271820328298 -0.127220637746146 -4.161839211457713 0 0 0
678 196 4 -5.221692932603828 -0.4345034773499461 -4.2711380429260055 0 0 0
676 196 2 -5.51227314392174 -0.511208499633918 -4.6707371925081445 0 0 0
246 52 4 -5.04146068517591 -1.2492157007539537 -3.866868591353261 0 0 0
244 52 2 -4.634774588313771 -1.2077729785241824 -3.5789642332881164 0 0 0
4 1 3 -3.3830909835188283 -0.2964713850384075 -4.3342768636694595 0 0 0
1803 571 4 -3.0588899171041115 -1.611497126569046 -3.875696029298852 0 0 0
752 221 4 -3.207218457659265 -0.5158097344091275 -4.022508029742109 0 0 0
751 221 2 -3.0244546812116977 -0.9426839063159211 -3.8371007931585726 0 0 0
753 221 4 -2.8416909047641306 -1.3695580782227148 -3.651693556575036 0 0 0
3694 1202 2 -0.9188424143002301 -0.121193855821329 -4.365122127857687 0 0 0