LAMMPS data file via write_data, version 27 Jun 2024, timestep = 3500000, units = lj

4590 atoms
4 atom types
3090 bonds
1 bond types

-9.99857 9.99857 xlo xhi
-9.99857 9.99857 ylo yhi
-9.99857 9.99857 zlo zhi

Masses

1 1
2 1
3 0.5
4 0.5

Bond Coeffs # zero

1 0

Atoms # bond

465 125 4 -8.453785026037352 -8.380239635778338 -9.030778301683295 0 0 0
463 125 2 -8.264429025230475 -8.677590113562786 -9.385358332592865 0 0 0
3278 1063 4 -9.547031534302073 -9.902162327583124 -9.94421996365012 1 0 1
464 125 4 -8.075073024423599 -8.974940591347234 -9.739938363502436 0 0 0
1506 472 4 -6.530603070315115 -9.259036044920911 -8.604712763117568 0 1 0
692 201 4 -6.4458074101006515 -8.868364780468964 -8.627523013136646 0 0 0
1504 472 2 -6.409773582230499 -9.658867091196074 -8.329875776444267 0 1 0
492 134 4 -4.757401502498718 -9.51691743838518 -8.744367898164205 0 0 0
490 134 2 -4.602607478555024 -9.083475494828724 -8.54900441202242 0 0 0
491 134 4 -4.44781345461133 -8.650033551272267 -8.353640925880635 0 0 0
558 156 4 -2.0485801798946603 -9.140027112243137 -8.477920442125692 0 0 0
1608 506 4 -1.6810593131202791 -9.175549076381936 -8.303897436857927 0 1 0
746 219 4 -1.7282406372921315 -9.06462286869778 -8.679373977244214 0 0 0
745 219 2 -1.3857987525704913 -9.163028110417585 -9.030158760252604 0 0 0
747 219 4 -1.0433568678488512 -9.26143335213739 -9.380943543260994 0 0 0
2144 685 4 -0.9654703711011784 -9.585401612542665 -9.562774463550243 0 1 1
2975 962 4 -0.781446393311785 -9.24731572999597 -9.635990919729732 0 0 1
987 299 4 -1.1579052880400427 -9.340979292983077 -9.740429692491603 0 0 1
2974 962 2 -0.28933739851607276 -9.316499122027013 -9.691148834017609 0 0 1
1667 526 4 -8.821871081828869 -8.320314332867943 -8.858406165720304 0 1 0
702 204 4 -9.32529484689224 -7.39965027998426 -9.495140812000898 0 0 0
700 204 2 -9.03669913176743 -7.783041302904838 -9.354699234270342 0 0 0
701 204 4 -8.74810341664262 -8.166432325825415 -9.214257656539786 0 0 0
589 167 2 -9.67390532683413 -7.084211769308849 -8.788656207907444 0 0 0
591 167 4 -9.564570459148099 -7.3668453643003335 -9.186354759187717 0 0 0
590 167 4 -9.783240194520163 -6.801578174317365 -8.39095765662717 0 0 0
1666 526 2 -8.918714327724414 -8.300929504719539 -8.368257602362624 0 1 0
422 111 4 -7.275243670468574 -6.861716339853429 -9.926307719938574 0 0 0
664 192 2 -5.24271701493496 -6.957203487133173 -9.154584553832352 0 0 0
360 90 4 -4.468020946139638 -8.341299456843139 -8.59800408482063 0 0 0
665 192 4 -5.014399891999831 -7.3752173883126115 -9.002480412549879 0 0 0
359 90 4 -4.990422576185181 -7.728138963044969 -9.19056694711561 0 0 0
358 90 2 -4.729221761162409 -8.034719209944054 -8.89428551596812 0 0 0
553 155 2 -9.246596243903317 -6.121461380973748 -9.7145843230251 0 0 0
555 155 4 -8.973528663360742 -5.703268014382331 -9.69116628306996 0 0 0
554 155 4 -9.519663824445892 -6.539654747565164 -9.738002362980241 0 0 0
836 249 4 -8.883326563794432 -5.325459429067063 -9.786873740550647 0 0 1
666 192 4 -5.471034137870088 -6.539189585953734 -9.306688695114826 0 0 0
460 124 2 -2.443021983420286 -6.1775324772989695 -8.8392859898653 0 0 0
461 124 4 -2.6701722788869633 -6.0166528634221965 -9.25464185308177 0 0 0
462 124 4 -2.2158716879536087 -6.3384120911757424 -8.423930126648829 0 0 0
255 55 4 -1.98093318567216 -6.61857374208504 -8.248172276147967 0 0 0
357 89 4 -4.732170430414798 -3.508148475317854 -8.684487396568713 0 0 0
355 89 2 -4.402687835100195 -3.53013446304505 -9.059930915261392 0 0 0
356 89 4 -4.073205239785591 -3.5521204507722466 -9.43537443395407 0 0 0
573 161 4 -3.7840269258435364 -3.4431725583417467 -9.690911006769742 0 0 0
279 63 4 -4.256823896310687 -4.044102760766405 -8.593693657176997 0 0 0
483 131 4 -3.7051894286057356 -3.3817552861871953 -9.301053528148334 0 0 0
280 64 2 -1.8489385530882867 -4.459489746682844 -9.790904804375135 0 0 0
282 64 4 -2.3099764482496714 -4.6506111046328655 -9.76062798550589 0 0 0
671 194 4 -1.3315537990540633 -3.9618883091320907 -9.63136571513187 0 0 0
281 64 4 -1.387900657926902 -4.2683683887328225 -9.82118162324438 0 0 0
670 194 2 -1.1195369472224792 -3.7935531624174645 -9.210994292554343 0 0 0
672 194 4 -0.9075200953908952 -3.6252180157028384 -8.790622869976815 0 0 0
102 21 3 -0.5431113091674327 -3.6976199826117484 -8.667169713740366 0 0 0
101 21 1 -0.08972792308727279 -3.6250553177987546 -8.695060117952536 0 0 0
2651 854 4 -0.7585612419104566 -3.3531405311626408 -8.552699942384367 0 0 0
2795 902 4 -9.96726316130504 -1.769315063218351 -8.363964070464258 1 0 0
626 179 4 -5.784127243793165 -1.9012350874385875 -8.4398950903613 0 0 0
272 61 4 -3.8046186288605837 -1.642215738262378 -9.68330626898959 0 0 0
271 61 2 -4.126990417147618 -1.9184120048470832 -9.947488123857687 0 0 0
481 131 2 -3.316760219642946 -3.0879697494267777 -9.187859853347515 0 0 0
250 54 2 -3.260927740256003 -2.0284369777372278 -9.280485241896212 0 0 0
252 54 4 -2.948598536389 -2.4115004195566923 -9.204901725482422 0 0 0
482 131 4 -2.9283310106801563 -2.79418421266636 -9.074666178546696 0 0 0
608 173 4 -2.5967567200802666 -2.5974022890288926 -9.102200342975982 0 0 0
607 173 2 -2.113332309561686 -2.70077488015889 -9.027267394828668 0 0 0
609 173 4 -1.6299078990431048 -2.804147471288887 -8.952334446681354 0 0 0
313 75 2 -9.455840157790814 -1.1640298423248778 -8.60810093982435 0 0 0
315 75 4 -9.158752079362063 -0.7633880671706211 -8.573103201939272 0 0 0
551 154 4 -9.33799873052906 -0.445793508455527 -8.761761289599246 0 0 0
1788 566 4 -8.949852009423994 -0.44539357500367655 -8.667961519933979 0 0 0
314 75 4 -9.752928236219564 -1.564671617479135 -8.643098677709428 0 0 0
1786 566 2 -8.566964635290864 -0.3529702199012167 -8.359975834940592 0 0 0
1222 378 2 -6.956246401471373 -1.1147084234531095 -9.496974840365155 0 0 1
1224 378 4 -7.244352929036272 -0.9623887077496426 -9.876175754106779 0 0 1
795 235 4 -7.414656114359161 -0.5962701206754845 -9.943628892920028 0 0 1
625 179 2 -5.397309551456854 -1.6034761108653959 -8.548115535590407 0 0 0
287 66 4 -6.4254616973346295 -1.2705473767023396 -8.765814673426917 0 0 0
286 66 2 -6.518892213431648 -0.85758419171531 -8.499859514598771 0 0 0
1223 378 4 -6.6681398739064734 -1.2670281391565763 -9.117773926623531 0 0 1
627 179 4 -5.010491859120543 -1.305717134292204 -8.656335980819513 0 0 0
251 54 4 -3.5732569441230058 -1.6453735359177633 -9.356068758310002 0 0 0
245 52 4 -4.656797006040254 -1.19783874021729 -8.722303517903923 0 0 0
244 52 2 -4.280381071305364 -1.3320232786596176 -9.022812342600405 0 0 0
246 52 4 -3.903965136570474 -1.466207817101945 -9.323321167296887 0 0 0
524 145 4 -3.6027686019610448 -1.311857565115425 -9.561455927898034 0 0 0
523 145 2 -3.5061987552904466 -0.9725898674070025 -9.915816893589101 0 0 0
1672 528 2 -0.7724530394956424 -0.41021566162047574 -8.7782787931488 0 0 0
1673 528 4 -0.7130685912084863 -0.502845816675622 -9.266021698454356 0 0 0
579 163 4 -8.074337961583298 -8.249967272911611 -7.029906991157664 0 0 0
450 120 4 -7.688312809949597 -8.36532337898187 -6.974618219297708 0 0 0
675 195 4 -7.978567924400628 -8.509080359574439 -6.744152651277545 0 0 0
691 201 2 -6.610153309659768 -8.561140615825241 -8.268909379880988 0 0 0
297 69 4 -4.214288258248034 -8.350279497521722 -8.310657514682589 0 0 0
285 65 4 -5.112673321516259 -8.271096541049193 -7.345861671708384 0 0 0
284 65 4 -4.6270075308124055 -8.31544646783643 -8.218880470895254 0 0 0
295 69 2 -3.7220703501778005 -8.417940494926913 -8.254590408414247 0 0 0
283 65 2 -4.869840426164332 -8.293271504442812 -7.782371071301819 0 0 0
556 156 2 -2.4691652999066105 -8.88751945029727 -8.381235192562679 0 0 0
296 69 4 -3.2298524421075667 -8.485601492332105 -8.198523302145905 0 0 0
557 156 4 -2.8897504199185606 -8.635011788351404 -8.284549942999666 0 0 0
629 180 4 -2.912588359984921 -8.349881152966352 -8.011064040050073 0 0 0
1606 506 2 -1.5903955158965357 -9.556825377572482 -7.9934003225019685 0 1 0
1607 506 4 -1.4997317186727923 -9.938101678763028 -7.682903208146009 0 1 0
1784 565 4 -0.8135092961580319 -9.977720432660695 -6.685048791333605 0 1 0
19 4 3 -9.80331007057231 -8.2669844713566 -7.05886304769243 0 0 0
577 163 2 -8.521586334324725 -8.299579852270762 -7.247869109538567 0 0 0
578 163 4 -8.968834707066152 -8.349192431629913 -7.4658312279194705 0 0 0
1668 526 4 -9.01555757361996 -8.281544676571135 -7.8781090390049435 0 1 0
18 4 3 -9.31620902692594 -8.216294358744728 -7.640036933686929 0 0 0
16 4 1 -9.714641679670965 -8.057313906948018 -7.463184913135703 0 0 0
2624 845 4 -9.735770703313571 -6.593379999310925 -8.060776424657682 1 0 0
17 4 3 -9.675008271647267 -7.604825019778643 -7.390500664796571 0 0 0
2623 845 2 -9.659208885905883 -6.910115264620583 -7.681544226888676 1 0 0
2625 845 4 -9.582647068498195 -7.22685052993024 -7.302312029119671 1 0 0
380 97 4 -9.56181013734013 -7.496462902710683 -7.01111682985312 0 0 0
448 120 2 -7.395502228023979 -8.23032802230548 -7.356767688468854 0 0 0
449 120 4 -7.102691646098361 -8.09533266562909 -7.7389171576399995 0 0 0
236 49 4 -6.750527955788643 -7.998709652394858 -7.5745229177555 0 0 0
693 201 4 -6.774499209218885 -8.253916451181519 -7.91029574662533 0 0 0
235 49 2 -6.356671154100442 -7.691752230857425 -7.60009558141334 0 0 0
237 49 4 -5.9628143524122414 -7.384794809319992 -7.62566824507118 0 0 0
253 55 2 -2.2970051650013996 -6.963410453167333 -8.071576277968664 0 0 0
628 180 2 -2.7908813093155254 -7.930441617706386 -7.767634645609245 0 0 0
254 55 4 -2.6130771443306395 -7.308247164249625 -7.89498027978936 0 0 0
630 180 4 -2.66917425864613 -7.511002082446418 -7.524205251168419 0 0 0
312 74 4 -2.153263209066468 -8.042799970170764 -6.68783348239153 0 0 0
764 225 4 -1.8980251208473733 -8.089496162085984 -7.008295257178612 0 0 0
763 225 2 -1.6136852327154172 -7.947194576908074 -7.394172293127948 0 0 0
765 225 4 -1.329345344583461 -7.8048929917301635 -7.780049329077284 0 0 0
477 129 4 -7.95610573887277 -6.537240933264071 -7.301687787884655 0 0 0
475 129 2 -8.168572831026257 -6.323687605286099 -6.90262299256712 0 0 0
737 216 4 -5.455700724216186 -6.260143725553641 -7.7106182167437805 0 0 0
736 216 2 -5.373531262132296 -5.822758847034012 -7.482708919997846 0 0 0
738 216 4 -5.291361800048406 -5.385373968514383 -7.254799623251911 0 0 0
354 88 4 -5.3696807020140405 -5.029717506949204 -7.4135977144475 0 0 0
770 227 4 -1.8266669087813778 -6.253916282350397 -8.308746832248842 0 0 0
769 227 2 -1.4218024218397531 -5.9638909805014 -8.264361344749393 0 0 0
771 227 4 -1.0169379348981284 -5.673865678652404 -8.219975857249944 0 0 0
322 78 2 -0.9759490020651769 -5.090226766228538 -7.612553239808686 0 0 0
323 78 4 -0.8719209711514275 -5.377603828681726 -8.008271059422544 0 0 0
519 143 4 -0.6218710904169059 -5.6921758119915555 -8.097261190608961 0 0 0
517 143 2 -0.16990649081140502 -5.836749597317086 -7.939697167748179 0 0 0
352 88 2 -4.948618821714224 -4.760874916281912 -7.392847909598629 0 0 0
278 63 4 -4.269101825944631 -4.448049683256313 -7.678993631893026 0 0 0
353 88 4 -4.527556941414408 -4.492032325614621 -7.372098104749759 0 0 0
754 222 2 -4.506232738822227 -3.793804785286246 -7.133206725409917 0 0 0
755 222 4 -4.43585996471143 -4.124030264895995 -7.501986883878721 0 0 0
756 222 4 -4.576605512933026 -3.463579305676497 -6.764426566941114 0 0 0
277 63 2 -4.262962861127659 -4.246076222011359 -8.136343644535012 0 0 0
527 146 4 -1.2511626922114778 -4.7846300594942885 -6.850765866928637 0 0 0
623 178 4 -1.3396145836500088 -4.49743312824019 -7.132575103758414 0 0 0
324 78 4 -1.0799770329789262 -4.80284970377535 -7.216835420194828 0 0 0
622 178 2 -1.3650127199978677 -4.014747909146861 -7.260520068250881 0 0 0
624 178 4 -1.3904108563457265 -3.532062690053531 -7.388465032743348 0 0 0
2650 854 2 -1.0457924375321586 -3.343561459707488 -8.143546570588487 0 0 0
646 186 2 -8.558778128531207 -2.229336541705066 -7.17650356348599 0 0 0
648 186 4 -8.774562216450642 -2.4832906123574974 -6.803750887573547 0 0 0
647 186 4 -8.342994040611773 -1.9753824710526349 -7.549256239398432 0 0 0
537 149 4 -6.9112679530754235 -2.1905114016432545 -8.356749795728398 0 0 0
455 122 4 -7.942727972736738 -1.9484322466495319 -7.624863090139918 0 0 0
454 122 2 -7.49431301614435 -2.078707365904128 -7.803615488744504 0 0 0
456 122 4 -7.045898059551962 -2.208982485158724 -7.98236788734909 0 0 0
536 149 4 -6.007864214041486 -1.8546235180767097 -8.090214593602525 0 0 0
535 149 2 -6.459566083558455 -2.022567459859982 -8.223482194665461 0 0 0
611 174 4 -5.415295073383498 -2.402500962872556 -7.135352895919284 0 0 0
610 174 2 -5.1407482993181315 -2.770367324351089 -6.937114632855137 0 0 0
741 217 4 -4.465968349493987 -3.090692676555525 -6.796817210179432 0 0 0
739 217 2 -4.051233192173257 -2.819259487062958 -6.862534581731521 0 0 0
386 99 4 -3.5981213511130807 -2.2701430290151503 -6.597450562084488 0 0 0
740 217 4 -3.6364980348525258 -2.5478262975703916 -6.92825195328361 0 0 0
12 3 3 -2.9958897994623404 -2.3589218922436297 -7.533449532872609 0 0 0
11 3 1 -2.936800124125655 -2.520015072143616 -7.106650519685173 0 0 0
13 3 3 -2.9330527443824823 -2.9837959375877188 -7.1205525336551965 0 0 0
14 3 3 -2.532410585566652 -2.363209512285825 -6.941783550582307 0 0 0
495 135 4 -2.1791927587834343 -2.1534957662959866 -6.986066642785314 0 0 0
597 169 4 -2.194248896076474 -2.5632027315651262 -6.9879534298812525 0 0 0
493 135 2 -2.017962656796122 -1.708764962202656 -7.14799059439134 0 0 0
15 3 3 -3.278731921307059 -2.3752198875365242 -6.842989751669989 0 0 0
595 169 2 -1.8482407617390522 -2.858328447532463 -7.195749442227155 0 0 0
2652 854 4 -1.3330236331538605 -3.333982388252335 -7.734393198792607 0 0 0
596 169 4 -1.5022326274016304 -3.1534541634997995 -7.403545454573057 0 0 0
1467 459 4 -8.292930274742188 -0.9887392477867509 -7.0635376611446405 0 0 0
1465 459 2 -8.125041503558363 -0.6645209912646155 -7.405145451816934 0 0 0
1466 459 4 -7.957152732374537 -0.34030273474247996 -7.746753242489229 0 0 0
241 51 2 -7.277476414378581 -0.17150860771575685 -8.066093521844426 0 0 0
243 51 4 -6.7796781167023425 -0.1272571282405366 -8.05064485216544 0 0 0
242 51 4 -7.775274712054821 -0.21576008719097714 -8.081542191523413 0 0 0
1787 566 4 -8.184077261157734 -0.2605468647987568 -8.051990149947205 0 0 0
288 66 4 -6.612322729528666 -0.4446210067282804 -8.233904355770626 0 0 0
1440 450 4 -6.578087176799698 -0.41094340404317586 -7.858575785528339 0 0 0
1438 450 2 -6.2193542859757205 -0.17591153602915963 -7.601533504844531 0 0 0
301 71 2 -3.621487392161052 -0.5660887026053076 -6.959482212250555 0 0 0
303 71 4 -3.4764602010404526 -0.22461591743751225 -7.294688791579845 0 0 0
660 190 4 -1.6866134143597247 -1.0748445196627525 -7.596015860170871 0 0 0
1674 528 4 -0.8318374877827984 -0.3175855065653295 -8.290535887843244 0 0 0
494 135 4 -1.8567325548088103 -1.2640341581093255 -7.309914545997366 0 0 0
658 190 2 -1.4536788963294083 -0.7359331229106495 -7.8804109646666864 0 0 0
659 190 4 -1.2207443782990919 -0.39702172615854653 -8.164806069162502 0 0 0
1584 498 4 -0.93074522750795 -0.2045607979213038 -7.942494118082063 0 0 0
673 195 2 -8.091253862759377 -8.819803338504226 -6.368981877281723 0 0 0
674 195 4 -8.203939801118125 -9.130526317434013 -5.9938111032859 0 0 0
653 188 4 -5.033779856324397 -9.012535641787908 -5.486549625601713 0 0 0
652 188 2 -4.859492312703944 -9.295719333111597 -5.113145221360178 0 0 0
23 5 3 -1.6602677309060105 -8.674700117777364 -4.910698308406681 0 0 0
21 5 1 -1.4806373352964735 -8.469684000510888 -5.28619972336301 0 0 0
25 5 3 -1.3045444695232005 -8.783509826424861 -5.5653137746274215 0 0 0
663 191 4 -0.03347459157179525 -0.4464391970214082 -0.541420077697116 0 0 0
758 223 4 -0.7488613879916965 -9.71100419545385 -6.4292881301352 0 0 0
759 223 4 -1.04385621150803 -9.010835865438658 -5.779101723215026 0 0 0
757 223 2 -0.8963587997498632 -9.360920030446254 -6.104194926675113 0 0 0
379 97 2 -9.410997515657604 -7.296177792512067 -6.578518369645777 0 0 0
381 97 4 -9.260184893975078 -7.09589268231345 -6.145919909438434 0 0 0
512 141 4 -9.243764805044957 -7.326292980278938 -5.811639954199553 0 0 0
511 141 2 -9.212651742231394 -7.028684092354132 -5.411064209613976 0 0 0
513 141 4 -9.18153867941783 -6.731075204429326 -5.0104884650283985 0 0 0
580 164 2 -3.4412564076108647 -7.575542798349155 -5.4264015141109345 0 0 0
582 164 4 -3.9275696185313973 -7.472472077987875 -5.37277421240384 0 0 0
581 164 4 -2.954943196690332 -7.678613518710436 -5.480028815818029 0 0 0
24 5 3 -1.8092903074044957 -8.22786074184335 -5.507126714679245 0 0 0
311 74 4 -1.8792509279837386 -7.875188524769089 -5.740825735228868 0 0 0
29 6 3 -2.1282200630857804 -8.051830378148443 -5.456213859169187 0 0 0
26 6 1 -2.361372645174506 -7.890958304575379 -5.088708689941034 0 0 0
30 6 3 -2.8071147976885573 -7.8777026680613496 -5.1811111875940155 0 0 0
310 74 2 -2.0162570685251033 -7.958994247469926 -6.214329608810199 0 0 0
22 5 3 -1.1478309040040509 -8.181284541044947 -5.153287605517339 0 0 0
742 218 2 -0.44211330433271534 -7.794456650680421 -5.380460719472601 0 0 0
743 218 4 -0.8515918396479618 -7.92829034971938 -5.12665790207772 0 0 0
351 87 4 -1.2089440613854459 -7.800407098382003 -5.2056336945718655 0 0 0
529 147 2 -9.759204175189884 -6.111075738485357 -5.104106831670134 0 0 0
337 83 2 -8.62847331104213 -5.498531556231107 -5.913278801291471 0 0 0
338 83 4 -8.824728095556246 -5.196806007128794 -5.5662258477327615 0 0 0
749 220 4 -8.92851580021683 -5.02138061870805 -5.211400051747893 0 0 0
339 83 4 -8.432218526528015 -5.80025710533342 -6.260331754850181 0 0 0
476 129 4 -8.381039923179744 -6.110134277308127 -6.5035581972495855 0 0 0
723 211 4 -6.353890294262321 -5.6290224067229495 -5.852799193562797 0 0 0
721 211 2 -6.200877136984236 -5.783340397294168 -5.402496038470708 0 0 0
521 144 4 -0.994206254045282 -5.489964422219355 -5.695658895206992 0 0 0
528 146 4 -1.1998943318409796 -5.358179106533753 -6.033200550966181 0 0 0
520 144 2 -0.8522628985005917 -5.593772949720681 -5.227603478151795 0 0 0
363 91 4 -8.594056981060087 -4.8939071247900285 -5.404715876496361 0 0 0
371 94 4 -6.906032292071012 -4.359920060951539 -5.607745227445212 0 0 0
361 91 2 -8.261445755841484 -4.698826355334385 -5.086418427170418 0 0 0
370 94 2 -7.234162444642458 -4.349844982633617 -5.230612497799149 0 0 0
344 85 4 -5.12638209331618 -3.587162717603951 -5.381995643308971 0 0 0
343 85 2 -5.419288414071882 -3.7329343802055375 -5.003899743246774 0 0 0
497 136 4 -3.9859434703393437 -3.980593249308881 -5.155673830153037 0 0 0
309 73 4 -4.787133676080743 -3.3794011320869957 -5.4759360216892174 0 0 0
526 146 2 -1.2255285120262287 -5.071404583014021 -6.441983208947409 0 0 0
619 177 2 -9.077142087936155 -2.337738299829822 -6.138736808448292 0 0 0
620 177 4 -9.028761336582706 -2.163606745985977 -5.672542101427478 0 0 0
621 177 4 -9.125522839289603 -2.511869853673667 -6.604931515469106 0 0 0
264 58 4 -9.019183534104043 -1.7623219504616858 -5.623047724780517 0 0 0
385 99 2 -3.7188542231108332 -1.7860306909956745 -6.629990042669819 0 0 0
612 174 4 -4.866201525252765 -3.1382336858296216 -6.738876369790991 0 0 0
308 73 4 -4.598415346627141 -3.19422809100332 -6.440351044894439 0 0 0
307 73 2 -4.692774511353942 -3.2868146115451577 -5.958143533291828 0 0 0
645 185 4 -2.2298449309095942 -2.3637097369622033 -6.644366526032088 0 0 0
643 185 2 -1.9929405996262861 -2.388194166088747 -6.204733894680297 0 0 0
644 185 4 -1.7560362683429778 -2.412678595215291 -5.765101263328506 0 0 0
613 175 2 -1.9378736810003863 -2.5841116912642517 -4.995846868381748 0 0 0
614 175 4 -1.6419018704009678 -2.5142698960624665 -5.392738303126332 0 0 0
447 119 4 -1.3764820479699702 -2.3812768601097 -5.648479451542628 0 0 0
445 119 2 -0.927397250875428 -2.1737601126527357 -5.721002858407974 0 0 0
446 119 4 -0.4783124537808858 -1.9662433651957714 -5.793526265273321 0 0 0
108 22 3 -0.127668576753034 -1.895848904967302 -5.6475228173328365 0 0 0
262 58 2 -9.311077880204275 -1.51361521884343 -5.30220095081723 0 0 0
263 58 4 -9.602972226304507 -1.2649084872251741 -4.9813541768539435 0 0 0
302 71 4 -3.766514583281652 -0.9075614877731031 -6.6242756329212655 0 0 0
290 67 4 -4.464073661340355 -0.4361636453788284 -5.232554144089959 0 0 0
436 116 2 -4.178368031171556 -0.8164017334250936 -5.993282906934529 0 0 0
438 116 4 -4.043527453642914 -1.0976688814730124 -6.384060094191958 0 0 0
437 116 4 -4.313208608700197 -0.5351345853771748 -5.6025057196771 0 0 0
387 99 4 -3.8395870951085858 -1.3019183529761986 -6.6625295232551505 0 0 0
768 226 4 -4.601745173741001 -0.2808906555736734 -5.592683060139262 0 0 0
2537 816 4 -0.35565271401617926 -1.5855551550897349 -5.743960074084212 0 0 0
2536 816 2 -0.4180684498709181 -1.0994430449821297 -5.644968699085003 0 0 0
2538 816 4 -0.480484185725657 -0.6133309348745246 -5.5459773240857935 0 0 0
429 113 4 -9.298327338373078 -9.705482213451198 -3.9644748508731102 0 0 0
233 48 4 -9.541106697678758 -9.748164932281615 -4.248074931781044 0 0 0
232 48 2 -9.88672957362764 -9.551170945143804 -4.5509580720389735 0 0 0
1403 438 4 -9.166547287494538 -9.736349308616354 -4.338945321731581 0 1 0
1402 438 2 -8.777011685749244 -9.614625388973552 -4.627814327268097 0 1 0
427 113 2 -9.257072866462597 -9.577167628386732 -3.4829840038084567 0 0 0
1404 438 4 -8.38747608400395 -9.49290146933075 -4.916683332804613 0 1 0
1700 537 4 -6.954487325215999 -8.389251262622455 -4.294027151702943 0 1 0
1699 537 2 -6.89605973725923 -8.806197331730486 -4.024319546283597 0 1 0
1701 537 4 -6.83763214930246 -9.223143400838516 -3.754611940864251 0 1 0
1478 463 4 -6.843698083216365 -9.597358295569178 -3.5687771734951848 0 1 0
689 200 4 -5.47612752464271 -9.352386378872144 -3.6914257695019908 0 0 0
688 200 2 -5.112672290509676 -9.478639136954952 -4.010738365335701 0 0 0
1405 439 2 -6.1163396944309465 -9.328593240931903 -3.3616071242010896 0 1 0
1406 439 4 -6.606886503344337 -9.265586996839938 -3.435051262635906 0 1 0
1497 469 4 -4.759566553487293 -9.935195814045578 -4.547958907073201 0 1 0
654 188 4 -4.685204769083491 -9.578903024435286 -4.739740817118642 0 0 0
690 200 4 -4.749217056376642 -9.60489189503776 -4.330050961169412 0 0 0
1516 476 2 -3.8920546313668445 -9.758191500185736 -4.514268446921454 0 1 0
1517 476 4 -4.389505322239535 -9.71034971375145 -4.498331897080953 0 1 0
1518 476 4 -3.3946039404941537 -9.806033286620023 -4.530204996761955 0 1 0
699 203 4 -3.1173108986661644 -9.555856713533279 -4.607933614434944 0 0 0
697 203 2 -2.8096154519003376 -9.33553065058623 -4.281161617430538 0 0 0
698 203 4 -2.5019200051345107 -9.115204587639182 -3.9543896204261317 0 0 0
633 181 4 -2.4285720686073997 -8.755196152780131 -3.848718512516791 0 0 0
1749 553 4 -2.2152137773891445 -9.019288359380953 -3.6849984767548642 0 1 0
257 56 4 -2.6033746158989106 -8.973558705830898 -3.58826631798246 0 0 0
1747 553 2 -1.7623332289966986 -9.127588319326788 -3.5028712477001274 0 1 0
1748 553 4 -1.3094526806042526 -9.235888279272624 -3.3207440186453905 0 1 0
399 103 4 -9.267723356051532 -6.594707319118602 -4.649222360591982 0 0 0
397 103 2 -8.79742634950907 -6.587162737596422 -4.479623407391362 0 0 0
398 103 4 -8.327129342966607 -6.5796181560742415 -4.31002445419074 0 0 0
606 172 4 -6.8588228024730995 -8.03884652372508 -4.154038465584737 0 0 0
604 172 2 -6.6932738927036235 -7.706892357250428 -3.8187773884612914 0 0 0
605 172 4 -6.5277249829341475 -7.374938190775776 -3.4835163113378456 0 0 0
600 170 4 -6.233811581059544 -7.1181787422970695 -3.3807555148878916 0 0 0
599 170 4 -5.243934203164453 -6.982875727973307 -3.423602580694649 0 0 0
598 170 2 -5.738872892111998 -7.050527235135188 -3.4021790477912703 0 0 0
248 53 4 -4.856262013535093 -6.866698484580136 -3.463815961387598 0 0 0
707 206 4 -3.5638753225448445 -7.354989518783789 -4.140105124463841 0 0 0
683 198 4 -4.956220127445941 -7.179626105729207 -3.2457782577240883 0 0 0
28 6 3 -2.2098637651571513 -7.4664855280759195 -4.9784003888641015 0 0 0
706 206 2 -3.111610450329347 -7.489050320436515 -3.9743215703337893 0 0 0
27 6 3 -2.2888999556141916 -8.172102714161431 -4.731909684580648 0 0 0
631 181 2 -2.365208229480099 -8.263418112390038 -3.784380476478377 0 0 0
761 224 4 -2.3431978084071163 -7.375385807279905 -3.7734110205370675 0 0 0
760 224 2 -2.0052343563499173 -7.209199558391511 -4.1022922084361735 0 0 0
708 206 4 -2.6593455781138493 -7.623111122089242 -3.8085380162037374 0 0 0
632 181 4 -2.301844390352798 -7.771640071999944 -3.7200424404399626 0 0 0
452 121 4 -2.529749452383856 -7.541121224788637 -3.4441650684648644 0 0 0
762 224 4 -1.6672709042927176 -7.043013309503117 -4.4311733963352795 0 0 0
349 87 2 -1.4048351105425676 -7.3838147691911935 -5.010499053567615 0 0 0
350 87 4 -1.6007261596996893 -6.967222440000384 -4.815364412563364 0 0 0
530 147 4 -9.345320672519023 -6.364133310106899 -4.983018798975447 0 0 0
748 220 2 -9.345004763558398 -5.016126054581262 -4.934796846830148 0 0 0
392 101 4 -7.366040367229285 -5.4536717972726825 -4.096523040927749 0 0 0
391 101 2 -7.48555604422299 -5.026815807193979 -4.327845254920421 0 0 0
545 152 4 -7.095620351968268 -5.705916307602973 -4.204546721450071 0 0 0
544 152 2 -6.712298520020935 -5.908169342740915 -4.4538619494854865 0 0 0
722 211 4 -6.04786397970615 -5.937658387865387 -4.9521928833786175 0 0 0
404 105 4 -5.1815250217983975 -6.288712620891335 -4.353311855290475 0 0 0
405 105 4 -6.034458490234813 -6.323669643216483 -4.874159726565807 0 0 0
403 105 2 -5.607991756016605 -6.306191132053909 -4.613735790928141 0 0 0
546 152 4 -6.328976688073602 -6.110422377878856 -4.703177177520902 0 0 0
247 53 2 -4.828337395574959 -6.549120977459872 -3.848997402636829 0 0 0
249 53 4 -4.800412777614824 -6.2315434703396075 -4.23417884388606 0 0 0
419 110 4 -3.3958813703452555 -6.064434700265478 -3.754677332597973 0 0 0
522 144 4 -0.7103195429559013 -5.697581477222007 -4.759548061096598 0 0 0
332 81 4 -1.6268720973623798 -6.683964382308558 -4.542146701060542 0 0 0
2680 864 2 -0.045876859355005045 -5.881463652954213 -4.354862432692533 0 0 0
331 81 2 -1.261976098536578 -6.342169670615623 -4.547370215192647 0 0 0
333 81 4 -0.8970800997107762 -6.000374958922688 -4.552593729324752 0 0 0
2682 864 4 -0.5129245265656298 -5.953297287929715 -4.518283378226937 0 0 0
750 220 4 -9.761493726899966 -5.010871490454474 -4.658193641912402 0 0 0
395 102 4 -9.72407328211529 -4.664199083580256 -4.43697912184044 0 0 0
362 91 4 -7.928834530622881 -4.503745585878742 -4.768120977844475 0 0 0
372 94 4 -7.562292597213904 -4.339769904315696 -4.853479768153086 0 0 0
393 101 4 -7.605071721216694 -4.599959817115276 -4.559167468913093 0 0 0
389 100 4 -7.772873715354696 -4.242528061742536 -4.5198627462031755 0 0 0
388 100 2 -7.821151362565264 -3.75570408852908 -4.41655888429844 0 0 0
401 104 4 -5.631554254831978 -3.9957428316254253 -4.2932683719662466 0 0 0
400 104 2 -5.444369462184269 -4.206386545014395 -3.8802416423090365 0 0 0
345 85 4 -5.712194734827584 -3.878706042807124 -4.625803843184577 0 0 0
300 70 4 -5.855068091061179 -3.666853231750475 -4.32161825769631 0 0 0
402 104 4 -5.257184669536559 -4.417030258403364 -3.467214912651826 0 0 0
298 70 2 -6.135752779448599 -3.342107071301047 -4.0651888580984 0 0 0
496 136 2 -3.8106812321625005 -3.7605474378655557 -4.742318064818332 0 0 0
376 96 2 -3.4910760538764247 -3.7590079468451822 -3.6187864003522576 0 0 0
498 136 4 -3.6354189939856574 -3.54050162642223 -4.328962299483627 0 0 0
377 96 4 -3.3635146612556026 -3.5111459250820833 -4.033867728865496 0 0 0
542 151 4 -1.5655309590690996 -3.483766633485424 -3.79404210219015 0 0 0
390 100 4 -7.869429009775833 -3.2688801153156253 -4.3132550223937045 0 0 0
413 108 4 -7.585212926746619 -3.1186375977958996 -4.083738397564806 0 0 0
412 108 2 -7.1452066649780095 -2.951179151991699 -3.9153574053687916 0 0 0
414 108 4 -6.7052004032094 -2.7837207061874985 -3.7469764131727774 0 0 0
776 229 4 -6.332643441518421 -2.63836942098984 -3.7251865068856893 0 0 0
299 70 4 -6.416437467836019 -3.0173609108516186 -3.8087594585004907 0 0 0
775 229 2 -6.14214191833833 -2.2166153432618807 -3.9144816932641397 0 0 0
777 229 4 -5.95164039515824 -1.7948612655339218 -4.10377687964259 0 0 0
417 109 4 -5.6123867819862046 -1.8751175227962753 -4.288438891730654 0 0 0
734 215 4 -6.4646287953824135 -2.8808701554741862 -3.4289228253479895 0 0 0
729 213 4 -3.4312694402939896 -3.2344962099293006 -4.299909576810237 0 0 0
727 213 2 -3.000043008761014 -2.988255953957571 -4.358300510064818 0 0 0
433 115 2 -2.4819742130540634 -2.1369989474886224 -3.9237805656969953 0 0 0
728 213 4 -2.5688165772280382 -2.742015697985841 -4.416691443319398 0 0 0
615 175 4 -2.2338454915998045 -2.653953486466037 -4.5989554336371645 0 0 0
543 151 4 -2.1935454306573967 -2.8817535709190985 -4.287173013788845 0 0 0
434 115 4 -2.3262148434015884 -2.507638044601941 -4.221044217119064 0 0 0
435 115 4 -2.6377335827065385 -1.7663598503753035 -3.6265169142749265 0 0 0
541 151 2 -1.8795381948632481 -3.1827601022022614 -4.040607557989498 0 0 0
5 1 3 -2.911038247171902 -1.6109251979383976 -3.365280170726914 0 0 0
2954 955 4 -9.989698560142834 -1.356221621874584 -4.850555283599764 1 0 0
603 171 4 -9.731666515926742 -1.1867074313193482 -4.600137527883678 0 0 0
602 171 4 -9.724524884266868 -1.2799634496548966 -3.6045209791354353 0 0 0
601 171 2 -9.728095700096805 -1.2333354404871224 -4.102329253509557 0 0 0
415 109 2 -5.256213174210563 -1.5247790286228393 -4.268356545643536 0 0 0
289 67 2 -4.65637218306748 -0.7832117467322407 -4.928286344465296 0 0 0
4 1 3 -3.4857688374752063 -1.6031024556672344 -3.85161704293791 0 0 0
416 109 4 -4.9000395664349226 -1.1744405344494036 -4.248274199556419 0 0 0
291 67 4 -4.848670704794604 -1.130259848085653 -4.6240185448406335 0 0 0
594 168 4 -3.357500208748384 -0.7289100917079803 -3.7906668805426693 0 0 0
1 1 1 -3.321777093059064 -1.4342433035797006 -3.4517504470346636 0 0 0
2 1 3 -3.285653930921326 -0.9770271619789638 -3.487084807316584 0 0 0
592 168 2 -2.976017771834057 -0.4626671306847875 -3.9739312688766373 0 0 0
593 168 4 -2.5945353349197298 -0.19642416966159476 -4.157195657210606 0 0 0
109 22 3 -0.09740853929056076 -2.182126778948351 -6.350892783283775 0 0 0