LAMMPS data file via write_data, version 27 Jun 2024, timestep = 6000000, units = lj

4590 atoms
4 atom types
3090 bonds
1 bond types

-9.99857 9.99857 xlo xhi
-9.99857 9.99857 ylo yhi
-9.99857 9.99857 zlo zhi

Masses

1 1
2 1
3 0.5
4 0.5

Bond Coeffs # zero

1 0

Atoms # bond

1504 472 2 -9.032304150454209 -9.238312507040254 -9.009081283244269 0 1 0
1506 472 4 -8.69053989197799 -9.12361140158923 -8.662612167684912 0 1 0
1505 472 4 -9.374068408930428 -9.353013612491278 -9.355550398803626 0 1 0
1403 438 4 -8.489193284459706 -9.018483215535607 -8.325704462302353 0 1 0
1125 345 4 -9.670997424851885 -9.084236444210273 -9.346417550737758 0 0 1
1123 345 2 -9.963542470881249 -8.678858880682533 -9.337120936733353 0 0 1
770 227 4 -5.725201006187719 -9.070838818545553 -9.26729617089903 0 0 0
867 259 4 -5.442745371809909 -8.92115182754498 -9.508301001809977 0 0 1
769 227 2 -5.877860246150836 -9.166817325102325 -8.800945141380398 0 0 0
865 259 2 -5.157867808638049 -8.752090153042388 -9.882817922943696 0 0 1
771 227 4 -6.030519486113953 -9.262795831659098 -8.334594111861765 0 0 0
2723 878 4 -3.8473300548171068 -9.787886876089853 -8.282178278451209 0 0 0
1496 469 4 -3.5479517889420658 -9.491942111455772 -8.207571404843984 0 1 0
3488 1133 4 -0.3747609168807526 -9.851506788908537 -2.0163707124692203 0 0 0
2722 878 2 -4.322581159660716 -9.941318334208674 -8.306574487263184 0 0 0
1495 469 2 -3.270620714475627 -9.789929982404296 -8.497900018492496 0 1 0
78 16 3 -2.6589132945907368 -9.580438640340095 -9.398149322944326 0 1 0
76 16 1 -2.6159363117660077 -9.346585224434103 -9.796603283668055 0 1 0
77 16 3 -2.797137367721722 -8.927168900828363 -9.74316055905914 0 1 0
620 177 4 -9.716485498255485 -0.5070607464658888 -4.070858248850152 0 0 0
80 16 3 -2.175843004061927 -9.306923096991417 -9.906806714471479 0 1 0
1159 357 2 -9.305839717679865 -0.05970161602376449 -2.312802515289938 0 0 0
1564 492 2 -0.23216260740954625 -9.63805771611214 -9.744426827161043 0 1 0
1565 492 4 -0.6518560910225888 -9.409486727020877 -9.597414301305548 0 1 0
3837 1249 4 -0.869878993046469 -9.081030785441145 -9.529389728914149 0 1 0
3835 1249 2 -1.3154266320615502 -9.22170872331985 -9.70742629583832 0 1 0
3203 1038 4 -0.34265222997440553 -9.70689175947144 -8.354619845124473 0 0 1
415 109 2 -8.38238835748275 -9.991424595735591 -4.260919735108175 0 0 0
417 109 4 -8.787224628986426 -9.724069360686741 -4.381869193836489 0 0 0
623 178 4 -7.6748025532691235 -7.847711724715583 -8.995724844211447 0 0 0
624 178 4 -7.286220162462299 -6.926883777286624 -8.962867321670478 0 0 0
622 178 2 -7.480511357865711 -7.387297751001103 -8.979296082940962 0 0 0
55 11 3 -7.0531506458942985 -7.019564168999129 -9.266994388848962 0 0 1
53 11 3 -6.820100860769836 -6.704731222777633 -9.910009173769538 0 0 1
914 275 4 -5.035334699198978 -7.6726443582920725 -8.478248825008118 0 0 1
875 262 4 -5.171333032047815 -7.764971845506217 -8.094108825394423 0 0 1
913 275 2 -4.687606079092262 -7.32490342114022 -8.56858734053393 0 0 1
915 275 4 -4.339877458985547 -6.977162483988368 -8.658925856059744 0 0 1
1784 565 4 -3.5890479294126227 -7.89143601874988 -9.408444530727461 0 1 0
2585 832 4 -8.975293348740822 -9.994955471134848 -4.609837297998723 1 0 0
461 124 4 -3.7974117933517775 -8.001199947596419 -9.73132767835137 0 0 0
828 246 4 -4.158690690553781 -7.0361517806324585 -9.027195348110148 0 0 1
826 246 2 -3.9503402669923653 -6.745619025817302 -9.376739078393843 0 0 1
1783 565 2 -3.11510536053694 -7.918364362417821 -9.251430818859035 0 1 0
572 161 4 -2.3329115102329334 -7.772933491893248 -8.911822817108185 0 0 0
1785 565 4 -2.6411627916612574 -7.945292706085761 -9.094417106990608 0 1 0
571 161 2 -2.380517917959682 -7.297238261965199 -8.76537255877074 0 0 0
573 161 4 -2.42812432568643 -6.82154303203715 -8.618922300433294 0 0 0
2854 922 2 -1.2779171005726868 -7.371998170401888 -9.388451032991323 0 0 0
2855 922 4 -1.028612491483808 -7.799030182904054 -9.314350613388608 0 0 0
486 132 4 -0.8219281756759832 -7.1415949636836675 -8.718923631547975 0 0 0
2856 922 4 -1.5272217096615657 -6.944966157899722 -9.462551452594038 0 0 0
484 132 2 -0.7504782165671479 -7.496741202952094 -8.374299122731239 0 0 0
763 225 2 -8.56807353593433 -5.589986220332296 -8.543248340772784 0 0 0
1787 566 4 -8.492074249108565 -0.056222816960784905 -5.006405871477325 0 0 0
51 11 1 -6.794079979130733 -6.691077787981144 -9.446936288105952 0 0 1
911 274 4 -7.160125538502711 -6.517121642893589 -8.97454536831518 0 0 1
912 274 4 -7.94568041826382 -6.076258046676391 -8.540330190764589 0 0 1
764 225 4 -8.164370412229506 -5.797130483254733 -8.75328415259844 0 0 0
910 274 2 -7.5529029783832655 -6.29668984478499 -8.757437779539885 0 0 1
52 11 3 -6.945613951733364 -6.281833599715182 -9.301483032667589 0 0 1
54 11 3 -6.353574630300229 -6.74474979905838 -9.311384257953474 0 0 1
545 152 4 -6.304330627108739 -5.0116341586314945 -9.444567557104776 0 0 0
827 246 4 -3.7419898434309493 -6.455086271002145 -9.726282808677539 0 0 1
746 219 4 -2.2361502604185093 -6.482111900540381 -8.722286145976977 0 0 0
745 219 2 -2.480207791063659 -6.201450755553422 -9.056449644027875 0 0 0
747 219 4 -2.724265321708809 -5.920789610566463 -9.390613142078774 0 0 0
527 146 4 -2.877903383024348 -5.580985222336384 -9.198520744181916 0 0 0
28 6 3 -2.355507515613567 -5.080175162653284 -9.386192640363921 0 0 0
526 146 2 -3.212091248443188 -5.4908613333990015 -9.55934778758302 0 0 0
2841 917 4 -0.0706957192969952 -6.3391075224583355 -9.231930826888886 0 0 0
2839 917 2 -0.32508190295731837 -6.209426308619127 -9.642382349410031 0 0 0
1761 557 4 -0.3145021984139856 -4.997592432332044 -8.461669119362904 0 1 0
765 225 4 -8.971776659639154 -5.382841957409859 -8.33321252894713 0 0 0
361 91 2 -9.030265413856736 -3.5460534276082956 -8.962124960952107 0 0 0
363 91 4 -8.615468771889933 -3.4564399203436333 -9.22653593865221 0 0 0
546 152 4 -6.882933753387309 -4.220539044830042 -9.24610611707595 0 0 0
956 289 4 -7.2457450320326675 -4.038210502969902 -9.131782684703902 0 0 1
955 289 2 -7.653335720992146 -4.290541828831963 -9.273904928782091 0 0 1
1595 502 4 -8.213058992221997 -4.67583203817278 -9.768804592563082 0 0 0
957 289 4 -8.060926409951625 -4.542873154694025 -9.41602717286028 0 0 1
544 152 2 -6.593632190248024 -4.6160866017307685 -9.345336837090363 0 0 0
26 6 1 -2.024405903586783 -4.797904829855113 -9.224962426895651 0 0 0
30 6 3 -2.206691304665087 -4.488854335464474 -8.944498838402632 0 0 0
27 6 3 -1.8268353908748804 -4.582366937170029 -9.580081152568322 0 0 0
2454 788 4 -1.7272420884581494 -3.329766038986463 -9.877502321329136 0 0 0
2827 913 2 -1.0358667721751142 -5.119261408760795 -8.692067373174348 0 0 0
2829 913 4 -1.3643100628485558 -5.234847601707253 -9.050905549532063 0 0 0
564 158 4 -1.7013642436882297 -3.314201365654069 -9.465505617622485 0 0 0
29 6 3 -1.7015534563758348 -5.044359012417188 -9.000626443987626 0 0 0
1071 327 4 -0.9974079217557301 -4.1685470872156705 -8.61483664199122 0 0 1
562 158 2 -1.4144763004570213 -3.6188834252327022 -9.191892477222378 0 0 0
563 158 4 -1.127588357225813 -3.9235654848113355 -8.918279336822271 0 0 0
1069 327 2 -0.7421787331121793 -3.87881335119076 -8.297169483673702 0 0 1
362 91 4 -9.445062055823538 -3.635666934872958 -8.697713983252003 0 0 0
2356 756 2 -7.9243704758373745 -2.258864074269095 -8.80983941868214 0 0 1
2358 756 4 -7.8117864549616005 -2.1227579526624685 -9.277600000501923 0 0 1
922 278 2 -7.326249158438705 -1.8258334522804383 -9.716860040536089 0 0 1
924 278 4 -7.764689835688168 -2.0591944527650496 -9.659306448241246 0 0 1
923 278 4 -6.887808481189241 -1.5924724517958266 -9.774413632830932 0 0 1
3212 1041 4 -4.661688255664188 -1.7243277591171944 -9.17416692275766 0 0 1
1158 356 4 -3.693769585691089 -2.002205703107657 -9.61772327285932 0 0 1
3213 1041 4 -3.894283401597011 -2.307398879541797 -9.44084624043876 0 0 1
3211 1041 2 -4.2779858286306 -2.0158633193294957 -9.30750658159821 0 0 1
273 61 4 -4.331554554872831 -2.7034364117337812 -8.180517613037113 0 0 0
12 3 3 -3.325923904377807 -2.9483144551475946 -8.30496143923367 0 0 0
1156 356 2 -3.3128055059700574 -1.8781322829501204 -9.916842239782087 0 0 1
3880 1264 2 -1.7946396410207448 -2.0676669366715767 -8.605003789193322 0 0 0
3881 1264 4 -2.2163340313583118 -1.944224218132994 -8.843615893659408 0 0 0
1236 382 4 -6.66453722768683 -1.2403783635760761 -9.822415474884282 0 0 1
626 179 4 -5.556881934446747 -0.9396994721964859 -9.407347894766652 0 0 0
1235 382 4 -5.741314961022168 -0.8624974006144108 -9.752654281041996 0 0 1
625 179 2 -5.109895454528795 -1.1375453593443698 -9.302180924147212 0 0 0
1234 382 2 -6.202926094354499 -1.0514378820952435 -9.78753487796314 0 0 1
627 179 4 -4.6629089746108425 -1.3353912464922537 -9.197013953527772 0 0 0
3801 1237 4 -1.9618701789121336 -1.757776837142128 -9.09514913383157 0 0 0
3799 1237 2 -1.9171425394944612 -1.5724616482385543 -9.55738037361701 0 0 0
2783 898 4 -0.06134157691048896 -0.11782083432020063 -8.755026645469774 0 0 0
2782 898 2 -0.1348442059556417 -0.5854937796121021 -8.594155952783654 0 0 0
1624 512 2 -0.48191509440818625 -0.017955166847182118 -6.6986559450803735 0 0 0
1402 438 2 -8.59818009828147 -8.53158111771596 -8.293328212492716 0 1 0
2797 903 2 -9.765833262941628 -8.836680497304757 -7.651851684378582 1 0 0
2799 903 4 -9.385400767635788 -8.853866417265538 -7.9758513150434664 1 0 0
476 129 4 -5.949897436317983 -9.203142225451506 -7.950839672726777 0 0 0
17 4 3 -6.452134110078716 -8.564389720973562 -7.160500249794372 0 0 0
477 129 4 -6.7048206045942536 -8.767063737001328 -7.461016682339504 0 0 0
475 129 2 -6.327359020456118 -8.985102981226417 -7.70592817753314 0 0 0
698 203 4 -5.142132228886186 -9.210347553218334 -6.867545508507822 0 0 0
699 203 4 -5.0546172591907945 -9.028595774386215 -7.846987911597287 0 0 0
697 203 2 -5.09837474403849 -9.119471663802274 -7.357266710052555 0 0 0
16 4 1 -6.430674990332177 -8.459850288898062 -6.713050796424327 0 0 0
876 262 4 -5.2667949729492145 -8.759219153817757 -8.045536119534697 0 0 1
1653 521 4 -0.8203809218545919 -9.870694338492239 -6.674225976859596 0 1 0
628 180 2 -0.4068895921752131 -9.441592223917015 -7.797704621064638 0 0 0
629 180 4 -0.6880109807527441 -9.723622348238319 -8.100078187799074 0 0 0
630 180 4 -0.12576820359768215 -9.15956209959571 -7.495331054330203 0 0 0
1533 481 4 -8.632838262870587 -7.785924383894111 -7.970790326328659 0 1 0
1531 481 2 -8.560265322276004 -7.349906159817639 -7.737078374202866 0 1 0
1404 438 4 -8.707166912103233 -8.044679019896314 -8.260951962683079 0 1 0
1532 481 4 -8.487692381681422 -6.913887935741167 -7.5033664220770735 0 1 0
693 201 4 -7.605593570095257 -6.796570143822638 -6.668351320353349 0 0 0
874 262 2 -5.219064002498515 -8.262095499661987 -8.06982247246456 0 0 1
420 110 4 -1.4028612142971406 -7.12002714120136 -6.895432870194179 0 0 0
311 74 4 -1.1421389138023397 -7.408860254048092 -6.919779794777263 0 0 0
312 74 4 -0.7048948014631067 -7.938998681404831 -7.646258173027139 0 0 0
485 132 4 -0.6790282574583125 -7.851887442220521 -8.029674613914503 0 0 0
310 74 2 -0.9235168576327231 -7.673929467726461 -7.283018983902201 0 0 0
531 147 4 -9.679456410636142 -5.930542822731572 -6.889887033086922 0 0 0
692 201 4 -7.317116453276606 -5.844171146340733 -6.76692668578125 0 0 0
2760 890 4 -7.414607292976787 -5.786257669744473 -7.166316062312765 1 0 0
2758 890 2 -7.184390644548915 -5.347189165441017 -7.231270995269512 1 0 0
691 201 2 -7.4613550116859315 -6.3203706450816854 -6.717639003067299 0 0 0
557 156 4 -2.231047096204879 -5.133207270030398 -7.297291637885887 0 0 0
402 104 4 -2.3800679154755153 -5.393255262772785 -6.992159132681699 0 0 0
556 156 2 -1.8022125887704252 -4.876386686849648 -7.285285252604072 0 0 0
419 110 4 -1.4925187346945339 -6.13603800840742 -6.7413974340768466 0 0 0
2828 913 4 -0.7074234815016727 -5.0036752158143365 -8.333229196816633 0 0 0
418 110 2 -1.4476899744958371 -6.62803257480439 -6.818415152135513 0 0 0
3343 1085 2 -0.5014823478455812 -5.880086642129376 -6.651260756304331 0 0 1
3345 1085 4 -0.9086228798859115 -5.598980475480687 -6.5790394973720145 0 0 1
3344 1085 4 -0.09434181580525092 -6.161192808778065 -6.723482015236647 0 0 1
549 153 4 -8.881353397151198 -4.031113228550425 -7.6966466070959845 0 0 0
547 153 2 -8.481372799948714 -4.091715545855117 -7.402805015420236 0 0 0
2759 890 4 -6.954173996121043 -4.90812066113756 -7.296225928226258 1 0 0
450 120 4 -7.052773307470884 -4.672446375807409 -6.9901244926348856 0 0 0
448 120 2 -7.3934479910266795 -4.31287793495432 -7.0583249055814585 0 0 0
548 153 4 -8.08139220274623 -4.152317863159809 -7.108963423744487 0 0 0
449 120 4 -7.734122674582475 -3.95330949410123 -7.1265253185280315 0 0 0
2092 668 2 -6.002214149041306 -3.383807572230165 -6.988677187920633 0 0 1
2094 668 4 -6.086927152174812 -3.8458866185985983 -7.159869074431625 0 0 1
493 135 2 -3.666712570660267 -4.3605541992000525 -6.560587318070678 0 0 0
494 135 4 -3.833637108061949 -4.797760117907016 -6.736619086400338 0 0 0
495 135 4 -3.499788033258585 -3.923348280493089 -6.384555549741019 0 0 0
558 156 4 -1.3733780813359717 -4.619566103668899 -7.273278867322257 0 0 0
519 143 4 -0.9925580237533167 -4.660076186767345 -7.09462131645252 0 0 0
517 143 2 -0.9289069188056526 -4.169977234199471 -7.018782319025842 0 0 0
518 143 4 -0.8652558138579886 -3.6798782816315967 -6.942943321599163 0 0 0
1070 327 4 -0.48694954446862865 -3.5890796151658497 -7.979502325356184 0 0 1
521 144 4 -0.27974524216456326 -3.3539509601457076 -8.196547878468643 0 0 0
2597 836 4 -8.658539500582316 -3.4563161519447863 -7.918561025038995 1 0 0
2596 836 2 -8.504213887751646 -2.9919420248829596 -8.02122686814179 1 0 0
2357 756 4 -8.036954496713149 -2.3949701958757212 -8.342078836862356 0 0 1
2844 918 4 -8.461860839880647 -2.725937702844744 -7.054767626345185 1 0 0
2598 836 4 -8.349888274920977 -2.527567897821133 -8.123892711244585 1 0 0
2842 918 2 -8.211161033427064 -2.9296361176748187 -6.673117835515955 1 0 0
272 61 4 -5.258705507934098 -2.866782351540629 -7.8433096442899695 0 0 0
2093 668 4 -5.9175011459078 -2.921728525861732 -6.817485301409641 0 0 1
1222 378 2 -5.61150192024412 -2.355947117868547 -6.901169028643991 0 0 1
1224 378 4 -5.602992484592581 -1.9442030847206455 -7.1847081629310985 0 0 1
271 61 2 -4.795130031403465 -2.7851093816372052 -8.01191362866354 0 0 0
15 3 3 -3.965290341662429 -2.7097297673575262 -8.002822554571514 0 0 0
14 3 3 -3.3317191582082866 -2.316815509268497 -7.897437824721063 0 0 0
13 3 3 -3.4247622224239413 -2.99199562395776 -7.5611718571770385 0 0 0
11 3 1 -3.515210521557633 -2.7407988219660755 -7.940670568442982 0 0 0
3882 1264 4 -1.3729452506831779 -2.1911096552101594 -8.366391684727237 0 0 0
659 190 4 -1.223668526410787 -1.9349451187501177 -8.080649919770353 0 0 0
658 190 2 -1.1549464291936566 -2.203448266786743 -7.664496903623254 0 0 0
3607 1173 2 -0.8993899346245883 -2.9605640238905115 -6.829931739852326 0 0 0
3609 1173 4 -1.1532088178302258 -2.5303759363207794 -6.852607362027214 0 0 0
660 190 4 -1.0862243319765263 -2.4719514148233688 -7.248343887476155 0 0 0
1778 563 4 -8.707870268254009 -0.24562193228361476 -8.102569728256267 0 0 0
1779 563 4 -9.69669419679268 -0.22490166947330395 -7.954928578648694 0 0 0
1777 563 2 -9.202282232523345 -0.23526180087845935 -8.02874915345248 0 0 0
702 204 4 -8.369804678405995 -0.4075799813401303 -8.207082240481585 0 0 0
454 122 2 -6.872069446053053 -0.13426527530764815 -7.467016002163799 0 0 0
455 122 4 -7.267115630921985 -0.38833065056646143 -7.638449070488478 0 0 0
701 204 4 -7.392367684378215 -0.47194965797733557 -8.005902053996751 0 0 0
700 204 2 -7.881086181392105 -0.43976481965873293 -8.106492147239168 0 0 0
610 174 2 -0.8776713468773982 -1.0809500653104498 -6.907529856934742 0 0 0
611 174 4 -1.0486915883131438 -1.536900290022592 -6.7941214374765515 0 0 0
19 4 3 -6.69572689488923 -8.758262517833934 -6.476412613722718 0 0 0
20 4 3 -5.998607753324851 -8.49047624861757 -6.572409574528944 0 0 0
743 218 4 -5.8253864403868 -8.284629074811338 -6.227848318232926 0 0 0
730 214 2 -9.865167425859802 -8.202585346801948 -6.7568723354970714 0 0 0
731 214 4 -9.637109203881398 -7.909790018504691 -6.421819588730922 0 0 0
2477 796 4 -9.249761658994482 -7.845375955138051 -6.376157992881926 1 0 0
2476 796 2 -9.202792363264994 -7.3636556667947115 -6.501614953855573 1 0 0
2478 796 4 -9.155823067535506 -6.881935378451372 -6.62707191482922 1 0 0
364 92 2 -6.943829078208658 -7.362786003982174 -6.503693720427982 0 0 0
366 92 4 -7.317049619070122 -7.035090487497499 -6.561331176606818 0 0 0
365 92 4 -6.570608537347194 -7.69048152046685 -6.446056264249147 0 0 0
18 4 3 -6.586583047452108 -8.027040266726848 -6.652485439714754 0 0 0
742 218 2 -5.511865964335341 -7.895136345229205 -6.228418141475348 0 0 0
744 218 4 -5.1983454882838815 -7.505643615647071 -6.228987964717771 0 0 0
23 5 3 -4.960869198707136 -7.412205332293628 -6.535066189813818 0 0 0
24 5 3 -4.228475510669406 -7.614923118111714 -6.545312410384767 0 0 0
22 5 3 -4.421737185163402 -6.888598807914537 -6.54360314479802 0 0 0
25 5 3 -4.527058636954665 -7.30012774324023 -5.929965363054792 0 0 0
21 5 1 -4.534890041287728 -7.3054081087835225 -6.385279306225957 0 0 0
422 111 4 -2.9182555214751713 -6.834783204690717 -5.1185360269980125 0 0 0
2836 916 2 -0.32389763068283556 -6.912269801941876 -5.148315497917364 0 0 0
530 147 4 -9.352067957093524 -6.676844886663708 -6.310361339215006 0 0 0
529 147 2 -9.515762183864833 -6.30369385469764 -6.600124186150964 0 0 0
400 104 2 -2.577716975923501 -5.577073398598554 -6.571272281087034 0 0 0
1700 537 4 -2.8391808069818176 -6.464224198296559 -5.231156808188881 0 1 0
401 104 4 -2.7753660363714863 -5.760891534424323 -6.150385429492369 0 0 0
1699 537 2 -2.6856750603555404 -6.270020191708413 -5.6655768693943225 0 1 0
1701 537 4 -2.532169313729263 -6.075816185120267 -6.099996930599764 0 1 0
102 21 3 -2.2035323812665464 -4.9769645523848745 -5.082444029141293 0 0 0
105 21 3 -2.332308531941453 -4.965086364620486 -5.81747845804433 0 0 0
2837 916 4 -0.7399488236250873 -6.638888079206606 -5.101798420135926 0 0 0
302 71 4 -9.661010534503182 -3.924750701489553 -6.66611390143993 0 0 0
301 71 2 -9.87810842102194 -4.273601541262808 -6.381207602353945 0 0 0
1914 608 4 -7.656022382947158 -3.276149673572874 -6.095333417341959 0 0 1
754 222 2 -6.314482717020125 -4.182075953682043 -5.325556033235652 0 0 0
755 222 4 -5.917929587194176 -3.9899887389988713 -5.561878095642861 0 0 0
510 140 4 -5.852157862280715 -3.722163322019262 -5.895066365703065 0 0 0
756 222 4 -6.711035846846074 -4.3741631683652145 -5.089233970828443 0 0 0
101 21 1 -2.116220463275745 -4.755238879658409 -5.475908582857093 0 0 0
103 21 3 -2.266745595988359 -4.317946954416244 -5.438252819156684 0 0 0
588 166 4 -1.924387098844922 -4.094272460571066 -5.417083323921087 0 0 0
586 166 2 -2.129921106804174 -3.638470124483399 -5.417127923927934 0 0 0
750 220 4 -1.6365592704501006 -4.374378296869503 -5.49923856517011 0 0 0
104 21 3 -1.6585060024228593 -4.759216158095795 -5.551945768380981 0 0 0
3608 1173 4 -0.6455710514189508 -3.3907521114602437 -6.807256117677438 0 0 0
748 220 2 -1.151359367692227 -4.26067128516623 -5.458596593597092 0 0 0
749 220 4 -0.6661594649343532 -4.146964273462956 -5.417954622024075 0 0 0
289 67 2 -9.805697245185385 -2.354260483317279 -5.369164042277641 0 0 0
2843 918 4 -7.960461226973482 -3.1333345325048936 -6.291468044686724 1 0 0
1913 608 4 -7.375089296768883 -2.771941375070761 -5.27872421288006 0 0 1
1912 608 2 -7.5155558398580204 -3.0240455243218176 -5.6870288151110095 0 0 1
1223 378 4 -5.620011355895659 -2.7676911510164484 -6.617629894356883 0 0 1
508 140 2 -5.702914324630726 -3.2456207519821145 -5.92023669371123 0 0 0
1758 556 4 -6.111755537721447 -1.733558910390685 -5.318373519441835 0 0 0
509 140 4 -5.553670786980736 -2.769078181944967 -5.945407021719395 0 0 0
587 166 4 -2.3354551147634255 -3.1826677883957326 -5.417172523934781 0 0 0
387 99 4 -2.0126193591021933 -3.034546624019717 -5.62109746897397 0 0 0
385 99 2 -2.101603370514604 -2.5709866598650004 -5.786003519031613 0 0 0
386 99 4 -2.190587381927015 -2.107426695710284 -5.950909569089257 0 0 0
2651 854 4 -2.0321356896031673 -1.9980082115530806 -6.294414831443978 0 0 0
2650 854 2 -1.679802118965406 -1.668681197127563 -6.426341980171422 0 0 0
1530 480 4 -0.6048334479348043 -2.168654935373268 -5.626655553584491 0 0 0
1528 480 2 -0.8723684522814183 -2.360726827596762 -5.25044629045186 0 0 0
1757 556 4 -6.407073994324789 -1.0823009905021546 -6.01740866231505 0 0 0
1756 556 2 -6.259414766023118 -1.4079299504464198 -5.667891090878443 0 0 0
412 108 2 -5.7508872573595315 -0.07249694905228257 -5.384037131321003 0 0 0
414 108 4 -5.398522193992731 -0.4246933002090898 -5.341650903011796 0 0 0
1862 591 4 -1.759014832788302 -1.218551286258843 -5.354762379899537 0 0 0
597 169 4 -1.9665039986114876 -1.1393127554742168 -5.0376197035736565 0 0 0
612 174 4 -0.7066511054416527 -0.6249998405983075 -7.020938276392933 0 0 0
1625 512 4 -0.5311014833069302 -0.5151107495783934 -6.678234737808687 0 0 0
2652 854 4 -1.3274685483276447 -1.3393541827020454 -6.558269128898866 0 0 0
1861 591 2 -1.3678050524000858 -0.9923380804596762 -5.140793940053068 0 0 0
1863 591 4 -0.9765952720118695 -0.7661248746605095 -4.926825500206599 0 0 0
298 70 2 -9.591790851882777 -8.886696276236666 -3.8299432258290014 0 0 0
299 70 4 -9.784394732746081 -9.023128590289822 -3.3891598677513888 0 0 0
300 70 4 -9.399186971019473 -8.75026396218351 -4.270726583906614 0 0 0
440 117 4 -7.836492180997636 -8.893759670807597 -3.4234980477878647 0 0 0
354 88 4 -7.783985336535534 -8.54871934327705 -3.620054534488793 0 0 0
352 88 2 -7.352302054424908 -8.433111916615744 -3.8442965172812853 0 0 0
353 88 4 -6.920618772314282 -8.317504489954437 -4.068538500073778 0 0 0
466 126 2 -5.560041089138945 -8.487361584268053 -4.554457860141524 0 0 0
496 136 2 -5.271702549450734 -9.527045860052132 -3.797601904160151 0 0 0
497 136 4 -5.240662930640147 -9.159365493093201 -4.135015137179919 0 0 0
467 126 4 -5.273248672780904 -8.791144082177974 -4.279746550066551 0 0 0
332 81 4 -1.795603995584018 -8.794306242136223 -4.647035447740226 0 0 0
333 81 4 -1.8609148436641576 -9.767534857423659 -4.86740004450944 0 0 0
3891 1267 4 -1.9274630244911632 -9.976281057899335 -4.527445505664897 0 1 0
331 81 2 -1.8282594196240878 -9.28092054977994 -4.757217746124833 0 0 0
389 100 4 -6.830132917039617 -7.928284910937159 -4.085153995568638 0 0 0
468 126 4 -5.846833505496987 -8.183579086358131 -4.829169170216498 0 0 0
388 100 2 -6.49032063119327 -7.921558621578491 -4.451872371736166 0 0 0
390 100 4 -6.150508345346923 -7.914832332219823 -4.818590747903694 0 0 0
421 111 2 -2.960831859557499 -7.229872726755634 -4.81507017226305 0 0 0
423 111 4 -3.003408197639827 -7.624962248820551 -4.511604317528087 0 0 0
2895 935 4 -2.9882849703745573 -7.52108213416197 -4.162988445510525 0 0 0
2893 935 2 -2.992716328772911 -7.39306651546417 -3.6796745056823306 0 0 0
345 85 4 -6.76653766584596 -5.731416954716357 -4.842286326742029 0 0 0
343 85 2 -6.818887331031503 -5.237796353007349 -4.902271442589718 0 0 0
337 83 2 -6.346803719618658 -5.452980595432285 -3.5231946114671957 0 0 0
338 83 4 -6.162367758613706 -5.459633446491122 -3.987887107490819 0 0 0
507 139 4 -5.996236749977015 -5.277609788176485 -4.2884838490390464 0 0 0
505 139 2 -5.5501289514179595 -5.081734390172015 -4.400825562224541 0 0 0
2853 921 4 -0.8008998270016836 -6.224475102483776 -5.089632312992681 0 0 0
2851 921 2 -0.8607819277850279 -5.879227671347593 -4.732955505083491 0 0 0
2852 921 4 -0.9206640285683724 -5.5339802402114096 -4.376278697174302 0 0 0
275 62 4 -0.6643082825160415 -5.205908116821001 -4.421939411083834 0 0 0
2800 904 2 -9.72065920617924 -4.237885362420504 -4.8240470402574696 1 0 0
2802 904 4 -9.344779087036773 -3.932887741304859 -4.949309114115698 1 0 0
2614 842 2 -8.644860941350714 -3.9515043344108602 -4.521204767253631 1 0 0
2616 842 4 -8.931565631550122 -3.86711110801863 -4.922051625737488 1 0 0
2615 842 4 -8.358156251151307 -4.0358975608030905 -4.120357908769774 1 0 0
2580 830 4 -9.651240296133214 -3.52707769959979 -3.3908724364960916 1 0 0
344 85 4 -6.871236996217045 -4.744175751298341 -4.9622565584374065 0 0 0
4298 1403 4 -8.179269365712065 -4.1197589626498266 -3.7778822710857027 1 0 0
4297 1403 2 -7.893873489919752 -3.7292109992916695 -3.651306276531006 1 0 0
4299 1403 4 -7.608477614127439 -3.3386630359335125 -3.5247302819763093 1 0 0
506 139 4 -5.104021152858904 -4.885858992167544 -4.513167275410035 0 0 0
648 186 4 -4.929567321221704 -4.595643608435482 -4.721885397893331 0 0 0
646 186 2 -4.551036627398569 -4.411221280444851 -4.4522506101292265 0 0 0
2955 955 4 -4.0427736897375155 -4.4539659424956595 -3.9111714905590556 1 0 0
647 186 4 -4.172505933575435 -4.226798952454219 -4.182615822365122 0 0 0
2953 955 2 -3.6248624271386736 -4.25038682589967 -3.7270364317593727 1 0 0
2954 955 4 -3.2069511645398316 -4.046807709303681 -3.54290137295969 1 0 0
473 128 4 -2.815001070391949 -3.986760031503077 -3.4301667211914717 0 0 0
274 62 2 -0.48062462335128436 -4.860398289964387 -4.110678631509415 0 0 0
276 62 4 -0.29694096418652727 -4.514888463107773 -3.7994178519349955 0 0 0
2937 949 4 -0.06366000557475282 -4.332441149337006 -3.537473086562464 0 0 0
290 67 4 -9.561417020757657 -2.182784301846117 -4.968011837819766 0 0 0
1821 577 4 -9.418237590766019 -2.119228506439281 -4.608302315440622 0 0 0
1819 577 2 -9.094385798150826 -2.4489862182931406 -4.417567242911454 0 0 0
1820 577 4 -8.770534005535634 -2.7787439301470003 -4.226832170382285 0 0 0
603 171 4 -8.457280226778972 -2.933500710679966 -4.452842848400874 0 0 0
570 160 4 -8.523293112267835 -1.8844395148386857 -4.170568449863585 0 0 0
602 171 4 -7.673084440219883 -2.911178782383682 -5.072954693038151 0 0 0
601 171 2 -8.065182333499427 -2.922339746531824 -4.762898770719512 0 0 0
568 160 2 -8.071954898290263 -1.8238537412744087 -3.9641146277985784 0 0 0
248 53 4 -3.3898080310326684 -2.4386521452756194 -3.6150314204460448 0 0 0
247 53 2 -3.633042340338158 -2.8284421418573817 -3.4177984887607638 0 0 0
1430 447 4 -3.4716832426861437 -2.281797885587844 -3.981336675511466 0 0 0
1429 447 2 -3.2469293162983446 -2.0406324137301954 -4.3572687009591995 0 0 0
267 59 4 -1.526404212761741 -2.7544802865618583 -3.340247594979534 0 0 0
1431 447 4 -3.0221753899105455 -1.7994669418725466 -4.733200726406933 0 0 0
1529 480 4 -1.1399034566280324 -2.552798719820256 -4.8742370273192295 0 0 0
812 241 4 -1.354954546518941 -2.3337397542852383 -4.611673665782022 0 0 0
811 241 2 -1.4817946288636896 -2.4459595158377136 -4.141228856450133 0 0 0
813 241 4 -1.6086347112084383 -2.558179277390189 -3.670784047118244 0 0 0
621 177 4 -9.898100866918996 -1.0706372995358757 -4.876710174885728 0 0 0
619 177 2 -9.807293182587241 -0.7888490230008823 -4.47378421186794 0 0 0
569 160 4 -7.620616684312693 -1.7632679677101317 -3.7576608057335714 0 0 0
596 169 4 -2.794285075448855 -1.4830101563729934 -4.594166678500653 0 0 0
595 169 2 -2.3803945370301713 -1.3111614559236051 -4.815893191037155 0 0 0
230 47 4 -0.1591729547483319 -0.25513069163479135 -4.2572389669773125 0 0 0
3682 1198 2 -1.1289522073707694 -0.019962871296859794 -4.608045208323437 0 0 0
3684 1198 4 -0.9739562635207173 -0.49527741108356466 -4.600810178424363 0 0 0
1773 561 4 -9.782284538241338 -9.07802596668636 -2.9882016905837547 0 1 0
439 117 2 -7.754745681211587 -9.320801334488532 -3.1766115814646736 0 0 0
441 117 4 -7.6729991814255385 -9.747842998169467 -2.9297251151414825 0 0 0
4366 1426 2 -0.007462645240389791 -1.113722829285854 -7.5652644361488175 0 0 1
705 205 4 -6.401472156445077 -9.191534739479206 -1.9220270259112486 0 0 0
498 136 4 -5.302742168261322 -9.894726227011063 -3.4601886711403833 0 0 0
703 205 2 -6.139647512348369 -9.60631082781087 -2.0190252335825085 0 0 0
432 114 4 -2.719350616518625 -8.653559190776084 -1.7891520693239118 0 0 0
430 114 2 -2.2679700290603604 -8.454117005831469 -1.8696404543891074 0 0 0
3402 1104 4 -0.11439406570026242 -9.829023810528433 -3.102016140104669 0 0 0
257 56 4 -1.5407956317139717 -8.430593452594325 -1.6810402885291313 0 0 0
4367 1426 4 -0.08105008839247313 -1.1674840212154607 -8.056888909149105 0 0 1
3487 1133 2 -0.3869889112723637 -9.983580862190665 -2.4984567165381737 0 0 0
262 58 2 -4.197046980016296 -0.04838756308013965 -1.6210499435563288 0 0 0
1518 476 4 -4.256206543696783 -7.743619072041034 -1.6675837751152274 0 1 0
1516 476 2 -3.8386876364291576 -7.811520722871888 -1.9341683356005082 0 1 0
1198 370 2 -4.907651080449929 -7.6552765633434445 -1.5684687151547325 0 0 0
1199 370 4 -4.5022168314427695 -7.441222286366241 -1.767977703021885 0 0 0
2894 935 4 -2.9971476871712643 -7.26505089676637 -3.1963605658541363 0 0 0
278 63 4 -2.788601041029289 -7.527963639919563 -2.9999535539565785 0 0 0
277 63 2 -2.9101171836967277 -7.684883576192501 -2.5410309453705837 0 0 0
279 63 4 -3.031633326364166 -7.841803512465439 -2.082108336784589 0 0 0
2657 856 4 -2.3780102850058062 -7.004605128417891 -1.6996647645874607 0 0 0
1517 476 4 -3.421168729161532 -7.8794223737027425 -2.200752896085789 0 1 0
431 114 4 -1.8165894416020951 -8.254674820886853 -1.9501288394543035 0 0 0
2533 815 2 -8.36847712622169 -5.140949787041223 -2.5714818488479767 1 0 0
2534 815 4 -8.095072174624791 -5.276773810872474 -2.967463624934072 1 0 0
348 86 4 -7.789755337761211 -5.478255927433532 -2.8115434716305483 0 0 0
346 86 2 -7.492746308105765 -5.846335921879308 -2.6493622335313947 0 0 0
347 86 4 -7.195737278450319 -6.214415916325084 -2.487180995432241 0 0 0
339 83 4 -6.531239680623611 -5.446327744373448 -3.0585021154435723 0 0 0
261 57 4 -6.642183013323564 -5.679435429009075 -2.7450071554706783 0 0 0
259 57 2 -6.3871177566762825 -5.831184655020808 -2.342621908156208 0 0 0
260 57 4 -6.132052500029001 -5.982933881032539 -1.9402366608417378 0 0 0
370 94 2 -5.284641618318849 -6.261623814466298 -1.9825452062738327 0 0 0
372 94 4 -5.766186674528428 -6.181325942518021 -1.8745331208368643 0 0 0
599 170 4 -3.541504255310422 -6.1884885833711545 -1.5870806765533865 0 0 0