LAMMPS data file via write_data, version 27 Jun 2024, timestep = 6000000, units = lj

1600 atoms
4 atom types
1100 bonds
1 bond types

-6.93258 6.93258 xlo xhi
-6.93258 6.93258 ylo yhi
-6.93258 6.93258 zlo zhi

Masses

1 1
2 1
3 0.5
4 0.5

Bond Coeffs # zero

1 0

Atoms # bond

332 78 2 -6.463038741609086 -5.4258282956824635 -5.4131762393771465 0 0 0
136 28 1 -3.563401837364871 -5.322360205099873 -6.428284908870038 0 0 0
309 70 4 -3.7053590313488733 -5.981580054570919 -6.357048833138409 0 0 0
139 28 3 -3.8690652120869036 -5.628223874683006 -6.26000740894076 0 0 0
308 70 2 -4.029889185063799 -6.270954055478082 -6.11018274205169 0 0 0
310 70 4 -4.354419338778724 -6.560328056385246 -5.863316650964972 0 0 0
1255 385 4 -4.601963998121802 -6.347601673877433 -6.693432767547036 1 1 1
1011 304 4 -3.379450618248944 -5.924662649701051 -6.538440286957058 0 0 0
137 28 3 -3.235638488155638 -5.550129047291003 -6.656960533810327 0 0 0
1010 304 2 -3.0947749386698007 -6.325693777891491 -6.6286278231142095 0 0 0
1012 304 4 -2.8100992590906575 -6.726724906081932 -6.71881535927136 0 0 0
1209 370 4 -4.171255332540634 -0.2936881543163294 -1.9571104672084525 1 0 0
338 80 2 -2.398259585125129 -5.052162204288577 -6.8623473018448164 0 0 0
935 279 2 -1.1942003919466706 -5.699576884058646 -5.992630205954921 0 0 0
936 279 4 -1.1754755173606828 -6.014650161047212 -5.604843912747336 0 0 0
227 46 3 -0.8036154184408831 -5.9951507398905886 -5.459403498359369 0 1 1
113 23 3 -1.117700133098341 -5.543551938022908 -6.760842733150552 0 1 1
266 56 2 -0.7665003843955166 -0.07469400593796374 -5.377197283988938 0 0 0
334 78 4 -6.434062856724004 -5.171707001986841 -5.84280720449191 0 0 0
500 134 2 -6.219870890485022 -3.885917799540214 -5.625655461836024 0 0 1
502 134 4 -5.738734078870575 -3.750289940521765 -5.63625981788409 0 0 1
645 182 4 -6.244011321272886 -4.8064772870157775 -5.989743535373325 0 1 0
644 182 2 -6.612457097081694 -4.683524547298494 -6.304593236158605 0 1 0
501 134 4 -6.701007702099469 -4.021545658558663 -5.615051105787957 0 0 1
1015 305 4 -1.3278244584662513 -1.0263557421962508 -0.3709399631173829 0 0 0
750 217 4 -6.774707180207249 -3.933716072690634 -5.241807688287665 0 1 0
138 28 3 -3.7754224212715637 -5.0310147810108266 -6.720629082511329 0 0 0
1210 370 4 -3.449596853337866 -0.4825778649894809 -1.2911301997861369 1 0 0
140 28 3 -3.37326332985024 -5.0887305944971 -6.086722977429364 0 0 0
1038 313 4 -2.150108271770882 -3.362424768826605 -6.517054925391342 0 0 0
1037 313 2 -2.270248506110123 -3.846580928798209 -6.551101024350738 0 0 0
1039 313 4 -2.390388740449364 -4.330737088769813 -6.5851471233101355 0 0 0
340 80 4 -2.596546313359414 -4.6538915880444796 -6.634174363830422 0 0 0
937 279 4 -1.2129252665326584 -5.384503607070081 -6.380416499162505 0 0 0
43 9 3 -5.667511948779235 -3.459910258298112 -5.884560705825332 0 0 1
45 9 3 -5.761035803562566 -2.827920862385543 -5.4861354405109495 0 0 1
41 9 1 -5.494683067794227 -3.0401487439921215 -5.78848548006381 0 0 1
42 9 3 -5.479268580339851 -2.793339169806859 -6.176361011216681 0 0 1
1497 466 4 -5.610069807169059 -2.777130458679668 -6.571776383307094 0 0 1
69 14 3 -6.752292973635977 -2.0193259078062695 -6.788599133152062 0 0 0
1496 466 2 -5.6774386824028005 -2.337444727256859 -6.8001136168733725 0 0 1
44 9 3 -5.064503485768224 -3.08086645214972 -5.619406813608097 0 0 1
394 98 4 -3.7127804313073973 -2.72637184145874 -6.535435833751732 0 0 0
461 121 2 -4.420249455927335 -3.0556094734277046 -6.179741947869495 0 0 1
462 121 4 -3.996378194294753 -2.972101165022027 -6.431455109998493 0 0 1
463 121 4 -4.8441207175599175 -3.139117781833382 -5.928028785740497 0 0 1
337 79 4 -4.922327969903176 -2.902230817376892 -5.295499169874037 0 0 0
392 98 2 -3.418924449903187 -2.3399408401378574 -6.41577070344915 0 0 0
393 98 4 -3.1250684684989762 -1.9535098388169747 -6.296105573146567 0 0 0
1084 328 4 -2.733859257231241 -1.9259866844287956 -6.32944711759031 0 0 0
1082 328 2 -2.331460786926578 -2.2104617652517473 -6.244892995945176 0 0 0
1083 328 4 -1.929062316621915 -2.494936846074699 -6.1603388743000425 0 0 0
1443 448 4 -1.7387436265757443 -2.851467777432389 -6.175562009498088 0 0 0
1442 448 2 -1.4715913781196506 -2.9436743564473637 -5.763096710436045 0 0 0
556 152 4 -0.230407359741481 -3.1838535199458415 -6.766097867359527 0 0 1
1444 448 4 -1.204439129663557 -3.035880935462339 -5.350631411374002 0 0 0
70 14 3 -6.6416051061692984 -1.2816944479329542 -6.685895552875943 0 0 0
704 202 2 -1.5180881208082844 -1.2045681973625881 -1.2164116792432569 0 0 0
1423 441 4 -6.855909643568686 -1.0426726635374541 -6.91286915665569 1 0 0
651 184 4 -5.971274002557842 -0.26679353447121357 -5.513289541691836 0 0 0
534 145 4 -1.0545513129682427 -2.625643098833826 -0.01944215019166301 0 0 0
67 14 3 -6.081702478447305 -1.7106678099525554 -6.92980312173818 0 0 0
737 213 2 -4.063386009250691 -0.18370681683591258 -6.194757241234953 0 0 0
738 213 4 -3.898979896871471 -0.020214081882598656 -6.637747936205238 0 0 0
415 105 4 -4.369204582060956 -0.7060111875815571 -5.818120198611674 0 0 0
739 213 4 -4.2277921216299115 -0.3471995517892269 -5.751766546264668 0 0 0
413 105 2 -4.5235720430303505 -1.0025277876187326 -5.446302241950143 0 0 0
414 105 4 -4.677939503999745 -1.2990443876559081 -5.074484285288611 0 0 0
941 281 2 -0.3527334891756517 -0.5285478866218207 -6.2978313171975495 1 -1 0
943 281 4 -0.8020988820204276 -0.4805288807844191 -6.083903949168495 1 -1 0
268 56 4 -0.9825565365948321 -0.3339942768582934 -5.746091724984742 0 0 0
333 78 4 -6.492014626494169 -5.6799495893780865 -4.983545274262383 0 0 0
396 99 4 -6.202880213701934 -5.708525528443647 -4.7034600641088895 0 0 0
395 99 2 -6.218078553334852 -5.422030520029813 -4.293960832575465 0 0 0
1003 301 4 -6.572730300448452 -5.131685339878553 -3.6880100020782405 0 0 0
468 123 4 -3.350469448435748 -6.897749992391148 -4.852196633050118 0 0 1
469 123 4 -3.147162366201482 -5.940761487092352 -5.059173035179214 0 0 1
467 123 2 -3.248815907318615 -6.41925573974175 -4.955684834114666 0 0 1
276 59 4 -2.1006857088873945 -5.629339548701551 -4.616839845235953 0 0 0
18 4 3 -2.4926950202636484 -5.551084751647044 -4.672877716299787 0 0 0
17 4 3 -3.0979308933076237 -5.558333018675819 -5.1184526265062935 0 0 0
16 4 1 -2.859741520239249 -5.306148321437687 -4.816345524577001 0 0 0
229 46 3 -0.3481683811223639 -6.386936784216201 -5.007771245669753 0 1 1
961 287 4 -0.17018777427013368 -6.713226645060692 -5.058428617033713 0 0 0
275 59 2 -1.711194214569368 -5.9063862022909275 -4.763610167808603 0 0 0
277 59 4 -1.3217027202513412 -6.183432855880304 -4.910380490381254 0 0 0
226 46 1 -0.6333250900878076 -6.021760823412563 -5.03291421651941 0 1 1
230 46 3 -0.404753890567716 -5.6393379212538415 -4.938532382173723 0 1 1
228 46 3 -0.9844888604992399 -6.074134719452759 -4.7341819260585245 0 1 1
999 300 4 -0.30741107607256757 -5.698599828017668 -4.534655813430567 0 0 0
397 99 4 -6.23327689296777 -5.135535511615979 -3.88446160104204 0 0 0
20 4 3 -3.1270498617506455 -5.2047238899094195 -4.461860919484612 0 0 0
19 4 3 -2.718445572943669 -4.916380187385489 -5.024711205424927 0 0 0
672 191 4 -5.9429230302900455 -2.641645794558557 -5.194254977172276 0 1 0
671 191 2 -6.273618656088287 -2.267736828058172 -5.223107842683715 0 1 0
673 191 4 -6.604314281886528 -1.893827861557787 -5.2519607081951545 0 1 0
674 192 2 -3.7811945021742117 -2.177122102939623 -4.297347052685553 0 0 0
336 79 4 -4.470599119213121 -2.1275833976207785 -4.8529357049129045 0 0 0
335 79 2 -4.696463544558148 -2.514907107498835 -5.074217437393471 0 0 0
675 192 4 -4.095945119544652 -2.112531983052836 -4.680439946482617 0 0 0
274 58 4 -3.119386285116916 -2.1350912757310967 -4.048399994203165 0 0 0
676 192 4 -3.466443884803772 -2.2417122228264095 -3.9142541588884887 0 0 0
272 58 2 -2.913946724544094 -2.365554464030024 -3.6551045508139133 0 0 0
1122 341 4 -1.1976033969127713 -3.0307092084189513 -4.949114215238117 0 0 1
1121 341 2 -1.1722289735346036 -2.5597954217502417 -4.78299274111863 0 0 1
1123 341 4 -1.146854550156436 -2.088881635081532 -4.6168712669991425 0 0 1
1350 417 4 -1.2013904052546593 -1.8299354125349745 -4.329325764676076 0 0 0
1014 305 4 -0.35368738594048504 -0.8023682789952444 -0.3411644655022901 0 0 0
311 71 2 -6.13652401833384 -0.012688454132054494 -4.749609318722477 0 0 0
312 71 4 -5.9712365462469545 -0.3224348284365831 -5.105611053515802 0 0 0
369 90 4 -3.7481975798632257 -0.4413288528368558 -4.944825356132348 0 0 0
368 90 2 -3.4195646182106234 -0.07060558914967663 -5.012387462940678 0 0 0
1351 417 4 -1.1740033879312721 -0.8805672715160973 -4.64229554612551 0 0 0
1349 417 2 -1.1876968965929657 -1.3552513420255359 -4.485810655400793 0 0 0
579 160 4 -5.42182148417514 -6.262381359922518 -2.7555295243972333 0 0 1
875 259 2 -6.035289683577133 -6.390776410356402 -2.1642360703645975 0 1 0
877 259 4 -5.745706821984317 -6.217049413872024 -2.5329645571455712 0 1 0
578 160 2 -5.036416872589536 -6.544222466969716 -2.607108246452884 0 0 1
705 202 4 -1.5009596449191123 -1.0150948902788957 -0.7540195499673397 0 0 0
580 160 4 -4.651012261003931 -6.8260635740169135 -2.458686968508535 0 0 1
1361 421 2 -2.160210963803716 -5.427646680971854 -1.9089341376317457 0 0 0
763 221 4 -0.9324697895194938 -5.271778700382381 -2.545003689461988 0 0 0
928 276 4 -0.5486475297335098 -5.25966787429598 -2.530056307988231 0 0 0
1001 301 2 -6.366887557190258 -4.88829484763715 -3.3027959922939742 0 0 0
1002 301 4 -6.1610448139320635 -4.644904355395747 -2.917581982509708 0 0 0
1013 305 2 -0.8407559222033681 -0.9143620105957476 -0.3560522143098365 0 0 0
583 161 4 -3.4988285733866222 -3.831371215185426 -2.6839350136646796 0 0 0
581 161 2 -3.694784661370924 -4.278866933981358 -2.790465728677439 0 0 0
582 161 4 -3.8907407493552255 -4.72636265277729 -2.896996443690199 0 0 0
300 67 4 -3.343875462208498 -3.6107245973803668 -2.981880732725613 0 0 0
1363 421 4 -2.2688210009213265 -5.034332870252526 -2.197911829045846 0 0 0
243 49 3 -2.290929054695837 -3.93989593769985 -2.2675105336735015 0 0 0
241 49 1 -1.8296707504358676 -3.917787437210925 -2.3128094404769373 0 0 0
245 49 3 -1.6811905199957844 -3.5048475181552288 -2.1910135274955733 0 0 0
242 49 3 -1.719601744156364 -3.9946919708177924 -2.7527759239362872 0 0 0
762 221 4 -1.5962429613106883 -4.558196459898969 -2.32093771150843 0 0 0
244 49 3 -1.6288566062647551 -4.2424062145962855 -2.0489982790946044 0 0 0
761 221 2 -1.264356375415091 -4.914987580140675 -2.432970700485209 0 0 0
926 276 2 -0.18576032965539072 -4.970993135973159 -2.7170851171963006 0 0 0
299 67 2 -2.974219544909741 -3.285210606732275 -2.8958857055517124 0 0 0
301 67 4 -2.6045636276109843 -2.959696616084183 -2.809890678377812 0 0 0
723 208 4 -2.6277046228550565 -2.6093865532972766 -2.5532102285504386 0 0 0
273 58 4 -2.7085071639712726 -2.5960176523289515 -3.261809107424661 0 0 0
722 208 2 -2.160996861924762 -2.655221965521693 -2.379765768062284 0 0 0
1566 489 4 -2.989955637084131 -2.0649113136554607 -2.1367340606909564 0 0 0
702 201 4 -2.64488432195152 -1.863168261222509 -2.134582775882655 0 0 0
724 208 4 -1.6942891009944678 -2.701057377746109 -2.2063213075741293 0 0 0
1565 489 2 -3.3138426622904427 -2.1219918723226705 -1.7601188661947804 0 0 0
499 133 4 -1.4901851622768387 -3.3867653921804672 -1.8607050060202517 0 0 0
997 299 4 -0.48750943430696075 -1.8951862506412869 -2.03619594558208 0 0 0
130 26 3 -0.21473951980752792 -2.184095032712424 -1.9489661973204737 0 0 0
1208 370 2 -3.8104260929392497 -0.38813300965290515 -1.6241203334972947 1 0 0
642 181 4 -2.737445947715792 -0.20616077284276563 -1.9095520847807963 0 0 0
701 201 2 -2.2357902005909507 -1.5770154296417187 -2.1070408651524426 0 0 0
346 82 4 -3.1155735617288376 -0.10941981713652345 -2.077015812661187 0 0 0
7 2 3 -1.0322225020142672 -3.0144894254576293 -0.1236225256694872 0 0 0
703 201 4 -1.8266960792303815 -1.2908625980609285 -2.07949895442223 0 0 0
995 299 2 -0.9278052356966285 -1.658251256592588 -2.0350060406469073 0 0 0
706 202 4 -1.5352165966974565 -1.3940415044462806 -1.678803808519174 0 0 0
996 299 4 -1.3681010370862963 -1.421316262543889 -2.0338161357117346 0 0 0
876 259 4 -6.324872545169949 -6.564503406840779 -1.7955075835836238 0 1 0
1027 309 4 -6.533353981118996 -6.080599273363596 -0.5614608615024012 1 0 0
1026 309 4 -6.204935993653667 -6.4593273337719985 -1.426739245473887 1 0 0
1025 309 2 -6.369144987386331 -6.269963303567797 -0.994100053488144 1 0 0
846 249 4 -4.967882933887771 -6.271909984564142 -0.38987717662345006 0 1 0
845 249 2 -4.471800243875035 -6.3132521238975325 -0.4367044356217944 0 1 0
847 249 4 -3.9757175538622986 -6.354594263230923 -0.48353169462013873 0 1 0
1362 421 4 -2.0516009266861057 -5.820960491691182 -1.6199564462176452 0 0 0
367 89 4 -2.121158750030886 -6.09760586864575 -1.3396500105500784 0 0 0
365 89 2 -1.97399128587176 -6.141932478478739 -0.8638592065679336 0 0 0
366 89 4 -1.8268238217126342 -6.186259088311728 -0.388068402585789 0 0 0
349 83 4 -1.751082761623037 -5.802572719659345 -0.3823884707917439 0 0 0
748 216 4 -4.877402195647435 -4.194003510333506 -1.2630425071625277 0 1 -1
746 216 2 -4.922371848154901 -3.6961143968590764 -1.2722164396274107 0 1 -1
958 286 4 -0.14003212488235303 -3.84854580516298 -0.22562852843903256 0 0 0
1145 349 2 -0.08138748957569536 -4.575500856657478 -0.028987085102076184 0 0 0
747 216 4 -4.967341500662367 -3.1982252833846467 -1.2813903720922937 0 1 -1
932 278 2 -3.9131149121511646 -2.2274321969334188 -0.5998775951651469 1 0 0
933 278 4 -3.8190322075637297 -2.0364389522309874 -1.0522823090840723 1 0 0
934 278 4 -4.007197616738599 -2.41842544163585 -0.14747288124622165 1 0 0
1567 489 4 -3.6377296874967544 -2.1790724309898803 -1.3835036716986044 0 0 0
128 26 3 -0.438083994569251 -2.2565128383383244 -1.2335831481630544 0 0 0
497 133 2 -1.2991859888193795 -3.312074963740082 -1.4046999011823726 0 0 0
9 2 3 -1.7432176575619374 -3.2331915649137666 -0.016127116539477487 0 0 0
498 133 4 -1.1081868153619203 -3.2373845352996966 -0.9486947963444937 0 0 0
10 2 3 -1.425504318289229 -3.28644479040619 -0.696658032826027 0 0 0
6 2 1 -1.3514428862443824 -3.321190397271968 -0.24865396243534477 0 0 0
126 26 1 -0.08869138412454373 -2.1357697098700177 -1.5140219127701058 0 0 0
1546 482 4 -6.405666658382753 -6.036965392626306 -0.17442267215133883 1 1 0
1372 424 4 -4.465840953027763 -3.6583386270925136 -0.0006182223867236547 1 1 0
403 101 4 -4.86091766100105 -3.592624019576991 -0.07094091598975164 0 0 0
8 2 3 -1.1985859161350954 -3.7471022747941185 -0.14601956627998852 0 0 0
1544 482 2 -6.078470711076138 -5.8670328765695725 0.1633135445215656 1 1 0
1545 482 4 -5.751274763769523 -5.697100360512839 0.50104976119447 1 1 0
619 173 4 -6.489512766910249 -0.08443098150018037 6.516145322611585 0 0 -1
471 124 4 -4.775781756874914 -6.683595172391586 1.3765635760534511 0 0 0
523 141 4 -4.518456422834994 -6.6563503454506225 1.0818402445002644 0 0 0
1368 423 4 -0.03607654118925363 -6.4640533447455475 2.899785419929643 0 1 0
30 6 3 -1.1085069693126217 -5.450559245900496 0.6547188504200279 0 0 0
348 83 4 -1.465766259697708 -5.518526263172438 0.5329869190277312 0 0 0
347 83 2 -1.6084245106603725 -5.660549491415892 0.0752992241179937 0 0 0
29 6 3 -0.4178033613132212 -5.197889052291751 0.4935161855620741 0 0 0
401 101 2 -5.260044643440957 -3.323027058715559 0.063279539168512 0 0 0
1370 424 2 -4.207567302493246 -3.588614138358939 0.4217953393159638 1 1 0
930 277 4 -5.811985576922409 -6.812153587895664 3.5227995672395704 1 0 0
440 114 2 -1.8448729831138435 -6.873367988423732 1.7084312947776021 0 0 0
1371 424 4 -3.949293651958728 -3.5188896496253648 0.8442089010186513 1 1 0
844 248 4 -3.574928978537795 -3.619394017803975 0.7534100088603194 0 0 0
576 159 4 -1.683325314759769 -3.463984006603954 0.30836103463277725 0 0 0
26 6 1 -0.8302619542064565 -5.09072609963583 0.677075469517443 0 0 0
27 6 3 -0.7707545503954425 -4.9723542921130495 1.1175831131231817 0 0 0
28 6 3 -1.0166697517794696 -4.732057958218401 0.44923935004610743 0 0 0
953 285 2 -0.9800880059882674 -4.439531819920589 1.5719528601365182 0 0 0
954 285 4 -1.0036842082767203 -4.641714459371514 1.115263250508245 0 0 0
293 65 2 -1.3461570989407858 -4.160428532520569 0.45983832194230256 0 0 0
295 65 4 -1.229303326264427 -4.5349940080174465 0.7697510522015154 0 0 0
294 65 4 -1.4630108716171446 -3.785863057023692 0.14992559168308978 0 0 0
1146 349 4 -0.1793000795723909 -4.946818348510982 0.2912260391820293 0 0 0
441 114 4 -1.7763948934173766 -6.776629041711046 1.2226820514223 0 0 0
1219 373 4 -0.977033929276919 -1.341467784776391 5.094542693283797 0 0 0
402 101 4 -5.659171625880864 -3.0534300978541267 0.19749999432677565 0 0 0
1467 456 4 -5.886786227263567 -2.6867493936169806 0.23592204953530455 1 1 0
1466 456 2 -6.279508759868692 -2.8213199352768097 0.5145970963226372 1 1 0
1468 456 4 -6.672231292473818 -2.9558904769366388 0.7932721431099699 1 1 0
1176 359 4 -5.237031094781085 -1.9218980485926946 0.14947539648987473 1 0 0
480 127 4 -5.481137084034436 -1.9693110459057834 0.43019905871125735 0 0 0
1175 359 2 -4.772523648079193 -2.105352276263371 0.1254466988985339 1 0 0
842 248 2 -3.1582658470477085 -3.4052748725025404 0.9281807915212845 0 0 0
843 248 4 -2.741602715557622 -3.1911557272011057 1.1029515741822498 0 0 0
575 159 2 -2.031876839815483 -3.2966368257632097 0.6253890388300511 0 0 0
577 159 4 -2.3804283648711966 -3.1292896449224656 0.9424170430273251 0 0 0
533 145 2 -0.7414354006203101 -2.2714535978527355 0.14337131003046236 0 0 0
535 145 4 -0.4283194882723775 -1.9172640968716452 0.306184770252588 0 0 0
479 127 2 -5.712442050732945 -1.5465412987033853 0.5634797896180863 0 0 0
1021 307 4 -6.274698628146247 -0.9244214744473878 0.5881108176255098 1 0 0
1019 307 2 -6.3203502615429485 -0.5667567592424747 0.9345092585359954 1 0 0
481 127 4 -5.943747017431455 -1.1237715515009872 0.6967605205249152 0 0 0
1020 307 4 -6.36600189493965 -0.20909204403756154 1.2809076994464812 1 0 0
859 253 4 -6.673748637509964 -0.09010369582537237 1.5172126330364109 0 0 0
297 66 4 -2.1815707390404255 -0.6606808088659535 0.7024734762316798 0 0 0
399 100 4 -1.7934958528100942 -0.659226810245684 0.7258474152126596 0 0 0
296 66 2 -2.4267693864580413 -0.3303858902366235 0.41825016608242443 0 0 0
398 100 2 -1.3612636331827974 -0.4145886630490757 0.7835317740281788 0 0 0
400 100 4 -0.9290314135555007 -0.1699505158524674 0.8412161328436979 0 0 0
1561 487 4 -0.7989067190766537 -0.3442120906373895 0.4967883683346872 0 0 0
427 109 4 -6.425525584552315 -6.9148471734654935 2.1004496955479754 0 0 0
425 109 2 -6.846934403661084 -6.649752169348291 2.146701678956316 0 0 0
931 277 4 -5.6953724403122825 -6.170977979468073 2.764317388459017 1 0 0
929 277 2 -5.753679008617346 -6.491565783681868 3.143558477849294 1 0 0
439 113 4 -5.694847873547406 -5.760425009001759 2.745608010935655 0 0 0
437 113 2 -5.348353045227887 -5.413142819113944 2.842233134661096 0 0 0
270 57 4 -4.641258562829069 -6.657443496723628 2.6308085573911963 0 0 -1
269 57 2 -4.28598328859464 -6.579405628947602 2.9738676932698027 0 0 -1
470 124 2 -4.813360727364734 -6.5790467280255625 1.8640648004186553 0 0 0
472 124 4 -4.850939697854554 -6.474498283659539 2.3515660247838595 0 0 0
837 246 4 -3.572124287867011 -5.427489076871141 2.1242495263616137 0 1 0
271 57 4 -3.9307080143602096 -6.501367761171576 3.316926829148409 0 0 -1
836 246 2 -3.3524457260460774 -5.732331096587118 2.454117185418559 0 1 0
838 246 4 -3.1327671642251436 -6.037173116303094 2.7839848444755044 0 1 0
823 241 4 -2.91025988861762 -6.380829300096165 2.836773784942198 0 1 0
821 241 2 -2.6034999753768813 -6.607683267730453 2.513608760540028 0 1 0
822 241 4 -2.2967400621361422 -6.83453723536474 2.190443736137858 0 1 0
1217 373 2 -0.5870165921277151 -1.6369039052029026 5.197518299476548 0 0 0
804 235 4 -0.3300452637609174 -6.679509936628759 2.7622165857089582 0 1 0
3 1 3 -5.37092125942048 -4.4166213901673785 2.273357751365554 0 0 0
438 113 4 -5.001858216908367 -5.06586062922613 2.938858258386537 0 0 0
2 1 3 -5.144731448483117 -4.706531512531333 2.9288654098858906 0 0 0
814 238 4 -4.472087785190919 -4.5484595926268465 2.7282377067838395 0 0 0
5 1 3 -4.683548689749429 -4.266039954911276 2.541208795454997 0 0 0
1 1 1 -5.118657239021923 -4.3380225306272395 2.6547828204043644 0 0 0
4 1 3 -5.285915460927816 -3.9697877856149706 2.8822204157366733 0 0 0
812 238 2 -4.136179918878137 -4.823042909165777 2.4797021808986157 0 0 0
430 110 4 -5.062780499014081 -3.7942494407886573 3.1463298044744565 0 0 0
813 238 4 -3.8002720525653566 -5.097626225704708 2.231166655013392 0 0 0
493 131 4 -1.2005565181158409 -4.4583015158614 2.2509862539827603 0 0 0
491 131 2 -1.057171151890706 -4.59323405245493 2.7105880896198795 0 0 0
492 131 4 -0.9137857856655713 -4.72816658904846 3.1701899252569996 0 0 0
955 285 4 -0.9564918036998143 -4.237349180469664 2.0286424697647916 0 0 0
103 21 3 -0.6618783955583322 -4.778638065231153 3.4801372879306407 0 1 0
755 219 2 -5.319410214199594 -1.6655507659016142 3.0006267411243495 0 0 0
757 219 4 -4.8725250646236615 -1.8736529693553428 2.917037650888301 0 0 0
279 60 4 -3.7237821485097404 -2.5368336895332813 2.0175042565431136 0 0 0
1520 474 2 -4.441834846339112 -2.2217830380218766 2.3939438729108384 1 0 0
1522 474 4 -4.004885081549551 -2.2996249857678044 2.1636928485448936 1 0 0
1521 474 4 -4.878784611128673 -2.143941090275949 2.6241948972767832 1 0 0
428 110 2 -5.015575331790427 -3.4439945648490538 3.5000149668262113 0 0 0
278 60 2 -3.3513853313061506 -2.697768373586481 2.309772349233955 0 0 0
280 60 4 -2.9789885141025607 -2.8587030576396804 2.602040441924796 0 0 0
546 149 4 -3.1772275176423874 -2.6410618796602465 2.8985857996481017 0 0 0
756 219 4 -5.766295363775526 -1.4574485624478857 3.084215831360398 0 0 0
1454 452 2 -5.026562150144126 -0.02654688537490588 3.362308798218769 1 0 0
1455 452 4 -4.8987499211649155 -0.48865163174658754 3.504165195692634 1 0 0
264 55 4 -1.688890284766343 -1.4036350120016867 2.832128795319138 0 0 0
265 55 4 -0.9095098402365043 -0.9727662870398157 2.377246102163572 0 0 0
263 55 2 -1.2992000625014237 -1.1882006495207513 2.604687448741355 0 0 0
1478 460 2 -0.3972700548562176 -0.5468885774085771 2.5960296317092486 0 0 0
1479 460 4 -0.8735829639290276 -0.5616083273487834 2.444671309797436 0 0 0
1472 458 2 -6.846878712183513 -6.108861097780775 4.992730609028695 1 1 0
48 10 3 -3.5926689283153075 -6.659771712741303 3.4316774626558635 0 0 0
353 85 2 -4.867720613846111 -5.114205292954684 4.944702641248253 0 0 -1
49 10 3 -3.6973024349145684 -6.6020689886004105 4.182225412438218 0 0 0
50 10 3 -3.161800641951943 -6.197476356627842 3.8409884978372717 0 0 0
46 10 1 -3.383260966781359 -6.595415103453475 3.8407086747739725 0 0 0
327 76 4 -3.8311578170015697 -0.13760469093227146 6.87068111968322 0 0 -1
1500 467 4 -6.329558744552657 -3.675489887888582 4.710615312692127 1 1 0
1499 467 2 -6.328827871747379 -4.053143587003213 5.03829983989701 1 1 0
478 126 4 -6.030927352488254 -3.5995754223945298 4.468054195966973 0 0 0
792 231 4 -4.907399566342513 -4.6856482292568025 4.176911193696849 0 0 0
791 231 2 -4.4731783301477055 -4.4397832277184754 4.145251770832431 0 0 0
38 8 3 -3.63447400333918 -4.137091512865703 4.148066704660042 0 0 0
793 231 4 -4.038957093952898 -4.193918226180148 4.113592347968012 0 0 0
354 85 4 -4.8332265081657555 -4.942662653829834 4.476318952766653 0 0 -1
1089 330 4 -3.8957366852384308 -3.8244076662281836 4.994284982347635 0 0 0
39 8 3 -3.521573524717658 -3.9282157693728728 4.870025433194985 0 0 0
36 8 1 -3.315067518672091 -4.05699980416747 4.474968548874134 0 0 0
37 8 3 -3.078801113074034 -4.44446610934714 4.550122044709997 0 0 0
40 8 3 -3.028735791540954 -3.7312854395025727 4.335956697979322 0 0 0
1171 357 4 -1.6992533141801553 -3.555218767006721 4.2968266920360065 0 0 0
102 21 3 -0.7613438130727809 -5.175794070664114 4.1104338356509755 0 1 0
105 21 3 -0.3260816347078212 -4.569626368900112 4.120804632345894 0 1 0
1236 379 4 -0.5724592232077861 -4.3762310063207135 4.38447921650236 0 0 0
1169 357 2 -1.3049312371476902 -3.860903579095669 4.2641633299466095 0 0 0
1170 357 4 -0.9106091601152251 -4.166588391184618 4.231499967857213 0 0 0
101 21 1 -0.7029572253226557 -4.751921239833634 3.9415468034222907 0 1 0
104 21 3 -1.0721161103406107 -4.493866092216709 4.053033387373341 0 1 0
1235 379 2 -0.47286104676844054 -4.237293220054418 4.85434780961886 0 0 0
1490 464 2 -6.588576583573068 -2.486444469264017 3.47091647542659 1 0 0
1491 464 4 -6.234324851242091 -2.8153701407873153 3.5986412293038375 1 0 0
476 126 2 -5.967227578982254 -3.3190688180007535 4.059081845132638 0 0 0
477 126 4 -5.903527805476254 -3.038562213606977 3.6501094942983023 0 0 0
1516 472 4 -5.382185210677564 -2.1645295322510294 4.861541273960231 1 0 0
429 110 4 -4.968370164566775 -3.0937396889094506 3.853700129177966 0 0 0
1125 342 4 -5.004946336925089 -2.335315686885154 4.810919023131382 0 0 0
1126 342 4 -5.27482173871392 -2.886214295221683 4.021186162702231 0 0 0
1124 342 2 -5.139884037819504 -2.6107649910534185 4.416052592916807 0 0 0
545 149 2 -2.9976104734517657 -2.589477132098141 3.3623494584825293 0 0 0
1186 362 4 -1.8153558291215357 -3.276341708866244 4.556647230519419 0 0 0
547 149 4 -2.817993429261144 -2.5378923845360353 3.826113117316957 0 0 0
253 51 4 -2.503258682673267 -2.2310344346136537 4.8999642505786625 0 0 -1
1185 362 4 -2.4681731259507846 -2.6382558309962936 4.964906938823567 0 0 0
1184 362 2 -2.14176447753616 -2.9572987699312687 4.760777084671493 0 0 0
261 54 4 -3.150325217596526 -1.9126187646245474 4.300646028588554 0 0 -1
251 51 2 -2.4314249758937247 -1.7411670154562469 4.830180081752279 0 0 -1
1041 314 4 -6.332338677297887 -0.35974021935743133 5.305124224550362 1 0 -1
1040 314 2 -6.175108578695368 -0.8229741596292421 5.201717200254856 1 0 -1
1514 472 2 -5.512960190139006 -1.6842819143916832 4.9090821015417445 1 0 0
388 96 4 -6.575405781192388 -1.1356213968315194 4.1758404302048335 0 0 0
1515 472 4 -5.643735169600449 -1.2040342965323367 4.956622929123258 1 0 0
1042 314 4 -6.017878480092849 -1.286208099901053 5.09831017595935 1 0 -1
517 139 4 -4.612901015533544 -0.6459601153016314 3.7297631041131165 0 0 0
515 139 2 -4.142566543270675 -0.7937690105539067 3.813057849955617 0 0 0
516 139 4 -3.672232071007807 -0.9415779058061818 3.896352595798118 0 0 0
262 54 4 -3.5454874173472577 -1.238947922629571 3.6761346735796967 0 0 -1
260 54 2 -3.347906317471892 -1.5757833436270592 3.9883903510841257 0 0 -1
252 51 4 -2.3595912691141825 -1.2512995962988402 4.760395912925896 0 0 -1
1273 391 4 -2.1574844426511417 -1.069068389050397 4.436719076818084 0 0 -1
1271 391 2 -2.1545946321908613 -0.6293738133520438 4.67475337917146 0 0 -1
1272 391 4 -2.151704821730581 -0.18967923765369077 4.912787681524836 0 0 -1
618 173 4 -6.0913677277009 -0.2400733394722771 5.612123207751717 0 0 -1
1252 384 4 -0.9488339178358004 -0.9407860710167462 4.995128501447812 0 0 0
1250 384 2 -0.911070153059888 -0.4600466474403582 4.862978947196063 0 0 0
606 169 4 -6.905395625457767 -6.082689107961884 5.6743368090866975 0 1 -1
1473 458 4 -6.584717476727055 -6.123821935642462 5.4182275654859975 1 1 0
508 136 4 -5.475033841974424 -5.535470325554448 6.332853974979911 0 0 0
355 85 4 -4.902214719526467 -5.285747932079533 5.413086329729853 0 0 -1
835 245 4 -4.258769718851265 -6.650366585372431 5.430977335744873 0 1 0
909 270 4 -4.114599822977506 -6.280676386201277 5.5391742368769785 0 1 0
908 270 2 -4.320329971108856 -5.82496275936798 5.5396174848191 0 1 0
910 270 4 -4.5260601192402055 -5.369249132534684 5.540060732761222 0 1 0
1253 385 2 -4.555607148657936 -6.682970092473149 6.803788288718877 1 1 0
83 17 3 -2.8252516112150086 -6.733536236400008 5.812086665457657 0 1 -1
574 158 4 -2.5026886858843276 -6.597702842703573 5.99225482990222 0 0 0
572 158 2 -2.2679667258194174 -6.1720068363026925 5.875256917109682 0 0 0
573 158 4 -2.033244765754507 -5.746310829901813 5.758259004317144 0 0 0
112 23 3 -1.2812056566007228 -5.916883142465341 6.472819241853936 0 1 0
111 23 1 -0.9402599998958207 -5.793212609939096 6.755770931296737 0 1 0
115 23 3 -0.6367330563788296 -5.544151609721738 6.525032957114411 0 1 0
506 136 2 -5.8993521241668425 -5.307746362512539 6.198333374126963 0 0 0
507 136 4 -6.323670406359261 -5.0800223994706295 6.063812773274015 0 0 0
64 13 3 -6.572109453527704 -4.889407282734103 6.2931919937121785 0 0 0
65 13 3 -6.482713862477218 -4.40049321141356 5.727620195293301 0 0 0
61 13 1 -6.677123443935901 -4.466349048073476 6.134151772683474 0 0 0
1501 467 4 -6.3280969989421 -4.430797286117843 5.365984367101893 1 1 0
63 13 3 -6.530797035159206 -4.143662415292432 6.433754708449173 0 0 0
323 75 2 -3.999079453971358 -4.539328218896294 6.470513391183426 0 0 -1
324 75 4 -4.217132348360206 -4.31142313247807 6.082554363922065 0 0 -1
1088 330 2 -3.8760990306229823 -3.975141953560517 5.470618412985736 0 0 0
1090 330 4 -3.856461376007534 -4.12587624089285 5.946951843623838 0 0 0
383 95 2 -1.888622959985661 -3.525376447025005 6.094609006187678 0 0 -1
1237 379 4 -0.37326287032909505 -4.098355433788123 5.32421640273536 0 0 0
1244 382 2 -0.7949032738360382 -3.850252084457519 5.846960209163656 0 0 0
1246 382 4 -0.6414231076601815 -4.251067856615793 5.590463512538012 0 0 0
1245 382 4 -0.9483834400118949 -3.449436312299245 6.103456905789301 0 0 0
384 95 4 -1.394353088396397 -3.463479633591506 6.137807137229906 0 0 -1
1498 466 4 -5.744807557636542 -1.8977589958340495 6.836709149560349 0 0 0
385 95 4 -2.382892831574925 -3.587273260458504 6.051410875145451 0 0 -1
554 152 2 -0.44172810542731145 -3.1454043723389913 6.647547785702142 0 0 0
14 3 3 -0.6339011206415814 -2.8478573771293085 5.854981547779584 0 0 -1
555 152 4 -0.6530488511131419 -3.106955224732141 6.196033438763811 0 0 0
1218 373 4 -0.19699925497851106 -1.9323400256294143 5.300493905669299 0 0 0
15 3 3 -0.34193063088780695 -2.2257081353755472 5.547437154076262 0 0 -1
11 3 1 -0.2494287126169362 -2.6489117002556033 5.6879438720262865 0 0 -1
13 3 3 -0.08167331660579052 -2.899657633443766 5.335403655740526 0 0 -1
895 265 4 -6.905317710905027 -1.2349794756045713 6.591384325314985 0 0 0