LAMMPS data file via write_data, version 19 Nov 2024, timestep = 200000, units = lj

160 atoms
4 atom types
110 bonds
1 bond types
75 angles
2 angle types

-3.758247 3.758247 xlo xhi
-3.758247 3.758247 ylo yhi
-3.758247 3.758247 zlo zhi
7.487344078072056e-12 0 0 xy xz yz

Masses

1 1
2 1
3 0.1
4 0.1

Bond Coeffs # harmonic/omp

1 100 0.45

Angle Coeffs # harmonic/omp

1 100 180
2 100 109.471

Atoms # full

142 44 4 0 -0.31491087083511804 -1.9970186950568398 -2.8605091531109266 3 0 0
73 21 4 0 -2.434660007081642 -1.5600986636201855 -2.998193633651984 3 -1 0
6 2 1 0 -1.8880080131532568 -1.2301499262372229 -3.269293783000507 3 -1 0
9 2 3 0 -2.306678304134315 -1.344997848980091 -3.317835577596142 3 -1 0
10 2 3 0 -1.6833979226378153 -1.2428355977181473 -3.656848985818597 3 -1 0
8 2 3 0 -1.6875494951379397 -1.5097547197041 -2.989099753251813 3 -1 0
153 48 4 0 -0.170819166639133 -1.7899993050626033 -3.1866336691336183 3 0 0
7 2 3 0 -1.8666479110226528 -0.8150022896764177 -3.0982217848520066 3 -1 0
47 13 2 0 -1.2540607663536205 -0.253641038683067 -3.3503524005437018 3 -1 1
49 13 4 0 -1.6409366615459402 -0.5281543369548016 -3.263494405158833 3 -1 1
48 13 4 0 -0.8957292758059721 -0.0003327764047669213 -3.4319013540321217 3 -1 1
34 8 4 0 -0.5088411651823459 -0.05540448742948989 -3.4598533854142244 3 -1 0
72 21 4 0 -3.09638001294769 -1.9861625308584259 -2.5613748887810197 4 -1 0
81 24 4 0 -3.4817345927998917 -2.0018652299323048 -2.411806720674054 4 -1 0
117 36 4 0 -1.0279463203581858 -2.575680000925852 -2.0701022388526455 3 -1 0
141 44 4 0 -0.8100484492849218 -2.5988403782597653 -2.387848293502387 3 0 0
140 44 2 0 -0.5686386011874851 -2.2991960512469283 -2.623689257584287 3 0 0
71 21 2 0 -2.7715924316483127 -1.7788674671242086 -2.775853191601226 4 -1 0
130 40 4 0 -1.3711673140773923 -3.645976605304085 -1.449027027533301 3 0 0
118 36 4 0 -1.2019875263510564 -3.30949661565905 -1.5817894508792225 3 -1 0
116 36 2 0 -1.1183506165408938 -2.9470106831621847 -1.8228203152327498 3 -1 0
98 30 2 0 -0.8540342704211303 -0.8364235879949891 -1.1144959208984613 3 -2 0
99 30 4 0 -0.7003543392245692 -0.4371254762422341 -1.314701253523685 3 -2 0
36 9 4 0 -0.7246301367584946 -0.07377042337319084 -1.180996603417987 3 -2 0
76 22 4 0 -0.4807157703485254 -2.3158872557462598 -0.6127712591963239 3 -1 0
74 22 2 0 -0.7089487749246755 -1.9348025092167123 -0.6691643216832199 3 -1 0
91 27 4 0 -2.930806964129356 -1.389954401167047 -0.5088639077238342 3 -1 0
2 1 3 0 -3.3140518334043603 -1.2809896389913078 -0.6144929598803177 3 -2 0
1 1 1 0 -3.6617049962639303 -0.9946093897709107 -0.5245259975301622 3 -2 0
89 27 2 0 -2.5552350251952998 -1.208738301313928 -0.3386711720274933 3 -1 0
90 27 4 0 -2.1642109778493577 -1.0186135347799947 -0.16746397425491644 3 -1 0
100 30 4 0 -1.0139395149824022 -1.2409830141733353 -0.9227888298126734 3 -2 0
75 22 4 0 -0.9307013509239912 -1.571979773903717 -0.7189809772422193 3 -1 0
79 23 4 0 -3.359026860105027 -0.2687502926203371 -0.2861004473391655 3 -1 -1
5 1 3 0 -3.5183374524984172 -0.6413351436668453 -0.2905792868637205 3 -2 0
56 16 2 0 -3.260664997449265 -3.604459850136565 0.7295476513046077 3 -1 0
57 16 4 0 -3.5684615328988274 -3.2753516276589756 0.6222492402297704 2 -1 0
88 26 4 0 -1.9547924622129582 -0.9603512494562199 0.16250670623756003 3 -1 0
77 23 2 0 -3.3209201650497313 -0.08715573935614929 0.1220184454628912 3 -1 -1
86 26 2 0 -1.485604284164447 -0.9019337822892237 0.1941269579358651 3 -1 0
87 26 4 0 -1.0306736423548513 -0.8504968991402859 0.22605902044315762 3 -1 0
85 25 4 0 -0.7418873959599619 -0.5911559937775115 0.2876610296669666 3 -1 0
83 25 2 0 -0.29898285200892394 -0.3954681112898646 0.26876619230774956 3 -1 0
145 45 4 0 -0.3131592415604687 -1.7154532103599935 1.0167107665771828 3 -1 0
125 39 2 0 -1.1179039959109547 -0.268547002747642 2.3508531328078766 3 -1 -1
126 39 4 0 -1.4638701634222637 -0.5776557405454676 2.382703206690949 3 -1 -1
27 6 4 0 -1.6636048902918956 -0.6597917564573703 2.728853325698192 3 -1 -1
28 6 4 0 -1.7960672162644438 -1.082077568630476 3.519164548199889 4 -1 -1
26 6 2 0 -1.730475125100332 -0.8721701733674818 3.1257258026762385 3 -1 -1
32 8 2 0 -0.3178533556363692 0.3439740736598713 -3.598768211245452 3 -1 0
33 8 4 0 -0.14898710845579544 0.7251493429332507 -3.733273882516454 3 -1 0
129 40 4 0 -2.0031754399401276 3.456510594070936 -0.9680274084441609 4 -1 0
128 40 2 0 -1.6883280292696754 3.6614682750502903 -1.2007221290166878 4 -1 0
35 9 2 0 -0.6241278345374881 0.2631912219288628 -0.9217795696621307 3 -2 0
37 9 4 0 -0.5220895903287488 0.6160215374395621 -0.6511543425823012 3 -2 0
159 50 4 0 -0.13839633720338718 0.7821928765454116 -0.7197335022961155 3 -1 0
59 17 2 0 -1.2820710104840214 1.6875745808170777 -0.04856915746731216 3 -2 0
60 17 4 0 -0.8556707484049673 1.6175534800906357 -0.14468348518393093 3 -2 0
39 10 4 0 -2.514613360007103 2.5011311576606907 -0.24848130036567007 3 -2 0
38 10 2 0 -2.2870345069474096 2.8192254653990654 -0.4591992894094128 3 -2 0
40 10 4 0 -2.043937740214545 3.1570005025593497 -0.6796041978653737 3 -2 0
78 23 4 0 -3.2860388306562394 0.09809307489858243 0.5412685735123626 3 -1 -1
55 15 4 0 -3.6424540153059066 0.12163508928922129 0.7395123087192692 3 -2 0
102 31 4 0 -3.09549910521374 1.540156542773568 0.6410212528060999 4 -2 -1
101 31 2 0 -3.4315348683604814 1.2478072949091397 0.72992516280092 4 -2 -1
23 5 3 0 -2.7431406803588967 1.6934969573942515 0.5242171322948952 4 -1 0
22 5 3 0 -2.026151580178701 1.7842369963339584 0.3118701630473355 4 -1 0
61 17 4 0 -1.7159424053095318 1.7607467070031175 0.0644063432014943 3 -2 0
120 37 4 0 -0.5618474879544202 1.7201460204517618 0.11035463971491755 3 -2 0
21 5 1 0 -2.4072376946713057 2.005937032232678 0.4314547038309051 4 -1 0
24 5 3 0 -2.3262814300804395 2.2579329206258576 0.799824078150114 4 -1 0
25 5 3 0 -2.539082381360786 2.2880585593321294 0.0742499266027643 4 -1 0
108 33 4 0 -2.44149091910453 2.6471935616006137 0.7538131635502587 3 -2 0
119 37 2 0 -0.2400629676361694 1.937021742938546 0.36276057790865224 3 -2 0
58 16 4 0 -2.963456558679842 3.598337670987572 0.8330653299670985 3 -2 0
107 33 2 0 -2.522084428476046 3.095551190333647 0.8617622775789773 3 -2 0
53 15 2 0 -3.533290442897834 0.15688520309547194 1.1770638829079418 3 -2 0
54 15 4 0 -3.425067047288225 0.191360208393192 1.6056594794528012 3 -2 0
93 28 4 0 -3.725909839149683 0.10980928409648749 1.8558184495848034 3 -1 0
68 20 2 0 -0.1700666929048169 0.1929395712178752 1.7770761326764006 3 -1 -1
109 33 4 0 -2.5920891008955547 3.526846486783638 0.968177579272921 3 -2 0
70 20 4 0 -0.43445687813107003 0.1587432183932984 2.1588501570193586 3 -1 -1
127 39 4 0 -0.7800507180197536 0.040477532615783574 2.3259664067507133 3 -1 -1
154 48 4 0 0.5800647218620449 -1.2857761029009511 -3.085363086895494 2 0 0
152 48 2 0 0.20992129775773272 -1.5291730406933626 -3.1353568210779863 3 0 0
148 46 4 0 0.7884631869396932 -1.0586361896436456 -2.8405237319731134 2 0 0
80 24 2 0 3.7540897997069766 -2.14079768421281 -2.12063926776461 3 -1 0
146 46 2 0 1.1647934430903666 -1.0211343020635995 -2.5987088377191636 2 0 0
147 46 4 0 1.5497919648404084 -0.98221500940855 -2.363352692758898 2 0 0
67 19 4 0 1.9118969540882604 -1.046782139164344 -2.5476061947269057 2 -1 0
65 19 2 0 2.1805417285521944 -0.9705569186091485 -2.2030333146024867 2 -1 0
82 24 4 0 3.4543041914095527 -2.283379755769693 -1.8162952540488817 3 -1 0
51 14 4 0 3.3583154681939362 -1.0431701387674432 -1.0636346534897507 2 -2 0
50 14 2 0 3.11316480249722 -0.9915372328434358 -1.4243438749345172 2 -2 0
66 19 4 0 2.4663417533925447 -0.8990609247961814 -1.8531925094390427 2 -1 0
52 14 4 0 2.8641547376799776 -0.9344232078639978 -1.8084098413681489 2 -2 0
4 1 3 0 3.5478944275484015 -1.2130838808969648 -0.28057027992859895 2 -2 0
135 42 4 0 3.232446205505343 -1.0548286004944516 -0.0847653084366895 3 -1 0
3 1 3 0 3.6652929300767507 -0.8554669381638318 -0.9111430799626445 2 -2 0
134 42 2 0 2.8343740623350575 -0.8724909985421041 -0.009603633182416083 3 -1 0
46 12 4 0 2.7150723019811247 -3.160225361827062 0.8890919488244267 2 -1 0
44 12 2 0 3.1602784030945745 -3.1188548272949443 0.8060876486373694 2 -1 0
45 12 4 0 3.6004589170141603 -3.0758177076392172 0.7234385394764207 2 -1 0
15 3 3 0 0.8688376337755859 -2.0814249287047826 0.8124534233489324 3 -1 0
144 45 4 0 0.508476094191967 -1.958930058471534 0.6828900315712696 3 -1 0
143 45 2 0 0.09307247697021248 -1.8351167419139127 0.8552938721129584 3 -1 0
13 3 3 0 1.3881214598510585 -1.606771140945304 0.6522756440833231 3 -1 0
132 41 4 0 1.4761983886519001 -1.3445628325167593 0.36282128764724586 3 -1 0
131 41 2 0 1.755958966206494 -1.0407444441393947 0.20275179781490849 3 -1 0
84 25 4 0 0.10636593725731025 -0.21033755499152118 0.24755204564134026 3 -1 0
17 4 3 0 0.41598290277732985 -0.07716205360581974 0.4625972692334237 3 -1 0
133 41 4 0 2.0475497853036186 -0.7169410545917101 0.036248057020804136 3 -1 0
136 42 4 0 2.437950603457697 -0.6917902093406334 0.06956628446971846 3 -1 0
105 32 4 0 2.451883528779412 -3.311222019990011 1.1706551940664385 3 -1 0
104 32 2 0 2.4491851395350475 -3.4226803515628053 1.610077389392277 2 -1 0
11 3 1 0 1.2593675182699782 -1.9135275421792708 0.9421225630390495 3 -1 0
14 3 3 0 1.5669735307941108 -2.241846226199674 0.9742443062376713 4 -1 0
156 49 4 0 1.04243624161204 -1.3682738146568392 1.467742858229852 3 -1 0
12 3 3 0 1.2048830031654179 -1.7138413213514427 1.36251915158073 3 -1 0
18 4 3 0 0.8841658004251443 -0.3842494512451271 0.9497645781856798 3 -1 0
157 49 4 0 0.9213484228601976 -0.48607515231131115 1.3504312822816358 3 -1 0
155 49 2 0 0.9838945569141249 -0.9325734918894693 1.406083591708036 3 -1 0
106 32 4 0 2.4526109291841216 -3.5314596018563233 2.0569724953349953 2 -1 0
42 11 4 0 0.2145679065869759 0.8777661063041977 -3.621323703434453 3 -1 0
158 50 2 0 0.11339900784213297 0.8914595288624909 -0.3634386189300858 3 -1 0
160 50 4 0 0.36482545328957094 1.0042687701111808 -0.0034199968782231416 3 -1 0
139 43 4 0 2.144159035253291 2.895930144413617 -0.18315050116920428 4 -1 0
16 4 1 0 0.6711672504155439 0.005147144372652068 0.81968361205778 3 -1 0
19 4 3 0 0.9778360294898265 0.31425399069105087 0.7131030906796711 3 -1 0
113 35 2 0 1.7577793562110733 0.5248984561525827 0.8993273777329991 3 -2 0
115 35 4 0 1.299058539340674 0.4600086887833701 0.9094596208472412 3 -2 0
114 35 4 0 2.217467508591234 0.5850677325998017 0.88821387319721 3 -2 0
123 38 4 0 2.4783553566693604 0.8189472563764957 0.7027020403769129 3 -2 0
122 38 2 0 2.921861919423004 0.8308276510684776 0.7740686632524545 3 -2 0
124 38 4 0 3.3609888362195415 0.8490292285881145 0.8445266904701043 3 -2 0
151 47 4 0 0.6733826067165678 1.1330668557696635 0.19248610270054423 3 -1 0
149 47 2 0 0.6806969984268427 1.1505921780789592 0.6396319948138194 3 -1 0
103 31 4 0 3.74379746355239 0.9445047940274103 0.8243034956912112 3 -2 -1
121 37 4 0 0.0828130673613292 2.1548415265157495 0.618371575672584 3 -2 0
29 7 2 0 0.8138425804707188 2.2397316320209875 0.38409903275854607 3 -2 -1
30 7 4 0 0.4002182020269096 2.0859065411982245 0.3943826237835095 3 -2 -1
31 7 4 0 1.2442948660280333 2.3986213570049424 0.3730531283317271 3 -2 -1
138 43 4 0 1.6386970859870136 2.372671203321298 0.3343315173045065 4 -1 0
137 43 2 0 1.896643133706573 2.6420610793218477 0.06794569887746427 4 -1 0
20 4 3 0 0.40424897783493563 0.16789805398484248 1.1720265758336614 3 -1 0
69 20 4 0 0.08905010406353897 0.22613429021882325 1.4006321191897895 3 -1 -1
150 47 4 0 0.6900777376767762 1.1722469378353475 1.0696005323469526 3 -1 0
112 34 4 0 0.985591155812175 1.3730841097242994 1.2450739330476246 3 -1 0
110 34 2 0 1.1319304339470753 1.4189804982881133 1.666692675247325 3 -1 0
94 28 4 0 3.2250355747456982 0.1813447429886823 2.55670839493892 2 -1 0
92 28 2 0 3.521007622110723 0.1485164246620232 2.1962058189598554 2 -1 0
97 29 4 0 2.8354363801915223 0.2835749314376841 2.699266251607596 3 -2 -1
111 34 4 0 1.281227312399257 1.4656225525345175 2.096168140041269 3 -1 0
63 18 4 0 1.4661577940559418 1.207868128303855 2.3484238674065905 3 -1 -1
62 18 2 0 1.3159804308976044 1.2320273424394061 2.771392858047397 3 -1 -1
95 29 2 0 2.5956943459891093 0.4576188688010694 3.0585806633897823 3 -2 -1
96 29 4 0 2.3580888374960685 0.6393720298304899 3.410012871603464 3 -2 -1
41 11 2 0 0.6033247982497718 0.9498267656179564 3.6650240328051256 3 -1 -1
64 18 4 0 1.1676037316147259 1.2495774394665373 3.195762491458699 3 -1 -1
43 11 4 0 0.9793865440751599 1.0194697267466575 3.4485485062031875 3 -1 -1

Velocities

142 -0.1253573049049637 0.7075961509063975 0.5475865930866097
73 -0.385332053137046 -0.1792235044511351 0.4457672911891865
6 0.3142101839150869 -0.15576809081412626 -0.1422103765577545
9 0.06610407302341031 -0.8929857288996588 0.027712090520116146
10 0.4230560697073978 0.020985920538801512 -0.06538383142229708
8 0.9842224400000874 -0.41428856837495853 -0.8356157105060267
153 -0.10315880923812792 -0.07783130252638316 0.4403204780995809
7 -0.6567735187002233 -0.7381878969976096 0.09779805802344535
47 -0.1741419107759725 0.17684450259887208 0.05537094729941644
49 0.7801628968645514 0.22385483519269378 -0.22198807718207691
48 -0.4662894714102868 0.5992607103595593 -0.25070305057605585
34 0.31398006198833506 0.9742961870120586 -0.4902666438428938
72 -0.17650339914827531 0.47586889826431933 0.9804999612633151
81 0.7537313628181423 -0.5063091331030038 0.47699502329973203
117 0.1917508568930419 -0.5074342647925176 0.16049419187870384
141 0.3854236641132668 0.030407191599547512 0.03309141524754714
140 0.2771425626700827 0.034951274723177904 -0.48395518175643304
71 0.16714473511348793 0.16686087791021875 0.05326606749466449
130 0.1304737045518267 -0.41179851729816214 -0.4677307716277554
118 -0.5878537775680724 -0.04897693052288639 0.3743294575403906
116 0.1446089694039896 0.233452083453081 -0.11974456343493653
98 0.06920875734208802 -0.06103733160724175 -0.13580567852092645
99 -0.3323131733615015 -0.5568673884392847 -0.08441239783419058
36 1.2163687526944085 1.4113998940092602 0.9376063918338203
76 0.5794012317231026 0.4705998433932893 -0.5472493015521861
74 0.06163208871183049 -0.16445572967299726 0.05135595683224579
91 0.30314387810467236 0.7799661849598054 0.10820052958409157
2 -0.8865396430378232 -0.22557999976619436 -0.8097275693010342
1 -0.03394994988098703 0.02437127046012877 -0.24282985395977322
89 -0.03192010231485133 0.12149447833019396 -0.06290036106532455
90 -0.38946955976388414 -0.4929632261404864 0.5140128099194438
100 -0.4589151965010437 0.9347244515738022 -0.07484043459943232
75 0.036301519923101384 -0.4664482879993643 -0.7179131709647294
79 -0.8664392418039374 0.5384365982982581 -0.5686287262584885
5 0.11427852799999977 0.306484135312208 0.4335706218987118
56 0.17348148037187605 0.0695278783775805 -0.11130803952190475
57 0.6316747956650265 -0.9768242560563788 0.30079042269089395
88 0.6351208880739593 0.20928931347682347 0.30023748230796937
77 0.20190390838177685 -0.11935599199929467 -0.16382654740749186
86 0.022225959316879262 -0.1207037104928562 0.06879090327290632
87 -0.5076009810024807 0.59303736375226 0.3266027966668063
85 0.48593210336825 -0.07443439884579514 0.11677498477848643
83 0.3692372143568435 -0.08281254797270454 -0.1268183871811665
145 0.5660087714731247 0.18729237755422048 -0.23497201853902708
125 -0.05367300686090791 0.10732682772353937 -0.11793052740618472
126 0.07373876633376418 0.608467539031499 0.08884242348078021
27 -0.06379741852408935 -0.011238375394614784 0.046728083295801914
28 -0.4916221431641881 -0.5815599597942662 0.23745761117373082
26 0.23407150420630032 -0.448642312461002 0.21471051199337812
32 0.08235908290840149 0.10915477537388875 -0.5091996153906141
33 -0.6609045791382525 0.36318317463011335 -0.18769316584585108
129 -1.2744040205904485 0.5178588492760434 0.6027006442951527
128 0.3448068262123533 0.12135702169542702 0.04989334107680365
35 -0.18865813194186712 0.11134537521220327 -0.0457990078911876
37 0.6831066602308098 -0.3004766026397475 -0.38237260136280093
159 -0.32166735225393417 1.069420109009586 -0.3483018192105525
59 0.3083351253457285 -0.11875129838871329 0.05642709773398563
60 -0.015359620930956778 0.8106413736493626 0.40088525968376143
39 -0.7669521112054044 0.612655104046396 -0.09003487883901702
38 0.09785446139616358 0.1297978566998256 0.3567747685462792
40 0.6891823525422974 0.7078540477018193 -0.20387213745415553
78 -0.14311179136368585 0.22730386151986515 -0.45011915887690684
55 -0.1507315481231997 0.3301755994970853 0.5124073110232825
102 -0.24939803394383578 -0.0942227853228294 -1.0245465432580723
101 0.01345672939152422 -0.1368249518339507 0.024769775175287587
23 -0.6985217238538759 0.1265390850481587 -0.7833674258820594
22 -0.06406853729831184 -1.2312332844688694 -0.03527572106449582
61 0.24294838263256005 -0.1902209986226209 -0.05255155946903093
120 -0.785778971847204 -0.5384962613363522 0.721691987620831
21 0.06037766031409534 -0.033495557497343884 0.008560953678546392
24 0.14583849836096538 0.9333826550790394 0.2543847224885278
25 0.15756732727706796 -0.1925223997846488 0.15956672291995755
108 0.1910208954192319 0.7511317226680081 0.05998046422270174
119 0.08861255963493798 0.16955213474499323 -0.01882268441441899
58 0.021848982558263688 -0.7015817250557909 0.5283808141273805
107 -0.03773328719068015 0.05624556941623287 -0.15265641323857482
53 0.49485754600540666 -0.11084269410001442 -0.09081284373307966
54 -0.18098481850015796 0.40425295949036316 0.31043865088833145
93 0.14266723359642977 0.05502602628685965 -0.05218818068895376
68 0.2701954209779007 -0.23826197922438064 0.18113136371996896
109 0.49845641548083225 -0.21563429968505263 -0.319685776099275
70 -0.6355309690729086 0.07681223514040943 0.04678384406256238
127 0.05627781053353939 0.15837796530954856 0.07290635200669213
154 0.763207405467349 -0.463528799753025 0.3953961018670744
152 -0.04800824561014262 0.16170565334788936 0.05328777474436212
148 -0.623893586005333 0.4266789568731291 0.08589740772449696
80 0.0870223220686372 -0.05420534886963602 -0.0357110531212919
146 0.039323493770010175 -0.17716866711075505 -0.048149321899277356
147 1.2723893349503188 0.09468617470886043 -0.051577669213316045
67 0.4886364788324705 0.3899727573342865 0.060025093986373276
65 0.20789219095341108 -0.19626839431999857 -0.07019617311024441
82 -0.37853141736566265 -0.4267162516335453 -0.24490551191821347
51 -0.508376269463847 1.0512064398500935 -0.6983392566015403
50 -0.04260819000260039 -0.23312243413288436 0.058398913063195654
66 0.5665969779004532 0.5305542182696434 -0.1950159871547753
52 0.4960993542480368 -0.16620428948954136 0.5263741685320027
4 0.36881529751646147 -0.5651725829413556 0.604783561468433
135 -0.7264068393706926 0.09779897100033065 0.490242539780056
3 -0.05441189935435482 -0.6903322267422888 0.11554894236215171
134 -0.03867940679601804 0.10665022874077221 0.018667241413613134
46 0.151389689535742 0.26467794622332913 -0.67933777087334
44 0.30844583842956447 0.2997202082906282 0.02849233271624898
45 -0.47229852090090485 -0.3772091972233706 -0.3102127060277437
15 0.521830624620445 -0.026941024028232563 0.1914334303844037
144 -0.0015328995036135154 0.9144468086749084 -0.5103715104718489
143 0.18263062499444813 0.3823000034398843 -0.09476423412265503
13 0.6620778222218183 -0.775537968814652 -0.08272348601292129
132 -0.31506327699967296 0.7851413963016678 -0.2834250251531677
131 0.33703726668219003 0.16042373765675477 0.08692185911381788
84 0.7588473502514786 0.725264937054249 -0.33158371603959086
17 0.23774663171714716 0.735951485382194 -0.4392358582456509
133 0.2635128594384608 0.49290897244007054 -0.07488229734771952
136 0.6101446313263383 -0.0898542569542312 0.5812085721999767
105 -0.6592963312423933 0.22231720224125234 -0.21264778161333825
104 0.1851237388502528 -0.282152846041928 -0.3719654071271061
11 0.24283265853389155 0.18161132507431108 0.1894635566720565
14 0.5337437977919472 -0.18086711978085473 0.21305679204276634
156 -0.6398032354626513 0.07822528916278514 0.4078410882484748
12 0.8008905343195647 0.3813303528514153 0.5741310428938646
18 0.012246460486698722 -0.10813759420026137 -0.04819748018628609
157 -0.26735657047698513 -0.26748904503152987 -0.4346782931833777
155 -0.02411868071671801 0.15456886177867088 -0.26883853098487104
106 -0.35898092229551054 1.1199954719737004 -0.888440371061711
42 -0.2938080560492553 -0.1666730055379019 -0.3249384259873751
158 0.28840216378471223 0.29072023954153325 -0.42306080862685913
160 -0.7354295932037965 0.74565648923388 -0.10456693555818522
139 0.3837353269404819 0.08879902980292247 -0.6462448368289733
16 0.3228837618545191 0.024007475929523153 -0.07538788048971624
19 0.7794872646758214 0.0939218744191264 0.7368236035599564
113 0.14675175444095645 -0.1287360543759668 0.0017435931306534203
115 0.6416551060837579 0.7073010668650037 -0.8253156156647797
114 -0.44725051357937234 -0.012797427123447835 0.3882436534842126
123 0.0684365423749383 0.3449304500825122 0.16358409007482586
122 -0.037499565492422116 0.18485875321612313 0.5238366790794373
124 0.5129488674674693 -0.15248025669602483 -0.05905884399905619
151 0.006079229495361431 -0.027721888475118278 0.7195868888854934
149 0.03444774590021873 -0.056523507870650164 0.23918437297033177
103 0.39966938739055036 0.6539143967306928 0.25141150259501643
121 0.02714916418665613 0.2921269388302399 -0.8955759773348199
29 0.07261411454405017 0.05744077820520297 0.16628749554799363
30 1.357493148623476 0.49273848212048355 0.25258922162196173
31 0.6749141459471986 -0.4754417984843798 -0.26969403502076733
138 0.22061715879099247 -0.36259540497521336 -0.08854513219807547
137 -0.028009540159009826 -0.004000701560374695 -0.11198955513111594
20 0.5385414101931668 -0.28021651275950105 0.5007027348151797
69 -0.5236129445806988 0.6368147725032076 0.5125108649452219
150 -0.8075523380294396 -0.8654071673680658 -0.02600617316387208
112 -0.048308861546920226 -0.3650641477436671 0.15958586786287
110 0.2636306133672986 -0.07590200281708816 -0.12568223813331336
94 0.7196985761889243 -0.02737491995710957 0.6662884237215512
92 0.10719672845997366 0.02099785515730939 -0.07020248616058823
97 -0.19305807732653663 -0.1432888030843085 -0.2562245739247794
111 0.20337808812312957 0.7907057154044189 -0.6434959608939612
63 0.007059445802770945 0.04348710132253981 0.39471006436830447
62 0.31737893093023967 -0.19359804166546127 0.19818550123415124
95 0.08346990250177537 -0.2471852097983827 -2.8378061611524386e-05
96 0.8406063609734377 -0.2612895154800334 0.39776691204585585
41 0.13689392637440576 0.03245885780197359 -0.10037107865384912
64 0.7742966311186963 -0.8341369548038028 0.2868974448467978
43 0.6090521623820859 0.07285103548871476 -0.5430985387030461

Bonds

1 1 6 7
2 1 6 8
3 1 6 9
4 1 6 10
5 1 47 48
6 1 47 49
7 1 140 141
8 1 140 142
9 1 71 72
10 1 71 73
11 1 116 117
12 1 116 118
13 1 98 99
14 1 98 100
15 1 74 75
16 1 74 76
17 1 1 2
18 1 1 3
19 1 1 4
20 1 1 5
21 1 89 90
22 1 89 91
23 1 56 57
24 1 56 58
25 1 77 78
26 1 77 79
27 1 86 87
28 1 86 88
29 1 83 84
30 1 83 85
31 1 125 126
32 1 125 127
33 1 26 27
34 1 26 28
35 1 32 33
36 1 32 34
37 1 128 129
38 1 128 130
39 1 35 36
40 1 35 37
41 1 59 60
42 1 59 61
43 1 38 39
44 1 38 40
45 1 101 102
46 1 101 103
47 1 21 22
48 1 21 23
49 1 21 24
50 1 21 25
51 1 119 120
52 1 119 121
53 1 107 108
54 1 107 109
55 1 53 54
56 1 53 55
57 1 68 69
58 1 68 70
59 1 152 153
60 1 152 154
61 1 80 81
62 1 80 82
63 1 146 147
64 1 146 148
65 1 65 66
66 1 65 67
67 1 50 51
68 1 50 52
69 1 134 135
70 1 134 136
71 1 44 45
72 1 44 46
73 1 143 144
74 1 143 145
75 1 131 132
76 1 131 133
77 1 104 105
78 1 104 106
79 1 11 12
80 1 11 13
81 1 11 14
82 1 11 15
83 1 155 156
84 1 155 157
85 1 158 159
86 1 158 160
87 1 16 17
88 1 16 18
89 1 16 19
90 1 16 20
91 1 113 114
92 1 113 115
93 1 122 123
94 1 122 124
95 1 149 150
96 1 149 151
97 1 29 30
98 1 29 31
99 1 137 138
100 1 137 139
101 1 110 111
102 1 110 112
103 1 92 93
104 1 92 94
105 1 62 63
106 1 62 64
107 1 95 96
108 1 95 97
109 1 41 42
110 1 41 43

Angles

1 2 7 6 8
2 2 7 6 9
3 2 7 6 10
4 2 8 6 9
5 2 8 6 10
6 2 9 6 10
7 1 48 47 49
8 1 141 140 142
9 1 72 71 73
10 1 117 116 118
11 1 99 98 100
12 1 75 74 76
13 2 2 1 3
14 2 2 1 4
15 2 2 1 5
16 2 3 1 4
17 2 3 1 5
18 2 4 1 5
19 1 90 89 91
20 1 57 56 58
21 1 78 77 79
22 1 87 86 88
23 1 84 83 85
24 1 126 125 127
25 1 27 26 28
26 1 33 32 34
27 1 129 128 130
28 1 36 35 37
29 1 60 59 61
30 1 39 38 40
31 1 102 101 103
32 2 22 21 23
33 2 22 21 24
34 2 22 21 25
35 2 23 21 24
36 2 23 21 25
37 2 24 21 25
38 1 120 119 121
39 1 108 107 109
40 1 54 53 55
41 1 69 68 70
42 1 153 152 154
43 1 81 80 82
44 1 147 146 148
45 1 66 65 67
46 1 51 50 52
47 1 135 134 136
48 1 45 44 46
49 1 144 143 145
50 1 132 131 133
51 1 105 104 106
52 2 12 11 13
53 2 12 11 14
54 2 12 11 15
55 2 13 11 14
56 2 13 11 15
57 2 14 11 15
58 1 156 155 157
59 1 159 158 160
60 2 17 16 18
61 2 17 16 19
62 2 17 16 20
63 2 18 16 19
64 2 18 16 20
65 2 19 16 20
66 1 114 113 115
67 1 123 122 124
68 1 150 149 151
69 1 30 29 31
70 1 138 137 139
71 1 111 110 112
72 1 93 92 94
73 1 63 62 64
74 1 96 95 97
75 1 42 41 43
