LAMMPS data file via write_data, version 19 Nov 2024, timestep = 100000, units = lj

664 atoms
4 atom types
476 bonds
1 bond types
438 angles
2 angle types

-4.496439 4.496439 xlo xhi
-4.496439 4.496439 ylo yhi
-4.496439 4.496439 zlo zhi

Masses

1 1
2 1
3 0.1
4 0.1

Bond Coeffs # harmonic/omp

1 100 0.45

Angle Coeffs # harmonic/omp

1 100 180
2 100 109.471

Atoms # full

265 55 4 0 -4.191137118590065 -3.998689774683919 -4.055440473485387 0 0 0
80 16 3 0 -4.4432142135811965 -4.0172335700267086 -3.7353848660043845 0 1 0
263 55 2 0 -3.7530337967607275 -3.8719397985812156 -4.005085209249606 0 0 0
264 55 4 0 -3.327453677627526 -3.7444786169905786 -3.95456689020594 0 0 0
105 21 3 0 -2.979747300539167 -3.7997620777531353 -4.168164779291947 0 1 0
101 21 1 0 -2.607256659748354 -3.52291436160401 -4.209769785577815 0 1 0
103 21 3 0 -2.218106211457015 -3.77542371126898 -4.155035315223569 0 1 0
104 21 3 0 -2.624206673028264 -3.223369820904339 -3.912945472919263 0 1 0
399 100 4 0 -1.8426663568640156 -3.702856078770168 -4.009925094068161 0 1 0
398 100 2 0 -1.5599747147610046 -3.934566470012402 -3.749221330531808 0 1 0
400 100 4 0 -1.2747290111284877 -4.173743797294808 -3.4898876274961337 0 1 0
532 144 4 0 -0.4310851253108687 -3.524743658844903 -4.31148314412129 0 0 1
530 144 2 0 -0.2278755997969576 -3.82307018223186 -4.076246582957367 0 0 1
615 172 4 0 -0.9999244854255206 -4.309758158557393 -3.2515468648300194 0 1 0
273 58 4 0 -1.5459704168586736 -0.2588122618791211 -0.23912100604507733 0 0 0
257 53 2 0 -3.085277418715591 -1.906997929274034 -3.2066332004192315 0 0 0
34 7 3 0 -2.254397222437256 -1.7880654133768383 -4.292106328013085 0 0 0
259 53 4 0 -2.883371479179696 -1.8494402995213135 -3.6102648244717845 0 0 0
35 7 3 0 -2.5453085004335043 -1.6341333599813501 -3.6436516026061447 0 0 0
32 7 3 0 -1.854094632228589 -1.4715072815182322 -3.7655445086957857 0 0 0
31 7 1 0 -2.259919105746922 -1.4898600268736324 -3.945954940052733 0 0 0
33 7 3 0 -2.3726378645363932 -1.0823208845091739 -4.0934650250355675 0 0 0
124 25 3 0 -1.8187366597231864 -0.5991707962538123 -4.15442177670091 0 0 1
328 76 4 0 -1.811592501885076 -0.01373579643308526 -0.38631982530131453 0 0 0
266 56 2 0 -1.6079404683889955 -1.1948801738537103 -3.115885767687926 0 0 0
267 56 4 0 -1.4454811043823106 -1.1123594300997883 -3.5427583221990093 0 0 0
125 25 3 0 -1.23533676395959 -0.16064074657538222 -4.120504684814897 0 0 1
122 25 3 0 -1.3242353428293858 -0.7263333364795161 -3.606311060943353 0 0 1
121 25 1 0 -1.3839351237252093 -0.5848190773937147 -4.059107069575986 0 0 1
123 25 3 0 -1.1666943148705842 -0.8624408641832767 -4.321549126098605 0 0 1
463 121 4 0 -0.7562798929967599 -0.9097954343801116 -4.235713973635047 0 0 0
614 172 2 0 -0.8733303203576603 -4.064500177181356 -2.8388538620984747 0 1 0
616 172 4 0 -0.75575550747015 -3.8471003563913 -2.452568201439862 0 1 0
582 161 4 0 -0.8932098828900272 -3.962827444502464 -2.0911478338994316 0 1 0
581 161 2 0 -1.051696605804752 -3.632578126019475 -1.8153161672240634 0 1 0
138 28 3 0 -3.657787040111097 -2.0595899425893553 -2.844005938451198 1 0 0
258 53 4 0 -3.278410268771434 -1.9669517862068142 -2.8103997710264927 0 0 0
271 57 4 0 -3.4590710576081873 -2.344184837733699 -2.0270356301440007 0 0 0
136 28 1 0 -3.990381012805544 -2.175962449352382 -2.530204433149739 1 0 0
137 28 3 0 -3.821135285353114 -2.456272947481206 -2.206845244712783 1 0 0
140 28 3 0 -4.135766308308509 -1.8270463236752574 -2.3483598154876533 1 0 0
139 28 3 0 -4.331706571689226 -2.3838787161181703 -2.7345557737625765 1 0 0
269 57 2 0 -3.00947696645174 -2.4163834808380944 -2.0287228877206473 0 0 0
7 2 3 0 -2.0250307843587 -3.0447007791311003 -2.0890226786359887 0 0 0
8 2 3 0 -1.942213285541255 -2.888305847501301 -2.803971055906831 0 0 0
6 2 1 0 -2.0220211373630126 -2.7086310021150624 -2.4052653221183675 0 0 0
10 2 3 0 -1.6910528377645728 -2.405506776368496 -2.3011941532203397 0 0 0
9 2 3 0 -2.428756013981225 -2.500814684836263 -2.40926416827732 0 0 0
270 57 4 0 -2.5254502484827768 -2.484024249835737 -2.0217645072847867 0 0 0
23 5 3 0 -2.3391503035311842 -1.680423927149759 -2.3946925051287957 0 0 0
288 63 4 0 -2.161510835545283 -1.5183198045097672 -1.5326547753650925 0 0 0
474 125 4 0 -1.3353487057249525 -2.3554805309465423 -2.484733640331084 0 0 0
473 125 2 0 -0.9415033194108772 -2.5682648834702553 -2.535846990726158 0 0 0
475 125 4 0 -0.5126068338262557 -2.796570781585731 -2.602706088520395 0 0 0
283 61 4 0 -0.16543157914194168 -2.898893485389925 -2.4328204401577054 0 0 0
26 6 1 0 -4.383913414423506 -0.6971969651482723 -2.33722389928691 0 0 0
29 6 3 0 -4.256981484812285 -0.4662654336039068 -1.9790764149288027 0 0 0
27 6 3 0 -4.072264708112979 -1.0123748200921479 -2.434418305058196 0 0 0
477 126 4 0 -4.022154014631842 -0.3920515166286553 -1.6512004597665662 1 0 0
285 62 4 0 -3.81839602200239 -0.8329547146875237 -2.670922738297753 0 0 0
30 6 3 0 -4.423306722381906 -0.41597916992848644 -2.698964949687622 0 0 0
284 62 2 0 -3.3671539682232123 -0.9767555038858755 -2.5999525335210545 0 0 0
24 5 3 0 -2.1677775560749075 -1.2403428995725676 -1.827105545365214 0 0 0
21 5 1 0 -2.291038844512728 -1.2353513599993466 -2.2411324153359335 0 0 0
25 5 3 0 -2.6881087698879433 -1.021104874049332 -2.27140366577122 0 0 0
22 5 3 0 -1.9888595416922283 -1.0232149288853831 -2.4852461151326324 0 0 0
286 62 4 0 -2.9511633290066124 -1.1125025266707056 -2.531690525326935 0 0 0
366 89 4 0 -1.8132324370446171 -0.26663504044569125 -1.603393978503774 0 0 0
268 56 4 0 -1.7606059459422172 -1.2749010526742046 -2.707080979590899 0 0 0
365 89 2 0 -1.5995355077941311 -0.15766932431784803 -1.9815372584725626 0 0 0
13 3 3 0 -2.2286316944201814 -0.19212463393420984 -1.6041239431769516 0 0 0
17 4 3 0 -3.569219972407644 -3.0804180077478382 -1.261589035995858 0 0 0
583 161 4 0 -1.2133302773757573 -3.2979486168105705 -1.5334480239859403 0 1 0
301 67 4 0 -1.090830626692995 -2.9445902129792083 -1.3723830997256932 0 0 0
19 4 3 0 -3.849311923404323 -2.966674802866287 -0.5770713329596063 0 0 0
16 4 1 0 -3.6318676441132047 -2.771222790193096 -0.9257957982647508 0 0 0
20 4 3 0 -3.233612714862889 -2.623241176680423 -0.7881140544215993 0 0 0
18 4 3 0 -3.877125872344717 -2.4189361091630572 -1.0829288753735642 0 0 0
256 52 4 0 -2.857204187528048 -2.6295829331751785 -0.7193273046225291 0 0 0
287 63 2 0 -1.823272942835821 -1.61482132523903 -1.2005150346643634 0 0 0
254 52 2 0 -2.4292132770625856 -2.5907069523846276 -0.5464841435119924 0 0 0
255 52 4 0 -2.003123451442224 -2.548485720697998 -0.374763220967796 0 0 0
289 63 4 0 -1.476175346680435 -1.6978780082645606 -0.8756898493976769 0 0 0
1 1 1 0 -1.0221422445889043 -1.753775313041841 -0.4567523256668953 0 0 0
4 1 3 0 -0.8397621062305254 -1.8174278298239177 -0.8691377458283447 0 0 0
299 67 2 0 -0.973171781604574 -2.5482945018638077 -1.2290363008396508 0 0 0
300 67 4 0 -0.8544774757561617 -2.142840876734914 -1.087881193962063 0 0 0
2 1 3 0 -0.8521359041180623 -2.0619333677645115 -0.15756800099630958 0 0 0
5 1 3 0 -1.477368662360621 -1.7979617696513666 -0.4785395406922824 0 0 0
274 58 4 0 -1.0750726091379057 -1.023134275046161 -0.13448646456945348 0 0 0
476 126 2 0 -4.065285240276335 -0.5277218330680463 -1.1767939403370506 1 0 0
478 126 4 0 -4.114074534465517 -0.6595369527851325 -0.7257057983313537 1 0 0
195 39 3 0 -4.275794715165588 -0.6699831075114093 -0.3656858266062432 1 0 0
193 39 3 0 -3.7408516717056486 -1.145071801715116 -0.32138458162234923 1 0 0
191 39 1 0 -3.9815103701863803 -0.8019645756173759 -0.11931375556987817 1 0 0
364 88 4 0 -3.4116215069818203 -1.2520558369950325 -0.5879942621689649 0 0 0
362 88 2 0 -3.0315916586281877 -1.110476581030674 -0.752703526942143 0 0 0
15 3 3 0 -2.130766221462398 -0.06738379456499592 -0.8796737879698253 0 0 0
11 3 1 0 -2.43765356677935 -0.18871037337065316 -1.223117031309631 0 0 0
363 88 4 0 -2.617823956686041 -0.9691895232728639 -0.9387702535962182 0 0 0
12 3 3 0 -2.6083180502053196 -0.6190077506630611 -1.1446316771589788 0 0 0
3 1 3 0 -0.9199734940872006 -1.3397419056047242 -0.31793206436826976 0 0 0
272 58 2 0 -1.319558271638162 -0.6309691304577154 -0.18496298926144772 0 0 0
367 89 4 0 -1.3761685588035475 -0.04240726900659394 -2.366192940506694 0 0 0
192 39 3 0 -3.692625251414028 -0.45186851639586306 -0.01530900498415335 1 0 0
309 70 4 0 -3.75325538884019 -3.7620807949387456 0.3880307781533324 0 0 0
445 115 4 0 -3.6107101799387697 -4.095409533411242 0.16259614075111778 0 1 0
443 115 2 0 -3.20087101680899 -4.330782800376139 0.13200805558755074 0 1 0
308 70 2 0 -4.0762492259680325 -3.5466135061224278 0.2118026439763012 0 0 0
310 70 4 0 -4.427111311737848 -3.302881077415293 0.017967841505486807 0 0 0
61 13 1 0 -2.1029612910553976 -4.443125985212777 0.5273735787750713 0 0 0
64 13 3 0 -2.177466831797225 -4.145001380478234 0.832335007818609 0 0 0
351 84 4 0 -2.351627682833777 -4.12017058795244 1.2052425293612643 0 0 0
65 13 3 0 -2.4620942966846964 -4.454004144085973 0.2296359561355416 0 0 0
62 13 3 0 -1.7198871498740935 -4.338592198363275 0.3009482693761175 0 0 0
330 77 4 0 -2.9884101091828437 -2.849554439426805 1.3180360020661837 0 0 0
316 72 4 0 -2.771437872686531 -2.536739919496421 1.168323564952919 0 0 0
315 72 4 0 -2.560228043978218 -1.8424634903656185 0.6281962139325379 0 0 0
314 72 2 0 -2.6678688881337265 -2.186801658022198 0.8946397687531774 0 0 0
345 82 4 0 -0.8588829545020306 -2.779369157173717 1.426106041136849 0 0 0
346 82 4 0 -0.21560415611068653 -2.155557458674778 1.5192970881787151 0 0 0
344 82 2 0 -0.5326219107604361 -2.4528718414586153 1.4697234023239907 0 0 0
75 15 3 0 -3.1896328007416668 -0.6779312125975677 1.3597903814111605 0 0 0
516 139 4 0 -3.564579037516558 -0.15007406678649507 0.186895555117802 1 0 0
357 86 4 0 -3.158931829923514 -0.725552750264995 0.9755034876488979 0 0 0
440 114 2 0 -2.351874433380254 -0.4328226280230674 4.439406988425935 0 0 0
194 39 3 0 -4.1655154301463595 -0.9513567356057911 0.24791846594027306 1 0 0
358 86 4 0 -2.736616458650398 -1.4764917150806458 0.6821420734946583 0 0 0
356 86 2 0 -2.945935667913803 -1.1031182577962528 0.8306915727366364 0 0 0
448 116 4 0 -1.2471098831869587 -1.161870265017034 1.5692892580529307 0 0 0
462 121 4 0 -0.1377311233144607 -1.2054023095565654 4.160418420778648 0 0 -1
52 11 3 0 -3.0876336806574964 -3.5491179014079677 2.831939844669272 0 0 0
58 12 3 0 -4.116580639681313 -3.128235855324746 2.551439085608818 0 0 0
331 77 4 0 -3.244416346972568 -2.9769731747098396 2.1747654346846628 0 0 0
334 78 4 0 -3.470521488498669 -3.497749166257014 2.9325083752844145 0 0 0
54 11 3 0 -2.8168750317764766 -3.7630314583839595 2.2063091089747426 0 0 0
352 84 4 0 -2.584392607723115 -4.046396907421414 2.092318382784525 0 0 0
51 11 1 0 -2.747904726396613 -3.7331171346095613 2.647355904328731 0 0 0
350 84 2 0 -2.4685660227511246 -4.080743924462752 1.6595517535609527 0 0 0
55 11 3 0 -2.3757128724072665 -3.4739205595849847 2.7317143010787692 0 0 0
53 11 3 0 -2.6867322267078304 -4.157395724962013 2.8296348662828517 0 0 0
341 81 2 0 -1.7447524817092563 -3.345395274529495 2.84792185292992 0 0 0
342 81 4 0 -2.1601281818772486 -3.2287918463131966 2.970949544003444 0 0 0
42 9 3 0 -0.13592172731737182 -1.3261229343083474 3.7634317888805993 0 0 0
343 81 4 0 -1.324171591980087 -3.4707849007640212 2.729708777274015 0 0 0
305 69 2 0 -0.9049186875926987 -3.209974294852594 2.1165884420234193 0 0 0
307 69 4 0 -1.025542822553067 -3.525169025319824 2.472892209218192 0 0 0
329 77 2 0 -3.123630533879675 -2.906597065048529 1.7422969777893844 0 0 0
59 12 3 0 -3.574858749019477 -2.777661325660201 2.189623286141277 0 0 0
60 12 3 0 -3.761626387339533 -2.5853013477587603 2.897328407788692 0 0 0
56 12 1 0 -3.9214467452934607 -2.7334278402959993 2.4905088903592185 0 0 0
57 12 3 0 -4.224323533956966 -2.442085543984416 2.3275191298427034 0 0 0
262 54 4 0 -2.0079797565569124 -1.558095971926465 1.9627546339205664 0 0 0
260 54 2 0 -2.165119942975205 -1.9411271505293288 1.8653647708910142 0 0 0
261 54 4 0 -2.3320248041429026 -2.3568593111764162 1.7612888092461707 0 0 0
306 69 4 0 -0.7921266582747339 -2.92678641790066 1.79305346470047 0 0 0
529 143 4 0 -4.4716410155289745 -0.03615681120110886 2.78619317983876 1 0 0
72 15 3 0 -3.546761159454097 -0.060994007110907966 1.5923925515942692 0 0 0
71 15 1 0 -3.3840858440376675 -0.4665776778560424 1.721163049869486 0 0 0
74 15 3 0 -3.7228849665958483 -0.7185593454295488 1.8771103803194644 0 0 0
73 15 3 0 -3.0793175370059958 -0.4093377775716525 2.0521726478755755 0 0 0
322 74 4 0 -2.7957534848876144 -0.33613635838547085 2.3403856889460615 0 0 0
447 116 4 0 -1.8763703765029782 -0.5701624530862052 1.8164589490290053 0 0 0
320 74 2 0 -2.3739148141338466 -0.4897480786209303 2.280824160518899 0 0 0
321 74 4 0 -1.9397041242894326 -0.6458177502322574 2.2057493911460218 0 0 0
446 116 2 0 -1.5526714947151092 -0.8807369134589228 1.6902555149164977 0 0 0
543 148 4 0 -0.2888252015232666 -0.31506814661960314 1.56030050063236 0 0 0
542 148 2 0 -0.23045605223135845 -0.03904504246765005 1.883472748975065 0 0 0
349 83 4 0 -0.8649102342384773 -0.3604247486887118 2.8670079432418416 0 0 0
347 83 2 0 -0.8081841400476825 -0.8088858717567293 2.8573376289879175 0 0 0
348 83 4 0 -0.753584261602089 -1.2509237423936224 2.8469029003936743 0 0 0
354 85 4 0 -4.185402058769136 -3.2758807924744766 4.027919776276843 0 0 0
332 78 2 0 -3.72893554076931 -3.4456373602521384 3.315557074443942 0 0 0
333 78 4 0 -3.9965172982886874 -3.4085129140953105 3.718892107869168 0 0 0
337 79 4 0 -2.223887634373286 -3.2911921715528636 4.28746444893074 0 0 0
438 113 4 0 -1.359782989793993 -4.362426485847845 4.2339678680322805 0 1 0
102 21 3 0 -2.615801304400537 -3.3459738918127404 4.399508519252286 0 1 -1
439 113 4 0 -0.4463432620571142 -3.813645763534567 4.295764809875074 0 1 0
325 75 4 0 -0.23940700591975503 -4.140922488925677 3.9971457103029153 0 0 0
461 121 2 0 -0.457076560890946 -1.054854773745898 4.4696725092268625 0 0 -1
437 113 2 0 -0.9559466531453613 -4.116611136158505 4.259404121883095 0 1 0
297 66 4 0 -3.832176882741085 -2.3091632360083256 3.1861753049313113 0 0 0
296 66 2 0 -3.785343144370219 -1.853966736536059 3.261797500337494 0 0 0
335 79 2 0 -1.9639888566202373 -2.9669970260544956 4.054139679991265 0 0 0
336 79 4 0 -1.7259101697786026 -2.659763033350946 3.8262150762511355 0 0 0
294 65 4 0 -1.6276984517569415 -2.2644690836920254 3.7889325687834945 0 0 0
41 9 1 0 -0.24721825618316187 -1.5548803364379635 3.409774230463257 0 0 0
295 65 4 0 -0.7495879166039237 -2.158064684709868 3.7211869300341447 0 0 0
293 65 2 0 -1.1793431214267327 -2.206064430613173 3.7533183734827658 0 0 0
44 9 3 0 -0.5543087560581778 -1.892906867176189 3.529981695069589 0 0 0
527 143 2 0 -4.246175224784777 -0.2972189927064975 3.0778723271102493 1 0 0
298 66 4 0 -3.7507770616572635 -1.4149883800670349 3.3505210543027224 0 0 0
39 8 3 0 -3.99213562027072 -1.0116664270786153 4.389960859401754 0 0 0
37 8 3 0 -3.845003431005955 -1.4095371146020692 3.7591822053932744 0 0 0
36 8 1 0 -3.7501381868966757 -1.0307150783352999 3.9675122109389025 0 0 0
40 8 3 0 -3.3081351561676 -1.0098641694367174 4.042805723570258 0 0 0
528 143 4 0 -4.028428967865396 -0.5488848693030751 3.3619230934080617 1 0 0
38 8 3 0 -3.875994947414578 -0.6869321711709232 3.710355309148675 0 0 0
45 9 3 0 -0.44832685064646927 -1.280922488678639 3.1172068231094117 0 0 0
442 114 4 0 -2.68946268084162 -0.16534948446741557 4.382730940204679 0 0 0
441 114 4 0 -1.9856036711752927 -0.7072500257923251 4.495947176917049 0 0 0
397 99 4 0 -4.471632070182004 0.19837736537479736 -3.6754196828859893 0 0 0
88 18 3 0 -1.471471621625259 2.066933578315184 -3.174158019861288 0 0 0
247 50 3 0 -0.5114088117549758 1.7312396481124581 -4.4892412365597245 0 0 1
593 165 2 0 -3.156174647762907 3.896231288655012 -3.407725785324116 1 0 0
594 165 4 0 -3.0325970833676146 3.8743220712021134 -3.8358964371923308 1 0 0
100 20 3 0 -1.9457795520537409 3.1576942599425553 -3.051690838450742 0 0 0
426 109 4 0 -2.8172031482337387 3.9494760535409235 -4.13490407310777 0 0 1
97 20 3 0 -1.8414812519217165 3.525942838471726 -3.65702728373262 0 0 0
96 20 1 0 -1.7250511304031233 3.488293615409445 -3.2381325055947734 0 0 0
436 112 4 0 -1.9376261614211825 3.6847266619042762 -4.002710478813312 0 0 1
434 112 2 0 -1.7629514533421733 4.014548281243858 -4.265467271302287 0 0 1
389 97 2 0 -0.5065855045200792 3.6234853243073806 -3.5148432683548623 0 0 0
98 20 3 0 -1.2819525834121228 3.406634835372728 -3.221439087527023 0 0 0
390 97 4 0 -0.11420759236884986 3.721955503956001 -3.6349233736991486 0 0 0
391 97 4 0 -0.9344010220581727 3.517207332950851 -3.395606743726159 0 0 0
207 42 3 0 -4.402088726696568 0.9513692588414512 -2.6031798906164694 1 0 0
206 42 1 0 -4.193411656439766 0.9036151362016153 -2.1983958451752423 1 0 0
209 42 3 0 -4.466695518855675 0.6803474258615447 -1.9074106328066431 1 0 0
393 98 4 0 -3.5625800081848373 0.37297781409286646 -2.048392172888624 0 0 0
210 42 3 0 -3.798679831042695 0.6705203502799384 -2.2497321377668333 1 0 0
392 98 2 0 -3.3602397560829016 0.19350405052995853 -1.6964451876549484 0 0 0
208 42 3 0 -4.099421647829473 1.301074159866405 -2.0418160255841493 1 0 0
577 159 4 0 -4.22528460081245 1.4535782845945544 -1.7097634232120436 1 0 0
90 18 3 0 -1.2685885696539234 1.4434634404888167 -2.8025061024728 0 0 0
291 64 4 0 -1.2145051953531845 1.0627077124563562 -2.927165902350657 0 0 0
290 64 2 0 -1.2951878617166483 0.6635554803961334 -2.763589076312138 0 0 0
361 87 4 0 -1.5496262622900039 3.198970639295799 -0.8348445971161348 0 0 0
292 64 4 0 -1.373088917773498 0.27742425085857236 -2.5911934585425085 0 0 0
278 60 2 0 -0.1204804509933422 0.19930865196602252 -2.104688918717689 0 0 0
279 60 4 0 -0.3972227091271505 0.146166626527158 -1.7376467085144918 0 0 0
360 87 4 0 -1.2372610718307304 3.67771133167971 -0.1210664409560666 0 0 0
575 159 2 0 -4.385279304343771 1.8615007372094339 -1.6525187621300825 1 0 0
375 92 4 0 -2.041861167367803 2.809220438932206 -2.8041201218520286 0 0 0
376 92 4 0 -2.2607024406333096 2.1056876809714318 -2.272827611161119 0 0 0
374 92 2 0 -2.1474378269590595 2.4488603264141995 -2.5295089881896486 0 0 0
87 18 3 0 -1.3578838149042582 2.0851940475195248 -2.412687572817511 0 0 0
86 18 1 0 -1.21322561322113 1.897173749559432 -2.822275507862382 0 0 0
89 18 3 0 -0.7820051916261406 1.983329997862978 -2.897514224560343 0 0 0
69 14 3 0 -0.22835999568227433 2.332084356635924 -1.8781120348473883 0 0 0
70 14 3 0 -0.6659287060584943 1.778008450508872 -1.7475631507073126 0 0 0
66 14 1 0 -0.6328273931761415 2.163295764222131 -1.9504728541724086 0 0 0
373 91 4 0 -1.277837396623485 2.601304823597391 -1.7430343274647249 0 0 0
67 14 3 0 -0.9408809812554195 2.4460280054210757 -1.8032758962020197 0 0 0
68 14 3 0 -0.6940204441745502 2.1071113238810804 -2.3923960254933334 0 0 0
595 165 4 0 -3.286466807287765 3.9235384493094965 -2.9647272076521674 1 0 0
197 40 3 0 -4.263743973365361 3.206374867051629 -1.8159356468876593 1 0 0
108 22 3 0 -3.7900968957778294 3.3930966510240417 -2.5653891815354455 0 0 0
106 22 1 0 -3.616820724504212 3.7991101338211277 -2.376801698110096 0 0 0
109 22 3 0 -3.534965227778333 4.075156410130612 -2.698536758156465 0 0 0
107 22 3 0 -3.907543193040727 3.9687770037222676 -2.09984387955992 0 0 0
110 22 3 0 -3.2278216401241644 3.7047709442815284 -2.1535581007423223 0 0 0
99 20 3 0 -1.8184458454952481 3.8623343418449507 -3.023971791672959 0 0 0
277 59 4 0 -2.8516643897384744 3.807737593581761 -2.289307181923333 0 -1 0
276 59 4 0 -2.022983718402629 3.8550580004486554 -2.6592169542177992 0 -1 0
275 59 2 0 -2.4459723815386694 3.8328128925490472 -2.464585677046208 0 -1 0
14 3 3 0 -2.7867707833268196 0.11983742774845628 -1.2359630402991153 0 0 0
326 76 2 0 -1.899027627507412 0.42457608364849986 -0.27334783983358407 0 0 0
327 76 4 0 -1.9862253001746775 0.8704375638468882 -0.17225112457127315 0 0 0
371 91 2 0 -1.408676763645682 2.717500272227115 -1.2968413344447913 0 0 0
487 129 4 0 -0.34144455736589496 0.01933250828563177 -1.3595943288580727 0 0 0
486 129 4 0 -0.2300230545826797 0.6137660542682957 -0.7269136896150832 0 0 0
485 129 2 0 -0.28646032365161345 0.3222888290336771 -1.0389928903052765 0 0 0
150 30 3 0 -0.00977012368823592 0.9402088771565251 -0.6577920760186472 0 0 0
372 91 4 0 -1.5317448284438617 2.8137315347699863 -0.8946125469278126 0 0 0
359 87 2 0 -1.398438693817846 3.4316861437796007 -0.49053331286382346 0 0 0
394 98 4 0 -3.1676413612713175 0.007525430730113662 -1.3573168916981178 0 0 0
304 68 4 0 -3.9920520850115677 0.6822803114549161 0.9852490618049933 0 0 0
302 68 2 0 -3.9738316526082675 0.7827404048134154 1.4028294546805444 0 0 0
517 139 4 0 -3.971225732929229 0.3067219193829736 0.8308795039310289 1 0 0
515 139 2 0 -3.7754498995735215 0.07647191588459029 0.5073325428998299 1 0 0
94 19 3 0 -1.9077492934894429 0.972294027119426 0.1939919193954993 0 0 0
95 19 3 0 -2.1657508904081695 0.9930589592826917 0.8917454961155111 0 0 0
91 19 1 0 -2.085474507099988 1.2424580328359722 0.5240315495687756 0 0 0
93 19 3 0 -2.4673220647604417 1.4111287036292748 0.3831386107254419 0 0 0
401 101 2 0 -0.1261001311694329 1.4895318488589362 0.8047058190546212 0 0 0
403 101 4 0 -0.18065008887090664 1.2949506049713115 0.37894889186550157 0 0 0
147 30 3 0 -0.26386452558723716 1.1420163766740938 0.01518800500292893 0 0 0
92 19 3 0 -1.7834662458575086 1.5726271201803326 0.6148470028296346 0 0 0
433 111 4 0 -1.7064230809642749 1.9777386368175494 0.6196219200571154 0 0 0
431 111 2 0 -1.761845607585276 2.379687829143466 0.7667517877357383 0 0 0
432 111 4 0 -1.824183783921483 2.7875700437216433 0.9205377282678967 0 0 0
402 101 4 0 -0.0737919257664368 1.6760888370592453 1.2061665727464943 0 0 0
623 175 2 0 -4.020954970234602 3.6216829724291606 1.3257634545643926 1 0 0
624 175 4 0 -4.325507454656737 3.9679491091128147 1.3147851369243209 1 0 0
625 175 4 0 -3.7265080295914874 3.2828494259933256 1.337904705006249 1 0 0
444 115 4 0 -2.821215210514829 4.429329942929067 0.11775823895965017 0 0 0
460 120 4 0 -2.1725922247093012 3.771285921325865 0.7147955591941925 0 0 0
118 24 3 0 -2.1165439169349893 3.3850609920328645 0.45733434806470125 0 0 0
458 120 2 0 -2.4571608333705526 3.659066373562253 1.184038458882101 0 0 0
63 13 3 0 -2.0535716658914067 4.162816458171388 0.7246199599443026 0 -1 0
117 24 3 0 -1.538238886652066 3.0567214900233672 0.7621797456615891 0 0 0
120 24 3 0 -1.4353798573899634 3.524807748797672 0.18477964672104835 0 0 0
116 24 1 0 -1.6844434209398411 3.431662747160929 0.5625179128624749 0 0 0
119 24 3 0 -1.6338851709757753 3.790430887461214 0.8720969513617434 0 0 0
303 68 4 0 -3.954122164259594 0.8872124158242499 1.8521234427803022 0 0 0
428 110 2 0 -1.457793935905094 1.3365018936842963 2.8676975438842205 0 0 0
182 37 3 0 -0.48097081272534653 0.37556717139652557 2.475372350682956 0 0 0
544 148 4 0 -0.16618329636273532 0.23528560335467114 2.2116301927777977 0 0 0
181 37 1 0 -0.6996611588779192 0.4050705604588489 2.8688131953030505 0 0 0
185 37 3 0 -1.062206676389676 0.6645079102372579 2.8066755340920344 0 0 0
429 110 4 0 -1.356297059995973 0.8822066423211855 2.9768064582470486 0 0 0
129 26 3 0 -3.273617860751838 2.5224592810241893 1.6134561859720364 0 0 0
406 102 4 0 -3.3446149141787167 2.505216699692478 2.528567278403737 0 0 0
404 102 2 0 -3.2652740146450165 2.451728814289107 2.936292060956625 0 0 0
127 26 3 0 -3.3414957718233187 2.81649107348775 2.2836266914751264 0 0 0
126 26 1 0 -3.3257356007516856 2.9021180803777242 1.835092148427373 0 0 0
115 23 3 0 -1.6130939582055033 2.1047602213251824 2.559126500095668 0 0 0
114 23 3 0 -1.9845325142497539 2.6365773310854155 2.1743281147048283 0 0 0
111 23 1 0 -1.5731648816613257 2.45551905465385 2.2704661881582915 0 0 0
430 110 4 0 -1.5412950671052357 1.7805030080550257 2.757373891783859 0 0 0
421 107 4 0 -0.373203470431045 1.7522912363286707 1.4033171203034063 0 0 0
419 107 2 0 -0.7572397633877158 1.8774939692327848 1.6338632072463486 0 0 0
112 23 3 0 -1.3611003281922205 2.3069466008708646 1.8777385471492984 0 0 0
113 23 3 0 -1.3112319725351527 2.781319487832445 2.463218021191267 0 0 0
420 107 4 0 -1.1118719552212502 1.996150382923206 1.8441363148697456 0 0 0
130 26 3 0 -3.7074849738055895 3.1082351045115817 1.709004671378784 0 0 0
459 120 4 0 -2.711285861494583 3.5614347019628245 1.5874108308676365 0 0 0
128 26 3 0 -2.9358791218717895 3.2020627417840806 1.7338706835489086 0 0 0
411 104 4 0 -1.0765824104071007 3.094663854097105 2.401143138655622 0 0 0
410 104 2 0 -0.738528002865888 3.228223455057949 2.6548674361389546 0 0 0
412 104 4 0 -0.389070860693197 3.36471942169442 2.915302738310319 0 0 0
415 105 4 0 -0.027846093167114495 3.1785264229523724 2.7982905009951393 0 0 0
626 176 2 0 -4.3630700462058964 1.4407080693929613 4.113948195796024 1 0 0
627 176 4 0 -4.444120322917677 1.0370886675783166 4.345013416971449 1 0 0
319 73 4 0 -3.5399815646385466 0.4628537340752309 3.7476889673065017 0 0 0
317 73 2 0 -3.270817541272521 0.24107066454342602 4.009240236548894 0 0 0
617 173 2 0 -0.025220490238959264 1.5191728183271405 3.157031958739901 0 0 0
183 37 3 0 -0.8131305395713839 0.0132441609362212 2.994440060833433 0 0 0
184 37 3 0 -0.43379802138225293 0.5939245402623011 3.1742022590434664 0 0 0
628 176 4 0 -4.297456802517084 1.8250096827187365 3.911830025324401 1 0 0
408 103 4 0 -4.373603050319729 2.237155388154105 4.0069478151371465 0 0 0
405 102 4 0 -3.196270352807412 2.3910802249764105 3.3781645545092536 0 0 0
370 90 4 0 -2.968214160924486 2.7550349813134023 3.4417563144691905 0 0 -1
618 173 4 0 -0.1571017626104128 1.7686740616300607 3.49624273475238 0 0 0
246 50 1 0 -0.505357566047854 1.9235560288934468 4.125166556400016 0 0 0
249 50 3 0 -0.9417587658422232 2.0885116789563503 4.014892515088179 0 0 0
250 50 3 0 -0.20506397962282338 2.2857708036105326 4.138474973836429 0 0 0
248 50 3 0 -0.37560390438037333 1.6195661288759462 3.7973229236752934 0 0 0
423 108 4 0 -2.759287846287931 3.852508679427092 3.6571530622124766 0 0 0
425 109 2 0 -2.823074227564956 4.007841199911217 4.420998984727861 0 0 0
422 108 2 0 -2.7782099029355356 4.165922060378235 3.317822576259913 0 0 0
368 90 2 0 -2.6250078078359658 3.0264774216607546 3.626130200354867 0 0 -1
369 90 4 0 -2.294943074941598 3.281984492471493 3.8013086912331464 0 0 -1
427 109 4 0 -2.828769471029699 4.059185398045295 4.012157745461819 0 0 0
435 112 4 0 -1.584920999564593 4.3555497149771645 4.4614577865500324 0 0 0
227 46 3 0 -4.461694739792426 0.6680985739767011 4.445288110191381 1 0 0
424 108 4 0 -2.81143979659293 4.476866213996429 2.962512473762145 0 0 0
318 73 4 0 -3.0004753749921083 0.016800614443023304 4.266748873860869 0 0 0
502 134 4 0 0.3717269995919931 -4.034888315616058 -3.7017481618853747 0 0 0
500 134 2 0 0.6470059984428573 -4.38087956837956 -3.810190626340737 0 0 0
79 16 3 0 3.873938953103112 -3.7003899721875824 -3.932028513250842 -1 1 0
78 16 3 0 3.8941135973325784 -4.268538695940287 -3.44607805939147 -1 1 0
76 16 1 0 4.112928500212914 -3.899935723226378 -3.5895982821199985 -1 1 0
252 51 4 0 4.244088944152298 -3.3303733699408378 -3.0406678264618066 -1 0 0
77 16 3 0 4.146216128184454 -3.631193399885824 -3.2736853856063965 -1 1 0
355 85 4 0 4.110337288680579 -3.4196208349333683 -4.331848155078473 -1 0 1
142 29 3 0 1.4682517595590676 -3.0771885840939515 -3.460776009387636 0 0 0
144 29 3 0 0.918368195957441 -2.784689516896595 -3.0894065594880837 0 0 0
141 29 1 0 1.3437380597804967 -2.805940308437455 -3.102836142459413 0 0 0
143 29 3 0 1.5191565977036714 -2.3710378696218393 -3.165201918006557 0 0 0
553 151 4 0 1.6470004927804895 -2.844923134912725 -3.7501735761810684 0 0 1
551 151 2 0 1.685839204227702 -2.9174175963235296 -4.200873598992045 0 0 1
483 128 4 0 1.4919444785819835 -2.231184828225833 -3.5350266777549626 0 0 0
482 128 2 0 1.6562433394633937 -1.91075543700222 -3.8011254174877074 0 0 0
484 128 4 0 1.8301330412132313 -1.57348975255239 -4.088032585071686 0 0 0
154 31 3 0 0.614615479684952 -1.311497632852923 -3.2172643261195115 0 0 0
395 99 2 0 4.413623948424481 -0.020403018411326464 -3.309627770194398 -1 0 0
163 33 3 0 1.3854366785548544 -4.024541350228259 -1.5162248201894604 0 0 0
465 122 4 0 1.5850267909499864 -3.3364985608640345 -2.6102036320012387 0 0 0
466 122 4 0 2.0253270564595818 -4.113928802457066 -2.415113293238118 0 0 0
464 122 2 0 1.7877232379014991 -3.7061810678701943 -2.5223261635756455 0 0 0
157 32 3 0 2.247619567351261 -4.453766853540453 -2.4157846902358275 0 0 0
282 61 4 0 0.6016056411234261 -2.6492711341491786 -2.871114541061261 0 0 0
281 61 2 0 0.22380968171860052 -2.7744619747603196 -2.6567859397435205 0 0 0
468 123 4 0 0.8169881539474743 -1.7166500726885283 -1.7610398538548944 0 0 0
499 133 4 0 0.8370432837759794 -2.072568905334005 -1.5693707101757326 0 0 0
497 133 2 0 1.2533961052919356 -2.2694518152648673 -1.5003038271426614 0 0 0
145 29 3 0 1.4910366848545222 -2.968324689927457 -2.742800909274659 0 0 0
491 131 2 0 1.8930698154932681 -1.6704711633888059 -2.4650809776897225 0 0 0
493 131 4 0 2.2347140555856146 -1.8930975798527445 -2.2772267943946027 0 0 0
132 27 3 0 2.542168165085865 -2.098271404369407 -2.1725606701978553 0 0 0
251 51 2 0 4.2600093768123 -2.921792805749243 -2.870684303882492 -1 0 0
135 27 3 0 3.2094746434963852 -2.2049694114357963 -2.5264776209386963 0 0 0
131 27 1 0 2.970589244476805 -1.9849698786273304 -2.157939654926246 0 0 0
133 27 3 0 3.009659510707516 -1.5487101275268556 -2.186444318121393 0 0 0
507 136 4 0 3.4253238429911854 -2.4217841344293705 -1.6792909581548507 0 0 0
134 27 3 0 3.143548196252194 -2.131253661126434 -1.762685223911747 0 0 0
253 51 4 0 4.286268709843885 -2.485059491383139 -2.6801745464349196 -1 0 0
153 31 3 0 1.1376075049596466 -1.4575010374319461 -2.6998750126728805 0 0 0
479 127 2 0 1.3260090695882882 -0.21924899869700026 -2.9140736598433183 0 0 0
481 127 4 0 1.100027956445702 -0.6096450992481075 -2.9625985715109433 0 0 0
155 31 3 0 0.805535809475191 -0.7728189772809763 -2.7277262945876566 0 0 0
152 31 3 0 0.4243839261959497 -1.3667702342209356 -2.500167064700288 0 0 0
151 31 1 0 0.7419144481274389 -1.232451766779411 -2.7909465254700154 0 0 0