LAMMPS data file via write_data, version 4 Feb 2025, timestep = 160000, units = lj

4650 atoms
4 atom types
3150 bonds
1 bond types
1875 angles
2 angle types

-11.917153 11.917153 xlo xhi
-11.917153 11.917153 ylo yhi
-11.917153 11.917153 zlo zhi
2.1316282072803006e-14 0 0 xy xz yz

Masses

1 1
2 1
3 0.1
4 0.1

Bond Coeffs # harmonic/omp

1 100 0.45

Angle Coeffs # harmonic/omp

1 100 180
2 100 109.471

Atoms # full

2025 625 4 0 -9.700468980193648 -11.48153610948268 -11.589009402864612 2 0 1
2023 625 2 0 -9.487064146549223 -11.779049259601875 -11.302141460522295 2 0 1
1058 303 4 0 -9.784185542447181 -11.120853621785368 -11.752293739908152 2 0 1
4540 1464 2 0 -6.921142771470901 -11.486558553584509 -11.368507669355628 10 1 1
4541 1464 4 0 -6.890764761450205 -11.447652736246004 -11.820079556431274 10 1 1
85 17 3 0 -8.81060782137357 -10.20111792765786 -11.28976143276144 2 0 1
1154 335 4 0 -9.127519804619192 -10.204511051455615 -11.036272831731909 2 0 1
81 17 1 0 -8.603182973916944 -10.149722166269017 -11.711790512501466 2 0 1
82 17 3 0 -8.199469159678415 -10.40376801837547 -11.721485977801919 2 0 1
3744 1198 4 0 -4.973507667996583 -10.180496075210641 -11.366539202199512 11 1 1
2235 695 4 0 -5.225589441344357 -10.234558248686728 -11.662253018159694 10 1 1
83 17 3 0 -8.503226746095812 -9.70103594883426 -11.789586399678264 2 0 1
2901 917 4 0 -10.299068465568398 -8.666318343049355 -11.165080345485258 3 0 0
1769 540 4 0 -10.61261924400879 -8.410915502060671 -11.072814258594992 10 1 0
2899 917 2 0 -9.88029566460115 -8.774868810601225 -11.046588170153965 3 0 0
1770 540 4 0 -11.251138389302987 -7.847141607881091 -11.262824775348994 10 1 0
1768 540 2 0 -10.939242198515986 -8.124208902349407 -11.169854575878581 10 1 0
834 228 4 0 -3.4486690322967632 -7.628349179643998 -11.571451985716891 3 0 0
832 228 2 0 -3.46442826954771 -7.7583629129908465 -11.137263859515965 3 0 0
3539 1130 4 0 -11.609704120251127 -6.649170546951216 -11.317711175381932 4 0 1
2433 761 4 0 -11.223069583610435 -6.615860728940019 -11.31797379574275 11 1 1
3538 1130 2 0 -11.90102440358511 -6.890689352531139 -11.57010318733043 4 0 1
2431 761 2 0 -10.818240715333404 -6.613660427981534 -11.438646008271967 11 1 1
2432 761 4 0 -10.370498724005172 -6.61328529566759 -11.55673950753171 11 1 1
902 251 4 0 -10.037975756237556 -6.511906908646927 -11.354045492503674 3 0 1
901 251 2 0 -9.630123256715205 -6.621046772720613 -11.541070746328302 3 0 1
903 251 4 0 -9.229097378364463 -6.730354301363641 -11.731216074184244 3 0 1
801 217 4 0 -8.965986483086489 -7.021609716937725 -11.8271560469546 3 0 0
2804 885 4 0 -7.8049706095941955 -7.308299665260104 -11.9062599361071 4 0 0
2803 885 2 0 -7.372694557736219 -7.145069330818443 -11.846502043572123 4 0 0
2805 885 4 0 -6.954608711400382 -6.986015607944721 -11.77865200215324 4 0 0
1911 587 4 0 -4.740202905925515 -6.683947892097932 -11.175925009589136 3 0 0
617 156 4 0 -5.125744545908785 -6.671208006532156 -11.256061559277105 3 0 0
1910 587 4 0 -3.8966743213873443 -6.476056021240729 -11.424052409385299 3 0 0
1909 587 2 0 -4.333477234582591 -6.588375849986727 -11.292216056125882 3 0 0
47 10 3 0 -3.5899240479212757 -6.656164570165992 -11.604863597071558 3 0 1
50 10 3 0 -3.230749613757883 -7.276465599464905 -11.654830869385139 3 0 1
46 10 1 0 -3.2509078643584015 -6.820651301039959 -11.771809800624526 3 0 1
49 10 3 0 -2.9000023112191844 -6.603424638459042 -11.625765880600872 3 0 1
2795 882 4 0 -2.5721478534999473 -6.512655771097499 -11.837560137009122 4 0 0
2794 882 2 0 -2.1674108250220208 -6.4255536911986235 -11.671942218325244 4 0 0
2796 882 4 0 -1.7669329488291794 -6.34418167834937 -11.51149134067923 4 0 0
761 204 4 0 -1.4268923627155328 -6.196550905850294 -11.697185781989662 3 0 0
760 204 2 0 -0.9703334394894725 -6.120618709995697 -11.716706368166223 3 0 0
762 204 4 0 -0.5325700574846106 -6.0424197668466375 -11.74073850377764 3 0 0
810 220 4 0 -0.1881246939121617 -5.847513873392473 -11.601763329760301 4 0 0
1323 391 4 0 -3.7992941596945577 -5.128612207496009 -11.606039520583717 4 0 1
2217 689 4 0 -3.685540607706745 -5.277538407262955 -11.258416106764823 4 0 1
1321 391 2 0 -3.3898488838706804 -5.100810317378051 -11.83632348493996 4 0 1
3356 1069 4 0 -2.0768320749466067 -3.572785324493374 -11.47339127647936 7 0 1
3355 1069 2 0 -2.316893980720849 -3.525116643494547 -11.844865971627696 7 0 1
2726 859 4 0 -1.861334875418006 -3.261292885626707 -11.3246751908259 6 0 0
2725 859 2 0 -1.515792101783509 -3.094918038910146 -11.137438855918344 6 0 0
2221 691 2 0 -2.4354805900121352 -1.2855208941972478 -11.874309511110757 8 0 1
2223 691 4 0 -2.224940344068166 -1.0683231158846915 -11.497072973216849 8 0 1
917 256 4 0 -5.99631919416252 -0.7496147943299594 -11.19487967715728 8 0 1
1112 321 4 0 -6.051363286882637 -0.6668803524249345 -11.588947457721122 8 0 1
2618 823 4 0 -1.9535169660281877 -0.7966236735877779 -11.652568044512654 1 -1 0
2617 823 2 0 -1.6675722665031927 -0.46111389066600594 -11.678808707955838 1 -1 0
2619 823 4 0 -1.3819888428078357 -0.11520091300601898 -11.705594287287004 1 -1 0
1371 407 4 0 -8.979667096558156 -11.905187183919216 -10.79533492231857 2 0 1
4564 1472 2 0 -7.452638341893129 -11.884916132780361 -10.504653335882686 11 1 1
4565 1472 4 0 -7.029397299748476 -11.68609744045905 -10.54298392782207 11 1 1
4542 1464 4 0 -6.9479960892985595 -11.525950357853606 -10.915489323665465 10 1 1
672 174 4 0 -11.391532610060151 -10.539997898740852 -10.104417451528624 2 0 0
1975 609 2 0 -10.582914513353169 -10.56135512098388 -10.2224790814614 10 1 1
1977 609 4 0 -10.178496511214044 -10.500705300325047 -10.424840180338895 10 1 1
1155 335 4 0 -9.8946641949012 -10.260047248078672 -10.589736275920988 2 0 1
1153 335 2 0 -9.511202089465169 -10.23647025594583 -10.815764876744185 2 0 1
3742 1198 2 0 -4.927124016509071 -9.9478825574633 -10.96564103450212 11 1 1
3743 1198 4 0 -4.8769221023141665 -9.722219426800141 -10.573785811290819 11 1 1
2900 917 4 0 -9.4390634837279 -8.883850047914288 -10.91421322304853 3 0 0
3031 961 2 0 -8.77055551845812 -8.779039327863797 -10.775286639561129 2 0 0
3032 961 4 0 -9.10899035127972 -9.060318199349835 -10.780098584561799 2 0 0
3033 961 4 0 -8.442808520765228 -8.504340441626928 -10.768827190991455 2 0 0
756 202 4 0 -7.821819364537691 -7.494645804067844 -10.871248297837314 3 0 0
833 228 4 0 -3.4919564321342893 -7.871929929418335 -10.721465169576982 3 0 0
2906 919 4 0 -3.62173155300213 -7.757372216573305 -10.346476594200858 4 0 0
2905 919 2 0 -3.5757536294363117 -7.375178839434511 -10.092555428251115 4 0 0
754 202 2 0 -7.564456494609062 -7.229662894630419 -10.58140025842878 3 0 0
755 202 4 0 -7.311575010674649 -6.966311430354143 -10.291696145661984 3 0 0
873 241 4 0 -6.956166987284015 -7.092045786810582 -10.168293331618571 3 0 0
871 241 2 0 -6.541855751489998 -6.935103204764848 -10.23136459291161 3 0 0
618 156 4 0 -5.826845478914374 -6.685550665642144 -10.59040668833752 3 0 0
872 241 4 0 -6.100352657060217 -6.788474731127401 -10.301295874904392 3 0 0
616 156 2 0 -5.47924327828439 -6.6790786442719146 -10.918094457463647 3 0 0
2215 689 2 0 -3.9339012675399943 -5.38652018480196 -10.89701103006171 4 0 1
2216 689 4 0 -4.1711129919217 -5.488951933960423 -10.558823511305093 4 0 1
2774 875 4 0 -4.2739305775983185 -5.372810778753165 -10.186063949635109 5 0 0
3369 1073 4 0 -3.4255242292664256 -3.0412175101575016 -10.555159188078282 7 0 1
3367 1073 2 0 -2.9972851212636282 -2.9183181497147874 -10.511053369716269 7 0 1
4380 1410 4 0 -3.6094676842958133 -2.8502630452307702 -10.247856437670638 7 0 1
3368 1073 4 0 -2.5661935854755615 -2.7786137269977846 -10.462510846338835 7 0 1
2727 859 4 0 -1.1578003653679048 -2.918995523936509 -10.933497087137212 6 0 0
2663 838 4 0 -0.8145304882875148 -2.7111542288879544 -10.935282055054168 6 0 0
2662 838 2 0 -0.37797806913525633 -2.6807392847218825 -10.864801879935717 6 0 0
3709 1187 2 0 -11.761508242780799 -1.5324421776199522 -10.711174911940885 8 0 0
2790 880 4 0 -11.046305834338485 -1.6571837007753132 -10.29310564144793 8 0 0
3711 1187 4 0 -11.419006921024884 -1.541354356144966 -10.408910829931802 8 0 0
2788 880 2 0 -10.71346680630558 -1.3769012577912623 -10.157630600034373 8 0 0
2126 659 4 0 -6.919406637972691 -0.66135411765881 -10.106667764600052 8 0 1
2125 659 2 0 -7.216328142807822 -0.3382673716035054 -10.089402462321038 8 0 1
916 256 2 0 -5.917137389094332 -0.6787989556592091 -10.767229911489713 8 0 1
918 256 4 0 -5.841411188652228 -0.6047750987312437 -10.350593511701922 8 0 1
670 174 2 0 -11.751157684576034 -10.47379493169095 -9.876613491565246 2 0 0
1976 609 4 0 -11.001929811903768 -10.636158601662737 -10.016145479108529 10 1 1
2907 919 4 0 -3.5232897435577346 -7.00589836609366 -9.838396802005816 4 0 0
2759 870 4 0 -3.208699419984365 -6.752234271147922 -9.808964464411076 4 0 0
2758 870 2 0 -2.8052656549144572 -6.620693285701085 -9.693067030740025 4 0 0
2760 870 4 0 -2.380829701159138 -6.485298754054418 -9.567507796200822 4 0 0
3072 974 4 0 -0.19475851332057914 -6.472117886447418 -9.283385329801844 4 0 0
2558 803 4 0 -2.0130913367656653 -6.327675210469742 -9.524942625059477 4 0 0
2557 803 2 0 -1.6440503444896581 -6.314347388077069 -9.292939004835631 4 0 0
2773 875 2 0 -4.18478366736557 -5.37836935205118 -9.750087570482886 5 0 0
2775 875 4 0 -4.082009850437055 -5.3793056730620945 -9.269441263328071 5 0 0
1009 287 2 0 -11.198799148777802 -3.812141367671037 -9.561053171126167 6 0 1
1010 287 4 0 -11.625940691947019 -3.7205224320827526 -9.625334446033312 6 0 1
578 143 4 0 -10.398389340096184 -3.9321212039670517 -9.238623453190314 6 0 0
1011 287 4 0 -10.77263437960019 -3.900443457720181 -9.482873744383172 6 0 1
3866 1239 4 0 -5.660830689695555 -2.8758923871085855 -9.197469963338122 7 0 0
448 100 2 0 -5.054553763014478 -2.8361169509685773 -9.737400898327826 7 0 0
450 100 4 0 -4.70243644526707 -2.947042144873828 -9.922011756710978 7 0 0
4379 1410 4 0 -4.352629403889757 -2.8699636568173528 -9.72207623252605 7 0 1
4378 1410 2 0 -3.975806963791893 -2.858710845265678 -9.991885147806702 7 0 1
449 100 4 0 -5.456685520150069 -2.7180370576736586 -9.520439662421966 7 0 0
2789 880 4 0 -10.39303471793006 -1.086162258556561 -10.017900452569249 8 0 0
3527 1126 4 0 -10.304690555159675 -0.7437032900518172 -9.823359544643361 8 0 1
3526 1126 2 0 -9.912666324267272 -0.7069954260901774 -9.632112325994594 8 0 1
3314 1055 4 0 -9.214731710387944 -0.39437041584952404 -9.343039678322382 8 0 1
3528 1126 4 0 -9.493802702429264 -0.6648416763910419 -9.430136019905229 8 0 1
3313 1055 2 0 -8.82813636194859 -0.4817994919899302 -9.548755685604759 8 0 1
3315 1055 4 0 -8.437963537450184 -0.5615421483416174 -9.749188676156058 8 0 1
1917 589 4 0 -5.647406006370831 -0.6209398590003055 -10.002911057505946 8 0 0
1915 589 2 0 -5.325620046935282 -0.559829655340847 -9.70013245902636 8 0 0
1916 589 4 0 -5.005941209384409 -0.4991544185786996 -9.397939182395485 8 0 0
1207 353 2 0 -4.632440395514866 -7.750690396062754 -8.569689281496117 3 0 1
1209 353 4 0 -5.031351929873894 -7.751987311718056 -8.410966603885306 3 0 1
1208 353 4 0 -4.218641410460208 -7.730328633159437 -8.728020537152421 3 0 1
2559 803 4 0 -1.2749306995549272 -6.300550041004175 -9.055660314517333 4 0 0
3071 974 4 0 -0.9374918095204272 -6.353892093531414 -8.831533837713042 4 0 0
3070 974 2 0 -0.5792741094427516 -6.408366093808087 -9.050198802698622 4 0 0
549 133 4 0 -4.0753016881747905 -5.1036451409279975 -8.973047429269393 4 0 0
547 133 2 0 -3.848229531572608 -4.865842824418196 -8.688970648564611 4 0 0
548 133 4 0 -3.615851766561601 -4.623566621692447 -8.396067566249776 4 0 0
1412 421 4 0 -11.296510350240645 -3.7750278388553173 -8.534614037863657 6 0 0
1411 421 2 0 -11.610297282545327 -4.098904113593109 -8.544171800062243 6 0 0
577 143 2 0 -10.248377020734809 -3.9433828098261934 -8.786867521622517 6 0 0
579 143 4 0 -10.119122975750019 -3.9526419721927493 -8.377103696343962 6 0 0
529 127 2 0 -1.9705084329045714 -3.8178638233642204 -8.561974550540745 4 0 0
531 127 4 0 -1.6418085666924345 -3.786970197334595 -8.88416887978476 4 0 0
100 20 3 0 -11.187654501302239 -2.750712412895563 -8.47388144193868 6 0 0
97 20 3 0 -11.02017790717386 -3.481932203753175 -8.55624568332699 6 0 0
96 20 1 0 -10.851016287439124 -3.0770987598700206 -8.445636550653486 6 0 0
99 20 3 0 -10.507944771309933 -2.961997737153437 -8.734944043218233 6 0 0
2883 911 4 0 -10.254615984671531 -2.8362361087303665 -9.051042430715432 6 0 0
2881 911 2 0 -9.802174608314473 -2.790438048057805 -8.964486335069608 6 0 0
2882 911 4 0 -9.348877766572755 -2.750873534583011 -8.871111607686409 6 0 0
1517 456 4 0 -11.585409991709401 -2.736391654577364 -8.508014003299099 6 0 0
3344 1065 4 0 -9.095825770954129 -2.4237339452627147 -8.837239500113457 6 0 1
3343 1065 2 0 -8.674748924246924 -2.490664262120921 -8.742549280279487 6 0 1
3345 1065 4 0 -8.242940627525284 -2.5620916453724014 -8.645649214336233 6 0 1
3865 1239 2 0 -5.852782518179678 -2.4958902704865427 -9.068387342126577 7 0 0
3867 1239 4 0 -6.04600749386067 -2.0949192100493725 -8.956623096792521 7 0 0
2964 938 4 0 -6.028996786376174 -1.8220754393091045 -8.665287471009465 7 0 0
2962 938 2 0 -5.9724344244660195 -1.3851273231598853 -8.572101862574236 7 0 0
2963 938 4 0 -5.915012623180588 -0.9500603219857524 -8.482268544283421 7 0 0
2898 916 4 0 -4.753856894409948 -0.43361951553109 -9.093350669923096 8 0 0
2896 916 2 0 -4.407154183398638 -0.5145256376445797 -8.77783984247028 8 0 0
2897 916 4 0 -4.076715637959083 -0.5907663568316597 -8.476520423275042 8 0 0
2514 788 4 0 -0.23915407494278895 -0.20431515209075535 -8.484515284990044 8 0 0
3875 1242 4 0 -1.6606060081385312 -10.12706763344552 -7.522380961433925 10 1 0
4554 1468 4 0 -3.7991051600065475 -9.472628461369649 -7.3894917150446755 10 1 0
4612 1488 2 0 -0.99992712516773 -9.854121687189371 -7.386504237353891 10 1 0
4613 1488 4 0 -0.6120363560017807 -9.620515377912767 -7.512434053469489 10 1 0
2924 925 4 0 -0.3004115211186775 -9.409055471813723 -7.619560960947227 2 0 0
2849 900 4 0 -8.499863033045942 -8.740751678809675 -7.4406681542854445 3 0 0
2848 900 2 0 -8.063598115013253 -8.624487790105864 -7.4980050179652435 3 0 0
2850 900 4 0 -7.6356499850684125 -8.51167414862387 -7.544745120247695 3 0 0
3309 1053 4 0 -7.315163930093796 -8.36616499621663 -7.6721129108538575 3 0 1
3307 1053 2 0 -6.895450512966539 -8.29254170889218 -7.6930535302651695 3 0 1
3308 1053 4 0 -6.4341883435917895 -8.212719794619826 -7.727236838404505 3 0 1
3377 1076 4 0 -6.05212292782225 -8.177994928302116 -7.834194491855179 3 0 1
3376 1076 2 0 -5.710199011146474 -7.9190135869645415 -8.049766537326004 3 0 1
3378 1076 4 0 -5.3976420398022675 -7.672274700935285 -8.236601299270706 3 0 1
3195 1015 4 0 -1.1988023543827797 -7.5806689660267255 -7.411027138051019 4 0 1
3193 1015 2 0 -0.8863276145294776 -7.567171229538538 -7.739475339232846 4 0 1
3194 1015 4 0 -0.5570323690432861 -7.5436968142602625 -8.080276899955193 4 0 1
465 105 4 0 -0.29331690968622226 -7.298792526336142 -8.210806870397954 4 0 0
4089 1313 4 0 -9.446390220007068 -5.537237834414033 -7.676878302907638 13 1 0
4087 1313 2 0 -9.030931946694205 -5.571729248928975 -7.849880378149844 13 1 0
4088 1313 4 0 -8.613211274384104 -5.606641952756773 -8.036106668830708 13 1 0
2326 726 2 0 -10.165171558643989 -5.1624950700202925 -7.693210821748211 12 1 0
2327 726 4 0 -10.515438827730234 -4.8743735895006965 -7.597818828424722 12 1 0
2328 726 4 0 -9.830170822103218 -5.419560154769119 -7.77895300614358 12 1 0
1752 534 4 0 -6.14170455608558 -5.180103228428241 -7.581184731362971 6 0 0
1750 534 2 0 -6.197332988797284 -4.710434855644032 -7.628160507887808 6 0 0
585 145 4 0 -3.3143431437757744 -4.674795440553794 -8.151094293780597 4 0 0
806 219 4 0 -11.749489807560296 -3.923939907528559 -7.463072402061288 6 0 0
2763 871 4 0 -10.560169945870358 -4.084633731118526 -7.379749557141019 6 0 0
1439 430 4 0 -6.320028923185329 -3.878826857819311 -7.778959124133101 6 0 0
1751 534 4 0 -6.261805558096987 -4.269632274622441 -7.6760541894865195 6 0 0
583 145 2 0 -2.9590377393680303 -4.384236656528021 -8.188444644771685 4 0 0
530 127 4 0 -2.3003419951437234 -3.8548811161121126 -8.237706137842668 4 0 0
584 145 4 0 -2.613369022009543 -4.117243892945894 -8.228522058489903 4 0 0
98 20 3 0 -10.698006161681434 -3.095993817424242 -8.05547258056926 6 0 0
515 122 4 0 -10.31779740175661 -2.973789769428455 -8.044975691747767 6 0 0
514 122 2 0 -9.967028968368272 -2.7924548243950653 -7.853561994128773 6 0 0
3227 1026 4 0 -8.483873829076336 -3.6014462835108034 -7.395177036445523 6 0 0
3235 1029 2 0 -7.676653687017621 -3.5273782707030943 -7.36279234607269 6 0 0
3236 1029 4 0 -7.24872262650898 -3.5385654215783706 -7.451926988495218 6 0 0
1440 430 4 0 -7.095768516660272 -3.3944456086307113 -7.783533469879358 6 0 0
1438 430 2 0 -6.691447963982895 -3.6400528717010907 -7.78057792977775 6 0 0
516 122 4 0 -9.620836052474747 -2.606251571675969 -7.655092015364345 6 0 0
651 167 4 0 -9.264423851733662 -2.6312911424559786 -7.480448166641015 6 0 0
3185 1012 4 0 -3.9182740621696857 -0.6351708144870276 -8.10204622898026 8 0 1
3184 1012 2 0 -3.5025279153849436 -0.7277435218543573 -7.967237733937212 8 0 1
3186 1012 4 0 -3.074987914661669 -0.812954598117809 -7.812558060304165 8 0 1
813 221 4 0 -2.818431097637541 -0.7858014389628263 -7.4780339404908585 7 0 0
3804 1218 4 0 -2.838851847361342 -10.323810223225498 -7.109550509231486 10 1 0
3876 1242 4 0 -2.4459964874305875 -10.386477232906222 -7.142865118542551 10 1 0
3874 1242 2 0 -2.049071540861151 -10.264328585712592 -7.333020197253162 10 1 0
3802 1218 2 0 -3.191898105252342 -10.049221332312088 -7.182571775217284 10 1 0
3803 1218 4 0 -3.549459769121059 -9.765116251487404 -7.245264116950752 10 1 0
4614 1488 4 0 -1.3616147439934991 -10.071219070601265 -7.273300515704813 10 1 0
3730 1194 2 0 -11.743093634044822 -9.084008904801438 -6.861842561687817 11 1 0
3731 1194 4 0 -11.375760614715944 -8.885838639620442 -6.9998298837798565 11 1 0
3002 951 4 0 -11.016541948258604 -8.803679197020694 -6.896645153378134 3 0 0
3001 951 2 0 -10.567083018636499 -8.67884568710981 -7.062355980916801 3 0 0
3003 951 4 0 -10.146578105643005 -8.55663085991603 -7.219338181375296 3 0 0
2535 795 4 0 -9.747296029525474 -8.574309365018461 -7.208603758871752 3 0 0
2533 795 2 0 -9.316147774284024 -8.641863104098277 -7.2382828511441355 3 0 0
2534 795 4 0 -8.875981610568706 -8.717030664646277 -7.276326271938676 3 0 0
4552 1468 2 0 -3.6919208992960506 -9.08691009809239 -7.153656735397172 10 1 0
4553 1468 4 0 -3.589600688175423 -8.703475186145523 -6.920482259368499 10 1 0
2005 619 2 0 -2.92594664719854 -8.388773834762322 -6.675154898226015 9 1 0
2007 619 4 0 -3.2943519897860067 -8.633454557579707 -6.693402748879005 9 1 0
2006 619 4 0 -2.548747104370481 -8.136046299339565 -6.655874995207776 9 1 0
3462 1104 4 0 -2.2343473781250722 -7.993894641914835 -6.435299467445416 2 0 0
3101 984 4 0 -1.324705336070707 -7.448911248706133 -7.048389929778294 4 0 1
3100 984 2 0 -1.0979395103291818 -7.28521622061697 -6.671677652052102 4 0 1
4601 1484 4 0 -11.410496011426286 -6.186644228596205 -7.089494895924371 13 1 1
2552 801 4 0 -11.798154285344527 -6.196236854049458 -7.2149471720021054 5 0 0
4600 1484 2 0 -10.935016027384602 -6.145041653051283 -7.0397790626074075 13 1 1
3587 1146 4 0 -10.120704044613264 -6.0658898133090915 -6.830526414801625 5 0 1
4602 1484 4 0 -10.480907805171924 -6.105787584851536 -6.999580886337242 13 1 1
3586 1146 2 0 -9.665754379622935 -5.899434145386328 -6.821476078987415 5 0 1
3588 1146 4 0 -9.253534604193804 -5.752013659077831 -6.812268157275316 5 0 1
632 161 4 0 -9.06951983896791 -5.503201583149972 -6.545173437733666 6 0 0
507 119 4 0 -6.940883156533538 -5.591213658275677 -6.69776036247247 6 0 0
777 209 4 0 -11.538215761032138 -5.065527381803553 -6.7844574342357475 4 0 0
775 209 2 0 -11.168438975288502 -4.9726495702296205 -7.033856491647001 4 0 0
2178 676 4 0 -11.668187540508061 -5.250250661501273 -6.429550274910933 12 1 0
776 209 4 0 -10.786185836212738 -4.881593239470735 -7.275138227793962 4 0 0
27 6 3 0 -7.303601345168025 -5.427330102687324 -6.633709956460003 6 0 0
505 119 2 0 -6.578676922611917 -5.4840097912584 -6.962344457536789 6 0 0
506 119 4 0 -6.200732826402312 -5.377785004106404 -7.235067137989421 6 0 0
805 219 2 0 -11.306289254692137 -3.904288999545125 -7.318398428629256 6 0 0
807 219 4 0 -10.871786853101373 -3.8772987418166753 -7.184699796644669 6 0 0
2761 871 2 0 -10.1490064126306 -4.021048479730518 -7.26969894612508 6 0 0
2762 871 4 0 -9.711491933324703 -3.946509209334449 -7.148430390648857 6 0 0
3228 1026 4 0 -9.311647794585982 -3.899359834838963 -7.171953461031527 6 0 0
3226 1026 2 0 -8.881118998309422 -3.7485038680497045 -7.283414717105085 6 0 0
2676 842 4 0 -5.639280825590556 -4.132648446518703 -6.422658691773767 6 0 0
3237 1029 4 0 -8.120222055296217 -3.507226124996226 -7.284956921075747 6 0 0
649 167 2 0 -8.88780034913855 -2.4946870496885705 -7.265341135426133 6 0 0
3107 986 4 0 -8.510438688075993 -1.9476122958654276 -7.076784019938036 6 0 1
650 167 4 0 -8.515389226678913 -2.359933594169034 -7.0439086235857475 6 0 0
3106 986 2 0 -8.060859407735208 -1.9080846502984308 -6.952220045528867 6 0 1
3108 986 4 0 -7.615808348449257 -1.869506438949692 -6.824438279281995 6 0 1
3809 1220 4 0 -0.4664715791478429 -2.429736020604931 -6.581178894224458 8 0 0
3808 1220 2 0 -0.29568841078458874 -1.9965516541297976 -6.6427370621352635 8 0 0
3810 1220 4 0 -0.13148505379407993 -1.5879596385196013 -6.691261251900155 8 0 0
811 221 2 0 -2.4884058111955216 -0.5838117913566858 -7.19295020458985 7 0 0
812 221 4 0 -2.1837275186980687 -0.403625211942769 -6.921293908139144 7 0 0
1667 506 4 0 -1.8620561717700745 -0.5058163459746634 -6.695088214960704 7 0 0
1666 506 2 0 -1.4107058356140474 -0.42316563232505544 -6.758402898690682 7 0 0
1668 506 4 0 -0.9670610678994596 -0.3477078695973024 -6.805678625262917 7 0 0
35 7 3 0 -0.6115810958474093 -0.18140201641581477 -6.691410190966574 7 0 0
34 7 3 0 -0.16179754892955955 -0.09801341336074287 -7.273452725007038 7 0 0
3794 1215 4 0 -2.3622955841983284 -11.153398012023649 -5.887426342074762 10 1 0
4536 1462 4 0 -2.032839851646674 -11.393584078008859 -5.853241702257752 10 1 0
4534 1462 2 0 -1.79584363444161 -11.756239606383108 -5.891364226734036 10 1 0
3795 1215 4 0 -2.1080615568759296 -10.370523856151364 -5.558819997343746 10 1 0
3793 1215 2 0 -2.2316305847870463 -10.751880176845011 -5.71852396050233 10 1 0
242 49 3 0 -1.4290972972391565 -8.355655685775726 -5.721727590425532 2 0 0
3460 1104 2 0 -1.8635331762168725 -7.99948678696714 -6.184422980312003 2 0 0
3461 1104 4 0 -1.480612955301643 -8.013659083606656 -5.922467886953819 2 0 0
842 231 4 0 -1.2368923291152019 -7.161780776113996 -5.590307702555437 5 0 0
3297 1049 4 0 -0.5381638686697521 -6.909539355882831 -6.174002078474387 4 0 0
3102 984 4 0 -0.8707178810989937 -7.115355405871006 -6.301340760090415 4 0 1
3295 1049 2 0 -0.2733916555882736 -6.567581624050663 -6.0114474473998305 4 0 0
631 161 2 0 -8.667971478836115 -5.373584622565098 -6.407968757244537 6 0 0
633 161 4 0 -8.231004400986803 -5.23548506983918 -6.264269076742389 6 0 0
29 6 3 0 -7.8469480350660525 -5.060846028916514 -6.233514577494168 6 0 0
26 6 1 0 -7.368049450421807 -5.1489393737519595 -6.284887577656378 6 0 0
28 6 3 0 -7.161175774759325 -4.77195017908746 -6.354131365197682 6 0 0
4007 1286 4 0 -6.809564264643546 -4.614614650422852 -6.393055816878578 6 0 0
30 6 3 0 -7.2003235626967825 -5.340180963112367 -5.904021648773756 6 0 0
1274 375 4 0 -7.050345400059596 -5.210953301869561 -5.564710942245301 6 0 0
2620 824 2 0 -4.197810577830839 -4.955526067030942 -5.759192342704071 6 0 0
2622 824 4 0 -4.573088419299419 -5.045597560685675 -5.520639662274146 6 0 0
2621 824 4 0 -3.829013068284377 -4.8658077241379845 -6.006565400033772 6 0 0
1183 345 2 0 -3.015320249645125 -4.760214959495284 -5.788509240445834 6 0 1
1185 345 4 0 -3.4263386719341558 -4.780624320599143 -5.973389585009825 6 0 1
1184 345 4 0 -2.5987012558649845 -4.728717962656142 -5.604354568626924 6 0 1
1151 334 4 0 -2.226306943247181 -4.861323556145943 -5.5848139748887355 6 0 1
1150 334 2 0 -1.755636491440299 -4.8581111662667995 -5.583451417792913 6 0 1
1152 334 4 0 -1.3284785297807105 -4.859066658299053 -5.589944834619743 6 0 1
4006 1286 2 0 -6.377545615816941 -4.470286561160587 -6.352203765126669 6 0 0
4008 1286 4 0 -5.945741693646313 -4.3301615606316926 -6.317854965267231 6 0 0
2674 842 2 0 -5.284711433822168 -3.8918673605239746 -6.266539942609006 6 0 0
2675 842 4 0 -4.939938254376231 -3.65176712365661 -6.12059431977562 6 0 0
4121 1324 4 0 -4.546222836243486 -3.6299060746538494 -6.002879266349749 6 0 0
4120 1324 2 0 -4.33028891155573 -3.4555304696143665 -5.646812700726266 6 0 0
3057 969 4 0 -1.9385997131499497 -10.227102662497128 -5.2343276129308025 2 0 0
3055 969 2 0 -1.7975085039247833 -9.784530441533088 -5.3307143458892465 2 0 0
3056 969 4 0 -1.6595711664168977 -9.364101409133482 -5.425762935784141 2 0 0
3785 1212 4 0 -1.6787712905660381 -8.667854441426545 -4.707820144212857 2 0 0
244 49 3 0 -1.7359098100533359 -8.557402550368828 -5.096752105959855 2 0 0
245 49 3 0 -1.4041021704180032 -9.062666860072206 -5.495062512051232 2 0 0
241 49 1 0 -1.3976003226580396 -8.630761817899828 -5.358081499206039 2 0 0
243 49 3 0 -0.9865223675327393 -8.543278630428127 -5.1354399752652435 2 0 0
3569 1140 4 0 -0.6815286643031389 -8.595542998465245 -4.882616764487306 2 0 0
3568 1140 2 0 -0.414426070700765 -8.88559326045787 -4.667948267751999 2 0 0
843 231 4 0 -2.0274931339722233 -6.907739099403051 -5.192491936981756 5 0 0
841 231 2 0 -1.6446654761886599 -7.033443805146012 -5.385932760818429 5 0 0
1273 375 2 0 -6.620448154368518 -5.1597381202767325 -5.438611087178438 6 0 0
554 135 4 0 -5.83360006694796 -5.050818165118673 -5.159398573725422 6 0 0
1275 375 4 0 -6.1957419765372235 -5.11369360184502 -5.301058431037475 6 0 0
553 135 2 0 -5.391756222424874 -5.079122097334048 -5.3185453278643475 6 0 0
555 135 4 0 -4.970555537025262 -5.100078651009177 -5.48099927851079 6 0 0
3629 1160 4 0 -10.196666530741341 -3.38304139791288 -4.594426042064845 6 0 0
3737 1196 4 0 -6.1665162542094905 -3.1594517300388283 -4.767105572060281 6 0 0
4125 1325 4 0 -5.954188257253558 -2.814192159435356 -4.684961467927738 6 0 0
4122 1324 4 0 -4.096106848943144 -3.273212501358916 -5.292455953759677 6 0 0
2643 831 4 0 -4.175604323706548 -2.90908217982269 -5.142760824092906 6 0 0
2641 831 2 0 -4.44011648404115 -2.759963732393592 -4.7735859307053365 6 0 0
711 187 4 0 -0.5151342230518239 -0.15986199945857216 -4.6434784130139555 0 -1 0
563 138 4 0 -6.893203271873521 -11.713962304875414 -3.720536390168286 2 0 0
564 138 4 0 -7.215380562468857 -11.116223665109027 -4.266778790821737 2 0 0
562 138 2 0 -7.04677046833062 -11.433876157621079 -3.981783731434202 2 0 0
4170 1340 4 0 -9.44835848287503 -10.96987826413087 -3.6839909056578577 14 1 0
975 275 4 0 -8.418118438325187 -10.775336778611972 -3.992794071018266 2 0 0
3830 1227 4 0 -8.76446214671178 -10.617829616964835 -4.122252678379052 10 1 0
3829 1227 2 0 -8.925899516791903 -10.367441304843389 -3.778488427436617 10 1 0
974 275 4 0 -7.577050978660166 -10.96284414220678 -4.2594528650987895 2 0 0
973 275 2 0 -7.9980058204019215 -10.867998996192252 -4.125944753910222 2 0 0
3120 990 4 0 -1.5987034037872156 -9.324955643849027 -3.706026925343876 2 0 0
3118 990 2 0 -1.295825238580317 -9.617123848619684 -3.7185972417074353 2 0 0
3119 990 4 0 -0.9813572189875419 -9.915142674922933 -3.7077139529380094 2 0 0
192 39 3 0 -0.6522265466195218 -9.99310858141251 -3.876446475735344 2 0 0
191 39 1 0 -0.21869527028748692 -9.874755428240766 -3.9880145920107157 2 0 0
195 39 3 0 -0.2312184059497593 -9.516590368309576 -4.318984979445018 2 0 0
3570 1140 4 0 -0.1416516929995808 -9.170078986123455 -4.450303158001957 2 0 0
3786 1212 4 0 -1.8239088305570252 -8.952549979746282 -3.79652841441861 2 0 0
3784 1212 2 0 -1.7553850844879992 -8.800347077072423 -4.246614435157727 2 0 0
203 41 3 0 -8.899422670347677 -3.709931046208075 -3.9666260880051665 6 0 0
3628 1160 2 0 -9.828679221550301 -3.1410386359708955 -4.566666666449668 6 0 0
205 41 3 0 -9.171708201156365 -3.081822921002633 -4.3275959862740425 6 0 0
3630 1160 4 0 -9.452403725349889 -2.9000911953446664 -4.553460972334079 6 0 0
201 41 1 0 -8.912199210601822 -3.25112090852255 -3.953151888873604 6 0 0
202 41 3 0 -8.476551665362207 -3.1025783419848363 -3.975919110988521 6 0 0
3864 1238 4 0 -8.106636753772545 -3.1877094506201455 -3.849291351860945 6 0 0
3862 1238 2 0 -7.699788414964116 -3.318096838738521 -3.9871031725783466 6 0 0
3863 1238 4 0 -7.265484413239988 -3.4645682645109925 -4.131599159461153 6 0 0
3738 1196 4 0 -6.891559591612839 -3.3231128734642343 -4.2498610001954304 6 0 0
3736 1196 2 0 -6.520678709577788 -3.2403321828792464 -4.514987394048162 6 0 0
4123 1325 2 0 -5.537829048490338 -2.7030880973500047 -4.570606965991055 6 0 0
4124 1325 4 0 -5.107651103642471 -2.594104788433068 -4.457644430297608 6 0 0
2642 831 4 0 -4.694449321130751 -2.622720440318334 -4.412616264868007 6 0 0
4275 1375 4 0 -1.3066490910772242 -2.022920104081436 -3.8786807669293477 7 0 0
3873 1241 4 0 -0.27681016167799477 -2.236839986527892 -4.479203108177844 7 0 0
4274 1375 4 0 -0.5362556526140931 -1.963883715387384 -4.295751210059701 7 0 0
4273 1375 2 0 -0.908841327510622 -1.997482810264561 -4.086774190250301 7 0 0
3444 1098 4 0 -1.6569717549612797 -1.8333360401718721 -3.80754684607205 7 0 0
2052 634 4 0 -11.037206508759034 -11.660044910345327 -3.367783926550084 13 1 0
2050 634 2 0 -10.890775295414334 -11.226199820471095 -3.4292561787288793 13 1 0
2051 634 4 0 -10.742027553167437 -10.813071268047786 -3.4902128677907083 13 1 0
4169 1340 4 0 -10.35847226514456 -10.808200511292622 -3.5595061383370155 14 1 0
4168 1340 2 0 -9.892735760988035 -10.890599190411407 -3.6253210647974488 14 1 0
3831 1227 4 0 -9.096936438523612 -10.116088313374263 -3.433857007489607 10 1 0
1417 423 2 0 -9.572785251311842 -10.002862441299907 -2.9615329370756225 10 1 0
1419 423 4 0 -9.425397646681207 -9.886142544237961 -3.38874497220103 10 1 0
2015 622 4 0 -11.591841607544625 -8.417008975231683 -3.557906729949954 3 0 0