LAMMPS data file via write_data, version 4 Feb 2025, timestep = 8500000, units = lj

4650 atoms
4 atom types
3150 bonds
1 bond types
1875 angles
2 angle types

-11.917153 11.917153 xlo xhi
-11.917153 11.917153 ylo yhi
-11.917153 11.917153 zlo zhi

Masses

1 1
2 1
3 0.1
4 0.1

Bond Coeffs # harmonic/omp

1 100 0.45

Angle Coeffs # harmonic/omp

1 100 180
2 100 109.471

Atoms # full

3540 1130 4 0 -9.340773250104686 -10.687967859986712 -11.639113457717942 1 0 1
3538 1130 2 0 -9.736063651456243 -10.681171868479455 -11.891885478691783 1 0 1
3743 1198 4 0 -8.94443864653552 -10.65155176022215 -11.666880738239222 1 1 1
3504 1118 4 0 -6.212147309725574 -10.665968784045065 -11.645802038082849 1 0 1
3503 1118 4 0 -5.987826077620388 -11.121574131808744 -10.92601377390733 1 0 1
3502 1118 2 0 -6.101874112900389 -10.890945838052357 -11.28069708574392 1 0 1
4566 1472 4 0 -5.658984710523482 -11.382146375653804 -10.971579887833244 0 1 1
4564 1472 2 0 -5.455075061060292 -11.740654423808833 -10.776679379094265 0 1 1
1551 467 4 0 -2.2349936282469 -10.743732348505276 -11.181238335629716 0 1 0
476 109 4 0 -1.9315483218599983 -11.01887047478016 -11.19131303891901 0 0 0
1549 467 2 0 -2.521305681781355 -10.476955470512907 -11.00540784256851 0 1 0
475 109 2 0 -1.5239047103221701 -11.116834648508538 -11.007570212431492 0 0 0
477 109 4 0 -1.1245375663086052 -11.215452652634927 -10.835677210654358 0 0 0
3962 1271 4 0 -0.8042431056184234 -10.955318433877578 -10.896871955607617 0 1 0
3961 1271 2 0 -0.5081438699717863 -10.610565406570633 -10.90789634277284 0 1 0
2908 920 2 0 -6.334274022017181 -8.715780840232016 -10.701919916197388 1 0 0
2910 920 4 0 -6.444974714438064 -8.672972078424754 -11.125446447343267 1 0 0
2423 758 4 0 -6.4046053957008535 -8.95282593884217 -11.419741208870516 0 1 1
2422 758 2 0 -6.499352492254361 -9.17918990101521 -11.837975283219853 0 1 1
1770 540 4 0 -2.995575493427031 -9.93465065006773 -10.578101383296639 0 1 0
1550 467 4 0 -2.8158322071975093 -10.199288158866754 -10.822640747890162 0 1 0
3963 1271 4 0 -0.22846669923652477 -10.27907634035322 -10.926569768276154 0 1 0
2394 748 4 0 -0.010630218747497044 -10.188739803194444 -11.24402628348714 0 1 1
2909 920 4 0 -6.204997274027184 -8.761477480512944 -10.224421198928647 1 0 0
1371 407 4 0 -7.887468580115919 -6.168577185037857 -10.497449890235679 0 0 1
2024 625 4 0 -7.5175568856783785 -6.308053389538477 -10.449746243584581 0 0 1
4179 1343 4 0 -0.6778587628455397 -6.05630929942677 -11.717924597858646 0 0 0
4177 1343 2 0 -0.8975997139597047 -5.931415571016937 -11.35877155633648 0 0 0
3255 1035 4 0 -0.3299170136576016 -6.231169300717142 -11.604432791425824 0 0 0
1369 407 2 0 -8.03565385851253 -5.848301437439302 -10.769877472524033 0 0 1
4541 1464 4 0 -8.89920496838736 -4.637330527670511 -10.869376857733512 0 1 1
4540 1464 2 0 -8.548248755884039 -4.87441691349319 -11.000606687517042 0 1 1
4542 1464 4 0 -8.17657914600579 -5.12351514949059 -11.13025173940269 0 1 1
1370 407 4 0 -8.187731378125699 -5.522579694184168 -11.043801307114057 0 0 1
2515 789 2 0 -1.4403414026345505 -4.570752041445033 -11.53868490596569 0 0 0
3053 968 4 0 -1.2344311048476353 -5.529363785861349 -10.722480375776597 0 0 0
4178 1343 4 0 -1.1308154130818344 -5.807102016967368 -10.983781423620668 0 0 0
1720 524 2 0 -6.148461565914246 -3.196474592974978 -10.68627969411091 0 0 0
1721 524 4 0 -6.150361178621869 -3.6069784895463632 -10.418438440878067 0 0 0
2517 789 4 0 -1.6089262880799167 -4.311810494916555 -11.252140561796208 0 0 0
1229 360 4 0 -1.6198551341120506 -4.169737895279069 -10.88875576432466 0 0 0
1228 360 2 0 -1.4488860301430186 -3.7522216194275857 -10.796355502299994 0 0 0
1230 360 4 0 -1.284139046487249 -3.3604035239862076 -10.704776191048119 0 0 0
4011 1287 4 0 -10.195228902686368 -3.0383336123872775 -11.44301255374656 1 0 0
497 116 4 0 -9.913505290466794 -3.08158878262721 -11.197979387125525 0 0 0
496 116 2 0 -9.939548096586657 -2.833451193399461 -10.814659255608863 0 0 0
2685 845 4 0 -7.453251744106658 -2.7437075795554744 -11.512201445431257 1 0 0
1538 463 4 0 -7.853349798168363 -2.6640654910254096 -11.490280636610764 0 0 0
638 163 4 0 -8.475215165887652 -1.8853664812152175 -10.740037327808936 0 -1 0
1539 463 4 0 -8.358449146765432 -2.2710521853554178 -10.842993143409304 0 0 0
1537 463 2 0 -8.110127238033776 -2.4605063212165867 -11.160413455729126 0 0 0
1722 524 4 0 -6.153419632281892 -2.8142616508279894 -10.938427766584178 0 0 0
4136 1329 4 0 -4.94168650160294 -2.586575215712351 -11.783023909231023 1 0 1
4385 1412 4 0 -4.957292080511755 -2.245305505707097 -11.573635403693286 0 0 1
4384 1412 2 0 -4.847304834833787 -1.7829091040568028 -11.584322607885998 0 0 1
4386 1412 4 0 -4.731007517485189 -1.3408821536260442 -11.596889567219401 0 0 1
2391 747 4 0 -4.304192856024863 -1.3681857885558357 -11.595315938170474 0 0 1
1816 556 2 0 -2.3256466444753516 -2.1838846445214357 -11.186197459960592 0 0 0
1818 556 4 0 -2.444107181257283 -2.498442647551705 -10.872283487780537 0 0 0
941 264 4 0 -2.6691812135587933 -2.60025928017253 -10.554653966936298 0 0 1
1817 556 4 0 -2.2011098468868 -1.857876322038993 -11.502534514495453 0 0 0
3576 1142 4 0 -1.1716083989352375 -3.011756811131372 -10.605046840344686 0 0 0
3574 1142 2 0 -0.9951357604019075 -2.616403665350448 -10.530552780817578 0 0 0
2389 747 2 0 -3.9078804034153336 -1.2167698097112138 -11.81990529669104 0 0 1
1545 465 4 0 -1.266157231555195 -0.5512762318704758 -11.558121161031444 0 0 1
1543 465 2 0 -0.9142730112921534 -0.4056043865701712 -11.314424746254662 0 0 1
1544 465 4 0 -0.5726456280757805 -0.26733650051946756 -11.067441609521941 0 0 1
1542 464 4 0 -0.09213767880289533 -1.0752036383500072 -11.78719918737699 0 0 0
339 68 3 0 -0.5614223706767002 -0.4424527968450751 -10.704946349918853 1 0 1
1776 542 4 0 -10.957351402509177 -11.848221706128143 -0.31794670851267237 0 1 0
723 191 4 0 -8.716976043846378 -11.56741776594812 -9.153626750405811 0 0 0
1154 335 4 0 -6.3190564715593 -9.373281289484316 -9.189589560488187 0 0 1
85 17 3 0 -6.4363136573583075 -9.012710647839622 -9.27306887429444 0 0 1
1153 335 2 0 -6.661771628501102 -9.609413960541927 -9.00947178453891 0 0 1
2900 917 4 0 -4.680301047608833 -9.125520836510875 -9.659236447342359 1 0 0
1768 540 2 0 -3.2465772889789317 -9.78398781538905 -10.224356881692136 0 1 0
2899 917 2 0 -4.248492265331619 -9.264804525062344 -9.7159912932304 1 0 0
1769 540 4 0 -3.5121027415523556 -9.631709809924939 -9.867057780576577 0 1 0
2901 917 4 0 -3.8301383920115892 -9.39775613976552 -9.773931421660759 1 0 0
1909 587 2 0 -7.839688594422877 -8.759587902481975 -10.025699553409366 0 0 0
1911 587 4 0 -7.664385457442859 -9.092528515766888 -9.711898064242618 0 0 0
1910 587 4 0 -7.993323996964439 -8.464691747429294 -10.298049237695468 0 0 0
617 156 4 0 -7.480473647869007 -9.175288246304227 -9.368531044349652 0 0 0
82 17 3 0 -6.471473230719693 -8.805237516591434 -9.946052072647149 0 0 1
1059 303 4 0 -6.69590904735903 -7.971045392568137 -9.598709902583366 0 0 1
84 17 3 0 -6.632964976182172 -8.34751107554278 -9.423437417466777 0 0 1
81 17 1 0 -6.375410468190945 -8.680221232694162 -9.5363059060274 0 0 1
1057 303 2 0 -6.8415706219476204 -7.7315452991637255 -9.950320581270855 0 0 1
3032 961 4 0 -4.838465227425089 -8.754772492875144 -9.56628272654295 0 0 0
3031 961 2 0 -5.234414658604552 -8.53140237046376 -9.626469070633874 0 0 0
3033 961 4 0 -5.62574903221096 -8.319766488729364 -9.674285392959693 0 0 0
83 17 3 0 -5.927317940129605 -8.546922786246904 -9.515914713882834 0 0 1
2023 625 2 0 -7.353280178434996 -6.715583553619905 -10.35558928475751 0 0 1
1058 303 4 0 -6.995914213971001 -7.47970231992011 -10.314078395474843 0 0 1
2025 625 4 0 -7.195903058071671 -7.141519246505399 -10.246749670253113 0 0 1
547 133 2 0 -11.81747418232629 -4.5372388079062596 -9.297530006954746 0 0 0
2165 672 4 0 -5.0789896455239365 -0.2752150674685693 -0.8511203084681815 0 0 0
2529 793 4 0 -5.343282055939312 -0.5638616823717227 -0.9349776489957755 1 0 0
2309 720 4 0 -5.755266619658444 -4.692551139885593 -10.153906176220525 0 0 1
3108 986 4 0 -5.463222817842128 -4.954532700089139 -10.110820278576428 0 0 1
3106 986 2 0 -5.104583638901131 -5.131585619794396 -9.899931942423487 0 0 1
3107 986 4 0 -4.732749182317833 -5.325514838919344 -9.689366443648764 0 0 1
650 167 4 0 -4.370577516850295 -5.2353849992113055 -9.58703389994213 0 0 0
649 167 2 0 -4.137565644999566 -4.926029874535956 -9.390048545845797 0 0 0
651 167 4 0 -3.8772738305279826 -4.590697769778248 -9.182675532693658 0 0 0
3052 968 2 0 -1.1475846685385211 -5.154638737843112 -10.477135829741535 0 0 0
3054 968 4 0 -1.0611244021619775 -4.797588822035653 -10.242779485339817 0 0 0
2570 807 4 0 -1.1037327204934604 -4.78877123808769 -9.835228925872327 0 0 0
2569 807 2 0 -1.1957728254204354 -4.878312098500005 -9.416727695316549 0 0 0
2775 875 4 0 -11.56058791275829 -3.8585183749770255 -9.68268341196593 1 0 0
549 133 4 0 -11.702484675230755 -4.096090014183961 -9.39841106619845 0 0 0
2310 720 4 0 -6.125413141751339 -3.8989756943911598 -10.163314241356291 0 0 1
2308 720 2 0 -5.938777760958705 -4.298354786204586 -10.156300402988911 0 0 1
516 122 4 0 -3.5922751102338943 -4.29761023028642 -9.148516098358707 0 0 0
1284 378 4 0 -2.8321704503915384 -3.736925127659671 -10.07661882645863 0 0 1
1282 378 2 0 -2.4507652436315954 -3.7565128273952695 -9.810160872856041 0 0 1
1283 378 4 0 -2.0823715823967777 -3.7717899134620403 -9.550741649159667 0 0 1
2949 933 4 0 -1.7922475629018255 -3.513656957710724 -9.471307702370384 0 0 0
2947 933 2 0 -1.535106723154531 -3.2486420077399387 -9.265337740536443 0 0 0
2948 933 4 0 -1.259071910724576 -2.960825749452174 -9.052643962285323 0 0 0
2709 853 4 0 -0.906722349413981 -2.882161682093852 -8.891988063034715 0 0 0
2914 922 2 0 -10.973740715112537 -2.1559814371264885 -8.8262044986995 1 0 0
2915 922 4 0 -10.742883212073705 -2.252096855357678 -9.17510564184686 1 0 0
569 140 4 0 -10.575179420271253 -2.44781898504967 -9.487078741658152 1 0 0
498 116 4 0 -9.966991024774103 -2.6129983406096766 -10.450736711821936 0 0 0
568 140 2 0 -10.336151869878806 -2.3760709006121172 -9.847460079713045 1 0 0
570 140 4 0 -10.08903255498981 -2.2903788348674308 -10.2225495396166 1 0 0
637 163 2 0 -8.448247697380841 -1.6126051513517559 -10.39382177604892 0 -1 0
3343 1065 2 0 -2.94801913979267 -2.5727003642488824 -8.969732877399913 0 0 1
3345 1065 4 0 -2.8157891671346316 -2.5920816043872987 -9.410800931893846 0 0 1
942 264 4 0 -2.6291057121955226 -2.3512162460474824 -9.669164505727732 0 0 1
940 264 2 0 -2.645935305514824 -2.478206977199048 -10.116589132951093 0 0 1
534 128 4 0 -0.6971480634165742 -2.0943269857231117 -10.101136482510066 0 0 0
3575 1142 4 0 -0.8135601357403369 -2.2266107068768 -10.45871833625573 0 0 0
532 128 2 0 -0.6399532899594313 -1.651289142043068 -10.10355399959822 0 0 0
639 163 4 0 -8.417709039476811 -1.3298911942343064 -10.051460823416557 0 -1 0
4113 1321 4 0 -7.9439670837713185 -0.15593807602148504 -10.45949660459379 1 0 0
4112 1321 4 0 -8.328279962583563 -0.9041461025196578 -10.09974668563323 1 0 0
4111 1321 2 0 -8.140458557287495 -0.5345840375879576 -10.275714404153042 1 0 0
485 112 4 0 -7.798868547350922 -0.4304013809605355 -8.779517356776404 0 0 0
533 128 4 0 -0.5685271646239322 -1.206709116286005 -10.103271930816147 0 0 0
338 68 3 0 -0.7907527157288733 -0.8475759994247288 -10.133155354626691 1 0 1
336 68 1 0 -0.5437393582117249 -0.5125337087761834 -10.23989081931291 1 0 1
337 68 3 0 -0.7044024877156044 -0.13094070233671976 -10.01160360412444 1 0 1
4028 1293 4 0 -0.64627847726559 -0.31209135169899904 -9.641624752127607 0 0 0
4027 1293 2 0 -0.9740200878408873 -0.18730368454013616 -9.319740924491695 0 0 0
992 281 4 0 -11.862171147861385 -10.366921039515693 -1.0162075841478457 0 0 0
722 191 4 0 -9.453645787137265 -11.599428520306645 -8.645103472934034 0 0 0
1448 433 4 0 -9.690899465325009 -11.649224324869126 -8.317735333436067 0 1 0
1447 433 2 0 -10.008091709178172 -11.831807692087466 -8.077077121406592 0 1 0
721 191 2 0 -9.089147500484454 -11.583833053504248 -8.896189785626213 0 0 0
671 174 4 0 -8.416492672086392 -11.371468538824233 -8.988304997752266 0 0 0
670 174 2 0 -8.124808636061443 -11.047651452462434 -8.84502257875947 0 0 0
672 174 4 0 -7.827048829831788 -10.714919318496875 -8.69483839144725 0 0 0
1976 609 4 0 -7.7265601612390835 -10.561839418629567 -8.34518859952802 0 1 1
872 241 4 0 -7.825453377227738 -8.974298788934536 -8.237623409239381 0 0 0
1975 609 2 0 -7.389875002339958 -10.254556131416715 -8.390159822725577 0 1 1
618 156 4 0 -7.922291606539369 -8.971295524367399 -8.620946299388143 0 0 0
1155 335 4 0 -7.006281485903057 -9.84741195270442 -8.837184501151494 0 0 1
1977 609 4 0 -7.037373348470008 -9.936061632033526 -8.436829565805237 0 1 1
616 156 2 0 -7.704004523220035 -9.08366709212228 -8.984728895224448 0 0 0
871 241 2 0 -7.681395204952569 -8.762817737169382 -7.870516267467384 0 0 0
755 202 4 0 -7.452031824346886 -8.173436551889633 -7.4461704805904425 0 0 0
2528 793 4 0 -5.687726884204637 -1.3692786662046226 -1.097827001052107 1 0 0
3550 1134 2 0 -1.8318967981880854 -5.080914436871868 -8.332736105269625 0 0 1
3551 1134 4 0 -2.0918865134553966 -5.0622851039148555 -7.972806437860549 0 0 1
1518 456 4 0 -2.135847450933791 -4.998622967519527 -7.587327024426155 0 0 0
3552 1134 4 0 -1.5582084921387394 -5.093682207504182 -8.709000656836299 0 0 1
2571 807 4 0 -1.3054049713121192 -4.9647888194940775 -8.99571077295902 0 0 0
2831 894 4 0 -9.419094050178291 -3.5640008802301906 -8.88314871468683 1 0 0
2830 894 2 0 -9.520637403148838 -3.151728064037541 -8.695700098789736 1 0 0
515 122 4 0 -3.2103071268055268 -4.07206992305765 -8.365267491923882 0 0 0
514 122 2 0 -3.404415362227403 -4.192422436475957 -8.76924512059185 0 0 0
98 20 3 0 -3.4221472179885777 -4.178506699834785 -8.042963884899669 0 0 0
96 20 1 0 -3.2671520168098467 -3.9574137615681573 -7.68076766623839 0 0 0
99 20 3 0 -3.186762612206405 -3.5190861714259594 -7.7901205536554015 0 0 0
2883 911 4 0 -3.3685698814198695 -3.163764184291867 -7.745268031874366 0 0 0
1516 456 2 0 -2.388304004147259 -4.6552162223056275 -7.4393130314104186 0 0 0
100 20 3 0 -2.9112184087379402 -4.139457616030522 -7.540630057289225 0 0 0
2916 922 4 0 -11.241370656852643 -2.051138435925233 -8.448658835238929 1 0 0
33 7 3 0 -11.43338436039688 -1.6949529427794139 -8.468593876369217 0 0 0
2832 894 4 0 -9.616769825070415 -2.7515155868519376 -8.523712352936398 1 0 0
2388 746 4 0 -9.679936663710142 -2.4985128266043035 -8.21120724692717 0 1 0
2386 746 2 0 -9.487247772355847 -2.3375258744939393 -7.840927861588449 0 1 0
2387 746 4 0 -9.298263077951937 -2.194165670750222 -7.4899760102972195 0 1 0
381 77 4 0 -7.778134498100959 -1.6857788401441338 -8.942258702604729 0 0 0
2881 911 2 0 -3.251902925993984 -2.7859371132537962 -7.9561176485267175 0 0 0
2882 911 4 0 -3.143762935125263 -2.399113016092478 -8.170967781946 0 0 0
3344 1065 4 0 -3.066458824149751 -2.55144352544282 -8.536988575601864 0 0 1
1751 534 4 0 -1.2960939718872067 -2.2102124278705095 -7.390701159408252 0 0 0
2707 853 2 0 -0.48021321975163345 -2.7248685627221114 -8.993966268228116 0 0 0
2708 853 4 0 -0.04879065583778642 -2.5712884954462503 -9.100000771658964 0 0 0
1439 430 4 0 -1.1320721370623037 -2.5680824044526447 -7.4460428905664315 0 0 0
1440 430 4 0 -0.6942698573142818 -2.529379123329729 -8.240297079586217 0 0 0
1438 430 2 0 -0.9115621617378211 -2.552321569133667 -7.8407223943739295 0 0 0
3236 1029 4 0 -0.30377074216161787 -2.6264343798253758 -8.153944486306015 0 0 0
31 7 1 0 -11.725969828204438 -1.4343397955319603 -8.260827299017537 0 0 0
35 7 3 0 -11.906967233695825 -1.1269409218540498 -8.559203049225772 0 0 0
32 7 3 0 -11.516496082696845 -1.2054598534862628 -7.933514681469776 0 0 0
1563 471 4 0 -11.11229169368809 -1.1511350059705396 -8.0090008517536 0 0 0
1561 471 2 0 -10.962466311920505 -0.7549488137876998 -7.8865784181298375 0 0 0
1562 471 4 0 -10.809598295618196 -0.36004457527947664 -7.755245146392842 0 0 0
3063 971 4 0 -10.63954805553889 -0.1508552995902672 -7.482593722709957 1 0 1
379 77 2 0 -7.850047202348625 -1.2437581773273594 -8.812449874803006 0 0 0
380 77 4 0 -7.920319752812185 -0.8122196573405959 -8.699895613964937 0 0 0
484 112 2 0 -8.154706739237845 -0.16207502069327728 -8.77870352597016 0 0 0
2539 797 2 0 -1.8237794695391663 -0.49916076106274915 -8.655522148570894 0 0 0
2541 797 4 0 -2.025027514078481 -0.8475996327942795 -8.489913530172457 0 0 0
2540 797 4 0 -1.6227481667984518 -0.16334623504696674 -8.834948221636106 0 0 0
4029 1293 4 0 -1.2832885992036835 -0.06826593533660802 -9.018430649266518 0 0 0
1165 339 2 0 -0.17788741133083447 -1.4500213904680708 -7.77683900413711 0 0 1
4488 1446 4 0 -10.632237016971825 -9.27616598605003 -6.753732020845313 0 1 1
663 171 4 0 -10.329352371590037 -9.294305601511136 -6.520395619212587 0 0 0
714 188 4 0 -9.426347689700064 -10.118934015760088 -6.346647501795946 1 0 0
661 171 2 0 -9.97750924911236 -9.51868598747153 -6.417710189461097 0 0 0
662 171 4 0 -9.618722300228553 -9.753946046007293 -6.305087564942428 0 0 0
712 188 2 0 -9.001624252659413 -10.072251365020724 -6.204285689697089 1 0 0
495 115 4 0 -8.221283499403283 -10.12072854130426 -5.882473170671932 0 0 0
493 115 2 0 -7.847716677567496 -9.866171909987946 -5.9085688379487715 0 0 0
713 188 4 0 -8.577690418751418 -10.027816353726095 -6.073063284196255 1 0 0
4049 1300 4 0 -2.7224174821167746 -9.773081178396852 -6.734154335293237 0 1 0
3933 1261 4 0 -2.851697793373315 -9.964357075787342 -6.411898922764724 0 1 0
3931 1261 2 0 -2.779673780199505 -10.082153942521023 -5.992964886305114 0 1 0
4050 1300 4 0 -2.1587328592865074 -9.226038140796197 -7.245351015931247 0 1 0
4048 1300 2 0 -2.4489704226653664 -9.513210890573138 -6.983603858505753 0 1 0
4486 1446 2 0 -10.936005529292249 -8.951818725637795 -6.712438215650484 0 1 1
4487 1446 4 0 -11.253533777367881 -8.611491475748743 -6.691836269338068 0 1 1
1197 349 4 0 -11.304940826699093 -8.268589567162405 -6.463967905364714 0 0 0
1195 349 2 0 -11.516237711848795 -7.997876736725964 -6.133082068888102 0 0 0
873 241 4 0 -7.534751792526136 -8.555475137302688 -7.512205165205042 0 0 0
754 202 2 0 -7.100167036403536 -7.935723370296055 -7.37750684683752 0 0 0
756 202 4 0 -6.743981015074031 -7.688737175402151 -7.312243739843574 0 0 0
861 237 4 0 -6.487527255017909 -7.6097757803606285 -7.037097092801477 0 0 0
446 99 4 0 -11.394289503419168 -6.931456384866761 -6.908890598575442 0 0 0
445 99 2 0 -11.748177033556917 -6.691789667596904 -7.048837783933741 0 0 0
2855 902 4 0 -11.144249430329975 -7.148035509298548 -6.695141505356322 1 0 0
2854 902 2 0 -10.76626618935129 -6.912064315377593 -6.594773670840621 1 0 0
2856 902 4 0 -10.394824110675732 -6.681882425080195 -6.4957797168329865 1 0 0
1020 290 4 0 -10.068672862725109 -6.439411391184305 -6.442726482910854 0 0 0
1018 290 2 0 -9.637222381055965 -6.430327437085526 -6.424941893354436 0 0 0
1019 290 4 0 -9.175653426218272 -6.424354743055164 -6.39808099480907 0 0 0
3491 1114 4 0 -8.782817968045583 -6.390927814410949 -6.239195318927704 1 0 0
859 237 2 0 -6.496205059434904 -7.356079431823849 -6.6490740505815875 0 0 0
860 237 4 0 -6.506752851617835 -7.123139435233846 -6.281056078644417 0 0 0
1091 314 4 0 -6.596667290286597 -6.807612024204712 -6.053932227869331 0 0 1
1090 314 2 0 -6.464660814226963 -6.387290691265627 -5.964736911098929 0 0 1
1009 287 2 0 -5.04924826129022 -3.070624069410114 -6.425161610023903 0 0 1
1010 287 4 0 -4.782841769551157 -3.4157107538789586 -6.47622216502491 0 0 1
1413 421 4 0 -4.588685684973488 -3.7053896709763627 -6.699488419709285 0 0 0
97 20 3 0 -3.566008969911729 -3.9770295373541558 -7.378014623142615 0 0 0
1411 421 2 0 -4.245621894980284 -3.7438696253527284 -6.9656153892943475 0 0 0
1412 421 4 0 -3.8880495153848402 -3.78479241747512 -7.241224004052732 0 0 0
1517 456 4 0 -2.656999393835628 -4.293576216283346 -7.285404345115975 0 0 0
1394 415 4 0 -9.25723654230512 -1.84025993691178 -7.287251380004038 0 0 0
1393 415 2 0 -8.946082917877819 -1.5559133941895127 -7.08791126886858 0 0 0
912 254 4 0 -8.51348675549215 -1.297391347352401 -6.491307971002974 0 0 0
910 254 2 0 -8.080768172254105 -1.3998401060275891 -6.329101364240968 0 0 0
911 254 4 0 -7.6503083685605455 -1.5022127258887192 -6.171710078693064 0 0 0
1395 415 4 0 -8.644233033816906 -1.2880003204975272 -6.8894671380559815 0 0 0
3872 1241 4 0 -7.312146402581785 -1.5960511411249536 -5.98103026320217 1 0 0
1011 287 4 0 -5.315494165025814 -2.740352629973335 -6.370600826763759 0 0 1
578 143 4 0 -5.4736961560756106 -2.4801231823561865 -6.12386383293271 0 0 0
1750 534 2 0 -1.5909004851460806 -2.029784316571549 -7.0997414648632455 0 0 0
1752 534 4 0 -1.9110504063382872 -1.8457623904041203 -6.808826631450819 0 0 0
506 119 4 0 -2.133509023741552 -1.6522550343677318 -6.545711256809176 0 0 0
1167 339 4 0 -0.13538149777181216 -1.7432730116960138 -7.449229125349374 0 0 1
3061 971 2 0 -10.44279310805746 -0.19938719457112483 -7.083940588147383 1 0 1
3062 971 4 0 -10.239882422322763 -0.2591043136392682 -6.671261613756321 1 0 1
500 117 4 0 -9.948060147407304 -0.3779997774162158 -6.418130556436657 0 0 0
499 117 2 0 -9.630514658742914 -0.5808503694684999 -6.201733500446998 0 0 0
1685 512 4 0 -6.226507497191921 -0.5820173435541414 -6.007920962617206 0 0 0
1841 564 4 0 -6.075990028540582 -0.2430919983179673 -5.8282067889963844 0 0 0
505 119 2 0 -2.2466397564563554 -1.4097773642244074 -6.20829934008799 0 0 0
494 115 4 0 -7.4748878071931335 -9.612136163892549 -5.9370124911397895 0 0 0
3932 1261 4 0 -2.7029373639313294 -10.214254900600537 -5.564635148365697 0 1 0
995 282 4 0 -2.6136772902629155 -9.98671597472268 -5.265208423979275 0 0 0
994 282 2 0 -2.2021785870894366 -10.140161232313904 -5.087029213508265 0 0 0
996 282 4 0 -1.8013054827302326 -10.28813617453616 -4.904261184879705 0 0 0
2321 724 4 0 -1.485544077932182 -10.160833613179511 -4.668231311924237 0 1 1
2320 724 2 0 -1.058409362890257 -10.28161026004557 -4.510534600197406 0 1 1
1196 349 4 0 -11.705872541480026 -7.759579032183471 -5.825981290851354 0 0 0
3707 1186 4 0 -11.462792851918595 -7.738582794529132 -5.500958151692019 1 1 0
3706 1186 2 0 -11.219998608675647 -7.7429584008038095 -5.110537675717652 1 1 0
759 203 4 0 -7.594951472461925 -7.405975599644401 -4.8403961258976835 0 0 0
3708 1186 4 0 -10.987060529772663 -7.738784702207864 -4.730871122025626 1 1 0
1285 379 2 0 -10.352801182570406 -7.2520756172048975 -4.614311526309779 0 0 0
1286 379 4 0 -10.652048905714462 -7.5686125080757805 -4.583962638672988 0 0 0
1287 379 4 0 -10.044636676831514 -6.930969735626991 -4.647780727504322 0 0 0
2781 877 4 0 -7.448356602830482 -7.310011568208158 -4.470038617800114 1 0 0
3490 1114 2 0 -8.624847918408621 -6.712086588439643 -5.955127610708939 1 0 0
3492 1114 4 0 -8.481908367358336 -7.022300344509489 -5.6780978148998855 1 0 0
758 203 4 0 -8.167959900479671 -7.200664749462367 -5.457888586689876 0 0 0
757 203 2 0 -7.884635600846859 -7.298473921742657 -5.153415106322211 0 0 0
2588 813 4 0 -9.073814308451245 -6.049305481168214 -3.9508926440959065 1 0 0
1092 314 4 0 -6.318220562659992 -5.938941275869863 -5.878092601406406 0 0 1
2699 850 4 0 -6.539465515154924 -5.65842802275204 -5.658698735301723 0 0 0
2698 850 2 0 -6.621896914950526 -5.416695866237089 -5.28503677876594 0 0 0
2700 850 4 0 -6.70897671075865 -5.1687650676122106 -4.89137427987802 0 0 0
855 235 4 0 -6.694874596472602 -5.000785026448496 -4.5504641410714335 0 0 0
4275 1375 4 0 -7.555522290812809 -2.814991112035081 -4.490628995056693 1 0 0
842 231 4 0 -0.9159411501873786 -3.36579543147464 -4.476917350589372 0 0 0
841 231 2 0 -0.8767123179231242 -3.793215696958891 -4.33779171476217 0 0 0
843 231 4 0 -0.8386007324803687 -4.229540025371336 -4.186807610756259 0 0 0
2028 626 4 0 -8.909101965417268 -1.6281983818742185 -5.303002089837005 0 0 0
4273 1375 2 0 -7.458844603824623 -2.7544382796526152 -4.925706162522269 1 0 0
3444 1098 4 0 -7.950832569569744 -2.7136095622704697 -4.432828283791094 1 0 0
579 143 4 0 -5.985117956411689 -1.7979374087470288 -5.784334560004145 0 0 0
4274 1375 4 0 -7.368517736703289 -2.690950980557008 -5.344594971543128 1 0 0
3871 1241 2 0 -7.3403857013025 -1.9496931998802751 -5.740113224647059 1 0 0
3873 1241 4 0 -7.360649357724639 -2.324220698779791 -5.488027663890615 1 0 0
577 143 2 0 -5.717602668009131 -2.1568413370026085 -5.970372714508129 0 0 0
2027 626 4 0 -9.085149152832582 -0.7592652466550409 -5.670273947301131 0 0 0
2026 626 2 0 -8.994090262228413 -1.1995178788474241 -5.485692842184636 0 0 0
501 117 4 0 -9.31373112352405 -0.7874056518705262 -5.988382034580991 0 0 0
1686 512 4 0 -5.933714989650486 -1.4147164623687913 -5.700861405630016 0 0 0
1684 512 2 0 -6.079684376480018 -1.0070303596525245 -5.857909637327687 0 0 0
1507 453 2 0 -0.004813908833562587 -9.99010251754332 -4.265429012159753 0 1 0
1273 375 2 0 -2.9241293527942904 -0.10408134504780157 -4.692727617358807 0 0 0
507 119 4 0 -2.37698375298421 -1.1424319879257836 -5.832859772648537 0 0 0
1274 375 4 0 -2.5531651819912478 -0.2501812310814037 -4.88742575936201 0 0 0
27 6 3 0 -2.2110989861163186 -0.7426424761231323 -5.822191528295396 0 0 0
30 6 3 0 -2.3874753951171512 -0.3222739467211277 -5.245014002278738 0 0 0
26 6 1 0 -2.0882921839129116 -0.3785689069390133 -5.5579213180267395 0 0 0
28 6 3 0 -1.6896048071571943 -0.47025797247407447 -5.358818802887024 0 0 0
384 78 4 0 -1.5229883088251626 -0.12031131385936919 -5.190068635209608 0 0 0
382 78 2 0 -1.3080732059947808 -0.19461681903149147 -4.790399058405024 0 0 0
383 78 4 0 -1.0964996697257876 -0.2783515087189477 -4.4023779496856505 0 0 0
2284 712 2 0 -5.177298014003189 -11.68653064521907 -3.5210105062729267 0 0 1
2107 653 2 0 -5.044454296383192 -10.585036702947162 -3.9290319679371803 0 1 1
2109 653 4 0 -5.1599611016590226 -11.006248084102676 -3.7702637556243905 0 1 1
2286 712 4 0 -4.95528470052416 -11.352038746854676 -3.713595168298342 0 0 1
2108 653 4 0 -4.937426554494923 -10.177207861711006 -4.087172356601895 0 1 1
1488 446 4 0 -4.895821680675773 -9.990541419500234 -3.7369382261921364 0 0 0
1486 446 2 0 -4.651959537742334 -9.645973733513555 -3.5510564126872106 0 0 0
1487 446 4 0 -4.3985863505194915 -9.299878800475325 -3.3735948557089612 0 0 0
2396 749 4 0 -4.555200896047462 -8.96532816070113 -3.498669396312412 0 0 0
1660 504 2 0 -2.349984848030175 -8.950064757880057 -3.550888316518881 0 1 0
1662 504 4 0 -2.4758297024119673 -9.092751088857293 -3.119994687986292 0 1 0
1508 453 4 0 -0.34468756478036533 -10.162807127829003 -4.4824894022890485 0 1 0
2322 724 4 0 -0.643273953623535 -10.399936384466642 -4.3492235070894125 0 1 1
2395 749 2 0 -4.7256154155446675 -8.540920387384563 -3.5271746213374935 0 0 0
4079 1310 4 0 -5.021366536412497 -7.818962893074648 -3.3606505482299758 1 1 0
2397 749 4 0 -4.889330503208753 -8.13328802178213 -3.5605829424372493 0 0 0
1661 504 4 0 -2.2366133072244727 -8.809355165475514 -3.9657888029524577 0 1 0
3677 1176 4 0 -1.9006307702539154 -8.601668021209129 -3.9729239135376098 1 1 0
3676 1176 2 0 -1.6680751924430606 -8.346390811126591 -4.249772464272856 1 1 0
3678 1176 4 0 -1.441660555491263 -8.100346835323593 -4.529021031329287 1 1 0
3524 1125 4 0 -9.717551420012361 -6.712388213716129 -4.739657554085858 1 0 0
3523 1125 2 0 -9.395002689504379 -6.53049173271593 -4.499791337105078 1 0 0
3525 1125 4 0 -9.054490447797294 -6.328511181168837 -4.245889150420567 1 0 0
946 266 2 0 -7.4880351399209255 -7.0733824504837415 -2.944616916760902 0 0 0
2779 877 2 0 -7.453002765983511 -7.290986778402717 -4.01499863572881 1 0 0
2780 877 4 0 -7.458380263357001 -7.270030911290471 -3.5398797901926726 1 0 0
947 266 4 0 -7.293896716279217 -7.400297367437153 -3.195370024296725 0 0 0
4078 1310 2 0 -4.819687489806997 -7.439995443346605 -3.149217791631218 1 1 0
4080 1310 4 0 -4.642656398640006 -7.100034915986504 -2.9602604872152525 1 1 0
2016 622 4 0 -4.410002277041679 -6.792344711449201 -2.844392896993579 0 0 0
2587 813 2 0 -8.85167463056977 -5.633216281898642 -4.036784387109226 1 0 0
2589 813 4 0 -8.64108163859437 -5.2489082193305885 -4.11989848332073 1 0 0
792 214 4 0 -8.702191817962012 -4.914175638291979 -3.9055524813759486 0 0 0
790 214 2 0 -8.377839208434487 -4.652826890444241 -3.7305095008600193 0 0 0
853 235 2 0 -6.829093874591945 -5.12633976216597 -4.13996791913379 0 0 0
1265 372 4 0 -7.227896316684408 -5.398811188512523 -3.533326231310131 0 0 0
854 235 4 0 -6.949445537506482 -5.245264032713529 -3.765577527728268 0 0 0
1264 372 2 0 -7.075622273602823 -5.592017479776142 -3.1310435172499806 0 0 0
1599 483 4 0 -2.9430248273182418 -4.436383036661512 -2.9808329314794584 0 1 0
1249 367 2 0 -1.8304495600978283 -5.263513609339841 -3.5043515150485787 0 0 0
1251 367 4 0 -2.3003515478027907 -5.231600340411718 -3.432888294782386 0 0 0
1250 367 4 0 -1.3800286744310923 -5.294994035904783 -3.572821955811759 0 0 0
1597 483 2 0 -2.8259348064115435 -4.80464567251661 -3.173411656978666 0 1 0
1598 483 4 0 -2.7037645455747215 -5.178292904105203 -3.355775410572754 0 1 0
1710 520 4 0 -1.086971374605877 -5.18967497459872 -3.799902443176618 0 1 0
1708 520 2 0 -0.9029822208427982 -4.893079827587418 -4.063302488502929 0 1 0
1709 520 4 0 -0.7046564438786042 -4.577858654670479 -4.330625515200159 0 1 0
791 214 4 0 -8.076257525870208 -4.388975948714143 -3.5627958476767887 0 0 0
2678 843 4 0 -7.767162747342239 -4.443672166989181 -3.3182512617775752 0 0 0
378 76 4 0 -3.145603838660583 -4.201454994254338 -2.731163998739584 0 0 0
4144 1332 2 0 -9.03360786000475 -2.7006049321636607 -3.333973058423587 1 0 0
3442 1098 2 0 -8.323668475859906 -2.6409461199075976 -4.222474820635097 1 0 0
3443 1098 4 0 -8.720468844151997 -2.5721386668799786 -3.99874800361912 1 0 0
4146 1332 4 0 -9.081229099150494 -2.5806933078250878 -3.7619122436746393 1 0 0
1152 334 4 0 -6.638085248380094 -2.745342912554262 -3.3681916157891174 0 0 1
573 141 4 0 -6.9947916691243766 -2.729249644032908 -3.1885119493128515 0 0 0
571 141 2 0 -7.342037071764753 -2.65264203985046 -2.952812520656009 0 0 0
1150 334 2 0 -6.210686379349485 -2.6103779495129187 -3.38084806490746 0 0 1
1185 345 4 0 -5.12776567216722 -1.664200537309456 -4.078584399203545 0 0 1