LAMMPS data file via write_data, version 19 Nov 2024, timestep = 1500000, units = lj

40 atoms
4 atom types
30 bonds
1 bond types
35 angles
2 angle types

-6 6 xlo xhi
-6 6 ylo yhi
-6 6 zlo zhi

Masses

1 1
2 1
3 1
4 1

Bond Coeffs # harmonic/omp

1 100 0.45

Angle Coeffs # harmonic/omp

1 100 180
2 100 109.471

Atoms # full

27 6 4 0 4.897993992144092 -0.3804820829710006 -5.69561121874091 0 0 0
34 8 4 0 2.9026740760651775 -3.135742107294334 2.9839894074504536 0 0 0
32 8 2 0 3.154327263117171 -3.0744327368516173 2.6289408664860434 0 0 0
33 8 4 0 3.4219948465273333 -3.0207248654571663 2.2560217264502693 0 0 0
6 2 1 0 -3.3507393977932147 -0.19397214637812646 4.053983801158043 0 0 0
10 2 3 0 -3.4924299960976404 -0.5864147981901124 3.9966609913129187 0 0 0
9 2 3 0 -2.9236678038002495 -0.2040104622940442 4.218969188349001 0 0 0
5 1 3 0 4.812797217912229 0.6758710958894445 -4.851948934194219 0 0 0
28 6 4 0 5.069676222970269 0.4974597902398752 -5.5072819147150325 0 0 0
4 1 3 0 5.130795383041393 0.8749208193180702 -5.48947483530964 0 0 0
1 1 1 0 4.9321817024809285 1.0274304225733015 -5.122835287353437 0 0 0
3 1 3 0 4.575941577554616 1.2516891712359453 -5.231919206650599 0 0 0
2 1 3 0 5.2050759925481325 1.3079100573018385 -4.890877811003885 0 0 0
30 7 4 0 5.294704622693919 1.4797963175841111 -4.547130615632769 0 0 0
29 7 2 0 5.1279079440261315 1.4501272260540388 -4.104999395267626 0 0 0
31 7 4 0 4.969157801364021 1.4144737668255163 -3.666248079030001 0 0 0
38 10 2 0 0.5947767756449232 4.049018948420425 -0.4691512928059981 0 0 0
39 10 4 0 0.37880588667725107 3.9224262165893125 -0.07628974714301963 0 0 0
40 10 4 0 0.8106298147580459 4.166529013189352 -0.8462577741721872 0 0 0
26 6 2 0 4.980814210067749 0.037821086679900646 -5.6097667918552965 0 0 0
8 2 3 0 -3.3555641273794032 0.0352070852467466 3.680450974829419 0 0 0
14 3 3 0 4.349098678654248 2.5172176702457016 3.510713612547266 0 0 0
13 3 3 0 4.664875379697445 3.1216677352942335 3.748149832459341 0 0 0
12 3 3 0 5.089719223666977 2.587057470643962 3.5226179015116617 0 0 0
11 3 1 0 4.704994325070328 2.6972083634967268 3.737062655267969 0 0 0
15 3 3 0 4.706968925459001 2.527613199216792 4.147033276756267 0 0 0
37 9 4 0 2.76792101481925 1.5128730791338152 5.760432420188631 0 0 0
36 9 4 0 1.9429408402751434 1.3574785557261717 5.410841440022399 0 0 0
35 9 2 0 2.357943194607255 1.4367280542265772 5.586751683086513 0 0 0
17 4 3 0 3.0945957111303684 1.2351555909813556 5.68496456770173 0 0 0
20 4 3 0 3.665587057046523 1.6275246153428395 5.895066873303857 0 0 0
18 4 3 0 3.7530524824514386 1.0028448335461446 5.5529931914798185 0 0 0
16 4 1 0 3.495531934231768 1.3508832301533913 5.584525997055841 0 0 0
19 4 3 0 3.4981097414339493 1.5706088024774405 5.179922658212116 0 0 0
25 5 3 0 5.656807888337893 5.662017468281951 5.945928484244539 0 0 0
22 5 3 0 5.829176595949622 5.6413897389687895 5.24027038689237 0 0 0
24 5 3 0 5.330806120244672 5.155302895718626 5.517844249272932 0 0 0
21 5 1 0 5.49817063628634 5.583783780341969 5.538546370903612 0 0 0
23 5 3 0 5.175716106671421 5.868085378326735 5.4442595709383985 0 0 0
7 2 3 0 -3.6011608829859467 0.011755210826312956 4.3437873151520074 0 0 0

Velocities

27 -0.1943190675133059 0.12474890474705722 0.36191679081070693
34 -0.04220233603300752 -0.3542787020553435 -0.15711419873243632
32 0.10741554746696506 0.035103746851396035 0.07144810084262189
33 0.1700909853387757 0.2231249970884707 0.2869412943226648
6 -0.3839572350368967 -0.08470227048767746 -0.008242916503973869
10 -0.38457532906933933 0.2803325110098286 -0.09772713709399922
9 0.24284685194473382 0.04693068894520082 0.350715696802771
5 0.36105093364217267 0.09432170931307157 -0.12081187344657784
28 -0.10623459146321461 -0.06918194022064572 -0.11722634504293365
4 0.09020987842928686 0.22832594274531157 -0.08115526884488033
1 -0.17148943515356185 0.3521026123905926 0.04017667137850911
3 -0.054115228953344106 0.29730292910570605 0.2812508993112721
2 -0.27494193658604216 0.04818275085860074 0.16345951950235485
30 0.3398171091236474 0.02501692876073528 0.10092036262929258
29 0.1863699951090028 -0.006416675302574202 0.03602611370236136
31 0.3187159418746615 0.22459970847535574 0.3294048143028889
38 -0.2841346394728662 -0.18572479708275005 -0.032406337766276584
39 -0.14997177098464287 -0.07426212285285028 0.328386188863339
40 -0.11310769637199326 -0.4136588764333401 -0.06873477471777978
26 0.019970927147241673 -0.09635787751402913 0.13641526267848525
8 -0.10029140430790917 0.207856502097546 -0.33546087592256524
14 0.24482904833874303 0.11544069004194701 -0.009819970418041186
13 0.005245182305256956 -0.4280907644439014 -0.14371146454847036
12 0.3777061294617933 0.07560611850348704 -0.11563689559857318
11 0.13358556367985264 -0.1792336719862842 0.3173948244738284
15 -0.25407636032561737 0.013012036793464481 -0.08782713028071665
37 -0.02248794986068731 0.10549777533980137 -0.024594472646241282
36 -0.40101138424441307 -0.06894445785768323 0.26333122878486703
35 0.24726119453256074 -0.14128602226417658 -0.060129708019983324
17 -0.2971602528736553 -0.21155960381895175 -0.4289888743824534
20 0.030481147939675372 0.1485292339701226 -0.05504731784758421
18 -0.30160942264519325 -0.5140249975512021 -0.031618471020912337
16 0.24724684598113345 -0.14145241288286184 -0.21509259188028257
19 -0.21497117055410309 0.1470812489749347 -0.21811755632964708
25 0.16593140849832766 -0.08632121474520263 0.2790330639008292
22 -0.3985646657669096 0.009301482558145537 0.04851758920987442
24 0.15354568305678465 0.024783409663064082 -0.11177148509675996
21 0.018601066630369686 0.3894871284485691 -0.2614097759981775
23 0.06440356412371633 0.16487766947010596 0.30697847393666294
7 0.14476645561167106 0.15974314811251206 0.10530126686576395

Bonds

1 1 32 33
2 1 32 34
3 1 6 7
4 1 6 8
5 1 6 9
6 1 6 10
7 1 1 2
8 1 1 3
9 1 1 4
10 1 1 5
11 1 29 30
12 1 29 31
13 1 38 39
14 1 38 40
15 1 26 27
16 1 26 28
17 1 11 12
18 1 11 13
19 1 11 14
20 1 11 15
21 1 35 36
22 1 35 37
23 1 16 17
24 1 16 18
25 1 16 19
26 1 16 20
27 1 21 22
28 1 21 23
29 1 21 24
30 1 21 25

Angles

1 1 33 32 34
2 2 7 6 8
3 2 7 6 9
4 2 7 6 10
5 2 8 6 9
6 2 8 6 10
7 2 9 6 10
8 2 2 1 3
9 2 2 1 4
10 2 2 1 5
11 2 3 1 4
12 2 3 1 5
13 2 4 1 5
14 1 30 29 31
15 1 39 38 40
16 1 27 26 28
17 2 12 11 13
18 2 12 11 14
19 2 12 11 15
20 2 13 11 14
21 2 13 11 15
22 2 14 11 15
23 1 36 35 37
24 2 17 16 18
25 2 17 16 19
26 2 17 16 20
27 2 18 16 19
28 2 18 16 20
29 2 19 16 20
30 2 22 21 23
31 2 22 21 24
32 2 22 21 25
33 2 23 21 24
34 2 23 21 25
35 2 24 21 25
