LAMMPS data file via write_data, version 4 Feb 2025, timestep = 1000, units = lj

91 atoms
4 atom types
68 bonds
1 bond types
78 angles
2 angle types

-3 3 xlo xhi
-3 3 ylo yhi
-3 3 zlo zhi
0 0 0 xy xz yz

Masses

1 1
2 1
3 0.1
4 0.1

Bond Coeffs # harmonic/omp

1 100 0.45

Angle Coeffs # harmonic/omp

1 100 180
2 100 109.471

Atoms # full

56 12 2 0 0.5816512202289101 -2.661069528629861 -2.186995574311119 0 0 0
58 12 4 0 0.19712521975901431 -2.3924800116180545 -2.2126144131427035 0 0 0
57 12 4 0 0.9544699002100949 -2.934553620470557 -2.1622489817619353 0 0 0
24 5 3 0 2.674104946046956 -2.964065003367048 -2.4240195766395107 1 1 0
10 2 3 0 1.0919492984160435 -1.03175811872872 -2.709789099679999 0 0 0
7 2 3 0 1.2725527695319272 -0.35409232599106666 -2.957323339993672 0 0 0
61 13 4 0 -0.11602401805722806 -2.0485629555413416 -1.3847160395951275 0 0 0
59 13 2 0 0.010562661680565189 -1.8388931049997552 -1.0060816969014263 0 0 0
3 1 3 0 -2.802708840636581 -1.0054849489527493 -0.06089774634657097 1 0 0
64 14 4 0 -1.778668871370225 -1.8218735565931121 -0.04211429522179433 1 0 0
60 13 4 0 0.14267139904305548 -1.6258432282696358 -0.6227756465075522 0 0 0
5 1 3 0 -2.452350471743642 -0.5646035832438834 -0.559063594503372 1 0 0
1 1 1 0 -2.7066587863533926 -0.5630581334910962 -0.17489649806444074 1 0 0
4 1 3 0 2.8981460848398797 -0.34657106750289834 -0.24823922116281505 0 0 0
33 7 3 0 2.5989776377688507 -0.20648865287436458 -0.6329659884650454 0 0 0
62 14 2 0 -2.0817032172680188 -1.548515469029614 0.21778851011868028 1 0 0
63 14 4 0 -2.3632811242364293 -1.2865708620024214 0.4607241267851716 1 0 0
68 16 2 0 1.6127061956963047 -1.196808144353864 0.66843167958955 0 0 0
69 16 4 0 1.8434845098107262 -1.1892342193263774 0.3000623031227345 0 0 0
2 1 3 0 -2.479979651400009 -0.36893136197014176 0.1488047938739303 1 0 0
14 3 3 0 0.9727984303291368 -0.1829775852025035 0.44212349362873704 0 0 0
11 3 1 0 1.0894913240010649 -0.28358345715411026 0.8732559680886727 0 0 0
13 3 3 0 1.470041358052912 -0.5254942584515456 0.8742274719463721 0 0 0
71 17 2 0 -2.8514215600033457 -2.5921286043965583 1.2997414427228637 1 0 0
73 17 4 0 -2.5230399220562623 -2.434082112911073 1.5747319067651446 1 0 0
72 17 4 0 2.813637873326872 -2.752619951765376 1.0277151684235637 0 0 0
70 16 4 0 1.3672709966825227 -1.200917185725893 1.056071730889248 0 0 0
77 19 2 0 -1.7864364023996053 -0.23506463279632062 1.2230093676381113 1 0 0
78 19 4 0 -1.9926141772828303 -0.5956706790087578 1.4139479555787133 1 0 0
12 3 3 0 0.7703151400433503 -0.5115445196917596 1.0743764220920502 0 0 0
81 20 4 0 -1.7217679258842253 -2.0985764570879963 2.4417024107214482 1 0 0
66 15 4 0 0.8839449629595784 -2.90703527082701 2.6898771174979714 0 0 0
65 15 2 0 0.4405852731499973 -2.9715601735368113 2.5459191803845815 0 0 0
80 20 2 0 -1.5844798264735016 -1.7088084259058574 2.6084932082394268 1 0 0
82 20 4 0 -1.4351764694035405 -1.2757647532582022 2.7907977345831885 1 0 0
76 18 4 0 -1.5123150134377745 -0.45228028650154606 2.5553922538187397 1 0 0
74 18 2 0 -1.1343355839980178 -0.6707983629782586 2.444543467223406 1 0 0
75 18 4 0 -0.7606958639339556 -0.890460385868221 2.3330801007433735 1 0 0
8 2 3 0 1.086235853470681 -0.871281396433659 2.539303321586459 0 0 -1
9 2 3 0 1.718041721439647 -0.907975604321984 2.924685555904502 0 0 -1
6 2 1 0 1.2987571417891548 -0.7897274508107017 2.9547417627364787 0 0 -1
37 8 3 0 -2.3874976692750542 1.074964387720799 -2.080335019759202 1 0 0
40 8 3 0 -2.383134518922932 1.6777967053380651 -2.4909594051032897 1 0 0
36 8 1 0 -2.4688097717058612 1.5124083790980514 -2.089196553759001 1 0 0
23 5 3 0 2.336136304041684 2.4860570281453827 -2.024850056337668 1 0 0
21 5 1 0 2.7387022642538987 2.640435542857772 -2.1629957786121494 1 0 0
25 5 3 0 2.9401160793739045 2.3171007511581916 -2.425509935477341 1 0 0
85 21 4 0 -1.1709652061212554 0.8038856797914367 -1.071457217849064 1 0 0
83 21 2 0 -0.7520969788562857 0.8145022154767263 -1.2895362228764045 1 0 0
84 21 4 0 -0.3343739470243463 0.8275134887769648 -1.5102787114278475 1 0 0
18 4 3 0 0.8895298859071783 0.840101364380414 -1.165324305622766 1 0 0
19 4 3 0 0.4467209686418929 0.4631512763742469 -1.6071139162046983 1 0 0
16 4 1 0 0.8390657472446228 0.44876674404615313 -1.3604252905891752 1 0 0
20 4 3 0 0.804747418060221 0.1159275594593292 -1.0472995519259494 1 0 0
17 4 3 0 1.1999469151221582 0.35936875702474946 -1.644988702308976 1 0 0
34 7 3 0 2.467690970887377 0.2544981394716972 -1.1779224448345558 0 0 0
38 8 3 0 -2.9131954720560165 1.590457708667909 -1.9828940698299102 1 0 0
39 8 3 0 -2.204320937364942 1.7235906502272815 -1.7827570285705254 1 0 0
22 5 3 0 2.982337511087011 2.7272827385790297 -1.8133485247218946 1 0 0
35 7 3 0 -2.83953598764706 0.11346396345434862 -0.9979476019968776 1 0 0
31 7 1 0 2.735983319417005 0.17218821686040364 -0.8396643881724968 0 0 0
32 7 3 0 2.726592350375377 0.5133273196516397 -0.5412807995511937 0 0 0
55 11 3 0 2.159213766559125 1.0275323387409863 -0.12821123394686795 1 0 0
30 6 3 0 1.8008046536831372 2.7703438029907215 -0.5149539070599078 1 0 0
26 6 1 0 2.2405519529129965 2.6841823445116395 -0.5580652934892747 1 0 0
27 6 3 0 2.4651382813897493 2.8909564041734654 -0.23016608751978396 1 0 0
28 6 3 0 2.366975841775334 2.823021481697964 -0.9366582988593315 1 0 0
29 6 3 0 2.303884800604642 2.2236777092794764 -0.5300987820287322 1 0 0
53 11 3 0 2.2977483615683516 0.7669333209368459 0.5521080068252826 1 0 0
52 11 3 0 2.848534590932978 0.955282296121259 0.08295070046291553 1 0 0
51 11 1 0 2.4310738972201458 1.058573968643116 0.21711786637866526 1 0 0
54 11 3 0 2.424522837225032 1.4727750885418507 0.3745655134384016 1 0 0
88 22 4 0 -1.3074978618675823 0.8316704062990206 1.874816370911775 1 0 0
79 19 4 0 -1.5860610873228955 0.11117663722749915 1.0430135182110618 1 0 0
49 10 3 0 0.9144140454838872 0.9893129995028511 1.6631690465182434 1 0 0
91 23 4 0 1.6632270456022686 0.7941433152078976 1.737107479655915 1 0 0
15 3 3 0 1.161572928922837 0.09128913118930182 1.0909540272016454 0 0 0
48 10 3 0 0.6350988901056849 1.6746120663351594 1.4984810141872913 1 0 0
46 10 1 0 0.8343273376457052 1.438762595255982 1.8135928676418853 1 0 0
47 10 3 0 1.23982999697804 1.6434713299590298 1.9313183282572393 1 0 0
44 9 3 0 0.7186856466175269 2.5278825965348055 1.1375201749264523 1 0 0
42 9 3 0 0.9213667293582728 2.805370588705257 1.812079368526783 1 0 0
43 9 3 0 0.2229401217714848 2.51700895130538 1.6922008301552598 1 0 0
41 9 1 0 0.6632276852737804 2.4701842149431608 1.588651547510267 1 0 0
45 9 3 0 0.8106565814358926 2.0362285043027075 1.7182623774774903 1 0 0
89 23 2 0 1.7610944205331975 0.9978295954203977 2.148087479232334 1 0 0
86 22 2 0 -1.5280889803106552 1.036196164784668 2.2172490470863533 1 0 0
87 22 4 0 -1.7497941847427985 1.2320873680254047 2.5395833559434573 1 0 0
50 10 3 0 0.5583911362348832 1.4210950664354964 2.175211426201324 1 0 0
90 23 4 0 1.8517291544822054 1.1836817208830013 2.5372384766140996 1 0 0
67 15 4 0 0.0026573467231565395 2.96151930720756 2.406338875071004 0 -1 0

Velocities

56 0.7448568794431351 -0.13468260734869908 0.35442868600549365
58 0.8196210527476991 -1.6490489375889779 -0.464540123233012
57 0.3362373939111257 1.478569017658295 0.7516674139306961
24 2.732856589590306 0.5184782856771238 0.9643312262465962
10 0.7463107837558411 1.9428827233127868 -0.479355502134169
7 2.419894070140689 -0.621570465387237 0.45710135675742614
61 2.1398079319095107 0.8626948999230041 1.7028063076565878
59 0.5834501494483486 -0.045856997777652245 0.05715542376445193
3 2.500266344223713 0.34426206397331355 0.18859996204981488
64 -0.5753416786157319 0.21496139671982167 0.9305781282716669
60 0.7845826171414149 -0.3718339644419928 -1.0301869426570125
5 0.8268412098093716 1.3512243882919392 0.8535282837153424
1 1.6693537190419014 0.444181033707157 0.16059725667060423
4 1.5271897545645947 0.08493277612067755 0.3192822611817891
33 1.4688574923703395 0.16292126149734662 1.063754963826161
62 0.40583631880076787 -0.03930245265575399 -0.07668445865121733
63 1.0694248988958948 0.5981748214070304 -0.9047072891180801
68 1.0564402746514985 -0.3687538192359041 0.049239744500922486
69 0.45992502253751777 -1.7020333492779047 0.31638829968300475
2 1.8439021537383544 -0.4450260128021222 -0.949981924829427
14 1.1742532544773274 1.1987304154967178 -0.17838698840684752
11 1.211884031266 0.49915745039123754 0.24703038967860425
13 1.9954413928233035 0.7107026156130198 -0.1712629362649672
71 0.5062398560397268 -0.08733602050394768 -0.06945900466837404
73 -0.2842660948111758 0.12280125656491127 -0.007611368207059885
72 0.9390955178656359 0.7187874705323475 0.7300622582535674
70 2.718035016293112 0.49237535373438956 -1.1512469033761328
77 1.5916689651640712 0.12884742253609247 -0.49181585567001457
78 1.5813443856236038 2.5393010966380865 -0.40604872455006913
12 2.3163720475513823 -0.3623446631682481 -1.2591216844148891
81 1.2029705965173243 2.122737607592049 -0.7168058876770538
66 -1.2158240143901087 0.381802055556426 -0.006118376044475774
65 0.04263821678036484 -0.38866392455260207 -0.014700453858927646
80 1.2467927895560642 -0.020877562951107903 0.12733650495472856
82 0.11078165005686524 -1.777201585654021 0.2681341504502762
76 3.5174225047410412 -0.003127695903645555 -0.8431260298738595
74 1.625754042201371 -0.5346996616196406 -0.3505256512934731
75 0.010448006447333125 -0.7379796668014903 1.0061358029012568
8 1.1533611689663497 0.20481742244940987 0.11238397343628123
9 1.3845301597056112 -0.38388237292216526 0.6677456803683137
6 1.7416490481765308 -0.06882390814763432 0.0007127780017135901
37 3.1711197047001476 -1.1609645283698509 0.8488810561640687
40 2.2133338412724775 0.08594496577191146 0.8378498808655703
36 2.4009535646034688 0.03799790474513225 0.23145162802118174
23 4.3465139692233645 0.8948844450403322 0.7758261281329092
21 3.1326106140249017 0.0407188642578829 -0.16022909250273892
25 4.786983547232694 0.39570521401859027 -0.07518959078642276
85 4.364816571216021 -0.5725708601830708 -0.5831384121580866
83 2.46850831206109 -0.04202424715129716 0.22973375493821724
84 0.8704975791355163 0.4586207323034231 0.16489157698912066
18 2.1103530370629344 -0.656601379977613 1.028393035267067
19 3.028896273508964 0.12299090578860243 -0.33015506707163655
16 2.139550871287126 0.21818265144758117 -0.10517371216427973
20 2.713458598641284 -0.13231504151631096 0.21088092282403792
17 2.3116841662827445 -0.2814840791984153 -0.048334371048531694
34 1.612972814017583 -0.30411328235192453 -0.9669228356045223
38 3.5410960404262495 0.5393051173511677 0.08369192724573961
39 1.932329333561288 -0.9163791137008498 0.9262132363046941
22 3.7884478489575413 0.3237208200486384 -0.9548160183550398
35 2.9003616767085463 0.35670577182214686 0.6854549791397225
31 2.020306570047364 -0.08305723119145553 -0.04199280859045348
32 1.409847545899669 -0.3047283250694669 0.3141739774718494
55 3.1976800285983953 -0.26611959053693884 0.5446955250678892
30 3.9038419172866385 -1.6127907283781115 -0.5684541514177468
26 3.613577753868113 -0.2637270458704388 0.045347077718664294
27 2.1845066858635493 -0.641926140132607 -0.014713604239712172
28 3.1256872007800145 1.1354095388993521 -0.05437230529192449
29 4.822998982653189 0.4875882725836983 -0.01906119721639106
53 2.6663396923639056 0.3854509312209116 -0.07911177973651679
52 1.8595182471857266 -0.19665599958058474 0.5981235633733972
51 2.4057748250527435 -0.04767864751393793 -0.14585614762431479
54 3.571846223784892 0.05568585555652315 -0.7664381213148369
88 2.879723495906576 -0.010136275489346185 1.0200616713644597
79 2.4285015749193724 -1.074568434330307 1.5927759637223977
49 3.2645726298508477 -0.4960680083718202 -0.2017994159365052
91 3.235109940946727 0.22353700500604454 1.8569811467519521
15 1.0407012386609602 0.9263631685577493 -0.153461934877951
48 3.863661564620858 0.7960130221872244 -0.4944953491621745
46 2.803470307831122 -0.21865725129273483 -0.5173313459927096
47 2.070829405574012 -1.0986784283448796 0.2115142771339934
44 3.3626835117078238 -0.3086556918281994 0.051727363836605644
42 3.0350079435029187 -1.253028027378571 -1.349531666297726
43 3.594689228876858 1.5598938135582028 0.0515407502993877
41 3.594382400057623 0.20389325462316651 0.3363768498696418
45 3.417008328401344 -0.0924656837920874 -0.29491726177303845
89 2.449704096018414 0.09297472884236993 -0.2500982533473137
86 2.413229047229814 -0.08811302873242512 -0.14022246906047975
87 3.3671210696239684 0.14509861568808058 -0.6499400911312905
50 2.7517886279651584 1.7490624144044011 0.047575031870664045
90 1.7279745062797547 -0.016180786469640926 -1.9897361356701788
67 1.2109558632812663 -0.6351553487627022 0.9519425903839899

Bonds

1 1 56 57
2 1 56 58
3 1 59 60
4 1 59 61
5 1 1 2
6 1 1 3
7 1 1 4
8 1 1 5
9 1 62 63
10 1 62 64
11 1 68 69
12 1 68 70
13 1 11 12
14 1 11 13
15 1 11 14
16 1 11 15
17 1 71 72
18 1 71 73
19 1 77 78
20 1 77 79
21 1 65 66
22 1 65 67
23 1 80 81
24 1 80 82
25 1 74 75
26 1 74 76
27 1 6 7
28 1 6 8
29 1 6 9
30 1 6 10
31 1 36 37
32 1 36 38
33 1 36 39
34 1 36 40
35 1 21 22
36 1 21 23
37 1 21 24
38 1 21 25
39 1 83 84
40 1 83 85
41 1 16 17
42 1 16 18
43 1 16 19
44 1 16 20
45 1 31 32
46 1 31 33
47 1 31 34
48 1 31 35
49 1 26 27
50 1 26 28
51 1 26 29
52 1 26 30
53 1 51 52
54 1 51 53
55 1 51 54
56 1 51 55
57 1 46 47
58 1 46 48
59 1 46 49
60 1 46 50
61 1 41 42
62 1 41 43
63 1 41 44
64 1 41 45
65 1 89 90
66 1 89 91
67 1 86 87
68 1 86 88

Angles

1 1 57 56 58
2 1 60 59 61
3 2 2 1 3
4 2 2 1 4
5 2 2 1 5
6 2 3 1 4
7 2 3 1 5
8 2 4 1 5
9 1 63 62 64
10 1 69 68 70
11 2 12 11 13
12 2 12 11 14
13 2 12 11 15
14 2 13 11 14
15 2 13 11 15
16 2 14 11 15
17 1 72 71 73
18 1 78 77 79
19 1 66 65 67
20 1 81 80 82
21 1 75 74 76
22 2 7 6 8
23 2 7 6 9
24 2 7 6 10
25 2 8 6 9
26 2 8 6 10
27 2 9 6 10
28 2 37 36 38
29 2 37 36 39
30 2 37 36 40
31 2 38 36 39
32 2 38 36 40
33 2 39 36 40
34 2 22 21 23
35 2 22 21 24
36 2 22 21 25
37 2 23 21 24
38 2 23 21 25
39 2 24 21 25
40 1 84 83 85
41 2 17 16 18
42 2 17 16 19
43 2 17 16 20
44 2 18 16 19
45 2 18 16 20
46 2 19 16 20
47 2 32 31 33
48 2 32 31 34
49 2 32 31 35
50 2 33 31 34
51 2 33 31 35
52 2 34 31 35
53 2 27 26 28
54 2 27 26 29
55 2 27 26 30
56 2 28 26 29
57 2 28 26 30
58 2 29 26 30
59 2 52 51 53
60 2 52 51 54
61 2 52 51 55
62 2 53 51 54
63 2 53 51 55
64 2 54 51 55
65 2 47 46 48
66 2 47 46 49
67 2 47 46 50
68 2 48 46 49
69 2 48 46 50
70 2 49 46 50
71 2 42 41 43
72 2 42 41 44
73 2 42 41 45
74 2 43 41 44
75 2 43 41 45
76 2 44 41 45
77 1 90 89 91
78 1 87 86 88
