ITEM: TIMESTEP
3390000
ITEM: NUMBER OF ATOMS
1600
ITEM: BOX BOUNDS pp pp pp
-6.9325799999999997e+00 6.9325799999999997e+00
-6.9325799999999997e+00 6.9325799999999997e+00
-6.9325799999999997e+00 6.9325799999999997e+00
ITEM: ATOMS id type xs ys zs
735 4 0.0328085 0.0435482 0.125442
700 4 0.247925 0.0328573 0.107373
467 2 0.303843 0.0805865 0.0847006
469 4 0.312445 0.0460247 0.0790502
75 3 0.297649 0.0226668 0.0859235
468 4 0.295241 0.115148 0.090351
74 3 0.2487 0.00304305 0.098876
113 3 0.379928 0.0676551 0.0843156
115 3 0.380825 0.104649 0.0445722
114 3 0.427344 0.0902096 0.0685797
112 3 0.401296 0.0556143 0.0359739
111 1 0.397238 0.0797621 0.0583594
726 4 0.400625 0.029649 0.0237171
1245 4 0.429703 0.113185 0.0857366
574 4 0.305261 0.128497 0.0679715
573 4 0.288252 0.193595 0.0419978
355 4 0.266339 0.204759 0.022053
572 2 0.296756 0.161046 0.0549846
1244 2 0.456968 0.134564 0.095734
1246 4 0.484234 0.155944 0.105731
1073 2 0.468736 0.248283 0.0318835
531 4 0.495475 0.208934 0.00707399
1074 4 0.474865 0.22824 0.00253825
489 4 0.0173826 0.261842 0.00904971
1007 2 0.0760528 0.334865 0.0291816
1008 4 0.110762 0.325997 0.0250541
972 4 0.0392267 0.349305 0.0620529
1009 4 0.0413431 0.343733 0.0333091
340 4 0.120121 0.322253 0.0509279
971 2 0.00327047 0.347118 0.0603774
338 2 0.148872 0.306847 0.0663047
339 4 0.177624 0.291441 0.0816815
393 4 0.178925 0.286911 0.111088
392 2 0.214277 0.289384 0.117764
1075 4 0.462607 0.268326 0.0612287
383 2 0.43061 0.259833 0.113913
384 4 0.451391 0.270564 0.086465
1082 2 0.452128 0.337912 0.00624552
1131 4 0.470176 0.359118 0.0548434
1123 4 0.490087 0.345083 0.038645
262 4 0.423437 0.37621 0.0149314
1042 4 0.127236 0.424497 0.0145499
67 3 0.132098 0.440059 0.0338484
66 1 0.156336 0.456389 0.0495499
327 4 0.183952 0.422567 0.0736553
69 3 0.163113 0.440663 0.0783026
326 2 0.191329 0.403384 0.103287
68 3 0.146074 0.487631 0.0557587
70 3 0.183095 0.456958 0.0305104
13 3 0.298468 0.420125 0.00466044
266 2 0.331381 0.487028 0.0983453
268 4 0.35882 0.495407 0.0764979
261 4 0.362221 0.414242 0.0121108
1132 4 0.440783 0.380054 0.11729
1130 2 0.455479 0.369586 0.0860665
1083 4 0.45265 0.373204 0.0136401
1443 4 0.371269 0.489829 0.0523373
260 2 0.392829 0.395226 0.0135211
654 4 0.036358 0.0411059 0.154684
653 2 0.0709754 0.037986 0.164294
655 4 0.105593 0.034866 0.173903
742 4 0.118185 0.00933608 0.163889
698 2 0.226294 0.0402971 0.135252
699 4 0.204664 0.0477368 0.163131
741 4 0.182876 0.0382067 0.177429
740 2 0.15053 0.0237714 0.170659
656 2 0.344449 0.00389602 0.204056
657 4 0.366833 0.0312475 0.196892
228 3 0.393602 0.0268799 0.189758
1375 4 0.46672 0.0428543 0.190045
229 3 0.44758 0.0197105 0.196038
964 4 0.447656 0.0621921 0.181939
230 3 0.428722 0.0557466 0.160057
226 1 0.42321 0.0266005 0.174163
962 2 0.457748 0.0957905 0.19029
310 4 0.382128 0.100774 0.226798
137 3 0.409534 0.0887542 0.232932
227 3 0.422802 0.00305391 0.150794
308 2 0.382368 0.123636 0.19891
1373 2 0.500091 0.0300936 0.194944
496 4 0.150326 0.144638 0.214938
494 2 0.173932 0.137661 0.241292
20 3 0.242037 0.243986 0.244536
19 3 0.288643 0.234785 0.218228
16 1 0.272879 0.233142 0.247703
309 4 0.382607 0.146498 0.171022
963 4 0.467839 0.129389 0.198641
1012 4 0.468516 0.149434 0.220112
1038 4 0.41586 0.230239 0.163714
1039 4 0.402998 0.160041 0.1533
1037 2 0.409429 0.19514 0.158507
1010 2 0.439747 0.168231 0.231042
1011 4 0.410978 0.187029 0.241973
385 4 0.409828 0.249102 0.141362
394 4 0.249629 0.291857 0.12444
414 4 0.277885 0.290555 0.13237
415 4 0.342357 0.320416 0.144759
413 2 0.310121 0.305485 0.138564
336 4 0.35844 0.345022 0.145762
273 4 0.437321 0.380609 0.146001
328 4 0.198706 0.384201 0.132919
390 4 0.251655 0.474936 0.129487
267 4 0.303941 0.47865 0.120193
389 2 0.253978 0.497005 0.157912
335 2 0.355562 0.376551 0.163027
674 2 0.314971 0.437888 0.205283
675 4 0.326675 0.419845 0.176336
337 4 0.352685 0.408079 0.180293
676 4 0.303267 0.455932 0.234229
274 4 0.494588 0.375681 0.189567
272 2 0.465954 0.378145 0.167784
1326 4 0.493801 0.470338 0.190561
885 4 0.478914 0.487455 0.170611
1128 4 0.115284 0.0437353 0.338474
1127 2 0.0869042 0.0616728 0.351636
1129 4 0.058524 0.0796104 0.364799
95 3 0.117529 0.0229081 0.319056
1031 2 0.225983 0.0742087 0.321506
1033 4 0.199701 0.0916118 0.339021
330 4 0.171567 0.089084 0.347275
329 2 0.150367 0.114918 0.333723
1032 4 0.252266 0.0568056 0.30399
417 4 0.26817 0.0411548 0.284704
416 2 0.295891 0.0280474 0.303683
418 4 0.323612 0.01494 0.322662
259 4 0.36231 0.104321 0.284562
748 4 0.35291 0.00623101 0.326344
140 3 0.375278 0.0815276 0.273819
138 3 0.421679 0.0533656 0.272157
275 2 0.439148 0.0916046 0.341694
277 4 0.434523 0.0943093 0.306033
139 3 0.422361 0.107238 0.282251
136 1 0.40702 0.082693 0.265453
397 4 0.0964959 0.217882 0.377263
395 2 0.107124 0.188282 0.359618
396 4 0.117753 0.158683 0.341973
495 4 0.197539 0.130683 0.267645
331 4 0.129168 0.140751 0.320171
751 4 0.223364 0.13723 0.28046
749 2 0.243112 0.16733 0.282563
17 3 0.272371 0.201559 0.257848
750 4 0.26286 0.19743 0.284666
257 2 0.359429 0.137993 0.297147
258 4 0.356549 0.171664 0.309733
711 4 0.358872 0.199483 0.30898
710 2 0.334705 0.224704 0.30002
712 4 0.310538 0.249925 0.29106
1363 4 0.481946 0.203987 0.367395
1361 2 0.482829 0.222151 0.336254
1362 4 0.483712 0.240314 0.305114
18 3 0.289176 0.25154 0.270416
998 2 0.499016 0.299616 0.285272
999 4 0.4893 0.26672 0.296402
642 4 0.23827 0.496544 0.284986
643 4 0.300186 0.470579 0.258642
641 2 0.269228 0.483561 0.271814
660 4 0.492523 0.453218 0.375108
659 2 0.47525 0.483177 0.364883
879 4 0.0742118 0.101513 0.380681
878 2 0.0632822 0.122465 0.40792
443 2 0.224063 0.0832742 0.464625
444 4 0.196729 0.0808659 0.441226
445 4 0.251397 0.0856825 0.488024
429 4 0.276304 0.0982262 0.48726
276 4 0.443774 0.0888998 0.377355
926 2 0.450253 0.0999748 0.435547
928 4 0.4463 0.0804968 0.405457
927 4 0.454206 0.119453 0.465637
880 4 0.0523526 0.143417 0.43516
365 2 0.49013 0.165089 0.49193
367 4 0.472111 0.135689 0.481374
763 4 0.499459 0.258579 0.462726
244 3 0.460212 0.274645 0.4465
241 1 0.473102 0.293669 0.470829
242 3 0.477037 0.324547 0.459351
499 4 0.425332 0.305656 0.485314
243 3 0.452255 0.294428 0.496996
842 2 0.120691 0.462218 0.455011
1021 4 0.110061 0.480829 0.498974
844 4 0.105238 0.454183 0.486588
525 4 0.191639 0.475587 0.462336
843 4 0.136143 0.470252 0.423434
1177 4 0.147319 0.496097 0.41511
1208 2 0.188995 0.421559 0.478746
1210 4 0.187423 0.448994 0.455394
1209 4 0.190567 0.394125 0.502098
263 2 0.48605 0.49575 0.500024
400 4 0.496008 0.424941 0.365882
264 4 0.472596 0.462449 0.503254
717 4 0.0529261 0.0433227 0.58581
716 2 0.0721047 0.0139757 0.594258
990 4 0.0485274 0.0723423 0.584085
989 2 0.0695085 0.101234 0.579035
52 3 0.281568 0.103006 0.601022
428 2 0.273366 0.119041 0.516561
561 4 0.341084 0.0347846 0.622796
562 4 0.291372 0.0870344 0.623443
560 2 0.316228 0.0609095 0.62312
991 4 0.0904895 0.130126 0.573985
1372 4 0.113183 0.146125 0.571544
1370 2 0.128405 0.178783 0.570059
1371 4 0.143627 0.211441 0.568574
9 3 0.12945 0.225941 0.587113
430 4 0.270428 0.139855 0.545862
55 3 0.285971 0.147405 0.570909
51 1 0.281844 0.136179 0.601499
470 2 0.316633 0.220427 0.559166
472 4 0.332917 0.189353 0.567515
903 4 0.325006 0.18046 0.594522
54 3 0.307042 0.146509 0.62095
902 2 0.344168 0.183716 0.624898
53 3 0.252696 0.147064 0.613822
377 2 0.0895843 0.296823 0.543161
379 4 0.0702131 0.323373 0.528319
401 2 0.047044 0.359375 0.511231
378 4 0.108955 0.270273 0.558003
402 4 0.0802969 0.345695 0.513977
403 4 0.013791 0.373055 0.508484
6 1 0.146755 0.254346 0.590806
7 3 0.178347 0.248842 0.582298
8 3 0.134155 0.278076 0.570854
934 4 0.21125 0.318027 0.550991
932 2 0.199835 0.342253 0.526841
933 4 0.18842 0.36648 0.502691
10 3 0.145544 0.264218 0.62211
471 4 0.300349 0.251501 0.550816
4 3 0.309576 0.272546 0.53531
1 1 0.324908 0.301275 0.543028
3 3 0.302758 0.323064 0.55546
5 3 0.348707 0.295733 0.564976
2 3 0.338224 0.314067 0.515464
523 4 0.338099 0.361331 0.618732
521 2 0.369599 0.358373 0.601428
498 4 0.364159 0.307402 0.523479
1146 4 0.424581 0.263393 0.62282
1147 4 0.374816 0.288225 0.5769
497 2 0.394745 0.306529 0.504396
1145 2 0.399699 0.275809 0.59986
522 4 0.4011 0.355415 0.584124
301 4 0.0151305 0.38674 0.533853
280 4 0.200392 0.47102 0.604373
297 4 0.457407 0.444213 0.520735
296 2 0.465899 0.434895 0.554521
543 4 0.46891 0.439552 0.613687
298 4 0.474391 0.425576 0.588307
538 4 0.0251599 0.0251991 0.70519
536 2 0.0539362 0.00715229 0.693079
426 4 0.998769 0.0300048 0.663215
421 4 0.184715 0.0542516 0.697721
420 4 0.220768 0.0809232 0.641236
419 2 0.202741 0.0675874 0.669479
689 2 0.139995 0.0125319 0.687306
690 4 0.171013 0.0306412 0.684087
493 4 0.373266 0.118153 0.686978
27 3 0.478122 0.0662427 0.6337
505 4 0.392268 0.0942814 0.688572
503 2 0.402448 0.076906 0.718487
504 4 0.412629 0.0595307 0.748401
506 2 0.0139389 0.16869 0.742886
507 4 0.00429872 0.16928 0.708142
535 4 0.185783 0.205292 0.634826
533 2 0.2176 0.188785 0.630863
438 4 0.24162 0.244186 0.701902
534 4 0.249416 0.172279 0.626901
904 4 0.36333 0.186972 0.655273
492 4 0.360424 0.181269 0.719431
491 2 0.366845 0.149711 0.703204
295 4 0.438128 0.247889 0.642866
293 2 0.4701 0.234729 0.653116
294 4 0.502071 0.221568 0.663366
105 3 0.379527 0.190755 0.738944
1170 4 0.446134 0.207854 0.735142
576 4 0.156712 0.27962 0.642443
1085 2 0.160141 0.340111 0.745152
1086 4 0.15876 0.317992 0.716704
577 4 0.143205 0.330345 0.691902
575 2 0.149958 0.304982 0.667173
558 4 0.216166 0.250347 0.714358
557 2 0.184689 0.257684 0.730352
559 4 0.153212 0.265021 0.746347
437 2 0.265828 0.270306 0.707573
439 4 0.290037 0.296425 0.713244
435 4 0.302274 0.317256 0.727396
434 2 0.302236 0.34895 0.744598
278 2 0.221708 0.481335 0.631569
1321 4 0.249033 0.484825 0.725824
279 4 0.243025 0.49165 0.658766
542 2 0.483627 0.467473 0.631131
62 3 0.147525 0.0267118 0.748978
65 3 0.193982 1.9697e-05 0.754136
61 1 0.165626 0.00739903 0.768979
63 3 0.171609 0.0239189 0.797461
271 4 0.197434 0.0359139 0.792526
269 2 0.200386 0.0685928 0.807487
270 4 0.203338 0.101272 0.822448
501 4 0.18574 0.103498 0.845456
442 4 0.208201 0.0153337 0.775866
440 2 0.243568 0.00830391 0.775419
1090 4 0.420111 0.049483 0.836446
1088 2 0.408927 0.0156278 0.841847
508 4 0.023579 0.1681 0.77763
931 4 0.0459843 0.166062 0.797745
929 2 0.062077 0.198175 0.800939
930 4 0.0781698 0.230289 0.804133
793 4 0.1093 0.248021 0.86007
895 4 0.120732 0.224488 0.846836
582 4 0.0846007 0.238814 0.776196
893 2 0.151748 0.224902 0.86523
324 4 0.364645 0.152518 0.861706
986 2 0.366922 0.243471 0.83221
104 3 0.431087 0.194075 0.755662
1169 2 0.474241 0.22156 0.753104
323 2 0.382331 0.146224 0.830916
325 4 0.400016 0.13993 0.800126
102 3 0.396252 0.160647 0.780311
101 1 0.399263 0.190023 0.765189
103 3 0.390602 0.214184 0.786665
988 4 0.391521 0.228651 0.810399
1233 4 0.452155 0.214622 0.864164
581 2 0.110303 0.262192 0.766538
38 3 0.00515773 0.354492 0.847048
476 2 0.102439 0.361084 0.796761
792 4 0.0727037 0.308925 0.847695
791 2 0.0910021 0.278473 0.853882
36 1 0.0377801 0.359435 0.841455
39 3 0.0545801 0.330819 0.845794
37 3 0.0418702 0.369632 0.81015
478 4 0.0685374 0.355353 0.807635
583 4 0.136006 0.28557 0.756881
1087 4 0.161522 0.36223 0.7736
477 4 0.136342 0.366815 0.785887
554 2 0.324676 0.304745 0.863624
555 4 0.335774 0.281761 0.838148
987 4 0.342324 0.25829 0.854021
1184 2 0.449177 0.339049 0.824092
1186 4 0.424326 0.34106 0.850146
1185 4 0.474028 0.337037 0.798038
40 3 0.0493025 0.382407 0.861909
858 4 0.0534114 0.500658 0.775505
567 4 0.0288657 0.49361 0.759918
566 2 0.00781843 0.488379 0.788729
422 2 0.154174 0.463059 0.83667
423 4 0.16613 0.429055 0.835572
424 4 0.142218 0.497063 0.837769
436 4 0.302197 0.380644 0.7618
253 4 0.311642 0.402564 0.77899
251 2 0.338954 0.420668 0.794048
252 4 0.366266 0.438772 0.809106
1124 2 0.415119 0.500019 0.843727
1179 4 0.458386 0.467208 0.761332
1178 2 0.444795 0.499309 0.752099
1125 4 0.449853 0.496516 0.852767
500 2 0.189587 0.119553 0.877516
838 4 0.267486 0.00975975 0.888518
50 3 0.343059 0.0168736 0.921061
46 1 0.314759 0.0333811 0.918732
47 3 0.293057 0.0154426 0.901184
48 3 0.319806 0.0625512 0.903125
910 4 0.33013 0.0867415 0.918304
908 2 0.350215 0.112471 0.902973
49 3 0.302148 0.038787 0.949255
1205 2 0.438869 0.0905129 0.91074
1589 2 0.394119 0.0164191 0.93362
1591 4 0.425821 0.0335967 0.934206
1206 4 0.438651 0.0568834 0.923758
894 4 0.182763 0.225316 0.883623
43 3 0.203523 0.204617 0.88996
41 1 0.223015 0.187434 0.911049
44 3 0.215188 0.154917 0.909918
502 4 0.193433 0.135608 0.909577
354 4 0.219303 0.211967 0.967854
45 3 0.219212 0.198819 0.941623
353 2 0.242821 0.208363 0.994954
909 4 0.3703 0.1382 0.887642
42 3 0.254672 0.191172 0.901856
1232 2 0.446134 0.183964 0.882171
1207 4 0.439088 0.124142 0.897723
1234 4 0.440112 0.153305 0.900177
673 4 0.0979557 0.325579 0.983298
739 4 0.127298 0.362128 0.909843
671 2 0.129462 0.315588 0.968876
672 4 0.160968 0.305597 0.954454
556 4 0.313577 0.327728 0.8891
322 4 0.324878 0.353885 0.89531
1084 4 0.451605 0.302621 0.998851
738 4 0.0678834 0.388423 0.878534
737 2 0.0975908 0.375276 0.894189
462 4 0.168258 0.376459 0.933967
463 4 0.240203 0.378099 0.929171
461 2 0.204231 0.377279 0.931569
1040 2 0.126923 0.402015 0.986356
1041 4 0.126609 0.379534 0.958161
14 3 0.312581 0.412709 0.952217
15 3 0.350192 0.425812 0.989131
320 2 0.315699 0.38549 0.910053
11 1 0.318902 0.430095 0.980105
1496 2 0.331824 0.492135 0.9255
1497 4 0.334796 0.47029 0.954037
12 3 0.313565 0.462287 0.974116
321 4 0.306521 0.417095 0.924796
913 4 0.00681367 0.566545 0.0259894
912 4 0.0697933 0.601687 0.0266122
911 2 0.0383035 0.584116 0.0263008
376 4 0.0282071 0.533613 0.117968
664 4 0.0804231 0.621688 0.00744949
312 4 0.0110543 0.510494 0.105566
517 4 0.20981 0.548061 0.0737471
516 4 0.15315 0.512864 0.0463136
515 2 0.18148 0.530462 0.0600304
292 4 0.225353 0.607182 0.0306165
631 4 0.231091 0.621537 0.0545797
1444 4 0.401349 0.555282 0.0487724
1442 2 0.386309 0.522556 0.0505548
732 4 0.406469 0.625539 0.0309128
753 4 0.426384 0.614138 0.0483946
662 2 0.0896312 0.654235 0.0199525
1502 2 0.0943523 0.736304 0.00776497
663 4 0.0988393 0.686783 0.0324556
1503 4 0.0912999 0.700376 0.00715825
290 2 0.197577 0.628422 0.0217969
291 4 0.1698 0.649662 0.0129774
629 2 0.25892 0.624468 0.0773268
630 4 0.286748 0.627399 0.100074
752 2 0.456767 0.631071 0.0579154
754 4 0.487149 0.648003 0.0674362
731 2 0.386293 0.629194 0.00124783
614 2 0.0237072 0.840666 0.119512
1504 4 0.0974047 0.772231 0.0083717
615 4 0.0198471 0.865881 0.0940219
851 2 0.140391 0.833944 0.108368
943 4 0.170486 0.824485 0.0521938
853 4 0.157538 0.832546 0.0766739
941 2 0.156947 0.852658 0.034209
1332 4 0.348155 0.832302 0.0256225
1331 2 0.335475 0.866032 0.0242306
693 4 0.373898 0.819358 0.0255041
869 2 0.468966 0.759032 0.0359573
871 4 0.442176 0.764095 0.0595608
694 4 0.433225 0.791535 0.0556349
692 2 0.403561 0.805446 0.0405695
870 4 0.495755 0.753969 0.0123539
605 2 0.0338235 0.888333 0.0459103
606 4 0.0357367 0.885498 0.0818094
553 4 0.0444623 0.985004 0.0435715
551 2 0.0731315 0.978353 0.0644109
483 4 0.018222 0.996552 0.0354985
482 2 0.0100107 0.968177 0.0148129
405 4 0.122607 0.976232 0.101493
607 4 0.0319103 0.891167 0.0100112
552 4 0.101801 0.971702 0.0852503
404 2 0.144132 0.949885 0.113449
406 4 0.165657 0.923538 0.125405
942 4 0.143408 0.88083 0.0162242
1333 4 0.322796 0.899763 0.0228387
715 4 0.333733 0.909528 0.047506
72 3 0.291514 0.97 0.0951939
714 4 0.322883 0.962654 0.0950632
713 2 0.328308 0.936091 0.0712846
73 3 0.270955 0.991856 0.0500487
71 1 0.277273 0.997136 0.0824855
849 4 0.504208 0.965015 0.10598
725 2 0.413462 0.997835 0.0126041
727 4 0.426299 0.966021 0.00149111
375 4 0.0656752 0.519516 0.177961
382 4 0.083386 0.499236 0.183516
380 2 0.119256 0.49695 0.186437
374 2 0.0469411 0.526565 0.147965
381 4 0.155127 0.494664 0.189357
368 2 0.330704 0.534845 0.215717
369 4 0.324434 0.52047 0.24819
370 4 0.336973 0.549219 0.183244
391 4 0.256302 0.519074 0.186338
627 4 0.282475 0.616935 0.12623
829 4 0.434468 0.617148 0.155408
827 2 0.399852 0.62641 0.15945
884 2 0.459322 0.512744 0.187258
886 4 0.439731 0.538032 0.203905
706 4 0.443376 0.543835 0.232213
586 4 0.00865618 0.674 0.155559
585 4 0.0340534 0.719512 0.205413
584 2 0.0213548 0.696756 0.180486
304 4 0.0559994 0.735409 0.216321
628 4 0.347266 0.645143 0.140663
828 4 0.365235 0.635672 0.163492
626 2 0.31487 0.631039 0.133447
1323 4 0.496932 0.713023 0.242186
852 4 0.123245 0.835342 0.140061
616 4 0.0275673 0.815452 0.145003
302 2 0.064712 0.764334 0.236017
87 3 0.0694658 0.846038 0.195971
90 3 0.119085 0.846542 0.216828
86 1 0.0870796 0.845125 0.224071
89 3 0.0802715 0.816594 0.240184
1069 4 0.0167056 0.799248 0.16743
88 3 0.0785019 0.871303 0.243072
1311 4 0.135261 0.824813 0.205694
1310 2 0.16038 0.799772 0.212206
1312 4 0.185498 0.77473 0.218718
345 4 0.202042 0.750935 0.211322
344 2 0.220501 0.750238 0.242293
580 4 0.0769782 0.900546 0.240926
578 2 0.0433771 0.912203 0.246885
315 4 0.282648 0.93884 0.143192
316 4 0.312205 0.949775 0.208065
314 2 0.297426 0.944308 0.175628
658 4 0.322066 0.976545 0.211219
848 2 0.475739 0.976803 0.124716
850 4 0.447271 0.988591 0.143452
899 2 0.150672 0.602876 0.338354
901 4 0.163336 0.575414 0.357998
703 4 0.302031 0.560487 0.300656
701 2 0.335802 0.561472 0.313263
687 4 0.284824 0.582894 0.304959
686 2 0.273934 0.61599 0.295657
702 4 0.369574 0.562458 0.325869
661 4 0.457977 0.513136 0.354658
1315 4 0.498489 0.565594 0.288322
705 4 0.476592 0.547897 0.296103
1566 4 0.380375 0.574556 0.348589
1565 2 0.40532 0.548703 0.35172
704 2 0.459984 0.545866 0.264158
1567 4 0.430266 0.522851 0.354851
1537 4 0.0115981 0.643326 0.365388
194 3 0.124937 0.74289 0.348268
1263 4 0.00749601 0.670855 0.372977
1387 4 0.114021 0.716238 0.341935
900 4 0.138007 0.630338 0.318709
1386 4 0.142931 0.650206 0.339547
1385 2 0.128476 0.683222 0.340741
811 4 0.248184 0.721671 0.273055
809 2 0.267907 0.691483 0.273467
810 4 0.28763 0.661296 0.273878
688 4 0.263044 0.649086 0.286355
1322 2 0.469449 0.713236 0.265533
1196 2 0.423059 0.691055 0.33708
1197 4 0.439162 0.715332 0.315825
1324 4 0.441965 0.71345 0.288879
1198 4 0.406956 0.666779 0.358336
1534 4 0.00765496 0.777793 0.362237
303 4 0.0734247 0.793258 0.255713
1533 4 0.0704647 0.760703 0.331179
195 3 0.0866453 0.78117 0.344107
1532 2 0.0390599 0.769248 0.346708
968 2 0.0560936 0.828881 0.298236
970 4 0.0591199 0.848053 0.328629
969 4 0.0530674 0.80971 0.267843
191 1 0.118596 0.774711 0.340072
182 3 0.0457155 0.853365 0.35396
346 4 0.23896 0.749541 0.273265
193 3 0.127451 0.780304 0.308288
192 3 0.136345 0.794611 0.359811
766 4 0.474674 0.866067 0.348103
1440 4 0.445477 0.86558 0.340587
764 2 0.499317 0.850518 0.369348
1439 2 0.422304 0.872199 0.313762
579 4 0.00977605 0.923861 0.252844
1030 4 0.0030294 0.938941 0.275513
92 3 0.0997049 0.972175 0.316628
877 4 0.107277 0.943501 0.321615
875 2 0.0824557 0.924649 0.339752
876 4 0.0576345 0.905797 0.357889
91 1 0.12672 0.991407 0.317637
93 3 0.144621 0.983501 0.344785
94 3 0.144859 0.986037 0.29003
529 4 0.282212 0.891863 0.33896
746 2 0.358343 0.980113 0.30208
549 4 0.341206 0.93727 0.27327
747 4 0.363777 0.953994 0.277816
548 2 0.366143 0.911986 0.266998
1441 4 0.39913 0.878817 0.286936
550 4 0.391079 0.886701 0.260727
1176 4 0.156533 0.560072 0.383108
1175 2 0.151926 0.528085 0.399109
524 2 0.208765 0.500773 0.481643
916 4 0.253538 0.527855 0.493354
595 4 0.276941 0.615759 0.502527
265 4 0.499504 0.529052 0.496795
1262 2 0.0364441 0.678994 0.392882
774 4 0.0698756 0.711306 0.425214
1264 4 0.0653923 0.687132 0.412787
773 2 0.0858999 0.719422 0.456483
775 4 0.101924 0.727539 0.487753
610 4 0.120564 0.748277 0.487074
602 2 0.342857 0.698163 0.485946
604 4 0.353016 0.71865 0.458063
600 4 0.368342 0.697966 0.444664
601 4 0.393024 0.667327 0.384217
24 3 0.407685 0.719859 0.464539
599 2 0.380683 0.682646 0.414441
21 1 0.433407 0.738085 0.475769
22 3 0.449783 0.720548 0.498681
185 3 0.0147191 0.859352 0.397558
183 3 0.0677984 0.849434 0.40331
181 1 0.0445321 0.865029 0.384996
1227 4 0.13949 0.799801 0.389179
1226 2 0.163812 0.826264 0.392116
1228 4 0.188133 0.852727 0.395053
35 3 0.21173 0.864027 0.407858
608 2 0.148202 0.77091 0.482138
609 4 0.175839 0.793544 0.477201
846 4 0.193429 0.8136 0.489892
23 3 0.454279 0.745129 0.450577
778 4 0.405923 0.789752 0.478535
25 3 0.422368 0.765909 0.489291
184 3 0.0506056 0.897934 0.384425
697 4 0.141513 0.983374 0.37227
32 3 0.22797 0.892714 0.45041
31 1 0.21494 0.894398 0.419946
696 4 0.180941 0.929549 0.399657
33 3 0.184971 0.909176 0.421799
1003 4 0.148667 0.967508 0.456423
34 3 0.235347 0.912358 0.400428
1001 2 0.15183 0.952383 0.489006
695 2 0.161227 0.956462 0.385963
527 2 0.283901 0.88651 0.374582
449 2 0.286679 0.891237 0.459148
448 4 0.351875 0.965803 0.477121
450 4 0.254933 0.896505 0.442873
451 4 0.318425 0.885969 0.475424
528 4 0.285591 0.881158 0.410204
917 2 0.474852 0.962482 0.455068
919 4 0.440973 0.950147 0.454349
386 2 0.0770478 0.583931 0.570542
388 4 0.0837811 0.557723 0.546704
1019 2 0.092252 0.507259 0.515847
1020 4 0.0744425 0.533689 0.532721
387 4 0.0703145 0.61014 0.594379
526 4 0.225892 0.525959 0.500951
915 4 0.27075 0.592506 0.520293
914 2 0.262144 0.560181 0.506824
790 4 0.402299 0.540483 0.577334
788 2 0.406055 0.551707 0.611398
757 4 0.0851056 0.625255 0.614211
603 4 0.332699 0.677675 0.51383
593 2 0.30334 0.635398 0.517288
594 4 0.329738 0.655037 0.532048
887 2 0.489489 0.671044 0.501738
889 4 0.469799 0.701132 0.504475
845 2 0.184969 0.84707 0.500316
1512 4 0.400417 0.847331 0.557328
777 4 0.398293 0.826114 0.540352
776 2 0.402108 0.807933 0.509444
1511 2 0.415529 0.840161 0.589276
1513 4 0.43064 0.83299 0.621224
1545 4 0.0993026 0.97079 0.626163
718 4 0.0912833 0.984629 0.602707
847 4 0.176509 0.880539 0.51074
1544 2 0.126596 0.952368 0.611461
117 3 0.178805 0.899273 0.532703
119 3 0.165873 0.950551 0.54461
116 1 0.176842 0.921552 0.557207
120 3 0.155947 0.910655 0.580088
1546 4 0.15389 0.933947 0.596759
118 3 0.207255 0.925668 0.570549
925 4 0.230835 0.926419 0.586358
1002 4 0.154992 0.937259 0.52159
923 2 0.264183 0.932336 0.573975
924 4 0.297531 0.938253 0.561592
1092 4 0.309438 0.935554 0.586829
1091 2 0.335303 0.945093 0.610076
446 2 0.369071 0.952433 0.505861
447 4 0.386267 0.939062 0.534601
859 4 0.0898911 0.539427 0.726843
813 4 0.103126 0.56449 0.724962
812 2 0.113827 0.594612 0.741654
1319 2 0.258453 0.509057 0.750814
1180 4 0.431204 0.53141 0.742865
1155 4 0.414944 0.536688 0.656468
789 4 0.409811 0.562932 0.645462
1154 2 0.416965 0.545824 0.691294
1156 4 0.418985 0.554961 0.72612
1120 4 0.502005 0.519064 0.630372
755 2 0.0928062 0.637398 0.647282
756 4 0.100507 0.649541 0.680353
597 4 0.111584 0.676199 0.685082
596 2 0.132619 0.667372 0.713012
598 4 0.153654 0.658546 0.740941
685 4 0.272334 0.728376 0.662456
891 4 0.274912 0.700321 0.65544
890 2 0.29236 0.690406 0.685402
892 4 0.309808 0.680491 0.715364
771 4 0.287157 0.681867 0.733892
866 2 0.235895 0.853164 0.69987
867 4 0.20673 0.838347 0.715047
612 4 0.178112 0.839876 0.7226
611 2 0.15437 0.859232 0.741629
683 2 0.271262 0.764355 0.66026
107 3 0.293978 0.866265 0.678759
684 4 0.27019 0.800334 0.658064
109 3 0.295225 0.814712 0.662049
106 1 0.313787 0.841906 0.668038
110 3 0.328803 0.851523 0.640454
108 3 0.336513 0.835246 0.691684
786 4 0.321275 0.827347 0.714332
868 4 0.26506 0.867981 0.684694
649 4 0.442397 0.850172 0.641853
647 2 0.478384 0.850264 0.639529
84 3 0.375974 0.853911 0.734409
1379 2 0.411867 0.806242 0.742419
1381 4 0.436137 0.78361 0.756532
1380 4 0.387597 0.828875 0.728306
691 4 0.108976 0.994423 0.690525
537 4 0.0827125 0.989105 0.680968
83 3 0.337845 0.891676 0.745568
1093 4 0.361168 0.954633 0.633323
823 4 0.352952 0.936445 0.655684
821 2 0.346234 0.921598 0.687854
822 4 0.339517 0.906752 0.720024
857 2 0.0716513 0.520043 0.751174
1521 4 0.00597387 0.58803 0.836412
545 2 0.101813 0.52674 0.86926
1520 2 0.0267082 0.568003 0.858078
547 4 0.133065 0.519735 0.852686
814 4 0.124527 0.624733 0.758346
1320 4 0.267872 0.53329 0.775804
906 4 0.268064 0.561408 0.777183
905 2 0.294522 0.570459 0.799954
207 3 0.321519 0.553443 0.835386
907 4 0.320979 0.579509 0.822725
206 1 0.349377 0.549254 0.852909
209 3 0.369432 0.528112 0.836455
210 3 0.364303 0.578278 0.856602
1273 4 0.358276 0.607244 0.855169
994 4 0.472292 0.518515 0.858221
1126 4 0.380385 0.503522 0.834688
1514 2 0.157293 0.647016 0.795145
1516 4 0.175237 0.644306 0.826307
1515 4 0.139348 0.649726 0.763982
770 2 0.287468 0.692413 0.768376
772 4 0.287778 0.702958 0.80286
640 4 0.281833 0.715826 0.827535
638 2 0.303168 0.699194 0.851381
1271 2 0.342914 0.633482 0.874559
639 4 0.324502 0.682561 0.875227
1561 4 0.461701 0.656144 0.832209
1559 2 0.462067 0.672262 0.864466
785 2 0.311895 0.817388 0.747698
787 4 0.302516 0.80743 0.781064
620 2 0.361229 0.835553 0.835325
621 4 0.368402 0.807668 0.857038
85 3 0.363131 0.865513 0.785881
622 4 0.354056 0.863437 0.813612
98 3 0.46679 0.789162 0.75743
100 3 0.503784 0.779211 0.795917
96 1 0.499282 0.784275 0.763778
798 4 0.108207 0.893727 0.773361
797 2 0.117363 0.928472 0.770302
613 4 0.130628 0.878588 0.760658
799 4 0.12652 0.963217 0.767244
64 3 0.148474 0.979391 0.775403
794 2 0.215872 0.919509 0.862403
795 4 0.230843 0.944484 0.84113
81 1 0.366654 0.877988 0.755701
837 4 0.255166 0.960676 0.83713
836 2 0.261326 0.985218 0.862824
854 2 0.351351 0.946783 0.83539
855 4 0.334356 0.915293 0.830919
441 4 0.278935 0.00127411 0.774972
856 4 0.368345 0.978273 0.839862
1089 4 0.397742 0.981773 0.847247
82 3 0.390079 0.901476 0.756252
1297 4 0.404684 0.926846 0.74991
1295 2 0.430557 0.928793 0.774954
1296 4 0.456431 0.930741 0.799998
1522 4 0.0474426 0.547975 0.879745
546 4 0.0705607 0.533745 0.885833
208 3 0.341512 0.536567 0.882861
1498 4 0.328853 0.513981 0.896962
873 4 0.0128538 0.736126 0.905078
733 4 0.366117 0.63285 0.971583
1272 4 0.327551 0.659721 0.893949
1406 2 0.495015 0.693834 0.936147
1560 4 0.462432 0.688379 0.896723
1407 4 0.462604 0.68413 0.923664
255 4 0.385942 0.729277 0.947773
1581 4 0.0687388 0.842462 0.951279
1593 4 0.0674297 0.869028 0.94238
1580 2 0.076289 0.811406 0.967981
1582 4 0.0838393 0.78035 0.984683
833 2 0.185183 0.850502 0.914628
835 4 0.161972 0.825293 0.925861
256 4 0.369039 0.797316 0.930838
729 4 0.379946 0.818821 0.912074
728 2 0.377826 0.850858 0.928493
254 2 0.377491 0.763297 0.939305
1592 2 0.0570369 0.891009 0.969011
1594 4 0.0466441 0.912991 0.995643
834 4 0.208395 0.875711 0.903395
796 4 0.200902 0.894534 0.883677
1590 4 0.362416 0.999241 0.933033
730 4 0.375705 0.882896 0.944911
808 4 0.366561 0.90087 0.968241
807 4 0.402507 0.960423 0.987297
806 2 0.384534 0.930647 0.977769
1445 2 0.581268 0.0305858 0.00416874
1377 4 0.793201 0.0195502 0.0360915
135 3 0.816409 0.0990659 0.0364963
1023 4 0.801708 0.102106 0.0609944
131 1 0.8112 0.0733057 0.0167958
133 3 0.801334 0.0469224 0.0348659
1348 4 0.86544 0.0486762 0.997417
1022 2 0.809991 0.122787 0.0893513
1346 2 0.89059 0.0321226 0.0172637
333 4 0.971044 0.0319475 0.0738583
332 2 0.971211 0.0661545 0.0624437
1347 4 0.91574 0.015569 0.0371105
334 4 0.971378 0.100361 0.0510291
1305 4 0.971965 0.00302381 0.0794003
161 1 0.531567 0.190541 0.11667
164 3 0.533886 0.219623 0.100274
165 3 0.555723 0.170391 0.107219
961 4 0.576566 0.189147 0.11636
959 2 0.612157 0.184431 0.112978
163 3 0.501857 0.176365 0.110643
1072 4 0.53371 0.245721 0.113238
590 2 0.698243 0.183892 0.0864757
591 4 0.721721 0.197052 0.0624746
936 4 0.714462 0.183353 0.0364489
935 2 0.723544 0.211281 0.0155212
960 4 0.647749 0.179714 0.109597
592 4 0.674766 0.170731 0.110477
1024 4 0.818275 0.143468 0.117708
667 4 0.968005 0.127986 0.0481691
665 2 0.973901 0.163437 0.0511562
666 4 0.979798 0.198887 0.0541434
490 4 0.986209 0.227347 0.0641858
488 2 0.00179556 0.244595 0.0366178
1070 2 0.551672 0.261121 0.0860228
1071 4 0.569633 0.276522 0.0588078
1121 2 0.525854 0.343528 0.0343184
166 1 0.609492 0.308111 0.0268718
168 3 0.602337 0.292711 0.0557088
1122 4 0.561622 0.341973 0.0299918
167 3 0.58575 0.330368 0.0204205
169 3 0.610471 0.285804 0.00194393
1053 4 0.744759 0.264627 0.000204204
170 3 0.638401 0.323517 0.0292668
1103 2 0.695538 0.341333 0.0480023
1105 4 0.665797 0.322198 0.0409483
1104 4 0.725279 0.360468 0.0550563
180 3 0.808065 0.325372 0.0516644
1050 4 0.802651 0.353715 0.0605333
1049 2 0.771296 0.370688 0.0551298
176 1 0.840624 0.321451 0.0498345
177 3 0.848315 0.307315 0.0208222
179 3 0.855833 0.3512 0.0517421
178 3 0.851151 0.301626 0.0746559
1048 4 0.863446 0.285036 0.0953941
1046 2 0.869418 0.257418 0.1178
1095 4 0.950174 0.334692 0.0386802
973 4 0.967314 0.34493 0.058702
1094 2 0.945915 0.342799 0.00380067
153 3 0.500872 0.494799 0.0557817
1065 4 0.603217 0.382131 0.101031
719 2 0.586253 0.434655 0.0824045
721 4 0.58503 0.405853 0.10407
720 4 0.587476 0.463457 0.0607392
152 3 0.551861 0.49178 0.0376305
1051 4 0.73994 0.387661 0.0497264
1064 2 0.633958 0.382347 0.119883
1063 4 0.805667 0.493891 0.0479661
306 4 0.950696 0.496934 0.0141304
356 2 0.914907 0.447105 0.123834
357 4 0.915505 0.481421 0.112766
313 4 0.943404 0.488846 0.11808
1200 4 0.931709 0.476913 0.00279248
311 2 0.977229 0.49967 0.111823
1374 4 0.533461 0.0173329 0.199842
1281 4 0.554008 0.00992385 0.181617
410 2 0.741521 0.026329 0.202531
1267 4 0.742041 0.083246 0.225458
1384 4 0.699454 0.121063 0.241928
411 4 0.731043 0.996753 0.184756
412 4 0.751998 0.055905 0.220305
1265 2 0.768422 0.107814 0.224499
1241 2 0.955146 0.0459793 0.221178
1243 4 0.948012 0.07652 0.203379
1510 4 0.939173 0.0887063 0.229138
736 4 0.963372 0.0313968 0.140697
1242 4 0.962279 0.0154387 0.238978
1508 2 0.945772 0.118738 0.24798
734 2 0.99809 0.0374725 0.133069
162 3 0.534279 0.196336 0.149224
341 2 0.521372 0.213576 0.195562
519 4 0.553811 0.209958 0.246701
518 2 0.588587 0.203972 0.239268
343 4 0.528449 0.214084 0.230919
342 4 0.514295 0.213068 0.160205
520 4 0.623363 0.197986 0.231835
1045 4 0.692047 0.141279 0.225721
1044 4 0.626407 0.170567 0.219771
1043 2 0.659227 0.155923 0.222746
1266 4 0.794803 0.132382 0.22354