ITEM: TIMESTEP
2350000
ITEM: NUMBER OF ATOMS
4590
ITEM: BOX BOUNDS pp pp pp
-9.9985700000000008e+00 9.9985700000000008e+00
-9.9985700000000008e+00 9.9985700000000008e+00
-9.9985700000000008e+00 9.9985700000000008e+00
ITEM: ATOMS id type xs ys zs
700 2 0.0454711 0.0623108 0.0634239
701 4 0.0267703 0.0659226 0.0472246
371 4 0.0102761 0.0780668 0.0430136
702 4 0.0641719 0.058699 0.0796231
1676 4 0.0757483 0.0062468 0.0244477
1037 4 0.127885 0.0344202 0.00573766
1036 2 0.145555 0.0365434 0.0233008
1038 4 0.163224 0.0386666 0.0408639
1675 2 0.0935578 0.0172825 0.0108017
423 4 0.180066 0.0418263 0.0533411
421 2 0.182664 0.0539711 0.075042
1476 4 0.294818 0.0129376 0.0396655
1474 2 0.292764 0.0114498 0.0147908
1254 4 0.300439 0.99685 0.0500382
1825 2 0.387213 0.0577479 0.0490166
1826 4 0.372874 0.0372831 0.0499001
168 3 0.386914 0.0241565 0.0575972
1827 4 0.401551 0.0782126 0.0481332
166 1 0.395565 0.00297331 0.053744
167 3 0.409324 0.00379644 0.0353278
2885 4 0.428535 0.00576039 0.0366369
2884 2 0.45342 0.0037184 0.0353096
4122 4 0.493942 0.997506 0.0458997
370 2 0.00175723 0.092872 0.0247539
372 4 0.993238 0.107677 0.00649432
3234 4 0.0891082 0.146978 0.029946
3233 4 0.119294 0.133098 0.0673206
3232 2 0.104201 0.140038 0.0486333
360 4 0.113826 0.12344 0.0839248
490 2 0.229574 0.135108 0.00244048
492 4 0.249141 0.144217 0.0150636
567 4 0.27331 0.0824276 0.0729388
55 3 0.25382 0.153875 0.0313393
565 2 0.266965 0.0875878 0.0493106
566 4 0.26062 0.092748 0.0256825
2163 4 0.269041 0.107464 0.0169687
54 3 0.28679 0.16257 0.0473074
758 4 0.412265 0.0952086 0.0524041
757 2 0.425736 0.107624 0.0353874
759 4 0.439207 0.120039 0.0183708
556 2 0.462099 0.15314 0.00153235
960 4 0.150293 0.228171 0.0526442
933 4 0.147522 0.232789 0.0712002
958 2 0.152332 0.216195 0.0307904
959 4 0.154372 0.204219 0.00893653
35 3 0.171456 0.211207 0.00425894
52 3 0.254735 0.165968 0.0666354
51 1 0.264284 0.168011 0.0458074
53 3 0.261898 0.18993 0.0385788
4210 2 0.271202 0.21576 0.0169801
4212 4 0.27693 0.193777 0.0274258
250 2 0.320374 0.191738 0.052883
251 4 0.299975 0.177813 0.0489872
4211 4 0.265474 0.237743 0.00653446
1134 4 0.249003 0.244179 0.997971
252 4 0.340773 0.205662 0.0567788
665 4 0.348179 0.212377 0.0746822
664 2 0.341128 0.233101 0.0867643
2722 2 0.480829 0.202902 0.0353997
2723 4 0.472885 0.179368 0.0325297
558 4 0.472065 0.162458 0.0224855
2724 4 0.488774 0.226435 0.0382697
455 4 0.0802502 0.335659 0.0615574
741 4 0.15879 0.308323 0.0711689
292 2 0.166982 0.325676 0.0247535
1290 4 0.187998 0.257397 0.0113583
740 4 0.20457 0.288205 0.0707439
739 2 0.18168 0.298264 0.0709564
1288 2 0.187982 0.280513 0.00182782
354 4 0.216881 0.278067 0.0802133
294 4 0.17629 0.309176 0.00843444
521 4 0.30499 0.307902 0.0735686
1305 4 0.331442 0.26916 0.00755082
387 4 0.284923 0.310023 0.0738515
323 4 0.389925 0.289107 0.0399784
322 2 0.390282 0.279393 0.0169413
1045 2 0.415648 0.270415 0.0736165
1046 4 0.436252 0.271567 0.0594987
454 2 0.0595928 0.348404 0.0675594
2873 4 0.0233776 0.367001 0.08519
2872 2 0.0124792 0.378882 0.0660786
456 4 0.0389354 0.361148 0.0735614
2874 4 0.0015807 0.390763 0.0469672
1102 2 0.115062 0.342617 0.0492299
1104 4 0.139245 0.336531 0.0473993
293 4 0.157675 0.342175 0.0410727
1103 4 0.0908798 0.348702 0.0510605
1095 4 0.337975 0.374954 0.0065877
1692 4 0.12918 0.477669 0.0392613
1690 2 0.111008 0.491331 0.0288543
271 2 0.313782 0.464111 0.0164921
783 4 0.271668 0.465716 0.0118657
272 4 0.289343 0.465664 0.0215385
2567 4 0.392822 0.451205 0.0321126
2566 2 0.367863 0.45143 0.0306233
2568 4 0.342905 0.451654 0.029134
273 4 0.338222 0.462558 0.0114458
2289 4 0.406821 0.465736 0.0322079
2287 2 0.421345 0.480933 0.0186701
3808 2 0.084489 0.0463579 0.144943
3810 4 0.0767715 0.0422636 0.168371
3809 4 0.0922065 0.0504523 0.121516
1231 2 0.157403 0.0739308 0.120674
1232 4 0.178823 0.0624158 0.11486
422 4 0.185263 0.0661158 0.096743
1022 4 0.355512 0.0750656 0.138745
295 2 0.479308 0.0701664 0.126423
1925 4 0.491647 0.0412221 0.0833717
297 4 0.500573 0.0618002 0.136571
2479 2 0.0119703 0.101426 0.157924
358 2 0.116987 0.111032 0.105401
359 4 0.120148 0.0986234 0.126877
1233 4 0.135984 0.0854457 0.126488
690 4 0.190632 0.140062 0.124711
249 4 0.187352 0.153923 0.110733
688 2 0.196729 0.135357 0.148499
1023 4 0.320766 0.109231 0.12751
1021 2 0.338139 0.092148 0.133128
582 4 0.376047 0.0829245 0.157292
580 2 0.388035 0.104851 0.158142
581 4 0.400023 0.126777 0.158993
296 4 0.458043 0.0785327 0.116274
765 4 0.445424 0.16361 0.0954425
2681 4 0.463275 0.161565 0.10342
555 4 0.015915 0.229107 0.163079
553 2 0.029574 0.235162 0.143031
554 4 0.043233 0.241218 0.122982
931 2 0.157198 0.223577 0.0923356
353 4 0.238454 0.23655 0.0978678
248 4 0.18006 0.202251 0.121317
247 2 0.183706 0.178087 0.116025
932 4 0.166873 0.214365 0.113471
630 4 0.416409 0.179588 0.139286
764 4 0.407109 0.165817 0.127501
628 2 0.420389 0.188457 0.162323
763 2 0.426266 0.164713 0.111472
2680 2 0.478543 0.178174 0.0926391
2682 4 0.493811 0.194783 0.0818586
299 4 0.0409417 0.257281 0.111464
298 2 0.0495584 0.280317 0.115964
300 4 0.0581751 0.303354 0.120463
363 4 0.0682856 0.303551 0.137504
244 2 0.150476 0.307524 0.113912
246 4 0.143567 0.30236 0.137381
361 2 0.0914205 0.312947 0.138797
362 4 0.114555 0.322342 0.140091
245 4 0.157386 0.312687 0.0904431
738 4 0.125687 0.337362 0.134165
352 2 0.227668 0.257308 0.0890406
520 2 0.318583 0.290762 0.0856763
385 2 0.269332 0.318437 0.0914958
355 2 0.288694 0.285256 0.151622
356 4 0.29514 0.265428 0.13782
386 4 0.253741 0.32685 0.10914
338 4 0.257036 0.331842 0.127701
357 4 0.282248 0.305084 0.165424
666 4 0.334078 0.253825 0.0988465
522 4 0.332177 0.273621 0.097784
1047 4 0.395043 0.269262 0.0877343
659 4 0.397256 0.287858 0.0961032
658 2 0.385595 0.30603 0.108712
660 4 0.373935 0.324202 0.121321
1776 4 0.0654562 0.395835 0.138621
736 2 0.13257 0.353719 0.15178
646 2 0.151782 0.40566 0.150796
737 4 0.139454 0.370075 0.169395
647 4 0.147325 0.381365 0.15468
337 2 0.258831 0.341299 0.150777
303 4 0.352651 0.388681 0.119362
301 2 0.362092 0.365634 0.121572
302 4 0.371533 0.342587 0.123782
497 4 0.368166 0.402272 0.124426
496 2 0.389755 0.414523 0.12743
1774 2 0.0577374 0.419552 0.140371
1775 4 0.0500186 0.44327 0.142121
313 2 0.0120352 0.494052 0.150215
2618 4 0.0527927 0.443737 0.16348
315 4 0.0114133 0.496521 0.125341
537 4 0.108298 0.454117 0.105087
648 4 0.156239 0.429955 0.146913
536 4 0.140667 0.440381 0.140644
535 2 0.124483 0.447249 0.122866
915 4 0.248459 0.450111 0.0839191
914 4 0.216243 0.431886 0.117546
913 2 0.232351 0.440998 0.100732
525 4 0.216984 0.444387 0.134733
523 2 0.218183 0.435646 0.158128
756 4 0.265477 0.459621 0.0846852
754 2 0.278135 0.474387 0.1004
755 4 0.290793 0.489152 0.116114
1575 4 0.290872 0.49317 0.137171
498 4 0.411343 0.426774 0.130434
543 4 0.429242 0.422787 0.138418
493 2 0.490321 0.474335 0.147198
494 4 0.483332 0.492794 0.162547
541 2 0.428908 0.438204 0.1581
591 4 0.068664 0.0308417 0.183149
589 2 0.0595879 0.0259624 0.20593
590 4 0.0505118 0.0210832 0.228712
675 4 0.0648587 0.0418016 0.251613
673 2 0.0894869 0.037493 0.251355
285 4 0.116749 0.0143917 0.248981
674 4 0.114115 0.0331844 0.251096
1506 4 0.225832 0.00536477 0.184332
1504 2 0.245505 0.0207519 0.183169
1505 4 0.265179 0.0361391 0.182006
461 4 0.268419 0.0545763 0.187914
460 2 0.277688 0.0756602 0.17818
1540 2 0.389155 0.0108065 0.227621
1541 4 0.375552 0.0263235 0.241741
743 4 0.436969 0.0117141 0.204779
742 2 0.44135 0.0358006 0.199696
744 4 0.44573 0.0598871 0.194613
1760 4 0.453421 0.0710176 0.209144
579 4 0.0529187 0.0962944 0.163981
577 2 0.0746313 0.102168 0.1749
2480 4 0.0336479 0.100326 0.170336
578 4 0.0963439 0.108043 0.18582
617 4 0.0863844 0.154789 0.225597
689 4 0.202825 0.130653 0.172287
1700 4 0.190495 0.147054 0.175776
1699 2 0.182303 0.150623 0.199128
1701 4 0.174111 0.154192 0.22248
462 4 0.286957 0.0967441 0.168446
2768 4 0.300606 0.102185 0.180759
2767 2 0.324025 0.100882 0.18942
528 4 0.308604 0.162478 0.183938
2769 4 0.347444 0.0995792 0.198082
333 4 0.363132 0.112114 0.201686
331 2 0.38507 0.114099 0.213516
332 4 0.407009 0.116084 0.225346
1759 2 0.435861 0.0887187 0.211017
1761 4 0.418301 0.10642 0.212889
2833 2 0.0189781 0.228171 0.196301
2835 4 0.0359034 0.228578 0.214701
2718 4 0.036296 0.248731 0.216288
2834 4 0.00205294 0.227764 0.177902
545 4 0.102561 0.167969 0.220492
544 2 0.112591 0.179485 0.200694
546 4 0.12262 0.191001 0.180896
410 4 0.187119 0.163506 0.233676
409 2 0.20535 0.178496 0.241928
526 2 0.303294 0.180272 0.200681
527 4 0.297984 0.198067 0.217424
624 4 0.283734 0.21185 0.215659
622 2 0.298035 0.227674 0.228707
623 4 0.312337 0.243498 0.241755
13 3 0.322308 0.251354 0.226179
254 4 0.379211 0.204382 0.234325
253 2 0.39301 0.198659 0.214274
15 3 0.358092 0.244302 0.235529
255 4 0.406808 0.192936 0.194223
629 4 0.424369 0.197327 0.185359
395 4 0.00622235 0.265636 0.24772
2716 2 0.0462657 0.271611 0.217808
2717 4 0.0562353 0.29449 0.219328
465 4 0.0726128 0.304665 0.221877
463 2 0.0948516 0.304199 0.233296
464 4 0.11709 0.303733 0.244715
476 4 0.13193 0.291175 0.249665
612 4 0.361201 0.288935 0.211091
610 2 0.360698 0.310786 0.198948
14 3 0.348789 0.278357 0.222439
11 1 0.341805 0.260215 0.235107
611 4 0.360195 0.332637 0.186805
620 4 0.0152012 0.366558 0.229919
705 4 0.059375 0.399386 0.206906
704 4 0.0186479 0.370682 0.211162
703 2 0.0390114 0.385034 0.209034
735 4 0.0765211 0.394379 0.215029
733 2 0.093663 0.407765 0.202693
1618 2 0.243419 0.392168 0.179967
401 4 0.169448 0.357901 0.22701
400 2 0.18893 0.367693 0.239248
1620 4 0.251663 0.369 0.175445
1619 4 0.235174 0.415336 0.18449
344 4 0.214166 0.396015 0.247473
343 2 0.227977 0.414319 0.237503
339 4 0.260626 0.350756 0.173853
507 4 0.322868 0.377964 0.167881
505 2 0.320847 0.394155 0.186827
506 4 0.318825 0.410346 0.205773
308 4 0.353252 0.346634 0.199349
307 2 0.359898 0.365357 0.21453
309 4 0.366545 0.384079 0.229711
1455 4 0.359351 0.401391 0.236396
2617 2 0.0591385 0.462299 0.178983
2619 4 0.0654843 0.480861 0.194487
2527 2 0.0802466 0.489116 0.225665
2528 4 0.0837781 0.478122 0.203488
314 4 0.0126572 0.491584 0.175089
734 4 0.110805 0.42115 0.190358
1790 4 0.147764 0.49057 0.190006
1767 4 0.126203 0.431124 0.182055
1766 4 0.14097 0.478455 0.175541
1765 2 0.133586 0.45479 0.178798
1789 2 0.156073 0.500712 0.211297
524 4 0.219381 0.426904 0.181523
278 4 0.20751 0.486293 0.225285
277 2 0.225814 0.469273 0.22598
279 4 0.244118 0.452254 0.226676
345 4 0.241787 0.432623 0.227533
287 4 0.305337 0.425028 0.205082
286 2 0.319469 0.434244 0.223536
288 4 0.3336 0.44346 0.24199
231 4 0.348425 0.456039 0.241213
607 2 0.418604 0.4822 0.195018
542 4 0.428574 0.453621 0.177782
608 4 0.43587 0.464192 0.193356
722 4 0.0454916 0.0433397 0.254382
721 2 0.0279041 0.0601829 0.260053
723 4 0.0103167 0.0770261 0.265725
512 4 0.0053351 0.0852688 0.324533
284 4 0.160127 0.993357 0.26227
283 2 0.138438 0.00387456 0.255625
1403 4 0.176014 0.00416509 0.256201
1404 4 0.200499 0.0460276 0.268398
1477 2 0.224585 0.0558723 0.295105
1479 4 0.216823 0.0559243 0.271336
1402 2 0.188257 0.0250964 0.262299
1478 4 0.232346 0.0558202 0.318873
899 4 0.229984 0.0396865 0.32998
1427 4 0.36543 0.0428508 0.250879
1426 2 0.376913 0.0478296 0.272525
1428 4 0.388396 0.0528085 0.29417
258 4 0.387749 0.0360442 0.304812
256 2 0.382798 0.0136643 0.314802
1729 2 0.477512 0.00553409 0.286956
1730 4 0.490921 0.0234718 0.298074
2664 4 0.487572 0.0372529 0.284343
693 4 0.0649395 0.110775 0.322132
691 2 0.0718622 0.1268 0.304231
511 2 0.0266372 0.0976926 0.328661
513 4 0.0479393 0.110116 0.33279
692 4 0.0787848 0.142825 0.28633
616 2 0.0855956 0.161536 0.24966
684 4 0.245889 0.137454 0.322155
682 2 0.265208 0.153325 0.3219
474 4 0.303594 0.160282 0.318998
472 2 0.324607 0.147426 0.323283
633 4 0.39402 0.131402 0.267035
404 4 0.377978 0.140518 0.274934
403 2 0.360308 0.156666 0.267712
473 4 0.34562 0.13457 0.327568
631 2 0.41872 0.135136 0.268109
632 4 0.44342 0.138869 0.269182
707 4 0.461585 0.14139 0.259804
706 2 0.464886 0.164369 0.26909
618 4 0.0848068 0.168283 0.273723
2463 4 0.0759667 0.186457 0.276747
2461 2 0.0541618 0.198546 0.278636
2462 4 0.0323568 0.210636 0.280526
2897 4 0.0362752 0.23041 0.274933
411 4 0.223582 0.193486 0.250179
489 4 0.2203 0.202014 0.267459
487 2 0.233865 0.206553 0.287966
488 4 0.24743 0.211093 0.308474
677 4 0.251254 0.220691 0.326044
683 4 0.284527 0.169196 0.321644
641 4 0.337843 0.191175 0.266027
642 4 0.361797 0.230412 0.28571
640 2 0.34982 0.210793 0.275869
405 4 0.342637 0.172814 0.26049
312 4 0.368397 0.250415 0.281586
310 2 0.39334 0.250215 0.27987
708 4 0.468186 0.187349 0.278376
762 4 0.465679 0.207489 0.280788
760 2 0.451299 0.227896 0.282187
761 4 0.436919 0.248304 0.283585
2896 2 0.0225903 0.250901 0.270688
2898 4 0.00890543 0.271392 0.266443
475 2 0.153692 0.278862 0.249628
477 4 0.175454 0.26655 0.24959
390 4 0.17599 0.284453 0.328663
388 2 0.197986 0.273176 0.324899
389 4 0.219983 0.261899 0.321134
290 4 0.175373 0.304402 0.325156
437 4 0.261203 0.328198 0.336496
2 3 0.269052 0.310941 0.329555
12 3 0.337595 0.267318 0.256578
120 3 0.418724 0.329185 0.316483
311 4 0.418284 0.250014 0.278153
118 3 0.432291 0.29579 0.327362
335 4 0.45299 0.291409 0.329499
334 2 0.477869 0.293559 0.328243
402 4 0.208412 0.377484 0.251486
436 2 0.240301 0.341597 0.333545
414 4 0.225574 0.373805 0.325045
412 2 0.230355 0.386897 0.304286
438 4 0.219398 0.354997 0.330595
413 4 0.235137 0.399988 0.283528
1453 2 0.365426 0.401447 0.26065
1454 4 0.371502 0.401503 0.284904
667 2 0.34752 0.414971 0.320823
669 4 0.356854 0.40812 0.298662
753 4 0.489494 0.37568 0.322763
117 3 0.449439 0.327621 0.337627
751 2 0.479073 0.354416 0.330789
752 4 0.468652 0.333152 0.338815
2529 4 0.076715 0.500111 0.247842
2694 4 0.0158725 0.478635 0.258811
408 4 0.0202939 0.472512 0.279129
407 4 0.0582595 0.441017 0.287337
406 2 0.0392767 0.456765 0.283233
2297 4 0.0518025 0.439768 0.307274
2296 2 0.0649515 0.441477 0.328472
727 2 0.175379 0.488361 0.261203
767 4 0.193514 0.451514 0.265668
766 2 0.208849 0.442608 0.283295
728 4 0.190539 0.471023 0.270938
768 4 0.224183 0.433703 0.300923
602 4 0.26969 0.458975 0.318119
644 4 0.273756 0.486108 0.274173
603 4 0.287921 0.471601 0.273297
601 2 0.278805 0.465288 0.295708
229 2 0.355526 0.467952 0.262018
230 4 0.362628 0.479864 0.282823
3235 2 0.00780028 0.00954276 0.404051
898 2 0.231979 0.0357154 0.354585
900 4 0.233975 0.0317442 0.37919
1782 4 0.220537 0.0695462 0.400412
2430 4 0.332514 0.015856 0.391084
717 4 0.483686 0.0577514 0.402019
715 2 0.464712 0.0720305 0.39419
318 4 0.052594 0.125917 0.39928
399 4 0.0652544 0.127637 0.384668
316 2 0.0417186 0.108202 0.413175
397 2 0.0897453 0.132356 0.382905
732 4 0.127304 0.12396 0.386856
730 2 0.14757 0.128667 0.372989
398 4 0.114236 0.137076 0.381142
1407 4 0.229346 0.127271 0.324067
731 4 0.167836 0.133373 0.359122
1406 4 0.186823 0.130885 0.350133
1405 2 0.208084 0.129078 0.3371
341 4 0.228225 0.0872541 0.403445
340 2 0.230288 0.110864 0.395476
342 4 0.232351 0.134473 0.387507
588 4 0.250404 0.14427 0.391408
586 2 0.25221 0.165563 0.40439
716 4 0.445738 0.0863095 0.386362
267 4 0.472622 0.165974 0.397607
265 2 0.448222 0.169125 0.402065
676 2 0.256895 0.240548 0.340153
587 4 0.254017 0.186855 0.417372
266 4 0.423822 0.172276 0.406524
1219 2 0.135868 0.309282 0.402064
1220 4 0.137317 0.312734 0.377342
289 2 0.162652 0.313866 0.344489
291 4 0.149931 0.323329 0.363823
613 2 0.210597 0.284744 0.39236
614 4 0.2042 0.289234 0.416111
615 4 0.216994 0.280254 0.368609
5 3 0.260325 0.302725 0.3649
678 4 0.262536 0.260405 0.354261
3 3 0.269577 0.275144 0.340997
4 3 0.295978 0.299606 0.353202
1 1 0.273672 0.297088 0.347329
649 2 0.314813 0.28813 0.402071
650 4 0.326065 0.297412 0.381763
435 4 0.3454 0.294854 0.374622
434 4 0.354922 0.330181 0.340533
433 2 0.350161 0.312518 0.357577
116 1 0.428998 0.317946 0.333417
119 3 0.416067 0.319063 0.352652
392 4 0.00711289 0.34306 0.379392
417 4 0.0244894 0.334974 0.373654
415 2 0.0482969 0.338736 0.367003
416 4 0.0721043 0.342499 0.360352
1437 4 0.314152 0.409689 0.381024
668 4 0.338187 0.421821 0.342985
1742 4 0.447857 0.39072 0.388263
926 4 0.422532 0.335847 0.362205
925 2 0.432998 0.353509 0.376477
927 4 0.443465 0.371171 0.390749
1741 2 0.442274 0.413784 0.396144
2298 4 0.0781005 0.443186 0.34967
1758 4 0.0765495 0.446375 0.369612
1756 2 0.0576366 0.450216 0.385509
1757 4 0.0387237 0.454057 0.401407
1862 4 0.229787 0.4754 0.363499
1861 2 0.245467 0.46382 0.379159
1436 4 0.294738 0.453282 0.366078
1435 2 0.304445 0.431486 0.373551
1863 4 0.261147 0.452241 0.394819
1586 4 0.373243 0.49473 0.383322
2924 4 0.481161 0.473687 0.358504
1803 4 0.487539 0.483008 0.374091
1801 2 0.466858 0.493477 0.383465
1743 4 0.436691 0.436847 0.404024
1376 4 0.00430617 0.0343135 0.434285
3236 4 0.0136763 0.0187228 0.426554
1375 2 0.00826013 0.0589021 0.432061
1127 4 0.0150279 0.0531916 0.511916
1773 4 0.126561 0.0389185 0.441182
2236 2 0.127224 0.00679783 0.423115
2238 4 0.119611 0.030591 0.424166
1771 2 0.123973 0.0538723 0.461053
1772 4 0.121384 0.0688262 0.480924
687 4 0.115819 0.0583549 0.496162
1780 2 0.219137 0.0546847 0.420471
1781 4 0.217737 0.0398231 0.440529
321 4 0.234585 0.0421948 0.450457
319 2 0.252529 0.0501576 0.465942
320 4 0.270473 0.0581205 0.481427
1152 4 0.274109 0.0508636 0.501366
304 2 0.493854 0.0346987 0.441822
306 4 0.473161 0.0224971 0.434885
1377 4 0.0122141 0.0834907 0.429836
317 4 0.0308433 0.0904866 0.42707
508 2 0.1558 0.226878 0.472706
510 4 0.134452 0.222094 0.4606
384 4 0.113768 0.223795 0.460127
382 2 0.100842 0.244273 0.453904
509 4 0.177148 0.231662 0.484811
430 2 0.237 0.213182 0.445365
432 4 0.221191 0.228729 0.45692
576 4 0.210428 0.247209 0.45803
570 4 0.17584 0.227419 0.504385
635 4 0.249461 0.2443 0.478957
431 4 0.252808 0.197634 0.433809
634 2 0.272535 0.250135 0.486619
3158 4 0.324853 0.179592 0.490813
3157 2 0.33546 0.201075 0.483662
3159 4 0.346068 0.222558 0.476511
468 4 0.3542 0.241453 0.476468
466 2 0.378716 0.244272 0.472441
852 4 0.0480961 0.318422 0.494357
3108 4 0.0672731 0.320053 0.433297
3107 4 0.115691 0.307551 0.432916
1221 4 0.134419 0.305831 0.426786
383 4 0.0879155 0.264752 0.447681
3106 2 0.091482 0.313802 0.433106
575 4 0.191338 0.276025 0.421893
574 2 0.200883 0.261617 0.439961
636 4 0.295609 0.25597 0.494281
811 2 0.309657 0.273325 0.455092
813 4 0.300114 0.264173 0.476313
812 4 0.3192 0.282478 0.43387
651 4 0.303562 0.278848 0.422379
467 4 0.403231 0.24709 0.468414
378 4 0.420807 0.255698 0.46372
3308 4 0.426876 0.313163 0.435033
376 2 0.420425 0.275478 0.44843
377 4 0.420043 0.295258 0.43314
1382 4 0.054096 0.404092 0.450513
1383 4 0.0147949 0.393128 0.421601
1381 2 0.0344454 0.39861 0.436057
327 4 0.107201 0.383521 0.450555
325 2 0.0973153 0.404536 0.459821
238 2 0.267173 0.333879 0.495133
240 4 0.261134 0.344659 0.473397
446 4 0.251654 0.35002 0.456554
930 4 0.306642 0.381972 0.44515
447 4 0.292216 0.371373 0.436566
445 2 0.271935 0.360697 0.44656
928 2 0.325 0.376864 0.461339
583 2 0.385904 0.368342 0.469363
584 4 0.410552 0.36415 0.469665
929 4 0.343358 0.371755 0.477527
585 4 0.361256 0.372533 0.469061
3309 4 0.418271 0.35949 0.451779
3307 2 0.422574 0.336327 0.443406
2456 4 0.451233 0.340664 0.499302
2455 2 0.43624 0.360556 0.497131
503 4 0.0590093 0.505065 0.465607
326 4 0.0874292 0.42555 0.469086
1821 4 0.23507 0.482411 0.454589
1819 2 0.242966 0.465465 0.471192
1820 4 0.250862 0.448519 0.487795
1556 4 0.309774 0.477123 0.450623
1555 2 0.307334 0.490808 0.429839
1473 4 0.40693 0.484923 0.427122
2355 4 0.453977 0.456249 0.471255
1471 2 0.424336 0.467473 0.422911
1472 4 0.441741 0.450023 0.4187
2353 2 0.461705 0.454034 0.494931
459 4 0.0651087 0.00793039 0.570399
1126 2 0.0310676 0.0716826 0.517014
1271 4 0.0788403 0.00732222 0.556949
685 2 0.115554 0.0621915 0.520868
686 4 0.115289 0.066028 0.545574
912 4 0.170183 0.0089313 0.563419
1600 2 0.128032 0.0783048 0.577739
1601 4 0.132261 0.0724644 0.553797
921 4 0.163921 0.00347879 0.546876
1150 2 0.276054 0.0343123 0.520006
1151 4 0.278 0.0177611 0.538646
893 4 0.274977 0.0167903 0.558214
892 2 0.295955 0.00774603 0.568379
1162 2 0.360013 0.00948835 0.57972
1164 4 0.337521 0.998645 0.57841
1163 4 0.382505 0.0203313 0.58103
4581 4 0.478759 0.0565512 0.570092
3269 4 0.47251 0.0618867 0.552528
3268 2 0.457762 0.0628544 0.53236
3270 4 0.443014 0.0638222 0.512193
1128 4 0.0471072 0.0901737 0.522112
1033 2 0.0397746 0.121628 0.54011
1034 4 0.0330196 0.0979653 0.535682
1035 4 0.0465295 0.145292 0.544537
1200 4 0.03447 0.162229 0.548885
824 4 0.187216 0.161138 0.576507
604 2 0.331052 0.146686 0.515857
938 4 0.269534 0.141306 0.58401
605 4 0.337873 0.123701 0.522952
1198 2 0.0391581 0.186078 0.543017
1199 4 0.0438463 0.209927 0.537149
3275 4 0.0614122 0.219492 0.532967
3274 2 0.0637165 0.232448 0.554227
3276 4 0.0660209 0.245404 0.575488
2375 4 0.0863381 0.192307 0.579424
694 2 0.23936 0.246563 0.554617
568 2 0.198977 0.227159 0.513862
569 4 0.222113 0.226899 0.523339
696 4 0.221296 0.239409 0.538879
606 4 0.32423 0.169672 0.508763
47 3 0.491033 0.190436 0.567858
46 1 0.497958 0.209721 0.578311
48 3 0.498139 0.226998 0.562823
872 4 0.498847 0.172681 0.561585
953 4 0.500871 0.204456 0.498508
850 2 0.0670712 0.31785 0.51063
851 4 0.0860462 0.317278 0.526902
695 4 0.257425 0.253718 0.570355
858 4 0.270989 0.258531 0.584248
239 4 0.273212 0.323098 0.51687
774 4 0.289974 0.333276 0.522701
805 2 0.479041 0.329624 0.516486
1190 4 0.101659 0.329572 0.526097
1189 2 0.120091 0.346125 0.529486
1191 4 0.138522 0.362677 0.532876
711 4 0.15764 0.368269 0.529849
709 2 0.161934 0.385957 0.546992
1445 4 0.102839 0.399327 0.553207
710 4 0.166228 0.403645 0.564134
2140 2 0.247718 0.409881 0.568259
791 4 0.321016 0.381907 0.550967
772 2 0.307003 0.348896 0.532252
773 4 0.324032 0.364517 0.541802
790 2 0.316953 0.405728 0.544546
2141 4 0.259422 0.388269 0.572854
1137 4 0.274897 0.374957 0.5763
807 4 0.456367 0.339573 0.519966
2457 4 0.421247 0.380448 0.494961
1172 4 0.0347122 0.468067 0.553359
1171 2 0.0460332 0.487609 0.564088
3573 4 0.0117331 0.428695 0.579224
1444 2 0.105374 0.416375 0.57132
2142 4 0.236014 0.431493 0.563664
1239 4 0.226874 0.482762 0.54973
1237 2 0.228274 0.45791 0.547365
1238 4 0.229674 0.433058 0.545001
792 4 0.31289 0.429549 0.538125
2152 2 0.308975 0.463274 0.525197
2154 4 0.29876 0.441109 0.530632
2153 4 0.319191 0.485438 0.519762
2223 4 0.327489 0.497448 0.506233
2354 4 0.469433 0.451818 0.518607
457 2 0.0625787 0.026321 0.587149
458 4 0.0600488 0.0447117 0.603899
1283 4 0.0744317 0.0483548 0.618207
3001 2 0.000819074 0.0626323 0.653283
1282 2 0.0909064 0.0670383 0.616041
911 4 0.134519 0.034438 0.587464
910 2 0.152351 0.0216847 0.575442
1106 4 0.162607 0.0359516 0.651781
1105 2 0.143852 0.0256056 0.664681
1284 4 0.107381 0.0857217 0.613875
2049 4 0.170944 0.0166917 0.653476
2047 2 0.194477 0.00881475 0.650415
2132 4 0.194432 0.089601 0.636329
2048 4 0.218009 0.000937753 0.647355
797 4 0.4016 0.0190239 0.586628
796 2 0.40134 0.0373511 0.603634
798 4 0.401081 0.0556784 0.620641
43 3 0.405575 0.052668 0.639914
41 1 0.411019 0.0735751 0.648379
42 3 0.43127 0.0800967 0.639632
3384 4 0.0192096 0.13517 0.64745
1227 4 0.0944515 0.102102 0.657629
1602 4 0.123803 0.0841452 0.60168
1225 2 0.107368 0.123027 0.662153
1131 4 0.117966 0.152891 0.647789
1226 4 0.120284 0.143953 0.666676
825 4 0.170375 0.138123 0.617585
823 2 0.178796 0.149631 0.597046
2133 4 0.165502 0.130383 0.635549
2131 2 0.179967 0.109992 0.635939
939 4 0.231316 0.122025 0.609862
937 2 0.250425 0.131665 0.596936
45 3 0.395075 0.0887338 0.642494
1153 2 0.0395352 0.228517 0.620986
2376 4 0.0738075 0.205036 0.626133
1154 4 0.0561851 0.210113 0.617946
2989 2 0.0765636 0.222698 0.665695
1155 4 0.0228853 0.246921 0.624025
2990 4 0.077587 0.246131 0.657036
2374 2 0.0800728 0.198671 0.602779
1129 2 0.133277 0.172571 0.645936
1244 4 0.135862 0.206583 0.640383
1243 2 0.153203 0.222065 0.631177
1130 4 0.148588 0.192252 0.644084
1245 4 0.170545 0.237547 0.621971
1193 4 0.344493 0.20838 0.630721
1192 2 0.366982 0.219124 0.62873
1194 4 0.389472 0.229868 0.626739
1025 4 0.405128 0.239214 0.618081
4467 4 0.46598 0.182003 0.652598
4465 2 0.471578 0.190299 0.629685
3372 4 0.459511 0.243388 0.639883
3370 2 0.474903 0.247254 0.659205
49 3 0.48318 0.214654 0.595507
4466 4 0.477175 0.198595 0.606771
1024 2 0.427947 0.24828 0.622804
3038 4 0.0701009 0.261304 0.587606
3037 2 0.0628418 0.284627 0.582263
3039 4 0.0555826 0.307949 0.576921
374 4 0.079581 0.320166 0.643482
2447 4 0.0842836 0.260328 0.644425
2446 2 0.0949629 0.263283 0.622011
2448 4 0.105642 0.266237 0.599596
897 4 0.133814 0.310818 0.672044
895 2 0.14965 0.314885 0.653128
896 4 0.165487 0.318952 0.634211
274 2 0.238471 0.322637 0.618787
856 2 0.263667 0.280709 0.593174
857 4 0.256345 0.302888 0.602101
275 4 0.24161 0.314744 0.59527
935 4 0.374542 0.339244 0.628815
1026 4 0.450765 0.257346 0.627526
1040 4 0.010173 0.416966 0.595595
373 2 0.0744036 0.339903 0.629032
375 4 0.0692262 0.359641 0.614582
982 2 0.0626442 0.39971 0.602234
8 3 0.0168806 0.423288 0.614631
983 4 0.0683818 0.375383 0.601565
2171 4 0.14047 0.415243 0.639687
276 4 0.235332 0.330529 0.642303
878 4 0.21911 0.335979 0.651903
879 4 0.188698 0.373947 0.640314
877 2 0.203904 0.354963 0.646109
1135 2 0.294336 0.365239 0.588663
1136 4 0.313775 0.35552 0.601026
936 4 0.331921 0.349497 0.604751
1951 2 0.312487 0.415021 0.653286
934 2 0.353232 0.34437 0.616783
662 4 0.435326 0.346331 0.620046
661 2 0.430361 0.34624 0.644551
10 3 0.0249899 0.442532 0.583301
984 4 0.0569067 0.424037 0.602903
7 3 0.0500934 0.44047 0.610841
6 1 0.0276701 0.441886 0.605907
9 3 0.0190963 0.46122 0.615452
2139 4 0.0239055 0.468961 0.632256
2137 2 0.0330691 0.48362 0.650319
1446 4 0.10791 0.433423 0.589434
2170 2 0.122549 0.418379 0.622536
2172 4 0.104628 0.421514 0.605384
2699 4 0.12442 0.452316 0.633338
2698 2 0.126936 0.47638 0.639641
2700 4 0.129452 0.500445 0.645945
2308 2 0.192536 0.490376 0.621174
2309 4 0.206315 0.482397 0.640453
1713 4 0.218465 0.490164 0.654967
1711 2 0.241731 0.497501 0.649488
2310 4 0.178757 0.498355 0.601896
1953 4 0.30821 0.42568 0.631076
1001 4 0.281073 0.50837 0.632026
1251 4 0.426515 0.440166 0.618933
1249 2 0.424709 0.432892 0.642787
1185 4 0.0160948 0.0104071 0.743883
3003 4 0.0164742 0.0779391 0.665357
1183 2 0.0321768 0.0106165 0.724739
1184 4 0.0482588 0.0108258 0.705594
1203 4 0.0642246 0.0210096 0.705297
1201 2 0.0881946 0.0172106 0.699281
1107 4 0.125097 0.0152596 0.677581
1202 4 0.112164 0.0134116 0.693265
975 4 0.28916 0.0239058 0.735281
88 3 0.348261 0.00408432 0.700274
950 4 0.40522 0.027803 0.700122
949 2 0.384765 0.014394 0.694931
1145 4 0.407972 0.0381649 0.716191
44 3 0.412814 0.0725417 0.67149
981 4 0.334152 0.0555533 0.744646
2265 4 0.504886 0.0123717 0.683814
1144 2 0.432577 0.0337456 0.715725
2264 4 0.458847 0.0129047 0.70333
1146 4 0.457183 0.0293264 0.715259
2263 2 0.481867 0.0126382 0.693572
1296 4 0.0256479 0.130044 0.740779
1295 4 0.0745201 0.11956 0.739258
1294 2 0.050084 0.124802 0.740019
1083 4 0.0925569 0.124003 0.746286
1143 4 0.304251 0.131247 0.678798
1005 4 0.319014 0.117551 0.678568
1141 2 0.28678 0.148227 0.68442
1003 2 0.339046 0.108593 0.690556
1004 4 0.359077 0.0996363 0.702543
3424 2 0.498632 0.122427 0.712694
3425 4 0.479705 0.138286 0.708765
2991 4 0.0755402 0.199264 0.674355
1209 4 0.149557 0.225259 0.733201
1207 2 0.155407 0.249254 0.729305
1142 4 0.269308 0.165207 0.690042
977 4 0.26463 0.185222 0.687909
978 4 0.263123 0.20044 0.73552
976 2 0.263876 0.192831 0.711715
1212 4 0.352113 0.182915 0.705653
1210 2 0.352717 0.203483 0.719857
1211 4 0.353321 0.224052 0.734061
2988 4 0.394149 0.230527 0.754951
2986 2 0.418039 0.236232 0.750273
3371 4 0.490295 0.25112 0.678527
1259 4 0.0105122 0.281222 0.751649
2358 4 0.0563055 0.276049 0.705135
2356 2 0.0512172 0.297476 0.693296
2357 4 0.0461288 0.318903 0.681456
1208 4 0.161257 0.27325 0.725409
948 4 0.16675 0.29188 0.727741
946 2 0.191136 0.294706 0.722997
947 4 0.215522 0.297532 0.718254
1029 4 0.234039 0.288656 0.716721
1027 2 0.249631 0.298549 0.733579
1098 4 0.348245 0.272031 0.692397
1096 2 0.345011 0.280182 0.715812
1097 4 0.341776 0.288333 0.739227
1064 4 0.451054 0.257357 0.73586
1063 2 0.467666 0.275734 0.739251
1065 4 0.484279 0.294111 0.742642
3474 4 0.490463 0.246996 0.698902
815 4 0.214657 0.346385 0.745678
1952 4 0.316764 0.404363 0.675496
1292 4 0.357885 0.398774 0.732586
1291 2 0.363374 0.374382 0.732859
1293 4 0.368863 0.34999 0.733131
1139 4 0.337752 0.39809 0.731606
663 4 0.425396 0.346148 0.669057
4485 4 0.421462 0.364537 0.676802
4484 4 0.416988 0.414074 0.681981
4483 2 0.419225 0.389305 0.679391
2138 4 0.0422327 0.49828 0.668383
4480 2 0.070321 0.466361 0.743737
4481 4 0.0653404 0.480937 0.724042
4176 4 0.0560882 0.49774 0.731773
4174 2 0.0466474 0.501499 0.708927
1161 4 0.155954 0.488274 0.726853
1159 2 0.167879 0.470215 0.714329
1160 4 0.179805 0.452156 0.701805
1187 4 0.193756 0.436265 0.702143
1186 2 0.214957 0.436792 0.6889
1188 4 0.236159 0.437318 0.675656
889 2 0.266608 0.497684 0.706675
891 4 0.268266 0.472949 0.709929
1910 4 0.28621 0.462795 0.705027
1909 2 0.310803 0.459138 0.702388
1138 2 0.325445 0.413033 0.747431
4147 2 0.349612 0.484698 0.669475
1911 4 0.335397 0.455481 0.699749
4149 4 0.341691 0.469162 0.687394
1020 4 0.483141 0.426826 0.760868
1250 4 0.422903 0.425619 0.666641
3022 2 0.467982 0.485618 0.741263
3024 4 0.468749 0.462335 0.750347
2113 2 0.0830935 0.0181387 0.820895
2115 4 0.0918172 0.0415704 0.821077
945 4 0.101416 0.0581423 0.816537
943 2 0.108975 0.0784352 0.804037
1086 4 0.278761 0.0261256 0.802513
973 2 0.288349 0.0278227 0.759963
974 4 0.287539 0.0317396 0.784644
1084 2 0.2926 0.00957407 0.815151
979 2 0.349448 0.0694105 0.75876
2062 2 0.499293 0.00782695 0.829509
2064 4 0.497008 0.00922777 0.80465
2198 4 0.448666 0.0320124 0.825939
2197 2 0.444231 0.0544315 0.836082
3468 4 0.488948 0.0179277 0.789961
3466 2 0.486841 0.0395683 0.777615
3467 4 0.484734 0.0612089 0.765269
3296 4 0.0129575 0.135039 0.754685
3295 2 0.00657992 0.157194 0.764362