ITEM: TIMESTEP
930000
ITEM: NUMBER OF ATOMS
4590
ITEM: BOX BOUNDS pp pp pp
-9.9985700000000008e+00 9.9985700000000008e+00
-9.9985700000000008e+00 9.9985700000000008e+00
-9.9985700000000008e+00 9.9985700000000008e+00
ITEM: ATOMS id type xs ys zs
589 2 0.060693 0.0522794 0.0765405
591 4 0.0821989 0.0545167 0.0639839
2271 4 0.085037 0.0315404 0.0105313
533 4 0.0879492 0.0503886 0.0159057
2265 4 0.233672 0.0842825 0.0213123
2263 2 0.246182 0.0630646 0.0256118
2264 4 0.258692 0.0418468 0.0299113
2162 4 0.262127 0.0300575 0.015401
2161 2 0.258058 0.00547285 0.0133478
1608 4 0.391416 0.0364916 0.0695803
1606 2 0.409352 0.0526112 0.0629732
1541 4 0.373748 0.0454643 0.0730454
1540 2 0.366289 0.0215999 0.0728575
1109 4 0.490075 0.0397079 0.0467845
1108 2 0.468997 0.0518584 0.0525534
1110 4 0.44792 0.0640089 0.0583224
1607 4 0.427287 0.0687307 0.0563662
2976 4 0.485113 0.0224203 0.03696
2974 2 0.491997 0.0197797 0.0130682
995 4 0.140606 0.156351 0.0720437
701 4 0.151658 0.141853 0.0799455
865 2 0.241711 0.148721 0.0440961
867 4 0.249157 0.12781 0.0556065
876 4 0.236848 0.103339 0.0168276
581 4 0.287955 0.103195 5.60898e-05
359 4 0.29364 0.0994326 0.0180927
360 4 0.265612 0.116556 0.0558014
358 2 0.279626 0.107994 0.0369471
55 3 0.265955 0.1596 0.0772004
254 4 0.338363 0.114036 0.0359788
255 4 0.37127 0.143659 0.0127331
253 2 0.354817 0.128847 0.0243559
770 4 0.377587 0.154709 0.0277412
2808 4 0.0158195 0.243176 0.0133991
2771 4 0.0219083 0.225587 0.00848938
994 2 0.140345 0.179732 0.0631885
996 4 0.140085 0.203114 0.0543332
866 4 0.234265 0.169631 0.0325857
352 2 0.229101 0.226436 0.0852882
354 4 0.211581 0.241458 0.0756661
1253 4 0.245014 0.185611 0.0399108
1252 2 0.255444 0.196898 0.0201878
356 4 0.280538 0.238988 0.0487295
355 2 0.303233 0.249425 0.0498212
769 2 0.38121 0.171789 0.0456394
566 4 0.389954 0.206155 0.0537006
771 4 0.384833 0.188868 0.0635376
565 2 0.396326 0.229903 0.0582414
657 4 0.067513 0.273571 0.0490569
294 4 0.072931 0.291052 0.040643
655 2 0.046361 0.283214 0.0582639
656 4 0.0252089 0.292858 0.0674709
923 4 0.0275985 0.30165 0.00782662
396 4 0.0225472 0.312464 0.0718837
292 2 0.0976456 0.291467 0.0368756
293 4 0.12236 0.291881 0.0331081
288 4 0.12958 0.274982 0.0263553
286 2 0.14244 0.286944 0.00855924
505 2 0.194481 0.273896 0.0643604
507 4 0.198639 0.249328 0.0622862
756 4 0.199457 0.315972 0.0715876
506 4 0.190323 0.298464 0.0664345
357 4 0.325928 0.259863 0.0509128
956 4 0.284787 0.310302 0.0751793
955 2 0.298188 0.315361 0.0546851
1070 4 0.330911 0.326649 0.0284035
957 4 0.311588 0.320421 0.0341909
1069 2 0.335564 0.317506 0.00560176
567 4 0.402697 0.253651 0.0627823
624 4 0.346463 0.260238 0.054566
622 2 0.34825 0.28476 0.0500218
494 4 0.416938 0.301502 0.0394294
623 4 0.350038 0.309282 0.0454777
493 2 0.399854 0.319409 0.0429904
666 4 0.436653 0.296497 0.0421543
664 2 0.440694 0.278231 0.058744
665 4 0.444734 0.259966 0.0753337
551 4 0.0549906 0.403512 0.02178
328 2 0.0429992 0.364503 0.0245615
330 4 0.0560509 0.383989 0.0158947
329 4 0.0299475 0.345017 0.0332284
755 4 0.223322 0.358617 0.0609787
754 2 0.211389 0.337295 0.0662831
789 4 0.212676 0.408505 0.0134803
787 2 0.215762 0.391493 0.0315425
788 4 0.218848 0.374481 0.0496047
740 4 0.283379 0.396784 0.999832
739 2 0.28381 0.421627 0.00262363
495 4 0.382771 0.337316 0.0465515
386 4 0.366897 0.347203 0.0539549
385 2 0.350899 0.340751 0.072055
525 4 0.352732 0.398636 0.0409738
523 2 0.374766 0.41044 0.0415488
550 2 0.0542393 0.428389 0.0241805
552 4 0.0534879 0.453266 0.026581
1288 2 0.15179 0.42694 0.00784421
794 4 0.181415 0.458039 0.0026029
793 2 0.205015 0.462117 0.995421
1289 4 0.165475 0.44784 0.00679475
741 4 0.284241 0.446471 0.00541525
243 4 0.282601 0.446976 0.0474533
241 2 0.290089 0.440822 0.0705018
524 4 0.3968 0.422245 0.0421239
1674 4 0.410745 0.435307 0.0338489
481 2 0.388681 0.490405 0.0106352
228 4 0.463822 0.474367 0.0465414
1672 2 0.427083 0.453514 0.0390202
1673 4 0.443421 0.471721 0.0441915
226 2 0.47587 0.492311 0.0339707
590 4 0.0391871 0.050042 0.0890972
577 2 0.139582 0.0416282 0.113413
578 4 0.125763 0.0291344 0.130089
673 2 0.111854 0.0172808 0.156061
579 4 0.153402 0.0541219 0.0967357
675 4 0.129708 0.0118994 0.139404
1329 4 0.284891 0.00313179 0.0985342
1504 2 0.287751 0.0307828 0.126661
1505 4 0.291133 0.0384658 0.150213
653 4 0.309209 0.0380937 0.159418
571 2 0.263361 0.0663299 0.159031
1506 4 0.284369 0.0230998 0.103109
296 4 0.450554 0.0118334 0.156027
297 4 0.42539 0.0258419 0.115146
295 2 0.437972 0.0188376 0.135586
449 4 0.020724 0.126085 0.0881505
448 2 0.04042 0.121816 0.10295
450 4 0.060116 0.117547 0.117749
18 3 0.077245 0.113491 0.12678
20 3 0.0754631 0.150981 0.129777
16 1 0.0881314 0.132584 0.134219
700 2 0.13304 0.132365 0.0936762
702 4 0.114422 0.122877 0.107407
17 3 0.108264 0.134418 0.123243
19 3 0.0921333 0.131045 0.157023
422 4 0.194176 0.152959 0.145388
421 2 0.212545 0.149679 0.128745
423 4 0.230914 0.146398 0.112102
476 4 0.194169 0.151038 0.165277
53 3 0.234069 0.159842 0.0972231
573 4 0.26565 0.0716022 0.134697
237 4 0.272762 0.0791097 0.117214
236 4 0.319651 0.0964466 0.115972
235 2 0.296207 0.0877781 0.116593
461 4 0.330636 0.107767 0.127115
629 4 0.388348 0.103407 0.105937
460 2 0.353094 0.112902 0.117395
462 4 0.375552 0.118036 0.107676
628 2 0.408795 0.116909 0.110917
557 4 0.433368 0.148712 0.105741
630 4 0.429242 0.13041 0.115897
1761 4 0.498617 0.123118 0.16492
1759 2 0.496393 0.122584 0.140021
1760 4 0.494169 0.122051 0.115123
2894 4 0.4895 0.108323 0.101871
2760 4 0.0671386 0.165572 0.140797
2758 2 0.0659512 0.189876 0.146548
381 4 0.0750439 0.220984 0.136611
2759 4 0.0647637 0.21418 0.152299
353 4 0.246621 0.211415 0.0949104
54 3 0.252393 0.192332 0.0899409
51 1 0.254883 0.169689 0.0943548
52 3 0.267029 0.167181 0.113728
556 2 0.42128 0.170513 0.1038
558 4 0.409193 0.192314 0.101858
518 4 0.447396 0.240186 0.0831431
519 4 0.475998 0.243394 0.124037
528 4 0.494496 0.242919 0.130714
517 2 0.461697 0.24179 0.10359
394 2 0.0149836 0.321178 0.0940653
395 4 0.00742007 0.329893 0.116247
379 2 0.0741956 0.244142 0.12722
380 4 0.0733473 0.267299 0.117828
627 4 0.243524 0.324539 0.154218
611 4 0.267888 0.346295 0.120825
738 4 0.297335 0.272237 0.127512
737 4 0.250621 0.256027 0.134974
736 2 0.273978 0.264132 0.131243
610 2 0.276548 0.326557 0.108153
612 4 0.285208 0.306818 0.0954803
12 3 0.308122 0.333161 0.127326
526 2 0.49388 0.263049 0.145532
527 4 0.493264 0.283179 0.16035
2786 4 0.0171832 0.393961 0.130546
620 4 0.0878627 0.385495 0.162275
537 4 0.088045 0.39683 0.146481
536 4 0.121702 0.413014 0.113224
535 2 0.104873 0.404922 0.129853
625 2 0.222314 0.329717 0.142031
626 4 0.201105 0.334895 0.129844
278 4 0.252784 0.340347 0.159148
13 3 0.328208 0.350297 0.100576
14 3 0.322122 0.367405 0.133963
11 1 0.326015 0.347088 0.123451
15 3 0.344917 0.337516 0.131802
387 4 0.334901 0.334299 0.0901551
660 4 0.412665 0.415312 0.137573
595 2 0.48672 0.404948 0.113519
658 2 0.43503 0.413969 0.126475
314 4 0.115027 0.479078 0.153765
252 4 0.138281 0.423265 0.110911
313 2 0.0977489 0.495446 0.1461
251 4 0.150806 0.470827 0.119946
250 2 0.144544 0.447046 0.115428
1779 4 0.166871 0.472145 0.107514
1777 2 0.174262 0.495967 0.105759
242 4 0.297577 0.434667 0.0935504
446 4 0.401558 0.426783 0.150653
445 2 0.377649 0.434099 0.150509
447 4 0.35374 0.441415 0.150366
659 4 0.457396 0.412627 0.115377
597 4 0.467057 0.408239 0.098428
512 4 0.0171542 0.0369696 0.175582
1463 4 0.0359752 0.0355626 0.184329
1462 2 0.0582413 0.0338244 0.173088
1464 4 0.0805074 0.0320861 0.161846
674 4 0.0940001 0.0226622 0.172718
1828 2 0.202898 0.00305055 0.188374
1829 4 0.21973 0.0209777 0.192901
688 2 0.22536 0.0567016 0.202179
690 4 0.233286 0.0331428 0.19947
689 4 0.217434 0.0802605 0.204888
572 4 0.261072 0.0610575 0.183365
652 2 0.331854 0.0407631 0.169676
25 3 0.373883 0.082407 0.174985
654 4 0.3545 0.0434325 0.179934
24 3 0.365197 0.0513218 0.194374
21 1 0.37911 0.0698577 0.193256
23 3 0.40127 0.0630718 0.192124
333 4 0.411383 0.0681773 0.208141
2722 2 0.487485 0.00646856 0.169919
392 4 0.0923194 0.118837 0.219145
22 3 0.376171 0.0825174 0.212236
763 2 0.348098 0.165435 0.20819
310 2 0.393633 0.133425 0.231727
311 4 0.380574 0.140529 0.211622
765 4 0.36779 0.151755 0.201101
758 4 0.501068 0.122727 0.183822
757 2 0.479608 0.113925 0.193158
332 4 0.449514 0.0982499 0.220074
759 4 0.458148 0.105123 0.202493
331 2 0.430448 0.0832136 0.214108
705 4 0.0191555 0.19565 0.220156
703 2 0.0132073 0.210552 0.239332
2615 4 0.0175345 0.208171 0.203537
475 2 0.205771 0.168466 0.178945
477 4 0.217373 0.185895 0.192613
693 4 0.202906 0.199807 0.19041
691 2 0.200353 0.217903 0.207475
692 4 0.1978 0.235999 0.224539
372 4 0.18408 0.243792 0.212445
764 4 0.328406 0.179115 0.215279
633 4 0.310821 0.182303 0.223843
631 2 0.310709 0.197693 0.243548
361 2 0.0580725 0.305594 0.171837
363 4 0.0343168 0.313388 0.172142
749 4 0.100433 0.293438 0.174982
362 4 0.0818282 0.297799 0.171531
748 2 0.118805 0.281075 0.186592
750 4 0.137177 0.268711 0.198201
371 4 0.151574 0.281367 0.206772
510 4 0.153583 0.314908 0.234206
290 4 0.159449 0.329204 0.221706
508 2 0.157267 0.300539 0.254335
339 4 0.0931082 0.322307 0.233544
370 2 0.167827 0.262579 0.209608
496 2 0.254551 0.297275 0.246842
498 4 0.278759 0.291244 0.245178
402 4 0.298043 0.287061 0.239099
400 2 0.311747 0.307714 0.242393
366 4 0.0223802 0.328674 0.181222
364 2 0.0154633 0.333305 0.204799
365 4 0.00854651 0.337937 0.228376
619 2 0.0663705 0.389836 0.174292
621 4 0.0448782 0.394177 0.186309
2954 4 0.0293656 0.394105 0.199766
2953 2 0.0140713 0.412463 0.207132
338 4 0.0773135 0.369675 0.230813
647 4 0.0960059 0.379885 0.231276
646 2 0.10477 0.399592 0.218627
337 2 0.0852109 0.345991 0.232179
289 2 0.17616 0.344922 0.211761
291 4 0.19287 0.360639 0.201817
343 2 0.206923 0.396919 0.233323
345 4 0.219371 0.379531 0.24628
284 4 0.268071 0.376111 0.203249
277 2 0.257719 0.361301 0.171867
279 4 0.262654 0.382255 0.184585
283 2 0.27162 0.379632 0.227747
648 4 0.113535 0.419299 0.205979
264 4 0.132833 0.418238 0.198491
262 2 0.156323 0.422209 0.206084
344 4 0.194475 0.414307 0.220366
263 4 0.179812 0.42618 0.213677
1574 4 0.411713 0.491319 0.22928
1584 4 0.429254 0.484631 0.222563
1582 2 0.452604 0.475712 0.223227
1583 4 0.475953 0.466792 0.223891
593 4 0.473407 0.466549 0.244548
317 4 0.00629305 0.0593161 0.28291
316 2 0.023165 0.0724453 0.295877
427 2 0.107968 0.077713 0.300791
428 4 0.1155 0.0624041 0.319069
1699 2 0.230506 0.027473 0.321348
1700 4 0.253077 0.0325713 0.311876
1518 4 0.271689 0.0313412 0.318576
1516 2 0.289659 0.0178608 0.329555
479 4 0.452549 0.057275 0.339892
531 4 0.0123471 0.148572 0.312631
529 2 0.0234787 0.126184 0.312419
318 4 0.0400369 0.0855744 0.308844
530 4 0.0346104 0.103796 0.312208
2849 4 0.999953 0.164128 0.306841
391 2 0.0954974 0.107289 0.241093
429 4 0.100436 0.0930219 0.282513
393 4 0.0986755 0.0957408 0.263041
487 2 0.315864 0.151115 0.279015
488 4 0.305534 0.140783 0.258724
312 4 0.406691 0.12632 0.251831
744 4 0.408461 0.135524 0.270095
2743 2 0.456704 0.0906248 0.318487
742 2 0.42064 0.11975 0.285196
2745 4 0.452544 0.107529 0.30054
743 4 0.432818 0.103975 0.300296
704 4 0.00725919 0.225454 0.258508
389 4 0.0225259 0.229919 0.270725
388 2 0.0281849 0.252046 0.280903
730 2 0.167001 0.162556 0.323364
732 4 0.178041 0.161897 0.300939
545 4 0.172605 0.173262 0.285918
546 4 0.187089 0.217094 0.266691
544 2 0.179847 0.195178 0.276305
632 4 0.310597 0.213083 0.263253
30 3 0.32386 0.206095 0.275653
29 3 0.33317 0.218271 0.310043
248 4 0.323554 0.229458 0.322813
28 3 0.327767 0.181202 0.30363
489 4 0.326195 0.161446 0.299306
26 1 0.335498 0.201123 0.294586
27 3 0.357782 0.198774 0.289384
420 4 0.397808 0.183402 0.282644
707 4 0.398211 0.17375 0.301117
706 2 0.383764 0.174821 0.321496
266 4 0.386837 0.231298 0.329828
265 2 0.389987 0.255953 0.332546
418 2 0.419879 0.183258 0.270894
419 4 0.441949 0.183114 0.259144
390 4 0.033844 0.274172 0.29108
300 4 0.0356221 0.285839 0.306916
298 2 0.0445279 0.278809 0.329197
509 4 0.160951 0.286171 0.274463
309 4 0.217929 0.31762 0.253851
497 4 0.230343 0.303306 0.248506
401 4 0.325451 0.328366 0.245687
613 2 0.379844 0.307433 0.317432
614 4 0.365671 0.327961 0.319129
615 4 0.394017 0.286904 0.315736
267 4 0.393137 0.280608 0.335264
603 4 0.00537829 0.350802 0.243097
416 4 0.0145359 0.365498 0.28088
415 2 0.0290045 0.385858 0.282025
417 4 0.043473 0.406218 0.283169
503 4 0.168018 0.342387 0.334832
307 2 0.221776 0.340534 0.244612
308 4 0.225623 0.363447 0.235373
502 2 0.177495 0.359354 0.319102
504 4 0.186973 0.376322 0.303371
768 4 0.205375 0.369023 0.297196
766 2 0.22017 0.386659 0.287435
767 4 0.234965 0.404294 0.277673
303 4 0.250576 0.402594 0.291159
285 4 0.275169 0.383153 0.252246
543 4 0.287436 0.367628 0.253411
541 2 0.298673 0.356409 0.272726
542 4 0.309909 0.345191 0.292041
378 4 0.32399 0.35694 0.300603
376 2 0.338275 0.345496 0.317638
777 4 0.0018079 0.478512 0.31204
547 2 0.0189132 0.438736 0.297941
548 4 0.0274061 0.417547 0.287738
549 4 0.0104203 0.459924 0.308144
775 2 0.0168332 0.496318 0.321116
1555 2 0.191391 0.478139 0.313851
1556 4 0.17922 0.485121 0.293155
1557 4 0.203561 0.471157 0.334546
727 2 0.316176 0.43715 0.26649
728 4 0.291364 0.439079 0.264081
302 4 0.284153 0.438698 0.282808
301 2 0.267365 0.420646 0.286983
2 3 0.286477 0.487207 0.292628
3 3 0.288859 0.473019 0.327351
4 3 0.290676 0.450122 0.297071
1 1 0.296427 0.470956 0.305514
5 3 0.319032 0.473644 0.304838
729 4 0.340989 0.43522 0.2689
434 4 0.356846 0.43994 0.283484
438 4 0.383819 0.489714 0.316591
433 2 0.375267 0.455982 0.278145
435 4 0.393688 0.472024 0.272806
588 4 0.377802 0.427869 0.326132
592 2 0.492437 0.457558 0.258047
2635 2 0.0712387 0.0226539 0.376879
2636 4 0.0673457 0.00314023 0.39202
441 4 0.14899 0.00466901 0.349138
439 2 0.158826 0.00587582 0.372094
2637 4 0.0751317 0.0421676 0.361738
440 4 0.168662 0.00708264 0.39505
1701 4 0.207934 0.0223746 0.330819
604 2 0.207446 0.0250319 0.40479
606 4 0.220938 0.0122911 0.388032
687 4 0.221984 0.081004 0.325748
698 4 0.322522 0.0179228 0.337954
682 2 0.326587 0.0571801 0.376402
684 4 0.30333 0.0620186 0.384205
697 2 0.345785 0.0138852 0.346183
683 4 0.349844 0.0523416 0.3686
1428 4 0.378132 0.999824 0.368374
1426 2 0.402715 0.00191409 0.36431
426 4 0.418891 0.078897 0.386077
258 4 0.422521 0.0983275 0.380907
1427 4 0.427297 0.00400427 0.360246
2744 4 0.460865 0.0737201 0.336434
478 2 0.446145 0.0377086 0.354081
480 4 0.43974 0.0181422 0.36827
424 2 0.415641 0.0815935 0.410721
2880 4 0.479265 0.0878839 0.38564
939 4 0.10064 0.135874 0.365908
937 2 0.107521 0.157505 0.376395
685 2 0.232951 0.0875571 0.347241
598 2 0.183339 0.142794 0.397088
600 4 0.178666 0.121041 0.408497
1180 2 0.20683 0.0887129 0.411771
1182 4 0.189639 0.105222 0.404215
686 4 0.243919 0.0941101 0.368734
405 4 0.338197 0.127228 0.393611
403 2 0.314502 0.121799 0.399463
468 4 0.340909 0.12236 0.373589
256 2 0.419018 0.10915 0.358641
257 4 0.415516 0.119973 0.336375
466 2 0.348519 0.142953 0.361623
467 4 0.356128 0.163547 0.349658
708 4 0.369316 0.175891 0.341875
304 2 0.47397 0.123144 0.402765
306 4 0.474347 0.0982382 0.400588
305 4 0.473593 0.14805 0.404943
269 4 0.472432 0.16652 0.39983
733 2 0.0753293 0.234887 0.34387
721 2 0.00767258 0.211445 0.418721
723 4 0.0270478 0.198914 0.40909
938 4 0.114401 0.179135 0.386881
261 4 0.107124 0.183106 0.404939
731 4 0.155961 0.163214 0.345788
735 4 0.0839898 0.211658 0.340613
599 4 0.188011 0.164547 0.385679
474 4 0.198442 0.169776 0.369415
472 2 0.212858 0.187048 0.358505
473 4 0.227274 0.20432 0.347594
275 4 0.240761 0.20683 0.363475
249 4 0.297424 0.224369 0.365146
247 2 0.310489 0.226914 0.343979
276 4 0.284179 0.225562 0.379744
274 2 0.26247 0.216196 0.37161
299 4 0.0534337 0.27178 0.351478
348 4 0.05553 0.2886 0.396404
734 4 0.0666689 0.258115 0.347128
346 2 0.0590795 0.268033 0.410173
617 4 0.120805 0.310629 0.416876
677 4 0.132768 0.323281 0.40717
676 2 0.153031 0.331095 0.394779
873 4 0.389324 0.259822 0.405076
374 4 0.377351 0.266867 0.390864
373 2 0.359124 0.269216 0.407817
871 2 0.414134 0.256733 0.404744
377 4 0.352559 0.334052 0.334672
872 4 0.438944 0.253644 0.404412
678 4 0.173294 0.338909 0.382388
681 4 0.166365 0.355055 0.371333
679 2 0.183661 0.373101 0.370701
680 4 0.200956 0.391146 0.370069
570 4 0.21085 0.408319 0.375443
568 2 0.228769 0.398215 0.389655
569 4 0.246688 0.38811 0.403868
414 4 0.20597 0.458492 0.350162
412 2 0.215871 0.465203 0.372119
413 4 0.225772 0.471915 0.394076
1821 4 0.223938 0.491032 0.400503
586 2 0.398771 0.438417 0.334747
587 4 0.419739 0.448966 0.343363
752 4 0.432104 0.466296 0.34291
751 2 0.455453 0.457432 0.341712
753 4 0.478802 0.448568 0.340513
3989 4 0.506236 0.447734 0.383215
1773 4 0.00371786 0.0321754 0.444226
4509 4 0.00528559 0.0121018 0.445283
1646 4 0.168629 0.042929 0.490588
1645 2 0.155335 0.0260091 0.503323
605 4 0.193954 0.0377727 0.421547
1181 4 0.224021 0.0722035 0.419327
342 4 0.167593 0.0541515 0.473954
321 4 0.240746 0.0810157 0.424983
340 2 0.178273 0.0546371 0.451351
341 4 0.188952 0.0551226 0.428748
1522 2 0.235692 0.0252214 0.471413
1524 4 0.237177 0.0501795 0.471148
725 4 0.294614 0.0524687 0.447833
724 2 0.296364 0.0671939 0.467965
1818 4 0.290132 0.0396834 0.43205
1816 2 0.309435 0.0257652 0.424379
1817 4 0.328739 0.0118471 0.416708
726 4 0.298114 0.081919 0.488097
1059 4 0.141944 0.0882475 0.488945
404 4 0.290807 0.116371 0.405315
320 4 0.280067 0.111694 0.421315
319 2 0.260406 0.0963546 0.423149
715 2 0.289514 0.165874 0.470207
716 4 0.306726 0.161259 0.452668
431 4 0.308036 0.084871 0.506437
641 4 0.393824 0.147883 0.484041
515 4 0.400392 0.130188 0.476029
514 2 0.411032 0.110106 0.465602
425 4 0.41239 0.08429 0.435366
516 4 0.421671 0.0900247 0.455176
904 2 0.460568 0.146164 0.475945
1218 4 0.490322 0.12515 0.502082
906 4 0.473236 0.132856 0.492903
905 4 0.4479 0.159472 0.458986
327 4 0.0426825 0.220159 0.459852
326 4 0.0402419 0.257884 0.492588
325 2 0.0414622 0.239021 0.47622
259 2 0.0938634 0.199002 0.418962
260 4 0.0806031 0.214899 0.432985
369 4 0.080306 0.235422 0.432399
367 2 0.0984755 0.247662 0.44445
717 4 0.272301 0.170488 0.487746
268 2 0.476535 0.183518 0.417702
270 4 0.480639 0.200516 0.435574
575 4 0.446778 0.247851 0.473871
574 2 0.431509 0.247027 0.493654
584 4 0.475648 0.216619 0.443054
583 2 0.458628 0.232022 0.433142
585 4 0.441608 0.247425 0.423229
347 4 0.062629 0.247466 0.423942
1151 4 0.135337 0.256538 0.449771
368 4 0.116645 0.259901 0.456502
618 4 0.103147 0.316789 0.463255
616 2 0.111976 0.313709 0.440065
1150 2 0.146345 0.253718 0.472044
711 4 0.324161 0.268087 0.434422
772 2 0.269069 0.328016 0.484422
709 2 0.311201 0.287272 0.443862
710 4 0.29824 0.306458 0.453302
239 4 0.308117 0.323313 0.458135
773 4 0.281266 0.336396 0.464268
375 4 0.340896 0.271565 0.424771
812 4 0.49908 0.291153 0.486812
500 4 0.0660037 0.417514 0.44899
936 4 0.133192 0.405626 0.430085
934 2 0.109828 0.407635 0.438762
668 4 0.252702 0.372245 0.415617
240 4 0.322194 0.371043 0.463069
238 2 0.315156 0.347178 0.460602
669 4 0.264606 0.343996 0.455126
667 2 0.258654 0.358121 0.435371
335 4 0.336906 0.382285 0.458315
334 2 0.34882 0.390702 0.478623
336 4 0.360733 0.399118 0.498931
501 4 0.0221283 0.426889 0.471075
499 2 0.044066 0.422201 0.460032
935 4 0.0864643 0.409643 0.447438
634 2 0.206841 0.49787 0.487476
635 4 0.205619 0.473447 0.49269
882 4 0.326015 0.477144 0.437968
881 4 0.336942 0.429134 0.446708
880 2 0.331478 0.453139 0.442338
1401 4 0.425924 0.479827 0.491109
4383 4 0.488999 0.462836 0.443458
4381 2 0.493973 0.461724 0.41898
561 4 0.415841 0.480189 0.47328
1081 2 0.0399762 0.0655186 0.521202
1126 2 0.0457672 0.0104514 0.507026
1083 4 0.0415917 0.040764 0.518075
1128 4 0.0281308 0.0280623 0.509024
2586 4 0.126373 0.01439 0.504957
1647 4 0.14204 0.00908931 0.516057
410 4 0.154634 0.0943003 0.502777
2584 2 0.104455 0.00241557 0.506131
1782 4 0.274383 0.012052 0.572085
1780 2 0.266358 0.00906847 0.548593
432 4 0.276837 0.0897415 0.545214
1061 4 0.394911 0.00942514 0.546386
1060 2 0.417067 0.0207825 0.548685
4227 4 0.452192 0.0197484 0.565682
1062 4 0.439224 0.0321398 0.550984
90 3 0.432343 0.0500692 0.54407
3159 4 0.46156 0.0334415 0.543473
3157 2 0.48611 0.0359858 0.539473
88 3 0.448345 0.0763802 0.565734
86 1 0.436714 0.07233 0.546069
89 3 0.416858 0.0843354 0.545993
4225 2 0.459218 0.0101399 0.58767
1082 4 0.0383607 0.0902731 0.524329
852 4 0.053073 0.0968878 0.537965
850 2 0.0730526 0.109955 0.530532
851 4 0.0930321 0.123022 0.5231
1270 2 0.140826 0.162085 0.573666
1271 4 0.115851 0.161973 0.57485
1058 4 0.108499 0.118769 0.510173
1057 2 0.125222 0.103508 0.499559
1272 4 0.165801 0.162196 0.572481
858 4 0.171137 0.157568 0.553702
963 4 0.221264 0.100192 0.574505
790 2 0.229429 0.122114 0.556465
791 4 0.208672 0.116034 0.569008
411 4 0.201018 0.0894403 0.520822
409 2 0.177826 0.0918703 0.511799
430 2 0.292437 0.0873063 0.525826
792 4 0.250186 0.128195 0.543921
1155 4 0.268438 0.137945 0.546099
1153 2 0.285526 0.154405 0.553989
642 4 0.367356 0.134333 0.524247
841 2 0.353933 0.149299 0.563301
842 4 0.36192 0.135541 0.544011
640 2 0.38059 0.141108 0.504144
87 3 0.449595 0.0791497 0.528272
1025 4 0.413828 0.10175 0.55685
1217 4 0.467143 0.0883562 0.526774
1216 2 0.478733 0.106753 0.514428
1200 4 0.105635 0.179044 0.579513
1221 4 0.155008 0.239952 0.511601
856 2 0.185129 0.167645 0.535595
857 4 0.199121 0.177721 0.517488
898 2 0.310555 0.206584 0.567595
1154 4 0.302615 0.170864 0.561879
900 4 0.32757 0.224873 0.56868
899 4 0.29354 0.188294 0.56651
1194 4 0.336864 0.242482 0.566761
1034 4 0.0791913 0.276067 0.527924
1033 2 0.0918919 0.297571 0.529139
1035 4 0.104592 0.319074 0.530355
1178 4 0.114863 0.321556 0.547296
1177 2 0.133982 0.323822 0.563249
1179 4 0.153101 0.326088 0.579203
1152 4 0.157352 0.250897 0.494316
1220 4 0.191797 0.260404 0.5386
695 4 0.20361 0.266533 0.55279
694 2 0.218497 0.282808 0.564567
1219 2 0.173403 0.250178 0.525101
696 4 0.233384 0.299082 0.576344
1212 4 0.248906 0.287047 0.570609
802 2 0.261761 0.283723 0.521893
803 4 0.270236 0.260245 0.523355
804 4 0.253286 0.307201 0.52043
774 4 0.256871 0.319637 0.504576
1192 2 0.35643 0.257319 0.562048
1193 4 0.375996 0.272155 0.557335
650 4 0.376145 0.278503 0.538548
649 2 0.398573 0.27171 0.529829
651 4 0.421001 0.264917 0.52111
576 4 0.416241 0.246203 0.513437
3354 4 0.0687431 0.386207 0.551011
3352 2 0.0907054 0.387897 0.539179
3353 4 0.112668 0.389587 0.527348
406 2 0.144238 0.406328 0.55337
408 4 0.129259 0.392239 0.539146
889 2 0.224017 0.374951 0.562599
890 4 0.239429 0.373671 0.542952
891 4 0.208605 0.376231 0.582246
1454 4 0.361621 0.409837 0.514693
2138 4 0.0769599 0.453973 0.555652
2137 2 0.0793863 0.477732 0.563056
1161 4 0.0925771 0.451536 0.543804
1159 2 0.111657 0.446554 0.528432
1160 4 0.130738 0.441571 0.51306
384 4 0.15016 0.439407 0.506339
382 2 0.170912 0.453343 0.505766
407 4 0.159216 0.420417 0.567594
1173 4 0.170228 0.426558 0.583468
383 4 0.191663 0.46728 0.505194
2221 2 0.240872 0.494996 0.560094
2223 4 0.242494 0.491279 0.535422
2435 4 0.256515 0.50483 0.533239
1400 4 0.397723 0.452506 0.522077
1453 2 0.370031 0.433154 0.517971
1455 4 0.378441 0.456471 0.52125
1002 4 0.349843 0.470517 0.567452
1399 2 0.411823 0.466166 0.506593
926 4 0.344118 0.461903 0.584399
1000 2 0.361795 0.490713 0.558824
2049 4 0.0247976 0.0555959 0.652392
2047 2 0.0263778 0.0361126 0.636801
2048 4 0.0279579 0.0166293 0.62121
863 4 0.0258553 0.0639959 0.671969
2132 4 0.23047 0.0594308 0.628117
2131 2 0.242863 0.069705 0.647249
962 4 0.221767 0.064919 0.609949
3426 4 0.404208 0.997845 0.668949
1262 4 0.417225 0.0818228 0.66628
3424 2 0.386376 0.014516 0.663537
1261 2 0.410672 0.0851894 0.642386
3425 4 0.368544 0.0311865 0.658126
3401 4 0.492161 0.0164486 0.644264
3180 4 0.00431864 0.156854 0.640158
1227 4 0.149474 0.130083 0.66234
961 2 0.221516 0.0825557 0.592227
887 4 0.315251 0.119629 0.645188
1031 4 0.330142 0.133139 0.642441
1030 2 0.33703 0.147443 0.623125
886 2 0.315637 0.102651 0.663539
843 4 0.345946 0.163057 0.582591
1032 4 0.343918 0.161748 0.603809
1263 4 0.40412 0.088556 0.618492
1024 2 0.406017 0.101487 0.580601
1026 4 0.398206 0.101224 0.604352
3007 2 0.456834 0.0988915 0.664348
3008 4 0.472965 0.109918 0.648747
3356 4 0.482438 0.127731 0.647446
1198 2 0.0841607 0.175905 0.591931
1199 4 0.0626867 0.172767 0.604348
1282 2 0.153223 0.248301 0.648824
1136 4 0.205549 0.221147 0.631437
1135 2 0.214152 0.242964 0.640106
1131 4 0.251852 0.216196 0.657188
798 4 0.264452 0.22493 0.643243
1129 2 0.264641 0.203262 0.674344
831 4 0.380675 0.241995 0.655044
1209 4 0.0494526 0.319034 0.654778
1284 4 0.138384 0.261248 0.633417
1258 2 0.118826 0.296942 0.641722
1260 4 0.127733 0.273771 0.644714
1259 4 0.109919 0.320113 0.63873
1067 4 0.122289 0.332184 0.62914
7 3 0.216575 0.284305 0.645389
1137 4 0.222756 0.264782 0.648774
10 3 0.213456 0.316511 0.663988
6 1 0.226129 0.304909 0.649041
9 3 0.22712 0.316394 0.628903
1210 2 0.266721 0.283271 0.587742
797 4 0.281947 0.265008 0.618985
1211 4 0.284537 0.279495 0.604875
796 2 0.273199 0.244969 0.631114
1007 4 0.347093 0.283884 0.61062
1006 2 0.343777 0.308517 0.613341
1008 4 0.340461 0.33315 0.616063
3264 4 0.00762819 0.360633 0.578358
3262 2 0.0294464 0.354321 0.588813
3263 4 0.0512646 0.348008 0.599268
1207 2 0.0549036 0.335033 0.636354
1208 4 0.0603547 0.351033 0.617929
1066 2 0.135692 0.351404 0.637863
1068 4 0.149095 0.370625 0.646586
897 4 0.132978 0.378472 0.65588
895 2 0.130124 0.402116 0.663497
1395 4 0.213183 0.329439 0.630052
1394 4 0.203849 0.368471 0.600218
1393 2 0.208516 0.348955 0.615135
807 4 0.346242 0.350661 0.624798
806 4 0.351711 0.395888 0.64542
805 2 0.348977 0.373274 0.635109
930 4 0.353926 0.40523 0.663961
1239 4 0.447802 0.349462 0.673065
953 4 0.465691 0.385788 0.628296
952 2 0.457742 0.377777 0.650608
1010 4 0.463121 0.394541 0.609349
1009 2 0.452692 0.417261 0.609855
954 4 0.449793 0.369766 0.67292
2139 4 0.0818126 0.50149 0.57046
2222 4 0.239249 0.498713 0.584767
1190 4 0.212115 0.424223 0.634938
1171 2 0.186575 0.430272 0.60202
1172 4 0.202921 0.433986 0.620572
1189 2 0.205848 0.430026 0.658438
928 2 0.366822 0.420551 0.648989
927 4 0.378239 0.442605 0.615449
929 4 0.379718 0.435871 0.634016
925 2 0.361179 0.452254 0.599924
663 4 0.400552 0.465362 0.634369
661 2 0.405011 0.48938 0.6397
1011 4 0.442264 0.43998 0.61036
862 2 0.0397921 0.0840777 0.677229
909 4 0.130579 0.0373376 0.674061
907 2 0.133371 0.0620616 0.67159
944 4 0.12936 0.0248989 0.688126
943 2 0.14979 0.0142858 0.697881
2256 4 0.189964 0.000176582 0.709241
945 4 0.17022 0.00367271 0.707636
2133 4 0.255256 0.0799791 0.666381
888 4 0.316022 0.0856721 0.68189
1004 4 0.406279 0.0418894 0.712701
1003 2 0.400885 0.0186964 0.720328
44 3 0.411464 0.0657529 0.677246
42 3 0.422961 0.0516121 0.710118
2322 4 0.486723 0.00683153 0.72973
3400 2 0.49281 0.0210279 0.668836
41 1 0.425046 0.0694146 0.6957
3402 4 0.49346 0.0256072 0.693408
43 3 0.447203 0.0711006 0.689018
808 2 0.496912 0.0919613 0.713936
845 4 0.480923 0.996984 0.745387
3477 4 0.00598077 0.17141 0.698042
864 4 0.0537289 0.104159 0.682489
1077 4 0.0679341 0.102629 0.669335
1075 2 0.0913139 0.105079 0.677853
1076 4 0.114694 0.10753 0.686371
908 4 0.136164 0.0867855 0.669119
1225 2 0.165715 0.133555 0.681031
1226 4 0.181955 0.137027 0.699723
978 4 0.197997 0.144539 0.691265
824 4 0.247099 0.0975716 0.674068
976 2 0.204708 0.163128 0.706581
840 4 0.291073 0.133783 0.702559
825 4 0.282153 0.115656 0.704807
823 2 0.264626 0.106614 0.689437
838 2 0.289698 0.156038 0.691247
45 3 0.418675 0.0884972 0.706373
2300 4 0.362594 0.123794 0.754177
3009 4 0.440702 0.0878654 0.679948
1143 4 0.420383 0.105241 0.695242
1141 2 0.41861 0.129924 0.691665
1142 4 0.416838 0.154607 0.688089
810 4 0.495975 0.106502 0.693617
1113 4 0.45874 0.0906006 0.750561
1283 4 0.168061 0.235354 0.66423
977 4 0.211418 0.181717 0.721898
1278 4 0.219414 0.19529 0.735717
1276 2 0.238404 0.209612 0.728007
1130 4 0.277431 0.190327 0.691499
839 4 0.288323 0.178294 0.679934
1277 4 0.257395 0.223934 0.720297
829 2 0.392202 0.226106 0.670531
830 4 0.403729 0.210217 0.686018
801 4 0.350841 0.242237 0.725322
50 3 0.415949 0.204129 0.701645
49 3 0.417365 0.166553 0.703577
48 3 0.448414 0.186473 0.694436
46 1 0.429008 0.186303 0.707155
47 3 0.434687 0.187661 0.729404
1306 2 0.473649 0.205457 0.737838
1308 4 0.450733 0.199836 0.729564
1307 4 0.496565 0.211078 0.746111
821 4 0.050491 0.305977 0.669771
820 2 0.0263553 0.303958 0.675981
822 4 0.00221956 0.301939 0.682192
3045 4 0.997071 0.281844 0.682517
816 4 0.103915 0.298941 0.712533
1121 4 0.114985 0.315698 0.708316
814 2 0.108626 0.290358 0.73554
8 3 0.247527 0.301865 0.657484
916 2 0.306702 0.278589 0.726226
918 4 0.287943 0.26237 0.729424
917 4 0.32546 0.294809 0.723028
799 2 0.364857 0.261177 0.716955
1166 4 0.382026 0.288614 0.726016
1165 2 0.402878 0.300913 0.719763
800 4 0.378873 0.280117 0.708587
969 4 0.343031 0.247253 0.744527
1238 4 0.426498 0.309699 0.694645
1167 4 0.423731 0.313211 0.713511
1237 2 0.43715 0.329581 0.683855
893 4 0.0200821 0.377811 0.721023
1039 2 0.0433903 0.40207 0.738069
1041 4 0.0221752 0.389051 0.735703
1040 4 0.0646054 0.41509 0.740434
1120 2 0.128059 0.336653 0.712208
1122 4 0.141132 0.357608 0.7161
948 4 0.153962 0.355243 0.731473
947 4 0.194963 0.383843 0.730175
946 2 0.174462 0.369543 0.730824
1029 4 0.327411 0.351542 0.728923
2175 4 0.281918 0.414406 0.67903
1064 4 0.308776 0.355608 0.731632
1027 2 0.34724 0.353772 0.713856
1028 4 0.36707 0.356001 0.69879
1230 4 0.379891 0.367412 0.6875
1228 2 0.393903 0.383874 0.700065
1020 4 0.413816 0.415398 0.723364
1229 4 0.407914 0.400335 0.71263
1187 4 0.0677953 0.504536 0.695247
992 4 0.0661455 0.428363 0.725109
896 4 0.12727 0.425759 0.671114
991 2 0.0853777 0.441335 0.734438
993 4 0.10461 0.454308 0.743766
1175 4 0.182021 0.491511 0.696426
2028 4 0.170854 0.501809 0.683039
1191 4 0.199581 0.43583 0.681937
1174 2 0.190407 0.468022 0.698186
1176 4 0.198794 0.444533 0.699945
2174 4 0.296713 0.438703 0.720157
1903 2 0.276456 0.474764 0.73788
1904 4 0.290959 0.458601 0.725486