ITEM: TIMESTEP
2480000
ITEM: NUMBER OF ATOMS
4590
ITEM: BOX BOUNDS pp pp pp
-9.9985700000000008e+00 9.9985700000000008e+00
-9.9985700000000008e+00 9.9985700000000008e+00
-9.9985700000000008e+00 9.9985700000000008e+00
ITEM: ATOMS id type xs ys zs
2422 2 0.054264 0.0185286 0.0299619
2424 4 0.0434442 0.0375817 0.0179165
370 2 0.0224498 0.081158 0.0465936
2423 4 0.0650837 0.999475 0.0420072
372 4 0.00588101 0.0761329 0.0285547
1231 2 0.1682 0.0710329 0.0747884
1232 4 0.174346 0.0472203 0.070276
421 2 0.172413 0.0293768 0.0388119
422 4 0.17362 0.0522424 0.0488562
423 4 0.171205 0.00651126 0.0287677
567 4 0.279637 0.0559579 0.0255563
565 2 0.292817 0.0768684 0.0217848
1252 2 0.327702 0.0124459 0.06012
758 4 0.396192 0.0690703 0.0483663
1827 4 0.415057 0.0675063 0.0405428
168 3 0.432701 0.0118917 0.0129174
1825 2 0.416173 0.0444857 0.0308481
1826 4 0.417288 0.0214652 0.0211534
1108 2 0.458077 0.0175206 0.0621073
1926 4 0.50188 0.0711269 0.0578513
1109 4 0.462619 0.0382818 0.0752801
2886 4 0.507243 0.0279403 0.0046312
371 4 0.0390186 0.086183 0.0646325
3233 4 0.0359124 0.1044 0.0733061
490 2 0.246477 0.16159 0.0336727
492 4 0.26658 0.158551 0.048226
566 4 0.305997 0.0977788 0.0180134
2163 4 0.30975 0.116978 0.0236341
2161 2 0.297383 0.137002 0.0320749
2162 4 0.285016 0.157027 0.0405158
55 3 0.271437 0.16937 0.064637
757 2 0.38568 0.0917567 0.0482476
759 4 0.375169 0.114443 0.0481289
556 2 0.471978 0.122075 0.0148679
558 4 0.479547 0.141324 0.0289166
491 4 0.226373 0.164629 0.0191193
933 4 0.193767 0.239825 0.066436
931 2 0.206943 0.218584 0.0657793
932 4 0.220119 0.197344 0.0651227
4212 4 0.247755 0.230877 0.0545654
4211 4 0.268972 0.199995 0.0214474
4210 2 0.258363 0.215436 0.0380064
53 3 0.261 0.201384 0.0814851
51 1 0.26945 0.180011 0.0846742
250 2 0.32733 0.188002 0.0831177
251 4 0.309835 0.186467 0.100916
1303 2 0.323418 0.201226 0.0179684
252 4 0.344824 0.189537 0.0653196
665 4 0.332578 0.227565 0.0563346
1305 4 0.343157 0.212659 0.0282071
664 2 0.345985 0.24863 0.0550381
968 4 0.407821 0.206015 0.0123235
765 4 0.476746 0.172693 0.0820646
763 2 0.4555 0.185822 0.0808749
960 4 0.186489 0.254878 0.0554376
958 2 0.189663 0.266171 0.0333562
959 4 0.192837 0.277463 0.0112749
352 2 0.251665 0.26414 0.0810539
353 4 0.271081 0.275398 0.0700352
387 4 0.273324 0.290424 0.0578333
385 2 0.282636 0.309795 0.0706092
323 4 0.364205 0.285068 0.0411978
322 2 0.36145 0.306068 0.0279103
666 4 0.359392 0.269695 0.0537417
324 4 0.358696 0.327069 0.0146228
1046 4 0.454109 0.2584 0.0648083
1045 2 0.456572 0.282318 0.0716678
454 2 0.0709589 0.40552 0.0302371
456 4 0.046993 0.412647 0.0300861
455 4 0.0949248 0.398394 0.0303881
293 4 0.144245 0.346398 0.0115107
1104 4 0.134215 0.362705 0.00552625
1102 2 0.114028 0.37716 0.00848429
1103 4 0.0938422 0.391615 0.0114423
292 2 0.163453 0.356859 0.0236265
294 4 0.182661 0.36732 0.0357422
955 2 0.212351 0.405638 0.0087808
957 4 0.190803 0.403478 0.996284
956 4 0.2339 0.407798 0.0212779
272 4 0.302819 0.402438 0.0515302
1094 4 0.318486 0.368182 0.00276816
386 4 0.291949 0.329166 0.0833851
783 4 0.294447 0.406055 0.0344288
781 2 0.27144 0.414191 0.0289819
2873 4 0.0437301 0.426377 0.0442415
2872 2 0.036978 0.424909 0.0682713
1710 4 0.0479969 0.470044 0.0480594
1692 4 0.135897 0.458432 0.00391322
637 2 0.198961 0.454948 0.0631375
1779 4 0.19315 0.482968 0.0477957
639 4 0.188254 0.464316 0.0425757
271 2 0.318084 0.417482 0.0644077
782 4 0.248433 0.422327 0.023535
273 4 0.333349 0.432526 0.0772853
2568 4 0.348065 0.434403 0.062122
2567 4 0.388364 0.462031 0.0514712
2566 2 0.368215 0.448217 0.0567966
2289 4 0.403151 0.473936 0.0526451
2287 2 0.399711 0.492264 0.0359889
494 4 0.489715 0.486254 0.0789787
701 4 0.00630371 0.0516122 0.0844028
700 2 0.996282 0.0321693 0.0965151
2480 4 0.0636619 0.0595958 0.150979
2479 2 0.0388398 0.0566411 0.151539
2481 4 0.0140178 0.0536865 0.152099
3835 2 0.3192 0.0362106 0.12118
3836 4 0.31015 0.0407719 0.144037
3837 4 0.328249 0.0316493 0.0983218
1023 4 0.258893 0.0902955 0.130742
1253 4 0.33192 0.0280118 0.0792272
1759 2 0.412161 0.0881024 0.152722
3232 2 0.0537866 0.112013 0.089046
3234 4 0.0716608 0.119625 0.104786
577 2 0.0842898 0.0873646 0.148814
360 4 0.174175 0.146772 0.075936
578 4 0.0893672 0.110019 0.158096
546 4 0.0963318 0.128458 0.15982
1233 4 0.162054 0.0948455 0.0793007
358 2 0.167297 0.125412 0.0869655
359 4 0.16042 0.104052 0.0979951
690 4 0.183023 0.160789 0.138845
1022 4 0.30867 0.0944403 0.133132
1021 2 0.283781 0.0923679 0.131937
582 4 0.311214 0.102602 0.114962
1761 4 0.4015 0.105032 0.137725
580 2 0.332938 0.11496 0.114229
581 4 0.354661 0.127319 0.113495
295 2 0.483988 0.145211 0.150206
297 4 0.487499 0.122167 0.159252
30 3 0.489265 0.103302 0.167026
554 4 0.0686794 0.200598 0.137848
299 4 0.0688829 0.213834 0.12071
298 2 0.0700763 0.233668 0.105532
300 4 0.0712696 0.253502 0.0903543
553 2 0.0606151 0.206394 0.160795
249 4 0.202114 0.153371 0.140279
247 2 0.222095 0.15549 0.125398
248 4 0.242075 0.157609 0.110517
354 4 0.232248 0.252881 0.0920727
688 2 0.17202 0.168269 0.160014
52 3 0.254974 0.168219 0.0981116
54 3 0.290139 0.181149 0.0951195
357 4 0.286768 0.252203 0.151425
255 4 0.418356 0.216182 0.142951
628 2 0.426119 0.224884 0.111664
629 4 0.422295 0.233395 0.134862
296 4 0.480477 0.168255 0.141161
2681 4 0.495843 0.173011 0.0883497
630 4 0.429942 0.216374 0.0884667
764 4 0.434254 0.198951 0.0796851
363 4 0.0693481 0.272075 0.0819471
361 2 0.0796445 0.290282 0.0956459
362 4 0.0899409 0.308489 0.109345
738 4 0.107875 0.312297 0.101622
736 2 0.118656 0.334823 0.10285
740 4 0.224455 0.259266 0.1083
245 4 0.177116 0.285438 0.148676
741 4 0.186054 0.281545 0.131316
739 2 0.205255 0.270406 0.119808
338 4 0.249655 0.292674 0.152759
356 4 0.246874 0.278701 0.137038
522 4 0.319854 0.26799 0.120403
355 2 0.266821 0.265452 0.144232
520 2 0.333939 0.25496 0.136433
302 4 0.381786 0.335553 0.105822
660 4 0.394489 0.325229 0.0938309
521 4 0.348025 0.24193 0.152464
658 2 0.417614 0.320329 0.0856846
659 4 0.44074 0.315428 0.0775382
1047 4 0.459035 0.306236 0.0785273
1776 4 0.062934 0.36433 0.125516
1774 2 0.0523891 0.385918 0.13244
1775 4 0.0418442 0.407506 0.139365
646 2 0.140843 0.376612 0.13115
737 4 0.129438 0.357349 0.104077
647 4 0.121295 0.370794 0.116685
648 4 0.16039 0.382429 0.145614
524 4 0.164606 0.39949 0.155425
507 4 0.319816 0.425006 0.16877
303 4 0.375636 0.383646 0.0935792
497 4 0.391115 0.395009 0.0893974
301 2 0.378711 0.3596 0.0997006
496 2 0.408498 0.406024 0.103598
2874 4 0.0302258 0.423441 0.0923012
537 4 0.0788325 0.490964 0.0891506
314 4 0.0444849 0.477551 0.145953
313 2 0.0459923 0.500338 0.135771
2618 4 0.046213 0.480084 0.164954
535 2 0.100811 0.488928 0.100897
536 4 0.12279 0.486892 0.112643
638 4 0.209667 0.44558 0.0836994
523 2 0.175683 0.42177 0.152957
914 4 0.187218 0.463225 0.146818
913 2 0.209962 0.468049 0.13762
915 4 0.232706 0.472873 0.128421
756 4 0.248075 0.478163 0.117798
525 4 0.186759 0.44405 0.150488
754 2 0.272271 0.472039 0.119299
755 4 0.296466 0.465915 0.120799
1575 4 0.306668 0.482667 0.115366
542 4 0.424034 0.479607 0.140848
608 4 0.406282 0.482879 0.148474
541 2 0.419864 0.456147 0.13327
543 4 0.415693 0.432688 0.125692
498 4 0.425882 0.41704 0.117798
712 2 0.477991 0.440485 0.140657
714 4 0.484253 0.457489 0.123428
493 2 0.496638 0.472905 0.0989549
579 4 0.0792125 0.0647099 0.139531
380 4 0.0176407 0.0397927 0.23043
589 2 0.0504654 0.0268195 0.236561
590 4 0.0269331 0.0298909 0.244434
379 2 0.00643299 0.0605131 0.22205
591 4 0.0739977 0.0237482 0.228689
3810 4 0.0824097 0.0377159 0.215854
3809 4 0.130702 0.0460127 0.225841
3808 2 0.106556 0.0418643 0.220847
1504 2 0.244979 0.00721953 0.172464
1505 4 0.251072 0.0299354 0.180951
461 4 0.260292 0.0299692 0.199097
460 2 0.276724 0.0463499 0.208416
2768 4 0.297385 0.076182 0.232782
462 4 0.293156 0.0627307 0.217734
1427 4 0.332192 0.0271003 0.24722
1540 2 0.392894 0.0278163 0.214148
1541 4 0.374563 0.0377617 0.227942
1542 4 0.411225 0.0178709 0.200355
333 4 0.361683 0.0524861 0.225185
331 2 0.344623 0.0639241 0.210927
2469 4 0.496182 0.0550197 0.171554
742 2 0.442824 0.0580769 0.197942
744 4 0.433849 0.0766328 0.183789
1760 4 0.422822 0.071173 0.16772
743 4 0.451799 0.039521 0.212095
23 3 0.450605 0.0206413 0.205186
22 3 0.43745 0.0111531 0.17128
544 2 0.102995 0.147095 0.175098
2767 2 0.30455 0.100133 0.232314
2769 4 0.311714 0.124083 0.231846
404 4 0.331388 0.124533 0.229254
332 4 0.327562 0.0753622 0.196669
403 2 0.337705 0.140659 0.247287
405 4 0.344021 0.156786 0.265321
707 4 0.469139 0.147549 0.238947
555 4 0.0525508 0.21219 0.183741
2834 4 0.0379535 0.225776 0.186424
2833 2 0.0293042 0.242937 0.20242
2898 4 0.00889918 0.234613 0.238285
545 4 0.109658 0.165733 0.190376
617 4 0.105438 0.168463 0.209829
616 2 0.104455 0.166465 0.234733
1700 4 0.175089 0.18121 0.193945
689 4 0.161017 0.175749 0.181184
1699 2 0.179666 0.174373 0.217556
1701 4 0.184242 0.167535 0.241167
410 4 0.203301 0.159008 0.24059
623 4 0.294144 0.239854 0.163398
622 2 0.301694 0.229914 0.185063
526 2 0.29841 0.203884 0.233613
527 4 0.292122 0.222471 0.218115
624 4 0.309243 0.219974 0.206728
528 4 0.304697 0.185298 0.249111
706 2 0.478586 0.169782 0.232498
254 4 0.42919 0.221936 0.19143
253 2 0.423773 0.219059 0.167191
761 4 0.44777 0.231507 0.191569
760 2 0.463597 0.220114 0.207218
762 4 0.479424 0.208721 0.222866
708 4 0.488034 0.192016 0.22605
2835 4 0.0206549 0.260098 0.218415
2718 4 0.0307083 0.275106 0.22777
2716 2 0.0497008 0.278837 0.243599
244 2 0.182587 0.300836 0.167601
337 2 0.243835 0.307556 0.17199
339 4 0.238015 0.322438 0.191221
246 4 0.188057 0.316233 0.186527
477 4 0.181557 0.334803 0.242202
13 3 0.314899 0.283528 0.182793
11 1 0.336169 0.2778 0.190085
12 3 0.334289 0.264015 0.208404
15 3 0.347357 0.266829 0.173559
641 4 0.349904 0.265386 0.220518
14 3 0.347845 0.296888 0.196228
612 4 0.34572 0.316269 0.187514
640 2 0.360126 0.260875 0.242887
620 4 0.999886 0.400453 0.228443
703 2 0.0429894 0.40488 0.232693
705 4 0.0654397 0.414484 0.238071
735 4 0.0710564 0.433992 0.233713
704 4 0.0205391 0.395276 0.227315
1619 4 0.188624 0.368594 0.178056
1620 4 0.228174 0.338807 0.18507
1618 2 0.208399 0.3537 0.181563
344 4 0.233301 0.396231 0.240838
343 2 0.248482 0.415891 0.243703
401 4 0.183261 0.355476 0.242646
610 2 0.362054 0.334732 0.183326
611 4 0.378387 0.353194 0.179138
308 4 0.375847 0.368162 0.191986
307 2 0.383429 0.388913 0.203694
309 4 0.391011 0.409664 0.215403
1455 4 0.392486 0.411617 0.235573
2528 4 0.0385442 0.499025 0.218957
2617 2 0.0424685 0.480023 0.189675
2619 4 0.038724 0.479961 0.214397
733 2 0.0895975 0.436454 0.21712
734 4 0.108138 0.438917 0.200526
1767 4 0.119057 0.455431 0.202493
1765 2 0.125718 0.47949 0.201088
505 2 0.3108 0.439196 0.187277
287 4 0.313061 0.469015 0.211238
506 4 0.301783 0.453387 0.205784
345 4 0.263663 0.43555 0.246568
286 2 0.334354 0.474286 0.223238
288 4 0.355647 0.479556 0.235239
231 4 0.346387 0.485344 0.252117
713 4 0.471729 0.423481 0.157885
19 3 0.01436 0.075254 0.298141
723 4 0.0201756 0.0690177 0.281258
285 4 0.137076 0.063789 0.274458
674 4 0.130716 0.0825869 0.27413
283 2 0.157214 0.0532899 0.263998
284 4 0.177351 0.0427908 0.253537
1404 4 0.23044 0.0358214 0.284344
1477 2 0.251564 0.0354338 0.316773
1479 4 0.244333 0.0270268 0.294363
1402 2 0.210442 0.0321118 0.269801
1403 4 0.190444 0.0284023 0.255259
654 4 0.412864 0.9919 0.259684
1426 2 0.337348 0.0372107 0.2695
1428 4 0.342505 0.0473212 0.291779
258 4 0.349046 0.0447617 0.309499
256 2 0.366206 0.0374416 0.326146
652 2 0.421745 0.992849 0.283038
653 4 0.430627 0.993797 0.306391
1730 4 0.463134 0.0512123 0.247657
1729 2 0.469715 0.0299371 0.259025
1731 4 0.476296 0.00866183 0.270393
2664 4 0.504702 0.0197291 0.317121
16 1 0.994491 0.0855678 0.304243
17 3 0.994838 0.0895644 0.326894
721 2 0.0412931 0.0763534 0.270059
722 4 0.0624106 0.0836892 0.25886
512 4 0.0413524 0.118647 0.311243
511 2 0.0655785 0.120388 0.305306
673 2 0.106127 0.0853851 0.270561
513 4 0.0898047 0.122128 0.29937
675 4 0.081538 0.0881833 0.266992
693 4 0.103808 0.133788 0.308404
691 2 0.107424 0.157983 0.303235
730 2 0.16344 0.104951 0.327645
1407 4 0.245601 0.110006 0.283987
1405 2 0.224648 0.106563 0.297189
1406 4 0.203695 0.10312 0.310391
731 4 0.184812 0.110778 0.31605
684 4 0.251815 0.125443 0.29437
409 2 0.216794 0.162843 0.261288
411 4 0.230287 0.166677 0.281986
682 2 0.269092 0.143461 0.292949
683 4 0.28637 0.161479 0.291527
633 4 0.404693 0.148229 0.261872
632 4 0.453676 0.146492 0.251952
631 2 0.429185 0.147361 0.256912
2896 2 0.0230746 0.218074 0.250561
2461 2 0.0688021 0.186065 0.273364
2462 4 0.0514307 0.203699 0.276893
2897 4 0.0372501 0.201535 0.262837
618 4 0.103472 0.164467 0.259637
692 4 0.111041 0.182177 0.298065
2463 4 0.0861734 0.16843 0.269835
489 4 0.229473 0.17255 0.301269
487 2 0.230955 0.194246 0.313608
488 4 0.232437 0.215943 0.325947
474 4 0.305166 0.16852 0.29352
472 2 0.322969 0.184787 0.286915
473 4 0.340772 0.201054 0.28031
310 2 0.404259 0.247886 0.278966
311 4 0.421865 0.250423 0.296538
2717 4 0.0686933 0.282568 0.259428
464 4 0.13654 0.297203 0.271723
465 4 0.0878249 0.286803 0.267321
475 2 0.168093 0.316873 0.253267
463 2 0.112183 0.292003 0.269522
476 4 0.15463 0.298943 0.264332
312 4 0.386652 0.24535 0.261395
642 4 0.370348 0.256364 0.265255
120 3 0.385413 0.307715 0.327949
117 3 0.422422 0.309965 0.323686
752 4 0.426662 0.32919 0.324398
751 2 0.445079 0.335005 0.308518
336 4 0.489876 0.310042 0.330234
392 4 0.0157126 0.367531 0.318246
416 4 0.0703791 0.354183 0.306928
415 2 0.0468059 0.351842 0.314928
417 4 0.0232326 0.349501 0.322928
2296 2 0.082279 0.396909 0.318694
402 4 0.20017 0.375912 0.285039
400 2 0.191716 0.365694 0.263842
412 2 0.235154 0.404297 0.311424
413 4 0.210171 0.403283 0.311582
768 4 0.195696 0.404286 0.298306
438 4 0.265666 0.388985 0.322929
414 4 0.260136 0.40531 0.311266
436 2 0.267329 0.367336 0.335328
1453 2 0.398571 0.417314 0.259146
753 4 0.463496 0.34082 0.292637
2692 2 0.0111453 0.470237 0.264649
2694 4 0.0313934 0.458589 0.255732
408 4 0.0501287 0.45333 0.263549
406 2 0.0607322 0.43708 0.279319
407 4 0.0713357 0.420829 0.295088
2297 4 0.0752728 0.400725 0.294998
727 2 0.164986 0.486358 0.293121
728 4 0.173748 0.46544 0.303649
767 4 0.170492 0.446059 0.309283
766 2 0.183094 0.425172 0.303795
602 4 0.269111 0.437403 0.264823
644 4 0.298963 0.491716 0.27263
603 4 0.304439 0.472587 0.268664
601 2 0.286775 0.454995 0.266744
1454 4 0.404657 0.423012 0.282719
230 4 0.356398 0.486924 0.301086
667 2 0.405635 0.438523 0.315472
229 2 0.351392 0.486134 0.276602
668 4 0.392576 0.446616 0.335199
669 4 0.418695 0.430431 0.295745
2924 4 0.460021 0.489395 0.318724
2923 2 0.481204 0.480993 0.308434
2925 4 0.502386 0.47259 0.298143
318 4 0.120732 0.0766699 0.406923
399 4 0.12725 0.0661406 0.391437
899 4 0.241698 0.0384848 0.347684
898 2 0.240121 0.0429801 0.37223
1059 4 0.234066 0.0526991 0.415913
900 4 0.238544 0.0474754 0.396776
1057 2 0.211361 0.0463557 0.424246
1478 4 0.258796 0.0438407 0.339183
1030 2 0.409887 0.995086 0.337649
1031 4 0.39299 0.0127974 0.342746
257 4 0.383366 0.0301214 0.342793
397 2 0.138363 0.0786037 0.372826
732 4 0.142067 0.0991238 0.339239
398 4 0.149475 0.0910668 0.354215
340 2 0.183664 0.148427 0.397545
341 4 0.19276 0.129044 0.384631
1782 4 0.208394 0.128985 0.397712
1780 2 0.225875 0.114768 0.40855
1781 4 0.243356 0.10055 0.419388
677 4 0.228896 0.232441 0.335954
342 4 0.174568 0.167809 0.410459
588 4 0.175736 0.18271 0.423563
586 2 0.185838 0.205356 0.426764
291 4 0.133249 0.26954 0.378777
1219 2 0.112951 0.299289 0.400331
1220 4 0.130439 0.284649 0.390085
289 2 0.151632 0.279086 0.364773
1221 4 0.0954621 0.31393 0.410578
676 2 0.231909 0.257005 0.33952
389 4 0.224249 0.293674 0.395788
388 2 0.205125 0.293131 0.37969
290 4 0.170015 0.288633 0.350769
390 4 0.186001 0.292588 0.363592
615 4 0.253529 0.308065 0.393533
613 2 0.251899 0.308367 0.418481
678 4 0.234923 0.281569 0.343087
3 3 0.250247 0.292933 0.344708
2 3 0.256032 0.330038 0.346264
5 3 0.263983 0.308852 0.375942
4 3 0.285604 0.306866 0.345181
1 1 0.263995 0.309595 0.353181
650 4 0.331227 0.300735 0.372078
649 2 0.330128 0.300011 0.397047
434 4 0.36887 0.29512 0.32999
435 4 0.326091 0.291182 0.355588
433 2 0.347481 0.293151 0.342789
116 1 0.405253 0.309485 0.338988
118 3 0.408185 0.291209 0.352981
119 3 0.405697 0.329099 0.351378
335 4 0.479771 0.306356 0.379071
334 2 0.484824 0.308199 0.354653
2298 4 0.0892852 0.393092 0.342391
1756 2 0.107654 0.389019 0.372988
1758 4 0.105698 0.382337 0.348974
1757 4 0.109609 0.395701 0.397003
326 4 0.116971 0.412222 0.40586
437 4 0.268991 0.345687 0.347727
446 4 0.280251 0.352395 0.408418
445 2 0.286093 0.374894 0.417628
1742 4 0.408967 0.39045 0.415262
926 4 0.418024 0.332003 0.366669
925 2 0.440338 0.343089 0.364589
927 4 0.462653 0.354176 0.362508
1741 2 0.421402 0.412141 0.415135
1863 4 0.243601 0.468773 0.39514
1862 4 0.202705 0.441229 0.386802
1861 2 0.223153 0.455001 0.390971
1437 4 0.3903 0.440169 0.352946
1436 4 0.355689 0.474279 0.364749
1435 2 0.372994 0.457224 0.358847
1473 4 0.417848 0.49014 0.388056
1743 4 0.433838 0.433833 0.415009
1472 4 0.44221 0.450268 0.405874
1471 2 0.430029 0.470204 0.396965
2238 4 0.147351 0.00552313 0.416201
316 2 0.117989 0.0603074 0.425629
1772 4 0.0897563 0.00124766 0.453511
1771 2 0.11053 0.00566169 0.440314
317 4 0.115246 0.0439449 0.444336
1773 4 0.131303 0.0100757 0.427117
687 4 0.0819869 0.00701641 0.471376
685 2 0.0921649 0.0165499 0.492129
2236 2 0.168814 0.0128712 0.426716
2237 4 0.190277 0.0202192 0.43723
1058 4 0.188656 0.0400122 0.432579
319 2 0.262945 0.0856726 0.4452
320 4 0.267409 0.0829118 0.469646
1152 4 0.256067 0.079387 0.485181
306 4 0.457713 0.0811562 0.455041
304 2 0.463138 0.0746933 0.478578
715 2 0.496639 0.0816362 0.430544
717 4 0.476173 0.0839907 0.444713
305 4 0.468564 0.0682304 0.502115
1128 4 0.0126661 0.0736747 0.469147
1033 2 0.0369821 0.109357 0.46588
1034 4 0.0190808 0.093134 0.472324
1035 4 0.0548835 0.125581 0.459436
321 4 0.25848 0.0884334 0.420754
383 4 0.056833 0.211575 0.45423
382 2 0.0779077 0.222839 0.46159
508 2 0.127901 0.225988 0.498042
384 4 0.0989823 0.234103 0.468949
510 4 0.106675 0.225484 0.484838
587 4 0.195941 0.228003 0.429966
431 4 0.200679 0.246125 0.435068
430 2 0.209036 0.246859 0.458622
432 4 0.217394 0.247593 0.482176
3157 2 0.342857 0.195501 0.499814
3159 4 0.34448 0.205278 0.476858
468 4 0.354433 0.20582 0.460519
466 2 0.35795 0.230529 0.459006
267 4 0.430579 0.21491 0.491771
265 2 0.448191 0.19741 0.488814
954 4 0.48379 0.187825 0.485632
266 4 0.465803 0.17991 0.485857
3107 4 0.108204 0.316866 0.427024
3106 2 0.105814 0.335651 0.443351
575 4 0.15034 0.294602 0.459178
576 4 0.183678 0.311863 0.492214
574 2 0.167009 0.303233 0.475696
569 4 0.198818 0.247277 0.490082
614 4 0.25027 0.30867 0.44343
811 2 0.307848 0.28909 0.458575
813 4 0.296616 0.290264 0.480883
240 4 0.24317 0.311559 0.461502
636 4 0.308657 0.277068 0.490274
812 4 0.31908 0.287916 0.436267
651 4 0.329029 0.299287 0.422016
238 2 0.254813 0.324821 0.479215
467 4 0.361467 0.255238 0.457493
378 4 0.37943 0.254509 0.449681
376 2 0.391845 0.276147 0.451364
377 4 0.404259 0.297785 0.453047
3308 4 0.4218 0.300987 0.4448
3307 2 0.440243 0.312524 0.432473
3309 4 0.458686 0.32406 0.420147
1382 4 0.0102127 0.353481 0.42787
852 4 0.091871 0.370305 0.462535
3108 4 0.103425 0.354437 0.459677
325 2 0.125342 0.41 0.429315
850 2 0.0962812 0.38027 0.485039
327 4 0.133714 0.407779 0.452771
930 4 0.302963 0.388408 0.441367
928 2 0.320302 0.396504 0.45746
447 4 0.291936 0.397393 0.426839
239 4 0.266456 0.338082 0.496927
929 4 0.33764 0.404601 0.473554
2549 4 0.00438475 0.464137 0.452913
2548 2 0.0248864 0.469092 0.439485
504 4 0.0587402 0.466214 0.437597
2550 4 0.045388 0.474048 0.426057
502 2 0.0827913 0.460213 0.44087
503 4 0.106842 0.454212 0.444144
1820 4 0.183647 0.49821 0.494967
1819 2 0.189571 0.474331 0.499421
583 2 0.356908 0.442296 0.486389
584 4 0.369847 0.460385 0.497814
585 4 0.343968 0.424207 0.474964
459 4 0.0343622 0.0639558 0.551056
1271 4 0.0314561 0.0238964 0.551975
457 2 0.0570182 0.060211 0.560949
458 4 0.0796742 0.0564662 0.570841
1270 2 0.0368677 0.0105316 0.531548
686 4 0.102343 0.0260833 0.512883
1601 4 0.0916917 0.0592494 0.553636
1600 2 0.115874 0.053068 0.555111
1602 4 0.140057 0.0468867 0.556585
919 2 0.201592 0.02144 0.567722
920 4 0.202322 0.0180943 0.542954
1151 4 0.279539 0.0772528 0.529286
893 4 0.279891 0.0418933 0.570628
892 2 0.303209 0.046803 0.578203
1150 2 0.267803 0.0783199 0.507233
938 4 0.286804 0.0929604 0.539813
894 4 0.326526 0.0517127 0.585777
4581 4 0.47338 0.0782249 0.570965
3268 2 0.474007 0.0742666 0.537055
3270 4 0.471581 0.0576475 0.518532
3111 4 0.0039905 0.0911954 0.56788
2375 4 0.161216 0.163573 0.583427
937 2 0.273574 0.103063 0.55847
939 4 0.260345 0.113166 0.577128
605 4 0.354359 0.123026 0.545427
604 2 0.351732 0.145112 0.534003
3269 4 0.476432 0.0908856 0.555578
1200 4 0.0135952 0.203087 0.578919
1198 2 0.0366199 0.208138 0.57058
1199 4 0.0596447 0.213189 0.562242
3275 4 0.0556295 0.231955 0.56624
3274 2 0.0687784 0.252724 0.570813
2376 4 0.123329 0.183366 0.557474
2374 2 0.142273 0.173469 0.57045
509 4 0.149128 0.226492 0.511246
570 4 0.164004 0.231755 0.522451
568 2 0.181411 0.239516 0.506266
635 4 0.289828 0.258927 0.532902
3158 4 0.341235 0.185724 0.522769
606 4 0.349105 0.167197 0.522579
48 3 0.490575 0.175806 0.56498
3037 2 0.0770044 0.297574 0.538064
3039 4 0.0583119 0.298171 0.521468
3038 4 0.0956968 0.296976 0.55466
858 4 0.231036 0.289169 0.566004
856 2 0.210892 0.300209 0.575878
695 4 0.250245 0.288693 0.567096
694 2 0.26059 0.271795 0.551844
634 2 0.299243 0.267998 0.511588
696 4 0.270934 0.254896 0.536593
2457 4 0.416332 0.316745 0.517749
1190 4 0.092797 0.373842 0.516805
851 4 0.100691 0.390234 0.507543
1189 2 0.101869 0.369617 0.539718
1191 4 0.110941 0.365392 0.562632
711 4 0.126939 0.363895 0.575185
2142 4 0.211465 0.40212 0.567805
1238 4 0.198041 0.418012 0.561301
791 4 0.291357 0.4091 0.519478
772 2 0.275736 0.374091 0.499784
773 4 0.291296 0.39191 0.507881
790 2 0.299266 0.423351 0.53844
774 4 0.260176 0.356273 0.491687
935 4 0.404867 0.388015 0.567982
934 2 0.380334 0.385854 0.5723
2455 2 0.436046 0.331616 0.513828
805 2 0.49602 0.336119 0.509902
807 4 0.474796 0.34825 0.515152
2456 4 0.45576 0.346488 0.509907
1171 2 0.066603 0.508315 0.561581
1172 4 0.0567807 0.494911 0.580264
3571 2 0.000655255 0.464134 0.571378
3573 4 0.0203672 0.463409 0.586743
1445 4 0.10405 0.450654 0.533233
1444 2 0.117635 0.450834 0.554223
1446 4 0.13122 0.451013 0.575214
1239 4 0.184327 0.441037 0.519081
1237 2 0.191184 0.429525 0.540191
1821 4 0.195496 0.450451 0.503876
792 4 0.307175 0.437601 0.557402
2152 2 0.313008 0.464633 0.575509
2154 4 0.315879 0.4398 0.574986
2153 4 0.310136 0.489466 0.576033
2353 2 0.412188 0.457472 0.50389
2355 4 0.388649 0.453147 0.496653
2354 4 0.435727 0.461797 0.511128
3045 4 0.0720279 0.999096 0.651595
1284 4 0.126503 0.0402981 0.599756
910 2 0.160205 0.0204696 0.603475
1283 4 0.0972636 0.0715209 0.625658
911 4 0.136115 0.0248899 0.608505
1282 2 0.111883 0.0559095 0.612707
1105 2 0.167414 0.0104139 0.671793
921 4 0.200863 0.0247858 0.59249
912 4 0.184296 0.0160494 0.598445
2231 4 0.264121 0.0115492 0.648839
1163 4 0.390425 0.00467068 0.628833
798 4 0.388936 0.060745 0.638847
797 4 0.388109 0.0174269 0.613875
796 2 0.388522 0.0390859 0.626361
43 3 0.3823 0.0767654 0.647356
4579 2 0.484811 0.0677186 0.590565
3382 2 0.0168064 0.0983294 0.650355
824 4 0.1595 0.141147 0.582459
1226 4 0.0892395 0.116325 0.675115
823 2 0.175583 0.139154 0.6015
825 4 0.191665 0.137161 0.620542
2133 4 0.184173 0.146648 0.636064
2131 2 0.181953 0.163436 0.65446
1154 4 0.0806897 0.238052 0.6518
2990 4 0.0920422 0.23615 0.668623
1194 4 0.409517 0.222098 0.655126
1025 4 0.422423 0.228769 0.640674
1192 2 0.388005 0.227999 0.666421
1024 2 0.429166 0.209841 0.625793
1026 4 0.435909 0.190912 0.610913
3370 2 0.499882 0.243083 0.656036
4465 2 0.49095 0.206584 0.611188
4467 4 0.487553 0.201515 0.635435
3276 4 0.0819274 0.273494 0.575387
374 4 0.0744473 0.325974 0.644484
2447 4 0.132695 0.292662 0.585329
1155 4 0.108213 0.245639 0.610744
1153 2 0.0944515 0.241846 0.631272
2448 4 0.088798 0.301491 0.607595
2446 2 0.110747 0.297077 0.596462
895 2 0.117947 0.320381 0.659043
897 4 0.0947068 0.323243 0.650274
857 4 0.190747 0.311248 0.585753
275 4 0.194019 0.320472 0.602547
3372 4 0.486422 0.247344 0.635399
3114 4 0.497151 0.316363 0.620596
373 2 0.0643584 0.346158 0.633715
982 2 0.0598731 0.408148 0.612997
983 4 0.0595196 0.383154 0.612413
375 4 0.0542694 0.366343 0.622947
709 2 0.14623 0.379471 0.578417
710 4 0.16552 0.395048 0.581649
2140 2 0.227207 0.411835 0.584627
274 2 0.204333 0.33809 0.616983
276 4 0.214647 0.355707 0.63142
878 4 0.210084 0.356167 0.651734
877 2 0.214723 0.380728 0.651098
879 4 0.219362 0.405289 0.650462
2141 4 0.242949 0.421551 0.601449
1137 4 0.293431 0.37584 0.599038
1135 2 0.317864 0.379634 0.595323
1952 4 0.280307 0.372783 0.662613
1951 2 0.264222 0.353984 0.666224
1136 4 0.342297 0.383429 0.591608
936 4 0.355801 0.383694 0.576617
3112 2 0.497519 0.340731 0.615008
3113 4 0.497888 0.365099 0.609421
10 3 0.0543263 0.476327 0.586516
984 4 0.0602265 0.433142 0.613581
7 3 0.0681365 0.444559 0.600407
8 3 0.0310335 0.448181 0.595622
1040 4 0.017046 0.437669 0.604941
6 1 0.0505619 0.459377 0.601253
9 3 0.0489125 0.467836 0.622796
2139 4 0.0520226 0.451071 0.634993
2137 2 0.0542859 0.461371 0.657664
1039 2 0.998033 0.427032 0.61721
2171 4 0.115141 0.427721 0.637975
2170 2 0.122799 0.434002 0.615016
2172 4 0.130458 0.440282 0.592058
2698 2 0.137375 0.481775 0.637188
2699 4 0.114459 0.486896 0.645781
1161 4 0.123135 0.425245 0.656373
2700 4 0.160291 0.476655 0.628595
2156 4 0.0988366 0.48213 0.63611
1159 2 0.146456 0.42693 0.665233
2310 4 0.169802 0.491969 0.634834
1183 2 0.0663563 0.0231106 0.721619
1185 4 0.0442147 0.0164026 0.731103
4521 4 0.0286387 0.0247341 0.719607
4519 2 0.0136237 0.0348453 0.736855
1202 4 0.150376 0.0220373 0.706594
1203 4 0.104216 0.0412718 0.706366
1184 4 0.0884978 0.0298186 0.712136
1107 4 0.148626 0.0144513 0.68779
1201 2 0.127296 0.0316545 0.70648
1082 4 0.101228 0.0527452 0.737023
1081 2 0.0880125 0.0731398 0.731142
41 1 0.372016 0.0781192 0.668112
950 4 0.397605 0.0199218 0.722298
44 3 0.374438 0.058035 0.679477
1005 4 0.35993 0.0598415 0.739192
1145 4 0.4077 0.0341671 0.714
88 3 0.344373 0.996505 0.709758
949 2 0.379804 0.00336951 0.716438
1144 2 0.432161 0.0387356 0.716447
2264 4 0.467258 0.0477362 0.702692
1146 4 0.456621 0.0433042 0.718895
2263 2 0.485418 0.0520892 0.686064
1225 2 0.0680956 0.103078 0.673495
3384 4 0.0301928 0.100587 0.671353
1296 4 0.0630566 0.157318 0.742878
1294 2 0.070807 0.135768 0.732844
3296 4 0.0455808 0.149088 0.74565
1227 4 0.0469516 0.0898309 0.671874
1295 4 0.0785574 0.114218 0.722809
1083 4 0.074797 0.0935344 0.725261
1130 4 0.115297 0.152559 0.715452
1141 2 0.326051 0.107109 0.679828
1142 4 0.334862 0.130439 0.67803
1143 4 0.317239 0.0837788 0.681625
977 4 0.322602 0.145522 0.685025
45 3 0.349916 0.082972 0.665532
1003 2 0.360827 0.0845675 0.742798
42 3 0.382068 0.094828 0.680315
1004 4 0.361724 0.109293 0.746404
1260 4 0.0580733 0.241122 0.754704
1258 2 0.067137 0.234179 0.73246
1129 2 0.127076 0.172633 0.706319
2989 2 0.107594 0.219666 0.679189
1131 4 0.138856 0.192708 0.697186
2991 4 0.123145 0.203182 0.689754
1259 4 0.0762007 0.227236 0.710215
2132 4 0.179734 0.180224 0.672856
1244 4 0.176271 0.198775 0.677983
1245 4 0.201106 0.23459 0.702503
1243 2 0.188688 0.216682 0.690243
976 2 0.316091 0.166487 0.696993
978 4 0.309579 0.187453 0.70896
1212 4 0.301612 0.203124 0.71824
1210 2 0.294785 0.226677 0.713358
1193 4 0.366492 0.2339 0.677715
896 4 0.141187 0.317519 0.667812
1207 2 0.16736 0.278429 0.698008
1209 4 0.153056 0.268962 0.7162
1208 4 0.181665 0.287895 0.679816
948 4 0.190613 0.27287 0.668177
946 2 0.214766 0.272275 0.674617
947 4 0.238919 0.271681 0.681056
1029 4 0.235006 0.28017 0.69845
1211 4 0.287958 0.25023 0.708477
1027 2 0.242672 0.286352 0.721432
1028 4 0.250338 0.292534 0.744415
1098 4 0.310605 0.31084 0.708174
1097 4 0.297869 0.263334 0.699135
1096 2 0.304237 0.287087 0.703655
662 4 0.412366 0.328209 0.694279
1188 4 0.221486 0.413682 0.668117
1953 4 0.248137 0.335185 0.669835
1138 2 0.326563 0.418922 0.742133
663 4 0.393705 0.371292 0.677063
661 2 0.403036 0.349751 0.685671
4485 4 0.391653 0.38753 0.665863
1292 4 0.338603 0.386666 0.719571
1139 4 0.339909 0.406394 0.7251
1291 2 0.348822 0.366635 0.730503
1293 4 0.359042 0.346604 0.741434
3714 4 0.0195265 0.507731 0.649377
2138 4 0.0565493 0.471671 0.680335
4481 4 0.0753276 0.441609 0.73182
4176 4 0.0551908 0.441085 0.733082
4174 2 0.0387095 0.438302 0.714486
4175 4 0.0222281 0.435519 0.69589
1160 4 0.169776 0.428615 0.674093
1187 4 0.182734 0.442255 0.681629
1186 2 0.20211 0.427969 0.674873
1317 4 0.245362 0.469717 0.741702
890 4 0.242603 0.488039 0.734839
1910 4 0.305274 0.498031 0.716537
1909 2 0.317626 0.480782 0.729768
1251 4 0.40055 0.491657 0.664935
4483 2 0.400845 0.410059 0.671619
1911 4 0.329978 0.463534 0.743
1249 2 0.40243 0.466834 0.6626
4484 4 0.410038 0.432587 0.677376
1250 4 0.404311 0.442011 0.660265
2169 4 0.429008 0.480281 0.712902
3022 2 0.454061 0.453448 0.70774
3023 4 0.43202 0.461215 0.716631
3024 4 0.476102 0.445681 0.698849
944 4 0.115415 0.0473386 0.748555
945 4 0.136573 0.024618 0.787758
2115 4 0.13429 0.018051 0.805775
943 2 0.125994 0.0359783 0.768157
2113 2 0.12697 0.0201279 0.829592
1086 4 0.326866 0.0249215 0.801453
974 4 0.3409 0.0208276 0.788597
1084 2 0.324301 0.0294764 0.825904
975 4 0.348407 0.0462512 0.746194
973 2 0.344653 0.0335394 0.767396
3468 4 0.491392 0.0525575 0.757121
2064 4 0.487915 0.0385313 0.768072
2062 2 0.469991 0.030574 0.783583
2063 4 0.452067 0.0226168 0.799094
2198 4 0.457657 0.0267029 0.817424
3295 2 0.0286338 0.162561 0.758158
821 4 0.147633 0.129821 0.819617
1148 4 0.164265 0.137066 0.826903
1147 2 0.187092 0.147268 0.826969
981 4 0.320897 0.155904 0.759564
979 2 0.312801 0.132408 0.756811
980 4 0.304706 0.108912 0.754057