ITEM: TIMESTEP
5090000
ITEM: NUMBER OF ATOMS
4590
ITEM: BOX BOUNDS pp pp pp
-9.9985700000000008e+00 9.9985700000000008e+00
-9.9985700000000008e+00 9.9985700000000008e+00
-9.9985700000000008e+00 9.9985700000000008e+00
ITEM: ATOMS id type xs ys zs
2329 2 0.139858 0.0304969 0.034506
2331 4 0.117055 0.0202715 0.0337269
2330 4 0.162662 0.0407224 0.0352851
995 4 0.172779 0.0575576 0.0367692
2424 4 0.11431 0.0237598 0.013646
2422 2 0.0953026 0.0135178 0.00103642
994 2 0.189799 0.0686786 0.0513226
996 4 0.20682 0.0797997 0.0658761
3233 4 0.232389 0.0708939 0.0230767
1108 2 0.374867 0.0640863 0.0299306
1022 4 0.35113 0.0347446 0.00934898
1109 4 0.358179 0.053251 0.0147882
1021 2 0.35873 0.0109713 0.0108488
1110 4 0.391555 0.0749216 0.045073
1447 2 0.497959 0.0546024 0.0330517
1448 4 0.48696 0.0731013 0.0203243
450 4 0.0492496 0.0940945 0.0819778
448 2 0.0535681 0.102672 0.0588921
449 4 0.0578866 0.11125 0.0358064
299 4 0.0636466 0.117238 0.0168169
2833 2 0.0158612 0.145314 0.0092854
298 2 0.0686523 0.141509 0.0201426
553 2 0.0143599 0.160973 0.070448
2834 4 0.0318442 0.158088 0.994914
1168 2 0.196994 0.149719 0.0420272
3234 4 0.22518 0.120324 0.0253953
3232 2 0.228784 0.0956091 0.024236
360 4 0.224232 0.086244 0.0748324
358 2 0.218125 0.110058 0.0793914
1170 4 0.216049 0.133891 0.0386279
1760 4 0.396976 0.091016 0.0340939
1759 2 0.40734 0.113465 0.0303784
2162 4 0.406338 0.144332 0.0129523
1761 4 0.417703 0.135915 0.0266628
2769 4 0.33289 0.127218 0.0665844
2161 2 0.423851 0.158934 0.00269327
2949 4 0.483791 0.0930175 0.0165669
2163 4 0.441364 0.173537 0.992434
555 4 0.0238565 0.174933 0.0520059
3088 2 0.0435716 0.205551 0.0491214
3090 4 0.0659106 0.216755 0.0499126
3089 4 0.0212327 0.194348 0.0483302
2771 4 0.0669163 0.235835 0.041917
300 4 0.0736581 0.165779 0.0234684
293 4 0.0847435 0.182285 0.0191448
294 4 0.112842 0.202398 0.0552921
292 2 0.098793 0.192342 0.0372184
835 2 0.15391 0.196415 0.0278185
837 4 0.147131 0.21644 0.0144694
783 4 0.138936 0.235133 0.0192098
578 4 0.109202 0.217469 0.0728412
836 4 0.160689 0.176389 0.0411675
577 2 0.123076 0.237977 0.0693635
1169 4 0.177939 0.165547 0.0454266
688 2 0.220685 0.229428 0.0431636
689 4 0.204492 0.23766 0.0259822
690 4 0.236878 0.221196 0.0603449
617 4 0.244446 0.218652 0.0795806
4211 4 0.28498 0.200974 0.0166742
1305 4 0.296014 0.216707 0.0200314
1303 2 0.315275 0.212555 0.0354236
4210 2 0.267608 0.215509 0.00608561
1304 4 0.334537 0.208404 0.0508159
481 2 0.368902 0.227325 0.0371756
482 4 0.354437 0.208273 0.0444519
483 4 0.383368 0.246377 0.0298993
323 4 0.374697 0.25333 0.0133027
1826 4 0.460169 0.179566 0.990127
1825 2 0.460609 0.203815 0.996206
1827 4 0.461049 0.228064 0.00228406
2770 2 0.0710613 0.25917 0.0339489
2772 4 0.0752063 0.282504 0.0259807
3144 4 0.0873459 0.298039 0.031916
579 4 0.13695 0.258486 0.0658858
3142 2 0.0844783 0.304693 0.00798533
361 2 0.173183 0.326201 0.037565
363 4 0.188462 0.306733 0.0339976
741 4 0.197429 0.253924 0.0175125
740 4 0.17706 0.292746 0.0415692
739 2 0.187245 0.273335 0.0295408
353 4 0.337241 0.308504 0.0400689
307 2 0.323999 0.288902 0.0705528
308 4 0.326722 0.293146 0.0460629
322 2 0.394339 0.265276 0.00347121
352 2 0.349329 0.305782 0.0183512
354 4 0.361416 0.303059 0.996634
2288 4 0.381096 0.327897 0.0686484
245 4 0.467883 0.330899 0.0619364
244 2 0.47424 0.311845 0.0768265
1367 4 0.0145077 0.370176 0.00679254
648 4 0.0160799 0.40376 0.0891276
362 4 0.157904 0.345669 0.0411324
703 2 0.143248 0.391317 0.0783941
907 2 0.117681 0.395148 0.0103275
705 4 0.150795 0.402881 0.0575495
507 4 0.163593 0.40914 0.0436824
909 4 0.126048 0.371938 0.0143818
942 4 0.134935 0.354842 0.00794354
1094 4 0.23579 0.375578 0.00255737
1093 2 0.239338 0.379553 0.0269868
1095 4 0.242885 0.383528 0.0514162
1158 4 0.235389 0.402956 0.0480203
960 4 0.322533 0.407385 0.101051
2007 4 0.312779 0.37617 0.0103819
2005 2 0.311124 0.400279 0.00396557
958 2 0.33724 0.398095 0.0830908
959 4 0.351948 0.388805 0.0651305
2289 4 0.359726 0.371895 0.0582485
2287 2 0.370411 0.349896 0.0634485
561 4 0.45801 0.335446 0.0457377
2790 4 0.459129 0.401137 0.0439701
560 4 0.464705 0.383775 0.034776
559 2 0.461358 0.35961 0.0402569
2788 2 0.475136 0.417622 0.0341116
1628 4 0.0634096 0.417522 0.008884
3519 4 0.0813398 0.427097 0.0858637
908 4 0.109314 0.418359 0.00627316
3517 2 0.0887959 0.438661 0.0649865
3518 4 0.0962521 0.450226 0.0441093
385 2 0.217356 0.479137 0.0602495
1156 2 0.23768 0.422421 0.0635464
506 4 0.193274 0.445847 0.0601822
505 2 0.178434 0.427493 0.0519323
387 4 0.211114 0.455299 0.0644878
1157 4 0.239971 0.441885 0.0790726
2165 4 0.287765 0.486643 0.00216485
2164 2 0.300587 0.465191 0.00293052
1728 4 0.270816 0.496745 0.0069519
2166 4 0.31341 0.443739 0.00369619
4088 4 0.406607 0.466746 0.0399924
4087 2 0.400443 0.442582 0.0381754
4547 4 0.402036 0.484867 0.0458674
4089 4 0.394279 0.418418 0.0363584
4546 2 0.388983 0.493858 0.0652055
2789 4 0.491142 0.434108 0.0242531
3219 4 0.506988 0.43836 0.0356587
3509 4 0.0830703 0.00529396 0.145073
3508 2 0.0827069 0.0258782 0.159263
1069 2 0.0474072 0.998508 0.127988
1070 4 0.0701894 0.992686 0.136489
546 4 0.130323 0.0603585 0.102305
1762 2 0.111378 0.0235343 0.0967822
1763 4 0.117528 0.0477403 0.0955839
1764 4 0.105229 0.999328 0.0979805
758 4 0.49634 0.0184685 0.144879
747 4 0.478349 0.014779 0.136315
757 2 0.498352 0.0386776 0.159464
1634 4 0.0379694 0.0778692 0.0921353
554 4 0.00486337 0.147013 0.0888901
1635 4 0.998477 0.102586 0.110304
1633 2 0.018223 0.0902278 0.101219
3808 2 0.0229504 0.125867 0.170165
3983 4 0.0020284 0.12765 0.124834
370 2 0.0861019 0.142282 0.158714
545 4 0.121815 0.107071 0.0866124
544 2 0.126069 0.0837147 0.0944587
32 3 0.125521 0.156435 0.105809
34 3 0.113187 0.122458 0.095511
31 1 0.117044 0.136509 0.113569
33 3 0.0971469 0.140671 0.124758
35 3 0.13209 0.126974 0.127759
371 4 0.0950383 0.155001 0.13913
237 4 0.14976 0.116528 0.126066
235 2 0.17214 0.11714 0.137197
359 4 0.212018 0.133872 0.0839503
236 4 0.194521 0.117752 0.148329
665 4 0.221854 0.171038 0.131871
664 2 0.216565 0.15084 0.118115
666 4 0.211276 0.130641 0.104359
285 4 0.200367 0.123847 0.166624
2768 4 0.301291 0.136083 0.104315
2767 2 0.317091 0.13165 0.0854496
405 4 0.284639 0.140511 0.114039
403 2 0.273958 0.162398 0.119698
1355 4 0.331244 0.0921924 0.166816
15 3 0.0695392 0.224983 0.105852
511 2 0.0783175 0.24738 0.160705
512 4 0.0836516 0.247384 0.136277
14 3 0.0984039 0.2384 0.125964
11 1 0.0909371 0.220998 0.112553
13 3 0.0919752 0.200981 0.124243
12 3 0.10452 0.219515 0.0940476
404 4 0.263276 0.184285 0.125357
618 4 0.26511 0.204561 0.122884
616 2 0.254778 0.211607 0.101232
53 3 0.305031 0.18932 0.15694
933 4 0.412032 0.184398 0.137667
931 2 0.431573 0.192011 0.124053
932 4 0.451115 0.199623 0.110438
338 4 0.470542 0.241074 0.133092
2609 4 0.991128 0.258908 0.096942
2527 2 0.0289133 0.304621 0.150579
2528 4 0.0131463 0.290457 0.137314
2610 4 0.0262439 0.277401 0.127365
2608 2 0.00868573 0.268155 0.112154
286 2 0.160221 0.293115 0.15372
524 4 0.178895 0.279201 0.121329
523 2 0.199935 0.283801 0.108629
287 4 0.174832 0.277369 0.140923
525 4 0.220976 0.288402 0.0959281
1103 4 0.335296 0.296121 0.103968
309 4 0.321276 0.284658 0.0950428
1102 2 0.333681 0.303058 0.127936
1104 4 0.332066 0.309995 0.151903
337 2 0.470382 0.259111 0.115777
339 4 0.470223 0.277149 0.0984625
246 4 0.480597 0.292791 0.0917167
3633 4 0.499734 0.272604 0.149421
646 2 0.0401145 0.410327 0.0912232
620 4 0.0669482 0.40351 0.16552
619 2 0.0570318 0.41835 0.14801
1511 4 0.0450032 0.337786 0.160052
704 4 0.135702 0.379753 0.0992388
3492 4 0.494076 0.367993 0.106332
334 2 0.491237 0.377817 0.150994
336 4 0.491558 0.371065 0.126921
647 4 0.0641491 0.416894 0.0933188
2750 4 0.034859 0.484868 0.0865416
2749 2 0.0412701 0.467553 0.103401
2751 4 0.0476813 0.450237 0.120261
621 4 0.0471154 0.43319 0.130499
1985 4 0.0183512 0.491667 0.0774906
738 4 0.241998 0.432112 0.0963992
736 2 0.25848 0.436704 0.114632
737 4 0.274962 0.441297 0.132864
3347 4 0.466892 0.488787 0.156535
3346 2 0.479569 0.505038 0.142379
1231 2 0.0624633 0.084991 0.172594
1232 4 0.0686655 0.0609007 0.17007
3510 4 0.0823434 0.0464623 0.173452
1851 4 0.123179 0.0498144 0.246182
1795 2 0.132727 0.015162 0.240296
1354 2 0.339213 0.0684936 0.166983
1356 4 0.347183 0.0447948 0.167149
632 4 0.360221 0.047634 0.181163
631 2 0.38359 0.0390323 0.183423
633 4 0.406958 0.0304306 0.185683
653 4 0.389871 0.019106 0.242621
693 4 0.394352 0.0364686 0.249676
652 2 0.371284 0.00337706 0.236938
743 4 0.418831 0.039555 0.172714
742 2 0.441703 0.0340173 0.181163
744 4 0.464575 0.0284795 0.189612
629 4 0.487788 0.0724046 0.183196
1233 4 0.056261 0.109081 0.175117
3810 4 0.037953 0.112326 0.184887
381 4 0.086498 0.115527 0.189343
372 4 0.0771656 0.129562 0.178298
379 2 0.0924647 0.126066 0.211218
380 4 0.0984315 0.136605 0.233093
283 2 0.19899 0.135126 0.188896
1403 4 0.20296 0.165574 0.208007
284 4 0.197613 0.146405 0.211169
247 2 0.28447 0.137582 0.193699
249 4 0.300076 0.120629 0.203406
248 4 0.268864 0.154535 0.183993
522 4 0.349808 0.0964208 0.172847
520 2 0.360786 0.114556 0.186105
521 4 0.371764 0.132691 0.199363
1435 2 0.384369 0.146775 0.231732
1436 4 0.373697 0.128745 0.218086
1437 4 0.395041 0.164806 0.245377
628 2 0.498311 0.0912284 0.195849
296 4 0.473964 0.104956 0.245959
683 4 0.164475 0.200799 0.239277
1404 4 0.180982 0.204952 0.229617
1402 2 0.191971 0.185263 0.218812
473 4 0.245459 0.238135 0.218404
2462 4 0.256808 0.245962 0.233502
472 2 0.25452 0.224294 0.199655
55 3 0.295336 0.201461 0.191237
51 1 0.287553 0.192252 0.171916
474 4 0.263581 0.210454 0.180907
52 3 0.278193 0.171751 0.176527
54 3 0.271336 0.205972 0.162578
527 4 0.31421 0.206234 0.186362
526 2 0.331028 0.212919 0.203615
528 4 0.347846 0.219603 0.220867
624 4 0.366451 0.22425 0.224604
622 2 0.379412 0.20366 0.23037
2837 4 0.422877 0.230443 0.19526
355 2 0.396645 0.248562 0.188232
357 4 0.421423 0.251127 0.190388
623 4 0.392374 0.183071 0.236137
642 4 0.503962 0.179769 0.190067
2836 2 0.44353 0.219228 0.203796
641 4 0.477422 0.20045 0.227062
640 2 0.490692 0.190109 0.208564
2838 4 0.464183 0.208013 0.212332
2529 4 0.0446803 0.318785 0.163844
513 4 0.0729833 0.247375 0.185133
675 4 0.0567185 0.254518 0.194037
673 2 0.0583313 0.262077 0.217816
674 4 0.059944 0.269636 0.241595
2460 4 0.0518088 0.277568 0.259398
612 4 0.140584 0.323816 0.177938
288 4 0.145611 0.308862 0.166517
252 4 0.339453 0.305892 0.169846
356 4 0.371867 0.245996 0.186077
250 2 0.350786 0.284544 0.17625
251 4 0.362119 0.263196 0.182654
2652 4 0.486152 0.27663 0.163543
2650 2 0.468016 0.27888 0.180608
1584 4 0.452523 0.291856 0.216066
2651 4 0.449881 0.281129 0.197674
1582 2 0.446506 0.299435 0.239121
1512 4 0.0646216 0.38363 0.163824
1510 2 0.0548124 0.360708 0.161938
733 2 0.0695337 0.349051 0.226373
734 4 0.0722529 0.356356 0.202616
610 2 0.146887 0.347877 0.180493
611 4 0.153191 0.371937 0.183048
392 4 0.141897 0.387718 0.188586
391 2 0.129339 0.404586 0.202112
393 4 0.116782 0.421454 0.215638
751 2 0.218632 0.352538 0.233678
753 4 0.229107 0.331182 0.225972
752 4 0.208157 0.373894 0.241383
1454 4 0.499689 0.388088 0.192655
1455 4 0.499879 0.388431 0.242661
1453 2 0.499784 0.388259 0.217658
335 4 0.490916 0.384569 0.175066
1776 4 0.125583 0.431642 0.231453
1774 2 0.146636 0.439013 0.242749
1775 4 0.16769 0.446383 0.254045
1311 4 0.32908 0.487443 0.21531
1656 4 0.390149 0.488033 0.211164
1654 2 0.366047 0.49445 0.209418
1655 4 0.341944 0.500868 0.207673
270 4 0.456971 0.476491 0.168854
495 4 0.449376 0.461476 0.233721
268 2 0.44978 0.470017 0.19191
269 4 0.442589 0.463544 0.214966
493 2 0.434126 0.445281 0.245138
1800 4 0.0151998 0.00327907 0.306659
1796 4 0.138993 0.0393455 0.239261
1849 2 0.114489 0.0660359 0.263109
1850 4 0.105799 0.0822574 0.280036
489 4 0.100209 0.0966513 0.291096
1866 4 0.206289 0.0243318 0.326445
1864 2 0.220621 0.0299354 0.306738
1865 4 0.234952 0.035539 0.28703
2469 4 0.253991 0.0302295 0.289059
2468 4 0.290222 0.011297 0.260257
2467 2 0.272106 0.0207632 0.274658
691 2 0.381944 0.0518465 0.264997
692 4 0.369536 0.0672245 0.280318
1407 4 0.36438 0.0660088 0.29883
2519 4 0.420881 0.0236266 0.292854
2663 4 0.429991 0.0155244 0.276376
2518 2 0.436506 0.0216587 0.312274
2520 4 0.452131 0.0196908 0.331695
1463 4 0.0855905 0.11142 0.28945
1464 4 0.106953 0.134898 0.250809
1462 2 0.0962718 0.123159 0.27013
487 2 0.102434 0.0907194 0.315284
1405 2 0.36144 0.0740231 0.322331
2559 4 0.490576 0.113492 0.309039
297 4 0.480211 0.105351 0.295573
295 2 0.477087 0.105154 0.270766
2655 4 0.0551715 0.238892 0.33852
365 4 0.0706355 0.248281 0.327942
682 2 0.161811 0.219958 0.25512
684 4 0.159147 0.239118 0.270962
2513 4 0.140673 0.236811 0.277564
2512 2 0.137206 0.250611 0.298124
2458 2 0.0455937 0.294598 0.276619
2459 4 0.0393785 0.311627 0.293839
364 2 0.0790682 0.269536 0.317829
366 4 0.0875009 0.290791 0.307715
2514 4 0.133739 0.264411 0.318684
3236 4 0.0859651 0.309636 0.314296
3235 2 0.0967158 0.332167 0.3157
409 2 0.246333 0.255899 0.31569
2461 2 0.259871 0.250686 0.257863
2463 4 0.262934 0.25541 0.282225
410 4 0.247355 0.264693 0.292307
231 4 0.448161 0.314258 0.278685
230 4 0.447265 0.314367 0.328684
229 2 0.447713 0.314312 0.303685
1583 4 0.440489 0.307014 0.262175
735 4 0.0668145 0.341747 0.250131
464 4 0.0622739 0.335595 0.268882
463 2 0.0454132 0.350786 0.279377
465 4 0.0285524 0.365976 0.289872
3237 4 0.107467 0.354697 0.317103
476 4 0.11347 0.358252 0.335081
412 2 0.085221 0.411012 0.331872
1587 4 0.206968 0.393572 0.243427
1585 2 0.195974 0.414842 0.250631
303 4 0.482056 0.393269 0.249376
302 4 0.484596 0.374522 0.295667
301 2 0.483326 0.383896 0.272522
2910 4 0.492461 0.357658 0.301037
914 4 0.0889983 0.418858 0.287553
913 2 0.0831746 0.441401 0.27844
915 4 0.0773509 0.463945 0.269326
413 4 0.0866732 0.415218 0.307267
3959 4 0.0819906 0.473256 0.286466
729 4 0.147675 0.447369 0.316283
3958 2 0.0957765 0.494088 0.285383
1586 4 0.18498 0.436112 0.257835
2141 4 0.165292 0.457704 0.315603
2142 4 0.215 0.45256 0.317433
2140 2 0.190146 0.455132 0.316518
500 4 0.24146 0.492862 0.254366
1862 4 0.261921 0.493454 0.25875
1863 4 0.266422 0.452327 0.286839
1861 2 0.264171 0.472891 0.272794
494 4 0.418876 0.429086 0.256555
668 4 0.423467 0.490513 0.289749
2846 4 0.0087299 0.0466005 0.397873
2847 4 0.0103362 0.0239332 0.353327
2845 2 0.00953307 0.0352669 0.3756
1034 4 0.00598722 0.0667789 0.399095
725 4 0.195096 0.0190795 0.339815
724 2 0.201072 0.0334714 0.359369
726 4 0.207048 0.0478633 0.378922
1031 4 0.413415 0.0034949 0.384979
257 4 0.410301 0.014589 0.400775
1032 4 0.446633 0.0163752 0.349887
1030 2 0.430024 0.00993507 0.367433
2542 2 0.480999 0.0520272 0.40679
2543 4 0.475784 0.073026 0.394258
2544 4 0.486213 0.0310283 0.419321
3437 4 0.47282 0.0166782 0.418319
1033 2 0.00972264 0.0892692 0.409362
3146 4 0.0163843 0.158422 0.378623
488 4 0.104659 0.0847875 0.339471
588 4 0.104225 0.09888 0.353676
586 2 0.122679 0.111487 0.364888
587 4 0.141133 0.124093 0.3761
893 4 0.155527 0.114368 0.367064
732 4 0.194894 0.152603 0.362161
892 2 0.178211 0.124787 0.368501
894 4 0.200894 0.135207 0.369938
1406 4 0.3585 0.0820374 0.345832
813 4 0.363135 0.0991375 0.406502
900 4 0.370678 0.0974683 0.346737
898 2 0.374028 0.102329 0.371034
899 4 0.377378 0.10719 0.395331
2817 4 0.488475 0.137556 0.391195
2816 4 0.477128 0.0894145 0.383819
2815 2 0.482802 0.113485 0.387507
2654 4 0.0102717 0.217639 0.34427
2653 2 0.0327216 0.228266 0.341395
383 4 0.0624235 0.238389 0.356588
3145 2 0.00289091 0.163216 0.39912
1220 4 0.0846353 0.249532 0.401632
730 2 0.208639 0.173066 0.357978
731 4 0.222385 0.193529 0.353795
677 4 0.226212 0.249729 0.348719
614 4 0.285044 0.174966 0.363452
613 2 0.282082 0.199783 0.362733
615 4 0.279119 0.2246 0.362013
382 2 0.0740804 0.252506 0.373618
384 4 0.0857374 0.266623 0.390647
411 4 0.245311 0.247105 0.339074
676 2 0.215661 0.253413 0.371086
678 4 0.205111 0.257097 0.393453
5 3 0.196826 0.302117 0.388955
3 3 0.20924 0.271388 0.406823
2 3 0.229579 0.302995 0.406826
1 1 0.208179 0.294565 0.407195
117 3 0.418442 0.303578 0.364416
2457 4 0.39017 0.318627 0.398631
118 3 0.451688 0.306815 0.347187
116 1 0.435295 0.318255 0.358969
120 3 0.444112 0.326977 0.37807
1741 2 0.484139 0.272712 0.406096
1743 4 0.46484 0.256821 0.405661
475 2 0.135886 0.368534 0.339199
477 4 0.158303 0.378815 0.343318
414 4 0.0837688 0.406805 0.356476
344 4 0.0957654 0.399713 0.37211
343 2 0.117206 0.400214 0.384965
345 4 0.138646 0.400715 0.397819
851 4 0.145708 0.407321 0.414043
401 4 0.177032 0.380574 0.334218
402 4 0.195754 0.392193 0.37911
400 2 0.186393 0.386384 0.356664
431 4 0.195093 0.382641 0.396701
430 2 0.186155 0.363025 0.409371
438 4 0.438366 0.351752 0.349548
437 4 0.435529 0.396814 0.371046
119 3 0.426497 0.33524 0.345835
1392 4 0.442686 0.413771 0.378822
1390 2 0.447338 0.410115 0.403115
436 2 0.436947 0.374283 0.360297
2725 2 0.00342178 0.498629 0.373547
1362 4 0.123303 0.456944 0.37543
728 4 0.119137 0.449558 0.357289
1360 2 0.120361 0.479527 0.38575
727 2 0.133406 0.448464 0.336786
1821 4 0.121768 0.496972 0.41588
377 4 0.313638 0.432108 0.420284
378 4 0.30252 0.470819 0.390643
376 2 0.308079 0.451464 0.405463
1697 4 0.422607 0.452904 0.400772
1696 2 0.428939 0.471825 0.385702
1698 4 0.435272 0.490745 0.370633
459 4 0.0788767 0.00398024 0.484761
1782 4 0.261156 0.092808 0.484572
44 3 0.340752 0.0728877 0.442135
45 3 0.349052 0.0552353 0.47434
41 1 0.34926 0.0753092 0.463587
42 3 0.37092 0.0829267 0.46218
938 4 0.333987 0.0465208 0.485937
256 2 0.419593 0.0290359 0.418945
258 4 0.428884 0.0434828 0.437114
2236 2 0.438492 0.071255 0.46185
2238 4 0.423286 0.0533511 0.453284
1035 4 0.0134581 0.111759 0.419629
398 4 0.0296273 0.119155 0.430117
397 2 0.0546137 0.118378 0.430625
3116 4 0.0371094 0.165993 0.475824
399 4 0.0796 0.1176 0.431134
1699 2 0.138272 0.141477 0.483416
1227 4 0.0991954 0.154647 0.491925
1700 4 0.114894 0.149233 0.47911
1701 4 0.161649 0.133721 0.487721
1780 2 0.249904 0.111192 0.497245
1152 4 0.328686 0.10123 0.489704
1479 4 0.326455 0.138461 0.43791
1150 2 0.30524 0.107539 0.483732
1151 4 0.281794 0.113849 0.47776
1477 2 0.319031 0.156006 0.454103
812 4 0.323686 0.119059 0.429904
43 3 0.336628 0.0907617 0.475421
811 2 0.34341 0.109098 0.418203
2237 4 0.453699 0.089159 0.470416
3548 4 0.4496 0.108132 0.468446
3549 4 0.428646 0.153114 0.474631
3547 2 0.439123 0.130623 0.471538
3115 2 0.0376244 0.171568 0.451455
3117 4 0.0381393 0.177143 0.427086
1226 4 0.0818822 0.201557 0.491259
3353 4 0.0670052 0.214201 0.487916
1225 2 0.0905388 0.178102 0.491592
289 2 0.140162 0.23648 0.46213
290 4 0.146798 0.233173 0.486009
1219 2 0.0992681 0.246345 0.421654
1221 4 0.113901 0.243158 0.441677
291 4 0.133525 0.239788 0.438252
1478 4 0.311607 0.173551 0.470297
266 4 0.425704 0.16631 0.461469
3307 2 0.436181 0.237641 0.43145
265 2 0.432849 0.190027 0.458064
3308 4 0.424621 0.224539 0.449336
267 4 0.439994 0.213745 0.45466
1812 4 0.0728127 0.294707 0.479845
1810 2 0.0555842 0.307146 0.493021
510 4 0.0828907 0.30975 0.472142
3275 4 0.14296 0.251931 0.49361
508 2 0.105988 0.309617 0.462568
509 4 0.129086 0.309484 0.452994
570 4 0.136749 0.328073 0.455435
568 2 0.153446 0.327139 0.436847
569 4 0.170143 0.326205 0.418259
447 4 0.229764 0.318415 0.418678
4 3 0.197639 0.301702 0.426596
445 2 0.249546 0.331446 0.42668
2455 2 0.398964 0.316699 0.421957
576 4 0.407227 0.32743 0.460323
2456 4 0.407758 0.314772 0.445284
3309 4 0.44774 0.250742 0.413565
3538 2 0.00194776 0.335437 0.495709
850 2 0.166597 0.412784 0.426653
432 4 0.177217 0.34341 0.42204
2296 2 0.206047 0.412145 0.466446
2298 4 0.226141 0.399672 0.474559
696 4 0.304607 0.403772 0.430194
446 4 0.269328 0.344477 0.434683
584 4 0.283688 0.39312 0.445259
583 2 0.28287 0.368268 0.44788
585 4 0.282052 0.343416 0.450502
694 2 0.323305 0.410468 0.445384
695 4 0.342003 0.417163 0.460574
574 2 0.39179 0.341642 0.473921
240 4 0.372808 0.375026 0.487368
238 2 0.365801 0.397406 0.478695
575 4 0.376354 0.355853 0.48752
3220 2 0.43856 0.392827 0.463066
3221 4 0.443645 0.391654 0.438613
3222 4 0.433475 0.393999 0.487519
548 4 0.990416 0.439782 0.427031
1068 4 0.057553 0.488201 0.504558
1067 4 0.0190192 0.467047 0.480717
1066 2 0.0382861 0.477624 0.492637
852 4 0.187485 0.418246 0.439263
880 2 0.203691 0.498809 0.458295
1239 4 0.228999 0.495697 0.432266
882 4 0.22553 0.489539 0.450402
2297 4 0.185952 0.424618 0.458334
928 2 0.2823 0.44959 0.474852
930 4 0.25956 0.459702 0.472436
2310 4 0.31396 0.451469 0.490594
929 4 0.305039 0.439478 0.477269
805 2 0.383617 0.477331 0.455826
807 4 0.359571 0.477884 0.462658
2309 4 0.36037 0.461349 0.474807
2308 2 0.337165 0.456409 0.4827
806 4 0.407663 0.476778 0.448995
239 4 0.358794 0.419785 0.470022
1391 4 0.451991 0.406459 0.427409
319 2 0.0401041 0.054339 0.544644
321 4 0.0183717 0.066628 0.54328
320 4 0.0618366 0.0420499 0.546007
3396 4 0.00095712 0.0214926 0.576784
1602 4 0.0804874 0.0455135 0.551335
318 4 0.00846814 0.0760451 0.558905
1600 2 0.104683 0.0512377 0.553977
97 3 0.140118 0.0730706 0.557395
96 1 0.160465 0.0778359 0.567009
1601 4 0.128879 0.056962 0.556618
99 3 0.177299 0.0689784 0.553721
1107 4 0.181828 0.0526055 0.563835
1105 2 0.193824 0.0358741 0.549645
1106 4 0.205819 0.0191427 0.535456
698 4 0.212144 0.0121813 0.517946
1685 4 0.252715 0.00621131 0.586057
939 4 0.331379 0.0367796 0.534917
937 2 0.332683 0.0416502 0.510427
1164 4 0.342789 0.0454425 0.550168
1162 2 0.358798 0.0297618 0.561258
1163 4 0.374808 0.0140811 0.572348
304 2 0.464817 0.0656407 0.516113
305 4 0.469421 0.0504746 0.496774
316 2 0.0108746 0.100205 0.564878
317 4 0.013281 0.124365 0.570852
340 2 0.00596297 0.165918 0.554494
342 4 0.00844943 0.141285 0.557991
1200 4 0.172463 0.124002 0.503544
100 3 0.162901 0.100423 0.568607
2048 4 0.19914 0.0894023 0.557475
1198 2 0.179668 0.111718 0.524095
1199 4 0.186874 0.099434 0.544647
2047 2 0.223033 0.082947 0.561032
2049 4 0.246925 0.0764917 0.56459
1781 4 0.238653 0.129577 0.509917
306 4 0.460212 0.0808069 0.535451
4467 4 0.449791 0.0954489 0.544051
4465 2 0.469352 0.104852 0.556466
4466 4 0.488913 0.114255 0.568881
49 3 0.505426 0.109779 0.580361
261 4 0.0511407 0.209023 0.545502
3352 2 0.054519 0.216512 0.509455
3354 4 0.0420327 0.218824 0.530994
259 2 0.0476109 0.204499 0.569838
341 4 0.00347652 0.190551 0.550997
858 4 0.256153 0.256501 0.56393
1212 4 0.26785 0.2482 0.578032
912 4 0.325674 0.223076 0.533345
1210 2 0.278404 0.225988 0.582554
910 2 0.342857 0.207641 0.542922
911 4 0.36004 0.192207 0.552499
468 4 0.373557 0.179923 0.559605
466 2 0.393739 0.194073 0.563805
1137 4 0.321018 0.23275 0.516166
467 4 0.413921 0.208223 0.568006
3008 4 0.482052 0.222866 0.58138
709 2 0.033635 0.311016 0.558403
711 4 0.0109204 0.320775 0.554662
710 4 0.0563495 0.301257 0.562144
1811 4 0.0383557 0.319585 0.506198
2448 4 0.0730146 0.291457 0.567557
3540 4 0.0235301 0.331579 0.507729
2447 4 0.11172 0.275455 0.540234
2446 2 0.0923675 0.283456 0.553896
3274 2 0.133321 0.255131 0.516458
3276 4 0.123683 0.258331 0.539306
1382 4 0.159991 0.334028 0.563153
856 2 0.232565 0.25763 0.572145
857 4 0.208976 0.258759 0.580361
2172 4 0.174592 0.325223 0.55289
2170 2 0.192776 0.332316 0.537262
1135 2 0.328245 0.256686 0.51637
1136 4 0.335472 0.280621 0.516574
2374 2 0.344228 0.310619 0.521577
2376 4 0.327844 0.297288 0.508198
2375 4 0.360612 0.32395 0.534957
3019 2 0.484126 0.327961 0.576201
3020 4 0.464822 0.342045 0.583562
1190 4 0.0680847 0.400503 0.575883
4434 4 0.048975 0.399983 0.58215
1383 4 0.120745 0.364749 0.567243
1381 2 0.140368 0.349389 0.565198
1191 4 0.114399 0.383663 0.567391
1189 2 0.0912418 0.392083 0.571637
2171 4 0.210959 0.339408 0.521634
1953 4 0.21752 0.351134 0.535769
1951 2 0.236928 0.365698 0.541801
1952 4 0.256336 0.380262 0.547833
2153 4 0.260554 0.393151 0.561023
1330 2 0.386021 0.371541 0.540645
1331 4 0.405518 0.36 0.551221
1332 4 0.366524 0.383083 0.530069
3167 4 0.419162 0.355842 0.539825
3168 4 0.459526 0.339777 0.564591
3166 2 0.439344 0.34781 0.552208
1325 4 0.0765646 0.489218 0.505551
2548 2 0.203804 0.485443 0.557077
2550 4 0.217078 0.465806 0.549116
2307 4 0.264847 0.493564 0.511117
2305 2 0.283983 0.507365 0.50284
3091 2 0.481419 0.458333 0.530609
3093 4 0.491495 0.436469 0.523857
3497 4 0.488924 0.418204 0.520262
3092 4 0.471342 0.480197 0.537362
3392 4 0.00337112 0.0244116 0.595805
3391 2 0.00177489 0.0227029 0.620699
3393 4 0.00017867 0.0209942 0.645593
98 3 0.161199 0.0682792 0.588141
921 4 0.176783 0.0543934 0.583882
919 2 0.174493 0.0391209 0.603546
920 4 0.172203 0.0238485 0.623211
1973 4 0.184984 0.0158974 0.636288
1182 4 0.325609 0.0295565 0.636356
1180 2 0.31797 0.0518486 0.644716
1181 4 0.31033 0.0741407 0.653075
2135 4 0.344159 0.0249357 0.637059
2134 2 0.355444 0.0031276 0.641775
605 4 0.304542 0.0838765 0.635379
604 2 0.302587 0.108395 0.630886
606 4 0.300632 0.132914 0.626393
1097 4 0.312545 0.142629 0.615581
1096 2 0.321028 0.161393 0.629764
1144 2 0.476556 0.159051 0.652259
260 4 0.0440812 0.199975 0.594174
2627 4 0.0173533 0.239807 0.6611
435 4 0.0633144 0.201159 0.602455
433 2 0.081471 0.20935 0.617568
2132 4 0.11359 0.223216 0.645518
434 4 0.0996277 0.217541 0.632682
2131 2 0.134786 0.210992 0.640373
2133 4 0.155982 0.198767 0.635229
825 4 0.175047 0.199402 0.642869
823 2 0.195114 0.188835 0.653397
824 4 0.215181 0.178269 0.663926
650 4 0.202659 0.249464 0.596193
636 4 0.232864 0.175561 0.65607
1211 4 0.288958 0.203777 0.587076
634 2 0.257263 0.172203 0.651761
635 4 0.281663 0.168846 0.647452
1098 4 0.329511 0.180157 0.643946
1194 4 0.340768 0.193797 0.651893
2353 2 0.411704 0.228063 0.626423
1193 4 0.385582 0.215868 0.649579
2354 4 0.405381 0.215347 0.647002
1192 2 0.363175 0.204833 0.650736
1143 4 0.473194 0.206244 0.590943
1141 2 0.470625 0.202978 0.615599
1142 4 0.468057 0.199713 0.640255
1145 4 0.468726 0.180376 0.641814
2355 4 0.418027 0.240779 0.605844
778 2 0.997474 0.307444 0.646975
780 4 0.0176896 0.314014 0.63381
2990 4 0.0249892 0.332649 0.631196
651 4 0.171377 0.262368 0.633011
1207 2 0.138679 0.273522 0.655681
276 4 0.155622 0.301617 0.622587
274 2 0.142452 0.322831 0.621282
1208 4 0.117846 0.285449 0.662676
1209 4 0.159511 0.261595 0.648685
649 2 0.187018 0.255916 0.614602
946 2 0.199268 0.310356 0.615311
3192 4 0.242397 0.307993 0.607659
948 4 0.223869 0.311905 0.611121
947 4 0.174667 0.308808 0.619502
3190 2 0.262475 0.301753 0.621191
979 2 0.312935 0.281389 0.636903
3191 4 0.282553 0.295513 0.634723
980 4 0.28948 0.280503 0.64552
981 4 0.33639 0.282274 0.628285
3371 4 0.354302 0.281599 0.636787
3370 2 0.371937 0.288002 0.653315
3642 4 0.502738 0.328028 0.614237
2989 2 0.0375592 0.350686 0.619285
2991 4 0.0501293 0.368722 0.607375
935 4 0.0690156 0.365202 0.611509
4432 2 0.0451237 0.410812 0.604356
984 4 0.0499968 0.420361 0.645131
936 4 0.11258 0.340652 0.611175
275 4 0.129282 0.344044 0.619977
934 2 0.0907979 0.352927 0.611342
2152 2 0.268961 0.400013 0.583549
791 4 0.275192 0.409909 0.626762
2154 4 0.277367 0.406875 0.606075
790 2 0.260155 0.414548 0.646192
1884 4 0.00144521 0.457951 0.615533
2175 4 0.0095977 0.465128 0.632165
982 2 0.0701822 0.415522 0.65907
4433 4 0.0412724 0.42164 0.626561
2173 2 0.00746637 0.488861 0.639738
3301 2 0.126983 0.441735 0.65607
3303 4 0.119769 0.462587 0.644309
1161 4 0.128415 0.478502 0.652285
3302 4 0.134197 0.420883 0.667831
1159 2 0.121326 0.502478 0.652041
792 4 0.245118 0.419186 0.665623
3024 4 0.474553 0.42184 0.621077
3022 2 0.469223 0.420067 0.645442
328 2 0.000312019 0.0534782 0.729066
2241 4 0.238913 0.00343262 0.729793
1202 4 0.308891 0.0329321 0.723454
1201 2 0.310909 0.0116646 0.736446
951 4 0.314987 0.0301275 0.705261
949 2 0.335375 0.0437788 0.70045
950 4 0.355763 0.05743 0.695639
1005 4 0.365457 0.0686686 0.679692
1003 2 0.384752 0.0833654 0.685764
2321 4 0.480969 0.00785975 0.714581
2145 4 0.495421 0.0219039 0.713057
976 2 0.106815 0.138733 0.736123
978 4 0.102697 0.156881 0.719423
2987 4 0.298219 0.157356 0.718975
1004 4 0.404048 0.0980622 0.691836
1146 4 0.484387 0.137726 0.662704
2064 4 0.46768 0.11912 0.713903
2062 2 0.459209 0.116138 0.737238
1183 2 0.0648102 0.168161 0.711828
1072 2 0.0116776 0.175131 0.678623
1073 4 0.0321422 0.162054 0.684571
1185 4 0.0425874 0.167311 0.7004
2626 2 0.0186148 0.239784 0.686072
2628 4 0.0198763 0.239761 0.711044
1184 4 0.087033 0.169011 0.723256
879 4 0.17245 0.17795 0.70899
877 2 0.181119 0.189327 0.729498
1153 2 0.218703 0.225084 0.746855
1154 4 0.229843 0.244717 0.736101
1063 2 0.284076 0.233258 0.68649
1064 4 0.29086 0.215364 0.702582
2986 2 0.292507 0.171958 0.738451
558 4 0.432063 0.249637 0.719584
1259 4 0.0516215 0.321843 0.669415
1258 2 0.0470783 0.313392 0.692504
1260 4 0.0425351 0.304941 0.715594
3375 4 0.0292925 0.317062 0.725818
3373 2 0.0356467 0.332785 0.744192
1065 4 0.277293 0.251153 0.670399
1229 4 0.265212 0.310828 0.747217
3372 4 0.389573 0.294404 0.669843
2906 4 0.400755 0.28729 0.684374
3114 4 0.370445 0.318316 0.707414
2905 2 0.406444 0.269317 0.7008
3112 2 0.370599 0.316001 0.732309
2907 4 0.412133 0.251345 0.717225
556 2 0.449303 0.261044 0.733649
896 4 0.162368 0.394849 0.709338
895 2 0.154476 0.413212 0.694315
3339 4 0.177749 0.392863 0.695318
3337 2 0.198001 0.379832 0.702046
3338 4 0.218252 0.366801 0.708774
1230 4 0.266283 0.356447 0.726761
1228 2 0.265747 0.333638 0.736989
3381 4 0.441058 0.382679 0.731514
662 4 0.440498 0.385577 0.71123
661 2 0.456237 0.393876 0.693664
663 4 0.471976 0.402176 0.676097
3379 2 0.448939 0.36448 0.746742
983 4 0.0903676 0.410682 0.67301
897 4 0.146583 0.431575 0.679292
4482 4 0.260502 0.423119 0.735318
4480 2 0.266353 0.446979 0.730664
4481 4 0.272205 0.470838 0.726009
2379 4 0.289741 0.473413 0.714799
1080 4 0.273373 0.411765 0.746186
1910 4 0.375884 0.498201 0.724066
1909 2 0.374376 0.476837 0.736969
1911 4 0.372868 0.455473 0.749872
3023 4 0.463893 0.418294 0.669806
1942 2 0.0523405 0.0578288 0.773397
330 4 0.0200769 0.0508336 0.744151
1943 4 0.0711814 0.054222 0.789434
2090 4 0.0808013 0.0458214 0.805023
2089 2 0.0805377 0.0209396 0.807473
1944 4 0.0334997 0.0614355 0.75736
2239 2 0.249735 0.0091421 0.751598
2230 2 0.250528 0.0143131 0.80582