ITEM: TIMESTEP
2490000
ITEM: NUMBER OF ATOMS
4800
ITEM: BOX BOUNDS pp pp pp
-9.9985700000000008e+00 9.9985700000000008e+00
-9.9985700000000008e+00 9.9985700000000008e+00
-9.9985700000000008e+00 9.9985700000000008e+00
ITEM: ATOMS id type xs ys zs
1669 2 0.033056 0.0682146 0.0584178
1671 4 0.0186593 0.0654061 0.0381687
1670 4 0.0474527 0.0710232 0.0786668
1636 2 0.10767 0.00695779 0.0347044
1637 4 0.119974 0.0224985 0.0194638
1438 2 0.139047 0.0898996 0.0574968
1439 4 0.116846 0.0895549 0.0459998
1714 2 0.18784 0.0591654 0.07986
1715 4 0.206864 0.0431434 0.0824141
2401 2 0.389718 0.0298639 0.0332759
2402 4 0.383537 0.0236474 0.00985944
2403 4 0.395899 0.0360804 0.0566923
2840 4 0.414797 0.0447457 0.0569553
2839 2 0.429088 0.0379756 0.0763228
1423 2 0.48093 0.0397447 0.0502233
1424 4 0.490453 0.0627988 0.0484903
1425 4 0.471407 0.0166906 0.0519563
990 4 0.487589 0.0822929 0.0430113
4025 4 0.0185355 0.0808263 0.0255353
4024 2 0.00131504 0.086088 0.00818743
3536 4 0.061649 0.0844211 0.0704505
3535 2 0.0725554 0.10687 0.0719638
3537 4 0.0834617 0.129318 0.073477
298 3 0.10823 0.085862 0.0266198
1440 4 0.161248 0.0902444 0.0689938
297 3 0.139498 0.101238 0.0125289
1716 4 0.168815 0.0751875 0.0773058
1184 4 0.294844 0.0932114 0.0615838
1183 2 0.2986 0.117083 0.0551634
1185 4 0.302357 0.140954 0.048743
852 4 0.322607 0.145558 0.0470631
850 2 0.314241 0.168802 0.0432009
2470 2 0.406415 0.108019 0.0133691
2224 2 0.400902 0.107711 0.0757727
2225 4 0.411952 0.117328 0.0555094
2472 4 0.412868 0.11657 0.0359612
1010 4 0.151091 0.225064 0.0741146
824 4 0.160701 0.216744 0.058699
823 2 0.155555 0.210679 0.0349942
825 4 0.150409 0.204615 0.0112895
1221 4 0.231253 0.236524 0.0657262
1219 2 0.232016 0.238581 0.040819
1220 4 0.23278 0.240637 0.0159119
800 4 0.249965 0.234041 0.0729481
66 1 0.324924 0.223756 0.052513
851 4 0.305874 0.192045 0.0393388
67 3 0.322329 0.201776 0.046243
68 3 0.321906 0.237273 0.0338966
69 3 0.309073 0.228869 0.0686687
799 2 0.27436 0.237829 0.0769075
70 3 0.345865 0.226724 0.0609587
776 4 0.356781 0.226481 0.0767671
3409 2 0.483707 0.195998 0.99638
3641 4 0.0379552 0.251842 0.00764851
3640 2 0.0287082 0.271204 0.0204856
3642 4 0.0194613 0.290566 0.0333228
3311 4 0.0043443 0.286318 0.0450594
802 2 0.0782154 0.319984 0.0682561
803 4 0.0731388 0.325164 0.0443275
2166 4 0.090039 0.327848 0.0319107
1725 4 0.24358 0.243164 0.999826
801 4 0.298756 0.241616 0.080867
1738 2 0.396334 0.305289 0.0734909
1739 4 0.394799 0.290107 0.0536833
1677 4 0.464346 0.270243 0.0694307
1676 4 0.453584 0.275409 0.0208693
1675 2 0.458965 0.272826 0.04515
1635 4 0.458638 0.292501 0.01046
798 4 0.510663 0.315498 0.0665242
2164 2 0.10366 0.338369 0.0137739
1005 4 0.157299 0.383989 0.0104697
1373 4 0.175027 0.384527 0.0191098
1742 4 0.11967 0.401291 0.0543982
1003 2 0.142597 0.396564 0.994629
963 4 0.179092 0.362672 0.0627462
1372 2 0.191093 0.389662 0.0375678
1374 4 0.207158 0.394797 0.0560259
1914 4 0.214215 0.388606 0.0732016
961 2 0.173651 0.344434 0.0789616
1912 2 0.237471 0.3975 0.0754897
1117 2 0.310412 0.37119 0.997825
1119 4 0.29016 0.356545 0.997071
1118 4 0.330664 0.385835 0.998579
1204 2 0.402872 0.360517 0.0739642
978 4 0.39437 0.399341 0.0571308
1205 4 0.403684 0.384299 0.0662862
1206 4 0.40206 0.336736 0.0816422
1741 2 0.137432 0.409709 0.0698515
13 3 0.28076 0.411582 0.0751404
15 3 0.299532 0.417741 0.0430886
2489 4 0.261761 0.423187 0.0239755
12 3 0.288194 0.446639 0.0638067
11 1 0.282923 0.425424 0.0566435
14 3 0.262894 0.426214 0.0449551
788 4 0.342434 0.497131 0.00945679
1972 2 0.413917 0.485428 0.0394838
976 2 0.410263 0.418122 0.0615872
977 4 0.426157 0.436903 0.0660435
1974 4 0.392831 0.476708 0.0497078
878 4 0.356359 0.449023 0.0834157
4504 2 0.459207 0.430234 0.0382824
4505 4 0.483809 0.430815 0.0427111
4506 4 0.434606 0.429653 0.0338537
1973 4 0.435003 0.494149 0.0292599
752 4 0.42958 0.482703 0.0137969
44 3 0.0563711 0.0583887 0.152629
1126 2 0.118638 0.0327322 0.160606
1128 4 0.136781 0.0156195 0.158827
893 4 0.147072 0.000591837 0.153123
4174 2 0.222713 0.0195423 0.0949552
4176 4 0.213219 0.0415201 0.102167
892 2 0.16987 0.01075 0.154614
1936 2 0.200427 0.0578005 0.1519
1938 4 0.210606 0.076347 0.138574
894 4 0.192669 0.0209082 0.156106
1937 4 0.190248 0.039254 0.165227
946 2 0.299428 0.0650855 0.086925
947 4 0.308547 0.042779 0.0935924
817 2 0.311497 0.0102916 0.111339
819 4 0.319557 0.0250873 0.0928651
2841 4 0.44338 0.0312055 0.0956902
3300 4 0.485052 0.0433348 0.146325
3298 2 0.468854 0.0432462 0.127278
3299 4 0.452656 0.0431576 0.108231
1863 4 0.490572 0.0605553 0.155834
42 3 0.0716562 0.0926937 0.15115
1032 4 0.0813819 0.149031 0.0798532
1030 2 0.0611211 0.159491 0.0901133
948 4 0.29031 0.0873919 0.0802577
964 2 0.30474 0.134909 0.135565
1074 4 0.282206 0.128433 0.157319
966 4 0.280771 0.128237 0.13804
965 4 0.32871 0.141581 0.13309
1209 4 0.392079 0.102242 0.149721
1208 4 0.375099 0.0881294 0.104853
1207 2 0.383589 0.0951859 0.127287
1456 2 0.363906 0.166375 0.125991
1457 4 0.346547 0.149777 0.132945
2226 4 0.389853 0.0980947 0.0960361
1490 4 0.0247043 0.165167 0.110768
1031 4 0.0408603 0.16995 0.100374
1489 2 0.00730354 0.174516 0.126097
1009 2 0.170474 0.225367 0.0899064
1011 4 0.189857 0.22567 0.105698
1458 4 0.381265 0.182973 0.119038
775 2 0.368282 0.207197 0.0877701
777 4 0.379782 0.187914 0.0987731
809 4 0.0199088 0.254469 0.154587
804 4 0.083292 0.314804 0.0921846
1734 4 0.000829672 0.262844 0.152626
867 4 0.13942 0.303924 0.15181
962 4 0.168211 0.326195 0.0951769
865 2 0.152172 0.308311 0.130755
866 4 0.164924 0.312699 0.1097
904 2 0.258221 0.299378 0.121322
906 4 0.252912 0.276045 0.114074
905 4 0.26353 0.322712 0.12857
1740 4 0.39787 0.320471 0.0932985
1509 4 0.457098 0.26217 0.0867982
1508 4 0.433631 0.276443 0.128587
3273 4 0.420811 0.277099 0.144049
1507 2 0.445365 0.269307 0.107692
3271 2 0.420573 0.291817 0.164261
763 2 0.153808 0.402686 0.125889
764 4 0.148163 0.390988 0.147254
1913 4 0.260727 0.406394 0.0777778
1406 4 0.292826 0.399273 0.0846627
1407 4 0.280876 0.400475 0.133206
1405 2 0.286851 0.399874 0.108934
1847 4 0.261043 0.35104 0.159531
3875 4 0.999978 0.493973 0.112531
765 4 0.159453 0.414383 0.104523
1743 4 0.155194 0.418128 0.0853049
4107 4 0.272615 0.485139 0.0983002
2265 4 0.272852 0.471118 0.154948
2263 2 0.280561 0.475614 0.131592
2264 4 0.288271 0.480111 0.108236
53 3 0.271913 0.491574 0.160477
879 4 0.384838 0.486518 0.100261
877 2 0.370598 0.467771 0.0918385
1951 2 0.395586 0.454557 0.148734
1953 4 0.407007 0.47679 0.149407
1958 4 0.408796 0.492854 0.161497
1952 4 0.384165 0.432324 0.148061
4067 4 0.474525 0.463354 0.093911
4066 2 0.494402 0.455852 0.107093
41 1 0.0691082 0.0739377 0.164222
43 3 0.0583457 0.079909 0.183892
1841 4 0.0491103 0.0759494 0.200594
1842 4 0.0194835 0.0455554 0.227036
1840 2 0.0342969 0.0607524 0.213815
3035 4 0.0139456 0.0404976 0.246443
45 3 0.0896189 0.0652275 0.168922
1127 4 0.100495 0.049845 0.162385
1060 2 0.235134 0.0852302 0.211456
929 4 0.221494 0.064341 0.234786
1062 4 0.214215 0.0770171 0.222417
1247 4 0.406711 0.0332086 0.215632
1246 2 0.407641 0.0143133 0.199283
2217 4 0.417781 0.0471335 0.225674
2215 2 0.440555 0.0571702 0.228081
1861 2 0.496559 0.0704254 0.178013
1862 4 0.502545 0.0802955 0.200192
2216 4 0.463329 0.0672068 0.230489
2213 4 0.474525 0.0705752 0.246413
2849 4 0.0109664 0.147099 0.189671
982 2 0.130638 0.14912 0.206151
983 4 0.143969 0.129735 0.197683
984 4 0.117306 0.168504 0.214618
911 4 0.101235 0.158383 0.223452
1061 4 0.256052 0.0934433 0.200495
1072 2 0.272883 0.120443 0.1791
1073 4 0.263559 0.112452 0.200881
1097 4 0.405337 0.112148 0.159023
1096 2 0.402254 0.110028 0.183745
1098 4 0.399171 0.107909 0.208467
848 4 0.407862 0.0977807 0.224333
378 3 0.0081422 0.155526 0.20713
910 2 0.0783188 0.168006 0.226176
379 3 0.0127309 0.16247 0.244213
377 3 0.0389288 0.173193 0.219487
912 4 0.0554024 0.177629 0.2289
376 1 0.0163106 0.170591 0.222774
433 3 0.0104858 0.243251 0.243876
380 3 0.00600048 0.190743 0.220276
884 4 0.0832659 0.233158 0.217578
883 2 0.09631 0.221315 0.23532
885 4 0.109354 0.209473 0.253062
1250 4 0.200007 0.233697 0.223572
20 3 0.198966 0.242231 0.241626
1249 2 0.190562 0.250162 0.207298
1884 4 0.253263 0.220242 0.199593
1882 2 0.263586 0.21884 0.222322
1883 4 0.27391 0.217438 0.245052
926 4 0.37066 0.238803 0.254776
834 4 0.450132 0.20207 0.261989
808 2 0.0330125 0.274959 0.160387
810 4 0.0461162 0.295449 0.166187
1197 4 0.0653972 0.289879 0.163122
881 4 0.0668755 0.291241 0.230826
880 2 0.0683593 0.268559 0.22041
434 3 0.0159274 0.280542 0.238955
1195 2 0.0751419 0.306251 0.179314
1164 4 0.0626996 0.307756 0.241025
845 4 0.156905 0.305084 0.163037
882 4 0.0698431 0.245876 0.209995
1196 4 0.0848867 0.322622 0.195507
1045 2 0.125868 0.314448 0.212625
1046 4 0.101501 0.318898 0.209214
844 2 0.174018 0.294627 0.177969
846 4 0.191131 0.28417 0.192902
1251 4 0.181116 0.266628 0.191023
898 2 0.219903 0.328945 0.222608
899 4 0.218651 0.316963 0.200698
1081 2 0.322341 0.332718 0.19804
925 2 0.384249 0.256469 0.243443
1150 2 0.380778 0.306911 0.211981
1152 4 0.365717 0.326034 0.206268
1083 4 0.344128 0.328396 0.209521
1151 4 0.395839 0.287787 0.217693
927 4 0.397839 0.274134 0.23211
754 2 0.446183 0.312921 0.212273
3272 4 0.420334 0.306535 0.184472
756 4 0.439421 0.304859 0.189591
755 4 0.452945 0.320982 0.234955
1094 4 0.451797 0.302966 0.244004
831 4 0.15721 0.39071 0.165909
1047 4 0.150235 0.309998 0.216036
2270 4 0.162177 0.392582 0.253139
860 4 0.165237 0.372819 0.254296
2269 2 0.169955 0.415256 0.246027
900 4 0.221155 0.340927 0.244518
859 2 0.188132 0.362853 0.25559
830 4 0.205768 0.379214 0.169182
1848 4 0.223825 0.380512 0.175245
1846 2 0.242434 0.365776 0.167388
829 2 0.181489 0.384962 0.167545
861 4 0.211027 0.352887 0.256885
1069 2 0.296189 0.379564 0.198056
1071 4 0.295272 0.354978 0.1936
1070 4 0.297105 0.40415 0.202512
1082 4 0.300554 0.337039 0.186559
349 3 0.376217 0.389335 0.213726
346 1 0.375322 0.411725 0.219752
347 3 0.36949 0.413223 0.241954
2824 2 0.470617 0.379901 0.237628
2825 4 0.49504 0.380984 0.232382
2826 4 0.446194 0.378818 0.242874
1058 4 0.443454 0.398148 0.239468
1991 4 0.0127203 0.439062 0.231176
4224 4 0.0322854 0.439994 0.231792
4222 2 0.0566286 0.434362 0.23086
4223 4 0.0809719 0.428731 0.229927
2271 4 0.177734 0.437929 0.238914
54 3 0.237717 0.483032 0.174692
1857 4 0.173311 0.456104 0.235809
1855 2 0.196258 0.462324 0.243551
2184 4 0.297734 0.42333 0.203501
51 1 0.258372 0.49255 0.179294
52 3 0.268391 0.480717 0.196287
2182 2 0.285259 0.444908 0.205488
2183 4 0.272785 0.466486 0.207474
348 3 0.396124 0.421565 0.216781
350 3 0.359737 0.422545 0.207156
1967 4 0.408805 0.460568 0.237865
1966 2 0.389146 0.466735 0.25203
1059 4 0.432828 0.445313 0.252247
1057 2 0.438141 0.42173 0.245857
3034 2 0.998767 0.025057 0.258948
1161 4 0.149754 0.0784537 0.323554
1142 4 0.13266 0.0721042 0.330971
2145 4 0.0932603 0.012683 0.308328
2143 2 0.114834 0.0057859 0.318919
1159 2 0.169922 0.0723753 0.310083
1160 4 0.190091 0.0662968 0.296612
930 4 0.200288 0.0676749 0.279951
928 2 0.210891 0.066008 0.257368
1078 2 0.314205 0.0738649 0.314206
1080 4 0.334052 0.0723162 0.299078
1015 2 0.0810681 0.15679 0.283047
1017 4 0.103822 0.14722 0.287029
1076 4 0.111807 0.135922 0.302282
1075 2 0.0996281 0.120164 0.3174
771 4 0.346886 0.084364 0.287816
770 4 0.363184 0.128195 0.305535
769 2 0.355035 0.106279 0.296675
3667 2 0.384369 0.156208 0.305388
3669 4 0.384776 0.131262 0.307033
847 2 0.422655 0.112617 0.23798
2212 2 0.475406 0.0845403 0.267134
849 4 0.437447 0.127453 0.251627
933 4 0.431238 0.145887 0.246492
2214 4 0.476287 0.0985053 0.287856
931 2 0.444688 0.166864 0.248556
1395 4 0.0081629 0.172972 0.260994
1393 2 0.0267348 0.170293 0.277519
1016 4 0.058314 0.166359 0.279065
1394 4 0.0453067 0.167615 0.294045
1228 2 0.05954 0.235118 0.281818
1229 4 0.078662 0.219281 0.284769
435 3 0.0379768 0.261057 0.262446
84 3 0.0901035 0.204313 0.286566
83 3 0.119892 0.196835 0.26418
81 1 0.113186 0.202091 0.285763
85 3 0.123096 0.221465 0.292477
957 4 0.156747 0.201764 0.277331
82 3 0.119513 0.185059 0.299871
870 4 0.13707 0.23412 0.29873
1245 4 0.128043 0.188141 0.319097
843 4 0.180998 0.172375 0.316635
956 4 0.187107 0.192227 0.315906
19 3 0.227926 0.225565 0.258981
16 1 0.204815 0.226829 0.257349
17 3 0.196659 0.206225 0.251173
955 2 0.171927 0.196996 0.296619
18 3 0.195729 0.232642 0.277893
980 4 0.262749 0.25964 0.335449
3255 4 0.380723 0.227611 0.267408
3668 4 0.383963 0.181154 0.303744
3254 4 0.39928 0.190635 0.2955
3253 2 0.390001 0.209123 0.281454
832 2 0.455343 0.226478 0.260493
932 4 0.458138 0.18784 0.250619
833 4 0.460554 0.250887 0.258998
432 3 0.00232727 0.267448 0.271455
1230 4 0.040418 0.250956 0.278867
1162 2 0.063481 0.321401 0.261963
431 1 0.0168535 0.263047 0.25417
973 2 0.0367101 0.271355 0.324328
974 4 0.0368347 0.246543 0.32124
975 4 0.0365856 0.296167 0.327415
876 4 0.0521059 0.306921 0.331838
868 2 0.147058 0.257041 0.298969
869 4 0.157046 0.279962 0.299207
1029 4 0.172639 0.289677 0.287999
1027 2 0.196979 0.283987 0.288629
1028 4 0.221318 0.278297 0.289258
981 4 0.231955 0.262314 0.296138
979 2 0.247352 0.260977 0.315793
1095 4 0.470407 0.264344 0.269747
1093 2 0.461102 0.283655 0.256875
999 4 0.497181 0.28843 0.294914
997 2 0.503547 0.312063 0.300027
1163 4 0.0642624 0.335045 0.282901
1043 4 0.0640089 0.352173 0.291211
1042 2 0.0671594 0.363962 0.313035
1044 4 0.0703099 0.375752 0.334858
2835 4 0.0662142 0.395044 0.32884
1852 2 0.231816 0.380508 0.300259
1854 4 0.235786 0.368369 0.321755
1107 4 0.236769 0.410278 0.284756
1853 4 0.227845 0.392646 0.278764
2129 4 0.384683 0.41937 0.251551
2128 2 0.391758 0.416029 0.275299
2130 4 0.398832 0.412689 0.299048
4188 4 0.05945 0.495053 0.264643
4186 2 0.0460871 0.487163 0.284248
1140 4 0.0165722 0.476555 0.315906
4187 4 0.0327241 0.479273 0.303853
2833 2 0.0748137 0.418323 0.331892
2153 4 0.056217 0.504579 0.248514
1856 4 0.219205 0.468545 0.251294
1106 4 0.226197 0.454495 0.263928
1105 2 0.231483 0.432387 0.274342
793 2 0.282935 0.45389 0.306158
795 4 0.263123 0.442161 0.315911
794 4 0.302746 0.46562 0.296405
1175 4 0.321388 0.458378 0.294496
1174 2 0.336809 0.471085 0.279467
1968 4 0.369487 0.472902 0.266196
1176 4 0.352231 0.483792 0.264437
4013 4 0.41795 0.444974 0.324111
1879 2 0.495911 0.46706 0.296372
2045 4 0.421813 0.438802 0.305158
2046 4 0.462589 0.460439 0.285927
2044 2 0.442201 0.449621 0.295542
1881 4 0.479994 0.451816 0.284563
2988 4 0.058462 0.0142591 0.390764
3074 4 0.0628409 0.0272551 0.404689
2986 2 0.0785 0.999426 0.38886
2987 4 0.098538 0.984592 0.386956
1141 2 0.117984 0.0728029 0.351203
1143 4 0.103309 0.0735015 0.371435
1079 4 0.294358 0.0754136 0.329335
1827 4 0.276725 0.0727924 0.340741
1826 4 0.29439 0.0779732 0.387237
1825 2 0.285558 0.0753828 0.363989
90 3 0.297979 0.0629543 0.399284
86 1 0.315105 0.0694013 0.412841
21 1 0.385754 0.00176302 0.355259
88 3 0.333311 0.0553346 0.409831
921 4 0.350534 0.0542982 0.400537
919 2 0.370794 0.0437801 0.390335
920 4 0.391054 0.033262 0.380132
23 3 0.390113 0.0230237 0.363468
22 3 0.378512 0.00353418 0.333497
3106 2 0.082965 0.11903 0.370226
3108 4 0.0877184 0.120655 0.39472
839 4 0.0878682 0.12034 0.414963
3107 4 0.0782116 0.117404 0.345733
1077 4 0.0874489 0.104407 0.332518
841 2 0.190338 0.161669 0.33721
1129 2 0.172521 0.156483 0.392962
842 4 0.199679 0.150963 0.357784
1130 4 0.186883 0.147355 0.374643
3183 4 0.309159 0.130935 0.389711
87 3 0.321339 0.0908843 0.407478
3181 2 0.325486 0.149148 0.394897
3182 4 0.341814 0.16736 0.400084
2938 2 0.484844 0.149279 0.380141
1645 2 0.43817 0.168372 0.402862
2940 4 0.465166 0.139454 0.392035
1647 4 0.449795 0.151477 0.388557
1646 4 0.426545 0.185266 0.417166
1110 4 0.0557161 0.245573 0.393701
1108 2 0.0374865 0.233292 0.405618
1109 4 0.0192569 0.22101 0.417535
1244 4 0.117624 0.178978 0.367141
1243 2 0.122833 0.183559 0.343119
175 3 0.14344 0.176923 0.402661
172 3 0.110767 0.180199 0.384924
171 1 0.122495 0.185778 0.40391
173 3 0.123751 0.208897 0.405428
828 4 0.106705 0.21139 0.413746
1131 4 0.15816 0.165611 0.411282
816 4 0.347559 0.238896 0.347158
1167 4 0.354387 0.220722 0.346415
1165 2 0.377875 0.216506 0.353881
1166 4 0.401362 0.212291 0.361348
1226 4 0.409411 0.203647 0.378365
1225 2 0.415264 0.222187 0.394088
951 4 0.359388 0.177052 0.401615
949 2 0.383142 0.177662 0.409397
1227 4 0.421117 0.240726 0.409811
874 2 0.0501979 0.324082 0.349922
814 2 0.329792 0.256378 0.349127
815 4 0.312025 0.27386 0.351097
30 3 0.270417 0.249618 0.351876
27 3 0.258391 0.280743 0.368595
891 4 0.293265 0.254941 0.403213
28 3 0.29292 0.279745 0.353781
26 1 0.276678 0.267327 0.364753
29 3 0.284872 0.259803 0.385117
2923 2 0.0417355 0.367271 0.39852
875 4 0.04829 0.341243 0.368007
2925 4 0.052598 0.356352 0.378824
1169 4 0.240052 0.360622 0.417369
1168 2 0.216242 0.36813 0.41874
791 4 0.243498 0.34897 0.400025
1983 4 0.281168 0.403048 0.413382
1193 4 0.325538 0.395974 0.375888
2219 4 0.392483 0.38709 0.380468
1194 4 0.373171 0.381727 0.381265
1192 2 0.349355 0.388851 0.378577
2218 2 0.415209 0.39428 0.372917
2220 4 0.437934 0.401471 0.365366
1022 4 0.445339 0.419878 0.368841
1138 2 0.0259457 0.483347 0.338068
1922 4 0.0639762 0.471861 0.39205
1921 2 0.073169 0.458117 0.373295
2834 4 0.0834133 0.441602 0.334945
1139 4 0.0353192 0.49014 0.360231
1018 2 0.0250342 0.49406 0.393213
1019 4 0.0439443 0.494684 0.376866
1923 4 0.0823618 0.444372 0.35454
1037 4 0.242927 0.436299 0.342536
1036 2 0.264727 0.428375 0.351872
162 3 0.283943 0.422914 0.417599
164 3 0.316869 0.41945 0.399806
2084 4 0.278627 0.49487 0.377923
1038 4 0.286526 0.42045 0.361208
165 3 0.284506 0.417785 0.380636
161 1 0.295233 0.427665 0.398128
781 2 0.316725 0.482093 0.402041
782 4 0.295688 0.4687 0.403847
163 3 0.295704 0.450672 0.395152
4014 4 0.400226 0.458061 0.369003
1948 2 0.377846 0.486502 0.386855
1950 4 0.398269 0.475342 0.377715
4012 2 0.409088 0.451517 0.346557
1949 4 0.357423 0.497662 0.395995
1021 2 0.468273 0.422972 0.378307
1023 4 0.491208 0.426066 0.387772
941 4 0.0336158 0.00535786 0.491145
3073 2 0.0604496 0.0367539 0.427694
3075 4 0.0580583 0.0462528 0.450699
58 3 0.0597007 0.0650595 0.444377
56 1 0.0530209 0.076992 0.463123
60 3 0.0458746 0.062662 0.479317
942 4 0.0452337 0.0468647 0.465789
940 2 0.0394247 0.0261113 0.478467
3394 2 0.103718 0.015823 0.493326
89 3 0.308277 0.0688859 0.435012
59 3 0.0706772 0.0897685 0.471087
2859 4 0.0112094 0.133329 0.423745
1472 4 0.0153773 0.152529 0.425283
57 3 0.0357529 0.0910096 0.457252
2858 4 0.0433266 0.108778 0.453181
2857 2 0.027268 0.121053 0.438463
2210 4 0.058784 0.104739 0.468136
2209 2 0.0723425 0.125162 0.473063
838 2 0.0974425 0.141112 0.425064
1559 4 0.0993961 0.159021 0.47103
2211 4 0.0859011 0.145584 0.47799
840 4 0.107017 0.161884 0.435166
1146 4 0.337197 0.132205 0.487138
1100 4 0.403623 0.155921 0.479177
1473 4 0.0239913 0.201492 0.419887
1471 2 0.0196843 0.177011 0.422585
3151 2 0.0755974 0.240484 0.478403
3152 4 0.0971888 0.245393 0.466789
174 3 0.11137 0.177219 0.422386
1558 2 0.112948 0.178867 0.464126
826 2 0.100216 0.228863 0.430413
827 4 0.0937272 0.246336 0.447079
1495 2 0.141286 0.226285 0.477356
1560 4 0.1265 0.198712 0.457221
1496 4 0.121452 0.212585 0.470713
1497 4 0.16112 0.239984 0.483998
1579 2 0.248566 0.222308 0.500114
1581 4 0.235262 0.240089 0.511602
1580 4 0.261871 0.204526 0.488625
1700 4 0.261178 0.194761 0.470768
1699 2 0.28358 0.186594 0.478292
1701 4 0.305982 0.178427 0.485816
950 4 0.406896 0.178271 0.41718
1101 4 0.425832 0.196323 0.459807
1099 2 0.414727 0.176122 0.469492
517 3 0.409901 0.210964 0.458995
516 1 0.419435 0.229578 0.449414
519 3 0.420991 0.226257 0.426502
518 3 0.440595 0.232649 0.458427
1334 4 0.456992 0.231945 0.470558
3112 2 0.00532519 0.260765 0.488329
63 3 0.211986 0.296132 0.44893
62 3 0.249377 0.299244 0.451145
61 1 0.230974 0.28861 0.459943
65 3 0.229469 0.293371 0.482162
64 3 0.23336 0.265732 0.456892
935 4 0.244692 0.290269 0.494396
790 2 0.253845 0.32864 0.410263
889 2 0.279411 0.265625 0.421075
792 4 0.264192 0.30831 0.4205
890 4 0.265556 0.27631 0.438938
3650 4 0.346461 0.331514 0.502739
520 3 0.406422 0.247754 0.453765
1333 2 0.467407 0.234449 0.493151
2924 4 0.0308731 0.378191 0.418216
1188 4 0.0335021 0.379896 0.438122
1186 2 0.0295584 0.39741 0.455526
1187 4 0.0256147 0.414924 0.472929
3027 4 0.0251908 0.417618 0.493526
1239 4 0.159858 0.358562 0.47507
1631 4 0.166965 0.411051 0.49718
1237 2 0.167905 0.365825 0.452538
1170 4 0.192431 0.375637 0.420112
1238 4 0.175953 0.373087 0.430007
901 2 0.329175 0.402068 0.438891
1981 2 0.277165 0.379152 0.419559
1982 4 0.273163 0.355256 0.425735
902 4 0.333318 0.396409 0.46289
3649 2 0.364361 0.348273 0.507629
3037 2 0.499066 0.40463 0.487572
3038 4 0.48921 0.407638 0.464791
1090 2 0.138812 0.481381 0.447855
1091 4 0.130831 0.459959 0.457983
2172 4 0.12659 0.448259 0.475026
2170 2 0.147816 0.439715 0.485107
2171 4 0.169042 0.431171 0.495188
2798 4 0.314278 0.492014 0.497818
2797 2 0.298848 0.499155 0.479486
903 4 0.325032 0.407726 0.414891
3606 4 0.478854 0.429091 0.445345
3605 4 0.477858 0.478158 0.435741
3604 2 0.478356 0.453625 0.440543
4253 4 0.438144 0.455936 0.476258
4252 2 0.448776 0.44699 0.497045
3900 4 0.457151 0.483949 0.436929
1454 4 0.495847 0.419365 0.449542
862 2 0.134096 0.0471644 0.531952
864 4 0.147817 0.0482094 0.552829
1608 4 0.165161 0.038606 0.551099
3396 4 0.107711 0.0293595 0.513965
863 4 0.120375 0.0461194 0.511076
1606 2 0.180885 0.0539533 0.563033
1607 4 0.196608 0.0693007 0.574967
212 3 0.256918 0.0136389 0.524716
1180 2 0.282689 0.0343395 0.530745
1182 4 0.289771 0.0572095 0.537955
1053 4 0.2774 0.0666517 0.525601
1181 4 0.275608 0.0114696 0.523534
148 3 0.311685 0.0702349 0.581882
146 1 0.316165 0.0482628 0.575918
150 3 0.304035 0.0340501 0.588938
149 3 0.310961 0.0449057 0.553557
1232 4 0.326466 0.0433679 0.538983
1231 2 0.34563 0.0527896 0.525977
1233 4 0.364794 0.0622113 0.512972
1498 2 0.415631 0.0207735 0.572485
986 4 0.437637 0.0182187 0.535831
1500 4 0.43371 0.0229563 0.555352
4467 4 0.496477 0.0194373 0.505238
4541 4 0.503485 0.0365495 0.514438
1616 4 0.107615 0.169181 0.576983
1615 2 0.128487 0.164902 0.563897
1617 4 0.149358 0.160623 0.550812
1571 4 0.215789 0.125681 0.566125
1362 4 0.208791 0.143749 0.571909
1052 4 0.240604 0.100382 0.528612
1360 2 0.211159 0.166938 0.562863
1570 2 0.202929 0.10433 0.564145
1051 2 0.259002 0.0835169 0.527107
1145 4 0.346255 0.163724 0.524891
1144 2 0.341726 0.147965 0.506014
3153 4 0.054006 0.235574 0.490017
1361 4 0.213528 0.190128 0.553817
1601 4 0.216915 0.247982 0.520443
1600 2 0.227497 0.259915 0.539699
37 3 0.297963 0.187646 0.542195
36 1 0.312057 0.190121 0.524185
40 3 0.31762 0.212094 0.521977
39 3 0.301165 0.182752 0.505067
1322 4 0.319941 0.245752 0.54849
1286 4 0.322679 0.228964 0.559206
38 3 0.331152 0.177445 0.527806
4522 2 0.0313118 0.270712 0.535829
1040 4 0.0590157 0.29616 0.560526
4524 4 0.0404544 0.288631 0.550678
4523 4 0.0221692 0.252793 0.52098
3114 4 0.024916 0.26347 0.503628
1288 2 0.210006 0.298615 0.579911
1289 4 0.226682 0.287109 0.565259
1602 4 0.23808 0.271848 0.558955
1321 2 0.300103 0.260594 0.545119
1323 4 0.280265 0.275435 0.541748
936 4 0.285132 0.282613 0.522798
934 2 0.264912 0.286441 0.508597
2829 4 0.492642 0.251506 0.517643
1335 4 0.477822 0.236953 0.515744
1805 4 0.0988018 0.407566 0.534852
7 3 0.137923 0.384703 0.555765
6 1 0.129915 0.404814 0.563547
8 3 0.11178 0.411199 0.550556
9 3 0.12331 0.402216 0.585638
1632 4 0.17163 0.394844 0.544258
1630 2 0.169297 0.402947 0.520719
1353 4 0.273403 0.389832 0.582382
1698 4 0.381599 0.385689 0.51368
3651 4 0.382261 0.365032 0.512518
1696 2 0.366102 0.404546 0.508256
3039 4 0.508923 0.401622 0.510354
1116 4 0.425141 0.416891 0.574859
3025 2 0.00148447 0.41882 0.501384
1849 2 0.0626708 0.47876 0.534462
1806 4 0.0580357 0.43603 0.540207
1851 4 0.0648487 0.454432 0.539808
1804 2 0.0784188 0.421798 0.537529
10 3 0.146377 0.420489 0.56215
1391 4 0.151297 0.429575 0.544227
1390 2 0.154766 0.454315 0.545253
1392 4 0.158235 0.479056 0.54628
2342 4 0.142646 0.488814 0.556648
2358 4 0.262247 0.486156 0.586929
1344 4 0.314437 0.476047 0.55615
1342 2 0.309122 0.477247 0.531747
1343 4 0.303807 0.478446 0.507345
2594 4 0.263998 0.466757 0.581665
1697 4 0.350606 0.423404 0.502831
1115 4 0.443137 0.43353 0.53127
1114 2 0.434139 0.42521 0.553064
4254 4 0.459409 0.438043 0.517832
2441 4 0.087932 0.0605346 0.641685
2440 2 0.0888064 0.0679876 0.665536
147 3 0.338578 0.0441328 0.579039
1179 4 0.357766 0.0413141 0.584165
1642 2 0.382016 0.999545 0.612412
1499 4 0.397551 0.0185907 0.589619
1644 4 0.379579 0.011402 0.590534
1177 2 0.366098 0.0606948 0.597587
1178 4 0.374431 0.0800755 0.611008
1135 2 0.387966 0.0676262 0.651131
1136 4 0.395212 0.0649937 0.674917
1137 4 0.380721 0.0702588 0.627346
2266 2 0.412899 0.00743732 0.657099
2267 4 0.433207 0.0209765 0.662527
530 3 0.44256 0.0398325 0.663901
527 3 0.446618 0.0769036 0.665372
1572 4 0.19007 0.0829779 0.562165
1480 2 0.469371 0.165151 0.633934
1482 4 0.485023 0.149358 0.645369
1548 4 0.484195 0.134897 0.660624
2831 4 0.0323756 0.241524 0.666022
1285 2 0.329221 0.229921 0.58332
1287 4 0.335763 0.230878 0.607433
1384 2 0.374802 0.226386 0.623145
1661 4 0.410938 0.229332 0.636632
1385 4 0.398785 0.219591 0.625105
1386 4 0.350819 0.23318 0.621186
1481 4 0.453719 0.180944 0.622498
1660 2 0.430652 0.214698 0.631903
1662 4 0.450366 0.200064 0.627174
1039 2 0.0500981 0.311419 0.578212
1041 4 0.0411806 0.326679 0.595898
2832 4 0.985965 0.259639 0.670337
2830 2 0.00917023 0.250581 0.668179
1290 4 0.193329 0.310122 0.594563
1629 4 0.173754 0.30888 0.597124
1627 2 0.166914 0.325985 0.61403
1673 4 0.425774 0.297158 0.647282
1563 4 0.415513 0.310867 0.657572
1674 4 0.461548 0.293744 0.612508
1672 2 0.443661 0.295451 0.629895
3473 4 0.493092 0.281405 0.653531
3472 2 0.49635 0.259787 0.665665
1593 4 0.0410344 0.329065 0.615727
1591 2 0.0545008 0.348582 0.623659
1592 4 0.0679672 0.3681 0.63159
3542 4 0.0758305 0.370647 0.613107
3541 2 0.0938655 0.387001 0.607408
3543 4 0.111901 0.403355 0.60171
3367 2 0.157643 0.343324 0.674907
1628 4 0.160075 0.343091 0.630936
3369 4 0.159408 0.339528 0.650256
1613 4 0.195757 0.399622 0.637733
1612 2 0.217531 0.388534 0.632431
1356 4 0.178282 0.398594 0.628059
1614 4 0.239306 0.377446 0.627128
1352 4 0.245842 0.363132 0.614448
1653 4 0.291556 0.395119 0.589662
1351 2 0.259623 0.376482 0.598415
1436 4 0.159033 0.461187 0.607962
1355 4 0.166178 0.442938 0.608365
1435 2 0.158784 0.485059 0.615392
1354 2 0.17223 0.420766 0.618212
1470 4 0.242181 0.461534 0.639834
1468 2 0.227117 0.473011 0.65616
2595 4 0.235191 0.45652 0.621239
1651 2 0.304644 0.415607 0.595502
2593 2 0.249595 0.461638 0.601452
1652 4 0.317732 0.436096 0.601342
2529 4 0.310545 0.45017 0.615101
2527 2 0.328101 0.467923 0.613769
2558 4 0.355117 0.496906 0.599278
2528 4 0.345658 0.485676 0.612436
2557 2 0.377264 0.49982 0.610511
2442 4 0.0896807 0.0754406 0.689387
1685 4 0.0943633 0.0655147 0.706836
1684 2 0.109959 0.0781321 0.721761
1299 4 0.167444 0.0122763 0.699212
1297 2 0.161968 0.999329 0.678535
2736 4 0.176118 0.0249356 0.710972
2735 4 0.219246 0.04917 0.718277
2734 2 0.197682 0.0370528 0.714624
1682 4 0.23175 0.0374381 0.72912
1681 2 0.256231 0.0349966 0.724661
1683 4 0.280712 0.0325551 0.720201
321 1 0.299547 0.000310339 0.74195
323 3 0.290835 0.0193665 0.731981
529 3 0.414126 0.0613175 0.676049
526 1 0.437166 0.0586035 0.675615
528 3 0.445369 0.057056 0.697265
1667 4 0.457571 0.0531904 0.712809
1666 2 0.473369 0.0338671 0.714297
1668 4 0.489167 0.0145438 0.715784
1324 2 0.0607228 0.133536 0.746153
1326 4 0.0368131 0.126237 0.745675
1686 4 0.125555 0.0907496 0.736686
1692 4 0.145024 0.0936476 0.738694
1690 2 0.152507 0.117497 0.739331
1691 4 0.159989 0.141346 0.739968
1296 4 0.24164 0.154289 0.674533
142 3 0.221698 0.157032 0.737291
1295 4 0.257454 0.113836 0.699315
1294 2 0.249547 0.134063 0.686924
1545 4 0.345645 0.144397 0.72964
1543 2 0.361568 0.162795 0.735397
1619 4 0.340571 0.14515 0.749157
1547 4 0.456785 0.093135 0.662934
1546 2 0.47049 0.114016 0.661779
465 3 0.042403 0.18124 0.705921
461 1 0.0359128 0.192968 0.724332
462 3 0.0238949 0.179161 0.738263
463 3 0.0224731 0.210802 0.718027
1494 4 0.00701632 0.219605 0.726388
464 3 0.0545591 0.200748 0.735743
3564 4 0.0539427 0.218846 0.746266
1277 4 0.128365 0.193298 0.713655
1276 2 0.151299 0.198337 0.705061
144 3 0.240297 0.185129 0.720639
1278 4 0.174232 0.203376 0.696468
1404 4 0.194827 0.199666 0.695784
1402 2 0.213353 0.183547 0.691079
1403 4 0.231879 0.167429 0.686373
145 3 0.225438 0.189709 0.75493
141 1 0.235682 0.174925 0.74096
143 3 0.255334 0.167232 0.750606
1420 2 0.338994 0.248979 0.749584
1544 4 0.37749 0.181194 0.741154
1531 2 0.381645 0.216407 0.736464
1532 4 0.386959 0.196526 0.750666
1533 4 0.376331 0.236288 0.722262
1479 4 0.00826118 0.300953 0.723615
1477 2 0.0262052 0.290073 0.737209
1340 4 0.231819 0.316426 0.724989
1281 4 0.196405 0.334404 0.717975
1422 4 0.33549 0.267833 0.733539
1702 2 0.346702 0.310599 0.726597
1703 4 0.352432 0.334874 0.72484
1704 4 0.340972 0.286324 0.728353
1452 4 0.418847 0.325974 0.71718
1562 4 0.407308 0.313602 0.706826
1561 2 0.411411 0.312235 0.682199
1450 2 0.418351 0.309943 0.736362
3465 4 0.145737 0.333659 0.710462
3368 4 0.155878 0.34712 0.699557
3463 2 0.135397 0.352384 0.723409
3464 4 0.125057 0.371109 0.736357
1746 4 0.123089 0.387707 0.746621
1744 2 0.108862 0.408166 0.744575
1279 2 0.188498 0.354972 0.729792
1280 4 0.180591 0.375539 0.741609
1719 4 0.231491 0.418179 0.703423
2627 4 0.196048 0.3833 0.751371
3428 4 0.214146 0.407094 0.707018
1717 2 0.242468 0.395716 0.703111
1339 2 0.24396 0.337863 0.720722
1718 4 0.253445 0.373253 0.702798
1341 4 0.256101 0.359301 0.716456
1267 2 0.336671 0.36271 0.74383
1269 4 0.349889 0.353723 0.724602
3795 4 0.477619 0.354159 0.717536
1574 4 0.481262 0.334017 0.721437
3793 2 0.488257 0.370405 0.701786
3794 4 0.498896 0.386651 0.686036
482 3 0.489435 0.404347 0.684594
1573 2 0.48375 0.332095 0.746242
1604 4 0.0776234 0.44101 0.745897
1588 2 0.168026 0.465345 0.720456