ITEM: TIMESTEP
2640000
ITEM: NUMBER OF ATOMS
1600
ITEM: BOX BOUNDS pp pp pp
-6.9325799999999997e+00 6.9325799999999997e+00
-6.9325799999999997e+00 6.9325799999999997e+00
-6.9325799999999997e+00 6.9325799999999997e+00
ITEM: ATOMS id type xs ys zs
667 4 0.0655342 0.075634 0.122625
665 2 0.06187 0.111476 0.121094
406 4 0.223311 0.0625293 0.0590995
404 2 0.212601 0.0300217 0.0704571
72 3 0.251248 0.0556098 0.0569852
469 4 0.228228 0.115723 0.0066194
405 4 0.201891 0.997514 0.0818147
75 3 0.244246 0.0918815 0.0178352
71 1 0.264298 0.0821568 0.0419642
73 3 0.267818 0.106678 0.0644646
727 4 0.317023 0.0580211 0.0226033
74 3 0.294161 0.0738564 0.0293455
725 2 0.351589 0.0478709 0.0209727
666 4 0.0582058 0.147319 0.119564
673 4 0.0603159 0.175542 0.123932
671 2 0.0867266 0.188724 0.103216
672 4 0.113137 0.201906 0.0825003
467 2 0.196372 0.132277 0.0032178
573 4 0.117573 0.174839 0.0723282
572 2 0.133488 0.173555 0.0399938
574 4 0.149402 0.172271 0.00765928
161 1 0.44485 0.14523 0.0578431
164 3 0.419669 0.123214 0.0567757
162 3 0.470701 0.131219 0.0732092
163 3 0.453995 0.153642 0.02677
165 3 0.435616 0.172022 0.0744487
531 4 0.466378 0.170299 0.0054357
1084 4 0.509061 0.268363 0.0750143
266 2 0.248209 0.348978 0.0984243
268 4 0.220013 0.356681 0.119546
267 4 0.276404 0.341275 0.0773024
12 3 0.344043 0.337747 0.0373108
11 1 0.315821 0.353874 0.0439558
15 3 0.292298 0.343358 0.0235858
261 4 0.35831 0.317369 0.0524263
260 2 0.393873 0.321863 0.0563704
1082 2 0.479569 0.289113 0.0746857
1083 4 0.450077 0.309863 0.0743571
262 4 0.429435 0.326357 0.0603146
307 4 0.10856 0.462306 0.0476309
305 2 0.11254 0.47401 0.0137544
375 4 0.0980834 0.466474 0.137839
356 2 0.0278336 0.393475 0.109038
374 2 0.130462 0.460052 0.123319
70 3 0.187338 0.468114 0.032078
66 1 0.19134 0.482046 0.0615519
69 3 0.223681 0.481509 0.0701393
376 4 0.162841 0.45363 0.1088
67 3 0.173965 0.465041 0.084127
327 4 0.226296 0.455334 0.0814249
13 3 0.307056 0.347726 0.0756627
14 3 0.320834 0.386679 0.0396438
326 2 0.262059 0.455449 0.086049
328 4 0.297823 0.455564 0.0906731
390 4 0.302482 0.459518 0.117487
943 4 0.0793562 0.0517306 0.129676
941 2 0.0787737 0.0231268 0.151628
734 2 0.0271346 0.0819933 0.235926
653 2 0.108497 0.0883112 0.197277
735 4 0.0605008 0.0947042 0.240982
654 4 0.0832752 0.0940763 0.222398
655 4 0.133719 0.0825461 0.172157
418 4 0.210187 0.99941 0.215356
700 4 0.187711 0.00464028 0.19976
698 2 0.16334 0.0295049 0.190367
699 4 0.138969 0.0543696 0.180974
416 2 0.224863 0.0156564 0.244011
947 2 0.123074 0.197439 0.195797
1510 4 0.0815221 0.174637 0.236802
949 4 0.0968888 0.180427 0.213835
1508 2 0.0465578 0.176684 0.245389
1509 4 0.0115935 0.17873 0.253977
948 4 0.149259 0.21445 0.177758
317 2 0.192109 0.214352 0.143259
318 4 0.227706 0.215573 0.137622
496 4 0.238605 0.215294 0.164337
319 4 0.156511 0.213132 0.148896
494 2 0.264942 0.233451 0.180983
20 3 0.269455 0.173823 0.215957
17 3 0.305473 0.192492 0.251335
712 4 0.316248 0.190079 0.224564
710 2 0.347046 0.184911 0.206531
16 1 0.275502 0.178691 0.247873
711 4 0.377844 0.179743 0.188497
310 4 0.401471 0.162663 0.182449
308 2 0.436068 0.156379 0.174452
309 4 0.470666 0.150095 0.166454
964 4 0.493497 0.155525 0.184433
338 2 0.0746005 0.338723 0.164756
339 4 0.0878711 0.331824 0.19757
393 4 0.0918599 0.358691 0.209446
340 4 0.06133 0.345623 0.131942
392 2 0.1127 0.35372 0.238454
383 2 0.207142 0.344225 0.173779
384 4 0.198856 0.358999 0.141943
385 4 0.215427 0.329452 0.205615
415 4 0.244569 0.331969 0.208158
495 4 0.291279 0.251609 0.19763
414 4 0.292071 0.277732 0.210078
413 2 0.26832 0.304851 0.209118
369 4 0.337083 0.360255 0.209285
342 4 0.422592 0.32013 0.208489
341 2 0.44747 0.294996 0.215548
519 4 0.494837 0.269727 0.204878
343 4 0.472348 0.269863 0.222607
380 2 0.0481756 0.492029 0.164586
382 4 0.0704629 0.470384 0.146277
357 4 0.0458267 0.362945 0.115716
381 4 0.0258883 0.513674 0.182895
368 2 0.331566 0.392611 0.19435
370 4 0.326049 0.424968 0.179414
391 4 0.344244 0.448029 0.175156
389 2 0.323363 0.453774 0.146321
129 3 0.469616 0.402146 0.23591
1031 2 0.112211 0.0688746 0.351771
1032 4 0.115668 0.0339404 0.34352
93 3 0.115505 0.0160355 0.365832
330 4 0.100004 0.126313 0.34368
1033 4 0.108754 0.103809 0.360023
417 4 0.239539 0.0319027 0.272666
751 4 0.240481 0.0604502 0.278505
749 2 0.257602 0.0904361 0.268106
137 3 0.37755 0.0231089 0.363366
549 4 0.401856 0.00603819 0.356561
329 2 0.121449 0.150035 0.360349
18 3 0.275105 0.149458 0.264158
750 4 0.274724 0.120422 0.257707
19 3 0.252539 0.199301 0.260831
1382 2 0.491779 0.232573 0.376577
394 4 0.13354 0.34875 0.267461
336 4 0.149133 0.358665 0.290066
273 4 0.407237 0.32365 0.312584
1000 4 0.440675 0.333672 0.35443
998 2 0.45925 0.30411 0.363457
272 2 0.434611 0.331223 0.290363
128 3 0.484769 0.357759 0.264277
274 4 0.461984 0.338797 0.268142
1383 4 0.468016 0.254115 0.393061
313 4 0.0396681 0.439095 0.282911
311 2 0.0519239 0.469199 0.26729
675 4 0.175279 0.414563 0.354544
335 2 0.164756 0.385458 0.308464
674 2 0.190131 0.442969 0.371065
337 4 0.18038 0.412251 0.326862
126 1 0.495633 0.384845 0.247899
528 4 0.324681 0.0245953 0.413955
527 2 0.302191 0.0507834 0.424388
529 4 0.279701 0.0769714 0.434821
139 3 0.352377 0.0229713 0.411374
136 1 0.378498 0.0350592 0.394301
259 4 0.275346 0.106217 0.434028
138 3 0.376861 0.0684612 0.393051
140 3 0.406541 0.0257429 0.408643
277 4 0.413019 0.0240618 0.435646
275 2 0.411355 0.0465962 0.463751
276 4 0.409692 0.0691306 0.491855
331 4 0.142894 0.173756 0.377017
396 4 0.161885 0.15954 0.39507
395 2 0.194032 0.172466 0.405068
397 4 0.226178 0.185392 0.415066
258 4 0.242327 0.170336 0.434583
257 2 0.258837 0.138277 0.434306
443 2 0.326047 0.215397 0.487062
445 4 0.289999 0.214409 0.487146
444 4 0.362095 0.216385 0.486979
1003 4 0.382697 0.19733 0.483611
1001 2 0.415477 0.187753 0.495192
1002 4 0.448258 0.178175 0.506774
1021 4 0.0643688 0.360288 0.436073
401 2 0.0837731 0.314077 0.464341
403 4 0.0822382 0.348838 0.454868
402 4 0.0853081 0.279315 0.473814
1 1 0.344598 0.347807 0.417856
3 3 0.323551 0.322195 0.422435
2 3 0.353814 0.359544 0.447487
498 4 0.365839 0.354862 0.474359
4 3 0.329334 0.372232 0.400816
5 3 0.371205 0.33766 0.401487
999 4 0.477825 0.274548 0.372483
399 4 0.439093 0.348845 0.379708
761 2 0.47418 0.315987 0.487303
300 4 0.0233645 0.488955 0.492997
1020 4 0.0507019 0.411177 0.48532
1019 2 0.0575353 0.385732 0.460696
643 4 0.227955 0.464829 0.403448
676 4 0.204984 0.471375 0.387586
278 2 0.220174 0.408923 0.456033
280 4 0.203942 0.397709 0.486219
279 4 0.236407 0.420136 0.425846
472 4 0.264192 0.429959 0.420117
471 4 0.325379 0.391863 0.422678
470 2 0.294785 0.410911 0.421398
497 2 0.385932 0.37824 0.493071
661 4 0.398578 0.505706 0.388624
659 2 0.407543 0.472733 0.400148
398 2 0.426855 0.380314 0.392372
400 4 0.414617 0.411783 0.405036
660 4 0.416508 0.439759 0.411673
990 4 0.0227622 0.0606621 0.543196
446 2 0.241854 0.0731638 0.602552
447 4 0.236159 0.0375552 0.602381
924 4 0.227546 0.0295285 0.628903
448 4 0.24755 0.108772 0.602723
408 4 0.435859 0.0793477 0.489815
407 2 0.465656 0.0924263 0.505357
1110 4 0.483472 0.0158129 0.61052
51 1 0.229515 0.163735 0.604603
52 3 0.201053 0.154081 0.618654
430 4 0.220379 0.180317 0.546508
55 3 0.223389 0.174915 0.574332
53 3 0.243079 0.188015 0.623216
505 4 0.384191 0.11721 0.57043
503 2 0.36013 0.128445 0.594828
54 3 0.250278 0.137531 0.603114
428 2 0.249422 0.192048 0.528638
504 4 0.336069 0.139681 0.619226
429 4 0.278464 0.203779 0.510767
1219 4 0.462067 0.228348 0.56865
1147 4 0.471001 0.239095 0.593865
28 3 0.463285 0.197819 0.566593
30 3 0.486424 0.22135 0.609718
1217 2 0.449239 0.246109 0.540007
1218 4 0.43641 0.263871 0.511365
29 3 0.475552 0.168162 0.611028
26 1 0.484961 0.193872 0.591783
377 2 0.0680755 0.275928 0.532388
378 4 0.0511356 0.285227 0.562835
10 3 0.0744105 0.290417 0.582957
379 4 0.0850155 0.266629 0.501941
6 1 0.0891069 0.313141 0.601571
7 3 0.0768601 0.343037 0.594026
576 4 0.0544877 0.357912 0.581227
8 3 0.122053 0.313149 0.595698
581 2 0.229797 0.285929 0.613112
582 4 0.212912 0.316663 0.604702
583 4 0.246683 0.255195 0.621521
763 4 0.444542 0.297988 0.497207
1145 2 0.461266 0.264317 0.61773
575 2 0.0344694 0.383717 0.565936
668 2 0.012387 0.445724 0.519088
577 4 0.0144511 0.409523 0.550645
670 4 0.0173508 0.41011 0.521822
669 4 0.00742325 0.481337 0.516354
1087 4 0.107058 0.445456 0.526088
1086 4 0.124963 0.453194 0.595523
1085 2 0.116011 0.449325 0.560805
933 4 0.146699 0.472865 0.591568
298 4 0.333372 0.474757 0.564823
296 2 0.355588 0.489835 0.540749
525 4 0.25343 0.403564 0.608381
524 2 0.253937 0.439291 0.613258
499 4 0.406024 0.401619 0.511784
544 4 0.489826 0.415437 0.567567
1120 4 0.494761 0.420519 0.595018
264 4 0.40667 0.49518 0.515648
797 2 0.227204 0.0123265 0.74866
562 4 0.200676 0.108102 0.647372
560 2 0.225382 0.104342 0.67337
441 4 0.252045 0.111221 0.724307
561 4 0.250088 0.100583 0.699369
105 3 0.485257 0.0697718 0.671673
102 3 0.478428 0.0396176 0.627611
506 2 0.0917515 0.155017 0.694792
507 4 0.0722782 0.141093 0.721761
508 4 0.111225 0.168942 0.667823
534 4 0.119459 0.237234 0.658844
931 4 0.124191 0.147249 0.654866
929 2 0.15709 0.138583 0.642908
930 4 0.18999 0.129917 0.630951
558 4 0.230085 0.198187 0.688484
557 2 0.23321 0.227945 0.668357
437 2 0.254234 0.202344 0.739665
438 4 0.246556 0.186786 0.708051
903 4 0.314304 0.136487 0.637282
902 2 0.305506 0.166449 0.655318
904 4 0.296707 0.196411 0.673353
492 4 0.317962 0.215321 0.6685
491 2 0.341369 0.240659 0.679014
478 4 0.0657115 0.326034 0.642341
37 3 0.0854775 0.356904 0.701075
38 3 0.104915 0.306513 0.696448
36 1 0.105546 0.334408 0.714926
476 2 0.0341245 0.333388 0.658109
9 3 0.0832726 0.306912 0.63393
40 3 0.0951226 0.32791 0.745388
535 4 0.133559 0.302858 0.685233
533 2 0.126509 0.270046 0.672038
39 3 0.136629 0.346773 0.715887
792 4 0.147587 0.323146 0.705081
791 2 0.183172 0.328958 0.705685
793 4 0.218757 0.334769 0.706289
1209 4 0.224102 0.351377 0.684617
1208 2 0.23002 0.36934 0.653912
1210 4 0.235937 0.387302 0.623207
559 4 0.236335 0.257704 0.64823
493 4 0.364776 0.265997 0.689528
294 4 0.370819 0.293718 0.694941
1146 4 0.451532 0.289539 0.641595
293 2 0.402025 0.298196 0.677432
295 4 0.433231 0.302674 0.659924
1179 4 0.4346 0.373883 0.747761
1521 4 0.00762955 0.513049 0.755832
526 4 0.254443 0.475017 0.618136
555 4 0.304559 0.415837 0.726221
554 2 0.282745 0.396132 0.747108
521 2 0.485516 0.402143 0.727929
523 4 0.46158 0.376326 0.735738
421 4 0.0165097 0.095523 0.8196
536 2 0.0748565 0.0751189 0.832921
538 4 0.0399885 0.0841413 0.831117
537 4 0.109725 0.0660964 0.834725
63 3 0.108819 0.0402114 0.848963
270 4 0.155267 0.038443 0.80519
61 1 0.138778 0.0258577 0.853006
62 3 0.160489 0.0404137 0.832574
269 2 0.181986 0.0593882 0.79303
271 4 0.208704 0.0803333 0.78087
442 4 0.204288 0.108696 0.778295
440 2 0.228166 0.109959 0.751301
64 3 0.136963 0.993306 0.845453
799 4 0.257902 0.0199834 0.765965
500 2 0.153954 0.21355 0.854486
502 4 0.184146 0.218288 0.835343
44 3 0.205735 0.230561 0.81891
41 1 0.232068 0.249717 0.811195
501 4 0.123762 0.208813 0.873628
439 4 0.261911 0.217902 0.77128
42 3 0.254868 0.230998 0.796014
324 4 0.263821 0.256581 0.858677
1260 4 0.0127912 0.318099 0.770057
463 4 0.0716962 0.314999 0.760016
1259 2 0.991441 0.289039 0.770325
461 2 0.087385 0.317419 0.792395
462 4 0.103074 0.31984 0.824775
43 3 0.222667 0.274251 0.790467
894 4 0.250185 0.281053 0.785381
45 3 0.245025 0.262496 0.838538
556 4 0.260931 0.376426 0.767995
895 4 0.263243 0.347876 0.761593
893 2 0.256714 0.314465 0.773487
323 2 0.298083 0.267124 0.8626
434 2 0.438324 0.280103 0.82409
436 4 0.460824 0.265987 0.799699
1186 4 0.486716 0.254873 0.794127
435 4 0.415823 0.294218 0.848481
1178 2 0.402564 0.386123 0.758911
322 4 0.415417 0.284715 0.875521
1520 2 0.041303 0.501343 0.761264
1522 4 0.0749764 0.489637 0.766696
545 2 0.0992951 0.446972 0.791283
546 4 0.0721555 0.470381 0.787294
547 4 0.126435 0.423564 0.795273
1041 4 0.154764 0.424561 0.805543
1042 4 0.218793 0.415105 0.837365
1040 2 0.186779 0.419833 0.821454
738 4 0.235284 0.434848 0.848636
737 2 0.25491 0.411506 0.867883
1497 4 0.35805 0.418382 0.756077
1496 2 0.3563 0.450614 0.772153
1498 4 0.35455 0.482847 0.78823
1180 4 0.370529 0.398364 0.770061
65 3 0.148913 0.0296181 0.884022
920 2 0.396213 0.999279 0.907811
115 3 0.422099 0.0101735 0.949991
114 3 0.45535 0.0364289 0.983959
111 1 0.428877 0.0160953 0.981579
922 4 0.420404 0.0213107 0.922973
113 3 0.40238 0.030041 0.996524
1588 4 0.47806 0.0235096 0.981105
726 4 0.386154 0.0377207 0.0193421
483 4 0.0826609 0.241341 0.942627
482 2 0.109189 0.232429 0.919884
484 4 0.135717 0.223518 0.89714
468 4 0.164515 0.148831 0.999816
1171 4 0.489959 0.198843 0.916793
325 4 0.332345 0.277666 0.866524
1130 2 0.477706 0.362532 0.934298
1132 4 0.44351 0.351085 0.934101
320 2 0.420461 0.315667 0.893326
321 4 0.425506 0.346618 0.91113
306 4 0.11652 0.485713 0.979878
516 4 0.131071 0.510124 0.976513
515 2 0.141319 0.516057 0.942451
355 4 0.256585 0.383606 0.909145
353 2 0.269595 0.39072 0.942017
739 4 0.274535 0.388165 0.88713
354 4 0.282605 0.397834 0.974889
252 4 0.420508 0.405398 0.888446
251 2 0.409608 0.429987 0.912467
253 4 0.398708 0.454577 0.936488
651 4 0.0295388 0.584055 0.118286
433 4 0.0300864 0.560392 0.104863
431 2 0.0344354 0.546575 0.0718383
650 2 0.0302906 0.619933 0.121836
432 4 0.0387843 0.532758 0.0388138
68 3 0.180224 0.513604 0.0608684
628 4 0.330388 0.570639 0.0451618
828 4 0.347098 0.55208 0.0604408
626 2 0.307807 0.598178 0.0394937
827 2 0.381141 0.545095 0.0700707
829 4 0.415184 0.538111 0.0797006
1444 4 0.41975 0.546137 0.106888
1442 2 0.45373 0.535254 0.101659
1443 4 0.487711 0.524372 0.096431
662 2 0.0959908 0.722668 0.089409
911 2 0.101142 0.690144 0.0186342
912 4 0.0989601 0.703825 0.0519285
652 4 0.0310425 0.655812 0.125385
304 4 0.0567622 0.760552 0.110836
302 2 0.0255057 0.746419 0.121959
913 4 0.103324 0.676463 0.98534
664 4 0.108158 0.69117 0.0767483
292 4 0.232571 0.725198 0.0539013
290 2 0.219142 0.755333 0.0684591
631 4 0.258281 0.715824 0.0651237
629 2 0.271989 0.685891 0.0504082
630 4 0.285697 0.655958 0.0356927
627 4 0.285225 0.625716 0.0338256
733 4 0.377151 0.733075 0.00706812
731 2 0.357162 0.714508 0.0306508
732 4 0.337174 0.695941 0.0542336
1331 2 0.461368 0.701826 0.0555552
1332 4 0.46707 0.714327 0.0222136
1333 4 0.455667 0.689325 0.0888968
754 4 0.45826 0.664618 0.101223
291 4 0.205713 0.785469 0.0830168
615 4 0.225 0.784289 0.10507
256 4 0.305131 0.873289 0.0366902
622 4 0.305371 0.847194 0.0243334
807 4 0.43989 0.843179 0.103906
850 4 0.463183 0.832877 0.0900814
848 2 0.492597 0.83954 0.0703112
806 2 0.416917 0.837925 0.131202
1474 4 0.019698 0.982564 0.0335437
578 2 0.0754586 0.950034 0.0332338
579 4 0.105933 0.931157 0.029307
580 4 0.0449844 0.968911 0.0371605
552 4 0.128018 0.941131 0.0446063
551 2 0.157107 0.959121 0.0560363
553 4 0.186196 0.977111 0.0674662
851 2 0.262237 0.940159 0.10487
254 2 0.299863 0.879505 0.0718193
255 4 0.294596 0.885722 0.106948
1582 4 0.27252 0.962881 0.0489005
1580 2 0.275162 0.962566 0.0129371
853 4 0.277806 0.953762 0.0753239
229 3 0.374228 0.957821 0.0954479
730 4 0.396628 0.956983 0.0760575
728 2 0.417291 0.97278 0.0510786
729 4 0.437954 0.988577 0.0260996
312 4 0.0641796 0.499303 0.25167
1325 2 0.49291 0.615655 0.194967
720 4 0.434867 0.533871 0.240035
1327 4 0.45744 0.621889 0.19312
719 2 0.469458 0.543053 0.244461
663 4 0.0838241 0.754166 0.10207
586 4 0.0332732 0.682681 0.137279
584 2 0.0421345 0.684998 0.172158
585 4 0.0509959 0.687314 0.207037
474 4 0.0784042 0.677375 0.202829
473 2 0.103841 0.687286 0.226391
753 4 0.461824 0.632488 0.165696
752 2 0.460042 0.648553 0.133459
88 3 0.0958881 0.884265 0.151373
87 3 0.138746 0.881099 0.184414
614 2 0.237805 0.796913 0.136329
1311 4 0.183405 0.846575 0.210668
616 4 0.250609 0.809537 0.167588
1310 2 0.183799 0.817801 0.232401
1312 4 0.184193 0.789027 0.254134
715 4 0.249548 0.838046 0.171313
713 2 0.252364 0.872308 0.182204
1198 4 0.388061 0.828518 0.209242
808 4 0.393945 0.832672 0.158498
1197 4 0.42624 0.774871 0.238672
1196 2 0.407151 0.801694 0.223957
1322 2 0.475199 0.759082 0.267038
89 3 0.095975 0.910901 0.19928
968 2 0.107624 0.934424 0.249808
969 4 0.0883214 0.913385 0.227782
86 1 0.114706 0.9011 0.173337
90 3 0.12824 0.927247 0.158775
942 4 0.0781912 0.994523 0.173581
852 4 0.246667 0.926555 0.134416
742 4 0.156447 0.923352 0.158678
740 2 0.190752 0.93304 0.153226
741 4 0.225058 0.942728 0.147774
227 3 0.368661 0.00650508 0.118628
714 4 0.25518 0.90657 0.193096
658 4 0.280188 0.910034 0.178388
656 2 0.311139 0.923428 0.165618
657 4 0.34209 0.936822 0.152848
228 3 0.351116 0.962474 0.144932
226 1 0.374769 0.974428 0.124497
230 3 0.404296 0.971435 0.138569
1176 4 0.0530871 0.606353 0.304596
1175 2 0.0532385 0.584181 0.333037
1177 4 0.05339 0.56201 0.361477
843 4 0.0661028 0.568774 0.385655
701 2 0.360554 0.612083 0.330561
702 4 0.383517 0.584485 0.333949
721 4 0.504049 0.552235 0.248886
1436 2 0.469637 0.604576 0.346979
901 4 0.0346636 0.618861 0.288237
900 4 0.0129368 0.685039 0.269527
899 2 0.0238002 0.65195 0.278882
1385 2 0.0111375 0.7333 0.281505
1386 4 0.992449 0.703645 0.273034
346 4 0.137927 0.71907 0.232525
475 4 0.129278 0.697198 0.249953
811 4 0.217696 0.734626 0.280724
809 2 0.237431 0.71985 0.307042
344 2 0.153651 0.745097 0.25191
703 4 0.337591 0.639682 0.327173
687 4 0.343174 0.662697 0.346064
810 4 0.257166 0.705073 0.33336
688 4 0.2774 0.684838 0.326435
686 2 0.310287 0.673768 0.336249
1437 4 0.474061 0.62735 0.31937
1387 4 0.0298256 0.762955 0.289977
192 3 0.0099352 0.783482 0.297782
194 3 0.00861631 0.805851 0.347141
1264 4 0.023644 0.803375 0.371545
345 4 0.169375 0.771125 0.271294
766 4 0.494491 0.837686 0.328784
1324 4 0.453361 0.77982 0.247201
764 2 0.46437 0.818623 0.334237
765 4 0.434249 0.799559 0.339691
1243 4 0.00346241 0.907735 0.294362
768 4 0.0251645 0.919327 0.309208
769 4 0.0822857 0.961495 0.321889
767 2 0.0537251 0.940411 0.315549
94 3 0.104336 0.969438 0.339216
91 1 0.110513 0.983109 0.36913
970 4 0.126928 0.955464 0.271834
92 3 0.137912 0.96932 0.381773
316 4 0.208231 0.931612 0.305844
314 2 0.216746 0.942454 0.339166
697 4 0.287363 0.89872 0.281934
695 2 0.317672 0.898502 0.262395
696 4 0.347981 0.898284 0.242856
315 4 0.225261 0.953297 0.372488
548 2 0.384139 0.983109 0.335096
550 4 0.366421 0.960179 0.31363
844 4 0.076624 0.556603 0.455961
842 2 0.0713634 0.562689 0.420808
299 2 0.0389791 0.513949 0.472214
301 4 0.0545936 0.538943 0.451431
642 4 0.233919 0.528094 0.43756
914 2 0.145548 0.613029 0.462365
641 2 0.230937 0.496462 0.420504
916 4 0.130165 0.593195 0.488257
915 4 0.16093 0.632862 0.436472
595 4 0.188444 0.624313 0.434856
1566 4 0.476076 0.557652 0.383787
1565 2 0.448093 0.535848 0.377305
1567 4 0.420111 0.514045 0.370822
887 2 0.448867 0.601012 0.488067
1438 4 0.465213 0.581802 0.374587
593 2 0.211906 0.647913 0.420963
594 4 0.235368 0.671513 0.407069
603 4 0.252489 0.692187 0.418855
604 4 0.318943 0.695472 0.446691
602 2 0.285716 0.693829 0.432773
25 3 0.33593 0.713776 0.429699
22 3 0.358467 0.745688 0.466727
1350 4 0.494384 0.670097 0.412443
889 4 0.462416 0.624417 0.464213
1537 4 0.0302191 0.770217 0.473624
1534 4 0.0744144 0.774386 0.452491
1262 2 0.0474179 0.788258 0.394056
1263 4 0.0711918 0.773141 0.416566
1532 2 0.108876 0.784588 0.449529
634 4 0.0574729 0.773677 0.478274
182 3 0.147659 0.801851 0.416742
183 3 0.192547 0.828061 0.40136
181 1 0.1626 0.831461 0.415906
185 3 0.166245 0.84261 0.446586
184 3 0.143655 0.852644 0.398235
1533 4 0.143337 0.79479 0.446568
610 4 0.153678 0.868304 0.441612
1227 4 0.217643 0.833681 0.413188
1226 2 0.245615 0.856136 0.409477
21 1 0.347883 0.743845 0.435338
777 4 0.273754 0.819541 0.47647
23 3 0.323918 0.766725 0.43064
778 4 0.327615 0.775464 0.457554
776 2 0.300684 0.797502 0.467012
24 3 0.373647 0.749916 0.414861
1512 4 0.350124 0.773671 0.47596
601 4 0.428737 0.776273 0.355401
680 2 0.447315 0.873565 0.460539
599 2 0.404492 0.776933 0.382089
600 4 0.380248 0.777593 0.408776
681 4 0.481417 0.866855 0.450922
1511 2 0.374443 0.785684 0.499724
1370 2 0.0246673 0.987048 0.395189
95 3 0.085272 0.977577 0.389407
1371 4 0.0572714 0.982487 0.380471
717 4 0.0586995 0.976123 0.493028
877 4 0.13159 0.941522 0.384956
608 2 0.14125 0.875225 0.474749
876 4 0.144939 0.877372 0.415093
33 3 0.242317 0.94237 0.393705
875 2 0.138264 0.909447 0.400025
450 4 0.247935 0.945079 0.440461
449 2 0.237001 0.936091 0.473629
1228 4 0.273586 0.878592 0.405766
35 3 0.281551 0.906118 0.403468
31 1 0.273818 0.938033 0.404138
34 3 0.294803 0.95528 0.38459
32 3 0.276457 0.949266 0.435243
747 4 0.41681 0.908985 0.477519
682 4 0.413213 0.880275 0.470155
746 2 0.389404 0.926913 0.462422
748 4 0.361998 0.944841 0.447325
757 4 0.0329684 0.563078 0.56238
387 4 0.0576859 0.565166 0.545586
386 2 0.0825871 0.583016 0.526566
755 2 0.997174 0.565558 0.565992
388 4 0.107488 0.600866 0.507547
932 2 0.147227 0.49963 0.615731
297 4 0.377804 0.504914 0.516676
263 2 0.423918 0.525983 0.523003
265 4 0.441167 0.556786 0.530358
790 4 0.484978 0.590008 0.604238
888 4 0.435318 0.577607 0.511922
598 4 0.106217 0.694967 0.529562
596 2 0.0862473 0.668605 0.515186
597 4 0.0662773 0.642242 0.50081
774 4 0.123708 0.693152 0.552956
773 2 0.153399 0.692566 0.573415
775 4 0.18309 0.691979 0.593874
632 2 0.0534654 0.785661 0.51205
633 4 0.0494578 0.797644 0.545825
1544 2 0.101935 0.80191 0.602817
1546 4 0.118499 0.787067 0.574431
847 4 0.138044 0.800173 0.55611
845 2 0.14036 0.832539 0.540377
846 4 0.142676 0.864905 0.524644
1513 4 0.398763 0.797697 0.523487
649 4 0.414054 0.783933 0.546126
647 2 0.431734 0.808146 0.566165
648 4 0.449414 0.832359 0.586205
1297 4 0.456387 0.858431 0.578657
716 2 0.0828741 0.982353 0.519052
689 2 0.0987592 0.967646 0.602524
1127 2 0.0188796 0.932876 0.518235
690 4 0.110832 0.974337 0.569209
718 4 0.107049 0.988582 0.545075
1128 4 0.0463858 0.952862 0.506218
609 4 0.128823 0.882146 0.507887
451 4 0.226066 0.927103 0.506796
119 3 0.200828 0.909471 0.575355
116 1 0.228417 0.926969 0.568101
117 3 0.231183 0.929453 0.535133
923 2 0.231606 0.995175 0.618717
118 3 0.226194 0.957719 0.581118
925 4 0.235667 0.960821 0.60853
120 3 0.254885 0.911626 0.580053
1295 2 0.462359 0.889364 0.596205
1296 4 0.468331 0.920297 0.613752
1111 4 0.463337 0.947301 0.620644
1109 2 0.473405 0.981557 0.615582
566 2 0.104417 0.573673 0.630862
567 4 0.0775599 0.597559 0.633799
858 4 0.078841 0.606969 0.661642
934 4 0.147756 0.526395 0.639893
568 4 0.131274 0.549788 0.627925
1321 4 0.413069 0.599674 0.712368
1524 4 0.426948 0.597714 0.686368
1525 4 0.466468 0.586379 0.627111
1523 2 0.446708 0.592047 0.65674
813 4 0.0605142 0.704727 0.68236
812 2 0.0646514 0.709698 0.717837
859 4 0.0715491 0.67756 0.674509
857 2 0.0751951 0.642264 0.668076
891 4 0.254653 0.684485 0.746112
685 4 0.244738 0.689036 0.718179
683 2 0.252479 0.71674 0.69643
1320 4 0.379844 0.661843 0.727626
1319 2 0.396457 0.630759 0.719997
803 2 0.415866 0.714041 0.733719
805 4 0.391416 0.688448 0.726817
677 2 0.0847998 0.86236 0.668865
1545 4 0.0853709 0.816753 0.631203
679 4 0.0967164 0.842823 0.640995
107 3 0.243119 0.821548 0.693484
866 2 0.206395 0.859931 0.724238
868 4 0.225068 0.829954 0.716946
110 3 0.264739 0.81 0.645561
684 4 0.260221 0.744443 0.674681
109 3 0.26209 0.771673 0.68394
106 1 0.266715 0.804251 0.67784
108 3 0.296624 0.813896 0.689345
804 4 0.440316 0.739634 0.74062
99 3 0.460382 0.758628 0.747842
98 3 0.504765 0.787973 0.734669
1203 4 0.0714535 0.968313 0.659982
678 4 0.0728832 0.881897 0.696735
691 4 0.0866869 0.960956 0.63584
1202 2 0.0374771 0.95623 0.660202
1204 4 0.00350063 0.944147 0.660422
798 4 0.196506 0.00466963 0.731355
867 4 0.187722 0.889907 0.73153
612 4 0.196367 0.913251 0.715126
611 2 0.192105 0.949039 0.713912
613 4 0.187842 0.984827 0.712698
1089 4 0.334044 0.930551 0.768447
424 4 0.129766 0.530489 0.834527
422 2 0.151287 0.532349 0.863403
906 4 0.369863 0.508123 0.792218
905 2 0.394332 0.520533 0.815621
907 4 0.4188 0.532942 0.839025
210 3 0.460823 0.597017 0.858645
207 3 0.433083 0.550902 0.857498
206 1 0.43693 0.579848 0.873247
1561 4 0.452987 0.62644 0.851233
513 4 0.0740025 0.674813 0.883109
1516 4 0.0808383 0.666949 0.839275
1514 2 0.0762577 0.687958 0.810326
1515 4 0.0716771 0.708967 0.781376
814 4 0.0687886 0.714669 0.753314
606 4 0.0967317 0.694076 0.879578
890 2 0.253244 0.700247 0.778516
771 4 0.248885 0.693694 0.828082
770 2 0.233168 0.680546 0.857757
892 4 0.251836 0.716009 0.81092
638 2 0.367392 0.723609 0.858951
1559 2 0.484957 0.642347 0.846199
835 4 0.242194 0.884309 0.817237
787 4 0.304821 0.84207 0.759691
785 2 0.276731 0.851848 0.780082
821 2 0.354099 0.831143 0.775362
823 4 0.330676 0.844297 0.751305
640 4 0.382325 0.733456 0.827638
822 4 0.377523 0.817989 0.799419
96 1 0.492139 0.765418 0.755924
100 3 0.493673 0.776896 0.78666
870 4 0.38862 0.815929 0.824273
869 2 0.366408 0.821679 0.852094
786 4 0.248642 0.861626 0.800473
833 2 0.20919 0.884198 0.83177
834 4 0.176187 0.884088 0.846302
838 4 0.141722 0.967066 0.853157
837 4 0.162462 0.899303 0.866566
836 2 0.152092 0.933185 0.859862
795 4 0.267359 0.995702 0.780712
794 2 0.294839 0.972462 0.782996
796 4 0.322318 0.949223 0.78528
49 3 0.314877 0.938699 0.870359
46 1 0.33724 0.962407 0.862759
48 3 0.326322 0.980518 0.836822
1088 2 0.369484 0.934882 0.773519
47 3 0.365863 0.947866 0.854396
1591 4 0.486499 0.976491 0.765731
1090 4 0.404923 0.939213 0.77859
1589 2 0.451096 0.971266 0.770175
1590 4 0.415693 0.966041 0.774618
423 4 0.172808 0.53421 0.892279
517 4 0.151568 0.52199 0.908389
1124 2 0.489884 0.564789 0.944388
209 3 0.445063 0.573812 0.905143
208 3 0.408141 0.596851 0.871819
1126 4 0.456907 0.575253 0.934214
874 4 0.0514332 0.747362 0.925852
607 4 0.0799551 0.752573 0.918287
512 2 0.0433447 0.657939 0.891815
514 4 0.0126868 0.641065 0.900521
605 2 0.0883434 0.723324 0.898933
872 2 0.0170479 0.740143 0.933975
856 4 0.190872 0.676909 0.891188
855 4 0.11942 0.684707 0.897154
854 2 0.155146 0.680808 0.894171
772 4 0.217451 0.667399 0.887431
1271 2 0.354971 0.714799 0.950318
639 4 0.35246 0.713763 0.890264
1273 4 0.363686 0.725274 0.983706
1272 4 0.346257 0.704325 0.91693
693 4 0.263624 0.879143 0.855382
692 2 0.291976 0.861408 0.868876
871 4 0.344196 0.82743 0.879915
620 2 0.282862 0.850564 0.996362
694 4 0.320327 0.843674 0.88237
621 4 0.260353 0.853935 0.96839
1581 4 0.277803 0.96225 0.976974
50 3 0.342187 0.981888 0.888738
908 2 0.277523 0.951986 0.932991
910 4 0.261354 0.961134 0.902083
909 4 0.293692 0.942838 0.963899
83 3 0.460872 0.93688 0.918998
81 1 0.441494 0.914486 0.934586
921 4 0.372023 0.977248 0.89265
82 3 0.42339 0.89836 0.911939
84 3 0.420862 0.93006 0.955839
85 3 0.460163 0.892918 0.950868
112 3 0.435938 0.98747 0.996793
373 4 0.604345 0.0435599 0.0391324
411 4 0.611571 0.0264589 0.0616333
371 2 0.575002 0.0578879 0.0238314
410 2 0.646785 0.0187811 0.0604405
412 4 0.682 0.0111032 0.0592477
132 3 0.763377 0.0201822 0.994721
134 3 0.775642 0.0634986 0.0249162
131 1 0.782844 0.0313271 0.0191659
135 3 0.777387 0.0136024 0.046275
133 3 0.814819 0.0282797 0.0097748
1022 2 0.988197 0.0915239 0.0605359
1023 4 0.973465 0.0868882 0.0279488
1024 4 0.00292922 0.0961596 0.093123
959 2 0.598562 0.125172 0.0919627
1073 2 0.525363 0.251725 0.0168077
960 4 0.627333 0.117013 0.0718119
592 4 0.629744 0.139856 0.0532892
590 2 0.665107 0.146625 0.0552952
591 4 0.700471 0.153394 0.0573012
936 4 0.713762 0.178831 0.0589803
935 2 0.744418 0.176932 0.0400853
937 4 0.775074 0.175034 0.0211904
1049 2 0.802853 0.218953 0.083254
1053 4 0.773501 0.166568 0.99486
1050 4 0.808531 0.185257 0.0717302
490 4 0.870155 0.23884 0.00783919
645 4 0.929047 0.128288 0.114576
644 2 0.933281 0.149947 0.0860554
646 4 0.937514 0.171606 0.057535
488 2 0.900068 0.226073 0.0234176
489 4 0.92998 0.213306 0.0389961
981 4 0.932091 0.23538 0.0576387
1075 4 0.522551 0.255885 0.0525181
1113 4 0.618496 0.335644 0.0762752
1051 4 0.797174 0.252648 0.0947778
178 3 0.751725 0.32028 0.0333938
177 3 0.774002 0.273869 0.0164176
980 2 0.94185 0.254826 0.0863973
982 4 0.951609 0.274272 0.115156
708 4 0.573243 0.497895 0.108217
1114 4 0.637738 0.37867 0.0216832
1112 2 0.628117 0.357157 0.0489792
1059 4 0.652175 0.472253 0.0128983
1063 4 0.716489 0.466886 0.0885838
1061 2 0.696939 0.470411 0.0584876
1062 4 0.677388 0.473935 0.0283914
125 3 0.718439 0.482494 0.113177
153 3 0.654477 0.488341 0.0972681
589 4 0.78418 0.516831 0.122273
1096 4 0.858047 0.447498 0.0186429
1094 2 0.885073 0.442294 0.0419437
971 2 0.955896 0.427179 0.0841427
1095 4 0.9121 0.437089 0.0652445
973 4 0.926882 0.412251 0.0687871
972 4 0.98491 0.442107 0.0994982
358 4 0.00984051 0.424005 0.10236
1038 4 0.544057 0.0136147 0.238201
1037 2 0.550252 0.0485321 0.244747
1012 4 0.575265 0.0947444 0.269883
1375 4 0.550348 0.997853 0.2153
1267 4 0.851606 0.025736 0.215238
1265 2 0.846617 0.0387172 0.24851
1306 4 0.933622 0.00557089 0.19761
1304 2 0.950157 0.0323259 0.215252
1305 4 0.966692 0.0590809 0.232893
736 4 0.993768 0.0692824 0.23087
961 4 0.56979 0.133332 0.112113
1072 4 0.572362 0.161586 0.117602
518 2 0.523594 0.25642 0.187661
1070 2 0.560946 0.188069 0.139254
1071 4 0.54953 0.214551 0.160905
520 4 0.552351 0.243113 0.170445
962 2 0.50462 0.17054 0.215275
963 4 0.515743 0.185555 0.246118
952 4 0.708426 0.247403 0.196614
333 4 0.916222 0.133996 0.141187
332 2 0.918631 0.120359 0.174483
334 4 0.92104 0.106721 0.207779
360 4 0.903561 0.123816 0.223446
996 4 0.572249 0.260434 0.185544
995 2 0.60083 0.261281 0.207518
997 4 0.629411 0.262127 0.229492
950 2 0.681156 0.252726 0.219601
951 4 0.653885 0.258049 0.242589
1065 4 0.707804 0.361589 0.252587
123 3 0.740231 0.508558 0.15554
1066 4 0.722616 0.392999 0.189375
1064 2 0.71521 0.377294 0.220981
121 1 0.732621 0.510442 0.123006
587 2 0.807068 0.502505 0.146175
588 4 0.829957 0.488179 0.170078
945 4 0.854013 0.48015 0.156485
282 4 0.748083 0.489547 0.176532
944 2 0.888217 0.477436 0.167582
946 4 0.922422 0.474722 0.178678
1039 4 0.556446 0.0834494 0.251293
1081 4 0.817359 0.0533387 0.299369
1266 4 0.841627 0.0516983 0.281782