ITEM: TIMESTEP
1930000
ITEM: NUMBER OF ATOMS
4800
ITEM: BOX BOUNDS pp pp pp
-9.9985700000000008e+00 9.9985700000000008e+00
-9.9985700000000008e+00 9.9985700000000008e+00
-9.9985700000000008e+00 9.9985700000000008e+00
ITEM: ATOMS id type xs ys zs
1637 4 0.0656744 0.0444684 0.0218846
1636 2 0.053031 0.0324854 0.0398214
1638 4 0.0403875 0.0205024 0.0577582
2138 4 0.0517755 0.00290172 0.0574047
1439 4 0.13495 0.0616244 0.0523519
1438 2 0.149115 0.0412629 0.0555055
1440 4 0.16328 0.0209014 0.0586591
1716 4 0.175898 0.0234163 0.0418136
947 4 0.295229 0.0358764 0.0461336
946 2 0.280583 0.0553157 0.0518596
1475 4 0.279288 0.0239544 0.0436484
948 4 0.265937 0.074755 0.0575856
1184 4 0.283051 0.0873979 0.0604882
2839 2 0.462829 0.0732812 0.0601864
2841 4 0.446635 0.062093 0.0756056
3536 4 0.0363039 0.0856996 0.0485373
1670 4 0.0484042 0.0927639 0.0347097
1669 2 0.0733693 0.0941498 0.0346742
1671 4 0.0983345 0.0955357 0.0346388
299 3 0.115072 0.143023 0.0299732
300 3 0.114619 0.10541 0.0283474
296 1 0.1159 0.12451 0.0160106
298 3 0.135598 0.124709 0.00374958
1185 4 0.270328 0.134053 0.0732209
1183 2 0.27669 0.110726 0.0668546
852 4 0.273156 0.149381 0.0599095
1457 4 0.333268 0.128961 0.0761913
2472 4 0.418559 0.122803 0.0307687
2470 2 0.416975 0.128086 0.00638098
1458 4 0.35352 0.14994 0.0355654
1456 2 0.343394 0.13945 0.0558784
2225 4 0.405803 0.124696 0.0448541
2840 4 0.479023 0.0844695 0.0447671
2224 2 0.422369 0.133395 0.0614395
2226 4 0.438935 0.142094 0.0780248
1208 4 0.433986 0.161005 0.0835506
1491 4 0.0144508 0.229742 0.0354123
1009 2 0.128581 0.243596 0.0611252
1010 4 0.153298 0.242233 0.0646453
1411 2 0.235185 0.205101 0.0221481
1413 4 0.248008 0.205143 0.0436136
1412 4 0.222363 0.205058 0.000682495
850 2 0.269538 0.173109 0.0529051
851 4 0.26592 0.196837 0.0459007
777 4 0.359078 0.167499 0.039612
775 2 0.379974 0.179804 0.0457025
776 4 0.40087 0.19211 0.0517931
1217 4 0.416839 0.182002 0.0546478
1216 2 0.427194 0.201266 0.0667659
1218 4 0.437549 0.22053 0.078884
963 4 0.0783485 0.329915 0.0230821
1011 4 0.103864 0.24496 0.0576051
824 4 0.164534 0.257872 0.0606658
962 4 0.10429 0.307792 0.0596649
866 4 0.103691 0.310744 0.0800679
961 2 0.0913194 0.318853 0.0413735
823 2 0.185503 0.270832 0.0564832
825 4 0.206473 0.283792 0.0523007
800 4 0.323744 0.270071 0.027241
1221 4 0.306794 0.269178 0.0163985
1219 2 0.290016 0.286999 0.0112925
1220 4 0.273238 0.30482 0.00618638
1740 4 0.371432 0.253145 0.075654
801 4 0.371742 0.264791 0.0402417
799 2 0.347743 0.267431 0.0337413
1738 2 0.390743 0.268461 0.0798625
1739 4 0.410053 0.283777 0.084071
803 4 0.0853613 0.335998 0.0046248
2164 2 0.0559827 0.363892 0.06549
2165 4 0.0445961 0.383232 0.0765122
2166 4 0.0673693 0.344552 0.0544678
1003 2 0.164927 0.39094 0.0275903
1005 4 0.156333 0.404597 0.0084905
1004 4 0.173522 0.377282 0.04669
1695 4 0.222552 0.370046 0.029572
1914 4 0.22734 0.402635 0.0723269
1374 4 0.246021 0.409659 0.0679882
1407 4 0.335585 0.395683 0.0365433
1372 2 0.268601 0.419696 0.0641718
1405 2 0.31644 0.402027 0.0217657
1406 4 0.297295 0.408372 0.00698804
1118 4 0.344261 0.378173 0.0314177
1117 2 0.365857 0.38043 0.0190218
1119 4 0.387454 0.382687 0.00662588
977 4 0.386595 0.386983 0.057299
878 4 0.375369 0.402495 0.0637332
976 2 0.394186 0.374997 0.0778875
1553 4 0.0530041 0.493644 0.0289118
1552 2 0.0740856 0.48033 0.0270439
1554 4 0.095167 0.467016 0.025176
1088 4 0.112208 0.456872 0.0230853
1087 2 0.108431 0.43432 0.0129704
829 2 0.104459 0.473967 0.0777384
830 4 0.122162 0.482121 0.0620764
1750 2 0.220188 0.492179 0.0445122
177 3 0.181124 0.488612 0.0596485
1752 4 0.19699 0.483485 0.0478969
1373 4 0.291181 0.429734 0.0603554
13 3 0.301342 0.442803 0.0497744
11 1 0.314543 0.459496 0.0590188
12 3 0.310572 0.479184 0.0478028
787 2 0.289653 0.467334 0.0105117
789 4 0.301254 0.475656 0.0310382
4107 4 0.314559 0.498891 0.0263218
14 3 0.336976 0.453994 0.0568035
877 2 0.364069 0.423321 0.0557466
879 4 0.352768 0.444146 0.0477599
1936 2 0.206863 0.00953503 0.138335
1937 4 0.201687 0.027749 0.122006
894 4 0.192201 0.0429306 0.111532
892 2 0.19071 0.0649807 0.123226
817 2 0.273507 0.00330794 0.124484
819 4 0.26751 0.0269036 0.130181
1073 4 0.27418 0.0439568 0.125034
1072 2 0.294496 0.0585185 0.125678
1074 4 0.314811 0.0730802 0.126322
3130 2 0.501608 0.0541051 0.156215
3300 4 0.432697 0.038783 0.131453
3299 4 0.433826 0.048675 0.0824465
3298 2 0.433262 0.043729 0.10695
3132 4 0.487705 0.0337164 0.160237
35 3 0.442139 0.0204078 0.132668
31 1 0.457246 0.00994786 0.146123
32 3 0.475532 0.0235976 0.149027
3034 2 0.038656 0.0944266 0.159545
3036 4 0.0206169 0.0969248 0.142412
43 3 0.102425 0.146602 0.132728
1127 4 0.151914 0.131959 0.154228
45 3 0.132314 0.132406 0.150695
41 1 0.111462 0.141157 0.153394
1126 2 0.172678 0.118629 0.150183
42 3 0.0979499 0.125548 0.163539
44 3 0.112484 0.160054 0.166821
1128 4 0.193441 0.105299 0.146139
893 4 0.189218 0.0870309 0.134919
966 4 0.327111 0.0890878 0.131394
964 2 0.325401 0.102041 0.110076
965 4 0.323692 0.114993 0.088757
1207 2 0.426692 0.162024 0.107445
1863 4 0.469471 0.0997191 0.118606
1861 2 0.457386 0.0978623 0.140416
1862 4 0.4453 0.0960056 0.162225
1209 4 0.419397 0.163042 0.131339
67 3 0.341079 0.243011 0.103025
68 3 0.372816 0.236207 0.0840736
70 3 0.34155 0.216571 0.076688
66 1 0.353749 0.226563 0.09312
69 3 0.359654 0.210928 0.109216
1097 4 0.434963 0.161478 0.142597
809 4 0.00618597 0.319364 0.111489
808 2 0.0307908 0.315268 0.109758
810 4 0.0553957 0.311171 0.108027
1197 4 0.0675021 0.308827 0.123451
865 2 0.120402 0.301885 0.0964209
867 4 0.137113 0.293025 0.112774
845 4 0.153172 0.299825 0.122137
1195 2 0.0781188 0.318267 0.144026
1196 4 0.0887356 0.327706 0.164602
844 2 0.171566 0.296914 0.138821
846 4 0.189961 0.294003 0.155504
1206 4 0.400916 0.321912 0.150135
1509 4 0.428958 0.286025 0.0893006
1508 4 0.469004 0.266539 0.112045
1507 2 0.448981 0.276282 0.100673
3272 4 0.482309 0.27681 0.123176
3271 2 0.484486 0.272178 0.14765
1733 4 0.0356285 0.394 0.0898133
1732 2 0.0109873 0.389783 0.0893615
1912 2 0.214405 0.395025 0.0923257
1913 4 0.20147 0.387415 0.112324
904 2 0.234985 0.392526 0.164377
905 4 0.256634 0.380052 0.165327
906 4 0.213336 0.405 0.163426
1204 2 0.399091 0.341167 0.134289
1205 4 0.397267 0.360422 0.118443
978 4 0.401777 0.363011 0.098476
2825 4 0.495579 0.369711 0.149516
2824 2 0.473953 0.366749 0.16171
972 4 0.17403 0.493835 0.135569
831 4 0.086756 0.465813 0.0934004
1856 4 0.129857 0.455545 0.154647
1855 2 0.146675 0.473942 0.152673
1857 4 0.163493 0.492338 0.150699
763 2 0.170339 0.421878 0.153976
765 4 0.185885 0.431689 0.137028
178 3 0.172102 0.480153 0.095141
1784 4 0.184647 0.482453 0.111992
1785 4 0.21843 0.456855 0.138529
1783 2 0.201539 0.469654 0.12526
55 3 0.232849 0.457549 0.153697
51 1 0.252581 0.460692 0.164626
15 3 0.309347 0.46222 0.0810239
53 3 0.270219 0.453612 0.151314
2265 4 0.288598 0.455119 0.144344
2263 2 0.29216 0.460792 0.120254
2264 4 0.295721 0.466465 0.0961645
1973 4 0.329211 0.470031 0.125129
1974 4 0.372197 0.494627 0.132054
1972 2 0.350704 0.482329 0.128592
1059 4 0.468567 0.493997 0.165561
4068 4 0.487243 0.498311 0.159953
759 4 0.0566938 0.0514592 0.212184
757 2 0.0455401 0.0701756 0.224451
1143 4 0.219738 0.0361455 0.233583
34 3 0.447738 0.00563467 0.166845
3035 4 0.056695 0.0919283 0.176678
758 4 0.0343863 0.0888919 0.236717
1842 4 0.0649052 0.0946557 0.195455
1840 2 0.080238 0.113394 0.189212
1841 4 0.0955708 0.132131 0.182969
983 4 0.0989266 0.151744 0.178831
1883 4 0.195343 0.177902 0.184692
933 4 0.440059 0.118688 0.227988
849 4 0.44809 0.106666 0.215051
847 2 0.443585 0.0934378 0.194317
848 4 0.439079 0.0802093 0.173583
931 2 0.42507 0.135624 0.238651
1098 4 0.47302 0.16374 0.174958
932 4 0.410081 0.152559 0.249313
379 3 0.0105088 0.206826 0.227474
911 4 0.0784912 0.193985 0.223549
912 4 0.0296268 0.202218 0.230271
910 2 0.054059 0.198102 0.22691
982 2 0.0867395 0.168866 0.192378
984 4 0.0745524 0.185987 0.205924
1882 2 0.217188 0.188634 0.190418
1884 4 0.239033 0.199366 0.196145
19 3 0.248412 0.216308 0.190312
17 3 0.228028 0.232471 0.217439
16 1 0.245339 0.235722 0.202643
18 3 0.264605 0.240642 0.214603
27 3 0.295762 0.2387 0.24951
1096 2 0.453992 0.162609 0.158778
1094 4 0.472737 0.207943 0.222604
1093 2 0.456869 0.20679 0.241893
1163 4 0.0469661 0.329142 0.240734
881 4 0.040874 0.31175 0.250521
20 3 0.240186 0.253017 0.188752
1251 4 0.203425 0.298099 0.170106
1249 2 0.21622 0.282624 0.185006
1250 4 0.229014 0.267149 0.199906
1082 4 0.389642 0.324825 0.165505
1151 4 0.398757 0.257065 0.236537
1083 4 0.365842 0.290551 0.193065
1152 4 0.374676 0.292008 0.210083
1150 2 0.386717 0.274536 0.22331
1081 2 0.377742 0.307688 0.179285
755 4 0.505073 0.266424 0.227311
3273 4 0.486662 0.267547 0.172124
435 3 0.0179716 0.375836 0.252828
1162 2 0.0368532 0.3518 0.237645
1164 4 0.0267403 0.374457 0.234556
1046 4 0.0968768 0.346488 0.165868
1047 4 0.10121 0.352264 0.215351
1045 2 0.0990435 0.349376 0.19061
1106 4 0.161858 0.426676 0.18364
1847 4 0.228967 0.404015 0.232266
900 4 0.228833 0.405545 0.252951
1070 4 0.260385 0.378746 0.184636
1071 4 0.273719 0.362233 0.229916
1069 2 0.267052 0.370489 0.207276
350 3 0.412496 0.361607 0.170387
349 3 0.409236 0.376901 0.204638
2129 4 0.411619 0.396817 0.212153
2128 2 0.407194 0.395268 0.236713
346 1 0.422776 0.374708 0.185923
348 3 0.443145 0.365361 0.191933
2826 4 0.452326 0.363788 0.173905
347 3 0.426517 0.395563 0.176967
1967 4 0.417826 0.403996 0.19411
1214 4 0.0145276 0.431927 0.200547
1044 4 0.0236448 0.417114 0.210012
1042 2 0.0416405 0.428729 0.222912
1043 4 0.0596363 0.440344 0.235813
764 4 0.154794 0.412067 0.170925
1107 4 0.138252 0.423849 0.227634
1105 2 0.150055 0.425263 0.205637
1853 4 0.141836 0.423651 0.247921
54 3 0.252522 0.448915 0.184618
1846 2 0.235131 0.42069 0.214685
1084 2 0.172399 0.495452 0.246773
1086 4 0.191313 0.480699 0.239716
1848 4 0.241296 0.437366 0.197103
52 3 0.255231 0.483081 0.169191
793 2 0.364593 0.468104 0.237836
794 4 0.369486 0.484293 0.21942
2246 4 0.385125 0.492731 0.228031
795 4 0.359699 0.451915 0.256252
1057 2 0.450691 0.477361 0.170936
1058 4 0.432815 0.460725 0.17631
1968 4 0.421367 0.4538 0.191337
1966 2 0.419597 0.428898 0.192723
1075 2 0.0485369 0.0838856 0.300149
1076 4 0.0476852 0.0590593 0.297302
1159 2 0.160884 0.0177636 0.302562
1160 4 0.14495 0.00951097 0.319974
929 4 0.133094 0.0707927 0.272649
1154 4 0.141405 0.0273621 0.333471
2145 4 0.223542 0.00901423 0.331311
1161 4 0.176817 0.0260162 0.28515
1142 4 0.193735 0.0226368 0.274105
1141 2 0.206737 0.0293911 0.253844
769 2 0.307877 0.0298854 0.315682
770 4 0.326066 0.0215673 0.300676
2124 4 0.285257 0.0191806 0.289157
771 4 0.289689 0.0382034 0.330687
2978 4 0.345052 0.0241589 0.301331
2977 2 0.362523 0.0279805 0.318805
1787 4 0.491466 0.997698 0.318218
1077 4 0.0493886 0.108712 0.302997
1395 4 0.0545392 0.119228 0.318418
1393 2 0.0615207 0.137723 0.30311
1394 4 0.0685021 0.156219 0.287801
1799 4 0.020181 0.152304 0.325724
1798 2 0.0047577 0.147941 0.306533
928 2 0.134888 0.0860466 0.292379
930 4 0.136681 0.101301 0.31211
1017 4 0.134602 0.112524 0.329626
1061 4 0.205137 0.137428 0.257735
1060 2 0.210115 0.133094 0.281852
1062 4 0.215093 0.128759 0.305969
1080 4 0.218354 0.115162 0.320331
834 4 0.41408 0.15285 0.269452
83 3 0.0687652 0.171856 0.300464
81 1 0.0781405 0.191003 0.309625
84 3 0.0631672 0.200898 0.324331
85 3 0.0836119 0.205659 0.293074
82 3 0.0971596 0.185175 0.321177
1245 4 0.115762 0.181438 0.324136
841 2 0.174582 0.176242 0.327903
955 2 0.197119 0.212584 0.292575
956 4 0.193369 0.188936 0.299782
957 4 0.200869 0.236231 0.285369
843 4 0.174639 0.186649 0.305168
885 4 0.190876 0.246345 0.272992
26 1 0.309697 0.252773 0.261212
979 2 0.284102 0.246639 0.316798
30 3 0.305782 0.250362 0.283517
980 4 0.292578 0.240431 0.294109
927 4 0.40144 0.248824 0.254676
815 4 0.38175 0.239358 0.31991
814 2 0.363327 0.225571 0.329692
926 4 0.384288 0.242676 0.301245
925 2 0.392864 0.24575 0.27796
1095 4 0.441001 0.205638 0.261182
833 4 0.431742 0.198848 0.277995
832 2 0.422911 0.175849 0.273723
880 2 0.0577575 0.297921 0.262722
882 4 0.0746409 0.284091 0.274923
884 4 0.146936 0.268442 0.263952
883 2 0.168906 0.257394 0.268472
29 3 0.305425 0.274643 0.254744
28 3 0.33171 0.247243 0.256394
3007 2 0.481334 0.298352 0.308287
3009 4 0.471765 0.292496 0.330633
3008 4 0.490903 0.304207 0.285942
431 1 0.000726723 0.388044 0.261326
432 3 0.00526676 0.39333 0.283249
975 4 0.103089 0.353937 0.298395
973 2 0.0991036 0.3492 0.32262
898 2 0.208302 0.393996 0.261334
899 4 0.187771 0.382447 0.269718
1193 4 0.395945 0.383511 0.276895
1192 2 0.406532 0.37241 0.29664
2130 4 0.402769 0.393719 0.261273
1194 4 0.417119 0.361309 0.316385
2219 4 0.425884 0.349613 0.331326
861 4 0.0706266 0.43597 0.251883
4186 2 0.00884543 0.473159 0.257978
1138 2 0.0675209 0.48593 0.264488
1140 4 0.046782 0.493809 0.252956
4187 4 0.0300282 0.483959 0.250244
859 2 0.0916262 0.431111 0.264555
860 4 0.112626 0.426253 0.277228
1852 2 0.149298 0.427398 0.271489
1139 4 0.0882598 0.47805 0.27602
1854 4 0.156759 0.431144 0.295057
1014 4 0.166888 0.428115 0.31144
2270 4 0.102277 0.493347 0.276536
2183 4 0.20661 0.486141 0.252836
2182 2 0.22881 0.477926 0.260888
1012 2 0.18083 0.435676 0.330769
2184 4 0.251011 0.469712 0.26894
1037 4 0.271089 0.432429 0.318105
1036 2 0.265577 0.451122 0.30244
1038 4 0.260064 0.469815 0.286776
782 4 0.285904 0.424833 0.329086
2044 2 0.498624 0.501958 0.281262
2046 4 0.477957 0.494122 0.269573
1881 4 0.46355 0.48118 0.265223
1879 2 0.442909 0.495248 0.264133
2986 2 0.0817833 0.00431764 0.388397
2987 4 0.0805338 0.0144704 0.365582
1155 4 0.0962278 0.0179316 0.352728
1153 2 0.118816 0.0226468 0.343099
1825 2 0.268817 0.0202423 0.356556
1827 4 0.284166 0.0388193 0.349887
89 3 0.327498 0.0708743 0.374508
2979 4 0.379994 0.0318022 0.336279
88 3 0.33934 0.0542967 0.406592
86 1 0.345987 0.06311 0.386182
90 3 0.356756 0.047182 0.373977
23 3 0.371227 0.998602 0.358219
22 3 0.392617 0.0288448 0.351859
21 1 0.386717 0.0131218 0.367579
25 3 0.377618 0.0236102 0.38563
87 3 0.360305 0.0807067 0.38999
3669 4 0.376176 0.0708539 0.381919
3183 4 0.348494 0.0634557 0.420729
4279 2 0.460634 0.0583582 0.408703
4280 4 0.452243 0.0779846 0.39568
3107 4 0.0301547 0.168674 0.332716
3108 4 0.0438114 0.148108 0.376205
3106 2 0.036983 0.158391 0.354461
2858 4 0.0593571 0.150472 0.389031
1015 2 0.119454 0.107035 0.348746
1016 4 0.104306 0.101546 0.367866
1131 4 0.169391 0.134293 0.396647
172 3 0.156539 0.0889014 0.411787
842 4 0.174524 0.165836 0.350638
1129 2 0.180306 0.145257 0.377004
1130 4 0.191221 0.156221 0.357362
1078 2 0.219594 0.115828 0.345295
838 2 0.228105 0.0906625 0.409289
1079 4 0.220834 0.116495 0.370259
840 4 0.205022 0.0941157 0.40032
174 3 0.192813 0.0979951 0.415548
3667 2 0.392589 0.0897092 0.381407
3668 4 0.409003 0.108564 0.380895
3254 4 0.409524 0.126464 0.390086
3255 4 0.45821 0.13295 0.399483
3253 2 0.433867 0.129707 0.394785
909 4 0.47068 0.121554 0.411505
1229 4 0.0575878 0.210592 0.340605
1230 4 0.00843246 0.216894 0.333915
1228 2 0.0330102 0.213743 0.33726
2857 2 0.0550757 0.1602 0.411664
1244 4 0.119943 0.169186 0.372439
1243 2 0.117853 0.175312 0.348288
981 4 0.275626 0.252847 0.339488
891 4 0.26772 0.239862 0.352646
1167 4 0.338215 0.217743 0.357595
816 4 0.344905 0.211783 0.339473
1165 2 0.345583 0.219011 0.381455
1166 4 0.35295 0.220279 0.405315
2867 4 0.493831 0.169056 0.360631
2866 2 0.482542 0.174067 0.382371
2868 4 0.471254 0.179079 0.404111
2939 4 0.465503 0.186449 0.42089
870 4 0.16391 0.274956 0.390529
1110 4 0.164731 0.255946 0.393428
868 2 0.178626 0.293584 0.382681
869 4 0.193343 0.312212 0.374832
1029 4 0.192701 0.327831 0.388204
889 2 0.262268 0.254632 0.37207
890 4 0.256815 0.269401 0.391494
64 3 0.260324 0.269736 0.412196
1022 4 0.482546 0.297284 0.346616
1021 2 0.479141 0.30639 0.369652
1023 4 0.475736 0.315497 0.392688
761 4 0.47445 0.306455 0.409871
2834 4 0.0160852 0.396119 0.345095
1922 4 0.0315438 0.384785 0.352503
1921 2 0.0365586 0.40365 0.368128
1923 4 0.0415734 0.422514 0.383754
974 4 0.0951178 0.344462 0.346845
1134 4 0.0899028 0.405287 0.390052
1132 2 0.095414 0.415702 0.367999
1027 2 0.195458 0.347572 0.403299
2218 2 0.441715 0.34344 0.349668
2220 4 0.457547 0.337267 0.36801
1188 4 0.0250671 0.432275 0.383165
1133 4 0.100925 0.426118 0.345947
2172 4 0.173297 0.47162 0.403865
1091 4 0.191844 0.478896 0.401336
1092 4 0.208455 0.453799 0.361399
1090 2 0.200149 0.466347 0.381368
1013 4 0.194773 0.443237 0.350098
781 2 0.309723 0.427865 0.336059
783 4 0.333542 0.430897 0.343032
3863 4 0.406446 0.486507 0.415766
902 4 0.356849 0.447777 0.385962
901 2 0.353954 0.435088 0.364612
903 4 0.351059 0.422399 0.343263
1175 4 0.453994 0.497447 0.380716
3862 2 0.420957 0.490678 0.395836
3075 4 0.0707007 0.0328903 0.459707
58 3 0.061152 0.0500338 0.466282
56 1 0.0589432 0.0540313 0.489032
3073 2 0.0703635 0.0144469 0.442828
60 3 0.063719 0.0758269 0.493591
2210 4 0.0472003 0.0767912 0.504419
59 3 0.0373406 0.0490583 0.495887
57 3 0.0736583 0.0405076 0.500422
942 4 0.0314269 0.0650761 0.505604
1572 4 0.261462 0.0696921 0.424291
1571 4 0.255803 0.0489951 0.469461
214 3 0.271209 0.0509921 0.483285
1570 2 0.258633 0.0593436 0.446876
3181 2 0.358182 0.0782177 0.438432
3182 4 0.36787 0.0929797 0.456136
4466 4 0.465982 0.0191156 0.425091
4281 4 0.469024 0.0387317 0.421725
175 3 0.166495 0.124835 0.413391
173 3 0.16856 0.103432 0.444299
827 4 0.120304 0.160723 0.483497
171 1 0.171126 0.103966 0.421244
839 4 0.251188 0.0872094 0.418258
1181 4 0.264573 0.131981 0.506163
951 4 0.384676 0.101711 0.460344
949 2 0.393613 0.105103 0.483448
950 4 0.402551 0.108494 0.506552
2859 4 0.0507944 0.169927 0.434296
1472 4 0.060283 0.171449 0.45149
1471 2 0.0806812 0.172349 0.465922
1109 4 0.154594 0.231329 0.43576
1473 4 0.101079 0.17325 0.480354
826 2 0.135638 0.178149 0.474202
828 4 0.150971 0.195575 0.464907
1108 2 0.159662 0.243637 0.414594
936 4 0.280408 0.242136 0.496584
40 3 0.299627 0.206811 0.479399
38 3 0.322567 0.192931 0.505832
1226 4 0.370621 0.224144 0.413766
1225 2 0.38849 0.23059 0.430025
1227 4 0.406359 0.237036 0.446283
1646 4 0.399516 0.203604 0.491751
1645 2 0.422066 0.192888 0.4904
2938 2 0.474194 0.20249 0.437989
2940 4 0.482884 0.218531 0.455087
1647 4 0.444617 0.182171 0.489048
520 3 0.459447 0.179124 0.502749
3153 4 0.0525119 0.316434 0.428296
3112 2 0.0558007 0.289056 0.462266
3114 4 0.0535987 0.30022 0.440002
3113 4 0.0580027 0.277891 0.48453
4523 4 0.0338466 0.332509 0.486677
63 3 0.224474 0.274557 0.423856
62 3 0.247374 0.304123 0.420101
792 4 0.232805 0.314783 0.43132
790 2 0.243279 0.33453 0.442523
61 1 0.246352 0.281947 0.426127
934 2 0.268255 0.253339 0.477823
65 3 0.253094 0.279736 0.447768
935 4 0.256102 0.264541 0.459062
760 2 0.479971 0.297569 0.432581
762 4 0.485492 0.288682 0.45529
3151 2 0.0480131 0.339557 0.436677
3152 4 0.0435144 0.362681 0.445058
875 4 0.037864 0.379284 0.435167
874 2 0.0406644 0.391528 0.456787
876 4 0.0434649 0.403772 0.478407
1806 4 0.0407159 0.413757 0.495495
7 3 0.0986403 0.377081 0.509201
6 1 0.113123 0.379734 0.491527
9 3 0.10162 0.375842 0.471755
8 3 0.130495 0.364507 0.493714
10 3 0.12134 0.400973 0.491686
1632 4 0.136547 0.41444 0.485914
1028 4 0.198216 0.367314 0.418394
1169 4 0.217322 0.368287 0.427414
1168 2 0.215133 0.384152 0.446615
1170 4 0.212945 0.400018 0.465816
1238 4 0.207452 0.400902 0.485252
1982 4 0.266288 0.361092 0.43878
791 4 0.253752 0.354278 0.453727
1949 4 0.279313 0.421715 0.41346
1983 4 0.284045 0.405574 0.424402
1981 2 0.275167 0.383333 0.431591
1382 4 0.502429 0.374542 0.428623
1453 2 0.467039 0.38746 0.45163
1454 4 0.452115 0.399978 0.467307
3606 4 0.432134 0.39613 0.468731
1455 4 0.481963 0.374943 0.435954
2170 2 0.156261 0.468059 0.421817
2171 4 0.139226 0.464498 0.439769
1630 2 0.134332 0.4311 0.467402
1631 4 0.132117 0.447761 0.448889
164 3 0.24625 0.450991 0.50499
1343 4 0.331788 0.482809 0.482637
161 1 0.261317 0.460485 0.490117
1948 2 0.298424 0.436471 0.419958
163 3 0.274262 0.443919 0.480298
1950 4 0.317534 0.451228 0.426456
165 3 0.250108 0.472123 0.474068
3605 4 0.414383 0.442866 0.469866
3899 4 0.399403 0.487983 0.436341
3900 4 0.427147 0.452736 0.458446
3898 2 0.413275 0.470359 0.447393
3604 2 0.423259 0.419498 0.469299
3436 2 0.0469455 0.0455103 0.566316
3437 4 0.0357413 0.0646433 0.554759
4602 4 0.0274066 0.0826333 0.553613
940 2 0.0092875 0.0554636 0.512133
864 4 0.19059 0.99797 0.540415
1606 2 0.20052 0.0207226 0.51348
1607 4 0.218993 0.0319773 0.50094
1231 2 0.312704 0.0100269 0.524821
215 3 0.253083 0.0342589 0.511729
1233 4 0.290302 0.0125385 0.514004
212 3 0.290192 0.0313068 0.509069
211 1 0.272147 0.0451764 0.505728
213 3 0.274803 0.0642053 0.518738
1182 4 0.264758 0.0827304 0.51483
1232 4 0.335106 0.00751528 0.535639
149 3 0.348872 0.0143412 0.549051
146 1 0.368578 0.0232523 0.557458
147 3 0.365615 0.0457797 0.561049
150 3 0.385486 0.0201988 0.542511
1499 4 0.399242 0.014288 0.555542
1179 4 0.35036 0.0611275 0.565307
1644 4 0.39199 0.00715753 0.573408
1177 2 0.359015 0.0831026 0.5571
1498 2 0.420826 0.0079665 0.544618
2268 4 0.484104 0.0362045 0.546774
2266 2 0.490207 0.032774 0.570777
1500 4 0.44241 0.00164498 0.533694
4600 2 0.00592007 0.0918689 0.562456
1558 2 0.0242273 0.143876 0.542911
1560 4 0.00950924 0.150043 0.56216
1559 4 0.0389453 0.137708 0.523662
2211 4 0.0434945 0.11981 0.529645
1617 4 0.0769642 0.089832 0.574309
2209 2 0.0453474 0.0983006 0.517032
1052 4 0.253601 0.149327 0.507705
1051 2 0.264185 0.170302 0.516261
1180 2 0.264666 0.107355 0.510496
1178 4 0.36767 0.105078 0.548892
1137 4 0.38147 0.116633 0.557106
1135 2 0.395616 0.120813 0.536917
1136 4 0.409762 0.124993 0.516727
1099 2 0.491309 0.133266 0.509234
1100 4 0.50119 0.110301 0.508804
1101 4 0.481429 0.15623 0.509663
517 3 0.48677 0.166645 0.5249
2831 4 0.0073182 0.212441 0.563944
1601 4 0.123443 0.259695 0.53734
1600 2 0.116737 0.260049 0.561425
1579 2 0.145252 0.230192 0.524745
1580 4 0.163745 0.213492 0.526822
1701 4 0.224585 0.19353 0.552988
1699 2 0.202403 0.200989 0.544185
1700 4 0.180221 0.208449 0.535383
1360 2 0.303882 0.214213 0.577964
37 3 0.31357 0.229423 0.505614
1323 4 0.297469 0.242717 0.507384
1362 4 0.285955 0.231546 0.576126
36 1 0.305726 0.208234 0.501295
39 3 0.287392 0.204103 0.514905
1340 4 0.269853 0.241954 0.575817
1053 4 0.27477 0.191277 0.524817
1361 4 0.321808 0.19688 0.579802
1146 4 0.388751 0.189731 0.502319
1144 2 0.364652 0.195613 0.505452
1145 4 0.340553 0.201496 0.508584
1334 4 0.448359 0.20504 0.535313
516 1 0.473071 0.184513 0.520185
518 3 0.460344 0.189368 0.53897
1333 2 0.444643 0.228746 0.542341
1335 4 0.440927 0.252452 0.54937
519 3 0.486232 0.202786 0.514594
780 4 0.0519507 0.272592 0.503052
778 2 0.0490692 0.277651 0.527368
779 4 0.0461878 0.28271 0.551684
4522 2 0.039032 0.332737 0.511136
1581 4 0.12676 0.246891 0.522668
1321 2 0.303579 0.253935 0.528879
1322 4 0.309688 0.265153 0.550373
1286 4 0.322891 0.275134 0.560999
1285 2 0.33976 0.268533 0.578234
2829 4 0.434686 0.270841 0.552244
2827 2 0.453657 0.283593 0.562376
2828 4 0.472629 0.296346 0.572508
3224 4 0.485577 0.280399 0.57019
1040 4 0.0480475 0.342832 0.55304
4524 4 0.0442175 0.332966 0.535595
1039 2 0.0375284 0.363633 0.562086
1041 4 0.0270094 0.384434 0.571133
1804 2 0.0212225 0.414647 0.511128
1614 4 0.197369 0.355959 0.566923
1352 4 0.210241 0.364047 0.581073
1351 2 0.23068 0.377071 0.58722
1697 4 0.360925 0.412719 0.575844
3649 2 0.376742 0.375281 0.559917
3650 4 0.390046 0.354671 0.555074
3651 4 0.363439 0.39589 0.564759
1696 2 0.341134 0.410086 0.590895
4254 4 0.425866 0.417324 0.509546
1390 2 0.0648047 0.478062 0.536238
1391 4 0.0415616 0.478884 0.527058
1805 4 0.00172907 0.415538 0.526761
1392 4 0.0880478 0.477239 0.545417
2342 4 0.0904366 0.470318 0.564035
2341 2 0.103135 0.487985 0.576357
1237 2 0.225923 0.415808 0.493115
1239 4 0.244394 0.430714 0.500978
2357 4 0.292845 0.477784 0.581235
2356 2 0.309023 0.487371 0.564757
2358 4 0.325201 0.496959 0.548279
1342 2 0.332556 0.485471 0.507487
162 3 0.275106 0.474841 0.501647
1344 4 0.333323 0.488133 0.532337
4252 2 0.434281 0.429402 0.529757
1443 4 0.439897 0.484192 0.530083
4253 4 0.442697 0.441479 0.549968
1116 4 0.461304 0.43537 0.548072
1441 2 0.433997 0.508416 0.528195
1114 2 0.485199 0.442176 0.550879
3438 4 0.0581498 0.0263772 0.577874
2309 4 0.0447296 0.019331 0.657673
4554 4 0.0654119 0.00736941 0.579805
148 3 0.373902 0.0130794 0.577622
526 1 0.484812 0.0421903 0.627981
530 3 0.483697 0.0412343 0.605255
2267 4 0.496311 0.0293435 0.59478
528 3 0.483945 0.0642809 0.635028
527 3 0.466927 0.0308229 0.636929
1667 4 0.46339 0.0154987 0.648698
1547 4 0.473492 0.080429 0.632858
1546 2 0.448936 0.0847218 0.630926
1496 4 0.0160239 0.158851 0.579676
1495 2 0.022308 0.149349 0.601934
1497 4 0.0285921 0.139847 0.624192
2441 4 0.0481208 0.106355 0.637559
2440 2 0.0699794 0.109937 0.649158
1615 2 0.0811202 0.113741 0.580331
1616 4 0.0852762 0.13765 0.586353
2442 4 0.091838 0.113518 0.660758
1685 4 0.104095 0.126886 0.649728
1684 2 0.124899 0.136133 0.660063
1544 4 0.38343 0.149098 0.657734
1533 4 0.391007 0.1507 0.639939
1531 2 0.414317 0.146149 0.647756
1543 2 0.360692 0.142623 0.665873
1532 4 0.437628 0.141599 0.655572
1548 4 0.424379 0.0890147 0.628994
1689 4 0.451386 0.152229 0.645643
1687 2 0.474082 0.156097 0.655394
1688 4 0.496778 0.159965 0.665146
2832 4 0.0211636 0.207985 0.611789
1539 4 0.0118158 0.204146 0.630076
1537 2 0.00948301 0.218793 0.650206
2830 2 0.0142409 0.210213 0.587866
1602 4 0.11003 0.260402 0.58551
1289 4 0.094468 0.248655 0.592085
1629 4 0.116174 0.20279 0.634681
1288 2 0.0982806 0.243457 0.616244
1627 2 0.118568 0.205202 0.659452
1384 2 0.369028 0.23683 0.623769
1385 4 0.369561 0.226424 0.646498
1661 4 0.385547 0.22276 0.658502
1290 4 0.102093 0.23826 0.640402
3368 4 0.0822758 0.258725 0.66917
1277 4 0.20278 0.290105 0.652024
1339 2 0.26656 0.264767 0.585508
1718 4 0.261827 0.292397 0.613824
1341 4 0.263266 0.28758 0.595199
1717 2 0.264597 0.284041 0.637227
1719 4 0.267367 0.275685 0.66063
1386 4 0.368496 0.247237 0.60104
1287 4 0.356628 0.261932 0.595469
1593 4 0.0355839 0.387373 0.587915
1591 2 0.0449076 0.402511 0.605496
1613 4 0.156307 0.371916 0.590586
1354 2 0.15427 0.372182 0.634114
1356 4 0.152375 0.365956 0.609972
1355 4 0.156166 0.378408 0.658256
1589 4 0.151472 0.397494 0.654659
1612 2 0.176838 0.363937 0.578754
1353 4 0.25112 0.390094 0.593367
1468 2 0.227703 0.41378 0.65432
1469 4 0.245469 0.399846 0.665061
1652 4 0.316374 0.391577 0.617079
1651 2 0.292194 0.389573 0.611039
1698 4 0.321343 0.407453 0.605947
1653 4 0.268014 0.387569 0.604998
1672 2 0.48872 0.393331 0.660757
1673 4 0.46689 0.403131 0.653504
1563 4 0.465613 0.422676 0.659473
1592 4 0.0542314 0.417649 0.623077
3542 4 0.0670938 0.406626 0.634655
3541 2 0.0876854 0.420806 0.634988
3543 4 0.108277 0.434985 0.635321
1435 2 0.138452 0.451333 0.620371
1436 4 0.124832 0.430674 0.623962
1437 4 0.152071 0.471992 0.61678
2813 4 0.149371 0.490111 0.62464
1470 4 0.209936 0.427714 0.643578
2812 2 0.165476 0.500758 0.640528
2594 4 0.283496 0.462894 0.57213
2593 2 0.285028 0.443298 0.587584
2595 4 0.286559 0.423703 0.603039
2557 2 0.368732 0.442612 0.627509
2558 4 0.349254 0.437746 0.642412
2559 4 0.388211 0.447477 0.612606
2528 4 0.351922 0.448314 0.660483
4392 4 0.404111 0.452071 0.602069
4390 2 0.422611 0.452387 0.618886
4391 4 0.441112 0.452703 0.635703
1299 4 0.0323136 0.0165315 0.672708
2308 2 0.0603856 0.0367503 0.666427
2310 4 0.0760417 0.0541697 0.675181
1484 4 0.0780141 0.0690924 0.688394
1483 2 0.0957117 0.0789943 0.70302
1713 4 0.199853 0.00633734 0.723225
1711 2 0.191038 0.0273203 0.733578
1712 4 0.182223 0.0483034 0.743931
3693 4 0.461044 0.00549653 0.704445
1668 4 0.444707 0.00280959 0.693315
1666 2 0.454048 0.00915414 0.671007
1515 4 0.0114596 0.108318 0.72103
1513 2 0.0142575 0.104 0.745499
1485 4 0.113409 0.0888962 0.717647
1686 4 0.145704 0.145381 0.670399
1295 4 0.153998 0.146749 0.689952
1349 4 0.234669 0.09966 0.743391
1294 2 0.16673 0.167774 0.685369
1348 2 0.259462 0.101409 0.740666
1350 4 0.284255 0.103158 0.73794
1620 4 0.299215 0.106105 0.722633
1618 2 0.312547 0.115143 0.703509
1619 4 0.32588 0.124182 0.684385
1545 4 0.337955 0.136148 0.674012
1538 4 0.00715019 0.23344 0.670335
3475 2 0.996498 0.236049 0.706589
3477 4 0.999955 0.223184 0.685429
1315 2 0.112223 0.199851 0.720507
1628 4 0.120963 0.207615 0.684224
1317 4 0.127909 0.208734 0.70318
1316 4 0.0965376 0.190968 0.737834
1325 4 0.0964432 0.174423 0.747964
1296 4 0.179462 0.1888 0.680785
1403 4 0.181152 0.20471 0.690896
1404 4 0.211355 0.242305 0.704128
1402 2 0.196254 0.223508 0.697512
1702 2 0.310995 0.237164 0.708246
1703 4 0.289635 0.247395 0.70023
1269 4 0.271534 0.239087 0.702754
1704 4 0.332355 0.226933 0.716262
1422 4 0.336171 0.236922 0.734114
1660 2 0.381112 0.23474 0.679996
1662 4 0.376678 0.24672 0.70149
1467 4 0.502672 0.176681 0.673204
3465 4 0.0762718 0.278166 0.668721
3463 2 0.0561121 0.28602 0.681254
3464 4 0.0359525 0.293875 0.693787
1746 4 0.0168846 0.30142 0.69971
3476 4 0.99304 0.248913 0.727749
3367 2 0.104073 0.259885 0.681365
3369 4 0.125871 0.261046 0.693559
1428 4 0.122845 0.279283 0.700455
1426 2 0.126418 0.293864 0.72045
1427 4 0.129992 0.308446 0.740445
143 3 0.144756 0.320966 0.736759
1278 4 0.174605 0.262465 0.682731
1276 2 0.188692 0.276285 0.667377
1267 2 0.263318 0.25864 0.689512
1268 4 0.255102 0.278194 0.67627
1481 4 0.381186 0.265593 0.705535
1480 2 0.374972 0.288553 0.697828
1482 4 0.368758 0.311513 0.690121
1604 4 0.037087 0.398081 0.71388
1603 2 0.0375016 0.39485 0.73867
1588 2 0.159857 0.409316 0.675033
3428 4 0.252938 0.406912 0.733623
3427 2 0.250628 0.403829 0.708918
3429 4 0.248317 0.400746 0.684214
1281 4 0.263765 0.389771 0.737116
1598 4 0.213028 0.406271 0.727199
1597 2 0.191716 0.417765 0.720964
1590 4 0.168243 0.421138 0.695407
1599 4 0.170404 0.429258 0.71473
2529 4 0.355261 0.48381 0.695549
2527 2 0.353592 0.466062 0.678016
1561 2 0.445773 0.424925 0.674522
1562 4 0.425933 0.427175 0.689572
1452 4 0.421971 0.4312 0.70922
1450 2 0.42795 0.413178 0.725488