ITEM: TIMESTEP
4970000
ITEM: NUMBER OF ATOMS
4590
ITEM: BOX BOUNDS pp pp pp
-9.9985700000000008e+00 9.9985700000000008e+00
-9.9985700000000008e+00 9.9985700000000008e+00
-9.9985700000000008e+00 9.9985700000000008e+00
ITEM: ATOMS id type xs ys zs
3782 4 0.0139935 0.0811139 0.0781633
1038 4 0.0131148 0.0759258 0.0584855
1505 4 0.0789918 0.00635453 0.0177838
1504 2 0.0901926 0.0245377 0.0307874
1506 4 0.101393 0.0427209 0.043791
764 4 0.107166 0.0409922 0.0637332
763 2 0.113491 0.062582 0.0746443
1532 4 0.14353 0.0194848 0.0747526
460 2 0.246528 0.0529167 0.0647907
462 4 0.233446 0.0693082 0.0784047
461 4 0.259611 0.0365251 0.0511766
2421 4 0.272125 0.0302172 0.0354107
2419 2 0.287132 0.0117502 0.0430872
1108 2 0.391965 0.0421789 0.00416364
1109 4 0.404538 0.0419037 0.0257744
79 3 0.402642 0.00655648 0.0309401
3835 2 0.464336 0.0145538 0.00361917
629 4 0.500487 0.0669554 0.0756522
3836 4 0.45362 0.998333 0.0193427
241 2 0.0313392 0.1427 0.0341703
243 4 0.0173153 0.125614 0.022484
1037 4 0.00411809 0.110343 0.0233401
242 4 0.045363 0.159787 0.0458566
1036 2 0.00861645 0.0931346 0.0409128
910 2 0.126452 0.0854653 0.00613695
912 4 0.127452 0.0907515 0.0305549
55 3 0.174899 0.159206 0.0472206
866 4 0.222323 0.0835961 0.0873135
51 1 0.172589 0.155139 0.0249322
54 3 0.164143 0.133784 0.0216149
874 2 0.172069 0.133035 0.0830918
875 4 0.17147 0.150564 0.065272
52 3 0.193176 0.156653 0.0147813
769 2 0.230226 0.164178 0.0624135
747 4 0.348324 0.124901 0.0599278
746 4 0.378997 0.129714 0.0207264
745 2 0.36366 0.127308 0.0403271
571 2 0.407298 0.158405 0.0268044
572 4 0.394628 0.137056 0.0297778
485 4 0.403189 0.117521 0.0591087
484 2 0.408587 0.128257 0.0810355
1073 4 0.0561024 0.177131 0.050134
1072 2 0.0560067 0.199863 0.0605467
2848 2 0.000767487 0.215402 0.0819246
1074 4 0.0559111 0.222595 0.0709594
53 3 0.158378 0.17084 0.01545
1596 4 0.178488 0.248266 0.0327485
1594 2 0.173426 0.225277 0.0411786
1595 4 0.168364 0.202288 0.0496088
915 4 0.24698 0.24055 0.0168254
956 4 0.232458 0.247539 0.00343523
913 2 0.247545 0.217521 0.0265459
770 4 0.237299 0.180455 0.0448008
914 4 0.24811 0.194491 0.0362665
573 4 0.419968 0.179755 0.0238309
3067 2 0.438823 0.203078 0.0187036
3069 4 0.439944 0.178389 0.022494
3068 4 0.437701 0.227768 0.0149133
3299 4 0.429946 0.229416 0.996144
380 4 0.208139 0.303218 0.0811884
957 4 0.196413 0.28096 0.0126295
955 2 0.214436 0.26425 0.00803234
379 2 0.192463 0.284324 0.0859259
293 4 0.148116 0.256332 0.997345
526 2 0.36897 0.253048 0.0569495
40 3 0.394832 0.271287 0.0314008
528 4 0.377993 0.26075 0.0349395
36 1 0.39507 0.294044 0.0322332
37 3 0.373683 0.30196 0.0292157
2703 4 0.366131 0.284122 0.0223265
39 3 0.402842 0.301129 0.0529164
38 3 0.408624 0.302442 0.0153763
527 4 0.359947 0.245345 0.0789594
2701 2 0.34861 0.287798 0.00487114
3609 4 0.501235 0.295202 0.0582425
3607 2 0.478204 0.290212 0.066602
1069 2 0.49387 0.32286 0.0253583
2454 4 0.427492 0.304742 0.00892726
1071 4 0.484939 0.33797 0.00755077
3608 4 0.455174 0.285222 0.0749615
518 4 0.436636 0.278721 0.072385
2843 4 0.009015 0.355608 0.0263563
1778 4 0.0959515 0.400315 0.00606074
664 2 0.170412 0.365175 0.0132032
665 4 0.187961 0.35086 0.0237994
357 4 0.202493 0.348477 0.0380252
355 2 0.226016 0.355491 0.0332637
356 4 0.249538 0.362506 0.0285021
627 4 0.251683 0.370437 0.00937628
14 3 0.259394 0.372626 0.045054
11 1 0.278093 0.374252 0.0314118
13 3 0.272061 0.370848 0.00926593
12 3 0.293223 0.358057 0.0375718
15 3 0.287684 0.39477 0.0337874
273 4 0.295916 0.41195 0.0239097
1777 2 0.0922605 0.418589 0.0227223
1779 4 0.0885695 0.436863 0.039384
1242 4 0.10196 0.442463 0.055015
1240 2 0.104136 0.430803 0.0770263
447 4 0.191168 0.494689 0.0104383
445 2 0.189902 0.471984 0.0208333
446 4 0.188636 0.449279 0.0312284
271 2 0.307718 0.425589 0.00659333
3880 2 0.409974 0.463614 0.0659517
3882 4 0.390882 0.461761 0.0819896
3881 4 0.429067 0.465467 0.0499138
3801 4 0.434368 0.452035 0.0355883
3799 2 0.447414 0.445323 0.0153416
3800 4 0.460461 0.438612 0.995095
996 4 0.0363672 0.0453827 0.162529
994 2 0.0492594 0.0277911 0.150302
995 4 0.0621516 0.0101994 0.138075
732 4 0.0261316 0.0615123 0.157506
1403 4 0.0561798 0.00149377 0.120853
730 2 0.00339108 0.0696015 0.164034
1402 2 0.0786674 0.000330346 0.109985
765 4 0.119816 0.0841719 0.0855555
477 4 0.151402 0.0311312 0.0902556
475 2 0.159495 0.0501593 0.104313
476 4 0.167589 0.0691873 0.118371
17 3 0.155223 0.0834981 0.125666
320 4 0.129538 0.0280726 0.164065
1341 4 0.305009 0.0070496 0.115726
2723 4 0.340896 0.0176291 0.11374
2724 4 0.349996 0.0498231 0.150908
2722 2 0.345446 0.0337261 0.132324
19 3 0.130323 0.0928954 0.0991269
16 1 0.14189 0.100491 0.117753
18 3 0.155334 0.118485 0.111935
20 3 0.127208 0.106699 0.134018
876 4 0.172667 0.115506 0.100912
865 2 0.227125 0.108036 0.0895089
867 4 0.231928 0.132475 0.0917044
771 4 0.223153 0.147901 0.0800262
698 4 0.362489 0.10542 0.160787
2828 4 0.403956 0.151734 0.117594
1783 2 0.405376 0.110001 0.16789
1784 4 0.383086 0.10438 0.158054
697 2 0.338911 0.0996275 0.166761
486 4 0.413985 0.138993 0.102962
1215 4 0.057942 0.241661 0.0801397
2849 4 0.00287784 0.225605 0.104654
545 4 0.148654 0.233645 0.131295
544 2 0.161605 0.252099 0.120483
353 4 0.166569 0.176476 0.158704
402 4 0.298826 0.233095 0.160221
557 4 0.319412 0.233901 0.157054
556 2 0.338468 0.232751 0.140907
2829 4 0.393739 0.199089 0.105191
29 3 0.399576 0.216333 0.0982337
2827 2 0.398847 0.175411 0.111392
558 4 0.357524 0.231601 0.12476
26 1 0.386987 0.232111 0.109678
30 3 0.400579 0.248455 0.11785
28 3 0.375473 0.221954 0.127076
27 3 0.371789 0.241453 0.095156
1213 2 0.0538636 0.266184 0.0828168
1214 4 0.0497851 0.290707 0.0854938
362 4 0.0536449 0.291776 0.105147
361 2 0.0683854 0.303414 0.121653
363 4 0.0831258 0.315053 0.138159
449 4 0.0883833 0.301502 0.151566
546 4 0.174556 0.270554 0.109672
381 4 0.176787 0.265429 0.0906634
754 2 0.239386 0.333439 0.147886
755 4 0.255697 0.316035 0.140389
510 4 0.274731 0.312892 0.147426
519 4 0.418179 0.252014 0.110422
517 2 0.427407 0.265368 0.0914033
549 4 0.033507 0.407512 0.112629
1241 4 0.106312 0.419144 0.0990376
1914 4 0.126217 0.417434 0.0993578
603 4 0.126886 0.361152 0.137702
1912 2 0.128965 0.398594 0.115564
1913 4 0.131713 0.379753 0.131771
601 2 0.121624 0.367363 0.161344
756 4 0.223075 0.350844 0.155383
700 2 0.0596149 0.486635 0.151499
547 2 0.0579236 0.412529 0.114589
548 4 0.0823401 0.417546 0.116549
702 4 0.0433189 0.473132 0.164813
701 4 0.075911 0.500139 0.138185
2093 4 0.173328 0.490693 0.155926
2092 2 0.174675 0.480662 0.133063
2094 4 0.176022 0.47063 0.110199
659 4 0.374189 0.458919 0.0904165
658 2 0.381415 0.466404 0.113152
660 4 0.388642 0.473889 0.135888
2782 2 0.483792 0.49431 0.0829167
319 2 0.120767 0.0209021 0.186355
321 4 0.111996 0.0137316 0.208645
1422 4 0.0988948 0.999637 0.211993
389 4 0.185237 0.0742244 0.199191
25 3 0.299376 0.0613787 0.217354
23 3 0.307157 0.0431508 0.18534
21 1 0.298785 0.0626984 0.194626
22 3 0.277005 0.0654595 0.18776
653 4 0.268219 0.0812596 0.195691
24 3 0.311282 0.0808742 0.187423
331 2 0.395522 0.0444119 0.225526
332 4 0.386873 0.0225085 0.217124
333 4 0.404172 0.0663154 0.233929
3678 4 0.395375 0.00948339 0.228333
305 4 0.454951 0.0784797 0.250588
468 4 0.165853 0.116001 0.245618
388 2 0.183125 0.0914771 0.217165
390 4 0.181013 0.10873 0.235139
654 4 0.239482 0.118897 0.211763
742 2 0.221906 0.146488 0.205606
744 4 0.220417 0.122909 0.21379
354 4 0.206469 0.177186 0.18884
699 4 0.315332 0.0938352 0.172734
652 2 0.25385 0.100078 0.203727
1700 4 0.322349 0.149436 0.217092
422 4 0.333503 0.147363 0.233684
421 2 0.354611 0.149805 0.246861
1785 4 0.427665 0.115622 0.177726
420 4 0.431398 0.117684 0.196709
418 2 0.453835 0.124779 0.188257
419 4 0.476272 0.131874 0.179806
312 4 0.495028 0.139599 0.178342
310 2 0.494254 0.164515 0.180282
352 2 0.186519 0.176831 0.173772
743 4 0.223395 0.170067 0.197422
400 2 0.29396 0.20977 0.1678
1699 2 0.314163 0.162632 0.197495
1701 4 0.305977 0.175828 0.177898
401 4 0.289094 0.186445 0.175379
2837 4 0.467871 0.240846 0.187834
311 4 0.49348 0.189431 0.182222
2836 2 0.472404 0.216389 0.190374
2838 4 0.476936 0.191931 0.192913
448 2 0.0980866 0.292181 0.17264
450 4 0.10779 0.282859 0.193715
2758 2 0.0978659 0.294639 0.227894
2759 4 0.110485 0.298145 0.206595
494 4 0.281427 0.251699 0.242042
104 3 0.292003 0.262825 0.228105
508 2 0.282187 0.302628 0.168972
509 4 0.289643 0.292365 0.190519
101 1 0.291782 0.286027 0.227955
105 3 0.281689 0.293579 0.208988
103 3 0.313479 0.294163 0.229155
588 4 0.328513 0.290176 0.242275
102 3 0.280025 0.29347 0.246272
586 2 0.351121 0.300854 0.242209
587 4 0.37373 0.311533 0.242143
387 4 0.387418 0.307183 0.227748
385 2 0.405986 0.323001 0.233245
2853 4 0.4542 0.249758 0.197419
2852 4 0.47393 0.295704 0.197995
2851 2 0.464065 0.272731 0.197707
287 4 0.0377502 0.352231 0.187319
2616 4 0.0527889 0.378471 0.203802
302 4 0.057795 0.395093 0.214093
301 2 0.0398184 0.408649 0.224967
286 2 0.0181774 0.36769 0.185556
288 4 0.998605 0.383149 0.183793
303 4 0.0218418 0.422205 0.235841
2614 2 0.0766163 0.372339 0.199348
602 4 0.116361 0.373574 0.184985
2615 4 0.100444 0.366207 0.194895
1820 4 0.0983738 0.418682 0.246692
344 4 0.211991 0.345632 0.169945
343 2 0.211573 0.365991 0.184453
1223 4 0.193243 0.395939 0.201402
345 4 0.211156 0.386351 0.198962
315 4 0.280112 0.409135 0.243546
1529 4 0.415754 0.402502 0.250182
386 4 0.424554 0.338818 0.238742
2651 4 0.428875 0.359352 0.237709
610 2 0.500982 0.350952 0.237595
611 4 0.480926 0.357641 0.250943
291 4 0.0346407 0.466324 0.180186
1821 4 0.083474 0.445324 0.207082
290 4 0.0673154 0.452828 0.215555
289 2 0.050978 0.459576 0.197871
1819 2 0.0909239 0.432003 0.226887
1222 2 0.197462 0.420582 0.201736
1224 4 0.201681 0.445225 0.20207
1656 4 0.248978 0.45962 0.246974
1654 2 0.242275 0.482731 0.240181
314 4 0.243556 0.442767 0.237778
1665 4 0.160057 0.504374 0.161486
313 2 0.261834 0.425951 0.240662
594 4 0.361843 0.487098 0.18061
596 4 0.378043 0.475636 0.175157
1528 2 0.411422 0.422127 0.235307
595 2 0.388021 0.468033 0.196786
597 4 0.398 0.460429 0.218414
1530 4 0.407091 0.441753 0.220432
439 2 0.0937032 0.0885035 0.269322
416 4 0.0642315 0.00265001 0.278364
441 4 0.104603 0.069754 0.281764
1337 4 0.0842995 0.00822662 0.280925
1336 2 0.0876578 0.0326047 0.285353
1338 4 0.0910162 0.0569828 0.289782
632 4 0.246332 0.066637 0.284486
498 4 0.249065 0.0846465 0.276848
631 2 0.26152 0.0488153 0.293255
633 4 0.276707 0.0309936 0.302025
1035 4 0.0099064 0.175549 0.338163
440 4 0.0828029 0.107253 0.256879
469 2 0.0566918 0.138612 0.287077
471 4 0.0361947 0.124762 0.283442
466 2 0.183212 0.124077 0.2617
496 2 0.229524 0.100005 0.279576
467 4 0.200571 0.132154 0.277781
497 4 0.209983 0.115363 0.282304
2893 2 0.404121 0.147506 0.29171
278 4 0.404965 0.138323 0.329232
2895 4 0.393084 0.150126 0.269428
423 4 0.37572 0.152247 0.260038
306 4 0.498836 0.100941 0.258972
2894 4 0.415158 0.144886 0.313992
304 2 0.476894 0.0897103 0.25478
470 4 0.0771889 0.152463 0.290712
1033 2 0.0098371 0.199568 0.331214
365 4 0.0871138 0.16394 0.27804
2801 4 0.00982416 0.236631 0.340892
691 2 0.0838985 0.246636 0.254252
364 2 0.0919207 0.186869 0.269303
366 4 0.0967275 0.209798 0.260566
693 4 0.0801466 0.221916 0.254108
493 2 0.297605 0.232694 0.243546
495 4 0.313783 0.213689 0.24505
2760 4 0.0852473 0.291133 0.249194
692 4 0.0876504 0.271356 0.254397
750 4 0.279601 0.296992 0.266488
748 2 0.284337 0.293142 0.290735
749 4 0.289072 0.289293 0.314982
2954 4 0.303188 0.274974 0.32127
276 4 0.41335 0.262358 0.270369
274 2 0.422576 0.261815 0.293602
473 4 0.419078 0.273505 0.327392
275 4 0.431802 0.261273 0.316834
646 2 0.22894 0.380579 0.304588
648 4 0.219428 0.384513 0.327374
647 4 0.238451 0.376644 0.281801
413 4 0.287654 0.391012 0.245524
412 2 0.308972 0.396843 0.257218
414 4 0.33029 0.402674 0.268912
1430 4 0.343394 0.388987 0.276656
1429 2 0.35812 0.39057 0.296801
1431 4 0.372847 0.392152 0.316945
813 4 0.493415 0.39337 0.29211
2650 2 0.449201 0.36119 0.252154
2652 4 0.469527 0.363027 0.266599
811 2 0.496554 0.369749 0.299685
542 4 0.502898 0.411034 0.295215
680 4 0.0142005 0.479441 0.302774
1758 4 0.0303289 0.490428 0.300702
1788 4 0.0990006 0.428524 0.264279
1787 4 0.119415 0.426507 0.309886
569 4 0.134589 0.439615 0.30828
568 2 0.151518 0.442962 0.326373
1786 2 0.109208 0.427516 0.287083
4382 4 0.44867 0.496829 0.308485
4381 2 0.472015 0.497978 0.299603
1586 4 0.436641 0.481349 0.305246
1585 2 0.42287 0.474707 0.32503
1771 2 0.0107424 0.999508 0.406615
369 4 0.0440806 0.0276073 0.409096
367 2 0.037229 0.0469298 0.394783
368 4 0.0303775 0.0662524 0.380469
705 4 0.118974 0.0713422 0.392788
1478 4 0.133536 0.067751 0.406793
1477 2 0.131594 0.0432686 0.4021
1479 4 0.129653 0.0187862 0.397407
1199 4 0.234727 0.0574373 0.37672
1198 2 0.223375 0.0642549 0.397929
1200 4 0.212022 0.0710726 0.419137
405 4 0.271343 0.999347 0.345107
1518 4 0.250579 0.0682494 0.372486
1516 2 0.27513 0.0712747 0.368842
1517 4 0.299681 0.0743 0.365199
430 2 0.329918 0.0734432 0.385315
431 4 0.349971 0.0602943 0.392399
257 4 0.366837 0.0550499 0.40124
256 2 0.375874 0.0318824 0.403844
258 4 0.384911 0.00871489 0.406448
707 4 0.44503 0.999379 0.352437
348 4 0.0761491 0.157596 0.412885
703 2 0.115877 0.0958478 0.388907
704 4 0.11278 0.120353 0.385026
600 4 0.193717 0.156328 0.372437
598 2 0.179682 0.145839 0.390274
599 4 0.165647 0.13535 0.408112
432 4 0.309865 0.0865921 0.378231
277 2 0.410122 0.137606 0.353687
2657 4 0.404476 0.127028 0.392995
2656 2 0.405414 0.10852 0.409781
279 4 0.41528 0.136889 0.378143
2534 4 0.0638665 0.167937 0.400727
1151 4 0.0488438 0.218732 0.374312
2535 4 0.0373857 0.203075 0.37696
2533 2 0.0506261 0.185506 0.388844
1150 2 0.0366966 0.240409 0.371536
371 4 0.206199 0.168479 0.362706
372 4 0.187416 0.214106 0.354575
260 4 0.185827 0.231891 0.345796
370 2 0.196807 0.191293 0.35864
474 4 0.404391 0.259367 0.373055
457 2 0.0317133 0.301449 0.366432
458 4 0.045691 0.322018 0.363843
459 4 0.0177356 0.28088 0.369021
1152 4 0.0245493 0.262087 0.36876
337 2 0.159314 0.308463 0.341516
383 4 0.120394 0.295305 0.387945
382 2 0.129407 0.316004 0.398692
503 4 0.115799 0.282278 0.403118
261 4 0.162352 0.273867 0.359492
338 4 0.150305 0.331681 0.339298
259 2 0.17409 0.252879 0.352644
339 4 0.168323 0.285244 0.343734
2953 2 0.315607 0.281733 0.341893
2955 4 0.328025 0.288491 0.362515
736 2 0.320242 0.326343 0.380964
737 4 0.318275 0.306968 0.365283
803 4 0.408451 0.250228 0.389565
802 2 0.385159 0.256338 0.396298
472 2 0.411735 0.266436 0.350223
804 4 0.361867 0.262449 0.403031
1220 4 0.0399008 0.341978 0.358896
2529 4 0.0395127 0.403599 0.356054
1221 4 0.0303304 0.390439 0.366683
1219 2 0.0351156 0.366208 0.362789
1396 2 0.127905 0.40769 0.407193
384 4 0.13842 0.336703 0.409439
507 4 0.167195 0.34192 0.34196
1397 4 0.120806 0.384686 0.413946
506 4 0.207038 0.371451 0.335547
505 2 0.187117 0.356685 0.338754
678 4 0.22639 0.411526 0.350757
738 4 0.322208 0.345718 0.396646
728 4 0.294332 0.409051 0.392678
727 2 0.307144 0.387618 0.393961
729 4 0.319956 0.366184 0.395245
768 4 0.30679 0.420537 0.383224
248 4 0.365442 0.390656 0.335147
650 4 0.41756 0.352582 0.351421
249 4 0.399414 0.359979 0.355285
247 2 0.382428 0.375317 0.345216
649 2 0.42216 0.353569 0.375978
651 4 0.426759 0.354556 0.400535
2527 2 0.0403286 0.426273 0.366561
2528 4 0.0411444 0.448947 0.377068
1751 4 0.072908 0.480615 0.409144
1750 2 0.0571794 0.474499 0.390694
1752 4 0.0414508 0.468383 0.372245
936 4 0.0920943 0.476878 0.405895
934 2 0.113354 0.463784 0.404578
1398 4 0.135003 0.430694 0.40044
935 4 0.134615 0.45069 0.403262
570 4 0.168447 0.44631 0.344467
677 4 0.186497 0.441652 0.352058
676 2 0.206443 0.426589 0.351408
766 2 0.305802 0.445401 0.385663
2353 2 0.316077 0.499414 0.369632
767 4 0.304814 0.470266 0.388101
2354 4 0.316631 0.474658 0.373098
613 2 0.357333 0.415665 0.411211
615 4 0.371236 0.426804 0.393667
266 4 0.386326 0.422653 0.378978
1587 4 0.409098 0.468065 0.344814
265 2 0.39649 0.444274 0.371603
267 4 0.406655 0.465895 0.364229
2636 4 0.98849 0.0627333 0.41558
1773 4 0.0257706 0.0193083 0.409313
852 4 0.06886 0.0129285 0.506988
399 4 0.994949 0.074254 0.430954
1600 2 0.0795578 0.0505651 0.491028
1602 4 0.0749951 0.0260155 0.492324
1025 4 0.402759 0.067983 0.482604
3158 4 0.405828 0.0714854 0.501922
1024 2 0.396013 0.0773749 0.460436
346 2 0.0857496 0.143386 0.43108
733 2 0.0886047 0.110048 0.48388
734 4 0.08894 0.12863 0.467154
347 4 0.0953502 0.129175 0.449276
792 4 0.194482 0.083265 0.420556
791 4 0.211082 0.0874234 0.467544
790 2 0.202782 0.0853442 0.44405
857 4 0.229456 0.0946892 0.472824
856 2 0.237123 0.0995634 0.496118
1026 4 0.389266 0.0867667 0.438267
2658 4 0.406352 0.0900116 0.426566
899 4 0.463341 0.163075 0.502183
717 4 0.138047 0.234436 0.440487
715 2 0.150268 0.213064 0.444856
716 4 0.162488 0.191693 0.449226
1524 4 0.144656 0.157675 0.496481
238 2 0.196695 0.224132 0.484456
239 4 0.208532 0.210912 0.46684
240 4 0.184858 0.237351 0.502071
504 4 0.130699 0.252642 0.44054
502 2 0.123249 0.26746 0.421829
1211 4 0.306263 0.268884 0.432561
1210 2 0.328605 0.260549 0.425043
375 4 0.326927 0.326749 0.450102
373 2 0.337586 0.309032 0.464162
374 4 0.348244 0.291315 0.478221
1212 4 0.350948 0.252215 0.417526
1167 4 0.358904 0.274305 0.478247
1165 2 0.371059 0.257957 0.492745
4298 4 0.0624876 0.36741 0.409858
1121 4 0.0514066 0.376706 0.424681
1120 2 0.0301395 0.374657 0.437669
1122 4 0.00887235 0.372607 0.450656
3354 4 0.0364704 0.416955 0.485918
3352 2 0.0476913 0.396062 0.493839
4299 4 0.110552 0.369255 0.423536
4297 2 0.08652 0.368333 0.416697
1178 4 0.151747 0.352615 0.409884
1177 2 0.147562 0.362727 0.432366
696 4 0.142823 0.367933 0.475575
1179 4 0.143378 0.372839 0.454847
694 2 0.159377 0.376943 0.492005
1239 4 0.321708 0.342278 0.46303
1237 2 0.32983 0.365903 0.462006
614 4 0.34343 0.404525 0.428755
1238 4 0.337953 0.389528 0.460983
335 4 0.351353 0.402273 0.469866
334 2 0.375225 0.398126 0.476037
336 4 0.399098 0.393979 0.482209
872 4 0.42819 0.364446 0.418167
871 2 0.42367 0.358443 0.442015
2455 2 0.495138 0.386143 0.491026
873 4 0.419151 0.35244 0.465863
1193 4 0.431752 0.352813 0.479729
2221 2 0.153674 0.497951 0.437878
2222 4 0.128744 0.499661 0.438738
2223 4 0.178604 0.496242 0.437018
1815 4 0.242553 0.516017 0.449805
2345 4 0.189021 0.481822 0.445971
538 2 0.245072 0.436441 0.436826
2346 4 0.201005 0.437249 0.426728
2344 2 0.195013 0.459536 0.436349
540 4 0.222461 0.433722 0.426506
1813 2 0.25188 0.505095 0.470272
1814 4 0.261207 0.494173 0.490739
539 4 0.267684 0.439161 0.447146
376 2 0.368633 0.44832 0.495346
377 4 0.345724 0.446074 0.485584
1276 2 0.0717411 0.0691217 0.571041
1601 4 0.0841205 0.0751147 0.489732
1277 4 0.0830644 0.0751326 0.549574
2017 2 0.229991 0.023236 0.567216
2018 4 0.20625 0.0170536 0.572043
888 4 0.239268 0.0641362 0.559328
2019 4 0.253732 0.0294183 0.562389
1058 4 0.266095 0.0319667 0.546732
1057 2 0.282369 0.0393709 0.529253
1059 4 0.298644 0.0467751 0.511775
1218 4 0.32943 0.0100163 0.563747
831 4 0.242641 0.0661523 0.578693
3159 4 0.385455 0.0271345 0.512815
3157 2 0.395641 0.0493099 0.507369
1216 2 0.346446 0.0132293 0.54571
1217 4 0.363462 0.0164424 0.527674
411 4 0.383837 0.0145102 0.527564
2132 4 0.0970558 0.0858687 0.540482
2131 2 0.120961 0.0927504 0.537956
2133 4 0.144865 0.099632 0.53543
1523 4 0.141864 0.11355 0.519845
1522 2 0.14326 0.135613 0.508163
735 4 0.0882694 0.0914666 0.500607
858 4 0.24479 0.104438 0.519413
886 2 0.248394 0.0841033 0.54736
887 4 0.257519 0.10407 0.535393
1263 4 0.311172 0.11379 0.51513
1261 2 0.335371 0.116573 0.520774
1143 4 0.359457 0.107473 0.543009
1141 2 0.36366 0.0975811 0.565585
1262 4 0.35957 0.119357 0.526417
898 2 0.478227 0.149474 0.516968
900 4 0.493113 0.135872 0.531752
4225 2 0.500851 0.136586 0.570148
1284 4 0.125529 0.219592 0.549753
1282 2 0.119476 0.242737 0.557024
2916 4 0.137088 0.203638 0.547022
2914 2 0.139854 0.189693 0.526454
2915 4 0.14262 0.175749 0.505885
710 4 0.395449 0.225871 0.512918
709 2 0.401391 0.228291 0.537085
954 4 0.406509 0.238368 0.578917
1166 4 0.383215 0.24161 0.507242
711 4 0.407333 0.230711 0.561251
1283 4 0.113424 0.265882 0.564295
669 4 0.119976 0.284508 0.569662
667 2 0.139339 0.292149 0.583513
799 2 0.390367 0.320389 0.569718
801 4 0.365603 0.322928 0.572055
800 4 0.415131 0.317851 0.567381
3353 4 0.0589123 0.375168 0.501761
3262 2 0.0678295 0.381613 0.545778
3263 4 0.0633515 0.3816 0.521178
3264 4 0.0723074 0.381626 0.570377
695 4 0.175932 0.385954 0.508435
617 4 0.166976 0.390403 0.526355
616 2 0.174831 0.392237 0.550022
618 4 0.182686 0.394071 0.573689
2028 4 0.357337 0.417457 0.562757
1194 4 0.421421 0.3911 0.510193
1010 4 0.491556 0.401711 0.531557
1009 2 0.467771 0.407212 0.536962
2456 4 0.487063 0.37573 0.512276
1192 2 0.426587 0.371957 0.494961
1454 4 0.427619 0.408108 0.516029
2244 4 0.10778 0.502799 0.571767
1171 2 0.102685 0.498544 0.540003
1172 4 0.0932538 0.493153 0.562524
1704 4 0.268694 0.494625 0.509032
1453 2 0.418758 0.431411 0.514134
1455 4 0.409897 0.454715 0.512239
2026 2 0.369804 0.437263 0.571557
2173 2 0.410614 0.477998 0.574134
2027 4 0.382272 0.457069 0.580358
378 4 0.391542 0.450566 0.505108
1011 4 0.443987 0.412714 0.542367
2174 4 0.421224 0.495934 0.560317
881 4 0.421336 0.494477 0.539945
880 2 0.440764 0.486128 0.526602
1400 4 0.478751 0.469971 0.509259
882 4 0.460192 0.477779 0.51326
1278 4 0.0604179 0.0631108 0.592508
2254 2 0.0153051 0.0156445 0.65351
3043 2 0.02951 0.0683191 0.610126
3045 4 0.0404023 0.0572478 0.590531
3044 4 0.0186178 0.0793905 0.629721
2232 4 0.141273 0.0700325 0.642776
2230 2 0.145354 0.0571272 0.621753
863 4 0.140773 0.0802556 0.661039
2231 4 0.149435 0.0442219 0.600729
842 4 0.240694 0.0128099 0.641171
841 2 0.222835 0.0281465 0.649599
843 4 0.204976 0.0434832 0.658027
50 3 0.207788 0.0635348 0.657287
830 4 0.245666 0.0765577 0.627512
829 2 0.244154 0.071355 0.603103
725 4 0.39718 0.0445285 0.621747
3426 4 0.389424 0.040537 0.639471
724 2 0.418423 0.0426558 0.608692
3424 2 0.389053 0.0406342 0.664472
726 4 0.439665 0.0407831 0.595638
1162 2 0.468626 0.0218071 0.621909
1164 4 0.483079 0.00687429 0.635811
1163 4 0.454172 0.0367399 0.608007
4286 4 0.015185 0.165774 0.651536
1270 2 0.0506541 0.158035 0.660458
1272 4 0.0735989 0.165928 0.666493
3236 4 0.129481 0.132243 0.663398
3731 4 0.154805 0.125911 0.613914
3730 2 0.176471 0.114406 0.618755
49 3 0.2084 0.0875131 0.628264
3732 4 0.198137 0.102902 0.623596
46 1 0.217245 0.0825843 0.649142
47 3 0.239943 0.0794842 0.647059
1142 4 0.367862 0.0876896 0.58816
1086 4 0.377433 0.0771782 0.60321
1084 2 0.37529 0.0924489 0.622892
1085 4 0.373147 0.10772 0.642574
960 4 0.358337 0.119513 0.650888
958 2 0.348619 0.13978 0.66184
4227 4 0.495287 0.135214 0.594486
642 4 0.481661 0.132133 0.609255
640 2 0.465584 0.1509 0.613069
641 4 0.449508 0.169666 0.616882
1068 4 0.0920439 0.230786 0.662973
822 4 0.103758 0.245679 0.654566
1135 2 0.296032 0.201338 0.6174
1136 4 0.285599 0.224004 0.619022
797 4 0.270736 0.234331 0.623304
1137 4 0.306464 0.178673 0.615779
952 2 0.387816 0.245234 0.594037
2508 4 0.437178 0.233265 0.623588
2506 2 0.436448 0.208309 0.624933
2507 4 0.435718 0.183352 0.626278
3267 4 0.071196 0.255161 0.603105
3265 2 0.0482637 0.260531 0.594711
3266 4 0.0253314 0.2659 0.586317
2654 4 0.018669 0.272768 0.603545
821 4 0.081977 0.268333 0.615667
820 2 0.0928675 0.257006 0.635117
668 4 0.158702 0.299791 0.597364
8 3 0.164499 0.329942 0.616908
7 3 0.168451 0.292749 0.613197
1131 4 0.14772 0.302617 0.652908
6 1 0.174208 0.310947 0.626037
9 3 0.166398 0.307659 0.647638
3112 2 0.238062 0.305266 0.632446
10 3 0.196877 0.313129 0.626219
3113 4 0.217105 0.315992 0.624021
891 4 0.329217 0.304495 0.625467
796 2 0.27107 0.256805 0.634258
3114 4 0.259018 0.29454 0.640871
798 4 0.271404 0.279279 0.645212
1008 4 0.270087 0.31898 0.668567
890 4 0.351283 0.324497 0.585296
889 2 0.34025 0.314496 0.605381
953 4 0.369123 0.2521 0.609156
499 2 0.066863 0.381068 0.610032
501 4 0.0657066 0.369999 0.632422
3077 4 0.0688016 0.383213 0.648802
500 4 0.0680194 0.392138 0.587642
3039 4 0.0176333 0.374971 0.65398
1259 4 0.157911 0.348718 0.620851
1258 2 0.143375 0.355747 0.60176
1260 4 0.12884 0.362777 0.582668
815 4 0.195501 0.384824 0.586508
816 4 0.227766 0.392756 0.623881
3431 4 0.220242 0.410193 0.631889
814 2 0.211634 0.38879 0.605195
3430 2 0.238131 0.423634 0.643047
807 4 0.29897 0.337821 0.585036
805 2 0.27721 0.34922 0.580373
806 4 0.255451 0.36062 0.575711
663 4 0.390002 0.38024 0.603918
1229 4 0.348712 0.370348 0.639151
2310 4 0.346755 0.390811 0.63564
661 2 0.406995 0.39199 0.618002
1228 2 0.339722 0.36032 0.660217
662 4 0.423988 0.40374 0.632085
3065 4 0.493936 0.353312 0.609762
3380 4 0.443422 0.397897 0.629585
3379 2 0.46285 0.382901 0.624803
3381 4 0.482278 0.367905 0.620022
3274 2 0.00884431 0.436812 0.588737
3275 4 0.0223537 0.447207 0.60703
3432 4 0.25602 0.437075 0.654206
2308 2 0.360362 0.409759 0.644641
2309 4 0.373968 0.428707 0.653641
929 4 0.389348 0.444046 0.65544
928 2 0.38533 0.465751 0.643697
2175 4 0.400004 0.460063 0.587952
930 4 0.381313 0.487457 0.631954
2255 4 0.0152409 0.0293698 0.674409
4192 2 0.00969663 0.0240776 0.715949
4193 4 0.0163981 0.0350771 0.694518
4194 4 0.00299518 0.013078 0.737379
862 2 0.131763 0.062783 0.676489
2316 4 0.0975801 0.0346688 0.716879
864 4 0.122753 0.0453103 0.691939
2314 2 0.0999738 0.0114185 0.72576
1050 4 0.322494 0.998027 0.716075
2301 4 0.312187 0.995224 0.73308
1091 4 0.410638 0.013096 0.740002
1048 2 0.337212 0.0181164 0.718306
1049 4 0.351929 0.0382062 0.720537
3425 4 0.388682 0.0407314 0.689472
1090 2 0.405276 0.0301332 0.722504
42 3 0.357878 0.0569797 0.716527
1092 4 0.399914 0.0471704 0.705007
41 1 0.366458 0.0752667 0.705521
43 3 0.363271 0.072469 0.682709
45 3 0.388697 0.0770246 0.710102
3466 2 0.498586 0.996598 0.671396
1271 4 0.0277094 0.150142 0.654422
3235 2 0.110982 0.148276 0.668489
3237 4 0.0924837 0.164309 0.67358
1780 2 0.133218 0.140955 0.726008
1781 4 0.11046 0.1383 0.736018
1782 4 0.155975 0.14361 0.715997
965 4 0.0971655 0.129862 0.748455
978 4 0.171245 0.135388 0.70508
48 3 0.213389 0.100204 0.663739
976 2 0.187773 0.122308 0.691629
977 4 0.204301 0.109228 0.678178
516 4 0.304474 0.0963132 0.677689
514 2 0.293822 0.118843 0.679723
515 4 0.28317 0.141372 0.681756
1226 4 0.277912 0.160232 0.678291
1225 2 0.277888 0.165791 0.702668
1043 4 0.292605 0.166313 0.739937
44 3 0.355348 0.0942938 0.712797
3008 4 0.357705 0.0927105 0.732737
4466 4 0.493235 0.102602 0.707328
4465 2 0.47762 0.122044 0.709171
4467 4 0.462006 0.141485 0.711014
3356 4 0.462455 0.154746 0.726143
1067 4 0.0593759 0.219431 0.699092
894 4 0.0580065 0.224376 0.718116
1066 2 0.0757099 0.225109 0.681033
892 2 0.055224 0.247858 0.726242
840 4 0.129575 0.265002 0.738975
2048 4 0.122689 0.245356 0.740554
1227 4 0.277864 0.171351 0.727046
940 2 0.268394 0.241032 0.745861
959 4 0.3389 0.160048 0.672793
1394 4 0.345681 0.231294 0.689791
916 2 0.401485 0.247338 0.738501
3355 2 0.44577 0.168829 0.738329
917 4 0.415068 0.233091 0.753919
893 4 0.0524416 0.27134 0.734367
3247 2 0.0373482 0.298799 0.74238
3249 4 0.0416347 0.323369 0.744145
3248 4 0.0330616 0.274229 0.740614
838 2 0.14299 0.283694 0.729185
839 4 0.156405 0.302385 0.719395
1130 4 0.16298 0.299576 0.700433
1129 2 0.15535 0.301097 0.676671
941 4 0.253223 0.258055 0.735603
1393 2 0.360894 0.249051 0.698647
1395 4 0.376107 0.266808 0.707503
918 4 0.387902 0.261586 0.723084
3037 2 0.00416268 0.362804 0.671175
947 4 0.0487662 0.336367 0.730008
946 2 0.0469397 0.359567 0.720863
3076 2 0.0636236 0.384556 0.673227
3078 4 0.0584457 0.385899 0.697652
948 4 0.0451133 0.382766 0.711718
1903 2 0.137945 0.389924 0.711481
1905 4 0.145751 0.366868 0.705764
849 4 0.160857 0.359018 0.714577
847 2 0.172205 0.342063 0.72903
848 4 0.183554 0.325107 0.743483
1006 2 0.291208 0.332008 0.671629
1007 4 0.312329 0.345035 0.674691
1230 4 0.330732 0.350292 0.681284
1904 4 0.130138 0.41298 0.717198
2014 2 0.27687 0.47635 0.680139
2016 4 0.300205 0.467889 0.683154
774 4 0.315229 0.480494 0.677973
2015 4 0.253535 0.48481 0.677125
772 2 0.328684 0.495002 0.69326
773 4 0.342138 0.509509 0.708547
926 4 0.476194 0.489772 0.713083
2264 4 0.00696527 0.00855615 0.756455
1078 2 0.146345 0.0615331 0.784963
1079 4 0.130373 0.0431467 0.790622
690 4 0.233417 3.88796e-05 0.829339
688 2 0.238382 0.02414 0.833772
2998 2 0.0506257 0.133294 0.827134
2999 4 0.0672861 0.151882 0.82858
1257 4 0.0794725 0.163493 0.817056
966 4 0.0620844 0.10742 0.776139
3000 4 0.0339652 0.114706 0.825688
964 2 0.0796249 0.118641 0.762297
1080 4 0.162317 0.0799195 0.779305
963 4 0.208427 0.111623 0.749817
962 4 0.16392 0.0950411 0.765468
961 2 0.186174 0.103332 0.757643
869 4 0.197644 0.0944911 0.836879
818 4 0.292923 0.113596 0.796671
817 2 0.281847 0.122104 0.81741
3007 2 0.366793 0.103277 0.753496
3009 4 0.37588 0.113844 0.774255
90 3 0.377939 0.132175 0.781568
88 3 0.394037 0.113966 0.810325
89 3 0.388836 0.151579 0.811939
87 3 0.414302 0.136905 0.788513
86 1 0.393614 0.133636 0.798024
1299 4 0.432646 0.142974 0.79567
1297 2 0.44857 0.125231 0.803205
1298 4 0.464494 0.107487 0.81074
3087 4 0.458565 0.103794 0.829719
3028 2 0.0602302 0.212587 0.774961
3030 4 0.0369273 0.207273 0.767619
3029 4 0.0835331 0.217901 0.782304
2047 2 0.112908 0.23433 0.760752
2049 4 0.103128 0.223304 0.78095
1255 2 0.0953343 0.182733 0.81521
1256 4 0.111196 0.201973 0.813365
60 3 0.248755 0.202135 0.80258
56 1 0.251485 0.191433 0.822496
942 4 0.283565 0.224009 0.756119
1042 2 0.291541 0.187206 0.753632
1044 4 0.290477 0.208099 0.767326
58 3 0.273378 0.184032 0.824572
1094 4 0.293048 0.188122 0.827873
3357 4 0.429086 0.182912 0.750514
3336 4 0.448602 0.238284 0.820479
1063 2 0.428557 0.249725 0.785769
1064 4 0.420776 0.249666 0.762007
1040 4 0.160637 0.312979 0.815876
1244 4 0.176887 0.306569 0.803861
1243 2 0.186165 0.314842 0.782166
1245 4 0.195442 0.323115 0.760471
1054 2 0.216617 0.323884 0.831379
2121 4 0.312345 0.30323 0.772033
2119 2 0.331631 0.315997 0.762533
2120 4 0.350916 0.328765 0.753034
1065 4 0.436338 0.249785 0.809531