ITEM: TIMESTEP
4360000
ITEM: NUMBER OF ATOMS
1600
ITEM: BOX BOUNDS pp pp pp
-6.9325799999999997e+00 6.9325799999999997e+00
-6.9325799999999997e+00 6.9325799999999997e+00
-6.9325799999999997e+00 6.9325799999999997e+00
ITEM: ATOMS id type xs ys zs
501 4 0.220031 0.0926262 0.0501892
500 2 0.215708 0.120003 0.0271189
308 2 0.335934 0.0657203 0.0577681
309 4 0.339483 0.0921564 0.0334993
468 4 0.302443 0.0327416 0.0841514
310 4 0.332385 0.0392841 0.0820368
467 2 0.286982 0.0137054 0.11059
140 3 0.360938 0.112419 0.0427749
574 4 0.328243 0.102712 0.00674709
848 2 0.487331 0.0980746 0.0912964
112 3 0.477164 0.104413 0.00300136
1501 4 0.0598965 0.140497 0.0342397
1499 2 0.0503927 0.161011 0.00614538
502 4 0.211385 0.147381 0.00404862
340 4 0.2636 0.180151 0.0334742
45 3 0.255172 0.197522 0.00965359
338 2 0.264927 0.173544 0.0689006
138 3 0.344231 0.164004 0.0457237
339 4 0.266254 0.166938 0.104327
136 1 0.352079 0.138737 0.0252324
1037 2 0.311844 0.234608 0.120425
1039 4 0.301322 0.200159 0.12216
137 3 0.377415 0.148045 0.0059421
711 4 0.420146 0.171034 0.0299553
710 2 0.446606 0.18188 0.0519246
712 4 0.473066 0.192727 0.0738939
1245 4 0.478648 0.177012 0.0982332
1008 4 0.056478 0.354106 0.0928416
673 4 0.0672637 0.347342 0.11886
414 4 0.275434 0.327792 0.047579
413 2 0.296695 0.35447 0.0592702
1038 4 0.322365 0.269057 0.118691
385 4 0.349274 0.272431 0.110285
383 2 0.36536 0.293292 0.0856589
384 4 0.381447 0.314154 0.0610326
1443 4 0.407215 0.329587 0.0574369
1442 2 0.409898 0.344755 0.0248302
1007 2 0.0628657 0.383654 0.0731811
1009 4 0.0692534 0.413202 0.0535206
517 4 0.0733044 0.440176 0.0635981
515 2 0.10403 0.457353 0.05577
516 4 0.134756 0.474531 0.047942
327 4 0.145169 0.471502 0.0212406
415 4 0.317956 0.381148 0.0709613
291 4 0.328038 0.472938 0.0323903
290 2 0.302124 0.478976 0.0567304
1498 4 0.322936 0.45708 0.00913398
292 4 0.27621 0.485014 0.0810706
391 4 0.273455 0.476571 0.109043
850 4 0.469177 0.0937685 0.122156
227 3 0.460669 0.103256 0.147151
228 3 0.451939 0.0746254 0.192345
277 4 0.438811 0.0699277 0.215655
226 1 0.461846 0.104231 0.180292
229 3 0.493308 0.110496 0.189821
667 4 0.0735033 0.180536 0.234453
397 4 0.0984741 0.187476 0.246003
395 2 0.127328 0.20788 0.238818
396 4 0.156181 0.228283 0.231634
751 4 0.168679 0.230183 0.205084
749 2 0.194378 0.20788 0.193145
750 4 0.220078 0.185577 0.181206
17 3 0.246812 0.173341 0.173801
20 3 0.267881 0.151865 0.129166
19 3 0.297703 0.154682 0.174461
16 1 0.274471 0.169918 0.155803
18 3 0.285252 0.200251 0.146658
230 3 0.441914 0.127982 0.191131
1132 4 0.460314 0.244098 0.221932
1373 2 0.458345 0.18122 0.212574
1375 4 0.453518 0.215298 0.223334
1374 4 0.463172 0.147141 0.201814
671 2 0.0701719 0.324936 0.146967
672 4 0.0730801 0.30253 0.175073
393 4 0.0838866 0.298452 0.200538
392 2 0.107422 0.294397 0.227558
1130 2 0.475222 0.274794 0.210273
1131 4 0.490131 0.305491 0.198615
376 4 0.0722584 0.490338 0.232576
389 2 0.282572 0.498615 0.136087
666 4 0.0733121 0.118751 0.27166
1129 4 0.0581417 0.0996583 0.288
1127 2 0.0548801 0.0639139 0.291484
1128 4 0.0516185 0.0281694 0.294968
580 4 0.0558416 0.0135669 0.319898
1002 4 0.205557 0.0544319 0.265607
1001 2 0.216002 0.0199735 0.2676
1031 2 0.189923 0.108816 0.310024
1032 4 0.174698 0.102644 0.277923
1033 4 0.205149 0.114988 0.342126
330 4 0.178682 0.123811 0.349538
417 4 0.279383 0.0827928 0.343891
418 4 0.309304 0.0412116 0.293122
416 2 0.294344 0.0620022 0.318507
748 4 0.318718 0.0144854 0.302553
1439 2 0.466677 0.00301404 0.342909
275 2 0.433747 0.0664067 0.251185
928 4 0.429961 0.0905845 0.296665
276 4 0.428683 0.0628856 0.286716
926 2 0.403127 0.107652 0.313668
1441 4 0.459976 0.0325082 0.362547
665 2 0.0734077 0.149644 0.253057
927 4 0.376294 0.124719 0.330671
999 4 0.484515 0.180031 0.296649
394 4 0.130957 0.290341 0.254578
336 4 0.135716 0.307627 0.277697
335 2 0.160466 0.3337 0.274846
337 4 0.185215 0.359772 0.271995
273 4 0.347228 0.27848 0.259208
272 2 0.378197 0.296956 0.259242
274 4 0.409166 0.315431 0.259277
129 3 0.420929 0.335797 0.273841
130 3 0.443747 0.328877 0.322629
126 1 0.447801 0.342006 0.292795
128 3 0.45256 0.375028 0.295402
127 3 0.474439 0.328433 0.278412
258 4 0.464469 0.309299 0.31876
724 4 0.486559 0.321971 0.303837
257 2 0.460509 0.292206 0.350265
374 2 0.0779886 0.477992 0.26597
380 2 0.0790907 0.460941 0.343368
382 4 0.0877313 0.4409 0.31466
375 4 0.0837189 0.465646 0.299364
381 4 0.0704501 0.480982 0.372076
675 4 0.191184 0.386907 0.275738
674 2 0.215946 0.413024 0.278008
643 4 0.249431 0.457996 0.261147
676 4 0.240709 0.439141 0.280278
641 2 0.249352 0.493148 0.253097
701 2 0.45464 0.495034 0.28512
1566 4 0.479324 0.478178 0.324187
702 4 0.458293 0.466219 0.306493
1150 4 0.470041 0.0312346 0.470352
918 4 0.460863 0.0540674 0.456658
917 2 0.453513 0.0457153 0.422356
919 4 0.446163 0.0373633 0.388053
538 4 0.14429 0.165212 0.428649
329 2 0.163185 0.13358 0.3806
331 4 0.147687 0.143349 0.411662
536 2 0.148996 0.190292 0.45413
537 4 0.153703 0.215371 0.479612
1086 4 0.169609 0.227993 0.497461
366 4 0.482782 0.197762 0.437749
242 3 0.467893 0.215195 0.421206
243 3 0.416162 0.22706 0.43223
241 1 0.446524 0.239981 0.426652
903 4 0.452847 0.145546 0.493534
583 4 0.0680584 0.261533 0.39379
581 2 0.0863322 0.288783 0.408755
582 4 0.104606 0.316034 0.423719
403 4 0.0242205 0.289848 0.492406
401 2 0.0123417 0.257064 0.483209
259 4 0.456549 0.275112 0.38177
245 3 0.445704 0.259549 0.400284
244 3 0.456657 0.257316 0.453425
497 2 0.413336 0.283738 0.485028
499 4 0.439803 0.260412 0.477554
498 4 0.386869 0.307063 0.492502
1175 2 0.0963378 0.480489 0.418966
1176 4 0.0926318 0.466396 0.38598
1177 4 0.100044 0.494582 0.451953
933 4 0.190596 0.499114 0.480757
660 4 0.492503 0.430599 0.441006
400 4 0.485925 0.416571 0.465938
398 2 0.463361 0.401697 0.489814
1545 4 0.0577412 0.0529294 0.571787
1544 2 0.0605735 0.0304549 0.543728
718 4 0.0432078 0.0675426 0.590745
1546 4 0.0634057 0.00798047 0.515669
716 2 0.0588417 0.0519434 0.619253
878 2 0.173485 0.00808159 0.53898
444 4 0.180101 0.0682328 0.545614
443 2 0.165712 0.101192 0.542955
880 4 0.187856 0.040314 0.546395
560 2 0.285177 0.074299 0.57414
561 4 0.293653 0.0458398 0.553678
562 4 0.276701 0.102758 0.594602
823 4 0.348784 0.0189656 0.617542
441 4 0.280254 0.109541 0.622569
1148 2 0.484169 0.0265623 0.5032
904 4 0.494607 0.117039 0.544966
1149 4 0.498296 0.0218901 0.536049
430 4 0.100599 0.173996 0.607345
428 2 0.116557 0.166017 0.576007
429 4 0.132516 0.158037 0.544669
445 4 0.151324 0.134152 0.540295
437 2 0.192514 0.187718 0.606739
438 4 0.165514 0.205819 0.591126
52 3 0.227559 0.146886 0.604529
1087 4 0.179557 0.223026 0.568722
471 4 0.25183 0.249295 0.530986
1085 2 0.174583 0.22551 0.533091
439 4 0.219515 0.169617 0.622352
470 2 0.26366 0.22063 0.549392
53 3 0.267765 0.124325 0.576016
472 4 0.27549 0.191965 0.567799
51 1 0.260458 0.146154 0.600307
54 3 0.270945 0.176748 0.591708
902 2 0.473727 0.131292 0.51925
294 4 0.385561 0.206804 0.632804
299 2 0.0497328 0.336656 0.521909
301 4 0.0283269 0.315728 0.501804
300 4 0.0711387 0.357585 0.542015
522 4 0.255828 0.338932 0.552976
521 2 0.245302 0.305513 0.544441
576 4 0.231929 0.352177 0.53874
523 4 0.234777 0.272095 0.535906
5 3 0.326472 0.307453 0.549822
3 3 0.340603 0.353328 0.524432
1 1 0.335164 0.320491 0.520955
2 3 0.363109 0.306048 0.510413
4 3 0.311069 0.315234 0.498333
814 4 0.021307 0.38533 0.591871
575 2 0.231444 0.3867 0.54915
1210 4 0.228256 0.450485 0.560003
1208 2 0.217725 0.469837 0.531454
577 4 0.230958 0.421223 0.55956
1209 4 0.207194 0.48919 0.502906
543 4 0.385033 0.469525 0.586008
264 4 0.50208 0.483491 0.58428
296 2 0.44011 0.462682 0.585176
298 4 0.406265 0.450544 0.58241
297 4 0.473954 0.47482 0.587943
399 4 0.440797 0.386823 0.51369
717 4 0.0744756 0.0363442 0.64776
990 4 0.088727 0.0238192 0.669861
989 2 0.0985578 0.0398758 0.700618
991 4 0.108389 0.0559324 0.731374
1202 2 0.998583 0.0615552 0.740299
1372 4 0.132816 0.0711628 0.730102
1370 2 0.140683 0.104277 0.718186
442 4 0.298707 0.0825081 0.686838
493 4 0.317545 0.0779048 0.707361
440 2 0.289481 0.0960247 0.654703
491 2 0.328517 0.105352 0.728019
559 4 0.121402 0.171743 0.629006
557 2 0.129878 0.168748 0.663929
558 4 0.138353 0.165752 0.698852
1371 4 0.14855 0.137391 0.70627
55 3 0.274765 0.136882 0.628382
104 3 0.341011 0.185411 0.722462
535 4 0.362757 0.220138 0.620838
533 2 0.34816 0.246762 0.640294
492 4 0.339489 0.132799 0.748676
295 4 0.453734 0.227345 0.644305
293 2 0.419648 0.217074 0.638555
1146 4 0.472594 0.235216 0.664153
813 4 0.0602604 0.364436 0.64886
534 4 0.333562 0.273385 0.65975
9 3 0.325137 0.352715 0.652992
8 3 0.366134 0.320662 0.635776
378 4 0.337969 0.329056 0.712341
7 3 0.320695 0.298753 0.65562
6 1 0.341787 0.324205 0.658461
10 3 0.354584 0.324326 0.688711
377 2 0.319946 0.333304 0.743286
812 2 0.0407837 0.374883 0.620365
434 2 0.109193 0.383677 0.675039
435 4 0.0809843 0.384596 0.652591
567 4 0.0116297 0.40106 0.720573
436 4 0.137401 0.382758 0.697486
1522 4 0.136594 0.384988 0.727627
843 4 0.222122 0.458655 0.67361
280 4 0.231889 0.433655 0.686997
278 2 0.232863 0.410589 0.714699
842 2 0.219297 0.492901 0.684548
279 4 0.233836 0.387522 0.742402
1203 4 0.00678836 0.0638799 0.775338
62 3 0.109643 0.0838368 0.839592
61 1 0.132075 0.0595491 0.836832
64 3 0.122871 0.0340421 0.856444
799 4 0.138071 0.0162367 0.874119
65 3 0.133527 0.0496692 0.805541
836 2 0.227609 0.0807726 0.846768
63 3 0.161906 0.0712216 0.846517
838 4 0.23677 0.110978 0.829327
795 4 0.230278 0.024904 0.865065
837 4 0.218448 0.0505678 0.864209
1090 4 0.316789 0.0975411 0.786416
1296 4 0.342891 0.0873855 0.791145
1295 2 0.353589 0.0690363 0.820287
1297 4 0.364288 0.050687 0.84943
1088 2 0.284594 0.110117 0.796701
909 4 0.339013 0.0623021 0.866143
1089 4 0.252399 0.122693 0.806986
84 3 0.392734 0.040557 0.842254
505 4 0.465059 0.044604 0.778197
85 3 0.437791 0.010434 0.838887
81 1 0.405605 0.00982701 0.845408
503 2 0.487334 0.0701697 0.765923
478 4 0.0284797 0.196596 0.821636
476 2 0.0528305 0.191393 0.795552
477 4 0.0771813 0.18619 0.769467
47 3 0.202138 0.175362 0.808239
49 3 0.214326 0.130076 0.835425
46 1 0.227075 0.156431 0.819213
48 3 0.246066 0.174531 0.83999
103 3 0.32043 0.15044 0.759312
50 3 0.245001 0.146259 0.793639
102 3 0.320606 0.203734 0.769221
1170 4 0.325171 0.231429 0.764056
101 1 0.3375 0.178915 0.755103
105 3 0.367026 0.176483 0.769286
355 4 0.272667 0.171661 0.852995
1590 4 0.394319 0.178377 0.759106
1589 2 0.422432 0.182806 0.781253
1591 4 0.450544 0.187235 0.8034
1206 4 0.472755 0.174841 0.815194
893 2 0.0596112 0.325686 0.872799
894 4 0.0908506 0.336914 0.858711
37 3 0.998919 0.263187 0.850994
1169 2 0.316291 0.250858 0.79311
1171 4 0.307411 0.270287 0.822163
1184 2 0.319298 0.325295 0.842828
1186 4 0.299901 0.297698 0.830077
379 4 0.301924 0.337552 0.77423
1185 4 0.338695 0.352893 0.855578
1180 4 0.290785 0.354333 0.794052
1178 2 0.260767 0.370592 0.782433
322 4 0.398048 0.299275 0.854882
1394 2 0.483968 0.368844 0.859244
556 4 0.416986 0.278192 0.863928
1101 4 0.502041 0.346167 0.812517
1396 4 0.484703 0.366336 0.823277
1516 4 0.076095 0.460277 0.781525
1514 2 0.0736613 0.492422 0.797687
1520 2 0.145451 0.412811 0.748791
1521 4 0.154307 0.440634 0.769954
1179 4 0.230749 0.386852 0.770814
253 4 0.323529 0.372542 0.870325
994 4 0.478369 0.470509 0.778935
992 2 0.453628 0.493863 0.790891
1473 4 0.0305273 0.0393595 0.96146
930 4 0.108778 0.0970055 0.894787
929 2 0.0797081 0.104046 0.914931
1472 2 0.03184 0.0133656 0.9365
931 4 0.0506381 0.111087 0.935076
798 4 0.110569 0.00436643 0.939728
797 2 0.12432 0.0103016 0.906924
271 4 0.128904 0.0755833 0.901913
269 2 0.163861 0.0821375 0.907868
270 4 0.198819 0.0886917 0.913823
908 2 0.343466 0.0728263 0.900346
910 4 0.347919 0.0833505 0.934549
573 4 0.267382 0.0883459 0.970811
572 2 0.297812 0.0955292 0.988779
854 2 0.412811 0.998074 0.926566
855 4 0.397232 0.0166993 0.899904
1010 2 0.446015 0.0753132 0.943295
1012 4 0.467701 0.086947 0.916935
1011 4 0.42433 0.0636794 0.969654
508 4 0.0413854 0.135763 0.921245
618 4 0.0499666 0.207836 0.968256
506 2 0.0113624 0.15148 0.908914
617 2 0.0318175 0.230709 0.947094
1500 4 0.0408889 0.181525 0.978051
44 3 0.23573 0.212278 0.961144
41 1 0.240536 0.186781 0.982281
42 3 0.211098 0.173616 0.990075
463 4 0.226121 0.234778 0.975808
43 3 0.259387 0.163273 0.967724
354 4 0.287067 0.179058 0.923278
353 2 0.279867 0.175359 0.888137
323 2 0.339961 0.159466 0.941725
325 4 0.304125 0.163311 0.940551
324 4 0.375798 0.155621 0.942898
139 3 0.325884 0.131222 0.00580793
987 4 0.488192 0.241094 0.909818
555 4 0.45965 0.247052 0.913039
36 1 0.00306851 0.276275 0.881196
565 4 0.00440922 0.314711 0.902019
619 4 0.0136684 0.253582 0.925931
40 3 0.0342814 0.285915 0.884614
895 4 0.0283719 0.314458 0.886887
68 3 0.126265 0.310194 0.934254
1042 4 0.155629 0.373224 0.912068
66 1 0.158405 0.318997 0.937335
69 3 0.177388 0.300162 0.917216
67 3 0.161706 0.350808 0.928509
462 4 0.193031 0.285454 0.93658
461 2 0.209576 0.260116 0.956194
70 3 0.168081 0.31536 0.968512
1395 4 0.483232 0.371352 0.895211
14 3 0.430558 0.338185 0.916663
321 4 0.388393 0.360462 0.891824
1083 4 0.492169 0.374184 0.922083
11 1 0.434179 0.367487 0.932418
13 3 0.422153 0.365273 0.963569
320 2 0.39322 0.329868 0.873353
554 2 0.438318 0.262622 0.888483
1444 4 0.412581 0.359922 0.992223
738 4 0.0386922 0.448697 0.939277
739 4 0.0961861 0.437089 0.897308
1041 4 0.100643 0.41124 0.884992
737 2 0.0674391 0.442893 0.918292
1040 2 0.128136 0.392232 0.89853
423 4 0.159109 0.444438 0.965689
422 2 0.193425 0.446447 0.954791
424 4 0.227742 0.448456 0.943893
547 4 0.230752 0.473883 0.933317
261 4 0.377408 0.456366 0.887156
1125 4 0.363081 0.466583 0.911773
251 2 0.311424 0.387319 0.900911
252 4 0.29932 0.402097 0.931498
1496 2 0.312869 0.441022 0.978455
1497 4 0.302802 0.424964 0.947775
545 2 0.253555 0.490878 0.911144
1124 2 0.334173 0.4866 0.903766
260 2 0.384848 0.421824 0.894363
15 3 0.465912 0.375928 0.933229
262 4 0.392289 0.387282 0.901569
1568 2 0.4788 0.466946 0.920043
1570 4 0.447606 0.467173 0.938135
12 3 0.417116 0.390695 0.915958
629 2 0.211724 0.557096 0.0681932
326 2 0.161506 0.503554 0.0237394
328 4 0.177843 0.535606 0.0262382
630 4 0.226816 0.55947 0.100858
631 4 0.196631 0.554721 0.035528
80 3 0.407993 0.54115 0.0284424
76 1 0.440361 0.538484 0.0235349
77 3 0.45297 0.516862 0.0453109
78 3 0.455078 0.5682 0.0280362
1426 4 0.433538 0.651482 0.115268
733 4 0.443236 0.676152 0.103813
753 4 0.401668 0.695378 0.017827
732 4 0.418262 0.700928 0.0408508
731 2 0.430749 0.68854 0.0723319
1475 2 0.0176265 0.855479 0.00419549
700 4 0.217615 0.864208 0.126562
693 4 0.364783 0.836752 0.0140299
1331 2 0.369331 0.870089 0.0600212
1332 4 0.380677 0.858331 0.0278738
1477 4 0.0406762 0.878421 0.0197775
551 2 0.0373704 0.887167 0.0795905
552 4 0.045763 0.894442 0.045282
553 4 0.0289778 0.879892 0.113899
406 4 0.202483 0.884907 0.112737
73 3 0.204732 0.937881 0.0634298
71 1 0.230367 0.918456 0.0726745
74 3 0.222469 0.901581 0.100474
484 4 0.127347 0.984785 0.0712536
72 3 0.236684 0.896756 0.0483864
404 2 0.167749 0.878421 0.119944
482 2 0.125208 0.986909 0.107189
75 3 0.257051 0.936869 0.0779412
727 4 0.350981 0.892032 0.119157
1333 4 0.357985 0.881847 0.0921686
714 4 0.26084 0.890392 0.03244
713 2 0.275005 0.896247 0.999798
1414 4 0.0115843 0.530269 0.149169
312 4 0.0511586 0.504401 0.218918
311 2 0.0427997 0.509913 0.184274
313 4 0.0344408 0.515424 0.14963
651 4 0.0263442 0.606831 0.19118
650 2 0.0568996 0.615787 0.20811
1299 4 0.0112445 0.582043 0.197479
652 4 0.087455 0.624742 0.225039
627 4 0.237187 0.568206 0.128449
626 2 0.232078 0.603765 0.131593
390 4 0.29169 0.52066 0.16313
266 2 0.351687 0.538295 0.181355
267 4 0.320046 0.529366 0.166537
268 4 0.383328 0.547223 0.196174
370 4 0.407847 0.544361 0.182996
368 2 0.428944 0.544314 0.212242
369 4 0.450041 0.544267 0.241488
1067 2 0.114304 0.671488 0.221375
1068 4 0.085349 0.650787 0.215585
1069 4 0.143258 0.692189 0.227165
828 4 0.248428 0.6524 0.151167
303 4 0.166638 0.705042 0.236225
302 2 0.181258 0.737676 0.240883
628 4 0.226969 0.639324 0.134737
827 2 0.250187 0.669348 0.182949
829 4 0.251947 0.686296 0.214731
705 4 0.265207 0.663142 0.227035
1056 4 0.495884 0.721143 0.221552
869 2 0.486922 0.73516 0.128173
1424 2 0.451073 0.648785 0.146663
1035 4 0.469524 0.649144 0.20541
1425 4 0.468608 0.646088 0.178059
1034 2 0.48886 0.674669 0.221995
89 3 0.122945 0.853185 0.146818
1339 4 0.0598085 0.826226 0.179096
87 3 0.0755807 0.848715 0.172801
1337 2 0.0389951 0.801597 0.195241
86 1 0.108534 0.848028 0.176578
1338 4 0.0181816 0.776969 0.211386
88 3 0.11743 0.818066 0.18854
90 3 0.117507 0.871606 0.197611
1311 4 0.135202 0.827322 0.208338
1310 2 0.164838 0.812232 0.222282
1312 4 0.194474 0.797142 0.236227
304 4 0.195878 0.77031 0.24554
193 3 0.21424 0.813943 0.248118
698 2 0.249055 0.855755 0.14207
405 4 0.133016 0.871935 0.127151
740 2 0.277468 0.870234 0.214865
742 4 0.283037 0.849891 0.185615
699 4 0.280495 0.847301 0.157578
871 4 0.466908 0.765158 0.128252
688 4 0.494725 0.84062 0.166817
686 2 0.474881 0.813639 0.15345
687 4 0.455038 0.786658 0.140082
1055 2 0.495437 0.753276 0.237914
483 4 0.123069 0.989034 0.143124
969 4 0.140819 0.889055 0.207797
968 2 0.173802 0.894388 0.221366
970 4 0.206785 0.899721 0.234935
95 3 0.207759 0.930112 0.23713
91 1 0.238956 0.935625 0.245801
494 2 0.242935 0.983125 0.172004
496 4 0.243183 0.968067 0.204771
495 4 0.242687 0.998182 0.139237
469 4 0.271521 0.994669 0.137029
94 3 0.256565 0.945806 0.219226
741 4 0.271898 0.890578 0.244115
725 2 0.379905 0.890176 0.140614
726 4 0.408829 0.88832 0.162071
658 4 0.428469 0.910216 0.170061
656 2 0.46297 0.900304 0.166614
657 4 0.497471 0.890393 0.163166
344 2 0.239551 0.5728 0.270983
345 4 0.217086 0.600046 0.278293
811 4 0.194834 0.614825 0.266571
346 4 0.262016 0.545554 0.263673
642 4 0.249272 0.528299 0.245047
703 4 0.450988 0.52385 0.263748
624 4 0.483905 0.608806 0.297123
809 2 0.192094 0.633447 0.29733
810 4 0.189354 0.652069 0.32809
900 4 0.194209 0.679424 0.319421
899 2 0.177388 0.693671 0.347961
704 2 0.289841 0.672374 0.251701
706 4 0.314475 0.681606 0.276366
1324 4 0.340135 0.671508 0.267175
1322 2 0.360925 0.65008 0.287401
1315 4 0.480251 0.635881 0.287401
1313 2 0.444887 0.636988 0.294374
1314 4 0.409524 0.638096 0.301348
1323 4 0.381714 0.628652 0.307626
192 3 0.223607 0.761205 0.256453
191 1 0.233112 0.791884 0.264767
1227 4 0.205251 0.798835 0.311368
194 3 0.229006 0.795921 0.297734
1226 2 0.195396 0.796558 0.345982
1228 4 0.185541 0.79428 0.380596
195 3 0.264726 0.795939 0.256832
1196 2 0.302784 0.774997 0.299392
1198 4 0.320538 0.754141 0.32285
1197 4 0.285031 0.795853 0.275934
1057 4 0.49499 0.785409 0.254276
578 2 0.0638552 0.990535 0.346464
92 3 0.252231 0.907487 0.257322
1003 4 0.226446 0.985515 0.269593
93 3 0.240184 0.958824 0.269889
746 2 0.34804 0.993568 0.304311
747 4 0.377363 0.972651 0.306069
549 4 0.375933 0.946337 0.295671
550 4 0.391897 0.896077 0.344873
766 4 0.486856 0.96266 0.299922
548 2 0.383915 0.921207 0.320272
1440 4 0.473378 0.97352 0.323272
571 4 0.177274 0.577612 0.474876
569 2 0.157197 0.605769 0.485103
934 4 0.125176 0.50774 0.451645
932 2 0.157886 0.503427 0.466201
1181 2 0.0981103 0.723064 0.39126
1182 4 0.0635054 0.729805 0.398843
774 4 0.121646 0.661154 0.489127
1183 4 0.132715 0.716322 0.383678
901 4 0.160567 0.707919 0.3765
527 2 0.213268 0.714078 0.458995
570 4 0.137121 0.633926 0.495329
528 4 0.193568 0.739534 0.442737
529 4 0.232967 0.688622 0.475254
525 4 0.339543 0.652087 0.439074
524 2 0.362726 0.672649 0.420628
1513 4 0.327693 0.666088 0.463298
1511 2 0.301049 0.688514 0.472659
451 4 0.265914 0.737302 0.48826
1512 4 0.274405 0.71094 0.482019
916 4 0.391385 0.703137 0.375618
526 4 0.385908 0.69321 0.402182
914 2 0.419674 0.724084 0.383451
1387 4 0.0551696 0.756846 0.397427
1386 4 0.00235051 0.801615 0.417617
1385 2 0.0287601 0.77923 0.407522
34 3 0.169865 0.798137 0.451677
35 3 0.164562 0.787483 0.398693
31 1 0.185965 0.790053 0.423475
32 3 0.20797 0.813878 0.416482
33 3 0.202275 0.761113 0.427524
846 4 0.195814 0.838666 0.421459
609 4 0.166556 0.807426 0.4784
449 2 0.280929 0.767161 0.474718
450 4 0.295944 0.797021 0.461176
24 3 0.461587 0.751547 0.417754
915 4 0.447964 0.745031 0.391284
22 3 0.475084 0.801185 0.400656
21 1 0.486693 0.773464 0.414707
23 3 0.499024 0.780981 0.444896
579 4 0.0718689 0.967502 0.373029
875 2 0.0818128 0.96409 0.432046
117 3 0.113492 0.955815 0.487396
876 4 0.101377 0.960841 0.462165
877 4 0.0622483 0.967338 0.401928
183 3 0.0267912 0.884731 0.494517
845 2 0.19359 0.86958 0.439891
847 4 0.191366 0.900495 0.458324
696 4 0.207143 0.922822 0.468387
778 4 0.340546 0.883002 0.480236
776 2 0.364556 0.905618 0.465658
777 4 0.388565 0.928234 0.451081
446 2 0.430889 0.940646 0.43466
447 4 0.396709 0.952048 0.436136
448 4 0.465068 0.929244 0.433183
544 4 0.352454 0.532091 0.601036
542 2 0.368743 0.500808 0.593522
1156 4 0.346137 0.555003 0.61942
265 4 0.489976 0.550027 0.559217
263 2 0.496028 0.516759 0.571748
1553 2 0.0803048 0.685728 0.599975
1554 4 0.0855147 0.685181 0.564296
775 4 0.0794842 0.661212 0.547643
773 2 0.100565 0.661183 0.518385
595 4 0.384851 0.632445 0.611752
593 2 0.399393 0.652899 0.585856
594 4 0.413934 0.673353 0.559959
603 4 0.443189 0.682817 0.559353
602 2 0.459227 0.714098 0.567396
861 4 0.494273 0.73945 0.594269
604 4 0.475266 0.745379 0.57544
610 4 0.138794 0.793076 0.543401
608 2 0.152675 0.800251 0.5109
804 4 0.469579 0.86629 0.596675
923 2 0.0873187 0.919078 0.576128
924 4 0.0953844 0.912507 0.610656
925 4 0.079253 0.925649 0.5416
118 3 0.0793984 0.952049 0.529371
116 1 0.103111 0.970853 0.515086
420 4 0.0857779 0.938024 0.619053
120 3 0.0909108 0.000375172 0.507441
184 3 0.00558044 0.904615 0.540985
879 4 0.159114 0.975849 0.531566
697 4 0.165901 0.931551 0.526907
119 3 0.129073 0.974274 0.535923
695 2 0.186522 0.927187 0.497647
821 2 0.358776 0.984638 0.622257
822 4 0.368769 0.950311 0.626972
1093 4 0.465432 0.975876 0.579725
1091 2 0.470888 0.955394 0.6089
858 4 0.0511802 0.555491 0.68485
857 2 0.0199821 0.554674 0.702918
386 2 0.102345 0.56761 0.710923
388 4 0.0710549 0.574413 0.694337
387 4 0.133635 0.560808 0.727509
757 4 0.160239 0.563577 0.740747
844 4 0.216472 0.527147 0.695486
755 2 0.19241 0.547285 0.740734
756 4 0.224582 0.530993 0.74072
1154 2 0.367558 0.58336 0.625537
1155 4 0.38898 0.611717 0.631655
802 4 0.45477 0.618947 0.746688
760 4 0.483094 0.620239 0.744859
1555 4 0.0750949 0.686275 0.635654
248 3 0.0622082 0.64075 0.672711
250 3 0.0599334 0.693219 0.658904
249 3 0.0140823 0.666956 0.671426
247 3 0.0505606 0.678503 0.709825
1398 4 0.0658887 0.672856 0.734412
246 1 0.0467593 0.669962 0.677993
1137 4 0.0149375 0.668695 0.642975
1320 4 0.272004 0.72934 0.691313
1319 2 0.283519 0.695526 0.696256
788 2 0.35531 0.655234 0.685922
790 4 0.320361 0.66383 0.688194
1321 4 0.295034 0.661711 0.701198
110 3 0.261944 0.737038 0.718311
684 4 0.27467 0.748115 0.666324
789 4 0.390258 0.646637 0.68365
801 4 0.406517 0.654498 0.70657
800 2 0.430643 0.636722 0.726629
648 4 0.417013 0.719434 0.647057
99 3 0.442248 0.695708 0.701956
97 3 0.44426 0.72213 0.654667
96 1 0.459938 0.717308 0.683505
100 3 0.489878 0.705142 0.67764
647 2 0.385117 0.735527 0.642148
108 3 0.217628 0.767707 0.711647
867 4 0.213349 0.772941 0.738396
649 4 0.353222 0.751621 0.637238
106 1 0.250871 0.766223 0.708091
685 4 0.331128 0.764825 0.62467
107 3 0.264696 0.790181 0.72641
683 2 0.302899 0.75647 0.645497
109 3 0.259154 0.770985 0.676018
786 4 0.264012 0.813071 0.708132
785 2 0.276934 0.846209 0.702192
787 4 0.289856 0.879348 0.696251
803 2 0.44615 0.86133 0.623636
98 3 0.462446 0.746604 0.699486
805 4 0.422721 0.856371 0.650598
1408 4 0.501314 0.815468 0.724881
419 2 0.0786724 0.948275 0.652889
421 4 0.0715668 0.958526 0.686725
690 4 0.0523076 0.941592 0.700393
689 2 0.032504 0.943125 0.730491
621 4 0.312646 0.887672 0.681307
620 2 0.334467 0.908957 0.662039
622 4 0.356289 0.930241 0.642771
1452 4 0.403143 0.887674 0.735351
1451 2 0.413632 0.883755 0.701072
1453 4 0.424121 0.879836 0.666793
1092 4 0.476344 0.934912 0.638075
1213 4 0.491549 0.949759 0.661313
598 4 0.0587835 0.550666 0.814379
1515 4 0.0712276 0.524567 0.813849
596 2 0.0233046 0.552895 0.820438
306 4 0.029614 0.587413 0.870355
906 4 0.244779 0.540523 0.761899
905 2 0.264189 0.526623 0.788927
907 4 0.283599 0.512723 0.815954
207 3 0.297558 0.533673 0.828478
209 3 0.292262 0.572957 0.865453
206 1 0.29257 0.539833 0.860694
208 3 0.317413 0.525988 0.878329
210 3 0.263785 0.526928 0.869845
1271 2 0.333846 0.611999 0.862309
1272 4 0.369013 0.60614 0.856885
1273 4 0.29868 0.617859 0.867734
1359 4 0.382846 0.581265 0.86225
993 4 0.428887 0.517216 0.802846
1358 2 0.395256 0.555861 0.839866
1360 4 0.407667 0.530457 0.817481
1397 2 0.0778238 0.649552 0.759209
1399 4 0.0897589 0.626247 0.784006
852 4 0.321172 0.73756 0.825059
851 2 0.32926 0.730512 0.859488
640 4 0.274481 0.627615 0.858312
1592 2 0.00525968 0.835657 0.820636
1305 4 0.101464 0.860596 0.867709
1593 4 0.0114908 0.863299 0.842942
1594 4 0.999029 0.808016 0.79833
866 2 0.1955 0.765831 0.768913
613 4 0.127422 0.862504 0.855389
1502 2 0.176119 0.772777 0.857525
1504 4 0.187856 0.77356 0.823436
868 4 0.17765 0.758721 0.79943
611 2 0.162822 0.856009 0.853127
612 4 0.198222 0.849515 0.850864
772 4 0.304162 0.745719 0.800896
892 4 0.36174 0.812773 0.779754
770 2 0.31919 0.776498 0.789613
771 4 0.334217 0.807277 0.778331
891 4 0.379997 0.873496 0.745386
890 2 0.370869 0.843135 0.76257
728 2 0.492225 0.863302 0.851638
730 4 0.48513 0.832376 0.868774
691 4 0.0127003 0.944657 0.760589
1581 4 0.0140135 0.892049 0.845136
1580 2 0.999903 0.924893 0.840378
83 3 0.390119 0.988756 0.824524
256 4 0.487988 0.882811 0.811439
254 2 0.481133 0.907396 0.785962
255 4 0.474278 0.93198 0.760486
1381 4 0.459094 0.997844 0.821807
1379 2 0.492517 0.989477 0.811159
82 3 0.400961 0.9994 0.876559
305 2 0.0555801 0.607715 0.884985
1200 4 0.0218579 0.578966 0.896865
639 4 0.216123 0.599124 0.889687
638 2 0.245302 0.613369 0.874
546 4 0.276358 0.507873 0.888972
1126 4 0.305265 0.506616 0.89576
1279 4 0.39687 0.523697 0.912206
79 3 0.446333 0.527354 0.992544
1278 4 0.423957 0.516946 0.978708
1277 2 0.410414 0.520321 0.945457
307 4 0.0815462 0.628016 0.899616
913 4 0.0784923 0.652153 0.914774
911 2 0.0899897 0.679088 0.935816
664 4 0.119927 0.713601 0.934858
912 4 0.101487 0.706023 0.956858
662 2 0.134545 0.745038 0.924933
853 4 0.337348 0.723465 0.893917
709 4 0.49567 0.676221 0.988031
754 4 0.370334 0.722642 0.958864
752 2 0.386001 0.70901 0.988346
1304 2 0.0928548 0.831093 0.886573
615 4 0.0323223 0.779718 0.987459
614 2 0.0544038 0.786254 0.959707
616 4 0.0764852 0.792789 0.931956
1306 4 0.0842457 0.801589 0.905438
1476 4 0.994577 0.832537 0.988614
1503 4 0.164382 0.771994 0.891614
663 4 0.149162 0.776475 0.915009
943 4 0.32729 0.751343 0.899434
941 2 0.336228 0.768584 0.92982
694 4 0.349062 0.81077 0.948612
942 4 0.345165 0.785825 0.960206
692 2 0.356923 0.823761 0.981321
1474 4 0.0331528 0.987372 0.911539
794 2 0.229004 0.00040756 0.891499
833 2 0.247466 0.935742 0.932616
834 4 0.218239 0.948483 0.915766
796 4 0.22773 0.975911 0.917932
715 4 0.289169 0.902102 0.967155
835 4 0.276692 0.923002 0.949466
808 4 0.487817 0.920633 0.919366
856 4 0.428389 0.979448 0.953227
806 2 0.468332 0.940908 0.941943
807 4 0.448846 0.961182 0.964519
115 3 0.520138 0.10658 0.0353417
111 1 0.505405 0.120555 0.00952509
849 4 0.505485 0.102381 0.0604363
937 4 0.606277 0.100531 0.00245122
132 3 0.742027 0.01902 0.00729885
1023 4 0.747247 0.0447392 0.0780548
1022 2 0.774793 0.0477721 0.10113
135 3 0.756561 0.0251762 0.05876
131 1 0.767056 0.0163529 0.0289127
134 3 0.791962 0.0364643 0.0191592
1346 2 0.847005 0.02755 0.034876
1348 4 0.812832 0.0190783 0.0270715
831 4 0.749176 0.0451392 0.995562
1024 4 0.802339 0.0508051 0.124205
1347 4 0.881177 0.0360217 0.0426806
1253 2 0.921891 0.0440024 0.0916359
1255 4 0.940709 0.0548612 0.120418
1254 4 0.903073 0.0331436 0.0628536
1244 2 0.512281 0.18842 0.104489
1073 2 0.54795 0.237671 0.00756734
168 3 0.610189 0.154839 0.0972669
1246 4 0.545914 0.199828 0.110746
167 3 0.561682 0.174925 0.110764
1075 4 0.571541 0.252524 0.030444
1121 2 0.608375 0.234113 0.0801468
1123 4 0.583759 0.23956 0.0543626
166 1 0.592248 0.168538 0.121974
114 3 0.498261 0.152522 0.0163795
1122 4 0.632991 0.228667 0.105931
961 4 0.656075 0.212826 0.103086
959 2 0.687769 0.19728 0.0957207
960 4 0.719463 0.181735 0.088355
590 2 0.722669 0.182819 0.022585
592 4 0.718481 0.183735 0.0583908
1096 4 0.776559 0.297509 0.0225648
1094 2 0.781352 0.323737 0.0468455
1095 4 0.786144 0.349965 0.0711261
177 3 0.811024 0.357596 0.0853907
1327 4 0.533214 0.467605 0.017087
1104 4 0.528469 0.438137 0.0164434
1325 2 0.539249 0.499436 0.0329227
1060 4 0.718228 0.482397 0.106998
719 2 0.657537 0.423537 0.115399
1049 2 0.730483 0.375395 0.084514
1050 4 0.696386 0.381704 0.0944118
720 4 0.683079 0.407716 0.0954556
1058 2 0.709199 0.494706 0.0743269
1113 4 0.720293 0.455116 0.115984
1051 4 0.764581 0.369086 0.0746162
180 3 0.775963 0.396254 0.0722109
176 1 0.80686 0.390295 0.0816304
178 3 0.813008 0.405414 0.110846
179 3 0.828222 0.401314 0.0583461
1053 4 0.836522 0.410763 0.0316449
1052 2 0.833283 0.44075 0.0118785
946 4 0.809775 0.433302 0.119809
680 2 0.562157 0.997944 0.134461
681 4 0.583962 0.00972332 0.160658
644 2 0.834637 0.0637426 0.17264
333 4 0.854089 0.0981514 0.219753
645 4 0.857047 0.0818149 0.194358
646 4 0.812228 0.0456703 0.150923
332 2 0.878264 0.0942975 0.246232
170 3 0.590348 0.147725 0.147313
169 3 0.606383 0.197235 0.131802
1071 4 0.619701 0.189814 0.15545
164 3 0.604913 0.173852 0.241368
1070 2 0.629567 0.221425 0.169729
972 4 0.736505 0.234226 0.185557
318 4 0.654327 0.247753 0.208673
317 2 0.683968 0.247329 0.229208
948 4 0.73756 0.252706 0.235031
971 2 0.756304 0.204991 0.178226
973 4 0.776103 0.175755 0.170895
1267 4 0.865907 0.190797 0.234634
1265 2 0.834307 0.201112 0.248616
519 4 0.894293 0.197007 0.231831
518 2 0.905391 0.173992 0.206384
520 4 0.916489 0.150977 0.180936
1064 2 0.523696 0.346771 0.195448