ITEM: TIMESTEP
2300000
ITEM: NUMBER OF ATOMS
4800
ITEM: BOX BOUNDS pp pp pp
-9.9985700000000008e+00 9.9985700000000008e+00
-9.9985700000000008e+00 9.9985700000000008e+00
-9.9985700000000008e+00 9.9985700000000008e+00
ITEM: ATOMS id type xs ys zs
1670 4 0.0528986 0.0495172 0.0568896
3536 4 0.0380615 0.0627876 0.0592855
1669 2 0.0692256 0.0422358 0.0394085
1438 2 0.145342 0.0801451 0.0507494
1671 4 0.0855527 0.0349544 0.0219274
298 3 0.118627 0.0782084 0.0150292
3591 4 0.0958062 0.0366776 0.00549915
1439 4 0.12699 0.0819434 0.0338624
1716 4 0.17115 0.0637591 0.0815187
1440 4 0.163693 0.0783467 0.0676364
1714 2 0.177343 0.0396503 0.0838834
1715 4 0.183536 0.0155415 0.086248
948 4 0.309932 0.0471728 0.0559165
1184 4 0.31195 0.0660476 0.0639817
946 2 0.331731 0.0372874 0.0486879
947 4 0.35353 0.0274019 0.0414593
2403 4 0.367493 0.0155007 0.0332354
2401 2 0.378871 0.0283565 0.0150569
2840 4 0.410573 0.0451804 0.0643879
1424 4 0.483433 0.0485393 0.0117074
988 2 0.502974 0.0681068 0.0275345
3535 2 0.045153 0.0867622 0.059609
1032 4 0.0578719 0.129379 0.0573862
1030 2 0.0507572 0.149496 0.0704195
3537 4 0.0522446 0.110737 0.0599325
3318 4 0.0214398 0.11676 0.998479
407 3 0.0240837 0.096994 0.000384077
1185 4 0.309439 0.115561 0.057435
852 4 0.316268 0.124292 0.0404031
1183 2 0.310694 0.0908042 0.0607083
850 2 0.307652 0.147764 0.0405945
851 4 0.299036 0.171235 0.040786
2472 4 0.413035 0.134815 0.0140915
2225 4 0.426639 0.127718 0.0269266
2224 2 0.42928 0.112843 0.0468503
2226 4 0.431922 0.097969 0.066774
1208 4 0.437692 0.109303 0.0828903
989 4 0.502777 0.0850677 0.0459048
1031 4 0.0436425 0.169613 0.0834529
3641 4 0.0274038 0.216896 0.0559189
3640 2 0.0218909 0.239407 0.0465351
66 1 0.322935 0.236402 0.0794017
68 3 0.312108 0.218422 0.0695067
3311 4 0.0070377 0.274239 0.0241079
3642 4 0.0163781 0.261917 0.0371513
804 4 0.0921946 0.298676 0.0846124
802 2 0.0840358 0.321812 0.0797805
823 2 0.150842 0.267743 0.016361
1010 4 0.173562 0.262192 0.0536472
824 4 0.162807 0.263435 0.0378895
1009 2 0.183291 0.27174 0.0746085
1220 4 0.233816 0.308192 0.035294
1725 4 0.220345 0.320619 0.0272711
1219 2 0.232686 0.292052 0.0543571
1723 2 0.226912 0.326824 0.00395709
1221 4 0.231556 0.275912 0.0734201
800 4 0.247058 0.267889 0.0827677
70 3 0.327443 0.252326 0.0637565
1206 4 0.387232 0.32592 0.0668288
1740 4 0.394331 0.306823 0.0689555
2165 4 0.0767172 0.393583 0.0270307
2164 2 0.0798841 0.377248 0.0456932
2166 4 0.083051 0.360912 0.0643557
803 4 0.075877 0.344948 0.0749487
963 4 0.173213 0.359467 0.0326418
961 2 0.166436 0.359649 0.0567087
962 4 0.159659 0.359832 0.0807757
1005 4 0.163001 0.395421 0.0127774
1003 2 0.163233 0.373997 0.999888
1373 4 0.172 0.398938 0.0307324
1407 4 0.308071 0.382192 0.0324175
1405 2 0.289241 0.397711 0.0378703
1406 4 0.27041 0.41323 0.0433231
1204 2 0.389471 0.348598 0.0565395
976 2 0.369769 0.403168 0.0514803
1205 4 0.39171 0.371276 0.0462502
978 4 0.374216 0.378842 0.0551757
1710 4 0.390954 0.36421 0.0103961
1708 2 0.404591 0.349075 0.995899
1974 4 0.394468 0.40485 0.00234066
2059 2 0.488176 0.413911 0.0173962
1742 4 0.108354 0.455273 0.0424414
1741 2 0.121088 0.460005 0.0214504
1372 2 0.178275 0.421957 0.0382123
1374 4 0.18455 0.444975 0.0456922
1914 4 0.203614 0.450606 0.03925
1912 2 0.208549 0.462444 0.0607132
1913 4 0.213485 0.474283 0.0821765
2006 4 0.278724 0.498657 0.00547982
2489 4 0.27099 0.442004 0.0156903
12 3 0.257751 0.466738 0.0535414
11 1 0.271531 0.449042 0.0484309
4107 4 0.257328 0.485535 0.061922
13 3 0.258755 0.429716 0.047133
14 3 0.281766 0.453157 0.0280174
879 4 0.321291 0.462982 0.0245194
15 3 0.287291 0.446858 0.0647251
789 4 0.319681 0.460848 0.00403069
2264 4 0.293118 0.455506 0.0817098
877 2 0.34336 0.452226 0.0292589
977 4 0.365322 0.427494 0.0477849
878 4 0.365428 0.44147 0.0339985
4506 4 0.408451 0.416677 0.0107383
2061 4 0.465831 0.423341 0.0113185
4504 2 0.431892 0.421179 0.00329337
1127 4 0.11415 0.0795936 0.161478
1938 4 0.265366 0.0376525 0.158651
819 4 0.310033 0.0532241 0.140828
817 2 0.303534 0.0330893 0.154153
2839 2 0.425782 0.0326609 0.0797866
2841 4 0.440991 0.0201414 0.0951853
3300 4 0.483869 0.00483984 0.137299
3299 4 0.460134 0.0231105 0.0972548
3298 2 0.472002 0.0139752 0.117277
1863 4 0.482002 0.00177512 0.157466
43 3 0.0891402 0.101673 0.137257
41 1 0.0915641 0.103894 0.160227
1073 4 0.253353 0.126945 0.16456
964 2 0.328692 0.131951 0.144525
965 4 0.337057 0.133364 0.121005
1457 4 0.357861 0.128499 0.118311
1456 2 0.373955 0.147548 0.116495
1096 2 0.413463 0.111436 0.153421
1458 4 0.390049 0.166597 0.114679
1098 4 0.408805 0.129698 0.169852
1207 2 0.436675 0.098129 0.105235
1209 4 0.435658 0.086955 0.12758
1097 4 0.418121 0.0931745 0.136989
1490 4 0.0329926 0.186243 0.0792542
1489 2 0.0132511 0.199581 0.0868398
69 3 0.309683 0.245351 0.0962154
801 4 0.293106 0.256714 0.0987509
67 3 0.34268 0.229036 0.0886226
777 4 0.378972 0.182226 0.110161
775 2 0.369913 0.204869 0.104643
776 4 0.360854 0.227511 0.0991257
808 2 0.0293472 0.313125 0.126732
809 4 0.00562277 0.311856 0.11894
1734 4 0.997115 0.292832 0.114314
1197 4 0.0491419 0.328357 0.148902
867 4 0.151854 0.306426 0.115413
865 2 0.151833 0.329625 0.106086
1011 4 0.19302 0.281287 0.0955698
845 4 0.198992 0.290424 0.112609
844 2 0.191905 0.282252 0.135152
846 4 0.184819 0.27408 0.157694
906 4 0.250258 0.279019 0.159825
799 2 0.270082 0.262301 0.0907593
1738 2 0.400391 0.309289 0.0930881
1739 4 0.40645 0.311754 0.117221
1509 4 0.418122 0.301585 0.129242
1507 2 0.44308 0.302266 0.127904
1508 4 0.468039 0.302947 0.126567
3273 4 0.478688 0.301779 0.141939
3271 2 0.481133 0.289464 0.163561
810 4 0.0530717 0.314393 0.134524
866 4 0.151813 0.352824 0.0967585
765 4 0.1821 0.401618 0.123357
2826 4 0.428744 0.360745 0.151798
2824 2 0.44236 0.347331 0.167918
1058 4 0.436379 0.378872 0.153463
1057 2 0.433354 0.402689 0.160446
763 2 0.180322 0.424813 0.132523
764 4 0.178543 0.448008 0.14169
55 3 0.229205 0.491698 0.126513
51 1 0.232071 0.469931 0.132565
54 3 0.212563 0.457991 0.128653
831 4 0.175873 0.458812 0.158679
52 3 0.237051 0.468896 0.154999
53 3 0.249603 0.460617 0.120552
2265 4 0.26814 0.466857 0.123519
2263 2 0.280629 0.461182 0.102614
1951 2 0.374387 0.488381 0.156643
4066 2 0.477191 0.496153 0.144449
4067 4 0.491071 0.475468 0.142289
3034 2 0.031595 0.0256527 0.189503
3035 4 0.0360661 0.0499287 0.18552
1842 4 0.0296408 0.0678723 0.192978
3036 4 0.027124 0.00137675 0.193487
1126 2 0.136538 0.0761582 0.172068
1128 4 0.158926 0.0727229 0.182658
1937 4 0.233162 0.0642045 0.186193
894 4 0.217981 0.0515128 0.186352
892 2 0.193675 0.0544175 0.181257
893 4 0.169369 0.0573222 0.176162
1936 2 0.249264 0.0509285 0.172422
818 4 0.297036 0.0129546 0.167477
2199 4 0.309299 0.0101082 0.182275
2213 4 0.409062 0.0496981 0.232074
2215 2 0.409801 0.00531466 0.228101
2216 4 0.406237 0.0293589 0.233962
1861 2 0.477496 0.0223708 0.170908
1862 4 0.47299 0.0429665 0.18435
42 3 0.0774335 0.0890451 0.170666
1840 2 0.048722 0.0835272 0.188976
983 4 0.0708333 0.119084 0.17974
982 2 0.0658046 0.140733 0.191195
1841 4 0.0678031 0.099182 0.184975
984 4 0.0607759 0.162382 0.20265
45 3 0.113043 0.0993116 0.166253
44 3 0.0859405 0.125444 0.166738
929 4 0.181355 0.0980505 0.246401
1062 4 0.180346 0.100608 0.227418
1060 2 0.19665 0.11817 0.220282
1061 4 0.212955 0.135732 0.213145
1883 4 0.214342 0.155175 0.206789
1072 2 0.27791 0.125935 0.169151
1074 4 0.302468 0.124926 0.173743
966 4 0.320328 0.130538 0.168046
848 4 0.401231 0.145549 0.179276
847 2 0.376903 0.14239 0.184108
849 4 0.352575 0.139231 0.18894
933 4 0.444247 0.162295 0.22731
931 2 0.464123 0.164917 0.242252
911 4 0.0457313 0.174508 0.195937
910 2 0.0233455 0.177154 0.206756
379 3 0.00409617 0.183753 0.237717
912 4 0.000959771 0.179799 0.217576
884 4 0.141541 0.223597 0.252801
882 4 0.122757 0.22843 0.254606
880 2 0.113127 0.234246 0.232276
881 4 0.103497 0.240062 0.209946
19 3 0.230077 0.221153 0.198256
16 1 0.231985 0.238572 0.213466
17 3 0.246861 0.232481 0.229921
20 3 0.211717 0.242901 0.222906
1882 2 0.222294 0.177723 0.199472
1884 4 0.230245 0.200271 0.192155
1250 4 0.192689 0.251775 0.219277
1164 4 0.0377849 0.306688 0.238029
435 3 0.0283255 0.288172 0.236804
1195 2 0.0639945 0.326405 0.168921
1196 4 0.0788471 0.324453 0.18894
431 1 0.0088703 0.285172 0.225352
433 3 0.0134054 0.277666 0.203869
1162 2 0.042835 0.330964 0.234811
1046 4 0.0951523 0.325518 0.200984
1251 4 0.176559 0.267733 0.174714
18 3 0.239967 0.257568 0.202795
1249 2 0.184624 0.259754 0.196996
904 2 0.235977 0.288122 0.17822
905 4 0.221696 0.297226 0.196614
900 4 0.224939 0.302422 0.216787
898 2 0.225629 0.326635 0.222986
1151 4 0.359046 0.294291 0.215079
927 4 0.363763 0.295551 0.233798
1150 2 0.349312 0.311553 0.199832
925 2 0.362675 0.277574 0.251142
2825 4 0.455976 0.333916 0.184037
755 4 0.475104 0.277703 0.242943
754 2 0.486375 0.27962 0.220706
756 4 0.497647 0.281537 0.19847
3272 4 0.483579 0.277148 0.185184
1163 4 0.0478852 0.35524 0.231592
1043 4 0.0622595 0.364204 0.241276
1045 2 0.102038 0.349023 0.206008
1047 4 0.108924 0.372529 0.211032
861 4 0.103313 0.383592 0.227962
859 2 0.118076 0.402841 0.221905
899 4 0.226318 0.350848 0.229185
1847 4 0.191377 0.387388 0.232419
1846 2 0.195331 0.407221 0.217715
1069 2 0.316265 0.400339 0.242036
1071 4 0.305683 0.390342 0.221707
1082 4 0.322585 0.387147 0.211141
1152 4 0.339578 0.328815 0.184586
1081 2 0.333484 0.367255 0.200619
1083 4 0.344382 0.347363 0.190097
346 1 0.410231 0.405528 0.235013
347 3 0.390582 0.396477 0.242831
2129 4 0.387677 0.376114 0.244131
349 3 0.410783 0.403436 0.21191
3512 4 0.476015 0.33046 0.188973
348 3 0.428054 0.39404 0.244435
3511 2 0.490366 0.349761 0.195807
970 2 0.132946 0.498177 0.170988
972 4 0.151078 0.482321 0.177699
860 4 0.132839 0.42209 0.215848
2270 4 0.144217 0.438294 0.220492
2269 2 0.162458 0.452054 0.230646
2271 4 0.180699 0.465814 0.2408
830 4 0.196949 0.447029 0.20247
829 2 0.186411 0.45292 0.180574
1848 4 0.199285 0.427054 0.203012
1857 4 0.199945 0.472566 0.244965
1952 4 0.374602 0.47881 0.179741
1968 4 0.404135 0.48295 0.230393
1966 2 0.395423 0.473998 0.208734
1967 4 0.386711 0.465045 0.187074
1176 4 0.392843 0.472986 0.243445
350 3 0.411205 0.427519 0.240849
1059 4 0.430329 0.426506 0.167429
1154 4 0.131976 0.0411461 0.308556
1153 2 0.120061 0.0366305 0.330068
2144 4 0.176214 0.0403608 0.296887
2008 2 0.239511 0.996423 0.269688
2143 2 0.191753 0.0209174 0.294506
2009 4 0.260424 0.00413175 0.258356
1078 2 0.294919 0.0480709 0.297632
1079 4 0.275699 0.0416603 0.312283
1080 4 0.31414 0.0544814 0.282981
1827 4 0.269127 0.0266994 0.323406
2977 2 0.412276 0.00305476 0.29915
2212 2 0.393028 0.0529375 0.250983
2214 4 0.376993 0.0561768 0.269893
771 4 0.330009 0.0667818 0.279616
2979 4 0.403582 0.00870423 0.321903
22 3 0.391347 0.999688 0.334107
1395 4 0.0984536 0.136019 0.269712
1160 4 0.1553 0.0958648 0.300044
1393 2 0.0813062 0.149216 0.282241
930 4 0.147811 0.0883337 0.282193
1076 4 0.0897714 0.128122 0.316024
1015 2 0.117123 0.102943 0.29811
1016 4 0.107616 0.118015 0.315649
1017 4 0.12663 0.0878704 0.280571
928 2 0.164583 0.0931921 0.264297
1159 2 0.168438 0.0902105 0.320552
841 2 0.211758 0.163834 0.331583
843 4 0.221793 0.172232 0.310277
769 2 0.341898 0.0883104 0.275108
770 4 0.353788 0.109839 0.270599
3669 4 0.359358 0.126894 0.26141
3667 2 0.371927 0.140783 0.277972
3668 4 0.384496 0.154672 0.294534
932 4 0.483999 0.167538 0.257193
1394 4 0.0641588 0.162414 0.29477
83 3 0.0695439 0.171263 0.311503
1230 4 0.036356 0.246459 0.325553
1228 2 0.0589215 0.236546 0.321343
1229 4 0.0814869 0.226634 0.317133
84 3 0.0836166 0.206416 0.314764
883 2 0.163512 0.235523 0.252363
85 3 0.105824 0.176485 0.320114
81 1 0.0847435 0.184676 0.322794
885 4 0.185483 0.24745 0.251925
956 4 0.217677 0.176795 0.290979
957 4 0.192304 0.191476 0.250465
955 2 0.204991 0.184136 0.270722
815 4 0.329344 0.19442 0.298361
814 2 0.333353 0.216739 0.308896
3254 4 0.374463 0.172773 0.28959
3253 2 0.393291 0.183549 0.302023
816 4 0.337362 0.239057 0.319431
3255 4 0.412119 0.194324 0.314456
834 4 0.48535 0.173507 0.275275
832 2 0.485726 0.197377 0.282711
833 4 0.486103 0.221246 0.290146
1095 4 0.476063 0.235987 0.281557
28 3 0.329805 0.279029 0.320271
26 1 0.328635 0.301302 0.326672
27 3 0.327264 0.314398 0.30781
926 4 0.361587 0.259597 0.268486
1094 4 0.457942 0.269192 0.248849
1093 2 0.467002 0.25259 0.265203
997 2 0.499394 0.338064 0.275803
1042 2 0.050488 0.381634 0.254797
1044 4 0.0387166 0.399065 0.268317
2835 4 0.033123 0.417243 0.274598
2183 4 0.235444 0.41639 0.256824
2182 2 0.248943 0.412586 0.277525
1070 4 0.326847 0.410335 0.262366
2184 4 0.262441 0.408782 0.298225
1038 4 0.310246 0.379039 0.302072
1036 2 0.309711 0.403993 0.30355
2128 2 0.368981 0.372041 0.260226
2130 4 0.350285 0.367969 0.276321
999 4 0.484922 0.349264 0.258764
1138 2 0.00507637 0.487679 0.322507
2833 2 0.0159361 0.423604 0.291608
2834 4 0.998749 0.429966 0.308617
4187 4 0.997756 0.490693 0.289103
1140 4 0.0145112 0.49375 0.300162
1856 4 0.232433 0.434982 0.25068
1855 2 0.216189 0.453774 0.247823
795 4 0.322378 0.443212 0.304498
1037 4 0.309175 0.428947 0.305029
793 2 0.339878 0.460757 0.301162
1174 2 0.38341 0.478499 0.265935
1175 4 0.373977 0.484012 0.288425
794 4 0.357377 0.478302 0.297826
902 4 0.356353 0.451651 0.345825
2044 2 0.457519 0.487846 0.316023
2046 4 0.475562 0.474873 0.304561
1881 4 0.493136 0.465146 0.299974
2988 4 0.0509159 0.0195712 0.388348
59 3 0.0309489 0.0806728 0.406762
3074 4 0.0447714 0.00715693 0.40246
2986 2 0.0713201 0.0266184 0.375731
2987 4 0.0917244 0.0336656 0.363115
1155 4 0.108145 0.0321149 0.351581
1142 4 0.201003 0.0783166 0.340842
1826 4 0.273285 0.0423198 0.370729
1825 2 0.271206 0.0345096 0.347068
90 3 0.290792 0.0496466 0.378398
921 4 0.325942 0.0380219 0.381525
86 1 0.302126 0.0536062 0.39775
88 3 0.324802 0.0557868 0.393341
87 3 0.294466 0.0731524 0.407154
89 3 0.298599 0.0362079 0.412692
21 1 0.398265 0.00282384 0.35582
919 2 0.349932 0.0328891 0.376696
920 4 0.373922 0.0277564 0.371866
23 3 0.391796 0.0239955 0.362771
3252 4 0.0132333 0.116892 0.379747
3107 4 0.0765498 0.108808 0.368794
1077 4 0.0637142 0.107417 0.353347
1075 2 0.0767428 0.11777 0.334686
3106 2 0.0872747 0.113559 0.390875
1472 4 0.0405919 0.166294 0.403281
2859 4 0.02438 0.159661 0.412591
175 3 0.15523 0.154484 0.403055
1244 4 0.126248 0.158122 0.386898
1129 2 0.164143 0.159054 0.36882
1131 4 0.146126 0.160941 0.386053
172 3 0.11887 0.162548 0.40546
3108 4 0.0979997 0.11831 0.412957
1141 2 0.213293 0.0919924 0.357787
1130 4 0.182161 0.157168 0.351587
1143 4 0.225583 0.105668 0.374731
1161 4 0.181576 0.0845563 0.341061
842 4 0.201723 0.155436 0.352889
3183 4 0.391316 0.121512 0.348514
3181 2 0.3879 0.130264 0.371686
3182 4 0.384485 0.139016 0.394857
951 4 0.38343 0.15895 0.391339
974 4 0.0353692 0.237673 0.343626
1473 4 0.0449049 0.216108 0.404075
1471 2 0.0427484 0.191201 0.403678
1109 4 0.0589957 0.225653 0.394163
82 3 0.079424 0.184729 0.345173
973 2 0.0144434 0.241471 0.356774
1108 2 0.0789299 0.232158 0.380543
1245 4 0.0939468 0.182852 0.357815
1243 2 0.110097 0.170487 0.372356
1110 4 0.0988641 0.238663 0.366924
1167 4 0.333295 0.242116 0.338289
1165 2 0.353607 0.243584 0.352794
1166 4 0.37392 0.245052 0.3673
1226 4 0.387795 0.23762 0.380639
1225 2 0.397758 0.234682 0.403383
874 2 0.0560662 0.310514 0.37329
875 4 0.043055 0.320148 0.392344
876 4 0.0690774 0.30088 0.354235
870 4 0.1352 0.297438 0.349867
868 2 0.151165 0.295516 0.369014
869 4 0.167131 0.293594 0.38816
1029 4 0.182085 0.292255 0.373935
1027 2 0.20597 0.294231 0.381063
1028 4 0.229854 0.296208 0.388191
1169 4 0.229076 0.316077 0.387794
30 3 0.310162 0.304729 0.339542
891 4 0.248884 0.269159 0.392264
981 4 0.258645 0.278378 0.37683
979 2 0.27642 0.290859 0.364442
980 4 0.294195 0.303339 0.352054
889 2 0.252614 0.279963 0.414502
29 3 0.347721 0.307158 0.338498
2924 4 0.00786471 0.366107 0.391406
1188 4 0.0165536 0.380634 0.401903
1186 2 0.034103 0.398422 0.402801
1168 2 0.235147 0.3396 0.393709
1170 4 0.241219 0.363123 0.399623
1238 4 0.244298 0.382603 0.395189
1237 2 0.225581 0.394394 0.406844
1239 4 0.206864 0.406185 0.418498
1983 4 0.276554 0.398389 0.410304
162 3 0.287535 0.414338 0.411917
2219 4 0.405878 0.341379 0.343371
1194 4 0.387301 0.345037 0.338982
1192 2 0.373259 0.365452 0.342336
1193 4 0.359218 0.385866 0.345691
903 4 0.354322 0.402651 0.336051
2218 2 0.418421 0.340711 0.364991
2220 4 0.430963 0.340043 0.386611
1021 2 0.455597 0.357303 0.411251
1022 4 0.433091 0.351898 0.401793
1023 4 0.478103 0.362708 0.420709
1139 4 0.995642 0.481608 0.344852
1187 4 0.0516523 0.416209 0.403699
1923 4 0.00579933 0.453548 0.372918
3027 4 0.0555642 0.430073 0.417789
1090 2 0.160095 0.475198 0.4075
1092 4 0.155245 0.471268 0.383288
1107 4 0.235578 0.434968 0.328449
1854 4 0.171771 0.429932 0.355942
1013 4 0.171985 0.478723 0.374931
1853 4 0.219333 0.430341 0.340503
1852 2 0.195552 0.430137 0.348223
1106 4 0.279981 0.442689 0.350117
1105 2 0.25778 0.438829 0.339283
782 4 0.298942 0.460576 0.393323
781 2 0.314833 0.469564 0.376239
163 3 0.29265 0.451531 0.410133
1949 4 0.340372 0.484794 0.343178
783 4 0.330723 0.478553 0.359154
901 2 0.355337 0.427151 0.340938
60 3 0.0407991 0.0821282 0.443074
3073 2 0.0318075 0.020404 0.419242
3075 4 0.0188437 0.0336512 0.436024
58 3 0.0225262 0.051876 0.430091
56 1 0.0249415 0.0748926 0.428417
2210 4 0.034039 0.0785624 0.461373
2209 2 0.0508197 0.0808934 0.479762
839 4 0.148087 0.0753948 0.441997
213 3 0.248518 0.0083257 0.491337
1052 4 0.286424 0.0689488 0.470096
1051 2 0.269874 0.0717144 0.488633
4281 4 0.464951 0.056267 0.472336
4466 4 0.480672 0.0455896 0.479027
4465 2 0.483302 0.0259611 0.49429
4467 4 0.485931 0.00633262 0.509554
4279 2 0.477209 0.0744849 0.460377
2858 4 0.0124766 0.131249 0.451983
57 3 0.00483836 0.0848665 0.43347
2857 2 0.0184283 0.145455 0.432287
2211 4 0.0676004 0.0832244 0.498151
1558 2 0.0713598 0.127759 0.499148
1560 4 0.0776359 0.151873 0.501218
1559 4 0.0650838 0.103644 0.497079
171 1 0.13828 0.159487 0.417419
840 4 0.14233 0.125066 0.44144
174 3 0.135188 0.142039 0.4324
838 2 0.145209 0.100231 0.441718
1571 4 0.197791 0.134946 0.474453
1570 2 0.192376 0.126884 0.497494
949 2 0.39134 0.165836 0.414037
909 4 0.496126 0.0785535 0.433683
4280 4 0.489468 0.0927028 0.448418
173 3 0.143164 0.179035 0.428926
827 4 0.114318 0.240145 0.449186
3152 4 0.0950105 0.236307 0.449415
828 4 0.134458 0.197922 0.431515
826 2 0.124388 0.219033 0.44035
1701 4 0.249687 0.201725 0.475845
1700 4 0.202755 0.204922 0.49281
1699 2 0.226221 0.203323 0.484328
1145 4 0.315669 0.218202 0.494534
38 3 0.301514 0.204525 0.490932
39 3 0.26375 0.208267 0.488845
1144 2 0.333838 0.216609 0.477431
36 1 0.281559 0.202667 0.502626
1227 4 0.40772 0.231744 0.426127
1646 4 0.414601 0.16157 0.443116
950 4 0.399249 0.172722 0.436735
1146 4 0.352008 0.215015 0.460328
2938 2 0.493285 0.179803 0.42906
2940 4 0.472864 0.173335 0.441956
1647 4 0.463531 0.159521 0.453235
1645 2 0.439066 0.160546 0.448175
519 3 0.469765 0.214493 0.447752
520 3 0.438848 0.205795 0.467404
517 3 0.472444 0.202858 0.483391
516 1 0.459645 0.214996 0.468627
518 3 0.458186 0.236881 0.476197
1334 4 0.472881 0.234591 0.489992
3114 4 0.0602572 0.2905 0.468457
3153 4 0.0729991 0.280448 0.457647
3112 2 0.0443981 0.278929 0.483941
3113 4 0.028539 0.267358 0.499426
3151 2 0.0840048 0.258377 0.453531
63 3 0.2316 0.293242 0.481158
61 1 0.250606 0.288801 0.46861
64 3 0.244625 0.279675 0.448132
890 4 0.256343 0.290767 0.43674
62 3 0.26188 0.308517 0.464958
792 4 0.264205 0.30767 0.445224
65 3 0.264164 0.274384 0.47988
935 4 0.272614 0.261417 0.491051
790 2 0.282265 0.322506 0.436341
1981 2 0.287654 0.377894 0.419355
1982 4 0.298754 0.357399 0.428406
791 4 0.300325 0.337342 0.427459
3025 2 0.0676702 0.44186 0.43622
3026 4 0.0797761 0.453647 0.45465
1805 4 0.0795387 0.454136 0.474406
1804 2 0.0713845 0.445206 0.496291
4674 4 0.016867 0.463844 0.486368
2171 4 0.137839 0.436338 0.479586
2170 2 0.150007 0.449859 0.462431
1091 4 0.164944 0.479128 0.431712
2172 4 0.162176 0.46338 0.445277
1631 4 0.133239 0.419781 0.490654
164 3 0.275965 0.435863 0.440474
161 1 0.29235 0.433135 0.424272
165 3 0.312709 0.430601 0.434159
1121 4 0.340789 0.494239 0.421685
2799 4 0.351614 0.483025 0.434192
2797 2 0.341748 0.478169 0.456648
1343 4 0.344434 0.473306 0.495593
2798 4 0.331882 0.473312 0.479104
3898 2 0.425298 0.48712 0.465376
3900 4 0.441427 0.473161 0.452331
3605 4 0.456159 0.479449 0.462515
3604 2 0.480212 0.475828 0.456725
940 2 0.0482979 0.0501672 0.533681
941 4 0.0723131 0.0436966 0.536246
942 4 0.0242826 0.0566378 0.531116
863 4 0.156347 0.0303321 0.537252
3396 4 0.150038 0.013337 0.528346
3437 4 0.123722 0.0450318 0.576829
862 2 0.165252 0.0479521 0.552595
864 4 0.174157 0.0655722 0.567938
1608 4 0.170393 0.0792402 0.553825
211 1 0.245205 0.00283143 0.513636
212 3 0.241797 0.0221619 0.525631
1053 4 0.253325 0.0744801 0.507171
1180 2 0.236611 0.0263426 0.565452
1181 4 0.247035 0.0307151 0.54315
1231 2 0.3007 0.0308449 0.568321
1232 4 0.317202 0.014575 0.558932
149 3 0.332407 0.00178048 0.555981
1233 4 0.284198 0.0471149 0.577709
146 1 0.352618 0.0114065 0.562084
147 3 0.349145 0.0336608 0.566757
150 3 0.36757 0.00957259 0.545004
1179 4 0.367424 0.0349504 0.575715
148 3 0.360954 0.000969628 0.581057
1606 2 0.172727 0.10237 0.544619
1607 4 0.17506 0.1255 0.535413
1572 4 0.186961 0.118822 0.520534
779 4 0.0088485 0.224376 0.535467
778 2 0.0241941 0.238953 0.522155
1496 4 0.094513 0.161822 0.49238
1617 4 0.0793868 0.184451 0.581964
1495 2 0.106617 0.170648 0.5124
1497 4 0.11872 0.179474 0.532419
1581 4 0.145907 0.218446 0.526857
1601 4 0.142693 0.237719 0.531475
1579 2 0.16726 0.210214 0.516785
1360 2 0.214511 0.160618 0.577329
1361 4 0.236126 0.164669 0.565431
1580 4 0.188614 0.201983 0.506713
37 3 0.279016 0.180889 0.509582
40 3 0.28191 0.21636 0.52082
1321 2 0.328968 0.241511 0.555118
1323 4 0.314729 0.249301 0.536098
1322 4 0.343206 0.233722 0.574138
1333 2 0.481102 0.243698 0.511778
1099 2 0.491902 0.183732 0.506265
2827 2 0.481703 0.2383 0.571632
1335 4 0.489324 0.252806 0.533564
1101 4 0.473927 0.200731 0.502646
2829 4 0.493393 0.241167 0.549716
4522 2 0.0213874 0.324337 0.511772
1040 4 0.0433335 0.298545 0.53944
4524 4 0.0377135 0.309589 0.523651
1039 2 0.0501395 0.302487 0.563175
4523 4 0.00506129 0.339086 0.499893
780 4 0.0395397 0.25353 0.508843
1602 4 0.14689 0.284674 0.54816
1289 4 0.137505 0.294026 0.564258
1600 2 0.144792 0.261196 0.539817
1288 2 0.148928 0.304038 0.584118
936 4 0.30457 0.264974 0.529351
934 2 0.288592 0.263196 0.510201
9 3 0.0641064 0.401223 0.563244
6 1 0.0790321 0.409765 0.547666
10 3 0.0910725 0.392831 0.538343
1632 4 0.103574 0.393975 0.521552
1630 2 0.118407 0.406878 0.506103
1698 4 0.389991 0.390548 0.540999
3651 4 0.410777 0.391413 0.539548
3650 4 0.430169 0.345993 0.531697
3649 2 0.420473 0.368703 0.535622
3038 4 0.456988 0.379647 0.522327
1115 4 0.446546 0.394972 0.516298
3037 2 0.478858 0.376521 0.510618
7 3 0.067193 0.420607 0.531191
1806 4 0.0632303 0.436277 0.518176
1391 4 0.077008 0.477654 0.542828
1851 4 0.0700086 0.492009 0.556035
8 3 0.0933091 0.424945 0.557871
1390 2 0.101623 0.475861 0.546839
1392 4 0.126237 0.474068 0.550851
2342 4 0.143932 0.483844 0.555904
2356 2 0.319774 0.48772 0.569706
1696 2 0.388858 0.414438 0.548289
2358 4 0.335897 0.469688 0.563376
1344 4 0.333493 0.470762 0.544322
1342 2 0.338964 0.472034 0.519957
1697 4 0.387724 0.438328 0.55558
4252 2 0.417128 0.469167 0.550267
4254 4 0.404208 0.447859 0.548211
4253 4 0.430048 0.490475 0.552323
1114 2 0.446932 0.419878 0.51847
1116 4 0.447319 0.444784 0.520641
4554 4 0.0744556 0.00293769 0.602755
3438 4 0.0899456 0.0124741 0.594145
3436 2 0.106834 0.028753 0.585487
2440 2 0.127887 0.0630792 0.641158
2442 4 0.127735 0.0653258 0.66606
2441 4 0.128039 0.0608326 0.616256
1182 4 0.226187 0.0219701 0.587754
1177 2 0.370298 0.0582328 0.584366
2268 4 0.400249 0.0290951 0.642356
1178 4 0.373173 0.0815152 0.593017
1137 4 0.391496 0.0807601 0.583292
2266 2 0.422166 0.0372794 0.651179
2267 4 0.444083 0.0454637 0.660001
530 3 0.451017 0.0589673 0.647786
526 1 0.47329 0.059095 0.652533
527 3 0.485219 0.0570684 0.632969
1615 2 0.0652403 0.170453 0.5971
1616 4 0.0510938 0.156454 0.612236
3685 2 0.00505953 0.167104 0.610998
1296 4 0.221035 0.161414 0.664239
1136 4 0.416778 0.123756 0.586876
1135 2 0.404137 0.102258 0.585084
529 3 0.479079 0.0790754 0.662813
1533 4 0.428139 0.141214 0.671886
2831 4 0.0224633 0.195004 0.64062
2830 2 0.0434951 0.203091 0.651458
2832 4 0.0645268 0.211177 0.662296
3687 4 0.012033 0.186021 0.625786
1427 4 0.118318 0.249622 0.654774
1277 4 0.13583 0.239872 0.658024
1276 2 0.15348 0.222519 0.661566
1426 2 0.0977077 0.23759 0.662232
1362 4 0.192896 0.156568 0.589227
1286 4 0.337558 0.233659 0.593061
1285 2 0.356178 0.243168 0.606774
1385 4 0.411021 0.244523 0.66408
2828 4 0.470013 0.235432 0.593547
3224 4 0.466711 0.218483 0.603298
3223 2 0.483911 0.205813 0.616292
1481 4 0.469897 0.198067 0.653506
1480 2 0.468114 0.174362 0.661256
1662 4 0.456703 0.2095 0.643372
1660 2 0.443957 0.226743 0.656234
1661 4 0.431211 0.243985 0.669095
3225 4 0.50111 0.193142 0.629285
1041 4 0.0569456 0.306428 0.586909
1593 4 0.0626937 0.317085 0.602389
1290 4 0.160352 0.314051 0.603979
1627 2 0.134754 0.300756 0.63658
1629 4 0.142743 0.309823 0.61469
1628 4 0.126765 0.29169 0.658469
1287 4 0.374798 0.252678 0.620487
1384 2 0.398692 0.256244 0.645754
1386 4 0.386364 0.267964 0.627429
1563 4 0.460096 0.318922 0.669378
1591 2 0.0718966 0.340034 0.598668
1592 4 0.0810995 0.362983 0.594947
3542 4 0.0994702 0.369232 0.603422
3541 2 0.10777 0.392818 0.60336
3543 4 0.116069 0.416404 0.603298
1613 4 0.21394 0.395573 0.628416
1612 2 0.231433 0.397192 0.610624
1356 4 0.204273 0.388496 0.643752
1614 4 0.248925 0.398811 0.592832
1353 4 0.315832 0.404089 0.584667
1653 4 0.330292 0.411091 0.572559
1352 4 0.265827 0.403671 0.584662
1351 2 0.29083 0.40388 0.584665
1673 4 0.463671 0.327601 0.651595
1672 2 0.487728 0.329735 0.645126
1436 4 0.12329 0.431019 0.61452
1435 2 0.13324 0.453941 0.615382
1437 4 0.143191 0.476863 0.616244
2813 4 0.130275 0.491576 0.621122
1469 4 0.255913 0.482488 0.661813
1468 2 0.261558 0.505436 0.653647
1651 2 0.339745 0.428064 0.588298
2558 4 0.374329 0.496302 0.592109
1652 4 0.349198 0.445037 0.604037
2529 4 0.33693 0.458507 0.611963
2528 4 0.369518 0.496405 0.610403
2527 2 0.353224 0.477456 0.611183
1483 2 0.0656573 0.0283601 0.718501
1484 4 0.0836377 0.0235469 0.701806
1485 4 0.0476769 0.0331734 0.735195
2310 4 0.0820118 0.00557915 0.69214
1685 4 0.118323 0.0534457 0.680538
1684 2 0.121531 0.055556 0.705245
1686 4 0.124738 0.0576664 0.729952
1317 4 0.117669 0.0676941 0.745336
124 3 0.143225 0.0500908 0.734988
2736 4 0.189734 0.0209752 0.688322
1802 4 0.189717 0.00425892 0.679721
2735 4 0.198544 0.038599 0.734284
2734 2 0.194139 0.0297871 0.711303
3693 4 0.483886 0.994831 0.708284
1667 4 0.459382 0.0376081 0.671924
528 3 0.478532 0.0412434 0.666399
1666 2 0.46227 0.0171709 0.686037
1294 2 0.230475 0.150822 0.684827
1295 4 0.239916 0.140229 0.705414
1545 4 0.357137 0.104239 0.724788
1532 4 0.390811 0.108485 0.665876
1544 4 0.378026 0.0991489 0.679639
1619 4 0.365734 0.118798 0.734595
1543 2 0.367582 0.101694 0.702214
1531 2 0.409475 0.12485 0.668881
1547 4 0.482596 0.0979589 0.669591
1546 2 0.4783 0.120792 0.67883
1548 4 0.474004 0.143626 0.688068
1482 4 0.466331 0.150657 0.669007
1428 4 0.0770971 0.225559 0.669689
1278 4 0.17113 0.205166 0.665108
1404 4 0.17904 0.208428 0.683168
1402 2 0.18523 0.210882 0.707269
1403 4 0.19142 0.213336 0.73137
144 3 0.177033 0.210054 0.743236
1479 4 0.0414347 0.311697 0.730241
3465 4 0.105037 0.32782 0.715077
3369 4 0.127344 0.286977 0.678111
3368 4 0.104704 0.308646 0.717081
3367 2 0.116024 0.297811 0.697596
1340 4 0.259899 0.309933 0.709217
1339 2 0.26631 0.331933 0.699212
1704 4 0.363502 0.30552 0.727463
1422 4 0.371062 0.28849 0.73659
1702 2 0.348331 0.322678 0.737494
1561 2 0.446318 0.32078 0.69016
1562 4 0.432541 0.322639 0.710942
1450 2 0.437885 0.317426 0.745553
1452 4 0.422512 0.311514 0.726741
3464 4 0.064595 0.356302 0.707736
1746 4 0.0527586 0.340889 0.716618
1744 2 0.0295368 0.350006 0.718296
1745 4 0.00631508 0.359122 0.719974
1604 4 0.00791333 0.369083 0.738048
3463 2 0.0848161 0.342061 0.711406
1354 2 0.191769 0.399664 0.662302
1279 2 0.227846 0.393381 0.735933
1281 4 0.232373 0.411564 0.719378
1355 4 0.179266 0.410832 0.680852
1717 2 0.244521 0.380893 0.681173
1719 4 0.234381 0.399952 0.668559
3428 4 0.233295 0.419753 0.672375
1718 4 0.254661 0.361835 0.693788
1341 4 0.272721 0.353932 0.689207
1703 4 0.333159 0.339836 0.747524
1589 4 0.181556 0.428459 0.692302
1588 2 0.189114 0.442253 0.711738
1590 4 0.196672 0.456048 0.731174
1599 4 0.215241 0.46098 0.731528
3427 2 0.24007 0.443818 0.672013
3429 4 0.246845 0.467884 0.671651
2492 4 0.331166 0.452808 0.737425
2491 2 0.344969 0.46615 0.753445
2657 4 0.137703 0.0160602 0.757682
123 3 0.142941 0.0314605 0.768112
121 1 0.142352 0.0523665 0.758063
122 3 0.122663 0.0628065 0.763766
944 4 0.114248 0.0800077 0.813428
1692 4 0.154518 0.0819787 0.757696
125 3 0.159891 0.0649632 0.765298
1713 4 0.163038 0.0676034 0.809281
1682 4 0.20572 0.0317963 0.752693
1711 2 0.18767 0.0636543 0.807588
1712 4 0.212301 0.0597052 0.805894
1305 4 0.220293 0.0763037 0.809575
1681 2 0.221186 0.0133822 0.759541
1303 2 0.244216 0.0749984 0.802424
1349 4 0.285422 0.0750414 0.784233
1304 4 0.26814 0.073693 0.795272
1348 2 0.307386 0.0827172 0.775078
487 3 0.330214 0.0194826 0.760579
488 3 0.338895 0.0284407 0.796034
490 3 0.360293 0.0404692 0.767484
486 1 0.347601 0.0231947 0.775175
3783 4 0.452198 0.00922129 0.768806
2800 2 0.449575 0.0502315 0.785123
2802 4 0.445067 0.0743286 0.790042
2801 4 0.454082 0.0261345 0.780204
1326 4 0.0704775 0.162605 0.766717
1639 2 0.0128782 0.144573 0.750962
1641 4 0.0315262 0.141516 0.767336
94 3 0.0469398 0.154135 0.826724
91 1 0.0692969 0.148008 0.827735
95 3 0.0807308 0.157451 0.81045
1325 4 0.0902352 0.120351 0.74869
1324 2 0.0803563 0.141478 0.757704
1316 4 0.0820704 0.102703 0.748137
1315 2 0.0998695 0.0851986 0.746737