ITEM: TIMESTEP
3400000
ITEM: NUMBER OF ATOMS
1600
ITEM: BOX BOUNDS pp pp pp
-6.9325799999999997e+00 6.9325799999999997e+00
-6.9325799999999997e+00 6.9325799999999997e+00
-6.9325799999999997e+00 6.9325799999999997e+00
ITEM: ATOMS id type xs ys zs
700 4 0.238412 0.0139932 0.123642
467 2 0.305496 0.0742393 0.0862137
469 4 0.317632 0.0421895 0.097438
75 3 0.294308 0.0261842 0.103767
468 4 0.293361 0.106289 0.0749894
115 3 0.37578 0.0830609 0.0810138
574 4 0.278073 0.131742 0.0734467
73 3 0.262088 0.996829 0.0713799
113 3 0.428995 0.0724231 0.0790424
114 3 0.408949 0.117716 0.0555633
112 3 0.398548 0.0689369 0.0343287
111 1 0.402926 0.0855784 0.0626939
726 4 0.387692 0.0418214 0.0344319
725 2 0.382641 0.0105679 0.0171649
573 4 0.301475 0.185068 0.0308974
355 4 0.281365 0.198854 0.0157486
572 2 0.289774 0.158405 0.052172
353 2 0.254354 0.210298 0.994775
1245 4 0.428398 0.120299 0.0783518
1244 2 0.453486 0.139853 0.0953429
1246 4 0.478574 0.159407 0.112334
1073 2 0.469474 0.253116 0.0344363
531 4 0.474032 0.198557 0.00328093
489 4 0.0385428 0.247103 0.0521097
1007 2 0.0679756 0.351512 0.0183963
972 4 0.0366854 0.349203 0.0710388
1009 4 0.048682 0.343184 0.0477023
340 4 0.0996595 0.315643 0.0847935
338 2 0.127805 0.300058 0.101084
339 4 0.155951 0.284473 0.117374
394 4 0.241773 0.289938 0.14028
1075 4 0.466698 0.280221 0.0580591
383 2 0.432374 0.279284 0.0990291
384 4 0.441362 0.290541 0.0659695
1082 2 0.450478 0.332306 0.0031757
1131 4 0.472505 0.354068 0.059005
1123 4 0.487677 0.336241 0.0407894
1132 4 0.425936 0.36817 0.112242
1130 2 0.449221 0.361119 0.0856236
1083 4 0.450143 0.367631 0.995931
1042 4 0.11397 0.423147 0.00518379
67 3 0.139839 0.436983 0.0139199
66 1 0.16892 0.449697 0.0235837
327 4 0.195233 0.430787 0.0707497
69 3 0.183887 0.428011 0.0442148
326 2 0.179613 0.409295 0.0951326
68 3 0.163337 0.478607 0.0394896
70 3 0.187765 0.454886 0.997187
328 4 0.163993 0.387802 0.119516
266 2 0.327249 0.472665 0.0826696
268 4 0.359434 0.474941 0.0665644
390 4 0.272307 0.47454 0.117798
267 4 0.295064 0.470389 0.0987748
1443 4 0.378362 0.496063 0.0650764
735 4 0.0113157 0.0350019 0.148058
654 4 0.0326914 0.0211262 0.163468
653 2 0.0637289 0.00881083 0.177086
655 4 0.0947663 0.996495 0.190704
742 4 0.115163 0.018681 0.192871
698 2 0.222328 0.0254508 0.153816
699 4 0.206244 0.0369083 0.18399
741 4 0.181945 0.0326655 0.169496
740 2 0.148554 0.0256733 0.181184
657 4 0.3657 0.0168528 0.169923
228 3 0.394589 0.0221514 0.167967
1375 4 0.46341 0.0437877 0.187381
229 3 0.446734 0.0199446 0.18472
964 4 0.448928 0.0665105 0.178557
230 3 0.428243 0.0636719 0.158358
226 1 0.426067 0.0309915 0.160829
962 2 0.453938 0.101753 0.184329
310 4 0.387987 0.108977 0.2219
137 3 0.414172 0.100113 0.227569
227 3 0.434773 0.0172436 0.131917
1373 2 0.494339 0.0334275 0.20276
20 3 0.251825 0.25066 0.224091
19 3 0.305995 0.248267 0.221131
16 1 0.279032 0.240223 0.239247
309 4 0.370432 0.161338 0.175511
17 3 0.277753 0.207231 0.242506
308 2 0.379209 0.135157 0.198706
963 4 0.458949 0.136995 0.190101
1012 4 0.472581 0.158208 0.204944
1038 4 0.41308 0.243891 0.143906
1039 4 0.372146 0.188262 0.164679
1037 2 0.392613 0.216077 0.154292
1010 2 0.454708 0.173839 0.232086
393 4 0.180867 0.281932 0.10249
392 2 0.21132 0.285935 0.121385
414 4 0.26171 0.309199 0.13769
415 4 0.329639 0.324063 0.156832
413 2 0.295674 0.316631 0.147261
336 4 0.332 0.349185 0.168992
335 2 0.351377 0.374096 0.186438
385 4 0.423386 0.268027 0.132089
273 4 0.441922 0.358335 0.134128
129 3 0.492688 0.355592 0.195322
380 2 0.11282 0.499995 0.20165
381 4 0.139299 0.497237 0.225975
674 2 0.330445 0.44514 0.215694
675 4 0.35919 0.42475 0.20805
337 4 0.370755 0.399008 0.203884
676 4 0.3017 0.46553 0.223339
643 4 0.288554 0.476841 0.246612
274 4 0.465507 0.367476 0.20167
272 2 0.453715 0.362906 0.167899
1128 4 0.0945321 0.0257274 0.331303
1127 2 0.0862019 0.0506968 0.355952
95 3 0.119413 0.0101193 0.329047
496 4 0.15049 0.100713 0.243162
494 2 0.171546 0.125704 0.258411
1031 2 0.226448 0.0751504 0.321943
1033 4 0.206704 0.0971764 0.342569
330 4 0.180041 0.0854719 0.342098
329 2 0.15618 0.111607 0.349032
1032 4 0.246193 0.0531244 0.301317
417 4 0.271617 0.0622603 0.308805
416 2 0.304951 0.0491483 0.312969
418 4 0.338285 0.0360363 0.317133
259 4 0.377415 0.125839 0.283087
748 4 0.355016 0.0282875 0.294507
140 3 0.382531 0.0989449 0.271099
138 3 0.39703 0.0524963 0.246991
275 2 0.449455 0.0989238 0.326801
277 4 0.454647 0.0934228 0.291542
139 3 0.434006 0.0820193 0.274661
136 1 0.406768 0.0834246 0.25527
276 4 0.444263 0.104425 0.362061
397 4 0.0895172 0.205541 0.338401
395 2 0.108382 0.175201 0.333496
396 4 0.127246 0.144861 0.328591
495 4 0.192602 0.150694 0.273661
331 4 0.13232 0.137742 0.355966
751 4 0.220616 0.148001 0.280018
749 2 0.24487 0.174061 0.274269
750 4 0.269124 0.200121 0.26852
257 2 0.358097 0.150111 0.301474
258 4 0.338779 0.174384 0.319861
711 4 0.33001 0.196205 0.333895
710 2 0.316499 0.219425 0.309838
712 4 0.302987 0.242644 0.285781
18 3 0.281169 0.254023 0.26966
1011 4 0.436836 0.18947 0.259228
1363 4 0.510447 0.218407 0.353599
1361 2 0.500698 0.23821 0.325081
1362 4 0.490949 0.258013 0.296564
1000 4 0.499174 0.324991 0.26554
998 2 0.485375 0.291948 0.269804
999 4 0.471576 0.258905 0.274068
642 4 0.21842 0.473678 0.263131
641 2 0.253487 0.475259 0.254872
400 4 0.477977 0.429963 0.382084
660 4 0.484731 0.442776 0.358636
659 2 0.456136 0.464745 0.35828
1129 4 0.0778718 0.0756663 0.380601
879 4 0.0691171 0.0966184 0.365744
443 2 0.221189 0.0898634 0.462275
444 4 0.19238 0.0689689 0.45645
445 4 0.249998 0.110758 0.4681
429 4 0.275805 0.12251 0.474405
919 4 0.437798 0.998171 0.486609
926 2 0.445275 0.118593 0.425257
928 4 0.445554 0.10725 0.391027
927 4 0.444995 0.129936 0.459487
878 2 0.0751616 0.120745 0.391856
880 4 0.0812061 0.144872 0.417967
366 4 0.484677 0.192669 0.484327
365 2 0.469509 0.159982 0.485723
367 4 0.454341 0.127295 0.487118
245 3 0.473273 0.257207 0.467691
244 3 0.434857 0.282397 0.438732
241 1 0.456071 0.285004 0.464483
242 3 0.476923 0.310152 0.458698
499 4 0.41521 0.273945 0.488709
243 3 0.439127 0.291262 0.492655
842 2 0.118659 0.484056 0.4446
1021 4 0.0863469 0.489054 0.486131
844 4 0.0901514 0.472424 0.463372
1208 2 0.185892 0.422503 0.473403
1209 4 0.186897 0.388285 0.484742
525 4 0.195055 0.482989 0.459633
843 4 0.147167 0.495689 0.425827
1210 4 0.184887 0.45672 0.462064
263 2 0.475751 0.499796 0.495755
717 4 0.0581894 0.0419513 0.571988
716 2 0.072836 0.0134487 0.588526
990 4 0.064059 0.069096 0.561569
989 2 0.0900969 0.089471 0.575967
991 4 0.116135 0.109846 0.590366
52 3 0.298727 0.128065 0.619679
428 2 0.289075 0.119082 0.507761
562 4 0.312179 0.102979 0.629708
1372 4 0.109358 0.134463 0.5789
1370 2 0.130927 0.163029 0.583284
1371 4 0.152496 0.191594 0.587668
9 3 0.153451 0.21926 0.578135
533 2 0.225811 0.178599 0.637842
534 4 0.25648 0.165764 0.623874
430 4 0.302344 0.115653 0.541117
55 3 0.288444 0.124319 0.566976
51 1 0.284844 0.14319 0.593618
470 2 0.292398 0.232757 0.566837
472 4 0.285232 0.198566 0.575787
903 4 0.327015 0.212063 0.585521
54 3 0.299992 0.172651 0.588874
902 2 0.354127 0.198428 0.605001
53 3 0.252326 0.147949 0.59993
904 4 0.381239 0.184794 0.624482
377 2 0.106577 0.307319 0.537169
379 4 0.101118 0.327233 0.507604
401 2 0.0583009 0.368819 0.52059
378 4 0.112036 0.287404 0.566733
402 4 0.0887239 0.35134 0.51226
6 1 0.153231 0.252703 0.579347
7 3 0.180744 0.264145 0.564758
8 3 0.126567 0.264554 0.562961
934 4 0.191601 0.332071 0.55976
932 2 0.193493 0.347116 0.527041
933 4 0.195385 0.362161 0.494322
10 3 0.152568 0.262779 0.610602
471 4 0.299565 0.266947 0.557886
4 3 0.304672 0.293029 0.544248
1 1 0.328242 0.312587 0.557735
3 3 0.314512 0.341003 0.568871
5 3 0.343056 0.296853 0.582471
2 3 0.3507 0.319933 0.534447
521 2 0.357453 0.3844 0.616601
498 4 0.373799 0.303748 0.539686
1147 4 0.369153 0.296547 0.569787
1146 4 0.416123 0.272425 0.618916
497 2 0.394504 0.288846 0.514198
1145 2 0.392638 0.284486 0.594351
522 4 0.384012 0.376878 0.593397
403 4 0.027878 0.386298 0.528919
301 4 0.0185528 0.403102 0.549249
523 4 0.330893 0.391923 0.639806
297 4 0.471515 0.440752 0.521045
296 2 0.477136 0.432771 0.555761
543 4 0.48379 0.44353 0.613649
298 4 0.482758 0.42479 0.590476
542 2 0.487026 0.479037 0.619049
264 4 0.466619 0.46917 0.512462
538 4 0.00974597 0.998278 0.734865
536 2 0.0398245 0.997486 0.714988
689 2 0.117566 0.0294858 0.682177
537 4 0.0699031 0.996694 0.695111
421 4 0.168205 0.0365284 0.686121
420 4 0.236816 0.0454743 0.665766
419 2 0.20251 0.0410014 0.675943
690 4 0.147807 0.0390571 0.665022
62 3 0.155936 0.0286167 0.741283
561 4 0.337403 0.0506102 0.672406
560 2 0.324791 0.0767944 0.651057
493 4 0.378181 0.121559 0.68663
505 4 0.371644 0.0974858 0.667845
503 2 0.393673 0.078636 0.68929
504 4 0.415701 0.0597863 0.710734
506 2 0.0126956 0.178114 0.733942
535 4 0.195142 0.191434 0.651809
492 4 0.354736 0.178357 0.724393
491 2 0.366458 0.149958 0.705511
105 3 0.373571 0.197176 0.735416
294 4 0.469745 0.267145 0.681112
1170 4 0.445279 0.221829 0.761495
1219 4 0.477823 0.237514 0.676021
104 3 0.423825 0.21601 0.743705
1169 2 0.4772 0.237482 0.755457
576 4 0.142349 0.274924 0.635539
1085 2 0.154802 0.341232 0.73346
1086 4 0.166073 0.323148 0.704368
577 4 0.142994 0.309 0.699101
575 2 0.142672 0.291962 0.66732
558 4 0.233737 0.267057 0.725158
557 2 0.201445 0.274123 0.739571
583 4 0.141349 0.279783 0.760494
438 4 0.255542 0.254214 0.708778
437 2 0.280781 0.279519 0.713581
439 4 0.30602 0.304825 0.718384
295 4 0.407246 0.266311 0.645127
293 2 0.438496 0.266728 0.66312
858 4 0.0409509 0.487646 0.740919
280 4 0.173179 0.527029 0.622467
278 2 0.190525 0.51266 0.650629
1321 4 0.250269 0.472912 0.740468
61 1 0.159454 0.0080077 0.767043
63 3 0.154644 0.0251728 0.795366
271 4 0.182887 0.0289071 0.802755
269 2 0.183113 0.0584264 0.823467
270 4 0.183339 0.0879458 0.844179
501 4 0.167221 0.109169 0.851623
442 4 0.200513 0.0128852 0.785298
440 2 0.2319 0.00144806 0.798881
324 4 0.380073 0.134041 0.845087
1090 4 0.436329 0.0297119 0.844519
1088 2 0.412547 0.00291028 0.848586
909 4 0.388669 0.109306 0.853378
508 4 0.0317244 0.190263 0.762062
931 4 0.0349382 0.18298 0.790749
929 2 0.0539461 0.212423 0.799249
930 4 0.072954 0.241867 0.807748
895 4 0.130484 0.218138 0.854155
582 4 0.0835555 0.242124 0.781552
893 2 0.164483 0.217121 0.866134
986 2 0.347684 0.226567 0.813794
988 4 0.352017 0.230791 0.778244
987 4 0.343352 0.222343 0.849345
323 2 0.395175 0.144227 0.813965
325 4 0.410277 0.154413 0.782842
102 3 0.401687 0.180526 0.77819
101 1 0.395314 0.206291 0.758285
103 3 0.382768 0.231301 0.776644
1233 4 0.439088 0.201016 0.855229
1232 2 0.445925 0.172679 0.876459
793 4 0.114717 0.241052 0.855058
581 2 0.112452 0.260954 0.771023
38 3 0.00831018 0.345263 0.860867
476 2 0.100247 0.357367 0.799672
792 4 0.0563995 0.283009 0.861413
791 2 0.0855584 0.26203 0.858236
36 1 0.0415701 0.343405 0.857663
39 3 0.0517781 0.311913 0.862564
37 3 0.0499228 0.352728 0.826938
477 4 0.129846 0.345975 0.782507
559 4 0.169153 0.281189 0.753984
1087 4 0.143531 0.359315 0.762553
435 4 0.301881 0.316271 0.745288
434 2 0.309504 0.351455 0.747391
555 4 0.339166 0.25156 0.857445
1184 2 0.468161 0.347059 0.791176
1186 4 0.432316 0.343908 0.788812
1185 4 0.504007 0.350209 0.79354
478 4 0.0706491 0.368758 0.816836
567 4 0.0141933 0.495473 0.749567
566 2 0.00574457 0.485541 0.783189
422 2 0.179839 0.475614 0.852776
423 4 0.199055 0.452956 0.832337
424 4 0.160622 0.498272 0.873216
547 4 0.138004 0.489154 0.857908
436 4 0.317127 0.386639 0.749494
253 4 0.318138 0.388418 0.778555
251 2 0.323845 0.415987 0.801091
252 4 0.329551 0.443555 0.823626
1124 2 0.416692 0.501276 0.861464
1179 4 0.432226 0.493899 0.784293
1125 4 0.452739 0.502099 0.862126
982 4 0.019884 0.0653788 0.980269
838 4 0.264133 0.00975314 0.898899
50 3 0.348161 0.0163663 0.896859
46 1 0.3213 0.0308089 0.909053
47 3 0.294439 0.0139944 0.899232
48 3 0.319113 0.0622385 0.897769
910 4 0.341718 0.0612429 0.879596
908 2 0.365194 0.0852743 0.866487
49 3 0.32248 0.0307342 0.942498
1590 4 0.371393 0.0108964 0.912393
1205 2 0.440098 0.0989205 0.920246
1589 2 0.401016 0.0279713 0.923856
1591 4 0.430638 0.0450462 0.935319
1206 4 0.450602 0.0658244 0.929979
500 2 0.186144 0.12525 0.877772
894 4 0.198482 0.216104 0.878113
43 3 0.194988 0.20149 0.904201
41 1 0.221695 0.189446 0.920374
44 3 0.218261 0.156502 0.925152
502 4 0.205068 0.14133 0.90392
354 4 0.227343 0.221742 0.973802
45 3 0.225098 0.204668 0.949281
42 3 0.248739 0.194847 0.901931
1207 4 0.429593 0.132017 0.910512
1234 4 0.452763 0.144342 0.897689
40 3 0.0560508 0.363382 0.879343
673 4 0.103227 0.338409 0.981375
1008 4 0.0872692 0.35984 0.98909
671 2 0.110902 0.315072 0.954976
672 4 0.118577 0.291735 0.928577
463 4 0.217538 0.360864 0.928463
1041 4 0.131624 0.390942 0.943112
554 2 0.325067 0.281175 0.872432
556 4 0.310969 0.31079 0.88742
322 4 0.315537 0.339499 0.890394
320 2 0.326237 0.368345 0.909204
1084 4 0.450812 0.296982 0.0104204
739 4 0.109335 0.39925 0.926131
738 4 0.0651863 0.389583 0.869924
737 2 0.0872606 0.394417 0.898028
462 4 0.209462 0.432472 0.925488
461 2 0.2135 0.396668 0.926975
1040 2 0.122797 0.407044 0.974148
321 4 0.336937 0.397192 0.928014
12 3 0.32698 0.46342 0.973343
1497 4 0.318629 0.490567 0.965628
11 1 0.334259 0.431073 0.972157
14 3 0.342152 0.422908 0.940678
15 3 0.359688 0.424971 0.99203
13 3 0.307521 0.413595 0.982132
262 4 0.438678 0.375493 0.973446
261 4 0.383158 0.421434 0.976401
260 2 0.410918 0.398464 0.974924
913 4 0.00172746 0.559375 0.0436128
912 4 0.042789 0.615664 0.0249776
911 2 0.0222582 0.587519 0.0342952
664 4 0.0626407 0.625273 0.00678046
312 4 0.00118233 0.517299 0.116876
517 4 0.189494 0.531745 0.120391
516 4 0.171142 0.501408 0.0575847
515 2 0.180318 0.516576 0.0889879
631 4 0.216567 0.618688 0.0570236
290 2 0.19089 0.609083 0.0215866
629 2 0.238646 0.621946 0.0853489
1444 4 0.396366 0.56153 0.0894
1442 2 0.387364 0.528796 0.0772382
732 4 0.396719 0.627939 0.0288628
753 4 0.409782 0.63848 0.0520745
662 2 0.0888021 0.647442 0.0179409
1502 2 0.0983006 0.731549 0.0176954
663 4 0.114964 0.669611 0.0291013
1503 4 0.108177 0.697794 0.0256636
292 4 0.189414 0.620746 0.0556783
630 4 0.260726 0.625204 0.113674
627 4 0.272489 0.643095 0.131433
752 2 0.444688 0.631603 0.0461825
754 4 0.479594 0.624726 0.0402905
731 2 0.381371 0.632967 0.99662
870 4 0.485097 0.742882 0.0364992
1470 4 0.484426 0.65372 0.0389031
1504 4 0.0884241 0.765304 0.00972724
851 2 0.128232 0.833662 0.104931
943 4 0.163784 0.834287 0.0567051
853 4 0.146519 0.823754 0.0754714
941 2 0.168352 0.855208 0.0276896
942 4 0.17292 0.876128 0.998674
1332 4 0.337104 0.83446 0.024032
1331 2 0.339201 0.870447 0.0230697
693 4 0.355903 0.813723 0.0140675
869 2 0.455589 0.758366 0.0502843
871 4 0.426082 0.773849 0.0640694
694 4 0.398508 0.778381 0.0603018
692 2 0.377206 0.796052 0.0371847
615 4 0.0276679 0.896176 0.108514
605 2 0.0319721 0.88814 0.0491145
606 4 0.0343056 0.883263 0.0847685
553 4 0.056137 0.972398 0.0419298
551 2 0.0781422 0.968132 0.0701789
483 4 0.0322493 0.972203 0.0279547
607 4 0.0296386 0.893017 0.0134605
552 4 0.100147 0.963866 0.098428
405 4 0.118284 0.968091 0.12173
404 2 0.146038 0.945749 0.127294
1333 4 0.341298 0.906435 0.0221075
715 4 0.340507 0.936595 0.0202256
72 3 0.300519 0.972783 0.1011
714 4 0.302095 0.96913 0.0718754
713 2 0.321301 0.952863 0.0460505
71 1 0.278487 0.997581 0.100542
74 3 0.256976 0.993513 0.125854
849 4 0.507517 0.959196 0.125393
848 2 0.479679 0.981363 0.119551
850 4 0.451841 0.00352927 0.113709
376 4 0.0245091 0.51634 0.134745
375 4 0.0846084 0.531166 0.171759
382 4 0.0863413 0.502753 0.177324
374 2 0.0545587 0.523753 0.153252
389 2 0.272769 0.493817 0.148271
368 2 0.346029 0.537873 0.168817
369 4 0.346068 0.543338 0.204462
370 4 0.345989 0.532407 0.133172
391 4 0.273231 0.513094 0.178744
885 4 0.47804 0.519408 0.167763
884 2 0.462145 0.527143 0.199195
886 4 0.446249 0.534878 0.230627
706 4 0.432719 0.532544 0.255446
586 4 4.04242e-05 0.69227 0.140701
585 4 0.0308975 0.72475 0.197222
584 2 0.015469 0.70851 0.168961
304 4 0.0453573 0.71978 0.221226
628 4 0.343185 0.638921 0.145084
828 4 0.359362 0.620084 0.160316
626 2 0.307837 0.641008 0.138259
1425 4 0.483776 0.722041 0.201779
829 4 0.429227 0.631884 0.173782
827 2 0.394295 0.625984 0.167049
614 2 0.0314968 0.864123 0.12459
852 4 0.109944 0.843569 0.13439
616 4 0.0353258 0.832071 0.140666
302 2 0.0487579 0.749639 0.241157
87 3 0.0521286 0.834828 0.210052
90 3 0.105396 0.835243 0.202318
86 1 0.0813032 0.844202 0.222766
1069 4 0.0110426 0.823643 0.154712
1311 4 0.132738 0.827007 0.197958
1310 2 0.160104 0.814405 0.217775
1312 4 0.18747 0.801803 0.237592
345 4 0.204593 0.779023 0.233868
344 2 0.223492 0.764557 0.26096
88 3 0.0812858 0.877456 0.226517
580 4 0.0632554 0.886414 0.248517
406 4 0.173793 0.923407 0.132859
315 4 0.281794 0.886198 0.176635
316 4 0.340149 0.92567 0.192072
314 2 0.310972 0.905934 0.184354
658 4 0.337176 0.953592 0.189577
656 2 0.351438 0.985223 0.17975
899 2 0.151347 0.604689 0.339876
901 4 0.154737 0.569563 0.3473
1176 4 0.14668 0.551802 0.368463
703 4 0.306245 0.567572 0.303819
701 2 0.333261 0.563536 0.327362
687 4 0.28626 0.585762 0.310767
686 2 0.267867 0.616335 0.305526
702 4 0.360278 0.5595 0.350905
661 4 0.42754 0.486714 0.357925
1315 4 0.490912 0.590919 0.312414
705 4 0.471503 0.572295 0.301462
1566 4 0.3856 0.567528 0.361808
1565 2 0.408172 0.540267 0.354896
704 2 0.452111 0.552419 0.278454
1537 4 0.99787 0.640557 0.374379
194 3 0.112699 0.739797 0.352762
1263 4 0.0220236 0.654094 0.366553
1387 4 0.0928807 0.719626 0.360141
1385 2 0.112987 0.690614 0.35276
900 4 0.147956 0.639815 0.332452
1386 4 0.133093 0.661601 0.34538
346 4 0.242392 0.750091 0.288052
811 4 0.266418 0.730092 0.284799
809 2 0.265126 0.694197 0.281591
810 4 0.263834 0.658301 0.278383
688 4 0.249474 0.646907 0.300286
1323 4 0.477928 0.718621 0.230391
1322 2 0.465543 0.707837 0.262496
1196 2 0.419931 0.674722 0.327165
1197 4 0.427177 0.685212 0.293432
1324 4 0.453158 0.697053 0.294601
1198 4 0.412685 0.664232 0.360898
89 3 0.0854293 0.829356 0.252473
1534 4 0.997956 0.756282 0.348436
303 4 0.0521585 0.779499 0.261089
1533 4 0.0672041 0.764265 0.329921
195 3 0.0913844 0.769978 0.312967
1532 2 0.0325803 0.760274 0.339179
968 2 0.0682112 0.844922 0.310669
970 4 0.0621133 0.861059 0.342337
969 4 0.0743091 0.828785 0.279001
191 1 0.115569 0.768084 0.335111
182 3 0.0436763 0.844249 0.354929
193 3 0.14526 0.768969 0.319697
192 3 0.113465 0.793912 0.355827
766 4 0.470525 0.856209 0.339992
1440 4 0.451155 0.85016 0.32035
764 2 0.484331 0.841234 0.369751
1439 2 0.426988 0.858472 0.294908
1441 4 0.40282 0.866783 0.269466
578 2 0.0366017 0.902754 0.266489
579 4 0.0099479 0.919094 0.284462
1030 4 0.995149 0.939159 0.270383
92 3 0.107477 0.957634 0.32863
877 4 0.1137 0.942439 0.35385
875 2 0.0911967 0.91427 0.354587
876 4 0.0686936 0.886101 0.355324
91 1 0.132128 0.979834 0.329025
93 3 0.150479 0.975134 0.356612
94 3 0.151089 0.975431 0.301803
697 4 0.141815 0.948321 0.362364
529 4 0.266402 0.928706 0.374369
746 2 0.355261 0.995723 0.279016
549 4 0.341582 0.942372 0.251129
747 4 0.355506 0.963159 0.263526
548 2 0.361661 0.91256 0.254053
550 4 0.38174 0.882749 0.256978
1177 4 0.170649 0.497517 0.409455
1175 2 0.158664 0.524659 0.388959
524 2 0.22325 0.494636 0.478863
526 4 0.251446 0.506282 0.498094
595 4 0.311909 0.598925 0.509349
593 2 0.329777 0.630216 0.507928
1525 4 0.511125 0.541976 0.483737
1567 4 0.430744 0.513006 0.347985
265 4 0.484882 0.530422 0.479049
1262 2 0.0279503 0.665578 0.40022
774 4 0.0509382 0.687555 0.455078
1264 4 0.033877 0.677062 0.433886
773 2 0.0814069 0.705261 0.462734
775 4 0.111876 0.722966 0.47039
610 4 0.137673 0.73546 0.475447
602 2 0.349105 0.700606 0.466626
604 4 0.365563 0.719582 0.440752
600 4 0.370245 0.694259 0.428289
599 2 0.379677 0.674274 0.399792
888 4 0.503709 0.641167 0.476298
601 4 0.389109 0.65429 0.371295
24 3 0.39978 0.723645 0.483426
21 1 0.432249 0.730806 0.487226
23 3 0.447915 0.728821 0.457721
887 2 0.484452 0.670972 0.482724
889 4 0.465195 0.700776 0.489149
185 3 0.0120273 0.861938 0.394714
183 3 0.0597339 0.838785 0.406415
181 1 0.0431828 0.858396 0.384934
1227 4 0.13506 0.804201 0.374674
1226 2 0.166348 0.815691 0.388438
1228 4 0.197637 0.827182 0.402202
35 3 0.216194 0.849774 0.403539
608 2 0.159121 0.762525 0.465062
609 4 0.18057 0.789591 0.454677
846 4 0.178593 0.812283 0.470496
32 3 0.233327 0.871986 0.449479
449 2 0.294801 0.86529 0.462068
450 4 0.258758 0.864378 0.461353
451 4 0.330844 0.866202 0.462784
528 4 0.31242 0.877892 0.396776
778 4 0.418274 0.780681 0.483819
25 3 0.435681 0.760985 0.499729
184 3 0.058025 0.888329 0.383027
31 1 0.222739 0.878191 0.418656
696 4 0.193185 0.913312 0.398933
33 3 0.195039 0.896899 0.420292
1003 4 0.197565 0.96114 0.443214
34 3 0.246699 0.894677 0.4021
1001 2 0.177895 0.957374 0.473203
695 2 0.1675 0.930816 0.380648
527 2 0.289411 0.903299 0.385572
448 4 0.395014 0.950579 0.455538
446 2 0.373047 0.962407 0.481576
917 2 0.469796 0.983647 0.478511
386 2 0.0816677 0.579577 0.57988
388 4 0.09727 0.556657 0.556821
1019 2 0.0894292 0.51074 0.514778
1020 4 0.0925115 0.532426 0.543426
387 4 0.0660655 0.602497 0.602938
757 4 0.0565689 0.608356 0.629064
915 4 0.307017 0.576069 0.525381
914 2 0.285249 0.553804 0.507191
916 4 0.263482 0.531539 0.489
790 4 0.395544 0.58661 0.575495
788 2 0.406246 0.577016 0.608569
603 4 0.332646 0.681629 0.492499
594 4 0.347645 0.661508 0.506508
22 3 0.445731 0.70876 0.508032
845 2 0.173717 0.83958 0.493551
847 4 0.168841 0.866878 0.516605
1512 4 0.396206 0.845358 0.553744
777 4 0.412949 0.833806 0.532308
776 2 0.415611 0.807243 0.508063
1511 2 0.409367 0.838837 0.586679
1513 4 0.422527 0.832317 0.619614
649 4 0.447841 0.84324 0.610076
1545 4 0.110892 0.976096 0.61545
718 4 0.0874826 0.984946 0.605064
1544 2 0.120662 0.945654 0.598769
117 3 0.171816 0.883756 0.540877
119 3 0.1622 0.933665 0.522031
116 1 0.174422 0.916105 0.547765
120 3 0.15733 0.922776 0.575008
1546 4 0.130432 0.915212 0.582087
118 3 0.206702 0.92361 0.552413
925 4 0.213609 0.948281 0.563558
1002 4 0.158225 0.953608 0.503192
923 2 0.249132 0.95415 0.565582
924 4 0.284656 0.960019 0.567607
1092 4 0.312712 0.971395 0.567622
1091 2 0.335829 0.968161 0.59511
447 4 0.35108 0.974235 0.507615
859 4 0.0937893 0.534432 0.726053
812 2 0.112854 0.575236 0.726304
857 2 0.0673701 0.511039 0.733486
814 4 0.13784 0.594346 0.70867
279 4 0.207872 0.498292 0.678791
544 4 0.490262 0.514545 0.624449
1180 4 0.444304 0.536569 0.727415
1155 4 0.405501 0.542426 0.646892
789 4 0.416948 0.567422 0.641643
1154 2 0.429508 0.543196 0.67379
1156 4 0.453515 0.543965 0.700688
755 2 0.0785821 0.63427 0.641077
756 4 0.100595 0.660185 0.653089
597 4 0.109092 0.667394 0.679469
596 2 0.110804 0.657708 0.714163
598 4 0.112516 0.648022 0.748857
685 4 0.289167 0.72845 0.669711
891 4 0.288198 0.700284 0.669105
890 2 0.28462 0.686724 0.702328
892 4 0.281041 0.673164 0.73555
866 2 0.235659 0.871481 0.699564
867 4 0.203992 0.870719 0.7168
612 4 0.191845 0.845534 0.730126
611 2 0.161046 0.860657 0.741224
683 2 0.276249 0.762108 0.668918
107 3 0.279288 0.867549 0.656765
684 4 0.26333 0.795767 0.668124
109 3 0.285285 0.813715 0.658861
106 1 0.301529 0.842945 0.657569
110 3 0.320099 0.84426 0.630509
108 3 0.320698 0.846574 0.68476
786 4 0.327436 0.840248 0.713393
868 4 0.267326 0.872243 0.682329
785 2 0.324563 0.812682 0.736464
787 4 0.321689 0.785116 0.759536
647 2 0.478501 0.837261 0.628094
84 3 0.376876 0.849549 0.735123
1379 2 0.413376 0.810922 0.717983
1381 4 0.443841 0.791948 0.721484
1380 4 0.38291 0.829897 0.714482
98 3 0.463222 0.775624 0.735137
691 4 0.0873247 0.0199146 0.699332
83 3 0.362529 0.901942 0.727795
1093 4 0.358945 0.964927 0.622598
823 4 0.349403 0.942954 0.638928
821 2 0.351586 0.925051 0.670156
822 4 0.353769 0.907148 0.701383
813 4 0.0878675 0.556126 0.743938
545 2 0.108206 0.509424 0.85663
1520 2 0.0488222 0.57783 0.857653
1522 4 0.0553343 0.544005 0.846979
546 4 0.0784076 0.529694 0.855352
1319 2 0.25853 0.503428 0.757818
1320 4 0.26679 0.533943 0.775167
906 4 0.29355 0.540842 0.771015
905 2 0.312595 0.557722 0.796565
207 3 0.346723 0.57274 0.846853
907 4 0.33164 0.574602 0.822115
206 1 0.35982 0.556666 0.872752
209 3 0.37485 0.528861 0.861753
1178 2 0.438265 0.515234 0.755854
992 2 0.507363 0.487627 0.84695
994 4 0.484568 0.474238 0.822423
1126 4 0.380646 0.500453 0.860803
1514 2 0.170119 0.647882 0.813923
1516 4 0.199512 0.655484 0.833385
1515 4 0.140727 0.64028 0.794462
771 4 0.27349 0.671934 0.763046
770 2 0.289462 0.691534 0.788759
772 4 0.305434 0.711134 0.814473
640 4 0.307607 0.718574 0.841803
638 2 0.306771 0.695025 0.869101
1561 4 0.466952 0.679916 0.843318
1559 2 0.462456 0.682616 0.878996
613 4 0.130248 0.875779 0.752322
620 2 0.368744 0.854929 0.833363
621 4 0.368836 0.830449 0.859842
85 3 0.363425 0.88049 0.777674
100 3 0.490193 0.798076 0.776578
798 4 0.137889 0.896781 0.770711
65 3 0.18973 0.995278 0.766658
797 2 0.132719 0.93164 0.778362
799 4 0.127549 0.9665 0.786012
64 3 0.136751 0.983551 0.764511
794 2 0.205507 0.911822 0.857241
795 4 0.228139 0.935361 0.841938
622 4 0.368653 0.879409 0.806883
81 1 0.377918 0.880336 0.748199
837 4 0.246309 0.952423 0.858933
836 2 0.255221 0.981088 0.878916
854 2 0.338768 0.950987 0.825462
855 4 0.308556 0.932064 0.820023
441 4 0.263287 0.990011 0.812464
856 4 0.368981 0.969909 0.830901
1089 4 0.388765 0.976109 0.852654
82 3 0.409629 0.88949 0.751567
1297 4 0.412325 0.911763 0.771934
1295 2 0.440901 0.933747 0.772689
1296 4 0.469477 0.955731 0.773444
1521 4 0.04231 0.611655 0.868326
291 4 0.192367 0.59742 0.987495
1496 2 0.33317 0.512472 0.940946
210 3 0.381724 0.576118 0.887608
1273 4 0.37669 0.603683 0.886324
208 3 0.33529 0.548718 0.894083
1498 4 0.347711 0.534376 0.916265
873 4 0.0266847 0.759224 0.904203
1271 2 0.353472 0.630259 0.893748
639 4 0.305935 0.671477 0.8964
733 4 0.366024 0.637994 0.964377
1272 4 0.330254 0.656834 0.901172
1560 4 0.45796 0.685316 0.914675
1407 4 0.485493 0.69103 0.925843
255 4 0.402298 0.732084 0.947045
1581 4 0.0677213 0.837553 0.954271
1593 4 0.084883 0.86183 0.958543
1580 2 0.0671807 0.80634 0.972323
1582 4 0.06664 0.775126 0.990375
833 2 0.189476 0.857716 0.91507
835 4 0.190502 0.824537 0.929159
256 4 0.392896 0.799925 0.924439
729 4 0.397973 0.827712 0.927159
728 2 0.397559 0.858454 0.946006
254 2 0.397597 0.766004 0.935742
484 4 0.0182745 0.95552 0.959193
1592 2 0.0672396 0.886002 0.978665
1594 4 0.0495962 0.910173 0.998787
482 2 0.0252619 0.963862 0.993574
834 4 0.188449 0.890896 0.900981
796 4 0.182875 0.888284 0.872544
806 2 0.380597 0.932857 0.971928
808 4 0.370161 0.898873 0.965878
730 4 0.397146 0.889196 0.964852
807 4 0.391033 0.966841 0.977978
727 4 0.37759 0.979314 0.999898
1446 4 0.622023 0.014415 0.00536255
831 4 0.758893 0.0661727 0.00536052
1377 4 0.787408 0.0198915 0.0265616
135 3 0.823277 0.0898599 0.0276876
1023 4 0.815722 0.0861796 0.0558206
131 1 0.809237 0.0633846 0.0142422
133 3 0.796135 0.0440108 0.0381783
1348 4 0.848557 0.0494904 0.0214987
1022 2 0.828205 0.11239 0.0772131
132 3 0.784965 0.0730775 0.993807
1346 2 0.883681 0.0422185 0.0252221
333 4 0.961991 0.0203285 0.0494249
332 2 0.970686 0.0549225 0.0441244
1347 4 0.918805 0.0349466 0.0289455
334 4 0.979381 0.0895165 0.0388239
1305 4 0.974273 0.0228908 0.0748581
667 4 0.981858 0.113245 0.0560905
161 1 0.530082 0.191286 0.11856
164 3 0.533042 0.221254 0.103961
165 3 0.55469 0.171714 0.109061
959 2 0.616793 0.174109 0.123249
163 3 0.500709 0.177466 0.110425
1072 4 0.523937 0.230081 0.0787831
1074 4 0.472249 0.226011 0.0108134
590 2 0.698841 0.184152 0.0868976
591 4 0.721142 0.180213 0.058833
936 4 0.744365 0.19262 0.0496481
935 2 0.741018 0.215849 0.022268
960 4 0.651458 0.181795 0.129549
592 4 0.676541 0.18809 0.114962
1024 4 0.840689 0.1386 0.0986055
645 4 0.835322 0.145605 0.126173
665 2 0.988301 0.148695 0.057592
666 4 0.994743 0.184144 0.0590936
490 4 0.984998 0.206066 0.0776177
488 2 0.0117704 0.226585 0.0648637
1070 2 0.549804 0.253651 0.0700793
1071 4 0.575672 0.277221 0.0613756
1121 2 0.522586 0.33252 0.0325434
166 1 0.605815 0.302802 0.0411988
168 3 0.60332 0.276208 0.0613601
1122 4 0.557494 0.3288 0.0242975
167 3 0.577093 0.319398 0.0417333
169 3 0.611969 0.292835 0.00985024
1064 2 0.624731 0.367201 0.123938
170 3 0.629912 0.322542 0.0516168
1103 2 0.672936 0.35526 0.0615419
1105 4 0.63754 0.34882 0.0590745
1104 4 0.708332 0.3617 0.0640092
1114 4 0.685402 0.364283 0.13238
180 3 0.830401 0.357528 0.0755039
1050 4 0.803057 0.364713 0.0841081
1049 2 0.767503 0.36908 0.079951
176 1 0.83884 0.327389 0.0655422
177 3 0.817293 0.317053 0.0425298
179 3 0.869511 0.327954 0.0521669
178 3 0.838047 0.306173 0.091411
1048 4 0.843904 0.300293 0.120055
1046 2 0.856347 0.266741 0.124517
1095 4 0.951324 0.324582 0.0395297
973 4 0.966105 0.338624 0.0606346
1094 2 0.944086 0.338386 0.00701025
971 2 0.00139519 0.343914 0.0658367
153 3 0.516883 0.489491 0.0589003
1065 4 0.591907 0.368458 0.109058
719 2 0.58822 0.427008 0.0833031
721 4 0.596688 0.394117 0.0954223
720 4 0.579752 0.4599 0.0711839
152 3 0.569432 0.478325 0.0516562
1051 4 0.731949 0.373447 0.0757938
1063 4 0.832417 0.46758 0.0610494
1374 4 0.525268 0.0230673 0.218138
1281 4 0.551701 0.00840343 0.215104
1267 4 0.751081 0.0702462 0.24424
1384 4 0.676377 0.119598 0.237314
410 2 0.738076 0.0259022 0.20342
412 4 0.75292 0.0435838 0.231123
1265 2 0.77369 0.0983314 0.243529
1005 4 0.861418 0.0257793 0.231635
1241 2 0.941623 0.0231998 0.227126
1243 4 0.914672 0.0456187 0.235582
1510 4 0.907396 0.0714259 0.244398
736 4 0.953555 0.074001 0.129497
734 2 0.982435 0.0545015 0.138778
961 4 0.582128 0.166423 0.11695
162 3 0.531334 0.195222 0.151478
341 2 0.544294 0.209191 0.203644
519 4 0.579446 0.23117 0.246768
518 2 0.610849 0.213481 0.247946
343 4 0.566863 0.210003 0.231759
342 4 0.521726 0.208379 0.17553
1045 4 0.668747 0.148224 0.182933
1044 4 0.660287 0.174486 0.249571
1043 2 0.664517 0.161355 0.216252
1266 4 0.796298 0.126417 0.242818
644 2 0.840313 0.180867 0.13184
319 4 0.852254 0.230067 0.230591