ITEM: TIMESTEP
1920000
ITEM: NUMBER OF ATOMS
4590
ITEM: BOX BOUNDS pp pp pp
-9.9985700000000008e+00 9.9985700000000008e+00
-9.9985700000000008e+00 9.9985700000000008e+00
-9.9985700000000008e+00 9.9985700000000008e+00
ITEM: ATOMS id type xs ys zs
1675 2 0.0916773 0.0799175 0.00501643
1475 4 0.23533 0.00951925 0.0612486
1474 2 0.253629 0.0214552 0.0490902
1476 4 0.271929 0.0333912 0.0369319
1254 4 0.281586 0.0490329 0.0272208
1252 2 0.292033 0.0423204 0.0055189
1827 4 0.430674 0.0733466 0.0306585
1825 2 0.442136 0.0525993 0.0227006
1826 4 0.453599 0.0318519 0.0147426
1924 2 0.456 0.000954388 0.00628635
1110 4 0.437703 0.0220168 0.0496481
1108 2 0.445116 0.0280774 0.0727454
3234 4 0.0513383 0.155361 0.039466
3232 2 0.0758394 0.156952 0.0347389
701 4 0.0377476 0.17026 0.0364886
700 2 0.0229291 0.168273 0.0164477
1677 4 0.114478 0.0863094 0.0130453
1037 4 0.126042 0.0975387 0.0266118
1036 2 0.14366 0.115269 0.0272716
1038 4 0.161277 0.132999 0.0279314
3233 4 0.10034 0.158542 0.0300118
932 4 0.113407 0.154163 0.0156936
423 4 0.150617 0.147722 0.0183825
372 4 0.122227 0.113625 0.0787227
55 3 0.240346 0.117231 0.0601573
492 4 0.239324 0.117654 0.0399141
360 4 0.238901 0.162019 0.0733408
421 2 0.171816 0.160654 0.0213107
51 1 0.249275 0.125984 0.0791922
53 3 0.252955 0.148732 0.0764786
490 2 0.253859 0.114302 0.0198471
491 4 0.268394 0.110949 0.99978
54 3 0.269235 0.115275 0.0842253
758 4 0.414398 0.0785468 0.0202242
757 2 0.393852 0.0927373 0.0189196
759 4 0.373307 0.106928 0.017615
1014 4 0.453697 0.136743 0.0236944
1012 2 0.446214 0.125674 0.00256047
556 2 0.475462 0.134233 0.0486174
557 4 0.45933 0.149374 0.0369683
558 4 0.491593 0.119092 0.0602665
422 4 0.193015 0.173585 0.0242389
358 2 0.230608 0.180418 0.0585805
359 4 0.222314 0.198817 0.0438201
1233 4 0.215288 0.221588 0.0114244
1231 2 0.191558 0.22545 0.00455695
252 4 0.235524 0.222782 0.00537489
4211 4 0.295195 0.206036 0.0701507
354 4 0.307019 0.221613 0.0772522
739 2 0.233936 0.284754 0.0650206
741 4 0.2373 0.268362 0.0464422
245 4 0.249433 0.269116 0.0282757
244 2 0.26798 0.283488 0.0196346
246 4 0.286526 0.297859 0.0109934
386 4 0.298692 0.302743 0.0383806
385 2 0.311394 0.307505 0.0593845
1095 4 0.305841 0.292816 0.00921885
387 4 0.324096 0.312266 0.0803885
1045 2 0.383128 0.324842 0.00659264
3334 2 0.442272 0.277671 0.0772111
3336 4 0.440924 0.292119 0.0568489
535 2 0.0680717 0.411955 0.0503754
536 4 0.0493403 0.395396 0.0507118
292 2 0.167659 0.381252 0.023728
293 4 0.144471 0.382365 0.0330158
1104 4 0.125651 0.375172 0.0338824
1102 2 0.109102 0.386012 0.0185922
1103 4 0.092552 0.396852 0.00330205
294 4 0.190847 0.38014 0.0144402
955 2 0.221204 0.390384 0.0363785
956 4 0.24542 0.395135 0.0404001
957 4 0.196988 0.385633 0.0323569
782 4 0.264438 0.400823 0.0371147
781 2 0.287812 0.397054 0.0451538
272 4 0.324602 0.396787 0.0384929
783 4 0.311186 0.393285 0.0531928
271 2 0.337839 0.409511 0.0215215
1047 4 0.403988 0.333288 0.0174862
537 4 0.0868032 0.428514 0.050039
1439 4 0.0901959 0.480672 0.00262245
1438 2 0.100713 0.486824 0.0244567
639 4 0.11495 0.504505 0.0625318
1440 4 0.11123 0.492975 0.0462909
523 2 0.193165 0.426432 0.07274
525 4 0.188066 0.416885 0.0502006
1778 4 0.192447 0.435771 0.0444308
1777 2 0.193657 0.444582 0.0210625
273 4 0.351077 0.422236 0.00455013
228 4 0.400736 0.492434 0.00356201
381 4 0.0406229 0.0693381 0.100976
379 2 0.0633116 0.0672973 0.111283
2797 2 0.0106636 0.0730439 0.119628
380 4 0.0860003 0.0652565 0.121591
1564 2 0.140889 0.0143597 0.140574
1566 4 0.150392 0.0286193 0.122366
534 4 0.159689 0.0197569 0.10727
723 4 0.163668 0.0830556 0.162009
533 4 0.206593 0.0366281 0.10326
1506 4 0.204276 0.0425786 0.123117
1504 2 0.227179 0.0492672 0.130592
532 2 0.183141 0.0281925 0.105265
1505 4 0.250082 0.0559557 0.138067
461 4 0.249071 0.0692428 0.15273
582 4 0.366373 0.0781541 0.0916779
1109 4 0.45253 0.0341379 0.0958428
744 4 0.444945 0.0204421 0.163874
742 2 0.464785 0.00551327 0.160926
2799 4 0.034546 0.0796585 0.116303
577 2 0.0858942 0.138622 0.154554
371 4 0.108854 0.125534 0.125413
578 4 0.10243 0.140212 0.135867
370 2 0.11554 0.11958 0.102068
721 2 0.174565 0.0881742 0.140094
722 4 0.185462 0.0932929 0.11818
248 4 0.239274 0.134916 0.113066
247 2 0.218182 0.138195 0.126087
249 4 0.19709 0.141474 0.139109
52 3 0.234563 0.122855 0.0965968
690 4 0.198156 0.152191 0.155879
4212 4 0.28462 0.167013 0.0995804
567 4 0.329641 0.119824 0.121478
565 2 0.314282 0.135365 0.109322
581 4 0.332637 0.113478 0.102392
566 4 0.298923 0.150906 0.0971665
580 2 0.349505 0.0958163 0.0970351
2469 4 0.490977 0.0870763 0.143801
28 3 0.493255 0.0869424 0.123916
29 3 0.502339 0.119516 0.106572
30 3 0.470179 0.116625 0.125938
27 3 0.474111 0.098334 0.0936444
26 1 0.484923 0.105445 0.112662
296 4 0.464561 0.136519 0.12314
295 2 0.469083 0.158462 0.112038
555 4 0.0346299 0.230217 0.116048
553 2 0.0548687 0.233508 0.101739
2835 4 0.0147028 0.233223 0.119055
554 4 0.0751075 0.236799 0.0874307
464 4 0.160419 0.23052 0.13351
465 4 0.185957 0.225295 0.0908349
476 4 0.172335 0.233543 0.151595
463 2 0.173188 0.227908 0.112173
475 2 0.188197 0.22628 0.169506
338 4 0.241421 0.234129 0.126321
337 2 0.235242 0.246038 0.14742
4210 2 0.289907 0.186525 0.0848655
352 2 0.320776 0.23625 0.0921407
355 2 0.334705 0.24934 0.144591
324 4 0.395214 0.219423 0.0938873
629 4 0.413601 0.246812 0.170356
322 2 0.414439 0.234147 0.100113
323 4 0.433665 0.248871 0.106338
297 4 0.473605 0.180405 0.100937
763 2 0.486486 0.222791 0.161948
764 4 0.462867 0.228156 0.168155
630 4 0.462283 0.245377 0.159013
628 2 0.437942 0.246094 0.164684
2718 4 0.037984 0.313379 0.143425
299 4 0.0818441 0.255686 0.0881294
2716 2 0.0408856 0.292427 0.156758
298 2 0.0976218 0.27237 0.0980234
300 4 0.1134 0.289054 0.107917
363 4 0.124723 0.290116 0.124229
361 2 0.127645 0.314665 0.127965
740 4 0.230573 0.301146 0.083599
914 4 0.232723 0.320128 0.0775961
913 2 0.242917 0.327353 0.0992538
357 4 0.329934 0.261584 0.123319
353 4 0.334534 0.250886 0.107029
521 4 0.331627 0.326761 0.0910053
659 4 0.414603 0.277631 0.12206
658 2 0.398563 0.296621 0.12476
520 2 0.347678 0.324034 0.109981
522 4 0.36373 0.321307 0.128958
660 4 0.382524 0.315611 0.127461
3335 4 0.44362 0.263223 0.0975733
2618 4 0.0274547 0.404694 0.149523
1775 4 0.0402493 0.408905 0.134527
362 4 0.130568 0.339215 0.131701
738 4 0.126579 0.35571 0.122447
736 2 0.121864 0.379823 0.117811
737 4 0.117149 0.403937 0.113175
1619 4 0.231741 0.375575 0.112507
1618 2 0.24744 0.393407 0.104713
915 4 0.253111 0.334577 0.120912
1620 4 0.263138 0.41124 0.0969185
756 4 0.269298 0.344596 0.125041
754 2 0.292193 0.351209 0.132608
755 4 0.315088 0.357821 0.140174
303 4 0.318169 0.375848 0.149944
1776 4 0.0642655 0.444149 0.108416
1774 2 0.0522574 0.426527 0.121471
648 4 0.0846102 0.443755 0.110311
647 4 0.127684 0.418841 0.105348
646 2 0.106147 0.431298 0.10783
524 4 0.198265 0.435979 0.0952795
507 4 0.280794 0.420123 0.0956009
506 4 0.299324 0.441716 0.136723
505 2 0.290059 0.43092 0.116162
287 4 0.286041 0.447495 0.150697
498 4 0.419506 0.420202 0.168237
712 2 0.490966 0.447523 0.116746
713 4 0.484112 0.441689 0.140073
714 4 0.497821 0.453358 0.0934185
591 4 0.0377511 0.00411111 0.188577
3810 4 0.0281773 0.999685 0.172315
2481 4 0.0394312 0.0765763 0.189022
675 4 0.0897568 0.00187785 0.231885
673 2 0.111638 0.0132408 0.227729
674 4 0.133519 0.0246037 0.223573
285 4 0.147514 0.0371549 0.228474
283 2 0.165972 0.0296109 0.243558
2767 2 0.326968 0.0634161 0.199621
2768 4 0.307222 0.0581321 0.18522
2769 4 0.346713 0.0687 0.214021
331 2 0.380411 0.0518881 0.22575
332 4 0.405226 0.0488291 0.226024
333 4 0.355597 0.0549471 0.225476
1761 4 0.408532 0.0555137 0.206831
1759 2 0.423611 0.0401863 0.194069
1760 4 0.438691 0.0248589 0.181308
19 3 0.0102616 0.147628 0.172863
512 4 0.00538696 0.114623 0.208763
579 4 0.0693582 0.137032 0.173241
16 1 0.00144298 0.12764 0.180679
18 3 0.0175896 0.115974 0.192578
2479 2 0.0517131 0.0974985 0.182973
2480 4 0.0639949 0.118421 0.176924
511 2 0.0101017 0.114034 0.233311
1699 2 0.183945 0.144791 0.235566
1700 4 0.194535 0.129625 0.218743
688 2 0.200196 0.146304 0.180094
689 4 0.202236 0.140417 0.204309
460 2 0.258866 0.0844213 0.170018
462 4 0.268661 0.0995998 0.187305
528 4 0.261317 0.120658 0.233647
526 2 0.270313 0.132685 0.213656
527 4 0.279309 0.144711 0.193666
624 4 0.292755 0.15168 0.180934
366 4 0.00944397 0.177495 0.234318
616 2 0.0565492 0.210011 0.246066
617 4 0.0574427 0.209211 0.221091
545 4 0.0658214 0.226329 0.214284
544 2 0.0545919 0.243806 0.200368
477 4 0.204059 0.219016 0.187417
622 2 0.30424 0.169832 0.193732
13 3 0.330626 0.19975 0.213824
11 1 0.326271 0.220555 0.22313
14 3 0.315969 0.234236 0.207474
612 4 0.302853 0.247508 0.216899
12 3 0.312149 0.21786 0.241088
623 4 0.315725 0.187983 0.206531
356 4 0.339475 0.237096 0.165864
254 4 0.356803 0.232609 0.174971
15 3 0.345686 0.230113 0.230224
253 2 0.380487 0.23815 0.180764
312 4 0.357322 0.245253 0.236626
255 4 0.404171 0.24369 0.186556
708 4 0.44822 0.195051 0.237949
762 4 0.466821 0.245571 0.239006
546 4 0.0433624 0.261282 0.186452
2717 4 0.0437873 0.271475 0.17009
621 4 0.0725403 0.302513 0.192467
619 2 0.0810891 0.314912 0.212426
620 4 0.0896379 0.32731 0.232386
339 4 0.229063 0.257947 0.16852
401 4 0.228357 0.276394 0.176337
290 4 0.178549 0.286877 0.244801
289 2 0.180817 0.309508 0.234414
400 2 0.239471 0.290086 0.194062
402 4 0.250585 0.303778 0.211787
344 4 0.250158 0.298978 0.230992
610 2 0.303851 0.272435 0.215208
611 4 0.304848 0.297361 0.213518
308 4 0.296484 0.312634 0.223785
310 2 0.379175 0.254577 0.244415
761 4 0.418409 0.255541 0.246595
760 2 0.442615 0.250556 0.242801
2617 2 0.0393696 0.402038 0.171344
2619 4 0.0512845 0.399382 0.193166
2528 4 0.0704986 0.404468 0.198666
704 4 0.0813144 0.346349 0.230183
703 2 0.0877163 0.370325 0.233238
733 2 0.132332 0.410728 0.231307
734 4 0.156982 0.412501 0.227511
705 4 0.0941182 0.394301 0.236292
417 4 0.158879 0.392656 0.229099
735 4 0.107682 0.408954 0.235102
291 4 0.183085 0.332139 0.224028
415 2 0.172654 0.371792 0.22876
416 4 0.186428 0.350927 0.228421
1767 4 0.201588 0.405106 0.189958
307 2 0.307837 0.333747 0.216676
301 2 0.322871 0.372593 0.174285
309 4 0.31919 0.354859 0.209566
302 4 0.327573 0.369339 0.198626
2527 2 0.0802294 0.425828 0.207284
2529 4 0.0899601 0.447187 0.215903
1765 2 0.190689 0.425432 0.180302
1790 4 0.179876 0.463201 0.180386
1766 4 0.17979 0.445758 0.170646
1789 2 0.191474 0.484661 0.185878
768 4 0.26249 0.446222 0.248903
609 4 0.306776 0.489175 0.23694
286 2 0.299194 0.460842 0.167251
288 4 0.312347 0.474189 0.183805
608 4 0.303251 0.493093 0.187212
603 4 0.259953 0.428727 0.238371
607 2 0.305014 0.491134 0.212076
541 2 0.383806 0.458518 0.226307
543 4 0.39241 0.442887 0.20879
497 4 0.397654 0.423599 0.213089
542 4 0.375202 0.474148 0.243824
496 2 0.40858 0.4219 0.190663
1872 4 0.498444 0.496783 0.22515
753 4 0.434271 0.430503 0.241814
1870 2 0.486934 0.485919 0.244507
692 4 0.0244863 0.0629021 0.297354
691 2 0.0154292 0.0825871 0.284878
1404 4 0.229649 0.996302 0.284537
284 4 0.184431 0.0220669 0.258643
1402 2 0.208416 0.00921901 0.281799
1403 4 0.187184 0.0221363 0.279061
1427 4 0.349239 0.0450044 0.291745
1426 2 0.370339 0.0368667 0.302411
1428 4 0.391438 0.028729 0.313076
258 4 0.399286 0.0266871 0.330249
2662 2 0.48756 0.0211243 0.279979
1517 4 0.492176 0.0567081 0.278588
2663 4 0.479787 0.0440057 0.286398
513 4 0.0148164 0.113446 0.257859
693 4 0.00637204 0.102272 0.272402
1701 4 0.173356 0.159958 0.25239
633 4 0.384776 0.158041 0.300714
2897 4 0.000230181 0.216941 0.280999
618 4 0.0556556 0.210812 0.271041
392 4 0.0170715 0.223621 0.288628
391 2 0.0318286 0.21838 0.30812
393 4 0.0465858 0.213138 0.327612
2463 4 0.0701213 0.1975 0.272764
2461 2 0.0919821 0.195298 0.284699
399 4 0.118409 0.203364 0.313099
2462 4 0.113843 0.193096 0.296633
410 4 0.189754 0.169018 0.257574
409 2 0.191341 0.187019 0.274855
489 4 0.180667 0.201568 0.307828
411 4 0.192928 0.205021 0.292135
487 2 0.194225 0.208306 0.327726
641 4 0.326059 0.218423 0.301446
640 2 0.306304 0.224716 0.315421
642 4 0.286548 0.231009 0.329397
404 4 0.377893 0.176365 0.298712
405 4 0.335911 0.202963 0.293165
403 2 0.356902 0.189664 0.295939
631 2 0.407241 0.168412 0.297119
632 4 0.429706 0.178783 0.293524
707 4 0.442213 0.193865 0.28758
706 2 0.445216 0.194458 0.262764
343 2 0.243589 0.311546 0.251585
345 4 0.23702 0.324115 0.272178
279 4 0.228919 0.323673 0.289946
311 4 0.401028 0.263901 0.252204
277 2 0.222235 0.345097 0.30097
278 4 0.215551 0.36652 0.311994
601 2 0.25751 0.412993 0.257649
602 4 0.255066 0.397259 0.276927
117 3 0.417251 0.417896 0.304059
336 4 0.453946 0.357549 0.24989
334 2 0.443924 0.369982 0.26913
335 4 0.433903 0.382415 0.28837
118 3 0.444915 0.392556 0.301773
116 1 0.436078 0.409816 0.314518
1861 2 0.165657 0.477004 0.320402
1862 4 0.156443 0.45847 0.33443
1863 4 0.174871 0.495538 0.306374
766 2 0.259816 0.47061 0.253724
767 4 0.257141 0.494998 0.258546
230 4 0.313216 0.465714 0.288075
1455 4 0.329242 0.4671 0.299588
229 2 0.31685 0.481295 0.268861
1453 2 0.334591 0.456902 0.321782
119 3 0.451562 0.426993 0.316414
1871 4 0.475425 0.475055 0.263863
752 4 0.415168 0.429103 0.288008
751 2 0.424719 0.429803 0.264911
2861 4 0.471688 0.493094 0.270533
2860 2 0.47211 0.499029 0.294819
1772 4 0.0796526 0.00538807 0.385908
1771 2 0.103881 0.00732623 0.391773
2238 4 0.147421 0.00539303 0.397673
2236 2 0.154405 0.0285646 0.403957
1773 4 0.12811 0.00926439 0.397638
2237 4 0.161388 0.0517362 0.410241
1057 2 0.189615 0.0792976 0.413534
1058 4 0.172606 0.0658703 0.401061
256 2 0.404839 0.0126588 0.350188
1376 4 0.0144106 0.0972039 0.377555
1377 4 0.0105214 0.144543 0.393195
317 4 0.0170715 0.162875 0.395955
1375 2 0.012466 0.120873 0.385375
730 2 0.147079 0.152249 0.36913
731 4 0.1572 0.130762 0.376942
1406 4 0.176091 0.125019 0.374383
1405 2 0.199866 0.129811 0.368303
1407 4 0.223641 0.134603 0.362223
684 4 0.242447 0.126112 0.360892
588 4 0.213488 0.149768 0.423797
682 2 0.266186 0.132869 0.364892
683 4 0.289924 0.139627 0.368891
474 4 0.30286 0.152002 0.359703
472 2 0.311885 0.157957 0.382248
316 2 0.0372402 0.177591 0.397317
318 4 0.057409 0.192306 0.398679
732 4 0.136957 0.173736 0.361318
398 4 0.119298 0.185388 0.359755
397 2 0.118854 0.194376 0.336427
677 4 0.219749 0.229739 0.344494
488 4 0.207784 0.215045 0.347625
587 4 0.225154 0.193999 0.403593
586 2 0.219321 0.171884 0.413695
431 4 0.226012 0.20068 0.385208
430 2 0.233577 0.22238 0.39506
432 4 0.241141 0.24408 0.404912
473 4 0.32091 0.163912 0.404793
1220 4 0.13003 0.308896 0.367112
1219 2 0.128061 0.292846 0.386182
1221 4 0.126092 0.276796 0.405253
383 4 0.126181 0.273856 0.424797
676 2 0.22428 0.254083 0.347958
678 4 0.228812 0.278428 0.351422
389 4 0.218384 0.289438 0.3395
390 4 0.177304 0.315671 0.350679
388 2 0.197844 0.302554 0.34509
3 3 0.234552 0.284525 0.39355
2 3 0.245601 0.315371 0.375137
446 4 0.226714 0.320895 0.375241
4 3 0.24794 0.281965 0.358073
1 1 0.249923 0.293012 0.378381
5 3 0.271048 0.290561 0.38653
615 4 0.282733 0.279565 0.399179
613 2 0.29845 0.294506 0.411625
576 4 0.259978 0.24264 0.412605
433 2 0.381902 0.309451 0.357196
435 4 0.385663 0.293237 0.375854
434 4 0.378141 0.325665 0.338537
650 4 0.360789 0.327714 0.41997
267 4 0.353425 0.242296 0.408404
679 2 0.0354405 0.382951 0.385705
681 4 0.0108671 0.384477 0.390064
680 4 0.0600138 0.381426 0.381346
408 4 0.0708461 0.378291 0.363344
1383 4 0.0927644 0.333652 0.371322
406 2 0.0816678 0.398517 0.353396
1382 4 0.0704965 0.368756 0.399117
1381 2 0.0816304 0.351204 0.38522
504 4 0.1634 0.391774 0.403376
436 2 0.215538 0.392311 0.335466
437 4 0.208558 0.368735 0.330922
438 4 0.222518 0.415886 0.340011
445 2 0.226957 0.342448 0.387912
447 4 0.227199 0.364002 0.400583
414 4 0.238766 0.425633 0.337691
930 4 0.228646 0.380383 0.410626
668 4 0.385091 0.403991 0.356336
926 4 0.400682 0.40806 0.368947
120 3 0.430449 0.402111 0.335196
326 4 0.0682371 0.432953 0.408687
2629 2 0.00652554 0.47242 0.366562
2630 4 0.0254974 0.488626 0.368176
407 4 0.0924894 0.418744 0.343448
1758 4 0.148008 0.446622 0.349651
1757 4 0.101856 0.429574 0.3586
1756 2 0.124932 0.438098 0.354125
500 4 0.18025 0.490535 0.416688
1435 2 0.303173 0.430901 0.394329
412 2 0.259527 0.424179 0.35155
413 4 0.280287 0.422725 0.365408
1436 4 0.297438 0.432792 0.370065
1585 2 0.334182 0.477542 0.406216
108 3 0.359928 0.488397 0.376108
1454 4 0.339941 0.446703 0.343976
667 2 0.363368 0.414969 0.350609
669 4 0.341646 0.425947 0.344882
1802 4 0.388863 0.471977 0.345998
109 3 0.380373 0.491064 0.344182
1586 4 0.34231 0.483415 0.383312
1801 2 0.413121 0.466049 0.34726
1471 2 0.418502 0.497299 0.395979
2925 4 0.499467 0.430129 0.340648
925 2 0.421883 0.416855 0.378864
2923 2 0.47705 0.440693 0.34398
2924 4 0.454634 0.451256 0.347312
1472 4 0.437614 0.486727 0.40815
1803 4 0.437378 0.460121 0.348523
927 4 0.443084 0.425651 0.38878
1742 4 0.457346 0.428636 0.40359
1741 2 0.454496 0.452187 0.411489
1800 4 0.00492784 0.0335643 0.437244
685 2 0.0811492 0.0246659 0.481295
686 4 0.0857506 0.047757 0.47288
1601 4 0.0940983 0.0576632 0.48962
1600 2 0.112107 0.0703721 0.501425
319 2 0.236782 0.999914 0.493925
320 4 0.241317 0.0144609 0.474101
1782 4 0.185322 0.0569238 0.463707
1780 2 0.204661 0.0421776 0.469514
1781 4 0.224001 0.0274314 0.475321
899 4 0.292723 0.0210682 0.440839
1151 4 0.267249 0.0795155 0.492784
717 4 0.477795 0.0808334 0.491134
1035 4 0.0623163 0.135978 0.489194
1033 2 0.0413043 0.149142 0.492419
1034 4 0.0202924 0.162305 0.495645
2847 4 0.0105586 0.164731 0.477155
1059 4 0.206625 0.0927248 0.426006
1150 2 0.246171 0.0910805 0.485916
340 2 0.213915 0.120815 0.444871
342 4 0.216246 0.129829 0.421665
341 4 0.211583 0.111802 0.468077
1152 4 0.225094 0.102645 0.479047
715 2 0.490598 0.0912875 0.472374
574 2 0.26905 0.242274 0.435902
575 4 0.278121 0.241908 0.459199
266 4 0.36545 0.247441 0.45667
265 2 0.359438 0.244869 0.432537
466 2 0.418294 0.244467 0.495644
382 2 0.150219 0.274122 0.431674
384 4 0.174257 0.274387 0.438551
510 4 0.188943 0.286302 0.446289
508 2 0.18846 0.308472 0.457841
509 4 0.187977 0.330642 0.469392
614 4 0.314167 0.309448 0.424071
376 2 0.402357 0.286999 0.45558
649 2 0.362792 0.324095 0.444629
377 4 0.388192 0.301932 0.441384
378 4 0.416523 0.272066 0.469776
811 2 0.344785 0.330985 0.497939
651 4 0.364795 0.320476 0.469288
467 4 0.421322 0.252933 0.472313
2667 4 0.997372 0.339653 0.418086
327 4 0.0827041 0.390786 0.431344
325 2 0.0754706 0.411869 0.420015
502 2 0.150326 0.384467 0.423398
503 4 0.137251 0.377161 0.44342
710 4 0.188618 0.345718 0.483087
928 2 0.235731 0.380346 0.434605
929 4 0.242816 0.380309 0.458584
791 4 0.255809 0.382789 0.472747
583 2 0.32652 0.401714 0.44908
790 2 0.261747 0.404312 0.484003
584 4 0.335045 0.386398 0.466911
773 4 0.331818 0.380653 0.485778
3309 4 0.363814 0.411913 0.464258
812 4 0.358801 0.337596 0.478318
499 2 0.162788 0.489431 0.434549
547 2 0.105091 0.497678 0.46944
548 4 0.125291 0.49026 0.456709
501 4 0.145325 0.488327 0.45241
1821 4 0.241592 0.449221 0.462645
880 2 0.219595 0.495538 0.491258
2154 4 0.309162 0.469178 0.439664
585 4 0.317995 0.417031 0.43125
1556 4 0.255073 0.498575 0.433523
1820 4 0.268173 0.48676 0.443025
1437 4 0.308908 0.42901 0.418592
1819 2 0.254882 0.46799 0.452835
1587 4 0.326054 0.471668 0.429121
2152 2 0.304639 0.488059 0.45542
792 4 0.267684 0.425835 0.495258
3307 2 0.374486 0.421922 0.484534
3603 4 0.492293 0.453604 0.493104
3601 2 0.497853 0.436235 0.475999
1698 4 0.502229 0.470025 0.48765
1743 4 0.451645 0.475739 0.419388
3043 2 0.0137473 0.043933 0.5567
3044 4 0.0239792 0.0584533 0.539103
458 4 0.0232423 0.0757685 0.529918
3045 4 0.00351544 0.0294127 0.574297
1602 4 0.130115 0.0830809 0.513231
1284 4 0.140817 0.0882605 0.529033
894 4 0.318802 0.0697069 0.538184
892 2 0.299098 0.0705859 0.522816
1164 4 0.334054 0.0741717 0.526878
893 4 0.279394 0.0714649 0.507449
457 2 0.0376247 0.0926732 0.541432
459 4 0.052007 0.109578 0.552945
1155 4 0.0445103 0.106777 0.571361
1282 2 0.149044 0.0947706 0.551729
1283 4 0.157271 0.101281 0.574425
858 4 0.300987 0.16213 0.533296
1162 2 0.348224 0.0947641 0.527485
605 4 0.366539 0.130124 0.515516
1163 4 0.362393 0.115356 0.528093
604 2 0.369722 0.15483 0.513353
46 1 0.495806 0.159315 0.582375
49 3 0.472688 0.157381 0.582845
3275 4 0.0130071 0.191757 0.569683
3274 2 0.0231026 0.213149 0.577786
857 4 0.329516 0.194853 0.558116
275 4 0.317975 0.208474 0.549648
856 2 0.315252 0.178492 0.545706
274 2 0.319875 0.233147 0.553231
606 4 0.372904 0.179536 0.511191
3158 4 0.362283 0.195156 0.519217
3157 2 0.381764 0.209922 0.524476
3159 4 0.401245 0.224687 0.529734
468 4 0.415265 0.236002 0.518975
696 4 0.13558 0.279854 0.542669
569 4 0.144787 0.295473 0.551332
568 2 0.160392 0.314047 0.545276
694 2 0.121095 0.267399 0.558802
695 4 0.106611 0.254945 0.574935
276 4 0.321776 0.257819 0.556813
635 4 0.321161 0.277107 0.554411
634 2 0.328924 0.291146 0.535232
813 4 0.330769 0.324374 0.517561
636 4 0.336687 0.305184 0.516053
261 4 0.0500989 0.340377 0.554941
259 2 0.0699734 0.342974 0.569889
3108 4 0.051592 0.360443 0.547876
3106 2 0.0454398 0.371179 0.526149
3107 4 0.0392875 0.381915 0.504422
373 2 0.118243 0.38582 0.574611
375 4 0.0974198 0.397403 0.567035
1446 4 0.0964291 0.4127 0.55247
1190 4 0.158131 0.379748 0.58135
374 4 0.139066 0.374237 0.582187
570 4 0.175996 0.332621 0.53922
711 4 0.16533 0.343617 0.527291
1189 2 0.175172 0.362414 0.575491
1191 4 0.192213 0.34508 0.569632
709 2 0.176974 0.344667 0.505189
239 4 0.294791 0.409942 0.525228
772 2 0.314334 0.385438 0.503001
238 2 0.288976 0.413133 0.549335
774 4 0.29685 0.390222 0.520223
2457 4 0.425567 0.35879 0.51222
2455 2 0.448197 0.357453 0.522769
2456 4 0.470827 0.356115 0.533318
807 4 0.469193 0.371267 0.546516
805 2 0.487612 0.375422 0.562906
1173 4 0.0235639 0.492785 0.582943
2171 4 0.101523 0.48127 0.558702
1445 4 0.103011 0.461762 0.559563
1444 2 0.0997203 0.437231 0.556016
882 4 0.232047 0.483433 0.509246
1239 4 0.249686 0.473683 0.51403
240 4 0.28316 0.416323 0.573443
1237 2 0.265026 0.454125 0.511324
1238 4 0.280366 0.434566 0.508618
3308 4 0.385157 0.431932 0.504809
2140 2 0.432583 0.433722 0.561468
2142 4 0.431397 0.429439 0.536863
2215 2 0.463194 0.496311 0.55841
2216 4 0.473222 0.478866 0.543568
3267 4 0.000301804 0.051568 0.618549
911 4 0.153723 0.0522283 0.656745
1226 4 0.144959 0.0694831 0.66338
910 2 0.176757 0.0482805 0.647856
912 4 0.199791 0.0443326 0.638966
921 4 0.206502 0.0324462 0.624439
919 2 0.226089 0.0233309 0.611852
920 4 0.245676 0.0142156 0.599264
938 4 0.297594 0.0731515 0.65598
43 3 0.334618 0.0435352 0.636541
41 1 0.345011 0.0364604 0.656043
796 2 0.340226 0.0764905 0.61843
798 4 0.350148 0.0549046 0.626227
44 3 0.367943 0.0395903 0.654383
3268 2 0.391126 0.0574959 0.632922
3270 4 0.36728 0.0516001 0.63759
3269 4 0.414972 0.0633916 0.628253
45 3 0.340419 0.0144654 0.659756
4581 4 0.423606 0.0450075 0.627812
4579 2 0.447862 0.0389498 0.627483
4580 4 0.472119 0.032892 0.627154
3437 4 0.48177 0.0352202 0.610307
1153 2 0.0604533 0.122096 0.583037
1154 4 0.0763964 0.137415 0.594713
2374 2 0.0797414 0.135704 0.636958
2376 4 0.0780893 0.144437 0.613587
1225 2 0.141936 0.094215 0.66129
1227 4 0.138912 0.118947 0.659199
1130 4 0.15033 0.135949 0.658398
2375 4 0.0813936 0.12697 0.660328
824 4 0.168707 0.0912525 0.588839
2133 4 0.216725 0.123926 0.629027
2131 2 0.241192 0.120082 0.625597
825 4 0.20166 0.114136 0.618691
823 2 0.185184 0.102694 0.603765
797 4 0.330304 0.0980763 0.610633
937 2 0.286709 0.0861685 0.637615
2132 4 0.265659 0.116238 0.622168
939 4 0.275824 0.0991855 0.619251
4467 4 0.416398 0.164618 0.606349
4465 2 0.440087 0.168519 0.599363
3276 4 0.0331981 0.234541 0.585888
852 4 0.0249905 0.236839 0.603413
850 2 0.0395787 0.247171 0.620895
2990 4 0.00375086 0.222452 0.657051
1259 4 0.0995973 0.232538 0.64742
1245 4 0.112274 0.235501 0.631423
4466 4 0.463776 0.17242 0.592378
3037 2 0.0672409 0.278105 0.662528
851 4 0.054167 0.257504 0.638377
3039 4 0.0619976 0.254436 0.656406
1243 2 0.110449 0.250299 0.611352
1244 4 0.108625 0.265097 0.59128
1024 2 0.454025 0.319013 0.650151
1026 4 0.461172 0.29947 0.664014
10 3 0.00375596 0.36733 0.637873
6 1 0.0203699 0.378717 0.648502
9 3 0.0154025 0.401378 0.648953
7 3 0.0401284 0.37566 0.637126
897 4 0.0573261 0.367279 0.636029
895 2 0.0750318 0.358801 0.620544
260 4 0.0898479 0.345571 0.584837
896 4 0.0927375 0.350323 0.605058
1137 4 0.177077 0.378675 0.658997
1135 2 0.171147 0.402945 0.658009
877 2 0.183874 0.344326 0.665337
878 4 0.193312 0.3674 0.663425
1193 4 0.403868 0.342977 0.585863
1952 4 0.376402 0.41805 0.628073
1192 2 0.423369 0.342165 0.60149
1194 4 0.442871 0.341353 0.617117
1025 4 0.446879 0.338556 0.636288
2139 4 0.00926346 0.419982 0.645401
2170 2 0.102605 0.49443 0.579934
935 4 0.123152 0.442987 0.624263
934 2 0.139004 0.444091 0.643567
1136 4 0.165218 0.427215 0.65702
936 4 0.154856 0.445195 0.662872
891 4 0.250587 0.43355 0.653027
1002 4 0.258615 0.45203 0.64811
1000 2 0.266594 0.47142 0.634489
1001 4 0.274574 0.490811 0.620868
1953 4 0.336354 0.41407 0.657755
1269 4 0.344686 0.488908 0.59348
661 2 0.408828 0.417618 0.616117
663 4 0.394308 0.408158 0.63414
1910 4 0.360523 0.48639 0.604254
1909 2 0.3813 0.493836 0.616003
1951 2 0.356378 0.41606 0.642914
2141 4 0.433769 0.438006 0.586074
662 4 0.423348 0.427078 0.598093
1251 4 0.421604 0.463502 0.674007
1184 4 0.0833081 0.00300044 0.746287
1202 4 0.113043 0.0480669 0.717535
1201 2 0.100428 0.0350744 0.734775
1203 4 0.087812 0.0220819 0.752015
1106 4 0.187563 0.0716842 0.742053
2049 4 0.181691 0.0689795 0.72219
2230 2 0.224064 0.00722217 0.683057
2231 4 0.208851 0.026648 0.679011
2048 4 0.206984 0.0336223 0.697475
2047 2 0.194338 0.0513009 0.709833
1005 4 0.310978 0.0379788 0.720031
1003 2 0.305284 0.0621751 0.722731
42 3 0.337059 0.0489388 0.673656
2265 4 0.463432 0.0849156 0.739408
1082 4 0.101386 0.119629 0.736746
1129 2 0.165712 0.154549 0.664922
1131 4 0.181095 0.17315 0.671447
1004 4 0.299589 0.0863715 0.725431
1141 2 0.324472 0.112825 0.713378
977 4 0.282944 0.132782 0.733825
1143 4 0.31697 0.0936001 0.727495
976 2 0.263547 0.128912 0.74912
1212 4 0.33258 0.148452 0.710493
1142 4 0.331975 0.132051 0.699262
1258 2 0.11366 0.234407 0.66801
1260 4 0.127723 0.236277 0.688599
1210 2 0.319686 0.169833 0.70915
907 2 0.3175 0.217175 0.739882
909 4 0.316152 0.20438 0.718443
1211 4 0.306792 0.191213 0.707808
1166 4 0.411894 0.225221 0.746836
984 4 0.0716137 0.321538 0.668736
3038 4 0.0724841 0.301773 0.66865
879 4 0.174436 0.321251 0.667249
1209 4 0.186171 0.306658 0.674782
946 2 0.225762 0.258999 0.722987
1208 4 0.201049 0.27684 0.712067
948 4 0.202303 0.256023 0.714863
1207 2 0.19361 0.291749 0.693424
947 4 0.249221 0.261975 0.73111
1029 4 0.245847 0.282398 0.725382
1027 2 0.262718 0.30034 0.729701
1228 2 0.317173 0.310665 0.714002
1230 4 0.295629 0.309501 0.726639
1028 4 0.279588 0.318283 0.734019
1229 4 0.338717 0.311829 0.701365
1165 2 0.410382 0.2492 0.739917
2986 2 0.362631 0.318294 0.683033
1167 4 0.40887 0.273179 0.732997
2987 4 0.385336 0.328739 0.683784
2988 4 0.339927 0.307848 0.682281
1096 2 0.406658 0.306551 0.743069
1097 4 0.397662 0.289045 0.727649
3370 2 0.488096 0.275321 0.690704
3372 4 0.47607 0.291715 0.676151
8 3 0.022859 0.370721 0.670141
983 4 0.0392488 0.359658 0.669016
4481 4 0.0418693 0.394548 0.734154
982 2 0.0554313 0.340598 0.668876
4480 2 0.0583026 0.39423 0.715312
4482 4 0.0747359 0.393913 0.69647
539 4 0.0892517 0.395935 0.683239
2446 2 0.107479 0.376013 0.739502
2448 4 0.122922 0.383805 0.721448
1160 4 0.206221 0.414388 0.744495
1161 4 0.17826 0.373238 0.749556
1159 2 0.192241 0.393813 0.747026
1064 4 0.391015 0.345909 0.673253
1063 2 0.409977 0.358973 0.682998
1065 4 0.428938 0.372037 0.692744
1018 2 0.434697 0.359557 0.744881
1020 4 0.445437 0.375828 0.729226
4485 4 0.434426 0.386515 0.716741
4483 2 0.428036 0.410333 0.720873
4176 4 0.00966983 0.46616 0.700428
4174 2 0.0257414 0.461211 0.718931
4175 4 0.041813 0.456261 0.737435
538 2 0.097767 0.419288 0.685942
540 4 0.106282 0.442641 0.688645
2015 4 0.122259 0.438467 0.701077
2014 2 0.142902 0.444785 0.713691
2016 4 0.163546 0.451103 0.726305
2213 4 0.157371 0.469745 0.730142
2212 2 0.161234 0.48323 0.750841
1187 4 0.203638 0.434096 0.742502
1186 2 0.216608 0.445851 0.724649
1188 4 0.229579 0.457605 0.706795
890 4 0.231919 0.438776 0.699124
889 2 0.241253 0.436163 0.676075
1138 2 0.350552 0.43171 0.734908
1250 4 0.408793 0.450046 0.720434
1140 4 0.349467 0.431133 0.709935
1249 2 0.415198 0.456774 0.697221
4484 4 0.421646 0.43415 0.725006
2113 2 0.0725628 0.0526092 0.821637
2114 4 0.0550908 0.0347788 0.823044
2115 4 0.0900349 0.0704397 0.82023
945 4 0.106701 0.0716842 0.810212
1105 2 0.165283 0.0700426 0.753281
1107 4 0.143003 0.068401 0.76451
943 2 0.12736 0.0680504 0.796604
944 4 0.14802 0.0644165 0.782996
1090 2 0.306798 0.010403 0.775667
1084 2 0.313376 0.0737767 0.794372
1092 4 0.313479 0.0343432 0.77839
1085 4 0.319991 0.0508198 0.786996
1145 4 0.436306 0.997554 0.803859
1144 2 0.435344 0.0212734 0.796008
1146 4 0.434382 0.0449929 0.788157
2264 4 0.446243 0.0556003 0.776094
2263 2 0.454837 0.0702579 0.757751
3296 4 0.0110808 0.166329 0.822304
1294 2 0.030271 0.152191 0.788049
1295 4 0.0365039 0.138862 0.767833
1083 4 0.0803893 0.13977 0.777418
1081 2 0.0908878 0.1297 0.757082
830 4 0.238929 0.090927 0.810452
826 2 0.23623 0.146079 0.802372
828 4 0.235694 0.154725 0.825827
827 4 0.236766 0.137433 0.778916
978 4 0.24415 0.125043 0.764416
1086 4 0.306762 0.0967336 0.801749
831 4 0.288293 0.0909484 0.802457
829 2 0.263611 0.0909377 0.806455
1296 4 0.0240381 0.165519 0.808265
908 4 0.318849 0.22997 0.761322
1234 2 0.32379 0.236846 0.794807
1241 4 0.298485 0.239741 0.830101
1235 4 0.311971 0.243423 0.815836
1236 4 0.335609 0.230268 0.773778
3362 4 0.497567 0.188243 0.797036
1054 2 0.0131104 0.252787 0.782333
1055 4 0.0297345 0.252715 0.801009
3338 4 0.037881 0.256881 0.818934
2358 4 0.0501978 0.333441 0.776397
3142 2 0.130991 0.289758 0.823257
3143 4 0.128439 0.302245 0.801746
869 4 0.244454 0.24918 0.828528
1240 2 0.276479 0.247146 0.820823