ITEM: TIMESTEP
1920000
ITEM: NUMBER OF ATOMS
4590
ITEM: BOX BOUNDS pp pp pp
-9.9985700000000008e+00 9.9985700000000008e+00
-9.9985700000000008e+00 9.9985700000000008e+00
-9.9985700000000008e+00 9.9985700000000008e+00
ITEM: ATOMS id type xs ys zs
577 2 0.0766092 0.0213043 0.0703392
393 4 0.00316198 0.0595389 0.0535241
578 4 0.0847266 0.0087541 0.0502948
1329 4 0.163445 0.0780101 0.042164
1327 2 0.173046 0.0610819 0.057862
1328 4 0.182648 0.0441537 0.07356
1072 2 0.0682496 0.161454 0.0378655
1286 4 0.0304243 0.15507 0.0230317
1073 4 0.0500253 0.160113 0.0207992
1285 2 0.026868 0.166851 0.00126574
995 4 0.152181 0.0886874 0.0287255
465 4 0.134668 0.085586 0.0171034
18 3 0.129528 0.165146 0.0749109
17 3 0.10528 0.165289 0.0461943
994 2 0.166462 0.108884 0.0323755
996 4 0.180743 0.129081 0.0360254
358 2 0.266113 0.151875 0.0226828
359 4 0.278088 0.13038 0.018239
581 4 0.277357 0.112013 0.00792395
580 2 0.301061 0.107229 0.0142832
582 4 0.324765 0.102446 0.0206425
770 4 0.387996 0.148405 4.54507e-06
746 4 0.343731 0.098159 0.0181264
745 2 0.360675 0.115531 0.0121013
747 4 0.377619 0.132903 0.00607631
2770 2 0.993984 0.22826 0.0215531
448 2 0.0790356 0.233814 0.0777971
449 4 0.0579587 0.247244 0.0770305
2772 4 0.997844 0.222337 0.0455363
1074 4 0.0864738 0.162794 0.0549318
19 3 0.138644 0.182114 0.0421483
16 1 0.121446 0.177543 0.0570394
450 4 0.100113 0.220385 0.0785638
20 3 0.112317 0.196998 0.0645755
700 2 0.182255 0.240601 0.0236676
701 4 0.1947 0.228161 0.00590426
1254 4 0.208683 0.21735 0.012928
1252 2 0.227055 0.203702 0.0229967
867 4 0.236615 0.226051 0.0765202
1253 4 0.245428 0.190055 0.0330653
54 3 0.244766 0.221698 0.0600501
360 4 0.254137 0.173369 0.0271265
51 1 0.26641 0.214524 0.0643469
55 3 0.278129 0.231013 0.0748089
53 3 0.276919 0.208718 0.0444912
12 3 0.327069 0.239825 0.0413231
15 3 0.3117 0.245531 0.0748512
567 4 0.343764 0.229422 0.0363126
565 2 0.360938 0.219697 0.0209621
566 4 0.378113 0.209973 0.00561169
1053 4 0.42334 0.247717 0.0070009
286 2 0.0787984 0.300362 0.019008
287 4 0.0548872 0.307385 0.0210343
702 4 0.169809 0.253042 0.0414309
288 4 0.10271 0.293339 0.0169817
293 4 0.120711 0.299506 0.0216766
292 2 0.132134 0.285531 0.0389797
294 4 0.143557 0.271557 0.0562827
506 4 0.150919 0.288539 0.0639662
505 2 0.171873 0.288208 0.0776037
623 4 0.316891 0.266246 0.031299
622 2 0.311534 0.270718 0.00728905
14 3 0.312241 0.273377 0.0495138
241 2 0.322455 0.320088 0.0419162
11 1 0.323779 0.255183 0.0581303
242 4 0.308193 0.333594 0.0573874
13 3 0.344435 0.262004 0.0662065
243 4 0.336717 0.306582 0.0264451
665 4 0.395105 0.293425 0.0408902
664 2 0.374034 0.298451 0.0284023
666 4 0.352964 0.303476 0.0159144
518 4 0.41384 0.2966 0.0483301
517 2 0.423887 0.295576 0.0712033
535 2 0.0222326 0.388309 0.0625745
536 4 0.0400722 0.389615 0.0451039
252 4 0.0760485 0.419905 0.0463887
627 4 0.323872 0.342369 0.0669097
789 4 0.25543 0.424782 0.00840756
3213 4 0.35581 0.367216 0.017146
2386 2 0.372246 0.400599 0.0251129
2387 4 0.392169 0.415683 0.0259609
2388 4 0.352322 0.385516 0.0242649
3211 2 0.339043 0.355063 0.00313345
1071 4 0.482888 0.416291 0.0321881
1069 2 0.471162 0.397666 0.0203216
1070 4 0.459437 0.379042 0.00845508
250 2 0.0932182 0.427103 0.063079
251 4 0.110388 0.434301 0.0797694
1777 2 0.179919 0.488411 0.0700426
1224 4 0.179483 0.452919 0.0181076
1288 2 0.213032 0.481098 0.0169384
1290 4 0.19613 0.462696 0.0160288
787 2 0.233289 0.425143 0.996796
40 3 0.40247 0.414111 0.00837852
37 3 0.400556 0.451116 0.00391815
36 1 0.414357 0.432742 0.00287806
525 4 0.448591 0.474772 0.0469387
659 4 0.46465 0.474945 0.0603077
39 3 0.431868 0.435658 0.0178195
658 2 0.461667 0.468466 0.0842722
1674 4 0.488986 0.436581 0.0358964
523 2 0.456384 0.488919 0.0278522
1672 2 0.501629 0.452548 0.0213921
391 2 0.0181029 0.0530842 0.0725053
392 4 0.0330437 0.0466294 0.0914864
579 4 0.0684918 0.0338544 0.0903837
591 4 0.0535278 0.0856934 0.0953058
589 2 0.0757632 0.0854672 0.106739
653 4 0.324465 0.0334829 0.0856874
2161 2 0.306683 0.998924 0.0982292
462 4 0.287805 0.0370412 0.142573
573 4 0.288674 0.0253425 0.158912
2163 4 0.323232 0.0139216 0.0869871
460 2 0.2749 0.0570722 0.134996
571 2 0.312551 0.0252917 0.166335
461 4 0.261996 0.0771032 0.127419
652 2 0.334721 0.0462669 0.10457
654 4 0.344978 0.0590509 0.123453
25 3 0.352531 0.0668184 0.139875
2723 4 0.394462 0.0311999 0.143319
24 3 0.37455 0.0363611 0.137607
21 1 0.36239 0.0501101 0.151803
629 4 0.405589 0.0816559 0.116916
2722 2 0.39774 0.023415 0.119785
22 3 0.346119 0.0375755 0.162161
2724 4 0.401018 0.01563 0.0962518
1109 4 0.42142 0.0916446 0.122822
1606 2 0.464305 0.0174085 0.102899
1607 4 0.457965 0.0386904 0.114391
1110 4 0.457633 0.0580091 0.115205
1108 2 0.439526 0.0748269 0.119013
590 4 0.0979986 0.085241 0.118172
691 2 0.0950077 0.105348 0.156269
692 4 0.0944403 0.0875865 0.138679
476 4 0.178821 0.128628 0.158798
237 4 0.238315 0.123771 0.119864
423 4 0.217811 0.124498 0.115682
421 2 0.198035 0.131578 0.129244
422 4 0.178259 0.138658 0.142807
235 2 0.256368 0.106518 0.118584
236 4 0.27442 0.0892662 0.117304
628 2 0.391264 0.099639 0.107087
630 4 0.37694 0.117622 0.0972587
557 4 0.388273 0.131424 0.105592
556 2 0.399357 0.153803 0.106813
2760 4 0.111011 0.204362 0.0834604
2758 2 0.12245 0.209744 0.105032
2759 4 0.13389 0.215126 0.126604
381 4 0.123947 0.225661 0.140592
379 2 0.14418 0.228744 0.154955
380 4 0.164412 0.231827 0.169319
865 2 0.224133 0.23774 0.0947607
866 4 0.21165 0.24943 0.113001
749 4 0.174462 0.248703 0.164882
52 3 0.265541 0.196022 0.0779873
558 4 0.41044 0.176183 0.108033
2895 4 0.486331 0.188989 0.139979
2937 4 0.469771 0.200703 0.136232
2935 2 0.453046 0.209433 0.15264
362 4 0.0385427 0.254879 0.0742191
361 2 0.026193 0.259838 0.095387
363 4 0.0138434 0.264796 0.116555
507 4 0.192828 0.287876 0.0912412
956 4 0.197497 0.306515 0.0976611
955 2 0.221561 0.30676 0.104447
508 2 0.202673 0.327052 0.157514
748 2 0.190119 0.268128 0.163243
509 4 0.213953 0.304828 0.159527
750 4 0.205777 0.287553 0.161604
957 4 0.245625 0.307004 0.111233
357 4 0.25681 0.29043 0.1146
355 2 0.267951 0.281429 0.135095
356 4 0.279093 0.272428 0.15559
387 4 0.35424 0.253007 0.0812834
385 2 0.357713 0.268645 0.100482
386 4 0.361186 0.284282 0.119681
495 4 0.34413 0.285185 0.129858
493 2 0.352017 0.297521 0.150126
527 4 0.490794 0.317739 0.0952018
519 4 0.433934 0.294552 0.0940766
526 2 0.468737 0.30837 0.102336
528 4 0.44668 0.299001 0.10947
396 4 0.0411319 0.378507 0.121528
620 4 0.0406115 0.372621 0.142206
394 2 0.0254348 0.396601 0.128696
756 4 0.0677145 0.403253 0.112763
755 4 0.117519 0.400561 0.116367
754 2 0.0926167 0.401907 0.114565
510 4 0.191393 0.349275 0.155501
309 4 0.17168 0.350379 0.160366
625 2 0.327712 0.350602 0.0902047
446 4 0.32723 0.341403 0.121051
445 2 0.330521 0.348413 0.144825
626 4 0.331552 0.358835 0.1135
588 4 0.371082 0.375678 0.167797
596 4 0.428564 0.369637 0.120441
595 2 0.449646 0.364585 0.132899
597 4 0.470729 0.359533 0.145357
2652 4 0.468201 0.3562 0.164716
395 4 0.00973768 0.414695 0.135864
1779 4 0.169772 0.475723 0.0890482
291 4 0.11027 0.45121 0.0892257
289 2 0.130625 0.465494 0.0918383
290 4 0.150979 0.479778 0.094451
1429 2 0.240981 0.493405 0.135141
284 4 0.307624 0.509266 0.141242
283 2 0.300655 0.485403 0.138569
285 4 0.293686 0.461539 0.135897
660 4 0.458683 0.461987 0.108237
1575 4 0.466711 0.467767 0.126548
1573 2 0.458793 0.468167 0.150261
1574 4 0.450875 0.468567 0.173975
1414 2 0.0565759 0.000205205 0.194676
1415 4 0.0803597 0.00584762 0.189415
730 2 0.109258 0.0460843 0.234491
731 4 0.107455 0.0555157 0.211405
1403 4 0.124999 0.0228972 0.257553
732 4 0.11106 0.0366528 0.257577
572 4 0.336427 0.0252408 0.173757
23 3 0.37636 0.0591194 0.167991
311 4 0.382724 0.0744813 0.178547
759 4 0.403356 0.0128295 0.184765
703 2 0.0755701 0.152279 0.198633
513 4 0.00792816 0.148889 0.251639
427 2 0.0315773 0.16645 0.23089
693 4 0.0955751 0.123109 0.173858
705 4 0.0932672 0.13821 0.187953
544 2 0.162016 0.134342 0.245537
477 4 0.17912 0.141285 0.207176
475 2 0.17897 0.134957 0.182987
546 4 0.178129 0.140386 0.227398
310 2 0.405978 0.0827421 0.174525
333 4 0.445406 0.102701 0.174219
312 4 0.429232 0.0910029 0.170503
332 4 0.493264 0.117205 0.17434
331 2 0.469335 0.109953 0.174279
704 4 0.0578729 0.166348 0.209312
428 4 0.0391014 0.173313 0.208054
388 2 0.0936605 0.231255 0.227712
389 4 0.104661 0.219608 0.208515
2515 2 0.427363 0.239252 0.193078
2936 4 0.43632 0.218164 0.169048
2517 4 0.445317 0.223151 0.186476
364 2 0.0621514 0.295992 0.225357
365 4 0.0651326 0.295307 0.200541
601 2 0.0300201 0.315457 0.182129
603 4 0.0475322 0.302535 0.194439
602 4 0.012508 0.328379 0.16982
366 4 0.0591702 0.296677 0.250173
353 4 0.279767 0.268425 0.176021
352 2 0.304219 0.271961 0.17986
354 4 0.328672 0.275497 0.183699
28 3 0.37371 0.261819 0.217673
2516 4 0.409409 0.255353 0.19968
494 4 0.359905 0.309856 0.170395
30 3 0.344691 0.283209 0.228536
26 1 0.356943 0.276238 0.210649
29 3 0.366246 0.294526 0.199814
27 3 0.343214 0.265078 0.195948
736 2 0.365575 0.321418 0.253869
2838 4 0.410192 0.263052 0.218371
2836 2 0.422011 0.275201 0.236753
738 4 0.366593 0.296551 0.256274
619 2 0.0557627 0.365677 0.160845
339 4 0.0756824 0.365346 0.198269
621 4 0.070914 0.358733 0.179484
337 2 0.069289 0.353887 0.219553
768 4 0.162949 0.35373 0.212598
766 2 0.168948 0.344549 0.235068
308 4 0.158025 0.37105 0.203805
307 2 0.164853 0.360714 0.182085
447 4 0.333811 0.355424 0.168599
737 4 0.364558 0.346285 0.251465
611 4 0.3738 0.366481 0.185969
612 4 0.369699 0.345983 0.231398
610 2 0.371749 0.356232 0.208684
586 2 0.371863 0.400589 0.169795
2650 2 0.492547 0.354007 0.169977
1556 4 0.23837 0.488069 0.169012
1430 4 0.233063 0.477754 0.152961
414 4 0.251672 0.490021 0.22352
1555 2 0.240524 0.480989 0.192896
1557 4 0.242677 0.473908 0.216779
587 4 0.372644 0.4255 0.171793
435 4 0.373573 0.446093 0.175277
434 4 0.378296 0.456472 0.223967
433 2 0.375935 0.451282 0.199622
1436 4 0.379259 0.47648 0.219619
1435 2 0.374025 0.490599 0.239581
1584 4 0.441213 0.487441 0.175773
1582 2 0.444761 0.499172 0.197567
316 2 0.00117989 0.084769 0.274981
1402 2 0.147262 0.0167518 0.267131
1404 4 0.169526 0.0106064 0.276709
763 2 0.229927 0.0546448 0.28339
764 4 0.207797 0.0474509 0.274241
765 4 0.252056 0.0618387 0.29254
1701 4 0.269435 0.0516119 0.29243
1700 4 0.310781 0.0377077 0.267979
1699 2 0.290108 0.0446598 0.280205
468 4 0.329336 0.0377018 0.260046
466 2 0.343281 0.0575534 0.266099
467 4 0.357226 0.0774051 0.272151
429 4 0.0240532 0.159588 0.253726
529 2 0.0364696 0.132807 0.299227
318 4 0.0162832 0.104527 0.27757
530 4 0.0200552 0.114285 0.295669
531 4 0.0528839 0.15133 0.302786
2849 4 0.0377696 0.164014 0.308297
545 4 0.145903 0.128298 0.263676
939 4 0.136788 0.131903 0.280735
937 2 0.137773 0.149086 0.298872
938 4 0.138757 0.166269 0.317009
633 4 0.393358 0.123732 0.274454
632 4 0.351031 0.097104 0.274174
631 2 0.372195 0.110418 0.274314
708 4 0.406512 0.10891 0.275905
488 4 0.499428 0.133526 0.304568
706 2 0.427401 0.102712 0.288169
707 4 0.44829 0.0965135 0.300433
489 4 0.455129 0.111825 0.312776
487 2 0.477279 0.122676 0.308672
2848 2 0.0368091 0.18139 0.326251
300 4 0.0943169 0.239109 0.263779
2850 4 0.0358485 0.198766 0.344204
390 4 0.08266 0.242902 0.246909
371 4 0.0993384 0.241827 0.325514
261 4 0.159035 0.171938 0.314434
299 4 0.0879466 0.250585 0.312033
298 2 0.0911317 0.244847 0.287906
279 4 0.331435 0.215531 0.260969
277 2 0.309807 0.221373 0.27207
278 4 0.288178 0.227215 0.283172
402 4 0.280768 0.243918 0.273808
400 2 0.258814 0.25585 0.272902
498 4 0.389627 0.219254 0.269875
497 4 0.342971 0.201264 0.26936
496 2 0.366299 0.210259 0.269618
767 4 0.174946 0.335368 0.257538
503 4 0.237912 0.311427 0.273102
502 2 0.214855 0.318903 0.266966
504 4 0.191797 0.326379 0.260831
401 4 0.23686 0.267783 0.271997
728 4 0.243726 0.330019 0.273301
274 2 0.320722 0.252769 0.328256
249 4 0.326291 0.254265 0.29212
248 4 0.349173 0.287619 0.262716
2837 4 0.433829 0.287351 0.255135
276 4 0.336704 0.24971 0.309272
247 2 0.337732 0.270942 0.277418
549 4 0.0124757 0.415319 0.266551
338 4 0.0628957 0.342428 0.240836
547 2 0.0209328 0.400611 0.284917
680 4 0.0418395 0.395298 0.315673
548 4 0.0293899 0.385903 0.303284
416 4 0.0622473 0.349026 0.260721
415 2 0.0836926 0.347622 0.2735
648 4 0.10949 0.365152 0.288054
417 4 0.105138 0.346219 0.286279
646 2 0.128059 0.381207 0.283298
647 4 0.146628 0.397261 0.278541
2954 4 0.144309 0.407548 0.261446
727 2 0.263758 0.341869 0.282438
729 4 0.28379 0.353719 0.291575
543 4 0.293695 0.370459 0.294342
541 2 0.314369 0.37037 0.308403
542 4 0.335044 0.370281 0.322465
378 4 0.344158 0.3642 0.338884
2955 4 0.142748 0.457362 0.257338
2953 2 0.143529 0.432455 0.259392
303 4 0.154927 0.468689 0.268558
301 2 0.154466 0.493361 0.272589
1820 4 0.305159 0.468765 0.309904
1819 2 0.296042 0.489912 0.300163
1707 4 0.348877 0.503455 0.254659
592 2 0.496851 0.470402 0.310929
713 4 0.457055 0.465392 0.304914
593 4 0.476094 0.470695 0.296992
712 2 0.439272 0.477477 0.29215
119 3 0.484102 0.418927 0.328022
1489 2 0.0203452 0.00124949 0.375745
1491 4 0.0234863 0.0140602 0.396987
2637 4 0.0201568 0.0219147 0.415588
342 4 0.122647 0.0635783 0.382897
340 2 0.14561 0.0663028 0.373385
1646 4 0.104623 0.0584714 0.391005
1645 2 0.107032 0.0430872 0.410567
1647 4 0.109441 0.0277029 0.43013
1341 4 0.210801 0.0013818 0.33652
606 4 0.200622 0.0185992 0.336594
604 2 0.194061 0.0402838 0.347173
605 4 0.187501 0.0619684 0.357752
341 4 0.168573 0.0690273 0.363873
1518 4 0.314086 0.033709 0.386481
1516 2 0.305432 0.0114019 0.379223
405 4 0.297585 0.0421088 0.380073
403 2 0.29019 0.0659861 0.380675
258 4 0.374966 0.0720842 0.415088
367 2 0.137516 0.139872 0.420021
369 4 0.160034 0.130431 0.425408
368 4 0.114999 0.149312 0.414635
735 4 0.0983122 0.159848 0.410569
321 4 0.231751 0.132458 0.379374
1180 2 0.193669 0.123521 0.398513
1181 4 0.215198 0.123701 0.385799
319 2 0.247419 0.113048 0.377667
1182 4 0.17214 0.123341 0.411227
404 4 0.282794 0.0898633 0.381276
320 4 0.263087 0.0936368 0.375959
2656 2 0.495923 0.0977476 0.382535
2658 4 0.482576 0.117288 0.374459
425 4 0.483336 0.135301 0.382428
424 2 0.474274 0.158013 0.387646
471 4 0.011506 0.229137 0.393603
469 2 0.0153468 0.218481 0.371312
470 4 0.0191876 0.207825 0.349021
346 2 0.0641279 0.235035 0.41156
348 4 0.0657477 0.218535 0.392843
734 4 0.0750032 0.200535 0.39319
733 2 0.0866577 0.180191 0.401879
370 2 0.108134 0.222142 0.338176
372 4 0.116929 0.202457 0.350839
717 4 0.15195 0.261069 0.410349
617 4 0.138379 0.244861 0.408383
259 2 0.167672 0.182487 0.335393
600 4 0.194242 0.200049 0.360801
260 4 0.17631 0.193035 0.356353
598 2 0.218925 0.197146 0.358066
599 4 0.243609 0.194242 0.355331
473 4 0.294272 0.239905 0.352256
474 4 0.262499 0.201515 0.348085
472 2 0.278386 0.22071 0.35017
266 4 0.400746 0.222265 0.372074
265 2 0.384801 0.235297 0.357892
267 4 0.368857 0.248329 0.343711
419 4 0.418958 0.217936 0.366345
418 2 0.43816 0.208735 0.379452
426 4 0.465212 0.180725 0.392863
420 4 0.457362 0.199533 0.39256
2801 4 0.0118601 0.297873 0.38956
715 2 0.157275 0.271414 0.388217
676 2 0.150789 0.319769 0.358804
677 4 0.148459 0.295392 0.36386
716 4 0.1626 0.281758 0.366086
275 4 0.304739 0.255828 0.347239
613 2 0.371064 0.289291 0.356604
615 4 0.369398 0.267836 0.343873
614 4 0.37273 0.310746 0.369335
377 4 0.37193 0.325647 0.354476
679 2 0.0616365 0.39479 0.330938
681 4 0.0814336 0.394283 0.346202
678 4 0.153118 0.344145 0.353749
570 4 0.0946579 0.378592 0.350716
569 4 0.134113 0.348934 0.358744
568 2 0.114385 0.363763 0.35473
668 4 0.20454 0.360593 0.392155
667 2 0.216038 0.354062 0.413375
1641 4 0.27323 0.407588 0.368849
376 2 0.358044 0.344923 0.34668
1399 2 0.387203 0.409857 0.401746
2678 4 0.488581 0.344743 0.388364
584 4 0.476602 0.357025 0.398073
1444 2 0.26257 0.483402 0.408086
1639 2 0.275902 0.431838 0.374325
1640 4 0.278575 0.456088 0.379801
1446 4 0.268948 0.47255 0.386482
1401 4 0.377329 0.42529 0.384732
561 4 0.361994 0.438249 0.381291
559 2 0.37409 0.456841 0.369751
560 4 0.386185 0.475434 0.35821
1473 4 0.405651 0.473848 0.355706
1472 4 0.451318 0.453709 0.352601
1471 2 0.428484 0.463778 0.354153
2635 2 0.0396582 0.0337318 0.425846
2636 4 0.0591597 0.0455488 0.436105
2586 4 0.113997 0.00775499 0.430714
1601 4 0.196365 0.999896 0.501645
432 4 0.238373 0.0475705 0.475098
792 4 0.220558 0.0478131 0.481997
790 2 0.209524 0.0697132 0.486877
430 2 0.256207 0.0318101 0.467434
431 4 0.274041 0.0160498 0.459769
684 4 0.279325 0.00723273 0.442658
256 2 0.389139 0.0598786 0.431681
257 4 0.403312 0.0476729 0.448274
479 4 0.422925 0.0428925 0.448002
3730 2 0.401965 0.0776324 0.495564
478 2 0.430031 0.0254623 0.46446
2334 4 0.431397 0.987981 0.483464
480 4 0.437138 0.00803206 0.480918
1272 4 0.137278 0.137164 0.502595
1270 2 0.143014 0.161499 0.502318
857 4 0.180154 0.0942816 0.484697
791 4 0.198489 0.0916133 0.491757
3731 4 0.405096 0.089866 0.473984
514 2 0.400495 0.132615 0.468029
516 4 0.385753 0.140665 0.449508
515 4 0.415237 0.124565 0.486551
1032 4 0.430179 0.136058 0.493376
1030 2 0.447336 0.153619 0.498113
347 4 0.0625081 0.251534 0.430277
1152 4 0.081802 0.254625 0.436495
616 2 0.13175 0.24509 0.432491
1199 4 0.13111 0.23901 0.474336
1198 2 0.134777 0.220214 0.490412
1200 4 0.138445 0.201419 0.506489
1271 4 0.148749 0.185834 0.50204
1220 4 0.0154815 0.287504 0.47447
1219 2 0.0258979 0.297629 0.45412
1221 4 0.0363143 0.307755 0.433769
1150 2 0.0840996 0.264909 0.45917
501 4 0.0440774 0.324697 0.437196
1034 4 0.0063081 0.303255 0.482666
618 4 0.125121 0.245319 0.456599
1151 4 0.0863972 0.275192 0.481845
1178 4 0.0997652 0.288267 0.476343
1177 2 0.114027 0.303076 0.490573
803 4 0.204926 0.254123 0.444376
802 2 0.217542 0.257518 0.465695
804 4 0.230158 0.260913 0.487014
375 4 0.313816 0.310095 0.47383
373 2 0.327556 0.290724 0.466007
709 2 0.291938 0.3326 0.499202
711 4 0.312472 0.321148 0.490694
374 4 0.341295 0.271354 0.458185
873 4 0.356085 0.263578 0.469264
871 2 0.379288 0.271198 0.463903
872 4 0.402491 0.278817 0.458542
813 4 0.407042 0.292277 0.445632
811 2 0.426995 0.306966 0.442273
812 4 0.446948 0.321656 0.438913
3671 4 0.0111151 0.403958 0.422701
934 2 0.0549922 0.412271 0.418814
935 4 0.0443957 0.38981 0.421716
500 4 0.0504571 0.374168 0.433633
499 2 0.0472673 0.349432 0.435415
238 2 0.246944 0.345411 0.471529
240 4 0.229723 0.343811 0.453472
669 4 0.227536 0.34753 0.434596
239 4 0.264164 0.347011 0.489586
710 4 0.271403 0.344051 0.50771
1400 4 0.397077 0.394424 0.418761
1453 2 0.415613 0.370434 0.445428
1455 4 0.41246 0.381923 0.423445
583 2 0.463886 0.349204 0.41813
585 4 0.45117 0.341383 0.438188
336 4 0.421552 0.366156 0.486228
1454 4 0.418767 0.358945 0.467411
936 4 0.0655886 0.434731 0.415912
1398 4 0.0797785 0.447763 0.416743
2178 4 0.0220159 0.482378 0.496469
1396 2 0.0922681 0.468863 0.411847
2222 4 0.238562 0.492666 0.438893
383 4 0.217283 0.436248 0.493154
1586 4 0.318819 0.48695 0.458876
880 2 0.292841 0.476211 0.482257
882 4 0.310943 0.492419 0.476356
1445 4 0.256193 0.494254 0.42969
1081 2 0.0668098 0.0149912 0.558256
1082 4 0.0728571 0.00068683 0.53866
1083 4 0.0607625 0.0292957 0.577852
1057 2 0.145764 0.0431397 0.54307
1058 4 0.13645 0.0299881 0.523953
850 2 0.109801 0.0100724 0.516423
851 4 0.131833 0.0192519 0.508971
1059 4 0.155077 0.0562913 0.562188
410 4 0.170424 0.0497443 0.572452
1524 4 0.208233 0.0474856 0.547293
1522 2 0.231277 0.0559381 0.552059
1602 4 0.208109 0.040542 0.528304
1600 2 0.202237 0.020219 0.514974
1523 4 0.25432 0.0643905 0.556826
1782 4 0.309971 0.0543652 0.578451
1153 2 0.34324 0.0365097 0.564359
1062 4 0.368745 0.0166074 0.533937
1154 4 0.359021 0.026127 0.547979
1060 2 0.384306 0.0314583 0.521191
1061 4 0.399867 0.0463092 0.508444
3732 4 0.398833 0.0653989 0.517145
1217 4 0.428679 0.00253223 0.583524
1218 4 0.456552 0.0424463 0.572094
1216 2 0.442616 0.0224892 0.577809
905 4 0.496218 0.0504577 0.550319
858 4 0.1534 0.129079 0.508656
856 2 0.166777 0.11168 0.496676
1031 4 0.464493 0.17118 0.502849
1211 4 0.184116 0.215047 0.520584
1210 2 0.195139 0.216215 0.542996
1212 4 0.206162 0.217383 0.565408
696 4 0.224706 0.221867 0.562976
1260 4 0.211401 0.257051 0.582113
694 2 0.239765 0.222222 0.582933
1194 4 0.39079 0.228781 0.558469
900 4 0.372331 0.22145 0.561206
898 2 0.350469 0.231853 0.55496
899 4 0.328608 0.242257 0.548714
1192 2 0.41362 0.232969 0.567767
1193 4 0.43645 0.237156 0.577065
650 4 0.452413 0.228404 0.567762
649 2 0.473042 0.228192 0.553634
641 4 0.483878 0.176481 0.505564
651 4 0.493671 0.22798 0.539507
640 2 0.500006 0.175599 0.524651
1067 4 0.110692 0.261294 0.558745
3354 4 0.14619 0.318272 0.512442
1179 4 0.128289 0.317884 0.504803
1066 2 0.106552 0.27919 0.575708
796 2 0.32079 0.282484 0.549266
797 4 0.311008 0.304673 0.543169
1007 4 0.29204 0.310519 0.543435
1006 2 0.279006 0.317558 0.563577
1008 4 0.265971 0.324597 0.58372
798 4 0.330571 0.260296 0.555363
3352 2 0.140603 0.341726 0.519069
3353 4 0.135016 0.365179 0.525696
406 2 0.130328 0.386923 0.563627
408 4 0.132049 0.376785 0.540836
407 4 0.128606 0.397061 0.586418
334 2 0.405823 0.373703 0.504139
335 4 0.390094 0.38125 0.52205
925 2 0.358488 0.418021 0.579954
4297 2 0.0283208 0.448124 0.518075
4299 4 0.0252359 0.432065 0.53699
4298 4 0.0314057 0.464183 0.49916
1161 4 0.158535 0.487329 0.570703
1159 2 0.16474 0.469363 0.554458
1160 4 0.170945 0.451397 0.538213
2138 4 0.141127 0.494806 0.577455
382 2 0.196612 0.442537 0.505736
2152 2 0.234563 0.429856 0.57575
384 4 0.17594 0.448826 0.518318
2153 4 0.23811 0.438562 0.552581
773 4 0.231684 0.446214 0.535542
772 2 0.250944 0.446569 0.519601
881 4 0.274739 0.460004 0.488158
774 4 0.270203 0.446925 0.503659
926 4 0.376542 0.434067 0.57349
663 4 0.393312 0.445706 0.572497
661 2 0.417251 0.440596 0.567398
662 4 0.441191 0.435487 0.5623
2141 4 0.459889 0.441993 0.561227
2140 2 0.470344 0.449841 0.582542
1485 4 0.455037 0.499135 0.509729
4337 4 0.053324 0.0337501 0.596214
4336 2 0.070341 0.02729 0.613356
4194 4 0.106152 0.0145619 0.636136
4338 4 0.0873581 0.0208299 0.630499
409 2 0.185449 0.0492104 0.59243
411 4 0.200474 0.0486765 0.612409
824 4 0.220383 0.0484459 0.61429
823 2 0.216138 0.0575221 0.637198
825 4 0.211892 0.0665984 0.660106
1781 4 0.260367 0.0600808 0.575714
1780 2 0.285169 0.057223 0.577082
1155 4 0.327458 0.0468924 0.58074
842 4 0.402016 0.0710656 0.621239
3425 4 0.382674 0.0161788 0.638965
3424 2 0.396776 0.027614 0.656156
841 2 0.390583 0.090096 0.632741
1092 4 0.37894 0.000610696 0.626452
1025 4 0.418802 0.0660868 0.63111
4225 2 0.48959 0.0584271 0.589527
1026 4 0.463456 0.0520625 0.613502
1024 2 0.441129 0.0590747 0.622306
4226 4 0.476732 0.0661227 0.609543
864 4 0.0471412 0.132256 0.661721
862 2 0.0301168 0.116522 0.67109
1077 4 0.0439621 0.148238 0.649603
1075 2 0.0587568 0.163514 0.662753
961 2 0.132632 0.0858978 0.653612
963 4 0.112935 0.101152 0.655736
843 4 0.37915 0.109126 0.644244
45 3 0.379909 0.105394 0.664301
3401 4 0.382034 0.126031 0.634645
3400 2 0.39633 0.143657 0.624153
3402 4 0.410627 0.161284 0.613661
88 3 0.492002 0.0934239 0.631961
90 3 0.483321 0.124995 0.613371
3355 2 0.453588 0.152312 0.609658
3356 4 0.429808 0.159966 0.610726
3357 4 0.477367 0.144658 0.60859
3009 4 0.487183 0.159799 0.599582
1283 4 0.155524 0.195529 0.606717
1284 4 0.193092 0.216921 0.581582
1282 2 0.174308 0.206225 0.59415
695 4 0.254824 0.222577 0.602889
1136 4 0.273134 0.212504 0.599407
1135 2 0.290214 0.226518 0.611115
1137 4 0.307293 0.240532 0.622822
801 4 0.408464 0.238248 0.660894
831 4 0.402848 0.222839 0.673367
799 2 0.42654 0.244176 0.644668
3262 2 0.0746589 0.3037 0.619475
3264 4 0.0515849 0.309098 0.627452
878 4 0.0378118 0.310193 0.614314
877 2 0.0180501 0.324885 0.609979
1068 4 0.102411 0.297087 0.592671
3263 4 0.0977329 0.298302 0.611498
814 2 0.158953 0.332294 0.679264
1259 4 0.194456 0.274865 0.625659
10 3 0.184586 0.291345 0.62873
1258 2 0.202928 0.265958 0.603886
9 3 0.203366 0.313505 0.652687
7 3 0.199606 0.276757 0.659625
6 1 0.189209 0.295229 0.650689
8 3 0.169534 0.299138 0.662351
1131 4 0.218084 0.280439 0.659226
1395 4 0.194836 0.321668 0.669926
1129 2 0.230534 0.261273 0.669366
1167 4 0.316234 0.252021 0.636242
1165 2 0.314011 0.258214 0.660365
800 4 0.444617 0.250103 0.628442
1237 2 0.459719 0.291336 0.626586
1239 4 0.472584 0.312699 0.628402
954 4 0.466222 0.332107 0.631975
1238 4 0.446854 0.269973 0.624771
816 4 0.142252 0.349359 0.686681
2027 4 0.222373 0.415733 0.616119
807 4 0.250966 0.334082 0.592709
805 2 0.257812 0.333422 0.616748
806 4 0.264657 0.332762 0.640787
930 4 0.299179 0.416647 0.631919
928 2 0.318893 0.40862 0.6188
927 4 0.340434 0.401975 0.586417
929 4 0.338606 0.400593 0.60568
1009 2 0.385618 0.355405 0.657626
1010 4 0.407082 0.350845 0.645639
952 2 0.445864 0.342358 0.642252
953 4 0.425505 0.35261 0.652529
1173 4 0.122801 0.411018 0.599907
1171 2 0.128565 0.432572 0.611193
1172 4 0.134329 0.454126 0.622479
1190 4 0.121341 0.455964 0.638465
2154 4 0.231015 0.42115 0.598919
2026 2 0.240307 0.42233 0.632245
2028 4 0.258241 0.428926 0.648371
2142 4 0.480799 0.457688 0.603856
4374 4 0.474373 0.475283 0.610851
4372 2 0.472649 0.468765 0.634928
4373 4 0.470925 0.462247 0.659006
962 4 0.152329 0.0706433 0.651488
2254 2 0.147915 0.999191 0.705265
2256 4 0.154304 0.0137788 0.724541
945 4 0.144619 0.0316916 0.723482
943 2 0.155909 0.0513397 0.734049
2132 4 0.161858 0.0595616 0.664262
2201 4 0.240418 0.00325602 0.733881
2300 4 0.222343 0.0709759 0.675584
2131 2 0.177464 0.0450502 0.677341
2133 4 0.193069 0.0305389 0.690421
1050 4 0.241433 0.0236639 0.733633
2299 2 0.245412 0.0654218 0.683466
1048 2 0.259318 0.0408541 0.736763
1049 4 0.277203 0.0580442 0.739894
2301 4 0.268482 0.0598677 0.691348
34 3 0.283607 0.0755247 0.733849
3426 4 0.410879 0.0390492 0.673347
1005 4 0.413412 0.0364028 0.69259
1143 4 0.416923 0.0665687 0.732317
1003 2 0.431455 0.0230594 0.703615
1004 4 0.449499 0.00971587 0.71464
863 4 0.0130925 0.100787 0.680459
1277 4 0.176942 0.115606 0.68158
1276 2 0.190005 0.128281 0.698723
1278 4 0.203068 0.140956 0.715866
977 4 0.196763 0.160167 0.716006
33 3 0.321311 0.0787089 0.73741
31 1 0.300849 0.0883031 0.74267
887 4 0.293435 0.154338 0.688953
35 3 0.299842 0.109492 0.734384
1263 4 0.305434 0.153768 0.70388
886 2 0.271618 0.165556 0.684123
1261 2 0.32106 0.134854 0.699055
43 3 0.358141 0.113493 0.693936
1262 4 0.336686 0.115941 0.69423
42 3 0.395576 0.113145 0.697276
41 1 0.378141 0.118106 0.683114
44 3 0.379145 0.140618 0.677581
1141 2 0.413274 0.0893693 0.722725
1142 4 0.409625 0.11217 0.713134
49 3 0.424932 0.126442 0.709386
50 3 0.422781 0.159654 0.69178
48 3 0.456586 0.14472 0.698977
46 1 0.434819 0.147249 0.706607
47 3 0.435264 0.158043 0.726915
1076 4 0.0735514 0.17879 0.675903
3044 4 0.0770874 0.198491 0.680525
3043 2 0.0934108 0.213616 0.691926
3045 4 0.109734 0.22874 0.703326
822 4 0.128648 0.233305 0.7117
976 2 0.202396 0.164994 0.739883
1130 4 0.242983 0.242106 0.679507
839 4 0.229511 0.230539 0.686385
838 2 0.2303 0.206059 0.681356
840 4 0.23109 0.18158 0.676328
888 4 0.2498 0.176775 0.679294
917 4 0.271147 0.247013 0.726648
830 4 0.412832 0.177313 0.691488
829 2 0.40784 0.200076 0.682427
1308 4 0.389005 0.238765 0.748169
1040 4 0.0812798 0.338603 0.752504
820 2 0.123809 0.256379 0.720027
1209 4 0.104407 0.290303 0.717696
1207 2 0.10065 0.312224 0.729122
821 4 0.11897 0.279454 0.728354
1208 4 0.096893 0.334144 0.740547
815 4 0.175654 0.315228 0.671847
1393 2 0.214368 0.333461 0.680154
916 2 0.289888 0.258699 0.714925
1166 4 0.311788 0.264407 0.684487
918 4 0.308628 0.270384 0.703203
998 4 0.384829 0.294777 0.725408
1307 4 0.39843 0.286467 0.736489
1306 2 0.393717 0.262616 0.742329
997 2 0.370134 0.311417 0.736912
1121 4 0.135313 0.367257 0.690214
1120 2 0.147104 0.389154 0.692797
948 4 0.0885417 0.418161 0.730344
1122 4 0.158895 0.411051 0.69538
1394 4 0.2339 0.345254 0.690381
891 4 0.245883 0.357295 0.679729
889 2 0.253909 0.370448 0.699421
890 4 0.261935 0.3836 0.719113
1011 4 0.364153 0.359965 0.669612
1019 4 0.367588 0.379013 0.668526
1018 2 0.355919 0.390581 0.687373
1229 4 0.331897 0.39278 0.717815
1228 2 0.342268 0.394791 0.740478
1020 4 0.344251 0.402149 0.70622
897 4 0.0381073 0.426334 0.732696
1189 2 0.125248 0.451475 0.662751
946 2 0.100614 0.433222 0.714451
1983 4 0.147413 0.480063 0.737516
1191 4 0.129154 0.446986 0.687036
947 4 0.112687 0.448282 0.698558
1981 2 0.127566 0.490303 0.748761
1175 4 0.194097 0.46048 0.755851
1176 4 0.176269 0.447919 0.71085
1174 2 0.185183 0.454199 0.73335
2369 4 0.339235 0.472674 0.718573
2175 4 0.359346 0.493853 0.669344
2174 4 0.341403 0.492351 0.715997
2173 2 0.350374 0.493102 0.692671
2368 2 0.336968 0.456565 0.73756
1267 2 0.500661 0.467881 0.722924
1269 4 0.484155 0.477604 0.738992
1101 4 0.486203 0.489474 0.754745
1256 4 0.0931116 0.0529456 0.805808
1255 2 0.1021 0.0759639 0.809623
909 4 0.172876 0.0745729 0.764157
944 4 0.167199 0.0709877 0.744616
907 2 0.181386 0.0799498 0.787045
965 4 0.280094 0.0683201 0.823699
964 2 0.292075 0.0769732 0.803531
966 4 0.304055 0.0856263 0.783362
845 4 0.476593 0.0127306 0.820317
2000 4 0.105411 0.101415 0.832224
1257 4 0.111088 0.0989821 0.813438
960 4 0.207006 0.0917684 0.819175
908 4 0.189896 0.0853268 0.809932
32 3 0.298628 0.0890041 0.765555
1084 2 0.439771 0.166813 0.766902
1085 4 0.462337 0.158324 0.773524
1113 4 0.469617 0.0985317 0.766728
1111 2 0.469304 0.121181 0.777316
1112 4 0.468991 0.14383 0.787903
810 4 0.491313 0.140632 0.837694
1227 4 0.176452 0.166596 0.818369
1225 2 0.186067 0.174275 0.796603
978 4 0.20803 0.169821 0.763761
1226 4 0.195683 0.181954 0.774838
1042 2 0.318237 0.1925 0.817858
1043 4 0.29659 0.180979 0.822741
1044 4 0.339884 0.204021 0.812975
1298 4 0.376686 0.223947 0.755807
1086 4 0.417204 0.175302 0.76028
1297 2 0.392928 0.20645 0.763235
1299 4 0.409171 0.188952 0.770664
968 4 0.344316 0.220035 0.801902
967 2 0.347786 0.244646 0.799174
894 4 0.0105631 0.289393 0.818614
892 2 0.0266212 0.30282 0.804938
893 4 0.0426792 0.316247 0.791263
2999 4 0.00877098 0.269948 0.820272
1041 4 0.0561653 0.331135 0.795098
1039 2 0.0687225 0.334869 0.773801