ITEM: TIMESTEP
4520000
ITEM: NUMBER OF ATOMS
1600
ITEM: BOX BOUNDS pp pp pp
-6.9325799999999997e+00 6.9325799999999997e+00
-6.9325799999999997e+00 6.9325799999999997e+00
-6.9325799999999997e+00 6.9325799999999997e+00
ITEM: ATOMS id type xs ys zs
502 4 0.166889 0.111152 0.0344601
469 4 0.262992 0.0864649 0.134569
467 2 0.266959 0.0620982 0.108283
308 2 0.329616 0.0338703 0.0564557
309 4 0.361974 0.0362416 0.0407138
310 4 0.297259 0.031499 0.0721975
468 4 0.270926 0.0377316 0.0819969
139 3 0.368197 0.0623058 0.0337174
138 3 0.357883 0.110212 0.0091576
136 1 0.380051 0.092943 0.0273319
137 3 0.408235 0.0901517 0.0100518
850 4 0.480558 0.0734552 0.106376
848 2 0.499054 0.0695598 0.0756655
140 3 0.386148 0.108697 0.0555009
501 4 0.169967 0.161 0.0864936
500 2 0.168428 0.136076 0.0604768
573 4 0.164044 0.127117 0.00749352
19 3 0.264484 0.168476 0.106446
42 3 0.312775 0.199901 0.0264182
340 4 0.33038 0.212357 0.0486345
338 2 0.314739 0.215878 0.0809366
339 4 0.299099 0.219398 0.113239
41 1 0.29264 0.176316 0.0146265
20 3 0.290345 0.205951 0.136038
44 3 0.260921 0.186313 0.018353
463 4 0.251564 0.208207 0.0341018
16 1 0.263603 0.186956 0.134332
712 4 0.462458 0.221003 0.0695937
1245 4 0.481911 0.210634 0.090302
710 2 0.463242 0.239857 0.0388634
1244 2 0.499667 0.181182 0.0794521
462 4 0.230981 0.274753 0.0528015
1497 4 0.24903 0.297013 0.0450517
461 2 0.241272 0.24148 0.0434516
1496 2 0.259641 0.325337 0.064689
415 4 0.184782 0.352857 0.13665
1498 4 0.270251 0.353661 0.0843263
385 4 0.318034 0.38102 0.0711645
383 2 0.349235 0.368394 0.0582211
711 4 0.464027 0.258711 0.00813313
1443 4 0.397315 0.35242 0.0222073
384 4 0.380436 0.355768 0.0452776
517 4 0.999141 0.449939 0.0228247
515 2 0.0286858 0.470298 0.019203
327 4 0.0603678 0.501886 0.990068
77 3 0.36656 0.49802 0.0177868
495 4 0.242064 0.016456 0.181997
657 4 0.474674 0.0153041 0.150757
227 3 0.47112 0.0799097 0.133137
681 4 0.502295 0.0111731 0.152801
658 4 0.418007 0.976526 0.172822
656 2 0.446341 0.995915 0.16179
229 3 0.465624 0.0953227 0.184816
226 1 0.467465 0.106091 0.153184
228 3 0.439305 0.122183 0.144937
395 2 0.135795 0.198368 0.235665
396 4 0.140393 0.205181 0.200553
17 3 0.236573 0.20618 0.133608
750 4 0.209266 0.19603 0.132307
751 4 0.158341 0.189148 0.182914
749 2 0.183803 0.192589 0.15761
18 3 0.262004 0.167049 0.161185
276 4 0.431642 0.211641 0.126782
230 3 0.493261 0.126112 0.149644
277 4 0.420033 0.143549 0.147531
275 2 0.425837 0.177595 0.137156
393 4 0.0312022 0.324962 0.142026
392 2 0.0460918 0.332909 0.173894
394 4 0.0609814 0.340855 0.205763
336 4 0.0890755 0.343841 0.217794
335 2 0.122069 0.355961 0.225855
672 4 0.00656647 0.334555 0.130621
413 2 0.206281 0.381057 0.143209
337 4 0.155063 0.36808 0.233916
1038 4 0.344477 0.289215 0.174573
1039 4 0.274631 0.295028 0.157558
1037 2 0.309554 0.292122 0.166065
643 4 0.210833 0.444753 0.219127
641 2 0.230958 0.472671 0.229898
676 4 0.220473 0.430177 0.242108
675 4 0.168079 0.382316 0.254993
674 2 0.194276 0.406247 0.248551
414 4 0.227779 0.409257 0.149769
272 2 0.452993 0.421334 0.234232
273 4 0.441425 0.437888 0.204356
1001 2 0.235111 0.0117472 0.294723
1031 2 0.182719 0.0974701 0.360323
1032 4 0.178325 0.105992 0.32556
666 4 0.158892 0.104767 0.303421
1002 4 0.25471 0.0420009 0.293718
746 2 0.309938 0.0377943 0.302084
418 4 0.364935 0.0360516 0.276842
748 4 0.344029 0.0476652 0.295694
747 4 0.275848 0.0279233 0.308475
1441 4 0.478748 0.996928 0.377848
416 2 0.394963 0.0508391 0.290261
417 4 0.424991 0.0656266 0.303681
926 2 0.445471 0.104033 0.326205
927 4 0.416553 0.0825162 0.325108
928 4 0.474389 0.125551 0.327303
397 4 0.131197 0.191556 0.270778
667 4 0.13571 0.17214 0.292234
665 2 0.147301 0.138453 0.297828
582 4 0.121664 0.260431 0.338861
999 4 0.499523 0.123067 0.285925
367 4 0.47265 0.147161 0.347992
365 2 0.468331 0.167861 0.377204
581 2 0.127732 0.285853 0.363708
583 4 0.133799 0.311275 0.388554
723 4 0.47455 0.322658 0.280797
127 3 0.459872 0.340135 0.314618
258 4 0.438991 0.322214 0.319991
257 2 0.433635 0.295695 0.343834
126 1 0.464889 0.372731 0.318223
128 3 0.494875 0.377574 0.332271
259 4 0.428279 0.269176 0.367678
375 4 0.084778 0.498075 0.28221
380 2 0.083895 0.478963 0.34001
382 4 0.0929407 0.482231 0.305255
129 3 0.463922 0.387225 0.288074
274 4 0.464561 0.40478 0.264109
1566 4 0.4425 0.486082 0.326046
1565 2 0.439064 0.450638 0.331738
130 3 0.441363 0.385239 0.337431
1567 4 0.435629 0.415195 0.337429
120 3 0.0548926 0.00157242 0.50404
1033 4 0.187113 0.0889481 0.395087
330 4 0.164759 0.0907037 0.411939
329 2 0.167858 0.113709 0.439536
538 4 0.18201 0.162816 0.468152
331 4 0.170956 0.136715 0.467133
536 2 0.17596 0.191933 0.488549
537 4 0.169909 0.22105 0.508946
366 4 0.464013 0.18856 0.406415
242 3 0.462913 0.215184 0.417749
243 3 0.408867 0.21355 0.413905
241 1 0.435564 0.233713 0.414684
244 3 0.433507 0.254385 0.440921
401 2 0.046748 0.257748 0.494341
403 4 0.0682047 0.280892 0.476894
299 2 0.0647186 0.345104 0.483581
301 4 0.0642164 0.309046 0.483563
300 4 0.0652207 0.381162 0.483598
4 3 0.323534 0.339387 0.489821
1 1 0.355737 0.347494 0.485674
3 3 0.362905 0.349489 0.453046
497 2 0.389395 0.27033 0.47254
499 4 0.40739 0.245562 0.453484
245 3 0.437318 0.251069 0.386853
498 4 0.3714 0.295099 0.491596
1176 4 0.0952079 0.491704 0.390837
479 2 0.0203931 0.453048 0.476341
381 4 0.0748492 0.475695 0.374765
481 4 0.024641 0.441922 0.510379
1544 2 0.0201103 0.033098 0.535845
1546 4 0.0284912 0.0148819 0.505873
718 4 0.00317504 0.0531817 0.59408
1545 4 0.0117293 0.0513141 0.565818
716 2 0.0176199 0.0720545 0.621202
878 2 0.139248 0.0324583 0.530898
444 4 0.146661 0.0786942 0.552737
561 4 0.249734 0.0570509 0.571334
560 2 0.244192 0.0855662 0.592703
443 2 0.14986 0.113863 0.560042
880 4 0.159932 0.0619473 0.532631
562 4 0.23865 0.114081 0.614071
879 4 0.118564 0.00296925 0.529164
902 2 0.482542 0.0445078 0.52675
904 4 0.463953 0.0743744 0.53468
28 3 0.468174 0.102561 0.541761
1087 4 0.100498 0.240091 0.559256
1085 2 0.13243 0.227663 0.548015
402 4 0.0252913 0.234604 0.511789
53 3 0.22062 0.136184 0.605002
1086 4 0.164361 0.215234 0.536775
445 4 0.153059 0.149032 0.567348
472 4 0.234054 0.209231 0.620469
470 2 0.252448 0.240098 0.617416
52 3 0.202838 0.173567 0.639999
51 1 0.229973 0.160008 0.626563
54 3 0.247159 0.183826 0.610522
295 4 0.492467 0.173978 0.605144
30 3 0.491425 0.150637 0.551613
293 2 0.473011 0.191782 0.629739
26 1 0.494676 0.122081 0.535713
27 3 0.496504 0.12788 0.503098
430 4 0.0159605 0.282201 0.589938
429 4 0.0735719 0.246274 0.565608
428 2 0.0447662 0.264237 0.577773
576 4 0.258873 0.354469 0.580718
471 4 0.270841 0.270965 0.614363
522 4 0.285493 0.341475 0.583342
523 4 0.297333 0.274 0.605895
521 2 0.291413 0.307737 0.594618
2 3 0.374591 0.323881 0.499373
5 3 0.362037 0.376215 0.50031
814 4 0.0920247 0.405547 0.588339
1019 2 0.0621745 0.443398 0.553978
1020 4 0.0341934 0.456007 0.535043
1021 4 0.0901555 0.430788 0.572912
933 4 0.174629 0.480485 0.497945
575 2 0.247419 0.385292 0.565912
577 4 0.235965 0.416114 0.551106
1208 2 0.200919 0.46554 0.540216
1210 4 0.221272 0.440177 0.555803
1209 4 0.180567 0.490902 0.524629
717 4 0.0320647 0.0909274 0.648324
990 4 0.0567874 0.0790169 0.656491
989 2 0.0759177 0.073101 0.686482
991 4 0.0950479 0.0671851 0.716473
1372 4 0.107332 0.0564055 0.739385
1370 2 0.140945 0.0653189 0.748931
441 4 0.248932 0.120126 0.641627
1297 4 0.33913 0.996542 0.782476
442 4 0.278103 0.0790497 0.693236
493 4 0.30318 0.0771361 0.708335
440 2 0.263518 0.099588 0.667432
491 2 0.313581 0.106597 0.726343
823 4 0.374556 0.00903028 0.672401
559 4 0.961593 0.203565 0.720265
438 4 0.143179 0.227007 0.645356
439 4 0.209238 0.201825 0.631079
437 2 0.176209 0.214416 0.638218
55 3 0.248462 0.146951 0.650365
7 3 0.343511 0.237224 0.661188
104 3 0.373016 0.186666 0.733463
534 4 0.363231 0.22495 0.674194
533 2 0.396933 0.212326 0.671902
535 4 0.430635 0.199702 0.66961
294 4 0.453554 0.209585 0.654334
9 3 0.314487 0.269115 0.628339
1180 4 0.269549 0.357099 0.729158
8 3 0.341065 0.290427 0.67128
6 1 0.323925 0.263977 0.660033
378 4 0.275804 0.279655 0.685486
10 3 0.297527 0.258881 0.678901
377 2 0.270167 0.304676 0.710835
379 4 0.264531 0.329698 0.736185
812 2 0.0872403 0.39705 0.623057
813 4 0.0824559 0.388553 0.657776
668 2 0.995763 0.398631 0.678379
435 4 0.101494 0.393122 0.680138
434 2 0.125257 0.402285 0.705668
670 4 0.0068641 0.392805 0.712191
843 4 0.201854 0.481869 0.648792
436 4 0.149021 0.411448 0.731198
280 4 0.220323 0.462909 0.661242
278 2 0.212026 0.440213 0.688009
279 4 0.203729 0.417516 0.714776
1179 4 0.214661 0.403073 0.737847
1522 4 0.150599 0.430855 0.754246
1178 2 0.242105 0.380086 0.733502
62 3 0.0910296 0.0114519 0.838896
1371 4 0.174559 0.0742323 0.758478
836 2 0.188346 0.120498 0.789109
838 4 0.187636 0.0853498 0.781073
1089 4 0.239297 0.0675511 0.866812
1090 4 0.300067 0.0504951 0.831914
1296 4 0.301076 0.0539608 0.803847
1088 2 0.269682 0.0590231 0.849363
1295 2 0.320103 0.0252512 0.793161
84 3 0.434537 0.00354294 0.856281
909 4 0.406705 0.00723346 0.859881
908 2 0.395883 0.0413399 0.864362
837 4 0.189055 0.155645 0.797144
103 3 0.340849 0.152368 0.761631
492 4 0.323982 0.136059 0.744351
102 3 0.36076 0.196904 0.785265
1170 4 0.332014 0.193784 0.786022
1169 2 0.319312 0.220298 0.806904
101 1 0.367273 0.172828 0.763387
105 3 0.393759 0.156105 0.77327
1590 4 0.412361 0.173418 0.759253
1589 2 0.446788 0.178525 0.768696
1591 4 0.481215 0.183631 0.778139
1041 4 0.13265 0.325837 0.873878
1186 4 0.251908 0.266219 0.860544
1171 4 0.30661 0.246812 0.827787
321 4 0.355995 0.357027 0.863175
1184 2 0.279951 0.28855 0.864468
1185 4 0.307993 0.31088 0.868393
262 4 0.335349 0.374949 0.854914
320 2 0.388893 0.3423 0.862036
322 4 0.421791 0.327574 0.860897
556 4 0.414931 0.314923 0.886731
1520 2 0.175412 0.418926 0.777537
1521 4 0.200224 0.406998 0.800828
260 2 0.330301 0.406048 0.872459
64 3 0.100584 0.0226206 0.891073
931 4 0.0507966 0.0827796 0.906641
508 4 0.023906 0.0717523 0.90424
929 2 0.0776913 0.106802 0.906835
797 2 0.143409 0.00988882 0.936613
798 4 0.172686 0.00336296 0.956631
49 3 0.226585 0.100092 0.941439
46 1 0.24932 0.0958216 0.917255
47 3 0.234418 0.082556 0.890747
270 4 0.194824 0.122389 0.91095
574 4 0.222275 0.108581 0.969187
572 2 0.193159 0.117849 0.98834
269 2 0.161191 0.130226 0.900564
50 3 0.273022 0.0755741 0.927604
795 4 0.301777 0.0693182 0.922511
794 2 0.323262 0.0412082 0.915535
323 2 0.308527 0.0931189 0.979207
796 4 0.344747 0.0130983 0.908559
324 4 0.286107 0.0837605 0.952557
325 4 0.330946 0.102477 0.00585677
910 4 0.385061 0.0754464 0.868843
1012 4 0.475489 0.0747079 0.958217
1010 2 0.444659 0.088975 0.970315
1011 4 0.413828 0.103242 0.982413
930 4 0.104586 0.130825 0.907028
271 4 0.127559 0.138063 0.890177
617 2 0.00292986 0.222566 0.943061
1500 4 0.994694 0.200176 0.98977
354 4 0.219975 0.217423 0.910102
353 2 0.236973 0.185624 0.910682
355 4 0.25397 0.153825 0.911262
48 3 0.262491 0.125348 0.908615
45 3 0.299183 0.171418 0.982814
43 3 0.297815 0.14808 0.0318278
619 4 0.990988 0.229534 0.909755
895 4 0.037818 0.299914 0.868956
893 2 0.0714508 0.311506 0.874864
894 4 0.105084 0.323098 0.880771
39 3 0.00212275 0.24521 0.888577
737 2 0.103658 0.333423 0.96993
40 3 0.0218165 0.295493 0.894293
739 4 0.107174 0.331506 0.934092
738 4 0.100141 0.33534 0.00576901
1040 2 0.154877 0.316493 0.900694
66 1 0.204684 0.336562 0.966343
69 3 0.226022 0.326612 0.990126
67 3 0.195017 0.310082 0.948847
1042 4 0.177104 0.307148 0.92751
68 3 0.177769 0.350701 0.98033
70 3 0.219447 0.357978 0.946287
251 2 0.331255 0.324345 0.924015
253 4 0.316471 0.325192 0.891134
252 4 0.34604 0.323498 0.956896
554 2 0.442541 0.297422 0.901956
555 4 0.470152 0.279922 0.917181
987 4 0.497216 0.286663 0.926586
422 2 0.202674 0.413541 0.929596
424 4 0.19188 0.447949 0.929538
423 4 0.213468 0.379132 0.929655
547 4 0.167677 0.463951 0.929094
261 4 0.325254 0.437147 0.890003
1124 2 0.270027 0.450336 0.909092
1126 4 0.23613 0.462513 0.907332
1125 4 0.303925 0.438159 0.910851
13 3 0.425458 0.420582 0.959249
12 3 0.414942 0.41758 0.906156
14 3 0.44875 0.455851 0.924347
11 1 0.421049 0.438392 0.931261
15 3 0.395554 0.458785 0.934854
1444 4 0.428746 0.405796 0.985264
1442 2 0.413031 0.379108 0.00373554
516 4 0.0582301 0.490656 0.0155813
326 2 0.0881479 0.523343 0.998333
630 4 0.200311 0.578041 0.0299013
627 4 0.223955 0.592961 0.0279728
828 4 0.21285 0.608342 0.119539
626 2 0.22812 0.596518 0.063616
628 4 0.232285 0.600075 0.0992592
328 4 0.115928 0.5448 0.00659786
629 2 0.16539 0.571483 0.0237386
391 4 0.289306 0.536283 0.100361
292 4 0.283662 0.545118 0.0747113
290 2 0.313513 0.539063 0.0554056
291 4 0.343364 0.533009 0.0360999
80 3 0.364887 0.550542 0.0294496
78 3 0.412179 0.523926 0.0314341
76 1 0.382866 0.526826 0.015551
123 3 0.495315 0.545444 0.0358395
125 3 0.474473 0.531252 0.0839339
752 2 0.326298 0.663216 0.0333127
753 4 0.3535 0.655651 0.0557466
754 4 0.299096 0.67078 0.0108788
732 4 0.351558 0.667141 0.0821374
731 2 0.371783 0.649364 0.106125
1426 4 0.48675 0.650501 0.111062
1475 2 0.0298582 0.856685 0.0807117
1476 4 0.0352336 0.839024 0.0497335
1477 4 0.0244829 0.874345 0.11169
552 4 0.0118199 0.852388 0.128285
73 3 0.188487 0.856334 0.0501118
404 2 0.13659 0.879007 0.111588
1331 2 0.329817 0.818657 0.0605413
1332 4 0.326571 0.818004 0.0246321
693 4 0.33978 0.7986 0.010211
1333 4 0.333064 0.819311 0.0964505
698 2 0.258243 0.868947 0.0907439
727 4 0.326417 0.806276 0.121943
699 4 0.287875 0.87047 0.11124
687 4 0.433058 0.791593 0.111881
406 4 0.15123 0.885378 0.0792537
74 3 0.224033 0.895203 0.0652843
72 3 0.194848 0.900934 0.019965
71 1 0.194348 0.88927 0.0510195
75 3 0.170581 0.904421 0.0678852
700 4 0.228612 0.867424 0.0702474
312 4 0.0688699 0.543809 0.195111
311 2 0.0677442 0.56837 0.16873
313 4 0.0666185 0.592931 0.14235
376 4 0.0765829 0.534482 0.220492
827 2 0.216588 0.593732 0.152296
829 4 0.220325 0.579122 0.185053
642 4 0.251083 0.500589 0.240669
266 2 0.322891 0.521647 0.210258
390 4 0.299575 0.509351 0.166474
267 4 0.303151 0.497111 0.192687
389 2 0.29444 0.522817 0.133417
268 4 0.342632 0.546183 0.227829
370 4 0.355658 0.562949 0.251098
733 4 0.392008 0.631587 0.130112
652 4 0.0156363 0.718331 0.154346
1068 4 0.0330493 0.698783 0.141254
1067 2 0.0669848 0.696773 0.153287
1069 4 0.10092 0.694764 0.16532
303 4 0.117929 0.695539 0.187692
302 2 0.129153 0.711433 0.218054
304 4 0.140376 0.727327 0.248416
1034 2 0.48888 0.619531 0.223594
1035 4 0.490811 0.637773 0.192547
1424 2 0.477153 0.650896 0.145821
1425 4 0.467556 0.65129 0.180579
88 3 0.0882438 0.86652 0.202684
553 4 0.00632297 0.802192 0.179781
405 4 0.12195 0.872636 0.143923
89 3 0.0923373 0.875168 0.148712
551 2 0.00907142 0.82729 0.154033
1311 4 0.139448 0.856311 0.163342
1310 2 0.143559 0.83092 0.188618
1312 4 0.147671 0.80553 0.213894
193 3 0.126634 0.807351 0.236012
1196 2 0.214903 0.814402 0.229043
742 4 0.293059 0.853246 0.132618
725 2 0.348818 0.815242 0.148743
741 4 0.269614 0.871988 0.198199
740 2 0.281336 0.862617 0.165409
726 4 0.371218 0.824209 0.175543
1198 4 0.232336 0.828491 0.200793
686 2 0.434542 0.764007 0.13506
688 4 0.436026 0.736422 0.15824
86 1 0.0878885 0.889685 0.178535
87 3 0.0584317 0.904948 0.178747
90 3 0.111573 0.911806 0.183877
969 4 0.131268 0.907377 0.202171
1129 4 0.0938295 0.983117 0.225999
483 4 0.159184 0.937349 0.140235
482 2 0.183571 0.922417 0.162207
968 2 0.14884 0.913956 0.232967
484 4 0.207957 0.907486 0.18418
94 3 0.24191 0.936182 0.231789
970 4 0.166412 0.920534 0.263763
494 2 0.239893 0.983025 0.195342
496 4 0.237723 0.949593 0.208686
550 4 0.393963 0.989997 0.170189
548 2 0.37698 0.962179 0.185621
549 4 0.359996 0.934361 0.201054
374 2 0.0806804 0.516279 0.251351
809 2 0.200573 0.602587 0.336152
810 4 0.192674 0.637266 0.342101
811 4 0.208473 0.567907 0.330203
345 4 0.231428 0.56426 0.312401
346 4 0.256943 0.524551 0.257867
344 2 0.244185 0.544405 0.285134
368 2 0.370455 0.554291 0.282824
702 4 0.447986 0.506344 0.347772
369 4 0.385252 0.545633 0.31455
703 4 0.392694 0.55214 0.340889
701 2 0.42034 0.529242 0.344331
1181 2 0.0948558 0.72026 0.333845
1182 4 0.0710268 0.737811 0.354451
1387 4 0.0776255 0.758262 0.374774
900 4 0.193789 0.659943 0.324585
1183 4 0.118685 0.702709 0.31324
901 4 0.143075 0.710979 0.329613
899 2 0.168432 0.685461 0.327099
705 4 0.30353 0.719278 0.343967
704 2 0.333198 0.699242 0.348296
706 4 0.362867 0.679205 0.352625
1313 2 0.466715 0.62434 0.332879
1324 4 0.370776 0.67569 0.379246
1322 2 0.399749 0.656596 0.369428
1314 4 0.435084 0.611969 0.344999
1323 4 0.428723 0.637501 0.359611
1227 4 0.131503 0.802707 0.303425
192 3 0.135848 0.754387 0.242969
191 1 0.138172 0.784229 0.257278
194 3 0.119816 0.78427 0.28526
1226 2 0.137472 0.818622 0.335229
195 3 0.169625 0.790345 0.264499
1197 4 0.197471 0.800313 0.257293
1228 4 0.143441 0.834538 0.367034
580 4 0.0929313 0.983338 0.305577
1128 4 0.117903 0.988904 0.293739
1127 2 0.105866 0.98601 0.259869
578 2 0.077679 0.999552 0.333949
1030 4 0.0209199 0.966047 0.271097
95 3 0.19409 0.928227 0.25626
91 1 0.225987 0.934338 0.261166
92 3 0.239216 0.909693 0.279007
1003 4 0.215512 0.981493 0.295727
93 3 0.229661 0.963042 0.277974
1440 4 0.472768 0.984415 0.307071
1439 2 0.475758 0.990671 0.34246
766 4 0.487263 0.96441 0.291747
1175 2 0.104398 0.512899 0.418528
1177 4 0.113587 0.534094 0.446219
934 4 0.134033 0.531095 0.466443
932 2 0.154331 0.50579 0.482194
264 4 0.442681 0.518334 0.440954
263 2 0.465959 0.526497 0.467258
571 4 0.158293 0.707815 0.469867
529 4 0.175539 0.725129 0.454469
526 4 0.365874 0.688307 0.467774
524 2 0.339748 0.707683 0.483344
916 4 0.394532 0.68999 0.464529
914 2 0.42001 0.713587 0.454804
915 4 0.445487 0.737183 0.44508
24 3 0.446877 0.763514 0.434275
609 4 0.0156878 0.790624 0.466344
1386 4 0.0259248 0.808382 0.378869
1385 2 0.0517751 0.783322 0.376822
610 4 0.0367716 0.738059 0.511
608 2 0.0262297 0.764341 0.488672
1435 4 0.109071 0.826456 0.433688
34 3 0.136785 0.830976 0.443486
1433 2 0.0820569 0.850082 0.437226
185 3 0.0268008 0.885384 0.437704
528 4 0.196723 0.784471 0.419376
35 3 0.149368 0.845306 0.392642
527 2 0.186131 0.7548 0.436923
33 3 0.178023 0.806244 0.417176
31 1 0.161565 0.835079 0.421373
32 3 0.182669 0.857876 0.433021
449 2 0.279026 0.834879 0.46296
1512 4 0.253761 0.792631 0.500606
450 4 0.277028 0.807922 0.48683
604 4 0.496908 0.759359 0.469586
22 3 0.469931 0.807231 0.412008
23 3 0.492904 0.784405 0.455479
21 1 0.476016 0.778383 0.427221
1434 4 0.0550425 0.873707 0.440763
579 4 0.0624268 0.0157653 0.36232
877 4 0.0819296 0.00829433 0.382662
876 4 0.0799142 0.975481 0.446857
875 2 0.0809219 0.991888 0.41476
117 3 0.0745724 0.962877 0.472217
846 4 0.198031 0.881686 0.430601
847 4 0.204096 0.930985 0.482894
845 2 0.201063 0.906335 0.456748
696 4 0.232299 0.934382 0.492009
446 2 0.349683 0.984156 0.443724
448 4 0.356052 0.018566 0.452434
451 4 0.281025 0.861837 0.439091
447 4 0.343314 0.949747 0.435015
776 2 0.294611 0.910078 0.429762
778 4 0.267811 0.886669 0.435613
777 4 0.32141 0.933486 0.42391
695 2 0.266144 0.945049 0.498427
697 4 0.299989 0.955715 0.504845
919 4 0.496388 0.974603 0.385596
844 4 0.17811 0.526344 0.597218
842 2 0.189982 0.504106 0.623005
1156 4 0.331474 0.595953 0.604073
544 4 0.354469 0.591477 0.620888
542 2 0.390151 0.586416 0.622158
1554 4 0.0887028 0.74735 0.620792
570 4 0.154637 0.679338 0.536029
773 2 0.128521 0.718738 0.577714
774 4 0.149258 0.702709 0.552945
569 2 0.156465 0.693576 0.502948
1154 2 0.328485 0.631238 0.597255
1155 4 0.325497 0.666523 0.590437
525 4 0.313622 0.72706 0.498913
1513 4 0.292159 0.7341 0.517972
595 4 0.353363 0.672043 0.576748
593 2 0.364941 0.702478 0.592244
603 4 0.520459 0.71847 0.524131
602 2 0.508684 0.738915 0.496859
594 4 0.376519 0.732912 0.607741
99 3 0.406851 0.732615 0.602497
775 4 0.107785 0.734767 0.602483
1511 2 0.27296 0.763365 0.509289
648 4 0.367827 0.752592 0.628291
804 4 0.369745 0.827705 0.542056
803 2 0.388496 0.833484 0.572312
805 4 0.407247 0.839262 0.602569
1453 4 0.422641 0.827778 0.625104
97 3 0.433585 0.779419 0.608256
923 2 0.0993628 0.94793 0.573656
925 4 0.0982694 0.962374 0.540631
118 3 0.0721129 0.954883 0.525775
116 1 0.0772867 0.977649 0.501799
924 4 0.100456 0.933487 0.606681
119 3 0.108051 0.990499 0.504692
1091 2 0.478944 0.979788 0.581161
1093 4 0.443262 0.981088 0.576103
858 4 0.075353 0.581146 0.718243
857 2 0.040281 0.57637 0.711345
388 4 0.0914325 0.590377 0.697426
386 2 0.120758 0.573725 0.684653
859 4 0.00520903 0.571593 0.704447
387 4 0.150084 0.557073 0.671879
757 4 0.162569 0.549196 0.697415
755 2 0.187356 0.546264 0.723443
756 4 0.212143 0.543331 0.749471
296 2 0.459393 0.541483 0.625948
543 4 0.425833 0.581354 0.623428
298 4 0.435602 0.562863 0.642601
297 4 0.483184 0.520103 0.609296
1553 2 0.0908359 0.724861 0.648901
248 3 0.0454241 0.647315 0.692778
1555 4 0.0929691 0.702372 0.67701
250 3 0.0650604 0.693959 0.673088
249 3 0.0469975 0.692154 0.724267
247 3 0.092853 0.666817 0.710347
246 1 0.0624912 0.6752 0.699927
1398 4 0.107801 0.687229 0.696115
1137 4 0.0198957 0.697429 0.731813
1397 2 0.140924 0.683821 0.709962
1399 4 0.174046 0.680413 0.723808
1320 4 0.245432 0.752558 0.714654
1319 2 0.26688 0.741099 0.741283
861 4 0.452833 0.729553 0.662822
100 3 0.434446 0.743188 0.648055
800 2 0.420581 0.689373 0.740524
760 4 0.457459 0.660572 0.716453
802 4 0.439708 0.682384 0.710762
758 2 0.493081 0.665399 0.713582
860 2 0.487027 0.740792 0.66504
684 4 0.244187 0.762553 0.683868
108 3 0.171163 0.795931 0.724575
106 1 0.204114 0.792528 0.72933
109 3 0.216727 0.771063 0.706967
107 3 0.218649 0.822067 0.725225
867 4 0.155298 0.807462 0.741553
786 4 0.243731 0.826297 0.741009
785 2 0.264108 0.854881 0.732752
647 2 0.341368 0.777094 0.628323
649 4 0.314909 0.801596 0.628354
685 4 0.290674 0.7914 0.636873
683 2 0.267431 0.776977 0.660371
96 1 0.41597 0.756322 0.624286
98 3 0.388819 0.770697 0.637555
890 2 0.429054 0.848645 0.74008
1451 2 0.422475 0.831796 0.660941
1452 4 0.422309 0.835814 0.696778
891 4 0.440961 0.856832 0.707041
420 4 0.0724591 0.929248 0.612681
419 2 0.0741755 0.921929 0.647951
421 4 0.0758919 0.914611 0.68322
690 4 0.0903808 0.932115 0.7019
689 2 0.0727272 0.910212 0.724462
787 4 0.284486 0.883465 0.724495
621 4 0.288246 0.893729 0.697427
620 2 0.318579 0.913211 0.696544
622 4 0.348912 0.932694 0.695662
822 4 0.351618 0.940756 0.668631
821 2 0.363087 0.974893 0.670516
238 3 0.498449 0.973175 0.741272
1514 2 0.0401836 0.554019 0.791745
1516 4 0.0700446 0.561993 0.773166
1515 4 0.0103225 0.546045 0.810324
906 4 0.215568 0.56721 0.762491
905 2 0.236634 0.555259 0.789209
208 3 0.306872 0.507076 0.840826
907 4 0.2577 0.543308 0.815927
207 3 0.286413 0.54512 0.808077
209 3 0.332384 0.520039 0.794075
206 1 0.314522 0.531926 0.819758
210 3 0.331625 0.555117 0.835522
993 4 0.441346 0.607493 0.804043
992 2 0.441069 0.571444 0.80315
994 4 0.440792 0.535394 0.802258
514 4 0.0206113 0.698191 0.844575
874 4 0.00850904 0.671708 0.84953
512 2 0.0062453 0.721081 0.820698
639 4 0.254428 0.626875 0.843452
1321 4 0.288329 0.72964 0.767912
788 2 0.339579 0.706636 0.766503
790 4 0.304115 0.707401 0.772997
640 4 0.307185 0.669967 0.867147
638 2 0.280806 0.648421 0.855299
1271 2 0.361524 0.669629 0.844771
1273 4 0.334289 0.68 0.866012
853 4 0.357179 0.76166 0.87731
789 4 0.375043 0.70587 0.760008
772 4 0.421807 0.743299 0.780809
1360 4 0.441789 0.631435 0.789012
801 4 0.401454 0.696361 0.770285
1358 2 0.467867 0.64978 0.80586
1359 4 0.493945 0.668124 0.822708
1272 4 0.388758 0.659258 0.82353
1306 4 0.072229 0.761968 0.860377
616 4 0.0552915 0.75973 0.882113
1305 4 0.0831895 0.824926 0.826943
613 4 0.0683632 0.841517 0.808473
611 2 0.0403428 0.863426 0.814412
1304 2 0.0777093 0.793447 0.84366
110 3 0.209985 0.781721 0.759786
866 2 0.146357 0.817942 0.77488
1502 2 0.160533 0.814266 0.867593
1504 4 0.150696 0.824364 0.834401
868 4 0.137416 0.828421 0.808207
851 2 0.346717 0.746549 0.846283
852 4 0.336255 0.731439 0.815256
730 4 0.385448 0.814638 0.862717
892 4 0.417146 0.840458 0.77312
770 2 0.413236 0.778302 0.779483
771 4 0.404664 0.813304 0.778156
728 2 0.404194 0.843924 0.853159
61 1 0.0966214 0.998034 0.868718
612 4 0.0123224 0.885336 0.82035
691 4 0.0550737 0.888309 0.747023
63 3 0.124387 0.979416 0.86717
729 4 0.42294 0.87321 0.843602
1380 4 0.506643 0.974569 0.769479
256 4 0.438685 0.867965 0.817635
254 2 0.463315 0.893579 0.823778
85 3 0.44858 0.953566 0.840344
81 1 0.439238 0.971859 0.865975
83 3 0.410979 0.959601 0.879056
1381 4 0.484737 0.970661 0.838083
1379 2 0.49569 0.972615 0.803781
255 4 0.487945 0.919193 0.829921
306 4 0.0109164 0.604349 0.937563
545 2 0.161395 0.499229 0.925045
546 4 0.155113 0.534508 0.920996
631 4 0.130469 0.564925 0.0175758
1279 4 0.471288 0.541412 0.932672
79 3 0.388025 0.533858 0.983242
1278 4 0.404234 0.534671 0.958364
1277 2 0.437761 0.538041 0.945518
1570 4 0.484239 0.55315 0.908965
305 2 0.0373243 0.628887 0.938518
307 4 0.0637322 0.653426 0.939473
913 4 0.0845401 0.640944 0.924388
911 2 0.105973 0.669829 0.926987
912 4 0.127405 0.698714 0.929586
664 4 0.149337 0.71188 0.936631
942 4 0.391267 0.733677 0.952758
941 2 0.387695 0.747968 0.919842
943 4 0.384123 0.762259 0.886926
614 2 0.0220641 0.752523 0.894132
662 2 0.157936 0.744246 0.923254
663 4 0.166535 0.776612 0.909876
1503 4 0.170369 0.804168 0.900785
692 2 0.358761 0.774557 0.991183
694 4 0.377742 0.750513 0.972155
1473 4 0.00487486 0.959744 0.94375
65 3 0.0710019 0.979273 0.877116
1474 4 0.0610831 0.964957 0.898858
1472 2 0.032979 0.96235 0.921304
799 4 0.114132 0.0164147 0.916595
714 4 0.218547 0.891624 0.00319008
713 2 0.242088 0.911335 0.984276
835 4 0.287322 0.939106 0.946593
833 2 0.308459 0.964384 0.931939
834 4 0.329595 0.989661 0.917286
715 4 0.26563 0.931046 0.965363
854 2 0.477478 0.965363 0.934615
82 3 0.462975 0.971141 0.889142
855 4 0.461597 0.987648 0.911129
115 3 0.52816 0.078091 0.0203173
168 3 0.554459 0.091479 0.0908315
166 1 0.552182 0.121772 0.104871
849 4 0.517551 0.0656643 0.044955
169 3 0.582628 0.132717 0.113425
132 3 0.708044 0.0866398 0.0115275
131 1 0.735675 0.0770058 0.0271611
973 4 0.723162 0.0982302 0.10246
134 3 0.731171 0.0460256 0.0389882
831 4 0.694283 0.10632 0.992471
133 3 0.741732 0.0981086 0.0524182
1023 4 0.741127 0.0936008 0.0821834
135 3 0.760778 0.077377 0.00598172
1022 2 0.771935 0.0877753 0.0999977
1348 4 0.847141 0.00430249 0.0355848
1246 4 0.517424 0.15173 0.0686021
167 3 0.539005 0.142824 0.0828745
1132 4 0.537884 0.242675 0.119416
971 2 0.695058 0.119388 0.110394
1075 4 0.663227 0.203237 0.0524724
1123 4 0.666324 0.216719 0.0791828
1121 2 0.644642 0.191915 0.0938476
1122 4 0.62296 0.16711 0.108513
1073 2 0.652885 0.200924 0.0180033
972 4 0.666954 0.140546 0.118329
1501 4 0.954699 0.185688 0.0480124
1499 2 0.974697 0.192932 0.018891
1131 4 0.54669 0.314058 0.114063
1130 2 0.542287 0.278367 0.116739
1095 4 0.835347 0.333179 0.0532759
1094 2 0.806852 0.321479 0.0345267
177 3 0.823632 0.355916 0.0670142
1096 4 0.778356 0.309778 0.0157775
592 4 0.76794 0.282137 0.0135863
673 4 0.965333 0.372817 0.0854802
671 2 0.98595 0.353686 0.10805
1008 4 0.944319 0.38532 0.0692725
1105 4 0.566348 0.392177 0.990861
885 4 0.580976 0.49349 0.0367614
1103 2 0.578857 0.406886 0.0213176
1327 4 0.565979 0.435019 0.0553775
1104 4 0.591367 0.421595 0.0517742
1325 2 0.555629 0.46719 0.0679608
1326 4 0.545279 0.499361 0.0805441
720 4 0.701844 0.400895 0.0997603
1050 4 0.714902 0.384862 0.0791573
719 2 0.675286 0.418268 0.116886
1049 2 0.749175 0.385059 0.0903731
176 1 0.832902 0.384197 0.0816773
178 3 0.863718 0.380326 0.0941399
179 3 0.832781 0.408729 0.0589161
1051 4 0.783447 0.385256 0.101589
180 3 0.811834 0.39125 0.105869
1053 4 0.816215 0.430898 0.0599569
1052 2 0.822268 0.437083 0.0249492
1060 4 0.764113 0.479932 0.0804527
946 4 0.885782 0.367311 0.106972
1007 2 0.965502 0.404796 0.0475383
1009 4 0.986686 0.424272 0.025804
170 3 0.532898 0.120397 0.131424
961 4 0.588918 0.137139 0.141619
646 4 0.807191 0.0677381 0.143871
1024 4 0.802744 0.0819497 0.117812
644 2 0.837375 0.0650281 0.163416
645 4 0.86756 0.0623181 0.18296
333 4 0.865257 0.0690354 0.211821
332 2 0.874184 0.0788656 0.245349
1254 4 0.909811 0.0306892 0.115091
1253 2 0.929324 0.0103761 0.137609
1373 2 0.575006 0.203313 0.132923
1374 4 0.602075 0.181069 0.124382
1375 4 0.547938 0.225557 0.141463
959 2 0.624128 0.129406 0.140657
960 4 0.659338 0.121673 0.139694
318 4 0.679669 0.197806 0.184017
1072 4 0.679921 0.217011 0.205
317 2 0.708789 0.176747 0.187019
1070 2 0.667811 0.226706 0.237554
319 4 0.737909 0.155688 0.190021
520 4 0.960113 0.248313 0.152261
1065 4 0.551113 0.317502 0.142232
1064 2 0.560045 0.35239 0.140361
724 4 0.514767 0.273298 0.246915
1047 4 0.807239 0.318971 0.120579
1046 2 0.811926 0.340602 0.14905
1265 2 0.852527 0.28882 0.217406
1266 4 0.8192 0.286367 0.230961
949 4 0.792318 0.284184 0.246753
1048 4 0.816612 0.362233 0.17752
1267 4 0.885853 0.291272 0.203851
519 4 0.905929 0.276498 0.190621
518 2 0.933021 0.262406 0.171441
1066 4 0.568977 0.387278 0.13849
745 4 0.563567 0.415219 0.126832
743 2 0.594026 0.43411 0.130815
721 4 0.648728 0.435642 0.134011
744 4 0.624484 0.453 0.134798
1045 4 0.831838 0.387659 0.184444
1043 2 0.816686 0.42029 0.181977
1044 4 0.801535 0.452921 0.179509
1114 4 0.825454 0.469236 0.181468
1422 4 0.907112 0.473648 0.215123
944 2 0.896976 0.378959 0.139213
357 4 0.888819 0.453279 0.229287
945 4 0.90817 0.390606 0.171453
358 4 0.906338 0.389811 0.199848
356 2 0.897579 0.421545 0.214567
1000 4 0.561541 0.146344 0.257397
1382 2 0.643181 0.992661 0.298929
1384 4 0.645855 0.0269728 0.3097
963 4 0.668018 0.0379542 0.294944
962 2 0.682311 0.0701789 0.302541
964 4 0.696604 0.102404 0.310137
342 4 0.722702 0.0932571 0.316527
1025 2 0.810394 0.0807672 0.378169
341 2 0.757476 0.0979687 0.324832
1027 4 0.799034 0.109708 0.359898
343 4 0.792251 0.10268 0.333137
1158 4 0.827624 0.0298366 0.380186
334 4 0.883111 0.0886959 0.278877
489 4 0.910117 0.101587 0.285016
488 2 0.901445 0.134027 0.298164
998 2 0.530532 0.134706 0.271661
1362 4 0.560867 0.243559 0.331549
162 3 0.602857 0.201016 0.32142
1361 2 0.547836 0.254639 0.299803