ITEM: TIMESTEP
4790000
ITEM: NUMBER OF ATOMS
4800
ITEM: BOX BOUNDS pp pp pp
-9.9985700000000008e+00 9.9985700000000008e+00
-9.9985700000000008e+00 9.9985700000000008e+00
-9.9985700000000008e+00 9.9985700000000008e+00
ITEM: ATOMS id type xs ys zs
984 4 0.0753644 0.046187 0.0296656
982 2 0.0555456 0.0614307 0.029517
1203 4 0.0117816 0.0359184 0.0167702
983 4 0.0357268 0.0766745 0.0293684
1440 4 0.00516692 0.0293235 0.0647389
1438 2 0.0233764 0.0304077 0.0818391
1715 4 0.0941928 0.0380413 0.0283639
1714 2 0.104083 0.0289339 0.0494449
1716 4 0.113974 0.0198264 0.0705259
818 4 0.255252 0.0123818 0.0326137
803 4 0.0546384 0.147432 0.0446476
1671 4 0.0399189 0.139697 0.0345224
1669 2 0.0322672 0.11638 0.0297322
1670 4 0.0246155 0.0930629 0.024942
802 2 0.0594257 0.165204 0.0615708
3537 4 0.0930513 0.0998606 0.0108527
1128 4 0.10827 0.103556 0.0217969
1126 2 0.112566 0.113726 0.0442311
1127 4 0.116863 0.123896 0.0666653
1458 4 0.187482 0.108982 0.0668482
1185 4 0.174696 0.124443 0.0632091
1183 2 0.180622 0.147583 0.0558183
1349 4 0.283352 0.108608 0.0154266
850 2 0.313404 0.124952 0.0365001
852 4 0.289814 0.119128 0.0306043
1348 2 0.262217 0.111502 0.00238406
851 4 0.336995 0.130776 0.042396
3462 4 0.345633 0.147717 0.048728
1758 4 0.494612 0.0906027 0.0770688
3410 4 0.488763 0.157702 0.0715409
804 4 0.0642131 0.182977 0.0784939
3312 4 0.0558791 0.225866 0.0124638
865 2 0.141783 0.221326 0.0542897
866 4 0.127803 0.230418 0.0729193
867 4 0.155764 0.212234 0.0356602
1373 4 0.118163 0.24726 0.0753631
298 3 0.167725 0.197031 0.0329391
1149 4 0.163595 0.177926 0.00165412
1184 4 0.186547 0.170722 0.0484276
300 3 0.183894 0.179833 0.00360568
297 3 0.200686 0.179417 0.0369337
296 1 0.187812 0.191895 0.0225215
299 3 0.199217 0.211403 0.0172516
2742 4 0.194144 0.22282 0.00217473
1151 4 0.328674 0.189126 0.0852419
3460 2 0.354515 0.170732 0.0446543
3461 4 0.363397 0.193747 0.0405806
906 4 0.385826 0.212839 0.0285073
3576 4 0.365377 0.212134 0.0335009
3574 2 0.363395 0.221936 0.0105843
904 2 0.40809 0.213355 0.0398747
1208 4 0.472623 0.1689 0.0783415
905 4 0.430354 0.213871 0.0512421
1209 4 0.441513 0.198776 0.0530361
1207 2 0.457068 0.183838 0.0656888
1992 4 0.0517711 0.28421 0.0204027
1556 4 0.00181261 0.296715 0.0748473
3311 4 0.0538053 0.274867 0.00270072
1990 2 0.0418634 0.307059 0.0181781
1991 4 0.0319557 0.329908 0.0159535
3310 2 0.0548422 0.250367 0.00758226
1372 2 0.108281 0.270014 0.0784925
775 2 0.167464 0.335387 0.0132079
825 4 0.0118423 0.333263 0.0170646
1088 4 0.0828906 0.395993 0.0197665
823 2 0.998735 0.350931 0.0289476
2055 4 0.0874052 0.394665 0.00116711
1407 4 0.167173 0.344094 0.0559512
1405 2 0.19083 0.345321 0.0639499
1406 4 0.214488 0.346549 0.0719487
777 4 0.169649 0.346094 0.0356969
789 4 0.331287 0.385373 0.0114608
788 4 0.283404 0.37821 0.998946
787 2 0.307345 0.381792 0.00520348
1913 4 0.284363 0.412066 0.0199041
1011 4 0.356751 0.355342 0.0762493
1119 4 0.34589 0.360749 0.0598547
1118 4 0.388889 0.379065 0.0420688
1117 2 0.367389 0.369907 0.0509617
1266 4 0.402057 0.380687 0.0278853
1264 2 0.404936 0.39221 0.00588269
4360 2 0.482636 0.367013 0.00968895
4058 4 0.483314 0.401712 0.0148936
1033 2 0.427976 0.414681 0.0776487
4362 4 0.481923 0.386091 0.0258361
3936 4 0.0368808 0.477364 0.049168
3934 2 0.0145019 0.475505 0.0381722
675 3 0.0514321 0.46822 0.0600077
671 1 0.0724514 0.461866 0.066046
1089 4 0.0741112 0.44258 0.0356824
1087 2 0.0785009 0.419286 0.0277245
672 3 0.0834301 0.479832 0.0753106
673 3 0.0842231 0.454693 0.0473808
768 4 0.224951 0.414389 0.015927
766 2 0.2059 0.429257 0.00951152
767 4 0.186849 0.444126 0.00309607
1783 2 0.25457 0.469123 0.0698635
1912 2 0.281241 0.435661 0.027566
1784 4 0.270727 0.469364 0.0507828
1914 4 0.278119 0.459256 0.0352278
4215 4 0.415348 0.436751 0.0485593
1035 4 0.410261 0.427784 0.065832
4213 2 0.420861 0.441222 0.0245844
4057 2 0.490871 0.424636 0.0214179
4214 4 0.426375 0.445693 0.000609617
1834 2 0.0308838 0.0110973 0.135142
1836 4 0.0415747 0.0247105 0.117099
1439 4 0.0415859 0.0314918 0.0989394
918 4 0.104625 0.0201203 0.0878249
916 2 0.122526 0.0271094 0.103821
1030 2 0.146383 0.0750929 0.153009
917 4 0.140427 0.0340984 0.119818
1031 4 0.131353 0.0551116 0.153171
3205 2 0.392115 0.0672372 0.140151
3206 4 0.39266 0.0792719 0.118241
3207 4 0.39157 0.0552024 0.162061
846 4 0.064242 0.0926363 0.129088
844 2 0.0402548 0.0860123 0.126655
845 4 0.0162677 0.0793884 0.124223
1164 4 0.0790075 0.104851 0.128431
1162 2 0.0840734 0.126592 0.139693
1163 4 0.0891394 0.148334 0.150955
1219 2 0.162634 0.134093 0.135515
1220 4 0.160524 0.158865 0.132856
1032 4 0.161413 0.0950742 0.152846
1221 4 0.164744 0.109321 0.138174
1457 4 0.216086 0.105686 0.107734
1328 4 0.218477 0.09361 0.121748
1456 2 0.201784 0.107334 0.0872911
1327 2 0.232821 0.0986467 0.141599
1329 4 0.247164 0.103683 0.16145
799 2 0.327717 0.148446 0.0961093
800 4 0.325715 0.127936 0.110269
3299 4 0.371762 0.0834625 0.112624
3300 4 0.345468 0.125934 0.114975
3298 2 0.358615 0.104698 0.113799
3212 4 0.468539 0.14326 0.103802
1757 4 0.464159 0.123674 0.0989691
1756 2 0.479385 0.107138 0.0880189
3211 2 0.459786 0.148443 0.126642
3213 4 0.451032 0.153627 0.149483
3293 4 0.434729 0.160875 0.161103
926 4 0.138697 0.229568 0.127942
925 2 0.152928 0.216273 0.143623
4223 4 0.122277 0.241638 0.126499
1739 4 0.152505 0.190562 0.165793
927 4 0.167159 0.202978 0.159304
801 4 0.32972 0.168956 0.0819495
1083 4 0.296823 0.233267 0.108871
1152 4 0.290429 0.214953 0.104503
1150 2 0.309551 0.20204 0.0948727
1081 2 0.311914 0.249789 0.120028
1374 4 0.0983997 0.292768 0.081622
1047 4 0.0856466 0.281173 0.165201
939 4 0.117657 0.299529 0.0845447
937 2 0.127246 0.320138 0.0949611
4222 2 0.105016 0.254286 0.139431
4224 4 0.0877548 0.266935 0.152363
1082 4 0.327005 0.266311 0.131184
70 3 0.322656 0.285192 0.130362
68 3 0.335083 0.312754 0.107921
67 3 0.348117 0.309372 0.143011
66 1 0.340812 0.297675 0.1246
3599 4 0.366581 0.269308 0.128714
69 3 0.357919 0.283836 0.117233
3598 2 0.388925 0.272496 0.139475
3600 4 0.411268 0.275684 0.150236
2826 4 0.339677 0.326411 0.135843
1010 4 0.343047 0.329739 0.116961
1241 4 0.468657 0.273998 0.121358
1240 2 0.449183 0.269784 0.136463
1242 4 0.429709 0.26557 0.151569
2061 4 0.489457 0.276022 0.119708
830 4 0.14469 0.345498 0.123743
938 4 0.136835 0.340747 0.105378
829 2 0.167137 0.348353 0.13438
764 4 0.229881 0.342387 0.0840002
831 4 0.189584 0.351207 0.145018
2183 4 0.198222 0.3671 0.153185
763 2 0.235389 0.348843 0.10752
765 4 0.240897 0.355299 0.131039
1009 2 0.349899 0.342541 0.096605
2824 2 0.338138 0.346418 0.15076
2825 4 0.3366 0.366426 0.165677
3271 2 0.482553 0.387143 0.0990026
3273 4 0.45759 0.387899 0.097783
1034 4 0.445691 0.401577 0.0894653
674 3 0.0713646 0.444825 0.0817564
4075 2 0.0755992 0.487733 0.146915
4076 4 0.0545724 0.479902 0.157948
2079 4 0.0851869 0.487975 0.0932185
4077 4 0.0966259 0.495565 0.135882
1785 4 0.238413 0.468882 0.0889442
855 4 0.223693 0.478037 0.0983529
962 4 0.335164 0.480424 0.117951
963 4 0.355294 0.437517 0.101997
961 2 0.345229 0.458971 0.109974
13 3 0.344639 0.492886 0.130306
2216 4 0.318663 0.0115686 0.239546
893 4 0.301119 0.00966727 0.246794
1938 4 0.274133 0.0732988 0.247827
2965 2 0.381425 0.0652019 0.196304
2967 4 0.367409 0.0604069 0.216447
2966 4 0.395441 0.0699968 0.176161
1787 4 0.353999 0.0569198 0.230527
2215 2 0.337698 0.00323883 0.225636
2217 4 0.356732 0.994909 0.211727
3064 2 0.490725 0.0336837 0.242189
1740 4 0.126202 0.15296 0.185667
1061 4 0.123728 0.135996 0.177812
1062 4 0.128867 0.09992 0.212058
1060 2 0.126297 0.117958 0.194935
929 4 0.146824 0.0915381 0.215149
928 2 0.166361 0.0977446 0.229465
930 4 0.185897 0.103951 0.243782
966 4 0.245469 0.10159 0.181724
964 2 0.268962 0.108892 0.186191
965 4 0.292455 0.116194 0.190658
769 2 0.327778 0.0963166 0.195705
770 4 0.303538 0.101901 0.198243
771 4 0.352017 0.0907319 0.193166
899 4 0.0216113 0.202444 0.239217
884 4 0.0284115 0.228777 0.239094
898 2 0.0456266 0.195795 0.241275
883 2 0.00969205 0.2379 0.252933
1854 4 0.0447171 0.238852 0.235447
900 4 0.0696419 0.189145 0.243332
1852 2 0.0648716 0.248752 0.246446
1738 2 0.139354 0.171761 0.17573
2940 4 0.44015 0.180498 0.207091
2938 2 0.438558 0.178761 0.231983
3292 2 0.442036 0.18367 0.168327
1861 2 0.473059 0.221484 0.196113
3294 4 0.449342 0.206465 0.175551
1862 4 0.457268 0.226036 0.177269
1863 4 0.48885 0.216932 0.214957
1046 4 0.0412667 0.300735 0.177385
1045 2 0.0634566 0.290954 0.171293
2993 4 0.00463848 0.276267 0.204713
1169 4 0.103614 0.337476 0.181715
861 4 0.198006 0.313971 0.23222
1028 4 0.199358 0.306959 0.249147
791 4 0.245403 0.282916 0.235306
2269 2 0.235837 0.305821 0.205778
790 2 0.249488 0.259277 0.242355
2271 4 0.241844 0.283398 0.215069
2270 4 0.22983 0.328244 0.196487
3992 4 0.092772 0.389232 0.195432
1170 4 0.0861008 0.376059 0.208273
1168 2 0.0948574 0.356767 0.194994
3991 2 0.0846584 0.412852 0.194225
1044 4 0.102904 0.346813 0.252649
1892 4 0.177375 0.372723 0.230336
859 2 0.184888 0.334556 0.226801
2182 2 0.213954 0.356221 0.169289
2184 4 0.229685 0.345341 0.185393
860 4 0.171771 0.355141 0.221381
1891 2 0.175636 0.396376 0.238254
1412 4 0.34557 0.366411 0.183599
1411 2 0.358704 0.387621 0.18192
1413 4 0.371838 0.408831 0.18024
2157 4 0.0388294 0.467437 0.204751
2155 2 0.0623815 0.461059 0.199293
3866 4 0.0219306 0.472945 0.213925
3865 2 0.0134607 0.455014 0.229154
3867 4 0.00499076 0.437083 0.244383
3993 4 0.0765448 0.436471 0.193018
4164 4 0.004351 0.417998 0.249717
2156 4 0.0859337 0.454681 0.193834
1789 2 0.221487 0.485208 0.212244
1790 4 0.21667 0.496936 0.233795
1791 4 0.226303 0.47348 0.190693
1893 4 0.173898 0.420029 0.246171
2168 4 0.406482 0.494137 0.232245
969 4 0.383328 0.416907 0.193987
967 2 0.385537 0.441069 0.200029
968 4 0.387746 0.465231 0.206071
55 3 0.37174 0.478575 0.202621
2149 2 0.031867 0.000720935 0.310774
2151 4 0.0416588 0.0236108 0.313087
4430 4 0.999278 0.0445922 0.329589
4429 2 0.0188049 0.0598268 0.33302
4431 4 0.0383323 0.0750613 0.336451
47 3 0.12904 0.000933397 0.257935
1072 2 0.153515 0.0169822 0.286425
1074 4 0.133886 0.0144037 0.271153
243 3 0.190105 0.0121215 0.307382
242 3 0.202719 0.0324897 0.278422
241 1 0.207334 0.02576 0.299929
245 3 0.209072 0.0441005 0.313318
1098 4 0.210467 0.0487621 0.332472
244 3 0.227335 0.0139972 0.299979
1073 4 0.173143 0.0195608 0.301697
1937 4 0.233479 0.0794307 0.276293
1936 2 0.253806 0.0763648 0.26206
894 4 0.309163 0.0153063 0.295827
892 2 0.305141 0.0124868 0.27131
4243 2 0.390135 0.00583397 0.271223
1786 2 0.357579 0.055526 0.255234
1788 4 0.361158 0.0541322 0.279941
4245 4 0.412709 0.0148987 0.277003
3669 4 0.364848 0.0479856 0.298295
3667 2 0.365159 0.063827 0.317638
3999 4 0.410288 0.033114 0.267385
950 4 0.414105 0.0405309 0.331373
3997 2 0.433492 0.0418878 0.264259
3066 4 0.475472 0.0507889 0.252187
3998 4 0.456696 0.0506616 0.261132
1141 2 0.115015 0.169537 0.332335
83 3 0.16607 0.142849 0.310419
1882 2 0.180405 0.12627 0.278973
1884 4 0.182173 0.107259 0.262828
1883 4 0.178637 0.14528 0.295118
1110 4 0.00131219 0.166892 0.291385
2274 4 0.0187409 0.174701 0.286037
2272 2 0.0250721 0.189049 0.305511
2273 4 0.0314033 0.203396 0.324985
1142 4 0.103836 0.189986 0.323276
981 4 0.20969 0.191094 0.270033
979 2 0.224369 0.206537 0.256948
980 4 0.239049 0.221979 0.243863
792 4 0.253574 0.235638 0.249405
849 4 0.317391 0.243595 0.290012
3255 4 0.273301 0.171493 0.324554
2939 4 0.436965 0.177023 0.256876
20 3 0.0683561 0.28131 0.306103
974 4 0.0672128 0.299328 0.315062
973 2 0.0495916 0.316726 0.318523
975 4 0.0319703 0.334124 0.321985
17 3 0.0819695 0.296092 0.274654
18 3 0.0787389 0.258777 0.277781
16 1 0.0834137 0.278388 0.289269
882 4 0.00833949 0.264003 0.322254
1853 4 0.0850262 0.258652 0.257444
1043 4 0.100177 0.302647 0.275942
868 2 0.136055 0.285628 0.288668
870 4 0.112297 0.293343 0.289768
19 3 0.10492 0.277554 0.29794
869 4 0.159813 0.277913 0.287568
1042 2 0.10154 0.32473 0.264295
1029 4 0.174 0.290915 0.289151
1027 2 0.186679 0.298937 0.269149
847 2 0.334814 0.252408 0.274392
848 4 0.352236 0.261221 0.258773
3513 4 0.488646 0.312398 0.315251
3511 2 0.472757 0.329376 0.30606
3234 4 0.0162017 0.336966 0.308836
3232 2 0.00196398 0.348935 0.292126
603 3 0.0617963 0.413125 0.310403
2852 4 0.0729261 0.404459 0.269974
2851 2 0.0869817 0.385016 0.262932
2853 4 0.101037 0.365573 0.25589
1018 2 0.1237 0.407493 0.334653
1966 2 0.444836 0.379233 0.313945
1968 4 0.448154 0.354506 0.315604
3512 4 0.456869 0.346354 0.296869
1967 4 0.441518 0.40396 0.312287
2186 4 0.00180201 0.471855 0.293668
604 3 0.0676932 0.447615 0.295568
601 1 0.0771081 0.42679 0.299575
2187 4 0.0482041 0.453253 0.29244
2185 2 0.0250031 0.462554 0.293054
605 3 0.0835033 0.41724 0.279914
3942 4 0.000905681 0.476486 0.273086
602 3 0.0955521 0.429438 0.313064
1020 4 0.110093 0.427077 0.327137
1847 4 0.170326 0.412931 0.265843
1848 4 0.172147 0.450021 0.299335
1846 2 0.171236 0.431476 0.282589
2047 2 0.327965 0.4559 0.330662
2049 4 0.346622 0.449715 0.315208
2167 2 0.416352 0.487477 0.254232
2169 4 0.426221 0.480817 0.276219
1113 4 0.415801 0.493552 0.289437
783 4 0.478466 0.473765 0.296262
4013 4 0.441589 0.422137 0.321277
4012 2 0.453623 0.441249 0.310548
4014 4 0.465657 0.46036 0.299818
781 2 0.498786 0.474003 0.281695
57 3 0.0397558 0.0777486 0.35637
58 3 0.0670288 0.0884006 0.379936
60 3 0.0318257 0.0835391 0.392376
1096 2 0.225577 0.0666702 0.3412
90 3 0.188194 0.075177 0.404256
89 3 0.224803 0.0672246 0.408027
1079 4 0.248463 0.0242519 0.350379
1097 4 0.240686 0.0845784 0.349928
1077 4 0.172553 0.0766611 0.391241
1078 2 0.26405 0.0235866 0.369918
1877 4 0.317167 0.0288381 0.331505
1080 4 0.279638 0.0229213 0.389457
1876 2 0.328209 0.029432 0.35393
3181 2 0.327665 0.0499149 0.407813
1878 4 0.33925 0.030026 0.376356
3668 4 0.365471 0.0796684 0.33698
3183 4 0.333927 0.0288306 0.395921
949 2 0.424704 0.0178884 0.331749
4281 4 0.452052 0.0129687 0.388229
4279 2 0.457418 0.0352792 0.39816
4280 4 0.462783 0.0575896 0.408092
22 3 0.456204 0.0679348 0.392124
59 3 0.039628 0.112783 0.36998
56 1 0.0445027 0.0906221 0.374833
2858 4 0.0191764 0.14158 0.404076
1143 4 0.126193 0.149089 0.341394
81 1 0.162113 0.141537 0.333245
84 3 0.140042 0.13552 0.337125
85 3 0.166537 0.161603 0.343064
1076 4 0.175711 0.110815 0.354851
82 3 0.175895 0.125482 0.342271
1075 2 0.174132 0.0937382 0.373046
1159 2 0.274457 0.149069 0.405207
1160 4 0.264624 0.165869 0.389514
920 4 0.354869 0.0949501 0.345804
921 4 0.338121 0.125653 0.381547
919 2 0.346495 0.110301 0.363676
997 2 0.343948 0.14293 0.413958
1500 4 0.401286 0.15245 0.393641
999 4 0.340946 0.142953 0.389135
1498 2 0.412186 0.131091 0.386558
1499 4 0.423085 0.109732 0.379474
25 3 0.440505 0.100117 0.3816
21 1 0.459806 0.090411 0.388806
24 3 0.476441 0.0930676 0.37285
23 3 0.46647 0.0999809 0.408866
828 4 0.00064877 0.189362 0.384181
826 2 0.0141383 0.192717 0.363397
827 4 0.0276279 0.196071 0.342614
1245 4 0.173848 0.179849 0.348097
172 3 0.163841 0.198349 0.402827
1243 2 0.178191 0.186942 0.371677
1244 4 0.182534 0.194034 0.395257
1321 2 0.221423 0.202102 0.406258
1323 4 0.197155 0.196984 0.409429
1322 4 0.245691 0.20722 0.403086
3253 2 0.274733 0.171231 0.349515
3254 4 0.276164 0.170969 0.374476
1206 4 0.316256 0.202123 0.381943
1204 2 0.330662 0.184394 0.37178
1205 4 0.345069 0.166665 0.361616
1055 4 0.446475 0.211223 0.340298
1056 4 0.471246 0.228769 0.380037
1054 2 0.45886 0.219996 0.360168
1237 2 0.156023 0.328425 0.361558
2925 4 0.123414 0.331196 0.382644
1239 4 0.178678 0.31914 0.356489
3152 4 0.188511 0.312138 0.373251
3151 2 0.198597 0.293655 0.386736
3153 4 0.208683 0.275173 0.40022
924 4 0.204448 0.268268 0.418222
932 4 0.303877 0.285208 0.341756
931 2 0.292555 0.303222 0.354889
933 4 0.281232 0.321236 0.368022
794 4 0.494598 0.315445 0.335413
3024 4 0.0218274 0.382962 0.393991
3022 2 0.0232125 0.39791 0.373996
3023 4 0.0245976 0.412859 0.354001
3755 4 0.0289879 0.380297 0.412611
1019 4 0.137306 0.387908 0.342169
2924 4 0.0869322 0.36163 0.367038
1238 4 0.133368 0.337711 0.366628
2923 2 0.105173 0.346413 0.374841
30 3 0.247941 0.330303 0.364879
1131 4 0.19977 0.397747 0.415321
1983 4 0.188525 0.414532 0.409851
2892 4 0.16745 0.417917 0.346477
27 3 0.283528 0.340392 0.359913
29 3 0.257588 0.350726 0.334755
26 1 0.26161 0.346856 0.357277
28 3 0.258011 0.366298 0.369421
890 4 0.266874 0.376779 0.383672
889 2 0.288464 0.389326 0.382393
891 4 0.310053 0.401874 0.381114
1857 4 0.320571 0.417514 0.373494
1948 2 0.501565 0.408994 0.369974
1949 4 0.481875 0.41912 0.358356
3045 4 0.00855331 0.426144 0.355813
2846 4 0.0406792 0.450218 0.380996
2845 2 0.0479924 0.459756 0.402921
1981 2 0.204796 0.43337 0.412208
2890 2 0.179385 0.439767 0.344167
2891 4 0.19132 0.461616 0.341856
875 4 0.205449 0.472327 0.351308
874 2 0.229086 0.468919 0.343904
1038 4 0.242447 0.453857 0.414412
1982 4 0.221067 0.452208 0.414564
876 4 0.252724 0.465512 0.336499
2048 4 0.309308 0.462084 0.346117
350 3 0.269762 0.475333 0.339662
347 3 0.30567 0.482382 0.346998
1036 2 0.25412 0.461315 0.393596
1037 4 0.265793 0.468773 0.372781
346 1 0.283968 0.487671 0.352493
348 3 0.280536 0.482893 0.374939
1855 2 0.324227 0.439275 0.385252
936 4 0.312726 0.473728 0.393333
1856 4 0.327883 0.461037 0.397011
934 2 0.303716 0.484849 0.413835
3074 4 0.0391901 0.0020154 0.47442
3858 4 0.0102569 0.00021325 0.421439
759 4 0.0747297 0.0395835 0.430397
3775 2 0.0103658 0.0262308 0.445878
757 2 0.066035 0.0625607 0.425747
3107 4 0.0800226 0.0205283 0.428554
3777 4 0.0201041 0.0172759 0.424661
3106 2 0.0650831 0.00754843 0.443835
86 1 0.205574 0.0742553 0.418945
87 3 0.200592 0.0592397 0.435644
1570 2 0.210433 0.0228962 0.444742
1571 4 0.194587 0.0421428 0.442833
1572 4 0.226279 0.00364952 0.44665
63 3 0.200285 0.0738441 0.4846
3182 4 0.321404 0.0709991 0.419706
39 3 0.302478 0.0779393 0.42513
1101 4 0.39586 0.0684451 0.42831
1099 2 0.383901 0.0844157 0.44338
3238 2 0.467214 0.0253346 0.474016
960 4 0.458659 0.0544089 0.454783
3239 4 0.476181 0.0424807 0.45818
958 2 0.464086 0.074988 0.441659
3240 4 0.458247 0.00818841 0.489852
758 4 0.0573403 0.085538 0.421096
2859 4 0.0361797 0.1485 0.450592
3353 4 0.0804326 0.101552 0.451535
1472 4 0.0189964 0.0914381 0.4654
2857 2 0.027678 0.14504 0.427334
779 4 0.0585162 0.16589 0.476133
1428 4 0.0462447 0.163774 0.492997
778 2 0.0813272 0.155814 0.474312
3354 4 0.0962581 0.133934 0.41687
840 4 0.103137 0.151066 0.422978
3352 2 0.0883454 0.117743 0.434203
780 4 0.104138 0.145738 0.472491
2210 4 0.121545 0.154975 0.471501
88 3 0.209039 0.095146 0.42843
4466 4 0.241454 0.082564 0.492581
37 3 0.2949 0.114666 0.422602
1161 4 0.28429 0.13227 0.4209
38 3 0.266702 0.090424 0.428065
4465 2 0.257529 0.0934993 0.476859
4467 4 0.273604 0.104435 0.461137
36 1 0.288903 0.0950373 0.43299
40 3 0.291554 0.097344 0.455491
998 4 0.34695 0.142908 0.438781
1100 4 0.371942 0.100386 0.45845
1233 4 0.369793 0.117759 0.469929
1231 2 0.357648 0.11441 0.491527
1287 4 0.358321 0.158595 0.443092
959 4 0.469512 0.0955671 0.428535
838 2 0.122701 0.166622 0.423623
839 4 0.142265 0.182179 0.424269
2209 2 0.137073 0.164691 0.488519
173 3 0.155802 0.187264 0.43783
175 3 0.174229 0.21953 0.431746
171 1 0.17143 0.198108 0.424541
174 3 0.191675 0.186796 0.425287
923 4 0.179389 0.234164 0.444862
922 2 0.191919 0.251216 0.431542
1051 2 0.274624 0.225276 0.50121
1053 4 0.264355 0.228878 0.478699
1286 4 0.377711 0.204481 0.447478
1285 2 0.368016 0.181538 0.445285
1698 4 0.377861 0.214733 0.464254
1696 2 0.375322 0.22782 0.485407
815 4 0.429167 0.199998 0.433414
816 4 0.414699 0.23784 0.462729
814 2 0.421933 0.218919 0.448072
1166 4 0.426954 0.248555 0.472391
1165 2 0.430274 0.252936 0.496783
841 2 0.244684 0.332489 0.441028
843 4 0.267163 0.321833 0.438513
1580 4 0.318374 0.256051 0.433082
1362 4 0.26335 0.317725 0.483069
1360 2 0.284622 0.309647 0.472704
1361 4 0.305893 0.30157 0.462338
1579 2 0.338436 0.261637 0.446919
1581 4 0.358499 0.267223 0.460757
3473 4 0.401113 0.311671 0.458159
3472 2 0.390794 0.288986 0.460187
3474 4 0.380475 0.266302 0.462214
1193 4 0.38964 0.323908 0.447367
3754 2 0.0210138 0.396893 0.429528
3756 4 0.0130397 0.413489 0.446445
3687 4 0.0299326 0.414263 0.461184
3685 2 0.0347737 0.401834 0.482333
1039 2 0.160875 0.405113 0.487756
1040 4 0.147041 0.416587 0.470373
1130 4 0.227182 0.359918 0.433161
1129 2 0.213476 0.378832 0.424241
842 4 0.222205 0.343145 0.443542
1107 4 0.321063 0.413971 0.482762
1192 2 0.410612 0.336364 0.441871
1106 4 0.366228 0.410754 0.461537
1105 2 0.343645 0.412363 0.472149
2219 4 0.442709 0.366495 0.436774
2220 4 0.487736 0.369299 0.4152
2218 2 0.465222 0.367897 0.425987
1194 4 0.431584 0.348821 0.436375
4673 4 0.00251279 0.427646 0.433776
1090 2 0.0689742 0.474944 0.452214
2847 4 0.0553055 0.469295 0.424846
1091 4 0.0555121 0.486732 0.43475
1092 4 0.0824364 0.463156 0.469678
1187 4 0.140077 0.431933 0.458967
1186 2 0.120678 0.447592 0.460877
1188 4 0.101279 0.463252 0.462788
935 4 0.294707 0.49597 0.434337
2246 4 0.377542 0.474846 0.464667
2245 2 0.39635 0.459841 0.471469
1766 4 0.378938 0.491153 0.476625
1115 4 0.478108 0.419121 0.472783
1453 2 0.447831 0.436375 0.491485
1454 4 0.467713 0.421238 0.490602
1114 2 0.487044 0.431306 0.452862
1116 4 0.495981 0.443491 0.432941
2247 4 0.415159 0.444836 0.478272
1455 4 0.42795 0.451512 0.492368
2808 4 0.426538 0.490913 0.438028
2204 4 0.230423 0.0474715 0.549782
62 3 0.199943 0.0839402 0.520802
2203 2 0.248738 0.0614667 0.559472
65 3 0.225482 0.0595789 0.508668
2307 4 0.237375 0.0411727 0.50745
61 1 0.213526 0.0781626 0.503159
2205 4 0.267052 0.0754619 0.569162
215 3 0.31176 0.0575174 0.560609
213 3 0.285073 0.0779151 0.577621
2305 2 0.258072 0.0279763 0.512211
1482 4 0.318359 0.0589045 0.541914
211 1 0.302269 0.0626379 0.580668
2306 4 0.278769 0.0147798 0.516972
1480 2 0.326728 0.0769508 0.526765
1546 2 0.491458 0.0761718 0.560879
1427 4 0.0423581 0.140338 0.537001
3563 4 0.0387235 0.13905 0.557272
1426 2 0.0443014 0.152056 0.514999
3562 2 0.0408729 0.123986 0.577113
4522 2 0.177858 0.16459 0.536433
4523 4 0.19463 0.151252 0.549316
1700 4 0.18784 0.142646 0.566455
1699 2 0.210312 0.133578 0.572617
1701 4 0.232784 0.12451 0.578778
1497 4 0.243583 0.133098 0.56403
64 3 0.227923 0.0958012 0.498686
1495 2 0.268568 0.133805 0.563374
1496 4 0.293553 0.134512 0.562717
1481 4 0.335097 0.0949971 0.511617
1232 4 0.345503 0.111061 0.513124
2268 4 0.367945 0.15924 0.566653
147 3 0.352158 0.147628 0.570689
149 3 0.347696 0.111897 0.559919
146 1 0.356827 0.125769 0.576124
150 3 0.379405 0.12291 0.576976
362 3 0.49686 0.0928606 0.510431
4524 4 0.161087 0.177929 0.523549
2211 4 0.152602 0.174408 0.505538
1145 4 0.290812 0.203881 0.530565
1052 4 0.284893 0.221673 0.523722
1144 2 0.315638 0.201259 0.529161
1602 4 0.310596 0.24421 0.530418
2266 2 0.361097 0.18031 0.555062
2267 4 0.35425 0.20138 0.543472
1146 4 0.340464 0.198636 0.527757
2828 4 0.365746 0.24328 0.524519
1697 4 0.372783 0.240907 0.50656
2943 4 0.483068 0.210845 0.568496
2941 2 0.492609 0.187873 0.565961
3053 4 0.463757 0.209676 0.575445
1469 4 0.24347 0.273908 0.581569
1600 2 0.307854 0.26229 0.54747
162 3 0.252552 0.282302 0.540784
165 3 0.253236 0.29233 0.576727
161 1 0.263888 0.29443 0.556707
164 3 0.264314 0.316717 0.550265
1601 4 0.305112 0.280371 0.564522
163 3 0.285538 0.286248 0.558363
2827 2 0.385945 0.254302 0.534301
2829 4 0.406145 0.265323 0.544084
1614 4 0.405888 0.283689 0.551085
1612 2 0.400084 0.305992 0.560785
1613 4 0.39428 0.328294 0.570485
1023 4 0.375413 0.334352 0.571495
1386 4 0.425477 0.260621 0.538617
1167 4 0.433594 0.257316 0.521175
1384 2 0.442492 0.262402 0.556851
1385 4 0.459507 0.264182 0.575086
2562 4 0.0330246 0.400268 0.518954
3686 4 0.0396149 0.389405 0.503481
2560 2 0.0474926 0.413489 0.53448
2594 4 0.100938 0.407476 0.549739
2593 2 0.100283 0.387936 0.565326
7 3 0.162301 0.40438 0.561843
2595 4 0.0996277 0.368396 0.580913
1356 4 0.117579 0.361164 0.583198
10 3 0.173651 0.370953 0.549732
8 3 0.169717 0.399364 0.52534
9 3 0.197925 0.399716 0.550807
6 1 0.175933 0.393434 0.546894
1041 4 0.174708 0.393639 0.505139
902 4 0.312751 0.396467 0.548859
4254 4 0.312142 0.376456 0.548243
901 2 0.316648 0.406325 0.526213
4252 2 0.296883 0.369985 0.566963
4253 4 0.281623 0.363513 0.585684
903 4 0.320545 0.416183 0.503568
1022 4 0.36806 0.374882 0.54314
1021 2 0.371736 0.354617 0.557318
4240 2 0.462987 0.348498 0.532919
4241 4 0.486741 0.354529 0.537875
4242 4 0.439234 0.342466 0.527964
4628 4 0.49605 0.370257 0.547302
2561 4 0.0619607 0.42671 0.550006
4373 4 0.055148 0.44159 0.56255
4372 2 0.0431827 0.463089 0.567003
4374 4 0.0312174 0.484587 0.571456
3542 4 0.132185 0.484466 0.576501
1591 2 0.141919 0.445443 0.580018
1592 4 0.130943 0.465169 0.569266
1297 2 0.0376981 0.0192589 0.623527
1299 4 0.019406 0.0362856 0.622708
1298 4 0.0559901 0.0022321 0.624346
212 3 0.293637 0.0435013 0.590071
214 3 0.318266 0.0714661 0.594971
2372 4 0.292914 0.0276958 0.600622
2371 2 0.312436 0.0120994 0.601534
1547 4 0.47394 0.0781516 0.578609
3330 4 0.0305089 0.115714 0.611958
3564 4 0.0430223 0.108922 0.596953
3328 2 0.0136433 0.120934 0.629664
2736 4 0.130455 0.0906006 0.646086
2734 2 0.153878 0.0867544 0.653946
2735 4 0.1773 0.0829081 0.661806
1682 4 0.196212 0.0851908 0.656163
1178 4 0.329415 0.0859292 0.598784
1569 4 0.264342 0.162512 0.654298
129 3 0.280692 0.144946 0.624543
1177 2 0.324441 0.101465 0.617733
1179 4 0.319468 0.117001 0.636683
127 3 0.306537 0.129788 0.647235
126 1 0.284362 0.135652 0.645485
130 3 0.271459 0.117071 0.64811
128 3 0.279376 0.151154 0.662014
2775 4 0.25787 0.117053 0.662433
1667 4 0.384544 0.11565 0.595292
148 3 0.347458 0.121018 0.596813
1532 4 0.355695 0.132241 0.611779
1531 2 0.354897 0.147677 0.631433
1666 2 0.405283 0.121744 0.60786
1533 4 0.354099 0.163113 0.651087
530 3 0.366 0.156411 0.666084
2555 4 0.478748 0.0916901 0.592286
2556 4 0.441898 0.115107 0.616669
2554 2 0.460323 0.103398 0.604477
1668 4 0.426022 0.127838 0.620427
2959 2 0.491944 0.152058 0.654084
1567 2 0.240273 0.168516 0.651168
1568 4 0.216204 0.174519 0.648038
1692 4 0.199939 0.181495 0.657006
1690 2 0.182245 0.198376 0.662217
3052 2 0.450358 0.218376 0.594679
3054 4 0.43696 0.227077 0.613914
1745 4 0.00721983 0.282243 0.643903
1744 2 0.00691809 0.272047 0.666731
1615 2 0.250877 0.289798 0.657843
1616 4 0.251813 0.27751 0.636087
1468 2 0.247513 0.266359 0.60506
1470 4 0.251557 0.25881 0.628552
1353 4 0.292591 0.320483 0.623434
3486 4 0.310859 0.322893 0.630984
3484 2 0.324869 0.312041 0.648624
1662 4 0.451573 0.273141 0.644859
1661 4 0.461567 0.268096 0.596122
1660 2 0.45657 0.270618 0.62049
3494 4 0.444518 0.267795 0.663077
1355 4 0.159728 0.338578 0.597825
1354 2 0.138654 0.349871 0.590512
1351 2 0.282226 0.340914 0.613418
1352 4 0.271861 0.361345 0.603403
3368 4 0.0268338 0.4405 0.662401
1593 4 0.152896 0.425718 0.59077
1651 2 0.321964 0.419583 0.651991
1652 4 0.3086 0.427883 0.632556
157 3 0.266648 0.44291 0.635841
159 3 0.279042 0.469077 0.611876
158 3 0.265015 0.436228 0.598891
160 3 0.29816 0.437006 0.616736
156 1 0.277375 0.446263 0.61577
2528 4 0.382894 0.444546 0.635685
2527 2 0.407625 0.448229 0.635567
2559 4 0.353369 0.494516 0.651598
3863 4 0.431678 0.471037 0.636571
2529 4 0.432355 0.451911 0.635448
3862 2 0.443657 0.4903 0.647088
3396 4 0.0531753 0.0119255 0.716231
309 3 0.0340239 0.00643822 0.718561
3394 2 0.0760388 0.0158085 0.725578
863 4 0.0939759 0.0465095 0.664534
862 2 0.114207 0.0334763 0.671317
864 4 0.134439 0.0204432 0.6781
3395 4 0.0989023 0.0196914 0.734925
124 3 0.132215 0.0846332 0.718805
1377 4 0.103005 0.0724679 0.748955
2442 4 0.150425 0.058571 0.752178
277 3 0.105399 0.00448268 0.74478
1681 2 0.203366 0.0744612 0.677585
323 3 0.219493 0.0766708 0.711409
1683 4 0.210519 0.0637317 0.699006
321 1 0.234199 0.0791699 0.729182
324 3 0.240653 0.0583405 0.737113
1137 4 0.37183 0.0147256 0.748539
103 3 0.367428 0.00231043 0.688233
1135 2 0.37051 0.00276166 0.726624
857 4 0.48477 0.0508816 0.744447
487 3 0.432755 0.00448032 0.746394
1629 4 0.0593769 0.110597 0.6832
1627 2 0.0501687 0.132866 0.676532
1628 4 0.0409605 0.155136 0.669864
125 3 0.100045 0.0888367 0.737912
123 3 0.111586 0.116313 0.714902
121 1 0.118279 0.0996905 0.729643
3398 4 0.0928825 0.144364 0.740001
3588 4 0.0979542 0.155314 0.724533
325 3 0.224283 0.0911009 0.745855
2774 4 0.248882 0.108127 0.710809
322 3 0.252863 0.0904496 0.721862
2773 2 0.253376 0.11259 0.686621
1544 4 0.300224 0.145934 0.742391
1543 2 0.308712 0.148005 0.718963
1545 4 0.3172 0.150076 0.695536
527 3 0.3346 0.148402 0.684599
529 3 0.367703 0.137155 0.698394
3492 4 0.382389 0.147116 0.708253
3490 2 0.382062 0.136544 0.730909
526 1 0.356798 0.154024 0.686779
2961 4 0.485703 0.148913 0.678092
3713 4 0.479945 0.16556 0.688641
695 3 0.0107238 0.251277 0.706712
693 3 0.00293974 0.21664 0.719258
1494 4 0.0354151 0.172626 0.674761
1492 2 0.0228175 0.18757 0.690354
1493 4 0.0102199 0.202515 0.705947
692 3 0.0254757 0.239435 0.738885
1309 2 0.0653533 0.227915 0.726709
1310 4 0.0451392 0.235274 0.739453
691 1 0.00692389 0.238685 0.725304
1311 4 0.0855674 0.220557 0.713964
3587 4 0.0907679 0.204762 0.722544
3586 2 0.094361 0.180038 0.723539
1295 4 0.166774 0.233924 0.677929
1691 4 0.164552 0.215257 0.667429
1560 4 0.325639 0.223892 0.711691
1558 2 0.333316 0.244285 0.699429
528 3 0.358363 0.173995 0.69849
3712 2 0.470717 0.178049 0.708238
3714 4 0.46149 0.190537 0.727836
152 3 0.459079 0.199573 0.745995
153 3 0.459625 0.236969 0.749717
1746 4 0.00661634 0.26185 0.689559
1402 2 0.153447 0.316994 0.704823
1403 4 0.16583 0.295989 0.710358
1294 2 0.166205 0.255946 0.689757
1296 4 0.165636 0.277968 0.701584
1617 4 0.249941 0.302086 0.679598
1340 4 0.255895 0.319172 0.670337
3485 4 0.338879 0.30119 0.666263
1559 4 0.340993 0.264678 0.687166
3493 2 0.441383 0.289953 0.674231
3495 4 0.438248 0.31211 0.685385
1575 4 0.446233 0.331586 0.687539
1451 4 0.459178 0.293718 0.75202
2356 2 0.0724119 0.380758 0.741488
1516 2 0.0103966 0.391057 0.749896
2358 4 0.0950858 0.382858 0.73116
1290 4 0.143592 0.355495 0.69067
3463 2 0.0902204 0.416776 0.701908
3465 4 0.0874986 0.39994 0.720193