ITEM: TIMESTEP
4640000
ITEM: NUMBER OF ATOMS
1600
ITEM: BOX BOUNDS pp pp pp
-6.9325799999999997e+00 6.9325799999999997e+00
-6.9325799999999997e+00 6.9325799999999997e+00
-6.9325799999999997e+00 6.9325799999999997e+00
ITEM: ATOMS id type xs ys zs
1253 2 0.0525941 0.0190824 0.073466
1255 4 0.0860865 0.0281784 0.0636702
1254 4 0.0191017 0.00998633 0.0832619
501 4 0.188191 0.0856061 0.0863837
469 4 0.195104 0.0604919 0.0788202
467 2 0.221042 0.0502151 0.0559729
500 2 0.186893 0.120566 0.0776353
308 2 0.30108 0.053843 0.0345132
310 4 0.272396 0.0368668 0.0482783
468 4 0.246981 0.0399384 0.0331255
309 4 0.329764 0.0708191 0.0207481
139 3 0.338593 0.0970668 0.0268018
1010 2 0.434455 0.116629 0.00308292
1012 4 0.463686 0.104899 0.985521
502 4 0.185594 0.155527 0.068887
43 3 0.202099 0.1762 0.0580556
41 1 0.215919 0.183921 0.0285714
42 3 0.243674 0.201281 0.0339541
573 4 0.225747 0.128697 0.0200469
17 3 0.211768 0.173474 0.132304
16 1 0.240084 0.159912 0.121582
44 3 0.194778 0.202621 0.0105911
45 3 0.223346 0.156466 0.0121431
136 1 0.346295 0.122566 0.00654345
340 4 0.304189 0.132056 0.0254231
338 2 0.277812 0.134928 0.0498447
339 4 0.251434 0.1378 0.0742663
20 3 0.2338 0.140925 0.0955282
140 3 0.325327 0.147395 0.0113106
18 3 0.261246 0.184388 0.113036
1011 4 0.405225 0.128359 0.0206447
137 3 0.377096 0.132801 0.0134191
1496 2 0.222107 0.338444 0.02973
1498 4 0.221437 0.32132 0.0614597
1039 4 0.237904 0.305995 0.0788285
383 2 0.354808 0.271383 0.0587183
385 4 0.321881 0.259405 0.067247
1038 4 0.294713 0.261943 0.0730113
1037 2 0.266308 0.283969 0.0759199
384 4 0.387736 0.283361 0.0501897
710 2 0.434745 0.263639 0.0670916
711 4 0.412352 0.268618 0.094916
712 4 0.457138 0.258659 0.0392672
1443 4 0.399137 0.293991 0.0258717
1442 2 0.409009 0.327975 0.0189415
1444 4 0.418881 0.36196 0.0120112
517 4 0.0167372 0.479479 0.0763344
515 2 0.0390083 0.499479 0.0562233
290 2 0.335487 0.491707 0.0731675
291 4 0.310957 0.487437 0.0470821
80 3 0.304554 0.495945 0.019166
13 3 0.395658 0.377849 0.018891
15 3 0.416741 0.427656 0.023757
11 1 0.404088 0.405881 0.00267118
496 4 0.309176 0.00103447 0.128163
227 3 0.478968 0.100435 0.13089
656 2 0.475687 0.057424 0.225073
226 1 0.481077 0.109338 0.16278
228 3 0.451475 0.121465 0.172607
657 4 0.470289 0.0857022 0.203356
229 3 0.489025 0.0824297 0.181021
19 3 0.253268 0.141496 0.146219
396 4 0.188876 0.214146 0.201762
751 4 0.174864 0.227992 0.182838
749 2 0.185452 0.211841 0.152383
750 4 0.19604 0.19569 0.121928
395 2 0.187948 0.204375 0.236462
276 4 0.360583 0.147854 0.19408
277 4 0.431426 0.142236 0.181768
230 3 0.504271 0.13236 0.166075
275 2 0.396004 0.145045 0.187924
999 4 0.50395 0.150981 0.187239
393 4 0.0162036 0.344592 0.152609
392 2 0.0522272 0.342953 0.152831
394 4 0.0882509 0.341314 0.153052
336 4 0.109099 0.362066 0.150798
672 4 0.00327909 0.36991 0.156956
335 2 0.132861 0.369951 0.176752
675 4 0.139273 0.398607 0.210745
415 4 0.163529 0.448715 0.134116
413 2 0.194777 0.436727 0.147542
337 4 0.156623 0.377835 0.202707
414 4 0.226026 0.424738 0.160968
643 4 0.200353 0.451736 0.261012
641 2 0.223837 0.473232 0.244074
676 4 0.175418 0.44628 0.251026
674 2 0.157346 0.422444 0.230886
273 4 0.415072 0.362351 0.216363
578 2 0.117087 0.0223896 0.336859
877 4 0.0858183 0.0296756 0.370721
1128 4 0.14129 0.0426362 0.281991
580 4 0.126445 0.0353733 0.304544
1001 2 0.257402 0.0210448 0.284235
1032 4 0.173483 0.13117 0.349251
1031 2 0.183288 0.110727 0.377293
1127 2 0.154777 0.0180962 0.259269
1002 4 0.264175 0.0549763 0.294395
746 2 0.308761 0.0729491 0.313737
748 4 0.343872 0.0676851 0.320055
747 4 0.273649 0.0782132 0.307418
418 4 0.366114 0.0603677 0.30802
416 2 0.3791 0.0277522 0.316268
448 4 0.336268 0.0117606 0.375616
658 4 0.481084 0.0291457 0.246791
926 2 0.433791 0.105002 0.306931
927 4 0.410088 0.0778771 0.305238
666 4 0.1858 0.155388 0.339998
665 2 0.172815 0.168395 0.308972
667 4 0.15983 0.181403 0.277946
397 4 0.187019 0.194605 0.271163
928 4 0.457493 0.132128 0.308625
367 4 0.461744 0.159587 0.30455
365 2 0.451273 0.181351 0.331328
366 4 0.440802 0.203116 0.358107
259 4 0.409919 0.24783 0.295119
952 4 0.474446 0.360692 0.289521
272 2 0.430815 0.363834 0.248772
128 3 0.475131 0.342389 0.309447
127 3 0.430296 0.327568 0.336068
258 4 0.41738 0.303061 0.340897
129 3 0.429066 0.371702 0.304617
126 1 0.447957 0.353574 0.32546
274 4 0.446558 0.365317 0.281182
257 2 0.413649 0.275445 0.318008
130 3 0.456876 0.371842 0.351259
701 2 0.417461 0.505772 0.361442
1566 4 0.460633 0.466893 0.382157
1565 2 0.458508 0.432331 0.372088
1567 4 0.456383 0.397769 0.362019
876 4 0.0665909 0.0177174 0.439198
875 2 0.0762046 0.0236965 0.40496
1033 4 0.193092 0.090284 0.405336
330 4 0.191064 0.107583 0.427335
1467 4 0.00413038 0.242301 0.473311
329 2 0.199671 0.13106 0.453319
331 4 0.208279 0.154536 0.479304
538 4 0.201975 0.183054 0.484165
536 2 0.181752 0.209714 0.497606
499 4 0.363362 0.244395 0.393869
245 3 0.386287 0.168459 0.377607
242 3 0.416848 0.212427 0.372112
243 3 0.411607 0.189334 0.420874
241 1 0.395902 0.196294 0.392154
244 3 0.369385 0.215831 0.398077
402 4 0.0195594 0.261677 0.458616
401 2 0.0413768 0.283759 0.476969
299 2 0.11547 0.314518 0.472306
301 4 0.0846897 0.325074 0.48785
403 4 0.0631942 0.305841 0.495322
582 4 0.209029 0.296814 0.412201
300 4 0.14625 0.303963 0.456763
583 4 0.155622 0.328808 0.448612
581 2 0.182325 0.312811 0.430407
2 3 0.363378 0.305493 0.471891
497 2 0.366072 0.2708 0.41828
498 4 0.368783 0.297205 0.44269
4 3 0.388413 0.262753 0.493914
234 3 0.996801 0.469436 0.439348
480 4 0.0516961 0.462192 0.448149
231 1 0.0184687 0.490837 0.425476
232 3 0.0464954 0.49074 0.443229
479 2 0.0556799 0.443925 0.478986
233 3 0.0254643 0.481321 0.394163
702 4 0.442025 0.479711 0.365669
718 4 0.980203 0.0296479 0.58023
878 2 0.108131 0.0214528 0.556388
716 2 0.00824809 0.0499623 0.590291
879 4 0.0920998 0.0245827 0.524238
444 4 0.102394 0.112608 0.608666
119 3 0.0792399 0.999219 0.515449
880 4 0.124162 0.0183229 0.588539
561 4 0.195807 0.0587768 0.641932
443 2 0.0950503 0.144128 0.592759
1087 4 0.109282 0.193126 0.572941
445 4 0.0877062 0.175648 0.576853
1085 2 0.125614 0.217275 0.551716
1086 4 0.141946 0.241425 0.530491
537 4 0.161528 0.236375 0.511047
470 2 0.21681 0.237737 0.597906
53 3 0.18694 0.143922 0.617381
295 4 0.491891 0.208945 0.538297
293 2 0.472995 0.199739 0.5676
294 4 0.454099 0.190534 0.596903
30 3 0.488864 0.189808 0.515678
471 4 0.204873 0.270877 0.590176
523 4 0.229133 0.282067 0.588534
521 2 0.251545 0.309964 0.584075
522 4 0.273956 0.337862 0.579615
576 4 0.274225 0.355007 0.557883
3 3 0.343769 0.283963 0.517612
575 2 0.255544 0.364835 0.528644
1 1 0.371686 0.290971 0.50054
5 3 0.390627 0.311406 0.517934
814 4 0.117794 0.393892 0.626879
1019 2 0.0756927 0.417646 0.564077
1020 4 0.0732691 0.43526 0.532703
1021 4 0.0781163 0.400032 0.595451
481 4 0.0596638 0.425657 0.509822
1208 2 0.206959 0.446644 0.548784
1210 4 0.189184 0.415582 0.553213
1209 4 0.224735 0.477706 0.544355
577 4 0.236864 0.374663 0.499406
717 4 0.0362936 0.0702767 0.600351
990 4 0.0261606 0.090124 0.622494
989 2 0.0435981 0.102625 0.651478
991 4 0.0610355 0.115126 0.680463
1370 2 0.0841142 0.115433 0.725521
1372 4 0.0536724 0.108137 0.707618
560 2 0.173465 0.0870737 0.641178
562 4 0.151123 0.115371 0.640423
440 2 0.233134 0.10464 0.708237
441 4 0.203951 0.108415 0.687391
493 4 0.286603 0.109445 0.741092
442 4 0.262316 0.100866 0.729083
1211 2 0.474132 0.0086404 0.629138
505 4 0.508683 0.0134555 0.658781
1212 4 0.484447 0.0308046 0.655648
54 3 0.223478 0.183942 0.62562
472 4 0.228746 0.204598 0.605635
51 1 0.198085 0.166812 0.6391
52 3 0.173429 0.18789 0.646064
439 4 0.176769 0.216161 0.637576
437 2 0.148865 0.236146 0.648639
55 3 0.207917 0.152136 0.666791
491 2 0.316925 0.126187 0.75113
535 4 0.460259 0.193973 0.625676
533 2 0.452375 0.218844 0.650569
534 4 0.444491 0.243716 0.675463
438 4 0.12096 0.256131 0.659702
428 2 0.099578 0.297169 0.674351
430 4 0.0857194 0.328798 0.663958
813 4 0.0679279 0.346506 0.648551
429 4 0.113437 0.26554 0.684744
434 2 0.151297 0.35157 0.732166
436 4 0.178699 0.328443 0.728334
1178 2 0.235432 0.302822 0.74442
1179 4 0.203078 0.318717 0.743426
1180 4 0.267787 0.286927 0.745413
379 4 0.28593 0.278931 0.724378
377 2 0.310483 0.255598 0.736753
10 3 0.436198 0.308265 0.686658
9 3 0.383518 0.295137 0.685524
7 3 0.42154 0.256508 0.684729
6 1 0.414113 0.287193 0.674533
8 3 0.414786 0.287937 0.641082
812 2 0.0928609 0.370199 0.637715
1522 4 0.0803645 0.444197 0.694913
1520 2 0.0978856 0.423049 0.718284
1521 4 0.115407 0.401901 0.741655
844 4 0.144668 0.397097 0.621608
435 4 0.123894 0.374697 0.735997
280 4 0.221447 0.379762 0.684877
842 2 0.173941 0.393189 0.642303
843 4 0.203213 0.38928 0.662998
278 2 0.231694 0.403825 0.709705
279 4 0.241942 0.427888 0.734533
931 4 0.0852657 0.130238 0.857168
508 4 0.0611401 0.136943 0.868907
838 4 0.112328 0.11842 0.771304
836 2 0.128156 0.129937 0.801591
1295 2 0.271997 0.0156778 0.759104
1089 4 0.373174 0.0665135 0.818227
1090 4 0.305285 0.0588589 0.795112
1296 4 0.288864 0.0429264 0.77564
1088 2 0.339229 0.0626862 0.806669
47 3 0.264953 0.0928142 0.865943
1379 2 0.480433 0.0131067 0.778221
910 4 0.39907 0.0889135 0.773924
909 4 0.430563 0.0299306 0.800961
908 2 0.414816 0.059422 0.787443
1381 4 0.460184 0.0334592 0.800043
83 3 0.410161 0.0219322 0.871992
1371 4 0.114556 0.122728 0.743424
506 2 0.0269741 0.145185 0.876982
837 4 0.143983 0.141453 0.831878
355 4 0.171707 0.148894 0.834473
353 2 0.186599 0.136192 0.86476
492 4 0.347246 0.142928 0.761168
378 4 0.335036 0.232264 0.749128
1171 4 0.261894 0.231922 0.834626
103 3 0.357942 0.168688 0.755295
102 3 0.331816 0.187932 0.798718
1170 4 0.305465 0.180371 0.809214
1169 2 0.283679 0.206147 0.82192
101 1 0.358434 0.191969 0.779331
104 3 0.357347 0.222505 0.765683
105 3 0.385623 0.188767 0.79748
1590 4 0.412377 0.177233 0.800074
1589 2 0.44834 0.174875 0.798831
1591 4 0.484303 0.172518 0.797587
1186 4 0.268272 0.25629 0.84902
1516 4 0.0839004 0.506941 0.787396
1514 2 0.0546648 0.493237 0.803456
906 4 0.233076 0.514082 0.777729
905 2 0.26219 0.517771 0.798687
261 4 0.33809 0.455307 0.861276
260 2 0.370692 0.440689 0.856388
1125 4 0.313763 0.44548 0.875013
208 3 0.341784 0.482895 0.869749
262 4 0.403293 0.426071 0.8515
321 4 0.404033 0.407001 0.87327
929 2 0.111584 0.116721 0.877785
799 4 0.122677 0.000817232 0.909317
930 4 0.137903 0.103205 0.898403
271 4 0.136708 0.0874581 0.926151
270 4 0.207189 0.0888057 0.941394
269 2 0.171949 0.0881319 0.933773
574 4 0.230817 0.0998744 0.954128
572 2 0.228282 0.114286 0.987087
48 3 0.229546 0.117959 0.898386
49 3 0.237593 0.0639153 0.90275
324 4 0.302883 0.100444 0.906305
46 1 0.252191 0.0933864 0.896561
50 3 0.276291 0.0987247 0.91823
795 4 0.298539 0.0499094 0.947806
794 2 0.315103 0.0216798 0.932667
323 2 0.322892 0.117638 0.93089
138 3 0.345089 0.112569 0.974629
112 3 0.478724 0.0851489 0.00270555
354 4 0.201491 0.123489 0.895047
461 2 0.170437 0.238145 0.979801
463 4 0.1914 0.209061 0.983689
325 4 0.342902 0.134831 0.955476
1245 4 0.49075 0.208688 0.994758
37 3 0.981897 0.247903 0.871638
894 4 0.114011 0.279579 0.910434
893 2 0.0814991 0.283114 0.895238
895 4 0.048987 0.28665 0.880043
40 3 0.0207421 0.284835 0.876587
739 4 0.124444 0.280933 0.974638
737 2 0.134758 0.315389 0.977252
1041 4 0.142493 0.270591 0.907002
1040 2 0.16368 0.299706 0.905041
1042 4 0.184866 0.328822 0.903079
738 4 0.145071 0.349846 0.979865
66 1 0.200083 0.356588 0.953024
69 3 0.226494 0.347076 0.971242
67 3 0.199912 0.339445 0.92462
68 3 0.17179 0.350172 0.969704
462 4 0.149474 0.267229 0.975913
1497 4 0.222777 0.355567 0.998
253 4 0.253076 0.302523 0.93068
1184 2 0.261576 0.266556 0.882934
1185 4 0.254881 0.276822 0.916849
251 2 0.260818 0.297002 0.965466
252 4 0.268559 0.29148 0.000250986
322 4 0.45187 0.357103 0.893849
555 4 0.459386 0.271578 0.921832
556 4 0.46276 0.331987 0.882575
987 4 0.46742 0.258229 0.943929
554 2 0.461073 0.301782 0.902203
986 2 0.455378 0.267434 0.97665
988 4 0.443335 0.276639 0.00937119
546 4 0.130283 0.426324 0.88785
424 4 0.253011 0.400517 0.940653
70 3 0.202089 0.388672 0.946283
545 2 0.158338 0.416487 0.90826
547 4 0.186394 0.406649 0.92867
79 3 0.312799 0.485871 0.966446
423 4 0.24012 0.455822 0.985115
1124 2 0.290894 0.430904 0.898781
1126 4 0.268024 0.416327 0.92255
78 3 0.316218 0.445364 0.0032161
76 1 0.300589 0.473847 0.995191
77 3 0.268235 0.467605 0.991323
422 2 0.246565 0.42817 0.962884
14 3 0.426367 0.39894 0.978684
12 3 0.376908 0.418755 0.988664
1082 2 0.470956 0.376784 0.97732
320 2 0.427951 0.382052 0.883559
1083 4 0.437737 0.374835 0.991216
516 4 0.0612793 0.519479 0.0361123
327 4 0.0678802 0.512214 0.0110543
630 4 0.191542 0.602116 0.039278
627 4 0.184412 0.611092 0.0651156
629 2 0.166246 0.586129 0.0191541
732 4 0.364851 0.625008 0.0244817
753 4 0.347316 0.609537 0.00636097
292 4 0.360018 0.495976 0.0992529
124 3 0.488353 0.528276 0.993319
731 2 0.399222 0.614434 0.0271693
733 4 0.433594 0.60386 0.0298569
122 3 0.503058 0.576324 0.013656
651 4 0.0135679 0.629395 0.0995259
1414 4 0.00847634 0.646795 0.0755854
650 2 0.043769 0.63153 0.119116
652 4 0.07397 0.633665 0.138706
913 4 0.0629861 0.691973 0.00749655
626 2 0.170119 0.638723 0.0833542
628 4 0.155825 0.666355 0.101593
828 4 0.176646 0.682977 0.112062
827 2 0.164055 0.716713 0.11401
829 4 0.151464 0.750449 0.115959
754 4 0.286532 0.640099 0.0302962
752 2 0.316924 0.624818 0.0183286
688 4 0.400051 0.686575 0.123107
404 2 0.186315 0.832619 0.0896447
71 1 0.220618 0.856435 0.0233341
406 4 0.212832 0.836249 0.0654769
75 3 0.20125 0.856705 0.0498602
74 3 0.248109 0.838358 0.0294521
700 4 0.237453 0.82576 0.0523739
73 3 0.204067 0.843584 0.997241
1331 2 0.362731 0.826319 0.0299105
1332 4 0.354861 0.823273 0.99485
698 2 0.256366 0.799195 0.0677705
727 4 0.364024 0.831969 0.0927501
699 4 0.275279 0.77263 0.0831671
693 4 0.337222 0.798954 0.997439
1333 4 0.370601 0.829366 0.0649707
725 2 0.397248 0.838775 0.105008
1476 4 0.0690813 0.877185 0.0955357
1475 2 0.0964158 0.899124 0.104016
72 3 0.229625 0.887527 0.0160635
1477 4 0.12375 0.921064 0.112497
714 4 0.256628 0.902328 0.00751628
742 4 0.320339 0.878052 0.113874
376 4 0.0549207 0.542434 0.2552
312 4 0.0557072 0.547056 0.227912
311 2 0.0318084 0.536164 0.203201
642 4 0.24732 0.494727 0.227135
346 4 0.255103 0.521862 0.230538
266 2 0.34361 0.527228 0.236677
389 2 0.364906 0.506995 0.154945
267 4 0.361917 0.520237 0.206404
391 4 0.348267 0.494595 0.125452
390 4 0.381545 0.519395 0.184438
1068 4 0.102254 0.631892 0.13343
1067 2 0.12136 0.651421 0.156968
1069 4 0.140465 0.67095 0.180507
303 4 0.135405 0.676615 0.208347
302 2 0.163008 0.695054 0.222438
304 4 0.190611 0.713493 0.236528
686 2 0.385999 0.718814 0.131084
687 4 0.371947 0.751053 0.139062
1425 4 0.484654 0.713849 0.185524
1424 2 0.449107 0.714128 0.179455
1426 4 0.413561 0.714406 0.173386
1337 2 0.99801 0.760548 0.230922
1339 4 0.00972629 0.788903 0.21197
88 3 0.0958523 0.860215 0.166728
553 4 0.020772 0.791545 0.184183
405 4 0.159797 0.82899 0.113813
1311 4 0.165201 0.813927 0.139169
1310 2 0.16244 0.800881 0.172675
1312 4 0.159679 0.787836 0.20618
193 3 0.181388 0.780945 0.225491
195 3 0.228619 0.770232 0.250053
1198 4 0.304362 0.787907 0.23879
483 4 0.274755 0.846681 0.1936
1196 2 0.270607 0.790998 0.251099
482 2 0.254975 0.87322 0.207914
740 2 0.305174 0.872059 0.146039
741 4 0.29001 0.866066 0.178203
89 3 0.0621525 0.90286 0.159638
86 1 0.0819884 0.886921 0.181374
87 3 0.0636999 0.876749 0.207118
969 4 0.127518 0.923438 0.201353
90 3 0.105445 0.907245 0.192126
968 2 0.144731 0.954994 0.204246
970 4 0.161944 0.98655 0.207139
484 4 0.235196 0.899759 0.222229
1129 4 0.168265 0.993556 0.236547
495 4 0.284638 0.934445 0.14103
494 2 0.296907 0.96774 0.134596
548 2 0.335947 0.974839 0.237
94 3 0.239118 0.924378 0.237034
549 4 0.368223 0.959549 0.241996
550 4 0.303671 0.990128 0.232004
726 4 0.430472 0.845581 0.117267
766 4 0.431816 0.908707 0.237786
374 2 0.0877813 0.530366 0.263859
375 4 0.120642 0.518298 0.272518
382 4 0.116493 0.52513 0.301905
380 2 0.121521 0.521095 0.337385
809 2 0.216611 0.596775 0.303305
810 4 0.182242 0.597695 0.314187
900 4 0.154181 0.605186 0.30703
381 4 0.12655 0.51706 0.372866
811 4 0.250979 0.595855 0.292423
344 2 0.256733 0.552784 0.249019
345 4 0.258364 0.583707 0.267501
268 4 0.325304 0.534219 0.26695
370 4 0.315472 0.537715 0.293325
368 2 0.343608 0.538247 0.315876
369 4 0.371743 0.53878 0.338428
703 4 0.392897 0.531833 0.357215
1313 2 0.391716 0.609753 0.374191
1181 2 0.121997 0.711303 0.303745
1182 4 0.110678 0.738786 0.324166
192 3 0.187725 0.735495 0.254347
1183 4 0.133316 0.68382 0.283324
901 4 0.1138 0.662583 0.290396
899 2 0.13399 0.633884 0.298713
1035 4 0.470508 0.67792 0.267249
1034 2 0.505087 0.673309 0.258113
1315 4 0.404374 0.634397 0.351105
1387 4 0.111438 0.766873 0.331097
1385 2 0.12862 0.780653 0.359651
191 1 0.195971 0.767577 0.252483
1197 4 0.236852 0.79409 0.263408
1227 4 0.189956 0.810563 0.280394
194 3 0.185277 0.78312 0.280123
1226 2 0.194027 0.819047 0.315206
1228 4 0.198098 0.827531 0.350019
35 3 0.203695 0.810143 0.370952
579 4 0.107728 0.00940585 0.369174
1028 2 0.0125136 0.934239 0.346475
1030 4 0.020565 0.948395 0.37865
95 3 0.254209 0.959008 0.276046
1003 4 0.25063 0.987113 0.274075
92 3 0.243214 0.907804 0.288483
91 1 0.256242 0.927946 0.265564
93 3 0.288291 0.919586 0.260774
417 4 0.392087 0.995137 0.324515
764 2 0.464643 0.898634 0.248803
1441 4 0.47652 0.977453 0.362248
1439 2 0.442398 0.976878 0.350597
1440 4 0.408275 0.976302 0.338946
765 4 0.49747 0.888561 0.259819
235 3 0.00580571 0.521143 0.425414
1176 4 0.115415 0.53102 0.396004
934 4 0.158266 0.524087 0.486466
1175 2 0.133196 0.532351 0.427349
1177 4 0.150976 0.533681 0.458694
1314 4 0.379058 0.58511 0.397276
1324 4 0.289297 0.600733 0.429302
1322 2 0.320461 0.598248 0.411327
1323 4 0.351624 0.595763 0.393352
706 4 0.263896 0.611458 0.437568
264 4 0.463473 0.600649 0.385299
263 2 0.491747 0.588831 0.404308
529 4 0.196945 0.749719 0.483889
705 4 0.257356 0.682993 0.431118
571 4 0.173108 0.745348 0.49758
704 2 0.260626 0.647226 0.434343
526 4 0.350666 0.690535 0.489331
916 4 0.366248 0.706024 0.47082
25 3 0.487028 0.733585 0.402974
914 2 0.399087 0.713449 0.4579
915 4 0.431926 0.720874 0.444981
24 3 0.447139 0.746287 0.437563
1435 4 0.069707 0.888443 0.484404
32 3 0.200545 0.849035 0.408031
1386 4 0.145803 0.794432 0.388205
34 3 0.156492 0.819831 0.39599
527 2 0.206559 0.778534 0.464454
528 4 0.216172 0.80735 0.44502
33 3 0.198178 0.797098 0.423376
31 1 0.18977 0.818869 0.399391
449 2 0.282075 0.840131 0.462071
451 4 0.300611 0.865482 0.444345
778 4 0.322551 0.866573 0.426791
450 4 0.26354 0.81478 0.479797
1512 4 0.267371 0.79282 0.497114
22 3 0.457743 0.778024 0.394916
21 1 0.471371 0.758322 0.417867
23 3 0.493017 0.776245 0.436038
1433 2 0.0418685 0.903043 0.466731
117 3 0.0762468 0.00186247 0.461388
1434 4 0.01403 0.917643 0.449059
118 3 0.0951832 0.956735 0.4847
116 1 0.0731229 0.981735 0.487577
696 4 0.193205 0.894993 0.507428
847 4 0.190048 0.899978 0.478531
846 4 0.183931 0.872476 0.412138
845 2 0.18699 0.886227 0.445335
447 4 0.328124 0.963991 0.429034
777 4 0.325062 0.938251 0.419193
446 2 0.332196 0.987876 0.402325
776 2 0.323807 0.902412 0.422992
919 4 0.504141 0.981904 0.368831
932 2 0.182031 0.510825 0.510125
933 4 0.205796 0.497562 0.533785
544 4 0.330397 0.576972 0.619629
542 2 0.354564 0.552654 0.608448
1156 4 0.313771 0.599807 0.622029
543 4 0.378732 0.528337 0.597267
296 2 0.418681 0.535566 0.556166
298 4 0.401625 0.517547 0.582335
297 4 0.435738 0.553586 0.529996
399 4 0.46227 0.567951 0.52859
773 2 0.101583 0.74658 0.59999
774 4 0.10862 0.728509 0.569587
570 4 0.129033 0.741649 0.554549
569 2 0.15107 0.743499 0.526064
1154 2 0.315496 0.635652 0.625578
525 4 0.318957 0.734968 0.53647
524 2 0.334811 0.712751 0.5129
1513 4 0.318213 0.76338 0.538949
1155 4 0.317221 0.671497 0.629126
1525 4 0.436083 0.648907 0.569164
1523 2 0.459954 0.675437 0.574339
1524 4 0.483824 0.701967 0.579515
1511 2 0.292792 0.7781 0.518031
97 3 0.414154 0.787059 0.597733
923 2 0.10357 0.931916 0.545205
924 4 0.105627 0.918763 0.57872
420 4 0.109665 0.900998 0.601056
1546 4 0.0232773 0.987835 0.498507
925 4 0.101513 0.945068 0.511691
1544 2 0.00590689 0.999992 0.527677
120 3 0.0425761 0.96969 0.488381
608 2 0.0198749 0.888536 0.618056
610 4 0.0523425 0.874699 0.625461
697 4 0.217535 0.951784 0.544638
695 2 0.20537 0.923389 0.526033
804 4 0.338313 0.970192 0.631236
803 2 0.373467 0.962149 0.63117
1213 4 0.463816 0.986476 0.602628
1091 2 0.509365 0.965015 0.564944
1092 4 0.481198 0.984038 0.576992
858 4 0.0983537 0.611361 0.684224
857 2 0.0625568 0.612775 0.680098
388 4 0.0999422 0.584788 0.695959
859 4 0.0267599 0.614189 0.675972
224 3 0.999549 0.607531 0.669065
386 2 0.131304 0.577538 0.712216
757 4 0.17847 0.575339 0.751339
387 4 0.162666 0.570288 0.728473
248 3 0.00226569 0.692863 0.743098
247 3 0.0535103 0.677763 0.733908
1320 4 0.268943 0.743463 0.693951
595 4 0.332487 0.692808 0.641213
593 2 0.348761 0.724819 0.637921
594 4 0.365036 0.756831 0.634629
1319 2 0.293025 0.744806 0.720759
1321 4 0.317108 0.746149 0.747567
99 3 0.393909 0.747778 0.629128
775 4 0.0945454 0.764651 0.630394
1554 4 0.111848 0.785275 0.641199
1553 2 0.100874 0.778206 0.674815
1555 4 0.0899002 0.771138 0.708432
110 3 0.199467 0.839594 0.714906
684 4 0.228282 0.834948 0.70725
691 4 0.137451 0.865084 0.750601
109 3 0.160047 0.84783 0.751336
106 1 0.191294 0.836825 0.746598
683 2 0.254963 0.82326 0.685992
648 4 0.364207 0.779685 0.652146
647 2 0.334967 0.795401 0.666235
649 4 0.305727 0.811116 0.680323
685 4 0.281645 0.811571 0.664734
98 3 0.382708 0.800355 0.639838
861 4 0.434981 0.770447 0.674537
860 2 0.46359 0.789246 0.685877
100 3 0.43273 0.780804 0.647865
96 1 0.406002 0.778981 0.628862
862 4 0.492198 0.808044 0.697218
771 4 0.476519 0.825078 0.735385
892 4 0.495873 0.843629 0.725111
419 2 0.115383 0.896856 0.63642
421 4 0.121101 0.892714 0.671784
690 4 0.119828 0.908505 0.695775
689 2 0.128639 0.886795 0.723188
821 2 0.379835 0.954937 0.740627
1297 4 0.255129 0.988429 0.742568
805 4 0.40862 0.954106 0.631104
890 2 0.484921 0.877768 0.721238
891 4 0.47397 0.911908 0.717365
1453 4 0.427536 0.950026 0.65177
1451 2 0.45038 0.944101 0.679037
1452 4 0.473225 0.938176 0.706304
823 4 0.406669 0.947998 0.717558
1137 4 0.0201763 0.633593 0.761532
1515 4 0.0254292 0.479532 0.819515
755 2 0.201349 0.547464 0.751391
756 4 0.224228 0.51959 0.751444
907 4 0.291303 0.521459 0.819645
207 3 0.300617 0.506898 0.84391
206 1 0.319275 0.507608 0.871334
992 2 0.42851 0.59168 0.850118
994 4 0.421414 0.556371 0.84829
993 4 0.435606 0.626989 0.851946
246 1 0.0312712 0.684552 0.757573
249 3 0.0271409 0.657372 0.776656
1398 4 0.0623728 0.730422 0.771016
250 3 0.042228 0.709532 0.775871
1397 2 0.0982832 0.730249 0.774311
1399 4 0.134193 0.730075 0.777606
790 4 0.346231 0.738356 0.751334
788 2 0.362701 0.717035 0.775304
638 2 0.296472 0.739975 0.831025
640 4 0.300449 0.709913 0.850542
943 4 0.309628 0.719344 0.875332
760 4 0.511922 0.635924 0.795739
789 4 0.37917 0.695713 0.799275
1273 4 0.399336 0.704001 0.818213
1272 4 0.426323 0.654155 0.862808
802 4 0.479278 0.713392 0.812306
1271 2 0.41283 0.679078 0.840511
800 2 0.45458 0.735579 0.798229
1359 4 0.4918 0.682784 0.873246
1358 2 0.506499 0.669921 0.842933
1469 2 0.475438 0.737863 0.879675
1305 4 0.00153715 0.839662 0.848663
611 2 0.0132074 0.876827 0.826062
107 3 0.212019 0.855188 0.764872
108 3 0.193747 0.804883 0.756274
867 4 0.188576 0.802863 0.785361
866 2 0.164538 0.795914 0.811328
868 4 0.1405 0.788964 0.837296
1504 4 0.137355 0.784569 0.866137
786 4 0.231344 0.861111 0.745458
639 4 0.292496 0.770036 0.811507
728 2 0.364727 0.856534 0.828388
730 4 0.339296 0.842635 0.849848
852 4 0.35623 0.826097 0.866717
1470 4 0.469035 0.771679 0.868907
801 4 0.429881 0.757766 0.784152
772 4 0.441797 0.786445 0.78542
770 2 0.459158 0.805762 0.760403
1407 4 0.491907 0.77888 0.852976
1581 4 0.000501671 0.932252 0.816819
612 4 0.0157687 0.912349 0.831722
63 3 0.119093 0.93678 0.883903
62 3 0.0910438 0.964165 0.846463
785 2 0.255334 0.877203 0.767045
822 4 0.353 0.961877 0.763696
620 2 0.304832 0.942981 0.787971
622 4 0.333201 0.964917 0.784172
621 4 0.276462 0.921045 0.791769
787 4 0.279323 0.893295 0.788632
85 3 0.405289 0.967938 0.875114
1380 4 0.500682 0.992754 0.756399
255 4 0.456399 0.907799 0.829121
256 4 0.413647 0.862114 0.793248
729 4 0.390158 0.870434 0.806929
254 2 0.435023 0.884957 0.811185
84 3 0.449217 0.989399 0.851479
81 1 0.426521 0.992989 0.875809
1201 4 0.00892145 0.534113 0.918309
1199 2 0.0261415 0.561786 0.933739
326 2 0.0997929 0.527228 0.00353019
1200 4 0.0433616 0.589459 0.94917
328 4 0.131705 0.542241 0.996006
631 4 0.14095 0.570142 0.99903
1278 4 0.36796 0.500002 0.938385
209 3 0.334867 0.53717 0.873048
210 3 0.300015 0.503555 0.897631
1279 4 0.425434 0.510801 0.896173
1277 2 0.396697 0.505402 0.917279
1570 4 0.453724 0.512486 0.886338
1568 2 0.47931 0.528113 0.906376
655 4 0.983684 0.744086 0.990143
306 4 0.0525878 0.61697 0.945026
305 2 0.0551848 0.647757 0.963623
911 2 0.0773461 0.722892 0.995739
912 4 0.091706 0.753812 0.983981
307 4 0.0577818 0.678544 0.98222
941 2 0.333675 0.726644 0.901195
942 4 0.357722 0.733944 0.927058
1471 4 0.48184 0.704047 0.890442
664 4 0.0718624 0.775968 0.978303
662 2 0.0921289 0.801124 0.962276
663 4 0.112395 0.82628 0.946249
1503 4 0.134938 0.819543 0.929167
1502 2 0.136146 0.802056 0.897652
694 4 0.345892 0.757631 0.938967
851 2 0.35584 0.821242 0.902449
692 2 0.341557 0.778292 0.968203
853 4 0.35545 0.816387 0.93818
61 1 0.0950526 0.959554 0.879072
64 3 0.103871 0.988627 0.893106
1473 4 0.0388492 0.968853 0.985832
1472 2 0.0535747 0.96149 0.953748
65 3 0.0668034 0.948956 0.892053
1474 4 0.0683003 0.954126 0.921664
798 4 0.139605 0.993188 0.97901
797 2 0.131141 0.997002 0.944163
796 4 0.331666 0.99345 0.917529
715 4 0.267987 0.928754 0.941377
713 2 0.262308 0.915541 0.974447
834 4 0.322216 0.972613 0.900338
833 2 0.294825 0.950078 0.906849
835 4 0.267435 0.927544 0.913359
855 4 0.446393 0.96541 0.908806
854 2 0.477499 0.950689 0.919583
82 3 0.442132 0.993273 0.905082
115 3 0.527075 0.106636 0.0125981
849 4 0.5304 0.08619 0.0323699
848 2 0.534053 0.0714001 0.0650555
850 4 0.537706 0.0566102 0.0977412
681 4 0.541823 0.0301304 0.0927215
1281 4 0.555982 0.025365 0.0119033
680 2 0.571414 0.00999272 0.0971162
971 2 0.679466 0.0923001 0.111676
972 4 0.644724 0.101966 0.111813
973 4 0.714208 0.0826345 0.111539
134 3 0.711409 0.0690426 0.00729863
1023 4 0.732716 0.0683823 0.130612
135 3 0.672179 0.105801 0.999636
1348 4 0.828373 0.0123965 0.0141305
1377 4 0.800193 0.00966142 0.0200701
170 3 0.598565 0.165265 0.0808747
168 3 0.587233 0.1876 0.0326918
169 3 0.582809 0.217183 0.0786242
166 1 0.579285 0.186737 0.0651881
1246 4 0.532555 0.175648 0.0433627
167 3 0.547636 0.177264 0.0682402
1244 2 0.511653 0.192168 0.0190601
1122 4 0.669428 0.222822 0.0804156
1121 2 0.667309 0.235343 0.0466638
1123 4 0.66519 0.247863 0.012912
1500 4 0.936417 0.230957 0.0104497
1499 2 0.940799 0.243375 0.044021
1131 4 0.556545 0.262633 0.108037
1065 4 0.567595 0.285144 0.0957296
1064 2 0.56563 0.317561 0.111405
1066 4 0.563664 0.349978 0.12708
590 2 0.821537 0.258225 0.997137
592 4 0.82554 0.279927 0.0256582
1095 4 0.819517 0.358216 0.0593809
1094 2 0.810795 0.325749 0.0463336
1096 4 0.802073 0.293281 0.0332863
1501 4 0.945181 0.255793 0.0775923
1327 4 0.577789 0.410612 0.00522172
1325 2 0.57925 0.426491 0.0375659
1326 4 0.580711 0.442371 0.06991
744 4 0.588719 0.420825 0.0864771
743 2 0.576466 0.399149 0.112562
1104 4 0.577075 0.381253 0.00899222
1060 4 0.717235 0.462179 0.0170152
1058 2 0.703123 0.495233 0.01406
177 3 0.819102 0.368274 0.0887209
178 3 0.870028 0.386395 0.08464
176 1 0.838823 0.394501 0.0936124
179 3 0.827804 0.419962 0.0748983
180 3 0.838097 0.402807 0.125382
1053 4 0.847097 0.416329 0.0543128
1052 2 0.844173 0.439207 0.0265914
946 4 0.89628 0.393922 0.0813111
944 2 0.919821 0.392799 0.108606
961 4 0.591978 0.101661 0.183596
959 2 0.610283 0.0915025 0.154233
960 4 0.628588 0.081344 0.124871
319 4 0.766307 0.126779 0.176959
1022 2 0.765624 0.0760311 0.143221
1024 4 0.798533 0.08368 0.155829
646 4 0.82308 0.0740991 0.148256
644 2 0.847617 0.0915677 0.168086
333 4 0.886871 0.0899228 0.207769
645 4 0.872154 0.109036 0.187917
332 2 0.901167 0.104551 0.237469
1130 2 0.552165 0.231902 0.126392
1373 2 0.572457 0.160086 0.170898
1375 4 0.558435 0.193254 0.16899
1132 4 0.547784 0.201172 0.144747
1374 4 0.58648 0.126917 0.172806
998 2 0.500028 0.164458 0.220457
317 2 0.747698 0.155731 0.187728
318 4 0.729089 0.184682 0.198496
1071 4 0.639553 0.210391 0.23023
1072 4 0.703212 0.197652 0.198813
1070 2 0.671382 0.204021 0.214521
745 4 0.564213 0.377472 0.138647
723 4 0.575213 0.285486 0.233786
948 4 0.701524 0.315855 0.174972
947 2 0.696997 0.286366 0.195229
949 4 0.692471 0.256877 0.215486
1047 4 0.785623 0.293942 0.1605
1046 2 0.796649 0.319908 0.138036
519 4 0.93463 0.304946 0.185197
518 2 0.936959 0.336803 0.16846
1267 4 0.915365 0.305336 0.205855
1265 2 0.92875 0.281452 0.229325
520 4 0.939289 0.36866 0.151723
996 4 0.578748 0.47038 0.222958
995 2 0.563491 0.439101 0.232406
145 3 0.603155 0.482919 0.212728
997 4 0.548234 0.407821 0.241854
720 4 0.728886 0.474729 0.14091
1050 4 0.754883 0.464049 0.13469
719 2 0.703514 0.497247 0.128675
144 3 0.64678 0.482194 0.245058
1048 4 0.807675 0.345873 0.115571
1051 4 0.783992 0.398505 0.142335
1049 2 0.769438 0.431277 0.138513
1044 4 0.842233 0.47758 0.158199
1043 2 0.851155 0.44356 0.166169
1114 4 0.831505 0.5036 0.163697
1045 4 0.860077 0.409541 0.174139
357 4 0.95089 0.492534 0.203267
1008 4 0.969203 0.462756 0.142335
673 4 0.980573 0.436264 0.140124
945 4 0.943361 0.391676 0.135901
671 2 0.991926 0.403087 0.14854
1007 2 0.980338 0.496279 0.149596
356 2 0.967266 0.485857 0.234695
1384 4 0.664269 0.0207903 0.310178
963 4 0.682113 0.0255031 0.335019
342 4 0.759072 0.0839063 0.314612
962 2 0.71007 0.0440632 0.321814
964 4 0.738027 0.0626233 0.308609
341 2 0.749904 0.104338 0.286347