ITEM: TIMESTEP
1050000
ITEM: NUMBER OF ATOMS
4590
ITEM: BOX BOUNDS pp pp pp
-9.9985700000000008e+00 9.9985700000000008e+00
-9.9985700000000008e+00 9.9985700000000008e+00
-9.9985700000000008e+00 9.9985700000000008e+00
ITEM: ATOMS id type xs ys zs
657 4 0.0666695 0.0366802 0.0671261
449 4 0.0866801 0.0321996 0.0692913
655 2 0.043026 0.0308191 0.0727662
656 4 0.0193825 0.024958 0.0784063
448 2 0.0984537 0.0535691 0.0638227
450 4 0.110227 0.0749386 0.0583542
532 2 0.167506 0.017456 0.0394061
533 4 0.156889 0.0162677 0.0167997
534 4 0.178122 0.0186443 0.0620125
1475 4 0.22384 0.0513845 0.0585517
1474 2 0.247217 0.0467252 0.0510029
1566 4 0.18196 0.0136174 0.0823321
1476 4 0.270594 0.0420658 0.0434541
1252 2 0.303289 0.0545762 0.0309743
1254 4 0.286177 0.0527162 0.0491099
1253 4 0.320401 0.0564363 0.0128387
3836 4 0.370452 0.013374 0.0612002
485 4 0.355773 0.00895085 0.0739421
3835 2 0.393825 0.0131591 0.0523215
3837 4 0.417198 0.0129442 0.0434428
757 2 0.453134 0.0281641 0.0357901
759 4 0.428834 0.0241363 0.0314938
758 4 0.477434 0.032192 0.0400863
1827 4 0.493474 0.0202401 0.0380939
701 4 0.10955 0.0941599 0.0666041
700 2 0.125326 0.100805 0.0483795
702 4 0.141102 0.10745 0.0301548
422 4 0.130893 0.153543 0.0874698
237 4 0.179648 0.119251 0.0835328
2162 4 0.230058 0.140767 0.99834
490 2 0.318653 0.111859 0.0260132
491 4 0.293859 0.109398 0.0239176
492 4 0.343447 0.114319 0.0281087
1023 4 0.360082 0.104999 0.0280587
1021 2 0.375186 0.10513 0.00813307
1110 4 0.471605 0.0982591 0.0767697
1108 2 0.492469 0.0928912 0.0640791
2807 4 0.0275934 0.188548 0.0626594
2806 2 0.0308538 0.20471 0.0814565
456 4 0.15715 0.24575 0.0106359
359 4 0.291802 0.204569 0.000422691
352 2 0.310963 0.226113 0.0298299
354 4 0.301051 0.205712 0.0193076
556 2 0.468702 0.191294 0.0729276
557 4 0.470145 0.201278 0.0500494
324 4 0.471253 0.193259 0.03143
322 2 0.474363 0.217586 0.0265585
323 4 0.477473 0.241912 0.021687
454 2 0.1448 0.265814 0.002263
914 4 0.228529 0.330877 0.0361695
740 4 0.240295 0.326756 0.0191822
913 2 0.210655 0.336021 0.0528792
915 4 0.19278 0.341166 0.0695889
353 4 0.320876 0.246514 0.0403523
357 4 0.315661 0.258293 0.0565408
387 4 0.311326 0.307709 0.0447544
385 2 0.310993 0.321946 0.0653067
483 4 0.349643 0.323235 0.0219095
355 2 0.336581 0.266969 0.0671354
481 2 0.345207 0.304019 0.00653875
738 4 0.0599861 0.379102 0.0697008
957 4 0.272068 0.41518 0.0387077
955 2 0.278243 0.398767 0.020884
956 4 0.284419 0.382355 0.00306029
782 4 0.301257 0.376387 0.995439
659 4 0.348622 0.339799 0.0323739
658 2 0.355082 0.35694 0.049392
660 4 0.361543 0.374081 0.06641
280 2 0.397381 0.399588 0.00587142
282 4 0.390702 0.408891 0.0280984
102 3 0.479958 0.355835 0.0640484
104 3 0.500359 0.385534 0.0533518
3448 2 0.00220753 0.481472 0.0291122
2770 2 0.0226535 0.446774 0.0673549
2771 4 0.0240509 0.455245 0.0438715
3449 4 0.0086871 0.468839 0.0496937
294 4 0.112549 0.481533 0.0192269
292 2 0.120685 0.458321 0.0147336
625 2 0.157267 0.457677 0.0723152
627 4 0.141252 0.475322 0.0647412
638 4 0.121999 0.480465 0.0660835
1955 4 0.0996118 0.496051 0.0214818
626 4 0.173283 0.440033 0.0798892
1778 4 0.249697 0.423443 0.0881543
523 2 0.206583 0.419573 0.0868221
525 4 0.18212 0.422138 0.0823309
1777 2 0.26137 0.44009 0.0736014
1779 4 0.273043 0.456737 0.0590484
243 4 0.278445 0.493133 0.0194785
241 2 0.269459 0.505898 0.0390098
273 4 0.290462 0.479291 0.010973
2289 4 0.326744 0.491041 0.0525191
2568 4 0.373975 0.448518 0.0359661
2288 4 0.356962 0.45825 0.029883
2287 2 0.341853 0.474645 0.041201
2566 2 0.390674 0.448109 0.0545716
2567 4 0.407372 0.447701 0.073177
228 4 0.416428 0.46619 0.0737396
226 2 0.435779 0.480393 0.0807383
227 4 0.45513 0.494596 0.0877371
3810 4 0.0161495 0.0295269 0.0965611
1564 2 0.185353 0.037308 0.0895721
1565 4 0.188747 0.0609985 0.0968122
236 4 0.201391 0.0768217 0.0986236
1540 2 0.335188 0.0696879 0.130553
1542 4 0.322191 0.0830193 0.147243
486 4 0.358016 0.0404928 0.112682
484 2 0.356894 0.0247218 0.0933121
1541 4 0.348184 0.0563565 0.113864
1747 2 0.366109 0.0192682 0.14992
1748 4 0.366305 0.00907054 0.127092
1761 4 0.456334 0.049994 0.155711
1759 2 0.438074 0.0669803 0.157501
379 2 0.0671409 0.149597 0.152796
380 4 0.0694321 0.166146 0.134194
2797 2 0.00845637 0.0892337 0.15621
465 4 0.0831387 0.154269 0.124964
463 2 0.105021 0.15955 0.11408
464 4 0.126902 0.164831 0.103195
421 2 0.153225 0.143273 0.0920528
285 4 0.146841 0.0847929 0.160285
423 4 0.175557 0.133004 0.0966358
235 2 0.19052 0.0980363 0.0910782
566 4 0.241023 0.132285 0.137236
567 4 0.279777 0.108518 0.116404
565 2 0.2604 0.120401 0.12682
22 3 0.310954 0.0874727 0.162756
572 4 0.382528 0.161005 0.123339
582 4 0.371355 0.147815 0.134667
580 2 0.36589 0.127733 0.148525
29 3 0.480483 0.0913742 0.0927152
30 3 0.489353 0.0914302 0.129307
28 3 0.454272 0.0826581 0.118819
26 1 0.47287 0.0957399 0.114195
27 3 0.466904 0.117911 0.115607
297 4 0.478872 0.134144 0.118243
295 2 0.47322 0.158464 0.116919
1760 4 0.419813 0.0839667 0.159291
2808 4 0.0341142 0.220872 0.100254
395 4 0.0139618 0.189915 0.157183
396 4 0.0363535 0.209293 0.116886
394 2 0.0251576 0.199604 0.137035
2898 4 0.00787755 0.172536 0.165733
475 2 0.124051 0.250678 0.15959
571 2 0.394636 0.181785 0.130178
573 4 0.406743 0.202565 0.137017
255 4 0.405376 0.244358 0.111365
558 4 0.467259 0.181309 0.0958058
296 4 0.467567 0.182785 0.115594
628 2 0.428801 0.237155 0.149002
629 4 0.418814 0.239299 0.12618
361 2 0.068877 0.327837 0.132579
362 4 0.0502727 0.338685 0.119876
477 4 0.145734 0.256233 0.148447
339 4 0.159846 0.259985 0.134892
300 4 0.0992724 0.312473 0.161579
298 2 0.12324 0.310206 0.168333
363 4 0.0874812 0.31699 0.145283
337 2 0.18465 0.26049 0.131779
338 4 0.209453 0.260995 0.128666
356 4 0.357501 0.275645 0.0777301
254 4 0.36514 0.270247 0.0968203
253 2 0.385258 0.257302 0.104092
522 4 0.415098 0.297753 0.158429
520 2 0.439484 0.302207 0.161695
736 2 0.0600404 0.367239 0.0917106
737 4 0.0600947 0.355375 0.11372
537 4 0.0180539 0.364927 0.130445
2872 2 0.0209368 0.402829 0.114258
2873 4 0.0275785 0.380703 0.123825
535 2 0.0256754 0.361523 0.154014
755 4 0.164143 0.385558 0.0861026
756 4 0.186235 0.340783 0.0889065
754 2 0.175189 0.363171 0.0875046
246 4 0.315421 0.336969 0.105272
244 2 0.313487 0.342945 0.129474
386 4 0.31066 0.336182 0.0858589
245 4 0.311554 0.348921 0.153676
2651 4 0.472975 0.413481 0.138525
2874 4 0.014295 0.424954 0.104691
1512 4 0.0215315 0.476809 0.161818
2772 4 0.0212562 0.438304 0.0908384
524 4 0.231046 0.417009 0.0913132
506 4 0.304201 0.461909 0.170283
287 4 0.367486 0.484602 0.168979
286 2 0.345706 0.472321 0.168936
2650 2 0.482008 0.432161 0.124574
2652 4 0.491041 0.450842 0.110624
495 4 0.464773 0.483925 0.151583
589 2 0.0777494 0.0654261 0.216975
591 4 0.0530257 0.0622378 0.215039
590 4 0.102473 0.0686145 0.218911
673 2 0.133598 0.0693611 0.198774
675 4 0.121523 0.0647639 0.220181
674 4 0.145673 0.0739584 0.177368
688 2 0.252089 0.00289275 0.24223
25 3 0.32843 0.0801008 0.194898
1749 4 0.365912 0.0294659 0.172749
743 4 0.339327 0.074869 0.209955
652 2 0.381355 0.0117462 0.233303
742 2 0.344254 0.0508353 0.21478
654 4 0.368443 0.031989 0.226325
744 4 0.349181 0.0268017 0.219606
257 4 0.37588 0.0584151 0.247343
2641 2 0.497062 0.0731739 0.249927
381 4 0.0648497 0.133048 0.171399
2799 4 0.0263448 0.0929184 0.173286
17 3 0.0621301 0.124594 0.19022
20 3 0.0297652 0.112771 0.17588
16 1 0.0395982 0.122149 0.194156
19 3 0.0303882 0.143049 0.198252
18 3 0.036657 0.108436 0.212641
512 4 0.0427486 0.116074 0.231012
283 2 0.164709 0.102001 0.163415
284 4 0.182577 0.119209 0.166545
370 2 0.206129 0.145205 0.182698
372 4 0.201197 0.126304 0.16709
371 4 0.211062 0.164106 0.198306
528 4 0.314226 0.153102 0.177843
461 4 0.316 0.148862 0.233235
460 2 0.306256 0.129984 0.220049
462 4 0.296513 0.111106 0.206863
24 3 0.309684 0.112492 0.190775
21 1 0.322858 0.0965834 0.180204
581 4 0.360426 0.107652 0.162383
2768 4 0.400531 0.146861 0.166237
23 3 0.342067 0.106522 0.171798
2767 2 0.416292 0.154901 0.183904
2642 4 0.487676 0.0962539 0.247832
2769 4 0.432053 0.162941 0.201571
476 4 0.102369 0.245123 0.170734
279 4 0.240376 0.237792 0.213097
345 4 0.234122 0.236118 0.231287
344 4 0.189348 0.256988 0.22351
343 2 0.211735 0.246553 0.227399
526 2 0.325614 0.175351 0.178525
277 2 0.264588 0.242864 0.209461
527 4 0.337003 0.1976 0.179208
624 4 0.327977 0.214891 0.188544
622 2 0.32944 0.238268 0.197294
630 4 0.438787 0.235011 0.171824
333 4 0.443184 0.170492 0.216646
331 2 0.457315 0.168008 0.237123
763 2 0.440738 0.233725 0.206604
765 4 0.434877 0.219488 0.226306
761 4 0.424607 0.221584 0.243674
365 4 0.00731534 0.311841 0.230605
299 4 0.147207 0.307939 0.175086
291 4 0.160608 0.294587 0.166141
400 2 0.14992 0.271602 0.233079
401 4 0.12648 0.280227 0.231911
402 4 0.17336 0.262977 0.234246
289 2 0.178123 0.309036 0.176611
290 4 0.195639 0.323485 0.187081
278 4 0.2888 0.247936 0.205826
612 4 0.292802 0.267585 0.201387
611 4 0.312023 0.313095 0.20914
610 2 0.302412 0.29034 0.205263
13 3 0.328168 0.276502 0.220108
14 3 0.349835 0.29968 0.24103
623 4 0.330904 0.261645 0.206045
11 1 0.347683 0.27819 0.232546
15 3 0.365665 0.273145 0.219513
497 4 0.357559 0.316697 0.247456
521 4 0.46387 0.306661 0.164961
764 4 0.446598 0.247961 0.186903
543 4 0.473417 0.317431 0.177677
541 2 0.495912 0.327973 0.180516
536 4 0.033297 0.358119 0.177583
648 4 0.0400501 0.396957 0.239601
646 2 0.0539478 0.407991 0.221986
1790 4 0.163046 0.421171 0.234061
417 4 0.174906 0.388376 0.180711
1789 2 0.172774 0.412089 0.212894
1791 4 0.182503 0.403006 0.191727
415 2 0.180391 0.364735 0.186728
416 4 0.185877 0.341094 0.192745
601 2 0.298392 0.394354 0.22094
602 4 0.317671 0.384197 0.208678
603 4 0.279113 0.40451 0.233202
767 4 0.262771 0.400481 0.221589
507 4 0.288893 0.415098 0.17895
498 4 0.33112 0.348846 0.21974
496 2 0.34434 0.332771 0.233598
302 4 0.363938 0.406119 0.183326
303 4 0.335562 0.38237 0.216963
301 2 0.34975 0.394245 0.200144
647 4 0.0678454 0.419025 0.204371
314 4 0.00985354 0.442075 0.211431
313 2 0.00743944 0.454357 0.189786
1787 4 0.0866088 0.424149 0.209339
2619 4 0.0195509 0.455003 0.221941
2617 2 0.0238061 0.469403 0.241934
315 4 0.00502534 0.466639 0.168141
1786 2 0.0864303 0.448187 0.202461
1788 4 0.0862518 0.472225 0.195582
1596 4 0.0926655 0.48867 0.205119
1594 2 0.0837961 0.498376 0.226387
1766 4 0.149537 0.434619 0.232786
1765 2 0.147709 0.458157 0.241018
1767 4 0.14588 0.481696 0.24925
1320 4 0.13403 0.497464 0.245634
1430 4 0.244707 0.503482 0.200281
727 2 0.220705 0.473014 0.210579
728 4 0.214438 0.451353 0.221383
768 4 0.231518 0.439492 0.220158
766 2 0.247144 0.419987 0.220874
729 4 0.226972 0.494674 0.199775
505 2 0.296547 0.438503 0.174616
288 4 0.323926 0.46004 0.168894
644 4 0.329458 0.453389 0.239323
643 2 0.341921 0.474894 0.242038
1463 4 0.108721 0.0241902 0.321943
1462 2 0.123419 0.00501809 0.32839
723 4 0.219389 0.0804488 0.245802
690 4 0.238677 0.0185602 0.256366
256 2 0.376334 0.0672286 0.270737
1428 4 0.394706 0.0732135 0.302477
1426 2 0.411569 0.0737731 0.320929
258 4 0.376788 0.0760421 0.294131
478 2 0.493856 0.0295274 0.28144
479 4 0.483674 0.0276151 0.304196
1518 4 0.477884 0.0329733 0.322221
1516 2 0.458004 0.0448644 0.331632
2643 4 0.506448 0.0500939 0.252022
513 4 0.0135283 0.106589 0.270469
511 2 0.0281384 0.111331 0.25074
2481 4 0.0825076 0.15423 0.317803
721 2 0.207372 0.080668 0.267727
722 4 0.195356 0.0808871 0.289653
1700 4 0.169833 0.135432 0.312365
410 4 0.189448 0.138672 0.314085
1701 4 0.179683 0.0875927 0.301638
248 4 0.236963 0.0904186 0.249359
1699 2 0.174758 0.111512 0.307002
409 2 0.188857 0.161942 0.323214
247 2 0.256711 0.105716 0.248283
249 4 0.276459 0.121014 0.247207
405 4 0.283517 0.115108 0.26597
403 2 0.298025 0.123511 0.284519
404 4 0.312534 0.131915 0.303068
633 4 0.32894 0.121438 0.304622
631 2 0.338268 0.126038 0.32736
351 4 0.48656 0.115143 0.255198
2463 4 0.0180289 0.216168 0.274782
618 4 0.0379976 0.214918 0.274322
616 2 0.0471071 0.232234 0.289889
617 4 0.0562166 0.24955 0.305457
545 4 0.0740468 0.247025 0.313769
2461 2 0.0044478 0.195288 0.272603
578 4 0.154588 0.177655 0.263114
2479 2 0.0900561 0.173419 0.303661
2480 4 0.0976046 0.192607 0.289519
579 4 0.113015 0.201113 0.278016
577 2 0.133802 0.189384 0.270565
411 4 0.188266 0.185212 0.332343
489 4 0.193962 0.203474 0.324694
615 4 0.275717 0.248826 0.318196
266 4 0.367799 0.242925 0.33053
312 4 0.356462 0.253994 0.263752
332 4 0.471446 0.165525 0.2576
760 2 0.43085 0.236432 0.262798
364 2 0.00969434 0.323996 0.252326
544 2 0.071363 0.271108 0.319933
546 4 0.0686791 0.295191 0.326097
388 2 0.211609 0.332608 0.315916
389 4 0.218991 0.313063 0.329651
12 3 0.346632 0.263342 0.250083
309 4 0.374821 0.32522 0.247234
311 4 0.387066 0.258784 0.30301
310 2 0.371764 0.256389 0.283381
307 2 0.393449 0.323882 0.263859
588 4 0.40473 0.263248 0.312392
586 2 0.400199 0.285736 0.322339
587 4 0.395667 0.308224 0.332286
308 4 0.412077 0.322544 0.280484
762 4 0.437093 0.251281 0.281921
621 4 0.0517658 0.406728 0.254011
366 4 0.0120733 0.33615 0.274046
705 4 0.0103239 0.332357 0.295011
703 2 0.0177115 0.355702 0.300068
704 4 0.0250991 0.379048 0.305126
620 4 0.0379566 0.394341 0.30045
619 2 0.0448612 0.400534 0.27723
2691 4 0.000845896 0.416723 0.263874
390 4 0.204228 0.352154 0.302181
733 2 0.210397 0.388503 0.278553
735 4 0.213762 0.411621 0.269643
734 4 0.207032 0.365384 0.287462
413 4 0.229002 0.414716 0.327123
269 4 0.417624 0.341306 0.274593
268 2 0.434381 0.359665 0.277297
270 4 0.451138 0.378025 0.28
2924 4 0.461603 0.377701 0.296416
2923 2 0.485102 0.369681 0.299355
2618 4 0.0280613 0.483803 0.261926
1863 4 0.207039 0.42883 0.276322
1758 4 0.227037 0.489779 0.284092
1862 4 0.228237 0.471318 0.292011
1861 2 0.217638 0.450074 0.284167
231 4 0.367409 0.499293 0.259783
229 2 0.369487 0.503658 0.284315
645 4 0.354385 0.4964 0.244752
2861 4 0.448963 0.455953 0.263645
2860 2 0.461324 0.466765 0.282499
561 4 0.490417 0.487954 0.304516
2862 4 0.473685 0.477578 0.301353
1375 2 0.00903466 0.028005 0.374847
1376 4 0.0267064 0.0405495 0.362376
1772 4 0.0473099 0.0419293 0.357054
1771 2 0.0716012 0.0475219 0.359012
1773 4 0.0958925 0.0531146 0.36097
2238 4 0.10686 0.0551821 0.377236
2236 2 0.123388 0.0428298 0.391358
2237 4 0.139917 0.0304775 0.405479
425 4 0.249607 0.011244 0.378088
441 4 0.234001 0.000986338 0.378589
424 2 0.267281 0.0248071 0.389441
684 4 0.278478 0.0548793 0.410081
426 4 0.284954 0.0383702 0.400793
682 2 0.271123 0.0784781 0.413846
1427 4 0.428433 0.0743327 0.339381
1517 4 0.438124 0.0567554 0.341044
317 4 0.023307 0.122993 0.405994
398 4 0.0853498 0.111235 0.365926
2757 4 0.00480228 0.115843 0.406121
397 2 0.0861362 0.131419 0.351189
399 4 0.0869226 0.151603 0.336453
1406 4 0.147327 0.104054 0.402007
730 2 0.11081 0.103669 0.390551
732 4 0.0890939 0.114474 0.384483
731 4 0.132526 0.0928631 0.39662
1405 2 0.167998 0.117347 0.397406
1407 4 0.18867 0.13064 0.392805
474 4 0.198383 0.138904 0.407498
632 4 0.347597 0.130638 0.350097
707 4 0.363443 0.139825 0.342903
706 2 0.387006 0.14072 0.351217
708 4 0.41057 0.141615 0.359531
716 4 0.422779 0.145703 0.374203
715 2 0.440719 0.133064 0.386186
717 4 0.458659 0.120425 0.39817
305 4 0.477124 0.124331 0.406137
304 2 0.49105 0.103614 0.404708
599 4 0.00990533 0.174695 0.356667
1035 4 0.0153739 0.183302 0.37349
1033 2 0.0190284 0.193367 0.396085
487 2 0.205726 0.216631 0.342405
488 4 0.217489 0.229789 0.360116
677 4 0.216238 0.246141 0.346584
641 4 0.266366 0.196543 0.382553
640 2 0.275662 0.210533 0.401074
432 4 0.338314 0.231479 0.388901
265 2 0.381115 0.23527 0.350259
267 4 0.394431 0.227614 0.369989
434 4 0.392838 0.240935 0.383963
378 4 0.361929 0.197987 0.415491
2910 4 0.499355 0.179152 0.415853
2667 4 0.996982 0.256742 0.365453
678 4 0.22335 0.294303 0.335156
676 2 0.219794 0.270222 0.34087
430 2 0.324823 0.249333 0.377746
614 4 0.291376 0.262703 0.363615
613 2 0.283547 0.255765 0.340905
431 4 0.311332 0.267187 0.366592
433 2 0.399677 0.259843 0.398824
3 3 0.378041 0.316524 0.414089
435 4 0.406516 0.278752 0.413686
515 4 0.487043 0.276274 0.375865
514 2 0.498997 0.255964 0.384217
2812 2 0.0113801 0.342277 0.40866
412 2 0.22383 0.390888 0.332658
414 4 0.218658 0.367059 0.338193
709 2 0.189892 0.39203 0.399028
711 4 0.204271 0.377678 0.384453
710 4 0.175512 0.406381 0.413604
436 2 0.262145 0.39514 0.406475
437 4 0.27534 0.374048 0.408965
509 4 0.260624 0.362359 0.413818
119 3 0.47695 0.387135 0.368669
116 1 0.477833 0.396988 0.389658
335 4 0.440786 0.384503 0.397334
117 3 0.475958 0.419789 0.387255
334 2 0.434299 0.361292 0.403992
120 3 0.497682 0.392112 0.399702
118 3 0.460255 0.389354 0.402739
336 4 0.427812 0.33808 0.41065
3959 4 0.0793735 0.498299 0.369518
501 4 0.0895033 0.461196 0.407936
499 2 0.112858 0.452289 0.407307
500 4 0.136213 0.443382 0.406678
438 4 0.248949 0.416231 0.403985
447 4 0.298937 0.410231 0.405609
445 2 0.3071 0.417066 0.382986
446 4 0.315264 0.423902 0.360363
667 2 0.325795 0.454957 0.343661
668 4 0.310796 0.434959 0.344229
669 4 0.340793 0.474954 0.343094
1454 4 0.349739 0.482927 0.359685
1453 2 0.365299 0.49322 0.343038
1801 2 0.425619 0.496731 0.358925
753 4 0.465034 0.435074 0.395899
1803 4 0.43373 0.473893 0.352778
752 4 0.45119 0.466027 0.359144
751 2 0.458112 0.450551 0.377521
686 4 0.151807 0.0190946 0.415852
685 2 0.144734 0.00275207 0.433404
320 4 0.205019 0.0129248 0.499217
1816 2 0.332318 0.00366812 0.456544
1817 4 0.346426 0.0224326 0.447939
316 2 0.0461202 0.123715 0.416203
318 4 0.0689334 0.124437 0.426411
2584 2 0.110405 0.140356 0.492656
2585 4 0.112338 0.143944 0.467987
473 4 0.223728 0.144969 0.450178
472 2 0.211056 0.141937 0.428838
342 4 0.222358 0.160772 0.461922
683 4 0.263767 0.102077 0.417611
276 4 0.290946 0.155455 0.50003
468 4 0.390915 0.1501 0.494105
348 4 0.00444988 0.205666 0.426153
1034 4 0.0226829 0.203432 0.41868
340 2 0.215109 0.184682 0.460957
341 4 0.20786 0.208592 0.459991
1152 4 0.190999 0.210792 0.447866
1150 2 0.185896 0.232588 0.459006
642 4 0.284958 0.224524 0.419595
275 4 0.312772 0.185903 0.466905
574 2 0.313612 0.198034 0.436585
576 4 0.300269 0.211049 0.419919
274 2 0.301859 0.170679 0.483467
575 4 0.326955 0.185019 0.453251
466 2 0.397953 0.166781 0.476861
377 4 0.395405 0.199316 0.452616
467 4 0.404992 0.183463 0.459616
376 2 0.378667 0.198651 0.434054
2457 4 0.436993 0.182569 0.448998
2455 2 0.454211 0.190116 0.465483
2456 4 0.471429 0.197663 0.481969
3066 4 0.486249 0.210817 0.487189
374 4 0.031946 0.31491 0.485739
373 2 0.0368149 0.322999 0.462587
2814 4 0.0307881 0.333678 0.421872
261 4 0.0397833 0.316551 0.504031
696 4 0.0929035 0.270371 0.430422
694 2 0.0919501 0.265129 0.454851
695 4 0.0909967 0.259888 0.479281
326 4 0.099259 0.266963 0.496153
1151 4 0.180792 0.254383 0.470145
1220 4 0.18001 0.272817 0.477809
1219 2 0.190052 0.271508 0.50067
384 4 0.28591 0.281941 0.439235
382 2 0.299881 0.286183 0.459532
383 4 0.313853 0.290425 0.479829
773 4 0.311313 0.274726 0.492843
2 3 0.410372 0.334995 0.419209
1 1 0.398542 0.31612 0.42495
4 3 0.410612 0.297419 0.418393
5 3 0.395383 0.315816 0.447501
375 4 0.0416838 0.331087 0.439434
569 4 0.131587 0.359063 0.46865
568 2 0.154303 0.364124 0.477788
570 4 0.17702 0.369185 0.486927
1191 4 0.170484 0.381674 0.501512
930 4 0.315697 0.417624 0.413791
510 4 0.288086 0.330516 0.440885
508 2 0.274355 0.346437 0.427351
649 2 0.409441 0.381497 0.459604
812 4 0.395907 0.380218 0.49851
651 4 0.40863 0.372651 0.482977
650 4 0.410251 0.390343 0.436232
585 4 0.437781 0.411727 0.499127
679 2 0.029992 0.431783 0.480919
680 4 0.0478756 0.436529 0.464102
406 2 0.0728084 0.43834 0.442464
407 4 0.0604541 0.422237 0.457067
547 2 0.0799815 0.498012 0.472409
502 2 0.158719 0.430293 0.428013
408 4 0.0851628 0.454442 0.42786
503 4 0.135473 0.426865 0.419466
548 4 0.0966103 0.484883 0.459132
1556 4 0.229877 0.482803 0.465042
1555 2 0.23782 0.467215 0.482905
1820 4 0.219735 0.499647 0.46252
504 4 0.181965 0.433721 0.436559
929 4 0.335665 0.432866 0.457031
928 2 0.325681 0.425245 0.435411
661 2 0.405666 0.485277 0.482694
662 4 0.403969 0.465706 0.467226
238 2 0.365208 0.44556 0.469653
239 4 0.346152 0.430011 0.474154
240 4 0.384264 0.46111 0.465151
663 4 0.407363 0.504848 0.498162
584 4 0.434365 0.448993 0.465956
583 2 0.436073 0.43036 0.482542
1183 2 0.0520751 0.0221783 0.54639
1184 4 0.0524821 0.0279709 0.57071
1185 4 0.0516681 0.0163858 0.52207
1127 4 0.0106233 0.0616905 0.539842
1272 4 0.0628942 0.0477993 0.569258
1126 2 0.0273865 0.0802085 0.538721
1782 4 0.190144 0.0727196 0.530069
1780 2 0.196902 0.0502913 0.521323
939 4 0.229378 0.0165964 0.580733
1781 4 0.203659 0.0278631 0.512578
898 2 0.324915 0.000967151 0.519106
899 4 0.347922 0.00997257 0.522951
2196 4 0.358814 0.0188704 0.539003
2194 2 0.374115 0.0293479 0.555774
2195 4 0.389416 0.0398254 0.572546
1650 4 0.44189 0.0212175 0.520856
1648 2 0.451737 0.00156129 0.508946
1128 4 0.0441498 0.0987266 0.537601
458 4 0.0628009 0.0988252 0.546233
2846 4 0.0134108 0.140401 0.526703
457 2 0.0584177 0.116527 0.563338
459 4 0.0540344 0.13423 0.580444
2845 2 0.0164137 0.160066 0.54185
1284 4 0.159509 0.101488 0.577081
2586 4 0.108472 0.136768 0.517326
1602 4 0.155912 0.116704 0.564284
1601 4 0.181449 0.0905459 0.530161
1600 2 0.168681 0.103625 0.547223
606 4 0.376034 0.121011 0.558519
3158 4 0.394938 0.118936 0.555737
3157 2 0.391547 0.127743 0.532583
604 2 0.368915 0.105967 0.577178
3159 4 0.388156 0.136551 0.509429
2847 4 0.0194165 0.17973 0.556998
1260 4 0.13018 0.239943 0.572793
1258 2 0.107816 0.248131 0.580408
893 4 0.269368 0.238783 0.568861
842 4 0.47556 0.179223 0.549392
872 4 0.494463 0.182742 0.549283
841 2 0.466565 0.176812 0.572597
259 2 0.052863 0.327274 0.522446
7 3 0.0790644 0.311488 0.587536
1244 4 0.0607997 0.304845 0.587628
327 4 0.0859106 0.307689 0.521921
325 2 0.0925848 0.287326 0.509037
897 4 0.154806 0.314529 0.531041
895 2 0.137354 0.325702 0.545033
6 1 0.0831445 0.32949 0.573809
9 3 0.105916 0.333948 0.573854
1221 4 0.200093 0.2702 0.523531
858 4 0.1961 0.272189 0.542485
857 4 0.239053 0.283593 0.565414
856 2 0.217576 0.277891 0.55395
790 2 0.27601 0.332934 0.567659
772 2 0.313239 0.286626 0.514749
635 4 0.316536 0.3185 0.538291
774 4 0.315164 0.298525 0.536655
791 4 0.269275 0.312859 0.580956
260 4 0.0659426 0.337997 0.540861
10 3 0.0762387 0.324531 0.552682
1383 4 0.0864328 0.395741 0.53338
896 4 0.119902 0.336875 0.559025
1381 2 0.106525 0.409539 0.538956
1190 4 0.211192 0.385717 0.530274
1189 2 0.190838 0.383695 0.515893
1239 4 0.240837 0.401439 0.552533
1237 2 0.252346 0.379299 0.550948
803 4 0.238464 0.418817 0.543853
1238 4 0.263856 0.357158 0.549362
792 4 0.282744 0.35301 0.554362
634 2 0.326763 0.340023 0.530718
811 2 0.376409 0.36919 0.50962
636 4 0.336989 0.361546 0.523145
813 4 0.356912 0.358163 0.52073
3309 4 0.415581 0.377886 0.565864
927 4 0.431131 0.389768 0.560721
925 2 0.428672 0.395423 0.53649
926 4 0.426212 0.401077 0.512259
2139 4 0.0398207 0.430248 0.563278
681 4 0.0121084 0.427037 0.497737
1382 4 0.126617 0.423338 0.544532
802 2 0.249076 0.428428 0.523354
1557 4 0.245763 0.451626 0.500767
804 4 0.259689 0.438038 0.502856
880 2 0.327168 0.462145 0.525136
882 4 0.316063 0.482976 0.533376
2154 4 0.302082 0.497609 0.525213
881 4 0.338273 0.441313 0.516895
1270 2 0.0740221 0.0577111 0.589336
1271 4 0.0851499 0.0676228 0.609414
2374 2 0.121615 0.0576979 0.647264
1283 4 0.147503 0.0732913 0.616597
2375 4 0.140834 0.0604554 0.63151
2376 4 0.102396 0.0549405 0.663019
937 2 0.205201 0.0194256 0.586447
1058 4 0.246988 0.060992 0.589461
2389 2 0.23334 0.00430982 0.65171
938 4 0.181024 0.0222547 0.59216
962 4 0.282242 0.997052 0.604203
961 2 0.262543 0.999658 0.589027
45 3 0.324249 0.0640664 0.624645
41 1 0.314814 0.0616381 0.64523
44 3 0.302826 0.0417929 0.646153
2391 4 0.256932 0.00473396 0.659982
1090 2 0.259491 0.0804205 0.657514
1091 4 0.281101 0.0772079 0.645354
42 3 0.300455 0.0791873 0.649101
43 3 0.331304 0.0616975 0.661554
950 4 0.332368 0.0479729 0.616151
949 2 0.332543 0.0300534 0.598715
4464 4 0.3472 0.999341 0.582998
951 4 0.332718 0.012134 0.581278
1164 4 0.413846 0.0604552 0.649651
1162 2 0.412617 0.0358761 0.645231
1163 4 0.411388 0.011297 0.640811
1199 4 0.016174 0.126198 0.610133
1198 2 0.0323161 0.140089 0.623236
1200 4 0.0484582 0.153979 0.636338
1282 2 0.153506 0.0873895 0.596839
1155 4 0.0933442 0.116618 0.600501
825 4 0.140868 0.145831 0.636858
823 2 0.163749 0.153426 0.643486
1154 4 0.121663 0.14437 0.630974
1153 2 0.107503 0.130494 0.615738
1057 2 0.240379 0.0849024 0.586332
1059 4 0.233769 0.108813 0.583204
1227 4 0.204995 0.169149 0.653225
824 4 0.18663 0.161022 0.650115
2133 4 0.245423 0.123538 0.590453
2131 2 0.255098 0.136869 0.609265
2132 4 0.264772 0.150199 0.628076
797 4 0.271866 0.135874 0.639648
796 2 0.292941 0.136821 0.653069
605 4 0.361796 0.0909227 0.595838
852 4 0.0522148 0.166632 0.650873
850 2 0.0422231 0.188907 0.645473
851 4 0.0322314 0.211182 0.640073
3039 4 0.0199375 0.215637 0.654801
3037 2 0.0234841 0.239955 0.650192
1225 2 0.217967 0.187709 0.663827
909 4 0.243235 0.245639 0.671497
907 2 0.254156 0.234982 0.651689
892 2 0.272845 0.236579 0.593523
908 4 0.265078 0.224326 0.631881
894 4 0.276322 0.234376 0.618185
1211 4 0.314637 0.202623 0.646835
3007 2 0.417628 0.180639 0.597152
3008 4 0.396362 0.193787 0.597012
843 4 0.45757 0.174402 0.595802
3009 4 0.438895 0.16749 0.597292
1259 4 0.0854519 0.256319 0.588024
3038 4 0.0270307 0.264273 0.645582
1243 2 0.0639878 0.280794 0.593673
1245 4 0.067176 0.256742 0.599718
1209 4 0.158483 0.307088 0.625235
1207 2 0.165286 0.296233 0.646707
879 4 0.145719 0.31443 0.611945
1208 4 0.172089 0.285378 0.66818
805 2 0.440323 0.317514 0.621747
1192 2 0.493284 0.311825 0.63944
1194 4 0.475576 0.30613 0.622732
807 4 0.457714 0.300959 0.628725
8 3 0.0714619 0.347855 0.581852
983 4 0.0596305 0.362023 0.587277
984 4 0.0443921 0.366337 0.63471
982 2 0.0520113 0.36418 0.610994
877 2 0.128943 0.32983 0.62227
1135 2 0.0877107 0.367393 0.662995
1137 4 0.0979775 0.355076 0.643809
878 4 0.112168 0.34523 0.632596
891 4 0.284361 0.375821 0.595065
890 4 0.319013 0.40176 0.620107
889 2 0.301687 0.38879 0.607586
1002 4 0.331769 0.401868 0.604288
1000 2 0.356079 0.403828 0.598781
1001 4 0.38039 0.405787 0.593275
3308 4 0.411408 0.344735 0.60307
1206 4 0.394841 0.414793 0.602622
3307 2 0.413494 0.36131 0.584467
806 4 0.422933 0.334069 0.614769
2137 2 0.0361038 0.427794 0.587882
2082 4 0.0235665 0.414143 0.62686
2138 4 0.032387 0.42534 0.612485
2080 2 0.00641591 0.429612 0.636438
993 4 0.0721019 0.443641 0.586514
991 2 0.0901951 0.442502 0.603733
992 4 0.108288 0.441363 0.620953
1066 2 0.129547 0.432625 0.651537
1068 4 0.123791 0.430616 0.627288
1204 2 0.409219 0.43273 0.612457
1205 4 0.423596 0.450667 0.622291
1268 4 0.426265 0.470285 0.623156
1267 2 0.426699 0.491107 0.636993
1081 2 0.037417 0.0533329 0.733596
1082 4 0.0492147 0.0611455 0.712982
944 4 0.0475908 0.0721899 0.697026
943 2 0.0705222 0.067289 0.688347
945 4 0.0934535 0.0623882 0.679669
2048 4 0.123244 0.00164198 0.687519
910 2 0.217869 0.0250944 0.717447
921 4 0.203188 0.0660567 0.712397
912 4 0.209623 0.0473631 0.709619
919 2 0.214957 0.0819177 0.697064
1092 4 0.237881 0.0836331 0.669674
3426 4 0.416932 0.0615547 0.670635
3424 2 0.403265 0.0799334 0.680667
4581 4 0.448869 0.0190821 0.71132
2321 4 0.437098 0.00563749 0.721564
4579 2 0.470871 0.0265437 0.70208
4580 4 0.492874 0.0340054 0.692841
920 4 0.226725 0.0977787 0.681731
798 4 0.314016 0.137769 0.666491
1004 4 0.330938 0.127422 0.673399
3425 4 0.389598 0.098312 0.690698
1005 4 0.376656 0.107602 0.67761
1003 2 0.353797 0.117512 0.675504
3268 2 0.385476 0.14196 0.744165
3269 4 0.394615 0.119019 0.748082
48 3 0.492141 0.121579 0.700132
50 3 0.463253 0.107409 0.719685
49 3 0.485359 0.133396 0.735611
46 1 0.475665 0.12611 0.715829
47 3 0.462001 0.142727 0.707683
1142 4 0.458918 0.161376 0.716734
3200 4 0.495123 0.118532 0.679599
1226 4 0.23094 0.20627 0.674428
1064 4 0.303005 0.240312 0.693176
1212 4 0.293286 0.223072 0.687166
1106 4 0.281706 0.220612 0.750034
1210 2 0.303961 0.212847 0.667
3270 4 0.376338 0.164902 0.740248
1297 2 0.390549 0.220885 0.742086
1299 4 0.410501 0.206012 0.744513
1298 4 0.370597 0.235758 0.739659
1141 2 0.447096 0.173015 0.73544
1143 4 0.435274 0.184655 0.754147
948 4 0.191264 0.286539 0.673544
946 2 0.213207 0.274664 0.67516
947 4 0.235151 0.262788 0.676776
1063 2 0.318667 0.259025 0.698624
1065 4 0.33433 0.277738 0.704072
1098 4 0.341903 0.293648 0.693483
1096 2 0.365499 0.289619 0.686257
1167 4 0.404336 0.279271 0.688018
1097 4 0.389094 0.285591 0.679031
1165 2 0.427149 0.269039 0.688188
1166 4 0.449963 0.258808 0.688358
1136 4 0.0774439 0.379709 0.68218
935 4 0.0483286 0.367923 0.73605
3189 4 0.0413963 0.354928 0.749577
936 4 0.0648369 0.389883 0.694266
934 2 0.0565827 0.378903 0.715158
1159 2 0.167489 0.403073 0.72281
1161 4 0.150404 0.418069 0.712398
2014 2 0.0950884 0.411974 0.747017
1186 2 0.214284 0.362772 0.714379
1187 4 0.199003 0.37539 0.729625
1160 4 0.184574 0.388078 0.733222
1188 4 0.229565 0.350154 0.699133
1028 4 0.246414 0.339651 0.700069
1029 4 0.281192 0.334554 0.735638
1027 2 0.263803 0.337103 0.717854
2986 2 0.407596 0.402387 0.733532
2988 4 0.407514 0.416612 0.712969
4485 4 0.493545 0.408122 0.753273
538 2 0.0434944 0.437392 0.744141
540 4 0.0675533 0.433257 0.738733
2015 4 0.0853449 0.427747 0.73024
1067 4 0.135304 0.434634 0.675786
2157 4 0.147745 0.440934 0.688866
2155 2 0.145498 0.463247 0.699922
2156 4 0.14325 0.485561 0.710978
2213 4 0.1434 0.489224 0.730357
2212 2 0.164257 0.498639 0.740434
1952 4 0.371066 0.490581 0.720923
1230 4 0.379232 0.476771 0.709532
1228 2 0.385802 0.452659 0.708737
1229 4 0.392372 0.428547 0.707941
4483 2 0.480582 0.422316 0.737283
4484 4 0.467619 0.436511 0.721293
1249 2 0.462631 0.468978 0.706803
1250 4 0.476806 0.448409 0.707872
1251 4 0.448456 0.489548 0.705735
861 4 0.486189 0.487201 0.745809
1295 4 0.0349375 0.995636 0.802757
1294 2 0.0314282 0.0128097 0.784926
1083 4 0.0256193 0.0455204 0.754211
1296 4 0.0279189 0.0299831 0.767096
1965 4 0.166851 0.0188598 0.802882
838 2 0.242583 0.0516595 0.803488