ITEM: TIMESTEP
140000
ITEM: NUMBER OF ATOMS
4800
ITEM: BOX BOUNDS pp pp pp
-9.9985700000000008e+00 9.9985700000000008e+00
-9.9985700000000008e+00 9.9985700000000008e+00
-9.9985700000000008e+00 9.9985700000000008e+00
ITEM: ATOMS id type xs ys zs
2138 4 0.0667994 0.0154573 0.0606982
1000 2 0.13725 0.00472954 0.0515006
1002 4 0.160067 0.0109559 0.0596126
1636 2 0.0963753 0.00109706 0.0081215
1638 4 0.116276 0.0029799 0.023142
1884 4 0.176706 0.01314 0.0710719
966 4 0.256993 0.996236 0.0379178
1212 4 0.435168 0.0185315 0.0728023
1210 2 0.420253 0.0332341 0.0591444
1211 4 0.405337 0.0479367 0.0454866
3305 4 0.493966 0.0676074 0.0603938
910 2 0.154988 0.144525 0.0766179
911 4 0.141248 0.126194 0.0666005
1149 4 0.129007 0.113746 0.0581045
1147 2 0.108987 0.108087 0.0719728
1148 4 0.0889662 0.102427 0.0858411
1679 4 0.245838 0.144644 0.0174737
858 4 0.24645 0.157627 0.00215604
1678 2 0.254102 0.123644 0.00670871
776 4 0.408482 0.144398 0.0908945
1431 4 0.413133 0.0825113 0.000445979
3304 2 0.488972 0.0914076 0.0545817
3306 4 0.483977 0.115208 0.0487695
775 2 0.430561 0.15329 0.0832385
1030 2 0.0764305 0.231893 0.0223436
1196 4 0.0651962 0.210676 0.0501548
1195 2 0.0692163 0.195589 0.0696841
1031 4 0.0734732 0.236882 0.998022
1032 4 0.0793879 0.226905 0.0466653
1185 4 0.160951 0.200886 0.0802484
1183 2 0.170811 0.208048 0.058416
1184 4 0.180672 0.21521 0.0365835
1565 4 0.190733 0.229643 0.0264745
1564 2 0.197698 0.212824 0.00933377
1050 4 0.345028 0.200314 0.0459129
1048 2 0.369364 0.202732 0.0407098
1049 4 0.393701 0.20515 0.0355068
1119 4 0.403876 0.222782 0.040224
1117 2 0.41763 0.243525 0.0426138
1456 2 0.484861 0.174666 0.997836
1218 4 0.469887 0.171051 0.0778215
1457 4 0.502251 0.181412 0.0144867
804 4 0.161209 0.326638 0.0527295
976 2 0.227724 0.246996 0.0820259
937 2 0.1631 0.315239 0.0846329
939 4 0.174428 0.329244 0.0672911
978 4 0.203715 0.25381 0.0805175
961 2 0.318137 0.331254 0.0312901
962 4 0.339456 0.319993 0.0379158
823 2 0.370557 0.292648 0.0461158
825 4 0.34901 0.302457 0.0380713
824 4 0.392103 0.28284 0.0541604
1118 4 0.431384 0.264269 0.0450035
1509 4 0.450153 0.261855 0.0363523
1507 2 0.471285 0.266295 0.0237473
1508 4 0.492417 0.270736 0.0111424
1241 4 0.474156 0.333437 0.0184743
831 4 0.0380052 0.378958 0.0374257
1171 2 0.0682231 0.366559 0.0532766
1172 4 0.0447865 0.361757 0.046007
829 2 0.0155065 0.38603 0.0457306
1173 4 0.0916597 0.371361 0.0605462
1448 4 0.106968 0.357285 0.0584541
1447 2 0.119572 0.369239 0.0404695
1449 4 0.132175 0.381192 0.0224849
1554 4 0.123058 0.397513 0.0152741
1374 4 0.195126 0.339795 0.0122022
802 2 0.174618 0.341088 0.0373487
803 4 0.188028 0.355537 0.0219679
963 4 0.296819 0.342515 0.0246645
1068 4 0.262394 0.398002 0.0414297
1066 2 0.283275 0.384249 0.0412209
1067 4 0.304155 0.370496 0.0410121
772 2 0.327169 0.397011 0.00591088
774 4 0.329579 0.372128 0.00637571
797 4 0.479364 0.352046 0.0163298
796 2 0.464585 0.363114 0.033189
798 4 0.449805 0.374183 0.0500482
1125 4 0.436618 0.389087 0.0446861
1123 2 0.435812 0.399691 0.0673156
1025 4 0.0435898 0.437618 0.0750897
3176 4 0.994886 0.4124 0.0592493
768 4 0.15987 0.478836 0.00547052
1088 4 0.181967 0.425668 0.00552823
1087 2 0.191327 0.42557 0.0287137
1089 4 0.200686 0.425473 0.0518991
766 2 0.184302 0.48157 0.010032
1857 4 0.209167 0.495376 0.0790978
2157 4 0.291398 0.476416 0.0762292
773 4 0.324759 0.421894 0.00544604
98 3 0.336872 0.437544 0.00496645
100 3 0.370441 0.452429 0.996645
2060 4 0.433476 0.468309 0.0152902
2059 2 0.450105 0.478946 0.0306371
2061 4 0.466733 0.489583 0.045984
17 3 0.0792138 0.0735475 0.125539
1883 4 0.198268 0.0489078 0.0985755
928 2 0.225008 0.0665017 0.122638
1882 2 0.187487 0.0310239 0.0848237
929 4 0.214248 0.0480415 0.109653
1908 4 0.220819 0.0271161 0.135332
930 4 0.235769 0.0849619 0.135623
1906 2 0.212988 0.0172196 0.156918
35 3 0.448722 0.0654254 0.144459
31 1 0.467706 0.0581489 0.154721
33 3 0.485928 0.0704483 0.147301
34 3 0.470995 0.0356227 0.150232
19 3 0.0534303 0.088569 0.102687
16 1 0.0708239 0.0933153 0.117293
20 3 0.0632006 0.106022 0.134587
3078 4 0.999306 0.10559 0.0954265
18 3 0.0877472 0.104547 0.106075
1074 4 0.141209 0.103647 0.133148
1072 2 0.158666 0.0992051 0.115807
1073 4 0.176123 0.0947636 0.0984661
912 4 0.168728 0.162856 0.0866353
1160 4 0.2306 0.103125 0.131648
1159 2 0.229974 0.123134 0.146629
801 4 0.225114 0.16076 0.154026
1161 4 0.229348 0.143142 0.161611
946 2 0.283145 0.152767 0.123534
948 4 0.29372 0.147266 0.145513
1097 4 0.3079 0.133448 0.148735
947 4 0.272569 0.158269 0.101555
806 4 0.356367 0.0980947 0.119434
805 2 0.379612 0.106672 0.116071
807 4 0.402856 0.115249 0.112708
1247 4 0.41164 0.0980362 0.114668
1248 4 0.446086 0.083517 0.147885
1246 2 0.428863 0.0907766 0.131276
1197 4 0.0732365 0.180502 0.0892134
859 2 0.0793465 0.253247 0.161265
44 3 0.172435 0.202727 0.146418
844 2 0.175541 0.189761 0.108888
845 4 0.166898 0.204682 0.126995
846 4 0.184183 0.174841 0.0907813
43 3 0.191893 0.180239 0.170085
799 2 0.245441 0.173657 0.160782
41 1 0.172712 0.193038 0.1675
977 4 0.251734 0.240182 0.0835343
851 4 0.264458 0.224632 0.0855859
850 2 0.267033 0.199987 0.0889291
852 4 0.269608 0.175342 0.0922724
68 3 0.286332 0.214111 0.15959
70 3 0.302639 0.180314 0.162664
777 4 0.45264 0.162182 0.0755826
1216 2 0.482758 0.191087 0.0854427
1217 4 0.495628 0.211123 0.0930638
1156 2 0.00985803 0.318488 0.143133
1157 4 0.0102642 0.29953 0.159431
1253 4 0.150981 0.2704 0.120784
860 4 0.0968463 0.26391 0.146939
836 4 0.105366 0.281077 0.141959
835 2 0.130162 0.277972 0.141128
837 4 0.154958 0.274867 0.140297
938 4 0.151773 0.301235 0.101975
1254 4 0.19167 0.256986 0.0949926
1252 2 0.171325 0.263693 0.107888
1220 4 0.282556 0.266911 0.132422
1219 2 0.290898 0.284715 0.147868
1221 4 0.299241 0.30252 0.163313
1206 4 0.387717 0.315039 0.132186
1204 2 0.394607 0.317175 0.156126
1158 4 0.00945185 0.337445 0.126834
877 2 0.328531 0.402809 0.123559
879 4 0.308277 0.416247 0.129425
13 3 0.387254 0.404634 0.149125
11 1 0.374825 0.385078 0.147915
878 4 0.348784 0.389371 0.117693
12 3 0.365671 0.383373 0.126881
969 4 0.3958 0.410832 0.132572
15 3 0.388256 0.367086 0.151731
967 2 0.417588 0.407228 0.120847
968 4 0.439376 0.403624 0.109121
2161 2 0.00569793 0.488337 0.0877786
2163 4 0.0181936 0.466902 0.0908705
1024 2 0.0328536 0.428897 0.0959189
1026 4 0.0221173 0.420176 0.116748
1139 4 0.0185144 0.424395 0.135635
1138 2 0.00880921 0.443228 0.148914
1140 4 0.999104 0.46206 0.162193
2165 4 0.0947959 0.48989 0.132408
906 4 0.148188 0.441478 0.149361
1855 2 0.228579 0.492808 0.094647
54 3 0.26334 0.48561 0.122299
1856 4 0.24799 0.49024 0.110196
1070 4 0.307027 0.423918 0.148623
55 3 0.270809 0.479912 0.15876
1071 4 0.274269 0.460434 0.158329
1069 2 0.290648 0.442176 0.153476
52 3 0.296833 0.4949 0.136601
51 1 0.274291 0.493796 0.141047
995 4 0.316569 0.494292 0.135984
1124 4 0.435005 0.410294 0.0899451
1112 4 0.441055 0.466573 0.0879242
1111 2 0.456525 0.466872 0.107565
1113 4 0.471995 0.467171 0.127206
1059 4 0.483068 0.450336 0.132589
1057 2 0.490112 0.442816 0.155371
1938 4 0.0812352 0.0128836 0.229489
1201 2 0.0401928 0.0464764 0.187825
1203 4 0.0629999 0.055834 0.192002
1202 4 0.0173857 0.0371188 0.183647
1126 2 0.142669 0.0653973 0.199906
1127 4 0.158713 0.0473678 0.206441
1142 4 0.210308 0.0675422 0.238912
1907 4 0.205158 0.00732307 0.178503
2122 2 0.390146 0.00592847 0.228703
25 3 0.401855 0.0789872 0.239642
2124 4 0.384058 0.0194274 0.208556
2199 4 0.370442 0.00947374 0.198542
1208 4 0.450613 0.0647918 0.189795
32 3 0.465588 0.0609699 0.177452
1207 2 0.442605 0.0856742 0.200974
1128 4 0.126625 0.0834267 0.19337
1017 4 0.151959 0.1298 0.217444
1015 2 0.15111 0.147818 0.200129
1016 4 0.150262 0.165836 0.182814
1190 4 0.218753 0.0861018 0.23787
1189 2 0.237176 0.0969615 0.250824
1096 2 0.302437 0.128633 0.172655
1098 4 0.296974 0.123817 0.196575
26 1 0.330943 0.153921 0.216398
27 3 0.313036 0.159089 0.202915
1094 4 0.325854 0.120689 0.239539
30 3 0.347867 0.145699 0.203567
29 3 0.324305 0.137987 0.231904
818 4 0.419477 0.120732 0.213899
1209 4 0.434597 0.106557 0.212153
817 2 0.425556 0.144751 0.210543
1213 2 0.0725469 0.204727 0.191706
1214 4 0.0601967 0.223859 0.181381
861 4 0.0618466 0.242583 0.17559
982 2 0.0155505 0.207838 0.230654
984 4 0.0181907 0.1877 0.216072
983 4 0.0129103 0.227977 0.245237
883 2 0.104335 0.165726 0.230401
1215 4 0.084897 0.185594 0.20203
885 4 0.0941502 0.168615 0.20775
42 3 0.15432 0.179391 0.169655
866 4 0.0906882 0.228079 0.223612
865 2 0.0845843 0.249919 0.234144
45 3 0.171957 0.209225 0.183501
66 1 0.293361 0.197573 0.174269
800 4 0.265768 0.186555 0.167539
67 3 0.275171 0.189868 0.186054
69 3 0.308831 0.206291 0.189205
816 4 0.337343 0.253024 0.222528
793 2 0.329032 0.215699 0.228727
795 4 0.322933 0.239643 0.224894
794 4 0.335131 0.191756 0.232561
28 3 0.337918 0.173172 0.227313
819 4 0.431636 0.168771 0.207187
998 4 0.453005 0.23433 0.217996
992 4 0.472496 0.225762 0.218314
991 2 0.495637 0.23384 0.223255
997 2 0.429979 0.243946 0.216404
834 4 0.462502 0.206034 0.256084
867 4 0.0784805 0.27176 0.244675
1163 4 0.99892 0.301727 0.176661
810 4 0.093696 0.282332 0.25136
814 2 0.329234 0.271062 0.237826
1205 4 0.401498 0.319311 0.180066
1083 4 0.410652 0.321216 0.196884
1081 2 0.409812 0.296751 0.201978
1082 4 0.408973 0.272287 0.207072
999 4 0.406954 0.253563 0.214811
2945 4 0.479266 0.29089 0.209663
435 3 0.00180373 0.363048 0.239353
1005 4 0.157788 0.388358 0.241288
1107 4 0.161607 0.36764 0.24544
1003 2 0.172106 0.40197 0.225963
1105 2 0.179836 0.350531 0.245865
1106 4 0.198064 0.333422 0.24629
14 3 0.357677 0.385612 0.163538
756 4 0.472036 0.354214 0.256039
755 4 0.424389 0.350946 0.241212
754 2 0.448212 0.35258 0.248625
1199 4 0.00356936 0.461594 0.18106
1043 4 0.0659871 0.451529 0.239061
905 4 0.111409 0.426509 0.179758
904 2 0.129799 0.433994 0.164559
1004 4 0.186425 0.415582 0.210638
899 4 0.178497 0.476587 0.24054
74 3 0.291065 0.466484 0.227656
71 1 0.288884 0.472078 0.205243
75 3 0.30256 0.489588 0.200238
73 3 0.266849 0.477658 0.20058
72 3 0.294828 0.453919 0.192434
3160 2 0.463229 0.486115 0.249776
3161 4 0.476369 0.506172 0.242688
2850 4 0.0218915 0.0134222 0.326551
1141 2 0.203471 0.0500104 0.255376
1876 2 0.228214 0.00978637 0.292564
1143 4 0.196635 0.0324786 0.271841
1878 4 0.213635 0.0252737 0.279419
1877 4 0.242793 0.994299 0.305708
2088 4 0.270129 0.0349855 0.303149
771 4 0.264534 0.0561328 0.301568
769 2 0.263856 0.081082 0.300066
2086 2 0.277558 0.0189038 0.320794
2087 4 0.284987 0.0028222 0.33844
24 3 0.399087 0.0639945 0.274069
21 1 0.413327 0.0685656 0.256328
23 3 0.42268 0.0488664 0.248399
22 3 0.430191 0.0823672 0.263694
2216 4 0.440486 0.0130765 0.289594
759 4 0.0749127 0.141455 0.300465
1229 4 0.0664571 0.159985 0.301962
757 2 0.0837603 0.122386 0.314004
758 4 0.0926079 0.103318 0.327543
884 4 0.11452 0.162836 0.253053
894 4 0.138837 0.130919 0.293953
892 2 0.129762 0.137759 0.27168
893 4 0.120688 0.144599 0.249408
1061 4 0.14149 0.127043 0.312162
82 3 0.0902577 0.0835731 0.329643
1060 2 0.166455 0.127861 0.313278
1062 4 0.191421 0.128679 0.314393
955 2 0.228212 0.128039 0.332048
956 4 0.25285 0.1245 0.334421
1093 2 0.329014 0.101686 0.255478
1191 4 0.255599 0.107821 0.263779
770 4 0.263179 0.106031 0.298564
1095 4 0.332175 0.0826822 0.271417
849 4 0.445485 0.154361 0.289471
847 2 0.455166 0.136257 0.303744
848 4 0.464846 0.118153 0.318017
933 4 0.462803 0.11695 0.337623
833 4 0.462917 0.161839 0.279479
1228 2 0.0528645 0.180891 0.303789
1230 4 0.0392719 0.201798 0.305616
924 4 0.0437473 0.205377 0.324869
922 2 0.0325848 0.226483 0.332294
907 2 0.505777 0.234299 0.330069
832 2 0.46271 0.183936 0.267782
809 4 0.124809 0.30042 0.286082
808 2 0.109252 0.291376 0.268721
880 2 0.153834 0.291637 0.313137
882 4 0.132918 0.301769 0.303916
1251 4 0.241594 0.293342 0.265089
1249 2 0.227488 0.313672 0.261499
842 4 0.226286 0.271456 0.281866
890 4 0.211733 0.306682 0.294144
889 2 0.216879 0.299537 0.317546
881 4 0.17475 0.281504 0.322359
843 4 0.268291 0.246196 0.291774
841 2 0.247288 0.258826 0.28682
815 4 0.321126 0.2891 0.253125
1013 4 0.404677 0.286551 0.316368
1046 4 0.113169 0.381837 0.294426
1045 2 0.115628 0.405522 0.286801
1250 4 0.213381 0.334002 0.25791
1224 4 0.28172 0.353323 0.275559
1222 2 0.30077 0.366539 0.284919
1223 4 0.319821 0.379755 0.294278
1152 4 0.332008 0.395016 0.288342
1038 4 0.339496 0.35827 0.311443
1151 4 0.373141 0.403196 0.315579
1150 2 0.352575 0.399106 0.301961
927 4 0.380555 0.384336 0.316189
1104 4 0.490012 0.360827 0.247186
1187 4 0.0524997 0.484827 0.317473
1020 4 0.0468524 0.466748 0.308736
1018 2 0.0385928 0.445899 0.319793
1019 4 0.0303333 0.42505 0.330851
1047 4 0.118086 0.429207 0.279176
1042 2 0.0841324 0.445206 0.255059
1044 4 0.102278 0.438882 0.271057
972 4 0.136367 0.452628 0.312732
970 2 0.119412 0.461455 0.328851
900 4 0.214431 0.44996 0.262911
898 2 0.196464 0.463274 0.251725
1085 4 0.240833 0.455858 0.287325
1084 2 0.233619 0.446549 0.309381
1086 4 0.226404 0.437239 0.331437
3162 4 0.450089 0.466058 0.256865
1176 4 0.438721 0.451528 0.263395
1174 2 0.445184 0.445176 0.286699
1175 4 0.451647 0.438824 0.310002
2848 2 0.00681878 0.0305818 0.336726
83 3 0.0800632 0.0628868 0.359322
2160 4 0.141776 0.0301708 0.385165
1065 4 0.155798 0.0445115 0.387993
84 3 0.116587 0.0717908 0.353739
2158 2 0.127089 0.0156422 0.39925
81 1 0.0946989 0.0792436 0.351795
1063 2 0.173237 0.0554496 0.402185
1064 4 0.190676 0.0663878 0.416377
1137 4 0.288031 0.0249336 0.386828
1135 2 0.310748 0.0258673 0.376424
1136 4 0.333465 0.0268011 0.36602
959 4 0.408193 0.0101826 0.343608
1146 4 0.344921 0.0437368 0.368174
1144 2 0.361562 0.044475 0.386821
1145 4 0.378204 0.0452133 0.405468
87 3 0.396658 0.0522876 0.407369
2978 4 0.495888 0.0589722 0.356
958 2 0.428609 0.996481 0.339065
2040 4 0.472251 0.0153645 0.419069
932 4 0.482856 0.0717317 0.344963
89 3 0.420898 0.025554 0.417877
2987 4 0.01507 0.12106 0.372722
1153 2 0.0518937 0.113013 0.362521
1154 4 0.0724605 0.0988607 0.361141
1155 4 0.0313268 0.127165 0.3639
85 3 0.0918904 0.0983409 0.36388
1078 2 0.128864 0.162118 0.389231
1080 4 0.120195 0.139165 0.394047
957 4 0.203574 0.131578 0.329674
951 4 0.413094 0.10908 0.358277
931 2 0.472829 0.0943409 0.341293
949 2 0.431111 0.121341 0.370534
950 4 0.449129 0.133603 0.38279
986 4 0.459225 0.126317 0.39899
985 2 0.470314 0.105794 0.407991
1079 4 0.137533 0.185071 0.384416
1244 4 0.156375 0.228 0.382054
1243 2 0.159328 0.223857 0.357574
1245 4 0.162282 0.219713 0.333093
63 3 0.325199 0.214915 0.380363
61 1 0.320136 0.23677 0.374433
65 3 0.303965 0.245007 0.38819
792 4 0.288944 0.238565 0.40351
62 3 0.312475 0.237005 0.352744
1181 4 0.315429 0.172587 0.412596
1167 4 0.385833 0.172183 0.362965
1165 2 0.374719 0.194527 0.364521
1166 4 0.363605 0.216871 0.366078
909 4 0.4856 0.226038 0.34231
1227 4 0.479739 0.231776 0.360222
1225 2 0.459307 0.221217 0.37003
1226 4 0.438874 0.210658 0.379839
2857 2 0.0147211 0.325211 0.356205
923 4 0.0214223 0.247589 0.339718
1075 2 0.0717909 0.320065 0.359749
3151 2 0.00994519 0.270594 0.406864
1076 4 0.0921307 0.309814 0.370063
3152 4 0.0308148 0.256956 0.404954
1129 2 0.135906 0.27567 0.407221
1130 4 0.144715 0.252275 0.406718
1131 4 0.127098 0.299066 0.407724
827 4 0.121652 0.319118 0.412115
868 2 0.226095 0.314702 0.371687
870 4 0.218634 0.293414 0.360901
891 4 0.222025 0.292392 0.340948
1012 2 0.393074 0.288668 0.338415
64 3 0.339175 0.249962 0.375806
783 4 0.340275 0.26213 0.39124
781 2 0.357034 0.279504 0.384723
1014 4 0.38147 0.290784 0.360462
782 4 0.373793 0.296877 0.378206
1021 2 0.418115 0.322125 0.392187
1023 4 0.414707 0.333108 0.369984
784 2 0.491957 0.284408 0.411652
2858 4 0.0335494 0.338315 0.346257
1077 4 0.051451 0.330316 0.349435
3232 2 0.0116842 0.406853 0.356113
3233 4 0.0305464 0.407933 0.339735
869 4 0.233557 0.33599 0.382472
981 4 0.252035 0.341612 0.388849
974 4 0.240531 0.399189 0.378289
973 2 0.233782 0.419359 0.365144
979 2 0.253653 0.366563 0.38888
980 4 0.255272 0.391514 0.388911
1036 2 0.346826 0.34647 0.332233
925 2 0.397335 0.389628 0.333954
1037 4 0.354155 0.33467 0.353023
903 4 0.345786 0.34647 0.366468
901 2 0.338207 0.348867 0.390175
926 4 0.414115 0.394919 0.351719
79 3 0.424886 0.407118 0.339491
78 3 0.459358 0.410044 0.355224
1193 4 0.478711 0.410679 0.353782
1186 2 0.0642945 0.495084 0.336988
895 2 0.11212 0.466987 0.383206
896 4 0.0958949 0.473774 0.365434
971 4 0.102458 0.470282 0.344969
897 4 0.128344 0.460199 0.400979
1922 4 0.165336 0.444608 0.360477
1944 4 0.171329 0.507381 0.3705
1923 4 0.181632 0.491063 0.369262
975 4 0.227033 0.439529 0.351999
1921 2 0.173484 0.467835 0.364869
2220 4 0.389323 0.505426 0.38246
2218 2 0.412851 0.497697 0.379012
1192 2 0.494398 0.420163 0.370786
2219 4 0.436379 0.489969 0.375565
77 3 0.432409 0.434814 0.36376
76 1 0.4412 0.421857 0.346908
80 3 0.447868 0.435322 0.329795
2615 4 0.051195 0.0014871 0.490105
864 4 0.0510643 0.00922712 0.472072
863 4 0.0527095 0.0418586 0.434215
862 2 0.0518869 0.0255429 0.453144
2209 2 0.180787 0.00741321 0.463097
2211 4 0.174981 0.0191867 0.484377
50 3 0.203827 0.0770324 0.426482
49 3 0.179902 0.0700437 0.454702
46 1 0.19969 0.0805156 0.448604
48 3 0.217256 0.0722868 0.461336
1700 4 0.32245 0.0681712 0.489551
1232 4 0.331543 0.0647261 0.472952
213 3 0.398857 0.00209323 0.454725
86 1 0.410664 0.045377 0.424258
88 3 0.398125 0.0419864 0.443486
1233 4 0.37259 0.0430114 0.491507
1231 2 0.352066 0.0538687 0.48223
90 3 0.42641 0.061405 0.427976
3181 2 0.499172 0.0592917 0.434822
1101 4 0.487384 0.0703166 0.492186
1500 4 0.476285 0.0558002 0.501962
3183 4 0.477517 0.0708979 0.430184
3396 4 0.00449545 0.0800837 0.478028
60 3 0.0125164 0.0916294 0.463902
940 2 0.0144706 0.147984 0.46221
941 4 0.0137502 0.126358 0.44968
1472 4 0.134099 0.152083 0.493301
1393 2 0.096562 0.148624 0.490411
1394 4 0.119801 0.141303 0.484795
1471 2 0.154448 0.165739 0.498263
840 4 0.23476 0.0818138 0.46181
47 3 0.197648 0.1031 0.452466
1180 2 0.295995 0.159868 0.421857
838 2 0.255529 0.0946168 0.46728
39 3 0.267203 0.120688 0.486575
839 4 0.276297 0.10742 0.472751
1182 4 0.276562 0.14715 0.431118
1100 4 0.495315 0.115545 0.472381
987 4 0.481403 0.0852704 0.416992
1099 2 0.491349 0.0929307 0.482283
942 4 0.0151911 0.169609 0.47474
1361 4 0.276489 0.16648 0.505613
1053 4 0.322306 0.252424 0.481438
1360 2 0.291324 0.185795 0.499955
1362 4 0.30616 0.20511 0.494297
1051 2 0.334524 0.237735 0.465309
1052 4 0.346742 0.223046 0.44918
1179 4 0.440621 0.242637 0.445817
813 4 0.48675 0.206752 0.425136
1177 2 0.454459 0.222896 0.439186
1178 4 0.468297 0.203154 0.432556
1335 4 0.427289 0.215043 0.484534
1648 2 0.00536374 0.258043 0.463214
1649 4 0.0287888 0.266573 0.465131
1027 2 0.064007 0.293095 0.460424
1028 4 0.0825371 0.309882 0.460433
1029 4 0.0454769 0.276308 0.460414
828 4 0.0834941 0.322997 0.444204
826 2 0.102573 0.321057 0.42816
8 3 0.121151 0.311431 0.487837
790 2 0.282255 0.257612 0.418263
935 4 0.3214 0.251635 0.5019
934 2 0.309317 0.27299 0.497087
1109 4 0.259753 0.280263 0.444628
791 4 0.275566 0.276658 0.433017
1108 2 0.274374 0.29211 0.461091
936 4 0.297234 0.294344 0.492273
1110 4 0.288995 0.303958 0.477554
1022 4 0.421523 0.311142 0.414389
785 4 0.473336 0.277428 0.426808
1056 4 0.481292 0.281286 0.444138
1054 2 0.470552 0.272505 0.46494
1055 4 0.459812 0.263723 0.485742
1132 2 0.0807682 0.394195 0.484302
1133 4 0.0740414 0.390858 0.460452
1238 4 0.185992 0.3961 0.49145
1237 2 0.201164 0.379068 0.481208
1239 4 0.216335 0.362035 0.470965
1121 4 0.336859 0.401575 0.460051
902 4 0.330628 0.351263 0.413881
760 2 0.340442 0.36451 0.448068
762 4 0.340309 0.346776 0.430443
761 4 0.340575 0.382245 0.465693
1007 4 0.0827787 0.48033 0.486604
1631 4 0.215949 0.460101 0.474787
1039 2 0.196566 0.461167 0.44865
1630 2 0.228491 0.445403 0.490658
1040 4 0.173012 0.456829 0.44147
1041 4 0.22012 0.465506 0.45583
1819 2 0.335368 0.482186 0.446747
1820 4 0.32957 0.459196 0.438807
1122 4 0.333097 0.441562 0.430259
1120 2 0.334978 0.421568 0.445155
1558 2 0.0530324 0.0555928 0.538151
1559 4 0.0332729 0.0445152 0.527567
3395 4 0.0305454 0.0517438 0.509949
3394 2 0.0175204 0.0659137 0.493988
1560 4 0.0727919 0.0666704 0.548736
1496 4 0.0826369 0.0729806 0.53239
1606 2 0.15324 0.0365473 0.537479
1607 4 0.141635 0.0201969 0.52254
1298 4 0.163718 0.0502505 0.572167
1608 4 0.164845 0.0528978 0.552418
172 3 0.31363 0.0545837 0.575267
2486 4 0.277531 0.013257 0.559154
171 1 0.310796 0.0366436 0.561151
173 3 0.288447 0.0304054 0.561342
174 3 0.31709 0.0429008 0.539712
175 3 0.323755 0.0193409 0.568315
1595 4 0.332099 0.063442 0.571156
1594 2 0.347301 0.0812857 0.562456
1499 4 0.44733 0.0183529 0.518087
1498 2 0.461808 0.0370766 0.510025
2268 4 0.438111 0.0012781 0.513622
1395 4 0.0733231 0.155945 0.496027
1495 2 0.0927566 0.0957942 0.533909
1497 4 0.102876 0.118608 0.535428
1571 4 0.199123 0.115886 0.525143
1580 4 0.187553 0.113143 0.541354
1570 2 0.220079 0.129498 0.526011
1579 2 0.182098 0.119334 0.564957
1572 4 0.241035 0.143109 0.526878
38 3 0.254217 0.130081 0.521036
1699 2 0.313809 0.0870185 0.503526
40 3 0.287294 0.112476 0.517342
36 1 0.273181 0.127645 0.507889
37 3 0.283832 0.147977 0.506361
1701 4 0.305168 0.105866 0.5175
1596 4 0.362504 0.0991294 0.553757
519 3 0.466591 0.108405 0.559408
516 1 0.480292 0.119046 0.574818
518 3 0.495061 0.133186 0.56385
3335 4 0.497203 0.0842325 0.583032
1623 4 0.00785798 0.218825 0.552604
778 2 0.166665 0.204544 0.534453
779 4 0.169522 0.223224 0.550825
780 4 0.163807 0.185863 0.51808
1473 4 0.174798 0.179394 0.503225
1323 4 0.24661 0.202323 0.570219
1321 2 0.263702 0.212161 0.554849
1545 4 0.337131 0.242419 0.553889
1322 4 0.280795 0.222 0.539479
1333 2 0.43778 0.236076 0.493065
1684 2 0.159792 0.294787 0.548867
1685 4 0.151464 0.311971 0.532727
9 3 0.13467 0.315317 0.523144
6 1 0.115624 0.315985 0.509908
10 3 0.100415 0.300781 0.517405
1686 4 0.16812 0.277602 0.565007
1341 4 0.179421 0.268057 0.578322
1268 4 0.250651 0.302451 0.552481
1267 2 0.244239 0.278288 0.552945
1278 4 0.23622 0.315646 0.547807
1269 4 0.237827 0.254125 0.553408
1543 2 0.345667 0.26325 0.543008
1544 4 0.354203 0.284081 0.532128
1287 4 0.378858 0.324283 0.520167
1334 4 0.44827 0.257108 0.501595
1428 4 0.034193 0.364112 0.581825
1426 2 0.0501554 0.381164 0.572902
1427 4 0.0661179 0.398216 0.56398
1134 4 0.087495 0.397532 0.508151
875 4 0.0890636 0.394215 0.527588
876 4 0.115471 0.408819 0.567464
874 2 0.102267 0.401517 0.547526
7 3 0.106483 0.337061 0.511089
142 3 0.147269 0.36182 0.551857
141 1 0.150299 0.369764 0.573231
1169 4 0.144534 0.36978 0.533902
1168 2 0.164376 0.379737 0.522399
1276 2 0.232498 0.340063 0.543917
1277 4 0.228775 0.36448 0.540026
1170 4 0.184219 0.389694 0.510897
1385 4 0.329478 0.365721 0.540876
1384 2 0.304957 0.362517 0.537183
1386 4 0.280436 0.359314 0.53349
1286 4 0.347574 0.35711 0.541247
1285 2 0.363216 0.340696 0.530707
1382 4 0.44976 0.391253 0.515298
1381 2 0.451142 0.402935 0.537362
3604 2 0.492066 0.411332 0.573271
1454 4 0.478368 0.35674 0.569965
1383 4 0.452523 0.414617 0.559425
1391 4 0.00442492 0.462926 0.531216
1006 2 0.0754339 0.494617 0.505763
1589 4 0.164022 0.459646 0.56146
1590 4 0.170834 0.472619 0.513648
1588 2 0.167428 0.466132 0.537554
1632 4 0.241032 0.430705 0.506528
1344 4 0.355936 0.482361 0.526712
3606 4 0.471655 0.417979 0.560451
294 3 0.481891 0.500199 0.522511
1442 4 0.47855 0.484974 0.582698
1401 4 0.0802765 0.0607589 0.660218
1617 4 0.0816518 0.0427382 0.654679
1399 2 0.0856868 0.0847495 0.655706
1297 2 0.17161 0.0347088 0.590094
1299 4 0.179501 0.0191671 0.60802
1711 2 0.222171 0.00916985 0.64559
1712 4 0.19919 0.00460258 0.63686
1713 4 0.245152 0.0137371 0.654319
321 1 0.283344 0.00555942 0.669157
1527 4 0.297076 0.0395498 0.654152
1526 4 0.286287 0.0572629 0.608649
1525 2 0.291681 0.0484064 0.6314
324 3 0.298786 0.0198463 0.659367
323 3 0.263102 0.00685115 0.657888
1284 4 0.392184 0.0471408 0.647564
1282 2 0.378342 0.0374975 0.629109
1283 4 0.364499 0.0278542 0.610655
105 3 0.39833 0.0642773 0.657653
1520 4 0.0102307 0.125159 0.620762
1400 4 0.0910971 0.10874 0.651194
1581 4 0.176643 0.125525 0.58856
1601 4 0.184142 0.13201 0.606051
1484 4 0.243096 0.135887 0.609658
1600 2 0.20723 0.139907 0.611506
1602 4 0.230318 0.147804 0.616961
1483 2 0.266544 0.132177 0.617508
1485 4 0.289991 0.128467 0.625358
520 3 0.46764 0.130939 0.589553
517 3 0.492339 0.103151 0.58628
1704 4 0.125091 0.190599 0.634546
1702 2 0.134051 0.213794 0.631919
1703 4 0.143011 0.236989 0.629293
1719 4 0.236833 0.214441 0.582681
1717 2 0.217797 0.228961 0.589891
1718 4 0.198761 0.243481 0.597101
1348 2 0.294421 0.177834 0.659377
1349 4 0.309874 0.178088 0.639722
1620 4 0.38205 0.226912 0.650236
1548 4 0.386325 0.208915 0.644266
1618 2 0.365921 0.233763 0.632399
1546 2 0.40786 0.199909 0.653227
1662 4 0.337536 0.249065 0.601517
1619 4 0.349793 0.240613 0.614563
1627 2 0.0774791 0.308243 0.657816
1628 4 0.0657151 0.329452 0.651737
3564 4 0.993816 0.336096 0.61785
1593 4 0.00534901 0.33461 0.601165
1340 4 0.150601 0.250237 0.615099
1339 2 0.165011 0.259147 0.59671
1661 4 0.307618 0.278665 0.628526
1660 2 0.322577 0.263865 0.615022
158 3 0.273022 0.274077 0.648841
160 3 0.293554 0.290385 0.675863
1645 2 0.387896 0.290024 0.651543
1646 4 0.364065 0.289793 0.659106
1647 4 0.411727 0.290254 0.643979
149 3 0.420161 0.254396 0.624538
148 3 0.435196 0.274579 0.596059
146 1 0.431863 0.273653 0.619004
150 3 0.420316 0.292022 0.625926
147 3 0.452337 0.273182 0.629479
1592 4 0.0417944 0.357654 0.626492
1591 2 0.0235717 0.346132 0.613828
145 3 0.163449 0.355238 0.584838
144 3 0.129594 0.371664 0.583532
1355 4 0.122398 0.378263 0.629143
1354 2 0.112758 0.374788 0.65195
143 3 0.160534 0.390558 0.572125
162 3 0.195398 0.353391 0.596429
164 3 0.2113 0.38731 0.593382
161 1 0.210632 0.367787 0.605905
163 3 0.231513 0.357667 0.605919
165 3 0.204252 0.372468 0.62726
1469 4 0.24462 0.408274 0.66176
1353 4 0.249603 0.395875 0.64663
1351 2 0.256965 0.393199 0.622885
1352 4 0.264328 0.390522 0.599141
1453 2 0.475881 0.354215 0.594716
1455 4 0.473393 0.351689 0.619467
3651 4 0.487552 0.403217 0.659693
1479 4 0.016907 0.466182 0.653685
1477 2 0.0268602 0.471458 0.631363
2627 4 0.0148109 0.486139 0.656878
1478 4 0.0368134 0.476734 0.609041
1614 4 0.246403 0.489356 0.608077
1613 4 0.253368 0.486319 0.657503
1612 2 0.249886 0.487838 0.63279
1652 4 0.363962 0.416564 0.637883
1651 2 0.371838 0.440166 0.640356
1653 4 0.379714 0.463767 0.642828
2357 4 0.363965 0.473775 0.633758
2356 2 0.370149 0.492434 0.618306
1441 2 0.467232 0.463456 0.588536
1443 4 0.455915 0.441938 0.594374
4391 4 0.484581 0.503513 0.589034
2558 4 0.47315 0.484493 0.631775
2557 2 0.475219 0.489007 0.656281
1616 4 0.0854856 0.00762891 0.690082
1615 2 0.0835687 0.0251836 0.67238
1691 4 0.140913 0.0596786 0.732784
2442 4 0.144125 0.0400363 0.73021
2440 2 0.139755 0.0175187 0.740162
1690 2 0.158704 0.0731948 0.744007
1531 2 0.317522 0.0738984 0.696204
1532 4 0.304546 0.0537234 0.70326
322 3 0.280109 0.0119567 0.691014
103 3 0.403558 0.0497273 0.691984
101 1 0.405158 0.0688221 0.678899
102 3 0.427093 0.0757406 0.678491
527 3 0.486806 0.0547718 0.692741
1324 2 0.0556746 0.134212 0.696043
1325 4 0.0358961 0.118924 0.696546
1326 4 0.075453 0.149501 0.695541
1316 4 0.070328 0.168482 0.697483
1654 2 0.141501 0.158849 0.756532
1568 4 0.234419 0.115112 0.730468
1567 2 0.213576 0.106202 0.741022
1533 4 0.330497 0.0940733 0.689148
1445 4 0.325737 0.111176 0.699194
125 3 0.265556 0.13318 0.744527
1444 2 0.329215 0.132464 0.711839
1446 4 0.332693 0.153752 0.724483
1303 2 0.267114 0.164132 0.712765
1305 4 0.269801 0.149622 0.732949
104 3 0.392122 0.0857466 0.687955
1689 4 0.487471 0.146524 0.680843
1467 4 0.473447 0.158581 0.689653
1317 4 0.0796607 0.195352 0.738612
1315 2 0.0749944 0.181917 0.718047
1656 4 0.157194 0.161577 0.737258
1368 4 0.154865 0.179785 0.729184
1366 2 0.162673 0.187383 0.706679
1367 4 0.17048 0.194981 0.684174
1304 4 0.264426 0.178642 0.69258
1350 4 0.278969 0.17758 0.679032
1482 4 0.372527 0.217165 0.694703
1480 2 0.377343 0.238643 0.706563
1547 4 0.429396 0.190904 0.662188
1466 4 0.449252 0.195625 0.666349
1465 2 0.46135 0.177103 0.678001
1605 4 0.034537 0.309356 0.675594
1603 2 0.0210055 0.322549 0.691965
1604 4 0.00747392 0.335743 0.708336
1629 4 0.0892432 0.287033 0.663894
1404 4 0.101354 0.29779 0.676404
1402 2 0.120969 0.293131 0.691194
1403 4 0.140583 0.288472 0.705985
1294 2 0.155328 0.291363 0.741645
1296 4 0.156569 0.284349 0.717677
1505 4 0.250078 0.329548 0.722803
1504 2 0.258728 0.310782 0.708726
157 3 0.28515 0.254102 0.678279
156 1 0.277549 0.274757 0.671589
159 3 0.258206 0.279809 0.683368
1506 4 0.267377 0.292015 0.694648
1481 4 0.382158 0.260122 0.718423
3429 4 0.381518 0.279018 0.722352
3427 2 0.391174 0.298527 0.710051
3428 4 0.40083 0.318037 0.69775
1345 2 0.0477511 0.401005 0.737634
1745 4 0.074476 0.373975 0.726605
1289 4 0.0860078 0.367384 0.740374
1347 4 0.0650262 0.416803 0.72885
1288 2 0.0857872 0.345675 0.752778
1346 4 0.030476 0.385206 0.746419
1356 4 0.103118 0.371312 0.674757
1744 2 0.0789368 0.370351 0.702271
1746 4 0.0833977 0.366728 0.677937
1398 4 0.17998 0.374664 0.73621
1502 4 0.233149 0.338794 0.728793
1468 2 0.227623 0.39919 0.677689
1501 2 0.221443 0.35892 0.719677
1503 4 0.209738 0.379045 0.71056
1470 4 0.210625 0.390105 0.693617
1609 2 0.285528 0.377481 0.733976
1611 4 0.267985 0.390406 0.746238
1610 4 0.303072 0.364555 0.721715
1563 4 0.413512 0.332773 0.700634
1561 2 0.427791 0.350304 0.689958
3650 4 0.467801 0.407731 0.705412
1562 4 0.44207 0.367835 0.679282
3649 2 0.477676 0.405474 0.682552
1535 4 0.451541 0.408442 0.717971
2383 2 0.00243198 0.500037 0.732606
2626 2 0.0144286 0.498979 0.67833
1436 4 0.15888 0.492105 0.703673
1599 4 0.259386 0.492825 0.676416
2559 4 0.477288 0.493522 0.680786
1534 2 0.449655 0.432394 0.724893
1536 4 0.447769 0.456346 0.731815
1696 2 0.470413 0.487866 0.711457
1698 4 0.46012 0.470801 0.726557
1681 2 0.271219 0.0714952 0.790652
1683 4 0.276778 0.0659521 0.766913
1418 4 0.326795 0.0324742 0.798666
1682 4 0.265661 0.0770383 0.814391
1419 4 0.367027 0.00888951 0.780614