ITEM: TIMESTEP
5960000
ITEM: NUMBER OF ATOMS
1600
ITEM: BOX BOUNDS pp pp pp
-6.9325799999999997e+00 6.9325799999999997e+00
-6.9325799999999997e+00 6.9325799999999997e+00
-6.9325799999999997e+00 6.9325799999999997e+00
ITEM: ATOMS id type xs ys zs
332 2 0.032656 0.111758 0.105634
136 1 0.22741 0.112426 0.051765
309 4 0.210927 0.0692506 0.0486934
139 3 0.199131 0.0949515 0.0556233
308 2 0.182335 0.0483937 0.0417688
1011 4 0.238779 0.0633856 0.0500698
310 4 0.153744 0.0275369 0.0348443
140 3 0.23617 0.126024 0.0803518
468 4 0.230041 0.0466476 0.119867
137 3 0.25141 0.0918869 0.0416245
1010 2 0.260068 0.0364761 0.0389762
1012 4 0.281358 0.00956657 0.0278827
935 2 0.422777 0.0946931 0.0494237
936 4 0.433157 0.1012 0.0833407
227 3 0.429092 0.0906282 0.110648
937 4 0.412397 0.0881863 0.0155067
961 4 0.447731 0.0135409 0.103713
229 3 0.449688 0.0419432 0.0986463
226 1 0.451106 0.0676482 0.120028
230 3 0.481214 0.0807749 0.119791
334 4 0.0194389 0.130856 0.078048
645 4 0.0174871 0.161434 0.0775123
500 2 0.0615169 0.221311 0.098345
644 2 0.014828 0.178325 0.0457624
502 4 0.0900997 0.242234 0.0915869
646 4 0.0121688 0.195217 0.0140125
501 4 0.032934 0.200388 0.105103
138 3 0.223064 0.136234 0.0286521
325 4 0.213013 0.133735 0.00142386
1038 4 0.320732 0.21603 0.0039595
43 3 0.0798722 0.267159 0.10173
45 3 0.0914138 0.319596 0.0936081
41 1 0.0984204 0.288886 0.0842997
672 4 0.0756837 0.341874 0.0988521
42 3 0.0915272 0.285406 0.0520342
1497 4 0.100029 0.291622 0.0252516
1496 2 0.102198 0.325849 0.0141065
671 2 0.0492625 0.353063 0.120696
1498 4 0.104367 0.360077 0.00296139
44 3 0.130934 0.282621 0.0891533
394 4 0.221083 0.316728 0.0723536
461 2 0.178839 0.299886 0.0908825
462 4 0.213633 0.291591 0.086296
463 4 0.144046 0.308181 0.0954689
392 2 0.2496 0.334065 0.0586919
393 4 0.278117 0.351402 0.0450302
1084 4 0.304171 0.366291 0.0361878
1082 2 0.331003 0.346113 0.049353
1083 4 0.357836 0.325935 0.0625181
1443 4 0.364211 0.299786 0.076315
1442 2 0.374722 0.296009 0.110603
556 4 0.489886 0.28037 0.0125042
69 3 0.0573074 0.379433 0.0413045
1423 4 0.0462904 0.437107 0.0366544
1421 2 0.0162176 0.455019 0.0453269
70 3 0.0622258 0.427103 0.0157657
66 1 0.0611733 0.394528 0.0116883
737 2 0.23763 0.48078 0.0658718
738 4 0.224877 0.492761 0.03434
327 4 0.221387 0.498209 0.00551873
739 4 0.250383 0.468799 0.0974036
370 4 0.254245 0.479481 0.123746
941 2 0.482399 0.469092 0.0913079
943 4 0.454887 0.47307 0.11428
395 2 0.0419361 0.107628 0.191184
396 4 0.035314 0.0900882 0.160379
333 4 0.045873 0.0926597 0.133221
496 4 0.213884 0.0311638 0.136863
467 2 0.25632 0.0614854 0.139607
469 4 0.2826 0.0763233 0.159347
276 4 0.354497 0.0692996 0.188984
18 3 0.342933 0.0955076 0.181132
17 3 0.292011 0.0779429 0.187204
16 1 0.310764 0.104721 0.181552
20 3 0.305713 0.126702 0.20543
19 3 0.30225 0.117842 0.151966
275 2 0.383477 0.0642504 0.168124
277 4 0.412456 0.0592012 0.147265
228 3 0.443419 0.0572664 0.1509
999 4 0.476374 0.0943 0.145498
998 2 0.491377 0.116369 0.169753
397 4 0.0485582 0.125168 0.221989
1003 4 0.0749861 0.135812 0.217485
750 4 0.0161496 0.198558 0.12816
1001 2 0.105494 0.15502 0.216618
1002 4 0.136002 0.174229 0.215751
673 4 0.0228413 0.364253 0.14254
336 4 0.207265 0.361883 0.144583
335 2 0.175598 0.374909 0.13327
674 2 0.236178 0.362914 0.185896
301 4 0.174598 0.286465 0.243455
676 4 0.248513 0.343216 0.213469
274 4 0.245628 0.344848 0.240917
1121 2 0.434203 0.321945 0.157141
1122 4 0.414251 0.292497 0.151213
1444 4 0.385233 0.292232 0.144892
1123 4 0.454155 0.351394 0.16307
1350 4 0.450979 0.366164 0.18722
312 4 0.0143372 0.500539 0.138384
311 2 0.00678978 0.499189 0.173621
1299 4 0.022591 0.499094 0.225259
337 4 0.143931 0.387935 0.121957
675 4 0.223843 0.382612 0.158322
414 4 0.189786 0.491554 0.148186
415 4 0.141577 0.458966 0.190796
413 2 0.165682 0.47526 0.169491
368 2 0.245838 0.455133 0.148984
369 4 0.237431 0.430785 0.174221
268 4 0.454826 0.499008 0.126159
1351 4 0.488836 0.427549 0.186461
1349 2 0.469908 0.396857 0.18684
1600 4 0.0723938 0.0120278 0.261325
877 4 0.0729658 0.0330032 0.340705
579 4 0.0992202 0.0393713 0.332693
875 2 0.0517289 0.0246326 0.368623
484 4 0.186609 0.00275037 0.303027
578 2 0.13258 0.0273019 0.326223
580 4 0.165941 0.0152325 0.319752
763 4 0.430758 0.114975 0.283327
928 4 0.438886 0.119286 0.256216
583 4 0.215162 0.218812 0.294354
581 2 0.244912 0.200994 0.304246
300 4 0.213188 0.246937 0.289824
582 4 0.274663 0.183176 0.314139
244 3 0.370361 0.205549 0.287935
1363 4 0.362597 0.150239 0.346305
761 2 0.409336 0.128791 0.308835
241 1 0.384717 0.235533 0.284093
762 4 0.387915 0.142607 0.334343
926 2 0.470608 0.136335 0.254351
245 3 0.416878 0.233455 0.290434
163 3 0.49678 0.18221 0.255114
927 4 0.50233 0.153383 0.252486
242 3 0.380382 0.245565 0.252768
299 2 0.193893 0.266701 0.26664
272 2 0.271007 0.344057 0.266523
723 4 0.322735 0.332946 0.304111
273 4 0.296387 0.343265 0.29213
722 2 0.349773 0.309407 0.308022
243 3 0.370439 0.257753 0.304643
1566 4 0.29509 0.373079 0.348841
1565 2 0.264281 0.361128 0.363278
724 4 0.376811 0.285867 0.311933
995 2 0.430935 0.377279 0.347228
703 4 0.379788 0.373484 0.333309
1208 2 0.188662 0.388469 0.360616
1209 4 0.169978 0.415964 0.346639
701 2 0.347776 0.38227 0.347399
702 4 0.315765 0.391055 0.361488
996 4 0.404613 0.385044 0.323834
1026 4 0.0211268 0.0419203 0.404806
876 4 0.030492 0.016262 0.39654
1546 4 0.0033883 0.0195369 0.498172
1025 2 0.00951229 0.0355861 0.438353
365 2 0.326403 0.0833186 0.422195
366 4 0.338234 0.0517944 0.435107
349 4 0.357313 0.0376474 0.453542
367 4 0.314573 0.114843 0.409284
347 2 0.377499 0.0470356 0.481911
747 4 0.0941123 0.224402 0.390282
746 2 0.0805997 0.191283 0.39486
748 4 0.0670872 0.158163 0.399439
499 4 0.340435 0.235374 0.39391
1362 4 0.322197 0.141344 0.405385
1361 2 0.342397 0.145792 0.375845
497 2 0.366142 0.23334 0.419119
498 4 0.391849 0.231306 0.444327
667 4 0.00761627 0.334385 0.411987
1210 4 0.207347 0.360975 0.374593
1567 4 0.233472 0.349177 0.377715
1341 4 0.490065 0.371051 0.44898
997 4 0.457257 0.369515 0.370623
10 3 0.390512 0.249895 0.467255
6 1 0.396866 0.251369 0.499446
129 3 0.486223 0.354524 0.427338
130 3 0.465911 0.343364 0.378228
126 1 0.476159 0.330293 0.406565
128 3 0.451403 0.312723 0.420648
127 3 0.501699 0.30997 0.400619
7 3 0.426251 0.266042 0.504124
932 2 0.248936 0.394561 0.494512
704 2 0.361601 0.448242 0.419095
933 4 0.264233 0.406948 0.464296
706 4 0.352318 0.435538 0.386647
705 4 0.370884 0.460945 0.451544
298 4 0.293015 0.476838 0.486282
1015 4 0.400196 0.470865 0.452913
1014 4 0.469328 0.452966 0.463022
1013 2 0.434762 0.461916 0.457967
1342 4 0.493966 0.440345 0.468599
1340 2 0.492015 0.405698 0.45879
523 4 0.17612 0.00674608 0.578373
471 4 0.177115 0.00479474 0.608285
55 3 0.332014 0.0265272 0.585778
441 4 0.33933 0.0553049 0.587178
440 2 0.349432 0.0701672 0.618443
348 4 0.397685 0.0564237 0.51028
27 3 0.442778 0.11718 0.58371
26 1 0.438758 0.115515 0.55082
30 3 0.425319 0.0865783 0.543014
29 3 0.468657 0.118561 0.536099
1371 4 0.22797 0.242438 0.586091
844 4 0.250708 0.228362 0.573699
842 2 0.27735 0.251492 0.581156
576 4 0.375213 0.250165 0.537761
28 3 0.418647 0.140437 0.541103
953 2 0.442945 0.159336 0.61612
954 4 0.439081 0.14799 0.582109
293 2 0.405843 0.192146 0.551104
295 4 0.422337 0.161601 0.560872
294 4 0.38935 0.222691 0.541336
1146 4 0.478072 0.143368 0.523622
1145 2 0.48984 0.175907 0.513465
8 3 0.398029 0.220485 0.512282
1147 4 0.501608 0.208446 0.503308
401 2 0.113887 0.258246 0.570749
402 4 0.0808138 0.25992 0.556473
1467 4 0.0577327 0.275409 0.565602
1466 2 0.0399614 0.300838 0.547217
1468 4 0.02219 0.326267 0.528833
1370 2 0.194829 0.251482 0.59706
1372 4 0.161688 0.260526 0.608028
403 4 0.146959 0.256573 0.585026
1177 4 0.208422 0.372845 0.537576
575 2 0.354111 0.262723 0.56417
843 4 0.303992 0.274623 0.588613
577 4 0.333009 0.275282 0.590579
9 3 0.373233 0.269297 0.51494
533 2 0.446894 0.30683 0.533593
535 4 0.469421 0.318502 0.55922
534 4 0.424368 0.295157 0.507966
479 2 0.0963785 0.405704 0.528977
481 4 0.0737587 0.433517 0.525074
1021 4 0.0541081 0.454931 0.522711
1019 2 0.0373962 0.47654 0.546252
480 4 0.118998 0.377891 0.532879
1020 4 0.0206844 0.498149 0.569794
859 4 0.0379214 0.492461 0.592425
1175 2 0.174745 0.379184 0.526345
934 4 0.233639 0.382174 0.524728
1176 4 0.141068 0.385522 0.515113
296 2 0.323796 0.468194 0.502962
297 4 0.354577 0.459549 0.519643
398 2 0.398929 0.460423 0.564608
399 4 0.375839 0.457211 0.537094
400 4 0.422018 0.463635 0.592121
1561 4 0.486116 0.471747 0.526933
426 4 0.0121075 0.0631624 0.640356
931 4 0.104422 0.0874826 0.73147
929 2 0.111507 0.0529203 0.738932
439 4 0.0846243 0.103501 0.718472
425 2 0.0123467 0.0271935 0.637783
930 4 0.118593 0.0183579 0.746394
990 4 0.137514 0.00466626 0.728518
270 4 0.181993 0.0371526 0.701833
269 2 0.210243 0.030119 0.723113
470 2 0.175439 0.0195509 0.641147
472 4 0.173764 0.034307 0.674009
271 4 0.238494 0.0230853 0.744394
837 4 0.242747 0.114606 0.660448
836 2 0.255985 0.0979697 0.689576
823 4 0.326275 0.0527055 0.738582
821 2 0.337161 0.0683534 0.707971
822 4 0.348047 0.0840014 0.677359
442 4 0.359535 0.0850295 0.649707
838 4 0.269222 0.0813328 0.718703
437 2 0.101446 0.135395 0.718901
3 3 0.119995 0.203667 0.673631
438 4 0.118268 0.16729 0.719329
2 3 0.144479 0.17285 0.710905
814 4 0.185599 0.180559 0.652231
5 3 0.173893 0.197089 0.672896
1 1 0.147555 0.200135 0.692283
4 3 0.151196 0.226619 0.712415
812 2 0.212807 0.159728 0.663466
813 4 0.240015 0.138897 0.674702
493 4 0.460907 0.176855 0.674982
491 2 0.443386 0.180946 0.706234
492 4 0.425865 0.185038 0.737486
955 4 0.446809 0.170683 0.650132
103 3 0.424309 0.158095 0.746317
430 4 0.152189 0.255935 0.711393
279 4 0.204665 0.345277 0.673935
278 2 0.224433 0.31591 0.68081
280 4 0.244201 0.286543 0.687686
428 2 0.159987 0.272806 0.742296
546 4 0.249548 0.267737 0.710578
1521 4 0.13696 0.350999 0.712778
1520 2 0.170876 0.358658 0.72234
1522 4 0.204793 0.366318 0.731902
545 2 0.247619 0.275022 0.745843
755 2 0.0980399 0.389704 0.711584
756 4 0.0637867 0.400979 0.711384
1456 4 0.0841514 0.495673 0.742607
757 4 0.132293 0.378429 0.711783
260 2 0.237331 0.408378 0.743739
261 4 0.266339 0.389885 0.732923
264 4 0.374828 0.402936 0.646002
265 4 0.425574 0.441829 0.679377
263 2 0.400201 0.422382 0.66269
1478 2 0.487318 0.454177 0.683472
1479 4 0.453731 0.441496 0.680073
1474 4 0.0443903 0.0707975 0.847891
355 4 0.169106 0.0730481 0.854845
910 4 0.151258 0.0543717 0.839171
908 2 0.169557 0.0261101 0.85209
353 2 0.157687 0.106422 0.862341
47 3 0.284499 0.999319 0.780986
50 3 0.312595 0.0411736 0.762111
48 3 0.258789 0.0393512 0.755006
46 1 0.284094 0.032063 0.775658
49 3 0.279835 0.0477326 0.80492
102 3 0.388504 0.123044 0.767002
792 4 0.158797 0.164822 0.857889
791 2 0.182311 0.180962 0.83582
38 3 0.231102 0.207498 0.820751
793 4 0.205826 0.197102 0.813752
36 1 0.257176 0.214477 0.840534
37 3 0.279341 0.189908 0.838131
40 3 0.271184 0.242646 0.831094
1236 4 0.418093 0.131402 0.820626
105 3 0.42999 0.13958 0.79705
1169 2 0.375022 0.224981 0.800224
1170 4 0.390999 0.201299 0.778215
101 1 0.40828 0.148704 0.774153
104 3 0.389532 0.173948 0.785608
1235 2 0.417026 0.146758 0.853238
478 4 0.101676 0.257996 0.85633
1490 2 0.0290259 0.296272 0.767178
1491 4 0.0625904 0.284647 0.773399
476 2 0.0821443 0.262801 0.826399
477 4 0.0626129 0.267606 0.796468
1516 4 0.119108 0.349037 0.842698
1514 2 0.0892843 0.356486 0.861552
1125 4 0.136509 0.354704 0.820497
429 4 0.167785 0.289676 0.773199
1126 4 0.179308 0.315436 0.777742
1124 2 0.157908 0.33507 0.799119
547 4 0.245689 0.282307 0.781109
1186 4 0.363187 0.275912 0.827049
1171 4 0.359046 0.248663 0.822232
1184 2 0.36559 0.311271 0.833713
253 4 0.356308 0.364725 0.820964
1185 4 0.367992 0.34663 0.840378
1218 4 0.44762 0.340141 0.868308
1454 2 0.110866 0.485146 0.764423
388 4 0.0129327 0.472237 0.83804
1042 4 0.0466871 0.393337 0.880444
516 4 0.209148 0.416714 0.780649
1455 4 0.137581 0.474619 0.786239
515 2 0.18038 0.435856 0.790964
517 4 0.151612 0.454999 0.801279
262 4 0.208323 0.42687 0.754555
252 4 0.327721 0.43091 0.81893
1273 4 0.331208 0.46202 0.825365
1271 2 0.351088 0.47111 0.854046
251 2 0.342014 0.397817 0.819947
1217 2 0.44252 0.375198 0.861567
1219 4 0.437419 0.410255 0.854826
1251 4 0.444002 0.493756 0.833108
1252 4 0.459437 0.428375 0.859353
1250 2 0.45172 0.461066 0.84623
1473 4 0.0338859 0.0770099 0.918974
1472 2 0.0391381 0.0739037 0.883433
1254 4 0.0924715 0.0177871 0.964244
606 4 0.00539813 0.0814222 0.926586
1253 2 0.116915 0.038713 0.980525
506 2 0.0941197 0.118935 0.926976
508 4 0.124636 0.101687 0.918508
1255 4 0.141358 0.0596389 0.996807
83 3 0.326713 0.0135526 0.90645
574 4 0.355441 0.0181365 0.907135
572 2 0.369215 0.0503565 0.915655
339 4 0.312741 0.0939302 0.943248
573 4 0.382989 0.0825766 0.924174
114 3 0.427818 0.074071 0.954452
113 3 0.40616 0.10621 0.993214
111 1 0.412023 0.102963 0.960427
112 3 0.383028 0.102869 0.944304
115 3 0.430253 0.128116 0.949757
1500 4 0.0917295 0.242685 0.87882
507 4 0.0636033 0.136183 0.935443
64 3 0.0396193 0.147007 0.92636
65 3 0.0200025 0.19521 0.910849
61 1 0.0213185 0.173505 0.935466
1501 4 0.0464465 0.201215 0.916654
1499 2 0.069088 0.22195 0.897737
63 3 0.0346632 0.187822 0.962611
39 3 0.247066 0.216852 0.872348
354 4 0.146268 0.139797 0.869838
323 2 0.238152 0.139257 0.976166
1089 4 0.250625 0.223959 0.900889
338 2 0.328031 0.126351 0.947188
1090 4 0.275541 0.165004 0.934135
324 4 0.263291 0.14478 0.950907
1088 2 0.263083 0.194481 0.917512
1039 4 0.362402 0.179605 0.957715
340 4 0.343321 0.158773 0.951128
1037 2 0.341567 0.197818 0.980837
1237 4 0.41596 0.162113 0.885849
1244 2 0.407323 0.222879 0.906108
1246 4 0.412114 0.190754 0.89044
1515 4 0.0594602 0.363935 0.880406
385 4 0.327266 0.299963 0.94369
383 2 0.350417 0.27554 0.93073
384 4 0.373569 0.251118 0.917769
15 3 0.458024 0.317209 0.881979
1245 4 0.402533 0.255004 0.921776
321 4 0.459348 0.364149 0.914047
554 2 0.496842 0.287797 0.977908
11 1 0.451311 0.300599 0.909509
13 3 0.440547 0.269828 0.901942
12 3 0.478894 0.298122 0.927778
14 3 0.428014 0.316815 0.927235
1041 4 0.0554278 0.459067 0.908815
68 3 0.0358962 0.38638 0.991326
618 4 0.0448135 0.485887 0.904284
1040 2 0.0510575 0.426202 0.89463
895 4 0.0239513 0.402446 0.970251
67 3 0.0896425 0.384295 0.998069
1272 4 0.370968 0.4802 0.882727
378 4 0.360342 0.487853 0.909021
320 2 0.48847 0.381339 0.926571
652 4 0.0275535 0.521124 0.0600501
650 2 0.0259069 0.524075 0.095953
1414 4 0.0348264 0.543102 0.0412056
1412 2 0.0123492 0.554915 0.0155995
292 4 0.365372 0.619196 0.00298967
1402 4 0.423415 0.577186 0.0664214
1400 2 0.427229 0.612639 0.0610408
1034 2 0.496505 0.599258 0.122205
653 2 0.0265401 0.700423 0.102804
654 4 0.05932 0.693287 0.0895757
664 4 0.0850745 0.701781 0.0830742
662 2 0.10174 0.722043 0.0583325
663 4 0.118406 0.742305 0.0335908
389 2 0.358206 0.653274 0.0532824
870 4 0.348262 0.680979 0.106359
390 4 0.362787 0.668203 0.0857876
391 4 0.353626 0.638345 0.0207773
474 4 0.496293 0.701983 0.0107102
190 3 0.486187 0.686124 0.0907643
1401 4 0.431043 0.648092 0.0556603
187 3 0.454206 0.665068 0.0529322
186 1 0.484605 0.67671 0.0593361
189 3 0.490641 0.702812 0.0392809
80 3 0.097844 0.753897 0.0167486
78 3 0.113072 0.806012 0.0157615
828 4 0.191056 0.802725 0.0466726
1198 4 0.215237 0.818894 0.0512344
1196 2 0.212174 0.828761 0.0857845
827 2 0.193705 0.781815 0.0174119
1197 4 0.209111 0.838627 0.120335
795 4 0.335411 0.780158 0.0334438
794 2 0.338964 0.810871 0.0148836
731 2 0.439046 0.753157 0.114607
732 4 0.412825 0.756711 0.0901072
849 4 0.299953 0.991647 0.015362
959 2 0.431019 0.985888 0.119727
1357 4 0.482064 0.961752 0.0434203
1355 2 0.49887 0.993045 0.0496428
651 4 0.0242602 0.527026 0.131856
1298 2 0.0315798 0.528145 0.244642
375 4 0.0644635 0.562177 0.25075
899 2 0.159906 0.621409 0.227632
901 4 0.165417 0.587895 0.239751
267 4 0.447884 0.567249 0.148448
266 2 0.451355 0.533128 0.137303
1035 4 0.47546 0.573945 0.13693
1337 2 0.0247388 0.663721 0.20405
1338 4 0.0602074 0.666626 0.198221
1227 4 0.0707305 0.701814 0.215704
195 3 0.113119 0.680806 0.155462
1226 2 0.0608771 0.718579 0.246073
192 3 0.0830296 0.682084 0.200075
191 1 0.11403 0.68116 0.188293
193 3 0.130474 0.708281 0.198969
194 3 0.129079 0.653489 0.199597
900 4 0.154394 0.654923 0.215513
1182 4 0.205438 0.70662 0.228271
1181 2 0.209738 0.739346 0.213746
753 4 0.233581 0.703237 0.222939
752 2 0.251656 0.678992 0.242584
869 2 0.353591 0.706463 0.131311
726 4 0.341592 0.739269 0.175326
871 4 0.35892 0.731947 0.156263
725 2 0.324765 0.7249 0.203802
727 4 0.307938 0.710532 0.232277
688 4 0.457035 0.700811 0.221189
686 2 0.46719 0.718582 0.191498
687 4 0.477345 0.736353 0.161808
314 2 0.404942 0.6859 0.237146
315 4 0.43188 0.68852 0.213315
733 4 0.465268 0.749603 0.139107
404 2 0.0286142 0.81315 0.168792
405 4 0.0634678 0.813425 0.178043
969 4 0.0851541 0.821527 0.194209
968 2 0.112767 0.804899 0.178039
95 3 0.208849 0.814093 0.139097
1183 4 0.214038 0.772072 0.199222
94 3 0.204969 0.770545 0.171306
970 4 0.14038 0.788271 0.161869
92 3 0.163109 0.804547 0.16582
91 1 0.196201 0.802571 0.167135
93 3 0.207114 0.820859 0.192949
699 4 0.218219 0.798024 0.211176
698 2 0.22706 0.819779 0.238545
1242 4 0.070451 0.885668 0.221477
1241 2 0.0986097 0.897077 0.202051
1243 4 0.126768 0.908486 0.182625
494 2 0.205278 0.996772 0.143465
90 3 0.150453 0.925811 0.183653
88 3 0.196071 0.954537 0.177121
86 1 0.168143 0.950958 0.195208
495 4 0.196673 0.96238 0.150068
89 3 0.175931 0.945639 0.227317
87 3 0.150277 0.978824 0.192979
483 4 0.169776 0.969943 0.241042
658 4 0.390139 0.988183 0.227726
960 4 0.414307 0.958234 0.135741
656 2 0.398967 0.980364 0.193647
657 4 0.407795 0.972545 0.159568
1300 4 0.0405686 0.557196 0.264024
376 4 0.0977429 0.616263 0.284939
374 2 0.0811032 0.58922 0.267845
382 4 0.0948722 0.598807 0.307832
380 2 0.0951045 0.598302 0.343889
811 4 0.168478 0.577263 0.266473
809 2 0.20281 0.572798 0.276564
810 4 0.237142 0.568333 0.286656
345 4 0.231198 0.546183 0.305207
344 2 0.264566 0.541529 0.318066
346 4 0.297934 0.536876 0.330925
642 4 0.317737 0.516012 0.336564
641 2 0.320902 0.519846 0.372281
1228 4 0.0510238 0.735344 0.276442
696 4 0.0644165 0.732914 0.301468
1426 4 0.29565 0.641672 0.258364
1313 2 0.376494 0.637797 0.350253
754 4 0.269731 0.654747 0.262229
1425 4 0.365683 0.656604 0.266978
1424 2 0.330666 0.649138 0.262671
1323 4 0.324895 0.666062 0.36643
1314 4 0.340998 0.644086 0.351234
765 4 0.362274 0.747528 0.275
316 4 0.378004 0.683281 0.260977
1315 4 0.411989 0.631507 0.349271
1573 4 0.417348 0.653492 0.366448
1475 2 0.0253525 0.844775 0.266193
1477 4 0.0525723 0.849525 0.289365
1129 4 0.077142 0.867311 0.289873
695 2 0.0851042 0.757321 0.318104
697 4 0.105792 0.781729 0.33474
570 4 0.128252 0.794092 0.345864
569 2 0.151679 0.814105 0.364602
700 4 0.2359 0.841534 0.265913
1387 4 0.258758 0.84195 0.37001
1311 4 0.261157 0.849282 0.280136
1310 2 0.262211 0.85558 0.315628
1312 4 0.263264 0.861878 0.35112
766 4 0.409304 0.802051 0.270855
742 4 0.415093 0.829751 0.268637
764 2 0.385789 0.77479 0.272928
740 2 0.421408 0.85794 0.290223
1127 2 0.0781592 0.902818 0.283656
1598 2 0.0617803 0.977992 0.266742
1599 4 0.0511667 0.943956 0.27216
1128 4 0.0791765 0.938325 0.277439
482 2 0.178192 0.986347 0.272034
529 4 0.145767 0.918265 0.342629
527 2 0.153897 0.903899 0.37469
1077 4 0.469882 0.960909 0.278404
1076 2 0.455843 0.928044 0.283226
741 4 0.427722 0.886129 0.311809
1078 4 0.441804 0.895179 0.288048
381 4 0.0953367 0.597797 0.379947
1225 4 0.0124804 0.543894 0.481971
1535 2 0.0799701 0.602906 0.428409
1536 4 0.0881812 0.580563 0.40132
1537 4 0.0717591 0.625249 0.455498
232 3 0.0782086 0.554691 0.486114
643 4 0.324067 0.52368 0.407998
544 4 0.282115 0.499047 0.499567
661 4 0.500879 0.610715 0.48652
914 2 0.40961 0.608599 0.489582
915 4 0.433554 0.597452 0.465029
775 4 0.0659019 0.648251 0.472718
773 2 0.0304943 0.64779 0.479539
1322 2 0.29628 0.684957 0.377592
1324 4 0.267665 0.703853 0.388753
450 4 0.259554 0.729979 0.391679
449 2 0.262894 0.741718 0.425612
97 3 0.274005 0.737641 0.482096
98 3 0.287466 0.686002 0.491617
99 3 0.324455 0.72593 0.4981
1571 2 0.449265 0.652623 0.38321
601 4 0.481115 0.641737 0.425858
1572 4 0.481182 0.651755 0.399973
25 3 0.477267 0.728533 0.466361
21 1 0.495353 0.702636 0.475367
24 3 0.485096 0.675302 0.459009
571 4 0.175106 0.834118 0.38334
1385 2 0.227358 0.830314 0.383392
34 3 0.155833 0.846318 0.457367
35 3 0.207521 0.857709 0.469511
32 3 0.195969 0.83036 0.424611
31 1 0.185857 0.854469 0.445036
1386 4 0.195958 0.818678 0.396775
451 4 0.266234 0.753457 0.459546
776 2 0.358808 0.859414 0.473814
778 4 0.364508 0.825987 0.461544
447 4 0.374845 0.814888 0.436255
446 2 0.395011 0.785905 0.428925
939 4 0.495116 0.865272 0.397085
448 4 0.415177 0.756922 0.421594
925 4 0.0180597 0.949703 0.400335
846 4 0.21954 0.952043 0.445436
33 3 0.183744 0.883075 0.427796
845 2 0.226906 0.94385 0.479774
528 4 0.162028 0.889532 0.406752
1440 4 0.332765 0.900516 0.504145
777 4 0.353108 0.892842 0.486084
233 3 0.0720704 0.548866 0.539658
857 2 0.0387206 0.52222 0.612776
231 1 0.0580589 0.560869 0.511737
235 3 0.0291272 0.546218 0.506525
234 3 0.0537875 0.593953 0.514409
543 4 0.243741 0.553467 0.527274
1156 4 0.250506 0.564395 0.554185
542 2 0.262928 0.526257 0.513421
1154 2 0.273937 0.574344 0.579729
1155 4 0.297367 0.584293 0.605272
916 4 0.385665 0.619746 0.514135
1511 2 0.248122 0.722671 0.58294
1513 4 0.225116 0.731712 0.609197
1512 4 0.271128 0.71363 0.556684
100 3 0.282795 0.721295 0.532623
1321 4 0.306921 0.688676 0.563871
1319 2 0.325904 0.695089 0.593853
1320 4 0.344886 0.701502 0.623836
594 4 0.370932 0.695465 0.617475
524 2 0.331751 0.646288 0.513651
526 4 0.355811 0.619929 0.518828
96 1 0.29219 0.717667 0.501359
525 4 0.307692 0.672647 0.508475
22 3 0.491764 0.697606 0.507963
421 4 0.0991 0.861589 0.571773
419 2 0.0645301 0.861837 0.561512
690 4 0.10814 0.856565 0.600688
420 4 0.0299601 0.862085 0.55125
868 4 0.22773 0.759506 0.607532
1453 4 0.410434 0.864146 0.619718
1545 4 0.0520763 0.975159 0.527528
118 3 0.0116643 0.884184 0.546383
1544 2 0.0277323 0.997348 0.51285
521 2 0.168671 0.973439 0.566729
522 4 0.161223 0.940132 0.555085
847 4 0.234272 0.935657 0.514111
1441 4 0.32177 0.954623 0.550549
1439 2 0.327268 0.927569 0.527347
51 1 0.325404 0.994388 0.587263
52 3 0.342557 0.980845 0.612224
53 3 0.3344 0.979546 0.558649
54 3 0.292733 0.989694 0.592788
862 4 0.494691 0.980358 0.571599
1451 2 0.441591 0.880093 0.611035
861 4 0.461224 0.92257 0.598844
1452 4 0.472748 0.896039 0.602352
860 2 0.477957 0.951464 0.585222
248 3 0.0251893 0.59374 0.674815
858 4 0.0395197 0.551979 0.633128
993 4 0.246753 0.555151 0.735799
593 2 0.401057 0.677801 0.626474
595 4 0.431181 0.660138 0.635472
770 2 0.451377 0.724418 0.721334
772 4 0.46775 0.694191 0.710442
689 2 0.1055 0.852303 0.6364
109 3 0.11574 0.822551 0.676052
106 1 0.117402 0.802613 0.702878
107 3 0.0879114 0.802603 0.718077
691 4 0.102861 0.848041 0.672111
108 3 0.124719 0.77135 0.693441
110 3 0.140287 0.813689 0.723674
684 4 0.169565 0.808984 0.723796
867 4 0.241375 0.781688 0.674789
685 4 0.229886 0.776679 0.701005
683 2 0.199726 0.792831 0.712401
866 2 0.234552 0.770597 0.641161
890 2 0.352231 0.850828 0.632314
891 4 0.320335 0.835318 0.638835
892 4 0.384127 0.866338 0.625793
771 4 0.435004 0.754646 0.732226
856 4 0.438513 0.776508 0.752602
427 4 0.0125859 0.991225 0.635209
1204 4 0.0124105 0.962519 0.631958
620 2 0.206821 0.890192 0.728276
622 4 0.188101 0.91255 0.70706
989 2 0.135321 0.973444 0.746429
1297 4 0.303563 0.999266 0.652876
1295 2 0.318625 0.968193 0.663268
1296 4 0.333688 0.937119 0.673661
1590 4 0.360339 0.926103 0.681385
804 4 0.480319 0.989571 0.731836
803 2 0.467721 0.972653 0.702587
805 4 0.455123 0.955735 0.673338
1591 4 0.427536 0.947923 0.666885
1589 2 0.393938 0.937013 0.674135
906 4 0.0977566 0.612088 0.788652
514 4 0.998633 0.597794 0.873882
905 2 0.0756318 0.583654 0.790222
907 4 0.053507 0.555221 0.791793
436 4 0.11936 0.606982 0.805827
434 2 0.143118 0.601375 0.832371
1277 2 0.217883 0.572632 0.842197
435 4 0.166876 0.595767 0.858914
1279 4 0.190782 0.578996 0.865121
1278 4 0.244984 0.566267 0.819274
994 4 0.267827 0.567675 0.803629
992 2 0.25729 0.561413 0.769714
801 4 0.487672 0.586485 0.864632
800 2 0.457798 0.599219 0.848952
802 4 0.427925 0.611953 0.833272
213 3 0.00829611 0.726933 0.751142
211 1 0.00838746 0.745978 0.77866
214 3 0.0133653 0.726929 0.805721
1275 4 0.0129172 0.738226 0.831814
208 3 0.324564 0.705632 0.820112
206 1 0.354593 0.714661 0.808421
209 3 0.372049 0.68751 0.799586
210 3 0.370951 0.731521 0.831378
789 4 0.370793 0.660549 0.817302
207 3 0.350369 0.733861 0.781696
788 2 0.390782 0.657126 0.847121
790 4 0.410771 0.653702 0.87694
212 3 0.03308 0.768017 0.776368
1555 4 0.0585747 0.775821 0.782744
1553 2 0.0792731 0.803712 0.773041
1554 4 0.0999716 0.831602 0.763337
73 3 0.0451299 0.834677 0.865242
562 4 0.120038 0.845502 0.748251
621 4 0.225542 0.867835 0.749492
649 4 0.363449 0.82698 0.820871
714 4 0.356475 0.798815 0.823534
647 2 0.351932 0.846326 0.792701
713 2 0.328418 0.783231 0.839977
715 4 0.300361 0.767646 0.85642
648 4 0.340414 0.865671 0.764532
855 4 0.369524 0.767556 0.771633
1524 4 0.489872 0.832978 0.833617
854 2 0.404018 0.772032 0.762118
787 4 0.391037 0.828929 0.810799
785 2 0.426223 0.832785 0.817693
786 4 0.461408 0.836642 0.824588
909 4 0.187855 0.997849 0.865009
560 2 0.128801 0.879367 0.757016
561 4 0.137564 0.913232 0.765781
991 4 0.133127 0.942222 0.76434
834 4 0.27155 0.989251 0.861904
619 4 0.0759947 0.533946 0.948099
431 2 0.0897011 0.587883 0.963974
433 4 0.0973004 0.554591 0.952384
617 2 0.0604041 0.509916 0.926191
512 2 0.026235 0.618445 0.884471
432 4 0.0821018 0.621175 0.975564
328 4 0.191234 0.547981 0.962913
326 2 0.20631 0.523095 0.984216
631 4 0.204655 0.565377 0.981713
629 2 0.202323 0.601264 0.984375
422 2 0.275369 0.618766 0.918605
377 2 0.352295 0.522187 0.916562
423 4 0.304306 0.600953 0.930678
291 4 0.33059 0.60236 0.942092
290 2 0.347981 0.610778 0.972541
1180 4 0.367185 0.57408 0.927273
379 4 0.344249 0.556521 0.924103
1178 2 0.395377 0.59022 0.911617
1179 4 0.42357 0.60636 0.895961
513 4 0.0538365 0.639097 0.895059
639 4 0.106294 0.639101 0.977667
638 2 0.124977 0.65943 0.954469
626 2 0.183238 0.722635 0.946094
640 4 0.14366 0.679758 0.931271
627 4 0.161088 0.702732 0.925755
628 4 0.205388 0.742539 0.966433
630 4 0.199992 0.637152 0.987038
424 4 0.246432 0.636579 0.906531
79 3 0.0725254 0.78842 0.983342
72 3 0.0323937 0.805995 0.909442
1503 4 0.0569686 0.766218 0.974271
1504 4 0.0130265 0.788753 0.921706
76 1 0.101693 0.780307 0.997604
1502 2 0.0349976 0.777485 0.947988
71 1 0.0254648 0.83354 0.892296
75 3 0.0309861 0.859773 0.911275
77 3 0.123731 0.773417 0.973781
852 4 0.22258 0.7844 0.903769
829 4 0.196353 0.760904 0.988151
853 4 0.287258 0.761777 0.881259
692 2 0.353455 0.860259 0.953923
851 2 0.254919 0.773089 0.892514
796 4 0.342517 0.841585 0.996323
694 4 0.325811 0.845978 0.972153
1332 4 0.406082 0.861762 0.947064
1331 2 0.440385 0.855895 0.956514
1333 4 0.474689 0.850028 0.965964
682 4 0.471712 0.863301 0.991595
799 4 0.0498567 0.937625 0.962775
736 4 0.0770441 0.931499 0.96864
735 4 0.0930499 0.999809 0.985353
797 2 0.0400632 0.913175 0.938144
734 2 0.085047 0.965654 0.976997
798 4 0.0302697 0.888725 0.913512
835 4 0.203891 0.993 0.886602
833 2 0.237721 0.991126 0.874253
82 3 0.338286 0.960702 0.903077
85 3 0.296521 0.976967 0.932886
850 4 0.288244 0.00297961 0.945104
848 2 0.294099 0.997313 0.980233
81 1 0.313625 0.982769 0.905451
84 3 0.293729 0.979675 0.878721
693 4 0.381099 0.874539 0.935694
1234 4 0.58014 0.0991746 0.0675244
1232 2 0.560745 0.0824569 0.0929171
532 4 0.600887 0.113354 0.0537508
1356 4 0.515677 0.0243384 0.0558654
1233 4 0.54135 0.0657392 0.11831
530 2 0.629261 0.093599 0.0434998
531 4 0.657635 0.0738436 0.0332488
134 3 0.684057 0.067684 0.0233933
135 3 0.715513 0.0617186 0.0672543
131 1 0.715136 0.0619722 0.0344117
132 3 0.725256 0.0324563 0.0231389
133 3 0.735851 0.0856181 0.0229368
1377 4 0.741364 0.0395283 0.999345
585 4 0.865277 0.0209557 0.108224
1280 2 0.531569 0.14699 0.0283326
1282 4 0.518521 0.143831 0.0618019
60 3 0.988517 0.202621 0.00281994
1074 4 0.624453 0.378683 0.110668
1052 2 0.711455 0.306814 0.0409298
178 3 0.747244 0.362093 0.0957655
1053 4 0.743153 0.298093 0.0557498
1054 4 0.679758 0.315536 0.0261097
1269 4 0.656547 0.314542 0.00836677
1267 4 0.86836 0.251706 0.105138
177 3 0.760842 0.317753 0.0677025
176 1 0.763556 0.332902 0.0970932
180 3 0.795309 0.338099 0.103694
179 3 0.750053 0.313329 0.120641
1095 4 0.82322 0.349247 0.0944523
125 3 0.520426 0.487005 0.0500047
121 1 0.538518 0.493574 0.0233894
942 4 0.509911 0.465114 0.068336
122 3 0.533448 0.469971 0.000632354
1326 4 0.596992 0.4935 0.01996
123 3 0.570988 0.494009 0.0314772
1045 4 0.737843 0.389156 0.091118
1325 2 0.62858 0.482096 0.00682268
1043 2 0.714798 0.402601 0.11538
1391 2 0.849386 0.473354 0.0528785
1393 4 0.82404 0.453868 0.0695611
1094 2 0.829293 0.377439 0.116102
1392 4 0.874733 0.49284 0.036196
1008 4 0.893364 0.471543 0.026854
1009 4 0.958643 0.467099 0.057198
1007 2 0.926003 0.469321 0.042026
1422 4 0.986145 0.472931 0.0539994
1382 2 0.633208 0.0188918 0.160766
1383 4 0.646322 0.0408534 0.186185
635 2 0.657535 0.055404 0.246995
636 4 0.656822 0.0487827 0.211554
342 4 0.846394 0.0254655 0.129485
341 2 0.860367 0.0558569 0.142959
343 4 0.874341 0.0862482 0.156433
711 4 0.566203 0.199093 0.146499
710 2 0.541082 0.176029 0.158222
1130 2 0.572989 0.228027 0.214423
1132 4 0.540453 0.212556 0.216007
712 4 0.515962 0.152964 0.169945
1131 4 0.605525 0.243497 0.212838
1000 4 0.506379 0.138437 0.194009
164 3 0.542672 0.210467 0.24511
319 4 0.690842 0.229571 0.160401
317 2 0.660816 0.232561 0.180149
1048 4 0.710125 0.244605 0.17353
318 4 0.63079 0.235551 0.199896
147 3 0.83088 0.220244 0.236881
146 1 0.838353 0.194789 0.21696
149 3 0.812098 0.174085 0.215551
148 3 0.864919 0.178717 0.229445
150 3 0.845248 0.206204 0.186943
1266 4 0.85642 0.230616 0.173068