ITEM: TIMESTEP
3590000
ITEM: NUMBER OF ATOMS
4800
ITEM: BOX BOUNDS pp pp pp
-9.9985700000000008e+00 9.9985700000000008e+00
-9.9985700000000008e+00 9.9985700000000008e+00
-9.9985700000000008e+00 9.9985700000000008e+00
ITEM: ATOMS id type xs ys zs
43 3 0.0537922 0.0496195 0.0569154
1841 4 0.0504858 0.0586625 0.039389
1840 2 0.0322605 0.0753594 0.0431614
41 1 0.0617191 0.0308615 0.0680377
45 3 0.0739925 0.0179977 0.0538063
42 3 0.0438045 0.0186601 0.0757413
817 2 0.249501 0.0186205 0.0241122
818 4 0.24575 0.030652 0.0457074
1184 4 0.252631 0.0418558 0.0610793
1183 2 0.269789 0.0559217 0.0726081
2640 4 0.359875 0.050842 0.994639
2839 2 0.442842 0.0192236 0.0451275
2841 4 0.435126 0.0418047 0.0525932
1941 4 0.432179 0.0620479 0.0557941
1939 2 0.44551 0.0798334 0.0443429
1842 4 0.0140352 0.0920563 0.0469338
1669 2 0.0817614 0.158119 0.033588
1671 4 0.0645525 0.166814 0.0176683
3536 4 0.112644 0.13678 0.0594253
1670 4 0.0989703 0.149425 0.0495076
3535 2 0.0980322 0.123542 0.0748014
1149 4 0.151523 0.166939 0.00531084
1327 2 0.222578 0.161629 0.0112286
1740 4 0.248905 0.155489 0.0420584
1329 4 0.238846 0.167672 0.0292291
982 2 0.200962 0.164468 0.0836789
1738 2 0.252556 0.154894 0.0667869
2226 4 0.402904 0.149683 0.0223045
1940 4 0.458841 0.0976189 0.0328917
1423 2 0.475042 0.124128 0.0303495
1424 4 0.479081 0.0995214 0.0321876
1425 4 0.471004 0.148735 0.0285115
2225 4 0.452775 0.153093 0.020892
2224 2 0.427839 0.151388 0.0215982
297 3 0.171349 0.170951 0.0125349
300 3 0.147671 0.171467 0.041379
298 3 0.184524 0.176401 0.047311
296 1 0.166781 0.180536 0.0329409
299 3 0.164089 0.203402 0.0300538
1031 4 0.163421 0.183535 0.0734127
983 4 0.198341 0.189332 0.0834355
775 2 0.32199 0.213782 0.0593058
777 4 0.296991 0.213342 0.0590786
776 4 0.346988 0.214222 0.0595331
799 2 0.374917 0.21463 0.0283455
801 4 0.36409 0.208827 0.0501234
800 4 0.385745 0.220432 0.0065676
1081 2 0.367341 0.239023 0.0843904
851 4 0.395025 0.237608 0.00532672
3599 4 0.441014 0.244715 0.0685333
1242 4 0.452278 0.241342 0.0113754
3598 2 0.453661 0.245039 0.0469667
3411 4 0.493688 0.238968 0.068268
3640 2 0.063284 0.313701 0.0220258
3641 4 0.0592624 0.294371 0.0373679
808 2 0.00858274 0.28508 0.0759497
865 2 0.0812422 0.287802 0.0697281
866 4 0.10492 0.287337 0.0617079
1373 4 0.119767 0.294237 0.0717983
1372 2 0.130855 0.314576 0.0812072
825 4 0.165634 0.325066 0.0360184
1221 4 0.228875 0.284804 0.0385706
939 4 0.209738 0.291419 0.0427362
937 2 0.195974 0.309487 0.032284
1219 2 0.247449 0.272282 0.04968
938 4 0.182209 0.327556 0.0218319
2741 4 0.237263 0.309895 0.00545723
1413 4 0.28246 0.269401 0.0653347
1412 4 0.331536 0.26338 0.0728184
1220 4 0.266022 0.259761 0.0607895
1411 2 0.306998 0.26639 0.0690765
1082 4 0.345245 0.250152 0.0807719
3600 4 0.466309 0.245364 0.0254001
69 3 0.433847 0.260336 0.0795301
3642 4 0.0673055 0.33303 0.00668371
823 2 0.151673 0.342539 0.0248383
824 4 0.137712 0.360011 0.0136581
3312 4 0.118044 0.363584 0.012211
2740 2 0.247235 0.327597 0.02003
15 3 0.228596 0.382776 0.0623807
13 3 0.19355 0.396535 0.0620079
11 1 0.212903 0.393933 0.0745419
2742 4 0.257207 0.3453 0.0346027
1914 4 0.283111 0.337516 0.072771
1508 4 0.30266 0.33559 0.0773826
1507 2 0.322631 0.350505 0.0754048
1509 4 0.342601 0.365419 0.073427
879 4 0.339626 0.383118 0.0820722
1118 4 0.389307 0.374237 0.023325
1117 2 0.375019 0.391187 0.0348904
1710 4 0.374433 0.363944 0.0114635
1119 4 0.360731 0.408136 0.0464558
1785 4 0.186098 0.462595 0.0916696
2488 2 0.278258 0.486667 0.0613634
2489 4 0.277693 0.471924 0.0411767
789 4 0.286418 0.469802 0.0232183
787 2 0.302388 0.450706 0.0208728
2490 4 0.278822 0.50141 0.08155
788 4 0.318357 0.43161 0.0185274
44 3 0.0747481 0.0372952 0.086128
3035 4 0.0250663 0.0410312 0.147147
2144 4 0.0176503 0.0235136 0.157036
1127 4 0.0902091 0.0483159 0.0907361
1126 2 0.0940499 0.0729235 0.0929485
1439 4 0.181211 0.0303612 0.0907194
1440 4 0.173659 0.073502 0.114856
1438 2 0.177435 0.0519316 0.102788
3590 4 0.183848 0.0136349 0.100265
894 4 0.255253 0.0213195 0.161587
1185 4 0.286948 0.0699875 0.0841368
1458 4 0.305513 0.0751221 0.0923364
1456 2 0.311757 0.0743098 0.116534
1936 2 0.268253 0.0496022 0.159994
1457 4 0.318001 0.0734975 0.140732
1937 4 0.256922 0.032777 0.145376
2180 4 0.018499 0.101175 0.159594
3537 4 0.0834206 0.110303 0.0901774
1128 4 0.0978908 0.097531 0.0951609
1716 4 0.176044 0.0947959 0.119887
1715 4 0.197722 0.136443 0.102673
1714 2 0.186883 0.115619 0.11128
984 4 0.203583 0.139603 0.0839223
1739 4 0.256206 0.154298 0.0915154
905 4 0.27136 0.166843 0.0952002
1207 2 0.356213 0.125987 0.128315
1208 4 0.362557 0.107161 0.143497
3300 4 0.378333 0.0959168 0.136186
3298 2 0.402898 0.0936442 0.132115
1209 4 0.349868 0.144813 0.113133
3205 2 0.455163 0.0888359 0.153874
3299 4 0.427463 0.0913717 0.128044
3206 4 0.438672 0.10214 0.140599
1197 4 0.0667301 0.198921 0.114153
1195 2 0.0483606 0.208366 0.128243
845 4 0.0122055 0.228293 0.143797
1196 4 0.0299911 0.217812 0.142333
803 4 0.0839897 0.189329 0.111013
1030 2 0.154834 0.199764 0.0903841
1032 4 0.146246 0.215994 0.107355
804 4 0.125663 0.216526 0.106078
802 2 0.104826 0.202927 0.108546
904 2 0.291951 0.174959 0.106834
906 4 0.312541 0.183075 0.118468
1152 4 0.327064 0.172765 0.128153
1150 2 0.347801 0.179447 0.14042
70 3 0.403488 0.240745 0.0901203
1083 4 0.389438 0.227895 0.0880088
1151 4 0.368538 0.18613 0.152687
3294 4 0.482228 0.200665 0.137779
1862 4 0.488835 0.219257 0.141927
1861 2 0.4716 0.228936 0.126614
67 3 0.435217 0.237752 0.109542
1863 4 0.454366 0.238614 0.111301
867 4 0.0575644 0.288267 0.0777483
810 4 0.0195301 0.267458 0.0899073
963 4 0.237415 0.324326 0.122124
1913 4 0.243968 0.327221 0.102141
1010 4 0.298548 0.314401 0.148071
1912 2 0.263539 0.332368 0.087456
1009 2 0.322734 0.317972 0.142832
1011 4 0.34692 0.321544 0.137593
68 3 0.415229 0.26953 0.111362
66 1 0.421792 0.252075 0.097553
754 2 0.483066 0.286711 0.126855
3271 2 0.432794 0.312842 0.130399
3272 4 0.449549 0.29571 0.123263
756 4 0.459481 0.279136 0.123459
3273 4 0.416039 0.329974 0.137536
3992 4 0.0328875 0.404313 0.153283
1992 4 0.0493551 0.396567 0.149431
1990 2 0.066143 0.388296 0.132849
1374 4 0.141944 0.334916 0.0906162
1991 4 0.082931 0.380026 0.116268
4224 4 0.103681 0.381785 0.119855
4222 2 0.120659 0.367665 0.108127
4223 4 0.137637 0.353545 0.0963999
1043 4 0.109165 0.342883 0.170293
1047 4 0.0898601 0.349189 0.166737
12 3 0.207943 0.38181 0.0934515
961 2 0.221981 0.343947 0.123533
14 3 0.221089 0.4147 0.0808779
829 2 0.197473 0.384038 0.163912
830 4 0.202894 0.369847 0.144053
962 4 0.206547 0.363568 0.124942
977 4 0.271494 0.413758 0.158661
2826 4 0.359319 0.330396 0.124006
877 2 0.332225 0.403833 0.0939578
2824 2 0.382069 0.33806 0.130999
2825 4 0.404818 0.345725 0.137992
3991 2 0.0290641 0.428992 0.154493
3993 4 0.0252407 0.453672 0.155703
4076 4 0.0367975 0.465685 0.144878
4075 2 0.0473455 0.47883 0.163348
1784 4 0.182571 0.482356 0.137471
1783 2 0.184335 0.472476 0.11457
53 3 0.246835 0.483132 0.151931
4107 4 0.265096 0.424723 0.142187
4105 2 0.286959 0.425357 0.130072
4106 4 0.308822 0.425992 0.117956
878 4 0.324824 0.424549 0.105843
968 4 0.399079 0.486917 0.123188
4530 4 0.388721 0.46786 0.123709
4528 2 0.406093 0.452258 0.114768
967 2 0.401225 0.498704 0.145134
4529 4 0.423465 0.436655 0.105827
1951 2 0.48575 0.481309 0.152463
1953 4 0.499426 0.48925 0.133096
4067 4 0.510095 0.498387 0.118957
1938 4 0.279585 0.0664274 0.174612
1097 4 0.269154 0.0725255 0.190007
1246 2 0.38899 0.0472299 0.236101
1248 4 0.364967 0.0476754 0.24302
2217 4 0.353533 0.0631583 0.239314
1247 4 0.413013 0.0467844 0.229182
3207 4 0.471654 0.0755318 0.167149
4243 2 0.443186 0.0633979 0.199362
4245 4 0.427726 0.0563347 0.2177
4244 4 0.458646 0.070461 0.181025
2179 2 0.0196628 0.0931641 0.183251
2181 4 0.0208266 0.0851532 0.206908
912 4 0.0149801 0.0861496 0.227102
910 2 0.012581 0.107898 0.239204
911 4 0.0101819 0.129646 0.251305
883 2 0.0356988 0.156292 0.227218
884 4 0.0175987 0.143538 0.238833
2216 4 0.319742 0.0958522 0.222285
965 4 0.275298 0.134109 0.214595
1096 2 0.269088 0.0968 0.196001
1098 4 0.269021 0.121074 0.201994
964 2 0.274394 0.145355 0.236909
2215 2 0.336637 0.0795053 0.2308
2965 2 0.484197 0.101124 0.234095
1164 4 0.0691237 0.180445 0.209419
885 4 0.0537989 0.169045 0.215603
1251 4 0.112814 0.226509 0.196277
1249 2 0.133023 0.230956 0.210314
1162 2 0.0896023 0.194173 0.205252
1163 4 0.110081 0.2079 0.201086
1250 4 0.153231 0.235403 0.224351
19 3 0.168868 0.245119 0.234402
17 3 0.186529 0.21861 0.254352
881 4 0.0434035 0.317589 0.207597
880 2 0.0436359 0.292597 0.206862
1448 4 0.0444492 0.252952 0.219909
882 4 0.0438683 0.267605 0.206126
1447 2 0.0320394 0.250515 0.241478
900 4 0.167444 0.324213 0.201999
1044 4 0.149393 0.32356 0.192856
898 2 0.184608 0.32144 0.219968
899 4 0.201772 0.318667 0.237938
18 3 0.206219 0.24768 0.240939
1854 4 0.212716 0.312465 0.254171
1853 4 0.216412 0.262843 0.249199
1852 2 0.214564 0.287654 0.251685
1204 2 0.363175 0.307491 0.230527
1205 4 0.368998 0.302619 0.206704
927 4 0.3742 0.293948 0.189874
925 2 0.398241 0.299856 0.186371
926 4 0.422283 0.305764 0.182867
3232 2 0.00762127 0.368726 0.220358
1046 4 0.0568643 0.325118 0.195591
3233 4 0.0302904 0.35901 0.21625
1045 2 0.0733622 0.337154 0.181164
1042 2 0.129279 0.333221 0.181575
763 2 0.168779 0.41162 0.202616
831 4 0.192051 0.398229 0.183772
765 4 0.174004 0.404402 0.179254
1892 4 0.206763 0.399098 0.253534
2269 2 0.262588 0.410121 0.244116
978 4 0.266587 0.410981 0.208349
976 2 0.269041 0.412369 0.183505
2833 2 0.0755738 0.451172 0.233423
2834 4 0.0565362 0.461768 0.221156
4187 4 0.0749849 0.498994 0.189182
4077 4 0.0578936 0.491975 0.181817
2835 4 0.0946114 0.440577 0.245691
764 4 0.163553 0.418838 0.225978
860 4 0.1095 0.42758 0.251278
54 3 0.231813 0.487419 0.186577
1848 4 0.225463 0.468968 0.181395
1847 4 0.191691 0.462899 0.217773
1846 2 0.208577 0.465934 0.199584
1070 4 0.232767 0.481009 0.234574
2270 4 0.254038 0.41944 0.222547
1069 2 0.255576 0.484241 0.244295
348 3 0.284615 0.468811 0.25212
1952 4 0.472074 0.473368 0.17183
1058 4 0.443167 0.458636 0.224097
1057 2 0.466306 0.449261 0.222719
1059 4 0.489444 0.439886 0.221342
1161 4 0.156628 0.083743 0.302998
1159 2 0.166461 0.0607609 0.302445
1160 4 0.176295 0.0377789 0.301891
1827 4 0.238661 0.05782 0.312473
245 3 0.180201 0.0192002 0.295845
1079 4 0.241246 0.044467 0.299022
1078 2 0.256627 0.0568159 0.283656
1080 4 0.272008 0.0691647 0.26829
771 4 0.277893 0.0803606 0.281922
4119 4 0.457452 0.082044 0.248528
1786 2 0.445066 0.00345507 0.335397
3193 2 0.993485 0.163908 0.325291
3194 4 0.0170096 0.168936 0.33211
929 4 0.183934 0.152881 0.29444
930 4 0.165357 0.11309 0.270518
928 2 0.174645 0.132986 0.282479
1884 4 0.254495 0.162891 0.254283
769 2 0.296431 0.0943857 0.291131
770 4 0.314969 0.108411 0.300341
966 4 0.273491 0.1566 0.259222
2213 4 0.318898 0.0996533 0.317406
2966 4 0.462782 0.102223 0.246955
4117 2 0.441127 0.0907366 0.265353
4118 4 0.424801 0.0994292 0.282179
919 2 0.418868 0.124207 0.315965
921 4 0.41501 0.109965 0.29578
1449 4 0.0196296 0.248078 0.263048
1109 4 0.080229 0.189113 0.33397
1062 4 0.17735 0.164226 0.27828
1882 2 0.243645 0.180929 0.267778
16 1 0.185785 0.241142 0.249777
1061 4 0.17488 0.213498 0.2701
1060 2 0.176115 0.188862 0.27419
1883 4 0.232796 0.198967 0.281272
848 4 0.246943 0.196829 0.296447
20 3 0.181631 0.252573 0.269031
847 2 0.259224 0.214245 0.309526
849 4 0.271505 0.23166 0.322605
933 4 0.289152 0.223777 0.325472
931 2 0.312656 0.225837 0.317195
932 4 0.33616 0.227897 0.308918
3253 2 0.367255 0.237525 0.311219
3668 4 0.403198 0.213912 0.315172
3254 4 0.390658 0.2291 0.313774
3255 4 0.343853 0.245949 0.308665
3667 2 0.397476 0.191403 0.324435
3669 4 0.391754 0.168895 0.333699
435 3 0.0057084 0.261282 0.259145
924 4 0.0357155 0.300652 0.33175
1239 4 0.0472596 0.314859 0.324594
1027 2 0.13896 0.325275 0.333538
1029 4 0.127765 0.302947 0.334664
29 3 0.276217 0.316119 0.283997
28 3 0.302181 0.290064 0.274437
26 1 0.298921 0.311701 0.282157
27 3 0.308597 0.313722 0.302928
936 4 0.315494 0.30747 0.319799
980 4 0.257248 0.315838 0.281017
30 3 0.308603 0.326582 0.267892
1206 4 0.357353 0.312364 0.25435
934 2 0.33826 0.297878 0.323659
998 4 0.444794 0.259083 0.320494
999 4 0.481718 0.275417 0.290989
997 2 0.463256 0.26725 0.305741
1166 4 0.443733 0.241492 0.330381
974 4 0.0118193 0.335552 0.292423
2923 2 0.0515294 0.343368 0.274732
2924 4 0.0274232 0.341382 0.281067
2925 4 0.0756355 0.345354 0.268398
859 2 0.109526 0.402655 0.25326
861 4 0.109553 0.37773 0.255241
1028 4 0.150155 0.347604 0.332413
979 2 0.239696 0.329387 0.292573
981 4 0.222144 0.342935 0.304129
2271 4 0.271138 0.400802 0.265685
791 4 0.281044 0.383869 0.271308
790 2 0.296539 0.364675 0.26723
792 4 0.312035 0.34548 0.263152
1968 4 0.379555 0.401008 0.291042
1966 2 0.389512 0.414869 0.309315
875 4 0.102684 0.438421 0.302978
874 2 0.0995817 0.423026 0.322435
1168 2 0.136416 0.444038 0.283257
1923 4 0.150871 0.475948 0.319625
1170 4 0.111609 0.444456 0.286361
1921 2 0.167737 0.491209 0.330008
1893 4 0.172791 0.43219 0.269394
1891 2 0.189777 0.415644 0.261464
1169 4 0.161222 0.44362 0.280152
2129 4 0.290156 0.497389 0.266665
1071 4 0.278385 0.487473 0.254015
1857 4 0.290905 0.442356 0.300652
350 3 0.295252 0.450035 0.282973
346 1 0.300926 0.466663 0.268482
347 3 0.302572 0.486511 0.279993
1855 2 0.279626 0.448796 0.322017
349 3 0.321419 0.461961 0.258669
1967 4 0.39947 0.42873 0.327588
794 4 0.477008 0.434505 0.32651
795 4 0.463175 0.442719 0.279161
793 2 0.470091 0.438612 0.302836
60 3 0.0113923 0.0337484 0.384685
3073 2 0.0321052 0.0625516 0.405875
2274 4 0.0610487 0.061576 0.382876
3074 4 0.0557142 0.0555441 0.401552
2272 2 0.0764579 0.0772841 0.371002
3075 4 0.0084961 0.0695591 0.410198
759 4 0.125586 0.994545 0.36203
757 2 0.147123 0.994735 0.349331
1142 4 0.160266 0.0746119 0.343375
1825 2 0.236121 0.0603727 0.337216
1826 4 0.233581 0.0629255 0.361959
1571 4 0.239158 0.0387399 0.41352
90 3 0.251899 0.0619659 0.369716
88 3 0.253249 0.0488958 0.405001
86 1 0.262041 0.064241 0.38998
87 3 0.284584 0.0602945 0.387655
1877 4 0.344565 0.079855 0.417746
2977 2 0.375088 0.0212024 0.394978
2978 4 0.395294 0.035254 0.390568
2979 4 0.354882 0.00715082 0.399389
1788 4 0.466709 0.0151173 0.339951
3973 2 0.441982 0.00223073 0.413402
3975 4 0.459707 0.0198075 0.414836
363 3 0.476054 0.0314631 0.419353
361 1 0.479138 0.0541543 0.415611
362 3 0.479772 0.0579316 0.392929
365 3 0.461901 0.0659414 0.424699
1141 2 0.153993 0.0876813 0.363747
1076 4 0.10879 0.0983012 0.350286
2273 4 0.091867 0.0929921 0.359128
1143 4 0.14772 0.100751 0.384119
1075 2 0.107587 0.121659 0.359126
1077 4 0.106384 0.145017 0.367966
3107 4 0.156358 0.0996812 0.400105
82 3 0.116832 0.158815 0.359514
89 3 0.258987 0.0858047 0.397985
2212 2 0.328988 0.103619 0.339937
3183 4 0.271691 0.0976683 0.386843
3181 2 0.288409 0.115406 0.38127
3182 4 0.305127 0.133144 0.375697
1878 4 0.327909 0.105063 0.377898
1876 2 0.336237 0.0924591 0.397822
2214 4 0.339078 0.107585 0.362468
22 3 0.416553 0.163286 0.386205
21 1 0.426822 0.147187 0.373379
23 3 0.415143 0.144886 0.353461
25 3 0.426818 0.127435 0.384715
920 4 0.422725 0.138449 0.336151
959 4 0.420526 0.112239 0.396828
958 2 0.433736 0.0967112 0.411305
24 3 0.44863 0.153826 0.369051
1110 4 0.0331147 0.175238 0.343373
1108 2 0.0566719 0.182175 0.338672
3352 2 0.0608281 0.248351 0.393207
3354 4 0.0668532 0.240692 0.416233
3353 4 0.054803 0.25601 0.37018
83 3 0.14408 0.174638 0.380004
81 1 0.132492 0.17566 0.359928
84 3 0.147136 0.172726 0.34217
85 3 0.121942 0.195757 0.35806
1245 4 0.124426 0.20379 0.376932
1243 2 0.131732 0.223051 0.391102
1244 4 0.139038 0.242313 0.405272
949 2 0.388756 0.16999 0.415335
1322 4 0.351115 0.244574 0.384764
1321 2 0.366414 0.250989 0.366056
951 4 0.402289 0.174496 0.394799
1286 4 0.345779 0.238075 0.40429
922 2 0.0388944 0.278965 0.34378
923 4 0.0420733 0.257278 0.355811
1237 2 0.0624387 0.329205 0.338341
870 4 0.0927276 0.250788 0.3472
868 2 0.107366 0.270944 0.349354
869 4 0.122004 0.2911 0.351508
935 4 0.361025 0.288286 0.327519
1323 4 0.381714 0.257404 0.347349
1167 4 0.395712 0.254656 0.335013
1165 2 0.419722 0.248074 0.332697
816 4 0.442778 0.32453 0.343348
2890 2 0.0835843 0.400126 0.374077
2892 4 0.0705711 0.40803 0.39391
1019 4 0.0646479 0.425391 0.402308
1238 4 0.0776177 0.343551 0.352087
2891 4 0.0965976 0.392222 0.354244
876 4 0.096479 0.40763 0.341891
890 4 0.240751 0.3615 0.340138
889 2 0.253487 0.379243 0.35231
891 4 0.266223 0.396986 0.364482
1105 2 0.286858 0.409617 0.384742
1106 4 0.279148 0.412919 0.361187
1107 4 0.294568 0.406315 0.408297
814 2 0.451442 0.333646 0.364959
815 4 0.460105 0.342762 0.386569
1193 4 0.460559 0.356301 0.40228
1092 4 0.0257077 0.464227 0.414948
1020 4 0.0154646 0.420318 0.40979
1018 2 0.0400562 0.422855 0.406049
1091 4 0.0357936 0.491517 0.374276
1090 2 0.0307506 0.477872 0.394612
1632 4 0.164346 0.491501 0.411035
2132 4 0.144866 0.491399 0.409903
2131 2 0.123437 0.497625 0.398623
1981 2 0.189481 0.42283 0.405854
1982 4 0.19935 0.444204 0.397432
1038 4 0.217503 0.440655 0.388405
1036 2 0.235572 0.445403 0.371787
1037 4 0.253641 0.450151 0.35517
1856 4 0.268346 0.455236 0.343383
4013 4 0.396383 0.447089 0.33578
4012 2 0.413069 0.452237 0.353675
4014 4 0.429755 0.457386 0.371571
783 4 0.441805 0.470905 0.37815
781 2 0.44393 0.493418 0.388821
1570 2 0.238616 0.033312 0.437922
1572 4 0.238075 0.0278841 0.462323
1607 4 0.2463 0.0356733 0.479183
1606 2 0.267454 0.0482809 0.48351
4465 2 0.327846 0.0557693 0.469025
4467 4 0.307774 0.0587713 0.48363
1608 4 0.288608 0.0608885 0.487837
1146 4 0.306298 0.0854341 0.44035
4466 4 0.347918 0.0527672 0.454421
1500 4 0.364766 0.0484476 0.463508
1498 2 0.378217 0.0656557 0.451337
1499 4 0.391669 0.0828637 0.439167
960 4 0.446945 0.0811833 0.425782
364 3 0.499234 0.0610605 0.424931
827 4 0.00955598 0.156265 0.494654
2210 4 0.0210662 0.140745 0.491444
2209 2 0.0413115 0.132544 0.479276
2211 4 0.0615568 0.124344 0.467108
839 4 0.0737083 0.11022 0.472827
3106 2 0.14291 0.099872 0.421183
838 2 0.0974839 0.10613 0.466256
840 4 0.121259 0.10204 0.459686
3108 4 0.129463 0.100063 0.442262
1145 4 0.283242 0.122667 0.464492
1144 2 0.29477 0.104051 0.452421
38 3 0.274592 0.140087 0.463831
36 1 0.277842 0.149172 0.484933
37 3 0.258832 0.145874 0.497457
40 3 0.295434 0.138953 0.495167
1100 4 0.376387 0.149033 0.447289
1101 4 0.382753 0.0996324 0.442843
1099 2 0.37957 0.124333 0.445066
950 4 0.375224 0.165485 0.435872
826 2 0.997467 0.174284 0.48223
3152 4 0.0531129 0.22694 0.420555
3151 2 0.0675715 0.222641 0.440496
3153 4 0.0820301 0.218341 0.460437
172 3 0.152803 0.239496 0.419466
174 3 0.161589 0.238426 0.455994
4523 4 0.160196 0.218247 0.453552
4522 2 0.171369 0.215587 0.475761
4524 4 0.182543 0.212927 0.49797
39 3 0.281833 0.171965 0.483215
1362 4 0.291022 0.179645 0.467552
1360 2 0.308288 0.196159 0.474924
1361 4 0.325554 0.212673 0.482296
1701 4 0.322316 0.232125 0.47901
1699 2 0.331829 0.249954 0.493734
1285 2 0.341634 0.243644 0.428311
3686 4 0.068413 0.279797 0.42613
3685 2 0.0457044 0.28998 0.42372
2895 4 0.0109065 0.288495 0.43105
3687 4 0.0229958 0.300163 0.421311
171 1 0.150393 0.250403 0.439575
173 3 0.127809 0.251714 0.444738
175 3 0.159199 0.271335 0.437858
841 2 0.192739 0.331346 0.479564
1131 4 0.174715 0.274641 0.425937
1129 2 0.18546 0.294736 0.436228
1130 4 0.196206 0.31483 0.44652
842 4 0.18155 0.317537 0.461977
1287 4 0.337489 0.249213 0.452331
1983 4 0.179612 0.401455 0.414275
843 4 0.203927 0.345155 0.497151
2218 2 0.414922 0.390155 0.458942
2220 4 0.407388 0.407542 0.475255
1194 4 0.437127 0.360501 0.446258
2219 4 0.422456 0.372769 0.442629
1192 2 0.448843 0.358401 0.424269
4672 2 0.000794806 0.456469 0.441287
4674 4 0.024266 0.459658 0.43328
10 3 0.204101 0.441202 0.464495
1390 2 0.228493 0.463136 0.484064
1631 4 0.181977 0.458844 0.444552
9 3 0.176924 0.415204 0.462712
1630 2 0.173162 0.475173 0.427794
7 3 0.168964 0.45154 0.457327
1391 4 0.209565 0.460399 0.467958
6 1 0.18222 0.436876 0.469092
8 3 0.178193 0.439665 0.491772
1392 4 0.247422 0.465873 0.50017
3396 4 0.118012 0.00526163 0.575348
1180 2 0.316179 0.0517661 0.550635
1181 4 0.321864 0.0275627 0.553291
1182 4 0.310494 0.0759696 0.547979
214 3 0.261051 0.0154141 0.581078
1526 4 0.338456 0.0162185 0.558648
150 3 0.395129 0.0712879 0.589422
1525 2 0.345216 0.00307523 0.578816
62 3 0.174324 0.164513 0.512
1051 2 0.32212 0.111732 0.518204
1053 4 0.307154 0.125108 0.503295
1052 4 0.337086 0.0983557 0.533113
1481 4 0.463008 0.145749 0.526739
1480 2 0.45313 0.136346 0.547696
1482 4 0.443252 0.126943 0.568653
1662 4 0.462363 0.157567 0.510643
64 3 0.182898 0.179881 0.545211
63 3 0.187048 0.19986 0.513148
61 1 0.188752 0.178821 0.522783
1497 4 0.23354 0.247756 0.569682
65 3 0.210039 0.171007 0.520669
1495 2 0.246217 0.228813 0.559404
1559 4 0.306818 0.165779 0.541393
1496 4 0.258893 0.20987 0.549125
1560 4 0.274389 0.200145 0.557764
1558 2 0.290603 0.182962 0.549578
1386 4 0.399858 0.223768 0.556272
1660 2 0.446979 0.17695 0.507063
1384 2 0.414491 0.215544 0.537741
1385 4 0.429125 0.207319 0.51921
1661 4 0.431594 0.196332 0.503483
1602 4 0.223962 0.259783 0.555941
1600 2 0.223984 0.281552 0.54364
1601 4 0.224005 0.30332 0.531339
165 3 0.215211 0.3201 0.536618
1581 4 0.291363 0.308529 0.52805
1579 2 0.30931 0.291425 0.524805
1580 4 0.327257 0.27432 0.52156
902 4 0.292168 0.325673 0.538196
3651 4 0.333796 0.310876 0.571279
1698 4 0.316562 0.31659 0.577923
1700 4 0.341343 0.267783 0.508458
3474 4 0.397922 0.309598 0.531944
4253 4 0.387633 0.322693 0.51985
4252 2 0.365166 0.32023 0.509155
4254 4 0.3427 0.317767 0.498461
3472 2 0.405129 0.307695 0.555811
3473 4 0.412336 0.305793 0.579677
1039 2 0.0648509 0.374649 0.562221
1040 4 0.0494257 0.365491 0.579639
1186 2 0.042434 0.401955 0.513728
1187 4 0.0657153 0.408252 0.520324
1041 4 0.0802761 0.383806 0.544803
3756 4 0.000929957 0.39962 0.513748
1188 4 0.0191528 0.395657 0.507133
1593 4 0.0884264 0.401882 0.547072
1591 2 0.113301 0.402179 0.54455
1592 4 0.138175 0.402475 0.542027
161 1 0.219629 0.342086 0.532649
163 3 0.218702 0.346359 0.509861
164 3 0.24062 0.347555 0.540886
1615 2 0.186967 0.38823 0.567666
1617 4 0.193926 0.369299 0.552889
162 3 0.203863 0.355024 0.543288
1616 4 0.180009 0.407162 0.582443
903 4 0.25339 0.352441 0.554945
901 2 0.272779 0.339057 0.546571
3649 2 0.348508 0.329272 0.579663
1114 2 0.407135 0.402033 0.537249
1115 4 0.391576 0.383619 0.530616
1023 4 0.489365 0.412954 0.531664
1022 4 0.499973 0.369021 0.510262
1021 2 0.494669 0.390987 0.520963
3025 2 0.0647375 0.429044 0.555773
3027 4 0.0711404 0.423187 0.532323
3026 4 0.0583347 0.434901 0.579222
3542 4 0.15306 0.414276 0.541106
3541 2 0.162524 0.417425 0.518178
2127 4 0.148159 0.490784 0.542075
3543 4 0.171987 0.420574 0.495249
2342 4 0.254201 0.479163 0.513296
2341 2 0.262007 0.497528 0.52836
1116 4 0.422695 0.420447 0.543882
3900 4 0.427797 0.440546 0.540707
3898 2 0.43506 0.463421 0.533696
3899 4 0.442323 0.486296 0.526685
3038 4 0.493898 0.42975 0.54229
2372 4 0.326736 0.0266265 0.659614
1178 4 0.323488 0.0467749 0.653052
2371 2 0.328173 0.00272997 0.652398
1642 2 0.407575 0.00981576 0.594908
147 3 0.382908 0.0361861 0.592797
1643 4 0.393271 0.0262083 0.607231
1177 2 0.333792 0.0557363 0.632107
148 3 0.358859 0.0647448 0.597125
1179 4 0.344095 0.0646978 0.611162
149 3 0.385556 0.0579677 0.623312
146 1 0.380689 0.0577018 0.600626
527 3 0.426661 0.0438923 0.641043
528 3 0.460288 0.0566423 0.651968
1546 2 0.487511 0.0660191 0.623784
526 1 0.44041 0.0471066 0.659203
1547 4 0.476935 0.0663674 0.646438
530 3 0.444576 0.0270254 0.669104
1548 4 0.498086 0.0656707 0.60113
3054 4 0.492311 0.0852441 0.597501
2268 4 0.444868 0.00788048 0.672016
1232 4 0.403184 0.0894026 0.59497
1231 2 0.424454 0.0998814 0.587036
1233 4 0.445725 0.11036 0.579102
3114 4 0.00555347 0.241133 0.594727
3112 2 0.00119311 0.217135 0.58923
1426 2 0.03369 0.235329 0.65012
1428 4 0.0268958 0.253296 0.634113
3463 2 0.0434567 0.293492 0.639299
3464 4 0.0319053 0.272805 0.631312
3465 4 0.055008 0.314179 0.647286
3369 4 0.100587 0.325981 0.607016
1628 4 0.115592 0.315286 0.612556
1627 2 0.116825 0.307488 0.636281
1629 4 0.118058 0.29969 0.660005
1290 4 0.109381 0.282735 0.664629
1613 4 0.280224 0.302381 0.633472
1696 2 0.305466 0.294689 0.582659
1403 4 0.262934 0.272299 0.663372
1296 4 0.259301 0.266217 0.645395
1295 4 0.283985 0.275932 0.603004
1294 2 0.271643 0.271075 0.624199
1697 4 0.29437 0.272788 0.587395
1612 2 0.279631 0.320009 0.651195
1674 4 0.404366 0.300822 0.597419
1563 4 0.362709 0.310453 0.646924
1672 2 0.386737 0.309428 0.612921
1673 4 0.369107 0.318033 0.628423
3368 4 0.0602131 0.350667 0.590852
3367 2 0.0804002 0.338324 0.598934
1468 2 0.207553 0.406353 0.614948
1341 4 0.237303 0.403995 0.638157
1339 2 0.245462 0.384203 0.651075
1469 4 0.218272 0.40238 0.637186
1470 4 0.196834 0.410326 0.592711
1340 4 0.253621 0.364411 0.663993
3650 4 0.363221 0.347668 0.588047
1653 4 0.333547 0.385675 0.66277
1805 4 0.0493367 0.44643 0.593249
1804 2 0.0412985 0.439946 0.61602
1806 4 0.0332604 0.433463 0.638791
1851 4 0.0135003 0.437017 0.6369
2593 2 0.159912 0.451919 0.657325
2358 4 0.167049 0.494315 0.643122
2594 4 0.164618 0.474355 0.647341
2628 4 0.287499 0.462384 0.665758
306 1 0.00958195 0.038119 0.700131
307 3 0.0227828 0.0202519 0.706102
308 3 0.0217412 0.0520882 0.686151
2744 4 0.032641 0.00235652 0.700896
310 3 0.00332811 0.0494237 0.718885
1297 2 0.150315 0.0308433 0.686813
1298 4 0.130974 0.0239655 0.701089
2480 4 0.112433 0.0170505 0.695703
2479 2 0.103345 0.000959346 0.678861
1299 4 0.169655 0.0377212 0.672536
2736 4 0.185751 0.0397872 0.682948
2734 2 0.202978 0.0559132 0.691216
2735 4 0.220206 0.0720392 0.699483
1682 4 0.238516 0.0808081 0.703614
324 3 0.325938 0.0599675 0.666367
1681 2 0.258027 0.0672116 0.695891
1683 4 0.277538 0.0536151 0.688168
323 3 0.297603 0.0486516 0.689028
321 1 0.320215 0.0464263 0.684319
325 3 0.325049 0.0246966 0.679513
322 3 0.332328 0.0529876 0.702741
2774 4 0.326388 0.0462781 0.721372
2773 2 0.33144 0.0567567 0.743505
1668 4 0.423198 0.0358718 0.734561
490 3 0.419029 0.0255109 0.752546
2720 4 0.418191 0.00168952 0.752042
1666 2 0.42029 0.0467374 0.71223
1667 4 0.417382 0.057603 0.689899
529 3 0.429822 0.0612876 0.67421
3491 4 0.493416 0.0718754 0.681099
1324 2 0.0425667 0.103648 0.739541
1325 4 0.0596995 0.112881 0.723843
1326 4 0.0254339 0.0944156 0.755238
2442 4 0.0769302 0.106153 0.717875
2440 2 0.081641 0.127855 0.706386
2441 4 0.0863517 0.149558 0.694897
1377 4 0.107043 0.076556 0.749031
1531 2 0.288022 0.144637 0.723136
1533 4 0.275181 0.130788 0.739522
1532 4 0.300863 0.158486 0.706751
1544 4 0.320141 0.151311 0.709283
1543 2 0.344679 0.15149 0.714086
1545 4 0.369216 0.15167 0.718888
3490 2 0.482962 0.0846593 0.699873
3492 4 0.472508 0.0974432 0.718647
1427 4 0.0404842 0.217362 0.666126
3562 2 0.010883 0.188972 0.680417
3563 4 0.0261382 0.208587 0.677641
3485 4 0.145347 0.237598 0.684247
3484 2 0.164853 0.233311 0.699291
3486 4 0.184359 0.229023 0.714334
144 3 0.229435 0.225032 0.733305
141 1 0.218358 0.2418 0.721707
142 3 0.202758 0.232173 0.70781
1691 4 0.228483 0.235541 0.750343
1451 4 0.38677 0.247557 0.691717
1479 4 0.0102819 0.276018 0.737046
1477 2 0.0344776 0.269723 0.736698
1289 4 0.147351 0.25806 0.685846
1288 2 0.128366 0.270398 0.675238
145 3 0.233204 0.253714 0.709205
143 3 0.207467 0.255869 0.736602
1404 4 0.242 0.272657 0.708785
1402 2 0.252467 0.272478 0.686078
1420 2 0.311111 0.33105 0.724053
1421 4 0.326617 0.313317 0.715669
128 3 0.329757 0.296571 0.726566
130 3 0.327774 0.265278 0.705721
1561 2 0.366915 0.297536 0.667915
127 3 0.352555 0.267514 0.733538
129 3 0.357722 0.287847 0.702353
126 1 0.341832 0.279263 0.716921
1562 4 0.371121 0.28462 0.688907
1450 2 0.400867 0.266024 0.700961
1212 4 0.358869 0.266137 0.751096
3493 2 0.436749 0.319508 0.716081
3494 4 0.425917 0.297565 0.721215
1452 4 0.414963 0.284491 0.710204
1575 4 0.465479 0.333306 0.714021
2415 4 0.132135 0.339238 0.67933
2413 2 0.137797 0.358497 0.694236
2414 4 0.14346 0.377755 0.709143
1355 4 0.132058 0.393946 0.709322
1614 4 0.279037 0.337637 0.668917
1352 4 0.298207 0.343155 0.669191
1351 2 0.319686 0.355951 0.668863
1703 4 0.261013 0.370881 0.682146
1422 4 0.295604 0.348782 0.732436
1704 4 0.278108 0.357314 0.72714
1702 2 0.269561 0.364097 0.704643
1353 4 0.341164 0.368746 0.668535
1651 2 0.345318 0.403687 0.675505
3495 4 0.44758 0.341451 0.710946
1707 4 0.467608 0.411635 0.719113
1573 2 0.479558 0.352274 0.705827
3314 4 0.503756 0.376972 0.680175
1705 2 0.458803 0.409359 0.695822
1706 4 0.449999 0.407082 0.672531
3719 4 0.46823 0.407862 0.739058
1574 4 0.493638 0.371242 0.697632
1516 2 0.0734008 0.444091 0.740437
1518 4 0.0886754 0.442972 0.720673
1354 2 0.136934 0.41491 0.696597
2595 4 0.155206 0.429484 0.667309
1356 4 0.14181 0.435874 0.683872
3429 4 0.195369 0.501459 0.745061
2627 4 0.28425 0.499948 0.698607
2626 2 0.285875 0.481166 0.682182
1269 4 0.358823 0.477723 0.676747
1652 4 0.35709 0.421699 0.68824
1267 2 0.36188 0.45651 0.689626
2529 4 0.390613 0.435361 0.71565
1268 4 0.364937 0.435297 0.702504
156 1 0.371378 0.449428 0.749521
157 3 0.377989 0.446134 0.727736
2527 2 0.414994 0.440773 0.714451
2528 4 0.439375 0.446185 0.713252
4551 4 0.455282 0.457523 0.709878
4549 2 0.462299 0.473124 0.728114
4550 4 0.469316 0.488725 0.74635
1256 4 0.0191746 0.0782081 0.76596
1736 4 0.051142 0.0754975 0.798995
125 3 0.125168 0.0421387 0.787899
123 3 0.135299 0.00702167 0.778853
124 3 0.160988 0.0314852 0.792492
121 1 0.141932 0.0292491 0.779443
122 3 0.146729 0.0361489 0.75803
1263 4 0.154683 0.0542655 0.759947
1261 2 0.169317 0.0745151 0.758954
2775 4 0.336493 0.0672353 0.765637
1135 2 0.355287 0.00659525 0.776282
1619 4 0.333026 0.0788632 0.781632
487 3 0.384681 0.0358664 0.762836
1137 4 0.368306 0.0260295 0.767451
486 1 0.406573 0.0339571 0.769638
488 3 0.414451 0.0549672 0.775546
489 3 0.40753 0.0197074 0.787926
857 4 0.423063 0.0730508 0.777286
1735 2 0.0458649 0.0927779 0.816279
1737 4 0.0405878 0.110058 0.833562
1375 2 0.105538 0.0996264 0.758553