ITEM: TIMESTEP
610000
ITEM: NUMBER OF ATOMS
1600
ITEM: BOX BOUNDS pp pp pp
-6.9325799999999997e+00 6.9325799999999997e+00
-6.9325799999999997e+00 6.9325799999999997e+00
-6.9325799999999997e+00 6.9325799999999997e+00
ITEM: ATOMS id type xs ys zs
415 4 0.113838 0.0971423 0.0946749
384 4 0.0961847 0.0253099 0.0327403
383 2 0.107717 0.0536828 0.0517775
672 4 0.10185 0.00587252 0.0524388
385 4 0.11925 0.0820557 0.0708147
406 4 0.161676 0.0757651 0.99171
404 2 0.181665 0.105076 0.998175
413 2 0.138632 0.111503 0.116571
19 3 0.234757 0.108183 0.12434
411 4 0.490598 0.117697 0.0626248
373 4 0.406976 0.135649 0.0781107
1007 2 0.00966755 0.245037 0.0741467
325 4 0.208956 0.164297 0.0102218
405 4 0.201653 0.134386 0.00464038
18 3 0.224736 0.159673 0.108437
336 4 0.276334 0.234088 0.117615
335 2 0.253843 0.20657 0.123728
372 4 0.35829 0.178333 0.109883
371 2 0.382633 0.156991 0.0939969
272 2 0.497659 0.198192 0.117038
274 4 0.517598 0.190142 0.0880882
1009 4 0.0204405 0.278031 0.0839334
313 4 0.126728 0.328273 0.00629756
266 2 0.174102 0.329349 0.999425
268 4 0.201596 0.307406 0.991486
267 4 0.146608 0.351292 0.00736436
42 3 0.281118 0.343847 0.0333045
41 1 0.282678 0.327944 0.00422959
44 3 0.269092 0.347314 0.980561
43 3 0.265646 0.299241 0.00667041
390 4 0.491868 0.366248 0.102951
495 4 0.0184916 0.408165 0.0473908
459 4 0.0710019 0.467125 0.0137468
494 2 0.0322919 0.43894 0.0346283
496 4 0.0460923 0.469715 0.0218659
414 4 0.163426 0.125864 0.138467
711 4 0.270235 0.0867746 0.219744
710 2 0.302542 0.0829426 0.204188
712 4 0.334849 0.0791107 0.188631
369 4 0.431054 0.118308 0.223603
1056 4 0.472379 0.00960386 0.218129
368 2 0.403713 0.111034 0.245963
16 1 0.213372 0.133841 0.126422
20 3 0.183794 0.124696 0.115452
17 3 0.210854 0.143155 0.158165
262 4 0.225958 0.169298 0.158498
337 4 0.231353 0.179052 0.12984
260 2 0.235219 0.172332 0.193217
261 4 0.244479 0.175367 0.227937
273 4 0.47772 0.206243 0.145987
1000 4 0.447885 0.140633 0.216898
998 2 0.453817 0.164993 0.190979
999 4 0.459749 0.189354 0.165059
1033 4 0.988182 0.390893 0.260142
297 4 0.279908 0.255394 0.136774
296 2 0.281839 0.282004 0.161036
298 4 0.28377 0.308614 0.185298
326 2 0.262986 0.313669 0.239734
327 4 0.260823 0.312925 0.203745
14 3 0.420107 0.349423 0.21797
15 3 0.470947 0.362718 0.204279
11 1 0.440634 0.374362 0.209215
389 2 0.469006 0.371582 0.130324
12 3 0.429487 0.388071 0.181135
391 4 0.446144 0.376916 0.157698
13 3 0.441131 0.397702 0.233194
644 2 0.0130938 0.00546026 0.267849
667 4 0.998861 0.0333746 0.310449
942 4 0.0446446 0.0897888 0.367593
645 4 0.0219211 0.0171628 0.300797
417 4 0.205298 0.0645354 0.366395
751 4 0.207249 0.033258 0.365306
316 4 0.356403 0.0543286 0.362819
943 4 0.0266199 0.143296 0.322717
941 2 0.0356322 0.116542 0.345155
342 4 0.266193 0.189684 0.240344
341 2 0.302038 0.186222 0.238444
370 4 0.376371 0.10376 0.268323
343 4 0.337883 0.18276 0.236545
1384 4 0.508043 0.237216 0.277106
347 2 0.478446 0.246791 0.346898
349 4 0.466773 0.221374 0.369661
948 4 0.0817486 0.317278 0.343313
947 2 0.0553541 0.313562 0.319024
1032 4 0.0264807 0.332145 0.276983
949 4 0.0289596 0.309846 0.294735
1031 2 0.00733113 0.361519 0.268563
319 4 0.109208 0.311496 0.332852
317 2 0.137426 0.289046 0.332466
318 4 0.165644 0.266595 0.33208
375 4 0.184295 0.284705 0.320759
374 2 0.212637 0.291502 0.299522
278 2 0.182027 0.365159 0.393616
328 4 0.26515 0.314413 0.275723
376 4 0.240978 0.298299 0.278284
400 4 0.383289 0.348515 0.373135
348 4 0.490119 0.272208 0.324135
127 3 0.470873 0.383926 0.294592
128 3 0.42065 0.388924 0.314369
934 4 0.00978549 0.451007 0.279887
932 2 0.0330171 0.441577 0.305806
933 4 0.0562487 0.432147 0.331725
387 4 0.0742982 0.43332 0.353647
386 2 0.103135 0.454763 0.350636
279 4 0.189635 0.391262 0.369927
340 4 0.138944 0.418617 0.295611
339 4 0.193817 0.458578 0.319979
338 2 0.16638 0.438597 0.307795
345 4 0.220272 0.486303 0.294764
344 2 0.248528 0.466095 0.285086
346 4 0.276785 0.445887 0.275408
402 4 0.308253 0.490072 0.384679
130 3 0.444571 0.430556 0.289004
126 1 0.449539 0.404911 0.308916
129 3 0.462481 0.415345 0.337961
257 2 0.100306 0.0838697 0.390959
258 4 0.0672508 0.0752171 0.379429
717 4 0.11719 0.0783565 0.512595
259 4 0.133361 0.0925224 0.402489
331 4 0.133786 0.0720997 0.48966
416 2 0.179019 0.0862427 0.378168
418 4 0.152739 0.10795 0.389942
329 2 0.167485 0.0764044 0.477567
330 4 0.201185 0.0807092 0.465473
397 4 0.244863 0.115594 0.398181
443 2 0.245793 0.131103 0.505909
314 2 0.346111 0.0767215 0.389145
32 3 0.31488 0.111841 0.487562
529 4 0.325365 0.127245 0.509859
315 4 0.335819 0.0991145 0.415471
444 4 0.272412 0.138544 0.482747
310 4 0.458915 0.0825682 0.419182
308 2 0.437661 0.107833 0.404677
137 3 0.483877 0.0685898 0.411835
359 2 0.0717433 0.197122 0.421422
360 4 0.0516189 0.188049 0.392907
361 4 0.0918677 0.206196 0.449937
333 4 0.113824 0.186015 0.456188
395 2 0.235823 0.138835 0.424231
9 3 0.220921 0.202237 0.493683
8 3 0.206766 0.220093 0.44383
6 1 0.232188 0.210114 0.463172
7 3 0.246079 0.183218 0.449595
396 4 0.226784 0.162075 0.450282
10 3 0.254659 0.233971 0.465337
332 2 0.123672 0.162737 0.481909
31 1 0.31455 0.133142 0.462128
33 3 0.325773 0.117488 0.434761
34 3 0.283157 0.143644 0.457218
35 3 0.333945 0.158698 0.469168
435 4 0.268945 0.236279 0.49074
28 3 0.401083 0.208322 0.386501
27 3 0.426745 0.198842 0.4333
30 3 0.423147 0.159722 0.396502
309 4 0.416407 0.133098 0.390172
26 1 0.426613 0.192098 0.400816
29 3 0.455561 0.202354 0.38752
1020 4 0.0373322 0.297084 0.387889
1019 2 0.061364 0.284146 0.411459
1021 4 0.0853957 0.271209 0.435028
379 4 0.114653 0.277998 0.435972
377 2 0.145139 0.29412 0.425434
378 4 0.175626 0.310242 0.414895
280 4 0.17442 0.339055 0.417305
294 4 0.263112 0.260189 0.454979
4 3 0.350631 0.329238 0.446959
5 3 0.319446 0.318623 0.403789
295 4 0.30321 0.295069 0.406221
293 2 0.283161 0.277629 0.4306
3 3 0.367674 0.342518 0.396584
1 1 0.341048 0.339749 0.416667
2 3 0.326743 0.369531 0.419678
745 4 0.467797 0.371479 0.420488
398 2 0.413386 0.356922 0.391133
479 2 0.0179476 0.511971 0.447952
643 4 0.150733 0.495677 0.408552
660 4 0.322682 0.49359 0.462565
403 4 0.279778 0.434902 0.421383
401 2 0.294016 0.462487 0.403031
263 2 0.328438 0.385348 0.478621
264 4 0.318862 0.38298 0.443934
744 4 0.492164 0.433538 0.447997
399 4 0.443483 0.36533 0.409131
743 2 0.47998 0.402509 0.434242
963 4 0.499254 0.443214 0.475435
718 4 0.0799419 0.0179455 0.525435
716 2 0.0985659 0.048151 0.519015
1158 4 0.0851419 0.0875608 0.625173
507 4 0.114137 0.090998 0.631783
506 2 0.148962 0.0854754 0.624221
508 4 0.183787 0.0799527 0.61666
445 4 0.219174 0.123663 0.529072
527 2 0.321373 0.101893 0.535192
847 4 0.31441 0.0189844 0.602993
528 4 0.31738 0.0765397 0.560524
103 3 0.343452 0.06661 0.562731
101 1 0.363138 0.0500714 0.584152
102 3 0.345393 0.0420263 0.611004
105 3 0.374481 0.0226526 0.570066
550 4 0.318002 0.0481097 0.602115
1110 4 0.406976 0.0858782 0.577482
1109 2 0.440469 0.0768894 0.587375
104 3 0.388712 0.0695205 0.593513
1150 4 0.487403 0.0659534 0.623161
1111 4 0.473962 0.0679005 0.597268
1157 2 0.0665185 0.118316 0.62795
1159 4 0.0478951 0.149072 0.630728
334 4 0.13352 0.139458 0.50763
492 4 0.211854 0.202087 0.604125
472 4 0.206475 0.199175 0.574868
470 2 0.200219 0.205478 0.539917
471 4 0.193963 0.21178 0.504966
1235 2 0.360091 0.173574 0.514776
428 2 0.298387 0.184053 0.583477
429 4 0.284088 0.209007 0.561722
436 4 0.284821 0.237334 0.561087
434 2 0.276883 0.236807 0.525914
430 4 0.312687 0.159099 0.605232
1236 4 0.337867 0.151401 0.49703
1237 4 0.382315 0.195746 0.532522
365 2 0.410913 0.186983 0.587505
366 4 0.426381 0.192057 0.619683
367 4 0.395445 0.181908 0.555327
464 2 0.471719 0.2291 0.634185
465 4 0.440015 0.212106 0.636735
1138 4 0.0186998 0.302738 0.55216
1209 4 0.12139 0.284992 0.592242
1087 4 0.098426 0.2861 0.57566
1085 2 0.0696639 0.302937 0.561887
1086 4 0.0409018 0.319774 0.548113
498 4 0.460987 0.355069 0.569872
265 4 0.338013 0.387715 0.513307
286 4 0.455634 0.382232 0.564472
284 2 0.433323 0.410142 0.569341
285 4 0.411012 0.438052 0.57421
536 2 0.0746828 0.0150433 0.664914
1202 2 0.00751499 0.0957027 0.708943
537 4 0.0886396 0.0455441 0.678155
1204 4 0.990585 0.0655338 0.719124
561 4 0.109443 0.0333578 0.692597
558 4 0.20049 0.101895 0.62972
557 2 0.217896 0.110445 0.660123
560 2 0.141354 0.0446372 0.705042
562 4 0.173266 0.0559166 0.717487
559 4 0.235301 0.118995 0.690527
904 4 0.185612 0.0297002 0.727661
549 4 0.276525 0.0532019 0.660898
548 2 0.297264 0.0506558 0.631506
447 4 0.370774 0.116134 0.678886
446 2 0.395153 0.103158 0.702075
448 4 0.419532 0.0901826 0.725264
47 3 0.426392 0.0628848 0.718588
46 1 0.448947 0.039628 0.711443
48 3 0.47175 0.0387888 0.735923
50 3 0.46342 0.0470025 0.682895
49 3 0.433572 0.00999371 0.70913
1203 4 0.0244448 0.125872 0.698761
454 4 0.020543 0.153456 0.710928
452 2 0.993688 0.175465 0.701188
491 2 0.222489 0.189306 0.636125
493 4 0.233124 0.176524 0.668124
581 2 0.21924 0.191314 0.718314
583 4 0.244893 0.181474 0.694958
582 4 0.193586 0.201154 0.741671
451 4 0.32475 0.17537 0.626408
449 2 0.34919 0.153266 0.641056
450 4 0.373629 0.131162 0.655704
54 3 0.495042 0.157673 0.703765
533 2 0.451238 0.172089 0.684148
535 4 0.434321 0.194533 0.661553
534 4 0.468155 0.149645 0.706743
503 2 0.377279 0.227235 0.724676
1208 2 0.116491 0.300444 0.624455
1210 4 0.111591 0.315896 0.656668
577 4 0.110586 0.322492 0.684009
575 2 0.109942 0.326543 0.719837
505 4 0.411147 0.239428 0.722501
1118 2 0.502056 0.319856 0.681084
1119 4 0.506835 0.285254 0.690046
1120 4 0.497277 0.354458 0.672122
544 4 0.47643 0.371399 0.678387
555 4 0.440701 0.304027 0.757862
554 2 0.452085 0.337598 0.764484
542 2 0.484806 0.406414 0.676326
543 4 0.493183 0.441428 0.674265
580 4 0.0739003 0.129085 0.862439
902 2 0.211834 0.0353046 0.751775
903 4 0.238056 0.0409091 0.775888
442 4 0.266317 0.04398 0.777188
440 2 0.286536 0.0647955 0.798597
441 4 0.306755 0.085611 0.820006
573 4 0.368337 0.131855 0.868866
57 3 0.404183 0.0976498 0.856096
115 3 0.417648 0.0260603 0.870123
835 4 0.432766 0.0100525 0.853874
112 3 0.391437 0.0729526 0.873507
111 1 0.390204 0.0406104 0.880798
420 4 0.085895 0.117843 0.839873
419 2 0.103185 0.139678 0.816966
421 4 0.120474 0.161513 0.794058
37 3 0.171356 0.183101 0.747311
40 3 0.141688 0.227072 0.75646
38 3 0.122683 0.178228 0.77067
36 1 0.149925 0.197501 0.768144
39 3 0.164467 0.200711 0.798113
564 4 0.157975 0.229967 0.802944
563 2 0.165517 0.238397 0.837185
462 4 0.151774 0.244331 0.778879
504 4 0.343411 0.215041 0.72685
502 4 0.36234 0.187254 0.790094
500 2 0.355088 0.178535 0.824326
1234 4 0.505985 0.135161 0.775473
58 3 0.437049 0.13517 0.83487
501 4 0.347837 0.169816 0.858558
1233 4 0.467945 0.140113 0.836548
1232 2 0.486965 0.137637 0.806011
59 3 0.392616 0.15012 0.863272
56 1 0.417362 0.127718 0.860885
463 4 0.127216 0.311435 0.769092
576 4 0.109298 0.330595 0.755665
461 2 0.139495 0.277883 0.773985
437 2 0.347615 0.349198 0.82368
438 4 0.319776 0.359569 0.803239
525 4 0.325761 0.361096 0.774779
439 4 0.375454 0.338828 0.844122
520 4 0.396342 0.32522 0.861821
518 2 0.394644 0.289674 0.867652
818 2 0.00927001 0.488589 0.791377
1042 4 0.000867902 0.382472 0.80604
546 4 0.0299558 0.380311 0.803476
547 4 0.0442142 0.450984 0.805422
820 4 0.0218269 0.467093 0.817468
545 2 0.037085 0.415648 0.804449
516 4 0.286842 0.511326 0.782576
526 4 0.300397 0.425001 0.752997
517 4 0.314471 0.447526 0.763396
515 2 0.300657 0.479426 0.772986
524 2 0.313079 0.393049 0.763888
556 4 0.463469 0.371169 0.771105
894 4 0.406192 0.446248 0.799888
893 2 0.423284 0.417764 0.785852
895 4 0.440376 0.389281 0.771817
837 4 0.112033 0.992414 0.908031
362 2 0.00109956 0.0667091 0.938246
363 4 0.00561829 0.102378 0.941033
364 4 0.996581 0.0310405 0.935459
578 2 0.0409706 0.140433 0.871782
579 4 0.00804097 0.151782 0.881125
836 2 0.135932 0.0175092 0.898056
838 4 0.159832 0.0426043 0.888082
468 4 0.174301 0.0562844 0.907113
467 2 0.198146 0.0820205 0.91545
469 4 0.221991 0.107757 0.923788
63 3 0.247971 0.114611 0.934895
114 3 0.363533 0.0271331 0.865733
574 4 0.321574 0.103552 0.915918
572 2 0.344956 0.117704 0.892392
83 3 0.385775 0.0127256 0.922826
113 3 0.387578 0.037092 0.913974
592 4 0.438821 0.0512808 0.991372
1075 4 0.460711 0.0620919 0.975497
1073 2 0.48153 0.0901063 0.96643
590 2 0.449348 0.0168068 0.990298
488 2 0.191299 0.232724 0.916388
489 4 0.220838 0.230564 0.936961
324 4 0.217801 0.204336 0.950888
323 2 0.213379 0.184316 0.980555
565 4 0.17306 0.246827 0.871427
65 3 0.27001 0.10506 0.983598
64 3 0.300985 0.101347 0.93915
61 1 0.275514 0.117466 0.953688
271 4 0.328374 0.215211 0.964069
62 3 0.28333 0.149591 0.95645
270 4 0.26909 0.175141 0.955043
269 2 0.298732 0.195176 0.959556
322 4 0.418151 0.239107 0.877082
531 4 0.485027 0.189008 0.929071
163 3 0.491972 0.21535 0.921789
321 4 0.416148 0.173326 0.906588
60 3 0.435001 0.12751 0.888592
320 2 0.417149 0.206216 0.891835
510 4 0.420691 0.145923 0.906432
509 2 0.402108 0.143234 0.937219
511 4 0.383524 0.140546 0.968007
312 4 0.0632058 0.315474 0.974629
311 2 0.0949669 0.321873 0.990463
356 2 0.023072 0.274477 0.972679
357 4 0.0428008 0.300734 0.957787
490 4 0.16176 0.234883 0.895815
483 4 0.341328 0.327602 0.995973
45 3 0.314104 0.321744 0.996963
482 2 0.368726 0.324535 0.972727
306 4 0.41674 0.302709 0.937304
307 4 0.485654 0.2818 0.933372
305 2 0.451197 0.292255 0.935338
165 3 0.497212 0.268197 0.910447
519 4 0.392946 0.254127 0.873482
484 4 0.396124 0.321469 0.949481
460 4 0.125047 0.490419 0.972054
458 2 0.0980245 0.478772 0.992901
431 2 0.167265 0.497147 0.946282
433 4 0.182601 0.493822 0.913814
739 4 0.204849 0.511975 0.90297
432 4 0.151929 0.500472 0.97875
209 3 0.478532 0.50774 0.910446
252 4 0.490646 0.486297 0.928896
811 4 0.050475 0.548333 0.0454488
809 2 0.0863037 0.549369 0.0414906
810 4 0.122133 0.550404 0.0375325
514 4 0.134169 0.557249 0.063435
512 2 0.163968 0.551057 0.0827774
513 4 0.193767 0.544864 0.10212
355 4 0.196016 0.527426 0.12579
70 3 0.303795 0.606615 0.109662
292 4 0.337746 0.535715 0.119425
290 2 0.331562 0.5231 0.0862123
291 4 0.325378 0.510486 0.0529997
754 4 0.44932 0.600509 0.0908993
752 2 0.472036 0.587561 0.115734
80 3 0.394019 0.628706 0.0648449
77 3 0.445678 0.62828 0.0799615
662 2 0.0385799 0.722644 0.0308108
663 4 0.071626 0.716194 0.0437258
664 4 0.00553379 0.729093 0.0178958
692 2 0.158935 0.706832 0.105428
638 2 0.17767 0.722122 0.0301789
639 4 0.170209 0.746428 0.0557527
693 4 0.168313 0.728404 0.0780942
640 4 0.18513 0.697816 0.0046051
76 1 0.418129 0.646668 0.078071
78 3 0.409501 0.656431 0.108896
79 3 0.424267 0.673414 0.0589156
732 4 0.398827 0.644028 0.131826
72 3 0.072033 0.883246 0.0663382
73 3 0.125584 0.876235 0.0709808
742 4 0.139045 0.865196 0.047707
740 2 0.172019 0.858998 0.0609263
741 4 0.204993 0.852799 0.0741456
698 2 0.324952 0.862125 0.123425
1273 4 0.485262 0.81131 0.0124344
1271 2 0.491542 0.793288 0.0430319
1322 2 0.468895 0.863956 0.0154233
71 1 0.101631 0.894853 0.0568561
75 3 0.104587 0.926113 0.0664969
74 3 0.103832 0.892929 0.0235186
1261 4 0.046598 0.889877 0.0776565
673 4 0.108355 0.935131 0.0399861
1259 2 0.042664 0.90943 0.107701
671 2 0.105102 0.970502 0.0462125
1582 4 0.132056 0.881577 0.0247671
700 4 0.340508 0.892161 0.135926
715 4 0.33573 0.918202 0.122894
657 4 0.511166 0.962125 0.0808135
229 3 0.477683 0.972701 0.0101708
226 1 0.491142 0.950228 0.0309971
230 3 0.474502 0.921963 0.0292594
1323 4 0.474588 0.899215 0.0104454
227 3 0.522666 0.944913 0.0221238
353 2 0.22079 0.550607 0.138008
67 3 0.323066 0.559948 0.128321
66 1 0.303357 0.585775 0.135046
69 3 0.314614 0.60109 0.162589
733 4 0.334673 0.621127 0.155523
354 4 0.245565 0.573788 0.150227
68 3 0.272223 0.574596 0.140106
670 4 0.354904 0.595771 0.239248
723 4 0.356857 0.624135 0.2317
762 4 0.478765 0.557596 0.221879
761 2 0.458609 0.585776 0.231883
1293 4 0.48735 0.529162 0.224881
763 4 0.438454 0.613956 0.241888
753 4 0.494753 0.574612 0.140569
88 3 0.112983 0.653094 0.172049
89 3 0.1101 0.70013 0.200047
86 1 0.129185 0.681259 0.180057
734 2 0.131616 0.736633 0.238121
735 4 0.129724 0.705366 0.220255
90 3 0.136795 0.697946 0.152808
585 4 0.149851 0.684382 0.221918
87 3 0.157083 0.673368 0.196187
694 4 0.149558 0.68526 0.132762
630 4 0.236554 0.692028 0.197917
629 2 0.256878 0.662266 0.196654
731 2 0.36675 0.632577 0.143674
631 4 0.277201 0.632503 0.195391
255 4 0.418143 0.672242 0.174416
256 4 0.415633 0.625137 0.228974
254 2 0.416888 0.64869 0.201695
615 4 0.110416 0.834301 0.202674
1311 4 0.0873 0.818533 0.198696
1310 2 0.0514144 0.821311 0.196474
614 2 0.127833 0.814838 0.227539
1312 4 0.0155288 0.82409 0.194251
728 2 0.249065 0.776109 0.219652
730 4 0.218471 0.761829 0.232321
729 4 0.27966 0.790389 0.206984
699 4 0.309396 0.832089 0.110924
622 4 0.276829 0.770583 0.184157
621 4 0.301783 0.784609 0.117958
620 2 0.289306 0.777596 0.151058
708 4 0.349475 0.80191 0.1546
707 2 0.382375 0.811552 0.165783
603 4 0.42438 0.848121 0.185049
709 4 0.415276 0.821193 0.176966
602 2 0.430892 0.883571 0.186179
1260 4 0.0387301 0.928983 0.137745
1306 4 0.042815 0.943704 0.163792
1304 2 0.0356444 0.96402 0.19271
1305 4 0.0284737 0.984335 0.221629
646 4 0.00426657 0.993758 0.234901
713 2 0.355267 0.938948 0.144992
714 4 0.374804 0.959695 0.167091
604 4 0.437404 0.919022 0.187308
1419 4 0.45254 0.9445 0.182101
1418 2 0.448894 0.97238 0.20468
1420 4 0.445247 0.000260594 0.22726
388 4 0.131972 0.476206 0.347624
300 4 0.183595 0.556511 0.32963
651 4 0.180858 0.583036 0.338691
299 2 0.190031 0.522048 0.321185
650 2 0.174037 0.614388 0.322229
301 4 0.196466 0.487584 0.312741
668 2 0.354077 0.568194 0.262471
669 4 0.35325 0.540618 0.285694
676 4 0.361394 0.5509 0.312728
674 2 0.350029 0.565727 0.343573
756 4 0.979691 0.748356 0.353171
652 4 0.167216 0.64574 0.305768
584 2 0.156064 0.662254 0.249706
586 4 0.162277 0.640125 0.277494
703 4 0.271713 0.752762 0.255415
722 2 0.360498 0.650017 0.256546
608 2 0.321952 0.742323 0.3606
610 4 0.312972 0.720009 0.333733
724 4 0.364139 0.675898 0.281392
705 4 0.358399 0.739595 0.2998
704 2 0.39043 0.744958 0.284126
1443 4 0.381337 0.65761 0.295522
625 4 0.459984 0.65244 0.355181
1444 4 0.44147 0.650626 0.334727
1442 2 0.411404 0.654118 0.315124
623 2 0.481218 0.671187 0.377499
706 4 0.422461 0.750322 0.268451
616 4 0.14525 0.795374 0.252404
696 4 0.0489629 0.855646 0.289841
95 3 0.103605 0.837623 0.348083
91 1 0.103878 0.8496 0.3175
695 2 0.0182821 0.855654 0.27089
93 3 0.122958 0.830351 0.297869
92 3 0.0729289 0.849756 0.30555
597 4 0.124282 0.744393 0.34999
736 4 0.133508 0.7679 0.255988
598 4 0.105134 0.812881 0.362014
596 2 0.114708 0.778637 0.356002
653 2 0.218759 0.838351 0.336373
654 4 0.247934 0.8258 0.319293
655 4 0.189583 0.850902 0.353452
766 4 0.247099 0.846094 0.299949
702 4 0.329502 0.738848 0.296263
701 2 0.300607 0.745805 0.275839
764 2 0.278059 0.857911 0.285725
682 4 0.419843 0.833055 0.358537
680 2 0.420631 0.865679 0.343192
1354 4 0.437756 0.819248 0.374792
94 3 0.115588 0.880949 0.317619
750 4 0.246685 0.979947 0.336943
749 2 0.226967 0.00660259 0.351124
765 4 0.309018 0.869729 0.271502
600 4 0.331234 0.867222 0.254935
599 2 0.349102 0.896483 0.266115
726 4 0.24259 0.955464 0.35342
601 4 0.36697 0.925744 0.277294
25 3 0.368973 0.941622 0.3547
725 2 0.273975 0.942448 0.341336
727 4 0.30536 0.929433 0.329252
23 3 0.35624 0.926805 0.304033
21 1 0.379626 0.940524 0.323649
22 3 0.385729 0.971378 0.313092
24 3 0.407897 0.922701 0.321901
681 4 0.42142 0.898303 0.327846
975 4 0.0562842 0.540873 0.46684
974 2 0.0627376 0.576303 0.468702
976 4 0.069191 0.611734 0.470564
480 4 0.039983 0.540068 0.44291
641 2 0.176769 0.503575 0.432221
642 4 0.202805 0.511473 0.455889
844 4 0.187568 0.523392 0.478059
675 4 0.338663 0.580554 0.374418
721 4 0.2615 0.530534 0.439091
719 2 0.283749 0.515274 0.463019
720 4 0.305999 0.500015 0.486948
659 2 0.356875 0.485029 0.470178
1392 4 0.483886 0.558842 0.391574
474 4 0.466816 0.611328 0.467933
1393 4 0.470332 0.583586 0.45795
1391 2 0.477109 0.571214 0.424762
661 4 0.391069 0.476468 0.477792
916 4 0.179087 0.680817 0.503286
876 4 0.195759 0.701388 0.497175
875 2 0.22347 0.678464 0.494532
609 4 0.330933 0.764637 0.387468
687 4 0.334134 0.7538 0.48894
899 2 0.300558 0.690252 0.473726
595 4 0.348069 0.77352 0.410699
901 4 0.325041 0.714927 0.464127
593 2 0.363689 0.769261 0.442922
886 4 0.500659 0.716409 0.412564
884 2 0.48203 0.720746 0.443135
1566 4 0.442788 0.704201 0.468873
885 4 0.463401 0.725084 0.473706
624 4 0.502452 0.689934 0.399817
633 4 0.00930101 0.791601 0.426044
679 4 0.00173937 0.783788 0.451272
677 2 0.00134963 0.807183 0.478713
773 2 0.105242 0.852171 0.45568
1371 4 0.0611634 0.87074 0.432617
775 4 0.0711562 0.863454 0.459043
632 2 0.991709 0.769675 0.403456
768 4 0.166081 0.851862 0.448517
774 4 0.139327 0.840888 0.452317
769 4 0.187313 0.861872 0.38032
767 2 0.176697 0.856867 0.414418
1352 2 0.459198 0.805103 0.400102
1353 4 0.48064 0.790957 0.425411
594 4 0.379309 0.765003 0.475145
1372 4 0.013576 0.909284 0.394517
1370 2 0.0373697 0.890012 0.413567
777 4 0.231934 0.963425 0.455863
776 2 0.20923 0.952513 0.481668
648 4 0.33064 0.92291 0.367912
647 2 0.352816 0.90636 0.391038
649 4 0.374991 0.88981 0.414164
408 4 0.499967 0.960214 0.496501
918 4 0.47355 0.948707 0.450829
1513 4 0.384987 0.913956 0.426511
1511 2 0.416183 0.923797 0.44169
1512 4 0.447378 0.933638 0.456869
804 4 0.113814 0.602527 0.57849
567 4 0.121495 0.613691 0.603543
858 4 0.0464108 0.590038 0.551521
857 2 0.0309562 0.574818 0.580329
859 4 0.0155015 0.559597 0.609138
619 4 0.0473017 0.627457 0.486136
803 2 0.137327 0.576781 0.569284
805 4 0.160839 0.551035 0.560078
843 4 0.184373 0.538921 0.548418
892 4 0.133654 0.54352 0.642609
842 2 0.18597 0.531157 0.513238
475 4 0.440668 0.587535 0.530797
473 2 0.453742 0.599431 0.499365
566 2 0.106109 0.645737 0.597478
618 4 0.0855043 0.678302 0.520152
915 4 0.109567 0.693337 0.517846
617 2 0.066403 0.65288 0.503144
568 4 0.0907236 0.677783 0.591413
878 2 0.0893193 0.71621 0.625041
879 4 0.10305 0.702017 0.594867
914 2 0.144327 0.687077 0.510566
877 4 0.251182 0.65554 0.491889
900 4 0.276075 0.665577 0.483325
686 2 0.320649 0.756025 0.522312
1321 4 0.506531 0.636899 0.581089
1567 4 0.390945 0.683176 0.514393
1565 2 0.416867 0.693688 0.491633
688 4 0.307165 0.758251 0.555683
685 4 0.321607 0.744857 0.579753
684 4 0.285478 0.79527 0.616562
683 2 0.303543 0.770063 0.598158
924 4 0.382963 0.822178 0.534333
923 2 0.366755 0.854237 0.537494
690 4 0.103384 0.999148 0.518998
691 4 0.161735 0.95718 0.513029
689 2 0.13256 0.978164 0.516013
778 4 0.186526 0.941601 0.507473
925 4 0.350547 0.886296 0.540655
119 3 0.306752 0.934256 0.570287
846 4 0.300117 0.962049 0.561091
118 3 0.328832 0.885343 0.559129
116 1 0.30307 0.905817 0.553037
117 3 0.302451 0.912928 0.520637
120 3 0.274892 0.89118 0.56144
845 2 0.307263 0.990517 0.582042
1536 4 0.00471437 0.579331 0.625197
891 4 0.0827949 0.517785 0.686801
890 2 0.108224 0.530652 0.664705
793 4 0.0717018 0.53812 0.701708
791 2 0.0566587 0.57006 0.709056
792 4 0.0416155 0.602 0.716404
222 3 0.013014 0.604197 0.726448
787 4 0.273234 0.571645 0.718529
880 4 0.0755883 0.730403 0.655215
856 4 0.0563523 0.752036 0.66143
854 2 0.0310353 0.776841 0.654782
855 4 0.00571824 0.801646 0.648133
796 4 0.347733 0.887996 0.710105
794 2 0.323074 0.865112 0.723093
795 4 0.298414 0.842228 0.73608
538 4 0.060726 0.984542 0.651672
221 1 0.996495 0.603238 0.755204
225 3 0.998836 0.573089 0.768025
819 4 0.996713 0.510084 0.765287
223 3 0.00992117 0.625625 0.776144
738 4 0.220142 0.532997 0.835695
424 4 0.233427 0.556313 0.819903
422 2 0.247628 0.535137 0.794402
785 2 0.286406 0.596344 0.741265
423 4 0.261829 0.51396 0.768901
905 2 0.449203 0.601964 0.850838
907 4 0.451908 0.571339 0.869685
812 2 0.0307645 0.700468 0.826121
813 4 0.0605461 0.719822 0.832361
771 4 0.218452 0.651451 0.806465
770 2 0.227334 0.686312 0.803968
786 4 0.299579 0.621042 0.764
772 4 0.236215 0.721174 0.801472
823 4 0.326595 0.629023 0.769366
867 4 0.234739 0.738396 0.824286
821 2 0.358121 0.646116 0.76557
906 4 0.446498 0.63259 0.831991
100 3 0.432932 0.638622 0.807132
822 4 0.389646 0.663209 0.761773
99 3 0.443973 0.690695 0.817876
97 3 0.408926 0.677503 0.778682
98 3 0.461736 0.667665 0.771414
96 1 0.436967 0.668416 0.793907
862 4 0.446546 0.711582 0.837224
860 2 0.475797 0.731076 0.845271
853 4 0.0981182 0.790427 0.853274
852 4 0.045478 0.745402 0.833187
851 2 0.0717981 0.767915 0.84323
783 4 0.112621 0.776942 0.872481
869 2 0.176038 0.834586 0.796075
870 4 0.148177 0.856377 0.8031
871 4 0.203899 0.812795 0.789051
108 3 0.228272 0.820386 0.776514
107 3 0.274802 0.826642 0.803611
106 1 0.257263 0.837077 0.777454
866 2 0.248846 0.769491 0.812686
110 3 0.274365 0.831388 0.749995
109 3 0.251462 0.869875 0.780706
868 4 0.262953 0.800586 0.801087
861 4 0.505049 0.75057 0.853317
1593 4 0.052127 0.892901 0.852533
1594 4 0.0339068 0.909777 0.784821
1592 2 0.0430169 0.901339 0.818677
831 4 0.0204004 0.91494 0.758859
910 4 0.146033 0.882288 0.792589
908 2 0.163319 0.913579 0.787838
909 4 0.180604 0.944869 0.783088
799 4 0.187362 0.966284 0.800109
797 2 0.223147 0.965045 0.804386
798 4 0.258933 0.963805 0.808664
922 4 0.362919 0.913361 0.856005
833 2 0.449199 0.979328 0.844577
834 4 0.465631 0.948604 0.83528
737 2 0.212496 0.522486 0.869333
210 3 0.43159 0.508004 0.883147
208 3 0.459079 0.554428 0.889318
206 1 0.450867 0.525212 0.903423
207 3 0.434484 0.531161 0.931652
829 4 0.220458 0.669459 0.951593
605 2 0.186062 0.732623 0.951457
607 4 0.182169 0.707236 0.97677
606 4 0.189956 0.75801 0.926143
827 2 0.247234 0.657737 0.930472
828 4 0.27401 0.646015 0.909352
628 4 0.29655 0.649034 0.891715
626 2 0.32744 0.664673 0.901799
627 4 0.358329 0.680312 0.911883
808 4 0.362809 0.708767 0.917594
807 4 0.43071 0.732224 0.911194
806 2 0.396759 0.720496 0.914394
784 4 0.177954 0.763385 0.89986
782 2 0.145287 0.770164 0.886171
849 4 0.504154 0.832566 0.911423
848 2 0.502908 0.80618 0.886874
1324 4 0.463201 0.828696 0.0204012
1474 4 0.0444803 0.883193 0.87849
1472 2 0.0241586 0.895764 0.905498
747 4 0.131211 0.978675 0.924049
746 2 0.13301 0.945676 0.938481
748 4 0.134809 0.912678 0.952913
874 4 0.214538 0.913626 0.879799
1580 2 0.145955 0.890044 0.992587
1581 4 0.159855 0.898512 0.960407
872 2 0.245952 0.930403 0.874128
612 4 0.343112 0.98137 0.926425
613 4 0.292261 0.941484 0.894409
873 4 0.277366 0.947179 0.868457
84 3 0.359566 0.972486 0.949254
611 2 0.317686 0.961427 0.910417
920 2 0.384826 0.93161 0.878085
82 3 0.406669 0.962727 0.924262
81 1 0.38953 0.985255 0.941566
85 3 0.405969 0.992591 0.969039
921 4 0.406732 0.949858 0.900165
591 4 0.459876 0.982333 0.989223
986 2 0.600702 0.0995729 0.0384907
987 4 0.574329 0.113489 0.0587711
410 2 0.525111 0.120726 0.0726291
988 4 0.627074 0.0856571 0.0182104
1198 4 0.618207 0.056592 0.0165437
936 4 0.685413 0.040976 0.0740096
1004 2 0.675653 0.0848773 0.0880331
1005 4 0.692829 0.055049 0.0987895
1006 4 0.658477 0.114706 0.0772767
935 2 0.673143 0.0103786 0.0593918
968 2 0.868278 0.111743 0.0184661
1241 2 0.902284 0.0406676 0.0132365
1242 4 0.899227 0.0120462 0.03496
969 4 0.887546 0.0932067 0.994268
412 4 0.559625 0.123755 0.0826334
970 4 0.849009 0.13028 0.0426645
1054 4 0.866056 0.212964 0.0883967
1052 2 0.86581 0.179311 0.0754391
1053 4 0.865563 0.145659 0.0624815
1008 4 0.998895 0.212043 0.06436
455 2 0.987979 0.178114 0.0238983
457 4 0.995342 0.184518 0.0586145
382 4 0.515807 0.350069 0.103786
380 2 0.516431 0.32728 0.0758446
1083 4 0.519312 0.301969 0.021138
124 3 0.624215 0.354672 0.114457
1061 2 0.604764 0.362534 0.0549468
381 4 0.517056 0.304492 0.0479033
1063 4 0.588714 0.371064 0.0238006
540 4 0.601488 0.374999 0.998453
1062 4 0.620814 0.354005 0.0860929
981 4 0.93342 0.35109 0.111633
972 4 0.927041 0.350085 0.0824389
1058 2 0.623852 0.434929 0.0973832
1059 4 0.607414 0.409312 0.116723
1060 4 0.64029 0.460545 0.0780436
1048 4 0.805076 0.464002 0.0596506
1046 2 0.812563 0.475238 0.0930893
1047 4 0.82005 0.486473 0.126528
588 4 0.780025 0.454061 0.0475418
587 2 0.77987 0.477208 0.0198898
971 2 0.931842 0.375231 0.0570407
973 4 0.936644 0.400377 0.0316426
1201 4 0.958409 0.393366 0.0144281
1081 4 0.550542 0.054556 0.226178
1079 2 0.57746 0.0679936 0.206297
1080 4 0.604379 0.0814313 0.186415
1002 4 0.628556 0.0885957 0.171935
1055 2 0.499591 0.0306942 0.228858
1057 4 0.526803 0.0517846 0.239588
1078 4 0.712291 0.995028 0.218829
1011 4 0.752166 0.128431 0.227623
1345 4 0.905121 0.0124386 0.208352
1410 4 0.906074 0.0968125 0.233523
1411 4 0.909557 0.0369607 0.193431
1409 2 0.907815 0.0668866 0.213477
1001 2 0.629207 0.123863 0.164435
1003 4 0.629858 0.15913 0.156935
967 4 0.760565 0.235761 0.225501
1024 4 0.780247 0.214573 0.230223
1022 2 0.765049 0.183428 0.220249
1023 4 0.749852 0.152284 0.210275
125 3 0.573977 0.342409 0.131032
121 1 0.600115 0.361489 0.136654
122 3 0.611647 0.355509 0.167182
945 4 0.627662 0.355943 0.190681
944 2 0.663128 0.357723 0.184397
946 4 0.698593 0.359504 0.178113
1013 2 0.741918 0.337893 0.21964
1015 4 0.715004 0.347158 0.197499
965 2 0.768928 0.263388 0.203885
966 4 0.777291 0.291015 0.182269
980 2 0.916453 0.329438 0.134951
1064 2 0.933398 0.277005 0.197531
982 4 0.899487 0.307785 0.15827
1065 4 0.919201 0.291223 0.167585
1066 4 0.947595 0.262787 0.227477
123 3 0.591393 0.393727 0.134507
951 4 0.617141 0.487318 0.212904
950 2 0.623207 0.456732 0.231017
952 4 0.629274 0.426145 0.249131
1326 4 0.768156 0.498489 0.23583
1051 4 0.8397 0.478043 0.145437
1268 2 0.863255 0.503934 0.244482
1049 2 0.860022 0.451706 0.159359
1327 4 0.769835 0.427279 0.224513
1325 2 0.768995 0.462884 0.230171
1050 4 0.880344 0.425369 0.173281
1269 4 0.88522 0.481074 0.261671
282 4 0.903566 0.414492 0.159059
281 2 0.929337 0.41099 0.184039
283 4 0.955109 0.407487 0.209019
394 4 0.983795 0.402338 0.212256
392 2 0.996605 0.430353 0.231003
1297 4 0.544489 0.999012 0.337096
1295 2 0.550713 0.0254542 0.360813
1296 4 0.556937 0.0518963 0.384531
1026 4 0.623562 0.0504754 0.330366
1025 2 0.624172 0.0709167 0.360068
1012 4 0.770418 0.0766829 0.274428
1010 2 0.761292 0.102557 0.251026