ITEM: TIMESTEP
2590000
ITEM: NUMBER OF ATOMS
4590
ITEM: BOX BOUNDS pp pp pp
-9.9985700000000008e+00 9.9985700000000008e+00
-9.9985700000000008e+00 9.9985700000000008e+00
-9.9985700000000008e+00 9.9985700000000008e+00
ITEM: ATOMS id type xs ys zs
370 2 0.0320212 0.0516485 0.0454886
371 4 0.0543913 0.0596917 0.0532388
372 4 0.00965108 0.0436053 0.0377385
3233 4 0.0712182 0.0678899 0.0582153
3232 2 0.0723306 0.0726141 0.0827433
421 2 0.158312 0.0265974 0.0305471
422 4 0.159248 0.0506529 0.0373022
1232 4 0.170309 0.0493427 0.0543913
423 4 0.157376 0.0025418 0.0237919
1231 2 0.172634 0.0501715 0.0792728
567 4 0.215274 0.0969558 0.0156914
2162 4 0.312691 0.0895926 0.0117816
2001 4 0.31357 0.0866009 0.990899
2161 2 0.294619 0.098855 0.0263681
758 4 0.406427 0.0592778 0.0588995
757 2 0.392685 0.0732122 0.0744618
1825 2 0.410549 0.0376491 0.0231391
1827 4 0.40814 0.0424301 0.0475627
1826 4 0.412958 0.0328682 0.998715
2886 4 0.493212 0.0555428 0.0273019
2884 2 0.496608 0.033396 0.0162038
4120 2 0.507282 0.0807445 0.0398415
4122 4 0.494951 0.0730841 0.0194832
2885 4 0.500004 0.0112493 0.00510572
565 2 0.222705 0.0741252 0.00871092
1134 4 0.221395 0.135552 0.0229116
491 4 0.249095 0.143485 0.0914061
1132 2 0.220481 0.14804 0.00126946
492 4 0.274524 0.122365 0.0538829
490 2 0.26181 0.132925 0.0726445
2163 4 0.276546 0.108117 0.0409547
300 4 0.0816725 0.237337 0.0784714
298 2 0.0621511 0.224207 0.086938
363 4 0.0804319 0.243502 0.0599119
931 2 0.196991 0.224123 0.0291532
932 4 0.206371 0.203042 0.0195201
933 4 0.187611 0.245204 0.0387862
34 3 0.176488 0.192095 0.985346
4210 2 0.260784 0.235681 0.0604246
4211 4 0.270262 0.213569 0.0536109
481 2 0.292405 0.191461 0.0226611
483 4 0.279874 0.201166 0.0419995
482 4 0.304936 0.181757 0.00332269
1304 4 0.320282 0.170675 0.998391
4212 4 0.251306 0.257793 0.0672383
664 2 0.35007 0.25058 0.0726705
2681 4 0.49087 0.180801 0.066865
765 4 0.48602 0.19223 0.0830855
2680 2 0.510795 0.166044 0.0700859
361 2 0.093853 0.264323 0.0565124
362 4 0.107274 0.285144 0.0531129
738 4 0.111543 0.302489 0.0625421
736 2 0.12626 0.3216 0.069126
960 4 0.190537 0.263927 0.0303328
958 2 0.175497 0.273332 0.0127107
740 4 0.237525 0.287329 0.0746818
354 4 0.252473 0.300678 0.0718586
352 2 0.261969 0.32315 0.0773381
666 4 0.350465 0.27558 0.0728419
323 4 0.348919 0.292957 0.0629732
322 2 0.348388 0.297756 0.0384403
324 4 0.347856 0.302555 0.0139073
968 4 0.457822 0.252689 0.00371277
1045 2 0.476095 0.283883 0.0546224
1047 4 0.473381 0.291421 0.0783075
1046 4 0.47881 0.276345 0.0309372
454 2 0.0561856 0.36842 0.0258842
456 4 0.0376523 0.384844 0.0293432
455 4 0.074719 0.351997 0.0224253
737 4 0.140977 0.340712 0.0757099
292 2 0.121371 0.419846 0.00843073
294 4 0.118275 0.425047 0.0326905
956 4 0.228531 0.385711 0.0359773
955 2 0.216399 0.404126 0.0241924
782 4 0.24824 0.391636 0.0344854
957 4 0.204267 0.422541 0.0124075
783 4 0.292356 0.414607 0.0396681
781 2 0.270298 0.403122 0.0370767
353 4 0.271465 0.345621 0.0828177
2872 2 0.0421536 0.473685 0.0432955
537 4 0.0726106 0.469448 0.0375577
2874 4 0.0218355 0.459794 0.0477
2873 4 0.0624718 0.487576 0.038891
535 2 0.0968261 0.467177 0.0317587
536 4 0.121042 0.464905 0.0259598
1691 4 0.131172 0.466102 0.00909855
637 2 0.193109 0.455935 0.0244299
1779 4 0.212387 0.492192 0.0185557
639 4 0.198251 0.480329 0.0263571
638 4 0.187968 0.431542 0.0225027
272 4 0.290782 0.432565 0.047036
271 2 0.309884 0.446729 0.0547637
273 4 0.328985 0.460892 0.0624915
1094 4 0.324333 0.438483 0.989125
2567 4 0.383692 0.475914 0.035338
2566 2 0.36618 0.467804 0.0512354
2568 4 0.348667 0.459695 0.0671329
2287 2 0.413881 0.487512 0.021001
2289 4 0.394565 0.493309 0.0357819
2650 2 0.451339 0.487545 0.0735103
2651 4 0.453144 0.462867 0.0771055
2288 4 0.433197 0.481715 0.00622019
2480 4 0.0774157 0.059476 0.159611
3234 4 0.0734431 0.0773382 0.107271
579 4 0.0930291 0.0680704 0.168243
1233 4 0.174959 0.0510003 0.104154
1506 4 0.236225 0.00706731 0.166332
359 4 0.188612 0.0654207 0.105174
1021 2 0.299923 0.0561827 0.135624
1022 4 0.324565 0.0532891 0.13872
1023 4 0.275281 0.0590763 0.132528
582 4 0.330321 0.0585483 0.119837
3836 4 0.339796 0.0158827 0.144401
759 4 0.378944 0.0871467 0.0900241
580 2 0.352541 0.0678458 0.113128
581 4 0.374761 0.0771433 0.106419
744 4 0.411146 0.072198 0.157313
3835 2 0.336464 0.00267363 0.123434
1109 4 0.449367 0.97871 0.110116
577 2 0.0972428 0.0919303 0.162068
544 2 0.10362 0.147592 0.148305
546 4 0.0905632 0.12729 0.141784
578 4 0.101456 0.11579 0.155894
690 4 0.187377 0.121897 0.147726
360 4 0.190723 0.105664 0.134783
358 2 0.189667 0.0855425 0.119979
249 4 0.207279 0.145104 0.132001
247 2 0.231644 0.14916 0.128116
248 4 0.256009 0.153215 0.12423
52 3 0.273728 0.154976 0.134374
2768 4 0.307286 0.13475 0.172845
1760 4 0.419478 0.0875806 0.14611
1759 2 0.41658 0.0988908 0.124
1761 4 0.413682 0.110201 0.10189
299 4 0.0426296 0.211076 0.0954046
554 4 0.0245795 0.212476 0.105142
553 2 0.0145042 0.216679 0.127636
555 4 0.00442888 0.220883 0.150131
2834 4 0.019419 0.223746 0.164495
545 4 0.116677 0.167894 0.154826
53 3 0.283938 0.178307 0.162016
54 3 0.297101 0.183399 0.126728
51 1 0.278828 0.176829 0.13943
251 4 0.312014 0.184972 0.114492
55 3 0.260891 0.190019 0.134642
250 2 0.323777 0.199614 0.097987
665 4 0.349675 0.22558 0.072499
252 4 0.33554 0.214256 0.0814818
629 4 0.398715 0.237691 0.128417
628 2 0.408371 0.223301 0.110393
763 2 0.461755 0.1976 0.0858362
764 4 0.437491 0.202971 0.0885869
630 4 0.418026 0.208911 0.0923695
246 4 0.178438 0.263665 0.169371
244 2 0.195876 0.265054 0.151506
245 4 0.213314 0.266442 0.133641
741 4 0.223399 0.264712 0.116986
739 2 0.230462 0.276021 0.0958339
339 4 0.235999 0.335831 0.146089
337 2 0.248591 0.318015 0.133874
357 4 0.303721 0.26296 0.156045
356 4 0.270457 0.296202 0.13904
355 2 0.287089 0.279581 0.147542
338 4 0.261182 0.300199 0.121658
623 4 0.312938 0.25496 0.172229
521 4 0.335648 0.304414 0.113434
255 4 0.392369 0.254917 0.13371
253 2 0.403646 0.255698 0.156013
520 2 0.357785 0.314562 0.119104
522 4 0.379922 0.324711 0.124773
302 4 0.396087 0.33538 0.127322
658 2 0.454962 0.316703 0.0976089
659 4 0.455539 0.294142 0.0868461
619 2 0.999825 0.415673 0.161398
648 4 0.150792 0.389072 0.110398
646 2 0.141014 0.367987 0.101179
647 4 0.131236 0.346902 0.0919597
1620 4 0.229458 0.350391 0.157431
387 4 0.290146 0.349039 0.0909834
385 2 0.302051 0.369997 0.097633
386 4 0.313956 0.390955 0.104283
303 4 0.39491 0.374352 0.0960099
497 4 0.389549 0.390297 0.107562
301 2 0.395498 0.354866 0.111666
496 2 0.38848 0.413677 0.11636
660 4 0.454385 0.339265 0.108372
713 4 0.458682 0.358728 0.109081
712 2 0.464187 0.382456 0.114726
714 4 0.469692 0.406184 0.120371
495 4 0.470022 0.414769 0.101836
2966 4 0.0103815 0.446159 0.1366
621 4 0.00313139 0.428549 0.140221
314 4 0.00891544 0.508808 0.141709
524 4 0.147892 0.418622 0.146557
523 2 0.169901 0.43046 0.145772
1790 4 0.142109 0.482845 0.161684
1789 2 0.165423 0.488099 0.154332
914 4 0.208379 0.452049 0.139148
913 2 0.23333 0.450496 0.138668
525 4 0.191911 0.442298 0.144987
915 4 0.25828 0.448943 0.138188
1791 4 0.188737 0.493353 0.14698
1560 4 0.199524 0.506194 0.156438
756 4 0.268531 0.463413 0.113566
754 2 0.275637 0.479648 0.0959282
507 4 0.281344 0.443223 0.131397
505 2 0.304055 0.437018 0.139815
506 4 0.326767 0.430812 0.148234
498 4 0.387411 0.437057 0.125158
541 2 0.403522 0.472767 0.120337
543 4 0.385381 0.455618 0.121747
542 4 0.421663 0.489916 0.118927
494 4 0.440356 0.447648 0.0786056
493 2 0.455189 0.431209 0.0902207
2479 2 0.0531276 0.0544305 0.156479
2799 4 0.0174097 0.0401733 0.167108
2481 4 0.0288394 0.0493849 0.153347
589 2 0.0713517 0.0513025 0.225882
590 4 0.0507714 0.0654333 0.224486
380 4 0.0308402 0.0670449 0.223005
591 4 0.091932 0.0371717 0.227278
3810 4 0.0851952 0.0182349 0.231238
1553 4 0.105372 0.000987546 0.195731
1504 2 0.254124 0.0224725 0.174546
1505 4 0.272024 0.0378776 0.18276
461 4 0.291849 0.038097 0.18507
460 2 0.299446 0.0259816 0.20558
462 4 0.307044 0.0138661 0.22609
332 4 0.326472 0.00973149 0.228776
742 2 0.427326 0.0548972 0.165318
2467 2 0.474877 0.0484298 0.198533
743 4 0.443505 0.0375963 0.173323
2468 4 0.454212 0.0362812 0.191422
688 2 0.188464 0.118744 0.172506
689 4 0.189551 0.115592 0.197287
1700 4 0.199115 0.110822 0.215077
1699 2 0.195573 0.128582 0.232316
1701 4 0.19203 0.146343 0.249555
2769 4 0.337263 0.154209 0.207823
2767 2 0.322275 0.144479 0.190334
404 4 0.347838 0.137319 0.212934
403 2 0.358812 0.141392 0.235028
405 4 0.369787 0.145465 0.257123
617 4 0.113206 0.17272 0.173522
618 4 0.120342 0.180241 0.222443
616 2 0.116774 0.17648 0.197982
2463 4 0.125635 0.168837 0.238643
410 4 0.209573 0.1488 0.259806
528 4 0.249769 0.192668 0.238586
526 2 0.256903 0.208152 0.220296
527 4 0.264038 0.223636 0.202006
624 4 0.282811 0.2222 0.195029
622 2 0.297874 0.23858 0.183629
760 2 0.446246 0.240944 0.198817
762 4 0.460133 0.222865 0.209088
708 4 0.452948 0.20496 0.202392
706 2 0.453102 0.186664 0.219435
707 4 0.453256 0.168369 0.236477
2833 2 0.0170326 0.244871 0.177656
2835 4 0.0146462 0.265997 0.190817
465 4 0.0751899 0.293688 0.235759
476 4 0.122372 0.318563 0.248996
464 4 0.110494 0.329102 0.235387
463 2 0.0928421 0.311395 0.235573
13 3 0.323469 0.283556 0.184412
15 3 0.345873 0.257265 0.199394
14 3 0.360995 0.284696 0.178502
11 1 0.344304 0.279252 0.193674
12 3 0.346879 0.292187 0.212521
641 4 0.358574 0.281553 0.22465
612 4 0.373307 0.299834 0.174001
254 4 0.414922 0.256479 0.178315
610 2 0.37641 0.323977 0.179716
640 2 0.366226 0.26869 0.24468
761 4 0.432359 0.259023 0.188547
1776 4 0.0743974 0.358604 0.153711
620 4 0.99652 0.402797 0.182575
704 4 0.00984609 0.397587 0.197615
705 4 0.0482516 0.41053 0.22691
703 2 0.0290488 0.404058 0.212262
1774 2 0.0862588 0.365092 0.174744
1775 4 0.0981202 0.371579 0.195777
1618 2 0.235839 0.354809 0.181199
1619 4 0.24222 0.359227 0.204968
344 4 0.243601 0.406269 0.216124
611 4 0.379513 0.34812 0.185431
308 4 0.378604 0.361474 0.199062
307 2 0.391991 0.381689 0.20517
309 4 0.405378 0.401904 0.211279
735 4 0.0562585 0.428708 0.226613
733 2 0.0734947 0.446146 0.221715
1766 4 0.14081 0.491259 0.17998
734 4 0.0907309 0.463585 0.216817
1767 4 0.102444 0.466502 0.200371
1765 2 0.121627 0.478881 0.190176
343 2 0.253327 0.428976 0.219991
287 4 0.318382 0.480544 0.197571
345 4 0.263054 0.451683 0.223857
602 4 0.263013 0.467605 0.212918
601 2 0.271525 0.489658 0.221067
286 2 0.325975 0.462387 0.212994
1575 4 0.321506 0.499761 0.19602
288 4 0.333569 0.444231 0.228416
231 4 0.345193 0.453104 0.242917
1453 2 0.414641 0.441478 0.228468
229 2 0.353634 0.432827 0.254865
1454 4 0.401122 0.455769 0.213035
1455 4 0.42816 0.427188 0.243901
379 2 0.0278795 0.0786064 0.244977
19 3 0.0114449 0.0727985 0.319142
381 4 0.0249189 0.0901678 0.266948
675 4 0.10455 0.0851384 0.289127
285 4 0.131804 0.027975 0.305638
674 4 0.120186 0.0426231 0.310309
283 2 0.155581 0.0202893 0.304772
673 2 0.112368 0.0638807 0.299718
3808 2 0.0901444 0.00923147 0.254034
284 4 0.179358 0.0126037 0.303905
1404 4 0.223572 0.060979 0.284831
1402 2 0.205013 0.046327 0.292959
1403 4 0.186454 0.0316751 0.301086
1479 4 0.241326 0.0537331 0.292379
1477 2 0.262441 0.0602564 0.304075
1478 4 0.283556 0.0667796 0.31577
1427 4 0.378793 0.0121809 0.265526
1426 2 0.367385 0.0214396 0.285758
1428 4 0.355977 0.0306983 0.305989
258 4 0.354683 0.0444807 0.319659
1731 4 0.481075 0.0455589 0.271235
1729 2 0.480615 0.0231556 0.260142
1730 4 0.480154 0.000752268 0.249049
2664 4 0.480469 0.0247686 0.307131
2662 2 0.480858 0.0489228 0.313581
2663 4 0.481247 0.073077 0.320031
366 4 0.00226324 0.105653 0.331794
16 1 0.00239137 0.0873027 0.303455
20 3 0.0148489 0.0868956 0.284395
512 4 0.0609389 0.100339 0.314634
511 2 0.0826432 0.112733 0.313922
513 4 0.104348 0.125126 0.31321
693 4 0.159067 0.107654 0.307776
691 2 0.1728 0.104817 0.287074
692 4 0.186532 0.101979 0.266373
1407 4 0.226255 0.1447 0.326957
684 4 0.233714 0.147108 0.307793
1405 2 0.204347 0.138992 0.337571
473 4 0.328311 0.140194 0.266031
682 2 0.25616 0.14178 0.29815
474 4 0.286072 0.154433 0.288698
683 4 0.278606 0.136452 0.288508
472 2 0.307191 0.147314 0.277365
633 4 0.39058 0.146754 0.253975
631 2 0.412191 0.158084 0.248518
2898 4 0.0772982 0.23657 0.27335
2896 2 0.0824644 0.212761 0.278975
2718 4 0.0627151 0.250532 0.272311
2897 4 0.0876306 0.188953 0.284599
2461 2 0.111136 0.170064 0.258976
2462 4 0.0966366 0.17129 0.27931
409 2 0.209208 0.172251 0.268474
411 4 0.208843 0.195701 0.277143
489 4 0.217132 0.206845 0.290436
487 2 0.230816 0.224678 0.301386
488 4 0.2445 0.242511 0.312336
310 2 0.409354 0.232091 0.271045
312 4 0.388336 0.245506 0.272908
642 4 0.373877 0.255827 0.264709
632 4 0.433801 0.169414 0.243061
311 4 0.430371 0.218676 0.269182
2717 4 0.0579759 0.293647 0.247424
2716 2 0.0603455 0.27209 0.259868
475 2 0.144904 0.323955 0.258399
677 4 0.247428 0.258549 0.302293
477 4 0.167436 0.329347 0.267802
402 4 0.201009 0.351983 0.303838
676 2 0.267362 0.270128 0.311973
678 4 0.287297 0.281707 0.321654
2 3 0.279045 0.328251 0.312418
117 3 0.400785 0.323683 0.306362
752 4 0.419706 0.323768 0.301168
120 3 0.372289 0.334179 0.328058
751 2 0.434294 0.316139 0.282349
753 4 0.448883 0.308509 0.26353
391 2 0.0175846 0.376428 0.30507
392 4 0.0161297 0.395048 0.321694
393 4 0.0190396 0.357808 0.288446
401 4 0.177812 0.343824 0.260295
400 2 0.18941 0.347904 0.282066
436 2 0.273443 0.37367 0.317203
437 4 0.276554 0.349578 0.311281
438 4 0.270332 0.397763 0.323124
230 4 0.362075 0.41255 0.266814
408 4 0.0132529 0.428431 0.272917
407 4 0.00868227 0.435746 0.322174
406 2 0.0109676 0.432088 0.297546
2297 4 0.0291484 0.433722 0.327228
768 4 0.0864481 0.463486 0.347467
727 2 0.160567 0.506682 0.2893
767 4 0.116644 0.453014 0.309006
728 4 0.137708 0.512978 0.297239
766 2 0.101546 0.45825 0.328236
1811 4 0.133822 0.492333 0.346217
501 4 0.196961 0.494549 0.295097
667 2 0.410765 0.435726 0.29186
668 4 0.400066 0.430738 0.313901
669 4 0.421465 0.440715 0.269819
721 2 0.0156357 0.0819795 0.355429
722 4 0.0190713 0.0750126 0.379195
732 4 0.146432 0.0847038 0.36137
397 2 0.150136 0.0717522 0.401914
398 4 0.151198 0.0831635 0.379692
2237 4 0.217924 0.00294241 0.4093
1057 2 0.25498 0.0156676 0.391959
900 4 0.290769 0.0291713 0.372908
899 4 0.279788 0.0585878 0.333988
898 2 0.285278 0.0438795 0.353448
1059 4 0.279211 0.0196911 0.387286
256 2 0.355283 0.0489813 0.344247
1031 4 0.35741 0.046809 0.389105
257 4 0.355884 0.0534819 0.368834
1030 2 0.38113 0.0399971 0.393125
1032 4 0.404849 0.0331851 0.397145
1517 4 0.492807 0.0850221 0.333966
723 4 0.0122 0.0889464 0.331663
1033 2 0.0721155 0.102807 0.40601
1035 4 0.0822612 0.110558 0.384512
342 4 0.1628 0.164369 0.400985
730 2 0.162275 0.100774 0.350603
731 4 0.178118 0.116843 0.339835
1406 4 0.18244 0.133284 0.348186
341 4 0.181095 0.119474 0.413249
1782 4 0.200385 0.122716 0.410692
340 2 0.171948 0.141922 0.407117
588 4 0.166182 0.18415 0.403629
586 2 0.185314 0.19847 0.410984
587 4 0.204446 0.212789 0.418339
1219 2 0.0751599 0.327437 0.38583
1220 4 0.0795879 0.303644 0.379547
291 4 0.0915242 0.287027 0.380039
289 2 0.116074 0.28706 0.375295
290 4 0.140623 0.287092 0.370551
390 4 0.146918 0.28379 0.352538
389 4 0.190403 0.268381 0.371834
388 2 0.16866 0.276085 0.362186
615 4 0.206744 0.276991 0.380361
613 2 0.220252 0.263849 0.396793
614 4 0.23376 0.250706 0.413224
3 3 0.289042 0.298233 0.332707
4 3 0.310691 0.32947 0.332658
1 1 0.288935 0.321427 0.332033
649 2 0.316997 0.297871 0.407837
650 4 0.325034 0.304709 0.385169
435 4 0.338809 0.294259 0.374068
5 3 0.277098 0.329659 0.349662
433 2 0.349804 0.310709 0.358783
118 3 0.389652 0.301397 0.334506
434 4 0.3608 0.32716 0.343497
116 1 0.392367 0.323435 0.327769
334 2 0.495668 0.320354 0.346152
335 4 0.489786 0.337615 0.363259
417 4 0.0188494 0.397174 0.340595
1221 4 0.0707319 0.35123 0.392113
416 4 0.0481496 0.389565 0.380399
415 2 0.0334995 0.393369 0.360497
3107 4 0.0579691 0.359726 0.405803
1756 2 0.131282 0.344663 0.374307
1758 4 0.150267 0.349012 0.358628
1757 4 0.112298 0.340313 0.389986
326 4 0.111672 0.357325 0.402425
414 4 0.270991 0.409792 0.338253
119 3 0.407329 0.334233 0.341838
926 4 0.422282 0.341371 0.35307
925 2 0.446861 0.342771 0.35744
927 4 0.47144 0.344171 0.36181
1743 4 0.448867 0.397854 0.417758
1472 4 0.449812 0.403431 0.398733
2296 2 0.04777 0.446741 0.337663
2298 4 0.0663917 0.459761 0.348099
413 4 0.234555 0.442047 0.349777
1862 4 0.229684 0.461026 0.354967
1861 2 0.234614 0.484167 0.36305
412 2 0.252773 0.42592 0.344015
1437 4 0.387955 0.434865 0.329272
1587 4 0.366814 0.475219 0.382128
1436 4 0.370299 0.461349 0.367842
1435 2 0.379127 0.448107 0.348557
1585 2 0.362625 0.479907 0.406328
108 3 0.467368 0.503039 0.399229
2925 4 0.502563 0.443215 0.325739
1803 4 0.449698 0.470885 0.339885
107 3 0.498091 0.488551 0.415319
2924 4 0.466485 0.46734 0.35058
2923 2 0.484524 0.455278 0.33816
1473 4 0.476013 0.445699 0.403997
110 3 0.470854 0.46582 0.403729
1801 2 0.429641 0.485186 0.34417
1471 2 0.462913 0.424565 0.401365
106 1 0.482084 0.485099 0.399163
109 3 0.492511 0.483483 0.378497
1127 4 0.025765 0.0674072 0.456821
3236 4 0.0160943 0.0513731 0.460722
1126 2 0.0472998 0.0787129 0.451023
686 4 0.0799372 0.0500044 0.468173
3266 4 0.0055542 0.0889297 0.501255
685 2 0.091503 0.0356215 0.451305
1771 2 0.138065 0.00509952 0.437357
687 4 0.103069 0.0212386 0.434436
1772 4 0.117937 0.0167077 0.446594
318 4 0.168895 0.0580479 0.425854
1773 4 0.158192 0.993491 0.428121
1058 4 0.230748 0.0116442 0.396632
316 2 0.17547 0.0617138 0.449697
2236 2 0.197316 0.995729 0.421486
317 4 0.182044 0.0653797 0.473541
319 2 0.251508 0.0717276 0.442807
320 4 0.263823 0.0571152 0.458931
1152 4 0.258191 0.0700032 0.473959
1150 2 0.263451 0.0769353 0.497399
2018 4 0.361728 0.0124724 0.427836
305 4 0.441929 0.0909083 0.491719
1128 4 0.0688346 0.0900187 0.445226
1034 4 0.0619699 0.0950554 0.427508
399 4 0.149074 0.0603409 0.424136
321 4 0.239193 0.0863401 0.426682
1780 2 0.217782 0.112093 0.425173
1781 4 0.235178 0.101469 0.439654
304 2 0.447342 0.0990047 0.46869
306 4 0.452755 0.107101 0.445661
715 2 0.479691 0.0896529 0.418332
717 4 0.465376 0.106163 0.430484
346 2 0.0145062 0.220147 0.447333
348 4 0.0376469 0.21242 0.441858
383 4 0.0459715 0.204494 0.458155
382 2 0.0696103 0.209682 0.464437
384 4 0.0932491 0.214871 0.47072
510 4 0.111651 0.217783 0.463728
508 2 0.133772 0.212635 0.474184
509 4 0.155894 0.207488 0.484639
431 4 0.199784 0.224415 0.434186
430 2 0.196014 0.244434 0.448685
606 4 0.352514 0.159252 0.492579
3158 4 0.356774 0.171129 0.476481
468 4 0.367541 0.229009 0.478262
3159 4 0.349654 0.220627 0.476302
3157 2 0.353214 0.195878 0.476391
265 2 0.454319 0.229843 0.480523
267 4 0.431741 0.219698 0.476994
266 4 0.476898 0.239989 0.484052
3037 2 0.0530892 0.304652 0.456789
3038 4 0.0776732 0.300172 0.45593
3039 4 0.0285052 0.309132 0.457648
432 4 0.192245 0.264452 0.463184
576 4 0.195572 0.277872 0.476806
574 2 0.208861 0.296396 0.466536
240 4 0.227776 0.332255 0.464711
575 4 0.222149 0.314919 0.456266
651 4 0.308959 0.291034 0.430505
811 2 0.30538 0.283079 0.467739
812 4 0.304957 0.298758 0.448267
813 4 0.305804 0.267399 0.487211
466 2 0.360692 0.251289 0.469214
467 4 0.353843 0.273569 0.460167
378 4 0.356263 0.293747 0.458941
376 2 0.358199 0.313352 0.474338
377 4 0.360136 0.332956 0.489736
952 2 0.504138 0.234325 0.45346
954 4 0.483919 0.241158 0.466485
3308 4 0.444113 0.263684 0.467272
3307 2 0.446043 0.283345 0.451946
3309 4 0.447973 0.303006 0.436619
1382 4 0.0304784 0.392115 0.447049
1381 2 0.0147304 0.410465 0.440688
852 4 0.0623552 0.40552 0.473879
3108 4 0.0440838 0.37763 0.450383
3106 2 0.0510265 0.368678 0.428093
850 2 0.0720364 0.3986 0.495869
327 4 0.113012 0.367986 0.451264
325 2 0.112342 0.362656 0.426844
238 2 0.2306 0.34798 0.483944
772 2 0.267283 0.387948 0.490906
773 4 0.282914 0.405967 0.483413
791 4 0.292956 0.413103 0.468394
446 4 0.370179 0.361859 0.461399
445 2 0.36054 0.376552 0.443611
447 4 0.350901 0.391244 0.425823
930 4 0.362382 0.406053 0.420667
2457 4 0.386565 0.351265 0.468158
2455 2 0.409837 0.344537 0.474349
1741 2 0.458516 0.377894 0.429319
1742 4 0.468165 0.357933 0.44088
807 4 0.451412 0.344549 0.487311
2456 4 0.433109 0.337809 0.480541
805 2 0.476198 0.342629 0.48464
806 4 0.500984 0.340709 0.481969
503 4 0.0543027 0.42717 0.459473
2548 2 0.0279289 0.495412 0.446031
2550 4 0.0385772 0.480761 0.463269
502 2 0.047482 0.448889 0.469814
504 4 0.0406613 0.470608 0.480155
1820 4 0.163781 0.439984 0.499022
2154 4 0.332551 0.451946 0.506167
792 4 0.32534 0.443334 0.491592
790 2 0.309148 0.428218 0.479993
929 4 0.385303 0.450079 0.426751
584 4 0.409131 0.478741 0.471324
583 2 0.403916 0.471948 0.447833
1586 4 0.358437 0.484595 0.430529
2355 4 0.39277 0.473387 0.48307
928 2 0.373842 0.428066 0.423709
585 4 0.398701 0.465156 0.424341
1271 4 0.0485195 0.0344856 0.554734
459 4 0.0563506 0.0386437 0.573584
1270 2 0.0431287 0.0156968 0.539142
910 2 0.173226 0.0431349 0.564624
912 4 0.188577 0.0461678 0.545122
921 4 0.197242 0.0467304 0.527289
919 2 0.201599 0.0274115 0.512026
920 4 0.205956 0.00809253 0.496763
3269 4 0.486651 0.0544528 0.51427
3268 2 0.464533 0.0653958 0.51024
3270 4 0.442416 0.0763388 0.506209
1218 4 0.484183 0.993315 0.584503
2374 2 0.104513 0.14579 0.577244
2376 4 0.0934071 0.140129 0.555569
939 4 0.252196 0.143709 0.550957
1151 4 0.26871 0.0838673 0.52084
894 4 0.276341 0.111313 0.585154
938 4 0.258652 0.115749 0.591911
937 2 0.255424 0.129729 0.571434
892 2 0.292501 0.0923773 0.587485
604 2 0.344895 0.144395 0.511191
605 4 0.337275 0.129538 0.529802
47 3 0.499336 0.163351 0.562696
1198 2 0.031554 0.221837 0.544267
1199 4 0.0471677 0.220054 0.52482
3275 4 0.0650957 0.219841 0.533157
1200 4 0.0159403 0.223619 0.563715
3274 2 0.0865312 0.232015 0.528976
3276 4 0.107967 0.24419 0.524795
570 4 0.168125 0.243478 0.532286
569 4 0.217632 0.241982 0.539182
568 2 0.192879 0.24273 0.535734
48 3 0.474603 0.190688 0.57002
46 1 0.496441 0.183561 0.573295
2447 4 0.109699 0.262163 0.535006
2446 2 0.112875 0.269421 0.558721
710 4 0.108557 0.293845 0.587211
709 2 0.109309 0.318661 0.584251
2448 4 0.11605 0.27668 0.582437
695 4 0.224635 0.257261 0.5495
694 2 0.247689 0.264289 0.556158
635 4 0.28635 0.276358 0.550992
634 2 0.296459 0.274666 0.528186
696 4 0.270743 0.271316 0.562815
1135 2 0.303168 0.324993 0.588508
636 4 0.306569 0.272975 0.50538
1137 4 0.280972 0.332413 0.579707
851 4 0.0817177 0.391679 0.517859
1190 4 0.0811613 0.378093 0.532681
1189 2 0.0872473 0.365333 0.553304
1191 4 0.0933334 0.352572 0.573926
711 4 0.110062 0.343478 0.581291
239 4 0.233423 0.363705 0.503178
774 4 0.251651 0.369929 0.498399
1172 4 0.0618033 0.484159 0.584071
8 3 0.0325181 0.439791 0.573991
1445 4 0.177007 0.414953 0.578015
1821 4 0.193302 0.465553 0.530255
1239 4 0.210099 0.472651 0.538714
1237 2 0.224935 0.45517 0.548689
1238 4 0.23977 0.437689 0.558663
2142 4 0.230048 0.434894 0.575313
1819 2 0.178541 0.452769 0.514638
2152 2 0.327327 0.462323 0.528307
2153 4 0.322102 0.4727 0.550448
2223 4 0.31791 0.480746 0.568141
2353 2 0.387847 0.481703 0.506131
2354 4 0.382925 0.490019 0.529192
1267 2 0.394432 0.481642 0.563077
1268 4 0.381733 0.497534 0.548539
1251 4 0.423931 0.473264 0.582849
457 2 0.0704836 0.0510833 0.590037
458 4 0.0846166 0.0635229 0.606489
1601 4 0.101272 0.0533217 0.604761
1600 2 0.126019 0.0501292 0.603163
1602 4 0.150766 0.0469368 0.601565
911 4 0.157875 0.040102 0.584126
2049 4 0.219847 0.00435667 0.65877
1163 4 0.37368 0.0387494 0.577943
798 4 0.414448 0.0742044 0.617175
797 4 0.38203 0.0419573 0.596929
796 2 0.398239 0.0580808 0.607052
1162 2 0.364452 0.0166313 0.585071
3383 4 0.0090495 0.0828313 0.642295
3382 2 0.022508 0.0932106 0.660634
3003 4 0.00758594 0.0734764 0.625193
2375 4 0.115618 0.151451 0.598919
824 4 0.125153 0.134529 0.601337
1282 2 0.140175 0.0952019 0.644747
823 2 0.144996 0.142966 0.613996
825 4 0.164839 0.151402 0.626655
1283 4 0.147152 0.108015 0.62444
893 4 0.308662 0.0734412 0.589816
43 3 0.402886 0.0875508 0.627479
41 1 0.396518 0.101216 0.645118
45 3 0.37423 0.0988295 0.649141
42 3 0.40091 0.123095 0.639536
44 3 0.408627 0.0957523 0.664142
2133 4 0.169652 0.170726 0.632947
2131 2 0.192603 0.171619 0.642828
858 4 0.280778 0.253811 0.619177
1193 4 0.366564 0.197616 0.636044
1192 2 0.379182 0.216421 0.646643
1194 4 0.391801 0.235225 0.657243
1025 4 0.410338 0.22902 0.657249
49 3 0.500558 0.180801 0.595963
4465 2 0.471656 0.201612 0.62041
4467 4 0.460115 0.211963 0.640027
4466 4 0.483198 0.191262 0.600793
1026 4 0.460171 0.224922 0.656524
1024 2 0.435255 0.226971 0.656886
374 4 0.0587445 0.322816 0.625796
897 4 0.0731365 0.306878 0.626135
895 2 0.092646 0.298972 0.639627
896 4 0.112156 0.291066 0.65312
1155 4 0.131248 0.28459 0.656041
856 2 0.261521 0.269311 0.622932
857 4 0.242265 0.284812 0.626688
275 4 0.245623 0.292996 0.644266
274 2 0.24499 0.309642 0.662913
1136 4 0.325364 0.317572 0.597309
936 4 0.337495 0.322586 0.612199
934 2 0.35287 0.33162 0.629726
982 2 0.0554223 0.402255 0.614926
983 4 0.0604413 0.380021 0.625204
375 4 0.0592646 0.369694 0.643201
373 2 0.0590046 0.346255 0.634498
1446 4 0.131625 0.404715 0.596355
1444 2 0.154316 0.409834 0.587185
276 4 0.244357 0.326287 0.68156
1952 4 0.308313 0.38563 0.623504
1951 2 0.31864 0.37867 0.645186
1953 4 0.328966 0.37171 0.666868
935 4 0.368244 0.340653 0.647253
662 4 0.361431 0.359113 0.647102
661 2 0.381291 0.370729 0.656892
663 4 0.40115 0.382346 0.666682
4485 4 0.409944 0.398785 0.657165
4335 4 0.492585 0.354739 0.584613
3113 4 0.493718 0.339806 0.598176
10 3 0.0431483 0.473731 0.586349
6 1 0.0380372 0.452448 0.592638
7 3 0.0563183 0.442984 0.602904
984 4 0.0504033 0.424489 0.604649
9 3 0.020304 0.452657 0.607602
1040 4 0.00112596 0.456837 0.608396
2137 2 0.00530771 0.486741 0.673767
1039 2 0.987885 0.441766 0.62332
2172 4 0.125417 0.417863 0.609541
2170 2 0.128746 0.426071 0.632923
2171 4 0.132075 0.434279 0.656305
1161 4 0.141678 0.43102 0.674057
2140 2 0.240433 0.428083 0.597014
2141 4 0.250817 0.421272 0.618716
1269 4 0.40713 0.46575 0.577616
4483 2 0.407859 0.416265 0.639408
4484 4 0.405774 0.433744 0.621651
1250 4 0.425611 0.440102 0.620242
1249 2 0.424771 0.456683 0.601546
2117 4 0.455155 0.483854 0.637865
4521 4 0.0478039 0.0497151 0.72815
1226 4 0.0588183 0.0572402 0.712853
1225 2 0.0559316 0.0784396 0.699914
4519 2 0.0233497 0.0447029 0.729582
4520 4 0.998896 0.0396907 0.731014
1202 4 0.122775 0.0670932 0.672335
1183 2 0.107144 0.00968697 0.727058
1201 2 0.112248 0.0517028 0.688994
1203 4 0.101721 0.0363125 0.705652
1184 4 0.104774 0.0150757 0.702757
950 4 0.377876 0.0374058 0.694399
949 2 0.366514 0.0153993 0.690964
1003 2 0.368577 0.0752954 0.690099
1005 4 0.364733 0.05217 0.698796
1144 2 0.435679 0.0352836 0.71235
2264 4 0.45544 0.0697329 0.69115
1146 4 0.445273 0.0524796 0.69694
2263 2 0.478717 0.0787342 0.689616
1145 4 0.426086 0.0180875 0.727759
3384 4 0.0359666 0.10359 0.678973
1227 4 0.0530449 0.0996391 0.686974
1284 4 0.133199 0.0823888 0.665053
1130 4 0.153144 0.142206 0.708775
1129 2 0.159493 0.164368 0.699094
2132 4 0.215554 0.172512 0.652709
976 2 0.275532 0.145535 0.743202
1143 4 0.367155 0.107869 0.665938
1142 4 0.354752 0.151276 0.687449
1004 4 0.372421 0.0984207 0.681403
1141 2 0.360954 0.129572 0.676694
979 2 0.360197 0.158075 0.731032
1260 4 0.0563345 0.207032 0.725612
1258 2 0.0426353 0.220277 0.7418
2990 4 0.148448 0.243406 0.685756
2989 2 0.160113 0.222551 0.693115
1131 4 0.165843 0.18653 0.689414
1154 4 0.140404 0.257259 0.696906
2991 4 0.171778 0.201695 0.700473
1244 4 0.216384 0.166986 0.672721
1245 4 0.227233 0.191558 0.714902
1243 2 0.221808 0.179272 0.693812
948 4 0.223119 0.241635 0.677173
946 2 0.241583 0.233152 0.691743
1208 4 0.208586 0.251499 0.684598
978 4 0.279656 0.164979 0.728033
1212 4 0.292481 0.179351 0.716794
1210 2 0.290531 0.188615 0.693651
1211 4 0.288582 0.197879 0.670509
947 4 0.260047 0.224668 0.706313
1029 4 0.28092 0.223739 0.712921
1027 2 0.284029 0.243355 0.728111
981 4 0.35223 0.155675 0.707454
2358 4 0.0584185 0.297921 0.69566
2356 2 0.0359396 0.308674 0.693598
2357 4 0.0134607 0.319427 0.691536
1153 2 0.135826 0.270924 0.676473
1209 4 0.1829 0.294395 0.685536
1207 2 0.195743 0.272947 0.685067
1028 4 0.287138 0.262971 0.743301
1098 4 0.316451 0.308333 0.67591
1096 2 0.332728 0.289353 0.675898
2986 2 0.391758 0.24787 0.735629
2987 4 0.399407 0.270322 0.727719
1097 4 0.349004 0.270372 0.675885
1064 4 0.415158 0.281987 0.72367
1063 2 0.435742 0.295425 0.719095
1065 4 0.456326 0.308862 0.71452
3191 4 0.466568 0.310037 0.733669
878 4 0.231995 0.342163 0.683996
877 2 0.23604 0.364894 0.693596
879 4 0.240085 0.387624 0.703196
1188 4 0.224543 0.398488 0.708868
1186 2 0.200726 0.401945 0.71565
1187 4 0.17691 0.405402 0.722432
1019 4 0.483138 0.38893 0.749718
2138 4 0.0182852 0.486987 0.695138
4175 4 0.0726432 0.482751 0.687684
4174 2 0.0614463 0.483302 0.710034
4176 4 0.0502495 0.483853 0.732384
4481 4 0.0420058 0.468466 0.742445
1159 2 0.155129 0.416291 0.689134
1160 4 0.16858 0.401563 0.704211
1316 4 0.179448 0.498237 0.750788
890 4 0.228018 0.492741 0.713282
1315 2 0.19449 0.499393 0.730848
889 2 0.251728 0.486934 0.718696
1910 4 0.287659 0.492923 0.71468
1909 2 0.304667 0.475009 0.718551
1911 4 0.321676 0.457095 0.722422
891 4 0.275438 0.481127 0.724109
1139 4 0.344275 0.436036 0.744497
1292 4 0.351912 0.416628 0.745616
2169 4 0.484537 0.484708 0.72324
3023 4 0.492179 0.490891 0.705312
944 4 0.128341 0.0551702 0.790776
943 2 0.118845 0.0389347 0.774302
945 4 0.109349 0.0226991 0.757827
2114 4 0.126448 0.0549385 0.810841
1247 4 0.158672 0.0763046 0.842675
2113 2 0.108694 0.071935 0.815431
974 4 0.30578 0.077036 0.764271
1086 4 0.324013 0.00797483 0.785153
3355 2 0.363994 0.996723 0.784686
3357 4 0.339302 0.994735 0.788082
2062 2 0.478041 0.057958 0.79574
2063 4 0.469664 0.0658804 0.817926
2064 4 0.486418 0.0500357 0.773553
3295 2 0.00226046 0.149992 0.764439
1296 4 0.0382529 0.137404 0.784923
1294 2 0.057421 0.148732 0.773546
1295 4 0.0765891 0.16006 0.762169
3296 4 0.0207829 0.137508 0.775675
2115 4 0.0909389 0.0889314 0.820022
1083 4 0.095973 0.157522 0.761571