ITEM: TIMESTEP
1520000
ITEM: NUMBER OF ATOMS
4800
ITEM: BOX BOUNDS pp pp pp
-9.9985700000000008e+00 9.9985700000000008e+00
-9.9985700000000008e+00 9.9985700000000008e+00
-9.9985700000000008e+00 9.9985700000000008e+00
ITEM: ATOMS id type xs ys zs
1438 2 0.168471 0.0690628 0.0666907
298 3 0.146254 0.0504776 0.00659605
1440 4 0.175809 0.0596884 0.044703
1002 4 0.113158 0.0251761 0.0845493
300 3 0.178083 0.0493449 0.0266774
296 1 0.169177 0.0540587 0.00625425
948 4 0.245655 0.0645731 0.0139774
297 3 0.17318 0.0761292 0.0011537
946 2 0.266079 0.0585927 0.0271023
1475 4 0.302242 0.0413788 0.0328088
947 4 0.286504 0.0526123 0.0402272
1474 2 0.303877 0.0166594 0.0294237
2841 4 0.490761 0.0764057 0.0768601
3536 4 0.000673415 0.121764 0.0105154
1670 4 0.0129921 0.117894 0.995351
1183 2 0.241232 0.103464 0.000577628
1184 4 0.25226 0.0827841 0.00928963
2226 4 0.379916 0.0907399 0.00480269
1010 4 0.047917 0.200437 0.0379826
1032 4 0.0293303 0.195702 0.0338851
1030 2 0.00677162 0.205123 0.0286386
1009 2 0.0715161 0.192214 0.0387946
1011 4 0.0951152 0.183992 0.0396066
938 4 0.112866 0.194812 0.0373695
937 2 0.131049 0.192046 0.0204309
939 4 0.149232 0.189281 0.00349227
1254 4 0.164395 0.232512 0.066637
1220 4 0.225663 0.193187 0.071541
825 4 0.227704 0.247934 0.028094
1694 4 0.232824 0.245571 0.0095299
1219 2 0.247232 0.194327 0.0841362
777 4 0.420964 0.229905 0.0800381
1216 2 0.418832 0.203892 0.00586944
1098 4 0.405727 0.218995 0.0829769
1218 4 0.417915 0.180248 0.99779
776 4 0.422819 0.239565 0.0310078
775 2 0.421891 0.234735 0.0555229
1217 4 0.41975 0.227537 0.0139488
3410 4 0.443936 0.206825 0.0721421
3409 2 0.468045 0.201963 0.0676366
3411 4 0.492154 0.197101 0.063131
1252 2 0.159758 0.24916 0.0485676
837 4 0.146623 0.283693 0.03686
1253 4 0.15512 0.265809 0.0304983
835 2 0.134942 0.301266 0.023447
836 4 0.12326 0.318839 0.010034
963 4 0.206053 0.28843 0.0734249
824 4 0.200293 0.274786 0.060161
823 2 0.213999 0.26136 0.0441275
1050 4 0.275752 0.312572 0.0877653
1048 2 0.28096 0.315465 0.0634819
1049 4 0.286168 0.318359 0.0391985
1509 4 0.449793 0.295976 0.0645968
1739 4 0.432121 0.303455 0.0608959
1738 2 0.438994 0.308245 0.0373379
1740 4 0.445868 0.313036 0.0137799
1733 4 0.0358355 0.335613 0.0528902
1732 2 0.0209513 0.355506 0.0500802
1734 4 0.00606711 0.3754 0.0472703
802 2 0.0496663 0.407778 0.0690066
2717 4 0.0130793 0.391508 0.0383608
804 4 0.0428927 0.419764 0.0481349
1003 2 0.163165 0.370882 0.0693364
1374 4 0.196042 0.382832 0.0648561
1005 4 0.177849 0.386345 0.0562805
1372 2 0.21048 0.396868 0.0796782
1724 4 0.242806 0.38201 0.0291649
1406 4 0.296776 0.324706 0.0237481
1405 2 0.319329 0.325037 0.0129595
1723 2 0.25724 0.402114 0.0256061
878 4 0.33672 0.426694 0.0549621
976 2 0.37434 0.418317 0.0563787
978 4 0.394778 0.40865 0.0670573
1205 4 0.40365 0.410238 0.0845244
2700 4 0.136781 0.477705 0.0257138
1913 4 0.237908 0.482644 0.0588126
1725 4 0.271673 0.422218 0.0220473
877 2 0.317059 0.437187 0.0662984
1751 4 0.256845 0.485859 0.0661613
1551 4 0.285474 0.435956 0.0246603
879 4 0.297398 0.44768 0.0776347
1549 2 0.293494 0.451637 0.00691301
977 4 0.353902 0.427983 0.0457001
1124 4 0.398255 0.429977 0.0198376
1125 4 0.445984 0.418574 0.02946
1123 2 0.42212 0.424275 0.0246488
752 4 0.442728 0.491076 0.0817314
1001 4 0.0651754 0.0132937 0.092114
1439 4 0.161134 0.0784372 0.0886784
1000 2 0.0891666 0.0192349 0.0883316
1937 4 0.161617 0.0269841 0.123666
1936 2 0.148135 0.0073201 0.131199
894 4 0.178393 0.0385744 0.117788
893 4 0.177563 0.0869318 0.130499
892 2 0.177978 0.0627531 0.124144
2197 2 0.2299 0.0159098 0.146045
2199 4 0.224358 0.0383103 0.155673
1073 4 0.297173 0.0658778 0.157382
1208 4 0.40689 0.054284 0.153877
34 3 0.412147 0.0518377 0.134272
1863 4 0.418144 0.0398947 0.163595
1207 2 0.388937 0.0709162 0.148753
35 3 0.421188 0.0188658 0.118499
31 1 0.425481 0.0329182 0.135899
33 3 0.421435 0.0220804 0.156013
3299 4 0.491606 0.060164 0.0891837
3298 2 0.475606 0.0559431 0.107928
32 3 0.447569 0.0393059 0.135206
3300 4 0.459606 0.0517223 0.126673
3237 4 0.0177087 0.167111 0.138434
1127 4 0.208601 0.123345 0.178778
1128 4 0.189894 0.101678 0.137776
1126 2 0.199247 0.112512 0.158277
1072 2 0.301302 0.0863326 0.143608
1074 4 0.305432 0.106787 0.129834
966 4 0.30886 0.10424 0.109502
964 2 0.326231 0.122215 0.11005
965 4 0.343602 0.140191 0.110598
1457 4 0.362029 0.141725 0.119155
1209 4 0.370985 0.0875483 0.143629
912 4 0.0778378 0.236944 0.152999
3235 2 0.0169501 0.181863 0.158608
910 2 0.0891699 0.215135 0.148401
911 4 0.100502 0.193326 0.143804
809 4 0.0911965 0.252094 0.150158
1221 4 0.268802 0.195467 0.0967314
800 4 0.270202 0.203041 0.115152
801 4 0.312959 0.219447 0.135237
799 2 0.291581 0.211244 0.125195
67 3 0.330946 0.22593 0.126591
1456 2 0.360619 0.166478 0.12239
1096 2 0.388727 0.211517 0.0997176
66 1 0.349346 0.21831 0.138104
68 3 0.351088 0.230021 0.158059
69 3 0.346651 0.195671 0.142414
1458 4 0.359209 0.191232 0.125626
70 3 0.368005 0.22165 0.12548
1097 4 0.371726 0.20404 0.116458
865 2 0.156776 0.284869 0.129493
867 4 0.153509 0.265853 0.145396
866 4 0.160042 0.303885 0.11359
962 4 0.163058 0.302633 0.0946475
808 2 0.094254 0.270482 0.166823
961 2 0.184555 0.295531 0.0840362
845 4 0.17179 0.268515 0.153277
1507 2 0.446579 0.285833 0.0872233
1508 4 0.443365 0.275689 0.10985
3272 4 0.451896 0.269321 0.128027
3271 2 0.446803 0.276338 0.151479
756 4 0.449847 0.303735 0.167727
803 4 0.05644 0.395792 0.0898782
1214 4 0.0431422 0.395755 0.147872
1215 4 0.0378771 0.391569 0.0983196
1213 2 0.0405097 0.393662 0.123096
1172 4 0.0375292 0.376666 0.152802
1004 4 0.148482 0.355418 0.0823923
1105 2 0.147761 0.389125 0.152467
1107 4 0.12918 0.395109 0.136843
1070 4 0.242976 0.384493 0.151246
1069 2 0.242394 0.395328 0.12872
1373 4 0.224919 0.410904 0.0945004
1071 4 0.241811 0.406162 0.106193
905 4 0.225609 0.385813 0.16128
904 2 0.202969 0.384327 0.171786
1152 4 0.347115 0.363834 0.165205
1204 2 0.395289 0.392799 0.100372
1082 4 0.382024 0.357 0.111425
1081 2 0.368217 0.353369 0.131952
1083 4 0.35441 0.349737 0.152479
1206 4 0.386927 0.37536 0.11622
2826 4 0.482151 0.412874 0.139892
349 3 0.486045 0.394772 0.148895
350 3 0.470735 0.364818 0.165807
2824 2 0.497318 0.411451 0.120065
831 4 0.0438462 0.475516 0.0997556
829 2 0.0635266 0.460452 0.0964501
2163 4 0.0287252 0.485034 0.110922
2161 2 0.0155902 0.468005 0.123676
830 4 0.083207 0.445387 0.0931447
2165 4 0.100766 0.443996 0.102734
2164 2 0.115359 0.429036 0.11646
2166 4 0.129952 0.414076 0.130186
1912 2 0.224995 0.479596 0.0800057
1914 4 0.212082 0.476549 0.101199
13 3 0.284579 0.430177 0.117366
12 3 0.255845 0.417403 0.0967781
15 3 0.254453 0.45186 0.111049
14 3 0.278025 0.444275 0.082686
11 1 0.268189 0.436087 0.102041
2264 4 0.262439 0.459397 0.129637
2263 2 0.261358 0.47231 0.151021
967 2 0.388602 0.485877 0.101759
969 4 0.411631 0.476175 0.102621
1973 4 0.417471 0.457624 0.0993703
1953 4 0.347125 0.502704 0.0932822
968 4 0.365573 0.495578 0.100897
1972 2 0.423407 0.440494 0.116589
1974 4 0.429344 0.423363 0.133808
1968 4 0.418018 0.42668 0.150118
1966 2 0.434034 0.418369 0.167427
1965 4 0.0830821 0.0150931 0.226516
818 4 0.237859 0.0410302 0.16922
817 2 0.241831 0.0655083 0.172418
1142 4 0.23768 0.0707192 0.235674
1161 4 0.22415 0.0715824 0.250423
2124 4 0.296287 0.0437266 0.236218
2122 2 0.315688 0.0453728 0.251905
1141 2 0.257376 0.055323 0.236086
1143 4 0.277073 0.0399268 0.236499
1861 2 0.417428 0.043469 0.188331
253 3 0.457823 0.0085291 0.251731
1862 4 0.416712 0.0470434 0.213068
848 4 0.433324 0.0581171 0.215105
847 2 0.450218 0.0700657 0.229141
2848 2 0.0076694 0.103935 0.234937
2850 4 0.0312586 0.0969395 0.230488
2181 4 0.0274276 0.115272 0.188606
2179 2 0.0353063 0.135932 0.200281
758 4 0.049849 0.0945924 0.23575
2180 4 0.043185 0.156591 0.211955
757 2 0.0711314 0.10174 0.246757
43 3 0.130378 0.0889802 0.182908
1840 2 0.124713 0.117825 0.244772
1841 4 0.142703 0.113058 0.228074
42 3 0.133131 0.113981 0.210837
41 1 0.132828 0.111492 0.187971
44 3 0.114968 0.123539 0.17935
45 3 0.152383 0.11932 0.179313
983 4 0.104441 0.139728 0.187824
819 4 0.245803 0.0899863 0.175616
1159 2 0.204799 0.0874129 0.250722
849 4 0.467112 0.0820144 0.243177
377 3 0.00774227 0.215039 0.181487
3236 4 0.0161915 0.196616 0.178781
982 2 0.105313 0.158921 0.171823
984 4 0.106184 0.178114 0.155821
884 4 0.105405 0.178448 0.231682
883 2 0.11312 0.189147 0.252922
1884 4 0.203286 0.20591 0.227636
1882 2 0.192108 0.189863 0.243216
19 3 0.215161 0.211744 0.212282
16 1 0.212436 0.234784 0.211904
846 4 0.187509 0.250099 0.197032
18 3 0.205716 0.241619 0.190772
20 3 0.196945 0.241031 0.227383
1883 4 0.18093 0.173817 0.258796
17 3 0.232568 0.244736 0.216887
810 4 0.0973115 0.288869 0.183488
1197 4 0.093682 0.288933 0.203212
1195 2 0.0943777 0.313725 0.206388
1196 4 0.0950735 0.338516 0.209565
1251 4 0.178292 0.296956 0.242294
844 2 0.179649 0.259307 0.175154
1249 2 0.183651 0.276142 0.229517
1250 4 0.18901 0.255329 0.21674
3273 4 0.441711 0.283354 0.174932
997 2 0.45629 0.32008 0.240436
754 2 0.442512 0.319508 0.185688
999 4 0.445963 0.334017 0.222428
1171 2 0.0291728 0.360781 0.17021
1448 4 0.00598916 0.330276 0.188866
1173 4 0.0208164 0.344895 0.187617
1106 4 0.166342 0.383142 0.168092
1046 4 0.136681 0.400672 0.255757
1045 2 0.156193 0.389708 0.244611
1047 4 0.175705 0.378744 0.233464
906 4 0.180328 0.382842 0.182292
1848 4 0.191475 0.419379 0.23225
927 4 0.346853 0.346398 0.233105
1151 4 0.345226 0.352447 0.213862
1150 2 0.346171 0.358141 0.189533
2129 4 0.400543 0.378949 0.243453
925 2 0.350984 0.327413 0.248842
755 4 0.435177 0.33528 0.203649
346 1 0.480848 0.38493 0.169255
348 3 0.46684 0.398851 0.181436
347 3 0.500283 0.3817 0.18113
1967 4 0.450051 0.410058 0.184735
860 4 0.0786485 0.482856 0.238716
54 3 0.215917 0.456998 0.19213
53 3 0.240885 0.481754 0.177703
52 3 0.240179 0.474816 0.214636
55 3 0.212205 0.493852 0.198888
51 1 0.227163 0.476961 0.19579
1856 4 0.196373 0.491371 0.208637
2265 4 0.260277 0.485224 0.172404
795 4 0.304759 0.433659 0.230864
793 2 0.325051 0.441479 0.243204
1224 4 0.350633 0.495422 0.206557
1154 4 0.0922894 0.0717763 0.319228
1015 2 0.134234 0.0685467 0.309778
1016 4 0.110387 0.0625421 0.314295
1017 4 0.158082 0.0745513 0.30526
1877 4 0.188021 0.00664202 0.263936
770 4 0.26153 0.00756186 0.337019
1825 2 0.2501 0.0775728 0.290628
1827 4 0.258168 0.05456 0.285105
771 4 0.25904 0.0430661 0.301891
769 2 0.260285 0.025314 0.319455
22 3 0.34786 0.022568 0.330438
2123 4 0.33509 0.0470189 0.267591
251 1 0.456952 0.00295201 0.274237
252 3 0.453538 0.0221016 0.286517
759 4 0.0924138 0.108888 0.257763
1842 4 0.106724 0.122593 0.26147
1075 2 0.108212 0.165584 0.315104
1076 4 0.129458 0.173001 0.304208
1061 4 0.163198 0.09211 0.312715
1077 4 0.086965 0.158166 0.326001
928 2 0.175797 0.139933 0.265049
930 4 0.186596 0.117382 0.265095
1160 4 0.185447 0.103243 0.251021
929 4 0.164998 0.162484 0.265004
1826 4 0.242033 0.100586 0.296152
933 4 0.463008 0.100692 0.24661
931 2 0.452377 0.119837 0.258677
932 4 0.441747 0.138983 0.270745
834 4 0.423681 0.147078 0.265797
1228 2 0.00582551 0.204807 0.338223
82 3 0.0718812 0.210744 0.328266
1229 4 0.0282977 0.19828 0.34703
885 4 0.120835 0.199847 0.274163
957 4 0.137818 0.204644 0.267876
955 2 0.15303 0.222146 0.277229
956 4 0.168243 0.239647 0.286582
843 4 0.183305 0.246187 0.274582
816 4 0.329578 0.232918 0.323935
1093 2 0.375667 0.223183 0.262976
1095 4 0.39339 0.206232 0.258105
833 4 0.406522 0.19404 0.266713
832 2 0.415101 0.170559 0.266255
1167 4 0.336144 0.216023 0.330883
1094 4 0.357945 0.240135 0.267846
814 2 0.335756 0.240478 0.300916
2955 4 0.499773 0.252457 0.31843
882 4 0.122006 0.295984 0.281975
880 2 0.104737 0.309026 0.2945
881 4 0.0874687 0.322068 0.307025
841 2 0.192222 0.267779 0.283495
842 4 0.201139 0.289371 0.292408
890 4 0.200287 0.29166 0.312398
889 2 0.200766 0.308489 0.330884
30 3 0.338675 0.277666 0.243389
29 3 0.365244 0.254336 0.256328
27 3 0.339108 0.268225 0.279494
926 4 0.355116 0.308427 0.264579
815 4 0.341934 0.248037 0.277897
28 3 0.365668 0.291104 0.265937
26 1 0.352142 0.272877 0.261119
998 4 0.466618 0.306143 0.258443
3007 2 0.462043 0.31235 0.302324
3008 4 0.466315 0.310704 0.277743
3009 4 0.457771 0.313995 0.326905
1022 4 0.437622 0.307616 0.322854
1164 4 0.991961 0.413154 0.262071
433 3 0.0104582 0.418926 0.26593
1846 2 0.202424 0.420342 0.254709
1847 4 0.213373 0.421305 0.277167
899 4 0.248302 0.413951 0.326277
2128 2 0.417203 0.387553 0.259994
2130 4 0.433863 0.396157 0.276534
1193 4 0.454778 0.392288 0.276525
1192 2 0.454764 0.402133 0.299509
1194 4 0.45475 0.411977 0.322493
859 2 0.06682 0.465142 0.251811
431 1 0.0249145 0.435881 0.272405
435 3 0.0381108 0.428723 0.28953
861 4 0.0549915 0.447428 0.264907
1044 4 0.0522798 0.441779 0.284104
1042 2 0.0678802 0.444333 0.303477
434 3 0.0380861 0.442355 0.254433
432 3 0.0125206 0.453942 0.279429
1043 4 0.0834805 0.446887 0.322849
1923 4 0.159611 0.414881 0.318117
1853 4 0.165203 0.433364 0.31759
898 2 0.235597 0.424005 0.307232
1852 2 0.176217 0.452592 0.306008
1013 4 0.205806 0.474322 0.300407
1854 4 0.187231 0.471821 0.294426
1012 2 0.224416 0.476671 0.316939
900 4 0.222892 0.434058 0.288188
1014 4 0.243027 0.47902 0.333471
1038 4 0.259795 0.473803 0.34319
1036 2 0.27525 0.454973 0.337558
1037 4 0.290706 0.436142 0.331925
794 4 0.345342 0.449299 0.255544
2246 4 0.364166 0.456745 0.252078
2245 2 0.36059 0.481425 0.253883
2219 4 0.43489 0.416637 0.326091
2986 2 0.0368025 0.0550618 0.387982
1155 4 0.0629343 0.0507501 0.353824
2987 4 0.0495908 0.0468182 0.36814
1153 2 0.0776119 0.0612632 0.336526
2988 4 0.0240142 0.0633054 0.407823
25 3 0.354267 0.0172712 0.366822
89 3 0.345145 0.0601358 0.381696
4279 2 0.480351 0.00558426 0.365379
4280 4 0.467706 0.0197854 0.381615
908 4 0.47405 0.0273902 0.398753
909 4 0.482508 0.0761946 0.391874
907 2 0.478279 0.0517924 0.395314
1799 4 0.0186546 0.0960881 0.329801
3107 4 0.024479 0.110549 0.342203
3108 4 0.0587843 0.104857 0.378139
3106 2 0.0416317 0.107703 0.360171
2858 4 0.0641838 0.114518 0.394076
1395 4 0.0841547 0.131449 0.345273
2857 2 0.0685203 0.138057 0.401308
1393 2 0.104034 0.122413 0.357452
1394 4 0.123914 0.113377 0.369631
1244 4 0.11102 0.104599 0.382715
1243 2 0.123117 0.0981937 0.403639
1060 2 0.171429 0.103007 0.33366
1080 4 0.18732 0.132278 0.357166
1062 4 0.17966 0.113904 0.354605
1078 2 0.192759 0.154651 0.366916
87 3 0.317254 0.0835328 0.391042
88 3 0.349891 0.0855225 0.409578
86 1 0.340078 0.0815955 0.388921
90 3 0.347524 0.0968632 0.373752
3669 4 0.390701 0.141566 0.401131
3255 4 0.479172 0.0942298 0.401119
3253 2 0.467245 0.112549 0.413258
85 3 0.0798562 0.175292 0.336779
84 3 0.0462243 0.18961 0.345809
81 1 0.0689158 0.194005 0.343764
83 3 0.0774892 0.201046 0.364143
1079 4 0.198197 0.177024 0.376665
64 3 0.200977 0.19529 0.38432
63 3 0.235223 0.189623 0.399798
61 1 0.214061 0.198509 0.403211
65 3 0.215631 0.220744 0.407879
1227 4 0.391952 0.209227 0.369808
1166 4 0.373174 0.212943 0.364351
1165 2 0.354659 0.214483 0.347617
1225 2 0.413458 0.197178 0.373992
1226 4 0.434964 0.18513 0.378175
891 4 0.201245 0.325318 0.34937
979 2 0.23427 0.316584 0.376635
981 4 0.219202 0.324292 0.358231
980 4 0.249338 0.308875 0.39504
760 2 0.393995 0.323994 0.39547
761 4 0.409411 0.306008 0.387468
1023 4 0.418099 0.308883 0.368876
1021 2 0.427861 0.308249 0.345865
973 2 0.131371 0.38751 0.39206
974 4 0.128702 0.366306 0.405039
1921 2 0.153134 0.407925 0.341243
1922 4 0.146658 0.40097 0.36437
975 4 0.13404 0.408713 0.37908
1950 4 0.335952 0.364253 0.406498
1948 2 0.311499 0.369471 0.406407
1949 4 0.287046 0.374689 0.406317
1981 2 0.263669 0.405893 0.422592
903 4 0.407819 0.398916 0.390413
762 4 0.37858 0.34198 0.403472
902 4 0.375258 0.361512 0.396851
901 2 0.391539 0.380214 0.393632
1383 4 0.470639 0.366907 0.401891
1187 4 0.0214692 0.504869 0.387113
1020 4 0.00983099 0.489707 0.378575
1134 4 0.0961618 0.466816 0.380447
1132 2 0.093142 0.451694 0.400129
1133 4 0.0901222 0.436573 0.419812
1091 4 0.236259 0.482402 0.39725
1092 4 0.236122 0.434136 0.410329
1090 2 0.23619 0.458269 0.403789
2172 4 0.237139 0.503057 0.397605
783 4 0.318663 0.411622 0.381201
1982 4 0.250545 0.427118 0.424145
781 2 0.334949 0.429753 0.375612
782 4 0.351235 0.447883 0.370024
1893 4 0.352952 0.453542 0.390009
1891 2 0.355112 0.476511 0.399648
2218 2 0.437863 0.427999 0.348164
2220 4 0.440835 0.439362 0.370238
3863 4 0.437175 0.42405 0.383086
3862 2 0.437643 0.429943 0.407381
3074 4 0.0158406 0.057248 0.425781
3073 2 0.0129298 0.072268 0.445557
840 4 0.187614 0.0688157 0.446885
839 4 0.219925 0.0334728 0.461293
838 2 0.20377 0.0511443 0.454089
1572 4 0.226711 0.0412219 0.478946
1570 2 0.251122 0.0364917 0.476312
1571 4 0.275532 0.0317615 0.473679
214 3 0.284819 0.0479895 0.481264
211 1 0.295356 0.0685692 0.483224
212 3 0.318052 0.0651799 0.484833
1233 4 0.336534 0.0726726 0.485035
920 4 0.35084 0.0668781 0.416002
919 2 0.346056 0.049541 0.433372
2086 2 0.357894 0.00191236 0.468882
921 4 0.341272 0.032204 0.450742
2087 4 0.347513 0.0133544 0.449223
1231 2 0.349466 0.0540424 0.495563
3182 4 0.404493 0.0942515 0.453606
1232 4 0.362399 0.0354123 0.506091
960 4 0.471512 0.00138221 0.45098
3181 2 0.424623 0.0866436 0.440875
56 1 0.00260345 0.110575 0.490581
58 3 0.0169402 0.103588 0.473728
3075 4 0.0100191 0.087288 0.465334
2859 4 0.0728568 0.161595 0.40854
1472 4 0.0782691 0.160225 0.428916
1245 4 0.135214 0.0917884 0.424563
172 3 0.153109 0.101608 0.429261
173 3 0.15785 0.112908 0.464792
174 3 0.180161 0.0858841 0.450084
171 1 0.168745 0.105594 0.445656
175 3 0.183299 0.121547 0.438422
1131 4 0.179967 0.140674 0.444601
1129 2 0.196945 0.156666 0.43559
1130 4 0.213923 0.172657 0.426579
213 3 0.291016 0.0815101 0.46446
1052 4 0.266778 0.141033 0.460743
1181 4 0.256737 0.129737 0.446524
1180 2 0.265746 0.106765 0.450566
1182 4 0.274754 0.0837934 0.454607
1137 4 0.310842 0.133644 0.486508
1135 2 0.319922 0.126686 0.464274
1136 4 0.329001 0.119729 0.44204
951 4 0.388928 0.101765 0.46253
950 4 0.3429 0.10257 0.442998
949 2 0.365914 0.102168 0.452764
3667 2 0.413859 0.138753 0.410127
3183 4 0.444753 0.0790357 0.428143
3668 4 0.437018 0.13594 0.419124
3254 4 0.455319 0.130868 0.425397
1471 2 0.0886166 0.176719 0.444601
1473 4 0.098964 0.193214 0.460287
827 4 0.0917504 0.207931 0.46992
826 2 0.0956801 0.228779 0.456688
792 4 0.210023 0.240298 0.409488
62 3 0.20424 0.187709 0.420988
790 2 0.201976 0.243548 0.432937
791 4 0.193928 0.246798 0.456386
1051 2 0.27148 0.163976 0.451985
1053 4 0.276183 0.186918 0.443227
935 4 0.288055 0.202593 0.448337
934 2 0.305872 0.217855 0.456984
936 4 0.32369 0.233118 0.465631
1323 4 0.335833 0.225365 0.48078
1321 2 0.348632 0.228405 0.502043
3153 4 0.0670698 0.300873 0.462589
3114 4 0.0481076 0.300935 0.469933
3112 2 0.0433874 0.28494 0.488563
3113 4 0.0386671 0.268945 0.507192
3151 2 0.0691364 0.325784 0.46199
828 4 0.0996098 0.249627 0.443456
1110 4 0.156713 0.290656 0.484199
870 4 0.168706 0.282952 0.469605
868 2 0.175534 0.298541 0.451288
869 4 0.182361 0.314131 0.43297
874 2 0.0626272 0.380997 0.491651
875 4 0.0731861 0.363695 0.477011
3152 4 0.071203 0.350695 0.46139
9 3 0.100196 0.39773 0.446902
1029 4 0.185133 0.330921 0.42501
1028 4 0.186779 0.378463 0.44043
1169 4 0.200555 0.392807 0.448109
1027 2 0.185956 0.354692 0.43272
1168 2 0.211217 0.411257 0.46119
1983 4 0.276793 0.384667 0.421039
1455 4 0.480461 0.351255 0.464587
1381 2 0.476614 0.356588 0.423869
1453 2 0.48142 0.371282 0.479526
1382 4 0.48259 0.34627 0.445846
1804 2 0.033036 0.429607 0.490668
1805 4 0.0150828 0.439826 0.476581
10 3 0.0814628 0.425098 0.464725
6 1 0.0925827 0.419611 0.445623
8 3 0.0785449 0.422056 0.42731
7 3 0.110641 0.433631 0.443075
1238 4 0.226817 0.433361 0.493887
1170 4 0.221879 0.429706 0.474271
161 1 0.315741 0.439585 0.485257
162 3 0.313165 0.455761 0.469106
164 3 0.295097 0.435311 0.494952
165 3 0.323886 0.420615 0.475642
1237 2 0.251586 0.433204 0.497303
3899 4 0.427778 0.488946 0.457856
3900 4 0.449271 0.445989 0.443946
3898 2 0.438525 0.467468 0.450901
3864 4 0.43811 0.435835 0.431676
3396 4 0.11611 0.0726996 0.510662
3394 2 0.137218 0.0704212 0.523869
3395 4 0.158326 0.0681427 0.537077
862 2 0.158879 0.0731576 0.575656
863 4 0.151239 0.0615451 0.554872
215 3 0.28803 0.0792998 0.501928
148 3 0.376586 0.0174727 0.54239
149 3 0.379676 0.042836 0.514255
146 1 0.389786 0.0342481 0.533293
147 3 0.392068 0.0511241 0.548757
1179 4 0.375076 0.060193 0.553223
1177 2 0.368307 0.0726667 0.573809
150 3 0.410367 0.0259904 0.528109
1498 2 0.44409 0.0350438 0.552079
1500 4 0.464162 0.0319247 0.566659
2268 4 0.480725 0.0327777 0.578408
1499 4 0.424017 0.0381629 0.5375
2211 4 0.0551856 0.0903188 0.542408
1559 4 0.0761795 0.0905665 0.542476
2209 2 0.0448227 0.104503 0.524615
60 3 0.014234 0.122148 0.506375
2210 4 0.0344598 0.118688 0.506822
1558 2 0.0962017 0.103899 0.549299
1560 4 0.116224 0.117231 0.556121
1496 4 0.117225 0.132384 0.568539
1700 4 0.240323 0.153803 0.525859
1144 2 0.325516 0.13245 0.524039
1145 4 0.339224 0.140627 0.543285
38 3 0.32889 0.155994 0.55223
1699 2 0.262537 0.165278 0.526146
1701 4 0.28475 0.176752 0.526433
1146 4 0.311808 0.124273 0.504794
1100 4 0.439529 0.116663 0.528367
812 4 0.481949 0.155368 0.547943
1101 4 0.465268 0.147876 0.55776
1099 2 0.452399 0.13227 0.543063
1580 4 0.222766 0.161262 0.530348
1600 2 0.172947 0.231458 0.535343
1579 2 0.203613 0.177334 0.53041
1601 4 0.171659 0.206595 0.537649
1581 4 0.184459 0.193406 0.530472
36 1 0.313692 0.172938 0.556741
40 3 0.295941 0.171435 0.542553
39 3 0.306411 0.171404 0.57872
37 3 0.324085 0.19324 0.55375
1322 4 0.36143 0.231445 0.523307
1286 4 0.360067 0.237799 0.542156
1646 4 0.423806 0.208408 0.539094
1334 4 0.48769 0.222514 0.539849
1647 4 0.473092 0.211102 0.53107
518 3 0.479937 0.191506 0.528163
1645 2 0.448449 0.209755 0.535082
516 1 0.501238 0.198115 0.521763
1333 2 0.484231 0.247269 0.54051
519 3 0.505974 0.219094 0.530473
811 2 0.495758 0.166638 0.565478
780 4 0.0503951 0.26201 0.521759
778 2 0.0461294 0.267451 0.545788
779 4 0.0418637 0.272892 0.569817
1289 4 0.0438811 0.269055 0.590104
1602 4 0.174235 0.256322 0.533036
1109 4 0.156161 0.260686 0.524227
1276 2 0.169104 0.331166 0.574366
1108 2 0.156437 0.275671 0.504213
1340 4 0.219749 0.269928 0.584367
1339 2 0.203907 0.288637 0.579448
1341 4 0.188064 0.307345 0.574529
1277 4 0.190974 0.324277 0.584335
1285 2 0.364276 0.252296 0.562088
1287 4 0.368485 0.266792 0.582021
1386 4 0.371877 0.284747 0.588445
2827 2 0.463263 0.299798 0.541901
2829 4 0.461828 0.275033 0.538765
2828 4 0.464698 0.324562 0.545037
1335 4 0.480771 0.272023 0.541171
876 4 0.0520683 0.398298 0.506292
1806 4 0.0509892 0.419389 0.504754
1278 4 0.147233 0.338056 0.564397
1427 4 0.140305 0.348542 0.57949
3649 2 0.398579 0.409626 0.558542
3650 4 0.410262 0.400393 0.538457
3225 4 0.49988 0.374607 0.572153
3223 2 0.483023 0.359796 0.561123
3224 4 0.466166 0.344985 0.550092
3605 4 0.426435 0.397639 0.52696
3604 2 0.449359 0.400204 0.517311
3378 4 0.496443 0.394495 0.573792
3606 4 0.472283 0.40277 0.507663
1454 4 0.482379 0.39131 0.494465
2342 4 0.0458818 0.462177 0.542069
1392 4 0.0277537 0.457131 0.544829
2341 2 0.0666489 0.475814 0.544888
1390 2 0.00703928 0.450101 0.55694
2343 4 0.087416 0.48945 0.547707
163 3 0.330588 0.447322 0.501322
1239 4 0.276354 0.433046 0.500718
3651 4 0.386896 0.418859 0.578628
4391 4 0.43368 0.446358 0.569422
1115 4 0.436722 0.44855 0.550106
1114 2 0.447829 0.455831 0.528921
4390 2 0.426085 0.468132 0.579086
1116 4 0.458936 0.463113 0.507736
1607 4 0.153096 0.059128 0.657519
1606 2 0.156698 0.0643308 0.633329
1608 4 0.160299 0.0695336 0.60914
1802 4 0.268739 0.996215 0.615434
1544 4 0.379149 0.0814169 0.603682
1548 4 0.408955 0.0792427 0.601942
1178 4 0.361539 0.0851405 0.594394
1545 4 0.370637 0.0755048 0.652604
1543 2 0.374893 0.0784609 0.628143
1531 2 0.420101 0.0427283 0.624434
1532 4 0.420072 0.0215719 0.63776
2266 2 0.480817 0.0180907 0.598643
1533 4 0.42013 0.0638847 0.611107
526 1 0.482391 0.0289951 0.653349
527 3 0.467269 0.0462473 0.651662
528 3 0.503861 0.0377943 0.653168
530 3 0.479639 0.0148562 0.635709
2267 4 0.480909 0.00340379 0.618878
104 3 0.421188 0.00632755 0.650811
953 4 0.0321021 0.103523 0.634332
952 2 0.0157555 0.0995055 0.65282
864 4 0.166518 0.0847701 0.59644
1616 4 0.114808 0.113923 0.616695
1497 4 0.134067 0.119936 0.613949
1495 2 0.125646 0.12616 0.591244
1615 2 0.11227 0.101671 0.638343
1617 4 0.109733 0.089419 0.659991
1619 4 0.360242 0.0924787 0.655972
1618 2 0.34333 0.106446 0.667976
1546 2 0.428571 0.0945704 0.599609
1547 4 0.448188 0.109898 0.597275
1294 2 0.126523 0.212744 0.668736
1296 4 0.124798 0.237617 0.670608
1686 4 0.121189 0.169912 0.671194
1295 4 0.128247 0.18787 0.666864
1362 4 0.243459 0.184498 0.603902
1361 4 0.2883 0.180804 0.582078
1360 2 0.265879 0.182651 0.59299
1660 2 0.374649 0.248391 0.656792
1288 2 0.0373248 0.291767 0.59825
1290 4 0.0307685 0.314479 0.606396
3368 4 0.0471515 0.324822 0.599348
3463 2 0.0302481 0.310773 0.652234
3465 4 0.0143228 0.292569 0.658571
3464 4 0.0461734 0.328978 0.645896
1404 4 0.130387 0.302064 0.659285
142 3 0.141645 0.317729 0.666666
1402 2 0.122707 0.278628 0.663402
1384 2 0.368766 0.281209 0.613
1385 4 0.365655 0.277671 0.637556
1661 4 0.381746 0.266562 0.641152
3367 2 0.0684915 0.337297 0.60311
1039 2 0.0173634 0.380625 0.594665
1041 4 0.0285382 0.402676 0.598411
1744 2 0.0786675 0.348346 0.659344
1746 4 0.0558084 0.347474 0.64925
1593 4 0.0400289 0.411083 0.6123
1040 4 0.00618868 0.358573 0.590918
3369 4 0.0898314 0.349772 0.606873
1428 4 0.10194 0.36646 0.606094
1426 2 0.121122 0.357501 0.592792
143 3 0.119686 0.347465 0.659862
1352 4 0.205451 0.416827 0.617723
1614 4 0.197134 0.425702 0.6342
1351 2 0.230096 0.418145 0.621731
1470 4 0.251519 0.421149 0.643916
1591 2 0.0431243 0.43553 0.608066
1592 4 0.0462197 0.459977 0.603832
3542 4 0.0401607 0.479164 0.602581
3541 2 0.04113 0.492169 0.623915
1589 4 0.142993 0.443576 0.646181
1588 2 0.130721 0.448326 0.667442
1613 4 0.154199 0.451089 0.630625
1612 2 0.175667 0.438395 0.632413
1353 4 0.254741 0.419464 0.625739
1651 2 0.315084 0.481747 0.620362
1652 4 0.326584 0.46204 0.610138
1468 2 0.263862 0.428468 0.664392
1698 4 0.340385 0.452117 0.598685
1696 2 0.363353 0.445315 0.591517
1697 4 0.386321 0.438514 0.584349
2557 2 0.385325 0.48873 0.618757
2559 4 0.405406 0.491702 0.604159
4392 4 0.41849 0.489906 0.588751
2558 4 0.365244 0.485757 0.633355
1674 4 0.465704 0.461477 0.649757
1534 2 0.49788 0.433576 0.649334
1536 4 0.4784 0.447646 0.642424
4554 4 0.022891 0.0220722 0.697029
3437 4 0.0380685 0.0723638 0.678605
3436 2 0.0337421 0.0537787 0.694763
3438 4 0.0294156 0.0351936 0.71092
1712 4 0.21074 0.0367807 0.739397
529 3 0.478646 0.0176557 0.673244
3693 4 0.466902 0.00557659 0.684322
1513 2 0.996674 0.127088 0.726389
2442 4 0.0545767 0.0772876 0.68859
2440 2 0.0743008 0.0882341 0.677805
1539 4 0.0160921 0.146279 0.695195
1537 2 0.0406604 0.150475 0.697187
1538 4 0.0652287 0.154672 0.699179
1629 4 0.0713692 0.139895 0.711108
1515 4 0.000724972 0.134512 0.70286
3772 2 0.0378717 0.0932681 0.744464
3774 4 0.0230693 0.106579 0.729334
2441 4 0.094025 0.0991807 0.66702
1685 4 0.154051 0.134925 0.685217
1627 2 0.094207 0.132652 0.71826
1628 4 0.117045 0.125409 0.725411
1317 4 0.123877 0.141241 0.734926
1315 2 0.139554 0.160687 0.733789
1484 4 0.164681 0.119914 0.679207
1684 2 0.13762 0.152418 0.678206
1305 4 0.209027 0.0906811 0.708882
1303 2 0.233613 0.0950668 0.710091
1483 2 0.176873 0.105085 0.695227
1485 4 0.189065 0.0902556 0.711248
1304 4 0.258199 0.0994524 0.7113
1349 4 0.27094 0.099562 0.696214
1620 4 0.326419 0.120414 0.67998
1350 4 0.307925 0.123983 0.673052
1348 2 0.289432 0.111772 0.684633
1316 4 0.15523 0.180133 0.732652
1656 4 0.161037 0.199399 0.728057
1482 4 0.348784 0.247532 0.734098
1480 2 0.359891 0.243168 0.712126
1481 4 0.370999 0.238805 0.690155
1662 4 0.367551 0.230219 0.672432
1445 4 0.489015 0.200225 0.731151
1466 4 0.496897 0.18941 0.716363
1403 4 0.115027 0.255192 0.667518
1255 2 0.106588 0.318184 0.725105
1256 4 0.0974618 0.325141 0.70289
144 3 0.113463 0.325539 0.690275
1257 4 0.115713 0.311228 0.74732
1268 4 0.24357 0.301153 0.732244
1719 4 0.245552 0.313871 0.747665
1702 2 0.306062 0.248532 0.737658
1267 2 0.263775 0.286584 0.734401
1703 4 0.281722 0.25265 0.733686
1269 4 0.283981 0.272015 0.736558
1704 4 0.330403 0.244414 0.741629
1346 4 0.0708062 0.399572 0.741929
1477 2 0.0315876 0.399026 0.720077
1478 4 0.0102455 0.399569 0.707061
1479 4 0.0529298 0.398483 0.733092
1745 4 0.101527 0.349218 0.669437
145 3 0.143836 0.347738 0.688748
141 1 0.129698 0.334754 0.676494
1355 4 0.150534 0.364878 0.69319
1354 2 0.147978 0.381445 0.711742
1356 4 0.145422 0.398013 0.730294
2627 4 0.144156 0.386587 0.746896
1452 4 0.401656 0.380951 0.745999
1562 4 0.407635 0.39829 0.737656
1561 2 0.42663 0.397832 0.721402
1563 4 0.445624 0.397374 0.705148
1590 4 0.11845 0.453076 0.688703
1599 4 0.128469 0.442143 0.701188
1597 2 0.129856 0.45486 0.722671
1598 4 0.131243 0.467577 0.744155
3428 4 0.285854 0.488948 0.721442
3427 2 0.28554 0.465859 0.711853
1469 4 0.276204 0.435786 0.684868
3429 4 0.285226 0.442769 0.702264
2528 4 0.418696 0.463217 0.680058
2529 4 0.40148 0.466693 0.726879
2527 2 0.410088 0.464955 0.703468
2512 2 0.388802 0.473645 0.752877
2514 4 0.395106 0.485953 0.732046
1673 4 0.434307 0.453506 0.687854
1672 2 0.450005 0.457492 0.668805
2658 4 0.050928 0.0609525 0.754032
3773 4 0.0526741 0.0799576 0.759593
2656 2 0.0747305 0.0535669 0.75605
1511 4 0.0682186 0.0650699 0.822053
1510 2 0.0455989 0.0753225 0.824953
2309 4 0.158003 0.0453032 0.766437
2308 2 0.133536 0.0421338 0.770501
2657 4 0.0985331 0.0461813 0.758067
2310 4 0.10907 0.0389645 0.774566
1711 2 0.187337 0.0331209 0.747401
1713 4 0.163933 0.0294611 0.755404
2681 4 0.250888 0.00844393 0.756491
1682 4 0.319149 0.0153072 0.823261
283 3 0.415437 0.00533141 0.810631
1337 4 0.331027 0.0263123 0.811533
1336 2 0.348283 0.038648 0.82477
2554 2 0.356813 0.997852 0.787898
2555 4 0.374688 0.000305957 0.805208
285 3 0.38015 0.00305178 0.823564
489 3 0.441495 0.0163124 0.750107