ITEM: TIMESTEP
3600000
ITEM: NUMBER OF ATOMS
4590
ITEM: BOX BOUNDS pp pp pp
-9.9985700000000008e+00 9.9985700000000008e+00
-9.9985700000000008e+00 9.9985700000000008e+00
-9.9985700000000008e+00 9.9985700000000008e+00
ITEM: ATOMS id type xs ys zs
490 2 0.137206 0.0108777 0.0129111
491 4 0.128229 0.0328875 0.00515558
492 4 0.146184 0.988868 0.0206665
475 2 0.23678 0.0161944 0.060909
476 4 0.235656 0.0270003 0.0383891
477 4 0.237905 0.00538847 0.0834289
866 4 0.254372 0.0270938 0.0318685
865 2 0.271224 0.0433181 0.0230388
771 4 0.295684 0.0757401 0.0220182
867 4 0.288076 0.0595424 0.0142091
484 2 0.373938 0.0301277 0.0289975
485 4 0.370623 0.0243648 0.00489396
486 4 0.377253 0.0358907 0.053101
629 4 0.372861 0.0529012 0.063852
1110 4 0.376498 0.0228604 0.0683356
628 2 0.375868 0.0776004 0.0613851
1073 4 0.0678069 0.161428 0.0673651
2606 4 0.00213338 0.129277 0.00532138
1287 4 0.0511182 0.155068 0.0755169
243 4 0.155602 0.171004 0.00413447
915 4 0.165526 0.154256 0.00532389
572 4 0.304522 0.143613 0.0404089
571 2 0.303602 0.167306 0.0483459
770 4 0.310482 0.118568 0.000863259
769 2 0.303083 0.0971539 0.0114407
747 4 0.325208 0.128452 0.0087823
556 2 0.367334 0.141042 0.0758085
630 4 0.378875 0.1023 0.0589182
557 4 0.368753 0.117731 0.0668773
1072 2 0.0782646 0.172446 0.0475049
1213 2 0.0620096 0.213832 0.0148091
2850 4 0.0265062 0.19823 0.0788544
1214 4 0.0679668 0.197314 0.032609
1074 4 0.0887223 0.183464 0.0276447
242 4 0.110117 0.179029 0.0233038
241 2 0.13286 0.175017 0.0137191
1505 4 0.177662 0.169203 0.0680306
956 4 0.173065 0.237199 0.0517001
955 2 0.193694 0.244085 0.0640368
54 3 0.245873 0.181401 0.00671267
573 4 0.302682 0.190998 0.0562829
402 4 0.302903 0.204188 0.0705515
26 1 0.385086 0.19339 0.0866859
28 3 0.384889 0.195606 0.0635892
29 3 0.365677 0.182848 0.0937975
3068 4 0.493536 0.228402 0.00555056
3299 4 0.478993 0.241136 0.00353179
294 4 0.0301896 0.268612 0.0862852
394 2 0.0645006 0.310052 0.0150159
396 4 0.0490094 0.323155 0.0296283
923 4 0.0404197 0.335349 0.0428766
395 4 0.0799917 0.296949 0.000403537
357 4 0.225344 0.267232 0.0797267
957 4 0.214324 0.250971 0.0763735
12 3 0.250742 0.315976 0.0758457
665 4 0.273508 0.32676 0.0327113
664 2 0.282749 0.3215 0.010081
494 4 0.308562 0.287142 0.0534977
565 2 0.314713 0.274578 0.0230896
493 2 0.315595 0.288088 0.0774732
567 4 0.325189 0.286988 0.0421006
14 3 0.257193 0.330497 0.0417845
522 4 0.486658 0.335781 0.00923967
922 2 0.0503525 0.357674 0.0481764
924 4 0.0602852 0.38 0.0534763
1596 4 0.0650525 0.39016 0.069865
657 4 0.00095423 0.394411 0.00305358
1241 4 0.128986 0.376401 0.00568534
702 4 0.131086 0.377213 0.0249429
700 2 0.151238 0.372011 0.0388004
11 1 0.254223 0.335529 0.0642402
701 4 0.17139 0.36681 0.0526579
625 2 0.199412 0.395481 0.0572241
627 4 0.179104 0.384804 0.0472854
626 4 0.219719 0.406158 0.0671628
15 3 0.236129 0.349113 0.0668322
13 3 0.2732 0.345938 0.0726025
563 4 0.380695 0.365901 0.00681693
38 3 0.394181 0.366037 0.0210261
36 1 0.409478 0.382892 0.0165186
40 3 0.400235 0.403199 0.0210839
39 3 0.42861 0.37985 0.0292913
596 4 0.484526 0.433597 0.0732838
4278 4 0.489265 0.407236 0.00879922
2796 4 0.0115718 0.46448 0.0254931
2794 2 0.0231921 0.450221 0.0424294
2795 4 0.0348125 0.435962 0.0593657
4004 4 0.0381484 0.444635 0.0781153
2573 4 0.00316547 0.483607 0.0289945
455 4 0.133981 0.442724 0.0491366
454 2 0.149219 0.44098 0.0688834
456 4 0.164457 0.439235 0.0886301
1779 4 0.129682 0.484145 0.0301129
788 4 0.166316 0.470363 0.030604
1777 2 0.118689 0.499027 0.0132952
446 4 0.23425 0.421884 0.0640885
787 2 0.190492 0.470298 0.0242257
445 2 0.22983 0.439974 0.0474039
789 4 0.214669 0.470233 0.0178475
447 4 0.225409 0.458065 0.0307194
483 4 0.411171 0.480395 0.0184516
285 4 0.342186 0.469408 0.084943
283 2 0.366149 0.476423 0.0862693
523 2 0.371991 0.484793 0.00862857
525 4 0.392093 0.4733 0.0180627
284 4 0.390111 0.483438 0.0875956
481 2 0.419532 0.492709 0.0385423
3880 2 0.486965 0.487437 0.0671699
1329 4 0.0112152 0.998662 0.109322
461 4 0.289829 0.0394711 0.15309
653 4 0.284197 0.0768319 0.135256
460 2 0.286639 0.0232785 0.134307
22 3 0.299934 0.0820687 0.145293
21 1 0.316551 0.0687014 0.153914
23 3 0.308428 0.0470715 0.15605
462 4 0.283448 0.00708584 0.115524
24 3 0.334667 0.068964 0.139417
1108 2 0.36993 0.0323584 0.0905129
1109 4 0.363363 0.0418564 0.11269
699 4 0.352463 0.0716639 0.147694
697 2 0.373962 0.0669379 0.159554
1285 2 0.0301413 0.14739 0.0867506
1286 4 0.00916428 0.139712 0.0979842
693 4 0.0663257 0.153869 0.169903
16 1 0.157384 0.127601 0.12673
20 3 0.142217 0.138398 0.113614
17 3 0.151471 0.130142 0.148815
938 4 0.153173 0.122182 0.16735
1504 2 0.178485 0.162696 0.0921585
19 3 0.157618 0.104977 0.121582
18 3 0.1785 0.136673 0.123527
1506 4 0.179307 0.156189 0.116286
652 2 0.266325 0.0942647 0.133881
654 4 0.248454 0.111698 0.132506
744 4 0.255969 0.130073 0.130575
742 2 0.261847 0.144578 0.150074
558 4 0.365914 0.164353 0.0847397
691 2 0.0732312 0.165959 0.149135
692 4 0.0801367 0.178048 0.128366
2760 4 0.0819407 0.197214 0.132824
2758 2 0.084886 0.219551 0.143665
2759 4 0.0878314 0.241888 0.154507
380 4 0.169069 0.24383 0.120971
379 2 0.183029 0.230615 0.13696
381 4 0.196989 0.2174 0.15295
743 4 0.267724 0.159084 0.169573
401 4 0.315631 0.236053 0.106929
400 2 0.309267 0.220121 0.0887403
27 3 0.403178 0.180553 0.092771
30 3 0.386814 0.213894 0.0964449
2516 4 0.381193 0.232356 0.094044
2515 2 0.395056 0.247362 0.108459
2895 4 0.368262 0.226663 0.16443
292 2 0.0430052 0.281323 0.103588
293 4 0.0558208 0.294034 0.12089
288 4 0.0448464 0.285976 0.135568
286 2 0.0470174 0.294093 0.159118
450 4 0.084226 0.260532 0.161597
355 2 0.238457 0.287054 0.087493
356 4 0.25157 0.306876 0.0952593
386 4 0.324635 0.308249 0.10034
495 4 0.322628 0.289033 0.101449
385 2 0.328083 0.317081 0.123476
2517 4 0.408919 0.262369 0.122875
2702 4 0.425235 0.269692 0.132505
387 4 0.33153 0.325913 0.146613
102 3 0.332242 0.327174 0.166528
2701 2 0.447695 0.275045 0.122909
2703 4 0.470155 0.280398 0.113313
1594 2 0.0785391 0.398909 0.0890154
1595 4 0.0920256 0.407658 0.108166
105 3 0.314343 0.359898 0.16523
755 4 0.248494 0.368508 0.162587
754 2 0.262142 0.389363 0.164576
104 3 0.350746 0.358075 0.155787
587 4 0.366127 0.368875 0.163891
595 2 0.473702 0.418117 0.0896669
2853 4 0.497429 0.348273 0.145614
597 4 0.462879 0.402637 0.10605
518 4 0.463892 0.389868 0.121055
517 2 0.475148 0.367874 0.124894
519 4 0.486405 0.345881 0.128734
4003 2 0.041618 0.46081 0.096864
4005 4 0.0450877 0.476985 0.115613
1765 2 0.0689386 0.493524 0.147396
1766 4 0.0586705 0.485151 0.126192
836 4 0.0853287 0.423455 0.1183
837 4 0.103271 0.468362 0.105568
835 2 0.0943001 0.445909 0.111934
291 4 0.182998 0.447331 0.0900127
289 2 0.179476 0.457611 0.112532
290 4 0.175955 0.467891 0.13505
1224 4 0.187081 0.464811 0.153868
1429 2 0.319306 0.44445 0.107028
1430 4 0.314714 0.426283 0.123583
1431 4 0.323898 0.462617 0.0904736
608 4 0.274349 0.504573 0.0990622
3882 4 0.499925 0.47745 0.086077
109 3 0.492242 0.462866 0.0991813
531 4 0.0848831 0.0821105 0.249481
1422 4 0.0902251 0.998332 0.234473
764 4 0.127621 0.0694967 0.196971
1403 4 0.0953382 0.0149831 0.225617
1402 2 0.105303 0.0354877 0.215348
1404 4 0.115267 0.0559924 0.205079
1341 4 0.236778 0.00550418 0.215257
1497 4 0.256971 0.00763134 0.21128
25 3 0.322796 0.0767043 0.174301
1495 2 0.280036 0.00312399 0.202742
1496 4 0.303101 0.998617 0.194205
698 4 0.39546 0.0622118 0.171415
1783 2 0.394396 0.0333019 0.198481
1784 4 0.39602 0.0439928 0.175937
1785 4 0.392772 0.022611 0.221025
1322 4 0.388423 0.00438429 0.227067
365 4 0.0636709 0.130987 0.226035
364 2 0.0657711 0.132488 0.201165
300 4 0.0706907 0.149714 0.232998
366 4 0.0678713 0.133989 0.176296
937 2 0.161667 0.140365 0.182264
763 2 0.136322 0.0865806 0.180921
765 4 0.145024 0.103665 0.164871
939 4 0.170161 0.158548 0.197178
2768 4 0.48701 0.121552 0.199098
331 2 0.462017 0.143882 0.177755
332 4 0.483298 0.13133 0.181598
333 4 0.440736 0.156433 0.173912
370 2 0.124586 0.191633 0.233022
371 4 0.111288 0.180903 0.251276
372 4 0.137883 0.202363 0.214768
261 4 0.169791 0.246142 0.25119
353 4 0.240399 0.195031 0.19906
546 4 0.206463 0.206957 0.167163
544 2 0.206326 0.19853 0.190703
545 4 0.206189 0.190103 0.214243
389 4 0.215911 0.197137 0.230482
354 4 0.279354 0.175355 0.174646
352 2 0.259877 0.185193 0.186853
2893 2 0.392237 0.220167 0.167296
2894 4 0.416211 0.213672 0.170163
2836 2 0.422612 0.243789 0.225833
312 4 0.434374 0.170239 0.18758
311 4 0.432658 0.218447 0.200762
310 2 0.433516 0.194343 0.194171
2838 4 0.439302 0.235834 0.209
287 4 0.0491883 0.30221 0.182667
2616 4 0.0353896 0.299484 0.196493
2614 2 0.0412424 0.321948 0.205783
449 4 0.0753362 0.258573 0.210769
448 2 0.0797811 0.259552 0.186183
507 4 0.141699 0.296517 0.199412
338 4 0.147354 0.284794 0.214154
505 2 0.147127 0.320354 0.194166
337 2 0.162824 0.267834 0.224063
339 4 0.178295 0.250874 0.233973
423 4 0.237953 0.261683 0.247484
749 4 0.244674 0.277191 0.237285
748 2 0.252245 0.301019 0.237023
750 4 0.259815 0.324848 0.236761
509 4 0.260039 0.336485 0.220888
2837 4 0.405923 0.251745 0.242666
2615 4 0.0470953 0.344411 0.215074
602 4 0.0474734 0.363621 0.211514
601 2 0.0654365 0.378077 0.201843
603 4 0.0833996 0.392533 0.192172
363 4 0.10062 0.39648 0.200366
506 4 0.152556 0.34419 0.188919
361 2 0.112663 0.417938 0.195926
648 4 0.16992 0.343109 0.200038
646 2 0.191446 0.354954 0.204675
647 4 0.212972 0.3668 0.209313
2954 4 0.224603 0.382604 0.202729
2953 2 0.226813 0.406676 0.209121
510 4 0.252434 0.35096 0.173629
508 2 0.256236 0.343723 0.197259
756 4 0.275791 0.410218 0.166565
103 3 0.34008 0.353678 0.191999
610 2 0.347297 0.342671 0.234775
611 4 0.347468 0.350724 0.211104
101 1 0.334244 0.349845 0.169871
586 2 0.381906 0.385137 0.174463
588 4 0.397684 0.401399 0.185035
2652 4 0.407008 0.417592 0.193295
2650 2 0.430602 0.412101 0.1871
2451 4 0.472904 0.402389 0.185015
2449 2 0.491026 0.410061 0.16959
2651 4 0.454195 0.40661 0.180905
619 2 0.0728367 0.491969 0.207224
620 4 0.0509381 0.480141 0.209615
548 4 0.0377248 0.494971 0.21121
621 4 0.0947353 0.503798 0.204834
362 4 0.124705 0.439395 0.191486
303 4 0.133749 0.470962 0.222888
301 2 0.152227 0.479948 0.237134
1222 2 0.205018 0.461036 0.170873
1223 4 0.222956 0.45726 0.187879
345 4 0.242878 0.463302 0.186693
2955 4 0.229022 0.430748 0.215512
344 4 0.276385 0.427701 0.176178
343 2 0.259632 0.445502 0.181435
412 2 0.328104 0.483298 0.202971
413 4 0.320025 0.481075 0.179413
414 4 0.336182 0.485522 0.226529
1336 2 0.0668217 0.036823 0.309376
529 2 0.0695088 0.0652302 0.259673
530 4 0.0541345 0.0483499 0.269864
1338 4 0.0579879 0.0499626 0.290024
1337 4 0.0756555 0.0236834 0.328728
631 2 0.288418 0.081581 0.325982
706 2 0.421757 0.0698318 0.323632
3677 4 0.420332 0.0796052 0.261066
3676 2 0.440923 0.0893722 0.271352
708 4 0.440103 0.0553852 0.314693
298 2 0.0596314 0.164611 0.24976
416 4 0.155014 0.119753 0.321531
467 4 0.229742 0.097284 0.278843
466 2 0.230035 0.120672 0.270006
468 4 0.230329 0.14406 0.26117
390 4 0.236156 0.164014 0.262006
498 4 0.324101 0.104149 0.308923
632 4 0.308616 0.094189 0.318349
496 2 0.339813 0.10226 0.328282
3678 4 0.461513 0.0991391 0.281638
304 2 0.495625 0.101984 0.268866
305 4 0.471186 0.105798 0.265212
299 4 0.0485721 0.179508 0.266521
705 4 0.0468478 0.191664 0.282145
703 2 0.0220212 0.188938 0.280965
421 2 0.225925 0.245414 0.262176
422 4 0.213897 0.229145 0.276867
259 2 0.174407 0.224027 0.261905
599 4 0.181003 0.175956 0.325511
600 4 0.196405 0.195659 0.282206
260 4 0.179022 0.201912 0.272621
598 2 0.188704 0.185807 0.303858
388 2 0.226033 0.180576 0.246244
1701 4 0.260842 0.235191 0.335771
1699 2 0.264428 0.242614 0.312166
1700 4 0.268014 0.250038 0.28856
279 4 0.398384 0.212028 0.299966
420 4 0.381084 0.214687 0.290935
418 2 0.394337 0.229952 0.276221
277 2 0.397041 0.195618 0.318783
278 4 0.395697 0.179208 0.3376
419 4 0.40759 0.245217 0.261506
570 4 0.132596 0.364321 0.328664
767 4 0.2764 0.349152 0.337052
737 4 0.365041 0.329466 0.261981
612 4 0.347125 0.334618 0.258445
248 4 0.376911 0.357474 0.312546
738 4 0.389128 0.35594 0.296905
736 2 0.377085 0.342703 0.279443
267 4 0.413433 0.397488 0.329599
266 4 0.462515 0.390746 0.322796
265 2 0.437974 0.394117 0.326197
614 4 0.469613 0.40413 0.336469
613 2 0.49163 0.409517 0.325916
681 4 0.0207105 0.46074 0.306873
3672 4 0.0249806 0.441938 0.302768
3670 2 0.00075454 0.43717 0.30671
679 2 0.0368754 0.477006 0.296907
1641 4 0.152595 0.468338 0.327392
1820 4 0.158097 0.482063 0.313515
1819 2 0.168736 0.484266 0.290996
302 4 0.170706 0.488935 0.251381
1821 4 0.179376 0.486469 0.268476
377 4 0.407136 0.41505 0.324283
592 2 0.408012 0.489406 0.281135
543 4 0.338616 0.479286 0.314627
541 2 0.360177 0.477389 0.327146
4383 4 0.494709 0.470192 0.323367
1331 4 0.477621 0.459822 0.318482
1332 4 0.433666 0.474638 0.299796
1330 2 0.455643 0.46723 0.309139
594 4 0.425766 0.471801 0.281336
341 4 0.0727466 0.00410494 0.330735
2636 4 0.00558661 0.0198239 0.414257
1182 4 0.109907 0.0807273 0.385657
1180 2 0.127008 0.0641097 0.378133
1181 4 0.144108 0.047492 0.37061
321 4 0.155293 0.0305743 0.366901
319 2 0.17435 0.0458426 0.361527
320 4 0.193408 0.0611108 0.356153
403 2 0.232014 0.0730013 0.356356
405 4 0.254494 0.0778774 0.346553
404 4 0.209535 0.0681253 0.366158
633 4 0.26822 0.068973 0.333615
707 4 0.403412 0.0842784 0.332572
487 2 0.411414 0.0755669 0.375148
489 4 0.405638 0.0738672 0.350881
3889 2 0.457231 0.0187179 0.334282
3890 4 0.445581 0.03942 0.326478
488 4 0.41719 0.0772666 0.399416
2534 4 0.0570007 0.136157 0.399275
2533 2 0.04131 0.150097 0.385687
368 4 0.076914 0.128258 0.39465
367 2 0.0834514 0.104638 0.389697
369 4 0.0899888 0.081018 0.384743
471 4 0.0103954 0.163099 0.357337
415 2 0.146085 0.114514 0.344291
417 4 0.137155 0.109276 0.367051
1210 2 0.247662 0.1683 0.385584
1518 4 0.280592 0.152576 0.401502
1211 4 0.265079 0.150794 0.389503
497 4 0.355525 0.100372 0.347641
2656 2 0.361051 0.0945157 0.388616
2658 4 0.366623 0.0942364 0.364243
2657 4 0.35548 0.094795 0.412989
2535 4 0.0256192 0.164037 0.372098
348 4 0.0849987 0.204866 0.413674
1212 4 0.230245 0.185805 0.381665
1200 4 0.210998 0.188792 0.381952
1199 4 0.169146 0.180459 0.408022
1198 2 0.190072 0.184625 0.394987
473 4 0.406808 0.193963 0.403851
275 4 0.413125 0.214252 0.405857
274 2 0.421492 0.235533 0.395742
459 4 0.0427171 0.33138 0.380362
457 2 0.0396273 0.326474 0.404685
503 4 0.293208 0.266903 0.410564
504 4 0.26019 0.281928 0.376143
502 2 0.276699 0.274415 0.393354
804 4 0.330182 0.257344 0.410486
276 4 0.42986 0.256813 0.385627
650 4 0.435206 0.277494 0.386346
649 2 0.452701 0.292598 0.395885
651 4 0.470195 0.307702 0.405423
872 4 0.460749 0.325432 0.408768
936 4 0.0862398 0.411993 0.339377
1152 4 0.053987 0.343697 0.368871
1150 2 0.0777522 0.339175 0.362551
1398 4 0.0669743 0.411498 0.346055
1151 4 0.101517 0.334652 0.356232
934 2 0.10234 0.392864 0.339131
935 4 0.11844 0.373735 0.338884
568 2 0.146367 0.360012 0.349084
569 4 0.160138 0.355702 0.369504
678 4 0.177946 0.349153 0.358561
676 2 0.20225 0.347586 0.364223
677 4 0.226553 0.346019 0.369884
308 4 0.277082 0.413169 0.335651
768 4 0.28188 0.397676 0.347827
766 2 0.27914 0.373414 0.34244
729 4 0.309709 0.405982 0.35907
727 2 0.303857 0.42064 0.378463
247 2 0.364443 0.358118 0.334209
249 4 0.351975 0.358762 0.355873
1396 2 0.0618979 0.435961 0.345084
1397 4 0.0568216 0.460425 0.344113
1750 2 0.0456525 0.479761 0.377528
1752 4 0.0504088 0.46024 0.362646
1639 2 0.144799 0.449958 0.342443
1640 4 0.137003 0.431577 0.357495
1446 4 0.148315 0.429521 0.374592
2222 4 0.201018 0.413149 0.406288
1444 2 0.164734 0.420852 0.39134
1445 4 0.181152 0.412184 0.408087
728 4 0.298006 0.435298 0.397856
307 2 0.268376 0.43645 0.338363
309 4 0.25967 0.459732 0.341075
560 4 0.309387 0.448618 0.40694
376 2 0.39632 0.43562 0.333507
378 4 0.385505 0.45619 0.342731
542 4 0.381738 0.475492 0.339665
1803 4 0.469997 0.491437 0.399031
2635 2 0.997611 0.038534 0.4288
1602 4 0.100019 0.0440683 0.49135
852 4 0.110967 0.0262087 0.487425
850 2 0.103309 0.0100309 0.469966
1600 2 0.091996 0.0630494 0.477189
683 4 0.188078 0.0374956 0.4298
684 4 0.216959 0.0162741 0.464674
605 4 0.23496 0.017271 0.456445
682 2 0.202519 0.0268849 0.447237
431 4 0.306357 0.0689588 0.469156
258 4 0.375777 0.0583067 0.486659
1816 2 0.37236 0.0763609 0.451651
1817 4 0.38367 0.0692808 0.472796
733 2 0.0605222 0.141809 0.468544
734 4 0.0689517 0.161905 0.456285
1601 4 0.0839734 0.0820305 0.463028
735 4 0.0520926 0.121714 0.480803
792 4 0.242248 0.104948 0.459559
430 2 0.292381 0.0809013 0.452209
790 2 0.255951 0.117185 0.476519
1516 2 0.280671 0.132301 0.416134
1517 4 0.280749 0.112026 0.430766
432 4 0.278404 0.0928438 0.435261
791 4 0.269655 0.129423 0.493479
1818 4 0.361049 0.083441 0.430505
347 4 0.0856204 0.169127 0.448646
346 2 0.0853095 0.186996 0.43116
472 2 0.387585 0.199022 0.419018
802 2 0.34477 0.23824 0.417374
474 4 0.368362 0.204082 0.434185
803 4 0.359357 0.219136 0.424262
458 4 0.0365375 0.321569 0.429007
716 4 0.14341 0.270923 0.42808
2915 4 0.150781 0.280736 0.488242
717 4 0.156172 0.290704 0.4722
715 2 0.149791 0.280813 0.45014
238 2 0.233194 0.275541 0.484397
240 4 0.213628 0.262525 0.475858
239 4 0.25276 0.288558 0.492937
710 4 0.264725 0.301466 0.483387
711 4 0.294638 0.292308 0.444374
709 2 0.279681 0.296887 0.463881
374 4 0.313363 0.30176 0.442681
373 2 0.331717 0.318699 0.443861
1193 4 0.473658 0.316753 0.460501
871 2 0.471471 0.329252 0.431031
1192 2 0.469926 0.320733 0.484902
1220 4 0.0145121 0.39035 0.449775
501 4 0.026185 0.384805 0.46497
499 2 0.0278561 0.370376 0.485322
1179 4 0.164765 0.352478 0.501096
384 4 0.221459 0.377074 0.489565
383 4 0.235951 0.415099 0.4605
382 2 0.228705 0.396086 0.475032
2223 4 0.219465 0.424504 0.45136
1178 4 0.201944 0.38314 0.487745
1177 2 0.183355 0.367809 0.49442
334 2 0.362802 0.407914 0.473462
336 4 0.374077 0.40326 0.451635
375 4 0.35007 0.335638 0.44504
1238 4 0.340662 0.395778 0.497892
873 4 0.482192 0.333072 0.453294
4299 4 0.0311013 0.451824 0.452841
4297 2 0.0369804 0.450924 0.477127
4298 4 0.0428595 0.450025 0.501413
2138 4 0.107229 0.501247 0.478598
1161 4 0.124632 0.491622 0.473527
2221 2 0.210241 0.418826 0.428824
561 4 0.330795 0.4621 0.450075
1454 4 0.329137 0.464051 0.46968
559 2 0.320091 0.455359 0.428508
1401 4 0.407293 0.51013 0.489618
1453 2 0.345348 0.46408 0.488716
335 4 0.351526 0.412568 0.495288
1471 2 0.458821 0.483258 0.474532
1473 4 0.460179 0.505255 0.462723
1801 2 0.461442 0.49757 0.421711
1472 4 0.457464 0.461261 0.486342
725 4 0.291604 0.0519788 0.523843
724 2 0.31497 0.0602013 0.527249
1062 4 0.314141 0.0558681 0.568917
409 2 0.286452 0.995581 0.573505
726 4 0.338336 0.0684237 0.530654
480 4 0.393604 0.0348563 0.554285
478 2 0.403884 0.0300611 0.532003
1026 4 0.392822 0.0285205 0.573349
257 4 0.353513 0.0802352 0.525699
479 4 0.414165 0.0252659 0.50972
256 2 0.364645 0.0692709 0.506179
3759 4 0.417953 0.019151 0.490005
4227 4 0.471198 0.074511 0.584731
1272 4 0.138578 0.147402 0.565922
1277 4 0.124616 0.160591 0.57369
887 4 0.239166 0.121472 0.561603
857 4 0.259791 0.139062 0.507555
856 2 0.257517 0.134747 0.532079
858 4 0.255243 0.130433 0.556602
886 2 0.245049 0.104954 0.579427
4225 2 0.481968 0.0918285 0.570264
4226 4 0.492739 0.109146 0.555797
3266 4 0.0284303 0.233732 0.552574
3265 2 0.00798951 0.248128 0.552238
3043 2 0.107687 0.24827 0.572132
1276 2 0.118362 0.184687 0.576029
1137 4 0.320479 0.241471 0.55865
1167 4 0.302159 0.250746 0.556349
1135 2 0.330031 0.241209 0.581755
3044 4 0.115172 0.271935 0.569113
1284 4 0.146037 0.294112 0.554574
2914 2 0.147486 0.289077 0.511582
2916 4 0.144191 0.297418 0.534922
1282 2 0.157981 0.29415 0.576541
668 4 0.23634 0.299463 0.584967
806 4 0.254563 0.305175 0.582796
1165 2 0.293467 0.273554 0.550923
1166 4 0.284774 0.296361 0.545496
805 2 0.262601 0.32863 0.579568
899 4 0.422117 0.309642 0.561038
898 2 0.437947 0.316277 0.542857
952 2 0.496852 0.27347 0.555997
900 4 0.453777 0.322912 0.524676
1194 4 0.466193 0.324714 0.509303
954 4 0.497209 0.292258 0.539504
2508 4 0.49252 0.258713 0.591368
3263 4 0.0517718 0.345816 0.552059
618 4 0.0699447 0.347627 0.542207
3262 2 0.0338507 0.346889 0.534656
3264 4 0.0159296 0.347961 0.517253
500 4 0.0295272 0.355947 0.505674
696 4 0.164721 0.358828 0.519857
616 2 0.0920119 0.337542 0.548251
694 2 0.146954 0.349224 0.534598
695 4 0.129188 0.339619 0.549339
617 4 0.114079 0.327458 0.554294
1008 4 0.269051 0.371875 0.580141
1006 2 0.281163 0.381827 0.560662
807 4 0.270639 0.352085 0.57634
1239 4 0.312644 0.386671 0.538299
1237 2 0.326653 0.391225 0.518096
1007 4 0.293275 0.391779 0.541183
662 4 0.497374 0.354181 0.546957
3123 4 0.492715 0.372998 0.550714
3121 2 0.486035 0.38981 0.567974
926 4 0.420857 0.354079 0.587975
3352 2 0.0580101 0.460857 0.536494
3353 4 0.057569 0.446149 0.516278
3354 4 0.0584512 0.475565 0.556709
1122 4 0.0613609 0.494358 0.563621
928 2 0.409762 0.440752 0.57104
930 4 0.389391 0.427475 0.565213
2028 4 0.371871 0.423374 0.574196
1400 4 0.380029 0.473345 0.509724
1455 4 0.36156 0.46411 0.507753
1399 2 0.393661 0.491737 0.499671
929 4 0.430132 0.454029 0.576866
2740 2 0.440482 0.484523 0.54671
2742 4 0.430611 0.465788 0.560004
4337 4 0.0672367 0.0439459 0.644964
864 4 0.0585782 0.0573022 0.657382
4336 2 0.0844501 0.0276257 0.652871
4338 4 0.101663 0.0113054 0.660779
1522 2 0.236507 0.0747819 0.628575
1523 4 0.230817 0.0547077 0.642353
1781 4 0.226427 0.0507724 0.659905
888 4 0.250932 0.0884351 0.597252
410 4 0.271057 0.00365496 0.591476
1059 4 0.273883 0.00634142 0.610541
1060 2 0.317907 0.0520375 0.593337
841 2 0.323033 0.0152854 0.636145
843 4 0.321985 0.0402606 0.636711
3732 4 0.369382 0.0541717 0.590934
1061 4 0.321672 0.0482069 0.617757
1024 2 0.399038 0.00625526 0.582878
3730 2 0.380263 0.0540423 0.613445
3731 4 0.391144 0.0539129 0.635957
3467 4 0.480361 0.0620011 0.597543
3400 2 0.446295 0.0772226 0.617869
3466 2 0.498104 0.0443861 0.597762
3401 4 0.426929 0.0620439 0.613428
1143 4 0.419286 0.0654137 0.665873
2132 4 0.113288 0.103406 0.646601
2131 2 0.104893 0.105078 0.623108
2133 4 0.0964973 0.106749 0.599616
1270 2 0.126908 0.131618 0.581409
1271 4 0.115238 0.115834 0.596896
1524 4 0.242197 0.0948561 0.614797
50 3 0.290366 0.173052 0.622627
46 1 0.297458 0.157629 0.637809
48 3 0.304991 0.138614 0.626849
49 3 0.280107 0.152127 0.652199
830 4 0.278789 0.137746 0.665083
1263 4 0.309744 0.13007 0.644379
1261 2 0.318564 0.109575 0.655663
47 3 0.314776 0.166489 0.650086
1085 4 0.382742 0.161722 0.667271
515 4 0.370837 0.167576 0.651881
3402 4 0.465662 0.0924014 0.62231
1032 4 0.499956 0.0959087 0.605688
820 2 0.0717173 0.241319 0.660303
4287 4 0.010115 0.190837 0.633955
3032 4 0.0224001 0.202684 0.643227
3031 2 0.0158434 0.224805 0.633589
3045 4 0.100201 0.224605 0.575151
1278 4 0.112108 0.208782 0.578368
1068 4 0.0952019 0.221558 0.653747
1066 2 0.116837 0.213036 0.644555
1067 4 0.138471 0.204514 0.635363
816 4 0.154957 0.237256 0.618447
516 4 0.323903 0.184559 0.648797
514 2 0.34737 0.176068 0.650339
1136 4 0.339583 0.240946 0.604861
797 4 0.344636 0.253809 0.618518
641 4 0.435318 0.174978 0.633301
640 2 0.443174 0.196811 0.623985
642 4 0.451031 0.218644 0.614669
2507 4 0.450228 0.235915 0.605237
2506 2 0.471374 0.247314 0.598303
821 4 0.0467423 0.242091 0.659391
814 2 0.163211 0.258535 0.628657
1283 4 0.169924 0.294189 0.598508
667 2 0.2117 0.295664 0.586868
669 4 0.187059 0.291866 0.588769
815 4 0.171466 0.279814 0.638867
1260 4 0.184848 0.293152 0.634437
1258 2 0.188154 0.31603 0.643969
8 3 0.228542 0.270062 0.669933
1259 4 0.19146 0.338907 0.653502
7 3 0.247955 0.253324 0.642444
6 1 0.247765 0.258059 0.664954
798 4 0.324576 0.277453 0.657752
796 2 0.334606 0.265631 0.638135
10 3 0.266191 0.270379 0.670184
1028 4 0.455228 0.264523 0.645155
1027 2 0.471209 0.282407 0.652223
1029 4 0.48719 0.300291 0.659292
1395 4 0.210323 0.3391 0.660315
1393 2 0.234069 0.345249 0.655469
1394 4 0.257815 0.351398 0.650622
890 4 0.294902 0.375461 0.606643
889 2 0.280506 0.372003 0.626792
891 4 0.266109 0.368544 0.64694
801 4 0.315116 0.371768 0.606861
1010 4 0.40821 0.341705 0.596495
799 2 0.335237 0.357176 0.604142
1011 4 0.362501 0.323785 0.605995
800 4 0.355358 0.342583 0.601423
1009 2 0.385356 0.332745 0.601245
927 4 0.451876 0.36147 0.626497
925 2 0.436366 0.357775 0.607236
3381 4 0.463518 0.358941 0.640275
3379 2 0.482953 0.374431 0.637537
3122 4 0.479354 0.406622 0.585233
1937 4 0.0376469 0.457267 0.600487
2172 4 0.0329521 0.464477 0.65344
3432 4 0.0373418 0.446501 0.660303
3430 2 0.060085 0.436301 0.662274
1936 2 0.0279789 0.439722 0.615449
1938 4 0.0183109 0.422177 0.630411
879 4 0.999244 0.416436 0.623823
2170 2 0.0437151 0.486808 0.650174
2153 4 0.248446 0.449421 0.659735
2152 2 0.259776 0.437118 0.641149
774 4 0.289356 0.420291 0.628913
772 2 0.313721 0.422442 0.623724
2154 4 0.271105 0.424814 0.622564
773 4 0.338085 0.424593 0.618535
2026 2 0.358458 0.432955 0.592997
2027 4 0.345045 0.442536 0.611798
1229 4 0.396556 0.450242 0.635678
1228 2 0.375536 0.447381 0.648913
3065 4 0.485052 0.417056 0.602036
2140 2 0.439811 0.495827 0.61787
2141 4 0.448497 0.481533 0.599284
862 2 0.0441618 0.0543923 0.677603
3236 4 0.0220883 0.0547103 0.715818
863 4 0.0297453 0.0514823 0.697824
3235 2 0.0195569 0.0497144 0.740186
1780 2 0.227223 0.0429405 0.683637
1782 4 0.22802 0.0351086 0.707369
965 4 0.248012 0.0279012 0.709151
964 2 0.257291 0.024407 0.732105
43 3 0.348626 0.997163 0.720674
41 1 0.366569 0.0118625 0.721283
44 3 0.361558 0.0309867 0.709136
45 3 0.385123 0.00183691 0.712688
42 3 0.370595 0.0177806 0.743145
1133 4 0.00601612 0.112118 0.743573
2048 4 0.0966889 0.151613 0.702986
963 4 0.0977521 0.131515 0.700434
962 4 0.1157 0.0985826 0.667358
961 2 0.106726 0.115049 0.683896
2047 2 0.103971 0.166274 0.721886
976 2 0.211126 0.0997381 0.747319
977 4 0.224102 0.115648 0.733047
840 4 0.215309 0.129057 0.719815
838 2 0.215367 0.151565 0.708925
1262 4 0.327384 0.0890797 0.666948
831 4 0.247908 0.0988565 0.670972
829 2 0.263348 0.118301 0.668028
1084 2 0.389169 0.142701 0.682173
1086 4 0.395597 0.12368 0.697075
1142 4 0.400228 0.107586 0.684821
1141 2 0.409757 0.0864997 0.675347
3008 4 0.489354 0.107233 0.70905
3007 2 0.489876 0.110181 0.733874
822 4 0.0966924 0.240547 0.661214
2049 4 0.111253 0.180935 0.740786
9 3 0.247947 0.238117 0.676815
1131 4 0.24701 0.218172 0.676936
839 4 0.215426 0.174072 0.698035
1129 2 0.231285 0.205294 0.691498
1130 4 0.215559 0.192416 0.70606
3334 2 0.402759 0.214946 0.728713
3335 4 0.397738 0.190647 0.731805
1113 4 0.392496 0.174351 0.742507
3336 4 0.40778 0.239244 0.72562
3387 4 0.0369508 0.257402 0.665671
3386 4 0.0153487 0.263668 0.710334
3385 2 0.0261498 0.260535 0.688003
3038 4 0.0047367 0.267888 0.727576
1041 4 0.137245 0.273382 0.745875
3112 2 0.294157 0.286465 0.678468
3113 4 0.269523 0.28665 0.682747
3114 4 0.318791 0.286281 0.674188
1063 2 0.391548 0.261873 0.757562
1065 4 0.402797 0.243285 0.745187
1189 2 0.10634 0.40287 0.695242
1191 4 0.122599 0.390905 0.709996
1190 4 0.0900811 0.414835 0.680489
3224 4 0.150807 0.371775 0.724051
3223 2 0.15798 0.368202 0.747736
4412 4 0.999195 0.478783 0.686939
1279 2 0.0186723 0.466072 0.721216
1281 4 0.0324327 0.467382 0.742052
1280 4 0.00491191 0.464763 0.700381
3431 4 0.0828282 0.426101 0.664246
1176 4 0.230787 0.441795 0.665797
1175 4 0.23602 0.431787 0.714512
1905 4 0.232154 0.43329 0.733875
1174 2 0.233404 0.436791 0.690154
1230 4 0.354517 0.44452 0.662148
1980 4 0.364515 0.452002 0.678833
1978 2 0.359675 0.468436 0.697044
1979 4 0.354835 0.484871 0.715255
4061 4 0.482814 0.455517 0.726739
3237 4 0.0170255 0.0447186 0.764555
2255 4 0.101284 0.0633229 0.804752
2256 4 0.120415 0.0186876 0.792819
945 4 0.114717 0.00021123 0.796111
2254 2 0.110849 0.0410052 0.798786
4193 4 0.0947876 0.0737772 0.820879
978 4 0.198151 0.0838288 0.761592
1080 4 0.189333 0.0684197 0.772315
1078 2 0.166936 0.0785819 0.776819
909 4 0.251326 0.0176962 0.785177
907 2 0.235258 0.0367668 0.786997
908 4 0.21919 0.0558375 0.788818
966 4 0.266571 0.0209129 0.755058
1049 4 0.279897 0.0356588 0.756417
1048 2 0.296449 0.0517244 0.766067
1050 4 0.313 0.06779 0.775716
1090 2 0.401928 0.998199 0.763423
1092 4 0.383079 0.0137409 0.758102
826 2 0.372313 0.0816519 0.822327
3126 4 0.42433 0.0368512 0.802124
3124 2 0.440572 0.0180866 0.805169
3125 4 0.456814 0.999322 0.808215
2004 4 0.474033 0.990796 0.803697
1196 4 0.0137928 0.16435 0.828802
1079 4 0.14454 0.0887441 0.781324
4194 4 0.0846116 0.118145 0.800174
4192 2 0.0896996 0.0959609 0.810526
1225 2 0.144611 0.122811 0.802955
1226 4 0.146001 0.0983209 0.798107
1227 4 0.143221 0.147301 0.807802
1043 4 0.14349 0.150289 0.828637
828 4 0.389434 0.0948491 0.809762
1298 4 0.391388 0.0968622 0.790674
1297 2 0.41511 0.103463 0.786329
1112 4 0.371483 0.169867 0.787663
1111 2 0.381989 0.172109 0.765085
3009 4 0.490398 0.113129 0.758697
87 3 0.455029 0.108974 0.793408
1299 4 0.438832 0.110063 0.781983
86 1 0.471895 0.121784 0.78443
90 3 0.471657 0.119674 0.761755
89 3 0.492216 0.114404 0.792855
88 3 0.468444 0.143951 0.790354
968 4 0.477515 0.15834 0.801864
2000 4 0.0657296 0.18011 0.799616
1999 2 0.0452979 0.180581 0.814021
1257 4 0.0788621 0.192846 0.791915
2001 4 0.0248662 0.181052 0.828426
1255 2 0.0907895 0.195075 0.770053
1256 4 0.102717 0.197304 0.748191
1042 2 0.153834 0.17284 0.825529
1044 4 0.164177 0.195391 0.82242
942 4 0.172511 0.203194 0.805733
940 2 0.179152 0.220988 0.78947
941 4 0.185793 0.238782 0.773208
1040 4 0.177973 0.246091 0.755731
2051 4 0.35318 0.160251 0.792092
2050 2 0.35156 0.172245 0.813971
2052 4 0.349941 0.184239 0.835851
967 2 0.473565 0.182321 0.807738
969 4 0.469616 0.206301 0.813612
3483 4 0.457439 0.215283 0.82707
2998 2 0.0585251 0.251986 0.789029
3000 4 0.0426693 0.258421 0.80726
3249 4 0.026408 0.249857 0.810053
2999 4 0.0743808 0.245551 0.770798
894 4 0.0779983 0.259257 0.755807
893 4 0.127212 0.257036 0.747217
892 2 0.102605 0.258146 0.751512
1039 2 0.157609 0.259736 0.750803
849 4 0.153858 0.309007 0.812785
1245 4 0.159474 0.312698 0.832829
1098 4 0.326142 0.272695 0.783858
1096 2 0.323829 0.29759 0.783556