ITEM: TIMESTEP
1730000
ITEM: NUMBER OF ATOMS
4800
ITEM: BOX BOUNDS pp pp pp
-9.9985700000000008e+00 9.9985700000000008e+00
-9.9985700000000008e+00 9.9985700000000008e+00
-9.9985700000000008e+00 9.9985700000000008e+00
ITEM: ATOMS id type xs ys zs
1438 2 0.134551 0.0473223 0.0390983
1440 4 0.144887 0.0686021 0.0310046
1439 4 0.124214 0.0260424 0.047192
1002 4 0.105408 0.0266127 0.045859
1000 2 0.0957452 0.0170809 0.066858
1475 4 0.265703 0.0278024 0.033049
1474 2 0.278285 0.012351 0.0481528
947 4 0.263592 0.0446195 0.0447469
946 2 0.265732 0.0694999 0.0459973
2226 4 0.387576 0.0205921 0.0100528
2224 2 0.387978 0.0455844 0.0106858
2225 4 0.388381 0.0705767 0.0113188
2472 4 0.39855 0.0875794 0.0126368
2841 4 0.456763 0.0755748 0.0585457
3299 4 0.438008 0.0713337 0.0651149
3536 4 0.0189327 0.123978 0.0293653
3535 2 0.00309834 0.136724 0.0439258
1670 4 0.0289689 0.11077 0.0190681
300 3 0.148995 0.0801471 0.0156653
299 3 0.147382 0.117624 0.018913
1010 4 0.139307 0.172231 0.0796519
296 1 0.161359 0.0992511 0.0165725
298 3 0.176179 0.098251 0.0343984
852 4 0.244447 0.162303 0.0348592
1185 4 0.233021 0.148743 0.0459695
1183 2 0.247394 0.129041 0.0514861
1184 4 0.261768 0.10934 0.0570027
948 4 0.267873 0.0943803 0.0472477
1458 4 0.350614 0.161286 0.075309
1456 2 0.343362 0.138802 0.0834969
2839 2 0.459039 0.0899829 0.0382379
2840 4 0.461315 0.104391 0.0179302
3207 4 0.493833 0.147029 0.0744431
1009 2 0.125754 0.1798 0.060051
938 4 0.122493 0.184778 0.0240682
1011 4 0.112201 0.18737 0.04045
937 2 0.131552 0.188492 0.00106105
850 2 0.242726 0.186846 0.0304016
851 4 0.241005 0.211388 0.025944
1413 4 0.239241 0.223891 0.0111821
799 2 0.303223 0.24033 0.0659823
67 3 0.319408 0.208804 0.0719417
801 4 0.324393 0.227851 0.0705931
1218 4 0.423343 0.218113 0.00472237
69 3 0.336878 0.17598 0.0774213
776 4 0.434686 0.205904 0.0576879
1217 4 0.444915 0.220862 0.0497537
1216 2 0.434129 0.219488 0.027238
3410 4 0.493487 0.232824 0.0390435
3409 2 0.503905 0.226546 0.0608892
962 4 0.124393 0.321533 0.0611841
824 4 0.159027 0.257647 0.0634309
825 4 0.202537 0.247439 0.040995
823 2 0.180782 0.252543 0.052213
1693 2 0.214273 0.291342 0.0123902
1695 4 0.228919 0.298091 0.0314981
1254 4 0.184025 0.295234 0.998933
1694 4 0.199626 0.284594 0.993282
1221 4 0.263138 0.254635 0.0610173
800 4 0.282052 0.25281 0.0613714
1050 4 0.261517 0.276891 0.00051844
1220 4 0.250715 0.265438 0.0137981
1219 2 0.256926 0.260037 0.0374077
1740 4 0.361863 0.281436 0.0766642
1738 2 0.385217 0.274573 0.0823772
1675 2 0.497988 0.256998 0.0103403
804 4 0.0791697 0.371306 0.0530192
802 2 0.0746633 0.395729 0.0559116
803 4 0.0701568 0.420152 0.058804
963 4 0.145522 0.362647 0.0421075
1004 4 0.159002 0.375393 0.0349912
961 2 0.134958 0.34209 0.0516458
1003 2 0.160521 0.393353 0.0176611
767 4 0.107169 0.421067 0.995366
1725 4 0.216952 0.366203 0.0140829
1374 4 0.255853 0.366996 0.0483271
1372 2 0.265289 0.382761 0.065286
1373 4 0.274725 0.398526 0.082245
1118 4 0.329741 0.347972 0.995899
877 2 0.329991 0.407745 0.0764471
976 2 0.379836 0.382904 0.0713888
977 4 0.36492 0.398186 0.0583827
878 4 0.346346 0.392748 0.0649237
978 4 0.394751 0.367622 0.0843949
1117 2 0.338623 0.371339 0.996409
3749 4 0.01102 0.463222 0.0540396
1089 4 0.1084 0.420219 0.0147785
1087 2 0.113978 0.444253 0.0188316
1088 4 0.119556 0.468287 0.0228848
1554 4 0.129647 0.482498 0.0138078
1552 2 0.110877 0.497891 0.0198008
1913 4 0.201669 0.429097 0.0473845
1912 2 0.206626 0.426168 0.0717161
1551 4 0.235548 0.48429 0.0236612
1751 4 0.234462 0.477887 0.042819
1549 2 0.256606 0.478479 0.0114978
12 3 0.269489 0.437892 0.0575262
879 4 0.313636 0.422742 0.0879705
14 3 0.303183 0.42992 0.0721478
11 1 0.281002 0.434535 0.0771562
13 3 0.271532 0.416603 0.088434
1550 4 0.277665 0.472668 0.999334
969 4 0.37561 0.485834 0.0666656
4058 4 0.499774 0.485554 0.0647516
1937 4 0.160439 0.00954602 0.104835
1001 4 0.0860826 0.00754918 0.087857
894 4 0.173652 0.0219796 0.11408
893 4 0.197454 0.0618676 0.132604
892 2 0.185553 0.0419236 0.123342
1128 4 0.198648 0.080165 0.124472
1072 2 0.299164 0.0631051 0.160068
1074 4 0.312082 0.0756888 0.142749
1863 4 0.408026 0.0717381 0.164661
1208 4 0.399722 0.0830369 0.151041
3298 2 0.430384 0.0637969 0.0877034
33 3 0.426649 0.0632333 0.16391
35 3 0.431665 0.0551608 0.127478
31 1 0.430645 0.0719834 0.142795
3300 4 0.422759 0.0562602 0.110292
32 3 0.450724 0.0832045 0.143073
3036 4 0.99881 0.0869794 0.168453
3034 2 0.0132453 0.0910588 0.148449
3035 4 0.0276801 0.0951381 0.128445
43 3 0.126973 0.119036 0.131357
45 3 0.157042 0.110844 0.152486
41 1 0.136346 0.120346 0.152543
44 3 0.137837 0.142528 0.159188
1127 4 0.162679 0.11394 0.132606
1126 2 0.180664 0.0970525 0.128539
966 4 0.304617 0.0919448 0.134238
964 2 0.324225 0.0981766 0.120029
34 3 0.413803 0.0868852 0.137078
1457 4 0.336111 0.116317 0.0916849
965 4 0.343832 0.104408 0.10582
1207 2 0.386714 0.103863 0.146326
1209 4 0.373706 0.12469 0.141611
1097 4 0.412001 0.138866 0.145003
1096 2 0.414423 0.16052 0.132738
3131 4 0.487401 0.133492 0.129079
3130 2 0.469417 0.11823 0.137374
3132 4 0.451432 0.102969 0.14567
3206 4 0.497584 0.15033 0.1242
3205 2 0.495708 0.14868 0.0993216
809 4 0.0331853 0.234328 0.157364
912 4 0.0221268 0.218134 0.159532
3237 4 0.997082 0.22736 0.107351
3235 2 0.000901032 0.240121 0.128511
68 3 0.305391 0.184481 0.0969325
18 3 0.259462 0.230898 0.150934
66 1 0.324911 0.192988 0.0877126
70 3 0.337593 0.202685 0.103954
1098 4 0.416845 0.182174 0.120473
775 2 0.427903 0.197971 0.0804086
777 4 0.42112 0.190038 0.103129
1508 4 0.434471 0.24788 0.145759
1197 4 0.0771606 0.287948 0.148983
810 4 0.0652615 0.271591 0.148235
808 2 0.0492234 0.25296 0.1528
866 4 0.125874 0.318436 0.0815473
1195 2 0.0912325 0.306049 0.158959
865 2 0.135932 0.30976 0.102731
867 4 0.14599 0.301084 0.123914
845 4 0.153475 0.281155 0.123951
844 2 0.168361 0.285062 0.143658
846 4 0.183247 0.28897 0.163364
1739 4 0.408572 0.26771 0.0880902
1509 4 0.417301 0.253804 0.099167
1507 2 0.425886 0.250842 0.122463
3272 4 0.441337 0.260502 0.160493
1215 4 0.0277449 0.411221 0.13569
1213 2 0.0416512 0.395007 0.148686
1733 4 0.029168 0.404218 0.116524
1732 2 0.0126767 0.399304 0.098384
1214 4 0.0555575 0.378793 0.161683
1172 4 0.0443223 0.362502 0.166551
2165 4 0.0955977 0.406842 0.0947552
2166 4 0.0978503 0.368254 0.126483
2164 2 0.096724 0.387548 0.110619
1105 2 0.140053 0.400186 0.14154
1106 4 0.157509 0.386365 0.130163
906 4 0.160438 0.366672 0.123548
1107 4 0.122597 0.414007 0.152918
904 2 0.185232 0.368727 0.12106
905 4 0.210027 0.370782 0.118573
1070 4 0.227418 0.368291 0.127564
1069 2 0.251289 0.365067 0.13427
1071 4 0.27516 0.361843 0.140976
1205 4 0.394492 0.348982 0.0947845
1206 4 0.368448 0.346829 0.13742
1082 4 0.381251 0.349954 0.153734
1204 2 0.38147 0.347905 0.116102
2163 4 0.0320386 0.460465 0.114714
831 4 0.0440499 0.449005 0.103023
829 2 0.0659975 0.437153 0.101288
2161 2 0.0108944 0.456862 0.127564
830 4 0.0879451 0.425301 0.0995528
1914 4 0.211584 0.42324 0.0960477
764 4 0.198475 0.436228 0.103633
763 2 0.194111 0.458685 0.113725
765 4 0.189748 0.481141 0.123818
1785 4 0.187847 0.501539 0.117879
53 3 0.232798 0.46814 0.153536
55 3 0.19526 0.468375 0.156446
2265 4 0.25021 0.468775 0.144347
15 3 0.279671 0.453334 0.0899416
2264 4 0.264614 0.445737 0.102365
2263 2 0.257412 0.457256 0.123356
1973 4 0.407188 0.457409 0.085717
1972 2 0.416659 0.441925 0.102914
1968 4 0.434761 0.439365 0.133062
1966 2 0.440813 0.42252 0.15052
1974 4 0.426131 0.426442 0.120111
1965 4 0.0895807 0.0114071 0.180535
818 4 0.236145 0.00544022 0.171927
2123 4 0.250846 0.00771393 0.206711
817 2 0.256324 0.0194959 0.176448
1073 4 0.286245 0.0505213 0.177387
819 4 0.276502 0.0335515 0.18097
2122 2 0.253577 0.0146156 0.230588
848 4 0.383068 0.0374192 0.219411
847 2 0.383532 0.0528033 0.239117
1861 2 0.398981 0.0615063 0.185606
1862 4 0.389937 0.0512744 0.206551
757 2 0.0599321 0.0990921 0.232202
758 4 0.0366261 0.107866 0.234443
2850 4 0.0195271 0.116482 0.233525
2848 2 0.00706102 0.136894 0.240816
983 4 0.123107 0.143601 0.173154
42 3 0.122858 0.109038 0.167354
1842 4 0.0973567 0.102421 0.220784
759 4 0.0832382 0.0903178 0.229961
1841 4 0.117751 0.123575 0.18032
1840 2 0.107554 0.112998 0.200552
1883 4 0.212624 0.158657 0.210069
910 2 0.0324205 0.200845 0.174375
911 4 0.0427141 0.183555 0.189217
884 4 0.0776517 0.224114 0.253384
982 2 0.12235 0.168585 0.173786
984 4 0.121593 0.193569 0.174418
20 3 0.234313 0.237094 0.178261
1882 2 0.22438 0.177438 0.198483
1250 4 0.215662 0.234024 0.187046
1884 4 0.236135 0.19622 0.186897
19 3 0.242275 0.201706 0.168163
16 1 0.250757 0.223119 0.170986
17 3 0.2676 0.222441 0.18664
1157 4 0.990361 0.269319 0.214418
1173 4 0.0330656 0.327478 0.200424
1447 2 0.00540202 0.312392 0.213896
1448 4 0.0179774 0.334001 0.213601
1196 4 0.105304 0.32415 0.168935
1249 2 0.203679 0.252743 0.175593
1251 4 0.191695 0.271462 0.164139
3271 2 0.436397 0.275302 0.18003
3273 4 0.431456 0.290103 0.199568
756 4 0.448316 0.287616 0.212305
754 2 0.43896 0.294114 0.234563
1171 2 0.0386939 0.34499 0.183488
1163 4 0.0141364 0.371069 0.248607
1162 2 0.999823 0.385936 0.234491
1046 4 0.102202 0.343738 0.167793
859 2 0.0928373 0.404622 0.23717
860 4 0.104346 0.394289 0.217524
1045 2 0.101734 0.361771 0.185106
1047 4 0.101265 0.379804 0.20242
1847 4 0.225164 0.407671 0.234174
900 4 0.211406 0.406369 0.247236
1081 2 0.377071 0.353306 0.178157
1150 2 0.377591 0.340893 0.239933
1083 4 0.372892 0.356658 0.20258
1152 4 0.382465 0.357325 0.221728
1967 4 0.446866 0.405675 0.167979
2824 2 0.493702 0.397432 0.19695
2826 4 0.472599 0.393598 0.209801
350 3 0.444754 0.353083 0.181594
349 3 0.46434 0.377222 0.202839
346 1 0.444102 0.373216 0.192219
347 3 0.427359 0.372921 0.20799
348 3 0.439705 0.390101 0.176924
434 3 0.015416 0.44666 0.207752
431 1 0.999083 0.437755 0.221621
1139 4 0.0707056 0.499262 0.251907
1855 2 0.163504 0.487834 0.180284
1857 4 0.150299 0.501921 0.19617
1846 2 0.223729 0.419133 0.211998
1856 4 0.176708 0.473747 0.164397
1848 4 0.222294 0.430595 0.189823
54 3 0.215268 0.444419 0.177503
51 1 0.214748 0.465526 0.167881
52 3 0.216138 0.481329 0.184538
2181 4 0.00985789 0.0290401 0.250844
930 4 0.155928 0.0689494 0.277918
1877 4 0.147051 0.000876532 0.302992
1160 4 0.171061 0.0755018 0.289488
1159 2 0.191097 0.0740573 0.304377
1161 4 0.211132 0.0726127 0.319266
1142 4 0.224726 0.0676952 0.293195
1141 2 0.239572 0.0515686 0.281166
1878 4 0.185525 0.00284262 0.271109
1876 2 0.166288 0.00185958 0.28705
2124 4 0.256309 0.0215172 0.254464
1143 4 0.254418 0.0354419 0.269137
849 4 0.383996 0.0681873 0.258822
933 4 0.40228 0.0764194 0.259007
252 3 0.499646 0.0183833 0.301172
255 3 0.46646 0.00261144 0.294628
1798 2 0.0114229 0.10121 0.331087
1076 4 0.130405 0.128538 0.26172
929 4 0.141229 0.116581 0.273934
928 2 0.148579 0.0927653 0.275926
1075 2 0.130779 0.147259 0.27829
1061 4 0.154765 0.128346 0.321448
1017 4 0.13906 0.116841 0.324582
1015 2 0.128107 0.0954541 0.331498
1077 4 0.131153 0.16598 0.29486
1060 2 0.179307 0.126719 0.325946
932 4 0.403077 0.126419 0.258668
931 2 0.402679 0.101419 0.258837
834 4 0.417347 0.137038 0.27096
832 2 0.418973 0.15929 0.282245
1230 4 0.0212896 0.237368 0.302565
1228 2 0.0276455 0.224459 0.323013
924 4 0.0106286 0.225465 0.28972
883 2 0.102267 0.22352 0.257732
885 4 0.126882 0.222925 0.262081
957 4 0.126569 0.203578 0.267446
955 2 0.147381 0.200518 0.280962
1395 4 0.118755 0.171427 0.309262
956 4 0.168193 0.197458 0.294478
843 4 0.181584 0.196952 0.310903
841 2 0.187572 0.211251 0.330521
889 2 0.239507 0.221935 0.313067
890 4 0.216717 0.212685 0.308567
891 4 0.262297 0.231184 0.317568
979 2 0.292823 0.235145 0.30096
30 3 0.328303 0.225989 0.282259
980 4 0.317257 0.22984 0.301002
815 4 0.359561 0.233449 0.304777
1093 2 0.395454 0.212545 0.293562
1094 4 0.372885 0.223261 0.292577
29 3 0.364427 0.219214 0.274086
814 2 0.35853 0.234905 0.329716
26 1 0.348191 0.235585 0.27669
28 3 0.345913 0.247682 0.257021
1095 4 0.418024 0.20183 0.294546
833 4 0.4206 0.181543 0.293531
882 4 0.0213035 0.317183 0.292899
880 2 0.0167459 0.335083 0.276046
981 4 0.268389 0.24045 0.300917
27 3 0.354677 0.249882 0.293504
927 4 0.381127 0.30688 0.264345
925 2 0.3674 0.286074 0.262384
926 4 0.353672 0.265268 0.260423
1151 4 0.372718 0.324462 0.258138
755 4 0.429604 0.300612 0.256821
3008 4 0.483669 0.328991 0.308304
997 2 0.457458 0.321172 0.280666
999 4 0.449087 0.309021 0.26048
3007 2 0.487841 0.320776 0.331547
861 4 0.0813281 0.414954 0.256815
881 4 0.0121883 0.352982 0.259193
974 4 0.10852 0.368844 0.317918
898 2 0.189834 0.395442 0.253595
899 4 0.168262 0.384516 0.259954
1014 4 0.233174 0.411912 0.316895
998 4 0.465829 0.333323 0.300851
2218 2 0.422263 0.420103 0.327965
435 3 0.0081376 0.432324 0.241799
1043 4 0.0674164 0.415804 0.271829
1042 2 0.0472752 0.425629 0.26074
1044 4 0.0271341 0.435455 0.249651
1921 2 0.0661858 0.46112 0.321951
1140 4 0.0623213 0.461734 0.283876
1138 2 0.0665135 0.480498 0.267891
1923 4 0.0702724 0.471342 0.299501
1085 4 0.205876 0.493504 0.296319
2183 4 0.220452 0.484054 0.285716
2182 2 0.239935 0.480256 0.30092
1012 2 0.216031 0.420312 0.333042
795 4 0.318343 0.435323 0.251719
2184 4 0.259418 0.476459 0.316125
1038 4 0.273394 0.480431 0.330083
1036 2 0.294424 0.469156 0.322614
1037 4 0.315454 0.45788 0.315145
783 4 0.328817 0.471458 0.322609
793 2 0.329249 0.457226 0.256869
794 4 0.340155 0.479128 0.26202
2246 4 0.350292 0.478571 0.278486
781 2 0.350326 0.48035 0.331746
2219 4 0.444915 0.424708 0.318434
1194 4 0.437078 0.433586 0.300248
1193 4 0.482065 0.433473 0.27841
2130 4 0.493662 0.431256 0.260771
1192 2 0.459571 0.433529 0.289329
1016 4 0.117154 0.0740674 0.338413
1154 4 0.103969 0.0784676 0.352677
2986 2 0.0916391 0.0247099 0.420772
1155 4 0.0886987 0.0439037 0.385432
1153 2 0.0963337 0.0611857 0.369055
2987 4 0.0995232 0.0388867 0.401745
1826 4 0.208766 0.0660443 0.338637
1825 2 0.231469 0.0558611 0.341098
1827 4 0.254172 0.045678 0.343558
771 4 0.270867 0.0501381 0.331535
769 2 0.286933 0.0332041 0.340497
770 4 0.302999 0.0162702 0.349458
1570 2 0.288812 0.0703369 0.413683
90 3 0.317448 0.0638112 0.377153
920 4 0.300117 0.0110421 0.409389
86 1 0.333982 0.0776535 0.384478
2977 2 0.327536 0.00321338 0.361984
22 3 0.360394 0.0140289 0.387242
25 3 0.389379 0.0375301 0.387919
88 3 0.337996 0.0739516 0.40703
87 3 0.353257 0.0733349 0.372688
3669 4 0.360816 0.0764838 0.35452
3667 2 0.385601 0.0789505 0.35233
2979 4 0.349365 0.00994853 0.37215
23 3 0.38428 0.0132631 0.416252
21 1 0.382428 0.0165353 0.393355
909 4 0.452645 0.0600202 0.384777
3255 4 0.457866 0.0779164 0.381205
907 2 0.462512 0.0575386 0.407617
3107 4 0.0200955 0.103923 0.3614
1799 4 0.029284 0.0935008 0.346794
3108 4 0.0371475 0.0931034 0.407148
3106 2 0.0286215 0.0985131 0.384274
85 3 0.0505663 0.157887 0.336679
83 3 0.0439283 0.163922 0.373247
2858 4 0.0488394 0.11 0.409679
1243 2 0.145492 0.161351 0.388162
1244 4 0.126388 0.169988 0.374537
1245 4 0.164595 0.152714 0.401787
1062 4 0.203849 0.125092 0.330445
1080 4 0.214501 0.142775 0.331674
1078 2 0.230426 0.1619 0.329259
838 2 0.235229 0.0924544 0.403943
172 3 0.173763 0.137671 0.411238
840 4 0.211229 0.0979689 0.39961
1131 4 0.207048 0.152893 0.415184
174 3 0.202008 0.113417 0.406082
1572 4 0.277605 0.0876954 0.399602
839 4 0.259229 0.0869399 0.408275
89 3 0.327887 0.0997772 0.381044
3668 4 0.410386 0.0814173 0.350141
3254 4 0.42337 0.0969781 0.350426
3253 2 0.440618 0.0874472 0.365815
1229 4 0.0340014 0.21155 0.343462
84 3 0.0391786 0.19194 0.34801
81 1 0.0517497 0.173219 0.353478
82 3 0.0736632 0.179572 0.356407
1393 2 0.12624 0.173634 0.333017
1394 4 0.133725 0.175841 0.356772
1108 2 0.16535 0.233444 0.417899
1109 4 0.171441 0.209195 0.41768
842 4 0.193559 0.225549 0.35014
64 3 0.201196 0.228514 0.367362
61 1 0.218997 0.227951 0.382235
1130 4 0.208409 0.202663 0.410521
62 3 0.211103 0.22222 0.403068
63 3 0.234489 0.212064 0.375452
1129 2 0.207728 0.177778 0.412853
1079 4 0.246352 0.181024 0.326844
816 4 0.357499 0.236361 0.354656
1167 4 0.362845 0.217371 0.357883
1227 4 0.382328 0.20293 0.403406
1166 4 0.366286 0.194535 0.402238
1165 2 0.364566 0.205953 0.380061
1110 4 0.159259 0.257693 0.418117
870 4 0.145862 0.272075 0.414326
868 2 0.162324 0.289619 0.407514
65 3 0.228859 0.24845 0.38333
792 4 0.221269 0.266725 0.380651
790 2 0.217802 0.2906 0.387218
791 4 0.214336 0.314476 0.393784
1029 4 0.196977 0.31721 0.403802
869 4 0.178785 0.307163 0.400702
3009 4 0.492014 0.31256 0.354791
1022 4 0.47842 0.303885 0.365659
1021 2 0.458621 0.30593 0.380792
1023 4 0.438823 0.307974 0.395925
761 4 0.430852 0.318405 0.412423
975 4 0.0726925 0.342396 0.340669
973 2 0.090606 0.35562 0.329293
1982 4 0.230495 0.387052 0.379348
1092 4 0.227681 0.397005 0.396685
1981 2 0.251434 0.377135 0.369946
1983 4 0.272373 0.367217 0.360544
1948 2 0.300466 0.398618 0.365294
1949 4 0.280791 0.383326 0.367352
1950 4 0.320141 0.41391 0.363235
901 2 0.39488 0.364386 0.399058
903 4 0.371164 0.362452 0.40674
2220 4 0.39961 0.415499 0.337497
902 4 0.418595 0.36632 0.391376
2834 4 0.99646 0.441167 0.361838
1019 4 0.0167101 0.445452 0.361948
1018 2 0.0117498 0.464452 0.377427
1020 4 0.0067894 0.483452 0.392905
1922 4 0.0620992 0.450898 0.3444
1187 4 0.0250182 0.485969 0.402683
1853 4 0.16908 0.489735 0.365487
1013 4 0.198887 0.428711 0.349189
2170 2 0.212581 0.481397 0.411371
1852 2 0.17785 0.46678 0.360866
1854 4 0.186619 0.443825 0.356245
1091 4 0.222407 0.443908 0.413206
1090 2 0.225044 0.420456 0.404945
2172 4 0.208789 0.457231 0.406195
1893 4 0.367669 0.492037 0.359499
782 4 0.371835 0.489241 0.340884
3862 2 0.479585 0.474461 0.417497
3864 4 0.495522 0.485895 0.401991
59 3 0.0138546 0.0834182 0.469333
3074 4 0.0818366 0.0200045 0.456332
3073 2 0.0648567 0.030279 0.47154
3075 4 0.0478768 0.0405535 0.486749
58 3 0.0346615 0.0525209 0.476873
56 1 0.0259417 0.0721601 0.485629
57 3 0.0118583 0.0669267 0.503048
2988 4 0.083755 0.0105332 0.4398
215 3 0.261415 0.038025 0.45686
1571 4 0.300018 0.0529784 0.427764
214 3 0.296948 0.0441647 0.446025
211 1 0.281907 0.0452728 0.463659
212 3 0.289436 0.0317962 0.480713
213 3 0.280411 0.0670829 0.471436
919 2 0.322689 0.0150406 0.419373
1182 4 0.274332 0.0863372 0.467544
1233 4 0.295622 0.0304455 0.500878
3183 4 0.348194 0.0594309 0.416437
921 4 0.345261 0.0190391 0.429357
2087 4 0.344742 0.0153694 0.450027
3181 2 0.365542 0.0602657 0.434424
3182 4 0.382891 0.0611005 0.45241
951 4 0.368554 0.0641096 0.468327
949 2 0.373928 0.0798595 0.486989
960 4 0.38293 0.998698 0.42992
908 4 0.472378 0.055057 0.430458
4470 4 0.485364 0.0386754 0.429244
60 3 0.0428012 0.0853928 0.49333
942 4 0.00112346 0.0935771 0.458146
2857 2 0.0521361 0.128664 0.425987
2859 4 0.0554328 0.147328 0.442296
1472 4 0.0524422 0.162173 0.455751
2210 4 0.0419668 0.105164 0.494828
175 3 0.205186 0.141448 0.431018
171 1 0.190837 0.12639 0.421744
173 3 0.181815 0.112834 0.438274
1052 4 0.275398 0.153422 0.47234
1181 4 0.281988 0.134355 0.479224
1180 2 0.27816 0.110346 0.473384
1471 2 0.0674972 0.179682 0.446161
1473 4 0.0825522 0.197191 0.436572
826 2 0.0882103 0.236354 0.42703
827 4 0.0902107 0.211484 0.425399
1051 2 0.29402 0.169964 0.470152
1053 4 0.312642 0.186505 0.467963
935 4 0.329604 0.197367 0.47502
1225 2 0.388093 0.195175 0.426467
1226 4 0.393859 0.187421 0.449527
934 2 0.349051 0.211126 0.482616
936 4 0.368498 0.224884 0.490211
1646 4 0.401247 0.174625 0.486824
2938 2 0.498287 0.198427 0.481895
3112 2 0.0505893 0.290439 0.461403
3113 4 0.0377784 0.269082 0.463628
780 4 0.0409001 0.263976 0.483305
3114 4 0.0634003 0.311796 0.459178
3153 4 0.0745674 0.319808 0.473721
828 4 0.0862098 0.261224 0.428662
1027 2 0.205023 0.329303 0.424154
762 4 0.446246 0.297816 0.455316
760 2 0.438549 0.308111 0.43387
3152 4 0.065407 0.36883 0.477407
3151 2 0.0699872 0.344319 0.475564
875 4 0.0550634 0.384662 0.470752
874 2 0.0456212 0.406681 0.477908
1028 4 0.213068 0.341396 0.444506
1169 4 0.211383 0.354786 0.458603
1168 2 0.203461 0.378449 0.460173
1170 4 0.195538 0.402112 0.461743
3604 2 0.443153 0.404781 0.486756
1382 4 0.481822 0.361342 0.43101
1455 4 0.464024 0.352381 0.431538
1453 2 0.460577 0.362225 0.454262
1454 4 0.45713 0.372069 0.476987
3606 4 0.440864 0.379884 0.486967
1849 2 0.0205216 0.504743 0.502927
876 4 0.036179 0.428699 0.485064
1806 4 0.0334067 0.441272 0.501221
1134 4 0.104687 0.411017 0.437325
1630 2 0.149982 0.49501 0.477729
1133 4 0.130484 0.448703 0.416952
1132 2 0.117586 0.42986 0.427138
6 1 0.159742 0.441172 0.495477
1632 4 0.151293 0.471578 0.486356
7 3 0.146863 0.424007 0.487191
10 3 0.162344 0.457051 0.47936
164 3 0.245035 0.484679 0.502924
165 3 0.26441 0.456222 0.487676
162 3 0.272478 0.49139 0.478133
161 1 0.265792 0.477632 0.495315
3650 4 0.392106 0.432747 0.486122
3863 4 0.463648 0.463027 0.433004
3898 2 0.444528 0.460183 0.463154
3900 4 0.442483 0.449111 0.485479
3605 4 0.445443 0.429679 0.486546
3899 4 0.446574 0.471255 0.440829
3436 2 0.0404962 0.0187613 0.559428
3437 4 0.026718 0.0392361 0.555413
1616 4 0.0919916 0.0789422 0.599725
1231 2 0.316666 0.0241972 0.512848
1232 4 0.33771 0.0179488 0.524818
149 3 0.357272 0.0157385 0.52565
146 1 0.375524 0.0247996 0.536748
147 3 0.36879 0.0437657 0.547887
1179 4 0.362146 0.0607295 0.540049
150 3 0.39179 0.0302707 0.521776
1499 4 0.402661 0.0121031 0.519616
148 3 0.383772 0.00956467 0.552184
1644 4 0.372476 0.0036145 0.567362
1498 2 0.424671 0.0228278 0.514542
1500 4 0.44668 0.0335525 0.509467
1559 4 0.0534316 0.160818 0.524119
1558 2 0.0631711 0.159051 0.54708
2211 4 0.0622596 0.146593 0.514131
2209 2 0.0521132 0.125879 0.504479
1560 4 0.0729106 0.157285 0.570041
1177 2 0.361476 0.0852726 0.544778
1178 4 0.360805 0.109816 0.549507
1135 2 0.364512 0.134267 0.507173
1137 4 0.351269 0.154362 0.500391
1136 4 0.377756 0.114172 0.513954
950 4 0.379303 0.0956094 0.50565
1100 4 0.462148 0.153427 0.532366
779 4 0.0149519 0.247797 0.522874
1581 4 0.148104 0.185382 0.535615
1601 4 0.142869 0.20266 0.543096
1600 2 0.130137 0.216364 0.559687
1602 4 0.117406 0.230069 0.576278
1289 4 0.102285 0.243303 0.57522
1579 2 0.172093 0.192335 0.53444
1699 2 0.230048 0.179715 0.536271
1700 4 0.205483 0.181052 0.531804
1580 4 0.196082 0.199287 0.533265
1340 4 0.219168 0.235525 0.557024
1339 2 0.19725 0.238262 0.568742
1362 4 0.235247 0.244732 0.551732
1701 4 0.254613 0.178378 0.540738
1360 2 0.257418 0.235374 0.558517
1361 4 0.27959 0.226016 0.565301
40 3 0.266847 0.175808 0.55675
1145 4 0.321305 0.186464 0.549504
38 3 0.303933 0.175563 0.55025
36 1 0.284358 0.18792 0.548668
39 3 0.286488 0.207698 0.560614
37 3 0.280515 0.192965 0.526556
1146 4 0.352821 0.168257 0.515211
1144 2 0.337063 0.177361 0.532357
1645 2 0.400624 0.194838 0.501528
1647 4 0.400001 0.215052 0.516233
1321 2 0.354088 0.247498 0.523452
1323 4 0.365845 0.241167 0.502313
1334 4 0.417622 0.222303 0.522785
1099 2 0.472803 0.175547 0.52764
1101 4 0.483459 0.197668 0.522915
518 3 0.485561 0.237813 0.536102
2940 4 0.495543 0.20151 0.506555
1333 2 0.422856 0.246031 0.52868
778 2 0.027926 0.255886 0.503089
1285 2 0.331813 0.260097 0.582172
1286 4 0.331228 0.264689 0.5576
1322 4 0.342331 0.253829 0.544591
2827 2 0.439796 0.30764 0.553637
1335 4 0.42809 0.269759 0.534575
2829 4 0.434155 0.283996 0.54778
2828 4 0.445437 0.331284 0.559495
1040 4 0.0137233 0.393948 0.550812
1039 2 0.0290741 0.396975 0.570316
3224 4 0.454214 0.345514 0.569659
3223 2 0.477584 0.35166 0.576084
3225 4 0.500953 0.357805 0.58251
1804 2 0.00955169 0.444917 0.507766
8 3 0.149077 0.450311 0.513947
1238 4 0.197558 0.436409 0.509119
9 3 0.180441 0.432707 0.501665
1237 2 0.214433 0.454018 0.503612
1239 4 0.231308 0.471627 0.498104
1343 4 0.286812 0.493223 0.525391
163 3 0.281373 0.478931 0.51246
1698 4 0.331971 0.443005 0.569489
1652 4 0.314732 0.435421 0.577139
3649 2 0.381603 0.427999 0.508311
3651 4 0.3711 0.423251 0.530499
1697 4 0.375819 0.433669 0.547333
1696 2 0.353895 0.438337 0.558411
4253 4 0.498486 0.483822 0.54759
1114 2 0.481419 0.452723 0.561782
1116 4 0.499925 0.465032 0.550327
1115 4 0.462914 0.440414 0.573237
4391 4 0.44419 0.438503 0.578323
1615 2 0.115341 0.0720442 0.594035
1617 4 0.138691 0.0651461 0.588344
862 2 0.158827 0.0127084 0.585062
864 4 0.171826 0.0317143 0.594808
1608 4 0.179435 0.0496165 0.590313
1606 2 0.174026 0.0713023 0.601522
1531 2 0.41337 0.0749797 0.660726
104 3 0.399903 0.0288088 0.649334
101 1 0.401344 0.0057039 0.650912
2268 4 0.47487 0.998846 0.584589
2266 2 0.46384 0.00307542 0.606626
1532 4 0.436614 0.0667038 0.656678
526 1 0.461669 0.0447474 0.643884
527 3 0.439799 0.0495349 0.64917
530 3 0.462736 0.0240849 0.634368
2267 4 0.452809 0.00730534 0.628662
528 3 0.469459 0.0607384 0.628984
1548 4 0.473693 0.0798553 0.626974
529 3 0.474349 0.0451797 0.663312
1496 4 0.0823276 0.140096 0.576289
1495 2 0.0834958 0.115622 0.581272
2832 4 0.0232405 0.164658 0.664061
1497 4 0.0846641 0.091148 0.586254
1607 4 0.168616 0.0929881 0.612731
1533 4 0.390125 0.0832557 0.664774
1547 4 0.467191 0.110614 0.588085
1546 2 0.470442 0.0952346 0.607529
3465 4 0.021022 0.238287 0.653199
1294 2 0.147114 0.190803 0.652963
1295 4 0.126806 0.178069 0.660076
1296 4 0.167423 0.203536 0.645849
1403 4 0.163297 0.217783 0.659002
1402 2 0.1679 0.24229 0.660838
1341 4 0.175333 0.240999 0.58046
1277 4 0.168296 0.253134 0.594829
3368 4 0.0710804 0.289755 0.617826
1290 4 0.0803872 0.279074 0.602453
3463 2 0.0383631 0.256294 0.65365
3464 4 0.0557043 0.274301 0.654102
3367 2 0.0874149 0.308169 0.622217
1288 2 0.091336 0.261188 0.588837
3369 4 0.103749 0.326584 0.626609
1278 4 0.175871 0.30185 0.603196
1426 2 0.144638 0.324746 0.608949
1276 2 0.172083 0.277492 0.599012
1427 4 0.16817 0.320574 0.601599
1718 4 0.262005 0.310469 0.658215
1384 2 0.344686 0.273232 0.639733
1386 4 0.339643 0.271507 0.615304
1287 4 0.332398 0.255505 0.606743
1385 4 0.349728 0.274956 0.664162
1593 4 0.0609313 0.394651 0.600082
1041 4 0.0444249 0.400001 0.589819
1591 2 0.0710635 0.38978 0.622416
1592 4 0.0811957 0.38491 0.644749
1428 4 0.121107 0.328919 0.616299
3542 4 0.0922947 0.399529 0.653772
1589 4 0.165457 0.42036 0.643858
1352 4 0.213495 0.371031 0.599916
1351 2 0.237639 0.369851 0.606308
1614 4 0.204884 0.388155 0.60848
1612 2 0.188716 0.405289 0.616857
1613 4 0.172547 0.422422 0.625235
1353 4 0.261783 0.368671 0.612701
1470 4 0.259697 0.372623 0.631583
1468 2 0.269592 0.387206 0.64932
1673 4 0.418734 0.370182 0.645218
1672 2 0.430827 0.389034 0.656334
1674 4 0.44292 0.407885 0.66745
1588 2 0.166731 0.429848 0.666956
1653 4 0.287023 0.47155 0.597818
1651 2 0.300877 0.453486 0.587479
2595 4 0.282914 0.481664 0.613861
2557 2 0.408367 0.477073 0.648705
2558 4 0.38709 0.479091 0.661682
2780 4 0.466082 0.489793 0.627172
2559 4 0.429644 0.475056 0.635727
4392 4 0.438018 0.463164 0.621386
2779 2 0.48292 0.471356 0.628486
4390 2 0.441104 0.450833 0.599854
3398 4 0.99056 0.0141098 0.737448
2309 4 0.0955631 0.0272436 0.7037
1299 4 0.0993334 0.00849603 0.714223
2308 2 0.10583 0.046006 0.690748
2310 4 0.116096 0.0647684 0.677796
1483 2 0.157613 0.0770146 0.688816
1484 4 0.133216 0.0726246 0.685552
1713 4 0.180084 0.00212687 0.712669
1711 2 0.189507 0.0202222 0.727124
1305 4 0.192334 0.0721899 0.708017
1485 4 0.182011 0.0814046 0.692081
1712 4 0.198929 0.0383176 0.74158
1544 4 0.376537 0.0724901 0.677484
1668 4 0.473232 0.0409725 0.735097
1666 2 0.477244 0.0585516 0.717775
3693 4 0.467663 0.0323443 0.752796
1667 4 0.481256 0.0761307 0.700453
1514 4 7.31488e-05 0.0928317 0.747106
2441 4 0.0380008 0.126806 0.704596
2440 2 0.0574646 0.121589 0.689794
3774 4 0.0198456 0.0889639 0.742709
2442 4 0.0769284 0.116372 0.674991
1685 4 0.0933354 0.129065 0.679151
1684 2 0.100774 0.151482 0.670946
1316 4 0.160691 0.162001 0.73171
1303 2 0.212522 0.0869422 0.70808
1304 4 0.23271 0.101695 0.708143
1349 4 0.229535 0.122402 0.710659
1325 4 0.176651 0.158493 0.742719
1348 2 0.251863 0.129719 0.70211
1618 2 0.309574 0.133676 0.687734
1350 4 0.274192 0.137036 0.693562
1620 4 0.2893 0.148049 0.684981
1619 4 0.329848 0.119304 0.690486
1543 2 0.359533 0.0907783 0.67874
1545 4 0.342529 0.109067 0.679996
1689 4 0.497332 0.0862273 0.70617
1539 4 0.029365 0.175041 0.680129
1537 2 0.0531836 0.17656 0.687581
1629 4 0.0828787 0.196319 0.689639
1538 4 0.0770023 0.17808 0.695034
464 3 0.00934876 0.192254 0.742387
1686 4 0.108212 0.173899 0.662741
1627 2 0.0985735 0.199875 0.708776
1628 4 0.114268 0.20343 0.727912
1317 4 0.123929 0.194074 0.742694
1315 2 0.14231 0.178037 0.737202
1503 4 0.109079 0.229227 0.755245
1704 4 0.289041 0.203205 0.739289
1702 2 0.276358 0.223323 0.747007
1746 4 0.071465 0.28451 0.658985
1744 2 0.0735944 0.300478 0.678107
1257 4 0.108294 0.248748 0.749521
143 3 0.149278 0.294844 0.699996
1745 4 0.0757238 0.316446 0.697229
1255 2 0.119223 0.249796 0.727057
1256 4 0.130152 0.250845 0.704593
142 3 0.172114 0.284899 0.67185
144 3 0.186792 0.292481 0.705609
141 1 0.170167 0.298245 0.690484
145 3 0.172458 0.32006 0.684358
1404 4 0.172503 0.266798 0.662674
1268 4 0.243281 0.287142 0.720664
1267 2 0.244087 0.266619 0.734924
1719 4 0.247093 0.289266 0.700979
1717 2 0.254549 0.299867 0.679597
1481 4 0.340219 0.245767 0.732155
1661 4 0.335632 0.268235 0.677593
1660 2 0.344831 0.262346 0.700085
1662 4 0.354029 0.256458 0.722578
1478 4 0.0369568 0.359975 0.74393
1355 4 0.171456 0.339332 0.678589
1354 2 0.186563 0.350406 0.695152
1356 4 0.201669 0.361479 0.711714
1469 4 0.279486 0.401789 0.667057
3429 4 0.298335 0.40386 0.673297
1536 4 0.444124 0.411179 0.68625
1561 2 0.48735 0.371426 0.71591
1562 4 0.466722 0.38502 0.719764
1452 4 0.451092 0.392181 0.731957
3541 2 0.0940352 0.41929 0.668992
1436 4 0.0968374 0.457895 0.67772
3543 4 0.0957757 0.439051 0.684213
1599 4 0.161268 0.424904 0.702897
1597 2 0.164212 0.431706 0.726777
1435 2 0.107004 0.48039 0.673743
1590 4 0.168005 0.439336 0.690055
3427 2 0.294564 0.420102 0.691929
3428 4 0.290793 0.436345 0.710561
2529 4 0.344778 0.489097 0.702569
2528 4 0.371108 0.467697 0.665834
2527 2 0.357943 0.478397 0.684201
1450 2 0.445353 0.416136 0.736247
1535 4 0.485991 0.436938 0.677069
1534 2 0.465058 0.424059 0.68166
1451 4 0.439615 0.440091 0.740537
2656 2 0.0712315 0.0818697 0.802748