ITEM: TIMESTEP
5710000
ITEM: NUMBER OF ATOMS
4800
ITEM: BOX BOUNDS pp pp pp
-9.9985700000000008e+00 9.9985700000000008e+00
-9.9985700000000008e+00 9.9985700000000008e+00
-9.9985700000000008e+00 9.9985700000000008e+00
ITEM: ATOMS id type xs ys zs
2921 4 0.0468308 0.0430411 0.0785214
183 3 0.082548 0.00405726 0.0719871
984 4 0.130386 0.0530879 0.0504229
3537 4 0.131883 0.0724746 0.0458991
982 2 0.136874 0.0366426 0.0681043
1423 2 0.302244 0.027355 0.00842034
1424 4 0.304961 0.0520994 0.0060712
3206 4 0.405931 0.0650367 0.0649369
3205 2 0.385095 0.0533725 0.0723503
3299 4 0.403439 0.0782319 0.0514063
3886 2 0.48099 0.07505 0.0362847
3887 4 0.487207 0.050991 0.0390596
3460 2 0.49384 0.0126389 0.0370955
255 3 0.463183 0.0763614 0.0790636
1715 4 0.0685191 0.101847 0.0112669
1670 4 0.061821 0.120281 0.00744689
1669 2 0.0555644 0.134679 0.0269081
1671 4 0.0493079 0.149077 0.0463694
803 4 0.06611 0.155782 0.0565253
1714 2 0.059345 0.0801087 0.00299254
3535 2 0.123722 0.0861962 0.0266558
3536 4 0.115562 0.0999179 0.00741244
1219 2 0.193547 0.153899 0.0632165
1221 4 0.205795 0.133559 0.0710554
1150 2 0.315751 0.156515 0.0360644
1151 4 0.305961 0.145732 0.0157403
1185 4 0.307022 0.163091 0.00690223
3298 2 0.399783 0.0890111 0.0291437
3300 4 0.396127 0.0997903 0.00688124
3888 4 0.474774 0.099109 0.0335099
1758 4 0.481288 0.117144 0.0279951
1756 2 0.493069 0.134369 0.041768
802 2 0.0592428 0.172983 0.0733221
1738 2 0.152361 0.194456 0.0748664
1220 4 0.181299 0.174238 0.0553776
1740 4 0.175345 0.189167 0.0665614
1209 4 0.327993 0.209734 0.0699586
1152 4 0.325541 0.167297 0.0563886
1207 2 0.347014 0.225483 0.0660406
1208 4 0.366035 0.241232 0.0621226
1372 2 0.0686694 0.308278 0.042719
1373 4 0.0692512 0.306076 0.0178194
1374 4 0.0680876 0.31048 0.0676186
939 4 0.0587963 0.299977 0.0817048
866 4 0.106048 0.311037 0.015056
865 2 0.109313 0.287959 0.00600505
776 4 0.113567 0.329638 0.0194991
765 4 0.171489 0.286363 0.0355331
1406 4 0.184952 0.294872 0.0457095
763 2 0.176079 0.281531 0.0114342
1405 2 0.171446 0.297347 0.0666057
3410 4 0.362498 0.260417 0.0597541
3409 2 0.38138 0.275937 0.0650259
3411 4 0.400261 0.291457 0.0702977
777 4 0.150582 0.360319 0.0332588
775 2 0.132074 0.344979 0.0263789
1728 4 0.132895 0.409541 0.021564
767 4 0.178798 0.383753 0.0554801
2055 4 0.19745 0.36936 0.00654349
2053 2 0.193353 0.367814 0.0311607
2054 4 0.189256 0.366269 0.0557779
766 2 0.178843 0.401422 0.0731715
1118 4 0.320323 0.357425 0.0529552
1266 4 0.325196 0.365214 0.0345897
1117 2 0.325005 0.369108 0.0745599
1264 2 0.335876 0.358694 0.0129421
791 4 0.293256 0.358984 0.0766059
4362 4 0.407574 0.34716 0.053662
4360 2 0.395377 0.344642 0.0753429
755 4 0.427576 0.347465 0.0544155
756 4 0.46378 0.381917 0.0561638
754 2 0.445678 0.364691 0.0552897
4057 2 0.483361 0.399251 0.0351073
4059 4 0.471537 0.399995 0.057126
4058 4 0.495185 0.398508 0.0130887
1726 2 0.141797 0.430532 0.0113025
1727 4 0.150699 0.451523 0.00104097
1087 2 0.173869 0.480058 0.0060673
1089 4 0.178867 0.502003 0.0169594
1034 4 0.384813 0.429071 0.0161515
3273 4 0.391075 0.433778 0.0365303
3271 2 0.409554 0.433436 0.0533701
3272 4 0.428033 0.433094 0.07021
1953 4 0.486916 0.46293 0.0255773
1951 2 0.4793 0.47318 0.00408041
182 3 0.0498939 0.0225691 0.0739061
181 1 0.0654292 0.0108003 0.0861251
2920 2 0.0289945 0.0575801 0.088302
2922 4 0.0111581 0.072119 0.0980827
184 3 0.0738725 0.0245755 0.102779
845 4 0.0173567 0.00835104 0.146265
983 4 0.143363 0.0201974 0.0857857
918 4 0.147411 0.0237323 0.105058
916 2 0.144988 0.00477958 0.121186
1327 2 0.23321 0.0618593 0.152655
1328 4 0.223615 0.0792463 0.137463
1595 4 0.309873 0.999388 0.123899
770 4 0.317776 0.0167019 0.120527
769 2 0.33317 0.0302591 0.106231
3207 4 0.364258 0.0417083 0.0797637
771 4 0.348564 0.0438163 0.0919338
4089 4 0.466514 0.0267576 0.105589
252 3 0.468131 0.0416867 0.0919512
253 3 0.460392 0.0695284 0.115985
3066 4 0.4399 0.0694677 0.116637
3998 4 0.44427 0.0291686 0.143346
254 3 0.494192 0.0679194 0.0986813
251 1 0.471438 0.0640247 0.0963354
4087 2 0.476068 0.0041423 0.110328
3195 4 0.0483603 0.109626 0.0841724
3193 2 0.0437856 0.114965 0.108167
3194 4 0.0392108 0.120303 0.132162
899 4 0.998669 0.175217 0.134299
1458 4 0.211299 0.123322 0.0871895
1457 4 0.215349 0.0929688 0.126725
1456 2 0.213324 0.108145 0.106957
3064 2 0.434416 0.0910297 0.128047
3065 4 0.428933 0.112592 0.139457
3576 4 0.447194 0.122448 0.136067
3574 2 0.452612 0.137582 0.155219
804 4 0.0523756 0.190185 0.0901189
3310 2 0.0653507 0.225505 0.115336
3311 4 0.0694467 0.245067 0.130361
3312 4 0.0612546 0.205944 0.100311
900 4 0.0306595 0.212984 0.127157
898 2 0.0146643 0.194101 0.130728
4223 4 0.13445 0.202398 0.156732
925 2 0.115737 0.199337 0.118601
927 4 0.11111 0.19597 0.0942608
1739 4 0.129378 0.199745 0.0831713
926 4 0.120365 0.202705 0.142941
4222 2 0.139435 0.179039 0.164126
906 4 0.347196 0.235212 0.122435
904 2 0.350572 0.217997 0.140251
905 4 0.353948 0.200782 0.158068
3293 4 0.49375 0.218655 0.150328
3292 2 0.471541 0.213644 0.139991
3294 4 0.449333 0.208633 0.129653
1047 4 0.0727328 0.253375 0.147782
937 2 0.0606849 0.313676 0.102536
938 4 0.0625735 0.327375 0.123367
830 4 0.0807922 0.334293 0.120049
2182 2 0.142428 0.29908 0.128071
2184 4 0.135726 0.294282 0.151677
2183 4 0.14913 0.303878 0.104465
1407 4 0.15794 0.299821 0.0875019
1045 2 0.0899842 0.252599 0.165864
792 4 0.258722 0.324705 0.088142
1083 4 0.33697 0.253246 0.124518
1081 2 0.344963 0.276924 0.125334
1082 4 0.352956 0.300601 0.12615
70 3 0.371272 0.303446 0.135003
66 1 0.376283 0.325654 0.135582
69 3 0.393078 0.329579 0.151103
2992 2 0.0116823 0.359413 0.132089
2993 4 0.0264906 0.358623 0.152221
829 2 0.103224 0.338416 0.130296
831 4 0.125656 0.342538 0.140543
3993 4 0.127577 0.36145 0.144458
3991 2 0.125621 0.377759 0.163309
790 2 0.275989 0.341844 0.082374
1119 4 0.329688 0.380791 0.0961646
1011 4 0.337954 0.384808 0.11443
68 3 0.383085 0.332785 0.114576
4361 4 0.383179 0.342124 0.0970239
1242 4 0.410981 0.329949 0.157149
1010 4 0.339606 0.344437 0.143895
1009 2 0.33878 0.364622 0.129162
67 3 0.357546 0.33749 0.141747
1057 2 0.496513 0.405467 0.150943
3599 4 0.432202 0.409522 0.165017
2835 4 0.153238 0.476485 0.172038
1784 4 0.215028 0.433871 0.142767
768 4 0.178888 0.419091 0.090863
1914 4 0.197201 0.434793 0.139305
1913 4 0.172625 0.437339 0.0958285
1912 2 0.184913 0.436066 0.117567
1783 2 0.237669 0.431909 0.153193
855 4 0.280865 0.49651 0.169725
1785 4 0.26031 0.429948 0.16362
2825 4 0.275363 0.434642 0.150597
2468 4 0.295074 0.47385 0.100271
2824 2 0.286548 0.45061 0.134942
2826 4 0.297734 0.466578 0.119286
1676 4 0.432165 0.430438 0.0897334
1677 4 0.467331 0.4247 0.124821
1058 4 0.480841 0.41205 0.132607
1675 2 0.449748 0.427569 0.107277
1411 2 0.457041 0.461857 0.16465
1413 4 0.459085 0.482684 0.150966
1412 4 0.454997 0.44103 0.178333
394 3 0.0148002 0.0120548 0.165053
928 2 0.126402 0.00705747 0.246313
1886 4 0.150707 0.00998394 0.17222
1329 4 0.242805 0.0444723 0.167847
964 2 0.233915 0.0229223 0.200158
1002 4 0.20961 0.00409304 0.23033
965 4 0.221461 0.0182862 0.221337
966 4 0.246369 0.0275584 0.178978
1000 2 0.212413 0.0189086 0.250275
1937 4 0.28231 0.0753184 0.238524
4243 2 0.277288 0.0415876 0.254553
4245 4 0.279732 0.0551635 0.233698
3997 2 0.44291 0.0319072 0.168162
4117 2 0.479424 0.0416755 0.209503
3999 4 0.44155 0.0346458 0.192978
4118 4 0.459663 0.0424943 0.194206
1163 4 0.046681 0.0934397 0.240796
1162 2 0.0640801 0.10892 0.231696
1031 4 0.0852699 0.166031 0.18169
1164 4 0.0814792 0.1244 0.222596
1030 2 0.0908705 0.145522 0.194851
4224 4 0.144421 0.155679 0.171519
1032 4 0.096471 0.125014 0.208011
1096 2 0.320587 0.113685 0.180659
1097 4 0.29578 0.11575 0.183015
1938 4 0.291172 0.105199 0.199417
1936 2 0.286741 0.0902586 0.21897
1098 4 0.345393 0.11162 0.178303
3575 4 0.458031 0.152716 0.17437
801 4 0.448226 0.1662 0.183518
1170 4 0.153054 0.228198 0.203082
1168 2 0.130783 0.239561 0.203281
1169 4 0.108512 0.250924 0.20348
28 3 0.305912 0.232014 0.230768
800 4 0.402679 0.183256 0.195148
799 2 0.425452 0.174728 0.189333
2966 4 0.439261 0.189216 0.236092
882 4 0.0316545 0.290266 0.195282
880 2 0.0485211 0.284619 0.212855
2156 4 0.0214978 0.30728 0.194819
881 4 0.0653876 0.278973 0.230429
884 4 0.0819826 0.280382 0.240769
2155 2 0.00934974 0.328177 0.201216
2270 4 0.136904 0.284916 0.170361
1046 4 0.107236 0.251823 0.183947
2269 2 0.135017 0.302952 0.187575
2271 4 0.133129 0.320987 0.20479
860 4 0.142248 0.323208 0.222658
859 2 0.158427 0.33222 0.239458
29 3 0.32822 0.259065 0.216105
3255 4 0.332806 0.271334 0.20047
26 1 0.313899 0.253623 0.233532
931 2 0.27594 0.299501 0.237406
27 3 0.296109 0.268205 0.233367
932 4 0.26949 0.322291 0.229395
981 4 0.281098 0.33162 0.216323
933 4 0.28239 0.27671 0.245416
3254 4 0.368329 0.263658 0.16612
3253 2 0.350567 0.267496 0.183295
1241 4 0.455338 0.340763 0.177552
2157 4 0.997202 0.349074 0.207613
3020 4 0.000426941 0.368913 0.212179
3019 2 0.0166296 0.387557 0.216061
3021 4 0.0328322 0.4062 0.219943
602 3 0.0326073 0.415125 0.238908
3992 4 0.123665 0.394068 0.182161
979 2 0.280717 0.348971 0.198324
980 4 0.280337 0.366321 0.180324
1968 4 0.391055 0.371513 0.202638
1966 2 0.377553 0.37188 0.223679
1967 4 0.364051 0.372246 0.24472
3600 4 0.404425 0.385815 0.19918
1240 2 0.43316 0.335356 0.16735
3598 2 0.418314 0.397668 0.182099
4192 2 0.0196971 0.494948 0.240205
2834 4 0.103764 0.482983 0.175327
2833 2 0.128501 0.479734 0.173683
4187 4 0.164078 0.49118 0.181307
4186 2 0.186307 0.479943 0.183493
1790 4 0.22445 0.476619 0.176229
4188 4 0.208536 0.468706 0.18568
1789 2 0.244378 0.491352 0.172918
2169 4 0.303031 0.488667 0.24984
1060 2 0.0556706 0.0708802 0.274089
1062 4 0.0663552 0.0529886 0.287906
3954 4 0.0783628 0.0520283 0.304274
3952 2 0.0816846 0.028762 0.29574
3953 4 0.0850063 0.00549562 0.287207
1882 2 0.148255 0.0391667 0.29172
1884 4 0.141739 0.0303073 0.269265
930 4 0.141685 0.0265818 0.249536
1883 4 0.154771 0.0480261 0.314175
83 3 0.16543 0.0634445 0.321341
1001 4 0.215216 0.0337242 0.270221
1244 4 0.223289 0.0523598 0.268959
1243 2 0.21504 0.0689469 0.285752
81 1 0.184405 0.0705325 0.33266
85 3 0.200129 0.0776223 0.31779
4244 4 0.274843 0.0280118 0.275407
1877 4 0.307618 0.0610411 0.322887
1876 2 0.288517 0.0766956 0.318982
1061 4 0.044986 0.0887719 0.260272
1245 4 0.206792 0.0855339 0.302545
1160 4 0.2604 0.10704 0.302594
1878 4 0.269415 0.0923501 0.315076
1159 2 0.264757 0.128006 0.315503
1161 4 0.269114 0.148972 0.328411
1788 4 0.413229 0.157928 0.292603
2967 4 0.421506 0.167918 0.277708
57 3 0.0300724 0.192182 0.298784
56 1 0.0329126 0.187896 0.321205
58 3 0.0269584 0.165873 0.325446
1204 2 0.364377 0.224503 0.314702
1205 4 0.352402 0.208358 0.299832
1787 4 0.420788 0.18307 0.335164
1206 4 0.376352 0.240647 0.329573
1786 2 0.417009 0.170499 0.313883
2965 2 0.430383 0.178567 0.2569
1056 4 0.476402 0.224636 0.302247
1054 2 0.496336 0.238238 0.295707
3232 2 0.997283 0.304028 0.331049
883 2 0.0736481 0.282372 0.264259
885 4 0.0653137 0.284363 0.287748
2274 4 0.0825496 0.285563 0.296925
2272 2 0.0836058 0.276279 0.320116
843 4 0.174402 0.286202 0.321019
3152 4 0.186513 0.270243 0.323773
30 3 0.32485 0.255375 0.253424
891 4 0.320043 0.261583 0.272082
889 2 0.331786 0.271674 0.291715
890 4 0.343528 0.281766 0.311348
605 3 0.0428484 0.393387 0.267464
601 1 0.0404925 0.414947 0.260516
1028 4 0.165759 0.333674 0.271731
1029 4 0.1896 0.353501 0.310963
861 4 0.174605 0.341231 0.256258
1027 2 0.177679 0.343588 0.291347
1892 4 0.173335 0.388693 0.304795
1891 2 0.173536 0.412846 0.29833
2049 4 0.323195 0.392863 0.282186
2048 4 0.356913 0.362495 0.261174
875 4 0.334044 0.406066 0.295429
2047 2 0.340054 0.377679 0.27168
1130 4 0.438032 0.408976 0.30312
2187 4 0.0374888 0.487911 0.276977
1848 4 0.0772045 0.414959 0.26954
603 3 0.0610244 0.425741 0.261098
4193 4 0.0239195 0.483243 0.261893
3866 4 0.00739271 0.434767 0.28114
604 3 0.0253236 0.426039 0.274128
3865 2 0.003188 0.459401 0.281937
3820 2 0.114211 0.49281 0.277644
1847 4 0.122734 0.435341 0.266022
1846 2 0.0999691 0.42515 0.267781
2892 4 0.152805 0.481532 0.25586
2890 2 0.16776 0.467109 0.269769
3822 4 0.134303 0.484274 0.265453
2891 4 0.182716 0.452685 0.283679
1893 4 0.173738 0.436999 0.291866
1038 4 0.246937 0.436494 0.338286
1982 4 0.264175 0.440803 0.328506
874 2 0.347359 0.41728 0.313377
1131 4 0.422802 0.456051 0.310383
4013 4 0.421793 0.477905 0.307963
4012 2 0.442055 0.49047 0.30043
4014 4 0.462317 0.503035 0.292896
1129 2 0.430417 0.432513 0.306752
82 3 0.192849 0.052904 0.344788
90 3 0.187459 0.0181279 0.403418
1077 4 0.20272 0.0307843 0.399143
1075 2 0.201057 0.0332466 0.374317
1076 4 0.199395 0.0357089 0.34949
1323 4 0.203149 0.0424404 0.415507
1100 4 0.323898 0.0396691 0.362042
1572 4 0.264947 0.0115815 0.41221
3181 2 0.297971 0.0182905 0.385589
3183 4 0.319449 0.0241645 0.374216
3182 4 0.276492 0.0124165 0.396963
1099 2 0.345411 0.0507014 0.368418
1101 4 0.366924 0.0617336 0.374794
1286 4 0.374559 0.0623454 0.394064
1285 2 0.379996 0.0461105 0.412286
2738 4 0.483119 0.0103669 0.369371
396 1 0.0215328 0.121848 0.418124
826 2 0.0209066 0.144131 0.364052
398 3 0.0292554 0.132946 0.399266
827 4 0.0173506 0.128609 0.383328
828 4 0.0244627 0.159654 0.344775
2859 4 0.00895889 0.111933 0.391766
400 3 0.00691848 0.105468 0.41206
1142 4 0.175808 0.151025 0.335207
84 3 0.178965 0.0877448 0.347239
1143 4 0.169451 0.105066 0.353865
1141 2 0.172629 0.128046 0.344536
920 4 0.278439 0.141338 0.345344
919 2 0.288377 0.163518 0.351216
3669 4 0.475784 0.12671 0.344601
2938 2 0.477123 0.161848 0.367022
2939 4 0.47641 0.137477 0.36148
3667 2 0.493821 0.110914 0.337507
59 3 0.0551942 0.19128 0.326726
60 3 0.0196925 0.20198 0.333268
1852 2 0.0732808 0.210785 0.413686
20 3 0.0947864 0.234779 0.383718
1853 4 0.0888452 0.225738 0.401064
3153 4 0.222851 0.246507 0.348609
848 4 0.292387 0.204772 0.359492
921 4 0.298315 0.185697 0.357088
847 2 0.300553 0.228395 0.358815
1579 2 0.413866 0.215081 0.361412
1581 4 0.414014 0.191484 0.353146
1580 4 0.413717 0.238678 0.369678
368 3 0.482762 0.206014 0.374646
2940 4 0.477837 0.186219 0.372564
1165 2 0.447946 0.233052 0.407793
1166 4 0.426916 0.230919 0.394436
3233 4 0.0111162 0.294223 0.349425
1158 4 0.0537721 0.261179 0.390179
1157 4 0.0165763 0.27975 0.362388
1156 2 0.0351742 0.270465 0.376284
17 3 0.0696651 0.261802 0.378097
16 1 0.0920148 0.256429 0.377218
18 3 0.0995404 0.259182 0.355442
19 3 0.103687 0.270532 0.391475
2273 4 0.0846619 0.266994 0.343308
842 4 0.155921 0.321152 0.35164
1237 2 0.156088 0.319757 0.39374
1238 4 0.162638 0.320641 0.369626
841 2 0.165162 0.303677 0.33633
3151 2 0.204682 0.258375 0.336191
924 4 0.237781 0.24765 0.362133
922 2 0.248334 0.264527 0.377265
849 4 0.308718 0.252018 0.358139
923 4 0.258887 0.281405 0.392397
1052 4 0.274251 0.296023 0.390983
1857 4 0.32126 0.26713 0.360065
1051 2 0.278175 0.306945 0.41313
1855 2 0.342114 0.279434 0.366302
3474 4 0.375417 0.306668 0.368621
1856 4 0.362967 0.291739 0.372539
3472 2 0.398865 0.301946 0.375908
3473 4 0.422313 0.297225 0.383194
816 4 0.474309 0.310448 0.343675
814 2 0.452509 0.3068 0.355364
815 4 0.430709 0.303153 0.367053
1360 2 0.469695 0.320341 0.410491
1362 4 0.487306 0.303833 0.403968
1020 4 0.046273 0.392936 0.346057
1018 2 0.0681056 0.387368 0.356898
1019 4 0.0899381 0.3818 0.367738
2924 4 0.0944516 0.38837 0.386025
2923 2 0.114559 0.381066 0.398968
3511 2 0.318295 0.361186 0.404379
3513 4 0.305432 0.350623 0.385721
1194 4 0.399699 0.346541 0.367819
794 4 0.475341 0.33054 0.3469
1361 4 0.452084 0.336848 0.417014
1192 2 0.421668 0.352904 0.357717
1193 4 0.443638 0.359266 0.347616
1948 2 0.448882 0.399732 0.40864
793 2 0.490828 0.349633 0.351458
1950 4 0.453166 0.393594 0.384783
3215 4 0.0599062 0.435122 0.410771
1138 2 0.0214243 0.483625 0.364506
1139 4 0.0227688 0.459793 0.371949
3216 4 0.0324366 0.442189 0.369586
3214 2 0.0461714 0.438656 0.390178
2845 2 0.122228 0.484747 0.41198
1037 4 0.217866 0.460632 0.371043
1036 2 0.232402 0.448563 0.354664
1981 2 0.285982 0.452021 0.333383
1983 4 0.307789 0.463239 0.33826
349 3 0.312582 0.470831 0.356312
348 3 0.338453 0.48784 0.378353
876 4 0.360674 0.428495 0.331324
346 1 0.33408 0.479524 0.357137
347 3 0.335743 0.496703 0.341929
350 3 0.349212 0.463344 0.351861
1473 4 0.012762 0.0572905 0.459338
4759 2 0.00460692 0.0111407 0.461962
2366 4 0.0215341 0.0197527 0.497842
758 4 0.0737546 0.066425 0.477567
3438 4 0.00992874 0.0606145 0.478848
757 2 0.0829724 0.0465353 0.489592
3353 4 0.0784316 0.0790468 0.463215
4760 4 0.0178743 0.00819662 0.482949
1471 2 0.0227823 0.0756153 0.445591
86 1 0.195119 0.0140287 0.424469
1321 2 0.205347 0.0673409 0.416066
89 3 0.207948 0.0319005 0.431846
88 3 0.177248 0.0106266 0.438874
1231 2 0.211594 0.0810044 0.488785
1570 2 0.267597 0.0245209 0.43344
1571 4 0.270247 0.0374604 0.45467
39 3 0.293394 0.0573152 0.489949
40 3 0.270754 0.0557497 0.459905
36 1 0.272146 0.0618498 0.481802
37 3 0.256783 0.0498391 0.494004
2307 4 0.37628 0.0127452 0.437053
1287 4 0.385433 0.0298755 0.430508
2305 2 0.355182 0.000904129 0.43074
397 3 0.0107726 0.136939 0.431749
399 3 0.0393723 0.112634 0.429754
1472 4 0.0328025 0.0939401 0.431844
3776 4 0.0210878 0.15857 0.463043
1428 4 0.0589571 0.129562 0.50347
3352 2 0.0997293 0.0918809 0.465837
3354 4 0.121027 0.104715 0.468459
840 4 0.137384 0.107133 0.480009
838 2 0.156146 0.11773 0.467327
172 3 0.208928 0.11156 0.418206
1322 4 0.207546 0.0922414 0.416625
1232 4 0.21387 0.092547 0.466722
839 4 0.174909 0.128328 0.454645
173 3 0.204685 0.141022 0.441154
171 1 0.202512 0.117992 0.439339
4467 4 0.186039 0.143089 0.446326
174 3 0.180388 0.111837 0.442661
175 3 0.215829 0.107698 0.45468
4465 2 0.180212 0.165269 0.456289
38 3 0.267467 0.084467 0.484033
22 3 0.493878 0.139514 0.461179
21 1 0.48909 0.160223 0.469976
23 3 0.482501 0.157644 0.492074
3240 4 0.489014 0.140858 0.500733
779 4 0.0714295 0.177038 0.475074
3775 2 0.0306029 0.178212 0.450844
1854 4 0.0577164 0.195831 0.426308
3777 4 0.0401179 0.197855 0.438645
2209 2 0.149056 0.210755 0.464088
2210 4 0.124387 0.213728 0.461299
780 4 0.113287 0.198205 0.457737
778 2 0.0923583 0.187621 0.466406
4466 4 0.174385 0.187449 0.466252
2211 4 0.173725 0.207782 0.466876
999 4 0.382168 0.199318 0.415775
997 2 0.367688 0.202713 0.435875
998 4 0.353208 0.206109 0.455974
2827 2 0.352497 0.195363 0.496371
2828 4 0.349895 0.195512 0.471504
1535 4 0.474358 0.246854 0.485676
1167 4 0.468975 0.235185 0.421149
25 3 0.472299 0.169791 0.457927
1534 2 0.470342 0.247223 0.460999
2942 4 0.460207 0.237383 0.496793
869 4 0.0580909 0.25915 0.468611
868 2 0.0714663 0.280008 0.46526
1239 4 0.149537 0.318874 0.417854
870 4 0.0848417 0.300866 0.461908
1040 4 0.102896 0.308141 0.469323
1039 2 0.11821 0.324115 0.480961
1053 4 0.282099 0.317867 0.435277
4254 4 0.27501 0.320595 0.454068
4252 2 0.266629 0.324957 0.477218
4253 4 0.258249 0.329319 0.500368
2219 4 0.404716 0.331543 0.426397
3053 4 0.501902 0.309275 0.486117
1536 4 0.466325 0.247592 0.436323
1187 4 0.0125706 0.333377 0.465532
1186 2 0.0158592 0.358126 0.46689
1188 4 0.0191479 0.382875 0.468248
3755 4 0.00624357 0.39832 0.468044
3754 2 0.00981173 0.414717 0.48658
1041 4 0.133525 0.34009 0.492599
2925 4 0.134666 0.373762 0.411911
2595 4 0.101284 0.382731 0.496781
3512 4 0.331157 0.371749 0.423038
2218 2 0.419623 0.333564 0.446369
1949 4 0.444599 0.40587 0.432497
4240 2 0.449729 0.368028 0.491064
1115 4 0.424178 0.40823 0.432382
4242 4 0.437346 0.356808 0.472464
2220 4 0.43453 0.335584 0.466341
1091 4 0.0648865 0.435884 0.431481
3024 4 0.0189234 0.492345 0.499463
1090 2 0.0839662 0.451696 0.434815
1591 2 0.0859323 0.468942 0.493148
1092 4 0.103046 0.467508 0.438149
2847 4 0.116026 0.463694 0.423957
1592 4 0.0904756 0.491192 0.482686
1455 4 0.428601 0.44213 0.489721
1116 4 0.432241 0.424458 0.478991
1114 2 0.42821 0.416344 0.455687
3436 2 0.00249925 0.0562529 0.50232
2365 2 0.0261677 0.0019273 0.514752
759 4 0.0921902 0.0266457 0.501618
3107 4 0.0831993 0.0115756 0.512056
1233 4 0.209319 0.0694619 0.510848
1496 4 0.310452 0.0188596 0.543895
1495 2 0.303048 0.0361944 0.527467
62 3 0.291593 0.0302633 0.565337
2204 4 0.326213 0.00594147 0.545071
1497 4 0.295644 0.0535291 0.51104
2203 2 0.339523 0.0175265 0.562786
2205 4 0.352834 0.0291116 0.5805
3562 2 0.01116 0.123351 0.561125
3563 4 0.0148508 0.141748 0.544599
1427 4 0.0141958 0.135379 0.524994
1426 2 0.0365764 0.13247 0.514232
3564 4 0.00746928 0.104953 0.57765
1700 4 0.20073 0.085128 0.51997
1699 2 0.203281 0.0904238 0.544273
1701 4 0.205832 0.0957195 0.568576
4524 4 0.201642 0.114418 0.570555
148 3 0.319572 0.102678 0.575963
3238 2 0.498349 0.120011 0.510904
3390 4 0.0199889 0.196142 0.568359
2895 4 0.0136065 0.187624 0.551391
1697 4 0.365321 0.172924 0.564101
1696 2 0.35967 0.191849 0.548767
1698 4 0.354019 0.210773 0.533434
2829 4 0.355099 0.195215 0.521239
518 3 0.473042 0.212425 0.553237
516 1 0.473983 0.211878 0.576415
2941 2 0.470785 0.225624 0.516159
2943 4 0.481362 0.213865 0.535524
1386 4 0.443586 0.232722 0.577536
2555 4 0.459531 0.173105 0.586928
520 3 0.495664 0.212717 0.583333
1354 2 0.145046 0.363734 0.579386
3484 2 0.154337 0.35772 0.523045
3485 4 0.158505 0.369368 0.544773
1356 4 0.161894 0.357592 0.561963
2593 2 0.095969 0.406039 0.504106
3486 4 0.150168 0.346071 0.501316
902 4 0.189594 0.334968 0.528821
1105 2 0.234396 0.400976 0.551931
901 2 0.210014 0.348739 0.533127
903 4 0.230434 0.36251 0.537434
1107 4 0.232467 0.382227 0.535501
1106 4 0.236326 0.419725 0.568361
1145 4 0.259001 0.34682 0.509633
1144 2 0.275365 0.344675 0.528416
162 3 0.304896 0.3511 0.559245
1146 4 0.291728 0.34253 0.547199
161 1 0.315107 0.357758 0.578754
164 3 0.305804 0.377882 0.5856
163 3 0.337808 0.360466 0.574792
1575 4 0.464966 0.41423 0.576803
1613 4 0.451125 0.406726 0.566035
1614 4 0.46294 0.374406 0.529751
1612 2 0.457032 0.390566 0.547893
4241 4 0.462112 0.379248 0.509664
3756 4 0.0133799 0.431114 0.505115
3687 4 0.0112349 0.437013 0.524214
3685 2 0.0261694 0.439202 0.544148
3686 4 0.0411038 0.44139 0.564081
4372 2 0.0752695 0.466862 0.558863
4373 4 0.0532667 0.454987 0.558666
1593 4 0.081389 0.446691 0.503611
2594 4 0.0906537 0.429347 0.511431
4374 4 0.0972723 0.478737 0.559059
1353 4 0.309001 0.430396 0.550292
1652 4 0.252649 0.427816 0.575455
1653 4 0.29409 0.442192 0.55144
1351 2 0.317691 0.434778 0.52726
1651 2 0.27337 0.435004 0.563448
1352 4 0.326382 0.439161 0.504228
2083 2 0.317167 0.494543 0.515381
2085 4 0.315241 0.48435 0.538132
2247 4 0.402412 0.496278 0.506901
1021 2 0.350843 0.496927 0.57894
1454 4 0.415697 0.483516 0.514648
1453 2 0.422149 0.462823 0.502185
862 2 0.2104 0.0192656 0.665342
1682 4 0.222788 0.0737553 0.602445
1681 2 0.245938 0.0644409 0.604027
65 3 0.315015 0.0444434 0.590699
61 1 0.293332 0.0387903 0.586631
64 3 0.286387 0.0226357 0.601771
63 3 0.279804 0.0575666 0.58832
1683 4 0.269088 0.0551265 0.605609
2496 4 0.270017 0.0501087 0.644187
2494 2 0.291096 0.0530655 0.657306
1283 4 0.27533 0.00791227 0.593794
1481 4 0.347896 0.0170248 0.646922
147 3 0.331375 0.0788566 0.602531
213 3 0.340935 0.0306438 0.632039
101 1 0.401773 0.0258698 0.649513
105 3 0.386716 0.0140492 0.661851
214 3 0.346666 0.0575237 0.60579
215 3 0.357351 0.0220131 0.599272
211 1 0.35511 0.03809 0.615246
212 3 0.37573 0.0426172 0.624384
102 3 0.390504 0.0389789 0.634336
103 3 0.415709 0.0113362 0.637982
104 3 0.414352 0.0395754 0.663381
3330 4 0.0153604 0.0942864 0.595094
463 3 0.0200347 0.10325 0.657695
3329 4 0.0260466 0.112116 0.640576
3328 2 0.0207035 0.103201 0.617835
3398 4 0.99832 0.168542 0.644301
4522 2 0.211607 0.121285 0.592435
129 3 0.214572 0.146094 0.620873
4523 4 0.221571 0.128151 0.614315
126 1 0.225762 0.15575 0.638759
130 3 0.229265 0.140211 0.655036
127 3 0.246047 0.163727 0.631409
149 3 0.321532 0.113804 0.61225
2372 4 0.314557 0.162246 0.643636
2371 2 0.325678 0.145142 0.62918
146 1 0.331499 0.100847 0.595782
150 3 0.353013 0.107582 0.592556
1668 4 0.401176 0.141827 0.59976
1666 2 0.377762 0.133364 0.602078
1667 4 0.354349 0.124901 0.604396
2373 4 0.336799 0.128039 0.614724
2556 4 0.415 0.154853 0.600514
2554 2 0.437266 0.163979 0.593721
1547 4 0.48358 0.102958 0.642875
1546 2 0.496559 0.0997545 0.621745
1334 4 0.482949 0.0916078 0.659949
3046 2 0.0157116 0.217339 0.650886
3047 4 0.0112858 0.208998 0.627733
3388 2 0.0229215 0.199126 0.59301
3389 4 0.0258541 0.202111 0.617661
1310 4 0.10676 0.182183 0.660866
1309 2 0.108983 0.207084 0.661322
1690 2 0.154838 0.238067 0.660451
1311 4 0.111206 0.231984 0.661778
1691 4 0.130108 0.237448 0.664085
128 3 0.21337 0.173441 0.647237
1692 4 0.179568 0.238686 0.656816
1568 4 0.199112 0.236823 0.653232
1569 4 0.212257 0.19074 0.638938
1567 2 0.205685 0.213782 0.646085
1179 4 0.299877 0.165031 0.656652
1178 4 0.258745 0.180206 0.632597
1177 2 0.279311 0.172619 0.644624
1560 4 0.320594 0.222933 0.653916
528 3 0.306148 0.235374 0.656261
1559 4 0.366392 0.20311 0.650713
1558 2 0.343493 0.213021 0.652314
2268 4 0.384614 0.201985 0.660897
519 3 0.462155 0.229779 0.585248
517 3 0.464431 0.192292 0.583784
1339 2 0.233891 0.298689 0.641365
1341 4 0.209254 0.296535 0.64505
2414 4 0.209648 0.253056 0.658884
1340 4 0.258527 0.300842 0.63768
1617 4 0.273162 0.314321 0.631922
1384 2 0.439202 0.256011 0.58551
1385 4 0.434818 0.279301 0.593483
2780 4 0.453279 0.284729 0.599473
2779 2 0.467484 0.291388 0.618942
2781 4 0.481689 0.298048 0.638411
1661 4 0.480881 0.300004 0.659974
3803 4 0.504746 0.295626 0.60511
3027 4 0.00688452 0.417268 0.663642
1355 4 0.128198 0.369876 0.59681
1288 2 0.136781 0.387288 0.632044
1290 4 0.149689 0.390474 0.65322
1289 4 0.123874 0.384101 0.610868
1295 4 0.14677 0.369732 0.656617
10 3 0.226808 0.409277 0.584369
8 3 0.247968 0.415079 0.614967
3428 4 0.233876 0.391505 0.654868
157 3 0.218087 0.404384 0.655242
3427 2 0.223964 0.368677 0.652461
3429 4 0.214051 0.345849 0.650054
1615 2 0.285135 0.332332 0.619376
1616 4 0.297108 0.350343 0.606829
165 3 0.311849 0.341858 0.594729
1602 4 0.266565 0.406893 0.617441
1601 4 0.296878 0.370569 0.601241
1600 2 0.281721 0.388731 0.609341
1470 4 0.252851 0.39315 0.661547
1445 4 0.415982 0.397227 0.661944
2069 4 0.0217595 0.4839 0.623055
3368 4 0.0257452 0.425284 0.661687
2567 4 0.129821 0.481193 0.597157
2562 4 0.113409 0.468352 0.59972
2560 2 0.0999535 0.45707 0.617521
2561 4 0.0864981 0.445789 0.635321
3572 4 0.101514 0.439319 0.647316
6 1 0.233523 0.424795 0.599625
159 3 0.223272 0.437843 0.638925
9 3 0.215076 0.433612 0.610595
4435 2 0.219143 0.482774 0.644797
4436 4 0.218284 0.458517 0.638792
156 1 0.21589 0.4271 0.658121
7 3 0.244555 0.441813 0.588769
160 3 0.193994 0.4321 0.661892
1022 4 0.364667 0.485468 0.59634
2527 2 0.376639 0.490553 0.630777
2528 4 0.364645 0.499702 0.610837
2529 4 0.388632 0.481403 0.650718
1703 4 0.401659 0.466207 0.655076
1573 2 0.451164 0.420492 0.596689
1574 4 0.437361 0.426754 0.616575
1702 2 0.417554 0.449995 0.644602
1704 4 0.433449 0.433782 0.634129
462 3 0.0243464 0.0696723 0.674023
1325 4 0.0524422 0.0578597 0.733857
1324 2 0.0446237 0.0592354 0.710147
124 3 0.0574944 0.040395 0.741645
1326 4 0.0368052 0.060611 0.686437
863 4 0.216538 0.039777 0.678256
1946 4 0.22213 0.0545766 0.688264
1945 2 0.227894 0.0542995 0.712592
1947 4 0.233657 0.0540225 0.736921
2495 4 0.312175 0.0560222 0.670425
1532 4 0.319428 0.0738555 0.676274
944 4 0.253842 0.0561587 0.740617
943 2 0.274563 0.0421752 0.740063
324 3 0.254234 0.0759901 0.74225
945 4 0.295283 0.0281918 0.73951
109 3 0.408001 0.078182 0.731821
107 3 0.419342 0.0463466 0.748269
3693 4 0.455678 0.00897906 0.696109
490 3 0.48257 0.0125818 0.747038
488 3 0.471171 0.013006 0.711156
486 1 0.485761 0.0222346 0.72666
1301 4 0.478412 0.0632317 0.725326
487 3 0.481631 0.0448089 0.728239
1300 2 0.481037 0.0797364 0.743923
2872 2 0.00699146 0.147631 0.672197
461 1 0.0106474 0.0880926 0.672545
465 3 0.0086358 0.0976154 0.693134
2873 4 0.0239804 0.132974 0.68323
1629 4 0.0436259 0.135228 0.687276
1627 2 0.0631515 0.149744 0.693038
1628 4 0.0826771 0.164261 0.698801
1494 4 0.0913429 0.155274 0.714254
1492 2 0.115795 0.15359 0.719199
1493 4 0.140247 0.151906 0.724143
2775 4 0.235669 0.139672 0.67268
2774 4 0.225943 0.117086 0.716223
322 3 0.239862 0.106472 0.725608
2773 2 0.230806 0.128379 0.694451
321 1 0.257749 0.0984598 0.737651
325 3 0.27678 0.100999 0.725402
1531 2 0.330747 0.0948299 0.683834
1533 4 0.342065 0.115804 0.691393
1524 4 0.397276 0.0960741 0.727623
1522 2 0.408835 0.11277 0.713035
1333 2 0.475609 0.112112 0.672234
1523 4 0.420393 0.129467 0.698447
1335 4 0.46827 0.132616 0.684518
858 4 0.45746 0.143327 0.695687
856 2 0.460368 0.1641 0.709296
3048 4 0.0201374 0.22568 0.674038
695 3 0.0322988 0.241158 0.672025
692 3 0.0691162 0.240408 0.678092
691 1 0.0486626 0.245674 0.687206
693 3 0.0454625 0.232923 0.706326
1603 2 0.183704 0.230609 0.727324
1604 4 0.186807 0.211533 0.743187
526 1 0.302463 0.244656 0.677205
527 3 0.281316 0.238966 0.684244
530 3 0.317733 0.236613 0.692065
2266 2 0.402879 0.208292 0.676764
2267 4 0.421145 0.2146 0.692631
3494 4 0.423568 0.233193 0.685237
857 4 0.463276 0.184873 0.722905
2960 4 0.471567 0.200991 0.731685
2959 2 0.491583 0.195296 0.745546
3128 4 0.0385015 0.289649 0.674024
694 3 0.0484429 0.26824 0.692606
3127 2 0.025813 0.309987 0.666914
1479 4 0.0673838 0.27257 0.699282
1477 2 0.0692921 0.294212 0.711657
1478 4 0.0712003 0.315854 0.724032
3129 4 0.0131245 0.330324 0.659803
1346 4 0.0773244 0.332109 0.734555
2813 4 0.158484 0.325678 0.742659
2415 4 0.198949 0.257381 0.707542
1605 4 0.180601 0.249685 0.71146
2413 2 0.204299 0.255219 0.683213
529 3 0.304002 0.267777 0.676005
1368 4 0.358781 0.28076 0.741831
3493 2 0.429863 0.257198 0.688291
1660 2 0.461055 0.300379 0.675205
1662 4 0.441229 0.300753 0.690435
3495 4 0.436158 0.281202 0.691345
3466 2 0.0091186 0.357318 0.694507
3468 4 0.00445146 0.369966 0.715565
1518 4 0.0195075 0.384045 0.717751
1516 2 0.0216895 0.406628 0.728259
3467 4 0.0137857 0.344671 0.673449
1294 2 0.158667 0.36615 0.678315
2812 2 0.158903 0.346801 0.729286
2814 4 0.159323 0.367923 0.715913
1296 4 0.170563 0.362568 0.700014
1469 4 0.284548 0.391196 0.700176