ITEM: TIMESTEP
1580000
ITEM: NUMBER OF ATOMS
1600
ITEM: BOX BOUNDS pp pp pp
-6.9325799999999997e+00 6.9325799999999997e+00
-6.9325799999999997e+00 6.9325799999999997e+00
-6.9325799999999997e+00 6.9325799999999997e+00
ITEM: ATOMS id type xs ys zs
404 2 0.173867 0.0941499 0.0139661
405 4 0.172711 0.123547 0.0348212
658 4 0.327249 0.012383 0.0710263
657 4 0.368816 0.0273333 0.0140134
656 2 0.348032 0.0198582 0.0425198
230 3 0.434416 0.0122355 0.0261991
552 4 0.0777105 0.182233 9.67248e-06
580 4 0.00866483 0.141803 0.0266883
578 2 0.0300353 0.16442 0.00846192
673 4 0.00294289 0.259672 0.0317285
671 2 0.0382176 0.266438 0.034946
672 4 0.0734923 0.273205 0.0381635
384 4 0.0954521 0.280352 0.021238
383 2 0.117845 0.28832 0.0483584
972 4 0.0180807 0.365578 0.0898325
971 2 0.0199868 0.331759 0.102205
973 4 0.0218928 0.29794 0.114577
385 4 0.140238 0.296288 0.0754787
415 4 0.149003 0.275762 0.0965229
413 2 0.17545 0.268285 0.119871
358 4 0.0243791 0.392396 0.0972544
356 2 0.0524034 0.414802 0.100866
431 2 0.0380964 0.472862 0.0215111
357 4 0.0804276 0.437209 0.104478
433 4 0.00767283 0.465534 0.00359067
432 4 0.06852 0.48019 0.0394316
312 4 0.0962163 0.459557 0.0975666
380 2 0.216212 0.405893 0.115946
311 2 0.129062 0.447176 0.105833
381 4 0.189537 0.429396 0.1099
313 4 0.161907 0.434795 0.114099
382 4 0.242886 0.382391 0.121991
653 2 0.177242 0.00379915 0.227247
416 2 0.165749 0.0751115 0.193428
751 4 0.206877 0.0885893 0.176815
418 4 0.150729 0.0503123 0.214872
749 2 0.236844 0.100424 0.160619
655 4 0.175031 0.038855 0.219083
417 4 0.180768 0.0999106 0.171983
343 4 0.295083 0.107068 0.135189
750 4 0.266812 0.11226 0.144422
19 3 0.221838 0.225598 0.209969
20 3 0.19641 0.241482 0.164692
342 4 0.325385 0.160444 0.173065
341 2 0.310234 0.133756 0.154127
712 4 0.3362 0.172989 0.149782
710 2 0.342442 0.205506 0.16407
711 4 0.348683 0.238022 0.178358
389 2 0.465132 0.246004 0.234271
1510 4 0.00828538 0.278215 0.131994
16 1 0.216424 0.251043 0.188917
18 3 0.245474 0.261718 0.176187
414 4 0.201896 0.260809 0.143218
335 2 0.194721 0.329946 0.215077
336 4 0.20503 0.360719 0.230799
17 3 0.202237 0.275951 0.205623
337 4 0.184412 0.299173 0.199354
15 3 0.370843 0.299376 0.144421
262 4 0.332493 0.286133 0.204837
11 1 0.373533 0.289895 0.175753
260 2 0.312302 0.306987 0.226235
12 3 0.350473 0.305398 0.193879
14 3 0.36876 0.256857 0.178136
261 4 0.292111 0.327841 0.247633
391 4 0.474029 0.25935 0.201973
13 3 0.403793 0.297947 0.187562
495 4 0.0596701 0.374539 0.152459
496 4 0.041043 0.410628 0.212062
494 2 0.0503565 0.392583 0.18226
318 4 0.01496 0.411166 0.225008
297 4 0.196675 0.381911 0.211877
296 2 0.219862 0.405781 0.22577
298 4 0.243049 0.429651 0.239664
327 4 0.25723 0.453759 0.237353
326 2 0.268236 0.476207 0.211365
328 4 0.279242 0.498655 0.185377
397 4 0.21817 0.0756118 0.33868
258 4 0.192554 0.0744722 0.326487
257 2 0.179506 0.106385 0.337058
395 2 0.247451 0.0546947 0.336325
396 4 0.276732 0.0337776 0.33397
34 3 0.297774 0.0136325 0.327553
1001 2 0.346763 0.118932 0.347869
527 2 0.360689 0.00931606 0.36784
1003 4 0.360865 0.111611 0.315497
528 4 0.380211 0.0395952 0.36943
1033 4 0.0766131 0.204239 0.311539
1031 2 0.0695038 0.237939 0.300852
259 4 0.166459 0.138298 0.34763
330 4 0.157592 0.157517 0.36703
1000 4 0.358506 0.240454 0.303307
390 4 0.456236 0.232658 0.266569
369 4 0.383179 0.247524 0.312112
947 2 0.0482639 0.321859 0.298782
1032 4 0.0623945 0.271639 0.290165
949 4 0.0726843 0.295386 0.300602
948 4 0.0238435 0.348331 0.296963
319 4 0.00837851 0.367281 0.281864
998 2 0.335664 0.252587 0.328436
999 4 0.312821 0.264721 0.353564
370 4 0.446182 0.259199 0.279005
368 2 0.414681 0.253362 0.295558
338 2 0.0083574 0.498086 0.286516
340 4 0.0269042 0.467359 0.290028
317 2 0.0116692 0.389224 0.253436
388 4 0.0537973 0.462751 0.286149
386 2 0.0759001 0.44755 0.310249
387 4 0.098003 0.432349 0.334349
669 4 0.110504 0.412524 0.352432
720 4 0.309229 0.460428 0.370012
719 2 0.342179 0.445822 0.371212
721 4 0.375128 0.431215 0.372412
130 3 0.417978 0.421691 0.326687
126 1 0.42844 0.422655 0.357807
127 3 0.45257 0.445261 0.360528
763 4 0.440245 0.465175 0.344608
128 3 0.440568 0.392761 0.366707
332 2 0.0153489 0.107057 0.415091
333 4 0.997459 0.0764516 0.408481
717 4 0.139616 0.113392 0.423298
716 2 0.139423 0.0870955 0.447973
718 4 0.139231 0.060799 0.472649
449 2 0.192866 0.0407225 0.491415
451 4 0.223573 0.0218191 0.491876
450 4 0.16216 0.0596259 0.490954
137 3 0.385652 0.0554151 0.436661
139 3 0.399847 0.0573022 0.384379
138 3 0.420588 0.018739 0.417353
136 1 0.410623 0.0506238 0.415351
140 3 0.435476 0.0706414 0.423129
277 4 0.442231 0.0890468 0.445603
275 2 0.477518 0.0816177 0.445873
334 4 0.0332385 0.137663 0.421701
360 4 0.0508232 0.156876 0.411557
361 4 0.0517076 0.226296 0.431097
359 2 0.0512654 0.191586 0.421327
1159 4 0.0413065 0.247569 0.447277
331 4 0.117287 0.130212 0.420244
930 4 0.142374 0.214537 0.497596
329 2 0.13744 0.143864 0.393637
8 3 0.238236 0.202708 0.451161
402 4 0.230166 0.229856 0.453008
6 1 0.251887 0.181168 0.472832
1002 4 0.332662 0.126253 0.380242
444 4 0.305876 0.12585 0.391683
443 2 0.291372 0.130404 0.424384
9 3 0.252463 0.150446 0.459576
445 4 0.276869 0.134957 0.457085
7 3 0.283022 0.190674 0.479229
273 4 0.316203 0.244471 0.375175
272 2 0.325884 0.236057 0.408879
274 4 0.335565 0.227642 0.442582
1157 2 0.00977361 0.263465 0.439967
401 2 0.210867 0.258845 0.462367
377 2 0.170628 0.335044 0.462386
403 4 0.191568 0.287835 0.471726
379 4 0.168991 0.364523 0.44168
1021 4 0.19546 0.368658 0.428949
378 4 0.172264 0.305565 0.483092
278 2 0.30363 0.354038 0.451143
279 4 0.273673 0.354276 0.431069
280 4 0.333586 0.3538 0.471218
4 3 0.35449 0.363071 0.487272
1383 4 0.491179 0.306393 0.433461
2 3 0.408272 0.367906 0.482526
1384 4 0.436772 0.315062 0.480007
1382 2 0.463975 0.310727 0.456734
27 3 0.41972 0.305431 0.500528
300 4 0.0782343 0.402033 0.46139
299 2 0.0857082 0.430108 0.440027
934 4 0.0651827 0.385099 0.480877
301 4 0.0931821 0.458183 0.418665
643 4 0.0774941 0.480697 0.407231
670 4 0.157326 0.405314 0.406815
668 2 0.133915 0.408919 0.379623
1019 2 0.230938 0.375059 0.428039
1020 4 0.266415 0.381461 0.427128
400 4 0.421704 0.380138 0.460412
398 2 0.435199 0.380247 0.426971
399 4 0.448695 0.380355 0.393531
129 3 0.403229 0.431248 0.378068
876 4 0.0651938 0.0294765 0.578196
560 2 0.237368 0.0420489 0.615695
561 4 0.255517 0.0671343 0.597208
550 4 0.27711 0.114871 0.571842
548 2 0.291227 0.104379 0.54036
549 4 0.305344 0.0938862 0.508879
102 3 0.453947 0.0572526 0.582913
101 1 0.443918 0.070688 0.611542
103 3 0.425334 0.097712 0.604886
1109 2 0.481505 0.0322874 0.546525
1110 4 0.448929 0.0439634 0.556671
429 4 0.404103 0.111485 0.593537
506 2 0.0320171 0.218751 0.551291
508 4 0.0662172 0.225094 0.560807
931 4 0.083831 0.219138 0.539469
507 4 0.997817 0.212408 0.541775
929 2 0.113102 0.216838 0.518533
472 4 0.221244 0.202961 0.582463
470 2 0.237188 0.197896 0.550517
10 3 0.234669 0.180984 0.500802
535 4 0.198026 0.126905 0.602707
428 2 0.372016 0.127537 0.597179
471 4 0.253133 0.192831 0.518571
53 3 0.278996 0.136123 0.592599
295 4 0.343834 0.169742 0.536352
293 2 0.312892 0.181948 0.522421
430 4 0.33993 0.143589 0.60082
55 3 0.293792 0.182603 0.616464
294 4 0.281951 0.194154 0.50849
309 4 0.369141 0.154701 0.530734
51 1 0.292267 0.149986 0.620015
347 2 0.496073 0.225397 0.52415
308 2 0.399658 0.166532 0.515596
310 4 0.430175 0.178363 0.500458
933 4 0.0809606 0.338712 0.533803
1086 4 0.0789881 0.340994 0.563862
1085 2 0.108157 0.359047 0.574984
932 2 0.0730716 0.361906 0.50734
1087 4 0.137326 0.3771 0.586107
349 4 0.476895 0.255343 0.530137
29 3 0.457908 0.268354 0.510798
28 3 0.406125 0.259935 0.526677
26 1 0.430131 0.282878 0.52252
30 3 0.436475 0.297764 0.551103
1236 4 0.415123 0.296594 0.569951
1235 2 0.432356 0.296977 0.601626
497 2 0.396796 0.366767 0.586938
498 4 0.376408 0.358841 0.558269
5 3 0.386598 0.357782 0.530745
543 4 0.444379 0.368209 0.612705
1 1 0.382356 0.373797 0.502384
1209 4 0.144126 0.402185 0.601427
3 3 0.380332 0.406717 0.508051
499 4 0.417185 0.374693 0.615608
364 4 0.0421077 0.0257495 0.745611
362 2 0.00943565 0.0131265 0.73703
562 4 0.219219 0.0169635 0.634183
1202 2 0.1846 0.108106 0.715954
1204 4 0.183682 0.114323 0.751464
534 4 0.196212 0.128379 0.674793
1203 4 0.185518 0.101888 0.680444
747 4 0.262572 0.996187 0.71555
104 3 0.425712 0.0481432 0.628281
105 3 0.470208 0.079255 0.629269
1226 2 0.385782 0.012471 0.705243
1227 4 0.403605 0.0438102 0.704441
38 3 0.105915 0.206907 0.719667
582 4 0.0975844 0.213146 0.693056
40 3 0.0955531 0.162526 0.749194
36 1 0.0942026 0.195342 0.748805
581 2 0.127394 0.232051 0.68568
533 2 0.197119 0.127642 0.63875
903 4 0.233882 0.177933 0.718584
52 3 0.322908 0.138018 0.624326
492 4 0.283921 0.192142 0.641734
491 2 0.277134 0.227552 0.641056
904 4 0.274119 0.168545 0.659468
902 2 0.254 0.173239 0.689026
54 3 0.273769 0.14227 0.646815
503 2 0.319789 0.208182 0.726839
505 4 0.317165 0.202158 0.691381
284 2 0.442873 0.208977 0.696143
285 4 0.457386 0.17615 0.699639
286 4 0.42836 0.241803 0.692647
988 4 0.47388 0.136607 0.657248
476 2 0.00635138 0.266612 0.733014
583 4 0.157205 0.250955 0.678303
558 4 0.180536 0.270708 0.675195
557 2 0.212953 0.273889 0.659722
559 4 0.245371 0.277069 0.644248
493 4 0.270346 0.262963 0.640379
1237 4 0.449589 0.297361 0.633301
522 4 0.451087 0.260723 0.697527
1146 4 0.47334 0.286084 0.645537
523 4 0.417267 0.321314 0.677864
555 4 0.429495 0.348664 0.679709
554 2 0.41703 0.365163 0.709253
521 2 0.434177 0.291018 0.687696
1208 2 0.164362 0.415158 0.628309
1210 4 0.184599 0.428131 0.655191
525 4 0.186763 0.450659 0.67228
524 2 0.213645 0.461731 0.693616
526 4 0.240526 0.472803 0.714952
542 2 0.461984 0.38223 0.640881
544 4 0.47959 0.39625 0.669057
556 4 0.404565 0.381663 0.738797
804 4 0.378268 0.48663 0.626298
789 4 0.40613 0.485603 0.633861
537 4 0.0324169 0.0502183 0.758635
538 4 0.0870446 0.0915256 0.781247
536 2 0.0597308 0.070872 0.769941
420 4 0.0721372 0.105901 0.799856
270 4 0.110798 0.0441231 0.858689
441 4 0.213179 0.119047 0.753869
61 1 0.225602 0.0549163 0.842926
62 3 0.198079 0.0420396 0.856243
269 2 0.145022 0.0551155 0.855813
271 4 0.179247 0.0661079 0.852937
440 2 0.214013 0.115863 0.78978
442 4 0.214846 0.112679 0.825691
64 3 0.232443 0.0387197 0.814451
838 4 0.251188 0.0167576 0.812074
65 3 0.220748 0.086816 0.836786
63 3 0.250862 0.051166 0.864555
325 4 0.283197 0.0875918 0.860742
49 3 0.35153 0.0160764 0.784466
50 3 0.346456 0.0634643 0.758437
46 1 0.354418 0.0493211 0.786993
47 3 0.333812 0.0601099 0.810651
468 4 0.278143 0.0589716 0.863187
323 2 0.26574 0.119143 0.861216
836 2 0.253329 0.006685 0.777514
795 4 0.34023 0.00413425 0.808609
48 3 0.385767 0.0574579 0.795416
1090 4 0.500036 0.0448203 0.822508
1088 2 0.469007 0.0566757 0.836548
1089 4 0.437979 0.0685311 0.850589
60 3 0.414031 0.0530411 0.85467
56 1 0.402969 0.0302083 0.87553
58 3 0.411783 0.999746 0.86484
419 2 0.0785345 0.141113 0.804284
37 3 0.0626614 0.205023 0.752288
39 3 0.112204 0.207811 0.774112
421 4 0.0849318 0.176325 0.808712
502 4 0.104652 0.198109 0.80035
500 2 0.13234 0.218882 0.810463
43 3 0.222041 0.160087 0.865765
501 4 0.160029 0.239654 0.820576
42 3 0.207358 0.212264 0.866424
324 4 0.248284 0.150695 0.861691
41 1 0.232788 0.191392 0.870708
439 4 0.264776 0.220385 0.833619
504 4 0.322414 0.214206 0.762296
44 3 0.256763 0.198867 0.848589
438 4 0.29415 0.215199 0.767953
437 2 0.279463 0.217792 0.800786
436 4 0.37467 0.219177 0.812351
478 4 0.0388212 0.267281 0.748689
462 4 0.0433596 0.271105 0.777437
461 2 0.0498815 0.273389 0.81283
565 4 0.0353792 0.25537 0.857137
463 4 0.0564034 0.275674 0.848224
1042 4 0.0538729 0.375202 0.806376
483 4 0.217728 0.340903 0.78813
482 2 0.2524 0.344983 0.797164
484 4 0.287073 0.349063 0.806198
322 4 0.396048 0.306356 0.824396
320 2 0.39331 0.318103 0.858381
435 4 0.406766 0.283653 0.808562
434 2 0.390718 0.251415 0.810457
1131 4 0.473164 0.333991 0.829581
893 2 0.430934 0.360624 0.789087
894 4 0.45527 0.344244 0.810061
546 4 0.0320715 0.39474 0.797585
1041 4 0.095596 0.432398 0.792609
1040 2 0.0747344 0.4038 0.799493
792 4 0.101444 0.458676 0.780946
791 2 0.115803 0.491416 0.776215
895 4 0.406599 0.377004 0.768113
71 1 0.203534 0.0268588 0.975426
74 3 0.214276 0.0161564 0.945594
406 4 0.175022 0.0647532 0.993111
72 3 0.178187 0.047766 0.97083
75 3 0.227773 0.0425253 0.991106
727 4 0.251125 0.0234782 0.99327
726 4 0.321452 0.0153628 0.979488
59 3 0.36966 0.0322333 0.878061
833 2 0.351288 6.06299e-05 0.930024
467 2 0.310661 0.0495099 0.875578
469 4 0.343178 0.0400482 0.887969
834 4 0.339522 0.0307039 0.915091
725 2 0.286289 0.0194205 0.986379
226 1 0.421461 0.0149298 0.996136
57 3 0.416332 0.0353551 0.905457
1233 4 0.439517 0.0494129 0.916609
1232 2 0.459016 0.079441 0.912301
411 4 0.418847 0.115869 0.993654
1234 4 0.478514 0.109469 0.907992
227 3 0.431072 0.0436693 0.982632
532 4 0.499476 0.110942 0.928998
371 2 0.46738 0.111277 0.987409
372 4 0.496112 0.0922529 0.998039
228 3 0.388052 0.0144975 0.998019
563 2 0.0157 0.23641 0.880667
551 2 0.097384 0.211535 0.992609
488 2 0.0120523 0.226472 0.95985
490 4 0.0038451 0.207927 0.930031
553 4 0.117058 0.240838 0.985208
489 4 0.0202595 0.245017 0.989669
579 4 0.0514057 0.187037 0.990236
45 3 0.244362 0.194571 0.901282
574 4 0.255541 0.219905 0.899041
412 4 0.360189 0.148301 0.967023
410 2 0.389518 0.132085 0.980339
373 4 0.438648 0.130301 0.976778
165 3 0.49365 0.236096 0.957173
1083 4 0.493422 0.252228 0.981088
572 2 0.263029 0.252263 0.913088
267 4 0.253357 0.309758 0.925035
266 2 0.262807 0.336962 0.946739
573 4 0.270516 0.284621 0.927135
268 4 0.272256 0.364167 0.968443
1084 4 0.435784 0.29393 0.992944
321 4 0.390572 0.329849 0.892366
518 2 0.406726 0.297024 0.938132
520 4 0.398346 0.306158 0.904268
519 4 0.415105 0.28789 0.971997
1082 2 0.464603 0.273079 0.987016
739 4 0.253339 0.466877 0.942478
305 2 0.257019 0.414587 0.977772
306 4 0.25254 0.448542 0.966484
307 4 0.261498 0.380632 0.989061
738 4 0.287739 0.483676 0.881354
737 2 0.270539 0.475276 0.911916
458 2 0.102978 0.524222 0.0677689
460 4 0.0778002 0.500644 0.0572507
292 4 0.153964 0.619331 0.108794
512 2 0.190978 0.54523 0.0632889
513 4 0.226406 0.542952 0.0569564
514 4 0.15555 0.547508 0.0696215
459 4 0.128155 0.5478 0.0782872
290 2 0.160608 0.624394 0.0737129
355 4 0.247227 0.563569 0.0586616
353 2 0.267539 0.556693 0.0876544
354 4 0.287851 0.549817 0.116647
375 4 0.309457 0.533008 0.123256
79 3 0.465039 0.597254 0.115868
76 1 0.483206 0.614939 0.0940245
253 4 0.463549 0.588098 0.000750807
1332 4 0.491978 0.585486 0.00891371
911 2 0.0328521 0.678215 0.0193359
912 4 0.0390849 0.712882 0.0270676
664 4 0.0170698 0.726655 0.0403486
913 4 0.0266192 0.643548 0.0116043
810 4 0.153671 0.653275 0.0310985
291 4 0.167251 0.629456 0.038632
90 3 0.220526 0.743581 0.113152
809 2 0.169454 0.655643 0.998761
620 2 0.374294 0.742316 0.10602
77 3 0.462808 0.628711 0.0717771
621 4 0.385036 0.709112 0.115101
742 4 0.204091 0.765334 0.10622
741 4 0.209616 0.801741 0.0442057
740 2 0.206854 0.783537 0.0752129
852 4 0.219055 0.83002 0.0523068
851 2 0.207226 0.853756 0.0278704
728 2 0.347399 0.830603 0.0737307
730 4 0.342846 0.858155 0.0509147
694 4 0.360581 0.869036 0.0289067
729 4 0.351951 0.80305 0.0965467
622 4 0.363551 0.775521 0.096938
1198 4 0.468833 0.840459 0.0453992
1196 2 0.449559 0.869851 0.0534642
853 4 0.195397 0.877491 0.00343407
714 4 0.326395 0.990636 0.0889306
715 4 0.284814 0.94193 0.122104
713 2 0.305604 0.966283 0.105517
700 4 0.259963 0.929136 0.113721
1197 4 0.430286 0.899243 0.0615292
1322 2 0.433257 0.955731 0.0895043
1323 4 0.436199 0.990488 0.0986545
1324 4 0.430315 0.920974 0.0803542
651 4 0.151657 0.589928 0.233209
674 2 0.233877 0.579234 0.207981
675 4 0.218446 0.56244 0.235914
676 4 0.249309 0.596028 0.180048
376 4 0.278928 0.528111 0.188415
68 3 0.308185 0.585454 0.154421
374 2 0.294192 0.530559 0.155836
66 1 0.300369 0.616576 0.163922
67 3 0.268895 0.617004 0.174405
1444 4 0.465284 0.587122 0.142756
708 4 0.396481 0.539455 0.241603
1442 2 0.433679 0.582657 0.159537
707 2 0.385301 0.557826 0.212655
1443 4 0.402073 0.578192 0.176318
709 4 0.37412 0.576197 0.183708
650 2 0.158404 0.624538 0.225656
87 3 0.213668 0.708615 0.153497
652 4 0.16515 0.659149 0.218104
586 4 0.152925 0.685445 0.213405
584 2 0.180144 0.702391 0.196901
585 4 0.207364 0.719336 0.180397
86 1 0.232929 0.732877 0.14162
69 3 0.30343 0.637538 0.138015
70 3 0.320064 0.626092 0.188425
630 4 0.346938 0.698122 0.159739
255 4 0.354004 0.671471 0.172396
629 2 0.313678 0.712053 0.160067
89 3 0.263781 0.720831 0.136824
631 4 0.280417 0.725984 0.160394
24 3 0.360787 0.739492 0.236463
732 4 0.488792 0.657294 0.129894
731 2 0.461936 0.665133 0.152647
733 4 0.435079 0.672973 0.1754
256 4 0.420896 0.692874 0.188799
254 2 0.38745 0.682172 0.180597
703 4 0.435055 0.712893 0.234278
88 3 0.233757 0.75789 0.163838
601 4 0.340588 0.756398 0.245028
600 4 0.299826 0.81577 0.248919
599 2 0.320207 0.786084 0.246973
699 4 0.215931 0.899113 0.162318
735 4 0.223152 0.90481 0.191596
734 2 0.214861 0.93075 0.215235
736 4 0.206571 0.95669 0.238875
654 4 0.179454 0.968743 0.23541
698 2 0.237947 0.914125 0.138019
315 4 0.289566 0.910731 0.250087
480 4 0.0125494 0.574646 0.369426
393 4 0.00396105 0.553213 0.278895
344 2 0.251532 0.610749 0.352611
661 4 0.349544 0.578834 0.3432
659 2 0.322981 0.56891 0.36548
724 4 0.375539 0.589732 0.341186
625 4 0.461073 0.548741 0.320122
761 2 0.440184 0.500874 0.339507
722 2 0.385451 0.588453 0.306537
723 4 0.395364 0.587175 0.271888
623 2 0.481685 0.577544 0.313338
762 4 0.440124 0.536573 0.334405
1387 4 0.0119638 0.743145 0.303126
1386 4 0.0610255 0.698269 0.331069
1385 2 0.0364947 0.720707 0.317098
345 4 0.26057 0.631813 0.324772
22 3 0.368042 0.706354 0.278744
1349 2 0.490625 0.672156 0.325312
1350 4 0.485853 0.66814 0.289794
701 2 0.451286 0.685791 0.25167
23 3 0.410963 0.721575 0.249341
21 1 0.381394 0.731393 0.261557
702 4 0.467518 0.65869 0.269063
1351 4 0.495397 0.676171 0.360831
193 3 0.122766 0.866313 0.301666
1312 4 0.226291 0.834735 0.252986
192 3 0.168003 0.861453 0.272196
191 1 0.155026 0.857447 0.302465
1310 2 0.212024 0.805499 0.268546
1311 4 0.197756 0.776262 0.284106
614 2 0.174213 0.813719 0.370898
194 3 0.157819 0.825279 0.311262
615 4 0.171369 0.817447 0.335143
765 4 0.319058 0.832422 0.261639
764 2 0.313004 0.851498 0.291637
766 4 0.306951 0.870574 0.321635
25 3 0.385501 0.757198 0.281458
604 4 0.402244 0.75413 0.305299
602 2 0.396563 0.766798 0.338581
697 4 0.10091 0.880875 0.315221
695 2 0.0873445 0.889739 0.347437
769 4 0.0970702 0.972229 0.369839
195 3 0.17132 0.876359 0.323811
777 4 0.179254 0.976584 0.320655
776 2 0.214728 0.970414 0.322643
768 4 0.155018 0.967537 0.327157
767 2 0.126044 0.969883 0.348498
529 4 0.341168 0.979037 0.36625
31 1 0.293111 0.981556 0.335877
33 3 0.297338 0.962051 0.309014
681 4 0.324077 0.882665 0.341543
32 3 0.262119 0.977784 0.347099
316 4 0.269763 0.950118 0.307168
314 2 0.279664 0.930424 0.278628
680 2 0.313336 0.898391 0.372166
778 4 0.250202 0.964244 0.324631
35 3 0.314282 0.972904 0.359452
842 2 0.0879532 0.595674 0.420743
641 2 0.0900574 0.510962 0.422285
844 4 0.0999212 0.561758 0.418114
642 4 0.102621 0.541227 0.43734
346 4 0.242493 0.589685 0.380451
475 4 0.242998 0.57753 0.408394
473 2 0.209046 0.578578 0.420502
474 4 0.175094 0.579627 0.43261
264 4 0.352831 0.534896 0.398432
660 4 0.296418 0.558986 0.387759
263 2 0.38333 0.544901 0.414868
265 4 0.413829 0.554907 0.431303
888 4 0.425509 0.538778 0.452653
887 2 0.436218 0.552032 0.484435
843 4 0.0759852 0.62959 0.423372
900 4 0.00351086 0.675155 0.448459
899 2 0.0319518 0.663944 0.429331
901 4 0.0603927 0.652733 0.410204
595 4 0.235154 0.723704 0.469002
593 2 0.226468 0.741455 0.438838
687 4 0.367031 0.740904 0.477081
1354 4 0.499816 0.748066 0.481558
1436 2 0.497685 0.655019 0.465239
886 4 0.48787 0.698143 0.375686
1438 4 0.469519 0.677409 0.462828
1567 4 0.394277 0.732411 0.474381
884 2 0.462023 0.717033 0.392287
1565 2 0.418572 0.705812 0.472738
1566 4 0.442866 0.679212 0.471095
885 4 0.436177 0.735922 0.408888
616 4 0.177056 0.809991 0.406654
594 4 0.217781 0.759206 0.408674
915 4 0.133322 0.772216 0.494966
603 4 0.390882 0.779466 0.371863
696 4 0.0737792 0.898604 0.379653
92 3 0.0726001 0.913778 0.404877
93 3 0.109682 0.931274 0.440335
94 3 0.0942169 0.963072 0.398451
95 3 0.0599671 0.953101 0.439395
1370 2 0.0318066 0.932107 0.48668
1371 4 0.0547306 0.952215 0.467429
91 1 0.0840172 0.940474 0.420929
120 3 0.228678 0.954045 0.482652
609 4 0.235928 0.940684 0.457659
608 2 0.254477 0.927569 0.429653
682 4 0.302595 0.914118 0.402788
610 4 0.273026 0.914454 0.401646
1295 2 0.412707 0.910408 0.465256
1441 4 0.446097 0.928945 0.414927
1297 4 0.431163 0.927633 0.439505
1296 4 0.394251 0.893183 0.491007
1439 2 0.480705 0.927135 0.424899
1319 2 0.303447 0.581232 0.593353
1321 4 0.291955 0.609052 0.573493
1320 4 0.314939 0.553412 0.613212
241 1 0.4646 0.561169 0.561928
889 4 0.446927 0.565286 0.516216
244 3 0.472413 0.565127 0.529629
245 3 0.464499 0.529232 0.569601
243 3 0.434536 0.574497 0.568125
790 4 0.456939 0.520465 0.596378
242 3 0.487277 0.576783 0.580439
788 2 0.431534 0.503034 0.61512
857 2 0.0638885 0.684646 0.621834
858 4 0.09929 0.691444 0.620851
859 4 0.0284871 0.677848 0.622816
1536 4 0.00072601 0.667219 0.6248
773 2 0.0163954 0.740837 0.52953
567 4 0.100384 0.681452 0.592357
566 2 0.127157 0.694724 0.572171
598 4 0.00342226 0.68592 0.497901
775 4 0.0101822 0.711749 0.50914
568 4 0.15393 0.707997 0.551985
916 4 0.170087 0.72753 0.538016
914 2 0.151704 0.749873 0.516491
774 4 0.0226085 0.769925 0.549919
634 4 0.0280619 0.777927 0.577984
632 2 0.0230559 0.795459 0.609096
184 3 0.0411438 0.86377 0.547611
1533 4 0.0144172 0.849858 0.548647
686 2 0.361373 0.750831 0.511285
688 4 0.355715 0.760757 0.545488
1512 4 0.329669 0.770635 0.555882
1511 2 0.33399 0.803288 0.570564
1513 4 0.338312 0.83594 0.585247
649 4 0.346105 0.850202 0.56035
647 2 0.366396 0.870641 0.53865
185 3 0.0516319 0.913284 0.567289
181 1 0.0277952 0.892413 0.558625
182 3 0.00977291 0.905914 0.534261
1372 4 0.00888267 0.912 0.505932
875 2 0.0667645 0.996313 0.592274
847 4 0.100975 0.987724 0.527648
877 4 0.0683352 0.96315 0.606351
183 3 0.00782259 0.886391 0.584793
845 2 0.135765 0.980953 0.520993
118 3 0.249511 0.953521 0.532797
846 4 0.170554 0.974182 0.514338
116 1 0.227864 0.9685 0.512134
117 3 0.236428 0.000389638 0.50891
119 3 0.19694 0.966833 0.524818
925 4 0.264001 0.968908 0.552681
923 2 0.278577 0.97712 0.584628
924 4 0.293152 0.985331 0.616574
448 4 0.315801 0.970133 0.624165
648 4 0.386687 0.891081 0.516949
770 2 0.225256 0.61084 0.728276
515 2 0.249185 0.515636 0.748813
517 4 0.239362 0.500386 0.717646
805 4 0.319567 0.528469 0.628651
803 2 0.348918 0.507549 0.627475
1570 4 0.496177 0.566542 0.690007
1498 4 0.484096 0.58904 0.706303
1496 2 0.483721 0.574599 0.739345
812 2 0.0258322 0.644187 0.727107
813 4 0.0614464 0.644371 0.721447
772 4 0.249586 0.627319 0.707373
880 4 0.151378 0.697803 0.735298
879 4 0.165373 0.699276 0.664561
878 2 0.158376 0.69854 0.69993
856 4 0.150424 0.722392 0.748637
685 4 0.368457 0.709446 0.650981
683 2 0.336283 0.724509 0.644788
684 4 0.304109 0.739573 0.638595
1546 4 0.999882 0.837142 0.644324
633 4 0.0180498 0.812992 0.640208
110 3 0.26023 0.754204 0.701858
109 3 0.287806 0.755841 0.655106
106 1 0.284584 0.769136 0.685648
107 3 0.312988 0.764872 0.702252
108 3 0.278279 0.801913 0.683233
868 4 0.319668 0.772425 0.728287
679 4 0.00231311 0.899657 0.65428
689 2 0.0995269 0.938319 0.649003
691 4 0.070398 0.945395 0.628956
690 4 0.128656 0.931242 0.669049
798 4 0.150114 0.934991 0.688074
797 2 0.133794 0.93686 0.720177
748 4 0.241667 0.00435775 0.647008
446 2 0.336331 0.942222 0.634164
837 4 0.255471 0.996612 0.742953
447 4 0.356861 0.914312 0.644163
746 2 0.252119 0.000272607 0.681279
1228 4 0.36796 0.981132 0.706045
771 4 0.200925 0.594361 0.749179
793 4 0.130161 0.524156 0.771484
891 4 0.152135 0.543466 0.777174
890 2 0.167388 0.575709 0.771868
892 4 0.18264 0.607953 0.766562
422 2 0.268078 0.502307 0.828657
423 4 0.268079 0.507657 0.792995
516 4 0.259008 0.530887 0.77998
424 4 0.268078 0.496957 0.86432
1497 4 0.483346 0.560157 0.772387
905 2 0.431505 0.598119 0.860029
907 4 0.41829 0.564721 0.863255
854 2 0.160356 0.718867 0.783124
607 4 0.162727 0.730154 0.839956
605 2 0.191393 0.733879 0.861516
855 4 0.170288 0.715341 0.817611
800 2 0.487678 0.647106 0.827539
906 4 0.444719 0.631517 0.856803
802 4 0.464884 0.653113 0.85483
97 3 0.411666 0.692472 0.848009
98 3 0.461535 0.681396 0.866144
821 2 0.384423 0.742204 0.858491
100 3 0.421665 0.644851 0.871024
96 1 0.428848 0.676894 0.871733
822 4 0.400753 0.712477 0.870741
866 2 0.332807 0.794791 0.753339
867 4 0.345946 0.817156 0.778391
612 4 0.343646 0.843937 0.787954
787 4 0.305344 0.828336 0.83567
785 2 0.324025 0.797494 0.835262
786 4 0.342707 0.766651 0.834855
823 4 0.368092 0.771931 0.846242
860 2 0.489455 0.769861 0.782249
862 4 0.462207 0.769917 0.80587
850 4 0.465241 0.789973 0.823991
848 2 0.451407 0.812561 0.848463
849 4 0.437573 0.835149 0.872934
799 4 0.117474 0.93873 0.75228
909 4 0.127069 0.957337 0.770752
910 4 0.138339 0.922502 0.832891
908 2 0.132704 0.93992 0.801821
870 4 0.14345 0.897596 0.844456
869 2 0.177794 0.890977 0.853237
871 4 0.212138 0.884357 0.862018
611 2 0.33515 0.876536 0.800821
613 4 0.326654 0.909135 0.813687
796 4 0.33543 0.932604 0.800723
794 2 0.33783 0.968369 0.804666
1587 4 0.419 0.970966 0.866421
1503 4 0.0113833 0.589825 0.934802
1502 2 0.0147042 0.605368 0.967171
1504 4 0.0180251 0.620912 0.999541
829 4 0.337637 0.544533 0.940192
827 2 0.31249 0.569169 0.948011
828 4 0.287344 0.593805 0.955831
210 3 0.358822 0.540118 0.920873
628 4 0.295309 0.621161 0.953113
208 3 0.397078 0.557345 0.886397
209 3 0.410758 0.540483 0.936727
206 1 0.387452 0.556028 0.918422
207 3 0.383763 0.586976 0.929793
252 4 0.413113 0.557968 0.958917
251 2 0.438331 0.573033 0.979834
606 4 0.220058 0.737605 0.883076
811 4 0.185237 0.65801 0.966423
874 4 0.244065 0.747423 0.895574
626 2 0.314094 0.651909 0.951657
627 4 0.33288 0.682656 0.950201
808 4 0.353916 0.699464 0.957407
806 2 0.37417 0.700713 0.927597
807 4 0.394425 0.701962 0.897787
99 3 0.420449 0.689825 0.901435
1271 2 0.489457 0.750044 0.932142
872 2 0.263175 0.752588 0.925716
873 4 0.282286 0.757753 0.955859
921 4 0.324026 0.811956 0.902581
920 2 0.319132 0.847619 0.900428
84 3 0.46425 0.845484 0.943289
83 3 0.43482 0.826758 0.901007
82 3 0.410978 0.836982 0.948604
81 1 0.438722 0.825831 0.934231
1273 4 0.470122 0.778931 0.94174
85 3 0.444319 0.794976 0.944001
640 4 0.22775 0.902055 0.878955
73 3 0.192976 0.00091929 0.993746
1581 4 0.198741 0.973601 0.992675
1582 4 0.190344 0.902182 0.987138
1580 2 0.194543 0.937892 0.989907
693 4 0.356117 0.898784 0.963356
638 2 0.253836 0.918166 0.89794
639 4 0.279922 0.934277 0.916924
113 3 0.326614 0.900173 0.957697
922 4 0.314238 0.883282 0.898275
835 4 0.363054 0.969417 0.944957
114 3 0.324611 0.910746 0.90395
111 1 0.325435 0.924301 0.934537
112 3 0.29787 0.942195 0.939084
115 3 0.351645 0.943887 0.937412
692 2 0.358349 0.88391 0.996131
229 3 0.432141 0.989786 0.976805
1588 4 0.469331 0.921771 0.882181
1586 2 0.444166 0.946368 0.874301
590 2 0.62122 0.0723311 0.0646324
592 4 0.617749 0.0948824 0.0367069
1075 4 0.590811 0.0874369 0.0292034
1073 2 0.556412 0.0931367 0.0200026
1074 4 0.522013 0.0988365 0.0108018
591 4 0.62469 0.0497798 0.0925579
936 4 0.63298 0.029065 0.108327
965 2 0.764616 0.0757053 0.119876
966 4 0.760948 0.0433293 0.104424
1054 4 0.784911 0.0345497 0.0924057
1052 2 0.802615 0.00410537 0.10016
541 4 0.643462 0.224968 0.0112328
539 2 0.644187 0.248312 0.0387096
1259 2 0.965254 0.211466 0.0326551
1260 4 0.940572 0.187351 0.0221823
1009 4 0.916983 0.198053 0.0103645
1261 4 0.989936 0.235581 0.043128
1061 2 0.600786 0.314948 0.0785831
1062 4 0.581583 0.342018 0.0926861
1063 4 0.619989 0.287878 0.0644802
124 3 0.601541 0.36022 0.10132
540 4 0.644913 0.271656 0.0661865
1050 4 0.695613 0.328688 0.0285742
1049 2 0.725953 0.309396 0.0257853
946 4 0.702101 0.351473 0.0109553
1051 4 0.756293 0.290105 0.0229965
1047 4 0.767868 0.264613 0.0181914
1046 2 0.801587 0.274169 0.00969645
1066 4 0.814977 0.329698 0.105662
982 4 0.838661 0.315669 0.106132
980 2 0.857596 0.321812 0.0760621
981 4 0.87653 0.327956 0.0459926
121 1 0.606176 0.391204 0.113087
123 3 0.593636 0.413582 0.0915941
1059 4 0.571867 0.426019 0.0772548
1058 2 0.576998 0.420715 0.0419565
1060 4 0.582129 0.41541 0.00665818
122 3 0.63873 0.39664 0.116452
587 2 0.669787 0.454982 0.0397826
588 4 0.669542 0.419134 0.0436954
589 4 0.670031 0.49083 0.0358697
944 2 0.699975 0.387445 0.00957827
945 4 0.697849 0.423418 0.00820121
1200 4 0.978977 0.463866 0.00982616
1012 4 0.686391 0.0453557 0.216915
1039 4 0.712898 0.032679 0.21727
1010 2 0.671839 0.0743868 0.232596
1037 2 0.740471 0.042586 0.196245
967 4 0.768285 0.108081 0.135328
1038 4 0.768044 0.052493 0.175221
1024 4 0.785073 0.127884 0.144195
1022 2 0.773111 0.158801 0.158388
1023 4 0.761149 0.189719 0.172581
1508 2 0.987205 0.249134 0.128775
665 2 0.922338 0.12447 0.228809
1509 4 0.966125 0.220053 0.125556
666 4 0.914731 0.149296 0.203784
942 4 0.962785 0.193249 0.139158
941 2 0.940182 0.171782 0.157289
943 4 0.91758 0.150315 0.17542
1015 4 0.717866 0.286321 0.214496
1013 2 0.73767 0.298103 0.186757
147 3 0.729764 0.286452 0.240715
1014 4 0.757474 0.309884 0.159018
1064 2 0.799613 0.321217 0.137165
1065 4 0.78425 0.312735 0.168668
125 3 0.591596 0.394377 0.142348
744 4 0.588746 0.441434 0.228243
743 2 0.59437 0.427421 0.195495
745 4 0.599994 0.413407 0.162747
1326 4 0.588981 0.462777 0.247382
1341 4 0.658522 0.493579 0.246631
283 4 0.744998 0.474232 0.2371
281 2 0.77273 0.496967 0.240905
1011 4 0.657287 0.103418 0.248276
1045 4 0.651439 0.117947 0.27346
667 4 0.929945 0.0996438 0.253834
645 4 0.936379 0.0901059 0.279424
1305 4 0.969092 0.00379936 0.291315
644 2 0.954396 0.0588676 0.279431
646 4 0.972413 0.0276293 0.279438
1506 4 0.920385 0.000269947 0.370327
1043 2 0.666419 0.126852 0.305032