ITEM: TIMESTEP
1810000
ITEM: NUMBER OF ATOMS
4590
ITEM: BOX BOUNDS pp pp pp
-9.9985700000000008e+00 9.9985700000000008e+00
-9.9985700000000008e+00 9.9985700000000008e+00
-9.9985700000000008e+00 9.9985700000000008e+00
ITEM: ATOMS id type xs ys zs
532 2 0.0861569 0.0421673 0.01883
578 4 0.0934309 0.071775 0.0487467
534 4 0.0965962 0.0550665 0.0375333
577 2 0.0926501 0.069146 0.0735994
464 4 0.16614 0.0705814 0.0111681
1328 4 0.210262 0.0186789 0.0358595
1327 2 0.221525 0.0402328 0.0300501
2264 4 0.202506 0.000526925 0.0299755
1329 4 0.232789 0.0617866 0.0242407
2263 2 0.186737 0.00469306 0.0110239
1541 4 0.309953 0.0315137 0.0162797
1540 2 0.317033 0.00933545 0.00715963
1286 4 0.0640241 0.164791 0.0105781
463 2 0.177883 0.0926255 0.0100066
994 2 0.205357 0.149716 0.0315519
995 4 0.193699 0.132183 0.0180672
465 4 0.189625 0.11467 0.00884502
996 4 0.217016 0.167249 0.0450366
581 4 0.273601 0.11309 0.00895595
359 4 0.259744 0.113276 0.0224145
358 2 0.260094 0.137276 0.0294185
360 4 0.260443 0.161276 0.0364224
770 4 0.386629 0.134262 0.0013125
769 2 0.381194 0.157364 0.00918106
1073 4 0.0633046 0.182542 0.0199108
1072 2 0.0831309 0.192954 0.0310327
1074 4 0.102957 0.203365 0.0421546
17 3 0.110662 0.206474 0.0607681
702 4 0.137919 0.237228 0.0212955
19 3 0.115267 0.169177 0.0613581
700 2 0.155486 0.219863 0.0174168
16 1 0.115615 0.188485 0.0742218
701 4 0.173052 0.202497 0.0135381
1254 4 0.232531 0.214598 0.00848382
1252 2 0.240878 0.196315 0.0233578
867 4 0.247827 0.222648 0.082328
1253 4 0.249225 0.178032 0.0382318
52 3 0.278934 0.200884 0.0483797
54 3 0.255715 0.225964 0.0640173
14 3 0.319773 0.237539 0.0561346
51 1 0.276414 0.21564 0.0658462
55 3 0.277708 0.204256 0.0855284
53 3 0.293306 0.231511 0.0647546
11 1 0.339931 0.23547 0.067438
771 4 0.375759 0.180467 0.0170496
566 4 0.361285 0.191072 0.00884866
565 2 0.361709 0.212478 0.021764
12 3 0.355749 0.227128 0.0529677
567 4 0.362133 0.233883 0.0346793
2772 4 0.0320279 0.274945 0.0366751
2770 2 0.0221614 0.28926 0.0546452
2771 4 0.0122949 0.303575 0.0726152
288 4 0.12124 0.306456 0.0256008
293 4 0.136564 0.318773 0.029158
292 2 0.159534 0.3168 0.0388353
286 2 0.109327 0.301489 0.00418597
294 4 0.182504 0.314828 0.0485126
506 4 0.197915 0.326792 0.0436863
505 2 0.22263 0.324209 0.0464528
507 4 0.247345 0.321626 0.0492193
623 4 0.312887 0.25271 0.0450608
622 2 0.309328 0.2634 0.0227398
956 4 0.26609 0.318797 0.0483556
955 2 0.270208 0.31734 0.0729747
518 4 0.402987 0.288495 0.0425682
665 4 0.407648 0.286123 0.0236636
664 2 0.383555 0.290722 0.0188105
517 2 0.415457 0.28306 0.0635476
13 3 0.346926 0.25625 0.0750294
666 4 0.359462 0.29532 0.0139573
527 4 0.492465 0.267997 0.0745347
526 2 0.46747 0.267732 0.0751611
528 4 0.442476 0.267467 0.0757874
535 2 0.0236333 0.409003 0.0659005
537 4 0.00972431 0.392791 0.0788963
1223 4 0.145465 0.400639 0.0509555
242 4 0.295564 0.346113 0.066791
241 2 0.305741 0.349727 0.0442397
627 4 0.308079 0.351255 0.082896
243 4 0.315917 0.353341 0.0216885
789 4 0.258687 0.380155 0.00374745
3213 4 0.324492 0.343416 0.00665534
2388 4 0.408926 0.367596 0.00991212
2386 2 0.39382 0.386708 0.00427966
2387 4 0.378714 0.40582 0.998647
1674 4 0.476814 0.410362 0.0278922
1071 4 0.472573 0.396064 0.0141573
252 4 0.0567004 0.429833 0.0540517
536 4 0.0375423 0.425215 0.0529047
250 2 0.0671798 0.444244 0.0715927
1222 2 0.155358 0.420505 0.0394382
1224 4 0.165251 0.440371 0.0279209
1290 4 0.179392 0.456125 0.0300143
1288 2 0.198704 0.47028 0.0228142
1289 4 0.218017 0.484435 0.0156142
794 4 0.223819 0.500346 0.00390819
481 2 0.487998 0.482471 0.0141056
524 4 0.454388 0.481371 0.042575
523 2 0.455275 0.465075 0.0615181
525 4 0.456162 0.448779 0.0804611
1672 2 0.492732 0.42889 0.0225518
482 4 0.47297 0.501112 0.0213065
579 4 0.0918692 0.0665171 0.0984521
591 4 0.0831099 0.0631074 0.116436
589 2 0.0969469 0.0808878 0.127279
2163 4 0.30146 0.0280337 0.0963191
2161 2 0.290131 0.00700864 0.0889178
653 4 0.315451 0.0267094 0.111292
652 2 0.323849 0.0502546 0.111826
573 4 0.29054 0.0701194 0.163303
462 4 0.283413 0.0799533 0.14897
654 4 0.332246 0.0737998 0.11236
1108 2 0.411136 0.0697653 0.0926376
2724 4 0.380477 0.0201859 0.128413
2722 2 0.392357 0.0341307 0.14543
2723 4 0.404237 0.0480755 0.162447
1607 4 0.434771 0.0330876 0.0998374
1110 4 0.423974 0.0483229 0.0934014
1606 2 0.447384 0.011635 0.0974103
691 2 0.0942256 0.13358 0.150996
590 4 0.110784 0.0986682 0.138122
692 4 0.0975482 0.113947 0.135875
236 4 0.239765 0.0942097 0.0971596
235 2 0.22705 0.115476 0.0938066
237 4 0.214335 0.136743 0.0904536
423 4 0.217023 0.150619 0.105998
421 2 0.207232 0.155324 0.128519
461 4 0.248052 0.0891325 0.114822
422 4 0.197441 0.16003 0.151039
460 2 0.265732 0.0845429 0.131896
1109 4 0.398298 0.0912078 0.0918738
25 3 0.358004 0.0849825 0.155678
629 4 0.410932 0.104589 0.0998372
628 2 0.391172 0.118946 0.105187
630 4 0.371412 0.133302 0.110537
557 4 0.36989 0.151864 0.115252
332 4 0.48085 0.121916 0.155393
2895 4 0.491478 0.149571 0.103035
449 4 0.0663717 0.229651 0.120964
448 2 0.0855126 0.21681 0.111272
450 4 0.104653 0.20397 0.101581
18 3 0.0996908 0.187086 0.0910404
20 3 0.13629 0.191389 0.0833187
2760 4 0.125984 0.20127 0.0995423
2758 2 0.139564 0.208484 0.119258
2759 4 0.153145 0.215698 0.138973
381 4 0.155964 0.211789 0.159231
866 4 0.205948 0.247422 0.0938687
865 2 0.226888 0.235035 0.0880983
15 3 0.337557 0.221175 0.0850068
556 2 0.38432 0.172225 0.116786
387 4 0.349303 0.245905 0.0934347
558 4 0.39875 0.192587 0.118321
361 2 0.0498971 0.309228 0.115249
363 4 0.0486136 0.284437 0.112258
756 4 0.112788 0.320686 0.120434
508 2 0.161876 0.332163 0.164496
957 4 0.274326 0.315884 0.0975937
357 4 0.281198 0.301358 0.10883
355 2 0.281647 0.28978 0.130987
356 4 0.282097 0.278202 0.153144
353 4 0.290695 0.261912 0.161493
385 2 0.355157 0.256444 0.11534
386 4 0.36101 0.266983 0.137245
495 4 0.370677 0.26377 0.154985
493 2 0.385 0.284263 0.155195
494 4 0.399324 0.304756 0.155405
612 4 0.388066 0.320337 0.148117
519 4 0.427927 0.277624 0.084527
596 4 0.431506 0.27909 0.133845
595 2 0.442878 0.299732 0.125494
597 4 0.454251 0.320375 0.117144
2652 4 0.472705 0.325365 0.122669
657 4 0.00567398 0.375633 0.0886947
362 4 0.0511807 0.334019 0.118239
656 4 0.040177 0.351315 0.115507
655 2 0.0229255 0.363474 0.102101
396 4 0.0114367 0.418203 0.161428
755 4 0.110441 0.360827 0.0907039
754 2 0.111615 0.340757 0.105569
510 4 0.172467 0.353198 0.156095
625 2 0.323179 0.34936 0.102735
626 4 0.338279 0.347464 0.122574
446 4 0.344919 0.365577 0.128643
445 2 0.353285 0.389089 0.127109
447 4 0.361651 0.412601 0.125574
588 4 0.359787 0.415312 0.145516
610 2 0.377707 0.33953 0.160345
2650 2 0.487331 0.345297 0.126407
291 4 0.0846505 0.462786 0.108103
251 4 0.0776591 0.458655 0.0891337
394 2 0.00297704 0.420414 0.138003
289 2 0.0941778 0.46747 0.130741
290 4 0.103705 0.472153 0.153379
1779 4 0.146907 0.476909 0.0845369
1777 2 0.164126 0.494189 0.0900234
345 4 0.175284 0.481664 0.1536
284 4 0.324133 0.473047 0.128441
283 2 0.316511 0.472287 0.152243
1431 4 0.265923 0.502738 0.159896
273 4 0.34042 0.472877 0.116401
586 2 0.372819 0.429625 0.161342
271 2 0.349459 0.495716 0.111724
660 4 0.425656 0.447829 0.136721
658 2 0.440384 0.443122 0.11707
659 4 0.455111 0.438416 0.0974203
1575 4 0.437633 0.446134 0.153844
1404 4 0.16466 0.00281988 0.23484
1403 4 0.143346 0.0479449 0.231653
1402 2 0.154003 0.0253824 0.233247
571 2 0.313301 0.0605273 0.16719
572 4 0.336062 0.0509352 0.171078
744 4 0.332148 0.00540408 0.215097
24 3 0.386856 0.0630247 0.16583
21 1 0.367629 0.0738272 0.173044
22 3 0.352857 0.0581358 0.181088
742 2 0.354726 0.00592855 0.225827
743 4 0.377304 0.00645302 0.236558
758 4 0.453055 0.00408802 0.183588
757 2 0.436075 0.0214939 0.177764
759 4 0.419096 0.0388997 0.171941
705 4 0.0816841 0.160816 0.182582
428 4 0.0429612 0.150848 0.219639
703 2 0.0594674 0.15335 0.191291
704 4 0.0372508 0.145884 0.200001
427 2 0.032585 0.159524 0.240669
693 4 0.0909029 0.153214 0.166117
546 4 0.161888 0.142929 0.220478
544 2 0.156128 0.137627 0.244224
477 4 0.177307 0.152115 0.21166
476 4 0.196519 0.169294 0.168806
475 2 0.186913 0.160705 0.190233
23 3 0.372815 0.0886842 0.190096
311 4 0.388076 0.100373 0.182923
310 2 0.409526 0.107566 0.193569
312 4 0.430975 0.11476 0.204216
331 2 0.462283 0.11895 0.171875
333 4 0.443715 0.115984 0.188356
389 4 0.130207 0.190842 0.21851
388 2 0.119804 0.205669 0.235747
379 2 0.151911 0.227562 0.178204
380 4 0.147857 0.243335 0.197176
498 4 0.324615 0.204736 0.237528
496 2 0.30292 0.198069 0.248019
30 3 0.340216 0.216136 0.22906
27 3 0.340668 0.245186 0.205633
29 3 0.365773 0.243419 0.233548
26 1 0.353667 0.230945 0.218178
28 3 0.36814 0.219585 0.20404
2935 2 0.472711 0.213448 0.195345
2936 4 0.448879 0.210725 0.2024
2517 4 0.429347 0.215158 0.199566
2515 2 0.419085 0.237661 0.195896
2937 4 0.496544 0.216172 0.188289
364 2 0.0718124 0.269646 0.197044
365 4 0.0510811 0.281914 0.203746
601 2 0.0155299 0.302328 0.200693
603 4 0.034118 0.290243 0.212252
366 4 0.0925436 0.257379 0.190343
749 4 0.14728 0.264119 0.200936
509 4 0.151284 0.311129 0.172897
748 2 0.157605 0.28215 0.187027
750 4 0.167929 0.300182 0.173118
352 2 0.308418 0.258541 0.178806
354 4 0.32614 0.255169 0.196118
737 4 0.327649 0.272182 0.2069
736 2 0.34279 0.29105 0.213217
738 4 0.357931 0.309919 0.219534
2516 4 0.408823 0.260165 0.192227
2837 4 0.462003 0.298515 0.198108
2838 4 0.416238 0.278663 0.194625
2836 2 0.43912 0.288589 0.196366
339 4 0.00205494 0.37066 0.221025
621 4 0.0133851 0.367812 0.204626
337 2 0.0191908 0.361992 0.237038
619 2 0.00796904 0.384304 0.18663
647 4 0.111875 0.416878 0.244795
309 4 0.177145 0.367822 0.169796
308 4 0.207946 0.381123 0.206878
307 2 0.192545 0.374472 0.188337
768 4 0.208791 0.390223 0.224387
766 2 0.217457 0.37547 0.24262
611 4 0.367349 0.358722 0.172573
2953 2 0.137123 0.442602 0.246803
2955 4 0.156152 0.454865 0.236189
343 2 0.160952 0.492013 0.171283
301 2 0.165214 0.497617 0.245885
303 4 0.163071 0.473031 0.241874
285 4 0.308888 0.471527 0.176044
1706 4 0.278345 0.486708 0.218126
1705 2 0.298432 0.489171 0.23281
1707 4 0.318519 0.491633 0.247494
587 4 0.385852 0.443938 0.177168
435 4 0.380953 0.452773 0.194449
434 4 0.386084 0.481553 0.235021
433 2 0.383519 0.467163 0.214735
1436 4 0.37187 0.479223 0.248857
1573 2 0.433169 0.457689 0.175564
1583 4 0.479621 0.498311 0.23047
1574 4 0.428706 0.469244 0.197283
1584 4 0.446777 0.477599 0.198958
1582 2 0.463199 0.487955 0.214714
1490 4 0.0507245 0.00210992 0.336443
317 4 0.00438343 0.0572208 0.287931
316 2 0.0224847 0.0744531 0.287176
732 4 0.132613 0.0480907 0.248759
730 2 0.115056 0.0609108 0.261112
731 4 0.0974997 0.0737309 0.273465
765 4 0.224305 0.0655657 0.297187
1701 4 0.243753 0.072132 0.294959
1699 2 0.255671 0.0685014 0.27328
1700 4 0.267589 0.0648707 0.251601
468 4 0.331029 0.0402083 0.314806
466 2 0.338676 0.0520803 0.294173
467 4 0.346324 0.0639523 0.273539
632 4 0.355472 0.081107 0.279986
513 4 0.00686446 0.16345 0.274639
529 2 0.0493897 0.124914 0.294934
318 4 0.0405859 0.0916855 0.286421
530 4 0.0433538 0.108631 0.276945
531 4 0.0554256 0.141197 0.312923
2849 4 0.0650964 0.142158 0.331133
545 4 0.150367 0.132324 0.267971
939 4 0.151505 0.117791 0.281508
937 2 0.151937 0.131807 0.302209
938 4 0.15237 0.145823 0.322911
763 2 0.209074 0.0853948 0.297109
764 4 0.193843 0.105224 0.297032
631 2 0.36691 0.100298 0.268759
633 4 0.378348 0.11949 0.257532
708 4 0.384977 0.135224 0.268136
706 2 0.40735 0.144532 0.2743
305 4 0.495633 0.114714 0.296628
707 4 0.429723 0.15384 0.280465
489 4 0.4428 0.139696 0.276379
487 2 0.459939 0.127169 0.289589
488 4 0.477078 0.114642 0.302799
429 4 0.0222089 0.168199 0.261699
390 4 0.1094 0.220496 0.252984
300 4 0.0995265 0.227689 0.268306
298 2 0.102654 0.23831 0.290724
299 4 0.105782 0.248932 0.313143
497 4 0.281225 0.191402 0.258509
279 4 0.268055 0.20904 0.26256
277 2 0.255782 0.230702 0.264873
248 4 0.367278 0.244914 0.252942
503 4 0.186119 0.306032 0.269978
401 4 0.198562 0.293346 0.281029
400 2 0.218033 0.277722 0.282414
728 4 0.227095 0.327193 0.29593
502 2 0.197755 0.327758 0.265768
402 4 0.237504 0.262097 0.283799
278 4 0.24351 0.252363 0.267186
274 2 0.306211 0.261139 0.317132
276 4 0.31881 0.25924 0.295619
247 2 0.35087 0.254261 0.269331
249 4 0.334462 0.263608 0.285719
613 2 0.336443 0.311977 0.324754
338 4 0.0363267 0.353324 0.25305
416 4 0.0513974 0.340097 0.254709
415 2 0.0718301 0.352355 0.262287
548 4 0.0285186 0.372341 0.306414
680 4 0.040667 0.379039 0.320417
547 2 0.0156193 0.386122 0.290017
549 4 0.00271998 0.399903 0.27362
679 2 0.0643961 0.376122 0.327738
417 4 0.0922627 0.364613 0.269865
648 4 0.098298 0.381375 0.277289
646 2 0.105087 0.399126 0.261042
681 4 0.0881252 0.373204 0.335059
767 4 0.226123 0.360718 0.260853
504 4 0.209392 0.349485 0.261558
727 2 0.23865 0.348906 0.300423
729 4 0.250205 0.37062 0.304916
543 4 0.253342 0.388386 0.315331
541 2 0.277542 0.393832 0.312185
378 4 0.31546 0.393739 0.324642
542 4 0.301742 0.399277 0.309039
376 2 0.326224 0.371211 0.325986
377 4 0.336988 0.348684 0.32733
614 4 0.334749 0.333728 0.312541
2954 4 0.118093 0.430338 0.257417
1437 4 0.325059 0.485448 0.265308
1435 2 0.348465 0.482336 0.257082
118 3 0.491403 0.417436 0.313059
1489 2 0.0421862 0.0135353 0.356979
2635 2 0.0142252 0.0189223 0.404762
1491 4 0.0336478 0.0249607 0.377515
2637 4 0.0142898 0.0266003 0.380967
1646 4 0.164247 0.0366873 0.407321
1645 2 0.14124 0.0274165 0.410476
1647 4 0.118234 0.0181456 0.41363
342 4 0.177935 0.0524402 0.410173
604 2 0.230442 0.0386596 0.350327
605 4 0.214311 0.0540836 0.361599
340 2 0.186525 0.0544358 0.386776
341 4 0.195115 0.0564314 0.36338
606 4 0.246573 0.0232355 0.339055
1341 4 0.237879 0.00450602 0.336728
1517 4 0.318725 0.00762772 0.366539
1518 4 0.275983 0.0335236 0.368321
1516 2 0.297354 0.0205757 0.36743
405 4 0.275055 0.0427098 0.385709
403 2 0.266596 0.0661429 0.383584
479 4 0.398968 0.0619424 0.415255
257 4 0.398642 0.0820246 0.40961
2848 2 0.0474616 0.155426 0.342887
261 4 0.16775 0.15056 0.336995
369 4 0.156333 0.119148 0.39061
367 2 0.136569 0.129996 0.401423
1182 4 0.154472 0.106162 0.375927
735 4 0.107018 0.157589 0.414929
319 2 0.231727 0.108644 0.359314
321 4 0.214576 0.110677 0.341234
1180 2 0.175979 0.107641 0.363261
1181 4 0.197486 0.109121 0.350594
259 2 0.187498 0.165727 0.339272
320 4 0.248878 0.106611 0.377394
404 4 0.258137 0.089576 0.381458
258 4 0.386391 0.129853 0.401671
256 2 0.392517 0.105939 0.405641
516 4 0.393727 0.146149 0.41224
2656 2 0.427544 0.144284 0.382842
2657 4 0.430777 0.132654 0.40474
2658 4 0.424311 0.155913 0.360945
471 4 0.99941 0.198094 0.402432
469 2 0.0158846 0.190213 0.385354
2850 4 0.0298268 0.168693 0.354642
470 4 0.0323589 0.182332 0.368276
370 2 0.161191 0.248295 0.365561
371 4 0.172741 0.234932 0.347864
260 4 0.207245 0.180894 0.341548
598 2 0.233481 0.194774 0.367845
600 4 0.215615 0.17934 0.359611
599 4 0.251347 0.210208 0.376078
474 4 0.272296 0.212489 0.374754
472 2 0.279503 0.234608 0.365587
425 4 0.437584 0.170113 0.365987
424 2 0.44786 0.192341 0.360935
426 4 0.458136 0.214568 0.355883
420 4 0.441006 0.226042 0.356458
418 2 0.42807 0.246985 0.352074
372 4 0.149641 0.261659 0.383259
569 4 0.11991 0.332017 0.370157
678 4 0.137191 0.327353 0.37909
676 2 0.153489 0.317501 0.395292
677 4 0.169787 0.307648 0.411493
473 4 0.286709 0.256726 0.356421
275 4 0.293611 0.263038 0.338645
615 4 0.338137 0.290225 0.336968
267 4 0.357604 0.294783 0.33613
265 2 0.376683 0.282061 0.346095
266 4 0.395763 0.26934 0.356061
419 4 0.415134 0.267929 0.347689
583 2 0.486047 0.301939 0.400758
585 4 0.46512 0.309989 0.411824
812 4 0.453395 0.324591 0.414164
568 2 0.111504 0.346091 0.351277
570 4 0.103098 0.360164 0.332398
1641 4 0.251428 0.415445 0.357703
1399 2 0.372755 0.402125 0.418233
3672 4 0.00185348 0.449852 0.379848
1398 4 0.0617408 0.465839 0.412091
936 4 0.0676777 0.446961 0.413056
1396 2 0.0722203 0.488215 0.415918
1639 2 0.2669 0.424658 0.37505
1640 4 0.282372 0.433871 0.392397
1446 4 0.28934 0.448091 0.408287
1820 4 0.253633 0.493697 0.359307
1819 2 0.273976 0.49917 0.34584
1401 4 0.389886 0.420024 0.414867
561 4 0.392781 0.416419 0.395092
559 2 0.40995 0.430663 0.383798
560 4 0.427118 0.444906 0.372505
1472 4 0.485938 0.471151 0.366702
1473 4 0.440209 0.45215 0.359737
1471 2 0.463074 0.461651 0.36322
2636 4 0.0141605 0.0112444 0.428558
2586 4 0.10172 0.0160221 0.423835
726 4 0.23864 0.00126203 0.454794
792 4 0.21711 0.0634584 0.477214
432 4 0.209928 0.0608783 0.458505
430 2 0.22144 0.0395433 0.452384
431 4 0.232952 0.0182084 0.446263
790 2 0.207604 0.0613615 0.500245
478 2 0.390258 0.047153 0.433437
480 4 0.381548 0.0323636 0.451619
3732 4 0.413478 0.0480014 0.498573
1061 4 0.394521 0.0532583 0.494949
3730 2 0.432277 0.0633147 0.492467
3731 4 0.451076 0.0786281 0.486362
368 4 0.116806 0.140844 0.412236
733 2 0.0889719 0.164891 0.43062
515 4 0.407617 0.155721 0.459316
1032 4 0.40593 0.152634 0.479301
514 2 0.400672 0.150935 0.435778
640 2 0.483842 0.161875 0.498202
1030 2 0.42641 0.149158 0.493216
641 4 0.462003 0.150563 0.493697
346 2 0.0659896 0.215003 0.441559
347 4 0.0662107 0.23907 0.434783
734 4 0.0709255 0.172192 0.44631
348 4 0.0657684 0.190936 0.448335
1198 2 0.106939 0.173493 0.485763
616 2 0.135048 0.227129 0.465393
618 4 0.120663 0.209394 0.475576
1199 4 0.111065 0.192245 0.469747
617 4 0.149433 0.244865 0.45521
803 4 0.179477 0.240183 0.472983
1152 4 0.0758069 0.256734 0.434442
1034 4 0.0108271 0.33174 0.468186
1220 4 0.0154519 0.317472 0.454452
1219 2 0.029662 0.331016 0.438965
1033 2 0.00483707 0.326719 0.491937
1150 2 0.0928968 0.266506 0.449857
717 4 0.153674 0.263015 0.460262
1151 4 0.109987 0.276278 0.465272
1178 4 0.117208 0.293671 0.468316
715 2 0.163238 0.277111 0.44196
1177 2 0.123147 0.301542 0.491293
716 4 0.172802 0.291208 0.423657
668 4 0.208674 0.297045 0.452038
804 4 0.222316 0.265015 0.479975
667 2 0.210804 0.321945 0.452853
802 2 0.200896 0.252599 0.476479
711 4 0.317609 0.327724 0.476569
375 4 0.32313 0.308574 0.472612
373 2 0.343332 0.29385 0.473115
873 4 0.374472 0.268555 0.45996
374 4 0.363534 0.279125 0.473618
871 2 0.394732 0.283158 0.458763
872 4 0.414993 0.297761 0.457566
336 4 0.361782 0.331164 0.476797
334 2 0.374602 0.330446 0.498252
811 2 0.435881 0.319673 0.431318
813 4 0.418367 0.314755 0.448471
1221 4 0.0438722 0.344559 0.423479
500 4 0.0472416 0.398493 0.435799
499 2 0.0548639 0.375439 0.429832
501 4 0.0624862 0.352386 0.423864
935 4 0.050972 0.414221 0.446964
669 4 0.212934 0.346844 0.453669
240 4 0.227327 0.348515 0.467273
383 4 0.178175 0.408981 0.472572
238 2 0.248431 0.350134 0.480584
709 2 0.302078 0.342302 0.489662
239 4 0.269535 0.351753 0.493894
1400 4 0.355625 0.384225 0.421598
1453 2 0.365433 0.361836 0.452466
1455 4 0.371134 0.372889 0.430775
1454 4 0.359732 0.350783 0.474158
934 2 0.0593249 0.430591 0.43001
382 2 0.186812 0.428842 0.485066
384 4 0.195449 0.448703 0.497561
2222 4 0.283081 0.492038 0.434706
882 4 0.32832 0.473915 0.49415
1444 2 0.293964 0.464763 0.426337
1445 4 0.298588 0.481436 0.444388
1587 4 0.354021 0.490253 0.441515
1585 2 0.347139 0.490372 0.465553
1586 4 0.340256 0.490491 0.48959
1057 2 0.158268 0.0356335 0.562723
1058 4 0.14678 0.0173351 0.550138
851 4 0.146036 0.997113 0.556347
1059 4 0.169755 0.0539319 0.575308
1524 4 0.236773 0.0184273 0.574879
791 4 0.198098 0.0592647 0.523275
857 4 0.185579 0.072239 0.530581
1602 4 0.237574 0.00185456 0.562575
1522 2 0.253007 0.0374411 0.574547
1523 4 0.269241 0.0564549 0.574214
1153 2 0.36059 0.0341383 0.565486
1062 4 0.377161 0.0192187 0.527207
1154 4 0.372239 0.0257869 0.544998
1060 2 0.385841 0.0362385 0.511078
1218 4 0.409281 0.040439 0.558262
904 2 0.486039 0.0445551 0.542079
905 4 0.471193 0.0411765 0.561913
1216 2 0.42126 0.0185804 0.560231
4227 4 0.480524 0.0325469 0.577624
858 4 0.160718 0.115055 0.523552
1270 2 0.126586 0.141011 0.527692
1272 4 0.146496 0.126874 0.533072
1271 4 0.106676 0.155147 0.522313
1200 4 0.102813 0.154741 0.501779
856 2 0.173149 0.0936472 0.527066
842 4 0.37499 0.10237 0.57068
1031 4 0.44689 0.145681 0.507132
3267 4 0.00748854 0.210485 0.509071
1211 4 0.18454 0.178105 0.573955
1210 2 0.208478 0.185253 0.574994
1212 4 0.232415 0.1924 0.576033
798 4 0.320818 0.246216 0.5694
898 2 0.355791 0.227144 0.570617
1194 4 0.395597 0.218733 0.563653
900 4 0.375805 0.215665 0.560981
1192 2 0.417082 0.229089 0.556148
899 4 0.335777 0.238623 0.580252
1193 4 0.438567 0.239445 0.548643
650 4 0.455983 0.233103 0.554887
649 2 0.480136 0.234818 0.548654
1179 4 0.129086 0.309413 0.51427
3354 4 0.143618 0.305673 0.528731
3352 2 0.139937 0.32058 0.548464
1067 4 0.131706 0.302693 0.589154
796 2 0.321738 0.27119 0.570209
797 4 0.322658 0.296163 0.571019
335 4 0.387421 0.329728 0.519707
3353 4 0.136256 0.335487 0.568198
406 2 0.132382 0.376173 0.56017
408 4 0.134646 0.35185 0.554838
407 4 0.130117 0.400497 0.565501
773 4 0.251985 0.416276 0.535556
2153 4 0.253482 0.410072 0.555485
2152 2 0.262027 0.413675 0.578706
710 4 0.286547 0.356881 0.502754
925 2 0.389519 0.399429 0.568448
927 4 0.368186 0.390803 0.578231
926 4 0.410851 0.408055 0.558665
2138 4 0.156038 0.487474 0.551759
1161 4 0.159605 0.467471 0.551545
1159 2 0.169875 0.458293 0.530677
1160 4 0.180145 0.449115 0.509809
772 2 0.267239 0.432705 0.524484
881 4 0.298179 0.437791 0.511099
774 4 0.282492 0.449134 0.513411
880 2 0.313249 0.455853 0.502624
663 4 0.419704 0.417213 0.574324
661 2 0.429461 0.439501 0.580088
662 4 0.439218 0.461789 0.585852
4337 4 0.0490954 0.00388932 0.595101
961 2 0.153114 0.0799328 0.636443
410 4 0.170492 0.0473934 0.594434
411 4 0.216236 0.0623626 0.608004
409 2 0.193364 0.054878 0.601219
824 4 0.214064 0.0589353 0.627695
2132 4 0.184129 0.0571011 0.655415
962 4 0.174459 0.0739382 0.648003
823 2 0.236466 0.0572031 0.638666
1782 4 0.330924 0.036291 0.594507
1780 2 0.309164 0.0466102 0.587784
1781 4 0.287404 0.0569293 0.581062
2300 4 0.273192 0.0454819 0.65966
825 4 0.258867 0.055471 0.649637
1155 4 0.34894 0.0424897 0.585973
843 4 0.410687 0.0876782 0.60247
1025 4 0.398535 0.0781987 0.616411
1024 2 0.41287 0.0762376 0.636802
1026 4 0.427206 0.0742764 0.657194
4226 4 0.464741 0.0568597 0.618373
4225 2 0.472633 0.0447033 0.597998
88 3 0.466452 0.0768377 0.619395
863 4 0.0154969 0.0829478 0.662158
862 2 0.0368519 0.0958139 0.660258
864 4 0.0582068 0.10868 0.658359
963 4 0.131769 0.0859274 0.624883
841 2 0.392839 0.0950243 0.586575
45 3 0.392802 0.124297 0.658312
3401 4 0.391488 0.132511 0.640188
3400 2 0.405869 0.142653 0.622425
43 3 0.356335 0.116961 0.664147
87 3 0.443162 0.102661 0.605133
90 3 0.457508 0.107561 0.639237
86 1 0.461729 0.0995313 0.618348
89 3 0.479628 0.110923 0.608954
3402 4 0.420251 0.152794 0.604663
3009 4 0.494637 0.119846 0.619509
3356 4 0.438734 0.155412 0.611826
3355 2 0.458388 0.164363 0.624426
696 4 0.247987 0.195938 0.587385
1283 4 0.169403 0.170927 0.644108
1284 4 0.178134 0.213413 0.619219
1282 2 0.173769 0.19217 0.631663
1260 4 0.172104 0.223053 0.636428
1136 4 0.241344 0.242471 0.6329
1258 2 0.172386 0.24672 0.64449
694 2 0.250405 0.215561 0.60269
695 4 0.252822 0.235185 0.617995
3357 4 0.478043 0.173314 0.637026
3114 4 0.48726 0.18303 0.650741
800 4 0.43684 0.247765 0.6513
3262 2 0.0512941 0.310547 0.618906
3264 4 0.0275149 0.305089 0.624377
3263 4 0.0750734 0.316006 0.613435
878 4 0.0141607 0.320031 0.623902
1068 4 0.0908867 0.303917 0.618016
1066 2 0.111296 0.303305 0.603585
1259 4 0.172669 0.270386 0.652552
10 3 0.178552 0.28791 0.653778
9 3 0.209324 0.307819 0.662399
1135 2 0.260914 0.255686 0.641118
1137 4 0.280485 0.268902 0.649336
1007 4 0.308635 0.299328 0.584494
1006 2 0.29684 0.315367 0.59962
1008 4 0.285044 0.331405 0.614747
954 4 0.46553 0.329876 0.649685
1238 4 0.439351 0.266749 0.655121
1237 2 0.450142 0.28927 0.656352
1239 4 0.460934 0.311791 0.657583
1173 4 0.131657 0.394647 0.585907
1171 2 0.135936 0.402689 0.609192
1172 4 0.140216 0.410731 0.632477
1190 4 0.122577 0.413557 0.642261
930 4 0.314803 0.390231 0.613321
807 4 0.272786 0.344139 0.622263
805 2 0.284343 0.366271 0.620939
806 4 0.295901 0.388404 0.619616
928 2 0.335747 0.396744 0.601317
929 4 0.356691 0.403258 0.589313
1009 2 0.403737 0.380496 0.662751
1011 4 0.383996 0.395782 0.661405
1010 4 0.423478 0.36521 0.664096
952 2 0.446698 0.346078 0.646847
953 4 0.427866 0.362279 0.644009
1189 2 0.135634 0.422275 0.661721
2028 4 0.257433 0.470832 0.642643
2154 4 0.270571 0.417277 0.601926
2027 4 0.273867 0.432807 0.61463
2026 2 0.26565 0.451819 0.628637
2141 4 0.426073 0.468022 0.599157
2140 2 0.439564 0.485224 0.611294
2048 4 0.0177744 0.0697049 0.677551
2254 2 0.140539 0.00295174 0.678462
2256 4 0.148204 0.018028 0.696878
945 4 0.144695 0.0171367 0.715975
943 2 0.139875 0.032241 0.735309
2131 2 0.190427 0.0695333 0.676174
2133 4 0.196726 0.0819655 0.696934
1048 2 0.233064 0.0452469 0.734094
1050 4 0.221794 0.0238881 0.727616
1049 4 0.244334 0.0666057 0.740573
2201 4 0.229832 0.00491723 0.728878
2299 2 0.269624 0.0526552 0.683345
2301 4 0.266055 0.0598284 0.70703
33 3 0.265409 0.0795933 0.709503
34 3 0.255122 0.081337 0.746048
32 3 0.291424 0.0828569 0.736433
1143 4 0.405825 0.0520275 0.721907
3426 4 0.384398 0.0167599 0.69375
1003 2 0.424816 0.0220466 0.702092
1005 4 0.41911 0.045672 0.707962
1141 2 0.418105 0.0735005 0.725555
1077 4 0.0651411 0.119726 0.674818
1075 2 0.0661268 0.144709 0.67504
1277 4 0.147467 0.135312 0.674523
1276 2 0.155796 0.14767 0.6946
1278 4 0.164125 0.160029 0.714676
888 4 0.248675 0.151126 0.699758
840 4 0.257575 0.166606 0.688593
887 4 0.285954 0.118979 0.69095
35 3 0.269068 0.11174 0.728762
1263 4 0.298553 0.132427 0.684799
31 1 0.270174 0.0890356 0.730156
886 2 0.267315 0.135053 0.695354
1261 2 0.319817 0.120539 0.679167
1262 4 0.34108 0.10865 0.673535
44 3 0.38011 0.120626 0.69357
41 1 0.377982 0.113299 0.671657
42 3 0.3824 0.0907365 0.670899
1142 4 0.430384 0.0949735 0.729203
830 4 0.424886 0.157973 0.699682
50 3 0.423385 0.138006 0.700298
48 3 0.451401 0.112881 0.699093
46 1 0.439171 0.127197 0.712653
49 3 0.429018 0.115197 0.729721
47 3 0.453448 0.142673 0.721916
1076 4 0.0671125 0.169692 0.675263
3044 4 0.0727558 0.185131 0.687603
3043 2 0.078642 0.208513 0.694219
822 4 0.0675766 0.238379 0.709756
3045 4 0.0845282 0.231896 0.700835
976 2 0.182851 0.16713 0.743281
977 4 0.18315 0.166056 0.718302
1129 2 0.226104 0.24128 0.691353
1130 4 0.231023 0.217655 0.697895
839 4 0.247203 0.215423 0.685418
838 2 0.252389 0.191015 0.687005
831 4 0.409053 0.201977 0.681972
829 2 0.416969 0.179975 0.690827
801 4 0.425104 0.214554 0.686797
799 2 0.430972 0.231159 0.669049
820 2 0.0719421 0.255313 0.727627
821 4 0.0763075 0.272247 0.745497
1209 4 0.09403 0.277847 0.741467
814 2 0.175588 0.327493 0.70554
1395 4 0.207402 0.321074 0.678835
1131 4 0.221185 0.264906 0.68481
815 4 0.193434 0.315089 0.693176
7 3 0.206819 0.271517 0.671808
6 1 0.194889 0.291029 0.669334
8 3 0.18541 0.296664 0.68975
1167 4 0.279681 0.269369 0.670077
1165 2 0.299949 0.272625 0.684352
1166 4 0.320218 0.27588 0.698626
918 4 0.331673 0.273026 0.714441
916 2 0.321992 0.274464 0.73745
1205 4 0.487057 0.288493 0.743444
1204 2 0.490051 0.311247 0.73352
816 4 0.157743 0.339897 0.717903
1121 4 0.145963 0.347429 0.730979
1120 2 0.135751 0.370249 0.731339
948 4 0.130855 0.411605 0.733664
1122 4 0.12554 0.39307 0.731699
1393 2 0.226465 0.337198 0.680177
1394 4 0.245528 0.353322 0.68152
889 2 0.236417 0.387229 0.705092
891 4 0.24801 0.366511 0.697245
890 4 0.224825 0.407947 0.712938
1019 4 0.379651 0.401497 0.679237
1018 2 0.36861 0.414187 0.697737
1206 4 0.493045 0.334001 0.723597
3329 4 0.486663 0.347163 0.735976
3328 2 0.486932 0.369819 0.74655
896 4 0.0348045 0.439386 0.748977
1983 4 0.111834 0.468561 0.736002
1191 4 0.148692 0.430992 0.681181
1176 4 0.138098 0.447398 0.682108
1174 2 0.143703 0.469874 0.691521
1175 4 0.149308 0.49235 0.700933
946 2 0.148608 0.429208 0.734089
1905 4 0.175501 0.456508 0.749342
947 4 0.16636 0.44681 0.734515
2173 2 0.310503 0.451546 0.709964
2174 4 0.325868 0.443477 0.727964
2175 4 0.295137 0.459615 0.691965
2369 4 0.324453 0.451114 0.74594
1020 4 0.357569 0.426877 0.716236
1229 4 0.360962 0.423133 0.73627
1267 2 0.496711 0.490374 0.713635
1256 4 0.0718773 0.040627 0.793362
1202 4 0.0193925 0.0578203 0.824968
1201 2 0.0128432 0.0734481 0.806582
1255 2 0.0803126 0.0585675 0.808599
2276 4 0.00295842 0.0474371 0.828537
1257 4 0.0887478 0.0765079 0.823836
944 4 0.135055 0.0473453 0.754643
909 4 0.136893 0.0372106 0.770403
907 2 0.14777 0.0345085 0.792754
908 4 0.158646 0.0318064 0.815106
2051 4 0.286194 0.074643 0.818459
965 4 0.298335 0.0693888 0.803087
964 2 0.29281 0.0742351 0.779188
966 4 0.287285 0.0790815 0.755289
845 4 0.479368 0.0289572 0.817889
844 2 0.476013 0.00656281 0.828491
833 4 0.00739434 0.109347 0.787108
1203 4 0.00629395 0.0890759 0.788195
870 4 0.150822 0.139642 0.822237
1227 4 0.163065 0.154087 0.814749
1225 2 0.17934 0.164052 0.798594
1085 4 0.408201 0.141568 0.80255
1084 2 0.413099 0.16392 0.792471
1113 4 0.42571 0.134813 0.809386
1111 2 0.448161 0.124709 0.805025
1112 4 0.470612 0.114604 0.800664
810 4 0.488703 0.121413 0.796061
942 4 0.149101 0.236602 0.819377
978 4 0.182553 0.168204 0.76826
1226 4 0.195616 0.174016 0.782438
1086 4 0.417997 0.186272 0.782391
968 4 0.330976 0.252545 0.821097
1299 4 0.429287 0.203193 0.781805
1297 2 0.43517 0.223751 0.768847
1298 4 0.441053 0.24431 0.755889
2999 4 0.0144812 0.284679 0.820872
894 4 0.0294558 0.297539 0.826696
892 2 0.0443767 0.313483 0.814516
893 4 0.0592977 0.329426 0.802336
1207 2 0.096499 0.298961 0.75463
940 2 0.150062 0.260549 0.812249
1208 4 0.0989679 0.320075 0.767794
941 4 0.151022 0.284496 0.805121
1078 2 0.153662 0.325848 0.812617
1080 4 0.169359 0.310852 0.825023
967 2 0.328362 0.263199 0.798629
969 4 0.325748 0.273853 0.77616
1098 4 0.299235 0.316535 0.800338
1065 4 0.307262 0.315952 0.782059
1096 2 0.302099 0.311219 0.824601
917 4 0.312311 0.275902 0.760458
1063 2 0.324361 0.325341 0.766417
997 2 0.381024 0.324321 0.764226
998 4 0.400989 0.312935 0.774071
1307 4 0.410272 0.300013 0.761927
3482 4 0.489073 0.268264 0.82658
1308 4 0.425864 0.252607 0.765131