ITEM: TIMESTEP
5050000
ITEM: NUMBER OF ATOMS
1600
ITEM: BOX BOUNDS pp pp pp
-6.9325799999999997e+00 6.9325799999999997e+00
-6.9325799999999997e+00 6.9325799999999997e+00
-6.9325799999999997e+00 6.9325799999999997e+00
ITEM: ATOMS id type xs ys zs
1243 4 0.081321 0.0558067 0.0958151
1241 2 0.057134 0.0540942 0.0691225
1242 4 0.0329471 0.0523816 0.0424298
969 4 0.138836 0.972162 0.0962636
310 4 0.131502 0.049503 0.0701784
308 2 0.158791 0.0573602 0.0479521
309 4 0.18608 0.0652175 0.0257259
139 3 0.210908 0.0654216 0.042649
136 1 0.243241 0.0739533 0.0413358
968 2 0.144636 0.00443851 0.111264
140 3 0.248811 0.0998033 0.060819
137 3 0.261533 0.0482981 0.0517232
340 4 0.278306 0.0939919 0.0666488
1011 4 0.281064 0.0634385 0.0675923
338 2 0.284147 0.110042 0.098409
1010 2 0.309941 0.0421841 0.0637491
1012 4 0.338819 0.0209297 0.0599059
849 4 0.360473 0.0372177 0.048828
138 3 0.251842 0.0813257 0.00984576
848 2 0.394026 0.0278403 0.0581379
850 4 0.427579 0.0184629 0.0674478
961 4 0.453377 0.0159759 0.0770074
711 4 0.490753 0.100619 0.116662
959 2 0.487087 0.00335309 0.0748211
227 3 0.494138 0.0799078 0.137737
501 4 0.1019 0.158729 0.119798
502 4 0.149948 0.188404 0.0749362
500 2 0.125924 0.173567 0.0973672
43 3 0.168949 0.198454 0.0561314
41 1 0.18242 0.204981 0.0262004
42 3 0.210128 0.222703 0.0305442
1497 4 0.231064 0.209031 0.0454852
44 3 0.160987 0.222782 0.00766162
45 3 0.189836 0.176888 0.0108822
1496 2 0.258794 0.21874 0.0663946
1498 4 0.286524 0.22845 0.0873039
1039 4 0.308349 0.243828 0.0862842
1037 2 0.342717 0.248221 0.0962851
1038 4 0.377084 0.252615 0.106286
1132 4 0.461688 0.204401 0.101544
1130 2 0.484079 0.196762 0.12876
392 2 0.0282732 0.353574 0.0963583
414 4 0.120243 0.310662 0.118161
393 4 0.999842 0.355265 0.118477
394 4 0.0567047 0.351883 0.0742398
619 4 0.046222 0.329694 0.0112384
413 2 0.140176 0.30738 0.0882894
415 4 0.16011 0.304099 0.0584176
737 2 0.172899 0.345244 0.0216286
739 4 0.168232 0.331167 0.0544997
385 4 0.388841 0.266184 0.128429
383 2 0.414714 0.287929 0.115851
384 4 0.440588 0.309673 0.103274
1443 4 0.443931 0.333937 0.0882874
1442 2 0.474853 0.351944 0.0927641
291 4 0.278447 0.483249 0.0124953
122 3 0.466482 0.489561 0.0163914
970 4 0.150436 0.0367154 0.126263
469 4 0.325427 0.0661604 0.20643
467 2 0.321353 0.0347269 0.189232
19 3 0.311024 0.0918912 0.200847
16 1 0.318774 0.120185 0.184743
18 3 0.351079 0.119877 0.176009
20 3 0.299966 0.123374 0.158005
339 4 0.289989 0.126093 0.130169
276 4 0.354559 0.112815 0.14872
656 2 0.441668 0.0106847 0.185532
275 2 0.390455 0.11182 0.14542
277 4 0.426352 0.110825 0.14212
229 3 0.441066 0.0891345 0.13168
226 1 0.465219 0.0823155 0.153817
230 3 0.45885 0.0538643 0.168944
228 3 0.46738 0.106983 0.176329
999 4 0.448481 0.104218 0.197247
657 4 0.456232 0.028075 0.157498
396 4 0.109156 0.222057 0.220102
751 4 0.111146 0.228406 0.190535
749 2 0.1102 0.199637 0.168812
395 2 0.0883977 0.216099 0.248982
750 4 0.109253 0.170868 0.147089
17 3 0.31339 0.145886 0.20502
998 2 0.436523 0.123499 0.225277
675 4 0.103503 0.304035 0.201573
337 4 0.0796213 0.286012 0.209774
335 2 0.0643836 0.284917 0.177108
336 4 0.0491458 0.283823 0.144443
674 2 0.116962 0.322139 0.229707
676 4 0.13042 0.340243 0.257841
952 4 0.498863 0.357518 0.235772
650 2 0.00980234 0.482186 0.164864
651 4 0.0412546 0.480151 0.182387
996 4 0.490306 0.50974 0.223816
1003 4 0.0593116 0.111838 0.317694
1001 2 0.0776115 0.0809082 0.314706
1002 4 0.0959115 0.0499789 0.311718
747 4 0.097687 0.0290959 0.333537
746 2 0.0919529 0.0237819 0.368741
1032 4 0.123852 0.130425 0.361694
397 4 0.0676394 0.21014 0.277861
666 4 0.053164 0.162387 0.343741
665 2 0.0505798 0.190388 0.321165
667 4 0.0479956 0.218389 0.298589
274 4 0.372913 0.220838 0.260257
1000 4 0.424564 0.14278 0.253307
272 2 0.378082 0.243289 0.287999
1362 4 0.421201 0.156787 0.342537
1361 2 0.432046 0.153062 0.308347
1363 4 0.442891 0.149338 0.274157
367 4 0.399617 0.16431 0.359774
643 4 0.157667 0.349379 0.253192
641 2 0.181241 0.374761 0.263214
722 2 0.35969 0.272058 0.365381
723 4 0.363428 0.25612 0.33325
273 4 0.383251 0.26574 0.315742
129 3 0.487626 0.357754 0.364935
376 4 0.0337547 0.512982 0.297348
312 4 0.0228043 0.488603 0.286144
344 2 0.178058 0.456226 0.25904
346 4 0.197951 0.426671 0.264624
642 4 0.204815 0.400143 0.273236
345 4 0.158166 0.485782 0.253455
368 2 0.306192 0.480238 0.253632
703 4 0.350968 0.445395 0.274605
369 4 0.328192 0.453162 0.262762
701 2 0.362555 0.447226 0.308705
702 4 0.374143 0.449057 0.342805
1566 4 0.404093 0.451143 0.346704
880 4 0.0519273 0.0371594 0.479942
878 2 0.0744986 0.0366887 0.451822
879 4 0.0970698 0.0362179 0.423701
748 4 0.0862187 0.0184678 0.403945
330 4 0.0652937 0.105081 0.440869
1031 2 0.101562 0.122547 0.388926
1033 4 0.0792726 0.114669 0.416157
1441 4 0.443899 0.00649917 0.444746
348 4 0.466988 0.0224902 0.43877
347 2 0.47182 0.0511444 0.460124
349 4 0.476651 0.0797986 0.481479
27 3 0.494511 0.0888026 0.502174
329 2 0.068443 0.128166 0.468393
365 2 0.395781 0.175766 0.393752
762 4 0.47407 0.205923 0.429443
366 4 0.391946 0.187222 0.427729
242 3 0.404893 0.211787 0.432958
244 3 0.414915 0.204377 0.485713
241 1 0.424469 0.220819 0.458175
245 3 0.455617 0.213351 0.450903
403 4 0.092835 0.271655 0.485915
301 4 0.103119 0.29794 0.496502
401 2 0.0593204 0.269732 0.499088
581 2 0.211489 0.294375 0.458587
582 4 0.232977 0.319238 0.443737
583 4 0.19 0.269512 0.473438
300 4 0.169136 0.269033 0.4937
299 2 0.136128 0.283486 0.495101
724 4 0.355952 0.287997 0.397513
243 3 0.421448 0.253806 0.462939
259 4 0.411921 0.273303 0.445109
127 3 0.460285 0.337856 0.407303
258 4 0.432373 0.330627 0.406413
257 2 0.422147 0.301965 0.425761
126 1 0.471858 0.365655 0.393377
480 4 0.100762 0.455165 0.490445
1176 4 0.11218 0.443183 0.466536
1175 2 0.142119 0.46194 0.459307
1177 4 0.172058 0.480698 0.452077
934 4 0.199868 0.471106 0.453146
932 2 0.232366 0.475296 0.438087
264 4 0.340882 0.4902 0.453545
1209 4 0.345867 0.492772 0.481255
263 2 0.314649 0.480676 0.430708
265 4 0.288415 0.471152 0.407871
933 4 0.264864 0.479487 0.423029
128 3 0.493204 0.380304 0.414584
1565 2 0.411931 0.420776 0.364505
130 3 0.446739 0.385844 0.387029
1567 4 0.419769 0.390409 0.382305
1544 2 0.0755194 0.0122186 0.576357
1545 4 0.102042 0.00389653 0.553385
1546 4 0.0489965 0.0205408 0.599329
120 3 0.118487 0.0180345 0.533416
426 4 0.0260386 0.0122511 0.586657
119 3 0.165663 0.0394425 0.517138
116 1 0.14691 0.0117451 0.518205
53 3 0.198547 0.0444705 0.614827
295 4 0.481185 0.0983684 0.577336
26 1 0.496445 0.10741 0.529574
30 3 0.470943 0.100578 0.549113
293 2 0.461556 0.120385 0.598083
1211 2 0.46919 0.00451219 0.607743
537 4 0.0782124 0.158668 0.590282
536 2 0.0705937 0.152186 0.555635
538 4 0.062975 0.145705 0.520989
331 4 0.0715922 0.151252 0.495918
1370 2 0.085281 0.226915 0.626383
1371 4 0.0590301 0.20314 0.619597
1086 4 0.0186693 0.157406 0.59065
521 2 0.309582 0.215484 0.603147
471 4 0.280882 0.169023 0.62986
523 4 0.30364 0.184096 0.619878
497 2 0.417985 0.240893 0.540749
498 4 0.419659 0.261022 0.570624
294 4 0.441926 0.142401 0.618829
29 3 0.495776 0.139696 0.520795
499 4 0.416312 0.220765 0.510875
402 4 0.0258058 0.267809 0.51226
812 2 0.180615 0.295138 0.594182
813 4 0.1482 0.29635 0.578424
842 2 0.242713 0.342967 0.619597
522 4 0.315524 0.246872 0.586416
5 3 0.317933 0.267321 0.564395
4 3 0.358774 0.27346 0.529135
3 3 0.343083 0.315319 0.560855
1 1 0.346794 0.282103 0.559164
577 4 0.308628 0.377735 0.568957
2 3 0.368364 0.272521 0.58248
10 3 0.411391 0.26183 0.597117
1021 4 0.0227094 0.429943 0.615923
1020 4 0.067246 0.402338 0.566362
1019 2 0.0449777 0.416141 0.591143
481 4 0.0857043 0.410912 0.54537
479 2 0.093233 0.433038 0.517907
575 2 0.317542 0.372377 0.603486
843 4 0.271309 0.364683 0.616257
991 4 0.0816032 0.054721 0.705096
560 2 0.045436 0.049435 0.672421
561 4 0.0667508 0.0329465 0.696385
989 2 0.112361 0.0699695 0.716136
562 4 0.0241211 0.0659236 0.648458
54 3 0.223699 0.0920852 0.625063
51 1 0.217652 0.0612523 0.636583
55 3 0.245971 0.0452859 0.641269
52 3 0.201505 0.0635715 0.665472
929 2 0.195897 0.0902081 0.722461
931 4 0.225256 0.111104 0.723814
990 4 0.143119 0.085218 0.727176
930 4 0.166538 0.0693121 0.721109
441 4 0.269889 0.0608733 0.643349
440 2 0.295931 0.0731353 0.665073
442 4 0.321973 0.0853973 0.686796
493 4 0.310331 0.111412 0.682194
1591 4 0.422633 0.0762822 0.722192
903 4 0.419817 0.0629979 0.695944
1589 2 0.40746 0.106966 0.733536
902 2 0.44173 0.0467017 0.672392
904 4 0.463643 0.0304055 0.64884
1212 4 0.486833 0.0210873 0.634472
472 4 0.232757 0.116723 0.617593
439 4 0.235126 0.133981 0.70935
438 4 0.202957 0.198031 0.717384
437 2 0.219042 0.166006 0.713367
429 4 0.19283 0.216789 0.695884
428 2 0.16057 0.213025 0.680214
430 4 0.12831 0.209262 0.664544
470 2 0.256819 0.142873 0.623726
491 2 0.330799 0.132667 0.702925
492 4 0.351266 0.153922 0.723655
103 3 0.36529 0.175137 0.736169
535 4 0.425325 0.16259 0.633045
1170 4 0.385179 0.23299 0.748308
533 2 0.419664 0.198179 0.634396
534 4 0.414002 0.233768 0.635748
1590 4 0.392286 0.13765 0.74488
7 3 0.399281 0.25413 0.648997
1372 4 0.111532 0.250691 0.633168
814 4 0.213029 0.293926 0.609939
844 4 0.214118 0.321251 0.622938
8 3 0.372042 0.291197 0.620316
6 1 0.401866 0.276696 0.624814
9 3 0.424491 0.299654 0.633813
1169 2 0.362356 0.258472 0.759717
1520 2 0.176455 0.407886 0.737412
278 2 0.225014 0.487092 0.73048
1522 4 0.157125 0.378 0.743213
280 4 0.20836 0.458364 0.744542
576 4 0.326455 0.367019 0.638016
377 2 0.367804 0.408592 0.732364
378 4 0.384479 0.396113 0.702926
62 3 0.121082 0.00809589 0.868718
506 2 0.0252806 0.119428 0.823934
508 4 0.0573815 0.107077 0.83477
64 3 0.0735812 6.6362e-05 0.843864
837 4 0.094406 0.120723 0.84099
910 4 0.378347 0.0971591 0.847462
1089 4 0.373004 0.108483 0.873452
908 2 0.394245 0.0814271 0.819175
909 4 0.410143 0.0656951 0.790887
838 4 0.14799 0.163793 0.862795
836 2 0.121198 0.142258 0.851893
355 4 0.165481 0.164633 0.886999
105 3 0.409394 0.15629 0.761637
1586 2 0.502912 0.215615 0.86666
104 3 0.401682 0.209911 0.757871
101 1 0.386804 0.180132 0.761312
102 3 0.370089 0.179741 0.789968
37 3 0.00283937 0.265394 0.829552
1514 2 0.117611 0.369963 0.779727
895 4 0.0195022 0.263442 0.853545
893 2 0.0499417 0.282737 0.854801
894 4 0.0803812 0.302032 0.856057
1515 4 0.105755 0.37109 0.813766
1041 4 0.108467 0.302775 0.853868
1516 4 0.129466 0.368837 0.745688
1184 2 0.338728 0.322818 0.806617
1186 4 0.342803 0.313202 0.772101
1171 4 0.339532 0.283954 0.771127
1185 4 0.334653 0.332434 0.841133
253 4 0.339181 0.338922 0.867999
1230 4 0.0235476 0.407046 0.865953
1240 4 0.112951 0.382662 0.839403
1238 2 0.0777781 0.386277 0.846493
1239 4 0.0426056 0.389892 0.853582
906 4 0.162904 0.481259 0.868218
1521 4 0.195784 0.437771 0.73161
545 2 0.227868 0.386872 0.826066
547 4 0.218236 0.374974 0.793415
1126 4 0.244342 0.429102 0.859205
546 4 0.2375 0.39877 0.858717
905 2 0.192453 0.493088 0.851268
379 4 0.351128 0.421072 0.761803
1180 4 0.3254 0.40795 0.758553
436 4 0.293519 0.484863 0.789445
1179 4 0.286477 0.456851 0.794545
1178 2 0.305938 0.4324 0.776549
1254 4 0.0803061 0.0117036 0.944921
63 3 0.085526 0.0489025 0.865702
1253 2 0.0959192 0.0436682 0.950832
1255 4 0.111532 0.0756328 0.956742
61 1 0.0888107 0.015781 0.869183
270 4 0.130079 0.0302011 0.885036
269 2 0.15186 0.0582879 0.891129
50 3 0.243531 0.10858 0.900839
271 4 0.173642 0.0863748 0.897222
48 3 0.200747 0.0765741 0.891145
47 3 0.242727 0.0583637 0.920206
46 1 0.224292 0.0850824 0.913352
49 3 0.209978 0.0958874 0.941606
574 4 0.208016 0.123358 0.933524
1088 2 0.343928 0.0956083 0.890459
1090 4 0.314852 0.0827335 0.907467
324 4 0.311271 0.0810998 0.935962
325 4 0.268705 0.0666156 0.992355
323 2 0.289988 0.0738577 0.964159
84 3 0.360471 0.0447196 0.946982
81 1 0.367192 0.0131946 0.937985
856 4 0.479959 0.999136 0.925301
936 4 0.499668 0.0688155 0.980035
115 3 0.482612 0.0912143 0.979153
113 3 0.444726 0.103891 0.942372
111 1 0.456719 0.110438 0.972921
82 3 0.399677 0.00764347 0.941807
112 3 0.432977 0.10438 0.995289
1500 4 0.0129025 0.183418 0.882575
353 2 0.184802 0.194458 0.880864
354 4 0.204122 0.224283 0.874728
572 2 0.194769 0.140633 0.962274
573 4 0.181523 0.157907 0.991025
463 4 0.1622 0.249163 0.998953
1245 4 0.464824 0.208378 0.915856
1244 2 0.468698 0.189995 0.946638
114 3 0.465621 0.142627 0.975043
1588 4 0.479757 0.216516 0.894291
1246 4 0.472572 0.171613 0.97742
618 4 0.104262 0.295732 0.985168
617 2 0.0752422 0.312713 0.998203
462 4 0.128412 0.309254 0.97776
1040 2 0.132151 0.312327 0.879329
461 2 0.145306 0.279209 0.988357
1042 4 0.155835 0.32188 0.904789
66 1 0.184068 0.335421 0.943373
69 3 0.21396 0.326751 0.955671
68 3 0.171334 0.310192 0.925449
70 3 0.163661 0.343144 0.967924
67 3 0.187845 0.361791 0.923598
738 4 0.177566 0.35932 0.988757
424 4 0.209845 0.374336 0.9397
251 2 0.354579 0.33195 0.899854
252 4 0.369977 0.324978 0.931709
15 3 0.370618 0.365169 0.00301869
13 3 0.373996 0.332464 0.9598
14 3 0.414357 0.367837 0.970946
11 1 0.381302 0.362736 0.972054
1229 2 0.0066751 0.413865 0.897086
327 4 0.150465 0.496405 0.963873
515 2 0.139287 0.491117 0.913074
517 4 0.140972 0.470182 0.88376
423 4 0.216479 0.442096 0.963497
422 2 0.213162 0.408216 0.951598
77 3 0.236553 0.45596 0.948963
1125 4 0.288735 0.409345 0.912502
76 1 0.261188 0.473185 0.963003
1124 2 0.266539 0.419223 0.885854
12 3 0.36627 0.385744 0.953469
80 3 0.263454 0.464933 0.994715
261 4 0.284618 0.412115 0.941316
260 2 0.319328 0.411249 0.951057
262 4 0.354038 0.410384 0.960799
78 3 0.289807 0.465937 0.947244
320 2 0.469955 0.393675 0.960889
321 4 0.435221 0.386588 0.967502
124 3 0.495291 0.499831 0.971636
913 4 0.0116063 0.61317 0.0116249
630 4 0.197898 0.592147 0.0700745
627 4 0.187294 0.618768 0.0606296
629 2 0.183635 0.570915 0.0446544
631 4 0.169373 0.549682 0.0192344
328 4 0.142031 0.536729 0.023072
391 4 0.247461 0.542268 0.0768292
292 4 0.2438 0.534162 0.0500351
389 2 0.266723 0.548433 0.106686
290 2 0.261123 0.508706 0.0312652
828 4 0.164026 0.704341 0.0754812
628 4 0.17022 0.688337 0.0522426
626 2 0.178757 0.653553 0.0564361
827 2 0.173495 0.735475 0.0910186
754 4 0.26095 0.701445 0.0764064
752 2 0.293482 0.693612 0.0898508
753 4 0.326014 0.685778 0.103295
941 2 0.330837 0.676952 0.0151563
942 4 0.360374 0.661093 0.0284414
943 4 0.3013 0.69281 0.00187124
732 4 0.381296 0.66727 0.0113905
731 2 0.417064 0.666573 0.0159302
733 4 0.452832 0.665877 0.0204698
871 4 0.473369 0.685839 0.0200195
73 3 0.126695 0.846951 0.0138539
829 4 0.182964 0.76661 0.106556
405 4 0.180769 0.789266 0.124104
404 2 0.173704 0.818281 0.103888
406 4 0.166639 0.847295 0.0836713
75 3 0.162503 0.846416 0.0546747
71 1 0.155846 0.858971 0.0250623
1197 4 0.266998 0.818691 0.112086
1196 2 0.295751 0.840454 0.112459
1198 4 0.324503 0.862216 0.112833
725 2 0.45254 0.771542 0.0661365
1333 4 0.412683 0.785503 0.0403552
727 4 0.438579 0.775325 0.0331028
1331 2 0.405089 0.810436 0.0154337
726 4 0.4665 0.767759 0.0991703
735 4 0.00977885 0.906775 0.114333
72 3 0.15363 0.891989 0.0274386
798 4 0.144266 0.91996 0.028378
700 4 0.332846 0.887384 0.105869
698 2 0.3665 0.900292 0.107002
699 4 0.400153 0.9132 0.108136
1414 4 0.0677336 0.492659 0.187377
1412 2 0.0685822 0.526353 0.200199
1413 4 0.0694308 0.560048 0.213021
370 4 0.284192 0.507313 0.244502
390 4 0.285985 0.554597 0.136542
266 2 0.294251 0.539893 0.190851
267 4 0.297433 0.562405 0.162859
268 4 0.291069 0.517381 0.218843
1067 2 0.0170172 0.735315 0.14877
1069 4 0.0428853 0.745568 0.171708
303 4 0.0622747 0.7515 0.194173
1425 4 0.384473 0.698389 0.18085
1035 4 0.380955 0.677804 0.20087
1034 2 0.400885 0.654318 0.219623
1424 2 0.401646 0.72187 0.159538
1036 4 0.420814 0.630832 0.238376
1426 4 0.418818 0.74535 0.138225
302 2 0.0930615 0.763447 0.20866
1477 4 0.0104932 0.805261 0.171124
585 4 0.0104023 0.833833 0.165074
304 4 0.123848 0.775395 0.223147
584 2 0.0159528 0.867042 0.152157
195 3 0.119794 0.795575 0.245561
91 1 0.187958 0.841858 0.217919
92 3 0.196307 0.814097 0.201785
1311 4 0.207915 0.790671 0.189483
1310 2 0.229242 0.799164 0.161672
93 3 0.192891 0.837224 0.250693
95 3 0.156327 0.848604 0.212189
1312 4 0.250568 0.807658 0.13386
687 4 0.425762 0.772452 0.142344
686 2 0.461627 0.774603 0.145423
586 4 0.0215033 0.90025 0.139239
1129 4 0.0339898 0.960578 0.23289
1127 2 0.0656494 0.954484 0.249045
94 3 0.207162 0.866958 0.206912
495 4 0.220005 0.982443 0.186959
87 3 0.169999 0.928729 0.20096
90 3 0.200151 0.91512 0.158497
89 3 0.216901 0.902654 0.208626
86 1 0.201023 0.925253 0.189729
88 3 0.216622 0.954794 0.191718
484 4 0.245145 0.902794 0.210711
494 2 0.255043 0.987626 0.180183
468 4 0.317279 0.00329339 0.172034
496 4 0.290081 0.992809 0.173406
482 2 0.269373 0.883815 0.191917
483 4 0.293602 0.864836 0.173123
549 4 0.436452 0.96658 0.219889
658 4 0.427105 0.993294 0.213566
374 2 0.056048 0.52002 0.324805
375 4 0.0783412 0.527059 0.352262
382 4 0.0858359 0.531699 0.378561
811 4 0.16353 0.511707 0.261682
809 2 0.161782 0.544622 0.27631
810 4 0.160033 0.577538 0.290938
900 4 0.159808 0.605434 0.295876
899 2 0.18116 0.633058 0.304899
1351 4 0.417702 0.617574 0.262561
901 4 0.202512 0.660682 0.313923
1183 4 0.185845 0.673849 0.332301
1181 2 0.21193 0.68461 0.354756
1350 4 0.476035 0.62017 0.304896
1349 2 0.446869 0.618872 0.283729
314 2 0.485173 0.730182 0.303625
316 4 0.47262 0.748073 0.33231
1030 4 0.0338741 0.856534 0.283225
1028 2 0.00182899 0.850376 0.298575
192 3 0.113821 0.801305 0.298748
1227 4 0.113029 0.810998 0.326964
1226 2 0.127956 0.808444 0.359691
193 3 0.134364 0.842077 0.269522
194 3 0.163543 0.796405 0.277719
191 1 0.132872 0.80879 0.272638
765 4 0.462195 0.775081 0.328602
742 4 0.396306 0.85036 0.324798
766 4 0.414739 0.829375 0.329973
764 2 0.438467 0.802228 0.329288
184 3 0.005867 0.937452 0.366537
1128 4 0.0973089 0.94839 0.2652
580 4 0.106421 0.943763 0.29118
578 2 0.108066 0.957635 0.324427
579 4 0.109711 0.971506 0.357673
740 2 0.404051 0.883343 0.312446
548 2 0.431089 0.949217 0.251037
741 4 0.411795 0.916326 0.300095
550 4 0.425726 0.931853 0.282185
380 2 0.0673692 0.54298 0.407408
381 4 0.0489025 0.55426 0.436256
232 3 0.0210961 0.563953 0.441335
1315 4 0.321495 0.568533 0.47263
1313 2 0.296982 0.592659 0.461791
1314 4 0.272469 0.616785 0.450952
1208 2 0.326544 0.507168 0.508085
1387 4 0.175415 0.720682 0.403214
1182 4 0.238015 0.695371 0.377211
1323 4 0.287563 0.628207 0.43115
1324 4 0.259039 0.677378 0.386762
1322 2 0.273301 0.652793 0.408956
915 4 0.427811 0.647792 0.469421
23 3 0.468273 0.713554 0.458848
22 3 0.4739 0.684763 0.413264
21 1 0.474739 0.683173 0.446392
914 2 0.412692 0.667416 0.495627
24 3 0.451543 0.661397 0.456769
604 4 0.483038 0.709215 0.482161
845 2 0.23154 0.864972 0.449591
1385 2 0.168057 0.755878 0.405968
1228 4 0.142884 0.80589 0.392419
33 3 0.141373 0.83875 0.458546
34 3 0.134738 0.82932 0.404959
1386 4 0.160699 0.791073 0.408721
35 3 0.168558 0.798522 0.434225
31 1 0.15649 0.828828 0.430386
846 4 0.200902 0.846343 0.445764
32 3 0.181361 0.84972 0.42363
450 4 0.230379 0.767108 0.474064
528 4 0.142451 0.825801 0.483971
449 2 0.23909 0.771706 0.439374
778 4 0.256777 0.782916 0.374827
446 2 0.355295 0.842525 0.390107
447 4 0.340179 0.810456 0.383514
776 2 0.285728 0.80243 0.383853
451 4 0.247801 0.776304 0.404684
777 4 0.31468 0.821943 0.392879
418 4 0.397768 0.877452 0.40079
448 4 0.370412 0.874595 0.3967
877 4 0.0965523 0.952396 0.376572
183 3 0.0216261 0.890501 0.390028
876 4 0.105058 0.936052 0.446302
697 4 0.124838 0.92204 0.462888
875 2 0.100805 0.944224 0.411437
695 2 0.120869 0.928488 0.498146
117 3 0.140724 0.00177886 0.487171
847 4 0.262179 0.883602 0.453419
417 4 0.421615 0.945446 0.403941
416 2 0.409691 0.911449 0.402365
1439 2 0.438359 0.986002 0.415598
1440 4 0.432819 0.965504 0.38645
388 4 0.21699 0.565461 0.595496
704 2 0.291371 0.557421 0.5606
542 2 0.3495 0.582634 0.610023
544 4 0.31485 0.586059 0.600641
1210 4 0.307221 0.521563 0.534915
705 4 0.291364 0.543027 0.527536
706 4 0.291378 0.571815 0.593665
543 4 0.384151 0.57921 0.619405
296 2 0.421685 0.544196 0.597542
297 4 0.451518 0.536524 0.578791
399 4 0.478509 0.533531 0.568098
773 2 0.0170276 0.705808 0.593948
774 4 0.0334381 0.737805 0.591237
775 4 0.000617102 0.673812 0.59666
1156 4 0.274458 0.666807 0.577366
1154 2 0.304339 0.677035 0.594771
1155 4 0.33422 0.687263 0.612177
595 4 0.35558 0.706475 0.617596
593 2 0.371831 0.738459 0.621253
526 4 0.391737 0.714627 0.527293
602 2 0.494205 0.722621 0.513721
916 4 0.397573 0.68704 0.521833
524 2 0.39741 0.747627 0.540682
889 4 0.491889 0.746177 0.568143
603 4 0.505373 0.736026 0.54528
570 4 0.0419192 0.766211 0.588889
569 2 0.0584579 0.790241 0.567689
571 4 0.0749966 0.814271 0.546488
529 4 0.0843335 0.80336 0.520309
527 2 0.113392 0.814581 0.50214
1512 4 0.214305 0.760782 0.49742
1511 2 0.188644 0.786116 0.496971
1513 4 0.162984 0.811449 0.496522
525 4 0.403083 0.780627 0.554072
99 3 0.401461 0.806294 0.568483
96 1 0.410297 0.805952 0.600759
97 3 0.386641 0.820981 0.618514
100 3 0.438677 0.82199 0.60478
98 3 0.413412 0.774383 0.611418
861 4 0.425043 0.847387 0.60793
923 2 0.104615 0.934871 0.574343
924 4 0.106567 0.957352 0.602472
696 4 0.1169 0.934937 0.533404
420 4 0.0906259 0.971949 0.619895
925 4 0.102662 0.91239 0.546214
118 3 0.163341 0.987437 0.534302
1093 4 0.469008 0.924156 0.515826
1091 2 0.461092 0.941406 0.546489
1213 4 0.451547 0.987937 0.581014
1092 4 0.453175 0.958656 0.577152
860 2 0.440021 0.878389 0.618653
1453 4 0.385713 0.97941 0.630936
1451 2 0.408666 0.952302 0.62471
1548 4 0.485885 0.912872 0.496171
223 3 0.0442129 0.591754 0.6838
857 2 0.0944267 0.53168 0.718219
221 1 0.0257565 0.563846 0.683137
224 3 0.03291 0.544786 0.709698
859 4 0.0603097 0.538978 0.709097
225 3 0.0316481 0.547168 0.655461
858 4 0.128544 0.524383 0.727342
386 2 0.215427 0.55275 0.629207
387 4 0.213863 0.54004 0.662918
755 2 0.171493 0.539177 0.700182
756 4 0.186169 0.547184 0.668229
757 4 0.156817 0.531169 0.732134
279 4 0.241668 0.515821 0.716418
993 4 0.343415 0.550676 0.741516
298 4 0.391852 0.551867 0.616292
1137 4 0.0752204 0.667143 0.72683
249 3 0.06514 0.688989 0.70634
247 3 0.0198678 0.700106 0.678675
246 1 0.0446809 0.713452 0.696193
248 3 0.0318724 0.729364 0.722702
1136 2 0.106959 0.650418 0.730483
250 3 0.0611099 0.734666 0.677249
789 4 0.241801 0.740913 0.750147
685 4 0.208286 0.755454 0.614109
1138 4 0.138698 0.633693 0.734136
788 2 0.264997 0.724334 0.728067
790 4 0.288193 0.707756 0.705987
800 2 0.337084 0.740447 0.702486
802 4 0.305419 0.728713 0.715138
759 4 0.496148 0.636123 0.741669
1398 4 0.0726915 0.750876 0.699468
1397 2 0.0925391 0.780968 0.698474
1399 4 0.112387 0.81106 0.697481
683 2 0.190715 0.781762 0.631419
684 4 0.173145 0.80807 0.648728
110 3 0.173263 0.835542 0.659848
106 1 0.15867 0.837264 0.689224
109 3 0.138261 0.863763 0.690299
108 3 0.141321 0.809239 0.695015
107 3 0.181825 0.840598 0.712749
867 4 0.209531 0.845147 0.721746
1321 4 0.225322 0.823564 0.705203
801 4 0.368749 0.752181 0.689834
1319 2 0.259993 0.822437 0.69535
649 4 0.319616 0.823179 0.66872
1320 4 0.294664 0.821311 0.685497
647 2 0.345914 0.809508 0.648179
648 4 0.372212 0.795837 0.627637
594 4 0.388081 0.770443 0.62491
772 4 0.421912 0.753363 0.721027
771 4 0.460987 0.813959 0.719275
890 2 0.493751 0.863203 0.720965
770 2 0.44145 0.783661 0.720151
891 4 0.471836 0.837126 0.709126
419 2 0.0924032 0.954443 0.651373
421 4 0.0941804 0.936938 0.682851
690 4 0.0846462 0.918213 0.702526
689 2 0.112923 0.897098 0.709948
691 4 0.141199 0.875984 0.71737
1296 4 0.220267 0.984688 0.723884
1295 2 0.184445 0.980599 0.724588
1297 4 0.148622 0.97651 0.725292
1381 4 0.381853 0.958746 0.724574
862 4 0.455 0.90939 0.629376
1452 4 0.43162 0.925195 0.618483
1380 4 0.451608 0.959632 0.706265
1379 2 0.41673 0.959189 0.715419
237 3 0.478977 0.955605 0.700982
236 1 0.500175 0.944203 0.723815
907 4 0.222003 0.504918 0.834317
435 4 0.249303 0.518986 0.835078
1272 4 0.371454 0.550203 0.74697
434 2 0.271411 0.501924 0.812262
992 2 0.308032 0.556835 0.744756
1277 2 0.339005 0.560501 0.869072
994 4 0.272648 0.562994 0.747997
1279 4 0.375016 0.560789 0.867174
760 4 0.440637 0.60777 0.777951
1273 4 0.419364 0.603445 0.755437
1570 4 0.395114 0.573724 0.853384
1568 2 0.418711 0.562475 0.828543
1569 4 0.442307 0.551226 0.803701
540 4 0.465621 0.534117 0.799288
1271 2 0.395409 0.576824 0.751204
758 2 0.468392 0.621946 0.75981
1593 4 0.0778351 0.846136 0.858865
1592 2 0.0435726 0.857287 0.860339
1594 4 0.00931 0.868438 0.861812
868 4 0.218051 0.859051 0.792001
866 2 0.213791 0.852099 0.756874
622 4 0.249818 0.870084 0.797003
852 4 0.328445 0.881008 0.843154
787 4 0.364808 0.838903 0.850894
255 4 0.479409 0.884631 0.813034
1408 4 0.48773 0.85888 0.822345
786 4 0.403436 0.858501 0.793226
785 2 0.384122 0.848702 0.82206
965 2 0.0084388 0.989643 0.844595
967 4 0.0441189 0.992847 0.840458
620 2 0.280865 0.882042 0.810915
805 4 0.374463 0.956171 0.752289
621 4 0.311912 0.894 0.824826
803 2 0.373923 0.974527 0.783325
822 4 0.386229 0.972821 0.830787
804 4 0.373383 0.992883 0.81436
821 2 0.385834 0.985146 0.864675
239 3 0.491924 0.957035 0.753602
256 4 0.472516 0.943964 0.772613
254 2 0.475963 0.914298 0.792823
1200 4 0.000240658 0.516678 0.93469
516 4 0.137602 0.512051 0.942389
326 2 0.146248 0.516567 0.993472
79 3 0.254535 0.505859 0.960155
1278 4 0.302995 0.560213 0.870969
207 3 0.251825 0.565869 0.888268
209 3 0.274316 0.587133 0.932771
206 1 0.273221 0.560172 0.912976
210 3 0.263186 0.534046 0.930168
208 3 0.303487 0.554328 0.899947
125 3 0.455488 0.533371 0.987115
121 1 0.479539 0.513674 0.997716
433 4 0.0705777 0.687153 0.906043
431 2 0.0772342 0.665069 0.933764
432 4 0.0838908 0.642986 0.961485
912 4 0.0690754 0.649628 0.987753
911 2 0.0403409 0.631399 0.999689
638 2 0.266262 0.724634 0.991424
640 4 0.274046 0.689423 0.991297
729 4 0.492112 0.736063 0.911882
664 4 0.0299976 0.77895 0.881895
662 2 0.0438801 0.786461 0.914319
663 4 0.0577627 0.793972 0.946742
1503 4 0.0831843 0.807531 0.95209
1502 2 0.110306 0.823303 0.96987
1504 4 0.137427 0.839074 0.98765
714 4 0.162253 0.854852 0.978503
713 2 0.174524 0.874062 0.950559
74 3 0.180371 0.851289 0.00362691
694 4 0.349313 0.864854 0.931593
692 2 0.35923 0.850823 0.963299
639 4 0.258479 0.759846 0.991551
693 4 0.369146 0.836791 0.995004
1332 4 0.397494 0.83537 0.990512
730 4 0.479716 0.787139 0.961272
728 2 0.485914 0.761601 0.936577
65 3 0.0758129 0.00617398 0.897777
606 4 0.0285321 0.955545 0.0040677
1472 2 0.0620376 0.962442 0.956132
1474 4 0.0817591 0.978085 0.930309
1473 4 0.0423161 0.9468 0.981955
799 4 0.101799 0.935453 0.972179
797 2 0.123033 0.927707 0.0002785
833 2 0.231382 0.923957 0.929023
835 4 0.215331 0.894334 0.916169
715 4 0.186795 0.893272 0.922616
85 3 0.359053 0.00854706 0.906504
83 3 0.350215 0.991898 0.957431
796 4 0.272849 0.966212 0.94886
834 4 0.247433 0.953581 0.941878
794 2 0.304217 0.975059 0.964293
851 2 0.329756 0.881336 0.87919
853 4 0.331067 0.881665 0.915226
795 4 0.335586 0.983906 0.979726
823 4 0.38544 0.99747 0.898563
855 4 0.408789 0.00311445 0.914312
854 2 0.444374 0.00112533 0.919807
710 2 0.512081 0.118289 0.0935684
937 4 0.563138 0.0704819 0.0142483
133 3 0.624434 0.0781152 0.0284027
134 3 0.67519 0.0604069 0.0176912
831 4 0.691058 0.0392528 0.0327779
830 2 0.687502 0.00628165 0.0186112
135 3 0.659199 0.10953 0.000954514
131 1 0.649526 0.0785928 0.00626482
1598 2 0.962635 0.0605268 0.00392322
1600 4 0.92699 0.0566544 7.06807e-05
1599 4 0.998281 0.0643991 0.00777577
712 4 0.53341 0.135958 0.0704744
167 3 0.550061 0.158631 0.059016
170 3 0.562385 0.153363 0.00688415
169 3 0.58937 0.189158 0.0375353
166 1 0.559741 0.174744 0.0316778
168 3 0.536949 0.198092 0.0242395
1122 4 0.591286 0.217323 0.0304402
1121 2 0.60813 0.249151 0.02853
1073 2 0.584971 0.326122 0.0189484
1074 4 0.563267 0.350998 0.00443996
1075 4 0.606676 0.301245 0.0334569
1104 4 0.628563 0.355334 0.106319
1084 4 0.59959 0.353921 0.105822
1082 2 0.565735 0.360782 0.0954662
1123 4 0.624974 0.28098 0.0266198
1327 4 0.631739 0.344285 0.131799
1053 4 0.750813 0.384233 0.0330209
592 4 0.86758 0.293602 0.0183621
1048 4 0.757636 0.269317 0.0940147
1046 2 0.763677 0.30325 0.0834073
179 3 0.797142 0.332571 0.0662094
176 1 0.802497 0.360578 0.0486922
1047 4 0.769719 0.337183 0.0727999
180 3 0.810154 0.353085 0.0176425
1044 4 0.854175 0.373352 0.0656801
1096 4 0.823074 0.329477 0.00812795
178 3 0.827295 0.378205 0.0626315
1043 2 0.88586 0.367981 0.0493199
672 4 0.98204 0.36795 0.0991026
1045 4 0.917545 0.36261 0.0329597
1083 4 0.531881 0.367643 0.0851107
1444 4 0.505774 0.369951 0.0972409
1103 2 0.643683 0.379123 0.0838269
1105 4 0.658802 0.402912 0.0613343
152 3 0.63902 0.422021 0.0540061
151 1 0.658486 0.446284 0.0424701
153 3 0.65334 0.473873 0.0606989
721 4 0.666136 0.46769 0.0876299
155 3 0.651045 0.452089 0.0110093
154 3 0.690438 0.436674 0.0450608
1052 2 0.719651 0.396924 0.0459951
1054 4 0.688489 0.409614 0.0589693
719 2 0.66801 0.461602 0.123124
177 3 0.77483 0.378884 0.049012
1008 4 0.922496 0.422735 0.0715127
671 2 0.961227 0.397266 0.0963062
673 4 0.940413 0.426582 0.0935099
1007 2 0.903793 0.452793 0.0783802
1009 4 0.885091 0.482852 0.0852477
644 2 0.797322 0.015302 0.159627
333 4 0.83654 0.0565366 0.183017
645 4 0.823721 0.038556 0.167551
332 2 0.861765 0.0383891 0.201316
334 4 0.88699 0.0202415 0.219614
489 4 0.908694 0.00275133 0.225302
1131 4 0.50647 0.189123 0.155977
1065 4 0.529952 0.174096 0.150042
1064 2 0.565873 0.171863 0.14777
1066 4 0.601794 0.169629 0.145498
745 4 0.625382 0.186461 0.150339
743 2 0.627977 0.221742 0.157334
1070 2 0.684826 0.228559 0.219656
1072 4 0.683195 0.227935 0.183636
744 4 0.630571 0.257024 0.164329
318 4 0.699207 0.248816 0.174762
1325 2 0.635486 0.308897 0.137638
1326 4 0.639233 0.273509 0.143478
317 2 0.721643 0.2548 0.147171
319 4 0.744078 0.260784 0.119579
518 2 0.862426 0.313055 0.206151
519 4 0.826492 0.310971 0.208346
1267 4 0.799961 0.317867 0.196172
1265 2 0.789193 0.339578 0.169467
1266 4 0.778424 0.361289 0.142763
520 4 0.898361 0.315139 0.203957
946 4 0.988818 0.325003 0.202138
944 2 0.954674 0.314442 0.197338