ITEM: TIMESTEP
510000
ITEM: NUMBER OF ATOMS
4590
ITEM: BOX BOUNDS pp pp pp
-9.9985700000000008e+00 9.9985700000000008e+00
-9.9985700000000008e+00 9.9985700000000008e+00
-9.9985700000000008e+00 9.9985700000000008e+00
ITEM: ATOMS id type xs ys zs
532 2 0.137162 0.0318845 0.0404844
534 4 0.112494 0.0358313 0.0415204
465 4 0.0731569 0.0362876 0.990534
533 4 0.161831 0.0279377 0.0394485
2161 2 0.243376 0.00979773 0.00489092
580 2 0.291556 0.0587518 0.0521994
582 4 0.297033 0.0422536 0.0342275
486 4 0.315991 0.047818 0.033299
581 4 0.286079 0.07525 0.0701713
484 2 0.340127 0.0491342 0.0269035
485 4 0.364263 0.0504503 0.0205079
701 4 0.119643 0.109938 0.0361077
700 2 0.103447 0.110255 0.0551545
702 4 0.0872518 0.110571 0.0742012
995 4 0.139437 0.108674 0.0310089
994 2 0.147517 0.131077 0.023393
996 4 0.155596 0.15348 0.0157771
423 4 0.194115 0.0944347 0.0590332
421 2 0.189409 0.117862 0.0663937
422 4 0.184702 0.14129 0.0737541
359 4 0.286211 0.0923864 0.0601106
358 2 0.278587 0.116018 0.0571782
867 4 0.271779 0.15553 0.0406409
360 4 0.270962 0.139649 0.0542459
556 2 0.387739 0.104322 0.0760126
558 4 0.40031 0.12567 0.0726326
557 4 0.375169 0.0829739 0.0793926
353 4 0.13975 0.241358 0.0814518
294 4 0.0938546 0.255943 0.0426894
1252 2 0.211137 0.190363 0.00918281
1253 4 0.23352 0.201405 0.0106874
54 3 0.234126 0.22017 0.00328543
1254 4 0.188754 0.179321 0.00767825
865 2 0.261171 0.174496 0.0282742
53 3 0.265453 0.239236 0.0132587
866 4 0.250562 0.193462 0.0159074
51 1 0.257221 0.221153 0.00127494
55 3 0.26652 0.201844 0.00897893
565 2 0.400626 0.197016 0.0320967
665 4 0.393636 0.227705 0.0462641
567 4 0.38469 0.216263 0.0329854
664 2 0.387499 0.247604 0.0601046
771 4 0.4274 0.179407 0.0143362
566 4 0.416561 0.177769 0.0312079
655 2 0.0673526 0.260367 0.071471
657 4 0.0756611 0.263156 0.0480538
292 2 0.113597 0.268843 0.034382
293 4 0.13334 0.281742 0.0260746
288 4 0.151646 0.275978 0.0173197
352 2 0.152791 0.262065 0.0763204
354 4 0.165832 0.282772 0.0711889
507 4 0.179334 0.292234 0.0826534
505 2 0.187066 0.314078 0.0732615
506 4 0.194797 0.335923 0.0638697
356 4 0.287618 0.277563 0.0340307
355 2 0.305376 0.272057 0.0507501
624 4 0.331022 0.284888 0.0719027
357 4 0.323133 0.26655 0.0674695
1275 4 0.263185 0.300176 0.992579
902 4 0.26926 0.318261 0.997648
666 4 0.381362 0.267502 0.073945
1069 2 0.381707 0.306031 0.0169535
1070 4 0.375678 0.326599 0.0298293
622 2 0.354938 0.28507 0.0791971
623 4 0.378853 0.285253 0.0864915
551 4 0.0910234 0.358879 0.0437153
330 4 0.0956627 0.371097 0.0278232
328 2 0.082751 0.385845 0.0123001
550 2 0.10126 0.365816 0.0654468
552 4 0.111497 0.372753 0.0871783
756 4 0.205942 0.338913 0.0481734
754 2 0.22968 0.346672 0.0469673
252 4 0.178364 0.397913 0.0799742
250 2 0.200498 0.401956 0.0690688
755 4 0.253419 0.354432 0.0457612
251 4 0.222632 0.405999 0.0581634
956 4 0.317579 0.36597 0.0264175
957 4 0.359028 0.338642 0.0324097
955 2 0.338304 0.352306 0.0294136
495 4 0.389985 0.358089 0.0502774
493 2 0.395607 0.356565 0.0745929
525 4 0.404649 0.398678 0.0694971
672 4 0.40012 0.356076 0.0332462
739 2 0.340867 0.410543 0.0702531
670 2 0.420554 0.36657 0.0233716
671 4 0.440987 0.377065 0.013497
2652 4 0.473099 0.33185 0.0701775
2650 2 0.49776 0.330118 0.0739189
324 4 0.459636 0.385247 0.0145207
523 2 0.423689 0.413701 0.0755754
1224 4 0.197921 0.423259 0.00614697
1290 4 0.214888 0.43094 0.0107123
1288 2 0.239165 0.435779 0.0142298
1779 4 0.233417 0.457395 0.0734434
783 4 0.267603 0.441655 0.997398
1289 4 0.263442 0.440619 0.0177473
482 4 0.27667 0.438422 0.0333309
481 2 0.299396 0.435637 0.0433769
741 4 0.326127 0.413715 0.050307
483 4 0.322123 0.432852 0.0534229
2387 4 0.435147 0.445408 0.0114035
1673 4 0.481045 0.480196 0.071444
1672 2 0.464984 0.462945 0.0797875
524 4 0.442729 0.428725 0.0816537
1674 4 0.448923 0.445693 0.088131
448 2 0.0759336 0.0560005 0.115915
449 4 0.0804976 0.0317045 0.112166
2481 4 0.0272625 0.998229 0.127028
1504 2 0.331213 0.00699197 0.100147
652 2 0.381541 0.0194308 0.12832
654 4 0.393316 0.0340933 0.144798
296 4 0.38047 0.0448921 0.157092
295 2 0.397552 0.0623842 0.162327
1505 4 0.3394 0.0306156 0.0998743
653 4 0.369765 0.00476825 0.111843
758 4 0.476509 0.0722877 0.140684
757 2 0.456132 0.0772836 0.154284
1761 4 0.491757 0.0672654 0.152279
2760 4 0.0792565 0.155973 0.105426
450 4 0.0713696 0.0802964 0.119664
675 4 0.0848735 0.099488 0.155184
18 3 0.0778018 0.0995332 0.118765
17 3 0.0987079 0.114895 0.0915688
20 3 0.0775479 0.136767 0.113174
16 1 0.0904891 0.11803 0.112824
19 3 0.108316 0.120446 0.127479
578 4 0.0927317 0.118497 0.154754
475 2 0.189893 0.165695 0.109396
476 4 0.186806 0.14656 0.0936008
236 4 0.250713 0.117049 0.115958
235 2 0.25243 0.139462 0.126908
237 4 0.254147 0.161875 0.137858
462 4 0.313688 0.0988708 0.11795
629 4 0.328706 0.0945607 0.130156
461 4 0.263797 0.101901 0.116399
460 2 0.288743 0.100386 0.117175
630 4 0.361615 0.0880827 0.0930644
628 2 0.34516 0.0913217 0.11161
2758 2 0.0887123 0.176323 0.116457
381 4 0.118676 0.200408 0.129805
2759 4 0.0981681 0.196672 0.127487
379 2 0.133875 0.199772 0.149649
477 4 0.192981 0.184831 0.125191
573 4 0.254751 0.176855 0.125502
737 4 0.224288 0.235462 0.155039
571 2 0.265577 0.196022 0.113645
572 4 0.276403 0.21519 0.101788
517 2 0.490923 0.24205 0.103856
519 4 0.476133 0.249504 0.122587
656 4 0.0590442 0.257577 0.0948882
396 4 0.0666904 0.274736 0.102719
394 2 0.0613621 0.287492 0.123554
395 4 0.0560338 0.300248 0.144388
363 4 0.0469007 0.31614 0.154721
15 3 0.377379 0.30291 0.0994432
14 3 0.388451 0.307769 0.135101
11 1 0.380612 0.318265 0.115949
12 3 0.360603 0.328542 0.120761
13 3 0.395807 0.33434 0.108942
528 4 0.466787 0.266169 0.117395
526 2 0.467998 0.286532 0.131854
527 4 0.469208 0.306895 0.146313
2787 4 0.0465802 0.400575 0.141503
620 4 0.00935355 0.379284 0.146014
612 4 0.227096 0.337222 0.133095
627 4 0.216946 0.34119 0.149942
610 2 0.245983 0.343323 0.117888
625 2 0.195068 0.347803 0.160082
611 4 0.26487 0.349424 0.102682
387 4 0.352155 0.344679 0.112893
385 2 0.348519 0.368503 0.106233
386 4 0.344882 0.392328 0.0995736
494 4 0.40123 0.35504 0.0989083
659 4 0.402639 0.350349 0.117748
658 2 0.407479 0.3708 0.131295
740 4 0.355607 0.407372 0.0901993
660 4 0.41232 0.391251 0.144841
446 4 0.411112 0.410215 0.150503
596 4 0.469742 0.34976 0.0786255
595 2 0.459648 0.370662 0.0879206
597 4 0.449553 0.391564 0.0972156
2785 2 0.0570448 0.422265 0.13478
2796 4 0.00589166 0.472852 0.134347
313 2 0.0697877 0.482423 0.109619
2794 2 0.00841453 0.452537 0.119991
2786 4 0.0675094 0.443956 0.128058
314 4 0.0773873 0.463989 0.124706
4005 4 0.0172969 0.485955 0.143137
4003 2 0.0155783 0.497085 0.16546
2795 4 0.0109374 0.432222 0.105634
1778 4 0.193443 0.47476 0.0979645
1777 2 0.21343 0.466078 0.085704
536 4 0.177853 0.442978 0.108561
537 4 0.180244 0.417541 0.151549
535 2 0.179048 0.43026 0.130055
242 4 0.251631 0.453842 0.0808036
609 4 0.270999 0.477382 0.0951312
241 2 0.262791 0.446947 0.10209
243 4 0.27395 0.440051 0.123376
607 2 0.278643 0.50047 0.100935
1421 4 0.0374357 0.000731637 0.212076
1416 4 0.0311306 0.0156418 0.202247
674 4 0.0797706 0.0720554 0.196682
1414 2 0.00646745 0.01177 0.203632
1463 4 0.0911298 0.0579262 0.206103
1464 4 0.11848 0.0507107 0.247342
1462 2 0.104805 0.0543184 0.226722
1805 4 0.142167 0.0257288 0.189395
1804 2 0.13651 0.00420476 0.177997
689 4 0.160001 0.0211463 0.198348
688 2 0.179394 0.0369152 0.197714
690 4 0.198788 0.0526841 0.19708
297 4 0.414634 0.0798763 0.167563
759 4 0.435754 0.0822795 0.167885
2724 4 0.473733 0.00990668 0.197208
742 2 0.413334 0.0645765 0.245
744 4 0.412357 0.0802644 0.225555
673 2 0.0823221 0.0857717 0.175933
577 2 0.0914705 0.141775 0.163794
579 4 0.0902094 0.165053 0.172835
249 4 0.237277 0.106102 0.232993
247 2 0.245624 0.125949 0.245706
22 3 0.405199 0.0926605 0.180539
765 4 0.352304 0.152221 0.17799
310 2 0.393018 0.151836 0.194124
312 4 0.415132 0.156011 0.205021
23 3 0.423944 0.0907419 0.21306
311 4 0.370905 0.147661 0.183226
24 3 0.442611 0.0962553 0.180417
25 3 0.420834 0.123457 0.194682
21 1 0.423197 0.100939 0.19223
333 4 0.428979 0.169488 0.206428
331 2 0.451668 0.159018 0.207291
2769 4 0.493328 0.149822 0.200881
332 4 0.474357 0.148547 0.208155
749 4 0.0919898 0.233851 0.212549
691 2 0.13827 0.192532 0.207445
692 4 0.138535 0.187221 0.183013
380 4 0.149074 0.199136 0.169492
693 4 0.138004 0.197843 0.231876
546 4 0.128792 0.19465 0.249261
736 2 0.20568 0.22797 0.169964
738 4 0.187071 0.220477 0.184889
285 4 0.260752 0.242644 0.229355
372 4 0.181198 0.231675 0.19998
631 2 0.307885 0.169991 0.239298
764 4 0.324774 0.181223 0.208018
633 4 0.310272 0.169006 0.214428
763 2 0.338539 0.166722 0.193004
419 4 0.39321 0.20129 0.248626
361 2 0.0496074 0.318441 0.179471
704 4 0.00702346 0.300263 0.224764
389 4 0.0220489 0.290975 0.236614
339 4 0.0620441 0.334544 0.214085
362 4 0.052314 0.320743 0.204221
370 2 0.160896 0.245987 0.197128
750 4 0.121903 0.267285 0.190457
748 2 0.106947 0.250568 0.201503
371 4 0.140593 0.2603 0.194277
508 2 0.145152 0.304787 0.245539
290 4 0.157435 0.337957 0.25264
509 4 0.149264 0.282498 0.234981
283 2 0.251335 0.25669 0.210937
284 4 0.241918 0.270737 0.19252
277 2 0.247752 0.311275 0.204225
279 4 0.23663 0.290272 0.196455
619 2 0.0178556 0.388949 0.16745
621 4 0.0263577 0.398614 0.188885
337 2 0.0805736 0.342254 0.228997
2954 4 0.0166711 0.405565 0.203801
338 4 0.0991032 0.349964 0.24391
647 4 0.109377 0.367343 0.240616
646 2 0.114333 0.384693 0.223308
648 4 0.119289 0.402043 0.205999
264 4 0.123477 0.401716 0.186281
626 4 0.173191 0.354417 0.170223
289 2 0.174939 0.351423 0.240916
344 4 0.197684 0.372887 0.247441
343 2 0.218631 0.382871 0.238127
345 4 0.239577 0.392855 0.228812
291 4 0.192443 0.364889 0.229193
278 4 0.258874 0.332278 0.211994
308 4 0.25389 0.379428 0.232914
307 2 0.272361 0.385814 0.24851
445 2 0.398516 0.41743 0.170861
447 4 0.385921 0.424645 0.19122
1467 4 0.00313757 0.496676 0.200102
416 4 0.0667753 0.487355 0.209092
415 2 0.0497588 0.482545 0.226769
417 4 0.0327422 0.477736 0.244446
262 2 0.144861 0.40914 0.17566
263 4 0.166244 0.416565 0.165039
728 4 0.312962 0.442679 0.235646
302 4 0.293377 0.445428 0.238515
727 2 0.335385 0.43162 0.235963
729 4 0.357808 0.420561 0.236281
434 4 0.375839 0.421117 0.244081
1582 2 0.440513 0.496615 0.239145
1584 4 0.430551 0.501759 0.216796
391 2 0.123336 0.04425 0.313852
392 4 0.121129 0.0678074 0.305768
723 4 0.114798 0.0773125 0.288416
393 4 0.125543 0.0206927 0.321936
1518 4 0.286678 0.0168462 0.333041
743 4 0.41431 0.0488886 0.264445
2745 4 0.422685 0.0299087 0.26678
2744 4 0.443559 0.0326781 0.312138
2743 2 0.433122 0.0312934 0.289459
479 4 0.453256 0.039022 0.327547
513 4 0.0226644 0.120045 0.261416
512 4 0.0602759 0.106165 0.291307
511 2 0.0414701 0.113105 0.276361
722 4 0.0670295 0.0902647 0.281265
721 2 0.0909136 0.0837886 0.28484
248 4 0.25397 0.145795 0.258419
29 3 0.273575 0.144309 0.266305
404 4 0.28691 0.153513 0.321566
28 3 0.283346 0.150542 0.3025
26 1 0.276321 0.160462 0.282735
544 2 0.135891 0.201026 0.272372
732 4 0.146912 0.221055 0.308884
730 2 0.130772 0.23836 0.316958
545 4 0.14299 0.207401 0.295483
632 4 0.305499 0.170975 0.264168
27 3 0.256127 0.170852 0.286397
30 3 0.291594 0.175931 0.275947
401 4 0.308759 0.246515 0.274998
418 2 0.399714 0.215986 0.26778
420 4 0.406218 0.230682 0.286935
707 4 0.404142 0.21984 0.30381
706 2 0.41568 0.225349 0.325297
388 2 0.0283767 0.298447 0.259621
390 4 0.0347045 0.305918 0.282627
300 4 0.0540134 0.307883 0.283494
298 2 0.0645599 0.323409 0.300014
510 4 0.141039 0.327076 0.256097
731 4 0.114631 0.255666 0.325031
400 2 0.32432 0.259601 0.289551
498 4 0.332322 0.292051 0.302461
496 2 0.328631 0.316304 0.30729
402 4 0.33988 0.272687 0.304105
299 4 0.0751063 0.338935 0.316534
364 2 0.0144326 0.375708 0.260337
366 4 0.0373871 0.383282 0.266733
603 4 0.0415775 0.400143 0.278369
734 4 0.0814916 0.357092 0.308989
733 2 0.10479 0.361914 0.3013
735 4 0.128088 0.366737 0.293611
504 4 0.230071 0.397179 0.326266
768 4 0.24029 0.415844 0.322763
497 4 0.32494 0.340558 0.312119
309 4 0.290832 0.392199 0.264105
543 4 0.289108 0.375061 0.274631
541 2 0.308663 0.365842 0.287193
542 4 0.328218 0.356624 0.299755
378 4 0.357502 0.37713 0.318593
776 4 0.022638 0.491198 0.255551
601 2 0.0441585 0.424542 0.283187
547 2 0.0280735 0.451504 0.328529
602 4 0.0467395 0.448941 0.288004
548 4 0.0411305 0.449898 0.307266
766 2 0.250453 0.430294 0.30507
301 2 0.273477 0.44459 0.25363
303 4 0.253576 0.443751 0.268744
767 4 0.260617 0.444745 0.287377
435 4 0.399441 0.426963 0.287778
588 4 0.417941 0.421624 0.291902
433 2 0.38764 0.42404 0.265929
1583 4 0.450476 0.491472 0.261494
586 2 0.424304 0.436998 0.310567
119 3 0.496281 0.450432 0.290838
593 4 0.449778 0.471473 0.265352
594 4 0.49012 0.442843 0.272667
592 2 0.469949 0.457158 0.269009
587 4 0.430666 0.452371 0.329231
752 4 0.443737 0.466738 0.322567
751 2 0.462689 0.483023 0.323471
1477 2 0.133822 0.999565 0.382424
1479 4 0.128148 0.0141302 0.362909
1699 2 0.251865 0.00907938 0.33227
604 2 0.196605 0.0786313 0.409794
441 4 0.198799 0.0412736 0.39073
605 4 0.190327 0.0589107 0.395764
439 2 0.212027 0.0200728 0.391586
440 4 0.225255 0.998872 0.392443
1516 2 0.309734 0.012187 0.341521
1517 4 0.332789 0.00752783 0.350002
1700 4 0.271324 0.0203932 0.343157
698 4 0.341043 0.00113221 0.3668
697 2 0.357877 0.0179395 0.374501
699 4 0.374711 0.0347467 0.382202
257 4 0.371452 0.0368281 0.401957
256 2 0.388719 0.0530479 0.409955
426 4 0.398874 0.0863162 0.412105
258 4 0.405985 0.0692678 0.417952
1426 2 0.431386 0.00134961 0.400521
1427 4 0.419542 0.00973737 0.380161
480 4 0.4267 0.0244106 0.367321
478 2 0.439978 0.0317163 0.347434
428 4 0.0118441 0.119195 0.338265
427 2 0.0329399 0.109668 0.347719
429 4 0.0540357 0.100141 0.357174
260 4 0.0615247 0.111869 0.372187
259 2 0.073303 0.118118 0.393339
261 4 0.0850812 0.124367 0.414491
687 4 0.129849 0.137076 0.383501
600 4 0.136985 0.154486 0.376878
685 2 0.145036 0.121363 0.395652
686 4 0.160223 0.10565 0.407802
683 4 0.31804 0.083349 0.409816
403 2 0.294562 0.134681 0.336126
405 4 0.302213 0.115849 0.350686
684 4 0.310511 0.108319 0.367148
682 2 0.314276 0.0958338 0.388482
467 4 0.328487 0.173936 0.383055
488 4 0.316658 0.166157 0.369099
468 4 0.353339 0.133591 0.399033
516 4 0.364383 0.128699 0.41422
466 2 0.340913 0.153764 0.391044
424 2 0.406366 0.107913 0.401974
2878 2 0.48405 0.115824 0.353715
2880 4 0.459365 0.119412 0.351994
306 4 0.45221 0.138542 0.346631
304 2 0.45101 0.159755 0.359811
425 4 0.413858 0.129509 0.391843
2849 4 0.996125 0.18429 0.354592
327 4 0.0589785 0.238021 0.413538
598 2 0.143425 0.175748 0.388352
599 4 0.149865 0.19701 0.399825
474 4 0.165814 0.205275 0.409572
472 2 0.186961 0.209711 0.396991
473 4 0.208109 0.214148 0.38441
275 4 0.225378 0.223771 0.37877
274 2 0.246473 0.211486 0.373362
487 2 0.301418 0.185951 0.368037
276 4 0.267569 0.199201 0.367954
489 4 0.286178 0.205745 0.366975
708 4 0.427218 0.230857 0.346785
305 4 0.44981 0.180969 0.372992
269 4 0.448742 0.189553 0.391554
268 2 0.460084 0.202136 0.409944
348 4 0.0703213 0.300531 0.393701
618 4 0.0721527 0.320464 0.394883
346 2 0.061281 0.278098 0.400044
347 4 0.0522408 0.255665 0.406386
616 2 0.0910996 0.333552 0.404624
266 4 0.303562 0.298579 0.388395
374 4 0.290396 0.309876 0.397353
265 2 0.327232 0.299368 0.380378
373 2 0.29397 0.323369 0.418098
615 4 0.400807 0.302314 0.376134
267 4 0.350903 0.300156 0.372361
873 4 0.400899 0.284014 0.384106
613 2 0.392533 0.323637 0.366031
614 4 0.384259 0.344959 0.355928
871 2 0.400266 0.278752 0.408541
677 4 0.121801 0.355875 0.427591
676 2 0.140833 0.369224 0.418386
617 4 0.110046 0.34664 0.414366
502 2 0.232647 0.397963 0.351124
681 4 0.176669 0.392883 0.411029
679 2 0.199631 0.393212 0.401139
680 4 0.222593 0.393541 0.391248
503 4 0.235224 0.398748 0.375982
377 4 0.390682 0.364015 0.353633
376 2 0.374092 0.370573 0.336113
2927 4 0.997026 0.448294 0.407001
3960 4 0.00101784 0.486903 0.368615
3958 2 0.00330234 0.476693 0.391324
549 4 0.0150165 0.45311 0.349792
501 4 0.0916025 0.453531 0.37999
499 2 0.0955944 0.47769 0.374933
413 4 0.211592 0.459777 0.364866
412 2 0.194577 0.441994 0.360457
414 4 0.177563 0.424211 0.356048
3 3 0.271376 0.438968 0.337037
1803 4 0.279175 0.493667 0.343786
2 3 0.280362 0.475392 0.334747
5 3 0.267974 0.461427 0.367065
1 1 0.280436 0.456975 0.34853
4 3 0.302319 0.452269 0.354645
720 4 0.0651294 0.00263754 0.457187
2586 4 0.0504973 0.00046343 0.469543
2584 2 0.0321735 0.0141646 0.479627
2585 4 0.0138496 0.0278657 0.489711
718 2 0.0881009 0.00222727 0.447322
724 2 0.309178 0.0790058 0.450337
726 4 0.312293 0.0795772 0.475139
1062 4 0.446614 0.0453857 0.509706
1060 2 0.465373 0.04341 0.493294
1061 4 0.484133 0.0414342 0.476883
938 4 0.0800692 0.118745 0.4335
367 2 0.147658 0.152782 0.462468
937 2 0.0966841 0.122951 0.451705
939 4 0.113299 0.127157 0.469911
369 4 0.125709 0.140815 0.462917
368 4 0.169607 0.164749 0.462018
606 4 0.202884 0.0983519 0.423825
1182 4 0.199985 0.109746 0.439233
1180 2 0.21553 0.129286 0.440555
1181 4 0.231074 0.148826 0.441876
321 4 0.23589 0.151445 0.461802
725 4 0.306064 0.0784344 0.425535
431 4 0.308886 0.0976137 0.482304
319 2 0.257755 0.163539 0.462706
514 2 0.376094 0.141427 0.432276
515 4 0.387806 0.154155 0.450332
640 2 0.385849 0.165247 0.48111
326 4 0.0613954 0.223635 0.46137
325 2 0.060187 0.230828 0.437454
1035 4 0.0623736 0.227402 0.481234
1151 4 0.160043 0.178176 0.475302
1150 2 0.176532 0.196819 0.477693
1221 4 0.206416 0.229377 0.486379
1152 4 0.193022 0.215462 0.480083
320 4 0.27962 0.175634 0.46361
715 2 0.300541 0.204185 0.43785
717 4 0.286776 0.192079 0.454855
716 4 0.314306 0.216291 0.420846
641 4 0.398466 0.16808 0.45971
270 4 0.471426 0.21472 0.428334
576 4 0.424577 0.237822 0.472748
584 4 0.465315 0.217283 0.447469
583 2 0.467242 0.234463 0.465533
470 4 0.989873 0.265243 0.481572
711 4 0.292047 0.32389 0.45591
709 2 0.27228 0.331525 0.469183
574 2 0.412222 0.256904 0.462334
575 4 0.399868 0.275986 0.451921
872 4 0.399633 0.273489 0.432977
585 4 0.469169 0.251644 0.483597
936 4 0.0921021 0.410723 0.458838
678 4 0.159866 0.382574 0.409181
3354 4 0.105495 0.416481 0.472612
3352 2 0.114262 0.40149 0.490601
668 4 0.232889 0.343511 0.488583
1395 4 0.198507 0.37195 0.475554
1393 2 0.218232 0.382572 0.464451
1394 4 0.237957 0.393194 0.453349
407 4 0.189079 0.385457 0.486527
569 4 0.243593 0.397731 0.435367
406 2 0.166361 0.385193 0.496967
568 2 0.252776 0.420693 0.431678
375 4 0.297543 0.336861 0.438843
710 4 0.252513 0.339159 0.482455
240 4 0.363812 0.419013 0.467859
238 2 0.369323 0.412633 0.491398
650 4 0.345271 0.360318 0.498805
3959 4 0.00558685 0.466482 0.414033
935 4 0.0815131 0.458952 0.450934
934 2 0.0868076 0.434838 0.454886
2139 4 0.115818 0.500403 0.4897
636 4 0.170248 0.496704 0.491862
336 4 0.310171 0.414372 0.435493
570 4 0.261959 0.443655 0.427989
881 4 0.282634 0.42594 0.479336
334 2 0.33414 0.416388 0.44232
335 4 0.358109 0.418403 0.449147
1399 2 0.386867 0.485706 0.490257
1127 4 0.00302918 0.039276 0.503011
1126 2 0.0163217 0.0592408 0.510075
1128 4 0.0296142 0.0792055 0.517139
89 3 0.408415 0.0478501 0.520633
86 1 0.423471 0.0627357 0.530127
88 3 0.426557 0.0576557 0.552557
90 3 0.443383 0.0617289 0.519121
1083 4 0.0383905 0.0926603 0.529953
1081 2 0.0614979 0.101176 0.525628
1082 4 0.0846054 0.109692 0.521304
852 4 0.0995388 0.111379 0.535987
850 2 0.121918 0.105021 0.526827
851 4 0.144298 0.0986634 0.517666
1058 4 0.157571 0.113822 0.520698
1057 2 0.167719 0.135176 0.512562
1282 2 0.191114 0.140534 0.584966
1155 4 0.230133 0.143591 0.572833
1059 4 0.177868 0.15653 0.504427
1284 4 0.215736 0.144259 0.587217
1153 2 0.248407 0.137055 0.557068
432 4 0.287487 0.113069 0.524777
409 2 0.300283 0.153803 0.533441
411 4 0.301126 0.128954 0.530797
430 2 0.298186 0.105341 0.503541
1154 4 0.26668 0.130518 0.541303
1216 2 0.417066 0.115537 0.523922
841 2 0.361046 0.132448 0.550763
1218 4 0.402588 0.134689 0.516938
842 4 0.381809 0.142587 0.54121
843 4 0.340283 0.122308 0.560316
905 4 0.421172 0.170349 0.515793
1032 4 0.333235 0.129116 0.579122
642 4 0.373233 0.162414 0.502511
87 3 0.414944 0.084033 0.528431
1217 4 0.431544 0.0963857 0.530907
1270 2 0.05144 0.19818 0.565576
1034 4 0.0632626 0.212583 0.528987
1272 4 0.0487308 0.20888 0.543141
1033 2 0.0628181 0.219992 0.50511
857 4 0.143322 0.213685 0.578118
1219 2 0.218099 0.243672 0.503242
410 4 0.29944 0.178652 0.536084
899 4 0.309398 0.180632 0.553675
898 2 0.317277 0.200068 0.567289
900 4 0.325156 0.219504 0.580903
1210 2 0.27101 0.232899 0.586561
906 4 0.427056 0.21415 0.539193
904 2 0.424114 0.19225 0.527493
877 2 0.0367537 0.307412 0.530138
878 4 0.0267262 0.319209 0.510505
879 4 0.0467812 0.295615 0.549772
9 3 0.181188 0.31377 0.568566
696 4 0.186268 0.305054 0.551696
695 4 0.216945 0.271191 0.531376
1220 4 0.229783 0.257966 0.520104
694 2 0.201607 0.288123 0.541536
6 1 0.173138 0.328302 0.584766
1212 4 0.289482 0.2449 0.57473
802 2 0.296217 0.2858 0.573089
804 4 0.292725 0.309053 0.564586
774 4 0.296242 0.328516 0.562814
803 4 0.299708 0.262548 0.581591
811 2 0.403335 0.325369 0.539777
812 4 0.402928 0.323117 0.564676
10 3 0.169223 0.348773 0.575587
408 4 0.143644 0.38493 0.507408
3353 4 0.12303 0.386499 0.508589
1171 2 0.226623 0.380612 0.558721
1173 4 0.208357 0.385185 0.542269
384 4 0.212255 0.404487 0.536657
667 2 0.23652 0.351244 0.512082
669 4 0.24015 0.358976 0.535581
1172 4 0.244888 0.37604 0.575172
773 4 0.255811 0.353401 0.547102
772 2 0.276026 0.340959 0.554958
889 2 0.299366 0.404029 0.558205
890 4 0.293243 0.390668 0.578433
649 2 0.366663 0.347933 0.502572
651 4 0.388055 0.335548 0.506339
813 4 0.403742 0.32762 0.514879
927 4 0.367847 0.394592 0.529681
925 2 0.381478 0.405457 0.547606
926 4 0.395109 0.416323 0.565531
239 4 0.374834 0.406254 0.514938
1011 4 0.409258 0.404017 0.56245
1009 2 0.426798 0.389487 0.572765
2138 4 0.106247 0.468687 0.527159
1159 2 0.112053 0.46863 0.5652
1161 4 0.100058 0.460843 0.54469
1160 4 0.124049 0.476418 0.585709
2137 2 0.111033 0.484545 0.508429
382 2 0.208005 0.4291 0.535514
383 4 0.203755 0.453713 0.53437
635 4 0.196437 0.47008 0.525119
634 2 0.183342 0.483392 0.508491
891 4 0.305489 0.41739 0.537977
882 4 0.304149 0.431921 0.52408
880 2 0.293391 0.428931 0.501708
1454 4 0.319438 0.443763 0.53336
1453 2 0.335971 0.458056 0.521212
1000 2 0.402261 0.455626 0.536432
1002 4 0.383598 0.442245 0.546322
1455 4 0.352503 0.472349 0.509065
1400 4 0.365953 0.47276 0.49475
1001 4 0.420923 0.469008 0.526541
663 4 0.428681 0.483098 0.537985
661 2 0.445146 0.49169 0.554727
944 4 0.163223 0.0617995 0.659141
2132 4 0.256463 0.0368103 0.654356
2131 2 0.234618 0.0420269 0.665344
943 2 0.173764 0.0391282 0.658846
945 4 0.184304 0.0164569 0.658551
909 4 0.181985 0.0689665 0.660424
2256 4 0.187094 0.00651977 0.675996
963 4 0.28281 0.0453527 0.591755
962 4 0.26163 0.0457809 0.637054
961 2 0.27222 0.0455668 0.614405
950 4 0.312771 0.00259615 0.601806
1090 2 0.36884 0.00195031 0.643748
1092 4 0.382705 0.014451 0.660382
3424 2 0.423401 0.0350991 0.655331
3426 4 0.438412 0.0337694 0.635379
3008 4 0.485673 0.05725 0.608293
3159 4 0.495739 0.0744019 0.612548
3007 2 0.462202 0.0501448 0.613169
3009 4 0.43873 0.0430395 0.618045
1200 4 0.0601319 0.168789 0.592727
3179 4 0.0178994 0.133238 0.629673
1199 4 0.0328996 0.1337 0.615702
1198 2 0.0465158 0.151244 0.604214
1077 4 0.0404633 0.111713 0.65679
1283 4 0.166492 0.136809 0.582716
907 2 0.187136 0.0933626 0.658559
908 4 0.192288 0.117759 0.656694
1031 4 0.336663 0.163529 0.615242
1030 2 0.334949 0.146323 0.597182
1261 2 0.467038 0.151215 0.650236
1026 4 0.431963 0.170928 0.633744
1262 4 0.484738 0.134521 0.655999
1271 4 0.0541491 0.18748 0.588012
856 2 0.122796 0.224267 0.587703
858 4 0.10227 0.23485 0.597288
1260 4 0.115657 0.235387 0.659828
1258 2 0.120788 0.251265 0.641207
792 4 0.192194 0.211216 0.576889
790 2 0.214057 0.210571 0.589004
791 4 0.23592 0.209926 0.601119
798 4 0.224412 0.24861 0.67057
1194 4 0.333631 0.227926 0.596965
887 4 0.323444 0.17732 0.621123
1211 4 0.252539 0.220898 0.598393
888 4 0.283253 0.198915 0.641593
886 2 0.303349 0.188118 0.631358
1192 2 0.354709 0.220829 0.608391
1193 4 0.375787 0.213732 0.619816
1263 4 0.449338 0.167909 0.644472
1024 2 0.438175 0.177046 0.61031
1025 4 0.444387 0.183163 0.586876
3262 2 0.0198351 0.310878 0.5936
3045 4 0.00321283 0.267255 0.639183
1178 4 0.0568111 0.328089 0.59935
1177 2 0.0730231 0.310745 0.607195
3263 4 0.043001 0.314686 0.602204
1136 4 0.142284 0.259697 0.612976
1259 4 0.125919 0.267144 0.622586
1137 4 0.16044 0.305595 0.60495
1135 2 0.151362 0.282646 0.608963
7 3 0.153456 0.319885 0.593188
1179 4 0.0892352 0.293402 0.61504
897 4 0.14575 0.320028 0.640644
796 2 0.225066 0.261102 0.64892
797 4 0.225719 0.273595 0.627271
895 2 0.167829 0.324488 0.651498
896 4 0.189908 0.328948 0.662352
8 3 0.188498 0.330184 0.602056
805 2 0.312321 0.310624 0.630161
807 4 0.316617 0.299476 0.652126
806 4 0.308026 0.321772 0.608197
1238 4 0.453376 0.264558 0.607042
1239 4 0.443911 0.313598 0.604544
1237 2 0.448644 0.289078 0.605793
954 4 0.440106 0.323788 0.620378
894 4 0.0137152 0.338397 0.648735
1039 2 0.0765468 0.382392 0.635025
1040 4 0.0579338 0.369364 0.645466
822 4 0.0692303 0.35653 0.655842
1067 4 0.158668 0.36527 0.582664
1066 2 0.149156 0.381198 0.599426
1068 4 0.139644 0.397127 0.616189
1041 4 0.0951598 0.39542 0.624584
948 4 0.205317 0.341349 0.65469
1190 4 0.240907 0.393859 0.584038
1189 2 0.243508 0.404497 0.606516
929 4 0.306392 0.388489 0.593341
930 4 0.305863 0.341484 0.6104
928 2 0.306128 0.364987 0.601871
1027 2 0.319315 0.395642 0.658222
1028 4 0.33391 0.375361 0.659139
952 2 0.435337 0.343595 0.605883
953 4 0.430568 0.363402 0.591388
1010 4 0.444338 0.374957 0.58308
1206 4 0.48012 0.364474 0.661736
1281 4 0.0185411 0.45369 0.660716
3431 4 0.0166982 0.464593 0.643862
1279 2 0.0396432 0.44164 0.666604
2244 4 0.140886 0.472953 0.597733
2242 2 0.153585 0.486754 0.61427
2028 4 0.243379 0.501481 0.621017
1029 4 0.30472 0.415923 0.657305
1175 4 0.250389 0.482746 0.623199
1174 2 0.251926 0.45805 0.626793
1191 4 0.246109 0.415135 0.628994
1176 4 0.253464 0.433354 0.630388
863 4 0.0718036 0.0590639 0.691801
2047 2 0.0753508 0.0250183 0.690102
862 2 0.0598268 0.0765598 0.678549
2048 4 0.0647123 0.00411389 0.681442
2049 4 0.0859892 0.0459228 0.698763
823 2 0.210194 0.073425 0.709006
2133 4 0.212772 0.0472435 0.676332
824 4 0.203761 0.0609806 0.688296
1924 2 0.309945 0.00875373 0.702565
1926 4 0.292642 0.00998745 0.720573
1003 2 0.388301 0.0199468 0.70072
1004 4 0.409425 0.0315549 0.694072
3425 4 0.40839 0.0364288 0.675283
44 3 0.409519 0.0709341 0.719777
1925 4 0.327247 0.00752001 0.684557
844 2 0.436697 0.0123156 0.743439
42 3 0.442076 0.0686304 0.738415
41 1 0.431223 0.0790465 0.721012
43 3 0.442537 0.0744392 0.701285
810 4 0.447985 0.0854876 0.685872
864 4 0.0478499 0.0940557 0.665296
1076 4 0.0208263 0.143274 0.690242
1075 2 0.0306448 0.127494 0.673516
3476 4 0.00482214 0.149154 0.701206
1227 4 0.201397 0.123177 0.673743
825 4 0.216628 0.0858693 0.729717
840 4 0.224449 0.101744 0.73952
1225 2 0.208211 0.142439 0.688157
1226 4 0.215024 0.161701 0.70257
809 4 0.476729 0.116802 0.65953
45 3 0.430922 0.101513 0.724732
1143 4 0.429705 0.115565 0.71059
808 2 0.462357 0.101145 0.672701
1141 2 0.432833 0.137456 0.722259
1142 4 0.435961 0.159347 0.733929
3037 2 0.998544 0.224661 0.709797
3039 4 0.015701 0.218139 0.726776
978 4 0.211926 0.17623 0.716241
977 4 0.170523 0.203226 0.708643
976 2 0.191224 0.189728 0.712442
1129 2 0.19558 0.244481 0.721778
1130 4 0.203828 0.231669 0.741602
1131 4 0.187332 0.257293 0.701954
1278 4 0.22147 0.238987 0.747432
831 4 0.379754 0.208199 0.700722
829 2 0.387972 0.188968 0.714428
830 4 0.396189 0.169737 0.728133
47 3 0.400868 0.173553 0.747612
1167 4 0.387539 0.236317 0.736882
49 3 0.438047 0.177096 0.743391
1208 4 0.0595487 0.246412 0.673402
892 2 0.0137461 0.328312 0.671614
1207 2 0.0674961 0.264411 0.68883
1243 2 0.0147728 0.29823 0.721734
1244 4 0.0288661 0.31095 0.705462
1209 4 0.0754434 0.282411 0.704259
893 4 0.0137769 0.318227 0.694494
1245 4 0.000679556 0.285511 0.738005
821 4 0.0753699 0.323594 0.692966
946 2 0.223 0.331899 0.669629
947 4 0.240683 0.322449 0.684569
1007 4 0.308744 0.261623 0.697657
1006 2 0.319463 0.278173 0.682283
1064 4 0.255129 0.318003 0.698217
1098 4 0.283069 0.343515 0.742798
1008 4 0.330183 0.294723 0.666909
1165 2 0.375027 0.256534 0.744623
820 2 0.0723001 0.340062 0.674404
941 4 0.0514033 0.350955 0.739647
940 2 0.0723149 0.36423 0.743061
942 4 0.0932265 0.377505 0.746476
1063 2 0.272183 0.330863 0.711216
1065 4 0.289237 0.343723 0.724215
1230 4 0.34079 0.371813 0.677572
1228 2 0.360532 0.370186 0.692828
1229 4 0.380275 0.36856 0.708085
1020 4 0.382648 0.387838 0.704873
1018 2 0.399531 0.403291 0.714939
1019 4 0.416413 0.418745 0.725005
2986 2 0.468241 0.389581 0.719519
2987 4 0.466288 0.405602 0.700422
2988 4 0.470195 0.37356 0.738615
1280 4 0.0607454 0.42959 0.672493
992 4 0.0716354 0.422747 0.687618
991 2 0.0828483 0.439958 0.701874
1983 4 0.0849694 0.462791 0.732643
993 4 0.0940612 0.457169 0.716129
1140 4 0.364992 0.457442 0.741537
3329 4 0.459287 0.423248 0.708329
3330 4 0.431479 0.464721 0.711053
3328 2 0.445383 0.443985 0.709691
1268 4 0.444824 0.478402 0.704417
1267 2 0.457266 0.499274 0.710311
1256 4 0.205699 0.0122807 0.758779
2000 4 0.219016 0.0602033 0.800291
1999 2 0.229441 0.0782308 0.814129
1257 4 0.218885 0.0544126 0.782269
1255 2 0.212292 0.0333467 0.770524
1048 2 0.363506 0.0744376 0.823159
1112 4 0.451415 0.0624411 0.754576
846 4 0.421801 0.0296456 0.753585
1111 2 0.451135 0.0766703 0.775134
834 4 0.00375007 0.161028 0.772437
838 2 0.237159 0.116671 0.755039
839 4 0.249868 0.131598 0.770558
2001 4 0.239867 0.0962583 0.827968
964 2 0.238176 0.134051 0.808548
966 4 0.234769 0.110171 0.815133
965 4 0.241583 0.15793 0.801964
1050 4 0.361286 0.0859902 0.801096
1043 4 0.391573 0.171291 0.821557
819 4 0.387935 0.158613 0.837293
1086 4 0.435847 0.15583 0.787925
48 3 0.423564 0.164166 0.776063
1084 2 0.436618 0.130867 0.789113
1085 4 0.437388 0.105903 0.790301