ITEM: TIMESTEP
3950000
ITEM: NUMBER OF ATOMS
4590
ITEM: BOX BOUNDS pp pp pp
-9.9985700000000008e+00 9.9985700000000008e+00
-9.9985700000000008e+00 9.9985700000000008e+00
-9.9985700000000008e+00 9.9985700000000008e+00
ITEM: ATOMS id type xs ys zs
448 2 0.0379698 0.0341588 0.0519084
450 4 0.0410162 0.0209838 0.0729398
449 4 0.0349233 0.0473337 0.0308771
370 2 0.0413215 0.0797568 0.019927
372 4 0.0325424 0.0574379 0.0128579
358 2 0.142086 0.0641186 0.0686493
359 4 0.141382 0.0395401 0.0731859
1566 4 0.158579 0.0410058 0.0839472
1677 4 0.240708 0.0204858 0.0538562
1021 2 0.466833 0.00383348 0.0185185
1109 4 0.457165 0.0428662 0.00830228
1022 4 0.462578 0.0237437 0.00400472
3233 4 0.0664511 0.100123 0.0168463
3232 2 0.078509 0.121911 0.0190973
371 4 0.0501006 0.102076 0.0269961
3234 4 0.0905669 0.143699 0.0213482
545 4 0.13004 0.104675 0.0685428
32 3 0.147167 0.115952 0.0247414
31 1 0.152071 0.116632 0.0472056
33 3 0.132727 0.121746 0.058955
360 4 0.14279 0.0886971 0.0641126
995 4 0.162604 0.116687 0.0122612
34 3 0.160069 0.0958624 0.0537692
35 3 0.167885 0.132586 0.0509515
994 2 0.170169 0.0964946 0.999604
2162 4 0.285216 0.139615 0.0228829
2161 2 0.302827 0.142412 0.00535525
573 4 0.374748 0.153041 0.0626487
571 2 0.367271 0.12948 0.0664052
572 4 0.359794 0.105918 0.0701616
1169 4 0.0710628 0.201173 0.00535329
1168 2 0.0958455 0.200404 0.00857904
1170 4 0.120628 0.199635 0.0118048
1827 4 0.368333 0.170968 0.0699475
1825 2 0.357306 0.182141 0.0504864
1826 4 0.346278 0.193313 0.0310254
323 4 0.356832 0.202518 0.0176487
1305 4 0.410572 0.228345 0.0490436
322 2 0.346512 0.222182 0.00615974
1304 4 0.437628 0.205957 0.013442
1303 2 0.4241 0.217151 0.0312428
482 4 0.426125 0.190396 0.00738617
554 4 0.0309634 0.254461 0.046437
299 4 0.0428013 0.26443 0.0332536
553 2 0.00800423 0.263007 0.0414351
298 2 0.0631654 0.274875 0.043322
300 4 0.0835294 0.285321 0.0533904
294 4 0.100884 0.293683 0.0577138
292 2 0.1041 0.312277 0.0413089
293 4 0.107317 0.33087 0.0249039
363 4 0.12777 0.326997 0.0823699
1290 4 0.213871 0.250552 0.055592
1288 2 0.211475 0.275415 0.0544818
1289 4 0.20908 0.300279 0.0533717
1158 4 0.199186 0.315446 0.0467987
1156 2 0.204476 0.334133 0.0310511
931 2 0.30735 0.296697 0.0539507
933 4 0.287734 0.285075 0.0642123
960 4 0.269841 0.279102 0.0678383
932 4 0.326966 0.30832 0.0436891
969 4 0.332872 0.319404 0.0585733
354 4 0.286094 0.285319 0.00686998
352 2 0.306953 0.271926 0.00359325
967 2 0.354775 0.322033 0.0468034
968 4 0.376678 0.324661 0.0350334
801 4 0.387196 0.328383 0.0191525
2722 2 0.489169 0.267322 0.0336306
2724 4 0.482153 0.254037 0.0136439
2723 4 0.496185 0.280606 0.0536174
3336 4 0.467945 0.262873 0.00125903
3517 2 0.0465363 0.385956 0.0403207
3519 4 0.0355339 0.38519 0.0627604
3518 4 0.0575386 0.386722 0.017881
648 4 0.0499675 0.387783 0.0768394
2864 4 0.053868 0.406422 0.0181519
942 4 0.122614 0.383751 0.0588568
1094 4 0.141525 0.382986 0.0510709
1093 2 0.153266 0.374378 0.0307423
1095 4 0.165006 0.365771 0.0104138
940 2 0.116475 0.407788 0.0619781
637 2 0.229778 0.392544 0.0108274
1157 4 0.209767 0.35282 0.0153035
282 4 0.221069 0.3397 0.00576807
639 4 0.215497 0.40653 0.025848
387 4 0.312191 0.360182 0.0577103
737 4 0.296968 0.350278 0.0664711
385 2 0.318595 0.370509 0.0358581
386 4 0.324998 0.380836 0.0140059
672 4 0.434966 0.359049 0.0380304
670 2 0.45277 0.367078 0.0224184
671 4 0.470574 0.375108 0.00680637
3101 4 0.487663 0.382946 0.0129854
1629 4 0.0472222 0.456642 0.0517985
1367 4 0.0470643 0.475105 0.0602391
1627 2 0.0709175 0.448928 0.0538497
1628 4 0.0946129 0.441214 0.0559008
941 4 0.110335 0.431824 0.0650995
497 4 0.244216 0.430758 0.0873932
1728 4 0.200161 0.418349 0.0202143
1726 2 0.1936 0.439132 0.00795895
541 2 0.3031 0.496558 0.0837032
559 2 0.437092 0.496927 0.0760256
561 4 0.45265 0.47939 0.0673323
1633 2 0.0593024 0.00418982 0.0958282
701 4 0.0617881 0.0112908 0.133243
1635 4 0.0712526 0.00622823 0.117696
1233 4 0.093574 0.0688518 0.155065
3810 4 0.106621 0.055352 0.161458
1564 2 0.170201 0.032195 0.104257
3508 2 0.178335 0.999872 0.147448
3510 4 0.190416 0.00449034 0.12605
1565 4 0.181823 0.0233841 0.124566
1759 2 0.392326 0.0525163 0.101105
1760 4 0.398286 0.0338158 0.085615
1761 4 0.386366 0.0712167 0.116596
763 2 0.482908 0.0362974 0.106565
765 4 0.459137 0.0422188 0.101562
285 4 0.141718 0.0946973 0.164994
236 4 0.152959 0.0820513 0.0975413
544 2 0.117205 0.112441 0.0885469
546 4 0.104371 0.120206 0.108551
1232 4 0.103827 0.107886 0.125536
1231 2 0.0987006 0.0883686 0.1403
235 2 0.169882 0.097073 0.108178
237 4 0.186805 0.112095 0.118815
53 3 0.17572 0.123475 0.1304
55 3 0.195526 0.141791 0.156666
51 1 0.192283 0.139258 0.134267
54 3 0.212063 0.132637 0.124103
52 3 0.185655 0.159356 0.125251
2769 4 0.206475 0.113726 0.121579
2767 2 0.225195 0.106066 0.106879
2768 4 0.243914 0.0984063 0.0921797
404 4 0.345713 0.126368 0.141379
403 2 0.361776 0.114877 0.156713
758 4 0.405102 0.115649 0.110713
249 4 0.337491 0.144332 0.135652
757 2 0.418039 0.135525 0.118635
2592 4 0.494237 0.111161 0.106905
759 4 0.430977 0.155401 0.126556
628 2 0.453033 0.160528 0.155945
247 2 0.330488 0.167584 0.14161
618 4 0.264941 0.238842 0.13768
666 4 0.27977 0.228146 0.14789
664 2 0.293907 0.208505 0.1416
665 4 0.308044 0.188865 0.13531
248 4 0.323486 0.190836 0.147569
252 4 0.393235 0.190463 0.14719
250 2 0.384985 0.213851 0.150369
251 4 0.376735 0.23724 0.153548
629 4 0.44403 0.168452 0.134005
2609 4 0.0406296 0.317311 0.147725
2828 4 0.0296574 0.323504 0.132385
2827 2 0.0145304 0.334238 0.115618
740 4 0.120871 0.313902 0.0950431
739 2 0.142836 0.302342 0.0920234
741 4 0.1648 0.290783 0.0890037
689 4 0.165138 0.276388 0.102834
616 2 0.243431 0.25042 0.132347
617 4 0.221921 0.261998 0.127014
959 4 0.243186 0.308538 0.0982314
690 4 0.214271 0.272013 0.111055
688 2 0.189704 0.2742 0.106944
524 4 0.223152 0.310017 0.0955351
523 2 0.207892 0.329812 0.0962169
958 2 0.256513 0.29382 0.0830349
15 3 0.287214 0.280679 0.14485
13 3 0.269426 0.309868 0.160637
245 4 0.326313 0.297606 0.128961
11 1 0.283774 0.292005 0.164306
244 2 0.343091 0.293353 0.110917
246 4 0.359869 0.289099 0.0928724
339 4 0.373126 0.276179 0.0987232
337 2 0.396745 0.283404 0.0948299
338 4 0.420363 0.290628 0.0909366
1046 4 0.426786 0.301869 0.106929
1045 2 0.448982 0.306017 0.117668
1047 4 0.471178 0.310164 0.128407
659 4 0.490486 0.316531 0.124495
646 2 0.0712307 0.381532 0.0884147
1775 4 0.074007 0.415792 0.147764
361 2 0.11801 0.349878 0.0848979
1774 2 0.0929596 0.39983 0.151107
362 4 0.10825 0.372759 0.087426
647 4 0.0924938 0.375282 0.0999899
704 4 0.131638 0.380805 0.14708
1776 4 0.111912 0.383867 0.154449
1103 4 0.144749 0.385289 0.11845
703 2 0.145939 0.36863 0.163585
525 4 0.192632 0.349607 0.0968987
1102 2 0.16421 0.376416 0.1055
1104 4 0.183671 0.367543 0.092549
736 2 0.282341 0.361429 0.0834083
1620 4 0.281933 0.381854 0.110344
738 4 0.267713 0.372581 0.100346
1618 2 0.28253 0.387692 0.134649
1619 4 0.283127 0.39353 0.158954
612 4 0.28822 0.373933 0.164519
2742 4 0.0684471 0.420791 0.129988
3848 4 0.0231042 0.455872 0.137578
2740 2 0.0500795 0.436924 0.124741
2741 4 0.0317119 0.453057 0.119494
3847 2 0.0099415 0.477064 0.139258
505 2 0.188564 0.468499 0.152869
287 4 0.183202 0.451656 0.111048
286 2 0.204426 0.441622 0.102442
507 4 0.182478 0.460133 0.130106
288 4 0.225649 0.431589 0.0938359
543 4 0.29394 0.476367 0.0952611
498 4 0.282875 0.460904 0.0972611
496 2 0.263546 0.445831 0.0923272
2651 4 0.491689 0.431325 0.11801
494 4 0.485545 0.433385 0.137229
3809 4 0.0844455 0.0351524 0.201469
3808 2 0.0955332 0.0452522 0.181463
632 4 0.405284 0.0768586 0.216723
631 2 0.392823 0.0803625 0.195331
2664 4 0.438622 0.00464943 0.251714
2662 2 0.45829 0.0195824 0.247794
2663 4 0.477958 0.0345154 0.243875
380 4 0.0746183 0.117665 0.229775
379 2 0.0787035 0.140494 0.239121
381 4 0.0827887 0.163323 0.248466
283 2 0.163645 0.100077 0.175737
1403 4 0.19226 0.118492 0.200611
1404 4 0.174589 0.115722 0.247309
284 4 0.185573 0.105457 0.186481
1402 2 0.183424 0.117107 0.22396
472 2 0.234983 0.149272 0.201469
473 4 0.214327 0.160054 0.210539
474 4 0.255639 0.13849 0.192399
527 4 0.271183 0.136851 0.205465
526 2 0.287613 0.145404 0.22226
528 4 0.304043 0.153958 0.239055
311 4 0.411244 0.0878343 0.231921
405 4 0.377839 0.103386 0.172046
633 4 0.380362 0.0838664 0.173938
581 4 0.447975 0.150321 0.191101
580 2 0.444934 0.156956 0.215016
630 4 0.462036 0.152605 0.177884
582 4 0.441893 0.163591 0.238931
2513 4 0.076133 0.173449 0.232423
2512 2 0.0894604 0.190571 0.219997
2514 4 0.102788 0.207693 0.207572
2461 2 0.189417 0.185663 0.234564
2462 4 0.200016 0.172026 0.216484
1437 4 0.283928 0.231865 0.229608
624 4 0.307513 0.172913 0.240648
623 4 0.289907 0.219534 0.2448
622 2 0.29871 0.196224 0.242724
356 4 0.36277 0.243052 0.166208
520 2 0.466595 0.225036 0.219547
522 4 0.472112 0.228726 0.19544
641 4 0.478896 0.231725 0.175679
521 4 0.461077 0.221346 0.243653
2608 2 0.0413661 0.331176 0.168518
14 3 0.304005 0.299686 0.172678
1435 2 0.276387 0.248425 0.21246
1436 4 0.268847 0.264986 0.195312
12 3 0.274237 0.277851 0.179728
355 2 0.364489 0.265734 0.176588
357 4 0.366208 0.288416 0.186968
303 4 0.363358 0.300238 0.20297
301 2 0.367358 0.318697 0.219355
2751 4 0.00398315 0.390748 0.217915
2610 4 0.0421027 0.345042 0.189312
2750 4 0.0233768 0.352006 0.192942
391 2 0.026799 0.416015 0.244668
2749 2 0.01368 0.371377 0.205428
393 4 0.00849948 0.403672 0.232923
914 4 0.162324 0.39275 0.24325
705 4 0.16024 0.356454 0.18009
475 2 0.243799 0.351509 0.210259
735 4 0.172468 0.354315 0.195774
476 4 0.230594 0.349009 0.189174
733 2 0.175221 0.369201 0.215674
734 4 0.177975 0.384086 0.235574
477 4 0.257004 0.354009 0.231343
611 4 0.290254 0.368408 0.214178
610 2 0.289237 0.37117 0.189349
302 4 0.371358 0.337155 0.23574
308 4 0.354147 0.34793 0.235481
307 2 0.348339 0.368087 0.249088
270 4 0.427221 0.413513 0.228871
2694 4 0.0287916 0.464234 0.197293
2692 2 0.00441021 0.468124 0.201242
1559 4 0.198209 0.489611 0.19106
506 4 0.194649 0.476864 0.175632
1311 4 0.266178 0.473594 0.220696
1309 2 0.253944 0.491169 0.233603
268 2 0.451521 0.419161 0.230537
269 4 0.475822 0.424809 0.232202
2480 4 0.00811333 0.0188507 0.306858
1850 4 0.0894655 0.0481977 0.271165
1463 4 0.094834 0.0662915 0.262232
1849 2 0.112307 0.0380278 0.27117
1796 4 0.152225 0.0224763 0.263431
1851 4 0.135149 0.027858 0.271176
732 4 0.190882 0.0696311 0.306707
684 4 0.195565 0.0755842 0.289043
730 2 0.203538 0.0688119 0.328256
693 4 0.289305 0.0127022 0.337247
1729 2 0.40925 6.77452e-06 0.267091
310 2 0.397436 0.0802013 0.251318
312 4 0.383628 0.0725684 0.270715
1731 4 0.432763 0.00757882 0.270963
2519 4 0.494311 0.0340908 0.25623
2518 2 0.498928 0.0430053 0.27913
1030 2 0.488806 0.0409896 0.333594
366 4 0.99959 0.149652 0.302334
1464 4 0.0727776 0.109336 0.249527
1462 2 0.0838058 0.0878137 0.25588
683 4 0.166849 0.100758 0.256757
682 2 0.181207 0.088171 0.2729
3270 4 0.472526 0.127569 0.275398
3268 2 0.486546 0.126019 0.296042
3269 4 0.500567 0.124468 0.316687
254 4 0.452925 0.158021 0.254235
409 2 0.177964 0.172768 0.288818
410 4 0.174065 0.186166 0.26807
411 4 0.181864 0.15937 0.309565
489 4 0.195512 0.169575 0.320128
2463 4 0.178818 0.199299 0.252644
2836 2 0.493611 0.210673 0.273822
2838 4 0.477956 0.216578 0.255242
255 4 0.451649 0.184617 0.296564
253 2 0.452287 0.171319 0.275399
681 4 0.0134221 0.299667 0.320326
2584 2 0.0915228 0.253505 0.329591
2586 4 0.0983444 0.259272 0.306237
1756 2 0.133816 0.279669 0.297559
1757 4 0.149377 0.299 0.294495
1758 4 0.118256 0.260339 0.300622
678 4 0.235507 0.299849 0.333739
5 3 0.230121 0.333789 0.310961
117 3 0.336579 0.331087 0.305724
116 1 0.347263 0.31094 0.302708
119 3 0.349333 0.306879 0.279957
120 3 0.367877 0.311864 0.312344
118 3 0.334631 0.294193 0.312627
437 4 0.372742 0.331709 0.312448
514 2 0.494261 0.266511 0.272585
231 4 0.428942 0.26568 0.311363
230 4 0.453821 0.285809 0.272936
229 2 0.441382 0.275744 0.292149
516 4 0.470304 0.273581 0.273699
915 4 0.13397 0.391104 0.28441
913 2 0.148147 0.391927 0.26383
344 4 0.140085 0.397428 0.303272
465 4 0.0990022 0.408024 0.245273
1 1 0.239136 0.336635 0.33168
402 4 0.243235 0.343227 0.297917
401 4 0.259266 0.349559 0.250974
446 4 0.320674 0.334856 0.314956
400 2 0.251251 0.346393 0.274445
445 2 0.296282 0.337911 0.319522
1453 2 0.314734 0.402079 0.275737
752 4 0.288912 0.404848 0.298973
1455 4 0.306058 0.415077 0.295255
1454 4 0.323411 0.389082 0.256219
447 4 0.271889 0.340966 0.324089
2 3 0.256986 0.351075 0.330257
309 4 0.342531 0.388244 0.262695
436 2 0.373628 0.352568 0.326208
1582 2 0.494208 0.409027 0.267346
463 2 0.0805388 0.422499 0.25392
392 4 0.0450985 0.428359 0.256413
464 4 0.0620754 0.436974 0.262566
415 2 0.0139054 0.427426 0.325394
343 2 0.145761 0.417107 0.317615
1319 4 0.180881 0.502656 0.31322
753 4 0.252089 0.438665 0.300065
751 2 0.270501 0.421756 0.299519
668 4 0.431481 0.489179 0.320686
1584 4 0.488758 0.417351 0.244408
2923 2 0.468216 0.492052 0.331612
2924 4 0.49136 0.500725 0.327827
731 4 0.216194 0.0679926 0.349804
1059 4 0.224073 0.0269273 0.393064
1058 4 0.209335 0.0492646 0.35082
1057 2 0.216704 0.0380959 0.371942
893 4 0.204823 0.0237696 0.400186
691 2 0.293025 0.03715 0.340941
692 4 0.296744 0.0615978 0.344636
1407 4 0.310836 0.0744194 0.350452
257 4 0.472224 0.00311504 0.352633
1031 4 0.478584 0.0224553 0.346904
256 2 0.450896 0.995544 0.342005
1780 2 0.135222 0.12034 0.417602
1781 4 0.159003 0.127181 0.414021
1405 2 0.325248 0.0936508 0.357352
1406 4 0.33966 0.112882 0.364252
898 2 0.346376 0.14692 0.377255
899 4 0.339753 0.16704 0.390541
900 4 0.352999 0.1268 0.363969
2831 4 0.464536 0.147146 0.404434
1220 4 0.0841483 0.233984 0.406089
291 4 0.102153 0.226349 0.412321
2585 4 0.0847012 0.247738 0.352944
1219 2 0.0889264 0.247478 0.385589
487 2 0.193997 0.177159 0.343905
586 2 0.206612 0.167986 0.397328
587 4 0.201844 0.165903 0.372872
488 4 0.192482 0.184743 0.367682
1479 4 0.316988 0.229475 0.374211
614 4 0.306058 0.237817 0.389061
1477 2 0.322372 0.206015 0.380981
1478 4 0.327756 0.182555 0.387751
679 2 0.0164334 0.318891 0.336028
3108 4 0.00773692 0.287564 0.401532
375 4 0.0228347 0.287966 0.414837
1221 4 0.0937045 0.260973 0.365089
3 3 0.246599 0.316273 0.339932
676 2 0.245086 0.278561 0.342696
677 4 0.254666 0.257273 0.351653
613 2 0.289042 0.250065 0.375436
615 4 0.272027 0.262312 0.36181
2456 4 0.298098 0.325386 0.378041
2455 2 0.319168 0.31255 0.382098
267 4 0.3735 0.255026 0.413272
3308 4 0.385474 0.255303 0.395936
3307 2 0.408808 0.26309 0.400415
2457 4 0.340239 0.299714 0.386154
3309 4 0.432143 0.270876 0.404893
1741 2 0.454446 0.298447 0.401258
1742 4 0.461908 0.317618 0.387047
680 4 0.0194447 0.338114 0.351731
412 2 0.147891 0.406682 0.374442
414 4 0.156992 0.390755 0.357451
431 4 0.208155 0.35488 0.337991
4 3 0.223301 0.345674 0.346031
430 2 0.189433 0.371236 0.340665
432 4 0.170711 0.387591 0.34334
576 4 0.286338 0.343342 0.377218
574 2 0.283925 0.351408 0.400761
438 4 0.374513 0.373426 0.339967
1473 4 0.475935 0.383359 0.394991
1471 2 0.471488 0.358772 0.395936
1472 4 0.467041 0.334186 0.396881
110 3 0.464405 0.397261 0.40291
417 4 0.0354506 0.437655 0.332902
549 4 0.00405911 0.42278 0.375687
345 4 0.151438 0.436785 0.331958
413 4 0.138789 0.422608 0.391433
1444 2 0.13349 0.458455 0.411273
1446 4 0.144563 0.44173 0.396346
107 3 0.471759 0.431343 0.416222
2925 4 0.445071 0.48338 0.335397
399 4 0.0662172 0.0849241 0.45507
317 4 0.0995186 0.0378058 0.441893
342 4 0.119126 0.0348134 0.438342
340 2 0.142445 0.0263182 0.441383
316 2 0.0925699 0.0601493 0.450706
318 4 0.0856212 0.0824928 0.459518
341 4 0.165764 0.017823 0.444423
894 4 0.185305 0.0114028 0.444536
892 2 0.195064 0.0175862 0.422361
2048 4 0.271196 0.0636299 0.430303
2047 2 0.269699 0.0524779 0.452632
2049 4 0.268203 0.041326 0.47496
98 3 0.271189 0.0421362 0.49518
2236 2 0.395603 0.0619821 0.455198
2237 4 0.378753 0.0803498 0.453226
2238 4 0.412452 0.0436143 0.457171
3759 4 0.429022 0.0500115 0.448337
3757 2 0.451012 0.0557892 0.458742
3758 4 0.473002 0.061567 0.469146
1035 4 0.00586842 0.0888559 0.443903
398 4 0.0212383 0.102342 0.44187
397 2 0.0437278 0.093633 0.44847
382 2 0.0805237 0.141191 0.436834
383 4 0.0636239 0.154239 0.449847
1602 4 0.0863351 0.0944403 0.500205
1782 4 0.11144 0.113499 0.421182
384 4 0.0974236 0.128143 0.423822
321 4 0.138651 0.0806271 0.500715
320 4 0.0983956 0.108328 0.49009
319 2 0.118523 0.0944773 0.495403
1152 4 0.204814 0.0904323 0.451677
1151 4 0.16753 0.115395 0.429598
1150 2 0.186172 0.102914 0.440638
1699 2 0.233575 0.15738 0.45349
1701 4 0.242449 0.140985 0.470152
588 4 0.211381 0.17007 0.421784
911 4 0.250831 0.155114 0.480494
910 2 0.266475 0.159062 0.499596
2832 4 0.457202 0.159219 0.452404
2830 2 0.460869 0.153182 0.428419
3354 4 0.0129449 0.196579 0.464143
2460 4 0.0299465 0.205442 0.470964
2459 4 0.0589416 0.172283 0.447289
2458 2 0.0444441 0.188862 0.459126
289 2 0.112519 0.221049 0.434449
290 4 0.122885 0.21575 0.456576
1700 4 0.2247 0.173775 0.436828
1137 4 0.324201 0.235125 0.490948
265 2 0.369957 0.23672 0.429931
266 4 0.366415 0.218415 0.44659
466 2 0.375282 0.21617 0.484742
468 4 0.38027 0.217971 0.460307
3548 4 0.438931 0.192998 0.475123
3547 2 0.433389 0.215845 0.466612
3549 4 0.427847 0.238693 0.4581
374 4 0.0053052 0.301962 0.459531
373 2 0.0140699 0.294964 0.437184
390 4 0.0747499 0.312714 0.437671
1812 4 0.0579734 0.3222 0.441389
388 2 0.0993695 0.308548 0.43637
389 4 0.123989 0.304381 0.435069
510 4 0.1305 0.305116 0.452488
508 2 0.144419 0.31169 0.472192
509 4 0.158337 0.318265 0.491896
434 4 0.269102 0.279698 0.47482
433 2 0.279057 0.263144 0.490697
1135 2 0.333368 0.258142 0.494317
1136 4 0.342535 0.28116 0.497687
857 4 0.357856 0.293345 0.50053
1743 4 0.446984 0.279275 0.415469
2298 4 0.0815918 0.383726 0.443708
1811 4 0.0660555 0.371035 0.4485
1810 2 0.0620144 0.346618 0.444944
2296 2 0.0862767 0.402135 0.459967
570 4 0.165589 0.337351 0.493171
377 4 0.208863 0.384671 0.49845
376 2 0.221718 0.405266 0.492468
239 4 0.319915 0.361527 0.480982
575 4 0.281512 0.359474 0.424305
240 4 0.290277 0.365294 0.440881
238 2 0.305096 0.363411 0.460931
695 4 0.318927 0.377241 0.493868
3220 2 0.413289 0.360332 0.476514
1391 4 0.407885 0.402526 0.474395
3221 4 0.405694 0.383803 0.480588
109 3 0.441155 0.412982 0.428008
106 1 0.46325 0.410593 0.421338
3222 4 0.420883 0.33686 0.47244
1390 2 0.417018 0.413629 0.453937
108 3 0.475775 0.401388 0.438566
1331 4 0.446646 0.410194 0.496416
3539 4 0.00139258 0.418902 0.498095
1445 4 0.122417 0.475181 0.4262
1820 4 0.129092 0.491801 0.433455
2297 4 0.0909616 0.420544 0.476226
852 4 0.100074 0.418148 0.494148
378 4 0.234573 0.425861 0.486487
584 4 0.238868 0.445332 0.48229
928 2 0.310237 0.478365 0.455532
929 4 0.303493 0.459789 0.470849
583 2 0.262892 0.446343 0.475433
585 4 0.286916 0.447353 0.468577
930 4 0.316981 0.496941 0.440214
1392 4 0.426151 0.424731 0.43348
457 2 0.03428 0.0397406 0.52774
458 4 0.038556 0.0642364 0.525122
459 4 0.030004 0.0152449 0.530357
1376 4 0.0344218 0.996014 0.53561
1601 4 0.0426333 0.0709865 0.506592
97 3 0.254898 0.0187761 0.519706
99 3 0.241401 0.0536352 0.515791
1180 2 0.314628 0.0515967 0.515527
100 3 0.274763 0.047782 0.532234
96 1 0.260665 0.0407011 0.515809
1181 4 0.292859 0.0421637 0.52342
1182 4 0.336398 0.0610297 0.507635
939 4 0.385047 0.0507511 0.546195
1162 2 0.359016 0.0202826 0.555701
1164 4 0.367313 0.0410988 0.544609
937 2 0.384354 0.0757324 0.546992
796 2 0.469446 0.0653322 0.553193
797 4 0.490827 0.0611505 0.540923
798 4 0.448066 0.0695138 0.565463
306 4 0.502559 0.0825736 0.504201
1600 2 0.0644842 0.0827134 0.503399
346 2 0.0355422 0.139397 0.531731
348 4 0.0191003 0.120875 0.535163
347 4 0.0519842 0.157919 0.528299
2374 2 0.159146 0.16723 0.555178
2376 4 0.171591 0.158211 0.574899
912 4 0.282118 0.163011 0.518697
44 3 0.340332 0.123805 0.565933
43 3 0.361197 0.150931 0.549402
938 4 0.383661 0.100714 0.547789
41 1 0.361777 0.130191 0.559792
42 3 0.370204 0.114705 0.545016
813 4 0.347522 0.157225 0.535361
45 3 0.375184 0.131085 0.57818
4466 4 0.495278 0.144008 0.510347
4465 2 0.492215 0.119279 0.512411
49 3 0.501235 0.162943 0.511796
4467 4 0.489152 0.09455 0.514476
2447 4 0.0605179 0.175945 0.524298
3276 4 0.0776279 0.182759 0.532822
2446 2 0.0507721 0.198471 0.52907
2448 4 0.0410263 0.220997 0.533842
710 4 0.038364 0.240818 0.531737
3275 4 0.127105 0.175503 0.533033
3274 2 0.102367 0.179131 0.532928
2375 4 0.1467 0.17625 0.535456
651 4 0.240311 0.24864 0.556648
634 2 0.316966 0.212282 0.556231
636 4 0.30748 0.230321 0.570715
635 4 0.326452 0.194243 0.541747
650 4 0.27923 0.250162 0.525283
649 2 0.25977 0.249401 0.540965
435 4 0.289011 0.246591 0.506574
811 2 0.356824 0.17538 0.520903
467 4 0.370295 0.21437 0.509177
812 4 0.366126 0.193536 0.506445
50 3 0.487202 0.180401 0.542061
3641 4 0.458325 0.233054 0.576714
3640 2 0.443064 0.241399 0.558752
3642 4 0.427802 0.249743 0.540791
709 2 0.0345592 0.265528 0.532081
711 4 0.0307543 0.290238 0.532425
856 2 0.374062 0.307945 0.512752
858 4 0.390269 0.322544 0.524975
2355 4 0.423651 0.332049 0.568745
502 2 0.0392054 0.414191 0.50964
504 4 0.0144269 0.412714 0.512644
851 4 0.138636 0.398726 0.519375
1191 4 0.129963 0.347544 0.554247
1189 2 0.136282 0.363411 0.535985
1190 4 0.142601 0.379279 0.517723
1209 4 0.139267 0.355268 0.57148
850 2 0.119355 0.408437 0.506762
568 2 0.184515 0.351872 0.500661
569 4 0.203442 0.366394 0.50815
1212 4 0.288855 0.357603 0.565562
696 4 0.303858 0.386099 0.540721
694 2 0.311393 0.38167 0.517294
2309 4 0.300265 0.40407 0.547307
807 4 0.432765 0.349474 0.565187
805 2 0.42915 0.351905 0.540566
806 4 0.425534 0.354336 0.515945
503 4 0.0639839 0.415668 0.506636
2157 4 0.0983829 0.486783 0.579736
1383 4 0.114191 0.426892 0.563767
2155 2 0.103395 0.493705 0.556238
1381 2 0.13296 0.424541 0.580119
2156 4 0.108407 0.500627 0.53274
2385 4 0.104943 0.499049 0.513257
1951 2 0.195375 0.465493 0.567054
1953 4 0.203759 0.485925 0.555331
1952 4 0.18699 0.445062 0.578777
2308 2 0.29458 0.422447 0.56328
2310 4 0.288894 0.440824 0.579253
2153 4 0.302271 0.4529 0.572874
2152 2 0.294569 0.476342 0.576918
1330 2 0.432854 0.428744 0.505949
1332 4 0.419063 0.447294 0.515482
2116 2 0.483287 0.466593 0.525727
2118 4 0.47233 0.485571 0.537767
2117 4 0.494245 0.447615 0.513686
1271 4 0.0413187 0.0142401 0.62051
1245 4 0.311278 0.0184502 0.649547
1225 2 0.0627272 0.143982 0.625802
1226 4 0.0440713 0.136165 0.611104
3116 4 0.0305018 0.132544 0.597421
3115 2 0.00962851 0.139262 0.609435
1227 4 0.0813831 0.1518 0.640499
1199 4 0.15882 0.148758 0.586055
1284 4 0.0992159 0.14063 0.643387
1282 2 0.122191 0.135287 0.651681
1283 4 0.145165 0.129945 0.659976
1198 2 0.176225 0.133889 0.596112
1200 4 0.19363 0.119019 0.606168
921 4 0.207333 0.128575 0.617577
919 2 0.204713 0.124304 0.642073
1202 4 0.247341 0.115132 0.647466
920 4 0.202093 0.120032 0.666569
951 4 0.233957 0.118756 0.661784
1203 4 0.28625 0.105808 0.617468
1201 2 0.266796 0.11047 0.632467
604 2 0.324353 0.117732 0.598003
605 4 0.302852 0.111586 0.609188
606 4 0.345855 0.123877 0.586818
1097 4 0.364397 0.127037 0.59496
1096 2 0.381467 0.123264 0.612836
1098 4 0.398538 0.119491 0.630711
261 4 0.0280112 0.226492 0.668033
2133 4 0.276986 0.20233 0.634685
2131 2 0.261394 0.201569 0.654217
823 2 0.287967 0.225648 0.60044
825 4 0.275816 0.209338 0.614983
824 4 0.300117 0.241958 0.585896
1065 4 0.410206 0.246413 0.639828
1063 2 0.421732 0.224236 0.640554
1193 4 0.448542 0.189218 0.64145
1064 4 0.433258 0.20206 0.64128
1192 2 0.473506 0.187939 0.642
1194 4 0.498471 0.186659 0.64255
2989 2 0.13315 0.322582 0.659493
2991 4 0.127588 0.329512 0.636122
3191 4 0.393102 0.257931 0.643994
2354 4 0.413566 0.331802 0.617724
2353 2 0.418608 0.331925 0.593234
1268 4 0.431138 0.324754 0.625557
4433 4 0.00214402 0.412697 0.59546
1208 4 0.131564 0.34032 0.618575
1207 2 0.135416 0.347794 0.595027
935 4 0.146766 0.36439 0.655754
897 4 0.126608 0.368498 0.65996
895 2 0.111319 0.38825 0.661085
896 4 0.0960299 0.408002 0.662209
934 2 0.170589 0.362522 0.648393
274 2 0.232338 0.348808 0.644781
275 4 0.207556 0.345511 0.645184
936 4 0.194411 0.360653 0.641032
276 4 0.25712 0.352104 0.644378
947 4 0.271761 0.340477 0.654115
1211 4 0.30693 0.350519 0.611647
1210 2 0.297893 0.354061 0.588605
946 2 0.292973 0.345586 0.641904
948 4 0.314186 0.350695 0.629693
1267 2 0.442579 0.338832 0.642764
1269 4 0.45402 0.352909 0.659972
984 4 0.00744705 0.422176 0.613725
982 2 0.00506175 0.446916 0.616451
1382 4 0.151728 0.42219 0.596471
2171 4 0.151429 0.46767 0.636051
2170 2 0.16527 0.459179 0.617038
1161 4 0.116254 0.492454 0.585535
2172 4 0.179111 0.450688 0.598024
1988 4 0.213004 0.484832 0.661445
1251 4 0.494948 0.473037 0.614548
1911 4 0.435131 0.435445 0.653942
1909 2 0.4566 0.445563 0.661809
1072 2 0.0253489 0.0750221 0.745678
1074 4 0.0150787 0.0523472 0.743323
4508 4 0.00882102 0.0335842 0.738544
2241 4 0.318279 0.0121694 0.718374
1143 4 0.30572 0.0689984 0.739748
2239 2 0.3398 0.0228861 0.725244
2240 4 0.361321 0.0336029 0.732113
1256 4 0.374782 0.019466 0.736698
1255 2 0.399335 0.0206965 0.741261
1144 2 0.455205 0.052565 0.735042
1257 4 0.423888 0.021927 0.745823
1145 4 0.440255 0.0340192 0.74264
1146 4 0.470155 0.0711108 0.727444
945 4 0.0285858 0.163952 0.693933
4520 4 0.121421 0.102562 0.731324
4519 2 0.143679 0.0989102 0.742115
1130 4 0.157899 0.14096 0.670399
1184 4 0.10529 0.0917437 0.736897
1129 2 0.167518 0.146884 0.692705
950 4 0.249738 0.124387 0.708901
949 2 0.241848 0.121572 0.685342
1131 4 0.177137 0.152808 0.715011
977 4 0.269966 0.129733 0.73334
1005 4 0.26187 0.115072 0.723119
1003 2 0.281125 0.0993062 0.72554
1004 4 0.30038 0.0835401 0.72796
976 2 0.260949 0.15261 0.72881
2264 4 0.477262 0.0888273 0.723597
2974 2 0.426572 0.159352 0.734996
2263 2 0.468857 0.109269 0.735286
2265 4 0.460451 0.129712 0.746976
259 2 0.00304269 0.225613 0.669021
3374 4 0.0370594 0.242758 0.675874
943 2 0.011251 0.176733 0.706635
1296 4 0.165306 0.228357 0.745141
816 4 0.171902 0.233136 0.726107
1154 4 0.18947 0.168612 0.709263
1155 4 0.236732 0.183916 0.714988
1153 2 0.213101 0.176264 0.712126
2132 4 0.245802 0.200808 0.673749
978 4 0.251933 0.175487 0.724279
981 4 0.386755 0.250393 0.700449
2975 4 0.42789 0.179297 0.719974
905 4 0.441719 0.182165 0.705796
904 2 0.456665 0.200577 0.697873
906 4 0.471611 0.21899 0.68995
3474 4 0.480441 0.216466 0.707592
3373 2 0.0589621 0.249399 0.685941
3375 4 0.0808649 0.25604 0.696008
1260 4 0.100272 0.261007 0.699977
2990 4 0.138711 0.315652 0.682865
1259 4 0.123328 0.304251 0.690024
1258 2 0.1118 0.282629 0.695
814 2 0.185226 0.253976 0.722455
879 4 0.201846 0.293389 0.711768
815 4 0.19855 0.274816 0.718802
877 2 0.210134 0.310819 0.727665
878 4 0.218421 0.328248 0.743562
3190 2 0.383763 0.259943 0.667101
3192 4 0.374424 0.261954 0.690207
979 2 0.38359 0.251004 0.725244
3371 4 0.408409 0.313696 0.747441
3372 4 0.45086 0.315368 0.721063
3370 2 0.429635 0.314532 0.734252
3113 4 0.463868 0.302629 0.728703
3112 2 0.483677 0.31749 0.725249
3164 4 0.0161285 0.330472 0.729984
2358 4 0.0897677 0.40222 0.68039
2016 4 0.223545 0.344123 0.73064
2014 2 0.221742 0.364774 0.744621
662 4 0.357357 0.387028 0.722855
661 2 0.359994 0.402809 0.70364
1265 4 0.346439 0.389993 0.739926
4182 4 0.445273 0.395965 0.741048
2356 2 0.081389 0.420177 0.695638
1883 4 0.0218765 0.490232 0.676269
2357 4 0.0730102 0.438135 0.710886
3302 4 0.0747498 0.457813 0.715536
3301 2 0.0668322 0.481514 0.716405
4481 4 0.139553 0.442802 0.737081
2796 4 0.141782 0.429197 0.721067
4175 4 0.113959 0.492389 0.710571
4174 2 0.130346 0.497976 0.728611
2794 2 0.143687 0.433349 0.696484
2795 4 0.145592 0.437501 0.671901
1989 4 0.192869 0.451452 0.692766
1987 2 0.202937 0.468142 0.677105
4484 4 0.377995 0.429018 0.67603
663 4 0.362632 0.41859 0.684426
4483 2 0.402674 0.427164 0.67247
4485 4 0.427353 0.425309 0.668909
1910 4 0.478068 0.455682 0.669677
1138 2 0.463113 0.482707 0.746706
4180 2 0.457488 0.417765 0.741895
4181 4 0.469704 0.439565 0.742742
1140 4 0.46164 0.45775 0.746329
1686 4 0.147214 0.00476353 0.772241
1685 4 0.138639 0.0536377 0.778446
1684 2 0.142926 0.0292006 0.775343
1082 4 0.207748 0.00731835 0.784322
1081 2 0.198587 0.0302797 0.788068
1083 4 0.189426 0.0532411 0.791813
2114 4 0.176506 0.062129 0.803996
2113 2 0.173475 0.0809781 0.787849
1141 2 0.320151 0.0749465 0.759281
826 2 0.313096 0.0305348 0.819197
828 4 0.289864 0.0331361 0.828068
827 4 0.336328 0.0279334 0.810327
87 3 0.332317 0.0393041 0.792208
1142 4 0.334581 0.0808947 0.778815
88 3 0.355449 0.0417437 0.762685
2199 4 0.350802 0.0135941 0.805489
86 1 0.354395 0.040196 0.785813
89 3 0.36425 0.0588575 0.795458
1241 4 0.36072 0.0773339 0.800564
90 3 0.365006 0.0213053 0.792828
2064 4 0.461866 0.0108143 0.776601
1073 4 0.0356192 0.0976971 0.748033
1185 4 0.0671999 0.103796 0.766973
1183 2 0.086245 0.09777 0.751935
4521 4 0.165937 0.0952588 0.752906
2115 4 0.170445 0.0998272 0.771703
1261 2 0.282949 0.129061 0.826432
1263 4 0.275399 0.145176 0.808868
975 4 0.273438 0.147414 0.789919
1242 4 0.330245 0.114847 0.813399
557 4 0.412557 0.125565 0.742481
1240 2 0.345483 0.0960906 0.806981
556 2 0.389099 0.122525 0.750586
558 4 0.365642 0.119485 0.75869
1008 4 0.403738 0.129419 0.818919
2976 4 0.425254 0.139407 0.750017
1006 2 0.418434 0.120394 0.800814
2793 4 0.465276 0.134221 0.76621
1007 4 0.433129 0.111369 0.78271
2791 2 0.48317 0.146299 0.778824
2843 4 0.465458 0.115938 0.819012
1055 4 0.0577748 0.246451 0.805808
822 4 0.156571 0.205444 0.809503
1295 4 0.15236 0.211525 0.790416
1294 2 0.158833 0.219941 0.767779
820 2 0.174259 0.213301 0.825333
1276 2 0.229479 0.208467 0.817836
1278 4 0.208411 0.211911 0.830853
974 4 0.246294 0.189314 0.792807
1277 4 0.250548 0.205023 0.80482
973 2 0.259866 0.168364 0.791363
2986 2 0.379498 0.241627 0.780063
2987 4 0.370663 0.22205 0.792864
2907 4 0.386544 0.210573 0.793867
2905 2 0.398833 0.190351 0.801944
2906 4 0.411121 0.170129 0.81002
1014 4 0.412457 0.17574 0.828768
1054 2 0.0645828 0.270463 0.804302
1056 4 0.0713908 0.294474 0.802796
989 4 0.0785096 0.30965 0.792294
988 2 0.0897092 0.331465 0.787409