ITEM: TIMESTEP
10000
ITEM: NUMBER OF ATOMS
1600
ITEM: BOX BOUNDS pp pp pp
-6.9325799999999997e+00 6.9325799999999997e+00
-6.9325799999999997e+00 6.9325799999999997e+00
-6.9325799999999997e+00 6.9325799999999997e+00
ITEM: ATOMS id type xs ys zs
19 3 0.0686605 0.0697637 0.111671
383 2 0.181492 0.0375765 0.0201377
385 4 0.167919 0.0631145 0.0416789
672 4 0.249481 0.00868068 0.0826134
373 4 0.340785 0.0450014 0.0444924
371 2 0.342048 0.0249406 0.0744325
323 2 0.277261 0.116065 0.0171891
324 4 0.261153 0.0898047 0.0359335
411 4 0.440212 0.0660954 0.085324
410 2 0.422099 0.0831941 0.111401
1088 2 0.493574 0.0377143 0.0178919
1089 4 0.47985 0.0622643 0.0404611
1008 4 0.00155917 0.169154 0.066854
405 4 0.224361 0.139494 0.995311
262 4 0.142136 0.154878 0.119941
337 4 0.233926 0.200869 0.0945655
406 4 0.174816 0.139052 0.0477221
404 2 0.199589 0.139273 0.0215168
320 2 0.248974 0.242016 0.00300546
272 2 0.40853 0.183917 0.0932904
273 4 0.388266 0.154777 0.0996708
274 4 0.428793 0.213057 0.08691
1084 4 0.490215 0.128792 0.00768094
313 4 0.107189 0.263475 0.0830912
356 2 0.0645324 0.356071 0.0578699
357 4 0.0347852 0.373939 0.0676822
358 4 0.0942796 0.338203 0.0480577
311 2 0.111105 0.275029 0.117027
322 4 0.240172 0.242151 0.037976
305 2 0.427549 0.275979 0.0546668
306 4 0.451695 0.249315 0.0572009
307 4 0.403403 0.302643 0.0521327
266 2 0.136186 0.493476 0.0579824
268 4 0.157105 0.469787 0.0406147
271 4 0.217129 0.374837 0.0364994
269 2 0.248963 0.38569 0.0495097
270 4 0.280797 0.396542 0.0625201
290 2 0.290548 0.489249 0.00708243
251 2 0.475291 0.443621 0.0561201
252 4 0.464769 0.410079 0.0480811
353 2 0.401868 0.461043 0.119224
354 4 0.374011 0.438961 0.113158
253 4 0.485813 0.477164 0.0641591
16 1 0.0860719 0.0899858 0.131866
17 3 0.0840474 0.121019 0.12031
18 3 0.0732398 0.0890875 0.162761
20 3 0.117579 0.0807278 0.132544
417 4 0.232355 0.124993 0.220638
21 1 0.340144 0.0631601 0.233457
24 3 0.354525 0.058019 0.203679
25 3 0.344566 0.0943355 0.242805
22 3 0.307641 0.0570328 0.230871
28 3 0.292228 0.124275 0.221653
412 4 0.403986 0.100293 0.137478
308 2 0.483148 0.113541 0.227834
310 4 0.455793 0.103144 0.248906
343 4 0.120446 0.161704 0.247877
261 4 0.211136 0.148456 0.139927
260 2 0.176636 0.151667 0.129934
298 4 0.234824 0.233819 0.204399
335 2 0.253454 0.213342 0.122197
26 1 0.303077 0.151906 0.237104
27 3 0.303419 0.176937 0.215332
336 4 0.272983 0.225815 0.149829
29 3 0.334148 0.147125 0.248581
380 2 0.461754 0.189934 0.233234
381 4 0.483536 0.162628 0.22427
382 4 0.439972 0.21724 0.242198
415 4 0.0687011 0.322725 0.182872
414 4 0.0250583 0.276493 0.216926
413 2 0.0468797 0.299609 0.199899
312 4 0.115021 0.286583 0.150962
327 4 0.172818 0.252728 0.215857
296 2 0.263748 0.254556 0.198584
297 4 0.292672 0.275293 0.192769
15 3 0.345476 0.34658 0.170612
13 3 0.38926 0.314826 0.165764
11 1 0.377705 0.344329 0.176532
12 3 0.39351 0.368594 0.160342
14 3 0.383548 0.347609 0.20932
283 4 0.0067904 0.393409 0.204063
281 2 0.0402108 0.400672 0.192627
282 4 0.0736312 0.407934 0.181192
299 2 0.163341 0.436597 0.165596
300 4 0.199218 0.435575 0.162099
301 4 0.127464 0.437618 0.169093
355 4 0.429725 0.483125 0.12529
130 3 0.489765 0.409236 0.22633
258 4 0.00773456 0.0346005 0.293586
332 2 0.0860321 0.104539 0.351528
334 4 0.110365 0.0780231 0.353816
333 4 0.0616989 0.131055 0.34924
667 4 0.131372 0.00347383 0.246998
416 2 0.221637 0.113681 0.253159
418 4 0.210919 0.10237 0.28568
329 2 0.229004 0.112972 0.365615
23 3 0.353282 0.0424414 0.256218
276 4 0.426426 0.075417 0.35703
368 2 0.483217 0.0557896 0.292548
370 4 0.45672 0.0680205 0.271365
342 4 0.0547835 0.144629 0.272344
341 2 0.087615 0.153166 0.26011
396 4 0.0968083 0.215991 0.331366
331 4 0.200862 0.126152 0.347317
395 2 0.127552 0.198042 0.337122
397 4 0.158295 0.180094 0.342879
30 3 0.282987 0.159465 0.261965
326 2 0.155295 0.263462 0.245491
328 4 0.137773 0.274195 0.275126
377 2 0.205487 0.353401 0.355744
378 4 0.236465 0.335873 0.349948
379 4 0.17451 0.370928 0.36154
374 2 0.284844 0.287736 0.316644
375 4 0.305482 0.259217 0.324465
376 4 0.264205 0.316255 0.308824
996 4 0.494476 0.34688 0.294482
389 2 0.410578 0.307302 0.291352
390 4 0.419707 0.276085 0.275777
391 4 0.401448 0.338519 0.306927
392 2 0.084547 0.403783 0.296319
393 4 0.0624455 0.398817 0.324378
394 4 0.106648 0.40875 0.268261
338 2 0.17543 0.502382 0.280128
340 4 0.156989 0.47217 0.273226
346 4 0.179214 0.398 0.372948
3 3 0.359969 0.487169 0.356854
256 4 0.348583 0.485565 0.2539
5 3 0.324209 0.447679 0.367375
349 4 0.299695 0.385595 0.375916
400 4 0.330023 0.386062 0.306601
398 2 0.364441 0.387827 0.317219
254 2 0.382539 0.479701 0.264534
255 4 0.416494 0.473838 0.275168
399 4 0.398859 0.389592 0.327837
633 4 0.0359283 0.998158 0.385545
559 4 0.0988586 0.0845586 0.481882
314 2 0.18324 0.0492436 0.461155
316 4 0.1648 0.0241359 0.442988
31 1 0.240515 0.114514 0.492911
33 3 0.229278 0.0870914 0.477365
315 4 0.20168 0.0743512 0.479321
330 4 0.257145 0.0997916 0.383912
35 3 0.273328 0.115401 0.491752
726 4 0.318179 0.0180521 0.41173
275 2 0.457488 0.0735791 0.375256
277 4 0.488551 0.0717413 0.393482
408 4 0.428235 0.0519225 0.447493
407 2 0.449656 0.0310157 0.467604
278 2 0.077 0.206921 0.473039
279 4 0.0798568 0.206801 0.437091
359 2 0.00802842 0.181133 0.435206
360 4 0.0361154 0.161426 0.446306
34 3 0.227833 0.141876 0.478405
293 2 0.236159 0.244127 0.419562
295 4 0.208718 0.233796 0.440554
365 2 0.35003 0.157162 0.412325
367 4 0.341118 0.178139 0.440271
366 4 0.358942 0.136185 0.38438
465 4 0.409951 0.234022 0.498799
1027 4 0.495437 0.135632 0.420065
317 2 0.0439093 0.304228 0.411603
318 4 0.0799318 0.304717 0.409997
319 4 0.00788673 0.30374 0.413208
6 1 0.166298 0.303666 0.481354
9 3 0.16768 0.276046 0.462508
7 3 0.166094 0.330221 0.461467
8 3 0.138271 0.303629 0.49964
10 3 0.192535 0.305111 0.501061
294 4 0.263601 0.254458 0.398569
286 4 0.351791 0.256032 0.429969
284 2 0.35846 0.263587 0.464594
285 4 0.365129 0.271142 0.499218
288 4 0.451634 0.271117 0.38808
287 2 0.481235 0.29145 0.39136
386 2 0.065296 0.434007 0.480245
387 4 0.0313722 0.445613 0.476381
388 4 0.0992198 0.422402 0.48411
401 2 0.231414 0.438476 0.474898
345 4 0.123598 0.425166 0.409969
344 2 0.151406 0.411583 0.391458
1 1 0.336511 0.476201 0.378053
348 4 0.339991 0.407519 0.431569
347 2 0.319843 0.396557 0.403742
4 3 0.349643 0.472258 0.40858
403 4 0.255907 0.438038 0.448434
263 2 0.367241 0.394094 0.475891
352 4 0.492746 0.489382 0.379739
264 4 0.383454 0.423897 0.463669
557 2 0.0968743 0.0728924 0.515946
558 4 0.0948899 0.0612263 0.550011
444 4 0.174084 0.0195903 0.594372
32 3 0.230719 0.113655 0.524597
443 2 0.151514 0.0253529 0.621901
529 4 0.25751 0.0681262 0.558805
527 2 0.285295 0.0519868 0.575174
528 4 0.313081 0.0358473 0.591543
104 3 0.384931 0.0145672 0.527615
1111 4 0.477797 0.0348272 0.618488
1109 2 0.491365 0.0596917 0.596169
470 2 0.0738632 0.247056 0.545029
471 4 0.0559426 0.222675 0.525411
280 4 0.0741432 0.207042 0.508987
550 4 0.164519 0.140056 0.609944
491 2 0.299774 0.235657 0.520613
493 4 0.308868 0.200761 0.52063
450 4 0.394661 0.178894 0.611853
464 2 0.408656 0.234442 0.534835
466 4 0.407361 0.234862 0.570871
487 4 0.499684 0.247966 0.613445
1237 4 0.475427 0.144624 0.505807
472 4 0.0917837 0.271437 0.564647
506 2 0.0374627 0.330996 0.557488
507 4 0.00786819 0.325791 0.537551
508 4 0.0670572 0.336202 0.577426
570 4 0.0813068 0.336788 0.602852
569 2 0.0921306 0.371036 0.606064
1137 4 0.00748369 0.260052 0.552859
481 4 0.186008 0.371696 0.586677
429 4 0.309989 0.266081 0.571626
436 4 0.23948 0.352913 0.518354
428 2 0.287732 0.253749 0.597179
430 4 0.265474 0.241418 0.622732
434 2 0.273331 0.362367 0.526427
492 4 0.290681 0.270554 0.520597
435 4 0.307183 0.37182 0.5345
265 4 0.351027 0.364291 0.488113
804 4 0.036319 0.47592 0.529144
803 2 0.0323722 0.497097 0.558065
571 4 0.102954 0.405285 0.609276
480 4 0.151637 0.428587 0.614675
479 2 0.168823 0.400142 0.600676
402 4 0.206921 0.438914 0.501362
473 2 0.319435 0.476317 0.518822
474 4 0.353782 0.475911 0.507842
475 4 0.285088 0.476723 0.529802
554 2 0.404798 0.457245 0.627491
555 4 0.43423 0.4711 0.611927
560 2 0.0543277 0.0438208 0.684361
561 4 0.0335969 0.015728 0.675334
562 4 0.0750585 0.0719135 0.693387
445 4 0.128944 0.0311154 0.64943
581 2 0.203126 0.0814631 0.731262
582 4 0.219826 0.0655541 0.703541
904 4 0.270659 0.00469785 0.662352
451 4 0.373876 0.122436 0.65163
46 1 0.431701 0.0640552 0.699445
47 3 0.446715 0.0778792 0.725602
48 3 0.406515 0.0448848 0.710312
49 3 0.419875 0.0883333 0.679681
50 3 0.453408 0.045745 0.682941
461 2 0.040515 0.182404 0.663142
462 4 0.0510185 0.192834 0.696026
463 4 0.0300114 0.171974 0.630259
548 2 0.170694 0.14629 0.644922
549 4 0.176869 0.152524 0.6799
563 2 0.228125 0.186712 0.733337
565 4 0.229172 0.200604 0.700075
446 2 0.322486 0.174578 0.685894
447 4 0.356683 0.182973 0.693674
448 4 0.28829 0.166182 0.678113
449 2 0.384269 0.150665 0.631742
53 3 0.429945 0.1681 0.749321
476 2 0.0750433 0.359571 0.697693
477 4 0.0848214 0.324876 0.698713
576 4 0.0659178 0.260612 0.707837
575 2 0.0450319 0.26636 0.679007
577 4 0.024146 0.272109 0.650177
440 2 0.142473 0.312256 0.716098
441 4 0.14979 0.288394 0.69007
515 2 0.199666 0.369647 0.740445
442 4 0.135157 0.336119 0.742127
437 2 0.346608 0.323583 0.699992
439 4 0.312929 0.310842 0.701967
438 4 0.380286 0.336323 0.698017
521 2 0.439454 0.284859 0.687528
522 4 0.454015 0.286071 0.654559
523 4 0.424893 0.283646 0.720497
535 4 0.412886 0.289348 0.746531
820 4 0.0268532 0.488309 0.736145
478 4 0.0652652 0.394267 0.696673
545 2 0.0877765 0.434834 0.718281
546 4 0.0701961 0.422416 0.689348
547 4 0.105357 0.447252 0.747215
566 2 0.190146 0.475527 0.626702
517 4 0.202139 0.378078 0.70547
525 4 0.210256 0.405587 0.705585
568 4 0.167319 0.447768 0.629674
524 2 0.242821 0.414517 0.692927
526 4 0.275386 0.423447 0.68027
556 4 0.375367 0.44339 0.643055
542 2 0.456923 0.427839 0.696271
543 4 0.467929 0.408888 0.667633
544 4 0.445916 0.44679 0.72491
538 4 0.121786 0.0152333 0.772297
536 2 0.095702 0.0400368 0.774494
537 4 0.0696175 0.0648402 0.776691
583 4 0.186425 0.0973721 0.758982
467 2 0.243701 0.0328858 0.852276
468 4 0.208917 0.0297538 0.843292
579 4 0.144817 0.0706755 0.865239
502 4 0.313314 0.0813861 0.805399
114 3 0.377781 8.91186e-05 0.811872
500 2 0.325594 0.10403 0.830636
469 4 0.278485 0.0360177 0.861259
454 4 0.00304969 0.145475 0.788403
39 3 0.12668 0.138049 0.801257
40 3 0.0858185 0.16707 0.822162
452 2 0.0349163 0.160573 0.795953
453 4 0.066783 0.175672 0.803502
36 1 0.117361 0.167952 0.813044
38 3 0.121809 0.191379 0.789564
420 4 0.0838773 0.247659 0.831275
564 4 0.227079 0.172819 0.766599
37 3 0.136136 0.175435 0.839353
489 4 0.241159 0.257776 0.810296
501 4 0.337873 0.126673 0.855874
1228 4 0.478501 0.146949 0.782054
51 1 0.434072 0.175028 0.7818
52 3 0.404508 0.174024 0.796822
54 3 0.446994 0.205689 0.785389
55 3 0.45396 0.152804 0.795561
534 4 0.433292 0.229973 0.782028
419 2 0.0776097 0.278181 0.813123
421 4 0.071342 0.308704 0.79497
65 3 0.186189 0.269058 0.869854
63 3 0.178283 0.316801 0.845218
516 4 0.197193 0.361216 0.77542
488 2 0.273436 0.263187 0.795151
490 4 0.305713 0.268598 0.780007
519 4 0.369003 0.368033 0.822333
533 2 0.423089 0.259661 0.764279
458 2 0.0415681 0.465722 0.842666
460 4 0.0279202 0.432444 0.84007
422 2 0.240975 0.426826 0.869129
423 4 0.230926 0.424231 0.834593
518 2 0.36018 0.40299 0.823108
520 4 0.351357 0.437947 0.823882
482 2 0.478871 0.400238 0.812329
484 4 0.459631 0.424498 0.830815
780 4 0.0515261 0.0218792 0.874
426 4 0.0250757 0.0238918 0.884282
552 4 0.101885 0.0908861 0.970751
362 2 0.0248279 0.087363 0.996974
363 4 0.0500488 0.112997 0.994284
580 4 0.160817 0.0149054 0.90808
578 2 0.152817 0.0427904 0.886659
384 4 0.195065 0.0120385 0.998597
572 2 0.287914 0.0666799 0.941467
573 4 0.317396 0.0461775 0.938162
574 4 0.258433 0.0871823 0.944773
510 4 0.338398 0.0610535 0.952897
509 2 0.369424 0.0609079 0.971276
1234 4 0.495786 0.0299249 0.914329
511 4 0.400451 0.0607623 0.989655
551 2 0.0884319 0.124343 0.970443
553 4 0.0749791 0.1578 0.970136
455 2 0.109771 0.216716 0.946621
456 4 0.125132 0.187027 0.93309
56 1 0.249984 0.170588 0.91397
57 3 0.24683 0.148351 0.938389
59 3 0.243518 0.155578 0.884767
60 3 0.228738 0.195148 0.918894
58 3 0.2813 0.182389 0.914063
504 4 0.345453 0.209944 0.897073
321 4 0.257777 0.241881 0.968035
503 2 0.331849 0.24016 0.882849
325 4 0.293369 0.142326 0.998445
530 2 0.423866 0.184191 0.963413
531 4 0.433699 0.151502 0.975041
532 4 0.414033 0.21688 0.951786
457 4 0.0944095 0.246404 0.960151
61 1 0.185823 0.301629 0.874078
62 3 0.162803 0.309463 0.896648
64 3 0.215683 0.312061 0.885009
505 4 0.318245 0.270377 0.868626
539 2 0.451117 0.320464 0.916807
540 4 0.430436 0.344238 0.934344
541 4 0.471798 0.29669 0.89927
512 2 0.109932 0.450924 0.905153
495 4 0.0807067 0.399159 0.939721
494 2 0.0524275 0.405961 0.961039
496 4 0.0241482 0.412763 0.982357
514 4 0.0821152 0.434274 0.920946
513 4 0.13775 0.467574 0.88936
432 4 0.176262 0.486453 0.928632
292 4 0.268844 0.461036 0.00130268
44 3 0.350846 0.423133 0.95203
424 4 0.251024 0.429421 0.903664
43 3 0.361091 0.375361 0.927182
41 1 0.373809 0.405139 0.935634
42 3 0.399927 0.40039 0.955533
45 3 0.383517 0.421232 0.908696
1318 4 0.00205029 0.592306 0.0724243
267 4 0.115266 0.517166 0.07535
628 4 0.126864 0.607311 0.039438
738 4 0.247582 0.564022 0.0253046
66 1 0.347398 0.574669 0.0816877
68 3 0.338947 0.560365 0.0526374
69 3 0.342523 0.607734 0.0799867
291 4 0.312253 0.517461 0.0128622
67 3 0.328237 0.562226 0.105744
70 3 0.378883 0.568322 0.0885633
754 4 0.49144 0.50514 0.11468
663 4 0.0226822 0.732125 0.0389115
912 4 0.00922932 0.626717 0.0468322
615 4 0.0474798 0.738958 0.0837467
911 2 0.0217815 0.636179 0.0143767
607 4 0.194364 0.732622 0.0573346
626 2 0.143401 0.639332 0.0407238
638 2 0.237149 0.711874 0.0810298
640 4 0.208153 0.706093 0.0603848
627 4 0.159937 0.671353 0.0420096
639 4 0.266146 0.717656 0.101675
783 4 0.343911 0.676052 0.0431609
621 4 0.331318 0.669649 0.10589
782 2 0.328898 0.670242 0.0108919
76 1 0.456603 0.651797 0.0749295
77 3 0.456667 0.629937 0.0998857
78 3 0.487397 0.65347 0.0619344
79 3 0.434905 0.641532 0.0516112
80 3 0.447653 0.681255 0.0863739
188 3 0.475393 0.739529 0.0719543
662 2 0.0498725 0.747751 0.0211083
664 4 0.0770627 0.763377 0.0033051
740 2 0.0984811 0.80617 0.0552057
742 4 0.0856748 0.83649 0.0699426
741 4 0.111287 0.775851 0.0404688
74 3 0.0227487 0.864405 0.0249944
614 2 0.0387215 0.753018 0.115779
605 2 0.18622 0.767034 0.0502691
606 4 0.178077 0.801446 0.0432035
611 2 0.309195 0.854619 0.00301299
612 4 0.331493 0.83428 0.0227505
613 4 0.286898 0.874958 0.983276
81 1 0.424918 0.818406 0.00701617
82 3 0.392982 0.81231 0.000411125
83 3 0.429475 0.817503 0.0401576
84 3 0.443685 0.794954 0.99226
85 3 0.432893 0.848081 0.995412
748 4 0.103128 0.875047 0.0293962
671 2 0.252939 0.973036 0.0868469
746 2 0.125486 0.903335 0.0299776
747 4 0.147844 0.931623 0.030559
673 4 0.256397 0.937391 0.0910804
590 2 0.360305 0.922626 0.111758
372 4 0.343311 0.00487988 0.104373
591 4 0.374296 0.908426 0.0817066
656 2 0.432053 0.879283 0.125994
657 4 0.409386 0.904165 0.11305
587 2 0.048697 0.537422 0.221979
588 4 0.061125 0.563293 0.200146
650 2 0.233538 0.56248 0.20774
651 4 0.212765 0.539589 0.226311
652 4 0.254312 0.585371 0.189168
752 2 0.483151 0.535152 0.132874
762 4 0.465782 0.590067 0.147675
761 2 0.492241 0.614237 0.151692
674 2 0.45048 0.610912 0.240629
753 4 0.474862 0.565164 0.151068
88 3 0.0874624 0.652709 0.212677
89 3 0.120571 0.694348 0.199467
86 1 0.117347 0.661045 0.200133
90 3 0.120561 0.648866 0.169798
87 3 0.141054 0.648361 0.219569
620 2 0.332576 0.670243 0.141925
622 4 0.333834 0.670837 0.17796
629 2 0.320532 0.708377 0.220994
631 4 0.312295 0.739755 0.236743
630 4 0.328769 0.676999 0.205245
602 2 0.442846 0.734971 0.215678
604 4 0.435971 0.716299 0.245754
675 4 0.45741 0.619216 0.206227
616 4 0.0299633 0.767077 0.147811
93 3 0.103182 0.840286 0.239153
94 3 0.0714672 0.884498 0.24579
1345 4 0.00264007 0.795135 0.214993
694 4 0.144155 0.784179 0.146344
692 2 0.170984 0.807668 0.151724
693 4 0.197814 0.831156 0.157104
699 4 0.218069 0.815258 0.170795
698 2 0.253587 0.820882 0.173497
765 4 0.349863 0.874994 0.247471
700 4 0.289105 0.826505 0.1762
603 4 0.44972 0.753642 0.185602
701 2 0.385158 0.786864 0.19367
702 4 0.401831 0.814223 0.21022
703 4 0.368485 0.759504 0.17712
658 4 0.45472 0.854401 0.138938
644 2 0.0483798 0.995284 0.202726
645 4 0.0788546 0.0031757 0.220317
646 4 0.0179049 0.987392 0.185135
713 2 0.144618 0.965911 0.152295
714 4 0.153208 0.932436 0.162595
715 4 0.136027 0.999385 0.141994
592 4 0.346315 0.936826 0.141809
711 4 0.309377 0.975273 0.240606
589 4 0.0362689 0.511551 0.243812
584 2 0.0969747 0.611175 0.302225
586 4 0.0691022 0.590251 0.311485
723 4 0.232498 0.566705 0.280647
339 4 0.193871 0.532594 0.287029
724 4 0.293447 0.605176 0.278029
670 4 0.348352 0.561539 0.315865
722 2 0.262972 0.585941 0.279338
668 2 0.377004 0.540322 0.321283
669 4 0.405656 0.519105 0.326701
676 4 0.443549 0.602608 0.27503
695 2 0.0419583 0.748963 0.318339
697 4 0.014414 0.737638 0.338674
585 4 0.124847 0.6321 0.292966
596 2 0.1759 0.730092 0.316407
597 4 0.150398 0.706076 0.30784
720 4 0.335125 0.618498 0.377265
759 4 0.492479 0.711645 0.337606
696 4 0.0695027 0.760287 0.298004
95 3 0.103159 0.867166 0.286337
91 1 0.0846524 0.857708 0.260903
92 3 0.0600223 0.83839 0.271896
757 4 0.0125627 0.797608 0.375893
598 4 0.201401 0.754107 0.324975
601 4 0.25463 0.874108 0.280894
766 4 0.346519 0.806993 0.271272
764 2 0.348191 0.840994 0.259372
758 2 0.479218 0.745129 0.335749
760 4 0.465958 0.778612 0.333891
624 4 0.414098 0.860355 0.306594
712 4 0.244328 0.96186 0.268723
665 2 0.131154 0.984925 0.277922
666 4 0.130936 0.966377 0.308847
599 2 0.284836 0.886464 0.296237
600 4 0.315041 0.898819 0.311579
710 2 0.276852 0.968566 0.254665
750 4 0.286109 0.894209 0.368466
706 4 0.428947 0.890183 0.247973
623 2 0.39616 0.877846 0.332531
625 4 0.378223 0.895337 0.358469
681 4 0.392537 0.920627 0.299369
649 4 0.397075 0.949684 0.371801
680 2 0.388106 0.955645 0.291984
682 4 0.383676 0.990663 0.284598
704 2 0.45236 0.889219 0.275384
705 4 0.475773 0.888255 0.302794
636 4 0.0167605 0.505595 0.491131
643 4 0.104012 0.561481 0.470252
641 2 0.131007 0.549407 0.449614
642 4 0.158002 0.537332 0.428976
2 3 0.312164 0.49868 0.379672
659 2 0.341512 0.538038 0.437083
661 4 0.310753 0.519277 0.435545
719 2 0.31077 0.592214 0.381317
721 4 0.286415 0.565931 0.385369
660 4 0.372271 0.556798 0.438622
728 2 0.475048 0.624643 0.416964
730 4 0.47313 0.589623 0.425353
745 4 0.426252 0.568481 0.476354
817 4 0.381785 0.63204 0.486181
734 2 0.0767265 0.639895 0.447184
735 4 0.11245 0.638165 0.442568
736 4 0.0410034 0.641624 0.451801
617 2 0.00245924 0.722255 0.422021
618 4 0.0250542 0.699509 0.43853
916 4 0.21398 0.692431 0.507592
608 2 0.288048 0.673103 0.451985
609 4 0.279393 0.691454 0.481797
610 4 0.296704 0.654751 0.422173
595 4 0.27337 0.718022 0.491043
729 4 0.476967 0.659663 0.408575
709 4 0.387661 0.688776 0.398351
707 2 0.411088 0.712261 0.412497
708 4 0.434515 0.735745 0.426642
1370 2 0.0132163 0.865876 0.50044
756 4 0.069192 0.833915 0.401906
755 2 0.0408774 0.815761 0.388899
678 4 0.069025 0.852029 0.425632
653 2 0.156018 0.812999 0.428655
654 4 0.140373 0.783212 0.415677
655 4 0.171664 0.842785 0.441633
593 2 0.284543 0.750382 0.479709
594 4 0.295717 0.782741 0.468376
686 2 0.32871 0.793723 0.4124
688 4 0.328949 0.829711 0.410111
751 4 0.271036 0.835209 0.407113
687 4 0.32847 0.757735 0.41469
749 2 0.278572 0.864709 0.387789
1354 4 0.507315 0.875722 0.384367
1444 4 0.461784 0.743629 0.429234
677 2 0.0673677 0.887704 0.420631
679 4 0.0657105 0.923378 0.41563
1371 4 0.0384953 0.891591 0.500011
718 4 0.188659 0.940155 0.471175
716 2 0.220921 0.937995 0.455208
690 4 0.166201 0.955089 0.4864
727 4 0.318389 0.962999 0.458322
725 2 0.318284 0.990525 0.435026
717 4 0.253183 0.935835 0.439241
924 4 0.298669 0.90389 0.483362
647 2 0.425169 0.931172 0.38478
648 4 0.453263 0.91266 0.39776
409 4 0.471078 0.0101089 0.487715
1537 4 0.0375601 0.600695 0.616588
805 4 0.0284254 0.518274 0.586985
858 4 0.121583 0.596868 0.629463
878 2 0.170817 0.631342 0.540373
879 4 0.13939 0.619679 0.553668
567 4 0.212972 0.503286 0.623729
815 2 0.362992 0.606645 0.503571
816 4 0.344199 0.581251 0.52096
895 4 0.307056 0.516513 0.611894
788 2 0.472966 0.524612 0.573066
790 4 0.453861 0.55237 0.585907
743 2 0.455368 0.55938 0.495586
744 4 0.484484 0.550279 0.514818
1497 4 0.489154 0.580941 0.611494
789 4 0.492071 0.496853 0.560225
767 2 0.0816148 0.706116 0.562311
768 4 0.102132 0.70367 0.532756
769 4 0.0610975 0.708563 0.591866
880 4 0.202244 0.643005 0.527078
855 4 0.204954 0.753344 0.576801
915 4 0.152633 0.722171 0.531123
914 2 0.183307 0.707301 0.519357
876 4 0.298514 0.628336 0.560238
875 2 0.285458 0.646458 0.58855
877 4 0.272402 0.66458 0.616862
918 4 0.474845 0.743826 0.583818
884 2 0.441849 0.678731 0.53847
885 4 0.460792 0.709415 0.538131
886 4 0.422906 0.648047 0.53881
796 4 0.382407 0.744041 0.630091
775 4 0.0990602 0.853355 0.54576
854 2 0.215609 0.771896 0.605831
919 4 0.497189 0.793686 0.536738
917 2 0.486017 0.768756 0.560278
1513 4 0.470717 0.862492 0.557239
683 2 0.440598 0.839434 0.49895
684 4 0.434636 0.803977 0.496184
685 4 0.446559 0.874892 0.501716
773 2 0.0990605 0.889182 0.541649
774 4 0.0990608 0.925008 0.537537
896 2 0.0297126 0.949465 0.539136
898 4 0.051508 0.936022 0.564527
897 4 0.00791713 0.962908 0.513746
691 4 0.100934 0.938213 0.512035
847 4 0.231526 0.966147 0.592039
689 2 0.133567 0.946651 0.499217
923 2 0.309553 0.888949 0.514325
925 4 0.320437 0.874008 0.545289
845 2 0.264551 0.952747 0.597542
846 4 0.297575 0.939348 0.603046
120 3 0.367467 0.91412 0.619198
102 3 0.366191 0.964303 0.535416
119 3 0.313495 0.919533 0.616636
101 1 0.391457 0.984887 0.541632
103 3 0.419412 0.971967 0.528535
105 3 0.394857 0.988341 0.574118
1535 2 0.0172761 0.624371 0.634712
881 2 0.0513049 0.601496 0.725865
882 4 0.0556117 0.604667 0.690203
844 4 0.112565 0.508369 0.712893
843 4 0.140605 0.5746 0.707511
842 2 0.126585 0.541485 0.710202
890 2 0.171293 0.60646 0.726722
892 4 0.142355 0.602461 0.705579
891 4 0.200232 0.610458 0.747865
821 2 0.341345 0.512507 0.735792
893 2 0.318997 0.508576 0.644982
823 4 0.323832 0.507208 0.704717
894 4 0.330939 0.500639 0.678071
887 2 0.443926 0.579229 0.712449
888 4 0.474276 0.581423 0.731801
889 4 0.413576 0.577036 0.693096
859 4 0.1252 0.668825 0.632766
857 2 0.123391 0.632847 0.631115
1545 4 0.0140023 0.704975 0.646131
867 4 0.240517 0.683637 0.739473
868 4 0.266563 0.7499 0.727956
866 2 0.25354 0.716768 0.733715
899 2 0.363704 0.667783 0.680165
901 4 0.343775 0.687589 0.70277
900 4 0.383633 0.647977 0.65756
864 4 0.126148 0.759217 0.674498
856 4 0.226264 0.790449 0.63486
863 2 0.144101 0.789917 0.668531
865 4 0.162054 0.820618 0.662565
869 2 0.209527 0.842211 0.740987
871 4 0.199774 0.870626 0.721039
106 1 0.29346 0.834748 0.699279
107 3 0.312628 0.827271 0.725305
108 3 0.262323 0.824098 0.70536
109 3 0.293544 0.867934 0.69496
110 3 0.30534 0.819929 0.672482
118 3 0.335772 0.874097 0.637702
794 2 0.384384 0.778761 0.639635
795 4 0.386361 0.81348 0.649179
778 4 0.113225 0.946934 0.639687
776 2 0.11628 0.911172 0.636201
777 4 0.119335 0.875409 0.632715
116 1 0.339121 0.907219 0.634288
117 3 0.33909 0.921161 0.664393
902 2 0.281379 0.99555 0.695546
903 4 0.292099 0.986401 0.72874
1542 4 0.488962 0.97066 0.640646
825 4 0.474607 0.945222 0.720716
1541 2 0.489435 0.934602 0.640699
1543 4 0.489907 0.898543 0.640751
883 4 0.046998 0.598325 0.761528
818 2 0.0398846 0.507505 0.763751
819 4 0.0529159 0.526701 0.791358
459 4 0.0552161 0.499 0.845263
791 2 0.125622 0.619324 0.873042
785 2 0.24278 0.579644 0.777706
787 4 0.213013 0.585053 0.758082
822 4 0.358858 0.517806 0.766866
100 3 0.328246 0.582037 0.854948
786 4 0.272547 0.574234 0.79733
208 3 0.490952 0.530548 0.870992
812 2 0.0419194 0.715586 0.811614
813 4 0.0161523 0.697321 0.829017
814 4 0.0676866 0.733852 0.794211
793 4 0.146494 0.631655 0.846345
770 2 0.228267 0.739221 0.845761
772 4 0.208578 0.717979 0.824276
1527 4 0.502231 0.668198 0.798767
808 4 0.412819 0.71583 0.844742
852 4 0.114022 0.754435 0.889776
870 4 0.219279 0.813796 0.760936
908 2 0.143197 0.849636 0.795291
910 4 0.153064 0.815817 0.802995
799 4 0.222087 0.869678 0.845676
771 4 0.247957 0.760462 0.867245
860 2 0.335326 0.821845 0.872513
862 4 0.301962 0.81091 0.864285
850 4 0.380302 0.832383 0.80367
802 4 0.484416 0.796367 0.861907
800 2 0.487858 0.810726 0.829007
801 4 0.491299 0.825085 0.796106
848 2 0.412199 0.827532 0.787561
849 4 0.444096 0.82268 0.771453
831 4 0.0398949 0.895463 0.806161
779 2 0.0706996 0.993085 0.863817
781 4 0.089873 0.96429 0.853633
830 2 0.0163517 0.900732 0.779358
797 2 0.211575 0.903884 0.850134
798 4 0.201063 0.93809 0.854592
909 4 0.133329 0.883455 0.787588
835 4 0.260421 0.987261 0.83226
833 2 0.280533 0.963884 0.813565
834 4 0.300644 0.940507 0.79487
824 2 0.481763 0.926465 0.750673
111 1 0.403584 0.980054 0.804611
112 3 0.420098 0.973273 0.832575
113 3 0.392433 0.951394 0.791411
826 4 0.488919 0.907708 0.780629
115 3 0.423787 0.995015 0.783473
811 4 0.0133009 0.553121 0.00578252
792 4 0.104751 0.606992 0.89974
809 2 0.0472126 0.544684 0.99688
810 4 0.0811242 0.536246 0.987978
431 2 0.177133 0.504496 0.959843
433 4 0.178004 0.522538 0.991054
739 4 0.21408 0.571787 0.961908
737 2 0.230831 0.567904 0.993606
96 1 0.330698 0.570242 0.885504
97 3 0.360444 0.556074 0.889394
98 3 0.30698 0.547235 0.8908
99 3 0.3276 0.595148 0.907641
733 4 0.357929 0.518801 0.977802
731 2 0.367983 0.552677 0.985
732 4 0.378038 0.586552 0.992198
839 2 0.48966 0.602251 0.971779
841 4 0.460209 0.596878 0.951674
905 2 0.471076 0.526344 0.944852
906 4 0.48206 0.539389 0.976627
907 4 0.460092 0.5133 0.913077
913 4 0.0343336 0.64564 0.981921
827 2 0.164927 0.717884 0.906683
828 4 0.147893 0.687478 0.897424
784 4 0.313884 0.664431 0.978623
806 2 0.412099 0.715949 0.880796
807 4 0.411379 0.716068 0.91685
851 2 0.11665 0.790174 0.885742
853 4 0.119278 0.825913 0.881708
829 4 0.18196 0.748291 0.915941
861 4 0.368691 0.832779 0.88074
838 4 0.185398 0.969345 0.940689
837 4 0.201635 0.923501 0.993947
836 2 0.193517 0.946423 0.967318
873 4 0.36281 0.950275 0.936901
872 2 0.329909 0.96437 0.941297
874 4 0.297009 0.978465 0.945692
230 3 0.499206 0.958335 0.95469
922 4 0.452866 0.901117 0.914085
920 2 0.484226 0.888366 0.90166
935 2 0.576239 0.0789197 0.105152
937 4 0.542826 0.0837439 0.0924743
1073 2 0.594524 0.0387826 0.0181333
1075 4 0.589867 0.00883017 0.037668
936 4 0.609653 0.0740955 0.117829
1074 4 0.599181 0.068735 0.998599
1005 4 0.666279 0.120869 0.0542937
1030 4 0.851496 0.0926385 0.0663894
1037 2 0.772785 0.00582854 0.0678618
1039 4 0.797115 0.0324213 0.0667128
1028 2 0.886597 0.0987266 0.0607906
1029 4 0.921697 0.104815 0.0551917
1082 2 0.523237 0.142826 0.00407154
1004 2 0.684136 0.146681 0.0720514
1006 4 0.701993 0.172492 0.0898091
968 2 0.883761 0.235091 0.0238987
969 4 0.897708 0.20678 0.0413457
1007 2 0.967415 0.174908 0.0769287
1009 4 0.933271 0.180662 0.0870034
1243 4 0.965755 0.186554 0.0198441
121 1 0.569717 0.327868 0.0397022
122 3 0.597109 0.337235 0.0559082
123 3 0.563974 0.295501 0.0459694
124 3 0.543951 0.346331 0.0504354
125 3 0.574119 0.332434 0.00747461
944 2 0.735386 0.261681 0.0913727
992 2 0.652295 0.294346 0.0164307
994 4 0.625902 0.284974 0.0391465
945 4 0.742581 0.28254 0.0628502
1063 4 0.719362 0.371171 0.0293621
970 4 0.869813 0.263402 0.00645169
971 2 0.818441 0.354557 0.0880706
972 4 0.828629 0.350051 0.0537727
966 4 0.874206 0.317195 0.111297
973 4 0.808253 0.359063 0.122368
1240 4 0.829427 0.291119 0.0237209
1238 2 0.832673 0.321747 0.00496384
1040 2 0.954741 0.324319 0.015801
1041 4 0.967737 0.302056 0.0410174
1050 4 0.674893 0.409749 0.0863519
1061 2 0.741134 0.39891 0.0218129
1046 2 0.814015 0.459205 0.0997194
1048 4 0.789306 0.484936 0.0944454
1062 4 0.762906 0.426649 0.0142636
1047 4 0.838724 0.433474 0.104993
1105 4 0.875647 0.405108 0.00152027
1067 2 0.892589 0.496643 0.0837765
1069 4 0.896739 0.471113 0.0586485
304 4 0.984396 0.423036 0.0822247
303 4 0.965885 0.492743 0.0825393
302 2 0.975141 0.457889 0.082382
1034 2 0.541655 0.037671 0.206103
1035 4 0.57389 0.0536853 0.203898
1036 4 0.50942 0.0216566 0.208308
999 4 0.534915 0.0960119 0.131854
309 4 0.510503 0.123937 0.206761
1076 2 0.662391 0.0205126 0.179858
1078 4 0.653284 0.0500292 0.198466
135 3 0.753862 0.0280991 0.160581
1022 2 0.818629 0.0755559 0.202385
1023 4 0.844764 0.0529965 0.2128
1024 4 0.792494 0.0981152 0.19197
1043 2 0.95636 0.0470418 0.180888
1044 4 0.977584 0.0339299 0.206928
1045 4 0.935136 0.0601536 0.154849
998 2 0.531968 0.117162 0.160913
1000 4 0.52902 0.138312 0.189972
1059 4 0.606401 0.23976 0.176164
986 2 0.723985 0.161479 0.225073
987 4 0.717542 0.174228 0.191962
946 4 0.72819 0.240821 0.119895
1021 4 0.898466 0.181072 0.235087
1019 2 0.893594 0.216137 0.22822
941 2 0.958983 0.173413 0.250259
943 4 0.924412 0.183597 0.249013
1052 2 0.93315 0.209328 0.140535
1053 4 0.91079 0.232596 0.15663
1054 4 0.95551 0.186059 0.12444
1058 2 0.57592 0.258105 0.182067
1060 4 0.545439 0.276449 0.187969
143 3 0.65645 0.339152 0.241434
142 3 0.657685 0.285556 0.233411
982 4 0.818398 0.365802 0.211653
967 4 0.896963 0.292343 0.175064
965 2 0.885585 0.304769 0.14318
1020 4 0.888722 0.251202 0.221353
126 1 0.521299 0.412717 0.217824
127 3 0.524564 0.406855 0.185333
129 3 0.531483 0.443939 0.224261
950 2 0.623202 0.482241 0.187794
952 4 0.622351 0.473225 0.2227
128 3 0.540164 0.390836 0.234714
1049 2 0.677929 0.402253 0.121495
1051 4 0.680965 0.394757 0.156638
951 4 0.624053 0.491257 0.152889
980 2 0.841339 0.386035 0.192554
981 4 0.86428 0.406268 0.173455
1016 2 0.953368 0.443422 0.204629
1018 4 0.96505 0.442515 0.170524
1017 4 0.941686 0.444329 0.238734
1056 4 0.606065 0.124597 0.344887
369 4 0.509715 0.0435588 0.313732
1296 4 0.693359 0.00151845 0.274238
1081 4 0.624547 0.0548509 0.305858
1079 2 0.654768 0.0584349 0.325205