ITEM: TIMESTEP
2400000
ITEM: NUMBER OF ATOMS
4590
ITEM: BOX BOUNDS pp pp pp
-9.9985700000000008e+00 9.9985700000000008e+00
-9.9985700000000008e+00 9.9985700000000008e+00
-9.9985700000000008e+00 9.9985700000000008e+00
ITEM: ATOMS id type xs ys zs
995 4 0.149532 0.0433328 0.0778818
994 2 0.162446 0.0321856 0.0596016
996 4 0.175359 0.0210384 0.0413215
461 4 0.211629 0.0516285 0.0708172
2070 4 0.197733 0.00968614 0.000297106
236 4 0.268642 0.0645762 0.00518138
1072 2 0.0699177 0.16317 0.00790452
1073 4 0.0449244 0.163504 0.00853756
18 3 0.119016 0.12136 0.0400434
19 3 0.132747 0.156782 0.0411043
16 1 0.113465 0.143879 0.0407575
20 3 0.10089 0.1482 0.0592465
17 3 0.101329 0.149147 0.0219395
1074 4 0.094911 0.162837 0.00727148
2760 4 0.107657 0.138523 0.0756993
1253 4 0.246942 0.114154 0.00680514
1252 2 0.226744 0.124546 0.996352
746 4 0.260682 0.106986 0.019388
745 2 0.280014 0.113818 0.0336977
747 4 0.299346 0.12065 0.0480074
770 4 0.312797 0.131857 0.0385323
769 2 0.330636 0.140826 0.0535826
1110 4 0.397031 0.0825635 0.0750973
1108 2 0.384854 0.104172 0.0782558
1109 4 0.372678 0.125781 0.0814144
281 4 0.425392 0.164414 0.045232
280 2 0.446472 0.167619 0.0321725
1286 4 0.0349654 0.170805 0.0247336
1285 2 0.0187424 0.187456 0.0155289
2807 4 0.117803 0.204221 0.999639
2806 2 0.111751 0.2283 0.00259405
2808 4 0.105699 0.25238 0.00554868
55 3 0.268254 0.21222 0.0751624
53 3 0.274334 0.18087 0.0552167
357 4 0.278566 0.228198 0.0673853
355 2 0.290731 0.247146 0.0565145
51 1 0.272349 0.189859 0.0765161
52 3 0.292045 0.186438 0.0878965
566 4 0.412864 0.241637 0.0260722
565 2 0.389421 0.250312 0.0254629
282 4 0.467552 0.170823 0.0191129
2828 4 0.481359 0.175095 0.0323728
2827 2 0.500346 0.189045 0.0407439
287 4 0.104684 0.330124 0.0504142
286 2 0.114994 0.32282 0.0719908
3303 4 0.0946069 0.264135 0.995204
836 4 0.13556 0.320676 0.991961
241 2 0.238649 0.272529 0.0215604
627 4 0.237107 0.306506 0.0555344
957 4 0.242776 0.262156 0.0575425
242 4 0.240012 0.279051 0.0456598
243 4 0.237286 0.266007 0.997461
955 2 0.230489 0.25601 0.0784336
356 4 0.302896 0.266094 0.0456437
625 2 0.256301 0.317758 0.0669431
15 3 0.313947 0.266269 0.0293535
626 4 0.275495 0.329009 0.0783518
11 1 0.335664 0.26953 0.023321
13 3 0.340843 0.292128 0.0242939
567 4 0.365979 0.258988 0.0248536
12 3 0.349362 0.258129 0.037865
665 4 0.341381 0.294442 0.00431779
14 3 0.339203 0.261511 0.00183701
527 4 0.491304 0.278798 0.0623624
526 2 0.474134 0.294689 0.0711851
536 4 0.0801547 0.379386 0.0698782
251 4 0.0653528 0.377399 0.082381
537 4 0.0722991 0.35286 0.0282206
535 2 0.0762269 0.366123 0.0490494
446 4 0.293045 0.332142 0.0684277
3212 4 0.334908 0.387514 0.0163528
3211 2 0.355276 0.379034 0.0281172
2388 4 0.393406 0.379181 0.0329101
3213 4 0.375644 0.370553 0.0398817
2386 2 0.416002 0.379638 0.0222142
2387 4 0.438598 0.380094 0.0115183
40 3 0.451604 0.389075 0.999609
1511 4 0.172803 0.492569 0.0621932
1222 2 0.185375 0.464634 0.0342499
1224 4 0.186297 0.444856 0.0189799
789 4 0.185077 0.431255 0.0043327
1223 4 0.184453 0.484412 0.0495198
787 2 0.207489 0.423587 0.996328
273 4 0.331989 0.451975 0.0674563
1156 2 0.327259 0.478791 0.00575949
1157 4 0.322637 0.458754 0.0199844
284 4 0.322087 0.45993 0.0821378
1316 4 0.3861 0.489437 0.0663562
271 2 0.348975 0.470079 0.0644763
272 4 0.365962 0.488183 0.0614964
523 2 0.417973 0.445917 0.0710454
524 4 0.428986 0.438148 0.0499851
482 4 0.436874 0.448029 0.0340122
481 2 0.461164 0.453917 0.0333174
483 4 0.485454 0.459806 0.0326226
4548 4 0.489267 0.45634 0.0132342
1329 4 0.13457 0.0301894 0.0781824
1327 2 0.125675 0.03387 0.101259
1328 4 0.116779 0.0375506 0.124335
731 4 0.104975 0.0820651 0.150997
460 2 0.213968 0.0642329 0.0922843
1506 4 0.223393 0.0745781 0.133415
462 4 0.216307 0.0768373 0.113751
2162 4 0.236954 0.00063673 0.151808
2419 2 0.288545 0.019624 0.164647
2420 4 0.265831 0.0101339 0.169027
652 2 0.3431 0.0289561 0.160469
654 4 0.362494 0.0138161 0.156015
2724 4 0.363773 0.996881 0.144983
590 4 0.0614875 0.129666 0.151367
692 4 0.0428286 0.125562 0.157636
589 2 0.0811486 0.114903 0.146819
591 4 0.10081 0.10014 0.142272
2759 4 0.125395 0.15364 0.119944
2758 2 0.116526 0.146082 0.0978216
1504 2 0.214093 0.0878028 0.152488
865 2 0.250454 0.140334 0.106522
867 4 0.248229 0.163284 0.0968523
866 4 0.252679 0.117383 0.116192
572 4 0.303149 0.105011 0.15768
571 2 0.282459 0.105827 0.143665
573 4 0.261769 0.106643 0.12965
22 3 0.322134 0.108521 0.163225
771 4 0.348475 0.149794 0.0686329
25 3 0.344917 0.0816429 0.15092
629 4 0.381919 0.143249 0.0832185
21 1 0.341136 0.0964062 0.167844
628 2 0.377469 0.15489 0.104895
2615 4 0.0256108 0.241675 0.146807
2614 2 0.00465754 0.231931 0.137258
450 4 0.112181 0.2353 0.154161
54 3 0.255137 0.179338 0.0879814
956 4 0.218202 0.249865 0.0993247
381 4 0.253794 0.235996 0.144785
354 4 0.252783 0.240632 0.125323
353 4 0.302452 0.241447 0.11957
26 1 0.325458 0.242781 0.152558
27 3 0.312476 0.249225 0.134695
352 2 0.277618 0.24104 0.122447
630 4 0.37302 0.166532 0.126571
30 3 0.328424 0.22021 0.151919
557 4 0.372739 0.179023 0.142384
558 4 0.347208 0.221676 0.147834
556 2 0.359974 0.200349 0.145109
2516 4 0.358744 0.237961 0.151711
2515 2 0.380476 0.250122 0.153945
2935 2 0.47758 0.222472 0.13117
2936 4 0.452828 0.223241 0.127713
601 2 0.0308539 0.328054 0.136379
603 4 0.0540809 0.324235 0.127947
363 4 0.0691902 0.322871 0.140421
602 4 0.00762695 0.331874 0.144811
288 4 0.125303 0.315517 0.0935673
448 2 0.118582 0.259093 0.149908
361 2 0.0904417 0.310195 0.14401
362 4 0.111693 0.29752 0.1476
449 4 0.124983 0.282887 0.145654
292 2 0.147724 0.306142 0.115726
293 4 0.135727 0.325737 0.105863
294 4 0.159722 0.286548 0.12559
507 4 0.210678 0.263552 0.111857
506 4 0.173471 0.280825 0.140457
505 2 0.192075 0.272189 0.126157
379 2 0.23375 0.247537 0.154285
2517 4 0.402209 0.262283 0.156178
28 3 0.345987 0.253506 0.151167
493 2 0.346244 0.329286 0.137572
495 4 0.363578 0.314714 0.148172
519 4 0.446592 0.322209 0.0929653
528 4 0.456963 0.31058 0.0800077
250 2 0.053864 0.368314 0.102645
252 4 0.0423751 0.359229 0.12291
396 4 0.0855882 0.402725 0.15095
394 2 0.0648579 0.414309 0.143125
619 2 0.118498 0.382256 0.139895
620 4 0.140908 0.379141 0.129253
621 4 0.0960878 0.385372 0.150538
755 4 0.151235 0.397458 0.132429
754 2 0.176 0.400687 0.131218
290 4 0.208584 0.422779 0.126735
447 4 0.318135 0.339619 0.111034
445 2 0.30559 0.335881 0.0897309
494 4 0.32891 0.343858 0.126971
596 4 0.400969 0.402015 0.138244
595 2 0.415199 0.381694 0.141365
517 2 0.441652 0.340269 0.109537
518 4 0.436712 0.358329 0.126109
597 4 0.429428 0.361372 0.144486
105 3 0.43853 0.363002 0.162555
395 4 0.0441275 0.425893 0.135299
1595 4 0.0326866 0.441328 0.13129
1594 2 0.0260119 0.464806 0.125863
1596 4 0.0193372 0.488283 0.120436
756 4 0.200764 0.403916 0.130006
291 4 0.245729 0.454957 0.117486
1779 4 0.247495 0.463017 0.0989507
289 2 0.227156 0.438868 0.12211
1777 2 0.253677 0.483906 0.0866776
283 2 0.309723 0.466995 0.10269
1431 4 0.283275 0.475267 0.137346
1429 2 0.269376 0.489525 0.15247
285 4 0.297358 0.474059 0.123242
525 4 0.40696 0.453685 0.0921058
658 2 0.392453 0.448414 0.130794
660 4 0.392563 0.449684 0.155765
659 4 0.392342 0.447143 0.105823
1575 4 0.39422 0.46929 0.163041
705 4 0.0105735 0.080694 0.181026
531 4 0.0123937 0.0747324 0.238555
703 2 0.998037 0.0595457 0.185584
730 2 0.109062 0.0626297 0.166187
732 4 0.11315 0.0431944 0.181377
1403 4 0.117576 0.0520444 0.19924
1402 2 0.138206 0.0452022 0.2116
1404 4 0.158836 0.03836 0.22396
1421 4 0.0953219 0.0120958 0.23385
764 4 0.165923 0.0563036 0.228173
763 2 0.189784 0.0611759 0.233837
765 4 0.213645 0.0660482 0.239502
1496 4 0.227885 0.0650981 0.22494
653 4 0.323707 0.0440961 0.164923
2421 4 0.311259 0.0291142 0.160268
1495 2 0.252521 0.0608309 0.224791
744 4 0.293882 0.0492904 0.219301
742 2 0.30958 0.067364 0.212083
1497 4 0.277157 0.0565637 0.224642
24 3 0.338072 0.0849635 0.187795
743 4 0.325277 0.0854375 0.204865
697 2 0.317338 0.00689357 0.248599
1784 4 0.319708 0.995276 0.218857
691 2 0.0323759 0.10985 0.174039
693 4 0.0219231 0.0941387 0.190442
2849 4 0.0617837 0.1459 0.207932
2848 2 0.0614842 0.150293 0.232545
2850 4 0.0611847 0.154686 0.257157
1505 4 0.204793 0.101027 0.171562
477 4 0.2231 0.109961 0.235383
475 2 0.213095 0.110517 0.212476
476 4 0.203089 0.111072 0.189568
23 3 0.359063 0.111013 0.169761
311 4 0.378652 0.112386 0.1753
310 2 0.396992 0.122502 0.188957
312 4 0.415332 0.132617 0.202614
279 4 0.360139 0.158187 0.231322
333 4 0.433458 0.125237 0.200326
2768 4 0.494106 0.105645 0.202961
332 4 0.480808 0.115911 0.213431
331 2 0.457133 0.120574 0.206879
429 4 0.00353683 0.212973 0.257129
389 4 0.170876 0.223231 0.227
388 2 0.156098 0.221972 0.24713
421 2 0.27902 0.191403 0.23956
422 4 0.278475 0.200401 0.216238
401 4 0.274915 0.21808 0.219721
400 2 0.286271 0.230231 0.201051
29 3 0.314692 0.248798 0.172212
402 4 0.297627 0.242383 0.182381
277 2 0.36262 0.172806 0.211189
278 4 0.3651 0.187424 0.191057
497 4 0.348765 0.17104 0.24251
338 4 0.0924442 0.301925 0.248361
749 4 0.216983 0.275806 0.174676
748 2 0.199855 0.291877 0.183252
750 4 0.182727 0.307947 0.191829
509 4 0.189322 0.327874 0.18789
380 4 0.213707 0.259078 0.163786
2702 4 0.414428 0.269313 0.170206
386 4 0.36542 0.311915 0.167703
385 2 0.379994 0.323698 0.184254
2837 4 0.445896 0.264833 0.216786
2836 2 0.440427 0.256337 0.239657
2703 4 0.442525 0.28289 0.209282
2701 2 0.428477 0.276102 0.189744
612 4 0.420996 0.330048 0.251371
344 4 0.173527 0.423945 0.200756
309 4 0.202269 0.389351 0.190257
508 2 0.189685 0.352528 0.183736
510 4 0.190048 0.377181 0.179583
307 2 0.224957 0.398702 0.195051
308 4 0.247646 0.408052 0.199845
433 2 0.33025 0.400649 0.23164
434 4 0.316323 0.405371 0.251862
387 4 0.394567 0.33548 0.200806
611 4 0.4149 0.344956 0.204028
435 4 0.344176 0.395926 0.211418
587 4 0.364234 0.398855 0.20717
588 4 0.408317 0.385622 0.187616
586 2 0.386276 0.392238 0.197393
610 2 0.417948 0.337502 0.2277
102 3 0.433233 0.344858 0.194736
104 3 0.467581 0.346105 0.179529
101 1 0.447857 0.357909 0.182697
103 3 0.452096 0.377367 0.194606
2652 4 0.455027 0.37252 0.214227
2650 2 0.474679 0.386157 0.221508
2651 4 0.494331 0.399794 0.228788
547 2 0.0657561 0.487667 0.226832
549 4 0.0685569 0.463102 0.230562
345 4 0.133444 0.447197 0.181955
343 2 0.153485 0.435571 0.191356
314 4 0.129422 0.464955 0.188929
313 2 0.137845 0.488232 0.185411
768 4 0.249694 0.420003 0.216287
414 4 0.224012 0.462653 0.219353
1555 2 0.239704 0.486179 0.202885
1557 4 0.232779 0.480249 0.226167
412 2 0.212459 0.459686 0.241328
766 2 0.262699 0.422196 0.23753
1556 4 0.246629 0.492109 0.179603
1573 2 0.410832 0.483333 0.175371
1574 4 0.427445 0.497375 0.1877
2450 4 0.499232 0.468285 0.217981
317 4 0.0116638 0.0115368 0.289371
1763 4 0.0755862 0.00641574 0.298687
1422 4 0.0774948 0.00141105 0.279333
1420 2 0.0864083 0.00675342 0.256591
1701 4 0.228105 0.0130861 0.317532
1699 2 0.240568 0.0323438 0.307582
1700 4 0.25303 0.0516016 0.297632
468 4 0.255351 0.0724245 0.298417
466 2 0.273163 0.0764694 0.281343
699 4 0.322443 0.02779 0.261345
467 4 0.290976 0.0805144 0.264269
3678 4 0.3352 0.0354476 0.27395
3677 4 0.373681 0.0666951 0.267351
3676 2 0.354441 0.0510714 0.27065
2745 4 0.392869 0.995132 0.300943
470 4 0.0695045 0.152714 0.275792
299 4 0.103368 0.156795 0.288273
298 2 0.111597 0.133216 0.289483
300 4 0.119826 0.109636 0.290693
937 2 0.166619 0.150774 0.264467
546 4 0.229634 0.105216 0.254109
939 4 0.18019 0.132518 0.274845
544 2 0.211949 0.114315 0.269262
545 4 0.194263 0.123413 0.284416
632 4 0.331851 0.119008 0.287403
708 4 0.404185 0.0905923 0.314386
498 4 0.337994 0.136611 0.277142
496 2 0.34338 0.153826 0.259826
631 2 0.341977 0.110654 0.308683
633 4 0.352102 0.102299 0.329963
706 2 0.414121 0.0933276 0.291605
305 4 0.481219 0.132412 0.291863
707 4 0.424056 0.0960629 0.268824
489 4 0.439445 0.10866 0.265028
487 2 0.455663 0.126529 0.271575
488 4 0.471881 0.144397 0.278123
469 2 0.0681537 0.170841 0.29296
471 4 0.0668029 0.188969 0.310128
2535 4 0.0605467 0.20824 0.319095
364 2 0.0468362 0.249613 0.309754
365 4 0.0527073 0.225639 0.313753
371 4 0.110598 0.174635 0.290437
372 4 0.142752 0.212552 0.285039
390 4 0.14132 0.220714 0.26726
370 2 0.126675 0.193594 0.287738
938 4 0.153047 0.16903 0.254089
261 4 0.179888 0.194433 0.275353
259 2 0.201654 0.203736 0.283406
600 4 0.233253 0.228926 0.283623
260 4 0.22342 0.21304 0.291459
423 4 0.279566 0.182406 0.262883
598 2 0.255154 0.236364 0.293119
472 2 0.315701 0.2376 0.317065
473 4 0.334166 0.232416 0.333106
474 4 0.297235 0.242785 0.301023
275 4 0.350209 0.223761 0.323329
274 2 0.374918 0.227538 0.323936
276 4 0.399627 0.231316 0.324542
249 4 0.406844 0.249817 0.327382
366 4 0.040965 0.273586 0.305755
416 4 0.0407275 0.28959 0.316981
415 2 0.0369178 0.311028 0.30469
337 2 0.0846866 0.322653 0.259995
599 4 0.277056 0.243803 0.302615
247 2 0.410078 0.273438 0.319847
248 4 0.413312 0.297059 0.312312
2838 4 0.434959 0.247841 0.262529
738 4 0.428138 0.310667 0.313116
736 2 0.430644 0.321051 0.290509
737 4 0.433149 0.331434 0.267901
339 4 0.0769289 0.343381 0.271629
417 4 0.0331082 0.332467 0.2924
648 4 0.0337826 0.347442 0.278129
646 2 0.0408336 0.369564 0.287406
647 4 0.0478846 0.391687 0.296683
2954 4 0.0675427 0.386357 0.300397
2953 2 0.081653 0.406925 0.298663
502 2 0.274769 0.39366 0.291934
503 4 0.271718 0.375723 0.309084
728 4 0.285955 0.378868 0.323707
1436 4 0.320317 0.411661 0.270301
679 2 0.0695013 0.472873 0.319455
2955 4 0.0957633 0.427494 0.296929
680 4 0.0912731 0.471894 0.307199
303 4 0.122721 0.492282 0.283472
777 4 0.109004 0.424263 0.281165
775 2 0.115654 0.448366 0.281176
776 4 0.122304 0.472469 0.281187
1819 2 0.21489 0.453564 0.301708
1821 4 0.21514 0.451409 0.276798
413 4 0.200907 0.456719 0.263303
1820 4 0.214641 0.455719 0.326617
504 4 0.27782 0.411597 0.274783
767 4 0.275704 0.424388 0.258772
1435 2 0.323795 0.436037 0.274643
1437 4 0.327272 0.460414 0.278986
1707 4 0.322578 0.479819 0.276695
117 3 0.497315 0.428063 0.287953
594 4 0.4732 0.47425 0.278845
119 3 0.483941 0.45865 0.270684
592 2 0.456103 0.474103 0.29709
593 4 0.439007 0.473956 0.315334
1490 4 0.00322661 0.0146215 0.422914
342 4 0.146298 0.0212062 0.420565
340 2 0.16647 0.0199755 0.405842
604 2 0.216938 0.0193834 0.357057
605 4 0.202582 0.0232576 0.377159
341 4 0.186641 0.0187448 0.391118
606 4 0.231294 0.0155091 0.336955
319 2 0.227065 0.0777218 0.369075
321 4 0.204712 0.0780991 0.380274
320 4 0.249417 0.0773446 0.357877
404 4 0.262452 0.0634821 0.363553
403 2 0.274831 0.0418045 0.362134
405 4 0.287211 0.0201269 0.360715
1518 4 0.305635 0.0206117 0.35067
1516 2 0.327445 0.0250209 0.362074
1517 4 0.349255 0.02943 0.373479
1818 4 0.348606 0.0173388 0.387882
1816 2 0.345461 0.0143081 0.412501
369 4 0.148915 0.138463 0.403166
367 2 0.144688 0.156246 0.386104
1182 4 0.159737 0.122186 0.397374
1181 4 0.191709 0.0911674 0.374652
1180 2 0.175723 0.106677 0.386013
426 4 0.449456 0.137403 0.358102
425 4 0.45004 0.0888313 0.369983
424 2 0.449748 0.113117 0.364043
420 4 0.437725 0.149693 0.367675
2533 2 0.0694671 0.207103 0.342425
2534 4 0.0783876 0.205967 0.365756
348 4 0.0894617 0.219276 0.402302
346 2 0.0746743 0.235339 0.414488
368 4 0.140462 0.174028 0.369042
735 4 0.128853 0.187349 0.379244
734 4 0.107827 0.227596 0.400193
733 2 0.11834 0.207473 0.389719
419 4 0.423875 0.197315 0.361269
266 4 0.438818 0.209841 0.362591
418 2 0.4308 0.173504 0.364472
265 2 0.436381 0.229084 0.37837
676 2 0.144446 0.309039 0.343391
569 4 0.10868 0.319235 0.34191
568 2 0.0939531 0.326257 0.360856
677 4 0.16316 0.300448 0.357574
716 4 0.154723 0.290889 0.373188
678 4 0.125731 0.317629 0.329209
570 4 0.0792261 0.33328 0.379803
717 4 0.177422 0.287306 0.417603
715 2 0.166073 0.289098 0.395395
614 4 0.412709 0.296787 0.411105
376 2 0.391 0.331813 0.40397
377 4 0.409841 0.316732 0.410512
613 2 0.416956 0.277179 0.396182
615 4 0.421204 0.257572 0.38126
267 4 0.433945 0.248327 0.394148
935 4 0.0819158 0.351652 0.387148
934 2 0.0748256 0.371313 0.400871
1398 4 0.0830035 0.404638 0.417445
804 4 0.195724 0.383244 0.37012
802 2 0.220626 0.382437 0.372213
803 4 0.245529 0.381629 0.374306
727 2 0.301364 0.382209 0.343112
729 4 0.316774 0.38555 0.362517
378 4 0.372159 0.346893 0.397428
543 4 0.335286 0.380849 0.357416
541 2 0.353747 0.37132 0.371328
542 4 0.372209 0.361791 0.38524
1401 4 0.35661 0.404875 0.415952
3671 4 0.00930095 0.435575 0.36983
3672 4 0.0356651 0.457886 0.333666
681 4 0.0477295 0.473852 0.331711
3670 2 0.022483 0.446731 0.351748
1752 4 0.0857174 0.469403 0.407815
1750 2 0.0891553 0.494161 0.407185
1397 4 0.0909592 0.453952 0.419798
1396 2 0.0869813 0.429295 0.418621
1444 2 0.225184 0.459616 0.413183
1641 4 0.199952 0.449424 0.338387
1446 4 0.239962 0.456878 0.393202
1640 4 0.23371 0.456664 0.374563
1639 2 0.216831 0.453044 0.356475
1473 4 0.38629 0.42152 0.352869
1471 2 0.389749 0.445072 0.360519
1472 4 0.393209 0.468624 0.368168
1802 4 0.394897 0.485626 0.358601
561 4 0.356528 0.424677 0.411973
1489 2 0.0168402 0.0353589 0.426046
2637 4 0.0293889 0.0759187 0.434049
1491 4 0.0304537 0.0560964 0.429178
2586 4 0.100168 0.994695 0.472635
1647 4 0.10716 0.998715 0.454977
1645 2 0.117575 0.0140049 0.438157
1646 4 0.12799 0.0292951 0.421337
682 2 0.273234 0.0230553 0.42271
684 4 0.270122 0.0476551 0.419494
431 4 0.287063 0.0511529 0.431324
430 2 0.290401 0.0729813 0.443053
1817 4 0.342315 0.0112773 0.43712
480 4 0.407964 0.0655998 0.463798
479 4 0.41141 0.0176965 0.47773
478 2 0.409687 0.0416481 0.470764
2636 4 0.0730075 0.0979403 0.42341
2635 2 0.0511982 0.0869295 0.42873
1271 4 0.130469 0.150354 0.497163
1211 4 0.177317 0.170271 0.477497
791 4 0.25282 0.0993433 0.509244
432 4 0.29374 0.0948096 0.454781
792 4 0.278584 0.100379 0.466397
790 2 0.265702 0.0998613 0.48782
3265 2 0.00182921 0.223576 0.472968
347 4 0.0598869 0.251402 0.426673
3266 4 0.0102881 0.246241 0.479289
2916 4 0.024182 0.251168 0.492625
1210 2 0.199905 0.180785 0.475396
1200 4 0.222975 0.211796 0.474826
1198 2 0.214404 0.235267 0.473915
1212 4 0.222494 0.191298 0.473295
2914 2 0.0372935 0.267314 0.478748
2915 4 0.050405 0.283461 0.464871
1150 2 0.078956 0.317303 0.469704
1152 4 0.0658836 0.296284 0.466174
1151 4 0.0920283 0.338323 0.473235
1199 4 0.205833 0.258738 0.473003
618 4 0.190996 0.262319 0.459915
617 4 0.19628 0.293078 0.420842
616 2 0.193638 0.277698 0.440378
238 2 0.214021 0.326759 0.485131
239 4 0.234565 0.31386 0.47907
669 4 0.179036 0.327271 0.485974
710 4 0.249396 0.303895 0.470648
375 4 0.309714 0.274427 0.472296
373 2 0.333428 0.26718 0.469089
711 4 0.294624 0.284078 0.478546
709 2 0.27201 0.293986 0.474597
374 4 0.357143 0.259932 0.465883
873 4 0.371626 0.268549 0.454628
871 2 0.39244 0.282396 0.455097
872 4 0.413254 0.296243 0.455567
585 4 0.47493 0.327501 0.43069
651 4 0.476786 0.247175 0.501081
813 4 0.432669 0.294663 0.453713
649 2 0.454087 0.256634 0.496559
811 2 0.445894 0.314973 0.447566
812 4 0.45912 0.335282 0.441418
936 4 0.0677353 0.390974 0.414595
1220 4 0.0480053 0.373888 0.495695
1179 4 0.0568762 0.38833 0.484946
1177 2 0.0764169 0.373464 0.480222
668 4 0.150547 0.365925 0.472011
1178 4 0.0959576 0.358597 0.475497
667 2 0.164791 0.346598 0.478992
240 4 0.193477 0.339658 0.491192
1399 2 0.37821 0.39504 0.423818
1400 4 0.39981 0.385204 0.431684
1455 4 0.39967 0.397959 0.446862
1453 2 0.422808 0.396156 0.456165
1454 4 0.445947 0.394352 0.465468
583 2 0.491354 0.344242 0.422022
336 4 0.443468 0.393146 0.485138
4297 2 0.0778637 0.468771 0.488076
4298 4 0.0604111 0.456523 0.475016
3353 4 0.0559685 0.445046 0.491161
3352 2 0.0501868 0.428564 0.509051
383 4 0.166213 0.447849 0.496516
2222 4 0.20465 0.446863 0.443781
2221 2 0.191958 0.441864 0.464736
2223 4 0.179267 0.436865 0.485691
1445 4 0.210405 0.462355 0.433165
880 2 0.285997 0.461567 0.490714
1585 2 0.291576 0.493259 0.444471
882 4 0.294278 0.466126 0.467566
1586 4 0.30649 0.476769 0.455909
560 4 0.36792 0.469566 0.430839
752 4 0.36332 0.481129 0.446651
559 2 0.362224 0.447122 0.421406
1058 4 0.137538 0.0500326 0.532887
851 4 0.127806 0.0348855 0.524744
850 2 0.123554 0.011039 0.530944
1057 2 0.154585 0.0543131 0.550671
1059 4 0.171632 0.0585935 0.568455
410 4 0.189345 0.0568069 0.576754
409 2 0.194888 0.0329683 0.581871
411 4 0.20043 0.00912962 0.586988
824 4 0.242349 0.994197 0.571577
1522 2 0.269902 0.0286264 0.575046
1523 4 0.280347 0.0512971 0.576505
1524 4 0.259457 0.00595573 0.573588
1216 2 0.374977 0.0316074 0.568789
1062 4 0.352452 0.0591369 0.578218
1217 4 0.396168 0.0244944 0.557585
1218 4 0.353786 0.0387203 0.579992
3158 4 0.400442 0.00562479 0.561034
1270 2 0.153694 0.141521 0.499952
1272 4 0.176918 0.132687 0.50274
856 2 0.214735 0.115091 0.50865
857 4 0.237674 0.110638 0.517547
858 4 0.191796 0.119544 0.499754
1060 2 0.356314 0.0837876 0.576603
3732 4 0.361393 0.108007 0.554175
1061 4 0.360176 0.108438 0.574988
3730 2 0.368089 0.131048 0.547141
3731 4 0.374784 0.154088 0.540106
3355 2 0.483704 0.129586 0.549562
3356 4 0.492475 0.142238 0.52986
3357 4 0.474933 0.116934 0.569264
3077 4 0.0226112 0.202163 0.562473
3076 2 0.018197 0.195325 0.586115
515 4 0.381122 0.169696 0.528416
514 2 0.401503 0.176248 0.541334
1030 2 0.462045 0.183836 0.570127
1032 4 0.442699 0.177813 0.555477
516 4 0.421884 0.182801 0.554251
1237 2 0.454866 0.251896 0.578723
500 4 0.0296711 0.313875 0.568732
499 2 0.0172456 0.328163 0.552403
1006 2 0.24197 0.321033 0.530951
1007 4 0.256624 0.305105 0.54347
796 2 0.289866 0.292572 0.552318
797 4 0.268558 0.30352 0.55948
798 4 0.311174 0.281624 0.545157
899 4 0.323806 0.266406 0.547183
1192 2 0.397634 0.287699 0.513086
900 4 0.366122 0.288863 0.532838
898 2 0.344964 0.277635 0.54001
1194 4 0.378588 0.301418 0.521702
927 4 0.423591 0.321566 0.586288
952 2 0.495332 0.262718 0.532864
954 4 0.472465 0.264911 0.542736
1193 4 0.41668 0.273981 0.50447
1239 4 0.468384 0.265337 0.562543
925 2 0.437228 0.326276 0.565867
650 4 0.431387 0.266093 0.492038
879 4 0.0573232 0.387338 0.56199
982 2 0.0251355 0.398472 0.566215
501 4 0.00482012 0.342452 0.536074
1221 4 0.0173026 0.343796 0.521239
3354 4 0.0444051 0.412081 0.526942
983 4 0.0490515 0.402053 0.57257
984 4 0.00121944 0.394891 0.559861
1219 2 0.032654 0.358842 0.508467
877 2 0.0800744 0.396803 0.557751
1008 4 0.227316 0.33696 0.518431
807 4 0.219527 0.35681 0.517787
805 2 0.208923 0.366029 0.538469
806 4 0.198319 0.375249 0.559151
2027 4 0.311198 0.380326 0.576003
928 2 0.3846 0.340092 0.579534
930 4 0.364954 0.354009 0.572787
335 4 0.431738 0.401826 0.532968
334 2 0.437603 0.397486 0.509053
663 4 0.441158 0.398885 0.549917
661 2 0.451465 0.397979 0.57268
926 4 0.450866 0.330986 0.545446
878 4 0.102826 0.406268 0.553511
408 4 0.0906725 0.474798 0.519405
406 2 0.0890661 0.471979 0.544197
407 4 0.0874597 0.46916 0.56899
1160 4 0.15767 0.486803 0.543175
382 2 0.168391 0.458835 0.518871
4299 4 0.0953164 0.481019 0.501137
384 4 0.170568 0.469821 0.541226
774 4 0.284157 0.455296 0.533395
772 2 0.284534 0.443511 0.555444
881 4 0.277717 0.457007 0.513862
773 4 0.284911 0.431726 0.577493
1781 4 0.290898 0.0455436 0.594153
1782 4 0.320364 0.0579858 0.632593
1780 2 0.305631 0.0517647 0.613373
1155 4 0.334221 0.0677091 0.641987
1153 2 0.347874 0.0722633 0.662433
1092 4 0.400184 0.0163108 0.660493
1090 2 0.386611 0.0143743 0.639583
1091 4 0.373039 0.0124378 0.618673
4225 2 0.485343 0.0437213 0.626682
4226 4 0.468881 0.0590114 0.615711
1026 4 0.451701 0.0603008 0.621338
1024 2 0.4316 0.0697965 0.632783
1163 4 0.471319 0.0111145 0.627824
961 2 0.0789332 0.0982784 0.664394
962 4 0.0874445 0.0910337 0.642028
2133 4 0.127927 0.132965 0.616094
2131 2 0.115149 0.112281 0.621932
2132 4 0.102372 0.091597 0.62777
1277 4 0.137474 0.14945 0.667987
3400 2 0.395793 0.113672 0.629797
3402 4 0.393753 0.133349 0.614505
3401 4 0.397833 0.0939954 0.645089
1025 4 0.4115 0.0792922 0.644227
3009 4 0.483944 0.114327 0.587808
3007 2 0.492763 0.127074 0.607426
3031 2 0.0419691 0.192182 0.636306
3033 4 0.0333368 0.190734 0.612885
3032 4 0.0506014 0.193631 0.659728
3078 4 0.0137828 0.188487 0.609757
1284 4 0.144152 0.161506 0.652468
1282 2 0.149242 0.176218 0.632903
1283 4 0.154333 0.190931 0.613338
695 4 0.162624 0.208452 0.605342
694 2 0.182873 0.222952 0.607553
696 4 0.203123 0.237452 0.609763
1260 4 0.223741 0.240872 0.608987
1165 2 0.31458 0.218366 0.634581
1166 4 0.316288 0.19379 0.630309
1167 4 0.312873 0.242943 0.638853
829 2 0.378852 0.192915 0.651074
801 4 0.38376 0.212447 0.619688
799 2 0.403248 0.220978 0.60655
831 4 0.383121 0.19308 0.626438
800 4 0.422737 0.229509 0.593412
1031 4 0.481391 0.189858 0.584778
641 4 0.494445 0.205915 0.587897
1238 4 0.441349 0.238455 0.594903
3264 4 0.0114584 0.306891 0.577209
3044 4 0.0513993 0.258014 0.660477
3043 2 0.044999 0.255856 0.636403
3262 2 0.0202783 0.286612 0.588878
3263 4 0.0290983 0.266334 0.600548
3045 4 0.0385988 0.253698 0.612329
8 3 0.240607 0.312995 0.662949
1258 2 0.228101 0.248827 0.632287
10 3 0.239478 0.27546 0.66021
1259 4 0.232461 0.256782 0.655587
1137 4 0.302788 0.25926 0.641727
1395 4 0.261459 0.317134 0.664305
1135 2 0.300633 0.275371 0.622728
1029 4 0.32698 0.305382 0.627623
1136 4 0.298478 0.291483 0.603729
929 4 0.404246 0.326174 0.58628
1027 2 0.33446 0.322236 0.64451
3024 4 0.480838 0.320737 0.633551
3022 2 0.492616 0.299487 0.639461
1122 4 0.120389 0.354525 0.673769
1393 2 0.270374 0.340466 0.663178
2154 4 0.303473 0.382901 0.593749
2152 2 0.289686 0.40376 0.593679
1394 4 0.279289 0.363799 0.662051
891 4 0.297874 0.372805 0.659828
2028 4 0.360261 0.371157 0.579077
2026 2 0.33573 0.375741 0.57754
1028 4 0.34194 0.33909 0.661397
1010 4 0.423175 0.389651 0.663928
662 4 0.461772 0.397072 0.595442
2141 4 0.466999 0.415539 0.6031
2170 2 0.00898509 0.481683 0.638935
2171 4 0.020166 0.503085 0.632443
1173 4 0.0934722 0.464094 0.588613
1190 4 0.126418 0.464061 0.648722
1172 4 0.110742 0.463973 0.635543
1171 2 0.102107 0.464034 0.612078
1188 4 0.246805 0.49276 0.654517
1176 4 0.250915 0.489569 0.672984
2153 4 0.2759 0.424619 0.593609
2140 2 0.472403 0.425644 0.625323
2142 4 0.477808 0.435749 0.647546
4374 4 0.485386 0.453555 0.65192
4192 2 0.0994258 0.00900692 0.701173
2255 4 0.114971 0.0196528 0.741175
2254 2 0.139465 0.0197773 0.736155
4193 4 0.11085 0.0181793 0.721434
2049 4 0.106323 0.0791045 0.737281
2256 4 0.163959 0.0199017 0.731135
2398 2 0.236709 0.00241337 0.710115
2399 4 0.226554 0.0178824 0.726931
945 4 0.182068 0.0262894 0.735501
842 4 0.323927 0.0644985 0.736603
3425 4 0.404433 0.0136285 0.679466
44 3 0.386161 0.0892891 0.6615
1154 4 0.361526 0.0768175 0.682879
42 3 0.414373 0.07714 0.68316
843 4 0.355529 0.080355 0.701239
841 2 0.339728 0.0724268 0.718921
963 4 0.0704219 0.105523 0.68676
2048 4 0.0821479 0.0905903 0.69504
2047 2 0.0942357 0.0848474 0.716161
1276 2 0.153126 0.158003 0.685509
1278 4 0.168779 0.166557 0.703031
1263 4 0.291562 0.129852 0.680874
887 4 0.271923 0.127556 0.687402
1261 2 0.314727 0.123291 0.687618
886 2 0.264591 0.150854 0.682051
41 1 0.393834 0.0874982 0.683325
43 3 0.396156 0.108612 0.692663
45 3 0.379276 0.0750929 0.695686
1262 4 0.337893 0.116729 0.694361
1143 4 0.351683 0.130976 0.694909
1141 2 0.360749 0.154178 0.692752
1084 2 0.408602 0.154428 0.72331
1085 4 0.403946 0.132966 0.735262
1112 4 0.420716 0.126151 0.747814
87 3 0.438244 0.138149 0.743242
88 3 0.472704 0.15008 0.734139
86 1 0.456019 0.150965 0.75024
1075 2 0.0220564 0.206861 0.689013
1077 4 0.0440774 0.202311 0.678079
1080 4 0.164129 0.227165 0.741875
977 4 0.185466 0.167871 0.714184
976 2 0.176554 0.187404 0.726998
838 2 0.23613 0.208477 0.69587
839 4 0.223403 0.228941 0.702535
1130 4 0.205333 0.222604 0.703392
978 4 0.167642 0.206937 0.739813
840 4 0.248857 0.188013 0.689205
1129 2 0.195377 0.245406 0.700922
888 4 0.25726 0.174151 0.676699
1142 4 0.369815 0.17738 0.690596
49 3 0.367755 0.184138 0.709107
47 3 0.37758 0.218142 0.721749
830 4 0.374584 0.192749 0.67571
46 1 0.381997 0.202157 0.705808
50 3 0.378606 0.211056 0.685121
1086 4 0.413258 0.175891 0.711358
48 3 0.404063 0.195312 0.707962
3114 4 0.456615 0.224078 0.691999
3182 4 0.472653 0.234335 0.688944
3113 4 0.428196 0.183643 0.699619
3112 2 0.442406 0.203861 0.695809
1067 4 0.0592745 0.272344 0.671368
1066 2 0.0705512 0.293447 0.678625
1068 4 0.0818279 0.314551 0.685882
822 4 0.0878358 0.323012 0.703096
816 4 0.162074 0.315512 0.698065
7 3 0.210857 0.293819 0.675593
6 1 0.233722 0.293312 0.673126
814 2 0.180722 0.299286 0.694301
815 4 0.19937 0.283061 0.690537
9 3 0.243488 0.291395 0.694086
1131 4 0.185422 0.268209 0.698453
1020 4 0.421882 0.300746 0.679379
1018 2 0.405817 0.319745 0.681857
3181 2 0.48577 0.249024 0.673538
1307 4 0.458543 0.27913 0.729397
1306 2 0.461883 0.26729 0.751165
820 2 0.0724593 0.342272 0.707317
821 4 0.0570827 0.361531 0.711538
1209 4 0.0372943 0.364072 0.715723
1207 2 0.0189719 0.360322 0.699127
897 4 0.0736537 0.408604 0.744109
1121 4 0.161663 0.327143 0.680651
1120 2 0.141026 0.340834 0.67721
889 2 0.321422 0.374627 0.668033
1230 4 0.344739 0.375267 0.697169
890 4 0.344971 0.376448 0.676238
1228 2 0.348139 0.374109 0.721913
1229 4 0.351538 0.372951 0.746658
1019 4 0.389753 0.338744 0.684336
1009 2 0.410306 0.372924 0.677336
1011 4 0.397437 0.356197 0.690744
948 4 0.0891037 0.421937 0.746673
1189 2 0.118257 0.460821 0.672133
946 2 0.0929926 0.43376 0.724987
947 4 0.0968814 0.445582 0.703301
1191 4 0.110095 0.457582 0.695544
1903 2 0.290074 0.459982 0.736902
1905 4 0.28339 0.477895 0.72079
1174 2 0.263659 0.476856 0.690338
1175 4 0.276403 0.464143 0.707691
4272 4 0.428801 0.484556 0.736398
1268 4 0.502746 0.455895 0.709218
1267 2 0.494665 0.479456 0.711401
1269 4 0.486585 0.503017 0.713585
1256 4 0.102082 0.0802317 0.757334
1255 2 0.103384 0.0815785 0.782267
943 2 0.188398 0.0282596 0.75961
909 4 0.20242 0.0423949 0.798039
944 4 0.194729 0.0302298 0.783719
907 2 0.214853 0.0549285 0.815745
1050 4 0.296962 0.0310001 0.75518
1048 2 0.296759 0.0428002 0.777223
1049 4 0.296557 0.0546003 0.799266
966 4 0.314477 0.0497894 0.806502
964 2 0.329517 0.0635991 0.820933
33 3 0.385642 0.0117803 0.769268
34 3 0.354693 0.0323496 0.777236
35 3 0.380502 0.0454084 0.753131