ITEM: TIMESTEP
3890000
ITEM: NUMBER OF ATOMS
4800
ITEM: BOX BOUNDS pp pp pp
-9.9985700000000008e+00 9.9985700000000008e+00
-9.9985700000000008e+00 9.9985700000000008e+00
-9.9985700000000008e+00 9.9985700000000008e+00
ITEM: ATOMS id type xs ys zs
41 1 0.0178825 0.0171811 0.0254134
44 3 0.0321113 0.03017 0.0383453
1127 4 0.037294 0.0509668 0.0382641
1126 2 0.0411302 0.0754628 0.0350377
1184 4 0.263494 0.0539878 0.0421365
1183 2 0.257536 0.0499292 0.0660783
818 4 0.275108 0.0527966 0.0254836
817 2 0.272364 0.0289686 0.018421
2839 2 0.489001 0.00840751 0.0147551
1128 4 0.0449664 0.0999587 0.0318112
3537 4 0.028181 0.108174 0.0234335
3535 2 0.0416597 0.125261 0.0111241
3536 4 0.0551383 0.142349 0.998815
1349 4 0.245592 0.112699 0.00131301
1348 2 0.254675 0.135672 0.99745
1423 2 0.470854 0.108861 0.0151623
1425 4 0.463357 0.123574 0.996388
1424 4 0.478352 0.0941478 0.0339371
867 4 0.0548183 0.250497 0.0466025
3641 4 0.0459729 0.239257 0.0336122
1149 4 0.169785 0.177857 0.00812634
1327 2 0.220254 0.16406 0.0802014
1328 4 0.21954 0.157516 0.0560799
298 3 0.210367 0.170115 0.0440733
300 3 0.186868 0.182813 0.0175364
296 1 0.208004 0.184324 0.025882
299 3 0.212449 0.206182 0.0322742
297 3 0.223036 0.178132 0.00960794
1150 2 0.316559 0.232407 0.064537
1151 4 0.329575 0.240722 0.0448741
1152 4 0.303543 0.224092 0.0841999
114 3 0.261133 0.178191 0.996289
799 2 0.363371 0.238425 0.0305388
800 4 0.38652 0.229365 0.0332299
850 2 0.408904 0.213005 0.014068
851 4 0.384747 0.216944 0.0191773
3410 4 0.522295 0.19356 0.0296242
3411 4 0.486417 0.217728 0.0547116
3409 2 0.504356 0.205644 0.0421679
852 4 0.433061 0.209066 0.00895882
865 2 0.0590383 0.257527 0.0702235
3640 2 0.0551028 0.254315 0.0158612
1219 2 0.182446 0.28437 0.0584237
1221 4 0.206642 0.284645 0.0521264
1407 4 0.206482 0.280548 0.0319697
1405 2 0.205747 0.277198 0.00720254
1220 4 0.15825 0.284094 0.0647209
2742 4 0.168243 0.32497 0.0403937
801 4 0.340223 0.247485 0.0278477
1507 2 0.312557 0.320937 0.0464306
1508 4 0.298097 0.324461 0.0665225
776 4 0.303516 0.331454 0.0842287
1509 4 0.327016 0.317414 0.0263387
3598 2 0.490481 0.26335 0.0742517
3599 4 0.474345 0.269959 0.0921719
1240 2 0.491568 0.258163 0.0144628
938 4 0.0710468 0.378651 0.0545574
937 2 0.0562553 0.397525 0.0616406
939 4 0.0414637 0.416398 0.0687238
2741 4 0.128188 0.334032 0.068928
2740 2 0.148215 0.329501 0.0546608
963 4 0.235952 0.388081 0.0648231
1913 4 0.231202 0.406956 0.0720408
878 4 0.345333 0.383462 0.0681585
1117 2 0.355636 0.33354 0.00868386
1119 4 0.33117 0.332065 0.0136233
877 2 0.339847 0.404123 0.0811278
1011 4 0.347625 0.363924 0.0663811
1009 2 0.352176 0.346314 0.0835379
4360 2 0.494671 0.398969 0.0303982
4361 4 0.483459 0.415695 0.0155757
1087 2 0.0154122 0.471843 0.0209163
1088 4 0.0237452 0.453384 0.00625307
854 4 0.167159 0.430601 0.988066
1005 4 0.210449 0.503764 0.0305401
768 4 0.179064 0.44739 0.993755
1003 2 0.22856 0.492834 0.0438698
1004 4 0.246672 0.481905 0.0571996
1912 2 0.24607 0.422817 0.0596889
787 2 0.274891 0.460052 0.017129
1914 4 0.260937 0.438678 0.047337
788 4 0.275203 0.452699 0.0410249
2489 4 0.264744 0.489812 0.0608877
12 3 0.314376 0.472651 0.083892
1033 2 0.447342 0.475582 0.0743205
1035 4 0.426177 0.487036 0.0675334
3035 4 0.0119296 0.0400478 0.104195
2145 4 0.028205 0.0279501 0.103654
2143 2 0.0237178 0.00722021 0.0904132
1714 2 0.128751 0.0666435 0.136642
1438 2 0.101732 0.0192087 0.134158
1440 4 0.115074 0.0402745 0.132316
1716 4 0.133594 0.0451873 0.124753
1097 4 0.252463 0.0658969 0.142446
1938 4 0.247387 0.0550003 0.159135
1458 4 0.23921 0.0319787 0.0973731
1185 4 0.251578 0.0458707 0.09002
1715 4 0.123907 0.0880997 0.148532
984 4 0.127831 0.107142 0.153805
982 2 0.144127 0.118318 0.138484
1031 4 0.154557 0.180465 0.120185
983 4 0.160422 0.129495 0.123163
1163 4 0.100041 0.156499 0.185535
1738 2 0.187763 0.149965 0.122757
1739 4 0.166657 0.144168 0.134846
1096 2 0.232498 0.0781647 0.133723
1098 4 0.212533 0.0904325 0.125001
1740 4 0.208868 0.155761 0.110669
1209 4 0.331664 0.150706 0.12232
905 4 0.32002 0.165834 0.118827
1207 2 0.34455 0.134759 0.136633
1208 4 0.357435 0.118813 0.150946
3300 4 0.366242 0.101368 0.146596
844 2 0.0187616 0.173328 0.126297
845 4 0.035973 0.177916 0.10875
803 4 0.0506448 0.163651 0.109269
802 2 0.0731401 0.17005 0.100426
804 4 0.0956354 0.17645 0.0915834
1032 4 0.1135 0.169713 0.0937387
1030 2 0.134028 0.175089 0.106962
1329 4 0.220969 0.170604 0.104323
927 4 0.228811 0.214459 0.131497
906 4 0.30478 0.205139 0.0919275
904 2 0.3124 0.185486 0.105377
926 4 0.27259 0.190569 0.135147
925 2 0.250701 0.202514 0.133322
1082 4 0.37574 0.229467 0.118944
1081 2 0.398126 0.240496 0.120504
1861 2 0.451169 0.239728 0.150819
1862 4 0.467359 0.22672 0.164742
1083 4 0.420511 0.251526 0.122065
1863 4 0.434979 0.252737 0.136897
866 4 0.0632583 0.264557 0.0938444
1373 4 0.0691643 0.260411 0.112926
1196 4 0.119058 0.260787 0.154175
1372 2 0.0932108 0.26711 0.114362
1374 4 0.117257 0.27381 0.115797
4223 4 0.152787 0.290448 0.122008
4222 2 0.138722 0.311067 0.123499
4224 4 0.124656 0.331685 0.12499
777 4 0.257695 0.318106 0.0991611
775 2 0.280606 0.32478 0.0916949
2826 4 0.375878 0.323459 0.101869
1412 4 0.383076 0.297691 0.13916
2824 2 0.399232 0.315399 0.105713
1411 2 0.376439 0.301934 0.162891
1010 4 0.356726 0.328704 0.100695
2825 4 0.422587 0.307339 0.109558
70 3 0.42119 0.265963 0.107238
69 3 0.455599 0.275643 0.0954069
67 3 0.449898 0.265255 0.131075
68 3 0.43642 0.298261 0.119176
66 1 0.440631 0.276259 0.113126
756 4 0.458129 0.332415 0.112936
754 2 0.482273 0.332448 0.106435
1043 4 0.0662431 0.35933 0.159588
1992 4 0.118404 0.385115 0.0806701
1991 4 0.121337 0.349276 0.115422
1990 2 0.119871 0.367196 0.0980461
830 4 0.0892447 0.417331 0.129511
829 2 0.113531 0.422896 0.127417
1042 2 0.0910079 0.36168 0.16211
962 4 0.222056 0.369479 0.109113
961 2 0.229004 0.37878 0.0869679
4107 4 0.279949 0.392956 0.131729
2183 4 0.275346 0.385869 0.150135
968 4 0.382235 0.424832 0.155975
3273 4 0.412809 0.364242 0.12917
3272 4 0.458772 0.34455 0.128581
3271 2 0.435791 0.354396 0.128875
3992 4 0.0694328 0.414434 0.130914
3991 2 0.0602152 0.428116 0.149703
3993 4 0.0509976 0.441798 0.168491
765 4 0.150578 0.436702 0.137535
831 4 0.137817 0.428461 0.125323
763 2 0.157201 0.432278 0.161236
11 1 0.306755 0.464478 0.103998
14 3 0.285007 0.456873 0.101245
13 3 0.307248 0.481549 0.119706
4106 4 0.287915 0.435658 0.106953
4105 2 0.283932 0.414307 0.119341
15 3 0.320184 0.447353 0.110709
1790 4 0.309047 0.501114 0.119069
879 4 0.334361 0.424784 0.0940972
4529 4 0.332709 0.431194 0.113206
4528 2 0.347645 0.431941 0.133245
4530 4 0.362581 0.432688 0.153283
1034 4 0.468506 0.464129 0.0811076
2103 4 0.459143 0.505701 0.121008
1936 2 0.237435 0.037 0.173352
1937 4 0.227482 0.0189996 0.187569
894 4 0.224091 0.000369188 0.195091
1160 4 0.192369 0.0555906 0.239199
1159 2 0.205375 0.0765511 0.235117
242 3 0.183553 0.0150045 0.252659
1594 2 0.33277 0.00112427 0.189455
2216 4 0.286523 0.0603209 0.242402
2215 2 0.301402 0.0681606 0.223899
1248 4 0.334449 0.0782883 0.196394
3206 4 0.420118 0.0791747 0.184846
1246 2 0.34786 0.0575352 0.192567
1247 4 0.36127 0.0367821 0.188741
1595 4 0.345687 0.0225099 0.188465
4244 4 0.388604 0.0879344 0.25667
4243 2 0.397749 0.0651438 0.261375
3205 2 0.435416 0.0819663 0.204426
3207 4 0.450714 0.0847579 0.224005
2966 4 0.470909 0.0819861 0.226809
885 4 0.0395763 0.14657 0.211861
883 2 0.040235 0.129807 0.230402
3194 4 0.00224559 0.134437 0.245408
911 4 0.00413763 0.114176 0.242135
1164 4 0.0514578 0.150145 0.195537
1162 2 0.0757492 0.153322 0.190536
965 4 0.240874 0.14232 0.168444
930 4 0.229352 0.11332 0.237113
1161 4 0.218382 0.0975116 0.231035
928 2 0.218422 0.134612 0.244349
2217 4 0.316281 0.0760003 0.205397
964 2 0.262176 0.144291 0.181386
966 4 0.283479 0.146262 0.194328
1884 4 0.276466 0.162628 0.203799
1882 2 0.280956 0.171638 0.226687
3298 2 0.385601 0.0922371 0.159519
3299 4 0.404961 0.083106 0.172442
2965 2 0.477618 0.10425 0.236001
3293 4 0.502774 0.176777 0.191777
1249 2 0.104811 0.226871 0.22485
1251 4 0.0901029 0.237008 0.207355
1250 4 0.11952 0.216734 0.242345
1197 4 0.0873882 0.246371 0.19009
3294 4 0.478342 0.209777 0.163233
3292 2 0.490558 0.193277 0.177505
1046 4 0.0331939 0.309018 0.186976
881 4 0.0357768 0.292397 0.177271
1448 4 0.00559041 0.254641 0.224239
880 2 0.0272225 0.280471 0.197514
882 4 0.0186682 0.268545 0.217757
1447 2 0.00458764 0.267951 0.245382
1195 2 0.103223 0.253579 0.172133
1854 4 0.136324 0.299928 0.213562
1852 2 0.144143 0.284834 0.231899
899 4 0.142054 0.312238 0.198821
18 3 0.154706 0.249958 0.245065
898 2 0.134417 0.329512 0.182436
1853 4 0.151962 0.269741 0.250235
1413 4 0.369802 0.306177 0.186621
1045 2 0.0478525 0.32817 0.180379
1047 4 0.0625111 0.347321 0.173781
1044 4 0.115773 0.36403 0.164631
900 4 0.126781 0.346786 0.166051
860 4 0.195085 0.391809 0.246039
2184 4 0.309204 0.385098 0.186928
2270 4 0.304222 0.376059 0.204249
2269 2 0.305628 0.362434 0.225166
2182 2 0.292275 0.385484 0.168531
2271 4 0.307035 0.348808 0.246084
967 2 0.382661 0.401701 0.165459
969 4 0.383087 0.37857 0.174944
4076 4 0.0442145 0.455274 0.181813
4075 2 0.0429663 0.479255 0.174848
764 4 0.163824 0.427854 0.184937
976 2 0.241571 0.466215 0.236666
1848 4 0.181904 0.438422 0.187339
1846 2 0.201852 0.443525 0.201524
1847 4 0.221799 0.448628 0.21571
977 4 0.21812 0.46037 0.230256
978 4 0.265021 0.47206 0.243076
1071 4 0.271861 0.474325 0.262559
55 3 0.319469 0.467915 0.208546
53 3 0.339694 0.438868 0.221388
52 3 0.341232 0.448653 0.185131
51 1 0.339206 0.456723 0.206577
54 3 0.356914 0.471082 0.210893
2168 4 0.377773 0.471765 0.217211
2167 2 0.388655 0.486683 0.234069
243 3 0.160091 0.0405572 0.267124
1072 2 0.151585 0.0574608 0.305849
1074 4 0.139695 0.0640398 0.326837
245 3 0.19543 0.0499566 0.258153
1073 4 0.163475 0.0508818 0.28486
241 1 0.18215 0.0333965 0.266403
1079 4 0.21801 0.0272551 0.316258
244 3 0.189238 0.0274224 0.287675
1078 2 0.242253 0.0251831 0.310501
1080 4 0.266496 0.0231111 0.304743
770 4 0.28896 0.0531626 0.260738
771 4 0.297066 0.0747886 0.305093
769 2 0.293013 0.0639756 0.282916
2213 4 0.310531 0.0877726 0.303405
4245 4 0.406894 0.0423531 0.266079
3997 2 0.454567 0.995193 0.302936
1786 2 0.444794 0.0601215 0.314469
3999 4 0.453358 0.0192917 0.309489
1787 4 0.450377 0.0396038 0.301315
1788 4 0.439211 0.0806393 0.327624
1108 2 0.026402 0.11115 0.279803
1110 4 0.0284642 0.124539 0.258787
1109 4 0.0243399 0.0977602 0.300818
884 4 0.0408937 0.113043 0.248942
2273 4 0.0364895 0.105125 0.314398
929 4 0.207492 0.155904 0.251585
1827 4 0.256136 0.1145 0.323834
2212 2 0.308973 0.101025 0.324551
921 4 0.377428 0.102646 0.251313
920 4 0.366586 0.126759 0.293759
919 2 0.372007 0.114703 0.272536
3668 4 0.376507 0.130146 0.312037
2967 4 0.484328 0.126513 0.245194
4119 4 0.480954 0.124996 0.264326
4117 2 0.473886 0.130334 0.287708
4118 4 0.466818 0.135671 0.31109
19 3 0.127897 0.225702 0.256785
16 1 0.146855 0.237537 0.263024
20 3 0.142009 0.25133 0.280485
1062 4 0.198399 0.167155 0.26537
1061 4 0.174105 0.210458 0.259423
1060 2 0.186252 0.188807 0.262397
17 3 0.163153 0.222627 0.269443
848 4 0.279743 0.187579 0.267167
1883 4 0.285446 0.180648 0.249574
849 4 0.263735 0.234713 0.262391
847 2 0.271739 0.211146 0.264779
3083 4 0.457896 0.219692 0.310994
3082 2 0.481956 0.226319 0.309456
2925 4 0.0875978 0.327578 0.31119
1449 4 0.00358488 0.28126 0.266525
1238 4 0.105494 0.326664 0.320157
869 4 0.161558 0.306424 0.300759
870 4 0.152247 0.266951 0.271503
868 2 0.156902 0.286688 0.286131
1029 4 0.152403 0.322124 0.311269
980 4 0.250552 0.295579 0.255452
792 4 0.251094 0.313797 0.265598
981 4 0.247363 0.245681 0.254594
979 2 0.248958 0.27063 0.255023
30 3 0.277888 0.275776 0.294261
28 3 0.299104 0.294181 0.319337
26 1 0.278812 0.283549 0.315648
27 3 0.261789 0.298662 0.318959
790 2 0.270458 0.328745 0.260424
29 3 0.276249 0.265973 0.330577
1204 2 0.368777 0.323379 0.294379
1206 4 0.360307 0.323762 0.317901
1205 4 0.377248 0.322996 0.270857
2924 4 0.0521581 0.362149 0.318232
973 2 0.0137449 0.359647 0.321797
2923 2 0.0698779 0.344864 0.314711
1027 2 0.156318 0.344547 0.300922
859 2 0.181126 0.375919 0.259375
861 4 0.167168 0.360029 0.272711
1028 4 0.160234 0.366969 0.290575
1892 4 0.24788 0.405771 0.277303
791 4 0.289822 0.343694 0.255251
795 4 0.401874 0.351885 0.291108
793 2 0.424192 0.350647 0.302313
794 4 0.446509 0.349408 0.313519
875 4 0.146766 0.443322 0.328624
874 2 0.125323 0.434752 0.319036
1170 4 0.163037 0.44129 0.317064
876 4 0.10388 0.426182 0.309448
1891 2 0.227498 0.408813 0.291462
1168 2 0.186502 0.432936 0.319254
1893 4 0.207115 0.411854 0.305621
1169 4 0.209966 0.424582 0.321444
347 3 0.245175 0.493066 0.325884
2047 2 0.320094 0.477586 0.327546
348 3 0.247134 0.461312 0.305873
350 3 0.275628 0.471618 0.328223
346 1 0.25934 0.479191 0.314223
1069 2 0.288854 0.489675 0.252519
1857 4 0.282396 0.454471 0.333879
2048 4 0.330541 0.471485 0.349428
757 2 0.171192 0.0207388 0.354125
758 4 0.150461 0.017238 0.367658
1142 4 0.132099 0.0255631 0.37123
1141 2 0.129634 0.0353615 0.394101
1143 4 0.127169 0.0451599 0.416972
759 4 0.191923 0.0242396 0.340592
90 3 0.236208 0.0832574 0.382108
950 4 0.403093 0.0345407 0.362146
949 2 0.417908 0.0546756 0.362685
362 3 0.496227 0.0384445 0.408297
363 3 0.464181 0.0188268 0.407361
3975 4 0.445506 0.0131487 0.40572
958 2 0.449573 0.0785094 0.40313
951 4 0.432722 0.0748105 0.363223
3073 2 0.00744316 0.0921629 0.390031
3074 4 0.0289658 0.100995 0.380869
2274 4 0.0394273 0.0993566 0.363984
2272 2 0.0379584 0.102241 0.339191
1076 4 0.130535 0.0930068 0.39141
1075 2 0.15542 0.0920908 0.389158
83 3 0.16261 0.157839 0.369457
1825 2 0.246936 0.103238 0.344174
1826 4 0.237735 0.0919766 0.364514
86 1 0.218788 0.0864533 0.396424
89 3 0.198696 0.0848624 0.384927
3181 2 0.242432 0.140398 0.390552
1077 4 0.180305 0.0911747 0.386906
3183 4 0.223726 0.126758 0.399996
82 3 0.174198 0.166728 0.404088
87 3 0.220385 0.107426 0.405738
2214 4 0.307416 0.114278 0.345696
1878 4 0.319659 0.106276 0.359092
1876 2 0.333998 0.116744 0.376699
3667 2 0.388921 0.127289 0.333552
1877 4 0.348337 0.127212 0.394305
3669 4 0.401336 0.124432 0.355067
24 3 0.417641 0.117746 0.347586
1499 4 0.358666 0.118292 0.409533
22 3 0.43874 0.0866525 0.346764
959 4 0.436505 0.0831375 0.382321
2938 2 0.492312 0.106963 0.361261
2939 4 0.473398 0.117581 0.348822
23 3 0.454691 0.119441 0.35588
21 1 0.435398 0.106666 0.357601
25 3 0.430677 0.102635 0.379513
84 3 0.14668 0.186806 0.388205
81 1 0.166448 0.175331 0.384212
1244 4 0.185437 0.249577 0.391386
1243 2 0.190376 0.22712 0.381565
1245 4 0.195316 0.204663 0.371743
85 3 0.182049 0.189498 0.375579
3182 4 0.261138 0.154039 0.381107
3255 4 0.310513 0.197513 0.351392
932 4 0.302392 0.214755 0.348075
931 2 0.290832 0.236925 0.348243
3253 2 0.328284 0.184884 0.363635
1323 4 0.364248 0.170729 0.382425
3254 4 0.346055 0.172255 0.375877
1321 2 0.363537 0.176715 0.406691
998 4 0.44798 0.219397 0.35622
997 2 0.44124 0.242933 0.361301
1237 2 0.106801 0.31262 0.340803
1239 4 0.108109 0.298577 0.361448
922 2 0.136962 0.289787 0.389789
924 4 0.123037 0.287664 0.369131
923 4 0.150887 0.291911 0.410447
173 3 0.161636 0.282934 0.423862
172 3 0.181606 0.26933 0.395074
171 1 0.178064 0.267732 0.417747
890 4 0.258547 0.3322 0.381261
933 4 0.279272 0.259095 0.348411
936 4 0.252636 0.294607 0.335386
934 2 0.246679 0.310409 0.353825
935 4 0.240721 0.326211 0.372263
999 4 0.4345 0.266468 0.366382
816 4 0.416731 0.325865 0.360151
814 2 0.416851 0.300863 0.36034
815 4 0.416972 0.27586 0.360529
974 4 0.0374802 0.353793 0.327045
3023 4 0.0126572 0.383985 0.365446
3022 2 0.0238559 0.373785 0.385339
3024 4 0.0350546 0.363585 0.405232
1193 4 0.335071 0.352461 0.397134
1192 2 0.356042 0.361246 0.407537
3513 4 0.457016 0.353256 0.330766
3512 4 0.47495 0.347753 0.377121
3511 2 0.465983 0.350504 0.353944
2890 2 0.0559378 0.454388 0.353976
1018 2 0.00880582 0.419295 0.337818
1019 4 0.0333102 0.421361 0.34234
2892 4 0.0455475 0.431736 0.355996
2891 4 0.066328 0.477041 0.351956
2238 4 0.122176 0.465065 0.359997
2236 2 0.13577 0.485473 0.355105
2187 4 0.103278 0.500889 0.395282
1038 4 0.229958 0.41455 0.409564
1036 2 0.246696 0.411921 0.391177
1037 4 0.263434 0.409293 0.372789
1856 4 0.280757 0.415431 0.365087
1855 2 0.281577 0.434951 0.349483
1968 4 0.372695 0.414108 0.38438
4013 4 0.399963 0.450998 0.341942
1967 4 0.394398 0.45241 0.360659
1966 2 0.383546 0.433259 0.372519
4012 2 0.423329 0.459667 0.34395
783 4 0.448601 0.461844 0.364422
4014 4 0.446696 0.468335 0.345958
1949 4 0.500712 0.467274 0.393395
781 2 0.467039 0.471049 0.378582
782 4 0.485477 0.480254 0.392742
4408 2 0.0189032 0.00573698 0.490989
60 3 0.994011 0.0530806 0.447832
3107 4 0.142643 0.0564481 0.423019
1570 2 0.234171 0.0387298 0.422643
1571 4 0.213658 0.0527482 0.419831
88 3 0.21948 0.0706388 0.41339
1606 2 0.282837 0.00785743 0.438241
1572 4 0.254683 0.0247113 0.425454
1607 4 0.259412 0.00681874 0.429558
2978 4 0.318932 0.0070176 0.463545
2977 2 0.334279 0.0247019 0.454776
1052 4 0.302472 0.0791994 0.506172
2979 4 0.349626 0.0423861 0.446006
361 1 0.476335 0.0346488 0.419208
365 3 0.464612 0.0541354 0.420429
960 4 0.46264 0.0738813 0.423939
3238 2 0.471604 0.99775 0.459681
3240 4 0.487095 0.0170601 0.456173
364 3 0.480874 0.026789 0.440563
2209 2 0.0798827 0.168568 0.470114
3106 2 0.148013 0.0740147 0.439983
3108 4 0.153382 0.0915814 0.456946
2211 4 0.102908 0.162083 0.462837
840 4 0.138149 0.103417 0.459617
839 4 0.113 0.145875 0.467713
838 2 0.125574 0.124646 0.463665
64 3 0.168768 0.164666 0.479568
38 3 0.277163 0.1609 0.472829
40 3 0.302584 0.146032 0.496289
36 1 0.283461 0.158333 0.495014
1053 4 0.298391 0.127123 0.492482
1051 2 0.300431 0.103161 0.499327
1498 2 0.372695 0.109688 0.428356
1500 4 0.386723 0.101083 0.44718
1101 4 0.389722 0.0832244 0.455816
1099 2 0.397514 0.081067 0.479476
2210 4 0.0568572 0.175053 0.47739
827 4 0.0529375 0.175396 0.497693
3353 4 0.022317 0.221128 0.429303
826 2 0.0308264 0.186859 0.499899
3354 4 0.0702573 0.21107 0.439367
3352 2 0.0462872 0.216099 0.434335
3152 4 0.0823925 0.209539 0.42259
3153 4 0.121821 0.200678 0.452045
3151 2 0.102107 0.205108 0.437317
62 3 0.202597 0.158999 0.464202
4522 2 0.188762 0.225924 0.451662
61 1 0.191469 0.168972 0.481691
63 3 0.195296 0.191846 0.480947
4524 4 0.19274 0.206059 0.466316
65 3 0.199193 0.160436 0.50134
1360 2 0.296583 0.2129 0.491517
1361 4 0.308908 0.22739 0.475289
1287 4 0.323884 0.227324 0.461601
1322 4 0.362825 0.182701 0.430957
1286 4 0.359709 0.196301 0.445639
1285 2 0.341796 0.211812 0.45362
3809 4 0.486158 0.226899 0.447102
1167 4 0.432399 0.224131 0.482858
1165 2 0.452358 0.23912 0.484339
3685 2 0.0716542 0.309891 0.474278
3686 4 0.0674969 0.286991 0.483415
3756 4 0.072078 0.341741 0.447216
3754 2 0.0513079 0.34798 0.434772
3687 4 0.0758115 0.332791 0.465142
174 3 0.171152 0.246156 0.422757
4523 4 0.184785 0.245788 0.437007
175 3 0.197462 0.272422 0.428718
1131 4 0.196013 0.261932 0.445486
1129 2 0.206167 0.279397 0.460219
1130 4 0.216321 0.296861 0.474952
842 4 0.234175 0.29778 0.482782
841 2 0.23064 0.320775 0.491944
1166 4 0.472316 0.254108 0.485819
3755 4 0.0305377 0.354219 0.422328
1041 4 0.1151 0.341625 0.503864
1040 4 0.160763 0.348143 0.484547
1039 2 0.137931 0.344884 0.494205
1187 4 0.0982768 0.344111 0.513194
889 2 0.264441 0.336817 0.405118
891 4 0.270335 0.341434 0.428974
1106 4 0.288856 0.350726 0.432726
1105 2 0.293584 0.36933 0.448747
1107 4 0.298311 0.387935 0.464769
1194 4 0.377013 0.370031 0.41794
2219 4 0.37661 0.389814 0.416013
2218 2 0.394937 0.405984 0.421285
2829 4 0.449176 0.358699 0.461813
2828 4 0.409143 0.332063 0.475549
2827 2 0.42916 0.345381 0.468681
1453 2 0.470081 0.399473 0.49753
1631 4 0.158671 0.474485 0.481099
1630 2 0.14325 0.49151 0.471223
1983 4 0.195287 0.418658 0.468816
1982 4 0.218756 0.418465 0.424658
7 3 0.157087 0.455352 0.483026
10 3 0.193351 0.46163 0.47683
9 3 0.180788 0.426308 0.480317
1391 4 0.214176 0.462245 0.478059
1981 2 0.207022 0.418561 0.446737
6 1 0.178461 0.448205 0.487632
1116 4 0.42591 0.415859 0.44056
2220 4 0.413265 0.422155 0.426557
1114 2 0.427646 0.416378 0.465498
3900 4 0.480973 0.504375 0.439463
1115 4 0.429382 0.416897 0.490436
1454 4 0.446941 0.408911 0.496733
3776 4 0.0116081 0.0286467 0.527089
4410 4 0.0223913 0.0206152 0.51078
4466 4 0.226335 0.0898958 0.510025
2203 2 0.251778 0.00816363 0.581305
1180 2 0.286603 0.0547479 0.517995
1181 4 0.289448 0.0357015 0.533942
2307 4 0.28294 0.0244576 0.517721
2305 2 0.280101 0.000705991 0.525
1182 4 0.283758 0.0737943 0.502047
212 3 0.325576 0.030081 0.56184
2205 4 0.275087 0.0170637 0.579678
1642 2 0.409972 0.0165835 0.549266
1643 4 0.400203 0.0392314 0.553367
150 3 0.397208 0.0500066 0.570059
147 3 0.370737 0.0319563 0.589198
1100 4 0.405305 0.0789096 0.503137
148 3 0.368293 0.0691883 0.584675
1644 4 0.419741 0.993936 0.545166
779 4 0.0292981 0.129511 0.550807
778 2 0.0484773 0.144042 0.54401
780 4 0.0676565 0.158572 0.537213
4467 4 0.252884 0.132268 0.509351
4465 2 0.239609 0.111082 0.509688
1145 4 0.273975 0.112332 0.583411
37 3 0.266656 0.147406 0.506298
1233 4 0.405511 0.090437 0.519411
1232 4 0.42193 0.0917648 0.566627
1231 2 0.41372 0.0911009 0.543019
1662 4 0.461883 0.152774 0.507024
3052 2 0.502439 0.114545 0.578263
3113 4 0.0796393 0.175304 0.534657
3112 2 0.085233 0.199311 0.530472
828 4 0.00871524 0.198323 0.502105
3114 4 0.0908267 0.223319 0.526286
1497 4 0.2399 0.217495 0.527626
1701 4 0.24903 0.200484 0.52431
1495 2 0.24578 0.233778 0.545666
1699 2 0.230551 0.184416 0.519255
1700 4 0.212072 0.168349 0.514201
39 3 0.286759 0.179127 0.504769
1579 2 0.322027 0.223559 0.542353
1580 4 0.310557 0.218844 0.520642
1362 4 0.284259 0.19841 0.507744
1581 4 0.333498 0.228273 0.564064
1480 2 0.369873 0.166521 0.57178
1481 4 0.379128 0.181017 0.553631
1660 2 0.467001 0.175625 0.515789
1661 4 0.472119 0.198475 0.524555
1385 4 0.484832 0.213432 0.527439
165 3 0.219139 0.320398 0.550803
1496 4 0.25166 0.250062 0.563706
1602 4 0.237325 0.263655 0.563301
1600 2 0.237119 0.288274 0.558937
1601 4 0.236914 0.312893 0.554574
1697 4 0.332143 0.315181 0.550378
903 4 0.252847 0.323567 0.560505
4254 4 0.314118 0.343142 0.567034
1698 4 0.380674 0.308812 0.540137
1696 2 0.356408 0.311996 0.545257
1188 4 0.0548293 0.365666 0.50101
1186 2 0.0765531 0.354889 0.507102
163 3 0.230864 0.340922 0.521495
161 1 0.228702 0.340108 0.544584
162 3 0.215308 0.357517 0.551417
1617 4 0.215945 0.367549 0.568639
843 4 0.227106 0.343769 0.501106
1592 4 0.191015 0.422729 0.58619
1615 2 0.208196 0.369691 0.592315
902 4 0.300169 0.330097 0.575294
164 3 0.249531 0.342301 0.554572
901 2 0.276508 0.326832 0.567899
4252 2 0.330891 0.360161 0.574395
3474 4 0.367249 0.380094 0.578708
4253 4 0.347665 0.37718 0.581755
3472 2 0.385548 0.381477 0.561725
3473 4 0.403848 0.382861 0.544743
1022 4 0.424831 0.383605 0.546992
1021 2 0.444642 0.398761 0.545254
1455 4 0.493221 0.390036 0.498328
3542 4 0.197366 0.424877 0.567535
3541 2 0.197643 0.434542 0.544476
3543 4 0.19792 0.444207 0.521418
8 3 0.181969 0.449317 0.510542
1390 2 0.231725 0.464459 0.495731
2342 4 0.235764 0.471347 0.527815
1392 4 0.249275 0.466673 0.513403
2341 2 0.244173 0.484208 0.54754
1023 4 0.464452 0.413917 0.543517
3037 2 0.468342 0.456142 0.540869
3039 4 0.458006 0.433387 0.540126
3038 4 0.478679 0.478896 0.541612
3395 4 0.129905 0.0602198 0.592269
2479 2 0.0906954 0.0122261 0.651381
2481 4 0.0940872 0.0158751 0.626879
864 4 0.0946142 0.0176566 0.607403
862 2 0.115948 0.0298101 0.602675
863 4 0.137281 0.0419637 0.597947
213 3 0.292818 0.0244295 0.579379
215 3 0.322711 0.0372302 0.598358
211 1 0.315892 0.0233935 0.581605
214 3 0.322439 0.00160633 0.586171
2267 4 0.362949 0.0816662 0.598346
146 1 0.382904 0.0514223 0.587723
149 3 0.394874 0.0542952 0.607392
530 3 0.392599 0.0632823 0.632361
526 1 0.409293 0.0609006 0.647668
529 3 0.405894 0.0416423 0.660156
527 3 0.409247 0.0790411 0.661812
1547 4 0.440869 0.0746211 0.628066
1546 2 0.460888 0.0770878 0.613289
528 3 0.429818 0.0598382 0.636897
1667 4 0.426654 0.0412988 0.663516
3394 2 0.142409 0.0777769 0.579598
3396 4 0.154913 0.095334 0.566926
1146 4 0.233889 0.0875362 0.600116
1144 2 0.253932 0.0999341 0.591764
1533 4 0.322252 0.160222 0.653816
1558 2 0.322765 0.169801 0.597862
1179 4 0.325356 0.109767 0.648591
1177 2 0.313918 0.0932382 0.663462
1482 4 0.360619 0.152025 0.589929
1560 4 0.341021 0.158079 0.585432
2266 2 0.350349 0.0939094 0.616137
2268 4 0.337749 0.106153 0.633928
3054 4 0.491383 0.094891 0.589064
1548 4 0.480906 0.0795546 0.598513
3563 4 0.0336166 0.196476 0.630468
1427 4 0.0498105 0.20861 0.63549
3562 2 0.00866576 0.197308 0.629076
1426 2 0.0660441 0.212859 0.654026
1428 4 0.0822777 0.217107 0.672563
1288 2 0.137307 0.24731 0.647579
1289 4 0.156379 0.231142 0.647712
3485 4 0.160515 0.219835 0.663146
1559 4 0.304509 0.181524 0.610291
130 3 0.347376 0.242569 0.63826
1689 4 0.497211 0.264037 0.574946
3367 2 0.085321 0.325423 0.608991
1627 2 0.0693481 0.279455 0.63366
1628 4 0.0652891 0.289916 0.611315
1629 4 0.073407 0.268995 0.656004
3369 4 0.0828934 0.300578 0.610407
1290 4 0.118235 0.263478 0.647446
2415 4 0.105508 0.335943 0.653615
1294 2 0.264681 0.296574 0.662173
1295 4 0.277561 0.315896 0.652901
1613 4 0.284286 0.334668 0.651883
1296 4 0.251802 0.277253 0.671446
1562 4 0.376041 0.279753 0.65264
129 3 0.37342 0.260746 0.658483
1687 2 0.494851 0.260237 0.599546
1688 4 0.49249 0.256436 0.624146
3027 4 0.0693389 0.353741 0.617811
3025 2 0.0566162 0.370933 0.630762
3026 4 0.0438934 0.388126 0.643713
3368 4 0.0877486 0.350268 0.607576
1805 4 0.0422782 0.407639 0.6476
1354 2 0.121535 0.410508 0.638121
1355 4 0.136915 0.392662 0.646497
2414 4 0.133244 0.374067 0.636942
2413 2 0.119376 0.355005 0.645278
1616 4 0.200447 0.371833 0.61599
1468 2 0.210884 0.396825 0.645909
1470 4 0.209114 0.387927 0.622609
1469 4 0.212655 0.405723 0.669209
1612 2 0.2995 0.353377 0.645275
1352 4 0.333015 0.370082 0.649649
1614 4 0.314715 0.372086 0.638667
1674 4 0.463852 0.38428 0.588865
3649 2 0.423863 0.40075 0.650201
1672 2 0.449875 0.375072 0.60744
3650 4 0.433069 0.380342 0.639067
1673 4 0.435898 0.365864 0.626016
1804 2 0.0410301 0.431502 0.654963
1849 2 0.0190577 0.48216 0.657092
1593 4 0.163752 0.437091 0.625575
2593 2 0.152662 0.485318 0.652116
1356 4 0.106155 0.428354 0.629745
2594 4 0.131411 0.496624 0.645351
2356 2 0.0909485 0.495631 0.652087
2358 4 0.11495 0.49126 0.657564
2595 4 0.173913 0.474013 0.658882
1591 2 0.177384 0.42991 0.605883
157 3 0.325146 0.470294 0.651439
158 3 0.360849 0.466776 0.662646
159 3 0.340669 0.497547 0.67215
156 1 0.339842 0.474632 0.668596
3651 4 0.414658 0.421158 0.661335
2527 2 0.433766 0.455307 0.663687
2528 4 0.435562 0.479836 0.659184
2480 4 0.0873037 0.00857706 0.675883
1297 2 0.121665 0.0265975 0.699623
1299 4 0.142202 0.0346886 0.711368
1298 4 0.101128 0.0185063 0.687878
2736 4 0.159371 0.0443969 0.716345
1376 4 0.110488 0.0727919 0.725864
2442 4 0.116077 0.0821095 0.709087
1375 2 0.11465 0.0591729 0.746416
2734 2 0.183925 0.0401539 0.714286
2735 4 0.20848 0.0359109 0.712227
1682 4 0.214179 0.0537375 0.704781
1681 2 0.236388 0.0647617 0.708005
105 3 0.325267 0.00132379 0.68941
2372 4 0.2872 0.0560148 0.709494
2371 2 0.302785 0.0375699 0.703008
2373 4 0.31837 0.0191249 0.696521
1178 4 0.302481 0.0767089 0.678334
488 3 0.446747 0.0129774 0.711739
1668 4 0.429061 0.0104357 0.702789
1666 2 0.427857 0.0258672 0.683153
489 3 0.432176 0.011821 0.746821
1737 4 0.00367022 0.134187 0.756814
1736 4 0.00341207 0.0866231 0.741377
1735 2 0.00354114 0.110405 0.749096
2441 4 0.146929 0.121118 0.714306
2440 2 0.131503 0.101614 0.711697
944 4 0.151851 0.135639 0.727007
943 2 0.149518 0.147644 0.748816
1692 4 0.217249 0.174852 0.742338
325 3 0.295309 0.102719 0.705904
1683 4 0.258597 0.0757859 0.71123
323 3 0.271039 0.0819558 0.725842
321 1 0.282267 0.102222 0.724567
322 3 0.295585 0.104528 0.743181
324 3 0.26702 0.119705 0.724039
1531 2 0.326425 0.173107 0.674834
1532 4 0.330598 0.185992 0.695852
3491 4 0.453765 0.0960517 0.746034
3476 4 0.0964516 0.231605 0.724591
3477 4 0.102802 0.219935 0.676381
3475 2 0.0996266 0.22577 0.700486
3484 2 0.171676 0.218561 0.685484
3486 4 0.182837 0.217287 0.707822
1691 4 0.20139 0.21081 0.711416
144 3 0.205624 0.240871 0.740094
1690 2 0.20932 0.192831 0.726877
1211 4 0.334051 0.222228 0.740266
1545 4 0.366157 0.177872 0.755222
1210 2 0.341455 0.232215 0.718572
1544 4 0.340904 0.183697 0.712454
1212 4 0.34886 0.242201 0.696878
1543 2 0.353531 0.180784 0.733838
127 3 0.347916 0.238927 0.675399
126 1 0.351414 0.253413 0.657875
1451 4 0.404491 0.225212 0.751883
3464 4 0.0714729 0.279987 0.674158
1479 4 0.0420608 0.250911 0.723118
3465 4 0.0511787 0.247562 0.706368
1477 2 0.0306765 0.263463 0.741504
3463 2 0.0613258 0.263775 0.690263
142 3 0.173532 0.256911 0.728893
141 1 0.194363 0.261022 0.737742
1404 4 0.211564 0.265652 0.708367
145 3 0.20589 0.274774 0.723719
1402 2 0.222698 0.269887 0.686383
1403 4 0.233831 0.274122 0.6644
1704 4 0.244853 0.324693 0.736256
1421 4 0.351422 0.261024 0.710762
128 3 0.336989 0.271455 0.660063
1422 4 0.34869 0.309583 0.699131
1561 2 0.400885 0.281093 0.655121
1420 2 0.350056 0.285304 0.704946
1563 4 0.425729 0.282432 0.657601
1573 2 0.482495 0.333789 0.71384
1575 4 0.465742 0.315601 0.710131
3495 4 0.455064 0.298324 0.713018
3493 2 0.448486 0.279586 0.728209
3494 4 0.441909 0.260847 0.743401
1574 4 0.499247 0.351976 0.717548
120 3 0.0603776 0.397 0.729146
1347 4 0.0407064 0.401578 0.73156
116 1 0.0783054 0.391535 0.716208
117 3 0.0709057 0.381737 0.696756
119 3 0.090339 0.410644 0.710876
118 3 0.0919114 0.376494 0.727479
1702 2 0.242398 0.349148 0.731662
1703 4 0.239943 0.373603 0.727068
1341 4 0.229129 0.392503 0.672506
1339 2 0.229217 0.391264 0.697479
1340 4 0.229305 0.390025 0.722452
1351 2 0.340783 0.384621 0.66845
1353 4 0.348551 0.399159 0.687251
1653 4 0.357007 0.406829 0.704043
1806 4 0.039782 0.455364 0.662325
1851 4 0.0246358 0.46279 0.671886
1518 4 0.111853 0.463701 0.675956
1517 4 0.096841 0.429762 0.709475
1516 2 0.104347 0.446732 0.692716
3429 4 0.121287 0.480146 0.72919