ITEM: TIMESTEP
1010000
ITEM: NUMBER OF ATOMS
4800
ITEM: BOX BOUNDS pp pp pp
-9.9985700000000008e+00 9.9985700000000008e+00
-9.9985700000000008e+00 9.9985700000000008e+00
-9.9985700000000008e+00 9.9985700000000008e+00
ITEM: ATOMS id type xs ys zs
1637 4 0.0133847 0.0210314 0.0804261
1670 4 0.00827481 0.0864612 0.00816669
1002 4 0.154118 0.057784 0.0603671
1000 2 0.146888 0.0480743 0.0822444
1439 4 0.168912 0.0540776 0.0481865
1438 2 0.169995 0.0626375 0.0247188
2050 2 0.206525 0.0144275 0.0583279
2051 4 0.219531 0.0357404 0.0596628
964 2 0.283877 0.0122216 0.0496336
965 4 0.277976 0.0140769 0.0254073
806 4 0.423104 0.0184428 0.034185
1431 4 0.433609 0.0206825 0.0161587
2840 4 0.46468 0.0818434 0.0615249
1816 2 0.462307 0.0741168 0.00574308
910 2 0.105782 0.16503 0.0564836
852 4 0.315097 0.142006 0.0403614
947 4 0.308669 0.13655 0.0216838
850 2 0.33549 0.155569 0.0353247
1818 4 0.468928 0.0981014 0.00820787
989 4 0.467071 0.0913255 0.0437733
988 2 0.454833 0.112623 0.0484469
1218 4 0.445104 0.145867 0.0376553
990 4 0.442595 0.13392 0.0531205
1032 4 0.0277074 0.188759 0.0323453
1010 4 0.0395246 0.205494 0.0332333
1009 2 0.0625014 0.196262 0.0366989
1030 2 0.00779262 0.18842 0.0172303
1011 4 0.0854782 0.18703 0.0401646
911 4 0.103737 0.179167 0.0359616
938 4 0.126316 0.24777 0.011797
939 4 0.154203 0.206426 0.0154961
937 2 0.14026 0.227098 0.0136465
851 4 0.355883 0.169132 0.030288
1413 4 0.368412 0.18076 0.039658
1411 2 0.371104 0.195262 0.0194682
1412 4 0.373796 0.209764 0.999278
776 4 0.399402 0.190621 0.0671363
1217 4 0.414289 0.180671 0.0560896
1216 2 0.429696 0.163269 0.0468724
1254 4 0.12398 0.264914 0.00312138
1253 4 0.0990586 0.287574 0.0400828
1252 2 0.11152 0.276244 0.0216021
837 4 0.0861215 0.300022 0.0498691
835 2 0.101924 0.306947 0.0679659
962 4 0.1897 0.317591 0.0615978
823 2 0.239668 0.274471 0.0272171
824 4 0.216613 0.281821 0.0209216
961 2 0.192985 0.301989 0.0423374
963 4 0.19627 0.286387 0.0230771
825 4 0.262723 0.267121 0.0335126
1050 4 0.280379 0.25725 0.04003
1048 2 0.297364 0.262134 0.057717
1049 4 0.314349 0.267019 0.075404
1406 4 0.326203 0.283484 0.0775151
1405 2 0.322043 0.30802 0.0750888
1119 4 0.326319 0.354349 0.0429333
1739 4 0.482461 0.25795 0.025579
1738 2 0.467004 0.272338 0.0121907
1088 4 0.0745768 0.419018 0.020968
804 4 0.184037 0.336344 0.0686656
1089 4 0.110591 0.384513 0.0245943
766 2 0.146024 0.386066 0.0237114
767 4 0.125232 0.39445 0.0347831
1087 2 0.0925837 0.401765 0.0227811
802 2 0.176914 0.360098 0.0718568
768 4 0.166816 0.377682 0.0126398
2414 4 0.171229 0.359252 0.00563041
803 4 0.169791 0.383852 0.0750481
2413 2 0.194921 0.360572 0.99775
978 4 0.313489 0.344161 0.0550149
976 2 0.291529 0.353844 0.0620274
977 4 0.26957 0.363528 0.06904
1407 4 0.317883 0.332555 0.0726625
1118 4 0.372849 0.357782 0.0249363
1117 2 0.349584 0.356065 0.0339348
1083 4 0.360095 0.384681 0.0865162
1241 4 0.499981 0.410737 0.0140786
2161 2 0.0154539 0.477506 0.0662296
1554 4 0.0598627 0.431118 0.0136538
2162 4 0.0311173 0.496254 0.0715555
2163 4 0.999791 0.458758 0.0609038
1723 2 0.245389 0.436938 0.0827789
773 4 0.313601 0.434704 0.995861
1725 4 0.251836 0.452398 0.0642153
1551 4 0.262884 0.454401 0.047234
1549 2 0.272122 0.474688 0.0359082
1550 4 0.281361 0.494975 0.0245824
1125 4 0.393024 0.469918 0.0186865
1123 2 0.389937 0.468968 0.0434806
969 4 0.368115 0.462751 0.0702389
1124 4 0.38685 0.468018 0.0682747
1636 2 0.0342207 0.0338817 0.0855162
2138 4 0.0719844 0.042524 0.101276
1638 4 0.0550567 0.046732 0.0906063
2137 2 0.0961865 0.0366385 0.103466
1001 4 0.139657 0.0383647 0.104122
2139 4 0.120389 0.0307529 0.105657
1127 4 0.249421 0.0543019 0.150913
1457 4 0.262466 0.0672272 0.159631
1074 4 0.304087 0.0160742 0.0864099
1073 4 0.286517 0.045489 0.122835
2198 4 0.322602 0.00900024 0.161173
1456 2 0.267493 0.0850817 0.142865
1072 2 0.295302 0.0307816 0.104623
1247 4 0.375341 0.0105836 0.117929
1246 2 0.384505 0.0198504 0.139267
1248 4 0.39367 0.0291172 0.160605
2839 2 0.464534 0.0694423 0.0832359
3300 4 0.443284 0.0501663 0.15506
3298 2 0.448445 0.0451036 0.131124
3299 4 0.453606 0.0400409 0.107189
2841 4 0.464389 0.0570412 0.104947
912 4 0.107827 0.150893 0.0770056
1882 2 0.173205 0.150066 0.147112
1883 4 0.181223 0.129995 0.159684
929 4 0.198463 0.123768 0.167562
70 3 0.313773 0.139177 0.125023
1458 4 0.27252 0.102936 0.126098
69 3 0.282646 0.119009 0.131505
66 1 0.298606 0.133018 0.140856
67 3 0.28814 0.1518 0.149034
1097 4 0.316767 0.155241 0.114292
801 4 0.27537 0.166785 0.149807
68 3 0.309363 0.12221 0.158345
1096 2 0.339879 0.164307 0.111325
20 3 0.138537 0.219278 0.140133
16 1 0.157343 0.209476 0.148434
1196 4 0.142856 0.237501 0.145262
1195 2 0.124232 0.25416 0.146154
1884 4 0.165186 0.170137 0.134541
19 3 0.159361 0.187909 0.140116
18 3 0.176008 0.221982 0.142635
846 4 0.176146 0.241297 0.134756
800 4 0.243702 0.196791 0.174252
799 2 0.259536 0.181788 0.16203
777 4 0.369231 0.191822 0.106998
1098 4 0.362992 0.173372 0.108358
775 2 0.384317 0.191221 0.0870673
1448 4 0.00401624 0.325567 0.107248
866 4 0.135254 0.316605 0.0936788
836 4 0.117727 0.313873 0.0860627
1197 4 0.105608 0.27082 0.147045
865 2 0.155621 0.313116 0.107756
844 2 0.176344 0.265452 0.128302
867 4 0.175989 0.309627 0.121833
845 4 0.176543 0.289608 0.121849
3271 2 0.46123 0.300724 0.156305
3272 4 0.466414 0.300318 0.131849
2984 4 0.47649 0.305585 0.115776
2983 2 0.491986 0.322729 0.106228
1214 4 0.0716006 0.375878 0.108365
1171 2 0.0323709 0.35828 0.109148
1172 4 0.0514126 0.373846 0.104643
1173 4 0.0133292 0.342713 0.113652
1215 4 0.11617 0.358879 0.0933529
1213 2 0.0938851 0.367378 0.100859
1004 4 0.173274 0.409434 0.136098
1374 4 0.180056 0.396748 0.0856244
1003 2 0.177208 0.385608 0.14258
1372 2 0.200113 0.408149 0.0952627
1005 4 0.181142 0.361781 0.149061
1972 2 0.418103 0.393021 0.0904346
1204 2 0.366383 0.333705 0.146678
1205 4 0.35434 0.343251 0.126955
1082 4 0.339208 0.349997 0.115866
1081 2 0.349651 0.367339 0.101191
1973 4 0.415435 0.411217 0.0734948
15 3 0.369022 0.412541 0.143083
1974 4 0.420772 0.374825 0.107374
1968 4 0.435743 0.374006 0.12096
1966 2 0.435617 0.36888 0.145432
1967 4 0.43549 0.363754 0.169904
822 4 0.0289907 0.503638 0.0908512
905 4 0.161019 0.421763 0.144353
904 2 0.17016 0.439729 0.159147
764 4 0.222387 0.507787 0.146933
1373 4 0.22017 0.419551 0.104901
1724 4 0.238943 0.421478 0.101343
54 3 0.220221 0.490774 0.172431
1071 4 0.240123 0.459494 0.142454
1069 2 0.262342 0.458368 0.153864
878 4 0.328337 0.421708 0.134191
879 4 0.29051 0.45251 0.123184
877 2 0.309423 0.437109 0.128687
1914 4 0.295502 0.471313 0.156159
1070 4 0.284562 0.457241 0.165275
1912 2 0.308979 0.492034 0.159921
12 3 0.335377 0.425574 0.152625
968 4 0.361578 0.454326 0.119096
967 2 0.364847 0.458539 0.0946674
13 3 0.361083 0.449056 0.138469
11 1 0.357862 0.430362 0.151831
1937 4 0.0420805 0.995003 0.162572
1936 2 0.055784 0.0158588 0.164136
1938 4 0.0694875 0.0367142 0.165699
2848 2 0.0341422 0.0745354 0.23634
2849 4 0.00940153 0.0709859 0.235646
1842 4 0.0819123 0.0369136 0.181193
2181 4 0.0746116 0.0726599 0.245966
2850 4 0.0588828 0.0780848 0.237034
1840 2 0.102279 0.0485539 0.189847
1841 4 0.122645 0.0601941 0.198502
44 3 0.113689 0.0772279 0.200734
1126 2 0.224945 0.0514558 0.155157
892 2 0.179146 0.0746896 0.188246
1128 4 0.200469 0.0486097 0.159401
893 4 0.194732 0.061821 0.173527
2197 2 0.310487 0.027523 0.172805
2199 4 0.298371 0.0460458 0.184436
1142 4 0.281694 0.0633367 0.215776
1141 2 0.291994 0.0562348 0.237424
35 3 0.4091 0.0169835 0.164912
1207 2 0.403323 0.0746271 0.199137
2122 2 0.339469 0.0374945 0.258794
2123 4 0.357853 0.0237471 0.248883
254 3 0.373976 0.0123716 0.248502
1208 4 0.413072 0.0517063 0.196957
34 3 0.418199 0.0322154 0.198122
31 1 0.426337 0.0221057 0.178887
33 3 0.438045 0.00284778 0.184407
32 3 0.440607 0.0367018 0.168282
894 4 0.16356 0.0875583 0.202966
42 3 0.146812 0.0920081 0.190881
45 3 0.133763 0.0973369 0.225439
43 3 0.117427 0.114795 0.196352
41 1 0.12789 0.0953652 0.203524
885 4 0.120691 0.123128 0.213284
883 2 0.108973 0.144581 0.21854
1016 4 0.13474 0.117585 0.22807
1015 2 0.149082 0.123017 0.247818
928 2 0.219808 0.115902 0.17794
930 4 0.241152 0.108035 0.188318
1161 4 0.275456 0.0817355 0.219729
1160 4 0.255071 0.120888 0.196229
1159 2 0.265263 0.101312 0.207979
819 4 0.331497 0.100938 0.218616
1209 4 0.393573 0.0975479 0.201318
817 2 0.35357 0.0961437 0.207892
818 4 0.375642 0.0913495 0.197168
886 2 0.0578396 0.222263 0.211531
923 4 0.030489 0.243675 0.236616
888 4 0.046525 0.230051 0.232424
887 4 0.0691542 0.214475 0.190638
17 3 0.155882 0.208494 0.17137
884 4 0.0972545 0.166034 0.223797
982 2 0.11466 0.196608 0.242762
983 4 0.0971222 0.179064 0.239631
1221 4 0.23396 0.214373 0.177751
1219 2 0.224386 0.237196 0.181308
1220 4 0.214812 0.260018 0.184865
30 3 0.320339 0.224158 0.253662
26 1 0.330439 0.243965 0.248732
1094 4 0.356701 0.226709 0.245363
29 3 0.347847 0.240473 0.233793
1093 2 0.381505 0.223557 0.245337
809 4 0.0750724 0.312261 0.168695
810 4 0.112238 0.279191 0.163615
808 2 0.0936552 0.295726 0.166155
881 4 0.175052 0.287295 0.260507
795 4 0.286274 0.297115 0.192223
793 2 0.29545 0.279651 0.207584
28 3 0.31499 0.258671 0.239596
794 4 0.304627 0.262187 0.222946
3273 4 0.456046 0.30113 0.180762
999 4 0.421643 0.313599 0.248594
755 4 0.425827 0.298836 0.235119
754 2 0.436974 0.292281 0.213719
756 4 0.448122 0.285726 0.192319
1105 2 0.0805384 0.366955 0.24456
1107 4 0.0990718 0.361658 0.228634
1046 4 0.116402 0.368264 0.228551
1045 2 0.135415 0.360913 0.24303
1206 4 0.378427 0.324158 0.166401
1150 2 0.364022 0.38313 0.232792
1152 4 0.372172 0.393227 0.211419
2130 4 0.428069 0.396566 0.218809
1193 4 0.419987 0.397161 0.236274
2129 4 0.449442 0.375153 0.178992
2128 2 0.438756 0.38586 0.198901
1199 4 0.0367634 0.498761 0.241014
1855 2 0.152095 0.491061 0.18543
1856 4 0.170969 0.476195 0.178503
55 3 0.184628 0.48978 0.184672
906 4 0.179301 0.457695 0.17394
52 3 0.200339 0.458923 0.170747
51 1 0.204046 0.477987 0.183074
53 3 0.211394 0.471929 0.204233
1848 4 0.22951 0.481461 0.203146
1847 4 0.273047 0.472574 0.226087
1846 2 0.251279 0.477018 0.214617
900 4 0.266214 0.455129 0.232222
898 2 0.274072 0.438763 0.249415
14 3 0.365389 0.434623 0.173362
2988 4 0.090675 0.0853903 0.316594
1143 4 0.302293 0.0491328 0.259073
2144 4 0.265355 0.00107743 0.331665
1878 4 0.286801 0.0454059 0.275433
1876 2 0.275307 0.0248244 0.283768
1877 4 0.263813 0.00424299 0.292104
2124 4 0.321085 0.0512419 0.268704
24 3 0.377624 0.0185908 0.313704
21 1 0.372327 0.00501758 0.331762
2978 4 0.397834 0.0266274 0.314485
2977 2 0.417332 0.0282304 0.298914
2979 4 0.43683 0.0298333 0.283343
1787 4 0.439954 0.0163499 0.269021
1786 2 0.45693 0.99824 0.266014
2986 2 0.0738587 0.090513 0.334374
2180 4 0.101771 0.110343 0.264489
2179 2 0.0881911 0.0915012 0.255227
1060 2 0.158672 0.125592 0.306871
1061 4 0.156608 0.117873 0.283178
1062 4 0.160736 0.133311 0.330563
1017 4 0.163424 0.128448 0.267566
933 4 0.470681 0.107618 0.319959
932 4 0.471239 0.14281 0.284436
931 2 0.47096 0.125214 0.302198
848 4 0.479784 0.0912036 0.32839
834 4 0.421465 0.170137 0.289654
924 4 0.00909732 0.216829 0.272981
922 2 0.0197932 0.230252 0.254798
1228 2 0.00887022 0.197331 0.303866
1230 4 0.0152171 0.199938 0.279822
984 4 0.132197 0.214153 0.245893
1250 4 0.140611 0.232007 0.250256
1249 2 0.157488 0.250379 0.251922
84 3 0.114561 0.209362 0.317636
1077 4 0.126836 0.22415 0.312955
1075 2 0.134157 0.246708 0.305036
1095 4 0.406309 0.220406 0.245312
816 4 0.367083 0.239315 0.320805
814 2 0.349478 0.24461 0.303857
1167 4 0.377181 0.223311 0.327002
1165 2 0.385036 0.202877 0.339083
833 4 0.403792 0.207279 0.261214
832 2 0.412628 0.188708 0.275434
1076 4 0.141477 0.269267 0.297116
957 4 0.137354 0.288697 0.293003
955 2 0.144785 0.300791 0.313586
882 4 0.157582 0.333963 0.256304
880 2 0.166317 0.310629 0.258405
956 4 0.152215 0.312885 0.33417
1251 4 0.174365 0.268752 0.253588
841 2 0.191752 0.325782 0.321287
27 3 0.338935 0.253149 0.268035
815 4 0.331874 0.249904 0.286909
926 4 0.372785 0.313441 0.278108
925 2 0.365329 0.336902 0.273732
998 4 0.442297 0.310465 0.294028
997 2 0.43197 0.312032 0.271311
3008 4 0.448604 0.295014 0.305505
3007 2 0.449986 0.305108 0.328338
1106 4 0.0620051 0.372251 0.260486
1047 4 0.154428 0.353562 0.25751
842 4 0.211346 0.334119 0.308182
890 4 0.217227 0.353502 0.306472
889 2 0.231088 0.37083 0.317996
891 4 0.244948 0.388158 0.32952
1037 4 0.233141 0.40497 0.329924
1893 4 0.321993 0.401069 0.34076
1151 4 0.355872 0.373034 0.254165
927 4 0.357874 0.360364 0.269355
1192 2 0.431448 0.393897 0.258255
1194 4 0.44291 0.390632 0.280236
1104 4 0.461084 0.383378 0.281064
1102 2 0.482794 0.371443 0.277688
1175 4 0.451732 0.426089 0.308239
1140 4 0.0488134 0.486607 0.25107
1138 2 0.0299923 0.476893 0.264359
1139 4 0.0111711 0.46718 0.277648
1853 4 0.197751 0.472278 0.311227
1923 4 0.184358 0.46098 0.322586
1852 2 0.216515 0.48361 0.299199
1921 2 0.172941 0.448182 0.340781
899 4 0.28193 0.422397 0.266608
1224 4 0.28844 0.432836 0.282856
1222 2 0.311524 0.43598 0.291936
1223 4 0.334607 0.439125 0.301017
2246 4 0.353723 0.441829 0.293943
2245 2 0.35935 0.465985 0.297106
2247 4 0.364978 0.490141 0.300269
78 3 0.399373 0.440283 0.318407
1176 4 0.499722 0.413306 0.302382
76 1 0.417954 0.434545 0.331066
1174 2 0.475727 0.419698 0.30531
80 3 0.435347 0.429219 0.317363
79 3 0.423886 0.452213 0.344887
3162 4 0.513149 0.416649 0.289348
49 3 0.130631 0.000382643 0.390197
48 3 0.0963 0.0162797 0.393815
1826 4 0.284181 0.0038195 0.338321
1825 2 0.292332 0.0194861 0.356021
1827 4 0.300482 0.0351527 0.373722
771 4 0.316902 0.0383105 0.383812
769 2 0.314397 0.0344726 0.408392
25 3 0.365853 0.0178059 0.349459
758 4 0.00871832 0.152587 0.363128
2987 4 0.0570424 0.0956358 0.352155
1155 4 0.0383526 0.10191 0.351744
1153 2 0.0264973 0.120268 0.363894
1154 4 0.014642 0.138626 0.376043
1395 4 0.132029 0.14069 0.40943
1079 4 0.131004 0.14873 0.391903
1078 2 0.142487 0.144632 0.370073
1080 4 0.15397 0.140534 0.348244
1136 4 0.259557 0.123087 0.39377
1135 2 0.283481 0.130266 0.392658
1137 4 0.307406 0.137446 0.391546
1226 4 0.372752 0.131076 0.382246
1225 2 0.377855 0.148039 0.3646
950 4 0.382373 0.126174 0.400038
1227 4 0.382958 0.165003 0.346954
949 2 0.382454 0.105871 0.414631
849 4 0.489996 0.0890744 0.377297
847 2 0.48489 0.090139 0.352844
2857 2 0.0672567 0.206651 0.372548
2859 4 0.0508502 0.215337 0.389297
3113 4 0.0366421 0.228562 0.389535
2858 4 0.0836632 0.197964 0.355798
83 3 0.110832 0.182676 0.344438
82 3 0.0917766 0.214971 0.346997
81 1 0.11165 0.205498 0.340329
85 3 0.128752 0.214899 0.352068
64 3 0.230568 0.212769 0.419051
1166 4 0.392892 0.182444 0.351164
3112 2 0.0349267 0.252689 0.395868
3114 4 0.0332112 0.276816 0.402201
3153 4 0.0403458 0.293908 0.408601
843 4 0.172158 0.317444 0.334392
869 4 0.22774 0.332945 0.413849
783 4 0.324917 0.332557 0.362464
903 4 0.319758 0.313665 0.36732
901 2 0.343239 0.305103 0.368047
902 4 0.36672 0.296542 0.368774
762 4 0.373067 0.313165 0.360349
760 2 0.393552 0.325127 0.36825
3009 4 0.451368 0.315202 0.351172
1022 4 0.469834 0.322607 0.351853
1021 2 0.493936 0.323701 0.358417
974 4 0.184588 0.394044 0.395402
980 4 0.198154 0.379919 0.395208
979 2 0.220793 0.379134 0.384622
981 4 0.243432 0.378349 0.374037
973 2 0.16988 0.405479 0.378726
782 4 0.294645 0.369353 0.347289
781 2 0.309781 0.350955 0.354877
1891 2 0.316832 0.416315 0.359894
761 4 0.414038 0.337088 0.376151
2218 2 0.410723 0.377694 0.364432
2220 4 0.405806 0.355075 0.373888
2219 4 0.415639 0.400313 0.354977
1056 4 0.503948 0.366369 0.403318
975 4 0.155173 0.416914 0.362049
1922 4 0.161525 0.435383 0.358975
1036 2 0.246926 0.425108 0.335365
1950 4 0.316592 0.424958 0.397679
1892 4 0.311671 0.431561 0.379027
1013 4 0.270662 0.486258 0.391029
1012 2 0.261826 0.472461 0.37214
1014 4 0.252991 0.458664 0.353252
1038 4 0.260712 0.445246 0.340805
1948 2 0.297702 0.429318 0.41347
77 3 0.41273 0.41633 0.344107
3864 4 0.477226 0.482486 0.418065
3862 2 0.487506 0.460224 0.413178
862 2 0.0688266 0.0147309 0.47432
3394 2 0.050781 0.0674421 0.469019
3395 4 0.0607788 0.0466051 0.47856
863 4 0.0536174 0.0320395 0.464611
173 3 0.169312 0.0837417 0.467025
171 1 0.189504 0.0858985 0.455798
174 3 0.203373 0.0680201 0.460936
172 3 0.185457 0.0859029 0.433153
840 4 0.209731 0.0717918 0.480808
838 2 0.207756 0.0699249 0.505664
770 4 0.311893 0.0306347 0.432972
1594 2 0.299792 0.0306209 0.463622
1595 4 0.287787 0.0160635 0.480028
2486 4 0.271985 0.0172077 0.492012
1596 4 0.311798 0.0451782 0.447217
87 3 0.384112 0.0187959 0.466417
1144 2 0.399783 0.0760997 0.460809
213 3 0.354589 0.0455681 0.498094
1145 4 0.399031 0.0722484 0.485503
985 2 0.458432 0.043138 0.482161
987 4 0.45078 0.0669121 0.483354
3183 4 0.455605 0.0783343 0.466553
986 4 0.466084 0.019364 0.480969
3217 2 0.99731 0.163943 0.489716
3396 4 0.0407833 0.0882792 0.459477
3219 4 0.00102962 0.141843 0.478629
58 3 0.0021469 0.113699 0.431769
3075 4 0.00524557 0.0948471 0.424593
60 3 0.0283541 0.104173 0.457069
56 1 0.00830194 0.11456 0.454125
59 3 0.00972465 0.136643 0.461105
1244 4 0.0896436 0.143198 0.461393
1393 2 0.135474 0.16005 0.424874
1243 2 0.105256 0.142985 0.480923
1245 4 0.120869 0.142773 0.500452
2210 4 0.135728 0.130509 0.496252
175 3 0.19958 0.105474 0.461621
1131 4 0.206437 0.11191 0.444267
1129 2 0.226376 0.126281 0.439674
1130 4 0.246314 0.140652 0.43508
1181 4 0.303353 0.152881 0.463407
951 4 0.382535 0.0855682 0.429224
1146 4 0.400534 0.079951 0.436115
3182 4 0.46755 0.12524 0.453986
813 4 0.469944 0.136376 0.46901
3181 2 0.461578 0.101787 0.46027
811 2 0.475544 0.156896 0.482153
3195 4 0.00187827 0.200671 0.419331
3193 2 0.998111 0.210849 0.441856
1394 4 0.13892 0.179409 0.440318
1472 4 0.141267 0.199506 0.441513
1471 2 0.130161 0.196601 0.463725
1473 4 0.119055 0.193696 0.485937
827 4 0.108643 0.209023 0.495665
792 4 0.230374 0.237551 0.467342
65 3 0.233663 0.222449 0.455305
62 3 0.249931 0.191202 0.44298
1180 2 0.284627 0.166362 0.453773
1182 4 0.265902 0.179842 0.444138
61 1 0.24443 0.212895 0.437658
63 3 0.263888 0.22463 0.43296
1052 4 0.283614 0.227005 0.434665
1051 2 0.290246 0.242967 0.452732
812 4 0.481144 0.177416 0.495297
3151 2 0.0522404 0.29741 0.430313
3152 4 0.0641351 0.300912 0.452026
1029 4 0.106879 0.326091 0.421654
790 2 0.220114 0.258004 0.457262
868 2 0.22583 0.312965 0.42876
791 4 0.209855 0.278457 0.447182
870 4 0.223919 0.292986 0.443671
1053 4 0.296878 0.258929 0.470799
935 4 0.2872 0.262869 0.487575
1018 2 0.00246783 0.412831 0.443914
875 4 0.0389149 0.371218 0.458252
874 2 0.0608119 0.367985 0.469881
1019 4 0.025454 0.408762 0.452872
1027 2 0.119615 0.342343 0.435755
876 4 0.0827089 0.364751 0.481511
1806 4 0.0811929 0.382186 0.489103
1133 4 0.154691 0.405753 0.46287
7 3 0.128384 0.368444 0.49611
6 1 0.147111 0.372702 0.483449
1028 4 0.132351 0.358594 0.449857
10 3 0.146157 0.360437 0.464284
8 3 0.14773 0.395329 0.478346
1804 2 0.0916048 0.401173 0.501604
9 3 0.165932 0.366824 0.495682
1132 2 0.178177 0.409633 0.455221
1054 2 0.48721 0.352735 0.415933
1383 4 0.476227 0.335173 0.447585
1382 4 0.486474 0.34173 0.49609
1055 4 0.470472 0.339102 0.428548
1381 2 0.481351 0.338452 0.471837
1187 4 0.072669 0.490716 0.472538
1186 2 0.0781236 0.495262 0.448563
1092 4 0.237129 0.47425 0.482173
1090 2 0.216974 0.480045 0.495788
1134 4 0.201664 0.413513 0.447572
1981 2 0.260482 0.453513 0.458019
1983 4 0.268485 0.433122 0.445962
1949 4 0.278812 0.433678 0.42926
1982 4 0.252479 0.473904 0.470075
1441 2 0.453236 0.480151 0.458954
1442 4 0.45593 0.455973 0.464729
1116 4 0.465489 0.450869 0.481021
1570 2 0.227148 0.0615883 0.565809
839 4 0.20578 0.068058 0.530519
1572 4 0.219302 0.0606517 0.542087
1606 2 0.179597 0.00680315 0.572555
2487 4 0.233802 0.992786 0.51314
2485 2 0.252893 0.00499689 0.502576
215 3 0.384935 0.0315899 0.515453
212 3 0.35081 0.0225042 0.527529
211 1 0.363708 0.0392637 0.518478
214 3 0.36382 0.0573338 0.533033
2723 4 0.401391 0.0193591 0.517142
1231 2 0.416243 0.0833219 0.516278
1498 2 0.411419 0.0848668 0.579393
1233 4 0.416496 0.069991 0.495126
780 4 0.0757367 0.157597 0.534432
1560 4 0.0821546 0.107687 0.570998
1559 4 0.126972 0.113022 0.549464
2211 4 0.14062 0.102493 0.537385
2209 2 0.138174 0.116501 0.516819
1558 2 0.104563 0.110354 0.560231
1700 4 0.22138 0.149691 0.548101
1580 4 0.207185 0.149409 0.562643
1579 2 0.193532 0.1645 0.57717
1699 2 0.245015 0.157073 0.551576
38 3 0.317995 0.158041 0.561928
40 3 0.282313 0.149894 0.553089
150 3 0.390934 0.142038 0.54502
146 1 0.409687 0.129233 0.546748
149 3 0.409187 0.117086 0.566512
148 3 0.411126 0.114816 0.528624
1232 4 0.41599 0.0966527 0.53743
1499 4 0.41018 0.098572 0.558517
1178 4 0.384802 0.160902 0.538423
1543 2 0.365738 0.141199 0.578504
1544 4 0.359819 0.165123 0.574286
147 3 0.428199 0.142887 0.546878
778 2 0.0947011 0.172318 0.541419
779 4 0.113666 0.187038 0.548406
1602 4 0.129909 0.196966 0.547007
826 2 0.101845 0.226892 0.511779
1600 2 0.147643 0.190414 0.563371
828 4 0.0950464 0.244761 0.527893
1340 4 0.107635 0.244244 0.542842
1289 4 0.0844232 0.188189 0.565704
1601 4 0.165377 0.183863 0.579734
1110 4 0.20999 0.205436 0.525356
1108 2 0.226658 0.223376 0.520303
36 1 0.299207 0.164882 0.550153
37 3 0.304473 0.166078 0.527792
1701 4 0.26865 0.164455 0.555052
39 3 0.292516 0.185878 0.557417
1361 4 0.277839 0.177981 0.56752
1323 4 0.344632 0.231707 0.529684
1177 2 0.394166 0.183794 0.534756
1179 4 0.403531 0.206686 0.531088
1646 4 0.420686 0.216081 0.532391
1645 2 0.445519 0.214184 0.530182
1647 4 0.470353 0.212287 0.527972
520 3 0.482796 0.214027 0.543796
1339 2 0.121925 0.253931 0.560929
1341 4 0.136215 0.263618 0.579017
1109 4 0.243327 0.241315 0.515251
936 4 0.251611 0.258822 0.522471
1321 2 0.330833 0.250054 0.539593
1285 2 0.32266 0.291923 0.578544
934 2 0.269406 0.260846 0.505023
1322 4 0.317034 0.2684 0.549501
1286 4 0.329387 0.27295 0.563713
1385 4 0.389717 0.300804 0.566749
1384 2 0.401979 0.299937 0.544977
1386 4 0.414242 0.299071 0.523204
1169 4 0.176575 0.369824 0.514049
1170 4 0.224164 0.366719 0.499005
1168 2 0.20037 0.368271 0.506527
1238 4 0.243983 0.368502 0.499845
1237 2 0.260369 0.386132 0.506617
1239 4 0.276756 0.403761 0.513389
1455 4 0.478919 0.359673 0.501274
1453 2 0.469032 0.358997 0.524229
1454 4 0.459144 0.35832 0.547185
3606 4 0.465902 0.376678 0.549513
3604 2 0.466195 0.389484 0.570986
1039 2 0.0325985 0.455357 0.553973
1007 4 0.0734777 0.463593 0.549603
1041 4 0.0572062 0.452438 0.550638
1040 4 0.00799086 0.458276 0.557308
1006 2 0.0840723 0.451093 0.530716
1805 4 0.102017 0.42016 0.514105
1008 4 0.0946669 0.438594 0.51183
1091 4 0.196819 0.48584 0.509403
164 3 0.267138 0.420461 0.521874
162 3 0.2839 0.439203 0.549811
161 1 0.277176 0.440509 0.527851
165 3 0.262325 0.457622 0.525558
163 3 0.295781 0.444334 0.514524
1114 2 0.471335 0.453558 0.505183
1115 4 0.477181 0.456247 0.529344
4390 2 0.49031 0.477268 0.56762
4391 4 0.485023 0.464521 0.54677
953 4 0.0135948 0.0511746 0.637577
952 2 0.000492454 0.0719186 0.632761
1607 4 0.198359 0.0149815 0.586918
1571 4 0.234993 0.0625248 0.589532
1350 4 0.318945 0.0864393 0.638432
1620 4 0.323857 0.0837935 0.618071
1348 2 0.298748 0.0838666 0.652946
1284 4 0.374053 0.00683647 0.653269
1643 4 0.381673 0.014146 0.635155
102 3 0.393843 0.0272941 0.639641
101 1 0.393502 0.0275483 0.66264
103 3 0.415332 0.0284033 0.670457
1532 4 0.369087 0.0602212 0.665251
104 3 0.381799 0.0462759 0.669762
1500 4 0.412658 0.0711616 0.600269
2268 4 0.420549 0.0719184 0.619679
2266 2 0.438169 0.0562267 0.627956
2267 4 0.455788 0.0405351 0.636233
530 3 0.463515 0.0407171 0.654396
526 1 0.484493 0.0480983 0.659305
528 3 0.500261 0.0346616 0.648854
527 3 0.486903 0.0696769 0.651708
1496 4 0.0896441 0.103832 0.589241
1495 2 0.0881416 0.11126 0.613069
1497 4 0.0866391 0.118688 0.636896
1629 4 0.0534948 0.171283 0.660889
1616 4 0.0913163 0.108989 0.655236
1618 2 0.34312 0.0961182 0.607961
1545 4 0.371657 0.117276 0.582723
1619 4 0.362384 0.108443 0.597851
1290 4 0.0735551 0.215869 0.605908
1288 2 0.0789891 0.202029 0.585806
1538 4 0.00618486 0.242141 0.647314
1537 2 0.0232625 0.225452 0.65473
1685 4 0.140662 0.185322 0.656326
1684 2 0.123799 0.202301 0.649077
1686 4 0.106937 0.21928 0.641829
1295 4 0.0957751 0.245931 0.614246
1581 4 0.179878 0.17959 0.591698
1360 2 0.272746 0.192863 0.586956
1362 4 0.267653 0.207744 0.606393
1268 4 0.267444 0.242682 0.662034
1403 4 0.0745044 0.288542 0.666786
1296 4 0.0780877 0.273835 0.651785
1294 2 0.0869314 0.259883 0.633016
1402 2 0.0811712 0.310777 0.657495
1277 4 0.122212 0.27044 0.592166
1276 2 0.127716 0.287262 0.609826
1278 4 0.13322 0.304085 0.627487
145 3 0.134553 0.323156 0.626343
1287 4 0.315933 0.310895 0.593375
1661 4 0.311649 0.320912 0.610697
1660 2 0.308016 0.307692 0.631606
1662 4 0.304382 0.294471 0.652514
1744 2 0.00147877 0.374102 0.662052
1745 4 0.0215748 0.388889 0.663692
1347 4 0.04212 0.389621 0.658011
1593 4 0.0953788 0.40802 0.580995
142 3 0.104741 0.339942 0.641253
1404 4 0.0878381 0.333012 0.648203
1591 2 0.109661 0.39097 0.592418
141 1 0.126392 0.342955 0.634091
1592 4 0.123943 0.37392 0.603842
143 3 0.126544 0.358769 0.617111
144 3 0.139233 0.350371 0.651937
1590 4 0.136472 0.420271 0.62226
1612 2 0.210503 0.417521 0.660142
3429 4 0.350077 0.3828 0.64952
3651 4 0.422133 0.41743 0.629508
3649 2 0.44276 0.406567 0.62047
3650 4 0.463388 0.395704 0.611432
3605 4 0.466488 0.402291 0.592459
1562 4 0.444047 0.362708 0.672742
1392 4 0.0599616 0.453149 0.616016
3543 4 0.0613304 0.464405 0.632492
3541 2 0.0675675 0.46256 0.656634
1390 2 0.0694405 0.433878 0.603211
1391 4 0.0789194 0.414607 0.590407
1588 2 0.157633 0.429021 0.632302
1589 4 0.178793 0.437771 0.642344
1613 4 0.18812 0.428227 0.657049
2594 4 0.277794 0.474742 0.63106
2593 2 0.298445 0.4614 0.635608
1653 4 0.327277 0.441257 0.65818
2595 4 0.319096 0.448058 0.640156
1651 2 0.352096 0.43974 0.660806
1652 4 0.376915 0.438224 0.663432
4392 4 0.495597 0.490015 0.58847
1697 4 0.416664 0.406457 0.682071
2559 4 0.490504 0.488801 0.606686
2557 2 0.474115 0.504359 0.617387
3438 4 0.00271703 0.0440713 0.717996
3436 2 0.0268442 0.0505299 0.719154
2442 4 0.0680393 0.0489265 0.723175
3437 4 0.0509715 0.0569885 0.720313
2440 2 0.0779682 0.071657 0.720026
1711 2 0.146122 0.0422879 0.711099
1713 4 0.121888 0.0437714 0.717075
2309 4 0.121661 0.0310454 0.733063
1299 4 0.194655 0.0156685 0.705219
1712 4 0.170356 0.0408044 0.705123
2775 4 0.189646 0.0354926 0.705116
2773 2 0.205208 0.055037 0.704105
2774 4 0.22077 0.0745814 0.703093
2680 2 0.284321 0.0401279 0.720783
2681 4 0.265927 0.0526511 0.732185
2682 4 0.302716 0.0276047 0.709382
1419 4 0.274296 0.0476987 0.75028
1349 4 0.278552 0.0812939 0.66746
105 3 0.383276 0.00865567 0.670199
1531 2 0.384267 0.0777108 0.674678
529 3 0.487814 0.0478148 0.682268
3691 2 0.477362 0.0131359 0.706348
3693 4 0.482613 0.0359982 0.697692
1627 2 0.0621923 0.153951 0.676673
1317 4 0.0811457 0.148226 0.703989
1628 4 0.0708898 0.136619 0.692458
1617 4 0.0995225 0.105279 0.704426
2441 4 0.0878971 0.0943875 0.716876
1615 2 0.0954194 0.107134 0.679831
1316 4 0.114926 0.141799 0.740298
1315 2 0.0980357 0.145012 0.722144
1305 4 0.245695 0.134924 0.693838
1485 4 0.226105 0.131114 0.692541
1483 2 0.212409 0.145637 0.707597
1484 4 0.198713 0.16016 0.722654
1656 4 0.18683 0.175775 0.721527
1304 4 0.267734 0.0916863 0.681777
1303 2 0.256714 0.113305 0.687807
1533 4 0.399448 0.0952003 0.684104
1548 4 0.41713 0.101845 0.675796
1546 2 0.428641 0.11937 0.689417
1547 4 0.440152 0.136894 0.703039
1539 4 0.0403401 0.208763 0.662147
1654 2 0.178511 0.186181 0.742686
1702 2 0.234806 0.246092 0.741322
1703 4 0.240518 0.230078 0.722988
1269 4 0.247877 0.227291 0.705404
1267 2 0.257661 0.234986 0.683719
1466 4 0.482511 0.240224 0.685675
1704 4 0.229094 0.262105 0.759656
1718 4 0.217343 0.275534 0.75104
1481 4 0.318364 0.305468 0.664101
1480 2 0.326345 0.287331 0.679349
1482 4 0.334325 0.269193 0.694598
1451 4 0.360086 0.296403 0.744288
1587 4 0.441227 0.260233 0.739133
1446 4 0.459806 0.26929 0.736741
1445 4 0.490211 0.25263 0.700704
1444 2 0.475009 0.26096 0.718723
1345 2 0.0511453 0.385861 0.681023
1346 4 0.0601706 0.3821 0.704036
1256 4 0.0482417 0.381113 0.720837
1255 2 0.0528978 0.372018 0.743657
1355 4 0.152026 0.35688 0.667669
1354 2 0.151375 0.360743 0.692364
1356 4 0.150725 0.364606 0.717058
1503 4 0.166365 0.357088 0.729167
2628 4 0.149309 0.415638 0.746078
1352 4 0.238885 0.388534 0.670087
1396 2 0.226034 0.407793 0.737597
1397 4 0.230887 0.383266 0.737851
1614 4 0.232886 0.406816 0.663234
1501 2 0.175017 0.338166 0.743035
1351 2 0.260759 0.390418 0.682053
1353 4 0.282632 0.392302 0.694019
1468 2 0.308851 0.409756 0.724174
1470 4 0.291054 0.401627 0.708606
1469 4 0.326648 0.417885 0.739742
3427 2 0.363545 0.369935 0.666202
3428 4 0.377013 0.357069 0.682884
1561 2 0.419581 0.357556 0.672989
1563 4 0.395115 0.352404 0.673236
3542 4 0.0738046 0.460716 0.680777
1478 4 0.0910941 0.459902 0.691176
1477 2 0.0937979 0.460942 0.716012
1479 4 0.0965017 0.461982 0.740847
2627 4 0.112376 0.449218 0.743067
2626 2 0.130842 0.432428 0.744573
1398 4 0.221182 0.43232 0.737343
1598 4 0.170579 0.49447 0.679085
2418 4 0.167251 0.479128 0.740724
1610 4 0.282263 0.467416 0.730424
1698 4 0.392961 0.448607 0.669332
1696 2 0.404812 0.427532 0.675702
1536 4 0.479252 0.454692 0.680142
1534 2 0.4943 0.46832 0.665546
2656 2 0.0771042 0.00609438 0.800234
2657 4 0.0829773 0.0206058 0.780738
2650 2 0.0263451 0.033247 0.816311
2651 4 0.0268131 0.00825454 0.815731
2652 4 0.0258771 0.0582395 0.816892
3318 4 0.0135508 0.0702632 0.826677
2308 2 0.101295 0.0290657 0.747433
2310 4 0.0809298 0.027086 0.761803
1494 4 0.143213 0.0513535 0.813096
1721 4 0.154881 0.066791 0.822728
1492 2 0.154911 0.0324373 0.824521
1683 4 0.257563 0.0659976 0.809577
1418 4 0.271234 0.0571783 0.799285
1417 2 0.272765 0.0524385 0.774782
1681 2 0.27097 0.0686087 0.83052
490 3 0.470239 0.0757501 0.770913
489 3 0.438573 0.0712182 0.751054
488 3 0.443875 0.051929 0.783368
486 1 0.447829 0.0719458 0.772319
3783 4 0.43267 0.0406334 0.795976
3781 2 0.427292 0.0381406 0.820266