ITEM: TIMESTEP
2390000
ITEM: NUMBER OF ATOMS
4800
ITEM: BOX BOUNDS pp pp pp
-9.9985700000000008e+00 9.9985700000000008e+00
-9.9985700000000008e+00 9.9985700000000008e+00
-9.9985700000000008e+00 9.9985700000000008e+00
ITEM: ATOMS id type xs ys zs
1670 4 0.0459567 0.0467762 0.0738712
1669 2 0.0407252 0.0469597 0.0494218
1671 4 0.0354937 0.0471432 0.0249723
4024 2 0.011964 0.0609196 0.00292438
4025 4 0.0345832 0.0503181 0.00400036
1637 4 0.104569 0.997987 0.0206874
1440 4 0.143373 0.0834115 0.0629763
1439 4 0.103862 0.0932689 0.0339515
1438 2 0.123618 0.0883402 0.0484639
4176 4 0.199035 0.044161 0.0736846
1721 4 0.227411 0.0153038 0.00158635
946 2 0.320322 0.0577143 0.0827985
948 4 0.31086 0.0729732 0.0653967
2401 2 0.381651 0.024668 0.0296129
2402 4 0.368658 0.0241694 0.0082565
2403 4 0.394645 0.0251666 0.0509693
2840 4 0.403038 0.00801208 0.0583218
2640 4 0.375816 0.0409247 0.99923
2839 2 0.415952 0.0196145 0.076316
298 3 0.0968452 0.0856486 0.0157593
1149 4 0.148898 0.0909356 0.997418
1412 4 0.229941 0.165079 0.0127676
1183 2 0.300422 0.122786 0.0161593
1185 4 0.289787 0.138917 0.0320303
852 4 0.28864 0.155647 0.0417549
1184 4 0.311056 0.106655 0.000288361
2225 4 0.41723 0.138466 0.0452895
2224 2 0.414645 0.129149 0.068348
2472 4 0.418247 0.118838 0.038832
2470 2 0.416617 0.115126 0.0141593
825 4 0.146596 0.246113 0.0104039
800 4 0.244779 0.247776 0.047628
1413 4 0.217615 0.213247 0.0181198
1411 2 0.223778 0.189163 0.0154437
850 2 0.308109 0.16901 0.0499771
799 2 0.264506 0.233363 0.0529454
801 4 0.284234 0.218951 0.0582628
69 3 0.301863 0.223971 0.0523079
66 1 0.322492 0.224874 0.0628926
851 4 0.327577 0.182372 0.0581994
68 3 0.321055 0.238057 0.0819331
776 4 0.333885 0.185147 0.0761928
70 3 0.329285 0.203867 0.0684807
67 3 0.337824 0.234221 0.0485154
1676 4 0.462906 0.223602 0.0235343
3409 2 0.445314 0.209888 0.994738
3410 4 0.466688 0.215643 0.0063664
1675 2 0.477803 0.243655 0.0246024
3207 4 0.49661 0.161499 0.0675816
2164 2 0.0477479 0.325817 0.0261049
2166 4 0.0521504 0.32301 0.0505572
803 4 0.0566215 0.32141 0.0711085
2165 4 0.0433454 0.328625 0.00165263
823 2 0.155818 0.251422 0.0330304
824 4 0.16504 0.25673 0.055657
1010 4 0.179402 0.266443 0.0656123
1219 2 0.232858 0.264223 0.0140782
1221 4 0.230455 0.25447 0.0369754
1677 4 0.4927 0.263708 0.0256705
1739 4 0.441176 0.311294 0.0824119
1635 4 0.485975 0.277764 0.0127207
1738 2 0.425237 0.322119 0.0664771
1405 2 0.274302 0.412209 0.0864473
1740 4 0.409297 0.332945 0.0505423
1204 2 0.401366 0.373034 0.0575784
1205 4 0.392113 0.396155 0.0553457
978 4 0.39451 0.412897 0.064873
1206 4 0.410619 0.349913 0.059811
2059 2 0.47074 0.404348 0.0378154
2060 4 0.480726 0.381532 0.0400227
797 4 0.493836 0.368178 0.0470169
1743 4 0.148992 0.430623 0.020759
1741 2 0.138968 0.445905 0.00369584
1374 4 0.208652 0.441623 0.0193566
1914 4 0.222799 0.433249 0.0301078
1912 2 0.230788 0.433162 0.0538007
1913 4 0.238777 0.433074 0.0774935
1372 2 0.195859 0.42237 0.00982742
1406 4 0.281912 0.428781 0.0693409
12 3 0.29651 0.462217 0.042325
13 3 0.278006 0.430336 0.0496611
11 1 0.288421 0.442773 0.0330707
14 3 0.273155 0.448162 0.0164478
15 3 0.305725 0.430929 0.0241864
4107 4 0.287816 0.495465 0.0719644
2489 4 0.262198 0.446096 0.000900496
976 2 0.392354 0.436778 0.0719616
878 4 0.37397 0.468515 0.0689392
977 4 0.390198 0.460658 0.0790503
877 2 0.359023 0.487295 0.0759444
1974 4 0.387838 0.45033 0.0248124
1972 2 0.36794 0.442125 0.0120864
4506 4 0.405524 0.455964 0.018186
1973 4 0.348043 0.433921 0.99936
2061 4 0.460753 0.427164 0.0356082
4505 4 0.441931 0.423801 0.0300535
751 2 0.432982 0.502585 0.0109766
4504 2 0.423728 0.439883 0.0241197
752 4 0.42764 0.508836 0.0345895
3536 4 0.0619812 0.0550732 0.0825045
3535 2 0.0712911 0.0774113 0.0887904
1714 2 0.172205 0.0730623 0.0838207
1715 4 0.19316 0.0594253 0.0840858
4174 2 0.194596 0.0202861 0.0796401
1938 4 0.234676 0.0472403 0.116517
1936 2 0.218841 0.039575 0.134284
818 4 0.328323 0.0198365 0.149598
947 4 0.329783 0.0424554 0.1002
817 2 0.335164 0.035804 0.131614
819 4 0.342005 0.0517715 0.113631
1248 4 0.391326 0.02924 0.145404
1246 2 0.407804 0.0173337 0.159961
2841 4 0.428866 0.0312169 0.0943102
3299 4 0.446694 0.0300783 0.103786
1863 4 0.438325 0.0426894 0.146264
3537 4 0.080601 0.0997495 0.0950762
44 3 0.0908786 0.0863938 0.132506
1030 2 0.0726602 0.138834 0.107326
1032 4 0.0746765 0.119684 0.0913761
1031 4 0.070644 0.157984 0.123276
1716 4 0.151249 0.0866992 0.0835556
42 3 0.102606 0.107445 0.16135
41 1 0.0912128 0.0882974 0.155629
1457 4 0.333268 0.150469 0.16381
1456 2 0.348538 0.149237 0.144049
1209 4 0.389921 0.0864725 0.146129
1097 4 0.377751 0.0802322 0.161019
1207 2 0.394677 0.101251 0.12653
1208 4 0.399434 0.11603 0.10693
1458 4 0.363808 0.148005 0.124288
777 4 0.350735 0.161482 0.116896
2226 4 0.412061 0.119832 0.0914064
1490 4 0.0559393 0.17198 0.124839
1489 2 0.0332716 0.181177 0.119664
1491 4 0.0106039 0.190373 0.11449
775 2 0.34231 0.173315 0.0965446
1734 4 0.00068597 0.278058 0.152614
802 2 0.0716512 0.317987 0.0907954
809 4 0.0178888 0.285817 0.156284
867 4 0.158283 0.29245 0.142052
845 4 0.149969 0.277489 0.152196
804 4 0.0866808 0.314564 0.110482
865 2 0.160666 0.310434 0.124845
1011 4 0.173695 0.250766 0.112754
1009 2 0.176549 0.258605 0.0891833
866 4 0.163048 0.328419 0.107639
962 4 0.182139 0.32385 0.102903
961 2 0.204655 0.322314 0.0921385
963 4 0.22717 0.320777 0.0813744
906 4 0.28895 0.308493 0.148042
904 2 0.28206 0.296329 0.127312
905 4 0.275169 0.284164 0.106582
1509 4 0.454892 0.322552 0.0909256
1507 2 0.465054 0.318416 0.113393
1508 4 0.475216 0.31428 0.135861
3273 4 0.47315 0.318138 0.154322
1407 4 0.266691 0.395637 0.103554
765 4 0.175804 0.470118 0.140229
763 2 0.194985 0.454852 0.145151
764 4 0.214166 0.439586 0.150072
54 3 0.22662 0.453008 0.153139
1785 4 0.247255 0.493067 0.165779
831 4 0.210604 0.424816 0.162403
2264 4 0.290118 0.486984 0.0908462
51 1 0.249646 0.454688 0.155458
53 3 0.260086 0.448155 0.135792
2265 4 0.26046 0.465434 0.124858
2263 2 0.275289 0.476209 0.107852
55 3 0.2554 0.476124 0.160558
879 4 0.344075 0.506075 0.0829495
1951 2 0.381875 0.471133 0.1411
1953 4 0.371075 0.486869 0.157252
1958 4 0.359019 0.501795 0.150479
1952 4 0.392675 0.455397 0.124947
4066 2 0.474971 0.469702 0.118263
4067 4 0.454019 0.462169 0.106886
2180 4 0.016173 0.00174934 0.237574
3036 4 0.0293783 0.013876 0.24609
3034 2 0.0410139 0.0352439 0.240328
3035 4 0.0526495 0.0566119 0.234566
1842 4 0.0534062 0.0770994 0.229937
45 3 0.101749 0.0702888 0.164757
1127 4 0.105798 0.0517557 0.169942
1126 2 0.121781 0.0385791 0.183946
1128 4 0.137763 0.0254025 0.19795
893 4 0.151842 0.0266194 0.184955
892 2 0.175947 0.0271473 0.178333
1937 4 0.203007 0.0319097 0.152052
894 4 0.200052 0.0276751 0.171711
929 4 0.191922 0.06263 0.236208
1062 4 0.210009 0.0722155 0.240553
2199 4 0.335993 0.0145446 0.166571
1098 4 0.385034 0.0738022 0.210073
1247 4 0.424281 0.0054274 0.174518
1096 2 0.381393 0.0770172 0.185546
2216 4 0.416165 0.0348078 0.236091
2215 2 0.421289 0.0243089 0.213985
33 3 0.48612 0.0130456 0.178771
2217 4 0.426412 0.0138099 0.191878
1861 2 0.454802 0.0504742 0.163383
1862 4 0.47128 0.058259 0.180502
378 3 0.999903 0.164861 0.205388
43 3 0.0695336 0.0897521 0.163772
1840 2 0.0626729 0.0826837 0.207395
1841 4 0.0719397 0.0882679 0.184854
911 4 0.0798332 0.169065 0.202022
984 4 0.0974847 0.161313 0.199072
982 2 0.0973558 0.13635 0.197661
983 4 0.0972269 0.111386 0.196251
1060 2 0.219497 0.0895809 0.225269
1061 4 0.228984 0.106946 0.209984
1073 4 0.235021 0.108608 0.190811
964 2 0.316173 0.138316 0.193756
966 4 0.294381 0.137374 0.205979
1074 4 0.278277 0.133234 0.195621
1072 2 0.256649 0.120921 0.193216
965 4 0.337965 0.139258 0.181533
848 4 0.401683 0.0828435 0.21491
847 2 0.411106 0.104615 0.222809
849 4 0.420528 0.126387 0.230707
933 4 0.428832 0.145738 0.230074
910 2 0.0552627 0.173414 0.203622
912 4 0.0306923 0.177762 0.205222
377 3 0.0249425 0.188414 0.220584
376 1 0.00322703 0.180923 0.2218
846 4 0.143949 0.253232 0.195509
1883 4 0.238126 0.195842 0.182303
19 3 0.230128 0.232368 0.229684
16 1 0.243281 0.248481 0.239969
1882 2 0.238123 0.204971 0.20558
1884 4 0.23812 0.2141 0.228858
3255 4 0.38083 0.197793 0.245984
808 2 0.0387299 0.277709 0.167468
810 4 0.059571 0.269601 0.178652
1214 4 0.0198305 0.329786 0.1739
1197 4 0.0735054 0.272857 0.192058
433 3 0.026721 0.271595 0.236067
431 1 0.0293578 0.289084 0.251087
1164 4 0.0346035 0.32332 0.227731
1195 2 0.0797364 0.29598 0.199246
435 3 0.0502128 0.288412 0.260212
434 3 0.0260898 0.30936 0.240289
1196 4 0.0859675 0.319104 0.206433
844 2 0.146959 0.265361 0.173852
1251 4 0.16061 0.246034 0.202994
20 3 0.23033 0.261904 0.253034
1250 4 0.201353 0.260425 0.228166
1249 2 0.180982 0.253229 0.21558
900 4 0.205779 0.27409 0.213099
898 2 0.218093 0.295822 0.214228
899 4 0.230406 0.317554 0.215357
1847 4 0.205409 0.32584 0.226015
18 3 0.254211 0.261201 0.223933
1083 4 0.358429 0.320749 0.20708
1150 2 0.373244 0.286475 0.231008
1152 4 0.368199 0.305516 0.215608
1151 4 0.378289 0.267433 0.246408
927 4 0.359532 0.257912 0.242528
3271 2 0.469991 0.315613 0.178996
754 2 0.475782 0.310754 0.243969
3272 4 0.466832 0.313088 0.203671
756 4 0.470109 0.321606 0.222169
1162 2 0.0413158 0.345676 0.236695
1163 4 0.0480281 0.368032 0.245659
1046 4 0.0864542 0.335929 0.196318
1045 2 0.100377 0.353137 0.207946
1047 4 0.1143 0.370345 0.219574
861 4 0.131327 0.362684 0.22445
859 2 0.153763 0.366492 0.234808
860 4 0.176199 0.3703 0.245167
1846 2 0.202591 0.348727 0.216351
1848 4 0.199774 0.371615 0.206686
830 4 0.207829 0.383555 0.190519
829 2 0.209217 0.404186 0.176461
1069 2 0.314045 0.386727 0.240429
1071 4 0.326125 0.365753 0.234157
1070 4 0.301965 0.407701 0.246702
1082 4 0.342635 0.365736 0.222162
2184 4 0.284191 0.417594 0.247864
1081 2 0.350532 0.343243 0.214621
346 1 0.381131 0.383437 0.238065
350 3 0.383242 0.360843 0.236142
349 3 0.369605 0.391896 0.219789
1057 2 0.404641 0.411016 0.198996
347 3 0.402054 0.392973 0.238724
1058 4 0.415318 0.395707 0.182358
2826 4 0.425804 0.383576 0.194324
2824 2 0.450623 0.380661 0.195135
2825 4 0.475443 0.377745 0.195946
3512 4 0.484707 0.367015 0.181831
52 3 0.256443 0.440768 0.172463
2182 2 0.284015 0.442222 0.243549
2183 4 0.28384 0.46685 0.239233
1059 4 0.393965 0.426326 0.215634
1968 4 0.362116 0.48066 0.220792
1966 2 0.37014 0.457845 0.214444
1967 4 0.378164 0.43503 0.208097
1176 4 0.350299 0.486452 0.236213
1174 2 0.33567 0.477991 0.254641
1160 4 0.174043 0.0788186 0.294318
928 2 0.17847 0.0673439 0.25675
930 4 0.165018 0.0720578 0.277293
2145 4 0.212018 0.0174233 0.314761
2143 2 0.192931 0.0116045 0.329829
1159 2 0.187999 0.0695706 0.31289
1161 4 0.201954 0.0603226 0.331461
1078 2 0.299141 0.0697667 0.30398
1080 4 0.321779 0.0800008 0.301159
1079 4 0.276502 0.0595326 0.3068
2212 2 0.404918 0.05071 0.268382
769 2 0.358151 0.0738809 0.288185
2214 4 0.397701 0.0703219 0.28211
770 4 0.380272 0.0812736 0.279175
771 4 0.336029 0.0664881 0.297195
2213 4 0.412135 0.0310981 0.254653
1393 2 0.0186857 0.155971 0.279116
1394 4 0.0266616 0.14037 0.296953
1016 4 0.0444928 0.143999 0.305298
1015 2 0.0624685 0.129085 0.314222
1017 4 0.0804441 0.114172 0.323146
1395 4 0.0107099 0.171573 0.261279
83 3 0.0971244 0.148753 0.299471
81 1 0.10707 0.16395 0.313912
82 3 0.113175 0.152988 0.333191
1076 4 0.0963743 0.101967 0.321994
843 4 0.186742 0.14501 0.304599
956 4 0.188905 0.160299 0.29267
841 2 0.199647 0.146542 0.32596
3667 2 0.390442 0.141034 0.310659
3668 4 0.375302 0.152657 0.294507
3669 4 0.405582 0.129411 0.32681
3183 4 0.334765 0.164906 0.333313
931 2 0.443187 0.158575 0.246022
932 4 0.457541 0.171412 0.26197
379 3 0.999646 0.171674 0.242777
1228 2 0.0691026 0.217902 0.316149
84 3 0.0920254 0.180776 0.319293
1230 4 0.0610154 0.241514 0.314651
1229 4 0.0771899 0.19429 0.317647
884 4 0.122448 0.243874 0.266859
883 2 0.133917 0.221767 0.269077
85 3 0.125609 0.172919 0.304191
885 4 0.145386 0.199661 0.271296
957 4 0.15795 0.199071 0.286406
955 2 0.173427 0.179685 0.289538
17 3 0.258981 0.237988 0.253106
3254 4 0.370851 0.158499 0.275261
3253 2 0.375841 0.178146 0.260623
926 4 0.375157 0.212831 0.257504
925 2 0.367345 0.235371 0.250016
834 4 0.460351 0.176013 0.281713
832 2 0.467186 0.200064 0.281673
833 4 0.474021 0.224115 0.281633
1095 4 0.467377 0.237711 0.268778
432 3 0.0137008 0.286953 0.267805
974 4 0.0643334 0.261164 0.309908
973 2 0.0575432 0.273549 0.330539
1448 4 0.996902 0.294759 0.260808
881 4 0.106073 0.307533 0.276673
882 4 0.122 0.260188 0.279008
880 2 0.114037 0.28386 0.27784
1029 4 0.152463 0.276258 0.312524
869 4 0.142633 0.261026 0.318937
981 4 0.217303 0.282233 0.326894
1027 2 0.176375 0.282396 0.316485
1028 4 0.200288 0.288534 0.320446
27 3 0.291815 0.308641 0.323632
755 4 0.481456 0.299902 0.265768
1093 2 0.47203 0.26162 0.274428
1094 4 0.476683 0.285528 0.280077
1043 4 0.0361912 0.372535 0.260802
1042 2 0.0492241 0.385064 0.278075
1044 4 0.062257 0.397594 0.295347
2835 4 0.0541678 0.411311 0.308571
2270 4 0.16683 0.385133 0.25429
2269 2 0.180497 0.405598 0.258719
348 3 0.369869 0.388697 0.257659
2129 4 0.418465 0.398284 0.250316
999 4 0.463232 0.346083 0.287134
997 2 0.486001 0.338084 0.293671
2128 2 0.421828 0.401134 0.274927
2130 4 0.425192 0.403984 0.299539
4188 4 0.02651 0.520697 0.275705
4187 4 0.022491 0.481084 0.305959
1140 4 0.00969649 0.473822 0.320361
2833 2 0.0442278 0.427185 0.325136
4186 2 0.0245005 0.50089 0.290832
1857 4 0.208133 0.440625 0.259878
2271 4 0.194163 0.426062 0.263147
1085 4 0.204402 0.504127 0.316063
1855 2 0.226828 0.455534 0.267186
1856 4 0.245523 0.470443 0.274494
795 4 0.324667 0.436981 0.320434
793 2 0.318293 0.444545 0.297471
1106 4 0.252142 0.456237 0.288395
1105 2 0.257213 0.451537 0.312424
1175 4 0.321041 0.469531 0.273069
794 4 0.311919 0.45211 0.274507
4013 4 0.422904 0.475072 0.336391
2045 4 0.439796 0.466588 0.331821
2046 4 0.4621 0.477586 0.288435
2044 2 0.450948 0.472087 0.310128
1881 4 0.48173 0.482018 0.29202
3074 4 0.0623084 0.0293384 0.409545
3073 2 0.0394379 0.0382962 0.414222
2988 4 0.0803587 0.0376115 0.411716
1154 4 0.156973 0.0159489 0.34365
2987 4 0.101037 0.0102903 0.375292
1155 4 0.113654 0.0247348 0.367038
2986 2 0.0906976 0.0239509 0.393504
1153 2 0.135314 0.0203418 0.355344
3107 4 0.106483 0.074443 0.381778
2144 4 0.173845 0.00578569 0.344896
1142 4 0.215315 0.0695508 0.342332
1141 2 0.215363 0.074081 0.366922
1827 4 0.281804 0.0479011 0.333427
1826 4 0.304415 0.0469817 0.378021
1825 2 0.29311 0.0474414 0.355724
90 3 0.308359 0.0517381 0.39708
86 1 0.315322 0.0377852 0.413678
89 3 0.307576 0.016276 0.409709
88 3 0.338498 0.037775 0.414809
921 4 0.353923 0.0412485 0.400348
919 2 0.369839 0.0321988 0.38332
920 4 0.385756 0.023149 0.366292
23 3 0.39766 0.0188012 0.350953
2859 4 0.0439938 0.148505 0.416961
1472 4 0.0507651 0.165557 0.40799
1077 4 0.111596 0.0891072 0.367859
1075 2 0.103985 0.0955373 0.344927
3106 2 0.105931 0.0847026 0.404573
1245 4 0.111064 0.166022 0.348426
1131 4 0.162027 0.158073 0.393872
1244 4 0.146789 0.166478 0.383414
175 3 0.167101 0.163038 0.411565
1243 2 0.128927 0.16625 0.36592
1143 4 0.21541 0.0786112 0.391512
842 4 0.212552 0.148075 0.347321
1130 4 0.199552 0.153541 0.36113
1129 2 0.180789 0.155807 0.377501
951 4 0.372636 0.142297 0.385482
949 2 0.388119 0.153003 0.401938
3181 2 0.348591 0.161701 0.353898
3182 4 0.362417 0.158495 0.374483
950 4 0.403603 0.163709 0.418395
1108 2 0.0329678 0.234128 0.378091
1109 4 0.0403868 0.210424 0.380972
1473 4 0.0532995 0.21403 0.395963
1471 2 0.0520323 0.189793 0.401976
172 3 0.133934 0.174655 0.399
870 4 0.0968067 0.254087 0.337712
814 2 0.317906 0.220758 0.359654
815 4 0.295928 0.232084 0.363382
816 4 0.339883 0.209433 0.355926
1167 4 0.350704 0.217087 0.371454
1165 2 0.370701 0.229944 0.3792
1166 4 0.390698 0.2428 0.386946
1226 4 0.409566 0.244119 0.392519
1225 2 0.422192 0.228811 0.407732
1646 4 0.420613 0.176085 0.417192
1110 4 0.0255487 0.257831 0.37521
975 4 0.0507531 0.285935 0.351171
874 2 0.0569655 0.295676 0.392116
876 4 0.0572113 0.285876 0.369114
875 4 0.0567197 0.305476 0.415118
868 2 0.11972 0.257557 0.328324
979 2 0.239707 0.278667 0.337406
891 4 0.260809 0.270195 0.404866
28 3 0.306736 0.280164 0.343102
980 4 0.262112 0.275101 0.347919
30 3 0.272196 0.292807 0.351152
26 1 0.293088 0.298883 0.344425
29 3 0.302074 0.314198 0.359361
1169 4 0.199156 0.356998 0.380364
1168 2 0.187872 0.374164 0.394618
1854 4 0.216856 0.406094 0.364902
1852 2 0.230164 0.422969 0.352123
1170 4 0.176588 0.39133 0.408873
903 4 0.342673 0.366673 0.404705
1193 4 0.33551 0.375323 0.38914
2219 4 0.379447 0.391856 0.342878
1194 4 0.36495 0.396392 0.354643
1192 2 0.35023 0.385858 0.371892
2218 2 0.401234 0.380266 0.346904
2220 4 0.42302 0.368677 0.35093
1022 4 0.434163 0.37227 0.368029
1021 2 0.433756 0.379821 0.391862
2834 4 0.0342877 0.443059 0.341701
1138 2 0.0137173 0.483409 0.343101
1923 4 0.0356211 0.441671 0.362001
1921 2 0.0325879 0.445784 0.386477
1922 4 0.0295547 0.449897 0.410953
1139 4 0.0177381 0.492997 0.365841
1092 4 0.135072 0.472454 0.411042
1853 4 0.243472 0.439844 0.339343
1038 4 0.287728 0.436913 0.3701
1949 4 0.336655 0.496643 0.386593
1037 4 0.317135 0.421914 0.332537
1107 4 0.262283 0.446838 0.336453
1036 2 0.302432 0.429413 0.351319
782 4 0.290311 0.46932 0.395226
781 2 0.304722 0.488648 0.388598
165 3 0.297224 0.42842 0.385968
161 1 0.303432 0.436383 0.406381
163 3 0.293846 0.4572 0.410009
164 3 0.32655 0.437995 0.407554
4014 4 0.395042 0.50031 0.369368
4012 2 0.408973 0.487691 0.352879
3075 4 0.0165675 0.0472541 0.4189
58 3 0.0119374 0.065761 0.425938
56 1 0.0177154 0.0789303 0.444147
60 3 0.0386484 0.0735319 0.451311
942 4 0.0238905 0.040814 0.491751
87 3 0.306899 0.0451311 0.433783
1233 4 0.323171 0.0473712 0.494682
4281 4 0.497636 0.083279 0.470929
4466 4 0.493357 0.0657011 0.481192
4465 2 0.502134 0.0474227 0.495822
2858 4 0.0370158 0.102064 0.434143
2857 2 0.0405048 0.125285 0.425552
59 3 0.0168965 0.101364 0.438277
2210 4 0.0499005 0.0897844 0.446523
2209 2 0.0690546 0.096195 0.461261
2211 4 0.0882086 0.102606 0.475999
1559 4 0.089916 0.100377 0.497043
1558 2 0.102043 0.12168 0.501973
3108 4 0.105379 0.0949621 0.427368
839 4 0.106157 0.104935 0.445718
840 4 0.116211 0.152815 0.435367
838 2 0.111184 0.128875 0.440542
174 3 0.136118 0.156919 0.432065
2940 4 0.475767 0.172279 0.426977
1647 4 0.46311 0.166764 0.441846
1645 2 0.441862 0.171424 0.429519
3112 2 0.0404496 0.225326 0.493802
3114 4 0.0590452 0.228065 0.477313
3153 4 0.050994 0.236449 0.460684
3151 2 0.0716098 0.234682 0.446647
171 1 0.14693 0.171622 0.417736
173 3 0.149914 0.19212 0.428194
828 4 0.144665 0.20977 0.422703
826 2 0.126984 0.224435 0.432579
3152 4 0.0922257 0.232916 0.432609
827 4 0.109304 0.2391 0.442456
1496 4 0.101175 0.158073 0.500174
1700 4 0.221923 0.208567 0.480341
1699 2 0.244939 0.200162 0.475362
1580 4 0.207907 0.223835 0.47607
1701 4 0.267955 0.191757 0.470383
39 3 0.286643 0.200353 0.476083
38 3 0.323005 0.194394 0.485394
36 1 0.304567 0.208107 0.488614
40 3 0.309619 0.229471 0.482555
520 3 0.405363 0.228364 0.462901
2938 2 0.498019 0.172157 0.415576
1227 4 0.434818 0.213503 0.422945
519 3 0.434485 0.22458 0.439338
1099 2 0.457706 0.179361 0.487202
517 3 0.434451 0.207089 0.472605
516 1 0.427994 0.226203 0.461555
518 3 0.438295 0.244461 0.471504
1101 4 0.452001 0.202821 0.480702
4523 4 0.0428792 0.303822 0.492272
1579 2 0.198746 0.246835 0.472567
63 3 0.231681 0.296291 0.484092
1581 4 0.189584 0.269834 0.469065
1601 4 0.182375 0.280285 0.483935
61 1 0.253124 0.300297 0.476183
64 3 0.258023 0.285694 0.458829
889 2 0.262783 0.284941 0.424962
62 3 0.254226 0.321872 0.468281
890 4 0.264757 0.299686 0.445059
792 4 0.265019 0.319766 0.449843
790 2 0.283826 0.334707 0.4429
65 3 0.268231 0.297696 0.493026
1334 4 0.441737 0.247482 0.491272
1186 2 0.000958311 0.380559 0.438494
1187 4 0.018433 0.394222 0.450032
3027 4 0.00758533 0.402167 0.465653
1238 4 0.182948 0.397315 0.427224
1237 2 0.202108 0.411891 0.43398
1983 4 0.29932 0.410921 0.4389
791 4 0.302634 0.349649 0.435956
1981 2 0.296514 0.387328 0.43111
1982 4 0.293709 0.363735 0.42332
901 2 0.347958 0.359322 0.428012
902 4 0.353244 0.351971 0.451319
1023 4 0.433349 0.387372 0.415695
3025 2 0.00691462 0.425637 0.474247
1851 4 0.0666965 0.454504 0.491221
2172 4 0.168121 0.442057 0.46329
2170 2 0.166797 0.42423 0.480771
1091 4 0.158117 0.455114 0.451895
1090 2 0.146595 0.463784 0.431469
1239 4 0.221267 0.426467 0.440736
1343 4 0.317135 0.473086 0.476002
2797 2 0.307679 0.492191 0.446093
2798 4 0.303544 0.4721 0.46039
162 3 0.29615 0.421897 0.422699
3898 2 0.414028 0.492333 0.446163
3899 4 0.391295 0.501829 0.441893
3605 4 0.454585 0.489795 0.458438
3039 4 0.484054 0.421417 0.48917
3604 2 0.47261 0.472472 0.457982
3606 4 0.490635 0.45515 0.457525
3900 4 0.436761 0.482838 0.450432
940 2 0.0373032 0.0292656 0.509412
941 4 0.050716 0.0177171 0.527073
3436 2 0.0693052 0.0189213 0.58919
863 4 0.148597 0.0206203 0.540912
3396 4 0.142042 0.0202549 0.522172
3394 2 0.117816 0.0140684 0.521954
862 2 0.162292 0.0402323 0.548193
864 4 0.175986 0.0598444 0.555475
212 3 0.242899 0.00789916 0.496639
1181 4 0.238655 0.0151798 0.515386
1608 4 0.171346 0.0703653 0.538979
1606 2 0.19015 0.0868038 0.540135
1180 2 0.257958 0.0284948 0.524063
1182 4 0.27726 0.0418098 0.532741
1053 4 0.278866 0.0610759 0.538359
1051 2 0.297799 0.0728015 0.526992
1231 2 0.334312 0.0311049 0.51006
1232 4 0.345453 0.0148387 0.525437
146 1 0.363045 0.0224559 0.563831
147 3 0.3505 0.041126 0.568647
150 3 0.384866 0.0285044 0.561396
149 3 0.355199 0.0130213 0.544138
1499 4 0.392422 0.0104559 0.56918
1498 2 0.415501 0.00731741 0.560086
148 3 0.360931 0.0072954 0.58127
1644 4 0.380143 0.00442381 0.585638
1179 4 0.346247 0.0607659 0.569614
1500 4 0.438579 0.00417889 0.550992
1560 4 0.11417 0.142983 0.506904
1617 4 0.106966 0.168044 0.551224
1607 4 0.208955 0.103242 0.54129
1572 4 0.209661 0.119291 0.551538
1570 2 0.211785 0.143591 0.546041
1362 4 0.233909 0.169404 0.55936
1052 4 0.316732 0.0845271 0.515624
1146 4 0.368385 0.168008 0.531403
1100 4 0.463412 0.155901 0.493702
3113 4 0.0218541 0.222586 0.510291
780 4 0.00951479 0.237531 0.516353
1497 4 0.123926 0.200429 0.513926
1495 2 0.112551 0.179251 0.50705
1571 4 0.213909 0.16789 0.540545
1360 2 0.244091 0.190666 0.567693
1361 4 0.254273 0.211928 0.576026
37 3 0.2988 0.207708 0.510879
1321 2 0.322598 0.244489 0.56438
1144 2 0.350176 0.177126 0.516896
1145 4 0.331967 0.186244 0.502388
2827 2 0.494844 0.230979 0.542934
2828 4 0.50066 0.210673 0.556314
3224 4 0.495941 0.201764 0.57367
4522 2 0.0376705 0.300684 0.516525
1040 4 0.0342596 0.304936 0.560554
4524 4 0.0324618 0.297547 0.540778
1039 2 0.0339518 0.316259 0.582844
1602 4 0.162962 0.294692 0.527711
1289 4 0.146624 0.289845 0.53669
1288 2 0.15616 0.282342 0.558552
1600 2 0.172669 0.287488 0.505823
936 4 0.301552 0.269383 0.541816
1323 4 0.318027 0.258001 0.543845
934 2 0.294289 0.282705 0.521944
935 4 0.287026 0.296028 0.502071
2829 4 0.489028 0.251285 0.529554
1333 2 0.458803 0.256765 0.507013
1335 4 0.475869 0.266047 0.522754
10 3 0.122421 0.395532 0.557651
1632 4 0.138662 0.392779 0.546746
1630 2 0.155329 0.392108 0.528119
6 1 0.102591 0.406644 0.556258
7 3 0.0863166 0.392194 0.548807
9 3 0.0965141 0.414646 0.577173
1631 4 0.171995 0.391437 0.509492
3650 4 0.389763 0.343482 0.547282
1698 4 0.397078 0.395954 0.518931
3651 4 0.384036 0.380305 0.513936
3649 2 0.3869 0.361893 0.530609
1653 4 0.328363 0.411588 0.587872
1849 2 0.0576541 0.477556 0.494687
1806 4 0.0841741 0.458606 0.499686
1804 2 0.100549 0.445705 0.513492
8 3 0.104421 0.424256 0.541263
1391 4 0.131502 0.444506 0.5667
1390 2 0.13842 0.467439 0.55953
1392 4 0.145339 0.490372 0.552361
1805 4 0.116923 0.432804 0.527299
2171 4 0.165473 0.406402 0.498252
2358 4 0.326911 0.464639 0.542514
2356 2 0.314528 0.472035 0.562938
1344 4 0.322902 0.475731 0.525605
1342 2 0.320018 0.474409 0.500803
1696 2 0.398975 0.420621 0.522549
1697 4 0.400871 0.445289 0.526167
4254 4 0.386996 0.455644 0.53604
4252 2 0.386971 0.478451 0.525793
1116 4 0.453023 0.462048 0.580837
3037 2 0.466321 0.434873 0.500557
3038 4 0.448587 0.448329 0.511943
1115 4 0.449875 0.451647 0.532025
1114 2 0.451449 0.456847 0.556431
3437 4 0.0720647 0.0430978 0.59494
2441 4 0.0900729 0.0221177 0.653741
1297 2 0.159108 0.998544 0.667016
1642 2 0.385636 0.00162705 0.60987
1177 2 0.357793 0.0759562 0.585774
1137 4 0.375623 0.0804132 0.617586
1135 2 0.39969 0.0748165 0.621413
2268 4 0.407562 0.000599469 0.647318
1643 4 0.391129 0.99883 0.634101
2266 2 0.427736 0.0142731 0.641732
530 3 0.457506 0.0415941 0.645952
526 1 0.459175 0.0643033 0.645561
527 3 0.477048 0.0703616 0.632407
2267 4 0.44791 0.0279468 0.636146
529 3 0.439835 0.073511 0.636641
1136 4 0.423757 0.0692198 0.62524
1615 2 0.108596 0.164737 0.575955
1616 4 0.110225 0.16143 0.600685
1178 4 0.369339 0.0911466 0.601933
1548 4 0.481958 0.119331 0.662302
1277 4 0.0890099 0.204542 0.662167
1322 4 0.327169 0.230976 0.584915
1286 4 0.336998 0.217519 0.596033
1287 4 0.357962 0.236776 0.637147
1285 2 0.34748 0.227148 0.61659
1384 2 0.385203 0.224457 0.659015
1385 4 0.402021 0.206628 0.663961
1386 4 0.368384 0.242285 0.654068
1661 4 0.418487 0.208189 0.652387
1662 4 0.464589 0.189814 0.646247
1660 2 0.441538 0.199001 0.649317
1041 4 0.033644 0.327582 0.605135
1593 4 0.0273389 0.330651 0.623806
1428 4 0.00956562 0.259585 0.6613
1290 4 0.165697 0.274838 0.580414
1629 4 0.15761 0.284139 0.59606
1627 2 0.165479 0.301728 0.611994
1628 4 0.173348 0.319317 0.627928
1674 4 0.464296 0.336781 0.583424
1591 2 0.0440295 0.348688 0.62842
1592 4 0.0607202 0.366724 0.633034
3542 4 0.0730114 0.381375 0.626258
3541 2 0.0873418 0.39491 0.610876
3543 4 0.101672 0.408446 0.595494
1436 4 0.141338 0.417905 0.606735
1613 4 0.225115 0.371348 0.625267
1612 2 0.244528 0.369347 0.609637
1356 4 0.217416 0.373133 0.643023
1354 2 0.203598 0.38762 0.658002
1614 4 0.263942 0.367346 0.594008
1353 4 0.308553 0.417967 0.589537
1352 4 0.281832 0.375697 0.58969
1351 2 0.295193 0.396832 0.589613
1673 4 0.432115 0.329912 0.621079
1563 4 0.421072 0.339685 0.634589
1672 2 0.448205 0.333346 0.602252
3314 4 0.47186 0.393947 0.647069
3313 2 0.484214 0.372355 0.64958
2768 4 0.0454297 0.491509 0.620106
1435 2 0.147738 0.44204 0.608042
1437 4 0.154138 0.466176 0.60935
2813 4 0.17436 0.467273 0.608272
1469 4 0.225744 0.472715 0.656809
1468 2 0.237752 0.48244 0.637151
3429 4 0.232037 0.453945 0.655452
2812 2 0.17497 0.488751 0.621059
2593 2 0.285389 0.496252 0.610329
2357 4 0.302145 0.479431 0.583362
2594 4 0.306876 0.487014 0.601488
1651 2 0.341231 0.426165 0.603592
1652 4 0.354098 0.440741 0.619313
2529 4 0.340516 0.450621 0.630065
2527 2 0.350829 0.473381 0.629185
2528 4 0.361142 0.496142 0.628305
1484 4 0.0713036 0.00634534 0.74811
3773 4 0.0609217 0.995223 0.734387
1483 2 0.0895121 0.0221691 0.754686
2440 2 0.0958535 0.026917 0.677589
2442 4 0.101634 0.0317164 0.701437
1299 4 0.172748 0.0193799 0.669248
1685 4 0.101738 0.0485562 0.710728
1684 2 0.113659 0.0690771 0.7186
2736 4 0.170734 0.0248438 0.688627
2735 4 0.215369 0.0283572 0.710901
2734 2 0.193051 0.0266005 0.699764
1682 4 0.226697 0.0198963 0.724743
1681 2 0.246265 0.00441696 0.726368
3693 4 0.4567 0.00691264 0.711039
1668 4 0.466303 0.0241141 0.710904
1667 4 0.45312 0.0576744 0.676254
528 3 0.462605 0.0723604 0.667049
1666 2 0.459711 0.0408942 0.693579
1325 4 0.0829162 0.155638 0.714027
1316 4 0.0880265 0.136082 0.715031
1639 2 0.999495 0.157351 0.714798
1686 4 0.12558 0.089598 0.726471
1692 4 0.131581 0.108168 0.733188
1690 2 0.144189 0.111642 0.754499
1315 2 0.0856569 0.116879 0.730868
1296 4 0.234268 0.0943865 0.72431
1294 2 0.224576 0.114286 0.71268
1295 4 0.214885 0.134186 0.701049
1618 2 0.313791 0.128137 0.750353
1545 4 0.335407 0.148778 0.716576
1619 4 0.324187 0.140582 0.731321
1544 4 0.384418 0.14434 0.707691
1543 2 0.359913 0.146559 0.712133
1531 2 0.41353 0.162052 0.710254
1532 4 0.389074 0.162252 0.715453
1480 2 0.467024 0.150694 0.66675
1482 4 0.472378 0.128422 0.676774
1641 4 0.0159899 0.173033 0.704446
1324 2 0.0650013 0.17118 0.721943
465 3 0.0325784 0.221757 0.734075
1326 4 0.0470863 0.186722 0.729859
462 3 0.0380245 0.187616 0.748133
1276 2 0.0990775 0.202384 0.684952
1278 4 0.109145 0.200226 0.707737
1404 4 0.126584 0.187862 0.707274
1402 2 0.150101 0.187581 0.715763
1403 4 0.173618 0.1873 0.724251
144 3 0.177417 0.198974 0.740873
142 3 0.179276 0.236305 0.744827
1420 2 0.351394 0.250953 0.739437
1533 4 0.437986 0.161852 0.705055
1481 4 0.461671 0.172966 0.656727
1426 2 0.0257944 0.276623 0.669756
1427 4 0.0420233 0.293661 0.678212
1479 4 0.0451777 0.319024 0.729939
1477 2 0.0415865 0.306826 0.751467
3465 4 0.143091 0.326372 0.708245
3368 4 0.16195 0.323917 0.707189
3367 2 0.183019 0.316106 0.696222
3369 4 0.204088 0.308295 0.685256
1340 4 0.260705 0.310198 0.707899
1339 2 0.266732 0.332417 0.698145
1703 4 0.358287 0.336805 0.734376
1704 4 0.350712 0.28838 0.724456
1422 4 0.34058 0.271574 0.730326
1702 2 0.3545 0.312592 0.729416
1561 2 0.420776 0.328195 0.656795
1562 4 0.42048 0.316706 0.679
3472 2 0.480741 0.291953 0.686335
1452 4 0.431091 0.312132 0.696174
1450 2 0.42762 0.301011 0.718297
3474 4 0.474133 0.278133 0.706097
3473 4 0.487349 0.305774 0.666574
1451 4 0.424149 0.289889 0.74042
3713 4 0.489415 0.270383 0.714807
1744 2 0.0751842 0.380366 0.719409
1745 4 0.0587418 0.394511 0.731849
1604 4 0.0400401 0.387946 0.732487
3463 2 0.122002 0.338541 0.702557
1746 4 0.0916265 0.366221 0.706969
3464 4 0.100913 0.350709 0.696868
1280 4 0.160421 0.377832 0.731872
1355 4 0.18978 0.402108 0.672981
1589 4 0.184386 0.419259 0.682696
1281 4 0.208277 0.381533 0.745899
1279 2 0.184349 0.379683 0.738886
1717 2 0.251511 0.386324 0.686209
1341 4 0.272758 0.354637 0.688391
1718 4 0.25474 0.361941 0.690706
1719 4 0.248282 0.410706 0.681712
3315 4 0.496569 0.350762 0.65209
3793 2 0.492673 0.382466 0.722866
3795 4 0.47581 0.373309 0.738897
3794 4 0.509536 0.391622 0.706836
3427 2 0.243974 0.440451 0.67279
1588 2 0.183815 0.434258 0.702693
1590 4 0.183244 0.449258 0.722689
1599 4 0.169009 0.463428 0.720869