ITEM: TIMESTEP
460000
ITEM: NUMBER OF ATOMS
4800
ITEM: BOX BOUNDS pp pp pp
-9.9985700000000008e+00 9.9985700000000008e+00
-9.9985700000000008e+00 9.9985700000000008e+00
-9.9985700000000008e+00 9.9985700000000008e+00
ITEM: ATOMS id type xs ys zs
1636 2 0.0472383 0.0558917 0.0725811
1637 4 0.029785 0.0720052 0.0647764
3579 4 0.0252081 0.0691634 0.0445536
1638 4 0.0646916 0.0397781 0.0803858
3577 2 0.00384612 0.0632311 0.0329928
1149 4 0.121168 0.0603263 0.0437448
1147 2 0.131679 0.0692409 0.0228827
1148 4 0.142191 0.0781555 0.00202057
1409 4 0.354866 0.0794397 0.00327882
1430 4 0.359654 0.0808201 0.0217303
1818 4 0.447162 0.0725981 0.050631
1816 2 0.448671 0.0480743 0.0552664
1817 4 0.450179 0.0235505 0.0599018
1032 4 0.0661363 0.155123 0.0119918
1010 4 0.0650682 0.155266 0.0323767
1009 2 0.0691234 0.165318 0.0549086
20 3 0.0904317 0.116991 0.0759304
17 3 0.116381 0.143814 0.0761439
1388 4 0.16103 0.0833286 0.00514964
1883 4 0.191201 0.0942843 0.0782274
852 4 0.25771 0.159399 0.0630863
947 4 0.261243 0.140093 0.0683986
1429 2 0.355855 0.0898311 0.0447422
1431 4 0.352056 0.0988422 0.0677541
2841 4 0.452273 0.0925475 0.0487207
2839 2 0.472493 0.10515 0.0563016
2840 4 0.492714 0.117752 0.0638825
989 4 0.496498 0.136506 0.0699266
1011 4 0.0731786 0.17537 0.0774405
1196 4 0.0803413 0.222468 0.0429447
911 4 0.122097 0.190555 0.0765479
1195 2 0.0927313 0.2415 0.0534063
850 2 0.262229 0.178692 0.0783353
1458 4 0.336451 0.207271 0.0460608
1456 2 0.351941 0.211209 0.0652891
1457 4 0.367431 0.215148 0.0845174
3086 4 0.0133151 0.267167 0.0111034
1197 4 0.105121 0.260532 0.0638679
1254 4 0.148231 0.265173 0.0806872
961 2 0.281744 0.30896 0.0288455
963 4 0.297402 0.290289 0.0232445
1412 4 0.292314 0.275827 0.00988467
824 4 0.311772 0.293109 0.0375314
962 4 0.266085 0.327632 0.0344466
823 2 0.330719 0.289341 0.0534056
1411 2 0.289307 0.252307 0.00195195
1739 4 0.373976 0.26775 0.00494204
825 4 0.349666 0.285572 0.0692797
1050 4 0.352086 0.27024 0.0812541
1172 4 0.0139944 0.38846 0.0640741
1171 2 0.0310818 0.375199 0.0515306
1173 4 0.0481693 0.361938 0.0389871
1448 4 0.065182 0.352184 0.0380422
1447 2 0.0844018 0.357056 0.0532751
938 4 0.117157 0.369395 0.0814431
1449 4 0.103622 0.361928 0.068508
937 2 0.134909 0.379429 0.0669747
939 4 0.152662 0.389463 0.0525063
804 4 0.171602 0.388722 0.0456213
802 2 0.174627 0.37488 0.02502
803 4 0.177652 0.361037 0.00441867
772 2 0.316216 0.37369 0.0115452
774 4 0.299752 0.392411 0.009635
773 4 0.332679 0.354969 0.0134555
1406 4 0.353146 0.377644 0.0257533
1405 2 0.373923 0.376393 0.0118997
967 2 0.359556 0.407399 0.0689389
968 4 0.359997 0.384226 0.0783183
3294 4 0.492599 0.390782 0.0731424
797 4 0.491965 0.39625 0.0526404
796 2 0.489061 0.383297 0.0314515
798 4 0.486158 0.370344 0.0102625
2161 2 0.0562584 0.481367 0.0737506
2162 4 0.0355145 0.489576 0.0624594
2163 4 0.0770022 0.473159 0.0850419
1087 2 0.131143 0.460351 0.0157796
1088 4 0.1415 0.472605 0.0349561
1554 4 0.132767 0.473823 0.0532108
1552 2 0.114398 0.475547 0.0700865
1551 4 0.256109 0.443913 0.0251342
96 1 0.322585 0.448629 0.0630828
99 3 0.301961 0.445381 0.0529567
1550 4 0.296027 0.4634 0.0481019
1549 2 0.276068 0.453656 0.0366181
97 3 0.328343 0.470826 0.0612748
996 4 0.310182 0.475634 0.0538415
994 2 0.305518 0.499913 0.057578
969 4 0.359115 0.430573 0.0595596
1124 4 0.380173 0.431104 0.0527533
100 3 0.338402 0.435911 0.0527534
1123 2 0.388621 0.454614 0.0517068
1125 4 0.397069 0.478124 0.0506602
752 4 0.393843 0.493617 0.0623844
1201 2 0.0239735 0.0288008 0.136331
1203 4 0.0257158 0.0445783 0.15565
2138 4 0.0672739 0.0413046 0.100285
1938 4 0.0431235 0.0393205 0.162514
1202 4 0.0222313 0.0130232 0.117012
1072 2 0.151261 0.0016853 0.129279
2137 2 0.0899517 0.0483089 0.108149
2139 4 0.112629 0.0553131 0.116012
1001 4 0.122792 0.0634735 0.13162
1074 4 0.155449 0.0219537 0.143308
1127 4 0.143796 0.0316767 0.155394
1161 4 0.222422 0.00314259 0.150336
929 4 0.202777 0.0796229 0.0835548
928 2 0.213563 0.0592164 0.0931683
1159 2 0.230722 0.0194754 0.133321
930 4 0.224349 0.0388099 0.102782
1160 4 0.239023 0.0358083 0.116306
1246 2 0.406379 0.0777929 0.153775
1248 4 0.409797 0.0564538 0.166351
3298 2 0.485439 0.0108694 0.139457
33 3 0.446768 0.0264257 0.152232
438 3 0.00430152 0.150767 0.152163
19 3 0.099743 0.133783 0.108319
1000 2 0.136426 0.0837952 0.126489
18 3 0.124193 0.110267 0.091183
1002 4 0.15006 0.104117 0.121359
1884 4 0.150577 0.109618 0.103032
16 1 0.107556 0.126098 0.087866
844 2 0.139476 0.155406 0.144376
846 4 0.137609 0.165313 0.121495
1882 2 0.170889 0.101951 0.0906296
946 2 0.265655 0.122131 0.085224
948 4 0.270067 0.10417 0.102049
1096 2 0.314944 0.166397 0.164761
806 4 0.365646 0.0950355 0.0818088
1247 4 0.402961 0.0991321 0.1412
807 4 0.395508 0.0992042 0.121703
805 2 0.380577 0.0971198 0.101756
1218 4 0.411309 0.159169 0.11949
776 4 0.397759 0.155122 0.105066
988 2 0.486072 0.144071 0.0913565
990 4 0.475645 0.151636 0.112786
1217 4 0.460954 0.164602 0.116922
1216 2 0.436132 0.161886 0.118206
910 2 0.137676 0.180882 0.0935457
912 4 0.153254 0.171209 0.110544
835 2 0.141455 0.230963 0.150774
837 4 0.14854 0.239899 0.128522
1252 2 0.150599 0.246071 0.0966457
1253 4 0.152967 0.226968 0.112604
977 4 0.197336 0.240362 0.0902355
976 2 0.219446 0.251277 0.0943822
801 4 0.188788 0.169811 0.123282
799 2 0.211322 0.169989 0.134116
800 4 0.233856 0.170166 0.144949
67 3 0.247031 0.180704 0.155238
851 4 0.266748 0.197985 0.0935843
1220 4 0.273546 0.216753 0.0947769
1219 2 0.27337 0.220823 0.119446
1221 4 0.273193 0.224892 0.144116
68 3 0.272468 0.208373 0.155264
66 1 0.263406 0.190998 0.16769
1097 4 0.293542 0.177676 0.158442
777 4 0.374138 0.198031 0.0949855
775 2 0.385948 0.176576 0.100026
978 4 0.241556 0.262193 0.0985288
1119 4 0.392445 0.253699 0.132136
1117 2 0.414927 0.255786 0.121393
1049 4 0.37385 0.257477 0.12443
1048 2 0.362968 0.263859 0.102842
1118 4 0.437408 0.257873 0.11065
1508 4 0.476985 0.301488 0.0976688
1509 4 0.440017 0.268013 0.0939959
1507 2 0.458501 0.28475 0.0958324
878 4 0.344082 0.406263 0.120609
13 3 0.370477 0.374649 0.0927708
11 1 0.369543 0.381344 0.114968
15 3 0.376476 0.364387 0.128497
1206 4 0.388668 0.374761 0.141368
12 3 0.347811 0.386794 0.120183
14 3 0.382937 0.400017 0.11818
1974 4 0.395741 0.390573 0.130227
1972 2 0.407201 0.412078 0.135829
1204 2 0.39882 0.364608 0.161838
1059 4 0.489925 0.403596 0.147308
1199 4 0.0316685 0.493726 0.168249
1553 4 0.0960291 0.477272 0.0869622
55 3 0.236143 0.457847 0.142689
51 1 0.245634 0.477357 0.149611
906 4 0.228733 0.442737 0.153281
54 3 0.231471 0.495138 0.144961
98 3 0.321345 0.443008 0.0855611
1069 2 0.289123 0.469354 0.117299
1070 4 0.303704 0.449793 0.111826
879 4 0.305581 0.437317 0.127965
1071 4 0.274542 0.488914 0.122772
877 2 0.324831 0.42179 0.124287
52 3 0.265473 0.480525 0.138406
1968 4 0.409631 0.449352 0.147045
1973 4 0.418661 0.433583 0.141432
1966 2 0.432016 0.460472 0.146378
2129 4 0.449203 0.482117 0.162525
1967 4 0.454401 0.471591 0.145712
1057 2 0.498299 0.416887 0.166761
1936 2 0.0478884 0.0551991 0.181231
1937 4 0.0526533 0.0710777 0.199948
1126 2 0.13333 0.0342308 0.177958
893 4 0.103056 0.0441319 0.205113
892 2 0.106009 0.0666379 0.215598
1128 4 0.122864 0.036785 0.200522
1907 4 0.231089 0.00351738 0.168818
1142 4 0.243021 0.0742843 0.219777
1191 4 0.289026 0.0444383 0.186812
1189 2 0.275447 0.06011 0.200783
1190 4 0.261867 0.0757817 0.214753
35 3 0.421743 0.0426331 0.175226
31 1 0.438698 0.027481 0.173961
32 3 0.455766 0.0340273 0.187924
1208 4 0.46394 0.0514212 0.185989
34 3 0.431149 0.00657817 0.180631
1207 2 0.463341 0.0747961 0.194846
883 2 0.0679415 0.15368 0.217286
885 4 0.081093 0.139696 0.201266
845 4 0.141344 0.145499 0.167258
45 3 0.108323 0.105885 0.181245
44 3 0.134764 0.132684 0.181843
43 3 0.0995504 0.140206 0.194002
41 1 0.116119 0.124022 0.1926
42 3 0.122103 0.117643 0.213876
1016 4 0.11844 0.105462 0.232794
894 4 0.108962 0.089144 0.226083
1141 2 0.220833 0.0854686 0.216984
1143 4 0.198646 0.096653 0.214191
1878 4 0.20551 0.107997 0.22955
1876 2 0.198404 0.124555 0.246886
1098 4 0.336346 0.155118 0.171079
818 4 0.448475 0.111024 0.208269
1209 4 0.462743 0.0981711 0.203702
817 2 0.44673 0.133872 0.218273
819 4 0.444985 0.15672 0.228278
849 4 0.494677 0.159684 0.236103
3009 4 0.486494 0.16267 0.217545
884 4 0.0547901 0.167664 0.233307
983 4 0.0541047 0.186062 0.24226
982 2 0.0510312 0.210005 0.248777
810 4 0.0431584 0.246205 0.240226
836 4 0.13437 0.222027 0.173025
867 4 0.0993698 0.180134 0.212988
865 2 0.115345 0.195867 0.201923
866 4 0.131319 0.2116 0.190857
70 3 0.279602 0.175824 0.172794
69 3 0.253913 0.1993 0.187167
29 3 0.327167 0.177237 0.225232
30 3 0.29872 0.201765 0.22263
26 1 0.312669 0.190977 0.237041
28 3 0.324739 0.206435 0.249441
1095 4 0.386354 0.188742 0.206545
1093 2 0.362872 0.180441 0.208755
1094 4 0.339391 0.17214 0.210965
833 4 0.458639 0.21908 0.238403
3007 2 0.47862 0.186136 0.221084
3008 4 0.470745 0.209602 0.224623
808 2 0.0584746 0.259459 0.225567
809 4 0.0737908 0.272713 0.210907
1215 4 0.0858448 0.267872 0.196064
1213 2 0.0942058 0.291437 0.196101
1214 4 0.102567 0.315001 0.196138
861 4 0.105352 0.331419 0.184047
2945 4 0.490393 0.310153 0.248125
435 3 0.00733646 0.377908 0.225177
859 2 0.114867 0.352847 0.192735
860 4 0.124381 0.374275 0.201424
1081 2 0.412604 0.346679 0.213841
1205 4 0.408972 0.354454 0.182308
1083 4 0.407437 0.337267 0.191261
1082 4 0.417771 0.356092 0.236422
1139 4 0.0589297 0.466403 0.218896
1138 2 0.0527677 0.473676 0.195781
1140 4 0.0466057 0.480949 0.172665
1043 4 0.0667034 0.478441 0.233639
1005 4 0.15664 0.456001 0.226293
1003 2 0.163376 0.443285 0.205845
1047 4 0.148942 0.455635 0.24559
1042 2 0.0837163 0.48893 0.248664
904 2 0.210467 0.43571 0.168843
1004 4 0.170111 0.430569 0.185398
905 4 0.192202 0.428682 0.184404
900 4 0.232818 0.484506 0.17856
53 3 0.249953 0.476417 0.17239
3162 4 0.487718 0.475334 0.237726
1176 4 0.482989 0.492184 0.245851
1058 4 0.506674 0.430178 0.186213
2179 2 0.0638097 0.00298728 0.263051
2850 4 0.0534122 0.039656 0.288337
2180 4 0.0556644 0.018128 0.281205
2848 2 0.0326474 0.052165 0.294463
2849 4 0.0118826 0.0646739 0.300589
1825 2 0.245007 0.0107272 0.282026
771 4 0.244482 0.0414685 0.29905
1827 4 0.252687 0.034522 0.28211
769 2 0.258095 0.0519553 0.317213
770 4 0.271707 0.0624421 0.335376
2215 2 0.402081 0.00102233 0.282132
2216 4 0.412576 0.00618626 0.304232
25 3 0.41528 0.0192949 0.317966
1015 2 0.125149 0.121293 0.250948
1017 4 0.131857 0.137124 0.269102
1061 4 0.132893 0.147953 0.287307
1877 4 0.191299 0.141112 0.264222
950 4 0.301347 0.122505 0.306812
949 2 0.309225 0.11445 0.329133
931 2 0.490837 0.0886196 0.264994
847 2 0.489632 0.142918 0.253953
848 4 0.484587 0.126152 0.271803
933 4 0.477856 0.109988 0.265236
984 4 0.0479577 0.233948 0.255294
1060 2 0.136152 0.166917 0.303274
1062 4 0.139411 0.18588 0.31924
957 4 0.15672 0.195476 0.321861
955 2 0.164206 0.217688 0.313156
956 4 0.171691 0.2399 0.304452
843 4 0.178537 0.247077 0.321978
27 3 0.300197 0.178036 0.251398
793 2 0.318574 0.233649 0.271469
794 4 0.3121 0.210716 0.263896
1167 4 0.341097 0.207215 0.294719
1165 2 0.345864 0.210708 0.319014
832 2 0.449441 0.238068 0.25182
1075 2 0.0484422 0.312902 0.30956
1077 4 0.0289177 0.301124 0.31982
1076 4 0.0679667 0.324679 0.299301
882 4 0.0923258 0.255204 0.269608
880 2 0.109107 0.27195 0.277552
881 4 0.125889 0.288697 0.285495
1251 4 0.132828 0.302253 0.299556
1249 2 0.140949 0.325889 0.298819
841 2 0.1992 0.259878 0.316118
842 4 0.219863 0.27268 0.310258
890 4 0.239113 0.271224 0.312436
795 4 0.325048 0.256581 0.279042
889 2 0.255381 0.277626 0.330312
815 4 0.360905 0.295426 0.299999
816 4 0.343133 0.258674 0.271117
814 2 0.352019 0.27705 0.285558
782 4 0.359474 0.306192 0.316342
834 4 0.440243 0.257056 0.265237
998 4 0.429849 0.274294 0.261672
999 4 0.440179 0.322077 0.272197
997 2 0.435014 0.298186 0.266934
417 3 0.484065 0.31055 0.267504
1023 4 0.471703 0.331931 0.319235
416 1 0.486778 0.327325 0.283009
419 3 0.476413 0.321009 0.302784
1107 4 0.144477 0.405647 0.278938
1105 2 0.138322 0.38252 0.286179
1106 4 0.132167 0.359393 0.29342
1250 4 0.14907 0.349526 0.298083
1224 4 0.254902 0.387966 0.254718
1222 2 0.277846 0.397714 0.256648
1223 4 0.30079 0.407462 0.258578
1150 2 0.330582 0.403162 0.273389
1151 4 0.349301 0.38732 0.278269
1013 4 0.390103 0.3735 0.316963
755 4 0.426158 0.336401 0.271101
1102 2 0.491145 0.380073 0.263041
1104 4 0.472714 0.365105 0.270879
754 2 0.440442 0.356824 0.269089
756 4 0.454726 0.377247 0.267076
1192 2 0.477854 0.399086 0.316396
1194 4 0.484592 0.376106 0.323586
418 3 0.477066 0.346745 0.274826
970 2 0.164003 0.492662 0.286508
1046 4 0.15608 0.421568 0.281496
1045 2 0.152511 0.438602 0.263543
971 4 0.180105 0.478959 0.299853
1152 4 0.311863 0.419003 0.268509
1085 4 0.275975 0.496817 0.269195
927 4 0.377013 0.419285 0.278746
925 2 0.401574 0.423952 0.279132
1193 4 0.471115 0.422066 0.309205
926 4 0.426135 0.428618 0.279518
79 3 0.430818 0.442539 0.293416
78 3 0.454805 0.429082 0.319644
76 1 0.444004 0.448021 0.311705
80 3 0.459325 0.463798 0.305788
1175 4 0.462814 0.477687 0.289251
1174 2 0.472901 0.484936 0.267551
77 3 0.430521 0.456417 0.328344
2988 4 0.0153737 0.0752667 0.373941
3074 4 0.0150143 0.0725177 0.394843
2160 4 0.108449 0.027057 0.356737
2158 2 0.108831 0.00733347 0.3721
960 4 0.33727 0.01497 0.342268
959 4 0.384203 0.0293086 0.332656
23 3 0.396496 0.0326582 0.347736
90 3 0.388361 0.0661192 0.407121
88 3 0.358259 0.0435203 0.406217
86 1 0.36795 0.0627593 0.397595
89 3 0.370171 0.0608773 0.374575
87 3 0.354342 0.0806963 0.402311
958 2 0.360736 0.0221393 0.337462
1145 4 0.334273 0.0787518 0.400123
21 1 0.417172 0.0258634 0.33969
24 3 0.432442 0.0432502 0.341403
22 3 0.424619 0.00815245 0.35234
2986 2 0.0259671 0.0978622 0.372392
2987 4 0.0365606 0.120458 0.370842
1155 4 0.0382957 0.133802 0.385036
1153 2 0.0620422 0.141627 0.384812
1154 4 0.0857887 0.149452 0.384589
1181 4 0.240705 0.15283 0.380777
1137 4 0.259168 0.157557 0.376706
951 4 0.317104 0.106395 0.351454
1135 2 0.276334 0.139864 0.380882
1144 2 0.3191 0.0986078 0.400964
1136 4 0.293501 0.122171 0.385059
1146 4 0.303927 0.118464 0.401805
1649 4 0.0238233 0.173919 0.405449
759 4 0.0252639 0.206923 0.35081
1229 4 0.00688226 0.203305 0.355662
757 2 0.0502427 0.207679 0.351627
758 4 0.0752215 0.208435 0.352444
82 3 0.0807937 0.190737 0.360044
85 3 0.0868932 0.169374 0.390033
83 3 0.111126 0.168574 0.361227
1080 4 0.124621 0.205736 0.395352
84 3 0.108864 0.199255 0.383542
1078 2 0.143343 0.204542 0.411881
81 1 0.0969179 0.181881 0.373854
1182 4 0.22151 0.187878 0.350712
1180 2 0.231108 0.170354 0.365744
62 3 0.315923 0.206356 0.368118
61 1 0.32916 0.224048 0.374519
65 3 0.316276 0.242722 0.376504
1166 4 0.35063 0.214201 0.343309
64 3 0.345518 0.227391 0.358406
1052 4 0.353833 0.220287 0.406785
63 3 0.339033 0.219036 0.39491
811 2 0.498923 0.213352 0.40488
1226 4 0.4205 0.214527 0.393846
907 2 0.47912 0.219735 0.347143
909 4 0.457132 0.227982 0.35573
813 4 0.474829 0.217936 0.400014
1227 4 0.466149 0.234612 0.397512
1225 2 0.443325 0.22457 0.395679
2857 2 0.0245967 0.283702 0.35773
2859 4 0.0282523 0.273656 0.380333
2858 4 0.0209411 0.293747 0.335127
3112 2 0.0268638 0.253946 0.409037
3113 4 0.0335872 0.255983 0.38504
1029 4 0.118231 0.328503 0.372632
1027 2 0.140707 0.324808 0.36232
1028 4 0.163183 0.321113 0.352007
792 4 0.322307 0.257101 0.388578
870 4 0.270929 0.299239 0.395961
891 4 0.271649 0.284027 0.348189
790 2 0.300491 0.268912 0.391697
868 2 0.26043 0.319799 0.405565
791 4 0.278675 0.280724 0.394816
903 4 0.388484 0.321189 0.370501
783 4 0.383696 0.330401 0.352782
781 2 0.371585 0.318296 0.334562
973 2 0.212606 0.413117 0.4059
1037 4 0.308261 0.337215 0.350022
1036 2 0.324653 0.356094 0.34973
1012 2 0.37359 0.37921 0.334849
1014 4 0.357077 0.384919 0.352734
1038 4 0.341045 0.374973 0.349437
901 2 0.383052 0.34141 0.384169
902 4 0.377619 0.36163 0.397836
762 4 0.361239 0.359555 0.40924
1021 2 0.461143 0.334765 0.341721
1022 4 0.450583 0.337599 0.364207
1187 4 0.0750477 0.48458 0.353807
1019 4 0.0189372 0.469508 0.361565
1020 4 0.0619773 0.482995 0.339969
1018 2 0.0404573 0.476251 0.350767
3233 4 0.00177492 0.460632 0.356337
896 4 0.152035 0.4844 0.407207
1186 2 0.0992092 0.47987 0.349424
1188 4 0.123371 0.47516 0.345041
897 4 0.129993 0.477973 0.362782
895 2 0.141014 0.481187 0.384994
975 4 0.216886 0.431891 0.389951
1922 4 0.213256 0.451516 0.387743
1921 2 0.228896 0.470602 0.383705
1853 4 0.23898 0.494388 0.361517
1923 4 0.244535 0.489688 0.379668
2220 4 0.370431 0.440346 0.335478
2218 2 0.393592 0.449075 0.339019
4253 4 0.464168 0.496066 0.384897
2219 4 0.416753 0.457805 0.342561
4252 2 0.479009 0.491204 0.404423
57 3 0.00836896 0.00624343 0.473722
3073 2 0.0100731 0.061124 0.416544
3075 4 0.00513184 0.0497303 0.438245
58 3 0.0112212 0.0321799 0.44667
56 1 0.00959952 0.0288361 0.469574
60 3 0.0279558 0.0373869 0.479994
3396 4 0.0395312 0.0377395 0.496316
864 4 0.0957919 0.0116833 0.476713
1065 4 0.148378 0.0399389 0.442977
862 2 0.115942 0.0222621 0.466358
863 4 0.136093 0.0328408 0.456002
1063 2 0.166975 0.0545592 0.451075
1064 4 0.185572 0.0691795 0.459173
986 4 0.387866 0.0676022 0.42701
985 2 0.408998 0.062541 0.43938
1232 4 0.384257 0.049791 0.494372
4030 2 0.497066 0.0123459 0.483069
3182 4 0.491717 0.0547982 0.439971
987 4 0.43013 0.0574798 0.45175
3183 4 0.446928 0.0681314 0.457773
3181 2 0.469322 0.0614648 0.448872
4032 4 0.472715 0.00837398 0.479014
1395 4 0.130331 0.131618 0.425049
1393 2 0.133453 0.138417 0.448907
1394 4 0.136575 0.145217 0.472765
1472 4 0.120183 0.140729 0.483887
838 2 0.239323 0.0954697 0.494701
840 4 0.224231 0.0885829 0.475993
48 3 0.212894 0.105682 0.471317
50 3 0.185815 0.0878558 0.45217
49 3 0.177916 0.102667 0.485873
46 1 0.190233 0.105111 0.466361
47 3 0.184327 0.124922 0.45627
1245 4 0.186759 0.143731 0.450089
39 3 0.3126 0.128666 0.470046
36 1 0.320653 0.12424 0.491353
40 3 0.342742 0.118793 0.490335
1701 4 0.349271 0.100102 0.495136
1648 2 0.00938274 0.188609 0.419621
1079 4 0.162065 0.203347 0.428411
1243 2 0.182128 0.166814 0.441667
1244 4 0.177496 0.189896 0.433245
934 2 0.328924 0.241175 0.487243
1053 4 0.35208 0.218488 0.456729
1051 2 0.352957 0.219387 0.431757
935 4 0.341556 0.227831 0.470285
1177 2 0.458732 0.225747 0.468473
1178 4 0.46061 0.220467 0.444105
1179 4 0.456854 0.231027 0.49284
3153 4 0.00319382 0.262982 0.431117
3114 4 0.0201403 0.25191 0.433033
1132 2 0.0720588 0.328248 0.471079
1134 4 0.0479912 0.332213 0.476576
828 4 0.159969 0.318651 0.448424
6 1 0.126348 0.327265 0.463988
7 3 0.119959 0.306208 0.470689
10 3 0.142116 0.325477 0.447653
1133 4 0.0961263 0.324284 0.465583
826 2 0.178066 0.30408 0.457663
827 4 0.196163 0.289509 0.466902
1131 4 0.198045 0.276732 0.451026
1129 2 0.221694 0.269106 0.453808
1130 4 0.245343 0.261479 0.45659
1109 4 0.256951 0.261591 0.472621
1108 2 0.277019 0.262239 0.487523
1381 2 0.437268 0.330341 0.493273
1333 2 0.462349 0.274177 0.494958
1334 4 0.453044 0.250975 0.49443
1335 4 0.471654 0.297378 0.495485
875 4 0.0440938 0.34995 0.485749
8 3 0.107756 0.338511 0.455848
9 3 0.135106 0.338609 0.482237
1169 4 0.155155 0.345425 0.482884
974 4 0.208326 0.394342 0.42185
981 4 0.235493 0.339927 0.429328
980 4 0.226542 0.389116 0.428329
979 2 0.231017 0.364521 0.428829
1168 2 0.172563 0.361958 0.48987
1170 4 0.189971 0.378491 0.496856
869 4 0.249931 0.340359 0.415169
761 4 0.34372 0.396611 0.437888
760 2 0.352479 0.378083 0.423564
1121 4 0.337555 0.414107 0.444775
1054 2 0.474561 0.348853 0.450433
1383 4 0.443821 0.33533 0.469664
1056 4 0.491521 0.345069 0.432456
1055 4 0.4576 0.352638 0.468411
785 4 0.485072 0.360166 0.421176
1392 4 0.0170346 0.48269 0.499974
1041 4 0.101778 0.476392 0.484478
1039 2 0.100478 0.49051 0.463883
1090 2 0.2282 0.472786 0.484449
1092 4 0.238608 0.494025 0.492558
1091 4 0.217791 0.451547 0.47634
1982 4 0.257697 0.501498 0.493054
1122 4 0.341655 0.461201 0.461087
1819 2 0.372983 0.485347 0.456327
1120 2 0.339605 0.437654 0.452931
1820 4 0.361838 0.463058 0.458367
4254 4 0.49385 0.486342 0.42395
1559 4 0.0774526 0.0549409 0.545459
3395 4 0.0728006 0.0604844 0.525922
3394 2 0.0561659 0.049112 0.511119
1558 2 0.0868494 0.0419459 0.564643
1560 4 0.0962462 0.0289509 0.583826
2211 4 0.163767 0.0586438 0.518554
1607 4 0.1768 0.0521364 0.532205
1608 4 0.172038 0.0398843 0.580454
1606 2 0.174419 0.0460103 0.55633
1570 2 0.224447 0.0728432 0.570949
1572 4 0.247671 0.0655379 0.565254
2209 2 0.172998 0.0808737 0.511787
1571 4 0.201223 0.0801485 0.576644
171 1 0.272933 0.0706674 0.532084
173 3 0.274392 0.049909 0.521819
174 3 0.262152 0.0686531 0.552532
2485 2 0.306705 0.0226727 0.531668
2486 4 0.292052 0.0409862 0.523002
172 3 0.294187 0.0787129 0.535644
2487 4 0.321357 0.00435918 0.540334
1231 2 0.386969 0.0269521 0.504181
1233 4 0.389681 0.00411319 0.51399
1700 4 0.386184 0.0671871 0.502536
2268 4 0.457912 0.0574533 0.559429
1499 4 0.45811 0.0769903 0.555007
2266 2 0.449195 0.0373669 0.571502
1498 2 0.482861 0.0794854 0.557529
1643 4 0.43925 0.00452719 0.568329
778 2 0.0951059 0.154659 0.570465
1473 4 0.109304 0.157597 0.529689
1471 2 0.114743 0.149163 0.506788
780 4 0.0976795 0.161581 0.546577
2210 4 0.18223 0.103104 0.50502
175 3 0.261566 0.0851714 0.518702
839 4 0.254415 0.102357 0.513409
1595 4 0.312939 0.0992665 0.51938
1594 2 0.326425 0.0971289 0.540326
38 3 0.308639 0.106838 0.500905
1361 4 0.308669 0.155994 0.516386
37 3 0.318079 0.143057 0.504332
1596 4 0.339912 0.0949913 0.561272
1699 2 0.367727 0.0836447 0.498836
1686 4 0.0563831 0.247086 0.577952
1290 4 0.0524752 0.22771 0.574771
1341 4 0.153725 0.230865 0.553271
1339 2 0.172523 0.245211 0.545146
1360 2 0.298244 0.171097 0.533369
1323 4 0.26433 0.244704 0.550268
1321 2 0.267401 0.219989 0.552488
1362 4 0.28782 0.186199 0.550352
1322 4 0.270472 0.195275 0.554708
1545 4 0.282579 0.250166 0.546661
147 3 0.395685 0.213239 0.569056
3557 4 0.486934 0.177171 0.510172
150 3 0.431305 0.208788 0.579271
1645 2 0.4718 0.201626 0.583143
1647 4 0.4491 0.203236 0.572782
3384 4 0.492775 0.232389 0.540008
3556 2 0.491884 0.195146 0.526833
3558 4 0.496834 0.213121 0.543493
1684 2 0.0620056 0.271236 0.581164
1685 4 0.0676282 0.295387 0.584376
142 3 0.0874012 0.332663 0.570439
1340 4 0.19132 0.259557 0.537021
1277 4 0.238289 0.314675 0.51629
1276 2 0.256966 0.319485 0.532201
1278 4 0.275644 0.324296 0.548113
1543 2 0.303914 0.263139 0.545362
1544 4 0.325249 0.276113 0.544062
1287 4 0.320987 0.290938 0.529865
1285 2 0.320531 0.314949 0.536824
1268 4 0.275866 0.329903 0.567025
1110 4 0.297086 0.262887 0.502424
936 4 0.316292 0.254518 0.5042
1382 4 0.430715 0.325352 0.516881
1455 4 0.466922 0.326602 0.524681
1428 4 0.00948679 0.410291 0.549103
876 4 0.0488874 0.388928 0.516709
145 3 0.0654297 0.359588 0.55683
141 1 0.075962 0.351962 0.575526
874 2 0.0464906 0.369439 0.501229
1239 4 0.243564 0.394495 0.535663
1237 2 0.224766 0.384755 0.52236
1238 4 0.205969 0.375014 0.509058
164 3 0.243301 0.386596 0.553374
161 1 0.246451 0.398629 0.572961
1286 4 0.320075 0.33896 0.543784
163 3 0.268481 0.3967 0.579988
1384 2 0.298002 0.370226 0.558934
1386 4 0.279204 0.382818 0.569577
1385 4 0.3168 0.357635 0.548292
1453 2 0.484707 0.339787 0.536302
1426 2 0.0150572 0.418153 0.52603
1007 4 0.0580895 0.47799 0.544935
1391 4 0.0377579 0.480869 0.545448
1390 2 0.0273962 0.481779 0.522711
1006 2 0.0789324 0.48689 0.555497
1427 4 0.0206276 0.426014 0.502958
1008 4 0.0997753 0.49579 0.566058
1588 2 0.180272 0.497022 0.557831
1589 4 0.1959 0.489271 0.575744
165 3 0.241278 0.420542 0.569536
1343 4 0.343326 0.493288 0.564492
1442 4 0.441136 0.448866 0.566052
1443 4 0.426775 0.425069 0.52448
1441 2 0.433955 0.436967 0.545266
1114 2 0.481546 0.476917 0.557045
1116 4 0.465036 0.484937 0.540066
1115 4 0.498056 0.468896 0.574024
1496 4 0.11366 0.0391102 0.586527
1495 2 0.125269 0.0254278 0.60394
1616 4 0.134586 0.00338157 0.639971
1497 4 0.136878 0.0117453 0.621353
1615 2 0.136612 0.0175732 0.660457
1298 4 0.165834 0.0313354 0.596747
2774 4 0.1905 0.000732013 0.632894
1297 2 0.180885 0.0133069 0.605327
1580 4 0.189181 0.0753047 0.591858
103 3 0.342465 0.039174 0.623817
1284 4 0.382054 0.0166912 0.641036
105 3 0.378772 0.0293359 0.625452
101 1 0.364164 0.046735 0.62704
102 3 0.36575 0.0560689 0.648005
104 3 0.369352 0.0628981 0.611221
2267 4 0.440479 0.0172806 0.583574
779 4 0.0925322 0.147736 0.594353
1600 2 0.128419 0.132431 0.611009
1602 4 0.104464 0.137396 0.605848
1601 4 0.152375 0.127465 0.61617
1581 4 0.16621 0.112878 0.61555
1579 2 0.177696 0.0940912 0.603704
517 3 0.496922 0.114716 0.655685
518 3 0.468058 0.102805 0.634764
516 1 0.490931 0.106706 0.63497
1465 2 0.43587 0.157823 0.648965
519 3 0.496409 0.122551 0.618929
1629 4 0.0408461 0.203009 0.634412
1289 4 0.0343949 0.215565 0.619785
1288 2 0.0434351 0.221637 0.597278
1627 2 0.0408194 0.204316 0.659382
1485 4 0.212031 0.176033 0.656576
1305 4 0.221468 0.183852 0.64121
1303 2 0.245127 0.190051 0.646408
1348 2 0.315312 0.199848 0.652
1304 4 0.268786 0.19625 0.651606
1350 4 0.290322 0.20062 0.651703
1349 4 0.340302 0.199076 0.652297
1620 4 0.371425 0.240957 0.643719
1547 4 0.388471 0.181609 0.632447
1546 2 0.378795 0.202624 0.641931
1548 4 0.369119 0.223638 0.651415
148 3 0.40956 0.233562 0.597466
149 3 0.403709 0.196238 0.601602
146 1 0.410239 0.212932 0.586868
1466 4 0.427109 0.169094 0.628437
1646 4 0.494499 0.200016 0.593504
3564 4 0.000793041 0.333187 0.63559
1592 4 0.0547796 0.329026 0.596681
1703 4 0.227656 0.253684 0.626154
1702 2 0.22914 0.266396 0.647634
1267 2 0.283255 0.319969 0.588748
1269 4 0.290643 0.310035 0.610472
1661 4 0.295739 0.312747 0.628591
1660 2 0.312142 0.296962 0.638934
1662 4 0.328545 0.281178 0.649276
1619 4 0.339864 0.273932 0.664146
1618 2 0.355644 0.257445 0.653932
1591 2 0.0327768 0.334394 0.607276
143 3 0.0603605 0.347298 0.592056
1593 4 0.0107741 0.339761 0.617871
144 3 0.0910637 0.367847 0.583142
1354 2 0.0980948 0.392725 0.61684
1355 4 0.0984102 0.373717 0.6006
1356 4 0.0977794 0.411734 0.633081
162 3 0.232669 0.390049 0.589258
1746 4 0.0840151 0.417262 0.644992
1612 2 0.220867 0.46824 0.619599
1613 4 0.199194 0.476204 0.629193
1599 4 0.192735 0.489044 0.643723
1614 4 0.24254 0.460276 0.610005
1597 2 0.195607 0.479616 0.666702
1352 4 0.254147 0.469648 0.623312
1351 2 0.272659 0.456401 0.633657
1353 4 0.29117 0.443154 0.644002
1469 4 0.291677 0.449472 0.663313
2358 4 0.356497 0.491749 0.579762
1651 2 0.380841 0.481975 0.658452
1652 4 0.40513 0.48545 0.653642
1698 4 0.423331 0.486445 0.645275
1696 2 0.441364 0.492675 0.629115
1697 4 0.459397 0.498905 0.612954
3318 4 0.00756943 0.0301141 0.699101
3316 2 0.00431836 0.0502441 0.713571
3317 4 0.0010673 0.0703742 0.728041
1617 4 0.138637 0.0317648 0.680943
2441 4 0.131177 0.0498693 0.685906
2440 2 0.115393 0.0614422 0.701466
2442 4 0.0996089 0.0730151 0.717026
1401 4 0.0858011 0.0717266 0.703224
1713 4 0.17556 0.999068 0.745519
2680 2 0.283345 0.0278395 0.693727
2681 4 0.282481 0.0526527 0.696683
1419 4 0.277383 0.0724323 0.693068
2682 4 0.284209 0.00302624 0.690771
1527 4 0.27954 0.00364191 0.669361
1532 4 0.364 0.0471669 0.665654
1531 2 0.374889 0.0680579 0.674031
1399 2 0.0632844 0.0821756 0.706223
1400 4 0.0407676 0.0926245 0.709222
1326 4 0.0810815 0.131127 0.746872
1691 4 0.136832 0.12931 0.717066
1655 4 0.126945 0.146535 0.714701
1690 2 0.15286 0.117915 0.732507
1692 4 0.168888 0.10652 0.747948
1417 2 0.291043 0.0920148 0.70049
1418 4 0.304703 0.111597 0.707913
1533 4 0.385778 0.0889489 0.682409
1445 4 0.382387 0.0958004 0.700593
1444 2 0.394644 0.114545 0.711711
1446 4 0.406901 0.133289 0.722828
1587 4 0.402731 0.15262 0.725457
1585 2 0.394999 0.156874 0.748851
1467 4 0.444632 0.146551 0.669492
1689 4 0.449214 0.160486 0.682652
1687 2 0.47216 0.159844 0.692564
1688 4 0.495106 0.159203 0.702476
1315 2 0.0389661 0.199181 0.718873
1317 4 0.0469383 0.215114 0.701329
1628 4 0.0407927 0.205624 0.684351
1316 4 0.0309938 0.183248 0.736416
1654 2 0.14256 0.164825 0.707856
1656 4 0.158174 0.183115 0.70101
1368 4 0.151482 0.243562 0.710095
1511 4 0.108176 0.220239 0.751501
1510 2 0.122972 0.224931 0.731899
1512 4 0.137768 0.229623 0.712297
1539 4 0.0880735 0.252471 0.671384
1366 2 0.174921 0.248306 0.717392
1484 4 0.173047 0.181176 0.687472
1483 2 0.192539 0.178605 0.672024
1605 4 0.00939682 0.301745 0.737864
1538 4 0.0637503 0.274225 0.709277
1604 4 0.047203 0.273981 0.720527
1603 2 0.0282999 0.287863 0.729195
1537 2 0.0759119 0.263348 0.69033
1704 4 0.230624 0.279107 0.669115
1367 4 0.198361 0.253051 0.72469
1717 2 0.222946 0.275722 0.705468
1718 4 0.206887 0.270706 0.723965
1719 4 0.239005 0.280737 0.686971
160 3 0.269266 0.290066 0.70687
159 3 0.275946 0.292523 0.743843
158 3 0.267149 0.259058 0.728123
1482 4 0.313642 0.282412 0.707758
156 1 0.278054 0.279285 0.724903
157 3 0.300374 0.275184 0.721143
1480 2 0.327697 0.301291 0.716197
1481 4 0.341752 0.320171 0.724636
1345 2 0.00781898 0.381657 0.73055
1346 4 0.0190441 0.403699 0.734197
1403 4 0.0474897 0.338401 0.711924
1402 2 0.0614898 0.354854 0.699335
1404 4 0.0754898 0.371306 0.686745
1296 4 0.0517448 0.338809 0.730495
3572 4 0.0377467 0.404042 0.7309
1745 4 0.084391 0.392608 0.688497
1744 2 0.084203 0.404935 0.666745
1398 4 0.16436 0.362358 0.745249
1503 4 0.18278 0.357162 0.739401
1609 2 0.327947 0.410712 0.728672
3429 4 0.342242 0.339619 0.718808
3427 2 0.36382 0.350428 0.712271
3428 4 0.385399 0.361236 0.705734
1563 4 0.403909 0.357945 0.713817
1611 4 0.336807 0.392317 0.743105
1535 4 0.502192 0.397819 0.687174
3650 4 0.497253 0.378307 0.683363
1561 2 0.427203 0.361243 0.722282
1562 4 0.450498 0.364541 0.730747
3649 2 0.479105 0.377432 0.700541
3651 4 0.460958 0.376557 0.717719
3571 2 0.0585099 0.417889 0.729372
3573 4 0.079273 0.431736 0.727844
2628 4 0.0978355 0.426138 0.733244
2626 2 0.105119 0.449949 0.730964
2627 4 0.112402 0.473759 0.728684
1479 4 0.11505 0.491849 0.722091
1598 4 0.198479 0.470189 0.689682
2426 4 0.199316 0.481706 0.705806
2425 2 0.187797 0.495004 0.723573
1610 4 0.319088 0.429106 0.714238
1470 4 0.321821 0.425146 0.69494
1468 2 0.306749 0.437309 0.679126