ITEM: TIMESTEP
5650000
ITEM: NUMBER OF ATOMS
4590
ITEM: BOX BOUNDS pp pp pp
-9.9985700000000008e+00 9.9985700000000008e+00
-9.9985700000000008e+00 9.9985700000000008e+00
-9.9985700000000008e+00 9.9985700000000008e+00
ITEM: ATOMS id type xs ys zs
1148 4 0.074677 0.0469849 0.0169171
1634 4 0.0725429 0.0608608 0.0319392
1633 2 0.0804388 0.0558 0.0551172
1147 2 0.0562597 0.0476365 1.8591e-05
1635 4 0.0883348 0.0507392 0.0782953
3232 2 0.159229 0.0685586 0.0443465
3233 4 0.135508 0.0651382 0.0514746
35 3 0.133537 0.0646437 0.0716595
3234 4 0.182949 0.071979 0.0372184
995 4 0.226543 0.0316786 0.0585981
994 2 0.240376 0.0129558 0.067725
1170 4 0.200052 0.0806484 0.0326022
565 2 0.253721 0.00612587 0.00579343
532 2 0.356055 0.0483494 0.0428581
534 4 0.365159 0.0254576 0.0385853
533 4 0.34695 0.0712411 0.0471308
30 3 0.373793 0.00829711 0.0373511
29 3 0.401277 0.00986536 0.0630377
2769 4 0.352232 0.0758674 0.0651112
746 4 0.41171 0.00333693 0.0787839
28 3 0.365774 0.00116335 0.0734409
170 3 0.355436 0.00655153 0.00276259
1168 2 0.199626 0.0965054 0.0132746
2792 4 0.342037 0.135285 0.00477865
2791 2 0.359829 0.152853 0.00479891
2767 2 0.357173 0.0943074 0.0812584
1761 4 0.458025 0.10558 0.0295571
2162 4 0.473551 0.111613 0.0388266
2161 2 0.484536 0.129301 0.0526712
2163 4 0.495521 0.146988 0.0665157
1826 4 0.497459 0.164948 0.0763009
1759 2 0.460954 0.0988378 0.00565869
324 4 0.398136 0.23301 0.0230279
1007 4 0.398589 0.220955 0.00839564
1006 2 0.395315 0.196662 0.0133232
2793 4 0.377621 0.170421 0.00481916
1008 4 0.392041 0.172368 0.0182508
2622 4 0.445891 0.175697 0.0553939
2620 2 0.449847 0.19023 0.0354361
2912 4 0.472557 0.208239 0.00804918
2621 4 0.453802 0.204764 0.0154782
554 4 0.0336212 0.274387 0.0804411
1367 4 0.0113375 0.324177 0.00381598
1289 4 0.209839 0.33111 0.00851786
2287 2 0.313886 0.331361 0.0828889
322 2 0.382286 0.251957 0.0268933
323 4 0.366435 0.270904 0.0307587
481 2 0.336631 0.289756 0.00495967
483 4 0.349322 0.278726 0.0234655
941 4 0.127713 0.383597 0.0221496
940 2 0.14884 0.39301 0.0316476
942 4 0.169968 0.402422 0.0411455
639 4 0.199232 0.344241 0.0200782
637 2 0.21491 0.356771 0.0349902
638 4 0.230588 0.369301 0.0499021
1094 4 0.249591 0.371588 0.0522433
1093 2 0.267902 0.369624 0.0691555
2289 4 0.3287 0.348421 0.0721792
958 2 0.354012 0.372922 0.0791127
960 4 0.376639 0.381747 0.0731708
2571 4 0.380989 0.39183 0.0568168
2569 2 0.405143 0.390305 0.0630939
560 4 0.482058 0.378003 0.0290005
2570 4 0.429298 0.388781 0.0693711
561 4 0.448009 0.41341 0.0383662
559 2 0.465033 0.395707 0.0336834
3491 4 0.447135 0.38951 0.0806149
2790 4 0.492142 0.393259 0.0218167
648 4 0.0130484 0.439683 0.0836635
646 2 0.0351203 0.450094 0.0782202
647 4 0.0571923 0.460505 0.0727769
362 4 0.150189 0.452882 0.00382656
361 2 0.170712 0.438664 0.00519031
363 4 0.191234 0.424446 0.00655407
1726 2 0.244199 0.491091 0.0804584
1728 4 0.247469 0.489649 0.0557116
2164 2 0.25353 0.498142 0.0164037
4548 4 0.371519 0.4754 0.0294871
1618 2 0.362148 0.495658 0.0600258
4546 2 0.359409 0.471832 0.00790509
1620 4 0.379515 0.483786 0.0465113
34 3 0.0995658 0.0640366 0.0878837
31 1 0.121619 0.0709284 0.09002
3509 4 0.124785 0.0129491 0.138492
3508 2 0.130374 0.0367841 0.133409
3510 4 0.135963 0.060619 0.128326
33 3 0.131003 0.0616527 0.109107
237 4 0.200699 0.0791629 0.133439
1764 4 0.196084 0.0619192 0.122077
1762 2 0.209782 0.042708 0.130352
1763 4 0.22348 0.0234969 0.138627
546 4 0.224883 0.00370931 0.138997
758 4 0.471719 0.0131874 0.103772
757 2 0.49535 0.0059045 0.107471
747 4 0.454958 0.022595 0.0948922
745 2 0.433334 0.012966 0.0868381
1355 4 0.433251 0.0209838 0.169254
360 4 0.0937958 0.151547 0.10004
359 4 0.111492 0.105065 0.105231
32 3 0.122099 0.093851 0.0918834
358 2 0.102644 0.128306 0.102636
285 4 0.166807 0.130346 0.162419
371 4 0.113729 0.151221 0.163616
236 4 0.171172 0.110715 0.158605
235 2 0.185935 0.0949389 0.146022
283 2 0.168121 0.155314 0.16265
249 4 0.237017 0.101313 0.16366
247 2 0.251062 0.121553 0.159389
248 4 0.265107 0.141794 0.155118
55 3 0.293537 0.160371 0.158568
52 3 0.269767 0.142607 0.135934
51 1 0.28496 0.15981 0.137478
404 4 0.317919 0.144889 0.126341
53 3 0.301965 0.156202 0.122109
403 2 0.338028 0.138715 0.112825
2768 4 0.362114 0.112747 0.0974056
405 4 0.358137 0.132541 0.0993092
665 4 0.0719709 0.192241 0.134825
664 2 0.0513565 0.178815 0.130358
12 3 0.0641498 0.227238 0.0932329
13 3 0.0282811 0.225514 0.104329
666 4 0.030742 0.165388 0.125891
512 4 0.0450124 0.250979 0.140157
11 1 0.0464203 0.239615 0.101083
14 3 0.0524801 0.249483 0.121191
579 4 0.15809 0.187567 0.0965418
578 4 0.109217 0.194185 0.104806
577 2 0.133654 0.190876 0.100674
740 4 0.169513 0.20419 0.0997566
739 2 0.186401 0.222615 0.0990558
741 4 0.203288 0.24104 0.0983549
617 4 0.249683 0.230554 0.154927
690 4 0.232114 0.240882 0.152047
688 2 0.221731 0.248397 0.130578
284 4 0.169436 0.180282 0.16288
54 3 0.274156 0.179803 0.132791
618 4 0.257218 0.182399 0.143745
616 2 0.25345 0.206476 0.149336
1102 2 0.327818 0.240279 0.147374
1103 4 0.303791 0.233366 0.147024
525 4 0.290887 0.245918 0.156128
252 4 0.369834 0.239134 0.151735
250 2 0.384908 0.222171 0.162231
1825 2 0.475133 0.172882 0.0842873
1827 4 0.452807 0.180816 0.0922736
553 2 0.0102678 0.281672 0.0856108
15 3 0.041144 0.255676 0.0858243
511 2 0.0609245 0.262967 0.155266
1512 4 0.0732731 0.326197 0.155364
1510 2 0.0834516 0.319914 0.133408
1511 4 0.0936301 0.313631 0.111451
689 4 0.211348 0.255911 0.109109
2288 4 0.299073 0.314301 0.0935985
524 4 0.2641 0.287843 0.161173
308 4 0.297977 0.305659 0.111573
307 2 0.312453 0.286746 0.119185
309 4 0.326929 0.267833 0.126797
523 2 0.277494 0.26688 0.158651
1104 4 0.351844 0.247193 0.147723
337 2 0.470903 0.307662 0.144635
338 4 0.470096 0.293311 0.165094
244 2 0.445207 0.325663 0.096641
246 4 0.467241 0.317584 0.105266
339 4 0.47171 0.322014 0.124176
612 4 0.207679 0.335121 0.0946723
610 2 0.205464 0.359971 0.0963272
611 4 0.203248 0.384821 0.097982
704 4 0.198367 0.393082 0.115669
959 4 0.331384 0.364097 0.0850545
1095 4 0.286213 0.367661 0.0860677
1158 4 0.292724 0.37433 0.104533
1156 2 0.290566 0.387949 0.12539
1157 4 0.288407 0.401568 0.146248
737 4 0.269404 0.407553 0.151402
245 4 0.423173 0.333743 0.0880156
334 2 0.492526 0.403848 0.148499
336 4 0.487139 0.408993 0.124631
3492 4 0.482518 0.414438 0.105663
3490 2 0.464827 0.401974 0.0931387
3519 4 0.0643827 0.468107 0.0889643
3517 2 0.0842554 0.468709 0.104126
3518 4 0.104128 0.46931 0.119289
506 4 0.124135 0.463495 0.116798
505 2 0.144742 0.450142 0.121513
507 4 0.16535 0.43679 0.126228
703 2 0.187316 0.415319 0.112745
705 4 0.176265 0.437557 0.109821
385 2 0.242934 0.483366 0.135792
387 4 0.237906 0.46405 0.150852
1727 4 0.240929 0.492534 0.105205
738 4 0.25036 0.452399 0.140136
736 2 0.259882 0.429976 0.145769
1656 4 0.34707 0.487003 0.16816
3346 2 0.496377 0.472802 0.150683
3348 4 0.490975 0.465039 0.127537
1797 4 0.110625 0.00404282 0.213781
1795 2 0.119939 0.0237267 0.226068
1796 4 0.129254 0.0434106 0.238354
1435 2 0.347903 0.0765337 0.204092
1436 4 0.359697 0.0604415 0.189022
522 4 0.415443 0.0316279 0.167058
520 2 0.397792 0.0460548 0.177327
521 4 0.38014 0.0604817 0.187597
379 2 0.101639 0.122343 0.242912
381 4 0.112837 0.125863 0.220835
372 4 0.101218 0.125622 0.204712
370 2 0.107474 0.138421 0.184164
527 4 0.280041 0.148054 0.167343
624 4 0.307994 0.152714 0.231241
622 2 0.32021 0.130898 0.231182
526 2 0.288735 0.14874 0.190776
528 4 0.29743 0.149427 0.21421
623 4 0.332425 0.109081 0.231123
1437 4 0.33611 0.0926259 0.219163
1403 4 0.185979 0.186235 0.174077
1404 4 0.181026 0.220714 0.209957
1402 2 0.183503 0.203475 0.192017
683 4 0.170336 0.231306 0.222851
2462 4 0.243236 0.204595 0.248982
682 2 0.184827 0.249239 0.232527
473 4 0.257657 0.215413 0.239471
472 2 0.270148 0.226286 0.220738
474 4 0.282639 0.237159 0.202004
355 2 0.405903 0.195016 0.214767
356 4 0.405867 0.204332 0.191563
251 4 0.399983 0.205207 0.172727
357 4 0.405938 0.185701 0.23797
932 4 0.475656 0.241855 0.185265
513 4 0.0768366 0.274954 0.170375
620 4 0.0696674 0.330845 0.1745
674 4 0.133646 0.257433 0.202094
673 2 0.111546 0.266136 0.194283
675 4 0.0894453 0.274838 0.186472
286 2 0.238008 0.311402 0.174523
684 4 0.199317 0.267172 0.242203
287 4 0.250148 0.28956 0.175379
753 4 0.23061 0.322534 0.242144
933 4 0.488755 0.28724 0.168852
931 2 0.482205 0.264548 0.177058
619 2 0.0682748 0.355416 0.178919
621 4 0.0668821 0.379986 0.183339
392 4 0.0721216 0.396167 0.192977
680 4 0.0252849 0.392172 0.243771
2716 2 0.00614706 0.414183 0.211989
679 2 0.0459765 0.37826 0.241896
2718 4 0.0212083 0.407192 0.230683
681 4 0.0666682 0.364349 0.240022
464 4 0.133391 0.371184 0.236422
463 2 0.109596 0.366609 0.242591
465 4 0.0858012 0.362034 0.24876
288 4 0.225868 0.333244 0.173667
751 2 0.222305 0.343242 0.230857
1585 2 0.228411 0.403641 0.224874
1587 4 0.220015 0.380602 0.22976
752 4 0.213999 0.36395 0.219571
303 4 0.472794 0.336295 0.215704
1455 4 0.474058 0.355605 0.210014
301 2 0.472274 0.33801 0.240643
1453 2 0.489928 0.370244 0.197405
335 4 0.497914 0.398703 0.172367
2619 4 0.0556901 0.49967 0.193597
2648 4 0.0360022 0.492988 0.191174
391 2 0.068063 0.420475 0.197196
393 4 0.0640043 0.444784 0.201416
2647 2 0.0133288 0.498273 0.200293
1776 4 0.069661 0.457372 0.216047
1774 2 0.085308 0.464522 0.234192
1586 4 0.236808 0.42668 0.219988
1791 4 0.33055 0.483535 0.179093
1790 4 0.282901 0.479584 0.164443
1789 2 0.306726 0.481559 0.171768
3347 4 0.501778 0.480566 0.173829
1464 4 0.00949525 0.0664852 0.272665
1462 2 0.0255895 0.0800589 0.286153
18 3 0.046932 0.014223 0.299102
2757 4 0.0115187 0.067119 0.25316
1851 4 0.131554 0.0464021 0.258435
1849 2 0.147209 0.0658057 0.260335
726 4 0.202259 0.0413227 0.289647
724 2 0.187166 0.0278302 0.304321
725 4 0.172073 0.0143376 0.318995
1405 2 0.285501 0.0427058 0.318708
1407 4 0.292762 0.031641 0.297494
692 4 0.311902 0.0344607 0.290787
691 2 0.325333 0.0141516 0.285102
1463 4 0.0416837 0.0936326 0.29964
489 4 0.0586116 0.103998 0.30814
487 2 0.0752201 0.116933 0.294648
1850 4 0.162864 0.0852093 0.262234
380 4 0.0904411 0.118822 0.264989
488 4 0.0918286 0.129868 0.281156
2512 2 0.156617 0.139249 0.293616
2513 4 0.139238 0.157083 0.295871
365 4 0.124643 0.16057 0.309078
587 4 0.174062 0.0994058 0.254438
588 4 0.220181 0.102924 0.273445
1866 4 0.239262 0.0979734 0.275066
2514 4 0.173996 0.121415 0.291361
586 2 0.197122 0.101165 0.263941
1864 2 0.261574 0.108984 0.272592
1865 4 0.283886 0.119994 0.270119
641 4 0.473775 0.162503 0.268475
2838 4 0.454914 0.161412 0.263389
640 2 0.49231 0.167075 0.252327
2654 4 0.00538082 0.215442 0.326848
735 4 0.0482324 0.245112 0.257382
366 4 0.116728 0.204109 0.285788
364 2 0.120686 0.18234 0.297433
2461 2 0.257634 0.190291 0.263586
2463 4 0.272032 0.175987 0.27819
2837 4 0.409335 0.180408 0.255488
2836 2 0.432124 0.17091 0.259438
2601 4 0.46292 0.222359 0.311814
2599 2 0.47193 0.243627 0.302239
2652 4 0.456557 0.205332 0.318895
2650 2 0.469245 0.184902 0.325734
733 2 0.0443906 0.25111 0.28135
734 4 0.0405488 0.257107 0.305317
2459 4 0.0380786 0.272251 0.318937
2458 2 0.0586938 0.280417 0.330492
411 4 0.23336 0.314466 0.260839
409 2 0.219994 0.307495 0.280788
410 4 0.206628 0.300525 0.300736
3236 4 0.213187 0.309546 0.316775
229 2 0.418729 0.326007 0.269227
231 4 0.421261 0.303401 0.258847
1583 4 0.437445 0.292471 0.264172
2600 4 0.480939 0.264895 0.292665
1582 2 0.460213 0.287619 0.273295
1584 4 0.482982 0.282766 0.282419
1756 2 0.00327507 0.381536 0.325928
117 3 0.400478 0.335078 0.330579
118 3 0.414573 0.349436 0.298833
116 1 0.412037 0.352846 0.321644
119 3 0.399991 0.372309 0.325453
230 4 0.416197 0.348613 0.279607
120 3 0.432466 0.354277 0.331606
302 4 0.471755 0.339725 0.265582
2910 4 0.468964 0.350794 0.281713
2908 2 0.477696 0.357419 0.304186
2909 4 0.486429 0.364044 0.326658
915 4 0.0605931 0.499987 0.318772
1775 4 0.100955 0.471671 0.252337
2142 4 0.0997157 0.481166 0.269151
2140 2 0.122849 0.486599 0.276931
2141 4 0.145982 0.492032 0.284711
729 4 0.152188 0.473838 0.289065
727 2 0.165886 0.453565 0.294218
499 2 0.220263 0.438646 0.316784
728 4 0.179583 0.433292 0.299372
501 4 0.199529 0.433684 0.303721
500 4 0.240998 0.443607 0.329847
1862 4 0.253668 0.458589 0.325766
1698 4 0.391506 0.462314 0.30462
668 4 0.374177 0.470354 0.310459
667 2 0.357 0.455292 0.32062
1696 2 0.408887 0.478025 0.313351
669 4 0.339823 0.440229 0.330781
1697 4 0.426268 0.493737 0.322081
2845 2 0.0442876 0.00792297 0.358829
2846 4 0.038095 0.0210281 0.379203
1034 4 0.0329932 0.0143031 0.39714
899 4 0.238895 0.06926 0.386516
1406 4 0.278239 0.0537706 0.339921
900 4 0.277904 0.0526603 0.359994
898 2 0.258399 0.0609601 0.373255
1031 4 0.479038 0.0206536 0.391787
3436 2 0.458593 0.0413058 0.410416
3438 4 0.480282 0.0400272 0.39804
257 4 0.421036 0.0448946 0.40849
4307 4 0.0305876 0.110799 0.338773
4306 2 0.00873219 0.114664 0.350287
894 4 0.180699 0.116175 0.411032
812 4 0.294173 0.0878507 0.404858
813 4 0.319734 0.115643 0.372072
811 2 0.306953 0.101747 0.388465
2544 4 0.405076 0.117307 0.384044
2651 4 0.481933 0.164471 0.332574
2542 2 0.416787 0.123776 0.405167
2815 2 0.463567 0.154478 0.412704
2653 2 0.0294971 0.211432 0.332092
2655 4 0.0536135 0.207423 0.337337
383 4 0.0660597 0.202873 0.351836
1220 4 0.121807 0.227152 0.345206
382 2 0.0852704 0.217135 0.344577
384 4 0.104481 0.231398 0.337318
1219 2 0.145448 0.231775 0.351907
1221 4 0.169089 0.236398 0.358609
570 4 0.187663 0.234909 0.353242
568 2 0.20133 0.237192 0.374055
614 4 0.212472 0.22669 0.409665
569 4 0.214996 0.239475 0.394869
1 1 0.242806 0.24395 0.411367
3 3 0.262962 0.23484 0.404359
401 4 0.281737 0.239912 0.401032
400 2 0.285813 0.246117 0.377156
267 4 0.415084 0.196372 0.40083
3308 4 0.416833 0.207139 0.384417
265 2 0.402076 0.179602 0.414048
3269 4 0.492901 0.185944 0.401866
3307 2 0.433061 0.226159 0.38414
3309 4 0.449288 0.24518 0.383863
2817 4 0.483546 0.169059 0.409038
2460 4 0.079309 0.288583 0.342046
2448 4 0.0386259 0.298722 0.416645
3235 2 0.215926 0.309258 0.341626
2 3 0.231804 0.252594 0.393109
3237 4 0.218665 0.308971 0.366478
677 4 0.218642 0.302546 0.384689
676 2 0.204043 0.312715 0.402257
402 4 0.289889 0.252321 0.353279
576 4 0.363525 0.30755 0.386763
2456 4 0.378697 0.304562 0.373896
2455 2 0.382619 0.324114 0.358812
574 2 0.363894 0.309088 0.411717
1743 4 0.439895 0.261229 0.376318
1741 2 0.451529 0.275764 0.359628
1742 4 0.463163 0.290299 0.342938
345 4 0.0321386 0.406149 0.337224
1757 4 0.0127743 0.401876 0.336939
343 2 0.0544299 0.400428 0.346999
344 4 0.0767212 0.394708 0.356774
414 4 0.092352 0.404357 0.346441
412 2 0.109073 0.385982 0.349261
413 4 0.125793 0.367607 0.35208
477 4 0.126125 0.367731 0.373149
475 2 0.145563 0.364514 0.388544
476 4 0.165002 0.361298 0.403938
694 2 0.306109 0.406941 0.417495
377 4 0.31914 0.413666 0.378672
438 4 0.386728 0.363701 0.337627
2457 4 0.386541 0.343666 0.343729
1392 4 0.367143 0.390792 0.391628
437 4 0.368566 0.394957 0.372181
436 2 0.377647 0.379329 0.354904
1390 2 0.371977 0.386546 0.415789
1473 4 0.497622 0.352578 0.339878
913 2 0.0632676 0.479585 0.332977
914 4 0.0659421 0.459183 0.347182
1863 4 0.261192 0.483647 0.368383
696 4 0.308064 0.418858 0.395601
1861 2 0.25743 0.471118 0.347074
376 2 0.334871 0.422202 0.361211
378 4 0.350602 0.430737 0.343751
1557 4 0.346703 0.459978 0.35986
1556 4 0.374689 0.471189 0.399757
1555 2 0.360696 0.465584 0.379808
1033 2 0.0412484 0.0242538 0.418541
1035 4 0.0495036 0.0342044 0.439942
398 4 0.0502921 0.0438918 0.457597
397 2 0.0651591 0.063994 0.457819
459 4 0.132747 0.038952 0.467685
458 4 0.130145 0.019403 0.42173
1376 4 0.139787 0.0220038 0.477779
1375 2 0.159543 0.0240573 0.492966
457 2 0.131446 0.0291775 0.444708
893 4 0.192378 0.0693081 0.423988
1781 4 0.196348 0.0540066 0.436234
1782 4 0.193629 0.00783354 0.455244
1780 2 0.194989 0.0309201 0.445739
1152 4 0.253417 0.0399968 0.477521
1839 4 0.271444 0.031844 0.476052
1837 2 0.282538 0.0152448 0.460999
1150 2 0.259225 0.0642445 0.475652
256 2 0.408433 0.0288708 0.422967
258 4 0.395831 0.0128471 0.437444
1218 4 0.398482 0.00451919 0.455478
3437 4 0.436905 0.0425844 0.422791
4579 2 0.45683 0.0165234 0.498618
4580 4 0.471719 0.999676 0.487679
444 4 7.24308e-05 0.126528 0.480304
399 4 0.0800261 0.0840963 0.458042
442 2 0.0188134 0.125822 0.496841
2603 4 0.00824298 0.157017 0.493552
732 4 0.175657 0.13281 0.424002
730 2 0.17226 0.156945 0.429583
892 2 0.186538 0.0927414 0.41751
99 3 0.215588 0.151117 0.475778
44 3 0.290662 0.0940328 0.422863
1151 4 0.265034 0.0884921 0.473783
42 3 0.280119 0.123187 0.444112
43 3 0.267479 0.0888048 0.452521
45 3 0.303636 0.0977582 0.458012
41 1 0.285598 0.100849 0.444457
2238 4 0.311354 0.110122 0.47147
2236 2 0.320952 0.13315 0.473134
2237 4 0.33055 0.156177 0.474797
3549 4 0.390108 0.151474 0.443203
3548 4 0.349778 0.152053 0.472764
3547 2 0.369943 0.151764 0.457984
266 4 0.389068 0.162832 0.427267
2543 4 0.428498 0.130244 0.42629
2816 4 0.443589 0.139897 0.41637
3115 2 0.02301 0.231159 0.49491
5 3 0.229903 0.227818 0.420955
96 1 0.216894 0.168998 0.490508
100 3 0.197699 0.181221 0.489612
613 2 0.198661 0.209244 0.421069
98 3 0.235064 0.182387 0.485123
731 4 0.168863 0.18108 0.435164
615 4 0.184849 0.191797 0.432472
3116 4 0.0180207 0.251933 0.481922
1811 4 0.00286261 0.263839 0.47956
2446 2 0.0585185 0.305612 0.430136
2447 4 0.0784111 0.312501 0.443627
3276 4 0.0963327 0.301975 0.443403
3274 2 0.107938 0.289575 0.461754
3275 4 0.119543 0.277176 0.480104
447 4 0.139285 0.333508 0.462707
678 4 0.189444 0.322883 0.419826
4 3 0.246699 0.261046 0.426566
432 4 0.26172 0.312572 0.456365
430 2 0.274855 0.323131 0.437894
575 4 0.364262 0.310626 0.43667
508 2 0.0459169 0.35618 0.465138
509 4 0.0449438 0.37573 0.44958
710 4 0.0527529 0.383129 0.433021
709 2 0.0772571 0.381658 0.428272
510 4 0.04689 0.336631 0.480695
2298 4 0.162317 0.374671 0.419935
445 2 0.160839 0.333636 0.450036
711 4 0.101761 0.380188 0.423522
2172 4 0.1158 0.386563 0.434946
2170 2 0.121029 0.374052 0.455954
2171 4 0.126258 0.361542 0.476961
290 4 0.126095 0.360088 0.497889
446 4 0.182394 0.333765 0.437364
2296 2 0.176761 0.394775 0.423455
2297 4 0.191204 0.414879 0.426974
852 4 0.191177 0.416959 0.446532
2550 4 0.253472 0.348426 0.48452
2549 4 0.250528 0.384616 0.450135
2548 2 0.252 0.366521 0.467327
695 4 0.304154 0.395025 0.439389
431 4 0.287989 0.333689 0.419423
2309 4 0.263397 0.395304 0.463422
1331 4 0.316962 0.347663 0.493535
238 2 0.324266 0.379101 0.467475
239 4 0.319568 0.398496 0.452411
240 4 0.328964 0.359706 0.482539
1391 4 0.376812 0.3823 0.439951
3220 2 0.397272 0.360139 0.465901
3221 4 0.385028 0.363812 0.444412
3222 4 0.409516 0.356467 0.48739
3167 4 0.422522 0.371101 0.488607
407 4 0.0114322 0.485189 0.47652
549 4 0.0275143 0.475626 0.471044
548 4 0.014768 0.430276 0.487826
547 2 0.0211412 0.452951 0.479435
851 4 0.21405 0.419675 0.490918
850 2 0.202614 0.418317 0.468725
2384 4 0.199668 0.432057 0.498926
929 4 0.269226 0.490463 0.427751
928 2 0.271056 0.475564 0.447748
2310 4 0.269786 0.443331 0.475805
930 4 0.272886 0.460666 0.467744
2308 2 0.266592 0.419318 0.469613
773 4 0.381989 0.466215 0.417554
772 2 0.385737 0.488861 0.427468
2508 4 0.477338 0.44855 0.491069
2507 4 0.457007 0.446243 0.44544
2506 2 0.467173 0.447397 0.468255
3391 2 0.0412106 0.00801687 0.553232
3393 4 0.028071 0.0153136 0.573214
3395 4 0.0162014 0.0785746 0.573425
3394 2 0.027094 0.0561201 0.57495
3396 4 0.0379865 0.0336656 0.576474
3392 4 0.0543502 0.000720105 0.53325
2204 4 0.999717 0.0712768 0.563744
321 4 0.117904 0.0493496 0.523407
319 2 0.103846 0.0700239 0.523038
1131 4 0.11326 0.00898814 0.581969
1377 4 0.179299 0.0261107 0.508154
1601 4 0.184677 0.0450365 0.512551
1600 2 0.187761 0.0681871 0.521479
606 4 0.299451 0.0653498 0.576219
3524 4 0.369274 0.0299304 0.551179
1162 2 0.365864 0.0547857 0.520496
1163 4 0.37316 0.0343549 0.532927
3523 2 0.360377 0.00657449 0.550453
1164 4 0.358568 0.0752166 0.508065
304 2 0.451874 0.0726724 0.518977
305 4 0.439787 0.0507981 0.519753
4581 4 0.441942 0.0333711 0.509557
388 2 0.0756401 0.116852 0.527379
389 4 0.0521654 0.125376 0.526173
443 4 0.0375544 0.125116 0.513377
320 4 0.0897886 0.0906983 0.522669
390 4 0.0991147 0.108328 0.528586
1198 2 0.168737 0.166001 0.557349
1602 4 0.190846 0.0913376 0.530407
2048 4 0.201063 0.144553 0.549171
2049 4 0.24738 0.140498 0.53076
2047 2 0.224222 0.142526 0.539965
1199 4 0.191243 0.156116 0.561925
97 3 0.21971 0.160869 0.511842
467 4 0.262717 0.135916 0.543534
938 4 0.308667 0.118293 0.530391
937 2 0.327805 0.104868 0.521522
466 2 0.273576 0.148187 0.56242
468 4 0.284434 0.160458 0.581307
939 4 0.346943 0.0914422 0.512652
4467 4 0.412206 0.135587 0.538048
49 3 0.467255 0.143532 0.551716
4465 2 0.432593 0.146695 0.547331
4466 4 0.45298 0.157802 0.556613
46 1 0.485998 0.155424 0.558477
306 4 0.463961 0.0945467 0.5182
3823 2 0.484405 0.128871 0.505073
3825 4 0.471104 0.107773 0.506837
3824 4 0.497706 0.14997 0.503309
3354 4 0.0270613 0.204189 0.527417
3352 2 0.0445794 0.199025 0.544494
3353 4 0.0620975 0.193861 0.561571
3117 4 0.0279993 0.210384 0.507899
1226 4 0.0825796 0.196674 0.55993
1200 4 0.14623 0.175885 0.552774
1225 2 0.10687 0.19263 0.555594
1227 4 0.13116 0.188586 0.551257
3191 4 0.171312 0.238439 0.54475
1700 4 0.212286 0.21022 0.551576
1699 2 0.229672 0.198078 0.564822
1701 4 0.247059 0.185937 0.578069
1146 4 0.460763 0.170868 0.570527
48 3 0.480456 0.169706 0.575904
47 3 0.493658 0.167935 0.540758
435 4 0.0745403 0.269018 0.576287
274 2 0.0545833 0.331806 0.54637
433 2 0.0504515 0.274286 0.580429
276 4 0.0664444 0.310039 0.549637
3190 2 0.150289 0.251973 0.54461
3192 4 0.129265 0.265508 0.544469
948 4 0.133177 0.275186 0.561585
946 2 0.133599 0.295749 0.575804
1212 4 0.184222 0.249689 0.55558
583 2 0.247112 0.327728 0.513965
1210 2 0.198676 0.25792 0.574248
2374 2 0.254011 0.319469 0.571616
584 4 0.252854 0.307481 0.527466
2376 4 0.253859 0.309887 0.548522
1142 4 0.493417 0.267126 0.547876
3019 2 0.473968 0.321262 0.511914
3021 4 0.483408 0.298997 0.505561
936 4 0.0247888 0.355912 0.550317
275 4 0.0427223 0.353574 0.543102
934 2 0.00885129 0.374728 0.546178
289 2 0.128565 0.370889 0.520304
291 4 0.131034 0.381689 0.542719
1191 4 0.125734 0.371822 0.558766
1189 2 0.122759 0.3502 0.570964
585 4 0.24137 0.347975 0.500464
1332 4 0.289414 0.364023 0.531931
1017 4 0.294707 0.393095 0.557509
1330 2 0.303188 0.355843 0.512733
1015 2 0.30442 0.410878 0.572158
3380 4 0.385409 0.379477 0.574519
3379 2 0.408573 0.370381 0.576949
3020 4 0.464527 0.343526 0.518267
3168 4 0.454296 0.360168 0.525643
2777 4 0.451259 0.360994 0.545091
2776 2 0.4702 0.370435 0.558406
3166 2 0.438409 0.365635 0.507125
3381 4 0.431736 0.361286 0.579379
2778 4 0.489142 0.379875 0.57172
1381 2 0.149048 0.444417 0.56394
1382 4 0.163825 0.427223 0.553397
1383 4 0.13427 0.461612 0.574484
2385 4 0.178896 0.438037 0.544021
2383 2 0.189282 0.435047 0.521474
3093 4 0.457595 0.451758 0.572635
3497 4 0.470423 0.442017 0.560499
3091 2 0.434193 0.454711 0.580929
3496 2 0.489333 0.438159 0.576396
1282 2 0.102078 0.0462164 0.587901
1283 4 0.0981809 0.0215706 0.589504
1284 4 0.105976 0.0708623 0.586297
1181 4 0.250168 0.0358726 0.604338
1182 4 0.25904 0.017583 0.650027
1180 2 0.254604 0.0267278 0.627182
605 4 0.259107 0.038057 0.587542
604 2 0.279279 0.0517034 0.58188
1097 4 0.297939 0.081826 0.589058
2019 4 0.501863 0.0109146 0.585181
2196 4 0.49691 0.0125238 0.604172
2194 2 0.483478 0.0216581 0.62318
2195 4 0.470046 0.0307925 0.642189
798 4 0.478476 0.0281368 0.659588
317 4 0.0726857 0.131873 0.593819
340 2 0.0473825 0.147493 0.624176
342 4 0.0579845 0.132649 0.607075
341 4 0.0367805 0.162337 0.641276
318 4 0.0927586 0.0860917 0.592437
316 2 0.0827222 0.108982 0.593128
1098 4 0.315661 0.127535 0.598924
1096 2 0.3068 0.10468 0.593991
1194 4 0.323853 0.145528 0.603449
1192 2 0.340723 0.161626 0.612473
259 2 0.0323946 0.227781 0.641424
260 4 0.0204938 0.208659 0.652282
261 4 0.0442953 0.246903 0.630565
780 4 0.0628257 0.250258 0.638917
2133 4 0.114238 0.183326 0.612619
2131 2 0.130553 0.201451 0.607099
2132 4 0.146869 0.219576 0.60158
649 2 0.15683 0.227034 0.648511
651 4 0.132394 0.231022 0.645022
650 4 0.181265 0.223045 0.652
825 4 0.181479 0.204806 0.659435
911 4 0.252991 0.178906 0.596343
910 2 0.266163 0.193629 0.61167
912 4 0.279334 0.208353 0.626996
1137 4 0.295874 0.217604 0.622386
1135 2 0.303379 0.241454 0.622521
1193 4 0.357593 0.177724 0.621498
2354 4 0.374715 0.184284 0.629314
2353 2 0.398083 0.192311 0.625486
2355 4 0.421452 0.200338 0.621659
1144 2 0.446287 0.182724 0.587113
1145 4 0.431811 0.19458 0.603698
779 4 0.0633392 0.300102 0.642913
945 4 0.0131918 0.274052 0.650103
434 4 0.0263627 0.279555 0.584571
778 2 0.0630824 0.27518 0.640915
4434 4 0.0783701 0.333784 0.618062
947 4 0.13402 0.316312 0.590023
1190 4 0.119785 0.328577 0.583161
1208 4 0.0987421 0.334912 0.621172
1211 4 0.213129 0.266152 0.592917
1229 4 0.218713 0.265165 0.612329
1228 2 0.213967 0.27616 0.634279
1230 4 0.209221 0.287154 0.656228
2375 4 0.254163 0.329051 0.594711
1136 4 0.310884 0.265304 0.622657
980 4 0.293403 0.269394 0.635632
979 2 0.293029 0.28216 0.657128
4433 4 0.0594579 0.368479 0.587415
4432 2 0.068914 0.351131 0.602739
1207 2 0.111316 0.338109 0.642546
1209 4 0.12389 0.341306 0.663921
984 4 0.137581 0.381419 0.663164
897 4 0.155564 0.379233 0.656343
895 2 0.167121 0.388959 0.636418
896 4 0.178677 0.398685 0.616492
1953 4 0.236326 0.368866 0.648492
1952 4 0.250661 0.344389 0.607309
1951 2 0.243493 0.356627 0.6279
2037 4 0.383738 0.389611 0.591419
2035 2 0.379754 0.40706 0.608879
4182 4 0.462402 0.336652 0.645
663 4 0.49354 0.392445 0.634145
662 4 0.497471 0.373668 0.587964
661 2 0.495506 0.383057 0.611055
2173 2 0.010684 0.497035 0.60084
1016 4 0.314133 0.428661 0.586807
1206 4 0.300097 0.442534 0.590718
1205 4 0.287976 0.471715 0.629478
1204 2 0.294036 0.457124 0.610098
2153 4 0.282728 0.464084 0.647232
2152 2 0.276174 0.444107 0.660764
2036 4 0.37577 0.424509 0.626339
792 4 0.367153 0.419109 0.645075
2117 4 0.398577 0.48556 0.651716
790 2 0.356905 0.438623 0.65688
2116 2 0.401168 0.473035 0.630232
2118 4 0.40376 0.460509 0.608748
3092 4 0.410791 0.457665 0.589224
1944 4 0.0512696 0.0126625 0.73769
2239 2 0.305102 0.0212456 0.749842
796 2 0.474802 0.0095608 0.675916
90 3 0.477462 0.0362203 0.738265
86 1 0.49715 0.0476681 0.738195
87 3 0.501266 0.0555324 0.716974
1073 4 0.00237931 0.110869 0.684608
4509 4 0.0175498 0.120901 0.691658
4507 2 0.0422737 0.123103 0.694669
4508 4 0.0669975 0.125304 0.69768
1185 4 0.0812522 0.119779 0.686149
1183 2 0.101078 0.120228 0.701377
1184 4 0.120904 0.120677 0.716606
858 4 0.161276 0.166475 0.681262
951 4 0.315262 0.118838 0.672879
879 4 0.296281 0.120286 0.677011
877 2 0.282657 0.136552 0.69024
878 4 0.269033 0.152817 0.703469
1155 4 0.27584 0.161992 0.720036
1153 2 0.286971 0.166372 0.741993
949 2 0.338048 0.113016 0.681367
950 4 0.360835 0.107194 0.689855
1005 4 0.37677 0.118627 0.695195
1003 2 0.395715 0.129478 0.707383
2064 4 0.412655 0.137612 0.738587
1004 4 0.414661 0.140328 0.71957
2264 4 0.495498 0.0823144 0.740218
3476 4 0.017131 0.203715 0.671583
3475 2 0.00243825 0.20643 0.691631
857 4 0.121342 0.195249 0.690094
856 2 0.141309 0.180862 0.685678
1235 4 0.190554 0.19523 0.733105
823 2 0.197505 0.187001 0.666601
824 4 0.213531 0.169197 0.673766
636 4 0.223033 0.16933 0.691828
634 2 0.242931 0.183619 0.696833
635 4 0.262829 0.197909 0.701838
1064 4 0.262999 0.216465 0.697129
1063 2 0.280091 0.225255 0.713122
1065 4 0.297183 0.234045 0.729115
3371 4 0.30774 0.240378 0.745682
3370 2 0.330361 0.236116 0.735919
3372 4 0.352982 0.231854 0.726157
1087 2 0.0646588 0.286122 0.737937
990 4 0.0281716 0.323215 0.749847
1089 4 0.0448333 0.273854 0.746972
1088 4 0.0844842 0.29839 0.728902
869 4 0.0928047 0.305955 0.745538
3338 4 0.211971 0.286748 0.674714
3337 2 0.224244 0.287841 0.69647
3339 4 0.236518 0.288933 0.718227
981 4 0.292656 0.294925 0.678624
2015 4 0.29489 0.287318 0.696538
2014 2 0.301631 0.28101 0.719775
2016 4 0.308372 0.274701 0.743011
2906 4 0.355621 0.251873 0.729322
2905 2 0.372742 0.269912 0.726743
2907 4 0.389862 0.287951 0.724164
558 4 0.40349 0.302048 0.724785
556 2 0.422656 0.312734 0.712798
557 4 0.441821 0.323419 0.70081
4181 4 0.454045 0.314041 0.688814
4180 2 0.458223 0.325346 0.666907
988 2 0.0110812 0.340079 0.742869
982 2 0.13437 0.392025 0.685578
983 4 0.131159 0.402631 0.707992
1079 4 0.246426 0.408194 0.732966
1078 2 0.249378 0.414904 0.709061
1166 4 0.264717 0.352191 0.714729
1165 2 0.271718 0.349525 0.738584
4482 4 0.324669 0.398623 0.744741
3010 2 0.476975 0.400526 0.689454
3011 4 0.453471 0.404856 0.682105
1044 4 0.4812 0.400244 0.742669
3302 4 0.130373 0.421649 0.715423
3303 4 0.110693 0.467618 0.715888
3301 2 0.120533 0.444634 0.715655
1161 4 0.10769 0.483553 0.704109
1159 2 0.087852 0.498772 0.704251
4480 2 0.312344 0.418618 0.736166
1080 4 0.252331 0.421613 0.685157
2154 4 0.269619 0.42413 0.674296
4481 4 0.30002 0.438612 0.727591
2379 4 0.302388 0.457411 0.723151
2377 2 0.297693 0.479422 0.734043
791 4 0.346656 0.458137 0.668684
1910 4 0.407103 0.440938 0.702479
1911 4 0.451202 0.424642 0.685437
1909 2 0.429152 0.43279 0.693958
1942 2 0.0707702 0.0100023 0.753112
1943 4 0.0902708 0.00734213 0.768534
455 4 0.21793 0.0369808 0.825738
1246 2 0.200974 0.00195934 0.823396
2240 4 0.307322 0.046072 0.751817
2231 4 0.310817 0.0593219 0.766471
2230 2 0.293814 0.0759931 0.774097
1969 2 0.309305 0.0335142 0.812991
1971 4 0.319307 0.0107738 0.81016
1970 4 0.299303 0.0562546 0.815823
2322 4 0.463645 0.0302806 0.751231
89 3 0.495881 0.0656882 0.752758
2320 2 0.46737 0.0123487 0.768253
978 4 0.0538649 0.146543 0.781796
1083 4 0.235195 0.116659 0.807878
2113 2 0.203637 0.130726 0.829469
4521 4 0.171257 0.150037 0.819425
2114 4 0.225926 0.120381 0.824853
1081 2 0.251077 0.111309 0.789322
2232 4 0.276811 0.0926642 0.781722
1082 4 0.266959 0.105959 0.770766
2062 2 0.404063 0.140439 0.761897
1257 4 0.3827 0.140562 0.799298
2063 4 0.39547 0.143266 0.785207
1255 2 0.366405 0.157423 0.807977
2277 4 0.999622 0.172328 0.833251
976 2 0.0510276 0.17046 0.775081