ITEM: TIMESTEP
5770000
ITEM: NUMBER OF ATOMS
4590
ITEM: BOX BOUNDS pp pp pp
-9.9985700000000008e+00 9.9985700000000008e+00
-9.9985700000000008e+00 9.9985700000000008e+00
-9.9985700000000008e+00 9.9985700000000008e+00
ITEM: ATOMS id type xs ys zs
1504 2 0.0300112 0.0373921 0.0555815
1505 4 0.0195712 0.0438576 0.0338011
1125 4 0.011502 0.0624251 0.0360851
1506 4 0.0404511 0.0309266 0.0773618
770 4 0.202332 0.0714875 0.0668431
867 4 0.215087 0.0590334 0.05634
865 2 0.234538 0.0741302 0.0519902
769 2 0.181111 0.0785412 0.0780287
1110 4 0.333743 0.0100956 0.0179077
461 4 0.312053 0.088445 0.0196716
77 3 0.389261 0.0168258 0.0137461
76 1 0.370295 0.0105232 0.0251342
79 3 0.351686 0.0171642 0.0129684
78 3 0.370257 0.0208265 0.0459247
1495 2 0.352886 0.00983241 0.078848
1497 4 0.363976 0.00486382 0.0569961
1565 4 0.440223 0.0457744 0.00448712
1564 2 0.460767 0.0583389 0.0112149
1566 4 0.481311 0.0709035 0.0179426
4394 4 0.126145 0.103415 0.0173273
624 4 0.135744 0.123962 0.0199445
622 2 0.150898 0.121038 0.0396162
911 4 0.12537 0.158231 0.0775081
55 3 0.149865 0.138182 0.0106856
623 4 0.166052 0.118114 0.059288
379 2 0.227827 0.13331 0.0125393
913 2 0.219735 0.137561 0.0673663
915 4 0.229326 0.144845 0.0454543
381 4 0.228402 0.153484 0.0272992
866 4 0.25399 0.089227 0.0476405
462 4 0.263293 0.0925376 0.0299911
460 2 0.287673 0.0904913 0.0248314
571 2 0.407562 0.10967 0.0723159
746 4 0.367981 0.156813 0.0238843
572 4 0.383519 0.109064 0.0654805
573 4 0.431606 0.110276 0.0791513
2841 4 0.482428 0.136903 0.083906
2839 2 0.472868 0.143781 0.0618497
2840 4 0.463308 0.150659 0.0397933
2855 4 0.470695 0.145932 0.0214373
2854 2 0.454919 0.159842 0.00791682
763 2 0.0546452 0.190221 0.0401562
765 4 0.0319354 0.187352 0.0300956
764 4 0.077355 0.193089 0.0502168
54 3 0.169715 0.170176 0.0104744
912 4 0.0956082 0.184879 0.0474276
1595 4 0.113776 0.246638 0.0488981
910 2 0.110489 0.171555 0.0624679
957 4 0.12234 0.230729 0.0565415
955 2 0.147035 0.229539 0.0602676
956 4 0.171731 0.22835 0.0639938
546 4 0.190522 0.220824 0.0651053
828 4 0.279715 0.159528 0.0231048
826 2 0.296747 0.161564 0.0049125
745 2 0.385884 0.173543 0.0189076
747 4 0.403787 0.190273 0.0139308
527 4 0.405394 0.209899 0.0107465
363 4 0.0157732 0.258094 0.0702037
361 2 0.0400759 0.256423 0.0758398
1594 2 0.108138 0.251181 0.0249658
1596 4 0.102501 0.255724 0.00103344
27 3 0.407491 0.268693 0.038721
28 3 0.391722 0.280145 0.0708589
30 3 0.408642 0.304823 0.048004
26 1 0.409349 0.283573 0.0561644
2827 2 0.464436 0.275151 0.0762516
2829 4 0.442904 0.287141 0.0804684
29 3 0.429532 0.279928 0.0670164
563 4 0.448842 0.324486 0.0566792
1071 4 0.466946 0.321602 0.0491943
2828 4 0.485969 0.263162 0.0720349
2357 4 0.0453913 0.399889 0.0180634
2356 2 0.066961 0.387259 0.0187065
2358 4 0.0885307 0.374629 0.0193496
923 4 0.152224 0.399222 0.0119261
922 2 0.128795 0.39059 0.010616
924 4 0.105365 0.381958 0.00930594
1236 4 0.167885 0.410765 0.0146652
1234 2 0.186453 0.415081 0.0308446
15 3 0.301773 0.405312 0.0821472
13 3 0.276944 0.415656 0.0558
564 4 0.422728 0.344809 0.0191855
2454 4 0.428323 0.362591 0.0210442
562 2 0.435785 0.334648 0.0379324
1069 2 0.487893 0.33474 0.0529107
3882 4 0.45772 0.390215 0.0757238
3880 2 0.453348 0.403841 0.0552195
2452 2 0.431977 0.379752 0.00323098
1777 2 0.0392079 0.483496 0.0770064
1779 4 0.0477466 0.481832 0.053565
2573 4 0.0628493 0.494132 0.0489691
626 4 0.220217 0.426102 0.0340456
1235 4 0.205021 0.419398 0.0470239
625 2 0.243899 0.424386 0.0262094
12 3 0.268869 0.419717 0.0922823
627 4 0.267581 0.422669 0.0183731
11 1 0.285764 0.420564 0.0766935
3212 4 0.275033 0.44084 0.0256697
3211 2 0.298614 0.443879 0.0179321
14 3 0.294857 0.441911 0.0766382
3213 4 0.322195 0.446919 0.0101945
3881 4 0.448977 0.417466 0.0347152
3801 4 0.438927 0.434167 0.0316881
3799 2 0.45306 0.440144 0.0119474
2783 4 0.44711 0.497493 0.0738855
2782 2 0.466391 0.482045 0.0777306
1403 4 0.0357141 0.0423311 0.093465
1402 2 0.0481351 0.0630366 0.0999597
477 4 0.154658 0.085582 0.153
2723 4 0.324699 0.00714649 0.0928887
699 4 0.278698 0.0922376 0.11072
22 3 0.291116 0.0814267 0.157266
1496 4 0.341797 0.014801 0.1007
628 2 0.463626 0.0228639 0.127914
630 4 0.485155 0.0236953 0.140602
629 4 0.442097 0.0220325 0.115227
3203 4 0.447153 0.00551825 0.105245
1404 4 0.0605561 0.0837421 0.106454
1533 4 0.0678751 0.100008 0.11304
1531 2 0.064254 0.124118 0.118587
1532 4 0.0606328 0.148229 0.124133
2476 2 0.0175789 0.155464 0.164052
771 4 0.159891 0.085595 0.0892144
475 2 0.154442 0.0913125 0.128663
691 2 0.120269 0.163545 0.155998
476 4 0.154227 0.0970431 0.104325
875 4 0.21573 0.11149 0.0946394
914 4 0.210143 0.130278 0.0892783
874 2 0.237111 0.100848 0.102041
744 4 0.236711 0.0953796 0.159084
1784 4 0.3364 0.118358 0.0835899
25 3 0.282205 0.114418 0.142264
876 4 0.258492 0.0902052 0.109442
697 2 0.300724 0.10148 0.103329
698 4 0.32275 0.110722 0.0959378
21 1 0.27971 0.101125 0.160586
1785 4 0.368248 0.131929 0.119676
1783 2 0.352324 0.125144 0.101633
420 4 0.376236 0.15076 0.122777
418 2 0.397566 0.157593 0.111663
484 2 0.49225 0.134152 0.117727
312 4 0.494884 0.123056 0.157901
485 4 0.49052 0.120832 0.138817
486 4 0.493981 0.147471 0.0966366
2478 4 0.0348964 0.173329 0.161582
530 4 0.0527281 0.17054 0.151561
529 2 0.0518197 0.194332 0.143924
531 4 0.0509113 0.218123 0.136287
2760 4 0.11572 0.190154 0.121769
2758 2 0.12531 0.212429 0.127856
692 4 0.110995 0.175297 0.135971
2759 4 0.134899 0.234704 0.133942
545 4 0.207518 0.235234 0.109873
544 2 0.19902 0.228029 0.0874894
556 2 0.401086 0.244738 0.14957
557 4 0.382075 0.228519 0.148743
402 4 0.368983 0.215888 0.159482
419 4 0.418897 0.164426 0.10055
362 4 0.0643786 0.254752 0.0814759
547 2 0.0760256 0.318685 0.105705
548 4 0.0796525 0.295233 0.11358
449 4 0.0864934 0.278514 0.123896
450 4 0.12426 0.250365 0.14069
448 2 0.105377 0.26444 0.132293
558 4 0.420098 0.260957 0.150397
519 4 0.432422 0.255486 0.163761
517 2 0.445155 0.276217 0.157993
3608 4 0.447193 0.313655 0.158179
518 4 0.457887 0.296949 0.152225
549 4 0.0723987 0.342137 0.0978294
2597 4 0.0646398 0.356889 0.0877828
2596 2 0.0561854 0.369909 0.107384
2598 4 0.0477311 0.382928 0.126985
2842 2 0.0275154 0.405342 0.157722
2844 4 0.00693137 0.398228 0.14544
2583 4 0.00692056 0.404361 0.0882517
2094 4 0.151782 0.384497 0.134879
2092 2 0.172309 0.398568 0.132464
1223 4 0.208811 0.412026 0.14227
2093 4 0.192836 0.412639 0.130049
273 4 0.320234 0.399505 0.0766155
271 2 0.325489 0.378521 0.0891549
272 4 0.330744 0.357537 0.101694
3607 2 0.451201 0.33833 0.158658
659 4 0.454682 0.389024 0.0953353
3609 4 0.455208 0.363006 0.159137
660 4 0.452543 0.374401 0.143109
658 2 0.453613 0.381712 0.119222
1778 4 0.0306693 0.48516 0.100448
700 2 0.0474718 0.494746 0.130608
702 4 0.0267995 0.484564 0.120905
1663 2 0.224518 0.495313 0.15979
1665 4 0.243932 0.488303 0.145679
611 4 0.468772 0.426171 0.164657
2784 4 0.485672 0.466596 0.0815756
610 2 0.489354 0.438125 0.156997
17 3 0.165333 0.0745462 0.166455
19 3 0.180291 0.0744528 0.200935
468 4 0.219953 0.0853736 0.238128
332 4 0.364711 0.0429417 0.240968
331 2 0.386984 0.0535201 0.245112
333 4 0.409258 0.0640986 0.249255
3891 4 0.427873 0.0607185 0.259407
2477 4 0.000261437 0.137598 0.166523
18 3 0.149441 0.0953412 0.19343
366 4 0.124478 0.153 0.196352
364 2 0.137973 0.132529 0.20125
365 4 0.151469 0.112058 0.206148
693 4 0.129542 0.151793 0.176025
389 4 0.164284 0.0930004 0.248217
16 1 0.169578 0.0874784 0.184999
20 3 0.182877 0.104983 0.179052
742 2 0.225109 0.113208 0.172226
743 4 0.213506 0.131037 0.185368
390 4 0.211258 0.104894 0.235861
388 2 0.187771 0.0989474 0.242039
23 3 0.25725 0.0963228 0.163884
24 3 0.288373 0.111744 0.179311
1700 4 0.350943 0.130213 0.204293
422 4 0.353739 0.120439 0.221609
1699 2 0.367252 0.148007 0.197768
421 2 0.357518 0.108086 0.243017
310 2 0.483497 0.135902 0.17608
311 4 0.47211 0.148748 0.19426
495 4 0.326237 0.206446 0.236017
400 2 0.378318 0.200666 0.176984
1701 4 0.383562 0.1658 0.191243
401 4 0.387652 0.185443 0.194487
493 2 0.339349 0.225708 0.226949
104 3 0.384067 0.236168 0.200758
494 4 0.35246 0.24497 0.21788
2615 4 0.0784888 0.310844 0.241708
343 2 0.138627 0.28449 0.218663
344 4 0.161014 0.287731 0.20801
345 4 0.116239 0.281249 0.229315
602 4 0.102453 0.33591 0.226169
756 4 0.170579 0.273177 0.217091
755 4 0.216407 0.277118 0.236711
754 2 0.193493 0.275147 0.226901
510 4 0.217409 0.296161 0.229865
508 2 0.235673 0.305405 0.244222
105 3 0.359961 0.263385 0.210545
101 1 0.381908 0.258391 0.207073
103 3 0.390657 0.272192 0.190599
102 3 0.393622 0.26175 0.226583
588 4 0.397016 0.287901 0.201632
586 2 0.389773 0.311635 0.19856
750 4 0.402953 0.279598 0.21956
748 2 0.422064 0.283774 0.235133
749 4 0.441175 0.287951 0.250706
1914 4 0.0503897 0.414634 0.189963
1912 2 0.071537 0.401296 0.189694
289 2 0.00865089 0.399779 0.223959
290 4 0.0198732 0.394756 0.24573
1821 4 0.0200051 0.375414 0.242489
1913 4 0.0926843 0.387958 0.189426
603 4 0.0930934 0.368346 0.189277
601 2 0.0977733 0.352128 0.207723
1222 2 0.215516 0.409521 0.166228
1224 4 0.222221 0.407017 0.190185
587 4 0.38253 0.335368 0.195487
387 4 0.386873 0.354644 0.200881
385 2 0.407674 0.368518 0.200912
597 4 0.363312 0.414689 0.226002
1862 4 0.418374 0.415319 0.237214
386 4 0.428475 0.382393 0.200943
2651 4 0.44737 0.380406 0.196712
2650 2 0.458425 0.401956 0.190499
2843 4 0.0480994 0.412457 0.170005
621 4 0.0212338 0.466271 0.207778
619 2 0.0177273 0.488856 0.217917
3716 4 0.00177133 0.462782 0.206625
1757 4 0.122846 0.460216 0.226666
1756 2 0.129339 0.46921 0.249074
313 2 0.192071 0.481859 0.241312
315 4 0.203077 0.459851 0.236875
413 4 0.219594 0.452034 0.245449
2652 4 0.469479 0.423505 0.184285
1863 4 0.415998 0.465217 0.234919
1861 2 0.417186 0.440268 0.236067
118 3 0.46675 0.477152 0.185298
119 3 0.495045 0.499552 0.197216
3684 4 0.40634 0.475823 0.249202
1338 4 0.0805633 0.0231756 0.319247
1336 2 0.0928105 0.00267606 0.32666
439 2 0.0970988 0.0612118 0.309471
440 4 0.113542 0.0785741 0.302168
354 4 0.127628 0.0729868 0.289039
352 2 0.142749 0.0732141 0.269126
353 4 0.15787 0.0734414 0.249214
441 4 0.0806554 0.0438496 0.316775
466 2 0.237297 0.0764751 0.253785
496 2 0.256388 0.0570476 0.304505
498 4 0.258308 0.0391365 0.321845
497 4 0.254468 0.0749587 0.287165
467 4 0.254642 0.0675767 0.269442
632 4 0.252437 0.0223448 0.329128
3889 2 0.44606 0.0473314 0.27014
3890 4 0.464246 0.0339443 0.280874
708 4 0.463911 0.0265268 0.298917
706 2 0.460438 0.0223705 0.323327
299 4 0.00994127 0.151329 0.312276
298 2 0.0243998 0.131776 0.306464
300 4 0.0388584 0.112222 0.300652
423 4 0.361297 0.0957332 0.264425
2895 4 0.355077 0.111701 0.274869
2893 2 0.359229 0.112337 0.299517
2894 4 0.363381 0.112973 0.324165
338 4 0.187075 0.242558 0.313255
337 2 0.174742 0.234892 0.333609
507 4 0.200758 0.247681 0.300911
2837 4 0.495089 0.18917 0.25019
2851 2 0.497642 0.218841 0.268901
2853 4 0.502424 0.194308 0.26822
2852 4 0.492861 0.243374 0.269581
459 4 0.0553558 0.329931 0.330855
2614 2 0.0813979 0.316743 0.265831
2616 4 0.0843071 0.322643 0.289954
4298 4 0.0906445 0.310633 0.304833
4297 2 0.103783 0.313696 0.325885
505 2 0.221972 0.259626 0.30661
506 4 0.243186 0.271571 0.31231
509 4 0.253938 0.314648 0.25858
648 4 0.256281 0.257347 0.317258
646 2 0.272405 0.276145 0.320702
647 4 0.288529 0.294942 0.324146
2955 4 0.295822 0.307894 0.31226
2953 2 0.319537 0.301843 0.307144
2954 4 0.343252 0.295793 0.302028
473 4 0.355387 0.308931 0.311889
472 2 0.369266 0.294474 0.326841
2935 2 0.495641 0.298523 0.329801
275 4 0.439982 0.284872 0.269841
2937 4 0.480003 0.308288 0.312909
274 2 0.454155 0.300382 0.283397
276 4 0.468327 0.315892 0.296953
1819 2 0.0391202 0.366608 0.255989
457 2 0.0436712 0.349679 0.320922
458 4 0.0319867 0.369427 0.31099
1220 4 0.0376112 0.38244 0.325375
1820 4 0.0582353 0.357801 0.269488
1219 2 0.0446385 0.402308 0.338829
248 4 0.295019 0.354537 0.300356
1430 4 0.303984 0.34983 0.283463
1429 2 0.322024 0.36713 0.282814
247 2 0.288198 0.347212 0.323269
1431 4 0.340065 0.38443 0.282164
595 2 0.357907 0.401752 0.246705
596 4 0.352502 0.388816 0.267408
1530 4 0.419397 0.408161 0.255728
1529 4 0.460108 0.390115 0.278481
1528 2 0.439753 0.399138 0.267104
812 4 0.462537 0.398971 0.296608
811 2 0.467246 0.391319 0.319941
1640 4 0.0118702 0.452295 0.331329
680 4 0.0104172 0.460159 0.31393
1788 4 0.133142 0.499443 0.275526
1758 4 0.135833 0.478205 0.271482
1786 2 0.131436 0.494803 0.300036
1787 4 0.129731 0.490162 0.324546
569 4 0.144456 0.476035 0.323592
412 2 0.241014 0.458302 0.256723
414 4 0.262433 0.464571 0.267997
3682 2 0.413971 0.484487 0.271381
3683 4 0.421601 0.493151 0.293559
1773 4 0.987906 0.0430705 0.343847
1516 2 0.322405 0.0643027 0.386477
1518 4 0.297631 0.0652331 0.389726
1199 4 0.28089 0.0705652 0.399616
430 2 0.38769 0.053693 0.390424
431 4 0.408341 0.0465114 0.402553
432 4 0.367038 0.0608746 0.378295
1517 4 0.347179 0.0633722 0.383228
489 4 0.438112 0.0111622 0.351732
707 4 0.456966 0.0182143 0.347737
487 2 0.431769 0.00103034 0.373693
257 4 0.427611 0.040317 0.410369
792 4 0.227749 0.0951742 0.382882
790 2 0.213272 0.11392 0.390893
791 4 0.198795 0.132667 0.398904
1200 4 0.24444 0.10405 0.392486
1198 2 0.262665 0.0873078 0.396051
278 4 0.382679 0.114717 0.331863
277 2 0.386408 0.115824 0.356562
279 4 0.390137 0.11693 0.381262
2657 4 0.377903 0.1328 0.383356
2656 2 0.381106 0.145863 0.404435
2533 2 0.0671714 0.214764 0.373667
2535 4 0.05665 0.232294 0.38806
1151 4 0.0395071 0.235108 0.397248
1034 4 0.0163162 0.176937 0.422042
2534 4 0.0776928 0.197234 0.359274
347 4 0.141825 0.169343 0.34755
348 4 0.0963337 0.187643 0.357365
346 2 0.119079 0.178493 0.352457
261 4 0.16902 0.231584 0.37293
339 4 0.162408 0.227226 0.353963
259 2 0.176851 0.213129 0.387871
260 4 0.184683 0.194674 0.402813
372 4 0.191533 0.186654 0.419906
1210 2 0.324149 0.234564 0.41289
1211 4 0.305868 0.219989 0.421753
1212 4 0.342431 0.249138 0.404028
1193 4 0.465646 0.250691 0.376281
1150 2 0.0430537 0.258769 0.404511
1152 4 0.0466002 0.282431 0.411774
4299 4 0.116921 0.316758 0.346937
737 4 0.271903 0.316399 0.406756
736 2 0.276824 0.319858 0.382486
738 4 0.281744 0.323317 0.358217
249 4 0.281377 0.339886 0.346182
804 4 0.352055 0.26149 0.392088
802 2 0.370294 0.269072 0.376756
803 4 0.388533 0.276653 0.361425
474 4 0.383145 0.280017 0.341793
1192 2 0.4532 0.268409 0.388785
1194 4 0.440755 0.286127 0.40129
1010 4 0.434648 0.297125 0.415984
2529 4 0.0469543 0.418427 0.37036
1397 4 0.114166 0.33543 0.354538
1396 2 0.120885 0.354502 0.369245
1398 4 0.127604 0.373574 0.383952
678 4 0.139611 0.389441 0.385306
676 2 0.148777 0.410883 0.376282
539 4 0.192538 0.412973 0.403983
1473 4 0.302298 0.419213 0.351819
767 4 0.292106 0.424692 0.368152
613 2 0.393966 0.386345 0.395554
615 4 0.41322 0.396058 0.3829
872 4 0.355494 0.376438 0.408409
614 4 0.374712 0.376631 0.408208
266 4 0.421142 0.380797 0.373849
813 4 0.471955 0.383667 0.343274
265 2 0.444999 0.377664 0.367048
267 4 0.468855 0.374531 0.360248
1221 4 0.0516658 0.422177 0.352284
1639 2 0.0291788 0.468123 0.339993
2528 4 0.017799 0.443459 0.402361
2527 2 0.0323766 0.430943 0.386361
1752 4 0.00709946 0.459886 0.403611
1641 4 0.0464875 0.483951 0.348656
1750 2 0.0116057 0.481177 0.391299
1445 4 0.0560308 0.467182 0.355155
568 2 0.14487 0.456168 0.338768
677 4 0.157943 0.432324 0.367258
1444 2 0.0769681 0.468934 0.36871
1446 4 0.0979053 0.470685 0.382265
936 4 0.108223 0.47624 0.399331
570 4 0.145283 0.436301 0.353944
538 2 0.216993 0.418123 0.403198
540 4 0.241448 0.423273 0.402413
766 2 0.274196 0.417687 0.384132
768 4 0.256286 0.410682 0.400112
1471 2 0.326067 0.423194 0.358477
560 4 0.360068 0.435061 0.350111
559 2 0.382812 0.445438 0.350581
561 4 0.405556 0.455815 0.351051
1472 4 0.349837 0.427176 0.365136
1587 4 0.420549 0.469452 0.351143
1585 2 0.430221 0.492081 0.346723
2458 2 0.0625145 0.0354764 0.489527
2460 4 0.0712209 0.0295523 0.466849
1602 4 0.122664 0.0371896 0.476517
1600 2 0.116758 0.0597855 0.467588
1216 2 0.32578 0.0623547 0.474
1217 4 0.315899 0.0430259 0.461593
1218 4 0.335662 0.0816836 0.486407
256 2 0.438603 0.0484033 0.431321
258 4 0.449594 0.0564896 0.452273
900 4 0.464233 0.0539227 0.464683
898 2 0.472589 0.0609644 0.487172
469 2 0.00358022 0.088139 0.437013
1489 2 0.999134 0.163079 0.492057
1033 2 0.0186208 0.152278 0.42548
1035 4 0.0209255 0.12762 0.428918
471 4 0.014071 0.110807 0.438137
723 4 0.074849 0.144803 0.44917
721 2 0.0580593 0.15532 0.464424
722 4 0.0412696 0.165837 0.479678
734 4 0.0885156 0.129349 0.449118
1601 4 0.110853 0.0823813 0.458658
733 2 0.106655 0.113151 0.454931
735 4 0.124794 0.0969537 0.460743
716 4 0.164273 0.153644 0.474898
715 2 0.150199 0.172756 0.48276
239 4 0.171947 0.13821 0.462184
238 2 0.181601 0.134594 0.439405
240 4 0.191256 0.130977 0.416626
1059 4 0.343604 0.0926385 0.501823
1024 2 0.405895 0.1554 0.454451
1025 4 0.413276 0.141914 0.474169
3158 4 0.426382 0.143957 0.489002
1490 4 0.0226011 0.168708 0.485515
502 2 0.126256 0.230145 0.494601
504 4 0.124086 0.205292 0.496278
717 4 0.136124 0.191868 0.490622
370 2 0.20993 0.199382 0.431074
371 4 0.228327 0.21211 0.442243
600 4 0.237698 0.208285 0.425634
599 4 0.287186 0.214928 0.422889
598 2 0.262442 0.211606 0.424261
2658 4 0.384309 0.158925 0.425513
1026 4 0.398514 0.168887 0.434733
383 4 0.121789 0.271471 0.480564
382 2 0.127302 0.294407 0.472273
384 4 0.132814 0.317343 0.463983
1178 4 0.118387 0.329159 0.470645
503 4 0.128427 0.254998 0.492923
374 4 0.405834 0.280769 0.463767
373 2 0.391287 0.301103 0.463506
650 4 0.366489 0.338018 0.467941
375 4 0.37674 0.321438 0.463245
1167 4 0.422972 0.28265 0.475139
1165 2 0.424957 0.280635 0.499982
1009 2 0.44127 0.313185 0.433968
1011 4 0.447891 0.329245 0.451951
2958 4 0.997133 0.389534 0.444404
3820 2 1.59021e-05 0.414855 0.478509
1177 2 0.131096 0.349216 0.46281
1179 4 0.143806 0.369272 0.454975
696 4 0.158961 0.382218 0.452971
694 2 0.171583 0.397016 0.437258
695 4 0.184204 0.411814 0.421545
728 4 0.278065 0.410948 0.46443
651 4 0.31662 0.334451 0.466897
727 2 0.287219 0.392925 0.449714
729 4 0.296373 0.374902 0.434998
873 4 0.31123 0.362975 0.427387
649 2 0.341554 0.336235 0.467419
871 2 0.333362 0.369706 0.417898
1239 4 0.333725 0.394339 0.489146
2455 2 0.480971 0.358598 0.452434
2456 4 0.460364 0.344489 0.453655
1382 4 0.0337594 0.507431 0.446242
3822 4 0.996638 0.435214 0.492626
3354 4 0.088712 0.434646 0.473692
984 4 0.0096033 0.45017 0.495048
1120 2 0.069133 0.442831 0.436115
1121 4 0.0531477 0.446566 0.417255
1122 4 0.0851184 0.439097 0.454975
3352 2 0.0984775 0.439612 0.496168
1681 2 0.129801 0.492596 0.479189
934 2 0.121138 0.476502 0.42074
935 4 0.134052 0.476763 0.442148
1682 4 0.127889 0.475137 0.461394
1173 4 0.225712 0.459128 0.488369
1171 2 0.202978 0.466325 0.495889
1172 4 0.180244 0.473522 0.503409
1400 4 0.409174 0.447593 0.471463
2436 4 0.367521 0.493117 0.449446
1401 4 0.386307 0.484884 0.447231
1399 2 0.397741 0.466238 0.459347
1237 2 0.334657 0.416326 0.501016
1455 4 0.427877 0.440209 0.47106
1453 2 0.432345 0.425546 0.490813
851 4 0.0513672 0.0277023 0.527223
850 2 0.0334028 0.0131065 0.53668
2459 4 0.053808 0.0414005 0.512205
2132 4 0.086438 0.0757203 0.578902
2131 2 0.0989135 0.0541051 0.580427
2133 4 0.111389 0.03249 0.581952
2017 2 0.234033 0.0156598 0.546688
2018 4 0.236947 0.0382413 0.536355
1142 4 0.416821 0.0850795 0.517175
899 4 0.480945 0.0680062 0.509662
1141 2 0.422525 0.0615579 0.5109
411 4 0.419041 0.0206908 0.505364
1143 4 0.428229 0.0380363 0.504625
857 4 0.0974882 0.0878855 0.567072
856 2 0.118098 0.101183 0.562215
858 4 0.138708 0.11448 0.557357
887 4 0.152726 0.116744 0.543749
886 2 0.174413 0.116282 0.556185
888 4 0.196099 0.115821 0.568621
831 4 0.190803 0.105401 0.584748
1058 4 0.351277 0.0865242 0.550858
1262 4 0.350563 0.160405 0.556012
1086 4 0.365061 0.153515 0.5451
1057 2 0.347441 0.0895813 0.52634
3159 4 0.414471 0.10371 0.516187
1084 2 0.388957 0.157646 0.551194
1085 4 0.412852 0.161776 0.557287
3157 2 0.420427 0.123833 0.502594
640 2 0.492585 0.133036 0.580677
2653 2 0.00384682 0.174156 0.576473
2654 4 0.0236071 0.172354 0.561259
3265 2 0.0462836 0.206098 0.565319
3266 4 0.0382545 0.184728 0.55512
3267 4 0.0543127 0.227469 0.575518
1261 2 0.34239 0.17672 0.573106
711 4 0.368078 0.247907 0.566909
709 2 0.357686 0.241599 0.54506
710 4 0.347294 0.235291 0.52321
2508 4 0.423523 0.156981 0.57328
1259 4 0.135101 0.328784 0.571365
801 4 0.407517 0.264796 0.570911
799 2 0.423967 0.265709 0.552102
1166 4 0.426941 0.27862 0.524825
800 4 0.440416 0.266621 0.533294
3128 4 0.0252257 0.355731 0.556323
3127 2 0.0050344 0.354861 0.571045
3262 2 0.117794 0.411659 0.546222
3264 4 0.126325 0.396857 0.564478
1260 4 0.128239 0.377071 0.560318
1258 2 0.13167 0.352928 0.565842
616 2 0.246193 0.410055 0.580639
816 4 0.320408 0.376817 0.571281
814 2 0.318943 0.377004 0.546321
815 4 0.317478 0.377192 0.521362
1454 4 0.436812 0.410883 0.510567
661 2 0.443492 0.381883 0.539737
663 4 0.437154 0.392065 0.517797
662 4 0.44983 0.371701 0.561676
3380 4 0.435316 0.363852 0.575921
983 4 0.0240381 0.491491 0.519234
982 2 0.0168207 0.47083 0.507141
3513 4 0.00875794 0.498961 0.530715
3263 4 0.109264 0.426462 0.527965
3353 4 0.108243 0.444578 0.518643
617 4 0.243998 0.429464 0.565029
1238 4 0.335588 0.438313 0.512885
334 2 0.34311 0.478797 0.519551
335 4 0.34511 0.455901 0.509703
862 2 0.0176391 0.0837415 0.64445
864 4 0.0425373 0.0821704 0.64278
3731 4 0.123127 0.0165678 0.585839
3730 2 0.145055 0.0122652 0.597056
46 1 0.149692 0.0658277 0.659844
50 3 0.151108 0.0489822 0.644584
3732 4 0.166984 0.00796269 0.608272
49 3 0.170297 0.076267 0.662048
843 4 0.187028 0.00827027 0.607586
2299 2 0.312064 0.00846695 0.64973
2301 4 0.313661 0.0332901 0.647192
1050 4 0.331142 0.0403349 0.643807
1048 2 0.338186 0.0639732 0.639709
1049 4 0.34523 0.0876116 0.635611
1162 2 0.472648 0.0397867 0.638515
1163 4 0.473046 0.0647664 0.639533
1164 4 0.472249 0.014807 0.637498
3467 4 0.486348 0.00645011 0.650087
726 4 0.455658 0.0742611 0.634122
1271 4 0.060244 0.0888103 0.634121
1270 2 0.0702794 0.110454 0.626636
1272 4 0.0803148 0.132098 0.619152
1523 4 0.0799152 0.150858 0.625143
48 3 0.13368 0.0812356 0.653165
1522 2 0.101973 0.16263 0.624949
830 4 0.209847 0.120766 0.628359
516 4 0.220573 0.126399 0.644261
829 2 0.200325 0.113084 0.606553
514 2 0.235127 0.134921 0.66272
959 4 0.261847 0.156644 0.672492
3425 4 0.350606 0.105072 0.643468
3424 2 0.375558 0.105743 0.642006
3426 4 0.400509 0.106414 0.640544
725 4 0.416834 0.105432 0.629457
641 4 0.480112 0.154061 0.585927
724 2 0.436246 0.0898466 0.631789
821 4 0.0522743 0.226361 0.595124
820 2 0.0563723 0.237147 0.617306
1068 4 0.0772667 0.248053 0.651372
822 4 0.0604703 0.247932 0.639489
1524 4 0.124031 0.174402 0.624754
2915 4 0.14138 0.179734 0.615951
2914 2 0.14716 0.203983 0.614015
2916 4 0.152941 0.228232 0.61208
1284 4 0.148788 0.245164 0.622442
1263 4 0.334217 0.193036 0.590199
958 2 0.276429 0.170089 0.657268
960 4 0.29101 0.183535 0.642044
1394 4 0.309614 0.177356 0.637993
1393 2 0.329423 0.189205 0.628382
1395 4 0.349233 0.201053 0.61877
891 4 0.352009 0.220444 0.622111
890 4 0.369918 0.230297 0.576473
889 2 0.360963 0.22537 0.599292
2506 2 0.446591 0.164112 0.579778
2507 4 0.469658 0.171244 0.586275
3098 4 0.483636 0.234802 0.633305
667 2 0.142368 0.322317 0.611608
669 4 0.149694 0.309007 0.631466
1283 4 0.144245 0.291897 0.639649
1282 2 0.146516 0.268531 0.631046
798 4 0.415486 0.277203 0.583944
796 2 0.405932 0.295854 0.597584
797 4 0.396377 0.314505 0.611223
1007 4 0.407004 0.322146 0.62684
3097 2 0.467501 0.2501 0.644741
3066 4 0.459642 0.283316 0.652118
3064 2 0.452281 0.303306 0.639026
3099 4 0.451366 0.265399 0.656178
3065 4 0.44492 0.323296 0.625934
499 2 0.0179226 0.370835 0.669446
500 4 0.00434771 0.378466 0.649884
668 4 0.135043 0.335626 0.591749
2243 4 0.148272 0.358799 0.657784
3114 4 0.168199 0.35467 0.661249
3112 2 0.186797 0.339363 0.667956
618 4 0.248388 0.390645 0.596248
1136 4 0.330588 0.361445 0.57689
1229 4 0.25454 0.371455 0.593752
1228 2 0.271536 0.370791 0.612079
1230 4 0.288532 0.370127 0.630406
1135 2 0.334612 0.348928 0.598158
2309 4 0.290893 0.381361 0.645328
2308 2 0.297857 0.395445 0.664779
805 2 0.33046 0.333197 0.657648
807 4 0.345622 0.33529 0.637877
1006 2 0.397171 0.336309 0.644948
1137 4 0.338636 0.336411 0.619425
1008 4 0.387338 0.350472 0.663056
3381 4 0.446482 0.342094 0.619539
3379 2 0.440899 0.352973 0.59773
2175 4 0.479979 0.477278 0.614715
2173 2 0.477907 0.499948 0.604372
1267 2 0.499444 0.485447 0.656381
1782 4 0.0493098 0.0484581 0.677338
2316 4 0.0642538 0.0353824 0.682074
2314 2 0.0631229 0.0140286 0.695032
1780 2 0.0545751 0.0714088 0.685748
2265 4 0.00329687 0.0181326 0.733158
47 3 0.143563 0.0570942 0.680224
944 4 0.160418 0.0584408 0.688771
943 2 0.165832 0.0456479 0.70956
945 4 0.171246 0.032855 0.73035
4549 2 0.495293 0.0727027 0.696536
4551 4 0.509763 0.0583738 0.682028
1202 4 0.011383 0.153519 0.69871
1781 4 0.0598403 0.0943595 0.694157
965 4 0.0608364 0.114487 0.696192
964 2 0.0459868 0.133859 0.701614
966 4 0.0311372 0.153231 0.707036
3235 2 0.143798 0.159487 0.682091
3236 4 0.162783 0.143957 0.686947
515 4 0.249681 0.143443 0.681179
977 4 0.186561 0.086951 0.665812
978 4 0.18003 0.133772 0.682117
976 2 0.183296 0.110362 0.673965
1226 4 0.242378 0.160553 0.72766
1044 4 0.247473 0.13967 0.725042
1225 2 0.221999 0.165317 0.741342
1042 2 0.256308 0.121544 0.739826
1043 4 0.265143 0.103417 0.754609
3356 4 0.383283 0.115774 0.736944
916 2 0.386917 0.136174 0.711368
918 4 0.396946 0.129435 0.733258
917 4 0.376888 0.142914 0.689478
4550 4 0.480822 0.0870316 0.711043
4466 4 0.462978 0.0913715 0.720591
4465 2 0.46782 0.108567 0.738085
1066 2 0.0615413 0.244836 0.670544
1067 4 0.0458159 0.241619 0.689715
894 4 0.0467322 0.241651 0.71064
892 2 0.0231694 0.234727 0.705948
1080 4 0.0754249 0.191198 0.729137
962 4 0.0686495 0.181404 0.712947
3237 4 0.124813 0.175016 0.677234
963 4 0.105221 0.172591 0.679999
961 2 0.0869351 0.176997 0.696473
838 2 0.112309 0.240975 0.741327
1130 4 0.129495 0.2554 0.708393
839 4 0.130623 0.24337 0.724473
1129 2 0.148807 0.264758 0.695562
1131 4 0.168119 0.274116 0.68273
10 3 0.207241 0.310756 0.68823
9 3 0.177715 0.287853 0.692845
7 3 0.199208 0.29743 0.722154
6 1 0.199366 0.292691 0.699644
8 3 0.213114 0.274371 0.695932
1244 4 0.171458 0.310999 0.750699
3113 4 0.205396 0.324056 0.674662
1040 4 0.181996 0.334415 0.718313
941 4 0.256927 0.264557 0.741247
501 4 0.0314975 0.363203 0.689008
3077 4 0.0203013 0.358366 0.705046
3076 2 0.0400394 0.363337 0.719567
3078 4 0.0597775 0.368309 0.734088
948 4 0.0718475 0.372003 0.718689
2242 2 0.142293 0.375498 0.675407
2244 4 0.136314 0.392197 0.69303
946 2 0.0963959 0.367453 0.717332
1041 4 0.134129 0.34884 0.717161
947 4 0.120944 0.362902 0.715974
1039 2 0.158063 0.341628 0.717737
806 4 0.315298 0.331105 0.67742
2014 2 0.290572 0.412795 0.72435
2016 4 0.275047 0.412704 0.74395
2015 4 0.306096 0.412886 0.70475
2310 4 0.304821 0.409529 0.684229
2121 4 0.391631 0.359442 0.680277
2119 2 0.367595 0.36097 0.686994
2120 4 0.343559 0.362497 0.69371
1936 2 0.0540256 0.445319 0.73936
1938 4 0.0354444 0.461703 0.735971
1937 4 0.0726069 0.428935 0.742749
993 4 0.163535 0.486028 0.72661
991 2 0.155246 0.465954 0.738999
992 4 0.146957 0.44588 0.751388
1904 4 0.212195 0.432697 0.738984
2373 4 0.274031 0.490328 0.725466
2742 4 0.406516 0.462439 0.69735
2740 2 0.382146 0.464527 0.702539
2741 4 0.357776 0.466616 0.707729
2027 4 0.423834 0.473755 0.697662
2028 4 0.468485 0.478962 0.675756
1269 4 0.47594 0.491598 0.662291
2026 2 0.44616 0.476358 0.686709
926 4 0.487783 0.482238 0.724604
925 2 0.472607 0.477137 0.74381
2270 4 0.0176591 0.0132442 0.745816
908 4 0.168755 0.0361729 0.75028
907 2 0.170801 0.0175695 0.76686
868 2 0.300409 0.999798 0.831692
44 3 0.395185 0.0613648 0.825108
41 1 0.405308 0.0723835 0.807373
3357 4 0.379244 0.0865915 0.777351
42 3 0.389729 0.0756214 0.790762
45 3 0.422477 0.0598407 0.799214
845 4 0.431729 0.00711339 0.77267
1091 4 0.443522 0.0189092 0.76268
1092 4 0.420727 0.0600033 0.779778
1090 2 0.432124 0.0394563 0.771229
2998 2 0.08421 0.166928 0.816098
3009 4 0.26514 0.1094 0.774336
3007 2 0.258579 0.121275 0.795338
1095 4 0.263727 0.148762 0.817197
3008 4 0.252018 0.133151 0.81634
3355 2 0.381263 0.101183 0.757147
43 3 0.413223 0.0930445 0.814365
2050 2 0.413517 0.13668 0.819784
2051 4 0.414208 0.161381 0.823598
2052 4 0.412827 0.111978 0.815971
4467 4 0.472663 0.125762 0.755579
1063 2 0.484958 0.152766 0.768933
1064 4 0.469574 0.133377 0.772484
3028 2 0.0341376 0.202226 0.815262
2047 2 0.0581463 0.232631 0.775296
3029 4 0.026918 0.217248 0.796623
2049 4 0.0361904 0.221157 0.778682
3000 4 0.0793461 0.16603 0.791589
2048 4 0.0801022 0.244105 0.771911
1078 2 0.0796384 0.183358 0.752503
1079 4 0.0838518 0.175519 0.775869
840 4 0.0939948 0.23858 0.75818
1227 4 0.20162 0.170081 0.755023
60 3 0.269048 0.233517 0.829103
903 4 0.324901 0.230272 0.830109
57 3 0.30484 0.223054 0.827569
89 3 0.399626 0.165924 0.836594
3336 4 0.420746 0.217986 0.826088
901 2 0.347588 0.22301 0.822509
902 4 0.370274 0.215747 0.814909
1195 2 0.00106012 0.320285 0.79741
1197 4 0.00538022 0.322337 0.821952
1243 2 0.187019 0.30061 0.767285
1245 4 0.20258 0.290222 0.783872
942 4 0.260512 0.299771 0.776572
940 2 0.25872 0.282164 0.758909
1098 4 0.263503 0.316257 0.789853
2591 4 0.500192 0.297218 0.792113
3491 4 0.486255 0.287256 0.803619
3490 2 0.482442 0.295283 0.82699
2000 4 0.00565001 0.394129 0.781088
395 4 0.0230535 0.402721 0.780382
394 2 0.041467 0.417712 0.788218
1189 2 0.0949148 0.416795 0.817777
1190 4 0.116442 0.407204 0.826129
849 4 0.13262 0.397233 0.816044
847 2 0.157034 0.395736 0.810856
1207 2 0.20967 0.405417 0.795994
1209 4 0.191395 0.389888 0.78892
3224 4 0.247766 0.416891 0.802042
848 4 0.181447 0.394239 0.805668
1096 2 0.277758 0.332501 0.777279
1097 4 0.292012 0.348746 0.764704
1029 4 0.309078 0.358722 0.76303
1027 2 0.333211 0.364868 0.765268
3223 2 0.261482 0.41768 0.822933
1028 4 0.357344 0.371014 0.767506
3347 4 0.362119 0.378801 0.784662
3346 2 0.381258 0.380112 0.800698
3348 4 0.400397 0.381423 0.816734