ITEM: TIMESTEP
460000
ITEM: NUMBER OF ATOMS
1600
ITEM: BOX BOUNDS pp pp pp
-6.9325799999999997e+00 6.9325799999999997e+00
-6.9325799999999997e+00 6.9325799999999997e+00
-6.9325799999999997e+00 6.9325799999999997e+00
ITEM: ATOMS id type xs ys zs
362 2 0.0243236 0.0840645 0.00461066
363 4 0.0558972 0.0862223 0.021899
383 2 0.194086 0.0328797 0.0624408
384 4 0.182189 0.00684824 0.0843786
385 4 0.205983 0.0589111 0.040503
406 4 0.224557 0.0778245 0.0542411
672 4 0.182146 0.0173817 0.111957
404 2 0.239182 0.100835 0.0306387
592 4 0.478387 0.0736401 0.0673892
372 4 0.452452 0.082683 0.0614653
590 2 0.491352 0.0417294 0.0567086
371 2 0.424277 0.0904645 0.040345
373 4 0.396102 0.0982459 0.0192247
591 4 0.504316 0.00981862 0.046028
18 3 0.234372 0.176886 0.105686
19 3 0.182232 0.18105 0.0892937
16 1 0.202551 0.179086 0.115812
324 4 0.256606 0.234812 0.0431896
405 4 0.253808 0.123845 0.00703627
323 2 0.258633 0.203484 0.025445
325 4 0.260661 0.172156 0.00770042
274 4 0.378996 0.18251 0.0539558
272 2 0.376009 0.171508 0.0197435
1008 4 0.0281124 0.243151 0.0609448
358 4 0.0337546 0.243253 0.0325011
356 2 0.0627988 0.260687 0.020135
357 4 0.091843 0.278121 0.00776892
337 4 0.259231 0.255579 0.0607896
267 4 0.183273 0.328428 0.0414256
266 2 0.19515 0.361829 0.0348099
335 2 0.257 0.288485 0.075372
311 2 0.137682 0.296796 0.0085647
336 4 0.254768 0.321391 0.0899543
313 4 0.158862 0.320196 0.0260078
297 4 0.250681 0.322472 0.118515
380 2 0.444006 0.298982 0.0768393
382 4 0.441467 0.311345 0.11062
381 4 0.446545 0.286619 0.0430585
1083 4 0.47448 0.298097 0.0392398
1082 2 0.494697 0.274035 0.0215562
494 2 0.0243585 0.430991 0.995894
268 4 0.207028 0.39523 0.0281942
43 3 0.381974 0.406021 0.0252804
42 3 0.414147 0.442342 0.00111147
260 2 0.233433 0.110766 0.139993
261 4 0.244202 0.0763511 0.140297
710 2 0.269952 0.00782671 0.240616
1000 4 0.449133 0.0922389 0.244282
998 2 0.472076 0.117804 0.233306
17 3 0.194916 0.15187 0.133181
262 4 0.222665 0.145181 0.13969
20 3 0.198666 0.205539 0.134891
414 4 0.189078 0.214976 0.160757
343 4 0.239852 0.197641 0.227681
341 2 0.228703 0.163395 0.22585
342 4 0.217554 0.129149 0.224019
413 2 0.168366 0.244495 0.16056
415 4 0.147654 0.274015 0.160363
326 2 0.257424 0.331255 0.237085
327 4 0.257206 0.328105 0.201162
296 2 0.265645 0.323402 0.151312
298 4 0.280608 0.324331 0.18411
390 4 0.439864 0.294022 0.133403
389 2 0.425299 0.322769 0.149586
391 4 0.410734 0.351516 0.16577
355 4 0.235512 0.496776 0.143078
14 3 0.370322 0.420031 0.163449
13 3 0.415931 0.427156 0.133892
12 3 0.40666 0.380048 0.159057
15 3 0.418597 0.423815 0.188027
11 1 0.402955 0.412942 0.16127
666 4 0.0214236 0.0303245 0.340219
259 4 0.0841796 0.107812 0.346378
418 4 0.107647 0.0932001 0.338108
416 2 0.138174 0.0765852 0.347725
417 4 0.168701 0.0599704 0.357343
712 4 0.260567 0.0377798 0.258369
370 4 0.351345 0.131765 0.305402
257 2 0.0592961 0.125569 0.365508
1019 2 0.0462361 0.244177 0.364198
1020 4 0.0718712 0.242955 0.338864
368 2 0.36283 0.133267 0.339553
309 4 0.400531 0.130258 0.384017
379 4 0.089908 0.266806 0.34062
319 4 0.0715912 0.329995 0.264709
948 4 0.0673559 0.325589 0.2916
947 2 0.036168 0.315608 0.306704
949 4 0.0049801 0.305627 0.321809
317 2 0.10589 0.339209 0.270968
377 2 0.117438 0.283913 0.356427
1032 4 0.00557722 0.290661 0.346819
318 4 0.140188 0.348423 0.277226
375 4 0.153814 0.331199 0.259366
376 4 0.214998 0.332764 0.297521
374 2 0.184406 0.331982 0.278444
345 4 0.242211 0.34254 0.294794
344 2 0.246453 0.366463 0.321442
346 4 0.250694 0.390386 0.348091
328 4 0.257642 0.334406 0.273008
348 4 0.458717 0.252797 0.348912
129 3 0.441673 0.322922 0.306004
126 1 0.464159 0.331493 0.282748
130 3 0.483974 0.306076 0.276413
127 3 0.448142 0.340048 0.254981
128 3 0.482158 0.357639 0.293347
996 4 0.507723 0.366995 0.303996
339 4 0.120146 0.396403 0.319503
933 4 0.00330649 0.466814 0.366745
386 2 0.0578386 0.500594 0.372607
338 2 0.150748 0.412415 0.309133
340 4 0.181351 0.428427 0.298763
301 4 0.174578 0.457332 0.295403
299 2 0.169942 0.49045 0.308898
745 4 0.437767 0.392381 0.372093
717 4 0.143813 0.0588667 0.43559
751 4 0.167875 0.0370265 0.374946
750 4 0.233957 0.018822 0.397383
716 2 0.138396 0.0410045 0.466445
718 4 0.132978 0.0231423 0.4973
749 2 0.200916 0.0279242 0.386165
331 4 0.140361 0.0850045 0.44689
726 4 0.263271 0.0136321 0.394549
316 4 0.339382 0.116364 0.397294
33 3 0.264565 0.115982 0.462827
314 2 0.310544 0.114776 0.418889
315 4 0.281707 0.113188 0.440483
275 2 0.483447 0.0407625 0.44198
310 4 0.470059 0.117622 0.369596
408 4 0.481721 0.0010553 0.485696
276 4 0.469961 0.0164265 0.464922
1021 4 0.0206011 0.245399 0.389531
258 4 0.0344127 0.143326 0.384638
942 4 0.0194476 0.167876 0.39073
359 2 0.10731 0.192304 0.449172
361 4 0.105213 0.164848 0.472458
333 4 0.0898258 0.141157 0.484095
360 4 0.109406 0.21976 0.425886
329 2 0.156164 0.114979 0.434552
330 4 0.171967 0.144954 0.422215
397 4 0.173492 0.159731 0.395726
395 2 0.196161 0.183574 0.410493
396 4 0.21883 0.207417 0.42526
7 3 0.249278 0.212014 0.427343
31 1 0.281933 0.123221 0.490501
35 3 0.299299 0.150728 0.485959
6 1 0.276609 0.216437 0.445622
1235 2 0.35223 0.167338 0.504416
10 3 0.296997 0.191121 0.440898
28 3 0.345295 0.219756 0.38328
9 3 0.267881 0.218203 0.477881
8 3 0.29142 0.244935 0.436217
1236 4 0.32625 0.142335 0.50383
30 3 0.3829 0.180596 0.382181
26 1 0.372052 0.206843 0.398683
27 3 0.363372 0.197646 0.429355
308 2 0.435295 0.12394 0.376806
369 4 0.374315 0.134769 0.373704
1237 4 0.378211 0.19234 0.505003
347 2 0.440346 0.243295 0.378453
349 4 0.421975 0.233794 0.407994
29 3 0.396266 0.229852 0.400732
367 4 0.405409 0.19574 0.494571
279 4 0.176619 0.335823 0.456855
278 2 0.161818 0.3173 0.429684
280 4 0.147017 0.298778 0.402512
378 4 0.144969 0.301019 0.372235
400 4 0.381895 0.317193 0.403737
5 3 0.330493 0.352548 0.442853
295 4 0.339423 0.329803 0.455166
293 2 0.338652 0.302855 0.479116
294 4 0.337881 0.275906 0.503067
398 2 0.40199 0.346361 0.396966
399 4 0.422085 0.37553 0.390196
387 4 0.0244601 0.487183 0.375146
264 4 0.342078 0.416725 0.470142
403 4 0.316879 0.420015 0.456618
2 3 0.319377 0.404144 0.432286
401 2 0.28815 0.43759 0.443726
402 4 0.259421 0.455165 0.430834
4 3 0.357802 0.391861 0.468495
3 3 0.366105 0.382714 0.415092
1 1 0.343454 0.382566 0.439726
721 4 0.263497 0.479976 0.448301
263 2 0.351699 0.438832 0.496959
744 4 0.484613 0.437138 0.403779
963 4 0.480957 0.452374 0.428333
743 2 0.46119 0.41476 0.387936
689 2 0.155952 0.0075424 0.536268
690 4 0.123152 0.0174412 0.525017
691 4 0.188752 0.997644 0.54752
527 2 0.354698 0.0912802 0.535325
847 4 0.354713 0.0360776 0.546111
845 2 0.342404 0.0123536 0.57032
529 4 0.340721 0.121775 0.522092
528 4 0.368675 0.060785 0.548559
32 3 0.302671 0.0981561 0.497013
1111 4 0.495294 0.136902 0.597357
1109 2 0.466084 0.115847 0.599335
104 3 0.409752 0.0871032 0.601775
1110 4 0.436875 0.0947915 0.601313
332 2 0.119094 0.138888 0.50504
443 2 0.199945 0.145651 0.528272
445 4 0.166533 0.154131 0.538861
491 2 0.225142 0.230567 0.594333
334 4 0.148361 0.13662 0.525985
444 4 0.233358 0.137172 0.517682
34 3 0.261088 0.127024 0.516404
550 4 0.325847 0.155748 0.579299
548 2 0.302879 0.149448 0.606376
429 4 0.370195 0.193041 0.588723
436 4 0.370999 0.209708 0.566374
470 2 0.265022 0.233502 0.524431
434 2 0.35791 0.237536 0.547541
492 4 0.241687 0.230135 0.562294
471 4 0.282961 0.212885 0.500904
428 2 0.387135 0.200235 0.619735
365 2 0.433222 0.213301 0.509353
366 4 0.461035 0.230861 0.524135
569 2 0.0222084 0.337909 0.511606
571 4 0.0139154 0.372841 0.508229
570 4 0.0305014 0.302977 0.514984
1209 4 0.101634 0.306278 0.604925
472 4 0.247082 0.25412 0.547958
435 4 0.344821 0.265364 0.528707
465 4 0.480958 0.246364 0.540455
464 2 0.503317 0.242246 0.568447
498 4 0.40268 0.363593 0.534651
497 2 0.43492 0.374594 0.546482
1120 4 0.408183 0.380997 0.617965
481 4 0.0267418 0.395298 0.516203
844 4 0.0254639 0.473748 0.56176
479 2 0.0185709 0.4221 0.538904
480 4 0.0104001 0.448902 0.561605
265 4 0.361321 0.460939 0.523776
286 4 0.364204 0.490568 0.524468
499 4 0.467161 0.385595 0.558313
1146 4 0.485978 0.365734 0.555466
789 4 0.489988 0.449641 0.613968
544 4 0.405305 0.40975 0.604884
543 4 0.463323 0.447681 0.624806
542 2 0.434314 0.428716 0.614845
897 4 0.988331 0.0118135 0.627423
1158 4 0.0870119 0.126023 0.641961
103 3 0.382632 0.0495751 0.631113
102 3 0.369312 0.102001 0.634656
101 1 0.394586 0.0808323 0.630941
105 3 0.415797 0.0848558 0.655695
446 2 0.436671 0.0751788 0.70729
448 4 0.457906 0.0568494 0.729951
47 3 0.475876 0.0365978 0.716962
46 1 0.488999 0.00916288 0.730221
447 4 0.415436 0.0935081 0.684628
450 4 0.40144 0.117965 0.686313
507 4 0.10825 0.119189 0.623281
1159 4 0.0242407 0.138151 0.675344
1157 2 0.0556263 0.132087 0.658653
493 4 0.208597 0.231 0.626373
506 2 0.134177 0.141163 0.635338
508 4 0.160105 0.163137 0.647395
558 4 0.183293 0.147545 0.654397
557 2 0.21906 0.143824 0.6517
582 4 0.184366 0.221967 0.719458
581 2 0.19945 0.227095 0.687107
583 4 0.214533 0.232224 0.654755
37 3 0.170243 0.207157 0.740354
549 4 0.27991 0.143148 0.633453
559 4 0.254828 0.140103 0.649004
430 4 0.404075 0.207429 0.650746
451 4 0.413986 0.187956 0.674248
449 2 0.407713 0.152961 0.68028
575 2 0.048175 0.298418 0.713939
577 4 0.0510065 0.322358 0.68712
1210 4 0.0588205 0.312432 0.662639
1208 2 0.0802272 0.309355 0.633782
576 4 0.0453435 0.274478 0.740759
441 4 0.247009 0.279897 0.746175
555 4 0.375073 0.343853 0.724976
522 4 0.372651 0.307915 0.676049
533 2 0.453636 0.25502 0.744653
1118 2 0.397055 0.356174 0.641638
1119 4 0.385927 0.33135 0.665311
521 2 0.402772 0.298531 0.693517
523 4 0.432892 0.289146 0.710985
535 4 0.429853 0.281648 0.739579
819 4 0.0160088 0.463386 0.739807
554 2 0.381057 0.377735 0.714173
556 4 0.38704 0.411616 0.70337
895 4 0.415268 0.418104 0.712527
893 2 0.441246 0.441857 0.720364
894 4 0.467224 0.465609 0.728201
580 4 0.112556 0.127374 0.852089
747 4 0.126726 0.0245535 0.870593
904 4 0.223726 0.0206787 0.743628
902 2 0.228383 0.0450065 0.769837
468 4 0.220058 0.0936591 0.873573
836 2 0.178346 0.0544062 0.866396
837 4 0.145072 0.0431152 0.858286
838 4 0.211621 0.0656971 0.874505
903 4 0.23304 0.0693343 0.796046
501 4 0.385246 0.098917 0.789123
874 4 0.266801 0.0266652 0.844636
834 4 0.31819 0.014073 0.786179
49 3 0.500275 0.0163056 0.76091
112 3 0.423053 0.0100713 0.865631
1233 4 0.444438 0.0257633 0.876411
462 4 0.103482 0.212141 0.789783
461 2 0.0794269 0.235795 0.777044
420 4 0.138515 0.138226 0.856427
40 3 0.129718 0.214379 0.775038
419 2 0.160179 0.156439 0.83408
421 4 0.181843 0.174652 0.811733
38 3 0.167427 0.176607 0.785044
36 1 0.161623 0.207039 0.772391
39 3 0.17997 0.229846 0.788614
442 4 0.208522 0.228812 0.779505
500 2 0.364624 0.128277 0.792751
504 4 0.329638 0.179775 0.814069
502 4 0.344002 0.157637 0.796379
503 2 0.344085 0.211282 0.804118
505 4 0.358532 0.24279 0.794168
534 4 0.477419 0.228392 0.749727
321 4 0.409117 0.187123 0.875773
320 2 0.392546 0.218676 0.870269
463 4 0.0553714 0.259448 0.764305
1040 2 0.00745902 0.334265 0.797693
1042 4 0.0290959 0.314478 0.818688
440 2 0.227766 0.254354 0.76284
439 4 0.306498 0.326968 0.864007
437 2 0.303135 0.350104 0.83655
520 4 0.332992 0.316846 0.861876
518 2 0.350107 0.28831 0.875776
818 2 0.0467165 0.463645 0.758712
547 4 0.0703511 0.458627 0.804423
545 2 0.064488 0.448873 0.838642
820 4 0.0774241 0.463903 0.777618
546 4 0.0586249 0.439119 0.872861
517 4 0.272168 0.480522 0.758232
526 4 0.283941 0.457258 0.770514
525 4 0.314746 0.397314 0.796195
524 2 0.299344 0.427286 0.783355
438 4 0.299771 0.373239 0.809093
1581 4 0.0421082 0.0301578 0.921837
748 4 0.0715124 0.0325876 0.916295
746 2 0.0991193 0.0285706 0.893444
1580 2 0.0382275 0.00813793 0.95013
467 2 0.217844 0.109374 0.905955
469 4 0.21563 0.125089 0.938336
872 2 0.276449 0.012858 0.876522
573 4 0.350782 0.115501 0.892452
64 3 0.27112 0.114501 0.95439
572 2 0.321082 0.116101 0.912897
574 4 0.291382 0.116702 0.933342
59 3 0.403872 0.131543 0.853073
1232 2 0.466086 0.0522009 0.887938
509 2 0.382224 0.108669 0.962636
511 4 0.379651 0.0998898 0.997517
1234 4 0.487733 0.0786385 0.899464
83 3 0.427973 0.0112844 0.925571
510 4 0.384798 0.117449 0.927754
552 4 0.0508533 0.155555 0.915415
579 4 0.0518309 0.146531 0.885959
551 2 0.0214267 0.167229 0.932685
578 2 0.0821935 0.136953 0.869024
488 2 0.234622 0.240697 0.906232
63 3 0.229501 0.149124 0.945811
57 3 0.361809 0.142705 0.885393
489 4 0.247932 0.209581 0.918684
61 1 0.258718 0.144752 0.961533
62 3 0.280098 0.167856 0.951057
65 3 0.254551 0.147781 0.993973
270 4 0.308005 0.169407 0.950437
269 2 0.313973 0.203958 0.958865
271 4 0.319942 0.238509 0.967293
322 4 0.375976 0.250228 0.864766
163 3 0.486845 0.181651 0.975066
60 3 0.409317 0.166356 0.894392
56 1 0.394724 0.138654 0.884469
58 3 0.403094 0.113424 0.9048
165 3 0.485413 0.226942 0.945142
531 4 0.478451 0.154625 0.976607
307 4 0.465877 0.240706 0.928218
273 4 0.373021 0.160507 0.985531
312 4 0.116501 0.273395 0.991122
490 4 0.221313 0.271813 0.893779
565 4 0.214902 0.289946 0.920207
564 4 0.153344 0.327518 0.920956
563 2 0.184123 0.308732 0.920582
519 4 0.367222 0.259774 0.889677
305 2 0.451917 0.27393 0.92955
306 4 0.437957 0.307153 0.930881
482 2 0.418947 0.362707 0.955106
484 4 0.427295 0.329798 0.942953
458 2 0.0874707 0.460447 0.951308
460 4 0.11265 0.479483 0.93387
496 4 0.0419343 0.421683 0.965812
459 4 0.0622914 0.441411 0.968745
44 3 0.360403 0.449177 0.999266
483 4 0.410598 0.395617 0.96726
41 1 0.38505 0.42654 0.999024
45 3 0.384109 0.409247 0.971115
207 3 0.462179 0.486986 0.917052
810 4 0.142872 0.573172 0.0855614
809 2 0.131738 0.53935 0.0798599
514 4 0.134878 0.597607 0.0992752
811 4 0.120604 0.505527 0.0741584
67 3 0.328789 0.562542 0.0849768
292 4 0.352371 0.550736 0.0779154
290 2 0.355726 0.537105 0.0446983
291 4 0.359081 0.523474 0.0114811
70 3 0.288385 0.594164 0.101255
66 1 0.307837 0.56913 0.109843
68 3 0.289373 0.541892 0.115935
251 2 0.504505 0.526142 0.0149936
253 4 0.508783 0.534724 0.049757
512 2 0.122115 0.628434 0.0855917
513 4 0.109351 0.659261 0.0719083
752 2 0.476487 0.62443 0.122759
754 4 0.469129 0.651391 0.0999686
77 3 0.449155 0.666967 0.0873782
80 3 0.410079 0.670268 0.0505056
79 3 0.411425 0.705651 0.0916773
76 1 0.417125 0.674016 0.082367
78 3 0.398459 0.653166 0.100719
740 2 0.0643946 0.844407 0.0803743
742 4 0.0536166 0.877098 0.0696245
741 4 0.0751725 0.811716 0.0911241
640 4 0.194541 0.763407 0.024955
638 2 0.176134 0.759019 0.0556527
639 4 0.157726 0.754632 0.0863505
699 4 0.231881 0.7922 0.114775
698 2 0.234349 0.822796 0.133703
1306 4 0.996152 0.898781 0.140316
73 3 0.0581462 0.87977 0.040269
71 1 0.045625 0.90008 0.0168027
1261 4 0.00630016 0.929389 0.0493914
75 3 0.0244638 0.921206 0.0303955
74 3 0.0704033 0.916817 0.00177411
72 3 0.029754 0.881777 0.994135
658 4 0.495798 0.951023 0.124641
656 2 0.497889 0.975916 0.0986329
229 3 0.469301 0.989756 0.0134983
1273 4 0.495183 0.887301 0.0746713
585 4 0.16125 0.633279 0.226447
353 2 0.262952 0.506547 0.121819
354 4 0.290393 0.516319 0.10056
69 3 0.32555 0.577245 0.137052
733 4 0.33097 0.605535 0.137531
254 2 0.344398 0.60945 0.226482
731 2 0.361455 0.624265 0.133026
256 4 0.349095 0.573833 0.229612
670 4 0.363062 0.55112 0.241633
753 4 0.483844 0.597469 0.14555
762 4 0.457474 0.589095 0.152471
761 2 0.438532 0.587083 0.183091
763 4 0.41959 0.585071 0.213711
89 3 0.104911 0.684472 0.195498
735 4 0.0938297 0.700026 0.217642
734 2 0.0754024 0.719257 0.241954
88 3 0.126189 0.642241 0.167781
584 2 0.160315 0.627252 0.261989
86 1 0.133029 0.667858 0.188199
87 3 0.146075 0.655988 0.216299
90 3 0.154624 0.688092 0.173947
694 4 0.165823 0.706523 0.155565
692 2 0.180774 0.73929 0.157372
255 4 0.339701 0.645067 0.223351
622 4 0.255799 0.714121 0.170149
630 4 0.270996 0.690233 0.173809
723 4 0.338391 0.674965 0.224476
629 2 0.264059 0.683868 0.20862
620 2 0.271784 0.745695 0.16322
708 4 0.377343 0.711217 0.199713
732 4 0.391939 0.642995 0.12852
707 2 0.397541 0.739134 0.210349
615 4 0.0916292 0.874967 0.150992
1311 4 0.0634009 0.816563 0.166564
1310 2 0.0305094 0.80581 0.176711
1312 4 0.997618 0.795058 0.186859
614 2 0.118403 0.852357 0.142484
616 4 0.145177 0.829747 0.133976
700 4 0.236817 0.853392 0.15263
693 4 0.195725 0.772056 0.159178
621 4 0.28777 0.777268 0.156291
704 2 0.3535 0.821302 0.226335
706 4 0.369182 0.816231 0.19426
702 4 0.360137 0.839992 0.176496
701 2 0.33864 0.861595 0.157219
603 4 0.442789 0.766652 0.232825
709 4 0.417739 0.767051 0.220986
602 2 0.446815 0.800022 0.245889
1304 2 0.0158833 0.916559 0.164711
1305 4 0.0356144 0.934336 0.189105
646 4 0.0178039 0.957428 0.194696
644 2 0.0325758 0.972146 0.224117
673 4 0.194927 0.955575 0.146862
671 2 0.188537 0.986478 0.12941
711 4 0.279337 0.977874 0.222863
715 4 0.291917 0.88693 0.149417
714 4 0.257318 0.942787 0.119673
703 4 0.317143 0.883199 0.137942
713 2 0.274618 0.914858 0.134545
25 3 0.377151 0.926827 0.222771
22 3 0.339655 0.890919 0.208559
21 1 0.351391 0.909465 0.233439
23 3 0.32722 0.93013 0.243862
1418 2 0.478707 0.934804 0.168401
1420 4 0.46877 0.951445 0.137991
1419 4 0.488645 0.918164 0.198812
388 4 0.0912172 0.514006 0.370069
643 4 0.0920222 0.541902 0.371155
300 4 0.165305 0.523569 0.322392
650 2 0.182433 0.568732 0.312777
651 4 0.190864 0.533677 0.312062
652 4 0.174002 0.603787 0.313491
729 4 0.220627 0.600113 0.349826
669 4 0.404134 0.538461 0.299552
668 2 0.383598 0.54479 0.270593
736 4 0.0569751 0.738487 0.266265
586 4 0.15938 0.621226 0.297532
728 2 0.246205 0.625511 0.350903
631 4 0.257121 0.677504 0.243431
655 4 0.216366 0.728425 0.301892
722 2 0.344111 0.688003 0.257609
730 4 0.271783 0.650908 0.35198
610 4 0.279943 0.675358 0.338844
724 4 0.34983 0.701041 0.290741
676 4 0.336483 0.682355 0.309389
608 2 0.28236 0.699311 0.365693
674 2 0.346075 0.659116 0.335242
675 4 0.355668 0.635876 0.361095
625 4 0.489736 0.735102 0.322801
1444 4 0.46474 0.722428 0.324593
1442 2 0.459752 0.696256 0.348895
597 4 0.116844 0.777606 0.255589
598 4 0.127736 0.809904 0.31915
596 2 0.12229 0.793755 0.287369
654 4 0.236158 0.787791 0.337748
766 4 0.242766 0.81588 0.331334
653 2 0.226262 0.758108 0.31982
764 2 0.261943 0.846411 0.330581
765 4 0.28112 0.876941 0.329828
705 4 0.337818 0.826373 0.25841
604 4 0.45084 0.833393 0.258952
624 4 0.480447 0.806615 0.321597
1353 4 0.480115 0.831929 0.336959
1352 2 0.45287 0.855183 0.341126
623 2 0.485091 0.770858 0.322199
93 3 0.023461 0.879246 0.356745
645 4 0.0473477 0.986864 0.253538
667 4 0.0396564 0.99134 0.282344
665 2 0.03054 0.0108323 0.311281
24 3 0.360772 0.889317 0.258459
601 4 0.309647 0.940375 0.264909
599 2 0.291737 0.920309 0.288931
600 4 0.273827 0.900243 0.312952
1354 4 0.425625 0.878438 0.345293
682 4 0.413673 0.870773 0.320927
681 4 0.370625 0.909319 0.277766
680 2 0.392149 0.890046 0.299346
975 4 0.0373383 0.495804 0.442036
974 2 0.036485 0.531853 0.44159
619 4 0.0387115 0.598035 0.445064
641 2 0.114268 0.554387 0.396644
976 4 0.0356317 0.567902 0.441144
642 4 0.136513 0.566873 0.422133
617 2 0.0694417 0.607069 0.461632
720 4 0.247491 0.550034 0.454417
660 4 0.261342 0.566486 0.475858
659 2 0.28821 0.580562 0.495363
719 2 0.255494 0.515005 0.451359
473 2 0.360087 0.616083 0.475289
1334 2 0.498366 0.533597 0.382649
1335 4 0.472179 0.558158 0.379275
618 4 0.100172 0.616102 0.478199
915 4 0.123769 0.611754 0.46298
914 2 0.147042 0.634214 0.478928
875 2 0.228627 0.653843 0.485492
916 4 0.170315 0.656674 0.494876
876 4 0.193607 0.658898 0.478531
609 4 0.284776 0.723263 0.392542
595 4 0.271917 0.746972 0.385915
474 4 0.382361 0.625913 0.448687
1391 2 0.433887 0.646651 0.418107
1443 4 0.454764 0.670083 0.373196
1392 4 0.460242 0.665082 0.401792
1393 4 0.407533 0.62822 0.434422
773 2 0.102408 0.813984 0.463955
775 4 0.0948289 0.848688 0.457737
774 4 0.109988 0.779281 0.470173
1371 4 0.0925104 0.861918 0.433344
593 2 0.281725 0.765903 0.414999
594 4 0.291534 0.784834 0.444082
687 4 0.268991 0.79143 0.4621
686 2 0.282709 0.794522 0.495307
918 4 0.474753 0.849881 0.459839
1512 4 0.456348 0.864638 0.442846
1370 2 0.0862381 0.897258 0.436842
1372 4 0.0799657 0.932597 0.44034
647 2 0.336685 0.926848 0.451842
648 4 0.30333 0.939294 0.446094
727 4 0.300164 0.964736 0.432625
725 2 0.281718 0.989184 0.413587
1511 2 0.424046 0.880471 0.445369
1513 4 0.391744 0.896304 0.447892
649 4 0.370039 0.914403 0.45759
803 2 0.100461 0.562729 0.537064
843 4 0.0482655 0.531083 0.524418
892 4 0.116157 0.577335 0.626721
842 2 0.0368647 0.502416 0.543089
805 4 0.0678401 0.547377 0.537866
804 4 0.133082 0.57808 0.536262
567 4 0.137315 0.59096 0.561776
566 2 0.132689 0.620221 0.582339
661 4 0.315078 0.594638 0.514867
475 4 0.337813 0.606253 0.501891
284 2 0.372308 0.505838 0.556116
285 4 0.380412 0.521108 0.587764
880 4 0.0755185 0.712511 0.589228
878 2 0.106342 0.694446 0.59413
568 4 0.128064 0.649483 0.602902
879 4 0.137165 0.676381 0.599033
769 4 0.146732 0.70968 0.527274
767 2 0.129763 0.737615 0.512038
899 2 0.300892 0.666708 0.511824
901 4 0.330733 0.685207 0.503598
1567 4 0.350104 0.701436 0.516668
877 4 0.263648 0.648788 0.492453
900 4 0.27105 0.648208 0.520051
1565 2 0.385675 0.700015 0.522423
885 4 0.438786 0.692885 0.550581
1566 4 0.421246 0.698594 0.528178
884 2 0.464386 0.708668 0.530682
886 4 0.489987 0.72445 0.510783
768 4 0.112794 0.76555 0.496802
688 4 0.296427 0.797615 0.528513
685 4 0.314518 0.77598 0.535659
683 2 0.349679 0.775359 0.543645
684 4 0.38484 0.774739 0.551631
1452 4 0.443107 0.841034 0.600888
1451 2 0.449616 0.86711 0.576844
776 2 0.226452 0.958436 0.520065
778 4 0.200493 0.982532 0.526841
777 4 0.252411 0.934339 0.513288
119 3 0.321533 0.992681 0.621415
925 4 0.307613 0.915012 0.613858
118 3 0.323149 0.937895 0.620798
846 4 0.330094 0.98863 0.594529
1453 4 0.456125 0.893186 0.5528
238 3 0.485177 0.896032 0.552434
891 4 0.057316 0.594473 0.664743
890 2 0.0867367 0.585904 0.645732
793 4 0.0446585 0.577251 0.683755
791 2 0.0256176 0.605765 0.69493
787 4 0.291124 0.582053 0.685537
785 2 0.316821 0.585309 0.710628
786 4 0.342517 0.588564 0.735719
792 4 0.00657674 0.634278 0.706104
864 4 0.00534102 0.70653 0.683165
863 2 0.0306534 0.72984 0.693951
865 4 0.0559658 0.753151 0.704738
855 4 0.0748597 0.742677 0.685806
225 3 0.0104864 0.675673 0.745246
223 3 0.994252 0.682703 0.693904
854 2 0.108673 0.750856 0.695302
856 4 0.142487 0.759035 0.704798
923 2 0.301345 0.880056 0.620119
924 4 0.295077 0.8451 0.62638
795 4 0.359726 0.865936 0.70773
110 3 0.339829 0.85936 0.725644
794 2 0.369413 0.839913 0.684722
796 4 0.3791 0.813889 0.661714
898 4 0.0434535 0.968034 0.643127
896 2 0.0158922 0.989924 0.635275
536 2 0.101338 0.989568 0.658149
538 4 0.0715853 0.975822 0.643107
561 4 0.15232 0.991882 0.685255
537 4 0.131091 0.00331329 0.673191
560 2 0.179195 0.995503 0.709026
562 4 0.20607 0.999123 0.732797
117 3 0.27893 0.963812 0.638446
116 1 0.312073 0.964803 0.637328
120 3 0.323935 0.964808 0.667957
50 3 0.465919 0.985854 0.731906
516 4 0.223783 0.533357 0.766542
423 4 0.221421 0.560073 0.778778
422 2 0.214683 0.570337 0.812686
424 4 0.207946 0.580601 0.846593
738 4 0.222944 0.582887 0.871415
515 2 0.247976 0.506939 0.762387
823 4 0.360517 0.605241 0.750221
906 4 0.447857 0.601021 0.861105
821 2 0.389817 0.620443 0.764743
100 3 0.445426 0.622587 0.841581
1515 4 0.00636076 0.7329 0.814933
814 4 0.026401 0.732257 0.791854
772 4 0.266556 0.743509 0.82171
770 2 0.247752 0.73862 0.85209
867 4 0.291466 0.751927 0.810074
800 2 0.460449 0.730911 0.819919
822 4 0.419117 0.635645 0.779264
99 3 0.409506 0.661118 0.854773
97 3 0.422065 0.651796 0.802871
98 3 0.458884 0.674822 0.835316
96 1 0.434079 0.652409 0.83379
802 4 0.451446 0.702974 0.84087
801 4 0.469451 0.758848 0.798968
1594 4 0.0313363 0.828504 0.805572
812 2 0.0482834 0.760614 0.787674
831 4 0.0214995 0.829663 0.776401
813 4 0.0701659 0.788971 0.783494
852 4 0.0974 0.799891 0.793892
1592 2 0.0237385 0.838956 0.839239
851 2 0.126197 0.794856 0.815007
830 2 0.00518096 0.857869 0.760955
1593 4 0.0161406 0.849408 0.872906
870 4 0.236708 0.803146 0.78505
853 4 0.154993 0.789821 0.836122
910 4 0.137551 0.881102 0.783221
783 4 0.173522 0.801973 0.850953
869 2 0.255344 0.829203 0.768492
871 4 0.27398 0.85526 0.751933
108 3 0.301309 0.85964 0.76392
106 1 0.333568 0.853607 0.75737
107 3 0.340139 0.821816 0.764215
868 4 0.334979 0.795394 0.772404
866 2 0.313223 0.773661 0.791239
109 3 0.352944 0.873028 0.776536
908 2 0.157159 0.888301 0.812618
909 4 0.176767 0.8955 0.842014
799 4 0.198715 0.910341 0.852507
797 2 0.208601 0.94407 0.860573
798 4 0.218486 0.977799 0.86864
835 4 0.366922 0.974803 0.822024
833 2 0.342556 0.994438 0.804101
1574 2 0.494506 0.875077 0.864471
921 4 0.415637 0.934888 0.84721
115 3 0.394611 0.987326 0.825994
111 1 0.40933 0.981858 0.854843
113 3 0.433349 0.958837 0.851225
920 2 0.417364 0.901851 0.861564
432 4 0.121951 0.506071 0.923238
739 4 0.172157 0.578782 0.92246
737 2 0.197551 0.580835 0.896938
431 2 0.140085 0.535256 0.934185
433 4 0.158218 0.564442 0.945131
210 3 0.498952 0.52246 0.900119
905 2 0.439222 0.571868 0.880496
209 3 0.489125 0.517022 0.953249
252 4 0.500228 0.51756 0.98023
907 4 0.430588 0.542716 0.899887
208 3 0.451769 0.540078 0.920424
206 1 0.475689 0.516775 0.9226
662 2 0.0396506 0.709245 0.998535
664 4 0.0643806 0.683431 0.993797
913 4 0.0106653 0.746685 0.976405
829 4 0.245703 0.711682 0.890353
771 4 0.228948 0.73373 0.88247
828 4 0.282027 0.663474 0.929828
827 2 0.263865 0.687578 0.91009
628 4 0.286816 0.647126 0.957583
626 2 0.309363 0.666162 0.978312
806 2 0.353904 0.74 0.986427
627 4 0.33191 0.685198 0.999041
808 4 0.33043 0.713297 0.992458
862 4 0.416715 0.676441 0.877336
860 2 0.424807 0.708318 0.892128
861 4 0.432899 0.740195 0.90692
807 4 0.377379 0.766702 0.980395
663 4 0.0149205 0.73506 0.00327328
606 4 0.204064 0.761652 0.936303
605 2 0.199274 0.751832 0.97067
784 4 0.206497 0.7789 0.910804
782 2 0.190009 0.790437 0.880878
607 4 0.194484 0.742013 0.00503689
1575 4 0.479988 0.844188 0.876113
849 4 0.462134 0.824452 0.863564
848 2 0.457688 0.791842 0.878303
922 4 0.419092 0.868815 0.875919
850 4 0.453243 0.759231 0.893041
1499 2 0.00167371 0.937074 0.951986
1500 4 0.019736 0.966134 0.963375
1582 4 0.0343469 0.986118 0.978423
613 4 0.313215 0.99422 0.910236
873 4 0.286098 0.999051 0.908408
611 2 0.345536 0.995806 0.926152
226 1 0.492515 0.983648 0.99018
612 4 0.377856 0.997392 0.942068
230 3 0.478179 0.979407 0.960935
82 3 0.414302 0.959076 0.920485
85 3 0.448015 0.974079 0.959673
81 1 0.421617 0.982995 0.942281
114 3 0.386845 0.971468 0.877346
84 3 0.395459 0.987408 0.962683
1073 2 0.561693 0.0825624 0.00139455
532 4 0.524554 0.115078 0.0154954
657 4 0.499981 0.000807781 0.0726244
1006 4 0.621691 0.0734076 0.123052
1074 4 0.535937 0.0912084 0.0251078
1004 2 0.637635 0.051114 0.0996167
1005 4 0.65358 0.0288204 0.0761816
936 4 0.65354 0.00687425 0.057336
1162 4 0.679086 0.0984987 0.0119898
1244 2 0.703634 0.0384943 0.00574318
1246 4 0.693808 0.0731045 0.00819586
1245 4 0.713461 0.00388403 0.00329051
969 4 0.871323 0.12276 0.0616655
1243 4 0.882767 0.102007 0.0780111
1241 2 0.909427 0.0791187 0.0698976
1242 4 0.936087 0.0562307 0.0617841
1029 4 0.945376 0.0273073 0.066684
1028 2 0.968034 0.00902193 0.0454068
968 2 0.872319 0.15869 0.0587565
970 4 0.873316 0.19462 0.0558474
1053 4 0.879678 0.212242 0.0320561
1007 2 0.993091 0.238592 0.0536548
1009 4 0.958069 0.234032 0.0463649
457 4 0.940094 0.185649 0.0117302
1052 2 0.895229 0.24309 0.0424029
1054 4 0.910779 0.273937 0.0527497
972 4 0.911118 0.361602 0.076965
981 4 0.897647 0.358736 0.101024
980 2 0.922157 0.352157 0.126644
1062 4 0.607388 0.39826 0.104562
1061 2 0.621337 0.405641 0.0721368
124 3 0.620677 0.382057 0.124116
1063 4 0.635287 0.413021 0.0397118
994 4 0.64627 0.421142 0.0143573
1471 4 0.646189 0.478684 0.0253403
1046 2 0.804882 0.463515 0.0939768
588 4 0.815451 0.482407 0.041409
1048 4 0.818795 0.46287 0.0607131
971 2 0.925122 0.372887 0.0457087
973 4 0.939126 0.384173 0.0144524
1069 4 0.906545 0.485798 0.0622554
303 4 0.912844 0.467446 0.0410435
302 2 0.947346 0.460673 0.0330341
304 4 0.981849 0.4539 0.0250247
495 4 0.00678268 0.440298 0.0259756
1001 2 0.607414 0.106334 0.244319
1057 4 0.506092 0.0223864 0.229532
1081 4 0.50598 0.0504675 0.235279
412 4 0.573981 0.116418 0.176855
410 2 0.540154 0.123114 0.187406
1003 4 0.628709 0.117088 0.217276
988 4 0.612192 0.100044 0.131585
986 2 0.615702 0.116713 0.16337
987 4 0.619213 0.133382 0.195155
1078 4 0.758906 0.0169239 0.235371
1010 2 0.748304 0.100286 0.247692
1043 2 0.826927 0.0975199 0.241002
1012 4 0.77297 0.0865505 0.225256
1045 4 0.862702 0.09601 0.236718
1345 4 0.925926 0.022576 0.245218
1409 2 0.917095 0.0718739 0.250872
1411 4 0.94422 0.0486211 0.255769
999 4 0.495018 0.14337 0.22233
411 4 0.506326 0.12981 0.197956
967 4 0.742123 0.220777 0.177033
1011 4 0.723639 0.114022 0.270128
125 3 0.605018 0.330722 0.132388
121 1 0.62333 0.355346 0.144102
1059 4 0.609703 0.352093 0.200843
961 4 0.616997 0.311123 0.254223
945 4 0.673574 0.338499 0.165165
946 4 0.735872 0.307104 0.146858
122 3 0.655093 0.34582 0.145112
944 2 0.704723 0.322801 0.156012
1015 4 0.733538 0.350151 0.251847
1071 4 0.634558 0.333599 0.250819
966 4 0.753886 0.290483 0.162734
965 2 0.748004 0.25563 0.169883
1064 2 0.966624 0.334855 0.198132
982 4 0.946667 0.345578 0.152264
1065 4 0.956438 0.359682 0.174043
1066 4 0.97681 0.310027 0.222221
951 4 0.61858 0.494388 0.194487
123 3 0.613406 0.363222 0.175077
1058 2 0.610216 0.381845 0.221215
950 2 0.610439 0.4669 0.216364
952 4 0.602297 0.439412 0.238241
1060 4 0.61073 0.411596 0.241588
1294 4 0.64675 0.485455 0.188607
1050 4 0.783551 0.484737 0.21697
1049 2 0.794084 0.481643 0.18262
1047 4 0.79097 0.46416 0.127241
1051 4 0.804617 0.478549 0.148269
283 4 0.893902 0.476138 0.246074
394 4 0.920669 0.464471 0.247248
1002 4 0.586119 0.0955806 0.271362
1080 4 0.567953 0.0770005 0.260915
1296 4 0.528282 0.0206957 0.352687
137 3 0.509291 0.0999628 0.358937
138 3 0.517905 0.046562 0.36249
136 1 0.526356 0.076448 0.374954
1079 2 0.536966 0.063734 0.248097
139 3 0.559072 0.0818647 0.370457
1026 4 0.586505 0.093373 0.36838
1044 4 0.791153 0.0990299 0.245287