ITEM: TIMESTEP
4380000
ITEM: NUMBER OF ATOMS
4800
ITEM: BOX BOUNDS pp pp pp
-9.9985700000000008e+00 9.9985700000000008e+00
-9.9985700000000008e+00 9.9985700000000008e+00
-9.9985700000000008e+00 9.9985700000000008e+00
ITEM: ATOMS id type xs ys zs
44 3 0.0168587 0.0519586 0.054851
43 3 0.0244949 0.0297704 0.0249548
3590 4 0.0445518 0.0307416 0.0276572
45 3 0.0202718 0.0147157 0.0592064
41 1 0.0131922 0.0311926 0.0451694
3589 2 0.055377 0.00958837 0.0198768
2144 4 0.00791917 0.0570593 0.0704497
1716 4 0.0817034 0.0596992 0.0536055
1127 4 0.157795 0.0751409 0.0387543
1126 2 0.13368 0.0794843 0.0337791
1714 2 0.0812844 0.0752256 0.0731998
1185 4 0.168974 0.0682301 0.053608
818 4 0.234822 0.0587413 0.0423078
1184 4 0.217019 0.0680191 0.0397417
1183 2 0.192996 0.0681246 0.0466749
643 3 0.245904 0.00416481 0.0585276
817 2 0.247269 0.0390958 0.05149
819 4 0.259715 0.0194502 0.0606723
1669 2 0.0505044 0.143383 0.0257203
1671 4 0.0647616 0.132174 0.0429325
1490 4 0.00290009 0.124907 0.0456451
1670 4 0.0362471 0.154593 0.00850818
1128 4 0.109564 0.0838278 0.0288038
296 1 0.163904 0.15162 0.999947
3537 4 0.10328 0.0941533 0.0121371
1348 2 0.219725 0.121643 0.0178698
1350 4 0.197325 0.121111 0.0289658
1328 4 0.191691 0.140275 0.0321394
1327 2 0.182428 0.145111 0.054855
298 3 0.180346 0.146034 0.0153359
1329 4 0.173165 0.149948 0.0775705
1349 4 0.242125 0.122176 0.00677377
852 4 0.262845 0.119109 0.00212735
850 2 0.272178 0.136017 0.0180077
851 4 0.281511 0.152925 0.033888
905 4 0.380165 0.162061 0.0804212
3461 4 0.439624 0.102382 0.026928
3460 2 0.426345 0.11587 0.0432661
3462 4 0.413067 0.129359 0.0596042
1556 4 0.025665 0.219829 0.0284823
3312 4 0.0391052 0.225241 0.0154438
1555 2 0.00510202 0.206447 0.0236585
300 3 0.154015 0.171246 0.00591958
1149 4 0.13799 0.184663 0.00625999
865 2 0.125454 0.247126 0.0504132
867 4 0.120403 0.239188 0.0272476
2740 2 0.178973 0.238749 0.00600917
2742 4 0.191719 0.23934 0.027512
800 4 0.29366 0.168797 0.0388364
799 2 0.30068 0.178552 0.0607624
906 4 0.370181 0.2099 0.0698161
904 2 0.375173 0.185981 0.0751187
3310 2 0.0402883 0.246881 0.027913
3311 4 0.0414713 0.268522 0.0403822
3642 4 0.0394828 0.285315 0.0290053
3640 2 0.0479684 0.304776 0.0422117
3641 4 0.0564539 0.324238 0.0554181
866 4 0.130504 0.255065 0.0735787
939 4 0.100088 0.298366 0.0788143
1406 4 0.190327 0.252242 0.0428592
1405 2 0.19654 0.272163 0.0566325
1407 4 0.202753 0.292085 0.0704058
777 4 0.194958 0.3083 0.0797902
879 4 0.315003 0.310614 0.0139797
877 2 0.298442 0.325876 0.00311778
1117 2 0.353377 0.321234 0.0446469
1011 4 0.343721 0.311038 0.0734368
1118 4 0.350712 0.316241 0.0202923
1119 4 0.356042 0.326227 0.0690015
2060 4 0.466661 0.299039 0.0481709
1709 4 0.447715 0.296679 0.0454046
1708 2 0.4371 0.31688 0.0351858
2059 2 0.478381 0.28374 0.0641011
1241 4 0.471253 0.261398 0.083825
2061 4 0.490101 0.268441 0.0800314
2054 4 0.0610093 0.341587 0.0468391
2053 2 0.0505225 0.36178 0.0572044
1087 2 0.0167969 0.407135 0.050536
2055 4 0.0400358 0.381974 0.0675697
1088 4 0.0293175 0.385508 0.0497159
775 2 0.203387 0.33071 0.0725825
4105 2 0.207801 0.378543 0.0334531
4106 4 0.221313 0.36447 0.0490909
776 4 0.211816 0.353119 0.0653749
4107 4 0.194289 0.392617 0.0178153
1710 4 0.426486 0.337081 0.024967
3273 4 0.432392 0.390488 0.0673986
1034 4 0.429272 0.395474 0.0476861
674 3 0.039032 0.451664 0.0408198
671 1 0.025978 0.460534 0.0578289
672 3 0.0210499 0.482428 0.0527735
1089 4 0.00427633 0.428763 0.0513562
673 3 0.00615584 0.44861 0.0596412
2079 4 0.0192113 0.49599 0.0678109
675 3 0.0373402 0.459765 0.0775509
788 4 0.246613 0.469815 0.0347175
1912 2 0.256243 0.492903 0.0654521
787 2 0.252097 0.45447 0.0157533
1913 4 0.260622 0.479142 0.0450403
1035 4 0.405008 0.435833 0.0308609
14 3 0.34925 0.471983 0.0814901
4213 2 0.411597 0.458978 0.00734186
4215 4 0.419202 0.437124 0.0168156
1033 2 0.41714 0.415654 0.0392735
3266 4 0.466245 0.483382 0.0757225
3265 2 0.443054 0.475023 0.0799019
1438 2 0.0765691 0.0405939 0.12091
1439 4 0.0518553 0.042015 0.12443
1163 4 0.0329477 0.0393548 0.116438
1162 2 0.0138621 0.050916 0.127719
1440 4 0.101283 0.0391729 0.117391
1456 2 0.157746 0.0354063 0.101737
1457 4 0.138433 0.0258492 0.11442
1458 4 0.177059 0.0449634 0.0890545
771 4 0.248411 0.0724317 0.157787
769 2 0.271815 0.0801735 0.161969
1595 4 0.400514 0.0139998 0.162844
1594 2 0.392397 0.00764174 0.140065
1596 4 0.38428 0.0012837 0.117286
803 4 0.0675245 0.158573 0.111188
983 4 0.0568834 0.141755 0.117782
982 2 0.070312 0.121065 0.113687
1715 4 0.0808654 0.090752 0.092794
984 4 0.0837406 0.100374 0.109593
1030 2 0.148716 0.15245 0.108786
1031 4 0.130599 0.162997 0.122413
1032 4 0.166834 0.141903 0.0951596
1209 4 0.368211 0.15084 0.0900249
1208 4 0.401184 0.122559 0.114799
1207 2 0.384698 0.136699 0.102412
3300 4 0.403072 0.126862 0.133532
3206 4 0.463353 0.137651 0.153576
3298 2 0.423699 0.132334 0.146562
3299 4 0.444325 0.137806 0.159592
3205 2 0.47613 0.116236 0.155394
3207 4 0.488907 0.0948208 0.157213
802 2 0.054891 0.179899 0.114472
804 4 0.0422575 0.201225 0.117756
1220 4 0.230065 0.210503 0.0888759
1739 4 0.217894 0.185707 0.155144
927 4 0.21422 0.205179 0.157551
1219 2 0.247712 0.225019 0.0990273
801 4 0.307699 0.188306 0.0826883
1221 4 0.265359 0.239535 0.109179
1151 4 0.304491 0.186504 0.102034
1150 2 0.308436 0.20857 0.113111
1152 4 0.312381 0.230636 0.124189
1083 4 0.315647 0.247663 0.135405
69 3 0.398713 0.243352 0.163751
3599 4 0.418624 0.23598 0.163259
1242 4 0.469906 0.241021 0.129472
3600 4 0.465034 0.23056 0.145443
1240 2 0.470579 0.251209 0.106649
3598 2 0.441829 0.23327 0.154351
3294 4 0.476847 0.226938 0.161509
3292 2 0.498188 0.218875 0.151276
1373 4 0.117425 0.266148 0.0835964
1372 2 0.117107 0.263032 0.108403
1196 4 0.102154 0.279625 0.160675
1374 4 0.116789 0.259915 0.133209
937 2 0.118108 0.315213 0.082891
938 4 0.136129 0.332061 0.0869676
4224 4 0.114489 0.300447 0.131555
4222 2 0.109406 0.320045 0.146226
1081 2 0.335234 0.260221 0.14456
1009 2 0.349556 0.314296 0.097531
1082 4 0.354822 0.272779 0.153714
68 3 0.397571 0.272699 0.13963
1010 4 0.35539 0.317554 0.121625
2826 4 0.338368 0.322103 0.130829
66 1 0.392876 0.265668 0.161239
756 4 0.492637 0.310693 0.0977918
754 2 0.491003 0.306044 0.122305
755 4 0.48937 0.301396 0.146818
1676 4 0.490509 0.307108 0.166788
4223 4 0.104324 0.339643 0.160898
1992 4 0.147621 0.334599 0.103471
1990 2 0.156136 0.358018 0.101419
829 2 0.139159 0.383211 0.163459
1893 4 0.154878 0.351025 0.159574
1991 4 0.164652 0.381437 0.0993672
830 4 0.13325 0.405407 0.15358
963 4 0.309025 0.400955 0.0994697
2824 2 0.33849 0.335668 0.151833
3271 2 0.437476 0.388613 0.0918079
3272 4 0.44256 0.386738 0.116217
4077 4 0.09804 0.489618 0.159568
1784 4 0.192333 0.481817 0.116323
764 4 0.201969 0.469671 0.130311
1783 2 0.212906 0.490611 0.105161
763 2 0.200348 0.445699 0.137234
765 4 0.198726 0.421728 0.144157
1785 4 0.233478 0.499405 0.0939979
12 3 0.322671 0.492836 0.0979622
961 2 0.321534 0.420802 0.108119
1005 4 0.264581 0.470755 0.139001
1791 4 0.279204 0.459859 0.146795
1003 2 0.271803 0.491073 0.126343
962 4 0.334044 0.440648 0.116767
13 3 0.33225 0.459862 0.113247
15 3 0.355985 0.489069 0.114359
11 1 0.340193 0.478449 0.101851
4529 4 0.376712 0.488405 0.114613
4528 2 0.396102 0.496749 0.101213
1952 4 0.47984 0.491465 0.0883981
3267 4 0.419863 0.466664 0.0840813
1951 2 0.500629 0.494435 0.101969
1964 4 0.0612829 0.0224236 0.194779
1871 4 0.0439488 0.013629 0.201218
50 3 0.152477 0.998643 0.212542
46 1 0.131366 0.999692 0.221019
1963 2 0.085457 0.0166195 0.192114
49 3 0.129051 0.018668 0.234171
48 3 0.115901 0.000104544 0.203726
1965 4 0.109631 0.0108153 0.189449
1936 2 0.255713 0.0240819 0.239383
1937 4 0.267516 0.00693116 0.225537
2216 4 0.327557 0.0331844 0.216673
893 4 0.322214 0.0182087 0.205613
892 2 0.297493 0.0144886 0.206087
894 4 0.272772 0.0107686 0.206561
1247 4 0.414124 0.0117308 0.178537
2215 2 0.351013 0.041818 0.217359
2217 4 0.374468 0.0504517 0.218046
1248 4 0.385425 0.0353446 0.211996
1246 2 0.399775 0.0235377 0.195267
2967 4 0.465085 0.0576516 0.203234
4119 4 0.445633 0.0563073 0.209234
2965 2 0.479674 0.0721382 0.189004
4117 2 0.444191 0.0634606 0.233149
1062 4 0.170212 0.149404 0.241918
1740 4 0.212244 0.147364 0.186744
1060 2 0.185381 0.145471 0.222433
1061 4 0.200549 0.141538 0.202949
966 4 0.32876 0.133463 0.188828
964 2 0.310917 0.116161 0.186103
965 4 0.293073 0.0988587 0.183378
770 4 0.295219 0.0879152 0.16615
848 4 0.30831 0.148056 0.248727
2966 4 0.494263 0.0866248 0.174774
885 4 0.0433306 0.199469 0.221222
1250 4 0.0493824 0.189548 0.205547
1249 2 0.0574493 0.207276 0.189869
883 2 0.0343031 0.191844 0.243257
1251 4 0.0655162 0.225005 0.174191
1197 4 0.0768445 0.240978 0.179821
1738 2 0.215069 0.166535 0.170944
925 2 0.203582 0.222494 0.172118
900 4 0.181814 0.246195 0.202567
926 4 0.192944 0.239809 0.186686
1862 4 0.480528 0.228217 0.186719
882 4 0.0140997 0.266003 0.199333
1046 4 0.0466979 0.321848 0.197905
881 4 0.0291338 0.313551 0.195611
880 2 0.0216168 0.289777 0.197472
1045 2 0.0690305 0.316513 0.207803
1195 2 0.0894994 0.260301 0.170248
898 2 0.158985 0.255732 0.206181
899 4 0.136156 0.265269 0.209795
1854 4 0.124856 0.25857 0.225391
1852 2 0.107038 0.265625 0.241451
1047 4 0.091363 0.311178 0.217701
859 2 0.180943 0.316732 0.227021
860 4 0.189871 0.311564 0.204244
1892 4 0.17416 0.319971 0.193699
861 4 0.172016 0.3219 0.249797
70 3 0.370712 0.26845 0.165672
67 3 0.405199 0.278286 0.176007
1861 2 0.488668 0.248352 0.199109
418 3 0.489512 0.284811 0.218682
1863 4 0.496807 0.268486 0.2115
831 4 0.145068 0.361015 0.173339
1170 4 0.116094 0.404819 0.235017
1168 2 0.123078 0.381255 0.230417
1169 4 0.130061 0.357692 0.225817
1891 2 0.164519 0.335498 0.176637
2183 4 0.275683 0.407196 0.171988
2270 4 0.299922 0.371319 0.218883
2269 2 0.303257 0.354257 0.236853
2184 4 0.304201 0.376596 0.199394
2182 2 0.289942 0.391896 0.185691
2825 4 0.338612 0.349233 0.172836
1412 4 0.342134 0.362358 0.187048
1411 2 0.354683 0.383975 0.186382
969 4 0.383939 0.406795 0.195059
1413 4 0.367232 0.405591 0.185716
3866 4 0.00621115 0.484108 0.185602
603 3 0.0518323 0.44325 0.245269
3992 4 0.122385 0.42321 0.241119
3991 2 0.123724 0.433023 0.21816
3993 4 0.125063 0.442836 0.195202
4076 4 0.108621 0.453774 0.192794
4075 2 0.10333 0.471696 0.176181
1848 4 0.216048 0.440063 0.223731
1846 2 0.237617 0.430138 0.231572
1847 4 0.259185 0.420214 0.239414
1789 2 0.280121 0.441678 0.163936
1790 4 0.281038 0.423497 0.181076
967 2 0.390942 0.427886 0.206519
968 4 0.397944 0.448977 0.217979
53 3 0.409177 0.49222 0.232077
51 1 0.399876 0.488626 0.211125
55 3 0.393652 0.46682 0.209024
4013 4 0.465527 0.453835 0.241084
4012 2 0.485254 0.468525 0.245578
52 3 0.415574 0.493605 0.195066
1074 4 0.119134 0.0333671 0.299783
1072 2 0.143273 0.0272688 0.30208
243 3 0.181459 0.00745826 0.297103
1938 4 0.243909 0.0412327 0.253229
1097 4 0.245254 0.0573127 0.266707
1073 4 0.167413 0.0211705 0.304377
1096 2 0.246466 0.0797423 0.27769
2213 4 0.320041 0.0121033 0.294088
1827 4 0.291369 0.0727873 0.285352
1825 2 0.291857 0.0738777 0.310327
1826 4 0.292345 0.0749681 0.335302
2212 2 0.3441 0.00642874 0.29785
1788 4 0.410955 0.0287242 0.320674
3998 4 0.48228 0.0079579 0.258098
1786 2 0.432116 0.0382771 0.311392
1787 4 0.453276 0.0478301 0.302111
3999 4 0.451165 0.0375501 0.283727
3997 2 0.466722 0.022754 0.270913
4118 4 0.442748 0.0706138 0.257065
1110 4 0.0240043 0.166555 0.275415
1108 2 0.0216795 0.143856 0.285639
3195 4 0.00813838 0.109099 0.308059
1109 4 0.0193548 0.121157 0.295862
1884 4 0.154925 0.101619 0.300575
930 4 0.148301 0.115002 0.287118
928 2 0.150446 0.130925 0.26796
1882 2 0.155168 0.101866 0.325576
929 4 0.152591 0.146848 0.248802
1159 2 0.246283 0.124893 0.325007
1161 4 0.250734 0.10679 0.308343
1098 4 0.247677 0.102172 0.288673
847 2 0.329132 0.150035 0.262427
919 2 0.373728 0.149637 0.309639
921 4 0.352731 0.151514 0.296192
920 4 0.394724 0.14776 0.323085
849 4 0.349955 0.152014 0.276127
2940 4 0.444293 0.0853402 0.2716
2938 2 0.463257 0.0867296 0.287837
2939 4 0.482221 0.088119 0.304073
23 3 0.481606 0.0960858 0.323358
884 4 0.0252755 0.184219 0.265292
1205 4 0.416895 0.223646 0.324761
1204 2 0.424741 0.203462 0.312262
1206 4 0.432587 0.183279 0.299762
3144 4 0.485885 0.215499 0.327194
17 3 0.0573682 0.250603 0.277425
19 3 0.049321 0.283752 0.293206
16 1 0.0657656 0.271424 0.282435
20 3 0.0839033 0.269129 0.296015
18 3 0.0719291 0.281972 0.262708
1853 4 0.0892199 0.272679 0.257512
870 4 0.0975497 0.268661 0.311512
868 2 0.112853 0.288102 0.3079
869 4 0.128157 0.307542 0.304288
1029 4 0.147702 0.306499 0.300674
1027 2 0.164126 0.315325 0.284015
981 4 0.224453 0.277431 0.252314
1028 4 0.18055 0.324151 0.267356
979 2 0.230738 0.295185 0.26876
980 4 0.237023 0.312939 0.285206
792 4 0.251977 0.325601 0.285317
790 2 0.275355 0.324977 0.276471
791 4 0.298733 0.324354 0.267625
419 3 0.495715 0.285758 0.256166
2851 2 0.0578417 0.397636 0.30453
2853 4 0.0626497 0.373977 0.311033
1044 4 0.0662736 0.357679 0.321866
1042 2 0.0808559 0.347126 0.304512
1043 4 0.0954382 0.336572 0.287158
1038 4 0.194636 0.401969 0.316331
2271 4 0.306591 0.337195 0.254824
3512 4 0.433365 0.415102 0.304048
3511 2 0.443719 0.393543 0.31134
3513 4 0.454073 0.371984 0.318632
794 4 0.467937 0.381517 0.329544
793 2 0.490794 0.371672 0.331949
2185 2 0.0571948 0.493232 0.262464
604 3 0.0814502 0.421862 0.255744
2852 4 0.0530338 0.421296 0.298027
601 1 0.0642528 0.4355 0.263271
605 3 0.0508297 0.423908 0.277557
602 3 0.0733399 0.453503 0.274337
2187 4 0.0702352 0.472428 0.267191
1020 4 0.0828169 0.452178 0.293204
2238 4 0.0966439 0.48986 0.300084
1018 2 0.104127 0.45145 0.306263
1019 4 0.125437 0.450721 0.319321
349 3 0.231536 0.492498 0.304225
346 1 0.241486 0.472754 0.297182
350 3 0.227602 0.455169 0.301264
1037 4 0.225718 0.441088 0.314257
1036 2 0.210177 0.421529 0.315294
347 3 0.245538 0.47412 0.274579
348 3 0.261646 0.469659 0.308244
2048 4 0.2628 0.46927 0.26654
2047 2 0.284185 0.456488 0.264422
2049 4 0.30557 0.443706 0.262303
1968 4 0.425647 0.42994 0.293256
1966 2 0.440452 0.439375 0.275453
1967 4 0.455257 0.44881 0.257649
58 3 0.999462 0.0712202 0.403846
56 1 0.00205121 0.0649846 0.381646
2859 4 0.0162422 0.0771787 0.414443
59 3 0.0244144 0.0663115 0.375602
90 3 0.226651 0.0706424 0.413212
86 1 0.248791 0.0654795 0.414555
87 3 0.256516 0.0597504 0.393659
3183 4 0.259912 0.0424387 0.385265
3181 2 0.282564 0.0323297 0.382127
3182 4 0.305217 0.0222206 0.37899
1877 4 0.312893 0.0394498 0.381022
1876 2 0.335955 0.0442102 0.372615
1878 4 0.359017 0.0489705 0.364209
1499 4 0.392287 0.0694399 0.413403
3239 4 0.476595 0.00136188 0.393815
2979 4 0.436259 0.00497636 0.37859
950 4 0.448034 0.0153639 0.365319
949 2 0.461019 0.0365794 0.362775
951 4 0.474004 0.0577949 0.360231
22 3 0.468779 0.0661573 0.34213
3238 2 0.477388 0.0177395 0.412691
1143 4 0.0553535 0.0922786 0.393201
2274 4 0.0418955 0.158885 0.394411
2272 2 0.0210849 0.16703 0.383197
1142 4 0.0550306 0.142284 0.393378
1141 2 0.055192 0.117282 0.393289
758 4 0.140874 0.0983832 0.397958
84 3 0.136033 0.133119 0.377825
840 4 0.136538 0.145909 0.394163
838 2 0.114602 0.154642 0.402392
81 1 0.157969 0.126036 0.380477
1883 4 0.15541 0.102112 0.350577
82 3 0.158768 0.110495 0.397418
1245 4 0.156845 0.153595 0.396347
83 3 0.165532 0.11617 0.360885
757 2 0.129023 0.0861803 0.416284
1077 4 0.215857 0.0835907 0.402907
1160 4 0.241832 0.142995 0.341671
85 3 0.171246 0.143728 0.385896
1321 2 0.2317 0.151134 0.393687
1323 4 0.242175 0.164096 0.375047
1075 2 0.194639 0.0846786 0.41609
1322 4 0.221225 0.138172 0.412326
3668 4 0.398449 0.135164 0.336672
3669 4 0.43496 0.105649 0.353894
3667 2 0.416704 0.120406 0.345283
958 2 0.488973 0.0913429 0.40353
24 3 0.455588 0.100282 0.350741
21 1 0.474346 0.0883974 0.344012
959 4 0.487776 0.0891014 0.378656
25 3 0.490947 0.0906962 0.359432
2273 4 0.000274239 0.175174 0.371982
1243 2 0.167125 0.175714 0.401848
839 4 0.092666 0.163376 0.410621
3254 4 0.245118 0.179552 0.361859
172 3 0.18076 0.217509 0.406058
1244 4 0.177405 0.197832 0.407349
175 3 0.19532 0.250661 0.415105
3255 4 0.285107 0.209273 0.366135
932 4 0.288911 0.224904 0.379056
931 2 0.276825 0.246582 0.382084
3253 2 0.265112 0.194413 0.363997
997 2 0.3959 0.237743 0.355111
999 4 0.37766 0.235943 0.372118
998 4 0.41414 0.239542 0.338104
2923 2 0.0724807 0.325038 0.382992
974 4 0.0346885 0.322465 0.364605
973 2 0.0117004 0.330839 0.359448
2924 4 0.0479572 0.327237 0.37864
1237 2 0.125854 0.324932 0.371969
1238 4 0.114998 0.317669 0.39329
2925 4 0.0970042 0.322839 0.387344
29 3 0.22217 0.272065 0.376292
28 3 0.245539 0.300298 0.386353
26 1 0.235144 0.280799 0.393433
30 3 0.222124 0.285096 0.411617
933 4 0.264739 0.268259 0.385112
27 3 0.251274 0.265418 0.399127
1856 4 0.31216 0.330413 0.372286
936 4 0.308603 0.322018 0.390073
934 2 0.284651 0.315231 0.392402
935 4 0.260699 0.308444 0.394732
890 4 0.251723 0.311404 0.412403
815 4 0.383014 0.253011 0.38188
814 2 0.379848 0.25394 0.406665
3022 2 0.0355679 0.400988 0.362596
3024 4 0.0476481 0.396791 0.384081
3755 4 0.0498729 0.396743 0.403006
3023 4 0.0234877 0.405186 0.34111
3045 4 0.00417553 0.396979 0.341441
1239 4 0.136709 0.332195 0.350649
2891 4 0.151813 0.407969 0.351318
876 4 0.171394 0.404959 0.344429
875 4 0.180608 0.356591 0.353166
874 2 0.176001 0.380775 0.348798
1855 2 0.335974 0.338025 0.372635
1193 4 0.36735 0.361431 0.382077
1857 4 0.359788 0.345638 0.372984
1192 2 0.390815 0.358445 0.373973
1194 4 0.414279 0.355459 0.36587
2219 4 0.434699 0.36089 0.369755
2218 2 0.450499 0.371932 0.385681
2220 4 0.466298 0.382974 0.401607
2170 2 0.00149694 0.480565 0.413548
2172 4 0.998956 0.457062 0.405404
2892 4 0.125876 0.44881 0.338671
2890 2 0.138845 0.428389 0.344994
1765 2 0.327799 0.500045 0.403546
3073 2 0.0550741 0.0561621 0.471847
3074 4 0.0665167 0.0482451 0.451073
3777 4 0.00103864 0.0175029 0.485479
3108 4 0.0703815 0.0359536 0.436209
2857 2 0.00776967 0.0812287 0.437616
3075 4 0.0436315 0.0640791 0.492621
3107 4 0.113964 0.0574162 0.424348
3106 2 0.0921726 0.0466849 0.430278
759 4 0.117172 0.0739774 0.434609
1076 4 0.173421 0.0857665 0.429274
1571 4 0.247459 0.0436543 0.44857
1572 4 0.271296 0.000268234 0.455655
88 3 0.251871 0.04749 0.428883
1570 2 0.259378 0.0219613 0.452113
89 3 0.260751 0.0838343 0.422201
361 1 0.486711 0.0669447 0.453999
3240 4 0.478181 0.0341171 0.431568
364 3 0.483882 0.0529591 0.435701
365 3 0.470261 0.0631637 0.469287
1472 4 0.993096 0.100513 0.472376
780 4 0.0694967 0.12624 0.477506
2210 4 0.062673 0.136341 0.461641
2209 2 0.0694766 0.149856 0.441736
2211 4 0.0762803 0.163371 0.42183
778 2 0.0912251 0.125407 0.489849
779 4 0.112953 0.124574 0.502193
4465 2 0.190812 0.141608 0.493296
4467 4 0.212881 0.147988 0.483425
37 3 0.216476 0.152574 0.463832
36 1 0.233845 0.146342 0.450097
38 3 0.225167 0.135737 0.431372
40 3 0.247612 0.132143 0.461388
39 3 0.245557 0.165333 0.443729
1052 4 0.299416 0.0935809 0.480173
1051 2 0.280096 0.106049 0.470353
1053 4 0.260775 0.118517 0.460532
1498 2 0.381371 0.0910184 0.419757
1233 4 0.346702 0.146227 0.47907
1100 4 0.349099 0.154526 0.461326
1500 4 0.370455 0.112597 0.426112
1101 4 0.363179 0.13097 0.419521
1099 2 0.356139 0.142748 0.440423
363 3 0.486231 0.089116 0.447172
960 4 0.490169 0.0935845 0.428404
828 4 0.999872 0.201062 0.474046
826 2 0.0103022 0.18819 0.492773
3152 4 0.0856122 0.236821 0.463188
3151 2 0.08771 0.218633 0.480216
3153 4 0.0898077 0.200444 0.497244
173 3 0.158807 0.243912 0.421342
171 1 0.18015 0.234809 0.421207
174 3 0.185368 0.22654 0.44225
1496 4 0.257782 0.219256 0.485941
1362 4 0.268158 0.23533 0.492098
1286 4 0.371554 0.236182 0.43561
1285 2 0.366638 0.244917 0.458516
1166 4 0.428779 0.176747 0.494026
3354 4 0.0804739 0.256154 0.466337
3352 2 0.0821247 0.264688 0.442893
3353 4 0.0837755 0.273223 0.419449
923 4 0.159326 0.25029 0.440532
3686 4 0.103398 0.32286 0.465656
922 2 0.144113 0.266568 0.451879
924 4 0.1289 0.282846 0.463226
1131 4 0.205387 0.261587 0.428142
1129 2 0.2208 0.266586 0.447185
1130 4 0.236213 0.271585 0.466228
842 4 0.230916 0.273149 0.486493
891 4 0.233549 0.335019 0.452562
889 2 0.242636 0.323211 0.432483
1360 2 0.285693 0.251583 0.484781
1580 4 0.302956 0.268697 0.45789
1579 2 0.318621 0.288098 0.459731
1361 4 0.303227 0.267836 0.477463
1581 4 0.334287 0.307499 0.461571
816 4 0.376683 0.25487 0.43145
1698 4 0.348949 0.249095 0.495441
1287 4 0.361723 0.253653 0.481423
3474 4 0.345782 0.316351 0.47485
3472 2 0.359348 0.333397 0.48712
3754 2 0.0532984 0.377052 0.41803
3756 4 0.056724 0.357362 0.433054
3687 4 0.06589 0.351775 0.449599
3685 2 0.084644 0.337317 0.457628
1187 4 0.0993579 0.404744 0.46248
1039 2 0.117058 0.39198 0.491218
1040 4 0.103978 0.387279 0.470434
1982 4 0.152373 0.411479 0.449724
1106 4 0.223202 0.347641 0.46307
1105 2 0.226354 0.372445 0.463246
1107 4 0.229506 0.397248 0.463422
903 4 0.246096 0.400845 0.452277
9 3 0.178135 0.387029 0.501375
901 2 0.270439 0.404405 0.447814
902 4 0.294782 0.407965 0.443351
4254 4 0.311076 0.397122 0.446399
4252 2 0.320324 0.37424 0.442391
4253 4 0.329572 0.351358 0.438384
1116 4 0.466867 0.38932 0.419687
1454 4 0.420753 0.414018 0.450699
1115 4 0.434896 0.399102 0.456875
1114 2 0.450882 0.394211 0.438281
4242 4 0.43655 0.379854 0.488979
1023 4 0.421297 0.369612 0.49477
1188 4 0.0770472 0.444934 0.442789
1091 4 0.0239885 0.45276 0.48548
4373 4 0.0138873 0.46894 0.494348
1090 2 0.0081365 0.444642 0.467931
7 3 0.163686 0.421718 0.500622
1186 2 0.0882026 0.424839 0.452635
2126 4 0.0821959 0.462827 0.447445
2125 2 0.0877182 0.484555 0.458516
1631 4 0.176017 0.450974 0.493633
1983 4 0.182764 0.440355 0.476988
1630 2 0.175208 0.475958 0.493047
1981 2 0.167569 0.425917 0.463356
2245 2 0.350534 0.471649 0.44485
2247 4 0.361151 0.449059 0.443389
1453 2 0.398509 0.425354 0.449321
1455 4 0.376266 0.436689 0.447943
2246 4 0.339917 0.494239 0.44631
1766 4 0.335141 0.500939 0.42743
2204 4 0.255459 0.0514379 0.521764
2203 2 0.265065 0.05109 0.544846
2205 4 0.274671 0.050742 0.567928
213 3 0.287304 0.0542099 0.581964
212 3 0.31918 0.0740425 0.580162
211 1 0.296798 0.0751073 0.585365
1546 2 0.442979 0.0750659 0.566165
61 1 0.157028 0.142552 0.543198
63 3 0.138305 0.155393 0.53841
4524 4 0.132085 0.155495 0.51907
64 3 0.151326 0.125309 0.55764
62 3 0.16505 0.133513 0.523625
65 3 0.173171 0.155563 0.552621
4466 4 0.168743 0.135228 0.503167
1700 4 0.189479 0.167256 0.551137
215 3 0.286704 0.0905027 0.571958
1232 4 0.346139 0.162278 0.526428
1480 2 0.372376 0.1316 0.54652
1481 4 0.357678 0.149076 0.536334
1482 4 0.387074 0.114124 0.556705
1231 2 0.34642 0.154253 0.502749
3054 4 0.403716 0.133937 0.579208
1548 4 0.447117 0.0853873 0.543771
3052 2 0.427466 0.139064 0.573306
3053 4 0.451216 0.144191 0.567405
2943 4 0.465811 0.140132 0.553198
2941 2 0.482231 0.155985 0.542987
827 4 0.0207322 0.175317 0.5115
1428 4 0.998324 0.196674 0.559581
1426 2 0.000877239 0.182438 0.579977
4523 4 0.0938762 0.186982 0.512049
4522 2 0.112981 0.171238 0.515559
1699 2 0.198552 0.188116 0.540758
1497 4 0.219766 0.218482 0.51842
1495 2 0.238774 0.218869 0.50218
1701 4 0.207624 0.208976 0.530378
1601 4 0.225844 0.225396 0.57124
1600 2 0.246728 0.217566 0.559939
163 3 0.223911 0.245367 0.566361
1146 4 0.309741 0.164132 0.577202
1144 2 0.297017 0.18109 0.563947
1602 4 0.267612 0.209735 0.548637
1145 4 0.284294 0.198048 0.550691
1385 4 0.42252 0.245418 0.575751
1384 2 0.426686 0.242049 0.551328
1386 4 0.430851 0.23868 0.526905
1167 4 0.427286 0.221469 0.516353
1165 2 0.428032 0.199108 0.505189
2942 4 0.49865 0.171838 0.532776
164 3 0.221859 0.273475 0.540863
161 1 0.226996 0.268093 0.562842
162 3 0.212949 0.279759 0.576832
843 4 0.206698 0.266001 0.529656
165 3 0.248565 0.273805 0.567402
841 2 0.218807 0.269575 0.508074
2827 2 0.374885 0.289614 0.556186
1697 4 0.36853 0.289421 0.517602
2828 4 0.367299 0.300731 0.535114
1696 2 0.358739 0.269258 0.506522
2829 4 0.382471 0.278498 0.577259
2960 4 0.498999 0.268368 0.574698
8 3 0.147115 0.395369 0.521689
1041 4 0.130139 0.396682 0.512002
10 3 0.180624 0.40944 0.531529
6 1 0.16748 0.403359 0.513953
1022 4 0.373343 0.3685 0.508908
1021 2 0.39732 0.369056 0.501839
3473 4 0.372915 0.350443 0.499389
4240 2 0.454181 0.390105 0.503444
4241 4 0.471812 0.400355 0.51791
4372 2 0.999941 0.484819 0.50771
3543 4 0.19001 0.428103 0.532071
3541 2 0.185665 0.43586 0.555441
1390 2 0.295091 0.49489 0.52419
1392 4 0.307388 0.483612 0.542812
2342 4 0.302785 0.490926 0.56043
3039 4 0.478081 0.417846 0.511057
3037 2 0.485806 0.441294 0.515018
3038 4 0.49353 0.464742 0.518979
3862 2 0.439078 0.496003 0.537173
3863 4 0.431196 0.499319 0.513677
3864 4 0.44696 0.492688 0.560669
2708 4 0.452614 0.498842 0.579376
3063 4 0.494939 0.480959 0.528851
864 4 0.105777 0.0115415 0.5918
862 2 0.107225 0.00840715 0.616564
2736 4 0.162218 0.00776312 0.621385
3395 4 0.0907448 0.0122112 0.650727
863 4 0.108674 0.00527276 0.641328
2734 2 0.180285 0.0199 0.633692
2735 4 0.198352 0.032037 0.646
1682 4 0.213452 0.036097 0.658291
214 3 0.294555 0.0813008 0.607614
1547 4 0.43884 0.0647444 0.58856
2555 4 0.434829 0.043616 0.585822
1666 2 0.424349 0.0514447 0.661758
2556 4 0.447509 0.030524 0.632389
1668 4 0.443189 0.0436549 0.647282
2554 2 0.441169 0.03707 0.609106
2267 4 0.310326 0.151997 0.592638
2266 2 0.327605 0.133933 0.592079
1179 4 0.257402 0.133452 0.634549
1177 2 0.273087 0.115845 0.626233
1178 4 0.288773 0.0982386 0.617918
127 3 0.297107 0.157815 0.655762
2268 4 0.344884 0.11587 0.591519
147 3 0.401835 0.117704 0.591054
149 3 0.36518 0.109611 0.592926
146 1 0.384488 0.112883 0.605371
150 3 0.389466 0.0940069 0.617099
148 3 0.381601 0.130719 0.61993
1533 4 0.394505 0.144651 0.622362
1492 2 0.016481 0.243889 0.655509
1427 4 0.00343057 0.168201 0.600373
3564 4 0.00105884 0.213327 0.647982
1493 4 0.0120764 0.220799 0.664029
1560 4 0.295129 0.172321 0.643055
1559 4 0.256116 0.201016 0.630593
1558 2 0.275623 0.186668 0.636824
1661 4 0.40903 0.233322 0.583307
1531 2 0.389856 0.168001 0.614722
1532 4 0.385208 0.19135 0.607082
1662 4 0.37904 0.20957 0.615511
1660 2 0.394035 0.221446 0.599409
1687 2 0.395859 0.222995 0.665515
1688 4 0.413747 0.239828 0.66084
1689 4 0.377972 0.206161 0.67019
1563 4 0.377925 0.187024 0.662895
3714 4 0.434028 0.239411 0.657313
3712 2 0.448364 0.237525 0.636914
3713 4 0.4627 0.23564 0.616516
1628 4 0.0630412 0.272342 0.633124
1494 4 0.0208855 0.26698 0.646988
1629 4 0.108674 0.275093 0.653393
1627 2 0.0858575 0.273718 0.643258
1617 4 0.202739 0.284004 0.593171
3486 4 0.166628 0.252999 0.643213
3485 4 0.196289 0.268495 0.606054
1615 2 0.200039 0.308851 0.592467
3484 2 0.181458 0.260747 0.624633
1703 4 0.247433 0.32459 0.661191
1614 4 0.325552 0.329007 0.602826
2959 2 0.485334 0.260767 0.59421
2961 4 0.47167 0.253167 0.613721
1575 4 0.432482 0.331196 0.663361
3494 4 0.464659 0.287245 0.642026
3493 2 0.450388 0.300342 0.657837
3027 4 0.0206015 0.402043 0.620501
3368 4 0.0298272 0.384989 0.627774
3367 2 0.0481267 0.369213 0.634211
3369 4 0.0664263 0.353437 0.640647
3464 4 0.0790852 0.367687 0.645288
1356 4 0.12869 0.409593 0.602751
1355 4 0.10605 0.366718 0.590509
1354 2 0.11737 0.388156 0.59663
3463 2 0.103032 0.368155 0.652464
3465 4 0.12698 0.368622 0.65964
1616 4 0.19734 0.333699 0.591762
1470 4 0.202174 0.349825 0.601832
1468 2 0.22147 0.357765 0.615609
1469 4 0.240767 0.365704 0.629386
2414 4 0.234538 0.407822 0.634187
2413 2 0.227024 0.409477 0.657977
1341 4 0.275197 0.382688 0.64712
1339 2 0.269082 0.359411 0.653899
1340 4 0.262967 0.336134 0.660678
1612 2 0.344403 0.344896 0.60699
1613 4 0.363255 0.360786 0.611155
1352 4 0.356616 0.371469 0.628131
1351 2 0.344479 0.380782 0.647908
3025 2 0.0176593 0.426724 0.623211
1804 2 0.00368419 0.478898 0.604643
1805 4 0.0227635 0.465869 0.614205
3026 4 0.0147171 0.451406 0.625922
2595 4 0.124437 0.424711 0.590457
2593 2 0.138759 0.444924 0.587069
2594 4 0.15308 0.465138 0.58368
3542 4 0.18132 0.443617 0.57881
1592 4 0.196682 0.445095 0.59099
1591 2 0.196648 0.450331 0.615439
1593 4 0.196614 0.455566 0.639889
1674 4 0.358375 0.438148 0.583247
1672 2 0.36411 0.45903 0.595746
3650 4 0.382511 0.493984 0.615437
1673 4 0.369845 0.479912 0.608246
3649 2 0.399944 0.500562 0.63211
1325 4 0.0299471 0.0308824 0.734787
1324 2 0.00540059 0.0301544 0.73949
121 1 0.08075 0.034369 0.739854
124 3 0.0772584 0.0449892 0.719521
3396 4 0.0879792 0.0144412 0.700608
123 3 0.0925722 0.0146738 0.736576
3394 2 0.089362 0.0133262 0.675667
1681 2 0.206962 0.0446076 0.680888
1683 4 0.200473 0.0531182 0.703485
323 3 0.216215 0.0644048 0.707386
321 1 0.232243 0.0723596 0.722158
324 3 0.225923 0.0676658 0.743986
103 3 0.329606 0.00919635 0.71458
322 3 0.252243 0.0618689 0.717788
2774 4 0.271224 0.0583223 0.724958
2773 2 0.288995 0.0755483 0.728515
1136 4 0.334914 0.0196072 0.731571
1667 4 0.405509 0.0592345 0.676235
529 3 0.416611 0.0724708 0.687375
2372 4 0.386418 0.0548756 0.679961
2371 2 0.368281 0.0376907 0.680905
527 3 0.380322 0.0663959 0.695048
526 1 0.397589 0.0814449 0.697175
105 3 0.358303 0.00367637 0.690837
2373 4 0.350143 0.0205058 0.681848
528 3 0.401392 0.0853589 0.719728
3398 4 0.0397494 0.158942 0.751231
325 3 0.234815 0.0948281 0.719474
1684 2 0.217527 0.127148 0.745247
1686 4 0.227651 0.106718 0.734986
2775 4 0.306765 0.0927743 0.732072
126 1 0.30375 0.158921 0.677757
1545 4 0.325307 0.100344 0.72936
1543 2 0.322956 0.120422 0.714646
128 3 0.306467 0.137352 0.685867
1544 4 0.320605 0.1405 0.699931
3492 4 0.407487 0.0940254 0.737824
530 3 0.391919 0.100889 0.686762
1690 2 0.205317 0.21977 0.712311
1692 4 0.221115 0.200573 0.714969
1691 4 0.189519 0.238968 0.709653
1295 4 0.171941 0.235714 0.698795
1568 4 0.239305 0.20774 0.707231
129 3 0.323866 0.170425 0.678948
130 3 0.287835 0.169825 0.68986
1569 4 0.276522 0.184796 0.682958
1567 2 0.257914 0.196268 0.695094
1562 4 0.328917 0.188863 0.672667
1561 2 0.353421 0.187943 0.667781
152 3 0.461532 0.242039 0.747708
120 3 0.0120856 0.301106 0.730919
1347 4 0.0273026 0.302948 0.743921
116 1 0.00692743 0.312029 0.711613
118 3 0.00922738 0.297667 0.693534
119 3 0.0208435 0.330405 0.708953
1296 4 0.166989 0.284619 0.70799