ITEM: TIMESTEP
4740000
ITEM: NUMBER OF ATOMS
4800
ITEM: BOX BOUNDS pp pp pp
-9.9985700000000008e+00 9.9985700000000008e+00
-9.9985700000000008e+00 9.9985700000000008e+00
-9.9985700000000008e+00 9.9985700000000008e+00
ITEM: ATOMS id type xs ys zs
984 4 0.0593492 0.0592439 0.016758
1715 4 0.0654148 0.0535963 0.0355596
982 2 0.0394759 0.0739097 0.0206499
1714 2 0.0865983 0.0491349 0.048071
1716 4 0.107782 0.0446735 0.0605824
918 4 0.12667 0.039579 0.0639936
3537 4 0.125055 0.074169 0.023679
1128 4 0.11357 0.080171 0.0395371
3535 2 0.116881 0.0657884 0.00158519
817 2 0.232028 0.000475901 0.0411462
818 4 0.235715 0.0158429 0.0217698
1456 2 0.225936 0.0834583 0.0671081
1457 4 0.247137 0.0710752 0.0718355
1350 4 0.252961 0.080092 0.0237637
1348 2 0.277785 0.0826697 0.0222433
983 4 0.0196026 0.0885754 0.0245418
803 4 0.0799229 0.15542 0.0408349
1671 4 0.0747816 0.138529 0.0331246
1669 2 0.0766001 0.125025 0.0121597
1126 2 0.131846 0.0938548 0.0497312
1127 4 0.150122 0.107539 0.0599252
1149 4 0.167124 0.166003 0.00799636
1458 4 0.204735 0.0958415 0.0623807
1185 4 0.193393 0.11195 0.0633145
1183 2 0.200211 0.135003 0.0564407
1184 4 0.20703 0.158055 0.049567
1349 4 0.302609 0.0852474 0.0207229
850 2 0.331159 0.107385 0.0317135
852 4 0.314064 0.0900874 0.0375215
851 4 0.348254 0.124682 0.0259055
3462 4 0.352863 0.141195 0.0365924
3460 2 0.357129 0.16303 0.0251812
802 2 0.0727843 0.176309 0.0525761
804 4 0.0656457 0.197198 0.0643173
134 3 0.00159114 0.240689 0.000448268
865 2 0.166989 0.222333 0.0597593
1373 4 0.135443 0.237321 0.068606
866 4 0.151772 0.242057 0.0576208
867 4 0.182205 0.202608 0.0618979
297 3 0.212166 0.166486 0.0326153
300 3 0.177769 0.175661 0.0214093
298 3 0.195213 0.196604 0.0473852
296 1 0.19789 0.183954 0.0281184
299 3 0.207083 0.197011 0.0112833
2742 4 0.19213 0.209752 0.00968054
3461 4 0.361395 0.184865 0.01377
904 2 0.397734 0.216175 0.0610498
906 4 0.374091 0.2148 0.0530312
3576 4 0.356621 0.214717 0.0439122
3574 2 0.35591 0.222797 0.0202608
905 4 0.421377 0.217549 0.0690684
1209 4 0.432708 0.201283 0.066562
1207 2 0.451191 0.195784 0.0824782
3410 4 0.489911 0.189756 0.0611508
1556 4 0.0060016 0.262699 0.0252416
1990 2 0.049376 0.32513 0.0168051
1992 4 0.060132 0.302792 0.0200463
3311 4 0.0682821 0.287124 0.0117544
3310 2 0.0477546 0.273248 0.00839913
3312 4 0.0272271 0.259372 0.0050439
1372 2 0.121609 0.258005 0.0661601
1374 4 0.107776 0.27869 0.0637143
939 4 0.107413 0.296675 0.0732171
937 2 0.114693 0.318889 0.082088
3641 4 0.131339 0.324767 0.00430304
1119 4 0.33948 0.325544 0.0506903
1991 4 0.0386201 0.347468 0.0135638
823 2 0.000543983 0.343902 0.0356344
825 4 0.0203816 0.343104 0.0204354
775 2 0.156849 0.343182 0.0128749
1407 4 0.155353 0.375691 0.0602382
776 4 0.132 0.344503 0.0104271
777 4 0.181697 0.341862 0.0153227
1405 2 0.179639 0.372353 0.0651562
1406 4 0.203926 0.369015 0.0700741
764 4 0.22267 0.365478 0.079397
1583 4 0.280475 0.352213 0.00962673
789 4 0.312509 0.407293 0.0254333
788 4 0.295568 0.360502 0.0205088
787 2 0.304038 0.383898 0.022971
1011 4 0.340644 0.33525 0.0685909
1118 4 0.361802 0.356794 0.0186609
1117 2 0.350641 0.341169 0.0346756
4058 4 0.491667 0.405895 0.0147969
1087 2 0.0826184 0.417771 0.00436263
674 3 0.0820469 0.472213 0.0449077
3936 4 0.0372463 0.461157 0.0683779
3934 2 0.019555 0.463718 0.0508955
3935 4 0.00186357 0.466279 0.033413
675 3 0.102218 0.47031 0.0131721
1089 4 0.0964871 0.430384 0.0209077
673 3 0.102255 0.441047 0.0368639
671 1 0.101471 0.464169 0.0350896
672 3 0.119604 0.47309 0.0460798
2079 4 0.117685 0.492766 0.0491331
766 2 0.196066 0.421845 0.00676882
1784 4 0.240968 0.447352 0.0459027
1783 2 0.239722 0.459083 0.0679485
767 4 0.194357 0.446226 0.0120467
1914 4 0.254324 0.450368 0.0303599
1912 2 0.253435 0.459342 0.00703899
4215 4 0.421966 0.448739 0.0460452
4213 2 0.419765 0.444021 0.0215896
1035 4 0.426995 0.430116 0.0522174
1033 2 0.439905 0.424246 0.0728102
4059 4 0.498847 0.439635 0.0510019
4057 2 0.495257 0.422765 0.0328994
1834 2 0.0122041 0.013379 0.139732
1836 4 0.00874952 0.0302976 0.121649
1439 4 0.00628205 0.0333998 0.102903
916 2 0.133706 0.0289912 0.0855244
917 4 0.140742 0.0184034 0.107055
1030 2 0.199338 0.0734976 0.152559
1031 4 0.206885 0.0496974 0.151229
1328 4 0.251257 0.0807586 0.0891916
3205 2 0.403215 0.0492676 0.145591
3206 4 0.401862 0.067162 0.128181
3207 4 0.404569 0.0313732 0.163002
844 2 0.0334161 0.0913387 0.161778
845 4 0.0142175 0.0965639 0.146636
1032 4 0.19179 0.0972977 0.153889
1221 4 0.189981 0.110342 0.137988
1219 2 0.188413 0.13159 0.124901
1220 4 0.186844 0.152837 0.111814
1327 2 0.261441 0.0976625 0.104545
1329 4 0.271626 0.114566 0.119898
966 4 0.264781 0.122582 0.138038
964 2 0.282948 0.126227 0.154826
801 4 0.340496 0.161848 0.112682
3299 4 0.401519 0.0852135 0.120985
800 4 0.373771 0.133112 0.0888539
799 2 0.357133 0.14748 0.100768
3300 4 0.382436 0.114428 0.0851653
3298 2 0.391978 0.0998207 0.103075
3212 4 0.476153 0.143427 0.100164
1757 4 0.473573 0.131601 0.0846002
1756 2 0.489987 0.114013 0.091412
3211 2 0.46959 0.158116 0.119303
926 4 0.163811 0.246186 0.145486
4223 4 0.156281 0.244601 0.16409
925 2 0.178911 0.226723 0.149771
927 4 0.194011 0.20726 0.154057
1083 4 0.301441 0.232605 0.101876
1152 4 0.319754 0.225916 0.101149
1150 2 0.329989 0.203716 0.106404
1151 4 0.340224 0.181517 0.111659
1208 4 0.469674 0.190286 0.0983944
3213 4 0.463027 0.172806 0.138443
3293 4 0.455326 0.191417 0.141201
3292 2 0.464976 0.201881 0.161758
829 2 0.153747 0.332543 0.117893
830 4 0.131517 0.332417 0.106448
831 4 0.175977 0.332669 0.129339
1081 2 0.302395 0.252459 0.117044
1082 4 0.303349 0.272313 0.132213
70 3 0.314596 0.286377 0.140262
67 3 0.326062 0.31984 0.152163
2826 4 0.33022 0.33245 0.135667
66 1 0.332395 0.300541 0.141366
3599 4 0.36866 0.29497 0.156534
68 3 0.339567 0.305926 0.119966
69 3 0.34968 0.290622 0.153251
3598 2 0.391078 0.285289 0.15116
1010 4 0.33367 0.325623 0.117165
3600 4 0.413497 0.275608 0.145786
1009 2 0.337157 0.330436 0.0928777
2059 2 0.488934 0.260173 0.0853604
1241 4 0.464525 0.291566 0.103595
1240 2 0.448504 0.285852 0.121922
1242 4 0.432483 0.280138 0.140248
2061 4 0.474737 0.279883 0.0912895
938 4 0.121974 0.341104 0.0909589
763 2 0.218908 0.352809 0.100622
765 4 0.215145 0.34014 0.121848
2183 4 0.194541 0.353846 0.15743
2824 2 0.325089 0.355144 0.144821
2825 4 0.319959 0.377839 0.153975
1412 4 0.305066 0.387628 0.162651
3271 2 0.487289 0.405959 0.09894
3273 4 0.465438 0.414516 0.107573
3993 4 0.0887439 0.427469 0.166649
855 4 0.236506 0.490163 0.0969948
1785 4 0.238475 0.470814 0.0899943
13 3 0.318489 0.493161 0.129366
962 4 0.330925 0.484819 0.142286
963 4 0.35046 0.439791 0.132718
961 2 0.340692 0.462305 0.137502
1034 4 0.452815 0.418377 0.0934029
893 4 0.312105 0.0359332 0.241089
2216 4 0.322648 0.0233466 0.229001
2215 2 0.339929 0.00685708 0.221609
2965 2 0.38508 0.0462924 0.198046
2967 4 0.369291 0.0591293 0.212575
2966 4 0.400869 0.0334555 0.183516
1787 4 0.364386 0.0695961 0.229286
846 4 0.0526146 0.0861135 0.17692
1164 4 0.0708837 0.0894636 0.169381
1162 2 0.0793029 0.105599 0.186526
900 4 0.0798977 0.15869 0.226175
1163 4 0.087722 0.121734 0.203671
929 4 0.141479 0.0921192 0.233458
1060 2 0.15912 0.123613 0.208523
1062 4 0.155068 0.102835 0.221829
1061 4 0.163171 0.144391 0.195217
1740 4 0.177557 0.152911 0.186344
965 4 0.301115 0.129871 0.171615
769 2 0.327025 0.105776 0.189069
770 4 0.304092 0.114312 0.183934
771 4 0.349959 0.0972401 0.194205
2940 4 0.442649 0.130029 0.189199
2938 2 0.451042 0.127282 0.212592
2939 4 0.459435 0.124535 0.235984
1197 4 0.0105758 0.188803 0.180464
898 2 0.0803326 0.180949 0.237557
899 4 0.0807676 0.203207 0.248939
1195 2 0.000575609 0.195103 0.202498
1738 2 0.185401 0.17569 0.179655
1739 4 0.193244 0.19847 0.172966
792 4 0.274067 0.241557 0.239874
1861 2 0.497241 0.22223 0.212121
3294 4 0.474625 0.212344 0.182315
1862 4 0.476515 0.212014 0.202568
1046 4 0.0667728 0.254766 0.196567
1045 2 0.0872315 0.26911 0.195649
4224 4 0.117808 0.270075 0.183367
4222 2 0.137044 0.257338 0.173729
1047 4 0.10769 0.283455 0.194732
2184 4 0.235603 0.33189 0.175667
861 4 0.210454 0.314523 0.236336
1028 4 0.199213 0.303058 0.24881
2269 2 0.257661 0.315745 0.196321
790 2 0.277588 0.260919 0.22445
2271 4 0.27472 0.297577 0.19834
791 4 0.28111 0.28028 0.209026
1169 4 0.134884 0.343824 0.214332
1170 4 0.119478 0.386593 0.193495
1168 2 0.127181 0.365209 0.203914
3992 4 0.108423 0.382559 0.176479
3991 2 0.0985833 0.405014 0.171564
2182 2 0.215072 0.342868 0.166549
2270 4 0.240601 0.333913 0.194302
1893 4 0.167028 0.408207 0.245625
859 2 0.204606 0.336723 0.22643
860 4 0.198758 0.358924 0.216524
1891 2 0.18287 0.392587 0.234213
1892 4 0.198711 0.376967 0.2228
1411 2 0.317632 0.394093 0.183278
1413 4 0.330198 0.400559 0.203905
969 4 0.346033 0.408925 0.194406
1677 4 0.499186 0.396034 0.192201
2157 4 0.0437819 0.464804 0.206066
2155 2 0.066291 0.473706 0.199799
3866 4 0.0251554 0.462546 0.211091
3865 2 0.0119123 0.446458 0.22491
2156 4 0.0888001 0.482608 0.193532
4076 4 0.0972633 0.499866 0.194765
1790 4 0.226177 0.484221 0.209438
1789 2 0.247851 0.484701 0.196979
1791 4 0.269524 0.485181 0.184521
53 3 0.400252 0.484437 0.18864
967 2 0.355996 0.429529 0.204477
968 4 0.365958 0.450134 0.214547
55 3 0.376813 0.456849 0.198993
51 1 0.38638 0.476481 0.205452
54 3 0.398567 0.473313 0.224942
52 3 0.369875 0.492 0.209442
2168 4 0.407976 0.467739 0.242469
2149 2 0.0448081 0.00708411 0.328038
2151 4 0.0487245 0.0317711 0.328664
1072 2 0.156633 0.00236269 0.292322
50 3 0.130161 0.00615948 0.251216
1073 4 0.179919 0.00833104 0.299203
242 3 0.232475 0.0143791 0.301125
243 3 0.195409 0.0169667 0.306789
241 1 0.21571 0.0115068 0.316612
1096 2 0.224502 0.0680774 0.331947
892 2 0.301702 0.0312405 0.263336
894 4 0.291299 0.0265478 0.285583
1825 2 0.271382 0.0161829 0.313704
1827 4 0.271458 0.0226885 0.289561
1937 4 0.25568 0.079176 0.262704
1786 2 0.3556 0.0663791 0.252473
1788 4 0.346814 0.063162 0.27566
3669 4 0.349331 0.0785596 0.287895
3999 4 0.424798 0.00403018 0.276094
4119 4 0.49668 0.0557105 0.32042
3997 2 0.446324 0.0167494 0.276353
3066 4 0.487193 0.0283494 0.27079
3998 4 0.467849 0.0294686 0.276611
1110 4 0.0186579 0.163928 0.262762
2274 4 0.064751 0.148023 0.307896
2272 2 0.0451986 0.151732 0.323032
928 2 0.149395 0.0933863 0.257141
930 4 0.15731 0.0946534 0.280825
1141 2 0.101452 0.16518 0.307567
1143 4 0.126376 0.166375 0.309155
84 3 0.140205 0.15356 0.315764
1938 4 0.236291 0.0896049 0.307604
1936 2 0.245986 0.0843904 0.285154
1882 2 0.17946 0.119242 0.295091
1884 4 0.176702 0.0975272 0.283007
83 3 0.173939 0.140172 0.327044
1883 4 0.182218 0.140958 0.307175
1097 4 0.227666 0.0918619 0.324914
3667 2 0.361403 0.0866073 0.308259
3668 4 0.373476 0.094655 0.328622
1142 4 0.0765275 0.163986 0.305979
884 4 0.00721303 0.181785 0.261429
881 4 0.03259 0.239841 0.277255
883 2 0.0164237 0.20503 0.261557
885 4 0.0256344 0.228275 0.261686
1852 2 0.0716363 0.233679 0.273071
1854 4 0.0701829 0.210084 0.264924
981 4 0.214712 0.228942 0.251478
979 2 0.239712 0.228558 0.251643
980 4 0.264712 0.228173 0.251807
848 4 0.308195 0.215047 0.298992
3255 4 0.280479 0.191387 0.31536
847 2 0.328768 0.204581 0.308605
849 4 0.34934 0.194116 0.318219
1853 4 0.0730897 0.257273 0.281218
880 2 0.0221946 0.262566 0.278093
882 4 0.0117992 0.285291 0.278931
20 3 0.065029 0.292562 0.310844
974 4 0.0607825 0.308519 0.322622
16 1 0.0832194 0.287077 0.298287
17 3 0.081069 0.296389 0.277363
973 2 0.0565566 0.332886 0.326305
18 3 0.0846853 0.264021 0.296123
1043 4 0.092261 0.312004 0.281096
868 2 0.134251 0.306561 0.296252
870 4 0.10961 0.30593 0.292062
19 3 0.102487 0.29534 0.308231
869 4 0.158893 0.307191 0.300443
1029 4 0.160747 0.304367 0.280737
1027 2 0.17998 0.303713 0.264773
794 4 0.489027 0.332471 0.293777
4162 2 0.00137332 0.394374 0.252445
4163 4 0.0122601 0.376605 0.266262
975 4 0.0523306 0.357253 0.329988
3232 2 0.0277703 0.377285 0.306346
3234 4 0.0355639 0.369568 0.328816
603 3 0.0607612 0.404757 0.301219
3233 4 0.0199767 0.385002 0.283876
1042 2 0.0922695 0.334656 0.270508
2851 2 0.0986179 0.39579 0.270791
2853 4 0.104085 0.372666 0.263008
1044 4 0.092278 0.357307 0.25992
2924 4 0.116618 0.372464 0.332442
2049 4 0.28247 0.402884 0.302011
3513 4 0.476382 0.337651 0.307926
1966 2 0.424284 0.398978 0.327481
1968 4 0.42431 0.375945 0.317751
3512 4 0.441709 0.373657 0.309375
3511 2 0.459046 0.355654 0.308651
604 3 0.0493654 0.440926 0.303747
601 1 0.0677572 0.426787 0.303256
2187 4 0.0378383 0.443893 0.28814
2185 2 0.0153389 0.451322 0.280155
602 3 0.0794353 0.429091 0.32294
605 3 0.0813169 0.432279 0.285803
2852 4 0.093151 0.418914 0.278574
1018 2 0.113346 0.420526 0.332558
1019 4 0.137381 0.427171 0.330722
1847 4 0.168056 0.421182 0.260786
1848 4 0.189751 0.459475 0.284528
1846 2 0.178903 0.440329 0.272657
876 4 0.243387 0.46025 0.326465
2047 2 0.290885 0.422108 0.315606
2048 4 0.2993 0.441331 0.3292
350 3 0.261635 0.461009 0.331461
347 3 0.298903 0.461427 0.333415
2169 4 0.40618 0.464548 0.292342
1113 4 0.401008 0.483038 0.296172
2167 2 0.407078 0.466143 0.267406
4012 2 0.451749 0.452396 0.329919
4014 4 0.471526 0.467267 0.333508
783 4 0.482995 0.472032 0.31834
4013 4 0.431972 0.437525 0.326329
4430 4 0.0365016 0.0307702 0.346055
4431 4 0.0171939 0.0735274 0.363368
4429 2 0.0268477 0.0521488 0.354711
757 2 0.0704907 0.0608738 0.417578
245 3 0.219597 0.0250815 0.33448
1098 4 0.221337 0.0442929 0.33898
89 3 0.235486 0.0737733 0.393055
1079 4 0.232881 0.00824895 0.384571
1078 2 0.250396 0.015736 0.368373
1826 4 0.271307 0.0096773 0.337846
1080 4 0.26791 0.023223 0.352175
1878 4 0.305211 0.0294991 0.349568
3183 4 0.317177 0.0602295 0.395333
1876 2 0.324533 0.0147203 0.343785
3181 2 0.306217 0.0762315 0.411113
1877 4 0.343855 0.999941 0.338003
4279 2 0.487313 0.0437256 0.374152
4280 4 0.473321 0.0595806 0.387495
22 3 0.474241 0.0752916 0.375775
2273 4 0.0256462 0.155441 0.338169
57 3 0.0132841 0.0937616 0.361155
59 3 0.049075 0.102153 0.368981
56 1 0.0269825 0.108204 0.372684
58 3 0.0220594 0.106758 0.395313
60 3 0.0234008 0.129446 0.365295
2859 4 0.0278609 0.119697 0.409107
758 4 0.0788472 0.083826 0.412235
82 3 0.142539 0.130274 0.345174
81 1 0.153067 0.147462 0.334089
1076 4 0.159262 0.120294 0.34984
85 3 0.155382 0.165185 0.348202
3354 4 0.104287 0.136463 0.413458
1077 4 0.183134 0.0947623 0.385602
90 3 0.200886 0.0886002 0.392263
1075 2 0.171198 0.107528 0.367721
86 1 0.219394 0.0853386 0.405125
88 3 0.22789 0.105774 0.412099
1161 4 0.268996 0.117968 0.399667
1159 2 0.26223 0.135019 0.382677
1160 4 0.255463 0.15207 0.365687
3254 4 0.267823 0.165055 0.355945
920 4 0.368019 0.10537 0.346182
921 4 0.390278 0.148408 0.358551
919 2 0.379148 0.126889 0.352367
997 2 0.373295 0.149968 0.409047
1498 2 0.412744 0.110354 0.396057
1500 4 0.395933 0.115299 0.413893
999 4 0.380657 0.126229 0.406324
23 3 0.463534 0.103626 0.398028
1499 4 0.429556 0.105408 0.378222
25 3 0.44389 0.095176 0.367038
21 1 0.464772 0.0962538 0.376062
24 3 0.478044 0.11065 0.363612
959 4 0.450757 0.0906778 0.406247
828 4 0.00146532 0.198536 0.38237
826 2 0.0143682 0.18586 0.365107
827 4 0.0272711 0.173183 0.347844
1245 4 0.165039 0.181191 0.355352
1243 2 0.173758 0.186686 0.378133
1244 4 0.182476 0.192181 0.400914
1321 2 0.225704 0.190721 0.400812
172 3 0.167308 0.200266 0.413719
1323 4 0.20125 0.192123 0.40583
3253 2 0.274151 0.178221 0.335653
1322 4 0.250159 0.18932 0.395794
1206 4 0.332257 0.219498 0.370128
998 4 0.365933 0.173708 0.41177
1204 2 0.34568 0.203429 0.383794
1205 4 0.359103 0.187359 0.397461
1055 4 0.477903 0.233292 0.37714
1056 4 0.47286 0.1953 0.345017
1054 2 0.475382 0.214296 0.361078
1239 4 0.152539 0.31052 0.395137
1237 2 0.133462 0.326137 0.39097
3152 4 0.168338 0.297755 0.391603
3151 2 0.188794 0.287492 0.401673
3153 4 0.20925 0.277229 0.411743
932 4 0.296126 0.283652 0.336627
931 2 0.285396 0.30619 0.338068
933 4 0.274665 0.328728 0.339509
3023 4 0.0275143 0.409006 0.367957
3022 2 0.0400074 0.404975 0.389237
3024 4 0.0525006 0.400944 0.410517
1020 4 0.0893121 0.41388 0.334393
1238 4 0.114385 0.341755 0.386804
2925 4 0.102713 0.357207 0.377989
2923 2 0.109665 0.364835 0.355216
29 3 0.231893 0.356326 0.366361
1131 4 0.195632 0.403748 0.414742
27 3 0.26105 0.340877 0.348364
30 3 0.261782 0.343846 0.38556
26 1 0.254972 0.353926 0.366307
28 3 0.265092 0.374704 0.364241
890 4 0.28266 0.375161 0.356487
889 2 0.298919 0.38977 0.368627
1857 4 0.319534 0.411327 0.399013
891 4 0.315178 0.40438 0.380767
2220 4 0.498456 0.366721 0.393986
2218 2 0.482608 0.351662 0.40612
3043 2 0.00200193 0.433231 0.355987
3045 4 0.014015 0.423034 0.375401
2892 4 0.151739 0.431059 0.344573
2890 2 0.170872 0.447073 0.342952
2891 4 0.190006 0.463088 0.341331
875 4 0.20263 0.478027 0.349347
874 2 0.223008 0.469138 0.337906
1038 4 0.225987 0.464241 0.391855
1981 2 0.202788 0.432334 0.398668
1982 4 0.220756 0.445331 0.387118
1983 4 0.18482 0.419337 0.410218
349 3 0.279729 0.493544 0.337097
936 4 0.315546 0.478874 0.398421
1036 2 0.250751 0.465592 0.388678
1855 2 0.313796 0.435625 0.400376
1037 4 0.275515 0.466944 0.385501
346 1 0.279541 0.47078 0.341588
348 3 0.278588 0.467233 0.3645
1856 4 0.308058 0.459923 0.40174
1967 4 0.424258 0.422011 0.33721
3777 4 0.00158098 0.0369926 0.43643
3106 2 0.0753975 0.0164556 0.44944
759 4 0.0621342 0.0379217 0.42292
3107 4 0.0708854 0.0386637 0.438875
1570 2 0.244426 0.0521107 0.453854
1571 4 0.234793 0.0674784 0.471064
1182 4 0.250899 0.0170831 0.441966
87 3 0.213664 0.0729564 0.423645
1572 4 0.25406 0.0367429 0.436643
1180 2 0.272254 0.00727923 0.433421
2307 4 0.256135 0.0229835 0.487295
1101 4 0.384382 0.0699564 0.442961
3240 4 0.452033 0.0118529 0.475522
3238 2 0.459491 0.0272616 0.457297
361 1 0.493514 0.0615646 0.491121
362 3 0.477629 0.0532645 0.4767
960 4 0.451959 0.0556408 0.441908
3239 4 0.46695 0.0426704 0.439073
958 2 0.451358 0.0731593 0.424078
363 3 0.487415 0.083041 0.497443
2858 4 0.00618055 0.122994 0.454049
2857 2 0.0170207 0.121345 0.431578
779 4 0.0669449 0.144923 0.485685
3353 4 0.0896979 0.0905756 0.426956
778 2 0.0886326 0.154256 0.477457
840 4 0.119961 0.140299 0.422622
3352 2 0.0969924 0.113519 0.420207
838 2 0.140744 0.154199 0.422841
780 4 0.11032 0.16359 0.469229
4465 2 0.242142 0.141627 0.47461
4466 4 0.219643 0.13892 0.485177
63 3 0.220296 0.0963417 0.490168
64 3 0.207362 0.131141 0.498301
37 3 0.267667 0.122559 0.419294
39 3 0.299599 0.110008 0.434638
3182 4 0.295256 0.0922335 0.426892
4467 4 0.264641 0.144334 0.464044
36 1 0.27778 0.116547 0.439061
38 3 0.26598 0.0989199 0.448466
40 3 0.277732 0.134371 0.453236
1099 2 0.377483 0.0880825 0.458741
1100 4 0.370583 0.106209 0.474521
1233 4 0.351847 0.111836 0.47893
839 4 0.161526 0.168099 0.42306
2210 4 0.108202 0.179704 0.48098
2209 2 0.129978 0.186016 0.491522
173 3 0.170342 0.173577 0.440008
171 1 0.179787 0.193052 0.431646
175 3 0.179846 0.209183 0.447721
174 3 0.201473 0.188908 0.424508
923 4 0.193613 0.223403 0.452175
922 2 0.201086 0.243911 0.439979
1052 4 0.290994 0.236934 0.458954
1051 2 0.298257 0.213024 0.459807
1053 4 0.305519 0.189114 0.460661
1286 4 0.356216 0.207691 0.461192
1285 2 0.358555 0.188413 0.445441
1287 4 0.360894 0.169136 0.42969
1698 4 0.366004 0.223648 0.455837
1696 2 0.374824 0.233488 0.477064
815 4 0.412718 0.167443 0.434747
1697 4 0.383643 0.243327 0.49829
814 2 0.423249 0.188753 0.442502
1166 4 0.436696 0.221899 0.466199
816 4 0.433781 0.210063 0.450257
1165 2 0.450918 0.230283 0.484978
843 4 0.244889 0.309363 0.439485
924 4 0.208559 0.264419 0.427782
1362 4 0.245681 0.286327 0.488633
841 2 0.233487 0.330566 0.432733
1361 4 0.282211 0.283412 0.454607
1360 2 0.263946 0.284869 0.47162
1580 4 0.28944 0.293455 0.438233
1579 2 0.314261 0.293359 0.441241
1581 4 0.339083 0.293262 0.44425
3473 4 0.405077 0.28347 0.450945
3472 2 0.380912 0.289821 0.451885
3474 4 0.356747 0.296173 0.452825
1194 4 0.454209 0.321909 0.419159
1193 4 0.419666 0.294656 0.442925
1192 2 0.436937 0.308282 0.431042
3755 4 0.0378285 0.399067 0.4256
3754 2 0.0362259 0.382011 0.443812
3756 4 0.0346234 0.364955 0.462025
3687 4 0.0446507 0.368013 0.478277
1187 4 0.15008 0.411362 0.480416
1186 2 0.126169 0.413551 0.48739
1188 4 0.102258 0.41574 0.494365
1130 4 0.203253 0.35579 0.426686
842 4 0.222084 0.351769 0.425981
1039 2 0.179332 0.403118 0.484677
1129 2 0.199442 0.379769 0.420714
1041 4 0.192198 0.383479 0.493275
1105 2 0.323495 0.394149 0.456116
1107 4 0.330835 0.384849 0.478134
903 4 0.314631 0.387302 0.489496
1106 4 0.316154 0.403449 0.434097
2219 4 0.466759 0.336602 0.418253
1114 2 0.492571 0.415037 0.440022
2846 4 0.00251524 0.455646 0.436179
2847 4 0.0397952 0.447982 0.468617
2845 2 0.0211552 0.451814 0.452398
1091 4 0.0558239 0.459712 0.472128
1090 2 0.0745836 0.444604 0.478838
1092 4 0.0933433 0.429497 0.485548
1632 4 0.169387 0.487422 0.469682
1040 4 0.166466 0.422758 0.476079
1630 2 0.171248 0.487885 0.494612
935 4 0.304161 0.494031 0.444696
934 2 0.309854 0.486452 0.421559
2245 2 0.40006 0.487331 0.465312
2247 4 0.410057 0.465601 0.458028
1455 4 0.407767 0.444702 0.458985
1454 4 0.455565 0.434019 0.448886
2808 4 0.476682 0.498663 0.424395
1453 2 0.431666 0.43936 0.453935
1115 4 0.471158 0.422164 0.450786
1299 4 0.0279209 0.0217041 0.577062
2204 4 0.238163 0.0693478 0.573671
1482 4 0.328919 0.0369677 0.543372
2205 4 0.273162 0.0337982 0.57713
215 3 0.31452 0.0291889 0.555582
211 1 0.30603 0.0277451 0.576665
213 3 0.285114 0.0177153 0.576107
2203 2 0.255662 0.051573 0.5754
2306 4 0.29724 0.00935487 0.512303
2305 2 0.276688 0.0161692 0.499799
1480 2 0.337702 0.0598281 0.538328
1481 4 0.346485 0.0826884 0.533285
364 3 0.494611 0.0478235 0.509786
1427 4 0.0348151 0.145299 0.542679
1426 2 0.0489404 0.139926 0.522759
3563 4 0.0289838 0.153765 0.559548
3562 2 0.0185052 0.146004 0.580883
1428 4 0.0630658 0.134552 0.50284
1700 4 0.165489 0.125004 0.552009
4522 2 0.165513 0.156821 0.520027
61 1 0.207203 0.108835 0.50469
1699 2 0.183386 0.132205 0.567916
65 3 0.215075 0.106789 0.525962
4523 4 0.170152 0.138446 0.536338
1497 4 0.214952 0.152819 0.579081
1495 2 0.239915 0.15146 0.578644
62 3 0.185591 0.101004 0.503823
1496 4 0.264877 0.150102 0.578207
1232 4 0.353453 0.101521 0.527835
2268 4 0.363424 0.145956 0.549645
147 3 0.364292 0.131158 0.562592
1231 2 0.35265 0.106679 0.503382
1548 4 0.490858 0.0945099 0.51452
1546 2 0.492408 0.0960375 0.539429
2555 4 0.493985 0.0847307 0.579181
1547 4 0.493958 0.0975651 0.564337
2211 4 0.151754 0.192329 0.502063
4524 4 0.160874 0.175195 0.503716
1602 4 0.299665 0.231307 0.538608
1145 4 0.316234 0.227255 0.54709
1600 2 0.28107 0.24707 0.533047
2266 2 0.363468 0.170925 0.550964
2267 4 0.363512 0.195894 0.552284
1144 2 0.339727 0.219446 0.54358
1146 4 0.363219 0.211638 0.54007
2828 4 0.380542 0.232411 0.514641
2943 4 0.469136 0.191091 0.564194
3053 4 0.450568 0.184321 0.565933
1167 4 0.46514 0.238666 0.503756
2941 2 0.49264 0.182566 0.563927
1386 4 0.465232 0.251844 0.520565
1469 4 0.210382 0.270629 0.568824
165 3 0.226411 0.279528 0.561611
162 3 0.233893 0.285419 0.525525
161 1 0.2429 0.284365 0.546666
164 3 0.252451 0.304883 0.551782
1601 4 0.262475 0.262834 0.527487
163 3 0.259099 0.267758 0.547099
2827 2 0.386002 0.250694 0.530799
2829 4 0.391462 0.268977 0.546957
1614 4 0.405811 0.272538 0.561109
1612 2 0.413624 0.296111 0.558199
1384 2 0.453607 0.252937 0.542675
1385 4 0.441981 0.25403 0.564784
1613 4 0.421438 0.319683 0.555289
1661 4 0.434289 0.259175 0.582501
2562 4 0.0382968 0.395162 0.530085
3686 4 0.0429314 0.376286 0.527565
3685 2 0.0437911 0.372149 0.502921
1356 4 0.131816 0.385852 0.565867
2595 4 0.12805 0.405669 0.569264
1354 2 0.146575 0.37118 0.579726
7 3 0.168973 0.388277 0.546372
10 3 0.171466 0.35344 0.533215
9 3 0.202744 0.37225 0.542461
6 1 0.181436 0.373915 0.533428
8 3 0.182617 0.38237 0.511852
902 4 0.291442 0.371952 0.531057
4254 4 0.291508 0.36395 0.549005
901 2 0.303036 0.379627 0.510276
4252 2 0.304961 0.358812 0.569445
1022 4 0.377746 0.367312 0.538019
1021 2 0.396731 0.351392 0.54138
1023 4 0.415716 0.335472 0.544742
4242 4 0.449753 0.378106 0.563665
4240 2 0.466937 0.365692 0.550405
4241 4 0.48412 0.353279 0.537146
4628 4 0.498969 0.342647 0.544683
2560 2 0.0472747 0.418478 0.529099
2561 4 0.0562526 0.441793 0.528114
4373 4 0.0499563 0.460663 0.529032
4372 2 0.0467847 0.484361 0.53635
2593 2 0.10883 0.421646 0.569971
2594 4 0.0896091 0.437622 0.570677
3542 4 0.135225 0.484222 0.577376
3541 2 0.147365 0.486599 0.555647
3543 4 0.159505 0.488977 0.533918
1631 4 0.173109 0.488347 0.519542
159 3 0.265329 0.445902 0.577772
1297 2 0.0401484 0.00750845 0.593619
2735 4 0.179956 0.0746366 0.656232
1682 4 0.187687 0.056386 0.664093
1946 4 0.232838 0.0170821 0.649223
212 3 0.320073 0.0149424 0.589627
214 3 0.304415 0.0489193 0.586016
1178 4 0.313215 0.0609773 0.598698
1177 2 0.309018 0.0824583 0.610786
2372 4 0.317527 0.0038536 0.605606
2371 2 0.316139 0.000838786 0.630388
3330 4 0.0223963 0.133496 0.615359
3564 4 0.00802669 0.138243 0.602217
3328 2 0.00824415 0.134826 0.635929
1629 4 0.0788833 0.14627 0.644951
1701 4 0.201283 0.139406 0.583822
2734 2 0.182424 0.098629 0.649641
2736 4 0.184893 0.122621 0.643049
1179 4 0.30482 0.103939 0.622875
127 3 0.290692 0.113815 0.632399
126 1 0.271282 0.122335 0.641334
130 3 0.25617 0.105488 0.643881
128 3 0.276062 0.131865 0.661943
129 3 0.26283 0.138441 0.626928
2775 4 0.252585 0.0907416 0.656381
1667 4 0.403584 0.126804 0.603602
149 3 0.359969 0.106224 0.590382
150 3 0.39246 0.124792 0.586233
146 1 0.369815 0.126366 0.584402
148 3 0.361933 0.143395 0.598051
1531 2 0.363543 0.147473 0.63542
1532 4 0.375734 0.146854 0.613599
1533 4 0.351352 0.148093 0.657242
2556 4 0.45556 0.0949872 0.609497
2554 2 0.474773 0.0898589 0.594339
1668 4 0.439018 0.0917659 0.599426
1666 2 0.421301 0.109285 0.601514
1627 2 0.0736524 0.16762 0.656867
1692 4 0.185146 0.17 0.669398
1560 4 0.302715 0.215096 0.665036
3052 2 0.443049 0.194972 0.587268
3054 4 0.435529 0.205623 0.608604
2959 2 0.49806 0.182623 0.647588
2961 4 0.483244 0.183419 0.667713
1468 2 0.208189 0.282449 0.590749
1470 4 0.205996 0.294268 0.612673
1615 2 0.219049 0.319161 0.631719
1616 4 0.20566 0.298046 0.632011
3486 4 0.321568 0.310358 0.644907
1353 4 0.325776 0.327369 0.63633
1662 4 0.404734 0.262214 0.622725
3494 4 0.398585 0.259037 0.641337
3493 2 0.397566 0.274319 0.6611
1660 2 0.419511 0.260694 0.602613
1355 4 0.161334 0.356507 0.593585
1617 4 0.232438 0.340275 0.631426
1340 4 0.232909 0.343215 0.651189
1339 2 0.232549 0.36618 0.661069
158 3 0.247791 0.414224 0.589317
1351 2 0.320638 0.346358 0.620898
4253 4 0.318414 0.353674 0.589885
1352 4 0.315499 0.365348 0.605465
1651 2 0.290837 0.403357 0.636025
1652 4 0.289896 0.409733 0.611866
1653 4 0.291779 0.396981 0.660184
1703 4 0.309507 0.386336 0.664438
3367 2 0.0633583 0.434008 0.646835
3368 4 0.0411166 0.440963 0.637774
3027 4 0.0295294 0.427563 0.647741
3025 2 0.00655246 0.429386 0.657432
1592 4 0.141661 0.484414 0.596378
3369 4 0.0856 0.427052 0.655896
1591 2 0.132646 0.463565 0.606828
1593 4 0.123632 0.442715 0.617278
157 3 0.247876 0.444893 0.611044
160 3 0.279468 0.425628 0.606175
156 1 0.260271 0.432577 0.596083
2529 4 0.385422 0.468343 0.630543
2527 2 0.385654 0.452643 0.650002
2708 4 0.444363 0.487317 0.603709
3864 4 0.448728 0.467625 0.605062
3863 4 0.458393 0.423153 0.625788
3862 2 0.453561 0.445389 0.615425
2439 4 0.454052 0.486388 0.649572
3396 4 0.0488734 0.0177421 0.721019
3394 2 0.0728714 0.0124458 0.716412
309 3 0.0337493 0.0214884 0.732621
306 1 0.0183768 0.00412292 0.731893
3395 4 0.0968694 0.0071496 0.711805
863 4 0.126131 0.0105761 0.679541
862 2 0.146066 0.0225977 0.688667
123 3 0.084112 0.0712695 0.723307
124 3 0.11662 0.0517793 0.726091
121 1 0.103184 0.0678485 0.736073
864 4 0.166 0.0346193 0.697792
1681 2 0.190247 0.0559884 0.688962
323 3 0.209245 0.0660472 0.7178
1683 4 0.192807 0.0555908 0.713831
321 1 0.22505 0.081728 0.724338
322 3 0.243421 0.0799393 0.71061
324 3 0.23162 0.0777024 0.746225
105 3 0.327299 0.00841747 0.668694
2774 4 0.260673 0.0732737 0.702535
2773 2 0.256629 0.0820077 0.679458
103 3 0.339897 0.000262821 0.703226
1135 2 0.365718 0.0264581 0.727569
1136 4 0.354145 0.00919679 0.713667
1137 4 0.377291 0.0437193 0.741472
2801 4 0.453642 0.0654973 0.738079
2800 2 0.456193 0.0421217 0.746579
857 4 0.473641 0.0683421 0.738991
3397 2 0.0826124 0.118871 0.746702
122 3 0.114912 0.0875951 0.737359
3398 4 0.0963727 0.138067 0.738496
3588 4 0.0965886 0.155577 0.729769
1567 2 0.215435 0.143502 0.674252
1568 4 0.191941 0.151107 0.67033
325 3 0.216374 0.10271 0.722563
1686 4 0.216886 0.117733 0.735177
1684 2 0.232458 0.135321 0.743743
1569 4 0.238929 0.135897 0.678174
1544 4 0.259652 0.136869 0.675099
1543 2 0.277856 0.14751 0.688536
1545 4 0.296059 0.158152 0.701974
527 3 0.314871 0.152577 0.702902
526 1 0.337175 0.15212 0.697295
530 3 0.339214 0.148258 0.674944
529 3 0.347566 0.135157 0.70924
3492 4 0.347298 0.121539 0.724114
3490 2 0.358588 0.114238 0.745195
856 2 0.491457 0.0834415 0.747923
1628 4 0.0684215 0.188971 0.668782
1494 4 0.0585793 0.206899 0.667195
1492 2 0.0423944 0.218461 0.682346
1493 4 0.0262096 0.230023 0.697497
691 1 0.00625359 0.227973 0.730797
693 3 0.0159262 0.219318 0.711563
692 3 0.0218358 0.240803 0.741831
1311 4 0.0806977 0.220685 0.74639
3587 4 0.082755 0.200405 0.747084
694 3 0.999528 0.210694 0.744747
3586 2 0.0896718 0.177991 0.738426
1691 4 0.182834 0.219536 0.675849
1295 4 0.17439 0.231537 0.690378
1690 2 0.18399 0.194768 0.672623
1558 2 0.324146 0.205847 0.673999
1559 4 0.345577 0.196598 0.682961
528 3 0.346688 0.172584 0.702694
3713 4 0.464951 0.181559 0.675363
3712 2 0.472256 0.191295 0.697204
3714 4 0.479561 0.201031 0.719045
152 3 0.485208 0.215767 0.732949
153 3 0.472279 0.250225 0.740575
151 1 0.468923 0.227544 0.744141
154 3 0.448144 0.22123 0.73597
1404 4 0.13221 0.311121 0.69414
1402 2 0.150616 0.301014 0.680567
1290 4 0.115731 0.318544 0.68598
1288 2 0.111482 0.327515 0.708928
1403 4 0.169023 0.290907 0.666994
1296 4 0.182555 0.27678 0.670703
1294 2 0.178473 0.254158 0.68054
3484 2 0.332161 0.307534 0.667379
3485 4 0.342754 0.304711 0.689851
1575 4 0.413859 0.2951 0.685909