ITEM: TIMESTEP
3460000
ITEM: NUMBER OF ATOMS
4800
ITEM: BOX BOUNDS pp pp pp
-9.9985700000000008e+00 9.9985700000000008e+00
-9.9985700000000008e+00 9.9985700000000008e+00
-9.9985700000000008e+00 9.9985700000000008e+00
ITEM: ATOMS id type xs ys zs
41 1 0.0480068 0.0374325 0.0584986
43 3 0.0324828 0.0520784 0.0493933
45 3 0.0665199 0.0488941 0.0651728
42 3 0.0539895 0.0220382 0.042487
1841 4 0.0185054 0.0669432 0.0489883
44 3 0.0386891 0.0262348 0.0765595
1840 2 0.000563483 0.0821135 0.0575398
1439 4 0.130439 0.0673154 0.065696
3590 4 0.146558 0.0697897 0.0531946
3589 2 0.164383 0.052692 0.0570819
3591 4 0.182208 0.0355943 0.0609693
1637 4 0.199432 0.0346095 0.0520347
1636 2 0.220764 0.0236785 0.0449181
1638 4 0.242096 0.0127474 0.0378015
1184 4 0.273158 0.049147 0.0222294
817 2 0.299843 0.0162328 0.0277376
818 4 0.290946 0.0386177 0.0210343
1183 2 0.27229 0.0630282 0.0430077
1185 4 0.271422 0.0769094 0.0637859
946 2 0.413222 0.0141063 0.0340703
948 4 0.400614 0.00104921 0.0168739
2839 2 0.462284 0.0405139 0.0434378
2841 4 0.479571 0.054863 0.032463
1941 4 0.486654 0.0720809 0.037382
2840 4 0.444997 0.0261648 0.0544125
947 4 0.425831 0.0271634 0.0512667
3537 4 0.0674857 0.106592 0.0706568
3535 2 0.0794308 0.128218 0.0668069
1128 4 0.0653192 0.0889278 0.0798048
3536 4 0.091376 0.149843 0.062957
300 3 0.119916 0.11386 0.0168621
296 1 0.120447 0.134542 0.00734354
298 3 0.125243 0.150547 0.0234447
1438 2 0.129163 0.0884509 0.0789942
1458 4 0.277009 0.0895167 0.0796099
1738 2 0.291419 0.157588 0.0632394
1740 4 0.274769 0.162019 0.0451198
1327 2 0.269916 0.152734 0.012349
1329 4 0.286723 0.158041 0.0300845
1739 4 0.308069 0.153157 0.0813589
1209 4 0.343911 0.0952196 0.0765264
1939 2 0.489591 0.0963309 0.0427203
1423 2 0.476069 0.154468 0.0577499
1940 4 0.492527 0.120581 0.0480587
1424 4 0.487604 0.139408 0.0414619
2225 4 0.44896 0.158525 0.0784395
1031 4 0.0826753 0.16673 0.057343
1030 2 0.100163 0.183752 0.0627847
1032 4 0.11765 0.200775 0.0682265
777 4 0.308234 0.210969 0.081507
1411 2 0.286452 0.242772 0.0787956
775 2 0.327725 0.203583 0.0676967
799 2 0.373091 0.216005 0.0278228
801 4 0.351472 0.207623 0.0371797
800 4 0.39471 0.224387 0.0184658
70 3 0.388808 0.215194 0.060606
776 4 0.347216 0.196197 0.0538863
66 1 0.397459 0.222351 0.0804198
851 4 0.403788 0.243689 0.01819
1425 4 0.464534 0.169529 0.0740378
69 3 0.417261 0.233865 0.0767148
3599 4 0.421603 0.229196 0.0569838
3598 2 0.443403 0.228127 0.0447843
3600 4 0.465202 0.227059 0.0325847
3411 4 0.478942 0.242377 0.0329408
3409 2 0.498584 0.227562 0.0284799
3640 2 0.0512165 0.289726 0.00127566
808 2 0.00849741 0.314234 0.0411538
810 4 0.0329009 0.318779 0.038156
865 2 0.065131 0.311196 0.0666753
3642 4 0.0761914 0.289277 0.000167035
3641 4 0.0262415 0.290174 0.00238429
867 4 0.0426554 0.314396 0.0561973
1374 4 0.150538 0.314087 0.0754496
1372 2 0.125945 0.317914 0.0778418
824 4 0.140965 0.326833 0.00236848
823 2 0.164732 0.323951 0.00957862
1373 4 0.101352 0.321741 0.080234
866 4 0.0876067 0.307997 0.0771532
939 4 0.219779 0.307822 0.0613618
937 2 0.210341 0.321951 0.0430183
825 4 0.1885 0.321069 0.0167888
2740 2 0.314812 0.306689 0.0277609
2742 4 0.329356 0.315303 0.046185
2741 4 0.300267 0.298075 0.00933677
1914 4 0.318744 0.317898 0.0632867
1413 4 0.266742 0.255353 0.0699406
1220 4 0.251956 0.269918 0.0728444
850 2 0.416149 0.260468 0.00437574
938 4 0.200902 0.336079 0.0246747
14 3 0.274049 0.413406 0.0748678
1508 4 0.358927 0.344248 0.0537361
1117 2 0.363954 0.400746 0.00865465
1118 4 0.388236 0.395103 0.0067269
1507 2 0.355775 0.368755 0.0575592
1119 4 0.339672 0.406388 0.0105824
1509 4 0.352624 0.393263 0.0613824
879 4 0.350821 0.391048 0.0826282
1785 4 0.167227 0.494943 0.0420008
1727 4 0.209922 0.493719 0.0112238
788 4 0.326666 0.418804 0.021507
2490 4 0.257192 0.483154 0.0551313
2489 4 0.279112 0.440953 0.0396603
789 4 0.278333 0.43163 0.0218654
787 2 0.302499 0.425217 0.0216862
2488 2 0.268152 0.462054 0.0473958
4529 4 0.384739 0.490259 0.0806367
4528 2 0.407482 0.481909 0.074455
4506 4 0.353482 0.466075 0.00560265
2007 4 0.443615 0.47622 0.0536665
2005 2 0.448008 0.478251 0.0291359
2006 4 0.452401 0.480283 0.00460534
4530 4 0.430224 0.473559 0.0682733
2143 2 0.0620781 0.0288359 0.112246
2145 4 0.0501916 0.0302992 0.0902969
2144 4 0.0739647 0.0273727 0.134194
1127 4 0.0651437 0.0867431 0.129764
1126 2 0.0652314 0.0878355 0.104784
1440 4 0.127887 0.109586 0.0922923
1716 4 0.135428 0.112515 0.110913
1714 2 0.151744 0.131307 0.113324
1715 4 0.16806 0.1501 0.115735
984 4 0.174759 0.160892 0.132295
1456 2 0.276898 0.0972177 0.103398
1457 4 0.276786 0.104919 0.127186
905 4 0.301414 0.144541 0.0972745
904 2 0.305455 0.154954 0.119644
906 4 0.309496 0.165367 0.142014
3300 4 0.381721 0.124374 0.118805
1208 4 0.382806 0.111952 0.103132
1207 2 0.363359 0.103586 0.0898292
3298 2 0.402228 0.113355 0.127927
3206 4 0.433072 0.0893588 0.149605
3299 4 0.422736 0.102336 0.137049
1195 2 0.0512329 0.214792 0.135012
1197 4 0.0731201 0.203213 0.138483
803 4 0.0831031 0.187005 0.14145
845 4 0.0174467 0.220908 0.148116
1196 4 0.0293456 0.226371 0.131541
804 4 0.096897 0.177596 0.0943127
802 2 0.0900001 0.182301 0.117881
982 2 0.190819 0.178778 0.125415
983 4 0.206878 0.196665 0.118535
1221 4 0.217134 0.243988 0.0976597
1412 4 0.306162 0.230191 0.0876506
1152 4 0.317533 0.183438 0.137081
1150 2 0.322191 0.207954 0.138643
1151 4 0.326848 0.232471 0.140205
1083 4 0.345408 0.236518 0.130971
68 3 0.382201 0.236102 0.0912146
67 3 0.401829 0.204153 0.0937938
2226 4 0.412823 0.18776 0.0968831
1863 4 0.417744 0.207591 0.140426
2224 2 0.430892 0.173143 0.0876613
3292 2 0.491483 0.188047 0.164596
3294 4 0.47903 0.17555 0.146878
1862 4 0.463035 0.186436 0.141808
1861 2 0.44039 0.197013 0.141117
1219 2 0.234545 0.256953 0.085252
1912 2 0.311034 0.326058 0.0856285
1009 2 0.320591 0.322139 0.143445
1010 4 0.319005 0.297213 0.142289
1082 4 0.333962 0.284664 0.138156
1081 2 0.339685 0.260591 0.134563
1991 4 0.0821664 0.412787 0.134848
4224 4 0.0904021 0.394488 0.138739
4222 2 0.0997093 0.373223 0.148032
4223 4 0.109016 0.351959 0.157326
765 4 0.189015 0.404789 0.141283
829 2 0.21755 0.375593 0.139083
831 4 0.207771 0.398118 0.143789
830 4 0.227329 0.353067 0.134377
15 3 0.241926 0.400671 0.0898222
962 4 0.244204 0.356342 0.122621
1913 4 0.303324 0.334218 0.10797
963 4 0.283897 0.334627 0.101321
961 2 0.264051 0.345484 0.111971
878 4 0.325486 0.397779 0.125214
12 3 0.272287 0.404135 0.111249
1011 4 0.322177 0.347066 0.1446
11 1 0.260512 0.413244 0.0937129
877 2 0.338153 0.394413 0.103921
2826 4 0.364263 0.371646 0.140145
2824 2 0.384156 0.358364 0.147427
2825 4 0.404049 0.345082 0.154709
1990 2 0.0646697 0.425635 0.147257
1992 4 0.047173 0.438482 0.159666
764 4 0.159787 0.43666 0.116171
763 2 0.174401 0.420724 0.128727
53 3 0.271433 0.495661 0.155984
4106 4 0.281955 0.420035 0.120346
13 3 0.254385 0.434928 0.0992513
4105 2 0.295955 0.431634 0.13751
4107 4 0.309956 0.443233 0.154675
1951 2 0.47635 0.467571 0.134862
1953 4 0.475765 0.442698 0.13734
1952 4 0.476936 0.492445 0.132384
49 3 0.155338 0.0110808 0.219418
1073 4 0.164387 0.0152947 0.238847
50 3 0.182805 0.0140275 0.193834
1938 4 0.283469 0.0411507 0.175853
1097 4 0.281891 0.0565825 0.189438
1936 2 0.281615 0.0164608 0.179339
1096 2 0.2781 0.076675 0.203829
4243 2 0.443462 0.0593733 0.22959
4329 4 0.485132 0.0141215 0.215443
4327 2 0.464793 0.00353751 0.225418
4244 4 0.45548 0.0706561 0.21079
4245 4 0.431444 0.0480906 0.24839
912 4 0.014168 0.127138 0.17626
910 2 0.0330524 0.131041 0.192176
884 4 0.060181 0.144911 0.223598
911 4 0.0519367 0.134944 0.208092
1098 4 0.274309 0.0967676 0.21822
965 4 0.267693 0.114322 0.212057
964 2 0.263632 0.138339 0.217705
966 4 0.25957 0.162355 0.223353
1884 4 0.268162 0.163948 0.241254
3207 4 0.450308 0.0844431 0.19629
3205 2 0.44169 0.086901 0.172947
883 2 0.0692263 0.166726 0.231811
885 4 0.0782716 0.188541 0.240024
1162 2 0.0981928 0.212453 0.241649
1163 4 0.118333 0.222086 0.23039
1251 4 0.135455 0.224695 0.222043
1249 2 0.14933 0.236418 0.239226
1206 4 0.322831 0.246398 0.204308
881 4 0.0307716 0.301678 0.207098
880 2 0.0138219 0.283479 0.209679
1046 4 0.0365264 0.297676 0.225746
1045 2 0.060935 0.303079 0.225292
1047 4 0.0853437 0.308481 0.224838
1043 4 0.0899914 0.327426 0.220232
1205 4 0.354772 0.28072 0.186916
927 4 0.363939 0.297327 0.182237
1204 2 0.338801 0.263559 0.195612
925 2 0.371519 0.315649 0.197469
1042 2 0.111956 0.337721 0.226293
1044 4 0.13392 0.348017 0.232355
900 4 0.151352 0.350974 0.223964
898 2 0.163973 0.336298 0.23979
926 4 0.379099 0.333972 0.212702
3272 4 0.467687 0.347766 0.168769
756 4 0.487139 0.34687 0.170897
3273 4 0.417828 0.344189 0.167354
3271 2 0.442758 0.345977 0.168062
1058 4 0.450777 0.398427 0.200558
1057 2 0.472623 0.396635 0.212588
1059 4 0.494469 0.394843 0.224618
3992 4 0.0363631 0.452775 0.166636
3991 2 0.029295 0.467602 0.185487
2834 4 0.0608001 0.439735 0.238679
3993 4 0.022227 0.482429 0.204339
4076 4 0.0368357 0.495724 0.205966
2833 2 0.083953 0.437663 0.247889
860 4 0.117163 0.443519 0.242198
54 3 0.242658 0.473779 0.167713
1847 4 0.227671 0.423435 0.209241
1846 2 0.230246 0.444829 0.196559
1848 4 0.232822 0.466223 0.183876
1070 4 0.241927 0.421608 0.223296
1069 2 0.247954 0.430125 0.246019
51 1 0.251393 0.495276 0.167673
977 4 0.314553 0.453269 0.171969
978 4 0.315489 0.420507 0.209738
976 2 0.315021 0.436888 0.190853
2130 4 0.303522 0.494565 0.246108
1159 2 0.148811 0.0615305 0.317482
1160 4 0.149293 0.060113 0.292524
245 3 0.157718 0.0121011 0.301844
1072 2 0.158075 0.0201778 0.262543
1074 4 0.151763 0.0250609 0.286239
1825 2 0.248912 0.0435654 0.317203
1827 4 0.254555 0.051775 0.29427
1079 4 0.255929 0.0607048 0.276671
1078 2 0.269314 0.0809754 0.282597
2216 4 0.326618 0.0683652 0.273122
2217 4 0.37327 0.0560883 0.286299
2215 2 0.349944 0.0622267 0.27971
1248 4 0.388758 0.0667564 0.282965
1246 2 0.405847 0.05162 0.272765
1247 4 0.422936 0.0364837 0.262566
921 4 0.424582 0.0788293 0.318522
3193 2 0.0105427 0.144164 0.31942
3194 4 0.0268622 0.129744 0.331705
929 4 0.153144 0.151153 0.286409
1062 4 0.153196 0.16599 0.299472
930 4 0.188557 0.116326 0.280604
928 2 0.170851 0.133739 0.283507
1080 4 0.282699 0.101246 0.288524
771 4 0.302088 0.0965136 0.290565
769 2 0.307987 0.108633 0.311624
770 4 0.313887 0.120753 0.332683
4118 4 0.423367 0.0926516 0.303577
4117 2 0.432273 0.115198 0.297452
4119 4 0.44118 0.137745 0.291327
1164 4 0.0780524 0.202821 0.252908
435 3 0.00252298 0.231472 0.286056
1060 2 0.160106 0.189904 0.301828
19 3 0.165128 0.235094 0.270331
16 1 0.16432 0.248171 0.289482
17 3 0.165727 0.234471 0.307906
1250 4 0.163204 0.248141 0.256409
1061 4 0.167017 0.213818 0.304183
1882 2 0.272844 0.180131 0.25973
848 4 0.274063 0.215008 0.271528
1883 4 0.277527 0.196314 0.278206
847 2 0.283402 0.237472 0.2773
932 4 0.333508 0.24401 0.329973
3253 2 0.356737 0.215471 0.332357
3668 4 0.382624 0.180981 0.326371
3254 4 0.369992 0.196788 0.322336
870 4 0.0865032 0.312182 0.29356
868 2 0.103568 0.31758 0.31102
20 3 0.144696 0.259706 0.290192
869 4 0.120633 0.322978 0.328479
899 4 0.176595 0.321621 0.255617
1854 4 0.194003 0.321889 0.26549
18 3 0.182205 0.262952 0.289741
1853 4 0.197023 0.276208 0.28561
1852 2 0.195513 0.299048 0.27555
980 4 0.227858 0.295177 0.327663
979 2 0.213827 0.315741 0.329988
931 2 0.316577 0.2556 0.315684
933 4 0.299646 0.267191 0.301394
849 4 0.29274 0.259937 0.283072
29 3 0.285777 0.323173 0.272901
28 3 0.323201 0.329792 0.272658
27 3 0.304414 0.328096 0.305167
934 2 0.333658 0.321184 0.331486
3512 4 0.469638 0.324083 0.327624
998 4 0.485528 0.278832 0.329729
974 4 0.0172291 0.371592 0.273304
2923 2 0.0437649 0.391216 0.297803
2924 4 0.0214349 0.383545 0.289575
2925 4 0.066095 0.398888 0.306031
875 4 0.0839166 0.390206 0.306855
874 2 0.101669 0.406388 0.313795
2269 2 0.204721 0.382278 0.313701
2270 4 0.188456 0.399046 0.304787
2271 4 0.220986 0.365509 0.322615
791 4 0.24305 0.38641 0.302542
981 4 0.199797 0.336306 0.332314
26 1 0.303104 0.334694 0.283169
790 2 0.266168 0.377294 0.299778
792 4 0.289286 0.368178 0.297014
30 3 0.299136 0.357102 0.282283
936 4 0.318633 0.334401 0.316494
349 3 0.289585 0.404293 0.289924
1968 4 0.382636 0.409663 0.27658
1966 2 0.375396 0.412681 0.300322
1967 4 0.368155 0.415698 0.324063
3513 4 0.48851 0.369714 0.319727
3981 4 0.497842 0.382797 0.332053
3511 2 0.479074 0.346899 0.323675
861 4 0.163823 0.440122 0.259862
876 4 0.119421 0.422571 0.320734
2835 4 0.107106 0.435591 0.257099
859 2 0.140493 0.44182 0.25103
1170 4 0.134824 0.429904 0.330789
1893 4 0.176284 0.424494 0.256049
1892 4 0.190283 0.419872 0.303834
1891 2 0.183283 0.422183 0.279942
2128 2 0.309531 0.473731 0.258558
1071 4 0.25398 0.438642 0.268742
348 3 0.272185 0.430191 0.268223
1857 4 0.287171 0.444693 0.322427
350 3 0.280452 0.437944 0.304129
346 1 0.287407 0.426953 0.285435
347 3 0.307855 0.435247 0.278936
2129 4 0.31554 0.452898 0.271009
794 4 0.457219 0.485732 0.282149
793 2 0.460032 0.47365 0.303859
795 4 0.462845 0.461569 0.325569
2272 2 0.0598097 0.0608484 0.358046
2274 4 0.0388771 0.0497976 0.366101
3074 4 0.0184086 0.0523303 0.365687
2273 4 0.0807424 0.0718992 0.349991
1161 4 0.148329 0.0629481 0.342441
1141 2 0.12303 0.0670008 0.371808
1142 4 0.131333 0.0717808 0.348712
1143 4 0.114728 0.0622208 0.394903
3107 4 0.108136 0.0785242 0.408236
1826 4 0.243268 0.0353557 0.340136
90 3 0.246585 0.0357769 0.359979
89 3 0.249751 0.0685081 0.378318
3183 4 0.242926 0.0821724 0.389765
1571 4 0.258523 0.0272141 0.414862
88 3 0.255133 0.0356529 0.396647
86 1 0.257761 0.0468094 0.376472
87 3 0.280152 0.047567 0.371255
1876 2 0.330416 0.0506901 0.391427
1878 4 0.316937 0.0642122 0.375283
2214 4 0.300858 0.0757341 0.3758
1877 4 0.343896 0.0371679 0.407571
24 3 0.38306 0.0755052 0.406055
22 3 0.414188 0.0624151 0.389552
21 1 0.40023 0.0806158 0.391309
2979 4 0.416016 0.0472468 0.376734
919 2 0.409123 0.0746685 0.337728
920 4 0.393663 0.0705077 0.356935
2978 4 0.432331 0.999988 0.375684
2977 2 0.424174 0.0236172 0.376209
1076 4 0.0720249 0.0905748 0.346866
3252 4 0.999842 0.127246 0.398868
1109 4 0.0361413 0.141559 0.344511
1108 2 0.0497306 0.155515 0.360187
1075 2 0.0865661 0.110663 0.350058
1077 4 0.101107 0.130751 0.353251
83 3 0.0999466 0.150575 0.35257
3182 4 0.247459 0.126953 0.367974
3181 2 0.245193 0.104563 0.378869
2213 4 0.311304 0.118741 0.352519
2212 2 0.306081 0.0972376 0.36416
25 3 0.41209 0.0984416 0.39907
23 3 0.391506 0.0854289 0.370354
959 4 0.420194 0.10177 0.416059
950 4 0.429498 0.157848 0.415567
949 2 0.428247 0.166502 0.392142
82 3 0.0801381 0.177454 0.369825
1110 4 0.0633199 0.169472 0.375863
3354 4 0.0338762 0.217989 0.388306
3352 2 0.0482951 0.236686 0.380077
3152 4 0.0189811 0.211471 0.398896
81 1 0.101373 0.170533 0.364318
85 3 0.113449 0.167482 0.383383
84 3 0.111377 0.186792 0.351127
1245 4 0.121971 0.180595 0.394789
1243 2 0.133797 0.200964 0.403181
1244 4 0.145623 0.221333 0.411574
3255 4 0.343481 0.234153 0.342378
3667 2 0.404853 0.179415 0.337712
1322 4 0.38629 0.242257 0.389473
1321 2 0.39714 0.241215 0.36697
1323 4 0.407991 0.240172 0.344468
3669 4 0.427081 0.177849 0.349053
951 4 0.426995 0.175156 0.368717
1226 4 0.497305 0.208105 0.388885
1225 2 0.499841 0.228375 0.403302
1167 4 0.42578 0.248048 0.345619
3353 4 0.062714 0.255382 0.371849
923 4 0.0660875 0.265657 0.355497
922 2 0.0575338 0.288913 0.352159
1239 4 0.0680812 0.316357 0.354904
924 4 0.0489801 0.31217 0.34882
1029 4 0.136628 0.325495 0.338571
1027 2 0.160573 0.332018 0.341615
889 2 0.231247 0.332368 0.394511
891 4 0.209878 0.319388 0.394735
1107 4 0.269106 0.312873 0.354841
1286 4 0.385912 0.253279 0.40641
935 4 0.348684 0.307968 0.346477
1193 4 0.451206 0.299582 0.403161
1166 4 0.470886 0.269097 0.340803
1165 2 0.448333 0.258572 0.343211
814 2 0.47205 0.305453 0.363611
815 4 0.463451 0.29702 0.385524
816 4 0.480648 0.313885 0.341699
1237 2 0.072581 0.339732 0.362556
2890 2 0.036801 0.376573 0.386195
2891 4 0.0557319 0.367245 0.372786
1238 4 0.0770808 0.363106 0.370208
2892 4 0.01787 0.3859 0.399604
1028 4 0.184519 0.338541 0.344658
890 4 0.252617 0.345348 0.394288
1106 4 0.289683 0.358018 0.361104
1105 2 0.279394 0.335445 0.357973
1038 4 0.267181 0.400766 0.402953
1983 4 0.255205 0.348352 0.414444
1981 2 0.265665 0.370965 0.416552
2133 4 0.106124 0.500362 0.340842
2131 2 0.102502 0.492054 0.364145
1168 2 0.151554 0.447579 0.33652
2132 4 0.0988794 0.483746 0.387448
1632 4 0.102204 0.481916 0.407152
1630 2 0.119154 0.465528 0.415478
1169 4 0.168285 0.465255 0.342251
1923 4 0.167021 0.4841 0.336722
1855 2 0.275579 0.451008 0.343662
1036 2 0.266134 0.423256 0.392077
1037 4 0.265087 0.445746 0.3812
1856 4 0.263987 0.457323 0.364897
2085 4 0.331355 0.49183 0.385096
4013 4 0.36431 0.425646 0.339857
781 2 0.405402 0.461679 0.393261
783 4 0.383794 0.451617 0.38571
4012 2 0.369445 0.44413 0.355893
4014 4 0.37458 0.462613 0.37193
1949 4 0.43602 0.485892 0.388476
782 4 0.427011 0.471741 0.400811
2859 4 0.0110604 0.0644502 0.439865
3106 2 0.106555 0.0818813 0.432963
1570 2 0.256429 0.0376528 0.437485
1572 4 0.254335 0.0480915 0.460109
1607 4 0.258522 0.0607621 0.476077
4467 4 0.316674 0.0326336 0.46172
4465 2 0.326549 0.0533711 0.4716
1606 2 0.272316 0.0648492 0.496527
4466 4 0.336424 0.0741086 0.48148
3973 2 0.48489 0.0129176 0.421013
3975 4 0.472387 0.0316858 0.431813
361 1 0.491985 0.0698547 0.426316
363 3 0.479439 0.0505367 0.42911
827 4 0.0328868 0.161166 0.499046
3108 4 0.104975 0.0852385 0.45769
840 4 0.119925 0.0919197 0.467038
838 2 0.106474 0.0954489 0.487818
1146 4 0.252382 0.119033 0.428677
1145 4 0.290963 0.132829 0.457346
1144 2 0.271672 0.125931 0.443012
38 3 0.303788 0.14438 0.469114
36 1 0.308528 0.163485 0.4814
1500 4 0.353477 0.0844562 0.484045
1101 4 0.381093 0.137838 0.456236
1498 2 0.362645 0.102193 0.468994
1499 4 0.371813 0.11993 0.453943
1099 2 0.395657 0.14472 0.437112
1100 4 0.410221 0.151602 0.417989
365 3 0.478228 0.0879742 0.425286
958 2 0.441457 0.0957352 0.427748
960 4 0.46272 0.0897 0.439437
826 2 0.0313473 0.17448 0.477938
828 4 0.0298078 0.187793 0.45683
3151 2 0.0285729 0.200287 0.419097
3153 4 0.0381646 0.189103 0.439298
3686 4 0.0475683 0.237462 0.47875
3685 2 0.0316242 0.249371 0.463613
172 3 0.147043 0.234627 0.425781
173 3 0.130766 0.212928 0.451798
174 3 0.165714 0.226757 0.457437
171 1 0.144788 0.2311 0.4484
175 3 0.13587 0.249706 0.458041
62 3 0.186783 0.198613 0.49329
1360 2 0.284403 0.212779 0.468311
39 3 0.290164 0.177668 0.481389
1362 4 0.299702 0.193278 0.471604
1361 4 0.269105 0.23228 0.465017
40 3 0.326588 0.174149 0.472526
1285 2 0.378179 0.248595 0.429722
1701 4 0.355627 0.249743 0.467119
1287 4 0.370447 0.243911 0.453034
3687 4 0.01568 0.261279 0.448475
2895 4 0.00141554 0.251713 0.438029
1131 4 0.143678 0.26025 0.473396
1129 2 0.164825 0.27279 0.477945
1130 4 0.185973 0.285331 0.482495
841 2 0.224722 0.300911 0.471778
842 4 0.201513 0.291611 0.47176
843 4 0.247932 0.31021 0.471796
1700 4 0.314916 0.267115 0.490392
1580 4 0.323956 0.282958 0.499963
1699 2 0.335271 0.258429 0.478756
1192 2 0.437284 0.312341 0.419549
1194 4 0.423362 0.3251 0.435937
1019 4 0.0131671 0.375648 0.416038
3756 4 0.00684892 0.41265 0.47487
1188 4 0.0243011 0.411884 0.461405
1982 4 0.276124 0.393578 0.418661
1022 4 0.468598 0.360213 0.473728
2220 4 0.448954 0.363185 0.476496
2218 2 0.434047 0.354216 0.458537
2219 4 0.41914 0.345247 0.440578
1021 2 0.482147 0.378313 0.484404
1023 4 0.495696 0.396413 0.49508
4674 4 0.00469588 0.483432 0.457895
1187 4 0.0529643 0.438131 0.492873
1092 4 0.0200764 0.497362 0.463956
1186 2 0.0386327 0.425008 0.477139
3027 4 0.0725024 0.436925 0.49596
7 3 0.147991 0.456311 0.436616
3543 4 0.132209 0.446025 0.485586
1631 4 0.136105 0.449141 0.423804
9 3 0.15629 0.420061 0.442064
6 1 0.152957 0.440487 0.452556
8 3 0.13519 0.438961 0.467401
2342 4 0.225675 0.497572 0.470239
1392 4 0.215763 0.48163 0.461649
1391 4 0.190305 0.43883 0.4662
10 3 0.171848 0.446694 0.463658
1390 2 0.203034 0.46023 0.463925
3396 4 0.0569836 0.00586362 0.556632
3394 2 0.0721819 0.999804 0.575539
2399 4 0.201577 0.00309928 0.520301
1052 4 0.306142 0.0644474 0.522072
1608 4 0.28611 0.0689362 0.516977
1051 2 0.328492 0.071907 0.530441
1053 4 0.350841 0.0793665 0.538809
2209 2 0.0582484 0.124134 0.503499
2211 4 0.0724088 0.103783 0.506738
2210 4 0.044088 0.144485 0.50026
839 4 0.0930234 0.0989781 0.508597
37 3 0.313217 0.157408 0.503085
1481 4 0.459649 0.134896 0.536502
1480 2 0.447524 0.120065 0.552572
1482 4 0.435398 0.105235 0.568641
1662 4 0.465635 0.153472 0.529462
3114 4 0.0186995 0.181113 0.579161
4522 2 0.136276 0.234252 0.512663
4524 4 0.151011 0.216461 0.522229
64 3 0.160521 0.179132 0.511822
1560 4 0.241751 0.216345 0.538036
1496 4 0.224593 0.227882 0.539924
65 3 0.194533 0.184623 0.52701
1495 2 0.207669 0.246287 0.539782
63 3 0.170828 0.213698 0.523794
61 1 0.178231 0.193946 0.514128
1558 2 0.266455 0.213058 0.540056
1559 4 0.291159 0.209771 0.542075
1384 2 0.394076 0.199521 0.530365
1386 4 0.373162 0.211688 0.53667
1385 4 0.414989 0.187354 0.524059
1660 2 0.450023 0.172981 0.528544
1661 4 0.434411 0.19249 0.527625
1040 4 0.0718959 0.328544 0.560662
4523 4 0.121541 0.252044 0.503096
1602 4 0.17988 0.275179 0.526952
1497 4 0.190745 0.264692 0.53964
1600 2 0.186935 0.299163 0.527382
1601 4 0.193991 0.323147 0.527812
165 3 0.212147 0.330727 0.530656
1581 4 0.291771 0.311707 0.525228
1579 2 0.307864 0.297333 0.512595
3472 2 0.400359 0.301901 0.562443
3474 4 0.402464 0.302222 0.53753
4253 4 0.411395 0.317111 0.527082
3368 4 0.0769209 0.334912 0.580151
1593 4 0.06837 0.383265 0.538515
1041 4 0.0571507 0.375702 0.552957
1039 2 0.0645233 0.352123 0.55681
1591 2 0.088904 0.394423 0.529625
1592 4 0.109438 0.405581 0.520735
1615 2 0.215554 0.392071 0.54859
1617 4 0.214987 0.377267 0.528449
162 3 0.22874 0.36385 0.535174
161 1 0.22531 0.346369 0.520621
164 3 0.245838 0.337074 0.515091
1616 4 0.21612 0.406876 0.568732
163 3 0.214868 0.354437 0.501535
902 4 0.297825 0.369627 0.547037
901 2 0.277453 0.359433 0.53673
3650 4 0.316134 0.36183 0.546051
903 4 0.25708 0.349239 0.526423
3649 2 0.325989 0.353215 0.567354
4252 2 0.418878 0.340656 0.523233
4254 4 0.42636 0.364202 0.519384
1115 4 0.420023 0.382296 0.515363
1114 2 0.423032 0.405401 0.524434
3026 4 0.0631104 0.462519 0.537882
1805 4 0.0462911 0.462464 0.548876
1804 2 0.0240763 0.456572 0.558724
1806 4 0.00186154 0.450681 0.568571
3025 2 0.0678064 0.449722 0.516921
3542 4 0.123172 0.420811 0.527815
3541 2 0.127691 0.433418 0.5067
3900 4 0.415437 0.431728 0.550089
1116 4 0.42604 0.428506 0.533505
3898 2 0.426903 0.453854 0.548047
3899 4 0.438369 0.47598 0.546004
3863 4 0.450692 0.489842 0.543202
308 3 0.0235518 0.00815096 0.637729
1181 4 0.329632 0.00287075 0.596165
1642 2 0.405635 0.00406299 0.584966
1643 4 0.398844 0.0273867 0.590888
1180 2 0.342237 0.0210074 0.607884
1182 4 0.354843 0.0391441 0.619604
150 3 0.402384 0.0638511 0.604697
148 3 0.366954 0.0527445 0.610942
147 3 0.39517 0.02793 0.611805
1179 4 0.337619 0.0462542 0.628968
149 3 0.392174 0.0533049 0.639369
146 1 0.389226 0.0496171 0.616651
1177 2 0.335102 0.0561327 0.651799
1232 4 0.403403 0.0817941 0.61372
530 3 0.413856 0.00694526 0.663558
527 3 0.388637 0.033865 0.657877
526 1 0.41022 0.0294085 0.664472
528 3 0.424846 0.0403832 0.650187
1548 4 0.47585 0.0699823 0.635812
3054 4 0.491831 0.0775084 0.625877
1546 2 0.453484 0.0589303 0.634144
1547 4 0.431118 0.0478782 0.632477
1231 2 0.419066 0.0958334 0.600201
1233 4 0.434728 0.109873 0.586681
1427 4 0.00283759 0.240264 0.661499
3563 4 0.0141145 0.228159 0.650886
3562 2 0.00984994 0.203556 0.652184
3564 4 0.0055854 0.178953 0.653481
1403 4 0.286927 0.24183 0.65537
1426 2 0.00923225 0.264355 0.65952
3463 2 0.0500512 0.292881 0.638043
3464 4 0.0304271 0.280084 0.646778
1428 4 0.0156269 0.288446 0.657541
3465 4 0.0696753 0.305678 0.629307
3367 2 0.0898936 0.319999 0.595465
1628 4 0.117075 0.30246 0.623684
3369 4 0.102866 0.305087 0.610778
1627 2 0.136573 0.29547 0.637689
1629 4 0.156071 0.288481 0.651695
1290 4 0.158218 0.271182 0.662292
1296 4 0.284894 0.261748 0.65103
1295 4 0.277753 0.307242 0.631536
1294 2 0.281324 0.284495 0.641283
1697 4 0.284189 0.326135 0.628092
1696 2 0.305621 0.329898 0.615777
3473 4 0.398253 0.301579 0.587355
1674 4 0.412645 0.302963 0.600729
1563 4 0.404867 0.30025 0.659004
1672 2 0.41753 0.300571 0.625134
1673 4 0.422415 0.298179 0.649539
3713 4 0.492557 0.288547 0.583633
1470 4 0.227021 0.41321 0.584238
1468 2 0.235287 0.398764 0.602897
1469 4 0.243554 0.384318 0.621555
1613 4 0.247732 0.36827 0.632911
1698 4 0.327054 0.333661 0.603461
1612 2 0.272442 0.372088 0.632837
1614 4 0.297153 0.375906 0.632763
1352 4 0.302914 0.370546 0.650513
1351 2 0.324386 0.383105 0.647978
1703 4 0.288419 0.363017 0.664282
3651 4 0.335844 0.344599 0.588658
1353 4 0.345857 0.395664 0.645443
1653 4 0.364344 0.398063 0.654313
1651 2 0.378191 0.415702 0.665372
2356 2 0.122884 0.497721 0.650568
2628 4 0.28184 0.431763 0.657556
2529 4 0.405873 0.442383 0.665416
2745 4 0.0227751 0.00976246 0.733831
1299 4 0.148115 0.0290558 0.693169
2736 4 0.1534 0.0470976 0.696741
1297 2 0.14363 0.00458068 0.690714
2734 2 0.177909 0.0457383 0.701497
2735 4 0.202419 0.0443791 0.706254
1682 4 0.222886 0.0422922 0.709609
1681 2 0.246489 0.0420155 0.701361
325 3 0.31128 0.0226702 0.695864
324 3 0.324107 0.05768 0.690624
1683 4 0.270092 0.0417389 0.693114
323 3 0.286794 0.0505485 0.68947
321 1 0.306951 0.0447486 0.699393
322 3 0.305503 0.0486646 0.722014
2372 4 0.31734 0.00558352 0.683347
2774 4 0.303709 0.0614251 0.737782
2773 2 0.321034 0.0775524 0.745839
1178 4 0.332586 0.0660112 0.67463
1135 2 0.364266 0.00406127 0.748805
529 3 0.413151 0.0370258 0.686192
1667 4 0.419014 0.0249166 0.700737
1666 2 0.421785 0.0341321 0.723815
1668 4 0.424556 0.0433476 0.746893
2442 4 0.0683501 0.135956 0.693585
1324 2 0.0390891 0.125726 0.695171
1256 4 0.00402558 0.120372 0.709749
1326 4 0.0230157 0.115208 0.711177
1325 4 0.0551625 0.136245 0.679165
2441 4 0.108983 0.159596 0.676531
2440 2 0.0886663 0.147776 0.685058
1532 4 0.350666 0.162522 0.737613
1544 4 0.370607 0.161824 0.736193
1288 2 0.157754 0.24855 0.672911
1289 4 0.15729 0.225918 0.683529
3485 4 0.168224 0.208677 0.682011
3484 2 0.187171 0.210948 0.698167
3486 4 0.206118 0.213219 0.714324
144 3 0.219526 0.227754 0.708123
1691 4 0.207258 0.204975 0.733431
145 3 0.247877 0.248644 0.694801
141 1 0.22804 0.249231 0.705973
1404 4 0.251943 0.229452 0.68889
1402 2 0.269435 0.235641 0.67213
1545 4 0.40706 0.196028 0.73481
1543 2 0.388834 0.178926 0.735501
1477 2 0.00477354 0.256709 0.732088
1479 4 0.00158973 0.270445 0.711439
142 3 0.213043 0.262024 0.694116
143 3 0.231042 0.258699 0.726943
1655 4 0.231769 0.278021 0.732381
1422 4 0.327663 0.327234 0.692372
1420 2 0.343362 0.310308 0.682767
1561 2 0.401226 0.283819 0.677496
1562 4 0.397585 0.267389 0.695988
1421 4 0.359061 0.293383 0.673162
129 3 0.395841 0.25929 0.725052
130 3 0.372179 0.285832 0.712672
126 1 0.378475 0.273566 0.730798
1451 4 0.414607 0.25893 0.724106
127 3 0.360608 0.261009 0.738026
128 3 0.385166 0.28767 0.747965
1450 2 0.435255 0.272877 0.722023
1452 4 0.455903 0.286823 0.71994
3493 2 0.480802 0.302161 0.738027
3494 4 0.459224 0.289605 0.739425
2415 4 0.0966545 0.396676 0.667898
2413 2 0.112011 0.389651 0.686337
2414 4 0.127368 0.382626 0.704776
1355 4 0.145432 0.389785 0.707985
1354 2 0.152146 0.411787 0.717784
1341 4 0.223086 0.381149 0.687993
1339 2 0.247149 0.378757 0.681633
1340 4 0.271211 0.376366 0.675274
1704 4 0.311512 0.336103 0.699539
1702 2 0.299965 0.34956 0.681911
3718 2 0.483505 0.41674 0.749311
1346 4 0.00379549 0.429741 0.712209
1517 4 0.06021 0.456889 0.709754
1347 4 0.0517116 0.441797 0.719917
1345 2 0.0277535 0.435769 0.716063
1516 2 0.077001 0.475217 0.712454
2358 4 0.136626 0.492817 0.670873
2594 4 0.137847 0.484263 0.687703
1356 4 0.15886 0.433789 0.727582
2595 4 0.149266 0.44998 0.722271
2593 2 0.143556 0.467122 0.704987
1518 4 0.093792 0.493546 0.715155
3427 2 0.177929 0.491953 0.749011
3429 4 0.196564 0.497814 0.733404
1269 4 0.329769 0.439419 0.691342
2626 2 0.29634 0.437568 0.677081
2627 4 0.31084 0.443374 0.696606
1652 4 0.392038 0.433341 0.67643
1267 2 0.344591 0.435905 0.71117
158 3 0.397813 0.44586 0.719071
1268 4 0.359413 0.43239 0.730998
156 1 0.392824 0.447033 0.741702
157 3 0.37211 0.437678 0.745245
159 3 0.39232 0.469193 0.748564
3719 4 0.475246 0.425599 0.727436
1707 4 0.479072 0.428785 0.707845
2527 2 0.422674 0.456891 0.676924
1705 2 0.490404 0.425219 0.685844
2528 4 0.439474 0.471399 0.688432
4551 4 0.4277 0.48245 0.701073
4549 2 0.440173 0.489811 0.721455
4550 4 0.452646 0.497171 0.741837
125 3 0.143654 0.0387096 0.784702
121 1 0.164168 0.0371779 0.794475
2657 4 0.162046 0.0110358 0.774305
124 3 0.161974 0.0298438 0.816379
123 3 0.177562 0.0224889 0.782507
1263 4 0.192909 0.0608872 0.790311
122 3 0.174098 0.0579272 0.794539
1137 4 0.37499 0.0248025 0.757748
1523 4 0.395267 0.015384 0.787386
489 3 0.411585 0.0247701 0.790269
488 3 0.428358 0.0587617 0.793035
857 4 0.427405 0.0695981 0.811299
487 3 0.434003 0.0371917 0.762777
490 3 0.44878 0.0272314 0.795569
486 1 0.430775 0.0369314 0.785551
1377 4 0.0796718 0.0843897 0.775187
1736 4 0.0609996 0.0839773 0.784043
1737 4 0.0396851 0.115779 0.816216
3399 4 0.0377194 0.129596 0.829301
1735 2 0.0503423 0.099878 0.80013
944 4 0.140338 0.107078 0.796832
1376 4 0.125064 0.0966823 0.79219
1375 2 0.102368 0.090536 0.783689
943 2 0.143703 0.102989 0.821268
1261 2 0.197318 0.0851726 0.794306
1262 4 0.201727 0.109458 0.798301
1686 4 0.204453 0.124466 0.811362
1684 2 0.196475 0.146158 0.820899
1531 2 0.329082 0.161019 0.750146
1533 4 0.307499 0.159517 0.762679
2775 4 0.33836 0.0936796 0.753896
1619 4 0.357636 0.093619 0.752509
1620 4 0.380664 0.107863 0.794551
1618 2 0.36915 0.100741 0.77353
106 1 0.378429 0.130305 0.819476
108 3 0.397476 0.118109 0.824664
858 4 0.390535 0.103376 0.811901
110 3 0.367147 0.120228 0.802452
856 2 0.40897 0.0864868 0.8116
107 3 0.384691 0.151454 0.812945
345 3 0.410826 0.147577 0.828887
343 3 0.445126 0.146434 0.813399
1585 2 0.475965 0.117301 0.80674
1586 4 0.460684 0.137087 0.806369