ITEM: TIMESTEP
5790000
ITEM: NUMBER OF ATOMS
4800
ITEM: BOX BOUNDS pp pp pp
-9.9985700000000008e+00 9.9985700000000008e+00
-9.9985700000000008e+00 9.9985700000000008e+00
-9.9985700000000008e+00 9.9985700000000008e+00
ITEM: ATOMS id type xs ys zs
182 3 0.0414217 0.00889912 0.0829423
1638 4 0.0718496 0.0743555 0.0027748
984 4 0.129171 0.0566136 0.0622787
982 2 0.136538 0.0362356 0.0747543
983 4 0.143905 0.0158576 0.08723
918 4 0.154827 0.0274078 0.10149
3304 2 0.130644 0.0752494 0.00530255
3206 4 0.352041 0.0415072 0.0367101
3205 2 0.35194 0.0266713 0.0568364
3299 4 0.341207 0.0541726 0.0249204
3298 2 0.361091 0.0663728 0.0159232
3207 4 0.351838 0.0118355 0.0769627
3460 2 0.485821 0.0254945 0.0642608
3461 4 0.472626 0.00924304 0.0779348
255 3 0.470296 0.0571117 0.0830343
1716 4 0.0641485 0.0919036 0.00304054
1714 2 0.0600834 0.10351 0.024811
1669 2 0.0747022 0.152314 0.0506665
1715 4 0.0560184 0.115116 0.0465814
1670 4 0.057494 0.134174 0.0507383
1109 4 0.998815 0.133571 0.0867504
3535 2 0.114932 0.0995576 0.0618877
3536 4 0.122086 0.0982179 0.0379669
3306 4 0.118689 0.0806863 0.0265791
1219 2 0.202418 0.153149 0.037391
1221 4 0.21565 0.132189 0.0406682
1458 4 0.220435 0.113189 0.0394165
1456 2 0.230842 0.110757 0.0620208
3300 4 0.380975 0.078573 0.0069259
1671 4 0.0919103 0.170454 0.0505947
803 4 0.0855262 0.190465 0.049976
802 2 0.0919314 0.202103 0.0711588
1220 4 0.189185 0.17411 0.0341138
1740 4 0.18805 0.184478 0.0505825
1738 2 0.180869 0.191956 0.0733356
1185 4 0.344595 0.184619 0.00606087
1151 4 0.344262 0.175892 0.0253123
1150 2 0.342604 0.18323 0.0491572
1152 4 0.340945 0.190568 0.0730021
1373 4 0.00447112 0.280619 0.0662381
866 4 0.129884 0.320363 0.0236029
776 4 0.142549 0.334471 0.0321577
865 2 0.127803 0.308183 0.00186632
1405 2 0.183233 0.279891 0.0685398
1406 4 0.193695 0.274243 0.0465434
765 4 0.189738 0.256983 0.0360173
763 2 0.184318 0.257699 0.0116188
3409 2 0.386999 0.272942 0.0680228
3410 4 0.364667 0.271034 0.0791053
3411 4 0.409331 0.27485 0.0569402
777 4 0.141487 0.378365 0.0560946
775 2 0.142018 0.356418 0.0441261
2054 4 0.181937 0.395299 0.0226656
767 4 0.20013 0.396173 0.0316586
1266 4 0.319098 0.383743 0.0261931
1117 2 0.301846 0.376043 0.0683722
1118 4 0.314118 0.383406 0.0478697
1119 4 0.289574 0.36868 0.0888747
1264 2 0.326498 0.403807 0.013237
755 4 0.450517 0.340946 0.0866313
756 4 0.463528 0.366098 0.045415
754 2 0.457023 0.353522 0.0660231
4059 4 0.458816 0.368227 0.0262248
4057 2 0.475296 0.37676 0.00946838
1728 4 0.109302 0.438864 0.057091
1727 4 0.126635 0.454399 0.0128313
1726 2 0.117969 0.446631 0.0349612
1088 4 0.147496 0.457063 0.0157684
766 2 0.200545 0.415386 0.0476551
768 4 0.200961 0.434598 0.0636517
1034 4 0.39173 0.457015 0.0175284
3273 4 0.385816 0.45814 0.0358435
3271 2 0.400894 0.454528 0.0554599
1033 2 0.377222 0.450002 0.99841
3272 4 0.415971 0.450916 0.0750764
1951 2 0.476989 0.487715 0.999494
4548 4 0.487366 0.446942 0.998659
2921 4 0.0249684 0.0199725 0.0840403
2920 2 0.0209574 0.0444224 0.0874003
2922 4 0.0169463 0.0688724 0.0907604
1439 4 0.999948 0.0757765 0.083785
184 3 0.0646316 0.979706 0.0875999
916 2 0.168541 0.00872042 0.110865
1327 2 0.242522 0.0809157 0.117184
966 4 0.257249 0.0613359 0.146075
1329 4 0.245095 0.0597615 0.130263
1097 4 0.302096 0.0701845 0.163337
771 4 0.367099 0.00935448 0.0888612
769 2 0.380844 0.0174701 0.108107
770 4 0.394588 0.0255857 0.127353
253 3 0.456058 0.0850862 0.103827
251 1 0.47494 0.0723945 0.0992677
4089 4 0.493157 0.0472769 0.126035
252 3 0.481309 0.0613883 0.118437
4087 2 0.494144 0.022383 0.123913
254 3 0.492295 0.0861912 0.0924215
1108 2 0.0207593 0.142075 0.0951939
898 2 0.0644206 0.136657 0.140284
899 4 0.0534711 0.147879 0.120807
1110 4 0.0427039 0.150579 0.103637
900 4 0.0753702 0.125435 0.159761
3537 4 0.107778 0.100897 0.0858084
3194 4 0.113284 0.0918518 0.102688
3195 4 0.088608 0.0989851 0.145594
3193 2 0.100946 0.0954184 0.124141
926 4 0.128577 0.151939 0.121171
4223 4 0.137506 0.148255 0.139407
1457 4 0.241249 0.108324 0.0846251
1328 4 0.239948 0.10207 0.104106
1098 4 0.314662 0.110152 0.136036
1096 2 0.308379 0.0901682 0.149687
3574 2 0.377916 0.16129 0.168086
3576 4 0.367444 0.139143 0.173087
3065 4 0.364664 0.122108 0.160473
3310 2 0.0754532 0.23764 0.114295
804 4 0.0983367 0.213741 0.0923415
3312 4 0.0944549 0.230554 0.0996697
925 2 0.143371 0.169195 0.110751
927 4 0.158164 0.18645 0.100331
1739 4 0.173688 0.199433 0.0960887
904 2 0.3202 0.226873 0.157086
1209 4 0.340893 0.210468 0.0688341
1207 2 0.345615 0.23383 0.0763899
906 4 0.318108 0.244754 0.139735
3575 4 0.388388 0.183438 0.163085
3673 2 0.496739 0.228232 0.158206
1372 2 0.0149875 0.290676 0.0865713
1374 4 0.025504 0.300733 0.106905
3311 4 0.0564514 0.244727 0.12892
1047 4 0.0450392 0.257122 0.139956
939 4 0.0432729 0.310976 0.101528
1045 2 0.0513932 0.256807 0.164136
937 2 0.0674483 0.307152 0.106637
938 4 0.0916237 0.303328 0.111746
830 4 0.0991057 0.323403 0.113188
829 2 0.11201 0.328334 0.134029
831 4 0.124914 0.333265 0.15487
2270 4 0.181148 0.303899 0.15366
2184 4 0.186947 0.2848 0.148843
1407 4 0.172772 0.28554 0.0905362
2182 2 0.186232 0.29086 0.124596
2183 4 0.185518 0.29692 0.100348
980 4 0.243767 0.299262 0.155428
1083 4 0.321388 0.265305 0.14009
1208 4 0.350338 0.257193 0.0839457
1081 2 0.3401 0.280907 0.134465
1082 4 0.358811 0.296509 0.128841
70 3 0.363074 0.315189 0.123244
66 1 0.378786 0.329128 0.132048
68 3 0.397925 0.328772 0.118934
69 3 0.383908 0.322603 0.153718
2992 2 0.0186322 0.404666 0.156315
2993 4 0.0419405 0.413269 0.159123
791 4 0.246759 0.338549 0.116271
792 4 0.27671 0.356374 0.0804114
790 2 0.261735 0.347462 0.0983411
1011 4 0.330974 0.378155 0.0855769
1009 2 0.346303 0.371835 0.104292
1010 4 0.361632 0.365514 0.123007
67 3 0.370484 0.350576 0.132506
4361 4 0.416971 0.332228 0.125
4362 4 0.461597 0.340231 0.1039
4360 2 0.439284 0.33623 0.11445
1057 2 0.471335 0.409234 0.142462
4075 2 0.0847077 0.490751 0.101279
4076 4 0.0659974 0.502755 0.0898331
3111 4 0.0167267 0.461114 0.122996
3109 2 0.99553 0.472437 0.1299
4077 4 0.103418 0.478747 0.112725
2834 4 0.106091 0.467671 0.128937
2833 2 0.125926 0.465745 0.144038
2835 4 0.145761 0.463818 0.159139
1913 4 0.209335 0.42398 0.0780373
1784 4 0.239692 0.420242 0.13087
1914 4 0.222 0.410674 0.124548
1912 2 0.215668 0.417327 0.101293
1789 2 0.237985 0.472631 0.172032
4186 2 0.184312 0.456778 0.154072
1790 4 0.213493 0.474217 0.167255
4188 4 0.207984 0.464347 0.151328
1791 4 0.262477 0.471044 0.176808
1785 4 0.287247 0.433749 0.138408
1783 2 0.263469 0.426995 0.134639
2468 4 0.325403 0.478819 0.0912894
2825 4 0.29424 0.433338 0.119489
2824 2 0.311522 0.446755 0.107387
2826 4 0.328805 0.460173 0.0952846
855 4 0.277363 0.477818 0.164624
853 2 0.285866 0.50057 0.158688
1058 4 0.452574 0.414398 0.12676
1676 4 0.431097 0.457133 0.0870183
1677 4 0.445227 0.414439 0.108889
1675 2 0.438162 0.435786 0.0979534
1413 4 0.473714 0.491899 0.168697
1411 2 0.461634 0.47007 0.16704
969 4 0.480399 0.493629 0.14992
1412 4 0.449554 0.448241 0.165382
929 4 0.137653 0.0045987 0.227061
1886 4 0.130243 0.0259761 0.169034
1885 2 0.133661 0.0112192 0.188927
1887 4 0.137078 0.996462 0.20882
1246 2 0.246215 0.996866 0.192845
1000 2 0.238203 0.0441652 0.227346
1247 4 0.227945 0.00862436 0.205219
1001 4 0.237707 0.0621105 0.24475
1002 4 0.238699 0.0262198 0.209942
965 4 0.255934 0.057757 0.195936
964 2 0.256592 0.0595464 0.171005
1936 2 0.313826 0.0487541 0.199282
1937 4 0.325535 0.0359949 0.217319
1938 4 0.302118 0.0615132 0.181246
3998 4 0.403651 0.0713629 0.1812
4245 4 0.323145 0.0305375 0.237054
3997 2 0.425743 0.0648295 0.190918
4117 2 0.479842 0.0607126 0.211721
3999 4 0.447835 0.0582961 0.200636
4118 4 0.458059 0.0728212 0.209701
1031 4 0.0771384 0.115397 0.17781
1030 2 0.0801159 0.111477 0.202324
1164 4 0.0790178 0.113072 0.245246
1032 4 0.0830934 0.107558 0.226838
4430 4 0.996965 0.153412 0.241278
4224 4 0.134506 0.155061 0.188858
4222 2 0.136006 0.151658 0.164133
3066 4 0.396228 0.0914113 0.184183
3064 2 0.380446 0.10676 0.172328
2966 4 0.417931 0.146936 0.239793
1046 4 0.0577471 0.256491 0.188317
905 4 0.322291 0.208991 0.174436
801 4 0.385489 0.202098 0.168679
799 2 0.385041 0.225289 0.178014
800 4 0.384593 0.248481 0.187349
3675 4 0.48965 0.216107 0.178892
3294 4 0.487274 0.167882 0.219844
3292 2 0.487296 0.182242 0.199376
3293 4 0.487318 0.196603 0.178908
1169 4 0.071049 0.243684 0.191181
882 4 0.030003 0.312933 0.199741
880 2 0.0457129 0.305033 0.217517
881 4 0.0614227 0.297132 0.235292
884 4 0.0687399 0.281872 0.245375
2156 4 0.0148411 0.322508 0.19152
1170 4 0.119613 0.235149 0.199515
1168 2 0.0953308 0.239416 0.195348
2269 2 0.169419 0.304661 0.175728
2271 4 0.15769 0.305423 0.197797
860 4 0.141409 0.305899 0.207255
859 2 0.143419 0.315311 0.230332
861 4 0.14543 0.324722 0.253409
29 3 0.322937 0.245595 0.233436
979 2 0.250316 0.305756 0.178668
931 2 0.289049 0.298739 0.223653
932 4 0.275968 0.31062 0.205964
981 4 0.256864 0.312251 0.201908
933 4 0.302129 0.286857 0.241343
27 3 0.293119 0.267889 0.238583
3255 4 0.340517 0.252177 0.224107
3254 4 0.369613 0.291572 0.213998
3253 2 0.355065 0.271875 0.219052
1240 2 0.3755 0.313693 0.190376
1241 4 0.38149 0.306863 0.213671
1242 4 0.36951 0.320523 0.167081
3020 4 0.0441964 0.380665 0.194864
2155 2 0.0243191 0.345349 0.187832
3019 2 0.0448605 0.387325 0.218955
2157 4 0.0337971 0.368191 0.184144
3021 4 0.0455246 0.393984 0.243047
3993 4 0.116128 0.336108 0.172476
3991 2 0.11381 0.355421 0.188186
3992 4 0.111492 0.374735 0.203896
1967 4 0.332336 0.360204 0.223093
2048 4 0.323852 0.366723 0.239982
1966 2 0.342941 0.366845 0.201446
3598 2 0.389244 0.397044 0.18801
1968 4 0.353547 0.373486 0.179799
3600 4 0.36715 0.387616 0.181071
1059 4 0.490096 0.404069 0.158163
3599 4 0.411338 0.406471 0.19495
2044 2 0.497623 0.369191 0.176066
2045 4 0.490816 0.393225 0.174972
4187 4 0.16064 0.449209 0.156816
2891 4 0.160121 0.431302 0.24916
2169 4 0.291127 0.482619 0.242581
1060 2 0.0520065 0.0460163 0.290163
3954 4 0.0684849 0.00851315 0.304604
1062 4 0.0589219 0.0220967 0.292445
1061 4 0.0450912 0.0699359 0.28788
928 2 0.142778 0.0197601 0.246272
1882 2 0.143153 0.0530271 0.293782
1884 4 0.138232 0.0312839 0.28246
930 4 0.147903 0.0349215 0.265483
1883 4 0.148074 0.0747702 0.305105
1244 4 0.223959 0.0677805 0.257584
1243 2 0.217513 0.079343 0.278796
1877 4 0.317657 0.0689963 0.308156
4243 2 0.331298 0.0318933 0.260653
4244 4 0.339451 0.0332491 0.284251
1162 2 0.0657626 0.0994604 0.2615
4431 4 0.0199575 0.159465 0.285271
1163 4 0.0525074 0.0858491 0.277755
57 3 0.0205045 0.159097 0.305177
4429 2 0.00846133 0.156439 0.263275
83 3 0.166432 0.0813944 0.299376
1245 4 0.211068 0.0909055 0.300008
81 1 0.175811 0.0919528 0.317786
85 3 0.198191 0.0947112 0.314596
84 3 0.165687 0.112566 0.321106
1161 4 0.248143 0.13994 0.322199
1159 2 0.256815 0.125055 0.304077
1876 2 0.299186 0.0839349 0.300357
1160 4 0.265486 0.11017 0.285955
1878 4 0.280714 0.0988734 0.292558
2967 4 0.446426 0.141924 0.280581
2965 2 0.432178 0.14443 0.260187
1786 2 0.424277 0.136693 0.313634
1788 4 0.427847 0.140503 0.289182
59 3 0.0171881 0.194958 0.315929
56 1 0.0173216 0.172946 0.323266
2272 2 0.0421585 0.242749 0.319826
885 4 0.0408357 0.256233 0.278005
58 3 0.0346761 0.169721 0.338327
28 3 0.295551 0.23572 0.257867
1204 2 0.359613 0.241102 0.312931
1742 4 0.0117527 0.319025 0.291626
3234 4 0.0307899 0.325884 0.291228
883 2 0.0547878 0.269052 0.26169
2274 4 0.0438636 0.255487 0.298378
3232 2 0.030513 0.319073 0.315284
1028 4 0.156558 0.339 0.262102
26 1 0.307651 0.253438 0.249031
30 3 0.318536 0.264495 0.265701
891 4 0.314749 0.282591 0.258614
889 2 0.327517 0.300498 0.27051
1206 4 0.346703 0.24878 0.292942
890 4 0.340286 0.318404 0.282406
602 3 0.0276358 0.389961 0.251203
605 3 0.0196949 0.387166 0.287563
601 1 0.0290964 0.400444 0.271627
603 3 0.0514623 0.404134 0.276582
604 3 0.0177904 0.420675 0.2705
1847 4 0.107379 0.399791 0.313185
1846 2 0.0861032 0.40605 0.301639
1027 2 0.176287 0.353542 0.267049
1029 4 0.196016 0.368084 0.271995
1892 4 0.199428 0.385799 0.265154
1891 2 0.18874 0.405429 0.253947
2049 4 0.302194 0.373566 0.284533
874 2 0.311538 0.382217 0.320099
2047 2 0.313023 0.370145 0.262257
875 4 0.318241 0.371304 0.298625
815 4 0.506342 0.337617 0.32094
1848 4 0.0648269 0.412309 0.290092
3866 4 0.0187026 0.440568 0.276474
3865 2 0.00705078 0.46165 0.283183
1140 4 0.0679055 0.470113 0.322553
3822 4 0.151582 0.495007 0.264813
2892 4 0.159421 0.477359 0.268626
2890 2 0.159771 0.454331 0.258893
1893 4 0.178052 0.42506 0.242741
1037 4 0.196113 0.471574 0.308928
1036 2 0.217897 0.471949 0.321195
1130 4 0.453293 0.438673 0.302272
1129 2 0.449037 0.453797 0.321723
1131 4 0.444781 0.468921 0.341173
2857 2 0.999134 0.0877315 0.333261
1472 4 0.0359386 0.0798531 0.410136
90 3 0.166021 0.0207672 0.388653
1075 2 0.182122 0.0710078 0.370475
82 3 0.172365 0.0788909 0.336405
1077 4 0.179876 0.0568808 0.390982
87 3 0.198995 0.0110982 0.403219
86 1 0.180266 0.0241411 0.406098
89 3 0.186691 0.0464238 0.406878
1572 4 0.301833 0.00412408 0.413429
3182 4 0.298934 0.99999 0.394591
1099 2 0.36698 0.0133963 0.364755
1101 4 0.379859 0.0347289 0.366813
1286 4 0.390509 0.0411969 0.382145
1285 2 0.393495 0.0349757 0.406178
3668 4 0.471675 0.0593829 0.332997
3667 2 0.473066 0.0841988 0.335719
1226 4 0.46959 0.0467238 0.34913
1225 2 0.479647 0.0343788 0.368407
60 3 0.997426 0.167927 0.333146
400 3 0.00574932 0.101792 0.382781
826 2 0.0528046 0.136034 0.343834
398 3 0.0430357 0.106859 0.384086
827 4 0.0553773 0.113548 0.354462
2859 4 0.0160033 0.104635 0.325855
828 4 0.0502318 0.15852 0.333207
396 1 0.0230825 0.108841 0.395762
1854 4 0.0251129 0.14454 0.388998
397 3 0.0198857 0.130931 0.401327
399 3 0.0240172 0.0962595 0.415236
1143 4 0.157959 0.122285 0.337653
1141 2 0.161204 0.13851 0.356399
1076 4 0.184367 0.0851349 0.349967
1142 4 0.164448 0.154735 0.375145
920 4 0.264084 0.147099 0.331478
919 2 0.276325 0.166353 0.341706
2940 4 0.491962 0.14765 0.37797
3669 4 0.474458 0.109015 0.338442
2938 2 0.493417 0.131442 0.358986
2939 4 0.494871 0.115234 0.340003
1581 4 0.420552 0.146911 0.352066
1787 4 0.420707 0.132882 0.338086
1579 2 0.437277 0.160171 0.36509
1852 2 0.0317016 0.168611 0.390548
1853 4 0.0382904 0.192681 0.392098
20 3 0.0463667 0.204325 0.379082
16 1 0.0539947 0.22447 0.371691
18 3 0.0579023 0.223555 0.348837
2273 4 0.0404535 0.230011 0.341273
19 3 0.0735406 0.230113 0.38285
17 3 0.0381219 0.240583 0.375882
921 4 0.288567 0.185607 0.351935
848 4 0.296633 0.178384 0.369368
847 2 0.308854 0.197685 0.379532
849 4 0.321075 0.216985 0.389696
1857 4 0.322226 0.235378 0.398753
1205 4 0.372522 0.233425 0.33292
370 3 0.50018 0.190943 0.3832
366 1 0.484921 0.175184 0.38932
369 3 0.471625 0.169562 0.371154
1580 4 0.454002 0.17343 0.378114
1166 4 0.455294 0.186686 0.393291
1165 2 0.441784 0.203199 0.406328
367 3 0.471534 0.18367 0.405991
3233 4 0.0302362 0.312261 0.33934
1158 4 0.0242998 0.254034 0.368803
1157 4 0.0285564 0.302218 0.356119
1156 2 0.0264281 0.278126 0.362461
1020 4 0.0949879 0.334142 0.33825
843 4 0.155137 0.271172 0.336635
842 4 0.133527 0.295931 0.374327
1237 2 0.133831 0.309782 0.413593
1238 4 0.124882 0.297065 0.394013
841 2 0.144332 0.283552 0.355481
3152 4 0.172131 0.262271 0.331175
3153 4 0.21561 0.253461 0.354255
924 4 0.220331 0.268029 0.368905
3151 2 0.193871 0.257866 0.342715
922 2 0.23203 0.267368 0.390993
923 4 0.243729 0.266707 0.413081
1855 2 0.333506 0.257681 0.398029
1856 4 0.344786 0.279984 0.397305
3474 4 0.360257 0.285097 0.383721
3472 2 0.366385 0.309125 0.380512
3473 4 0.372513 0.333152 0.377302
1362 4 0.47628 0.316308 0.387477
1360 2 0.469694 0.33033 0.407102
1018 2 0.101088 0.347005 0.358805
1019 4 0.107189 0.359868 0.37936
2924 4 0.104217 0.379578 0.375159
2923 2 0.122177 0.389737 0.38928
2925 4 0.140138 0.399897 0.4034
876 4 0.304834 0.39313 0.341573
1193 4 0.375926 0.351483 0.386659
1192 2 0.394734 0.354886 0.402779
1194 4 0.413542 0.358289 0.4189
1950 4 0.423424 0.369241 0.406217
1948 2 0.437321 0.383475 0.421365
2853 4 0.0223259 0.429171 0.366521
1138 2 0.0454994 0.474309 0.332827
1139 4 0.0230933 0.478505 0.3431
3216 4 0.0137169 0.473179 0.389972
3214 2 0.029268 0.469486 0.409199
2238 4 0.164477 0.48945 0.39368
2846 4 0.146591 0.497475 0.390462
2845 2 0.128697 0.494455 0.407662
1038 4 0.239682 0.472324 0.333462
1982 4 0.256453 0.477034 0.342555
1981 2 0.279222 0.48706 0.345046
350 3 0.345351 0.48369 0.34875
4012 2 0.424433 0.498346 0.351235
4013 4 0.429988 0.474104 0.353819
3039 4 0.482447 0.459972 0.351853
4761 4 0.00829499 0.0157572 0.449934
3921 4 0.999015 0.0270448 0.435937
1473 4 0.0548169 0.04734 0.443109
3438 4 0.046383 0.0431695 0.486582
1471 2 0.0453777 0.0635966 0.426623
3353 4 0.104929 0.0751519 0.47354
88 3 0.169955 0.018169 0.426009
1323 4 0.179856 0.0614507 0.416938
1321 2 0.192442 0.0822689 0.422718
1570 2 0.292728 0.0227228 0.427442
1571 4 0.283623 0.0413215 0.441454
40 3 0.287026 0.0479753 0.460423
36 1 0.282411 0.0632365 0.476685
37 3 0.262587 0.0738093 0.471749
39 3 0.280323 0.0525728 0.497187
1287 4 0.396482 0.0287544 0.43021
2305 2 0.36728 0.00221076 0.44617
2307 4 0.380537 0.0217787 0.438013
3775 2 0.0516092 0.133958 0.475384
3777 4 0.0314838 0.120662 0.468799
3776 4 0.0717345 0.147254 0.481969
3352 2 0.110264 0.089756 0.453958
3354 4 0.115599 0.10436 0.434377
840 4 0.122503 0.122314 0.437387
838 2 0.14594 0.130754 0.439545
839 4 0.169377 0.139195 0.441703
172 3 0.209136 0.122294 0.422901
4467 4 0.175352 0.156392 0.430926
1322 4 0.205027 0.103087 0.428497
1231 2 0.219562 0.124288 0.491104
1232 4 0.219076 0.14114 0.472639
173 3 0.194183 0.156544 0.426901
171 1 0.201363 0.1376 0.438213
174 3 0.183679 0.128183 0.449917
175 3 0.218175 0.143035 0.452582
38 3 0.299322 0.079093 0.47769
21 1 0.49279 0.138837 0.48306
23 3 0.483545 0.123656 0.497975
25 3 0.476544 0.14733 0.469547
24 3 0.503207 0.156012 0.494675
779 4 0.0729266 0.167215 0.485469
778 2 0.0938641 0.18075 0.487374
2209 2 0.14008 0.204573 0.473678
2211 4 0.150215 0.204302 0.450822
4466 4 0.160176 0.20398 0.433331
4465 2 0.167764 0.180186 0.432128
997 2 0.322949 0.229909 0.484432
999 4 0.312645 0.245903 0.468208
998 4 0.333252 0.213915 0.500656
1499 4 0.493421 0.21538 0.452487
1167 4 0.428274 0.219712 0.419365
1536 4 0.438408 0.226861 0.435823
1534 2 0.442009 0.222526 0.460184
1535 4 0.445611 0.218192 0.484544
1039 2 0.132804 0.307626 0.49612
1041 4 0.140509 0.329698 0.487253
1239 4 0.14278 0.322499 0.433173
1052 4 0.242779 0.28193 0.427071
4254 4 0.288948 0.318293 0.464335
1053 4 0.280116 0.3032 0.452649
1051 2 0.261447 0.292565 0.43986
1361 4 0.463108 0.344353 0.426728
2595 4 0.126585 0.338525 0.499211
1593 4 0.117767 0.396533 0.504183
2593 2 0.115257 0.360789 0.498118
2594 4 0.103929 0.383052 0.497025
4252 2 0.30125 0.323005 0.485587
902 4 0.260989 0.358189 0.492171
3513 4 0.272542 0.383797 0.416774
4253 4 0.313552 0.327716 0.506839
3512 4 0.284433 0.388198 0.465147
3511 2 0.278488 0.385997 0.44096
1949 4 0.451217 0.397709 0.436513
1115 4 0.459334 0.416374 0.436766
2218 2 0.44525 0.348592 0.465066
2220 4 0.44091 0.346962 0.489636
2219 4 0.44959 0.350223 0.440496
3809 4 0.495617 0.365963 0.484464
1090 2 0.0826584 0.486046 0.438429
1091 4 0.0604237 0.475844 0.433261
3215 4 0.044819 0.465792 0.428427
1092 4 0.104893 0.496249 0.443596
2847 4 0.110802 0.491436 0.424862
1591 2 0.112439 0.42044 0.499158
2084 4 0.299538 0.480406 0.438203
2083 2 0.310396 0.463572 0.453165
2085 4 0.321255 0.446738 0.468128
4707 4 0.287576 0.495188 0.441447
1352 4 0.305806 0.445527 0.481709
1454 4 0.424917 0.494113 0.504588
1116 4 0.446443 0.45964 0.458275
1453 2 0.43422 0.474984 0.491445
1455 4 0.443523 0.455855 0.478303
1114 2 0.452889 0.438007 0.44752
3437 4 0.00808121 0.0583027 0.514949
2367 4 0.00626848 0.0059479 0.549046
3436 2 0.0272321 0.0507361 0.500766
2655 4 0.0128001 0.0150758 0.564491
758 4 0.0624929 0.0543224 0.486361
757 2 0.0814006 0.0384956 0.490507
3107 4 0.116095 0.0109117 0.499872
3106 2 0.123983 0.993225 0.515687
759 4 0.100308 0.0226689 0.494654
1496 4 0.291412 0.0512127 0.557821
1495 2 0.287344 0.0447227 0.534019
1497 4 0.283276 0.0382327 0.510218
64 3 0.27127 0.0498184 0.560715
62 3 0.25067 0.0768078 0.576835
61 1 0.263053 0.0578476 0.580875
1427 4 0.0287317 0.143602 0.563755
1426 2 0.0226575 0.150111 0.54039
3563 4 0.0326801 0.124709 0.566514
3562 2 0.0382896 0.109379 0.585453
1428 4 0.0165833 0.15662 0.517025
1701 4 0.240031 0.0785266 0.560506
1700 4 0.228437 0.0896201 0.513144
1699 2 0.234234 0.0840734 0.536825
1233 4 0.220047 0.107437 0.50957
4523 4 0.188922 0.137865 0.583966
148 3 0.323407 0.0913408 0.557178
146 1 0.319493 0.0978277 0.579109
150 3 0.339265 0.100195 0.590159
2555 4 0.446045 0.148837 0.593171
3238 2 0.495874 0.0935221 0.526711
3240 4 0.493335 0.106716 0.505624
3390 4 0.0171484 0.187368 0.583551
2895 4 0.0027874 0.182065 0.570646
3388 2 0.0275987 0.209428 0.588966
2210 4 0.129946 0.204844 0.496534
869 4 0.119016 0.220776 0.501731
868 2 0.117517 0.244825 0.508409
780 4 0.114802 0.194284 0.489278
2828 4 0.347953 0.223358 0.509825
1696 2 0.375788 0.184363 0.575789
1698 4 0.356207 0.196819 0.566483
2829 4 0.34659 0.192861 0.549433
2827 2 0.347272 0.208109 0.529629
518 3 0.448843 0.18886 0.553113
516 1 0.454393 0.183888 0.575087
2941 2 0.446797 0.20373 0.518718
2943 4 0.4361 0.198887 0.540793
520 3 0.476377 0.18854 0.578792
2942 4 0.457494 0.208573 0.496643
870 4 0.116019 0.268874 0.515087
1040 4 0.125099 0.285554 0.504987
3687 4 0.0227519 0.415581 0.538566
3754 2 0.00939365 0.389943 0.510875
3756 4 0.0240899 0.397027 0.529823
1354 2 0.150904 0.35617 0.574483
1356 4 0.165101 0.359755 0.554215
3485 4 0.174455 0.368668 0.539487
3484 2 0.176289 0.368819 0.514551
901 2 0.251089 0.369808 0.511975
903 4 0.241189 0.381426 0.531778
1107 4 0.228869 0.391714 0.542447
1105 2 0.247828 0.403568 0.553638
3486 4 0.178123 0.36897 0.489615
1145 4 0.301886 0.337842 0.518707
1144 2 0.29425 0.338739 0.542499
162 3 0.295137 0.356363 0.570928
1146 4 0.286614 0.339636 0.566291
163 3 0.328674 0.358698 0.587735
1614 4 0.442802 0.357709 0.574721
1612 2 0.450889 0.381172 0.577765
4241 4 0.439595 0.358099 0.554967
4240 2 0.43998 0.34926 0.531581
4242 4 0.440365 0.340421 0.508195
3685 2 0.0336017 0.436489 0.546952
3686 4 0.0444516 0.457397 0.555337
4372 2 0.0402161 0.488092 0.572108
4373 4 0.0366395 0.463379 0.573397
1592 4 0.107111 0.444347 0.494134
3542 4 0.107866 0.457132 0.510996
3541 2 0.118139 0.477128 0.521943
3543 4 0.128412 0.497124 0.532889
10 3 0.208546 0.443153 0.573368
9 3 0.202724 0.47598 0.555872
7 3 0.237389 0.465711 0.566147
6 1 0.215164 0.464903 0.572026
1652 4 0.256821 0.474191 0.570031
1106 4 0.266787 0.415422 0.564829
1353 4 0.308858 0.451275 0.531291
1653 4 0.297131 0.463647 0.542378
1351 2 0.307332 0.448401 0.5065
1651 2 0.276976 0.468919 0.556204
2653 2 0.023717 0.0045575 0.584375
1683 4 0.232174 0.0480439 0.599461
1682 4 0.19065 0.0670707 0.61982
1681 2 0.211412 0.0575573 0.609641
63 3 0.249377 0.0419215 0.590761
65 3 0.280318 0.0629913 0.594807
1480 2 0.297378 0.000354032 0.614827
1482 4 0.272951 0.00546356 0.613271
1532 4 0.322323 0.0695556 0.66174
2496 4 0.277617 0.0739518 0.613092
2494 2 0.29531 0.0771092 0.630475
147 3 0.306889 0.0816407 0.589515
2495 4 0.313003 0.0802666 0.647858
214 3 0.36141 0.0113638 0.619091
102 3 0.389394 0.0705326 0.631563
101 1 0.402445 0.0664651 0.650064
1136 4 0.40504 0.0342534 0.666995
104 3 0.422029 0.0787802 0.648284
103 3 0.407384 0.0438097 0.650926
3564 4 0.0438991 0.0940486 0.604393
3330 4 0.0541073 0.105161 0.618649
3328 2 0.0476372 0.0933434 0.639713
4524 4 0.189844 0.0909162 0.601161
4522 2 0.189383 0.114391 0.592564
130 3 0.206939 0.164465 0.665407
149 3 0.307771 0.11785 0.579476
2371 2 0.311331 0.146354 0.603501
2373 4 0.321304 0.129169 0.588323
1667 4 0.341359 0.122012 0.588928
1668 4 0.387961 0.126746 0.606436
1666 2 0.36466 0.124379 0.597682
2556 4 0.405851 0.130038 0.61623
517 3 0.450653 0.161499 0.578818
2554 2 0.425948 0.139438 0.6047
1334 4 0.47416 0.12178 0.648768
1333 2 0.474332 0.140661 0.665158
1546 2 0.496505 0.0942572 0.642661
1547 4 0.480597 0.104802 0.658815
3046 2 0.0505751 0.233138 0.635883
3047 4 0.0405747 0.226096 0.614075
3389 4 0.038049 0.231488 0.594381
3048 4 0.0605755 0.24018 0.657691
1690 2 0.158607 0.243691 0.667215
1691 4 0.135741 0.251212 0.660451
1309 2 0.106641 0.237664 0.652327
129 3 0.242021 0.161631 0.652033
126 1 0.222567 0.174278 0.652062
127 3 0.227354 0.195266 0.660172
128 3 0.214386 0.176277 0.630441
1569 4 0.215914 0.192082 0.617235
1567 2 0.212072 0.21678 0.617882
1568 4 0.20823 0.241478 0.61853
2413 2 0.2232 0.23015 0.669405
2414 4 0.218536 0.253788 0.662721
1178 4 0.254107 0.175177 0.643756
1177 2 0.276523 0.178916 0.633327
2372 4 0.301358 0.16354 0.618679
1179 4 0.298938 0.182654 0.622899
1560 4 0.319731 0.214224 0.643215
528 3 0.314664 0.230342 0.653712
1558 2 0.340461 0.200363 0.641392
1697 4 0.395369 0.171907 0.585096
1559 4 0.361191 0.186501 0.63957
2268 4 0.377648 0.187786 0.651945
3507 4 0.491638 0.199392 0.587428
1386 4 0.432281 0.206186 0.603835
519 3 0.441135 0.196226 0.589592
1384 2 0.439875 0.226434 0.616386
1385 4 0.44747 0.246682 0.628936
1311 4 0.131119 0.234815 0.648095
1341 4 0.222997 0.273205 0.660652
1339 2 0.244556 0.280953 0.650632
526 1 0.318228 0.248636 0.667534
1340 4 0.266114 0.288701 0.640613
1617 4 0.268613 0.30201 0.625654
1615 2 0.278825 0.324815 0.624749
529 3 0.299927 0.262877 0.666703
530 3 0.337018 0.259742 0.661036
1616 4 0.289037 0.34762 0.623844
2780 4 0.45922 0.262497 0.627796
2779 2 0.447719 0.2809 0.640215
2781 4 0.436217 0.299302 0.652634
1355 4 0.136707 0.352584 0.59475
1288 2 0.129865 0.369202 0.631368
1290 4 0.124942 0.369701 0.655877
1289 4 0.134788 0.368704 0.606859
3429 4 0.203291 0.343036 0.597331
3428 4 0.232306 0.377784 0.618577
3427 2 0.217799 0.36041 0.607954
161 1 0.30575 0.360297 0.590954
164 3 0.30025 0.381609 0.598298
165 3 0.298948 0.344822 0.606215
1602 4 0.270428 0.3998 0.652942
1601 4 0.284417 0.390644 0.605813
1600 2 0.277423 0.395222 0.629378
1470 4 0.284362 0.388029 0.65865
1704 4 0.392159 0.396448 0.645198
1702 2 0.39573 0.415499 0.629403
3804 4 0.488587 0.331753 0.616366
1613 4 0.458977 0.404635 0.580808
1575 4 0.462529 0.401403 0.601452
3025 2 0.0110291 0.426334 0.625595
3027 4 0.0316675 0.425436 0.639682
3368 4 0.0220064 0.419869 0.655805
3026 4 0.990391 0.427232 0.611508
2069 4 0.0364144 0.488829 0.645767
2562 4 0.136234 0.469705 0.598351
2560 2 0.131867 0.448778 0.611319
2561 4 0.1275 0.427852 0.624288
3572 4 0.12114 0.430249 0.643121
2567 4 0.142188 0.488572 0.603196
8 3 0.212465 0.475284 0.592602
4435 2 0.254126 0.475917 0.672246
2528 4 0.397219 0.483559 0.587508
2527 2 0.406893 0.46428 0.600154
2529 4 0.416568 0.445002 0.6128
1703 4 0.3993 0.434551 0.613608
1573 2 0.469968 0.422338 0.612922
1574 4 0.477407 0.443273 0.624392
3862 2 0.44319 0.48437 0.658605
3864 4 0.422454 0.481928 0.644849
462 3 0.028894 0.0584428 0.703515
1324 2 0.0533277 0.0465287 0.738422
1326 4 0.0409105 0.0513118 0.717253
464 3 0.00887107 0.0892094 0.695443
461 1 0.0302488 0.0809901 0.699164
1946 4 0.202104 0.0557172 0.715487
1945 2 0.222469 0.0511711 0.729264
1947 4 0.242833 0.0466249 0.743041
944 4 0.25212 0.0301416 0.737978
943 2 0.257831 0.00580273 0.737556
1533 4 0.33204 0.0388418 0.699988
1531 2 0.327181 0.0541987 0.680864
105 3 0.391051 0.0726514 0.668788
109 3 0.398189 0.0598125 0.747069
1524 4 0.390248 0.0574485 0.728865
1522 2 0.39539 0.0692242 0.707416
1523 4 0.400532 0.081 0.685966
1135 2 0.407593 0.0131885 0.680221
1301 4 0.475584 0.0492864 0.689861
487 3 0.481781 0.0305518 0.692427
1300 2 0.468873 0.0602201 0.711322
1302 4 0.462161 0.0711539 0.732783
460 3 0.460134 0.0692716 0.75221
3329 4 0.0411671 0.081526 0.660776
465 3 0.0396235 0.0915299 0.717043
463 3 0.0433693 0.0842141 0.680299
1629 4 0.0446612 0.0949427 0.736224
1627 2 0.0628777 0.110436 0.743523
2872 2 0.0240408 0.164429 0.707137
2873 4 0.0404587 0.145573 0.7074
1494 4 0.083193 0.138797 0.735269
1628 4 0.0810943 0.12593 0.750822
1492 2 0.104576 0.140784 0.722463
1493 4 0.125959 0.14277 0.709656
2775 4 0.201475 0.15151 0.680186
2773 2 0.211666 0.150873 0.703009
2774 4 0.221857 0.150236 0.725833
322 3 0.237898 0.139416 0.731098
324 3 0.272194 0.152547 0.723098
321 1 0.25602 0.150724 0.739635
1335 4 0.474503 0.159542 0.681549
1310 4 0.0821635 0.240512 0.656558
695 3 0.0449421 0.23299 0.6746
693 3 0.0689877 0.219648 0.700318
691 1 0.0622385 0.238378 0.688401
692 3 0.0799263 0.245936 0.675785
2874 4 0.00762282 0.183286 0.706874
1603 2 0.178757 0.237778 0.717791
1605 4 0.176533 0.238752 0.692906
2415 4 0.227863 0.206512 0.676088
1604 4 0.18098 0.236803 0.742677
1692 4 0.181473 0.23617 0.673979
325 3 0.24943 0.171454 0.746378
2266 2 0.387861 0.198588 0.67205
2267 4 0.398073 0.20939 0.692154
3494 4 0.40876 0.213482 0.709005
3493 2 0.407022 0.237875 0.714218
858 4 0.475096 0.179098 0.687342
856 2 0.464582 0.179023 0.710027
857 4 0.454067 0.178948 0.732712
2960 4 0.446679 0.177046 0.750198
3127 2 0.00397006 0.316379 0.674955
3128 4 0.026781 0.307328 0.670167
694 3 0.0557504 0.255169 0.703042
1479 4 0.0717442 0.265004 0.71281
1477 2 0.0727417 0.288258 0.721943
1478 4 0.0737391 0.311512 0.731077
1346 4 0.0714372 0.307801 0.750867
527 3 0.320903 0.241219 0.689144
1662 4 0.399496 0.268501 0.701537
3495 4 0.405284 0.262267 0.71943
1661 4 0.425656 0.294626 0.667865
1660 2 0.412576 0.281564 0.684701
1516 2 0.99777 0.369281 0.741665
3369 4 0.0451961 0.422575 0.700028
1295 4 0.125505 0.377494 0.67459
1294 2 0.134533 0.379359 0.697832
2814 4 0.162704 0.375869 0.725556
1296 4 0.143561 0.381224 0.721074
2812 2 0.16366 0.357915 0.742932
1718 4 0.234497 0.382783 0.731828
2426 4 0.194089 0.420094 0.714446
1719 4 0.190966 0.407357 0.730458
1717 2 0.212732 0.39507 0.731143
2460 4 0.245421 0.388157 0.747006
1468 2 0.291423 0.382308 0.681944
1469 4 0.298484 0.376587 0.705237
4549 2 0.461239 0.398076 0.724538
4551 4 0.461647 0.393838 0.749176
4550 4 0.46083 0.402314 0.699899
1446 4 0.466138 0.40906 0.68172
3465 4 0.064473 0.434665 0.750305
3367 2 0.0336013 0.421222 0.677917
3463 2 0.0638152 0.430755 0.725618