ITEM: TIMESTEP
1970000
ITEM: NUMBER OF ATOMS
4590
ITEM: BOX BOUNDS pp pp pp
-9.9985700000000008e+00 9.9985700000000008e+00
-9.9985700000000008e+00 9.9985700000000008e+00
-9.9985700000000008e+00 9.9985700000000008e+00
ITEM: ATOMS id type xs ys zs
393 4 0.00416268 0.0806462 0.0578583
391 2 0.0147929 0.0677955 0.0764872
579 4 0.0899576 0.0519321 0.0730474
577 2 0.0880556 0.0272509 0.0765688
995 4 0.1659 0.0645948 0.0277655
994 2 0.165268 0.087062 0.0168109
1329 4 0.174313 0.0615349 0.0458229
1327 2 0.176446 0.0494734 0.0676209
2069 4 0.273283 0.999324 0.0520397
629 4 0.391542 0.0595856 0.0854944
3836 4 0.495797 0.0437341 0.00375895
1286 4 0.0418393 0.160938 0.00292409
1073 4 0.0587113 0.164336 0.0122194
1072 2 0.0748554 0.170236 0.0303782
465 4 0.0816974 0.0966157 0.0126842
18 3 0.1285 0.152066 0.0699939
463 2 0.100334 0.103598 0.997549
996 4 0.164637 0.109529 0.00585623
360 4 0.229598 0.137857 0.00964977
1253 4 0.234177 0.157131 0.0120156
358 2 0.253029 0.129342 0.0115755
359 4 0.276459 0.120828 0.0135013
581 4 0.291403 0.107469 0.0193122
580 2 0.308584 0.116937 0.00380931
746 4 0.362904 0.0890008 0.0395433
745 2 0.375489 0.107172 0.0278554
747 4 0.388074 0.125343 0.0161675
770 4 0.401591 0.139387 0.0224649
769 2 0.408538 0.162929 0.0272245
1074 4 0.0909996 0.176135 0.048537
19 3 0.125536 0.17762 0.0420182
16 1 0.120399 0.173016 0.0641726
17 3 0.0975322 0.173106 0.0666775
20 3 0.129491 0.188903 0.0777211
701 4 0.198637 0.209493 0.0150813
1254 4 0.21768 0.204336 0.0115418
1252 2 0.225928 0.180733 0.0117787
700 2 0.187566 0.231682 0.0118814
53 3 0.228199 0.22196 0.0571114
51 1 0.248129 0.212851 0.0647431
54 3 0.244128 0.199403 0.0832241
15 3 0.312927 0.231713 0.0720867
55 3 0.262674 0.229489 0.070243
11 1 0.32592 0.247838 0.0626099
52 3 0.257305 0.199983 0.0480294
623 4 0.299929 0.268627 0.0342584
12 3 0.342426 0.237867 0.0500687
567 4 0.358505 0.225991 0.0451151
565 2 0.379692 0.212816 0.043477
566 4 0.40088 0.199642 0.0418389
771 4 0.415485 0.186472 0.031984
286 2 0.103393 0.302641 0.00215964
288 4 0.12607 0.299548 0.0122272
293 4 0.140025 0.284808 0.0177975
292 2 0.158361 0.284935 0.034797
294 4 0.176696 0.285062 0.0517965
506 4 0.170768 0.303879 0.0580273
702 4 0.176494 0.253871 0.00868145
505 2 0.190427 0.313673 0.0699769
507 4 0.210085 0.323467 0.0819266
622 2 0.296062 0.273016 0.0099486
14 3 0.313032 0.261253 0.0487411
242 4 0.315128 0.333912 0.0610487
241 2 0.327471 0.313503 0.0535456
13 3 0.33583 0.260752 0.0791453
243 4 0.339815 0.293094 0.0460426
664 2 0.382808 0.297318 0.0384267
666 4 0.359048 0.289531 0.0384519
665 4 0.406568 0.305105 0.0384015
518 4 0.409096 0.30988 0.0582064
517 2 0.43141 0.304466 0.0681055
519 4 0.453723 0.299053 0.0780045
535 2 0.0169703 0.366737 0.038122
536 4 0.0154014 0.373943 0.0142306
537 4 0.0185393 0.359531 0.0620133
657 4 0.0180795 0.365363 0.0814506
252 4 0.0684428 0.396101 0.0540003
330 4 0.0313764 0.368376 0.00296795
250 2 0.0791235 0.411974 0.0700987
627 4 0.298141 0.340497 0.0692463
3211 2 0.324665 0.369483 0.0142728
3213 4 0.346911 0.372566 0.0252631
2386 2 0.381097 0.402185 0.0270297
2388 4 0.363753 0.384201 0.0280038
1069 2 0.485263 0.387415 0.0130122
1071 4 0.492374 0.406856 0.0270355
1070 4 0.478153 0.367973 0.998989
1674 4 0.485545 0.422165 0.0390584
1222 2 0.16236 0.476416 0.0147766
291 4 0.101218 0.444403 0.0844729
1224 4 0.180144 0.486213 0.0293688
1288 2 0.221174 0.496626 0.0297523
1290 4 0.198325 0.489525 0.0370098
789 4 0.250025 0.421367 0.01604
2387 4 0.39844 0.420169 0.0260556
40 3 0.409704 0.422624 0.00936628
659 4 0.486061 0.47285 0.0607085
525 4 0.492401 0.491235 0.0536079
392 4 0.0254232 0.0549449 0.0951161
590 4 0.0721311 0.0897546 0.133373
692 4 0.0884505 0.0826051 0.144826
578 4 0.0861535 0.0025697 0.0800901
1328 4 0.178579 0.037412 0.0894189
2163 4 0.32491 0.0126934 0.0914973
462 4 0.266354 0.0206284 0.111699
460 2 0.26432 0.0451424 0.116183
461 4 0.262287 0.0696564 0.120667
2161 2 0.300033 0.0114021 0.0936539
2162 4 0.275156 0.0101108 0.0958105
653 4 0.339361 0.0190967 0.104516
652 2 0.349397 0.0384487 0.116762
654 4 0.359433 0.0578007 0.129008
25 3 0.367187 0.0482055 0.143961
2723 4 0.40227 0.0281095 0.159258
2722 2 0.404277 0.0185672 0.136234
2724 4 0.406284 0.00902498 0.11321
1109 4 0.407108 0.0480506 0.090219
628 2 0.38167 0.0817059 0.0916926
23 3 0.380746 0.0739794 0.167826
1606 2 0.4699 0.00679448 0.0947868
1607 4 0.46975 0.0317232 0.0967146
1110 4 0.456092 0.0451014 0.0998379
1108 2 0.4316 0.046576 0.0950284
591 4 0.0465425 0.108186 0.0945633
589 2 0.0593368 0.0989704 0.113968
691 2 0.0847613 0.0977877 0.164347
423 4 0.227874 0.136067 0.121051
421 2 0.212107 0.137722 0.140386
422 4 0.19634 0.139378 0.159721
237 4 0.237172 0.118834 0.115434
236 4 0.26766 0.0804687 0.105468
235 2 0.252416 0.0996513 0.110451
630 4 0.371798 0.103826 0.0978908
557 4 0.36651 0.119226 0.108801
556 2 0.364683 0.144018 0.111475
558 4 0.362857 0.168811 0.11415
332 4 0.493686 0.0872024 0.158338
331 2 0.471611 0.0989398 0.158608
333 4 0.449535 0.110677 0.158877
448 2 0.0815771 0.237623 0.110447
450 4 0.0898608 0.214903 0.116797
2760 4 0.125999 0.203885 0.0902307
2758 2 0.135578 0.212796 0.111538
2759 4 0.145156 0.221707 0.132846
381 4 0.134534 0.225898 0.14841
379 2 0.147966 0.24324 0.16041
867 4 0.233276 0.19988 0.0996229
865 2 0.215662 0.213743 0.110702
866 4 0.198049 0.227606 0.121782
2517 4 0.42408 0.239841 0.159468
2895 4 0.485108 0.18905 0.152521
2937 4 0.47356 0.195225 0.138612
2935 2 0.455575 0.211889 0.143513
2936 4 0.43759 0.228554 0.148414
449 4 0.0732933 0.260344 0.104097
362 4 0.0553167 0.26806 0.0981922
361 2 0.0430611 0.280152 0.116324
363 4 0.0308054 0.292244 0.134456
602 4 0.00696399 0.323318 0.164095
956 4 0.227276 0.328446 0.0896095
955 2 0.242162 0.311276 0.100038
509 4 0.214317 0.29149 0.151772
750 4 0.221627 0.271346 0.152127
508 2 0.203222 0.313185 0.146164
748 2 0.200562 0.261914 0.161745
957 4 0.257048 0.294105 0.110468
357 4 0.258468 0.293471 0.130029
355 2 0.272823 0.279435 0.144932
356 4 0.287178 0.265399 0.159835
353 4 0.307203 0.266274 0.156916
387 4 0.321464 0.271993 0.0885746
352 2 0.330018 0.267643 0.167052
385 2 0.335984 0.272983 0.108907
386 4 0.350503 0.273974 0.129239
495 4 0.354338 0.293117 0.130811
493 2 0.355881 0.313019 0.145868
526 2 0.482984 0.305837 0.0968293
528 4 0.458008 0.306895 0.0963189
655 2 0.0095771 0.342692 0.0876857
396 4 0.0610562 0.398452 0.129004
620 4 0.0542109 0.39646 0.148829
394 2 0.0413462 0.407224 0.116365
754 2 0.103988 0.403746 0.145085
755 4 0.0867352 0.400076 0.162806
307 2 0.164907 0.350762 0.163769
756 4 0.121241 0.407415 0.127363
510 4 0.192128 0.334879 0.140556
309 4 0.17238 0.340017 0.142464
625 2 0.301298 0.350929 0.091749
626 4 0.304455 0.361362 0.114252
446 4 0.317072 0.373144 0.127699
445 2 0.333232 0.362877 0.14378
447 4 0.349392 0.352609 0.159862
494 4 0.357424 0.332922 0.160924
596 4 0.430214 0.367283 0.112854
595 2 0.447171 0.366712 0.13122
597 4 0.464128 0.366141 0.149586
395 4 0.0216361 0.415995 0.103725
2786 4 0.0121259 0.425786 0.117944
251 4 0.0898042 0.427847 0.086197
289 2 0.114341 0.463157 0.0945339
290 4 0.127464 0.481912 0.104595
1779 4 0.144605 0.490185 0.112279
1778 4 0.191393 0.503863 0.101118
1777 2 0.167999 0.497024 0.106698
283 2 0.292659 0.466705 0.0999545
285 4 0.280605 0.456001 0.0808415
284 4 0.304712 0.47741 0.119068
273 4 0.325017 0.484271 0.117051
271 2 0.341495 0.493249 0.100527
658 2 0.475766 0.469716 0.0832779
660 4 0.465471 0.466583 0.105847
1575 4 0.449464 0.455485 0.106873
1573 2 0.447694 0.465852 0.129557
1574 4 0.445924 0.476218 0.152242
1584 4 0.435484 0.492624 0.155575
1416 4 0.0491114 0.0136531 0.228537
1414 2 0.068675 0.00433964 0.216058
731 4 0.0854616 0.0235801 0.243869
571 2 0.31738 0.0441622 0.183416
573 4 0.296258 0.0428262 0.196731
744 4 0.328988 0.0196738 0.237067
1497 4 0.315895 0.00535437 0.239626
24 3 0.389727 0.0372963 0.172079
21 1 0.373146 0.0521709 0.165581
572 4 0.338501 0.0454982 0.170101
22 3 0.354804 0.0492531 0.179153
742 2 0.351518 0.0168148 0.226607
743 4 0.374047 0.0139558 0.216147
759 4 0.387216 0.00298927 0.204394
703 2 0.0670421 0.142012 0.209828
704 4 0.0595801 0.152935 0.231045
428 4 0.0442987 0.164133 0.235311
2615 4 0.0382963 0.162925 0.177197
705 4 0.074504 0.131089 0.18861
693 4 0.0810721 0.11297 0.183868
544 2 0.165372 0.128234 0.249203
546 4 0.184681 0.13133 0.233622
476 4 0.211908 0.130216 0.169821
477 4 0.196221 0.128976 0.217288
475 2 0.204065 0.129596 0.193554
311 4 0.391741 0.0902097 0.167786
310 2 0.415885 0.0957405 0.1712
312 4 0.440029 0.101271 0.174614
2614 2 0.0190091 0.178779 0.175846
388 2 0.0908657 0.245753 0.224687
389 4 0.103697 0.231781 0.208399
749 4 0.179498 0.252482 0.171362
2515 2 0.410528 0.241355 0.180426
2516 4 0.396975 0.242869 0.201383
2837 4 0.500686 0.250045 0.222619
364 2 0.0494666 0.298284 0.225716
365 4 0.0490293 0.305397 0.20175
601 2 0.0264419 0.310737 0.173449
603 4 0.0459197 0.298155 0.182803
366 4 0.0499039 0.291172 0.249683
380 4 0.161398 0.260582 0.172409
502 2 0.234117 0.323638 0.235456
401 4 0.260987 0.276933 0.228149
28 3 0.378017 0.248282 0.207703
354 4 0.352834 0.269012 0.177189
30 3 0.358897 0.276658 0.223416
26 1 0.375037 0.271286 0.208273
29 3 0.394978 0.28172 0.213919
27 3 0.368538 0.278462 0.187406
2838 4 0.454549 0.268306 0.22883
2836 2 0.477618 0.259175 0.225724
619 2 0.0508258 0.398804 0.173491
339 4 0.047761 0.380912 0.200917
337 2 0.0558136 0.367544 0.220453
338 4 0.0638662 0.354177 0.239989
621 4 0.0474408 0.401147 0.198153
308 4 0.157435 0.361507 0.185074
768 4 0.171071 0.362125 0.201054
766 2 0.193294 0.354914 0.209959
767 4 0.215517 0.347702 0.218865
504 4 0.222208 0.329714 0.214327
612 4 0.38135 0.345899 0.231495
588 4 0.375731 0.368309 0.168986
611 4 0.38252 0.355975 0.182528
610 2 0.381935 0.350937 0.207012
586 2 0.376926 0.393283 0.168781
2652 4 0.459796 0.367004 0.169867
2650 2 0.482497 0.356572 0.170881
587 4 0.37812 0.418257 0.168575
435 4 0.38363 0.433799 0.179868
434 4 0.392252 0.469994 0.213279
433 2 0.387941 0.451897 0.196574
1436 4 0.373843 0.474909 0.220292
1435 2 0.361673 0.48888 0.237082
1582 2 0.448035 0.504549 0.173616
1421 4 0.0440816 0.0188859 0.247959
316 2 0.00646473 0.060009 0.307865
318 4 0.0202576 0.0783617 0.31777
1420 2 0.0428793 0.0058339 0.269252
730 2 0.102389 0.0175051 0.26124
1403 4 0.131152 0.999323 0.268637
732 4 0.119315 0.0114301 0.278611
763 2 0.224678 0.0403345 0.287688
764 4 0.204202 0.0363127 0.301463
765 4 0.245154 0.0443563 0.273913
606 4 0.198015 0.996247 0.330834
1701 4 0.263871 0.0510491 0.268592
1700 4 0.31373 0.0492545 0.272001
1699 2 0.2888 0.0501518 0.270296
468 4 0.327101 0.0491823 0.285809
466 2 0.343903 0.0647662 0.275809
467 4 0.360705 0.0803501 0.265808
427 2 0.0333321 0.152385 0.254465
529 2 0.0314853 0.113986 0.32636
530 4 0.0359254 0.0908073 0.3181
2849 4 0.0300175 0.149371 0.320148
429 4 0.0223655 0.140636 0.273619
513 4 0.010744 0.146807 0.288547
545 4 0.146063 0.125138 0.264783
939 4 0.129671 0.136269 0.263916
937 2 0.127291 0.149875 0.284758
632 4 0.356025 0.100826 0.26143
633 4 0.388128 0.131641 0.284246
631 2 0.372076 0.116234 0.272838
708 4 0.403841 0.119443 0.286547
498 4 0.368505 0.160349 0.255586
488 4 0.488499 0.165186 0.299744
706 2 0.42858 0.11815 0.28316
707 4 0.453319 0.116857 0.279772
489 4 0.47352 0.120839 0.282143
487 2 0.481009 0.143012 0.290944
2848 2 0.0225306 0.172759 0.324854
299 4 0.0683563 0.244997 0.307493
2850 4 0.0150436 0.196146 0.329559
938 4 0.124912 0.163482 0.3056
261 4 0.143531 0.169448 0.306959
259 2 0.161333 0.17524 0.323533
371 4 0.0883092 0.240017 0.309092
370 2 0.0951603 0.242113 0.333047
277 2 0.321276 0.236695 0.260906
274 2 0.318941 0.243243 0.318733
275 4 0.298336 0.242692 0.332887
279 4 0.339548 0.219644 0.260168
497 4 0.347809 0.203798 0.269174
496 2 0.358157 0.182073 0.26238
276 4 0.339545 0.243793 0.30458
249 4 0.357985 0.251032 0.307976
300 4 0.0735177 0.252353 0.2583
390 4 0.0780342 0.259725 0.240976
298 2 0.070937 0.248675 0.282897
503 4 0.246027 0.317563 0.256585
728 4 0.242989 0.326473 0.273329
278 4 0.303004 0.253747 0.261644
402 4 0.285761 0.244641 0.257205
400 2 0.273374 0.260787 0.242677
736 2 0.360129 0.320449 0.256188
248 4 0.36835 0.287254 0.275094
738 4 0.353089 0.298894 0.266725
247 2 0.363167 0.269143 0.291535
416 4 0.0604617 0.340149 0.255846
549 4 0.997418 0.379514 0.277954
547 2 0.0151472 0.383618 0.295101
680 4 0.0502569 0.385999 0.323564
548 4 0.0328765 0.387722 0.312248
679 2 0.0746443 0.381032 0.325964
415 2 0.0792661 0.343693 0.27194
648 4 0.116364 0.354427 0.287329
417 4 0.0980705 0.347237 0.288034
646 2 0.124815 0.374427 0.274929
647 4 0.133266 0.394427 0.262529
2954 4 0.141337 0.40994 0.2705
570 4 0.113 0.360861 0.323427
568 2 0.13615 0.362331 0.332759
681 4 0.0990318 0.376065 0.328364
727 2 0.26339 0.339404 0.279791
729 4 0.283792 0.352335 0.286253
543 4 0.293583 0.370738 0.287541
541 2 0.315157 0.371483 0.300158
542 4 0.33673 0.372227 0.312775
737 4 0.367168 0.342003 0.245651
378 4 0.345949 0.364942 0.329079
376 2 0.354551 0.341538 0.33094
776 4 0.0502915 0.467384 0.328944
2955 4 0.126191 0.454575 0.287206
2953 2 0.133764 0.432258 0.278853
303 4 0.124868 0.474421 0.281283
301 2 0.144853 0.48942 0.280372
1819 2 0.283164 0.485256 0.318866
1705 2 0.324454 0.499271 0.277428
1707 4 0.344597 0.488645 0.267107
593 4 0.484215 0.49982 0.311216
594 4 0.489876 0.450152 0.30989
592 2 0.487046 0.474986 0.310553
1489 2 0.0237816 0.0172743 0.387589
1491 4 0.0344154 0.0337818 0.403068
2637 4 0.0394919 0.0510974 0.394656
342 4 0.139313 0.0738874 0.381108
340 2 0.153188 0.0580601 0.367612
1646 4 0.131061 0.076188 0.399953
1645 2 0.119131 0.0583569 0.412795
604 2 0.188639 0.0191797 0.334206
605 4 0.179262 0.042112 0.337578
341 4 0.167064 0.0422328 0.354116
682 2 0.272382 0.00528648 0.415173
1518 4 0.298784 0.0371236 0.37299
1516 2 0.317543 0.0209707 0.369475
405 4 0.306192 0.0559548 0.376374
403 2 0.286638 0.0715281 0.375818
1517 4 0.336302 0.00481792 0.36596
404 4 0.267084 0.0871013 0.375262
1816 2 0.358481 0.00680837 0.418476
531 4 0.0270452 0.137164 0.334619
367 2 0.157194 0.168615 0.403941
368 4 0.140167 0.172544 0.421825
321 4 0.22658 0.123007 0.35745
1180 2 0.199081 0.134046 0.367078
1181 4 0.20893 0.116241 0.352546
319 2 0.246226 0.107547 0.357047
1182 4 0.189233 0.151851 0.381609
320 4 0.265872 0.092086 0.356643
425 4 0.488191 0.120582 0.379359
424 2 0.475657 0.141037 0.386406
426 4 0.463122 0.161492 0.393453
470 4 0.00153322 0.20206 0.344378
734 4 0.0806259 0.189425 0.414337
348 4 0.0709522 0.207932 0.414091
372 4 0.102011 0.24421 0.357002
369 4 0.174221 0.164685 0.386057
600 4 0.188193 0.186003 0.357505
260 4 0.179135 0.181032 0.340108
598 2 0.212696 0.190013 0.354559
599 4 0.2372 0.194024 0.351614
474 4 0.244421 0.20081 0.334229
473 4 0.280859 0.235057 0.334637
472 2 0.26264 0.217934 0.334433
265 2 0.410817 0.232854 0.353362
267 4 0.391327 0.246825 0.346282
266 4 0.430307 0.218883 0.360442
419 4 0.431409 0.20357 0.348281
418 2 0.442347 0.189742 0.366011
420 4 0.453286 0.175915 0.38374
617 4 0.153659 0.270618 0.409802
717 4 0.145366 0.271156 0.391039
715 2 0.161251 0.284228 0.376828
616 2 0.140027 0.250355 0.415167
716 4 0.177136 0.297301 0.362617
677 4 0.191975 0.310347 0.359492
676 2 0.178997 0.328211 0.34776
615 4 0.382037 0.26401 0.350743
613 2 0.370562 0.286222 0.351115
614 4 0.359087 0.308433 0.351487
377 4 0.363153 0.318135 0.332801
569 4 0.1593 0.363801 0.342091
678 4 0.166019 0.346074 0.336028
668 4 0.198421 0.383635 0.404442
1399 2 0.37523 0.394467 0.405341
1401 4 0.370538 0.405388 0.383344
561 4 0.363156 0.409923 0.364649
585 4 0.430288 0.341291 0.422503
2678 4 0.479577 0.35153 0.388004
584 4 0.460849 0.358151 0.386692
583 2 0.445569 0.349721 0.404598
936 4 0.0854072 0.42562 0.4153
775 2 0.0663655 0.470275 0.347877
777 4 0.0824395 0.473167 0.36681
1398 4 0.0891646 0.439598 0.402151
1396 2 0.098264 0.458424 0.415861
1820 4 0.273532 0.468924 0.335164
1641 4 0.296472 0.425233 0.368029
1639 2 0.285243 0.439436 0.385273
1640 4 0.274014 0.453639 0.402517
1446 4 0.258281 0.464741 0.407359
1472 4 0.417186 0.48605 0.367846
1471 2 0.397466 0.479185 0.354092
559 2 0.366639 0.43392 0.358549
560 4 0.370121 0.457916 0.352448
1473 4 0.377746 0.47232 0.340338
2635 2 0.0478517 0.0624066 0.41533
2636 4 0.0562115 0.0737158 0.436003
2584 2 0.0917958 0.00221127 0.435838
1647 4 0.107201 0.0405259 0.425636
2586 4 0.104594 0.0236712 0.436758
430 2 0.252904 0.0645716 0.435818
431 4 0.253803 0.0402897 0.429922
684 4 0.264233 0.0231327 0.430673
1817 4 0.352744 0.0274659 0.431341
2334 4 0.402799 0.0143095 0.491914
258 4 0.341255 0.0416912 0.439185
256 2 0.357075 0.0598979 0.432594
478 2 0.412273 0.0282079 0.455852
480 4 0.406692 0.0288563 0.480216
3732 4 0.398073 0.0867457 0.496471
257 4 0.372895 0.0781046 0.426004
479 4 0.417853 0.0275595 0.431488
856 2 0.162307 0.11537 0.488819
858 4 0.146562 0.134321 0.493078
1272 4 0.127311 0.137328 0.488539
432 4 0.252005 0.0888535 0.441713
792 4 0.233093 0.0967026 0.445531
790 2 0.212717 0.0936229 0.459691
791 4 0.19234 0.0905431 0.473851
857 4 0.178052 0.0964195 0.48456
3730 2 0.374873 0.0863905 0.487154
515 4 0.394134 0.142689 0.482056
3731 4 0.351673 0.0860352 0.477838
514 2 0.411304 0.154792 0.468495
516 4 0.428474 0.166894 0.454934
3266 4 0.998755 0.219882 0.500207
735 4 0.122619 0.16241 0.417082
733 2 0.101622 0.175917 0.41571
1270 2 0.12688 0.162323 0.488038
346 2 0.0790222 0.22882 0.425216
1199 4 0.123816 0.233246 0.439704
1198 2 0.127062 0.21907 0.460043
618 4 0.126395 0.230093 0.420532
1200 4 0.130308 0.204894 0.480382
1271 4 0.12645 0.187318 0.487537
347 4 0.0870921 0.249708 0.43634
1032 4 0.442661 0.173458 0.468213
1030 2 0.463541 0.180528 0.480011
1031 4 0.484421 0.187599 0.49181
1220 4 0.0273431 0.272985 0.468059
1219 2 0.0292236 0.297054 0.461552
1221 4 0.031104 0.321122 0.455045
501 4 0.0470285 0.332961 0.450477
1152 4 0.0927851 0.258851 0.452838
1150 2 0.109715 0.277119 0.45503
1151 4 0.126646 0.295388 0.457221
1178 4 0.142314 0.296364 0.469621
1177 2 0.138393 0.303981 0.493111
803 4 0.231813 0.257181 0.446342
802 2 0.228247 0.280438 0.454801
804 4 0.224681 0.303696 0.46326
239 4 0.257369 0.320891 0.481145
710 4 0.262559 0.328767 0.499433
374 4 0.343646 0.273535 0.483252
873 4 0.354368 0.27338 0.466355
871 2 0.377186 0.273087 0.456135
872 4 0.400003 0.272794 0.445915
812 4 0.422585 0.323208 0.428123
813 4 0.419842 0.278077 0.449486
811 2 0.421213 0.300642 0.438804
3671 4 0.0011842 0.379647 0.464158
3670 2 0.0125708 0.399298 0.4537
499 2 0.066163 0.343612 0.462544
935 4 0.0544194 0.392423 0.436238
934 2 0.0699133 0.409022 0.425769
500 4 0.0852975 0.354263 0.47461
238 2 0.242871 0.338439 0.470798
240 4 0.228373 0.355988 0.460452
669 4 0.22447 0.366201 0.443407
667 2 0.211446 0.374918 0.423925
1400 4 0.379923 0.383546 0.427339
1453 2 0.396907 0.361641 0.456155
1454 4 0.39921 0.340588 0.469445
336 4 0.394539 0.34198 0.489642
1455 4 0.394604 0.382694 0.442864
3672 4 0.0239574 0.418949 0.443242
1397 4 0.107363 0.47725 0.429571
1444 2 0.256955 0.486038 0.420392
1586 4 0.324405 0.471119 0.455051
880 2 0.312746 0.475609 0.486041
882 4 0.333838 0.476212 0.472627
752 4 0.368107 0.499609 0.428427
1585 2 0.344089 0.47545 0.440254
1587 4 0.363773 0.479782 0.425457
3987 4 0.494942 0.490084 0.481514
1057 2 0.149244 0.0114769 0.521067
1058 4 0.132197 0.00242418 0.505173
410 4 0.165777 0.0328605 0.552842
1059 4 0.16629 0.0205296 0.536961
1522 2 0.234852 0.0762617 0.572105
1602 4 0.237423 0.0673401 0.536263
1600 2 0.230064 0.0473519 0.523168
409 2 0.182872 0.038418 0.570221
725 4 0.218675 0.0119234 0.498957
1524 4 0.223288 0.0707217 0.55064
411 4 0.199968 0.0439755 0.587601
1601 4 0.222706 0.0273636 0.510072
1155 4 0.314991 0.076514 0.583672
1782 4 0.306243 0.0579047 0.580658
1062 4 0.382543 0.0377931 0.538285
1060 2 0.362867 0.0419285 0.523421
1218 4 0.393689 0.0448686 0.552467
1061 4 0.343192 0.0460639 0.508556
1216 2 0.407434 0.0252452 0.559621
1217 4 0.421179 0.00562187 0.566774
4227 4 0.485698 0.0710003 0.576406
1153 2 0.333204 0.0863685 0.569661
1154 4 0.351418 0.0962229 0.555649
3007 2 0.497905 0.154902 0.576949
2916 4 0.0081908 0.230957 0.51341
1211 4 0.200774 0.199546 0.520478
1210 2 0.191631 0.221963 0.526727
1212 4 0.182488 0.244381 0.532975
899 4 0.336896 0.234059 0.549429
900 4 0.386825 0.236375 0.550992
898 2 0.361861 0.235217 0.550211
1194 4 0.403523 0.247319 0.547092
1192 2 0.427838 0.247785 0.552904
650 4 0.461416 0.229578 0.560547
649 2 0.48326 0.23983 0.553997
1193 4 0.452152 0.248251 0.558717
2914 2 0.00225376 0.255044 0.510289
1068 4 0.0839191 0.308267 0.562519
1034 4 0.00223496 0.29752 0.504748
1067 4 0.118015 0.304997 0.526085
1179 4 0.134472 0.311598 0.516601
1066 2 0.100967 0.306632 0.544302
796 2 0.320014 0.272972 0.555672
797 4 0.306086 0.293736 0.555871
1007 4 0.288162 0.29929 0.561951
1006 2 0.269526 0.308242 0.576013
798 4 0.333943 0.252208 0.555474
709 2 0.284933 0.32193 0.508254
711 4 0.307308 0.315093 0.517075
375 4 0.316605 0.297984 0.517483
373 2 0.330125 0.28576 0.500367
3354 4 0.129367 0.330559 0.516293
3352 2 0.117712 0.352057 0.521503
3353 4 0.106057 0.373556 0.526713
406 2 0.0996558 0.377167 0.570216
408 4 0.105616 0.368587 0.547499
334 2 0.404981 0.350694 0.510623
663 4 0.403769 0.414292 0.560278
926 4 0.388123 0.40605 0.569901
335 4 0.415423 0.359409 0.531604
661 2 0.428076 0.416584 0.554885
662 4 0.452383 0.418877 0.549492
4297 2 0.0363476 0.467692 0.541016
4299 4 0.0589833 0.464649 0.551192
4298 4 0.013712 0.470735 0.53084
2178 4 0.0159187 0.490757 0.532616
1161 4 0.153973 0.473647 0.575577
1159 2 0.156269 0.465447 0.552068
384 4 0.170054 0.456962 0.51238
2138 4 0.139749 0.487995 0.575226
1160 4 0.158564 0.457247 0.528559
382 2 0.186104 0.437896 0.510362
383 4 0.202153 0.41883 0.508344
2152 2 0.245127 0.42244 0.576023
2153 4 0.244584 0.4299 0.552164
773 4 0.261591 0.433159 0.543092
772 2 0.27629 0.446651 0.528022
774 4 0.290989 0.460143 0.512953
881 4 0.291654 0.475007 0.499454
2141 4 0.465393 0.420641 0.56598
2140 2 0.479015 0.431218 0.584083
4361 4 0.491429 0.497702 0.538834
4337 4 0.0367324 0.000405591 0.602466
4336 2 0.0500757 0.997127 0.623356
4194 4 0.075711 0.00497197 0.657036
4338 4 0.0634189 0.993849 0.644246
962 4 0.109532 0.0807191 0.662655
824 4 0.21512 0.0335803 0.596064
823 2 0.225 0.0365897 0.618834
825 4 0.23488 0.0395991 0.641605
2300 4 0.233017 0.045614 0.661147
1781 4 0.265253 0.0779454 0.601127
1780 2 0.285748 0.067925 0.590893
842 4 0.405152 0.0624019 0.63571
3425 4 0.37424 0.997789 0.659786
1025 4 0.408843 0.04558 0.625439
841 2 0.387658 0.0720984 0.650714
843 4 0.370164 0.0817948 0.665718
4225 2 0.480921 0.0528205 0.592894
1026 4 0.457493 0.0378925 0.616792
1024 2 0.433168 0.0417362 0.621115
4226 4 0.476145 0.0346406 0.609382
864 4 0.039886 0.151583 0.663215
1077 4 0.0576075 0.151943 0.653146
1075 2 0.079908 0.163148 0.654667
963 4 0.0970532 0.128322 0.65377
961 2 0.103292 0.104521 0.658212
1523 4 0.246417 0.0818018 0.59357
1277 4 0.194529 0.114864 0.665941
3401 4 0.364682 0.113194 0.635899
3400 2 0.38492 0.120816 0.62335
44 3 0.345295 0.116601 0.637459
3402 4 0.405158 0.128438 0.6108
41 1 0.345179 0.111712 0.660142
3355 2 0.448541 0.135593 0.610953
3356 4 0.423688 0.13549 0.613691
3357 4 0.473394 0.135697 0.608215
3009 4 0.489363 0.140806 0.595752
90 3 0.478374 0.123153 0.624115
1076 4 0.102209 0.174353 0.656187
1283 4 0.149942 0.196272 0.605154
1284 4 0.198602 0.19811 0.616535
696 4 0.204768 0.239512 0.589238
694 2 0.225428 0.22548 0.590446
1282 2 0.174272 0.197191 0.610844
1260 4 0.187271 0.248342 0.585077
695 4 0.246088 0.211449 0.591654
1136 4 0.262352 0.216942 0.600721
1135 2 0.283262 0.221411 0.613682
1137 4 0.304172 0.22588 0.626643
1167 4 0.312427 0.243886 0.631469
799 2 0.420924 0.234072 0.641592
800 4 0.435246 0.236033 0.62119
3263 4 0.0783307 0.315922 0.579517
3264 4 0.0521884 0.322289 0.621669
878 4 0.0332729 0.327823 0.617485
877 2 0.00986967 0.323333 0.609914
3262 2 0.0652596 0.319106 0.600593
8 3 0.162188 0.312824 0.6532
1259 4 0.176988 0.292914 0.605285
10 3 0.177856 0.294165 0.624495
1258 2 0.18213 0.270628 0.595181
9 3 0.199953 0.312346 0.648965
7 3 0.181595 0.28122 0.659299
6 1 0.180379 0.300171 0.646317
815 4 0.173588 0.327599 0.663873
1395 4 0.19338 0.328656 0.658688
1165 2 0.306735 0.253375 0.653891
1008 4 0.250889 0.317194 0.590074
1237 2 0.463515 0.269926 0.626774
1239 4 0.477294 0.288906 0.635437
1238 4 0.449735 0.250945 0.618111
954 4 0.465065 0.301516 0.646227
952 2 0.449935 0.320879 0.650844
407 4 0.0936957 0.385747 0.592932
1173 4 0.0847723 0.39288 0.610131
1171 2 0.0969896 0.412196 0.620271
806 4 0.220256 0.354956 0.614181
805 2 0.240784 0.343466 0.60571
2154 4 0.245671 0.41498 0.599881
807 4 0.261312 0.331976 0.597239
2027 4 0.262399 0.404868 0.601165
2026 2 0.27862 0.405468 0.620183
2028 4 0.294842 0.406069 0.6392
925 2 0.371136 0.405954 0.588248
927 4 0.354149 0.405857 0.606595
1009 2 0.400407 0.348077 0.645992
1011 4 0.378058 0.357524 0.65203
1019 4 0.359739 0.36166 0.659773
1010 4 0.422756 0.33863 0.639954
953 4 0.434804 0.340243 0.655461
1172 4 0.109207 0.431511 0.630412
1190 4 0.129932 0.432967 0.630278
1189 2 0.130045 0.44498 0.652206
930 4 0.309935 0.415903 0.629411
929 4 0.359541 0.414909 0.623166
928 2 0.334738 0.415406 0.626288
2142 4 0.492636 0.441796 0.602187
4374 4 0.477388 0.446996 0.615256
4372 2 0.476864 0.465839 0.631684
4373 4 0.476339 0.484681 0.648111
2049 4 0.0224152 0.05946 0.716427
2047 2 0.0148561 0.0790979 0.702922
2255 4 0.100526 0.0104745 0.705027
2132 4 0.122715 0.068792 0.671274
2256 4 0.141879 0.0191555 0.731772
945 4 0.158045 0.0302013 0.732969
2254 2 0.121202 0.014815 0.7184
2131 2 0.147315 0.0703388 0.67547
4192 2 0.0889646 0.998106 0.677095
2133 4 0.171916 0.0718856 0.679665
2301 4 0.237661 0.0730459 0.7027
2299 2 0.235339 0.05933 0.681923
34 3 0.284529 0.0540701 0.740522
31 1 0.281971 0.0760233 0.747587
1049 4 0.269203 0.04535 0.749616
3424 2 0.394981 0.00766258 0.669659
1143 4 0.392346 0.0645014 0.707066
3426 4 0.415722 0.0175363 0.679533
1005 4 0.434097 0.0150274 0.686669
1003 2 0.448689 0.000323116 0.70067
862 2 0.0275137 0.134125 0.676149
863 4 0.0151414 0.116666 0.689084
2048 4 0.00729692 0.0987357 0.689417
1276 2 0.203056 0.130443 0.683542
1278 4 0.211582 0.146022 0.701142
976 2 0.199669 0.152519 0.73883
977 4 0.197423 0.143622 0.715571
33 3 0.300202 0.088692 0.740839
887 4 0.26459 0.150094 0.706025
35 3 0.262801 0.08478 0.738955
1263 4 0.281913 0.138716 0.707101
1261 2 0.300492 0.125053 0.69744
1262 4 0.319071 0.111391 0.687779
43 3 0.324039 0.115457 0.668944
45 3 0.351238 0.0900091 0.663444
42 3 0.360216 0.125481 0.670793
1141 2 0.396096 0.0892181 0.707518
1142 4 0.399845 0.113935 0.70797
49 3 0.411619 0.125665 0.698081
50 3 0.427624 0.153082 0.677837
48 3 0.446444 0.120985 0.6836
46 1 0.431541 0.13627 0.692692
47 3 0.440698 0.145082 0.711866
3044 4 0.111454 0.179669 0.671692
3043 2 0.106637 0.19571 0.690257
3045 4 0.101821 0.211751 0.708822
822 4 0.0939607 0.229514 0.709663
820 2 0.0989033 0.245396 0.728333
888 4 0.225876 0.180804 0.698354
839 4 0.231059 0.235425 0.698444
838 2 0.220651 0.212953 0.695004
840 4 0.210243 0.19048 0.691564
886 2 0.245233 0.165449 0.702189
801 4 0.406603 0.232111 0.661993
831 4 0.412533 0.218099 0.675826
829 2 0.420405 0.19514 0.681837
830 4 0.428277 0.172182 0.687847
821 4 0.103846 0.261277 0.747002
1130 4 0.231601 0.25493 0.693776
1131 4 0.195909 0.282957 0.672769
1129 2 0.213755 0.268944 0.683273
1166 4 0.301043 0.262864 0.676314
917 4 0.281811 0.286294 0.728122
916 2 0.285991 0.270079 0.709554
918 4 0.290172 0.253863 0.690986
1298 4 0.397007 0.249987 0.736997
1308 4 0.385255 0.255934 0.721373
998 4 0.40093 0.32212 0.724857
1307 4 0.392692 0.305339 0.719231
1306 2 0.388973 0.280636 0.720302
997 2 0.389403 0.330831 0.745264
1205 4 0.486066 0.294743 0.73119
1204 2 0.488995 0.315058 0.74547
814 2 0.157561 0.344131 0.673621
816 4 0.141535 0.360663 0.683369
1121 4 0.136483 0.379789 0.679251
1120 2 0.150754 0.399674 0.684359
1122 4 0.165025 0.41956 0.689466
1393 2 0.213261 0.337558 0.670963
1394 4 0.233143 0.346459 0.683238
889 2 0.236984 0.356852 0.724009
891 4 0.227502 0.351363 0.701534
890 4 0.246466 0.362341 0.746485
1230 4 0.326945 0.387269 0.755955
1229 4 0.347331 0.365675 0.71572
1018 2 0.361436 0.367684 0.68398
1228 2 0.337138 0.376472 0.735837
1020 4 0.363133 0.373709 0.708188
897 4 0.0841041 0.431346 0.74702
948 4 0.0962246 0.438776 0.731616
946 2 0.111239 0.445278 0.712709
1983 4 0.101052 0.493718 0.716659
1191 4 0.130158 0.456994 0.674134
947 4 0.126253 0.451781 0.693802
1188 4 0.191625 0.491486 0.710494
1176 4 0.202214 0.474614 0.709003
1174 2 0.19926 0.465859 0.732236
2175 4 0.342669 0.492556 0.682911
2368 2 0.337825 0.439184 0.734272
2369 4 0.355743 0.438137 0.716864
2174 4 0.361449 0.450631 0.702668
2173 2 0.352059 0.471593 0.692789
1267 2 0.499626 0.498093 0.741217
2275 2 0.000210763 0.00506811 0.813884
2276 4 0.999431 0.0300587 0.814085
1256 4 0.123862 0.0693936 0.794235
1255 2 0.103538 0.0816092 0.802163
943 2 0.173952 0.0391504 0.750059
944 4 0.18986 0.0480994 0.767148
1050 4 0.244099 0.00697314 0.769559
909 4 0.182273 0.0522869 0.785806
907 2 0.199266 0.0656194 0.798401
908 4 0.21626 0.078952 0.810997
1048 2 0.256651 0.0261615 0.759588
965 4 0.291421 0.0544058 0.823732
964 2 0.294676 0.0610332 0.799844
32 3 0.280779 0.076352 0.770557
966 4 0.297931 0.0676607 0.775955
2051 4 0.273617 0.0475157 0.830363
1257 4 0.0832128 0.0938248 0.810091
2000 4 0.0821162 0.0910027 0.830065
870 4 0.167691 0.121824 0.814458
960 4 0.202577 0.0829254 0.82588
1227 4 0.188345 0.118283 0.80898
1225 2 0.193211 0.13887 0.79565
978 4 0.201914 0.161417 0.762088
1226 4 0.198077 0.159457 0.782321
819 4 0.28791 0.161826 0.822361
808 2 0.477383 0.13067 0.832082
1113 4 0.468075 0.116488 0.777308
1111 2 0.471848 0.140778 0.772735
1112 4 0.475622 0.165069 0.768161
809 4 0.456029 0.137174 0.820816
940 2 0.18441 0.250296 0.81818
1043 4 0.294715 0.162722 0.804261
1042 2 0.301504 0.183944 0.792916
1044 4 0.308293 0.205167 0.78157
968 4 0.314578 0.217021 0.796932
967 2 0.325395 0.233386 0.812436
1297 2 0.411257 0.233118 0.748726
1299 4 0.425506 0.21625 0.760455