ITEM: TIMESTEP
150000
ITEM: NUMBER OF ATOMS
1600
ITEM: BOX BOUNDS pp pp pp
-6.9325799999999997e+00 6.9325799999999997e+00
-6.9325799999999997e+00 6.9325799999999997e+00
-6.9325799999999997e+00 6.9325799999999997e+00
ITEM: ATOMS id type xs ys zs
19 3 0.0976808 0.0784016 0.123298
1304 2 0.00953438 0.0111972 0.102554
16 1 0.12185 0.0728964 0.100815
1008 4 0.0270166 0.0970062 0.085676
20 3 0.114645 0.0881782 0.0726471
18 3 0.125189 0.0400335 0.0954462
385 4 0.231093 0.082135 0.069364
406 4 0.23123 0.100069 0.047175
17 3 0.150456 0.084785 0.112691
383 2 0.24243 0.0505476 0.0825605
384 4 0.253767 0.0189602 0.095757
262 4 0.169721 0.074128 0.1287
371 2 0.368094 0.0377208 0.0525955
324 4 0.356957 0.0782786 0.0119755
373 4 0.374901 0.0592429 0.0244725
372 4 0.361287 0.0161987 0.0807185
404 2 0.253312 0.111993 0.0212779
672 4 0.255458 0.0103617 0.0679928
411 4 0.460515 0.0715051 0.0882454
410 2 0.447939 0.104343 0.0802491
999 4 0.456313 0.0670903 0.117463
1007 2 0.0261285 0.132313 0.0929619
1009 4 0.0252403 0.16762 0.100248
414 4 0.0141059 0.248875 0.107778
413 2 0.0452903 0.233379 0.11715
337 4 0.340452 0.227927 0.0725548
335 2 0.313166 0.246423 0.0871778
412 4 0.435363 0.137181 0.0722528
272 2 0.406727 0.182547 0.0660037
273 4 0.416807 0.152965 0.0839965
274 4 0.396647 0.212129 0.0480108
306 4 0.384488 0.238646 0.0458099
1083 4 0.441061 0.233027 0.00636268
311 2 0.0919313 0.294725 0.019659
312 4 0.0740453 0.325269 0.0265588
357 4 0.0659211 0.348791 0.0135241
356 2 0.0716647 0.369642 0.0423803
313 4 0.109817 0.264181 0.0127591
336 4 0.285881 0.264919 0.101801
305 2 0.391474 0.261063 0.0184401
358 4 0.0774083 0.390494 0.0712365
353 2 0.352827 0.447644 0.0745562
354 4 0.328102 0.465484 0.0938132
355 4 0.377552 0.429803 0.0552993
68 3 0.336167 0.492724 0.0881832
253 4 0.487764 0.503024 0.00214424
292 4 0.410821 0.47973 0.0109453
1305 4 0.0222349 0.0125527 0.136278
260 2 0.194227 0.0864511 0.15211
261 4 0.218732 0.0987742 0.17552
25 3 0.291612 0.0355774 0.249061
309 4 0.473706 0.0921267 0.205515
308 2 0.451585 0.0900959 0.233923
1000 4 0.462201 0.0722708 0.189159
998 2 0.459257 0.0696806 0.153311
341 2 0.104147 0.138878 0.236328
415 4 0.0764748 0.217883 0.126522
343 4 0.132408 0.138201 0.213938
328 4 0.196801 0.253598 0.228438
376 4 0.181025 0.229354 0.220668
374 2 0.165406 0.207725 0.244931
327 4 0.223208 0.30378 0.183871
326 2 0.210005 0.278689 0.206155
298 4 0.239042 0.307419 0.162062
297 4 0.287036 0.264617 0.129406
296 2 0.263039 0.286018 0.145734
15 3 0.376195 0.346058 0.155544
14 3 0.380615 0.297743 0.131152
391 4 0.391093 0.297818 0.208157
11 1 0.394697 0.319061 0.152766
12 3 0.39703 0.304317 0.182394
13 3 0.425409 0.327291 0.142328
389 2 0.387603 0.314136 0.240125
338 2 0.0839987 0.492482 0.200793
339 4 0.0502592 0.497229 0.18898
301 4 0.144339 0.489439 0.224846
340 4 0.117738 0.487734 0.212606
258 4 0.0529773 0.0610688 0.299746
666 4 0.0376361 0.044024 0.317129
665 2 0.0185121 0.0404212 0.347489
257 2 0.0537015 0.0949764 0.287491
259 4 0.0544257 0.128884 0.275236
417 4 0.165723 0.028548 0.277994
416 2 0.170175 0.0555707 0.301455
418 4 0.174627 0.0825935 0.324915
331 4 0.153703 0.10133 0.331358
21 1 0.318013 0.0245373 0.265184
22 3 0.345418 0.0340729 0.249099
24 3 0.318646 0.0372695 0.296126
310 4 0.429464 0.0880652 0.26233
368 2 0.384026 0.111551 0.27736
370 4 0.40128 0.0839998 0.261749
342 4 0.0758868 0.139555 0.258718
941 2 0.0508161 0.179095 0.30066
942 4 0.081013 0.159505 0.302855
943 4 0.0206192 0.198685 0.298465
1021 4 0.00231143 0.207541 0.277435
329 2 0.161294 0.130228 0.35155
375 4 0.149787 0.186097 0.269193
330 4 0.168886 0.159126 0.371742
29 3 0.316851 0.180328 0.272758
369 4 0.366771 0.139102 0.29297
30 3 0.363836 0.1687 0.297377
26 1 0.332258 0.176345 0.302198
28 3 0.317214 0.152175 0.319788
27 3 0.33037 0.204759 0.319221
382 4 0.484589 0.232408 0.303733
317 2 0.117197 0.274375 0.350868
319 4 0.0852252 0.279919 0.366601
318 4 0.149168 0.268831 0.335135
398 2 0.341913 0.323157 0.318335
400 4 0.312128 0.323746 0.338655
399 4 0.371699 0.322567 0.298014
348 4 0.317543 0.328588 0.367488
130 3 0.476603 0.319414 0.275488
380 2 0.466395 0.244003 0.274836
381 4 0.448202 0.255598 0.24594
390 4 0.384113 0.330454 0.272093
129 3 0.498246 0.353184 0.238882
392 2 0.00057672 0.431141 0.32493
393 4 0.0145301 0.41513 0.354075
403 4 0.307527 0.448159 0.371844
401 2 0.274218 0.458627 0.380863
962 2 0.491632 0.469025 0.359712
963 4 0.472695 0.480056 0.331074
667 4 0.999388 0.0368184 0.377849
333 4 0.149686 0.0996085 0.458747
717 4 0.245064 0.00509473 0.447005
314 2 0.239085 0.0690928 0.476491
316 4 0.215428 0.0658358 0.449469
332 2 0.146248 0.0900072 0.493337
648 4 0.35184 0.00654666 0.420767
727 4 0.335101 0.0308921 0.426211
315 4 0.262741 0.0723498 0.503514
33 3 0.271716 0.100487 0.50253
725 2 0.312485 0.0155832 0.449761
367 4 0.360736 0.131947 0.466338
1027 4 0.504557 0.134047 0.439816
1237 4 0.371873 0.109771 0.478396
275 2 0.483429 0.0961337 0.488737
407 2 0.467931 0.0217608 0.510055
359 2 0.00935374 0.153617 0.440545
1137 4 0.02158 0.199897 0.483964
360 4 0.0163259 0.176676 0.46738
397 4 0.191795 0.174115 0.373369
395 2 0.198805 0.195788 0.401325
396 4 0.205816 0.217462 0.429281
7 3 0.188514 0.232432 0.44958
10 3 0.210525 0.253129 0.494128
365 2 0.356886 0.163145 0.484009
366 4 0.353035 0.194344 0.501679
288 4 0.489951 0.233738 0.39159
1032 4 0.988607 0.287551 0.391685
948 4 0.0789827 0.28238 0.394561
279 4 0.101981 0.297503 0.470074
278 2 0.115306 0.269788 0.451238
949 4 0.00971323 0.292301 0.412027
947 2 0.044348 0.287341 0.403294
280 4 0.128631 0.242074 0.432402
6 1 0.188667 0.258429 0.47019
377 2 0.192856 0.322659 0.411006
378 4 0.212141 0.302384 0.433753
8 3 0.197046 0.285858 0.452945
379 4 0.17357 0.342933 0.388259
346 4 0.150504 0.360448 0.394468
9 3 0.158073 0.262053 0.483261
295 4 0.317875 0.307536 0.441825
293 2 0.328961 0.299211 0.475115
349 4 0.308275 0.334537 0.438765
347 2 0.312909 0.331562 0.403126
934 4 0.0365886 0.422168 0.372181
933 4 0.018469 0.440062 0.439659
932 2 0.0275288 0.431115 0.40592
387 4 0.0301104 0.464131 0.449416
345 4 0.118263 0.423313 0.379971
386 2 0.0288928 0.470292 0.484926
721 4 0.256173 0.490784 0.403524
402 4 0.240908 0.469095 0.389882
344 2 0.134384 0.391881 0.38722
4 3 0.335931 0.451325 0.441517
1 1 0.351562 0.444003 0.412846
2 3 0.330329 0.448151 0.387693
264 4 0.339368 0.43617 0.463848
263 2 0.353517 0.417289 0.49112
3 3 0.377638 0.464521 0.408488
5 3 0.36181 0.412801 0.41332
745 4 0.400995 0.464526 0.427835
444 4 0.157862 0.0729388 0.550256
443 2 0.164922 0.0394045 0.561483
445 4 0.171982 0.00587025 0.57271
550 4 0.217772 0.0800917 0.618651
334 4 0.14281 0.0804059 0.527926
528 4 0.242603 0.0115403 0.56717
527 2 0.257868 0.0373081 0.547084
32 3 0.296545 0.0728312 0.54199
105 3 0.366812 0.997683 0.567655
529 4 0.273133 0.063076 0.526998
31 1 0.297692 0.10044 0.523629
35 3 0.325854 0.101036 0.506736
102 3 0.386707 0.0426092 0.589637
101 1 0.38843 0.022082 0.56363
103 3 0.381238 0.0392378 0.535812
1236 4 0.396329 0.0637517 0.528255
104 3 0.419443 0.00965571 0.561693
1109 2 0.476268 0.0375265 0.597762
1235 2 0.384101 0.0867616 0.503325
1110 4 0.463604 0.00390267 0.600842
1111 4 0.488933 0.0711503 0.594683
276 4 0.467357 0.077157 0.514852
408 4 0.481352 0.0533067 0.521243
558 4 0.144044 0.13681 0.553481
557 2 0.15203 0.160717 0.579271
559 4 0.160016 0.184624 0.60506
493 4 0.209801 0.214472 0.593778
491 2 0.244661 0.213009 0.602893
34 3 0.295981 0.127002 0.543915
429 4 0.304173 0.223216 0.600491
428 2 0.338925 0.215484 0.606236
492 4 0.279521 0.211545 0.612008
430 4 0.373676 0.207752 0.611981
465 4 0.375457 0.18658 0.518828
466 4 0.417331 0.230704 0.557577
464 2 0.396394 0.208642 0.538202
451 4 0.400915 0.213842 0.623865
472 4 0.140906 0.305926 0.567184
570 4 0.0957278 0.345833 0.541745
569 2 0.119356 0.355404 0.56725
471 4 0.164578 0.265595 0.512277
470 2 0.152742 0.285761 0.539731
436 4 0.285772 0.345541 0.569164
435 4 0.333851 0.306477 0.532228
434 2 0.309812 0.326009 0.550696
294 4 0.340048 0.290885 0.508405
571 4 0.142985 0.364975 0.592755
388 4 0.0276751 0.476454 0.520437
805 4 0.0242465 0.497131 0.53787
265 4 0.367667 0.398408 0.518391
286 4 0.38061 0.386203 0.540047
284 2 0.399323 0.391178 0.57047
285 4 0.418036 0.396153 0.600892
542 2 0.426846 0.455565 0.626186
543 4 0.416157 0.423397 0.613879
537 4 0.0450008 0.032235 0.748231
561 4 0.0735924 0.0391331 0.746366
560 2 0.0853277 0.0335321 0.71273
562 4 0.0970631 0.027931 0.679095
536 2 0.0156179 0.0522162 0.754382
904 4 0.212289 0.0273076 0.723851
548 2 0.209403 0.113063 0.630622
902 2 0.19661 0.0541103 0.742188
448 4 0.37746 0.0869208 0.682218
46 1 0.491722 0.0868113 0.722437
49 3 0.467163 0.0977152 0.70249
446 2 0.395375 0.112249 0.663833
506 2 0.0683032 0.218759 0.64429
1158 4 0.0470776 0.175828 0.65197
507 4 0.0714589 0.18341 0.637893
1157 2 0.022767 0.158072 0.671824
549 4 0.201035 0.146034 0.642594
582 4 0.177445 0.157016 0.658849
581 2 0.166319 0.14854 0.692088
583 4 0.155194 0.140065 0.725327
447 4 0.41329 0.137576 0.645448
450 4 0.432479 0.156536 0.654221
449 2 0.416697 0.185189 0.639043
533 2 0.412679 0.232512 0.728345
534 4 0.420497 0.205353 0.750745
53 3 0.454743 0.142855 0.754219
508 4 0.0651475 0.254108 0.650687
463 4 0.0764334 0.272393 0.694819
461 2 0.107344 0.275186 0.713181
576 4 0.0567535 0.271305 0.674421
575 2 0.0244374 0.284612 0.665532
481 4 0.147744 0.389107 0.605903
462 4 0.138255 0.277978 0.731543
440 2 0.200102 0.323918 0.729893
441 4 0.210308 0.355982 0.716924
40 3 0.140151 0.250462 0.739305
442 4 0.189896 0.291854 0.742861
526 4 0.281925 0.342304 0.697553
524 2 0.265204 0.367073 0.717734
535 4 0.40486 0.25967 0.705945
522 4 0.41163 0.342058 0.654668
521 2 0.411213 0.314754 0.678222
523 4 0.410795 0.287451 0.701776
480 4 0.127031 0.421222 0.667069
844 4 0.134622 0.44808 0.662047
842 2 0.138702 0.48244 0.672206
479 2 0.137387 0.405164 0.636486
525 4 0.248482 0.391843 0.737916
517 4 0.224754 0.402597 0.723232
556 4 0.366972 0.467261 0.711945
554 2 0.375637 0.442551 0.68715
788 2 0.492324 0.497 0.645346
789 4 0.463274 0.475745 0.643169
544 4 0.437535 0.487732 0.638493
555 4 0.384301 0.417841 0.662356
467 2 0.19746 0.0829902 0.822481
468 4 0.189981 0.0784759 0.787493
903 4 0.180932 0.0809131 0.760524
469 4 0.204938 0.0875045 0.857468
574 4 0.20749 0.0941976 0.885539
502 4 0.288315 0.0738129 0.803266
500 2 0.266476 0.0496944 0.787716
501 4 0.244637 0.025576 0.772167
1233 4 0.477967 0.0279292 0.85571
47 3 0.478502 0.0764741 0.751056
113 3 0.435318 0.00433704 0.791562
112 3 0.460174 0.0108273 0.839296
420 4 0.0628152 0.260148 0.80978
37 3 0.190437 0.23326 0.747837
505 4 0.279493 0.210512 0.857077
489 4 0.262521 0.230158 0.843226
54 3 0.432262 0.189875 0.771196
52 3 0.425314 0.144305 0.799719
1226 2 0.506619 0.154266 0.833633
1228 4 0.502672 0.160479 0.798331
51 1 0.446737 0.161323 0.780954
55 3 0.473697 0.167865 0.798537
478 4 0.116348 0.373376 0.748469
476 2 0.086582 0.354973 0.757171
419 2 0.097203 0.249818 0.806434
477 4 0.0568156 0.336569 0.765872
421 4 0.131591 0.239487 0.803088
36 1 0.165172 0.250578 0.760583
38 3 0.155744 0.236359 0.789374
39 3 0.175297 0.281989 0.766132
564 4 0.185886 0.36229 0.827329
563 2 0.192226 0.326797 0.826649
565 4 0.198567 0.291303 0.82597
490 4 0.22763 0.292243 0.83183
488 2 0.245075 0.261201 0.837528
437 2 0.328363 0.369347 0.770998
438 4 0.34277 0.365448 0.73817
818 2 0.0850094 0.504942 0.803123
547 4 0.120176 0.450355 0.805607
820 4 0.105912 0.475749 0.79976
546 4 0.128512 0.398097 0.756603
515 2 0.203257 0.418052 0.747715
516 4 0.181759 0.433507 0.772199
545 2 0.124344 0.424226 0.781105
423 4 0.185774 0.4601 0.760237
823 4 0.29085 0.489424 0.772135
439 4 0.313956 0.373246 0.803826
520 4 0.328934 0.392432 0.820008
518 2 0.343741 0.382553 0.851371
580 4 0.066988 0.0584981 0.880595
780 4 0.990098 3.58585e-05 0.893344
578 2 0.074819 0.0842569 0.904587
362 2 0.0329001 0.0713376 0.983128
579 4 0.08265 0.110016 0.928578
364 4 0.063754 0.0737149 0.964613
552 4 0.108765 0.120533 0.937165
572 2 0.218899 0.0691676 0.908858
573 4 0.230307 0.0441377 0.932178
510 4 0.258342 0.044303 0.941383
509 2 0.276226 0.0481503 0.97246
511 4 0.294111 0.0519975 0.00353689
325 4 0.303964 0.125292 0.998437
323 2 0.33046 0.101785 0.00520628
531 4 0.4104 0.110928 0.969133
551 2 0.0902563 0.13571 0.964138
455 2 0.0264485 0.180151 0.967913
456 4 0.0590133 0.175005 0.982524
553 4 0.0717477 0.150888 0.99111
63 3 0.199639 0.233175 0.884681
64 3 0.198204 0.186283 0.913031
61 1 0.203625 0.219257 0.914853
65 3 0.182813 0.232866 0.936311
62 3 0.234769 0.224459 0.925034
405 4 0.275394 0.123916 0.995381
60 3 0.266011 0.126748 0.967743
503 2 0.27854 0.200197 0.891619
59 3 0.305811 0.132989 0.93133
56 1 0.290699 0.146161 0.958127
57 3 0.312807 0.148722 0.982731
58 3 0.279054 0.176675 0.950827
504 4 0.277588 0.189882 0.926161
532 4 0.396907 0.180699 0.981447
270 4 0.251725 0.246999 0.928607
530 2 0.403653 0.145813 0.97529
1084 4 0.494203 0.187158 0.989818
1082 2 0.467632 0.210092 0.998091
1041 4 0.992755 0.335581 0.94544
519 4 0.358548 0.372673 0.882733
269 2 0.267895 0.278926 0.933032
321 4 0.296774 0.306339 0.911637
320 2 0.325992 0.326345 0.904816
271 4 0.284065 0.310854 0.937457
322 4 0.355209 0.346352 0.897996
541 4 0.416134 0.308412 0.990171
307 4 0.39846 0.283481 0.99107
41 1 0.397902 0.367146 0.907657
44 3 0.428479 0.359399 0.896481
43 3 0.379307 0.339439 0.910199
482 2 0.489735 0.361768 0.894131
483 4 0.455546 0.352741 0.901208
539 2 0.446836 0.327237 0.992027
540 4 0.477538 0.346063 0.993883
512 2 0.112493 0.471077 0.934468
458 2 0.0331194 0.474879 0.909852
513 4 0.0893856 0.456528 0.910914
460 4 0.0632698 0.459761 0.922612
514 4 0.1356 0.485627 0.958022
45 3 0.400072 0.38191 0.936917
42 3 0.383494 0.387786 0.886044
266 2 0.204287 0.528017 0.0423428
268 4 0.206003 0.510818 0.0106931
267 4 0.202571 0.545215 0.0739926
69 3 0.368153 0.537217 0.0868477
66 1 0.340756 0.523555 0.100363
67 3 0.314473 0.542213 0.0925046
733 4 0.349999 0.551723 0.0317744
291 4 0.377748 0.540266 0.0320004
731 2 0.366107 0.579185 0.0487084
732 4 0.382215 0.606648 0.0656424
80 3 0.460499 0.596955 0.0786004
78 3 0.408738 0.613349 0.0795683
290 2 0.394284 0.509998 0.0214729
76 1 0.440712 0.623171 0.0784925
614 2 0.0414514 0.693421 0.124746
615 4 0.0496765 0.684135 0.090885
664 4 0.0336675 0.70585 0.0779049
662 2 0.0124446 0.708886 0.0489082
628 4 0.191028 0.723836 0.0330816
621 4 0.346824 0.64742 0.0916383
620 2 0.343802 0.671364 0.118434
77 3 0.447112 0.641802 0.105187
79 3 0.446128 0.641452 0.0509896
189 3 0.470388 0.722834 0.0229755
186 1 0.50119 0.710097 0.0259567
740 2 0.0224497 0.817741 0.0547493
741 4 0.0523218 0.798458 0.0607737
742 4 0.992578 0.837023 0.0487249
640 4 0.213445 0.788096 0.0772659
607 4 0.241588 0.787589 0.0773524
605 2 0.243366 0.810657 0.0496904
606 4 0.245144 0.833724 0.0220284
638 2 0.191253 0.769319 0.098606
784 4 0.239745 0.829794 0.994954
74 3 0.00618493 0.891335 0.0142925
715 4 0.205412 0.966221 0.0739221
713 2 0.179309 0.957196 0.0971083
714 4 0.153205 0.948172 0.120294
836 2 0.185864 0.960422 0.00694051
837 4 0.151435 0.957514 0.0172687
671 2 0.269089 0.985884 0.0452889
673 4 0.282721 0.961406 0.022585
590 2 0.380276 0.958737 0.0979049
657 4 0.374257 0.902884 0.116878
591 4 0.387582 0.923671 0.102081
592 4 0.37297 0.993802 0.0937284
299 2 0.161518 0.518619 0.237249
650 2 0.207584 0.593426 0.228854
651 4 0.192453 0.560724 0.227398
300 4 0.178697 0.5478 0.249652
652 4 0.222715 0.626127 0.23031
255 4 0.369222 0.531793 0.139795
70 3 0.343788 0.522356 0.133047
254 2 0.370542 0.545683 0.173048
256 4 0.371862 0.559573 0.206302
724 4 0.244924 0.627516 0.247355
754 4 0.42911 0.520023 0.154446
752 2 0.453122 0.51299 0.180415
762 4 0.468723 0.528751 0.222988
753 4 0.477135 0.505957 0.206383
761 2 0.480178 0.552545 0.247546
1310 2 0.99495 0.729044 0.200621
616 4 0.0332263 0.702707 0.158607
1312 4 0.0225625 0.713388 0.183507
88 3 0.134584 0.63433 0.250145
86 1 0.155084 0.654847 0.233448
89 3 0.138677 0.669219 0.208067
90 3 0.180893 0.638046 0.222028
87 3 0.16573 0.678519 0.254111
639 4 0.169062 0.750542 0.119946
693 4 0.158232 0.744341 0.147113
699 4 0.234635 0.737722 0.188712
622 4 0.34078 0.695308 0.145229
722 2 0.275473 0.646008 0.242335
629 2 0.340628 0.694775 0.195949
630 4 0.359443 0.702772 0.166242
631 4 0.321814 0.686777 0.225656
723 4 0.306023 0.664501 0.237315
602 2 0.487927 0.657722 0.239142
604 4 0.492073 0.668485 0.204974
695 2 0.0150202 0.818788 0.222264
92 3 0.0531133 0.810335 0.268581
696 4 0.0380604 0.825678 0.249137
93 3 0.0812537 0.781944 0.231967
692 2 0.160783 0.765501 0.176202
694 4 0.163333 0.786661 0.205292
597 4 0.15194 0.792573 0.23105
700 4 0.27951 0.79032 0.209241
698 2 0.257072 0.764021 0.198977
658 4 0.327831 0.859237 0.15066
702 4 0.346331 0.849676 0.169735
701 2 0.319745 0.834568 0.188848
703 4 0.293158 0.819459 0.207962
600 4 0.322965 0.885201 0.238841
705 4 0.458609 0.809063 0.230107
1272 4 0.494838 0.874974 0.239497
646 4 0.0381695 0.990399 0.140388
644 2 0.0331313 0.988535 0.176047
645 4 0.0280931 0.986672 0.211707
712 4 0.253779 0.935395 0.217732
656 2 0.351044 0.881061 0.133769
710 2 0.278657 0.958478 0.229926
1420 4 0.500828 0.901045 0.235633
1419 4 0.447973 0.94954 0.228131
1418 2 0.4744 0.925292 0.231882
734 2 0.0677879 0.563056 0.303305
735 4 0.0971389 0.542403 0.306825
736 4 0.0384368 0.583709 0.299784
668 2 0.291007 0.512797 0.280214
669 4 0.258907 0.497379 0.285898
670 4 0.323107 0.528215 0.274529
763 4 0.491634 0.576338 0.272104
586 4 0.220754 0.654694 0.332672
584 2 0.197063 0.664782 0.307425
585 4 0.173373 0.674869 0.282177
766 4 0.357617 0.733295 0.2935
603 4 0.483781 0.646959 0.273309
730 4 0.443892 0.674518 0.359076
91 1 0.0769729 0.787617 0.26467
94 3 0.105336 0.799302 0.278047
95 3 0.0680586 0.759853 0.279787
598 4 0.189006 0.763706 0.285773
654 4 0.165668 0.758549 0.30452
596 2 0.170473 0.778139 0.258412
653 2 0.166687 0.762793 0.340317
655 4 0.167707 0.767037 0.376113
601 4 0.314389 0.853955 0.303276
599 2 0.318677 0.869578 0.271058
707 2 0.45587 0.769257 0.345588
704 2 0.447101 0.795517 0.261484
764 2 0.382699 0.758922 0.289675
765 4 0.407781 0.784548 0.28585
706 4 0.435594 0.781971 0.292861
623 2 0.445634 0.858747 0.326309
624 4 0.480228 0.867829 0.321708
625 4 0.411039 0.849665 0.33091
709 4 0.470662 0.778759 0.314102
23 3 0.317377 0.991108 0.266596
711 4 0.303536 0.981562 0.242119
682 4 0.426603 0.960962 0.305098
680 2 0.420829 0.981959 0.333843
681 4 0.415056 0.00295582 0.362587
649 4 0.38721 0.994387 0.359099
642 4 0.0894805 0.498286 0.472703
643 4 0.0685077 0.565747 0.458183
641 2 0.0789941 0.532017 0.465443
720 4 0.23339 0.539192 0.451891
719 2 0.244782 0.514988 0.427708
660 4 0.258292 0.553724 0.453796
659 2 0.280969 0.564511 0.479677
1393 4 0.495961 0.616661 0.455308
744 4 0.424843 0.522476 0.46354
743 2 0.412919 0.493501 0.445687
816 4 0.40686 0.600708 0.505301
1398 4 0.0154744 0.682612 0.413068
619 4 0.0329036 0.698572 0.431796
617 2 0.0355726 0.676637 0.460295
618 4 0.0382415 0.654702 0.488793
915 4 0.143262 0.730095 0.444625
914 2 0.165369 0.741447 0.470757
610 4 0.310024 0.631896 0.470398
608 2 0.322783 0.6649 0.477355
609 4 0.335542 0.697904 0.484313
595 4 0.335334 0.721975 0.468431
593 2 0.325079 0.748825 0.44665
1391 2 0.487224 0.651578 0.457528
1443 4 0.45919 0.701897 0.445344
1392 4 0.478488 0.686494 0.459748
1442 2 0.443846 0.725243 0.422542
729 4 0.375032 0.66828 0.379599
728 2 0.409462 0.671399 0.369338
1444 4 0.428502 0.74859 0.399739
708 4 0.441077 0.759756 0.377073
916 4 0.187475 0.752798 0.496889
687 4 0.314821 0.797047 0.405569
594 4 0.314825 0.775674 0.424869
686 2 0.347238 0.81284 0.40594
688 4 0.379655 0.828633 0.406311
684 4 0.464581 0.840845 0.448757
685 4 0.408891 0.831489 0.403892
683 2 0.436736 0.836167 0.426325
1512 4 0.491552 0.838887 0.458221
774 4 0.103481 0.903997 0.471306
691 4 0.130165 0.907811 0.458196
716 2 0.217628 0.994024 0.467624
718 4 0.190191 0.982954 0.488243
690 4 0.167867 0.964116 0.482896
689 2 0.149016 0.935964 0.470546
647 2 0.369525 0.000466827 0.389933
749 2 0.271224 0.939821 0.486476
751 4 0.266386 0.90534 0.49586
750 4 0.276063 0.974303 0.477092
726 4 0.289869 0.00027429 0.473311
409 4 0.454509 0.990215 0.498867
1537 4 0.0323249 0.543751 0.607216
803 2 0.00398045 0.526879 0.535674
567 4 0.0929325 0.495907 0.571249
880 4 0.11936 0.622913 0.568575
879 4 0.154259 0.562473 0.586764
878 2 0.13681 0.592693 0.57767
566 2 0.122732 0.515252 0.577429
568 4 0.152532 0.534597 0.583608
475 4 0.318433 0.567982 0.530471
473 2 0.339394 0.549613 0.553354
661 4 0.303646 0.575298 0.505558
474 4 0.360354 0.531243 0.576237
767 2 0.0511402 0.674645 0.545689
769 4 0.0491394 0.689065 0.578682
864 4 0.0379519 0.7145 0.580625
768 4 0.053141 0.660225 0.512697
863 2 0.0571494 0.74202 0.593835
877 4 0.321665 0.685505 0.555879
875 2 0.286916 0.678636 0.54911
876 4 0.252168 0.671767 0.542341
899 2 0.364188 0.696901 0.582955
900 4 0.331374 0.705661 0.570834
884 2 0.438164 0.709018 0.538312
886 4 0.416293 0.681115 0.531717
815 2 0.419922 0.634173 0.508439
901 4 0.397003 0.688141 0.595076
817 4 0.432985 0.667639 0.511576
865 4 0.076347 0.769541 0.607046
679 4 0.0531862 0.849238 0.514837
775 4 0.0626789 0.8746 0.523005
854 2 0.117004 0.788809 0.630904
855 4 0.086557 0.795184 0.612662
677 2 0.0251063 0.826645 0.513593
925 4 0.269757 0.769295 0.57088
923 2 0.305365 0.774898 0.571938
924 4 0.340973 0.780501 0.572997
117 3 0.283434 0.870293 0.563033
118 3 0.331553 0.861311 0.586321
885 4 0.460035 0.736922 0.544907
918 4 0.461963 0.803732 0.526882
917 2 0.45983 0.824247 0.556464
919 4 0.457697 0.844762 0.586045
773 2 0.0830801 0.889299 0.497155
1371 4 0.994349 0.929717 0.499646
777 4 0.16787 0.926003 0.570769
776 2 0.177669 0.958811 0.582085
778 4 0.187468 0.991619 0.5934
847 4 0.260407 0.989235 0.567671
845 2 0.284943 0.96298 0.56466
119 3 0.317777 0.911698 0.569713
116 1 0.30645 0.883211 0.583134
846 4 0.30948 0.936725 0.561649
120 3 0.293024 0.88922 0.612502
1535 2 0.0283735 0.575152 0.624503
1536 4 0.024422 0.606552 0.641789
890 2 0.187794 0.545317 0.695912
892 4 0.153039 0.53669 0.700166
891 4 0.222549 0.553944 0.691657
843 4 0.142782 0.5168 0.682365
787 4 0.247491 0.541276 0.698703
785 2 0.265347 0.52728 0.726734
786 4 0.283203 0.513285 0.754765
895 4 0.361342 0.495519 0.709434
893 2 0.380798 0.525794 0.711745
894 4 0.400254 0.556069 0.714056
888 4 0.46379 0.59803 0.664061
887 2 0.494185 0.584303 0.677777
859 4 0.0295987 0.633966 0.648046
857 2 0.00906377 0.6583 0.664975
1567 4 0.41476 0.680733 0.617715
1565 2 0.436466 0.709529 0.61743
1566 4 0.458173 0.738325 0.617145
1534 4 0.0279993 0.804795 0.667697
856 4 0.147452 0.782434 0.649146
870 4 0.220124 0.770984 0.710282
869 2 0.241698 0.794769 0.726693
794 2 0.374342 0.832707 0.720241
795 4 0.343616 0.850543 0.726421
110 3 0.340338 0.851921 0.756653
796 4 0.405069 0.81487 0.714062
819 4 0.0641064 0.534134 0.806487
791 2 0.0217154 0.545299 0.772211
793 4 0.050898 0.526987 0.782864
424 4 0.204584 0.527291 0.778497
422 2 0.195179 0.493696 0.769367
821 2 0.314237 0.504414 0.795131
822 4 0.337624 0.519403 0.818127
100 3 0.353145 0.577437 0.857468
96 1 0.323201 0.566138 0.850085
97 3 0.325649 0.534783 0.839524
98 3 0.309661 0.584718 0.825767
906 4 0.368654 0.559654 0.875479
99 3 0.303686 0.566908 0.877261
905 2 0.404586 0.557331 0.873497
907 4 0.440518 0.555008 0.871514
222 3 0.0328205 0.672289 0.759437
225 3 0.0137378 0.705865 0.796932
1516 4 0.00770473 0.733456 0.788771
812 2 0.0666675 0.725753 0.853582
814 4 0.0427015 0.702412 0.867046
813 4 0.0906336 0.749094 0.840119
771 4 0.255564 0.696542 0.884071
772 4 0.264901 0.703067 0.812853
770 2 0.260233 0.699804 0.848462
867 4 0.293614 0.710854 0.809845
866 2 0.316096 0.738228 0.803092
808 4 0.379683 0.647807 0.871095
910 4 0.0984138 0.812709 0.777262
908 2 0.11578 0.84161 0.764471
851 2 0.131431 0.784207 0.851717
853 4 0.143747 0.817985 0.854504
852 4 0.119115 0.750428 0.848929
1514 2 0.992319 0.752352 0.815355
909 4 0.133146 0.87051 0.75168
871 4 0.263272 0.818553 0.743103
108 3 0.289843 0.833265 0.749506
862 4 0.342414 0.777942 0.821874
106 1 0.309643 0.8526 0.768322
107 3 0.309515 0.841034 0.799417
868 4 0.338579 0.765603 0.796338
860 2 0.361147 0.779203 0.852663
861 4 0.379879 0.780463 0.883451
781 4 0.0480942 0.993861 0.850917
799 4 0.160442 0.875542 0.742544
797 2 0.174167 0.902431 0.762269
798 4 0.187892 0.92932 0.781993
834 4 0.209246 0.942069 0.764536
833 2 0.23246 0.969638 0.765782
109 3 0.298158 0.884034 0.768425
835 4 0.255673 0.997206 0.767028
826 4 0.4968 0.895071 0.84106
824 2 0.498225 0.89157 0.805197
111 1 0.452515 0.988797 0.815702
115 3 0.434279 0.964822 0.828796
114 3 0.480822 0.976072 0.803182
809 2 0.107374 0.524561 0.991088
811 4 0.0796731 0.545216 0.00140681
810 4 0.135075 0.503907 0.980769
432 4 0.20665 0.514656 0.982263
431 2 0.213368 0.541673 0.959342
433 4 0.220087 0.56869 0.93642
739 4 0.217912 0.594686 0.948159
252 4 0.497728 0.53176 0.936748
251 2 0.492746 0.517392 0.969446
208 3 0.457311 0.546409 0.895101
206 1 0.490344 0.547543 0.889858
737 2 0.20772 0.625888 0.963092
738 4 0.197529 0.65709 0.978025
627 4 0.193074 0.683693 0.973197
626 2 0.192051 0.703765 0.00313941
829 4 0.2681 0.670944 0.891658
828 4 0.249391 0.685217 0.959834
827 2 0.258745 0.67808 0.925746
802 4 0.489947 0.761661 0.859942
807 4 0.396267 0.700559 0.917399
806 2 0.387975 0.674183 0.894247
783 4 0.278991 0.877302 0.957476
782 2 0.259368 0.853548 0.976215
801 4 0.465868 0.804336 0.912865
800 2 0.477908 0.782999 0.886403
612 4 0.367749 0.874505 0.980535
850 4 0.380662 0.809931 0.885942
849 4 0.430417 0.86071 0.898096
848 2 0.40554 0.835321 0.892019
84 3 0.436256 0.890218 0.955388
81 1 0.427556 0.870575 0.981048
82 3 0.396006 0.876865 0.989155
83 3 0.430253 0.838404 0.972234
779 2 0.0190962 0.996948 0.872131
1581 4 0.0537802 0.943352 0.959225
746 2 0.10973 0.957426 0.972955
748 4 0.0779765 0.959991 0.956056
1580 2 0.019936 0.9368 0.948638
747 4 0.141484 0.954861 0.989854
838 4 0.220292 0.96333 0.996612
873 4 0.291951 0.898085 0.970958
613 4 0.34352 0.897858 0.916743
872 2 0.288213 0.932205 0.982018
611 2 0.355635 0.886181 0.948639
874 4 0.284474 0.966324 0.993078
922 4 0.452088 0.868251 0.914582
920 2 0.470645 0.887108 0.890076
230 3 0.488444 0.944409 0.967706
85 3 0.446815 0.876757 0.00692648
1075 4 0.557925 0.0479821 0.035955
936 4 0.614495 0.0333084 0.140931
1073 2 0.564889 0.0347332 0.0031462
935 2 0.628767 0.00354925 0.1264
1005 4 0.616619 0.0627376 0.138918
1140 4 0.718916 0.0760905 0.0254018
1139 2 0.697096 0.104801 0.0253429
1038 4 0.677242 0.025981 0.0742553
1028 2 0.960631 0.0935478 0.0147997
1306 4 0.996834 0.00984169 0.0688301
1030 4 0.990111 0.076909 0.0272295
1141 4 0.675275 0.133512 0.025284
1029 4 0.93115 0.110187 0.00237002
1053 4 0.897752 0.236995 0.110706
970 4 0.899821 0.247008 0.085846
968 2 0.902067 0.234212 0.0522061
1240 4 0.905068 0.234871 0.992768
969 4 0.904313 0.221415 0.0185662
121 1 0.602254 0.323832 0.11874
122 3 0.57651 0.323944 0.0978133
125 3 0.611223 0.354799 0.125023
992 2 0.64967 0.339785 0.0335001
993 4 0.64328 0.304299 0.0340715
124 3 0.627635 0.307242 0.10458
945 4 0.647864 0.3297 0.10174
944 2 0.677902 0.309775 0.100683
946 4 0.707941 0.289849 0.0996263
966 4 0.726664 0.27592 0.0852699
965 2 0.758969 0.291175 0.0901846
971 2 0.829112 0.345947 0.059603
967 4 0.791273 0.306431 0.0950994
972 4 0.809625 0.325277 0.081817
973 4 0.848599 0.366617 0.0373891
994 4 0.65606 0.375272 0.0329287
1050 4 0.710453 0.413804 0.121754
1061 2 0.674035 0.404382 0.0857819
1062 4 0.687886 0.425705 0.111354
1063 4 0.660184 0.383059 0.0602098
1049 2 0.744997 0.421622 0.128538
1068 4 0.85969 0.483009 0.0830465
1048 4 0.84991 0.454726 0.080478
1046 2 0.81843 0.443865 0.0943158
1047 4 0.78695 0.433004 0.108154
1051 4 0.779541 0.42944 0.135323
1034 2 0.581275 0.0229404 0.233148
1036 4 0.590435 0.026585 0.19846
1004 2 0.647737 0.0781729 0.148607
1076 2 0.736352 0.0201484 0.191522
1078 4 0.707978 0.04232 0.189572
988 4 0.689057 0.120204 0.164759
986 2 0.701796 0.125661 0.198051
987 4 0.714536 0.131119 0.231343
1006 4 0.678855 0.0936082 0.158296
1044 4 0.86682 0.0447754 0.25401
1010 2 0.845503 0.101159 0.252423
1077 4 0.764725 0.997977 0.193473
1043 2 0.889765 0.0283214 0.231577
1012 4 0.866915 0.0735247 0.261273
1052 2 0.886842 0.219851 0.140496
1054 4 0.875931 0.202707 0.170287
1020 4 0.965431 0.260341 0.244972
123 3 0.593075 0.308625 0.147103
1059 4 0.5862 0.292222 0.168382
1060 4 0.602355 0.331793 0.226476
1058 2 0.594277 0.312007 0.197429
142 3 0.608071 0.361443 0.234908
127 3 0.512519 0.3009 0.239927
1066 4 0.804067 0.346007 0.22574
1064 2 0.836959 0.356119 0.214958
1065 4 0.869852 0.366231 0.204177
982 4 0.882289 0.346815 0.187092
980 2 0.888051 0.323708 0.160012
981 4 0.893812 0.300602 0.132931
951 4 0.615433 0.480999 0.208491
950 2 0.624728 0.446156 0.208606
952 4 0.634023 0.411313 0.208722
145 3 0.641316 0.403741 0.236653
1294 4 0.625631 0.508392 0.209133
1018 4 0.961482 0.491253 0.186871
282 4 0.959464 0.47726 0.213344
281 2 0.966894 0.457899 0.242846
1056 4 0.549515 0.0305963 0.278388
1297 4 0.616692 0.978694 0.292998
1035 4 0.572115 0.0192958 0.267836
1055 2 0.544315 0.0344507 0.313864
1057 4 0.539115 0.038305 0.34934
138 3 0.561518 0.0283711 0.368264
139 3 0.597706 0.0695404 0.368062
1002 4 0.660014 0.120524 0.311436
1080 4 0.660651 0.128098 0.338605
1079 2 0.641568 0.104922 0.358583
1023 4 0.798993 0.114613 0.251261
1011 4 0.824091 0.128794 0.243574
1001 2 0.691845 0.122812 0.294643
1003 4 0.723676 0.125099 0.277851
957 4 0.639799 0.203469 0.360108
959 2 0.690976 0.226232 0.314007
961 4 0.698406 0.232212 0.348784
960 4 0.683546 0.220251 0.279229
955 4 0.699251 0.251167 0.375143
1024 4 0.743267 0.14631 0.284302
1022 2 0.77113 0.130461 0.267781
1071 4 0.77503 0.259323 0.321578
1019 2 0.983871 0.233941 0.261204
126 1 0.503859 0.326828 0.258726
995 2 0.572035 0.368848 0.301548
996 4 0.543345 0.347006 0.301065
128 3 0.528825 0.33362 0.279952
141 1 0.632289 0.376206 0.252119
144 3 0.658313 0.35528 0.254304
1013 2 0.702462 0.357218 0.322065
1015 4 0.711481 0.323483 0.313064
1072 4 0.722835 0.302315 0.296494