ITEM: TIMESTEP
800000
ITEM: NUMBER OF ATOMS
4800
ITEM: BOX BOUNDS pp pp pp
-9.9985700000000008e+00 9.9985700000000008e+00
-9.9985700000000008e+00 9.9985700000000008e+00
-9.9985700000000008e+00 9.9985700000000008e+00
ITEM: ATOMS id type xs ys zs
1638 4 0.0469752 0.0634351 0.053386
2138 4 0.0655823 0.0647691 0.046372
1636 2 0.0232277 0.0556098 0.0533857
1637 4 0.99948 0.0477845 0.0533853
2137 2 0.0778846 0.0512844 0.0634599
1438 2 0.159542 0.0485074 0.014698
2646 4 0.123249 0.0228684 0.0184639
1439 4 0.139955 0.0330613 0.0129855
2139 4 0.0901869 0.0377998 0.0805478
1001 4 0.110713 0.0375868 0.0792331
1000 2 0.132704 0.0494362 0.0803148
1002 4 0.154695 0.0612856 0.0813966
1440 4 0.17913 0.0639534 0.0164104
1149 4 0.188712 0.0809999 0.0212994
805 2 0.417939 0.00960755 0.0571921
806 4 0.417702 0.027051 0.0392798
1431 4 0.420559 0.0466936 0.041035
1429 2 0.431839 0.068902 0.0388604
1387 2 0.149689 0.144007 0.0173317
1388 4 0.162673 0.126696 0.0298593
1389 4 0.136705 0.161317 0.00480403
1147 2 0.181971 0.101869 0.0333092
1148 4 0.175231 0.122738 0.045319
948 4 0.243911 0.116664 0.00764671
946 2 0.259287 0.131862 0.0202087
947 4 0.274662 0.147059 0.0327707
852 4 0.288771 0.145379 0.0189843
850 2 0.305023 0.163407 0.0249848
1818 4 0.4074 0.145192 0.0562664
1430 4 0.443119 0.0911104 0.0366858
1816 2 0.42137 0.125034 0.0514053
1817 4 0.435341 0.104875 0.0465443
1009 2 0.0419088 0.193675 0.0680852
1032 4 0.0416312 0.195507 0.0339938
1010 4 0.0445978 0.208499 0.0481305
1030 2 0.035752 0.198 0.0098195
867 4 0.178587 0.236727 0.0813022
851 4 0.321276 0.181436 0.0309854
1050 4 0.309027 0.245016 0.0314245
1413 4 0.339106 0.185863 0.0371283
1411 2 0.359043 0.190543 0.0227825
1412 4 0.37898 0.195223 0.00843684
1507 2 0.472768 0.242895 0.0478067
1739 4 0.446998 0.234405 0.0240912
1509 4 0.495863 0.238999 0.0565585
3087 4 0.00757033 0.270085 0.0310049
3085 2 0.0289967 0.268272 0.0437642
3086 4 0.0504231 0.266459 0.0565236
1254 4 0.11468 0.300043 0.0155421
938 4 0.130745 0.292446 0.00450399
1252 2 0.109515 0.290831 0.038206
937 2 0.151349 0.306582 0.00542138
1253 4 0.104351 0.28162 0.06087
837 4 0.10249 0.295904 0.0763603
939 4 0.171952 0.320719 0.00633878
962 4 0.21624 0.303884 0.0462446
961 2 0.229834 0.288287 0.032205
825 4 0.30149 0.259839 0.0217434
963 4 0.243428 0.27269 0.0181655
823 2 0.278599 0.263214 0.0122682
1048 2 0.331695 0.252797 0.0242958
1406 4 0.363179 0.278367 0.0121695
1049 4 0.354363 0.260578 0.0171672
1405 2 0.374582 0.290957 0.0305173
1119 4 0.379809 0.322468 0.0549212
1407 4 0.385986 0.303546 0.048865
1117 2 0.368222 0.324505 0.0769841
1508 4 0.449672 0.246792 0.0390549
804 4 0.1696 0.336007 0.0193741
802 2 0.168847 0.36073 0.0230339
1374 4 0.186131 0.384141 0.0352769
803 4 0.168094 0.385453 0.0266937
1372 2 0.201029 0.404058 0.0378356
1974 4 0.423556 0.336988 0.0687782
2161 2 0.0472985 0.492637 0.0453152
2163 4 0.0557105 0.473883 0.031078
1553 4 0.0677797 0.458335 0.0384054
1552 2 0.0849751 0.442811 0.0289982
1088 4 0.0919984 0.416179 0.00689834
1554 4 0.102171 0.427287 0.0195911
1373 4 0.215927 0.423975 0.0403944
1723 2 0.23729 0.458444 0.025353
1725 4 0.24675 0.47704 0.0115741
1724 4 0.227831 0.439847 0.0391318
1551 4 0.25909 0.493826 0.0101755
967 2 0.379674 0.430529 0.0643586
969 4 0.385433 0.436572 0.0407895
1125 4 0.357811 0.486603 0.0120196
1124 4 0.38848 0.455155 0.0359177
1123 2 0.373145 0.470879 0.0239687
1127 4 0.192456 0.0221973 0.175157
1458 4 0.292815 0.0769884 0.137658
1247 4 0.412672 0.000890224 0.09019
35 3 0.398782 0.0111208 0.145017
31 1 0.407543 0.0103276 0.166024
1246 2 0.413666 0.0103981 0.113294
1248 4 0.41466 0.019906 0.136398
2841 4 0.495084 0.0634357 0.0945325
3298 2 0.455065 0.0319584 0.141933
3300 4 0.433306 0.0199226 0.144559
3299 4 0.476823 0.0439941 0.139308
3887 4 0.494251 0.0483475 0.129978
439 3 0.0111993 0.147283 0.14203
19 3 0.128605 0.163822 0.14318
930 4 0.223369 0.0939188 0.170565
1884 4 0.167833 0.15975 0.100837
1882 2 0.178033 0.141187 0.114125
1883 4 0.188233 0.122625 0.127413
929 4 0.197279 0.104904 0.129342
928 2 0.210324 0.0994115 0.149953
1457 4 0.306681 0.109437 0.102224
1456 2 0.299748 0.0932125 0.119941
69 3 0.275502 0.138739 0.157813
1096 2 0.334212 0.148596 0.156928
1098 4 0.345332 0.143644 0.135087
777 4 0.356015 0.159078 0.125656
2839 2 0.480332 0.0833788 0.0976656
989 4 0.476844 0.1188 0.109209
2840 4 0.465579 0.103322 0.100799
988 2 0.472912 0.142293 0.101604
990 4 0.468981 0.165785 0.0939993
910 2 0.0563661 0.176896 0.122054
912 4 0.072648 0.166844 0.138148
1011 4 0.0392199 0.178851 0.0880399
3235 2 0.000697458 0.217201 0.155966
911 4 0.0400842 0.186949 0.105959
3237 4 0.0071115 0.240203 0.16338
20 3 0.0917286 0.169002 0.137618
16 1 0.112413 0.178023 0.134546
17 3 0.113589 0.198197 0.145537
1196 4 0.12402 0.214462 0.143137
18 3 0.116227 0.181567 0.111934
1195 2 0.107577 0.232988 0.139729
846 4 0.15911 0.175447 0.11099
844 2 0.165741 0.197534 0.101328
1220 4 0.202489 0.237178 0.143674
845 4 0.172372 0.219622 0.0916665
1219 2 0.213348 0.216293 0.152106
1221 4 0.224208 0.195409 0.160538
775 2 0.379464 0.165814 0.120185
776 4 0.402914 0.17255 0.114714
1218 4 0.415429 0.185471 0.104139
1217 4 0.463621 0.186176 0.090805
1216 2 0.439525 0.185824 0.0974721
1447 2 0.00162027 0.327306 0.0912854
810 4 0.0834074 0.268048 0.128037
808 2 0.0822458 0.281383 0.149156
1197 4 0.0911348 0.251513 0.13632
835 2 0.120931 0.289373 0.0919313
836 4 0.139372 0.282841 0.107502
866 4 0.150799 0.276783 0.0924392
865 2 0.164693 0.256755 0.0868707
977 4 0.29559 0.260255 0.0982228
976 2 0.319902 0.256519 0.102715
1204 2 0.320831 0.33424 0.115886
795 4 0.334896 0.265865 0.158493
1205 4 0.336131 0.326266 0.0977887
978 4 0.344213 0.252783 0.107208
1118 4 0.356635 0.326543 0.099047
1083 4 0.394311 0.29665 0.112563
1081 2 0.376269 0.292133 0.129274
1082 4 0.358228 0.287616 0.145986
1973 4 0.415546 0.3329 0.11797
1448 4 0.0074248 0.350604 0.0982631
1214 4 0.0622832 0.355762 0.163959
1173 4 0.0206064 0.360545 0.110127
1171 2 0.0335869 0.356979 0.131197
1172 4 0.0465674 0.353414 0.152268
1206 4 0.305531 0.342214 0.133983
15 3 0.361927 0.395784 0.127653
1972 2 0.419551 0.334944 0.0933742
1968 4 0.481912 0.406347 0.133197
2983 2 0.491513 0.352115 0.138516
2985 4 0.498661 0.363646 0.117512
2984 4 0.484365 0.340585 0.159519
1069 2 0.233243 0.448952 0.153701
1071 4 0.214195 0.463272 0.161271
52 3 0.210981 0.48171 0.169575
1070 4 0.252291 0.434632 0.146131
878 4 0.31773 0.416487 0.12988
877 2 0.293923 0.42167 0.135496
879 4 0.270116 0.426853 0.141111
968 4 0.373916 0.424487 0.0879278
12 3 0.336149 0.422639 0.130326
13 3 0.364696 0.426603 0.106202
11 1 0.358483 0.418285 0.126953
14 3 0.370762 0.428698 0.143661
1966 2 0.473024 0.415231 0.154813
893 4 0.161076 0.0832627 0.163401
1937 4 0.127327 0.028344 0.159047
1842 4 0.101734 0.0336034 0.222269
1936 2 0.120755 0.0321377 0.182871
1938 4 0.114182 0.0359315 0.206695
1840 2 0.102283 0.0223301 0.24458
1128 4 0.172114 0.0674488 0.168894
1126 2 0.182285 0.0448231 0.172025
1074 4 0.21108 0.0150505 0.174859
1160 4 0.237867 0.0801584 0.169508
1072 2 0.232096 0.00343966 0.167881
1159 2 0.257129 0.0796575 0.185442
1161 4 0.276392 0.0791567 0.201375
1142 4 0.290894 0.0757272 0.215863
1141 2 0.295443 0.0761615 0.240445
2199 4 0.332243 0.00626677 0.192803
2197 2 0.308796 0.00238604 0.185035
34 3 0.397789 0.026674 0.179292
1208 4 0.407113 0.0445505 0.184904
1207 2 0.410829 0.0646842 0.199257
32 3 0.430196 0.0141732 0.164935
1209 4 0.414545 0.0848179 0.21361
892 2 0.142779 0.0999459 0.166876
44 3 0.0954517 0.119215 0.207437
45 3 0.127198 0.129755 0.22472
43 3 0.11362 0.150788 0.196597
42 3 0.128502 0.116975 0.18968
41 1 0.116213 0.12923 0.204778
894 4 0.124482 0.116629 0.170351
885 4 0.112849 0.161211 0.179714
1016 4 0.147156 0.133063 0.230486
1015 2 0.151679 0.153101 0.244739
801 4 0.209429 0.155544 0.208868
1097 4 0.323092 0.153547 0.178768
68 3 0.275102 0.137959 0.195808
66 1 0.281297 0.150234 0.177117
70 3 0.303742 0.154075 0.177432
818 4 0.424541 0.101287 0.205208
817 2 0.442426 0.110256 0.220204
819 4 0.460311 0.119224 0.235199
887 4 0.015417 0.243365 0.181924
982 2 0.117555 0.240559 0.20894
884 4 0.0972115 0.200882 0.205835
983 4 0.102341 0.220878 0.206421
883 2 0.10503 0.181046 0.192774
800 4 0.212647 0.194568 0.177764
799 2 0.211038 0.175056 0.193316
67 3 0.270162 0.170361 0.177413
26 1 0.3269 0.22931 0.22906
30 3 0.309061 0.215965 0.233788
794 4 0.339327 0.23036 0.193429
28 3 0.338787 0.220583 0.211146
793 2 0.337112 0.248113 0.175961
29 3 0.340683 0.230984 0.247651
1213 2 0.0639045 0.331186 0.168265
923 4 0.0185431 0.266164 0.231897
886 2 0.00892327 0.257082 0.201795
1215 4 0.0655259 0.306609 0.172572
888 4 0.00242957 0.270798 0.221667
809 4 0.0810843 0.294718 0.170274
984 4 0.13277 0.26024 0.211458
1250 4 0.137262 0.268191 0.229992
1249 2 0.15838 0.281454 0.228178
1251 4 0.179498 0.294718 0.226363
881 4 0.187034 0.28282 0.241789
27 3 0.319376 0.250316 0.223466
999 4 0.409722 0.309251 0.227643
755 4 0.398698 0.324639 0.234393
997 2 0.417391 0.289728 0.241253
431 1 0.00121288 0.360326 0.238159
434 3 0.0202935 0.34862 0.232053
859 2 0.100926 0.414553 0.176134
861 4 0.0900569 0.393192 0.16901
1003 2 0.156396 0.397065 0.178355
1005 4 0.135353 0.385645 0.171145
1004 4 0.177438 0.408485 0.185564
905 4 0.185971 0.397979 0.200732
904 2 0.205307 0.413829 0.200473
754 2 0.406839 0.343968 0.22078
756 4 0.41498 0.363296 0.207167
3273 4 0.432499 0.361623 0.196508
3271 2 0.45423 0.356435 0.185282
3272 4 0.475961 0.351247 0.174056
1104 4 0.453949 0.387269 0.250987
1102 2 0.471466 0.40511 0.251192
1140 4 0.00396858 0.501456 0.244466
860 4 0.111795 0.435914 0.183259
906 4 0.224643 0.42968 0.200214
1848 4 0.22443 0.498165 0.22768
900 4 0.23799 0.502821 0.212281
898 2 0.255433 0.486515 0.204864
899 4 0.272877 0.470209 0.197447
1222 2 0.308912 0.447371 0.208148
1224 4 0.288486 0.45691 0.197332
1223 4 0.329337 0.437833 0.218965
1152 4 0.343165 0.428133 0.22989
1967 4 0.464136 0.424114 0.17643
2129 4 0.449914 0.43795 0.181428
2246 4 0.416937 0.488833 0.198534
2130 4 0.433014 0.484853 0.185332
2128 2 0.441464 0.461401 0.18338
1103 4 0.488983 0.422951 0.251397
2988 4 0.0758091 0.0609508 0.324683
2848 2 0.00216677 0.0710571 0.269584
2849 4 0.0038562 0.0483234 0.279855
2180 4 0.089232 0.0602237 0.309071
1841 4 0.102832 0.0110568 0.266892
2179 2 0.0935094 0.0387292 0.297035
2181 4 0.0977868 0.0172347 0.284999
1826 4 0.164395 0.0275083 0.318734
2144 4 0.163918 0.00800098 0.318615
1143 4 0.299992 0.0765957 0.265028
1787 4 0.426424 0.0192905 0.26259
2977 2 0.442136 0.052678 0.285505
2979 4 0.427671 0.035156 0.275068
2978 4 0.456601 0.0702001 0.295941
1786 2 0.441903 1.39256e-05 0.266332
24 3 0.445546 0.0135882 0.322043
1153 2 0.0195274 0.120691 0.322847
1154 4 0.00680816 0.142002 0.325892
2850 4 0.00047734 0.0937909 0.259312
1155 4 0.0322467 0.0993812 0.319803
2986 2 0.0628711 0.0823075 0.325979
2987 4 0.049933 0.103664 0.327275
1878 4 0.299945 0.0797829 0.28351
1876 2 0.314143 0.0899417 0.30141
1877 4 0.328341 0.100101 0.319309
832 2 0.379285 0.163792 0.319471
834 4 0.379343 0.141897 0.331546
932 4 0.459123 0.0887872 0.293516
848 4 0.498347 0.134272 0.322716
931 2 0.471573 0.108871 0.30169
933 4 0.484023 0.128955 0.309863
1229 4 0.996738 0.196153 0.30942
1230 4 0.00371356 0.241652 0.289877
1228 2 0.000225574 0.218903 0.299649
83 3 0.0758321 0.206586 0.303447
924 4 0.0180307 0.246995 0.278082
82 3 0.090174 0.171872 0.304823
1017 4 0.156203 0.17314 0.258993
1061 4 0.155848 0.192624 0.25967
1060 2 0.140025 0.204009 0.275328
1062 4 0.124202 0.215395 0.290986
85 3 0.112883 0.20104 0.299685
81 1 0.0940213 0.19389 0.310257
84 3 0.0967032 0.195585 0.333243
1094 4 0.352492 0.218418 0.257886
1093 2 0.363248 0.211427 0.279348
1095 4 0.374003 0.204436 0.30081
833 4 0.379227 0.185686 0.307396
922 2 0.0182869 0.25658 0.254989
1105 2 0.0740557 0.303595 0.292102
1107 4 0.06023 0.323825 0.287125
1046 4 0.0750499 0.333399 0.279218
1077 4 0.0608106 0.24789 0.334723
1106 4 0.0878813 0.283364 0.297078
955 2 0.138402 0.298597 0.334831
956 4 0.161358 0.307802 0.331161
880 2 0.20584 0.281609 0.258221
882 4 0.224647 0.280397 0.274654
890 4 0.235761 0.328786 0.335258
843 4 0.178208 0.297617 0.334854
842 4 0.223962 0.315959 0.326433
841 2 0.201085 0.306788 0.330643
814 2 0.366198 0.253304 0.32553
815 4 0.369001 0.268706 0.306034
782 4 0.375699 0.28575 0.312987
781 2 0.373278 0.307334 0.325376
998 4 0.42506 0.270205 0.254862
3007 2 0.442436 0.27226 0.286685
3008 4 0.436921 0.259776 0.265735
3009 4 0.447951 0.284744 0.307635
1022 4 0.441224 0.276584 0.324522
1044 4 0.00358942 0.388648 0.267591
435 3 0.00695054 0.378854 0.250095
1045 2 0.0843052 0.356076 0.274193
1047 4 0.0935605 0.378754 0.269169
889 2 0.250931 0.346416 0.326078
1037 4 0.248782 0.376705 0.320608
1036 2 0.251404 0.401517 0.322252
891 4 0.2661 0.364046 0.316899
925 2 0.377543 0.404675 0.293739
927 4 0.356609 0.406571 0.280199
926 4 0.398478 0.402778 0.307279
79 3 0.393842 0.408607 0.326364
1194 4 0.443248 0.379495 0.268254
1192 2 0.430705 0.389755 0.287295
1193 4 0.418162 0.400016 0.306336
78 3 0.429883 0.413451 0.315317
1138 2 0.00419701 0.479566 0.256545
1038 4 0.254027 0.426328 0.323896
1013 4 0.296106 0.475995 0.337475
1012 2 0.284055 0.455872 0.328815
1014 4 0.272005 0.435748 0.320155
76 1 0.414312 0.418026 0.331901
1151 4 0.341045 0.420656 0.27929
1150 2 0.342105 0.424395 0.25459
80 3 0.412068 0.440545 0.334454
3162 4 0.476632 0.481221 0.314906
1176 4 0.456476 0.485432 0.316652
3160 2 0.489624 0.48302 0.293619
1174 2 0.443093 0.465117 0.322428
1175 4 0.42971 0.444802 0.328205
769 2 0.235765 0.0441391 0.358946
1825 2 0.180212 0.0291213 0.338032
1827 4 0.196029 0.0307343 0.35733
771 4 0.211269 0.0425511 0.363699
770 4 0.260261 0.045727 0.354193
959 4 0.402151 4.79995e-05 0.340306
89 3 0.400452 0.00900514 0.410578
1145 4 0.366464 0.055742 0.40459
87 3 0.375538 0.0368828 0.406732
88 3 0.363336 0.00240731 0.415404
86 1 0.38047 0.017744 0.418502
23 3 0.41979 0.00507217 0.348661
22 3 0.454726 0.0148713 0.358467
3075 4 0.0056368 0.0837883 0.410365
1135 2 0.273516 0.112987 0.406482
1137 4 0.276733 0.137309 0.401657
1181 4 0.269994 0.151466 0.413815
847 2 0.487381 0.141151 0.344107
811 2 0.496933 0.157817 0.410551
813 4 0.4764 0.143586 0.409531
849 4 0.476414 0.14803 0.365499
908 4 0.481054 0.168473 0.365584
2858 4 0.0638177 0.200662 0.35059
2857 2 0.0492835 0.212202 0.367346
2859 4 0.0347493 0.223742 0.384103
3113 4 0.0207718 0.231148 0.395273
1080 4 0.0838475 0.194063 0.348081
1395 4 0.0935691 0.178142 0.39667
1079 4 0.106974 0.167774 0.383785
1078 2 0.0954107 0.180918 0.365933
65 3 0.302927 0.2438 0.413957
1165 2 0.361349 0.233116 0.388413
1167 4 0.364038 0.243663 0.365903
816 4 0.363394 0.237902 0.345026
1166 4 0.35866 0.222569 0.410924
64 3 0.335403 0.225584 0.408376
909 4 0.449416 0.205165 0.377972
907 2 0.465235 0.186819 0.371778
3151 2 0.038163 0.315061 0.398628
3112 2 0.0261867 0.253358 0.405401
1075 2 0.0787345 0.264713 0.339295
3153 4 0.0303179 0.292137 0.404802
3114 4 0.0316015 0.275568 0.415529
957 4 0.115446 0.289393 0.338501
1076 4 0.0966583 0.281536 0.343866
1029 4 0.132435 0.314673 0.407199
868 2 0.241731 0.314275 0.395532
870 4 0.244902 0.289474 0.395669
792 4 0.294204 0.257028 0.402128
791 4 0.260614 0.293662 0.407633
790 2 0.277409 0.275345 0.404881
783 4 0.370857 0.328917 0.337764
1023 4 0.472501 0.275321 0.36352
1021 2 0.456862 0.275952 0.344021
3152 4 0.0460081 0.337985 0.392453
869 4 0.238559 0.339076 0.395394
974 4 0.189048 0.390921 0.362252
980 4 0.21046 0.386594 0.358185
979 2 0.218989 0.365761 0.369068
981 4 0.227519 0.344929 0.379951
973 2 0.183399 0.41318 0.372141
903 4 0.36055 0.342556 0.348048
901 2 0.369558 0.338642 0.371042
902 4 0.378565 0.334728 0.394036
762 4 0.379939 0.339476 0.41339
760 2 0.398933 0.355475 0.416294
2220 4 0.415412 0.384909 0.404957
2218 2 0.423542 0.399799 0.386589
77 3 0.421612 0.408848 0.351691
1186 2 0.0339478 0.467306 0.412715
1020 4 0.0116876 0.443711 0.406175
1188 4 0.0455099 0.487311 0.40316
1923 4 0.189743 0.48188 0.33855
975 4 0.17775 0.43544 0.382031
1922 4 0.190543 0.449537 0.376681
1921 2 0.190143 0.465708 0.357615
1853 4 0.196364 0.500803 0.336218
1950 4 0.293175 0.476872 0.393932
1891 2 0.313056 0.494006 0.365892
1892 4 0.294494 0.492737 0.382596
1893 4 0.331617 0.495276 0.349188
1948 2 0.283529 0.461056 0.410724
2219 4 0.431672 0.414689 0.368222
58 3 0.0109929 0.0796641 0.429119
940 2 0.00711469 0.0467475 0.476255
942 4 0.0270977 0.0595529 0.468388
3394 2 0.059292 0.0733021 0.480718
3395 4 0.0756841 0.0594355 0.493531
1065 4 0.104839 0.0504085 0.421313
1063 2 0.126015 0.0586761 0.431724
1064 4 0.147192 0.0669437 0.442134
50 3 0.147732 0.0641027 0.462219
46 1 0.160354 0.0737172 0.478556
864 4 0.113422 0.0139642 0.4994
48 3 0.17117 0.0573088 0.490893
175 3 0.219658 0.0833753 0.472185
47 3 0.176142 0.0873693 0.468886
1594 2 0.282094 0.0777873 0.472108
1595 4 0.265131 0.0784501 0.490466
1596 4 0.299056 0.0771245 0.45375
214 3 0.323133 0.0562023 0.473897
215 3 0.341117 0.023605 0.479522
1144 2 0.362835 0.0767622 0.417634
90 3 0.382441 0.0228332 0.440612
211 1 0.343769 0.0455983 0.47424
212 3 0.353342 0.0472815 0.45339
2723 4 0.355658 0.0159316 0.491199
213 3 0.357682 0.0558398 0.48973
986 4 0.398839 0.0759632 0.480838
1233 4 0.408776 0.0708676 0.496526
4032 4 0.475811 0.0132048 0.491495
4030 2 0.499192 0.0216262 0.488741
57 3 0.00528869 0.0844721 0.465956
3396 4 0.0428998 0.0871688 0.467904
59 3 0.00539018 0.114471 0.443313
60 3 0.037323 0.095896 0.450587
56 1 0.0149131 0.0936713 0.447197
49 3 0.146889 0.0865046 0.492469
2210 4 0.158208 0.102489 0.496125
172 3 0.252718 0.0940213 0.485846
1245 4 0.169407 0.105134 0.479243
1243 2 0.18078 0.12137 0.464004
1244 4 0.192154 0.137605 0.448766
171 1 0.231257 0.087776 0.491284
1136 4 0.270299 0.0886651 0.411306
37 3 0.244467 0.130485 0.498812
951 4 0.392794 0.119799 0.42653
1146 4 0.359205 0.0977825 0.430678
949 2 0.400122 0.143695 0.425847
985 2 0.408131 0.0832144 0.458787
147 3 0.408143 0.140433 0.504935
987 4 0.417423 0.0904655 0.436735
3182 4 0.46427 0.138748 0.425
3181 2 0.449446 0.120018 0.432391
3183 4 0.434622 0.101288 0.439781
400 3 0.998578 0.191295 0.472058
1650 4 0.00658992 0.173464 0.467731
1394 4 0.0768156 0.183325 0.443501
1649 4 0.0396443 0.196398 0.43803
1648 2 0.0231171 0.184931 0.45288
1393 2 0.0851924 0.180733 0.420086
1472 4 0.0881343 0.181374 0.460037
1471 2 0.10315 0.179751 0.479964
827 4 0.13084 0.221693 0.477479
826 2 0.118599 0.240342 0.488775
1131 4 0.146152 0.210852 0.482945
1129 2 0.169898 0.218594 0.484119
1130 4 0.193644 0.226336 0.485293
1180 2 0.285264 0.170661 0.41867
62 3 0.30372 0.206503 0.415068
1182 4 0.300534 0.189855 0.423524
61 1 0.315352 0.225713 0.420052
63 3 0.319481 0.226273 0.442878
1052 4 0.326894 0.23309 0.46008
1051 2 0.312441 0.237756 0.479942
1227 4 0.374541 0.21213 0.419659
950 4 0.40745 0.167591 0.425165
1225 2 0.395469 0.198476 0.418797
1226 4 0.416397 0.184822 0.417936
828 4 0.106359 0.258991 0.50007
1053 4 0.297987 0.242422 0.499804
1056 4 0.465913 0.331362 0.415037
1426 2 0.0031065 0.413351 0.469369
1427 4 0.00848468 0.390013 0.462185
875 4 0.0212187 0.377605 0.473487
874 2 0.0375448 0.375092 0.492257
1027 2 0.132767 0.332974 0.424232
7 3 0.0906965 0.373507 0.474687
1028 4 0.1331 0.351275 0.441266
10 3 0.117437 0.361135 0.451779
6 1 0.113246 0.373912 0.470159
8 3 0.119709 0.395843 0.466196
1133 4 0.112274 0.410356 0.454625
1169 4 0.130459 0.384324 0.495735
9 3 0.124726 0.365456 0.488465
785 4 0.48091 0.339146 0.425787
761 4 0.417927 0.371474 0.419198
1383 4 0.435585 0.343876 0.467617
1054 2 0.448148 0.336787 0.431775
1381 2 0.433561 0.347618 0.492256
1055 4 0.430384 0.342212 0.448513
1187 4 0.0223857 0.447301 0.42227
1134 4 0.124289 0.449268 0.483646
1132 2 0.118281 0.429812 0.469135
1091 4 0.166731 0.465341 0.499733
1092 4 0.212426 0.46772 0.479557
1982 4 0.227131 0.461371 0.467773
1090 2 0.189579 0.466531 0.489645
1981 2 0.246275 0.450075 0.456323
1983 4 0.265418 0.438779 0.444873
1949 4 0.273883 0.44524 0.427517
1120 2 0.398826 0.477937 0.446755
1121 4 0.379282 0.490787 0.437919
1443 4 0.431974 0.451909 0.462078
1441 2 0.437866 0.456146 0.486005
1122 4 0.41837 0.465086 0.45559
863 4 0.0717781 0.0415973 0.501114
862 2 0.0925999 0.0277808 0.500257
840 4 0.176245 0.0583046 0.510395
839 4 0.205515 0.0412226 0.547168
838 2 0.19088 0.0497636 0.528781
1572 4 0.219585 0.0467354 0.561221
173 3 0.232114 0.0687799 0.504581
1570 2 0.215962 0.0658453 0.576933
2485 2 0.26484 0.0551051 0.519159
2487 4 0.277391 0.040689 0.535279
2486 4 0.252289 0.0695213 0.50304
268 3 0.3696 0.0123557 0.548104
2722 2 0.358922 0.00647309 0.514113
266 1 0.371282 0.00495763 0.570032
270 3 0.350582 0.00381548 0.579458
267 3 0.384212 0.0198121 0.58192
2211 4 0.129022 0.114379 0.534952
1558 2 0.127511 0.100435 0.573198
1559 4 0.124956 0.0981738 0.548428
2209 2 0.143615 0.108434 0.515538
38 3 0.233275 0.142539 0.532607
174 3 0.22111 0.105118 0.50289
36 1 0.248273 0.146105 0.515264
39 3 0.270024 0.143719 0.522986
1361 4 0.270399 0.156247 0.539299
1700 4 0.320418 0.158892 0.578086
1699 2 0.343372 0.160452 0.568297
1701 4 0.366327 0.162012 0.558509
1178 4 0.409984 0.157649 0.544116
1231 2 0.418613 0.085196 0.514502
1499 4 0.484693 0.0751278 0.577205
150 3 0.426348 0.150089 0.536052
1498 2 0.48179 0.0881544 0.556061
1232 4 0.42845 0.0995245 0.532477
148 3 0.43092 0.115618 0.521611
149 3 0.445305 0.145945 0.503785
146 1 0.42774 0.138083 0.51675
1500 4 0.478888 0.101181 0.534918
1101 4 0.498116 0.0961407 0.529882
780 4 0.130241 0.165794 0.513445
779 4 0.150294 0.186739 0.554187
778 2 0.140267 0.176267 0.533816
1602 4 0.160846 0.193951 0.569894
1473 4 0.118166 0.178128 0.49989
40 3 0.245341 0.16697 0.506622
1108 2 0.21287 0.242459 0.515798
1110 4 0.2322 0.244895 0.53147
1109 4 0.19354 0.240023 0.500126
1360 2 0.289692 0.170324 0.546701
1362 4 0.308986 0.184402 0.554102
1322 4 0.328162 0.18982 0.56045
1321 2 0.326053 0.213653 0.567712
1323 4 0.323943 0.237485 0.574973
934 2 0.265421 0.248813 0.529569
935 4 0.285512 0.244018 0.515479
1177 2 0.423518 0.173854 0.557508
1179 4 0.437053 0.19006 0.570901
1646 4 0.451152 0.197906 0.559146
1645 2 0.475767 0.201918 0.560926
1647 4 0.500383 0.20593 0.562706
1341 4 0.152096 0.304273 0.524693
1339 2 0.137583 0.286233 0.515253
1276 2 0.149237 0.324153 0.558102
1277 4 0.153714 0.322878 0.533535
1340 4 0.123071 0.268193 0.505812
936 4 0.24533 0.253609 0.543659
1385 4 0.406034 0.32477 0.577737
1384 2 0.403792 0.310528 0.557308
1386 4 0.40155 0.296287 0.536879
1806 4 0.0524412 0.383884 0.527167
1804 2 0.0612106 0.405427 0.536341
1593 4 0.0695872 0.375205 0.573359
876 4 0.0538708 0.372579 0.511027
1168 2 0.145475 0.382535 0.515647
1170 4 0.160492 0.380746 0.535559
1237 2 0.194817 0.40903 0.537297
1238 4 0.177705 0.391108 0.54064
1455 4 0.428451 0.369581 0.516757
1382 4 0.431537 0.35136 0.516895
1453 2 0.43871 0.384148 0.534299
1454 4 0.448969 0.398714 0.551842
3606 4 0.466542 0.393589 0.559457
3604 2 0.466043 0.401811 0.583065
3376 2 0.498685 0.392146 0.524695
3378 4 0.486259 0.413014 0.518756
1805 4 0.0699801 0.42697 0.545516
1007 4 0.0954554 0.460617 0.576053
1006 2 0.11487 0.44727 0.567681
1008 4 0.134285 0.433923 0.559308
1590 4 0.152846 0.438356 0.54952
1239 4 0.211929 0.426952 0.533955
164 3 0.225321 0.429725 0.51882
1588 2 0.168667 0.457715 0.549831
165 3 0.232717 0.442926 0.553297
2799 4 0.193372 0.486097 0.565749
161 1 0.241957 0.434421 0.534299
1589 4 0.184488 0.477074 0.550143
162 3 0.253116 0.414952 0.539359
163 3 0.257046 0.449606 0.525349
1114 2 0.460511 0.472577 0.550002
1115 4 0.470077 0.482785 0.570726
1116 4 0.450946 0.462369 0.529278
1442 4 0.443758 0.460382 0.509933
4391 4 0.489655 0.481131 0.577449
1616 4 0.123176 0.0813159 0.664034
1571 4 0.212339 0.0849552 0.592645
1299 4 0.217028 0.999085 0.670231
1644 4 0.383999 0.0243452 0.601983
1642 2 0.402718 0.0230616 0.618509
1531 2 0.399512 0.0824035 0.667988
1532 4 0.412332 0.061082 0.670485
1643 4 0.421438 0.021778 0.635035
2267 4 0.446408 0.0502369 0.60584
2266 2 0.467099 0.0634603 0.601127
2268 4 0.48779 0.0766836 0.596414
526 1 0.500612 0.0778464 0.641457
1290 4 0.0904096 0.164663 0.603892
1560 4 0.130066 0.102696 0.597968
1496 4 0.137151 0.117517 0.609099
1497 4 0.117932 0.0950321 0.649419
1495 2 0.127541 0.106275 0.629259
1601 4 0.18692 0.163752 0.600042
1581 4 0.185948 0.146436 0.609848
1580 4 0.209394 0.105396 0.593515
1579 2 0.197671 0.125916 0.601682
1305 4 0.215391 0.120306 0.642443
1485 4 0.199233 0.131444 0.646876
1483 2 0.192089 0.153388 0.656502
1303 2 0.238964 0.125748 0.64876
1304 4 0.262536 0.13119 0.655077
1350 4 0.321142 0.110515 0.651798
1348 2 0.299941 0.121904 0.658579
1349 4 0.278741 0.133294 0.66536
1546 2 0.394257 0.124939 0.628245
1548 4 0.395407 0.109888 0.648178
1547 4 0.393107 0.13999 0.608312
530 3 0.477924 0.0779726 0.639485
1288 2 0.0677176 0.173614 0.609382
1629 4 0.0407776 0.17879 0.63417
1289 4 0.0450255 0.182564 0.614873
1627 2 0.0337654 0.177435 0.658132
1686 4 0.130405 0.221811 0.64605
1600 2 0.173883 0.178852 0.584968
1620 4 0.320574 0.173537 0.655258
1267 2 0.283017 0.233851 0.638474
1268 4 0.300094 0.232014 0.620303
1269 4 0.265941 0.235687 0.656646
1545 4 0.340542 0.243515 0.583238
1543 2 0.358562 0.251983 0.598363
3563 4 0.023442 0.275193 0.645875
3562 2 0.041459 0.26708 0.661196
1403 4 0.0652684 0.321119 0.653067
1296 4 0.0765876 0.305843 0.651037
3369 4 0.00547584 0.275787 0.641995
1278 4 0.144761 0.325428 0.582668
1684 2 0.133177 0.246517 0.648709
1294 2 0.0976704 0.292614 0.653426
1685 4 0.135949 0.271224 0.651368
1295 4 0.118753 0.279386 0.655815
142 3 0.145146 0.334309 0.631357
1662 4 0.305452 0.282088 0.653788
1660 2 0.329372 0.286375 0.647905
1286 4 0.392937 0.320758 0.593372
1544 4 0.376582 0.26045 0.613487
1287 4 0.369234 0.298285 0.631238
1285 2 0.381085 0.309521 0.612305
1661 4 0.353293 0.290662 0.642021
145 3 0.132755 0.330651 0.596343
1591 2 0.08702 0.369216 0.590253
1592 4 0.104453 0.363228 0.607147
143 3 0.122796 0.360727 0.616688
141 1 0.139755 0.345586 0.612046
144 3 0.158562 0.356846 0.604435
1355 4 0.17118 0.363977 0.619784
1354 2 0.194335 0.369178 0.611912
1356 4 0.21749 0.374379 0.604039
1614 4 0.223147 0.405891 0.646294
1352 4 0.233288 0.406778 0.663424
1561 2 0.420604 0.352972 0.666862
1562 4 0.440583 0.367956 0.668094
3651 4 0.45956 0.368764 0.659367
3649 2 0.461997 0.387795 0.643334
3650 4 0.464434 0.406825 0.6273
3605 4 0.465544 0.410033 0.606673
1744 2 0.0509399 0.414975 0.666479
1392 4 0.0680405 0.433182 0.629207
1746 4 0.0650768 0.419814 0.646431
1390 2 0.0738312 0.441952 0.606519
1391 4 0.0796219 0.450723 0.583832
1437 4 0.0883717 0.495853 0.634975
1478 4 0.0978124 0.502505 0.652218
1612 2 0.208258 0.425821 0.64379
1613 4 0.193368 0.445751 0.641286
1599 4 0.176867 0.448341 0.651
1653 4 0.330323 0.474455 0.616923
2595 4 0.314088 0.481933 0.609067
1651 2 0.353652 0.478142 0.62513
1652 4 0.37698 0.481829 0.633337
1698 4 0.385984 0.492434 0.618263
4390 2 0.488172 0.502611 0.590161
1711 2 0.163768 0.031717 0.741388
1712 4 0.179731 0.0257609 0.723089
2775 4 0.198617 0.0176865 0.717661
2773 2 0.213766 0.00567037 0.701808
1419 4 0.271932 0.0292776 0.745171
2680 2 0.284268 0.999601 0.725449
2681 4 0.268307 0.0185149 0.729009
102 3 0.392 0.0168811 0.687512
101 1 0.408496 0.032799 0.689427
105 3 0.416745 0.0325365 0.710653
104 3 0.399407 0.0536236 0.684723
103 3 0.425405 0.0279354 0.674301
2441 4 0.0782606 0.0915211 0.715424
2440 2 0.0688513 0.0887303 0.738421
1316 4 0.023496 0.15589 0.747568
1315 2 0.0237706 0.161673 0.723244
1617 4 0.0944841 0.0920758 0.703552
1615 2 0.10883 0.0866959 0.683793
1533 4 0.386693 0.103725 0.665491
478 3 0.495423 0.107817 0.745284
1605 4 0.0044691 0.248678 0.707409
1317 4 0.0240452 0.167455 0.69892
1539 4 0.0745901 0.215799 0.715321
1628 4 0.0267533 0.17608 0.682094
1537 2 0.0657047 0.237034 0.705559
1484 4 0.184946 0.175331 0.666127
1656 4 0.184339 0.193189 0.673112
1655 4 0.186915 0.221039 0.714566
1654 2 0.185627 0.207114 0.693839
1368 4 0.175601 0.232335 0.72626
1366 2 0.196764 0.240254 0.736964
1718 4 0.231309 0.251191 0.734462
1367 4 0.217928 0.248172 0.747668
1703 4 0.266723 0.224208 0.672505
1702 2 0.259471 0.206481 0.688579
1704 4 0.252218 0.188755 0.704652
1618 2 0.319256 0.187717 0.67581
1619 4 0.317939 0.201897 0.696362
1465 2 0.473495 0.2332 0.690074
1466 4 0.450611 0.243158 0.6916
1467 4 0.496379 0.223243 0.688548
3575 4 0.501338 0.172889 0.754719
1402 2 0.0582875 0.331229 0.674845
3564 4 0.0594759 0.258967 0.676518
1538 4 0.0568193 0.25827 0.695797
1717 2 0.244329 0.272354 0.737251
1501 2 0.2427 0.318883 0.709746
1503 4 0.23349 0.327063 0.687987
1502 4 0.25191 0.310702 0.731505
1719 4 0.25735 0.293517 0.740039
160 3 0.260728 0.325931 0.740423
1480 2 0.356147 0.284784 0.728359
1481 4 0.367909 0.297771 0.710522
3429 4 0.356702 0.313844 0.702915
3427 2 0.376409 0.326204 0.693747
1446 4 0.421609 0.255077 0.743876
1444 2 0.429995 0.256159 0.720346
1445 4 0.43838 0.257242 0.696815
1745 4 0.036803 0.410137 0.686527
1404 4 0.0513066 0.341338 0.696622
1347 4 0.0381623 0.331519 0.706446
1345 2 0.0410477 0.35014 0.722882
1346 4 0.0439331 0.36876 0.739318
3573 4 0.128911 0.409991 0.732335
3571 2 0.13424 0.39332 0.750191
1396 2 0.206535 0.360222 0.696159
1398 4 0.216498 0.338468 0.6889
1397 4 0.196571 0.381975 0.703417
1351 2 0.255026 0.41232 0.674466
1563 4 0.400625 0.337989 0.665629
3428 4 0.396116 0.338564 0.684579
1452 4 0.376496 0.358752 0.732452
2628 4 0.114855 0.418514 0.723122
1477 2 0.0996336 0.483532 0.668401
2627 4 0.0905543 0.450042 0.692855
1479 4 0.101455 0.464558 0.684584
2626 2 0.102705 0.434278 0.707989
2426 4 0.16408 0.496152 0.693762
2425 2 0.156927 0.491974 0.717353
2427 4 0.149775 0.487795 0.740945
1597 2 0.176835 0.465131 0.669528
1598 4 0.176803 0.481921 0.688056
1353 4 0.276764 0.417863 0.685509
1469 4 0.297975 0.415691 0.686667
1470 4 0.299715 0.433506 0.733361
1468 2 0.298845 0.424598 0.710014
1610 4 0.288354 0.449126 0.733533
3314 4 0.461586 0.486693 0.740007
1673 4 0.455387 0.500489 0.726995
3316 2 0.0116759 0.0244569 0.79178
3318 4 0.0342485 0.0178324 0.783308
2442 4 0.059442 0.0859395 0.761418