ITEM: TIMESTEP
180000
ITEM: NUMBER OF ATOMS
1600
ITEM: BOX BOUNDS pp pp pp
-6.9325799999999997e+00 6.9325799999999997e+00
-6.9325799999999997e+00 6.9325799999999997e+00
-6.9325799999999997e+00 6.9325799999999997e+00
ITEM: ATOMS id type xs ys zs
19 3 0.119218 0.0921623 0.0940137
362 2 0.0164108 0.0575546 0.00491779
364 4 0.0317684 0.0460872 0.0354642
1305 4 0.0622431 0.0187046 0.121268
16 1 0.15257 0.092995 0.0913843
18 3 0.162745 0.0711833 0.0681322
406 4 0.238408 0.107189 0.0102107
17 3 0.165845 0.0845165 0.120583
385 4 0.240055 0.0889566 0.0335354
672 4 0.25113 0.0105312 0.0755925
383 2 0.253459 0.0614929 0.0526802
384 4 0.266862 0.0340292 0.0718249
324 4 0.366752 0.110578 0.0393233
372 4 0.382395 0.0385131 0.088699
323 2 0.345996 0.123393 0.0127639
371 2 0.374887 0.0595622 0.060397
373 4 0.367379 0.0806113 0.032095
592 4 0.370067 0.0131296 0.0829975
411 4 0.453383 0.0717514 0.113678
410 2 0.445501 0.0967209 0.0888822
412 4 0.437619 0.12169 0.0640863
1008 4 0.993177 0.133747 0.0943162
1007 2 0.998354 0.150501 0.125828
20 3 0.16243 0.123293 0.0834069
337 4 0.351706 0.228371 0.0691891
272 2 0.440503 0.175669 0.0702725
273 4 0.424386 0.144449 0.0783969
274 4 0.45662 0.206889 0.0621481
1083 4 0.476052 0.19836 0.0399164
1082 2 0.489675 0.186445 0.00872514
357 4 0.0630834 0.317934 0.00796266
356 2 0.0537424 0.348727 0.0242404
358 4 0.0444014 0.37952 0.0405182
311 2 0.109831 0.282864 0.00756336
313 4 0.137808 0.265351 0.022089
335 2 0.326385 0.251791 0.0797158
336 4 0.301064 0.275211 0.0902425
297 4 0.273932 0.281728 0.0830653
296 2 0.254383 0.27889 0.113235
267 4 0.185084 0.444478 0.0704032
266 2 0.178335 0.475227 0.0528142
354 4 0.304885 0.479645 0.0816172
68 3 0.32017 0.493396 0.0624768
353 2 0.326899 0.453456 0.0930159
355 4 0.348913 0.427266 0.104415
645 4 0.0395273 0.00152726 0.208096
644 2 0.0494718 0.998607 0.173556
342 4 0.0824525 0.107445 0.245013
262 4 0.188642 0.082111 0.137681
260 2 0.188991 0.0844233 0.173666
261 4 0.189341 0.0867357 0.209652
999 4 0.437725 0.0563852 0.131282
309 4 0.462065 0.0470996 0.225633
1000 4 0.458334 0.0612327 0.200228
998 2 0.448029 0.0588089 0.165755
308 2 0.459325 0.076971 0.245649
414 4 0.0589965 0.184267 0.153433
413 2 0.0804225 0.20989 0.139839
341 2 0.0743316 0.136366 0.225061
343 4 0.0662107 0.165287 0.20511
415 4 0.101848 0.235514 0.126245
381 4 0.471302 0.214024 0.250721
376 4 0.183033 0.263987 0.232727
328 4 0.200179 0.287546 0.23666
327 4 0.227086 0.278622 0.170342
326 2 0.213632 0.283084 0.203501
298 4 0.234834 0.276052 0.143406
14 3 0.37564 0.286193 0.12086
13 3 0.429873 0.281827 0.127516
15 3 0.404512 0.328445 0.139027
391 4 0.402529 0.301012 0.194736
11 1 0.401833 0.295711 0.139388
12 3 0.397178 0.285472 0.1706
389 2 0.385547 0.306506 0.226071
665 2 0.00572294 0.0539217 0.317322
258 4 0.0692162 0.0492998 0.316311
666 4 0.0414721 0.0583874 0.318901
257 2 0.0827117 0.069789 0.289882
259 4 0.0962072 0.0902783 0.263452
417 4 0.166336 0.0311167 0.255934
416 2 0.169122 0.0573291 0.280543
418 4 0.171907 0.0835414 0.305152
331 4 0.178404 0.104325 0.323268
25 3 0.328497 0.998892 0.32365
22 3 0.320335 0.0262302 0.278006
649 4 0.382688 0.0396693 0.384533
310 4 0.456585 0.106842 0.265665
370 4 0.435871 0.116172 0.282133
1021 4 0.00600838 0.188844 0.298262
941 2 0.049324 0.154105 0.300597
942 4 0.0783296 0.138322 0.286105
943 4 0.0203184 0.169887 0.315089
329 2 0.185154 0.127741 0.34985
29 3 0.318257 0.203368 0.270647
30 3 0.350868 0.160393 0.276865
26 1 0.332268 0.182394 0.292641
28 3 0.308495 0.16673 0.310231
27 3 0.35129 0.199844 0.313483
368 2 0.407167 0.136855 0.275151
369 4 0.378464 0.157539 0.268168
380 2 0.452122 0.243852 0.257267
318 4 0.105171 0.285984 0.287668
317 2 0.101545 0.282867 0.323411
319 4 0.0979199 0.279749 0.359154
375 4 0.119757 0.270512 0.266717
374 2 0.151395 0.267249 0.249722
344 2 0.191789 0.367774 0.348453
379 4 0.212463 0.316623 0.362901
346 4 0.208161 0.336775 0.340002
390 4 0.368565 0.312 0.257406
398 2 0.351259 0.319683 0.311271
400 4 0.334629 0.335842 0.338889
399 4 0.367889 0.303525 0.283652
348 4 0.336426 0.315066 0.36053
130 3 0.49512 0.306562 0.257449
129 3 0.48671 0.354474 0.281585
382 4 0.432943 0.27368 0.263814
394 4 0.00172015 0.443874 0.285387
283 4 0.998067 0.468505 0.268208
934 4 0.0120031 0.40971 0.361423
345 4 0.175417 0.398774 0.356905
403 4 0.323213 0.467176 0.377704
962 2 0.48496 0.457441 0.357325
963 4 0.454266 0.476352 0.356478
744 4 0.432282 0.486704 0.371975
716 2 0.204511 0.0148297 0.431849
717 4 0.209774 0.0498645 0.425119
314 2 0.238174 0.0871951 0.448327
316 4 0.222588 0.0744516 0.418408
647 2 0.354196 0.0463193 0.405613
648 4 0.325703 0.0529693 0.426693
727 4 0.331332 0.0421866 0.453144
725 2 0.330056 0.0134373 0.474876
315 4 0.25376 0.0999385 0.478245
529 4 0.264123 0.0759839 0.495746
33 3 0.272311 0.1219 0.471759
681 4 0.392223 0.0112617 0.381496
275 2 0.460987 0.0891895 0.453408
276 4 0.467511 0.0569847 0.468265
407 2 0.492339 0.0175322 0.464721
277 4 0.454463 0.121394 0.438551
408 4 0.480713 0.045254 0.444802
1235 2 0.383523 0.101924 0.491383
361 4 0.103389 0.143043 0.447462
1136 2 0.0146248 0.206715 0.472907
359 2 0.0699041 0.15541 0.442337
1137 4 0.0245892 0.173658 0.462498
360 4 0.0364192 0.167776 0.437212
330 4 0.191904 0.151156 0.376432
333 4 0.130797 0.146722 0.455818
332 2 0.140917 0.130691 0.486495
397 4 0.195966 0.177822 0.382289
395 2 0.196243 0.203234 0.407875
396 4 0.19652 0.228645 0.433461
7 3 0.221749 0.22784 0.450693
471 4 0.165774 0.239642 0.500531
1025 2 0.489986 0.165078 0.410787
1026 4 0.503626 0.195674 0.397435
1027 4 0.476347 0.134482 0.424139
367 4 0.406096 0.158893 0.47737
1237 4 0.395498 0.133025 0.477608
365 2 0.42221 0.190717 0.48266
366 4 0.438324 0.222541 0.487951
948 4 0.084729 0.26463 0.378461
279 4 0.114056 0.249027 0.431596
949 4 0.0149258 0.26768 0.396348
947 2 0.0498274 0.266155 0.387405
10 3 0.234112 0.256558 0.494508
9 3 0.182141 0.250435 0.480003
278 2 0.143602 0.269465 0.428472
280 4 0.173148 0.289903 0.425347
6 1 0.213523 0.254242 0.469021
377 2 0.205678 0.30703 0.396995
378 4 0.198894 0.297437 0.431089
8 3 0.215728 0.281708 0.450029
295 4 0.342307 0.327005 0.449913
293 2 0.351132 0.328103 0.484861
349 4 0.352935 0.340295 0.426048
347 2 0.344681 0.327681 0.393289
933 4 0.0295096 0.426726 0.429289
932 2 0.0207564 0.418218 0.395356
387 4 0.0166672 0.439273 0.450743
386 2 0.0243178 0.465358 0.474439
643 4 0.148241 0.489636 0.463647
2 3 0.334019 0.441806 0.390482
401 2 0.296207 0.490727 0.381761
4 3 0.331142 0.422244 0.440955
1 1 0.351759 0.42922 0.415534
264 4 0.306759 0.413373 0.451837
5 3 0.366788 0.401811 0.405448
263 2 0.308066 0.41764 0.487622
745 4 0.389892 0.477155 0.429539
743 2 0.411087 0.48193 0.400757
3 3 0.374484 0.451834 0.42513
444 4 0.170585 0.110408 0.537701
443 2 0.179727 0.0763326 0.530235
445 4 0.188868 0.0422573 0.522768
550 4 0.216007 0.114701 0.591276
528 4 0.247728 0.016473 0.533048
334 4 0.151037 0.114661 0.517172
527 2 0.255925 0.0462284 0.514397
32 3 0.271216 0.0945461 0.518546
31 1 0.287933 0.117185 0.500977
1236 4 0.371548 0.0708225 0.505158
35 3 0.318505 0.106388 0.495724
103 3 0.381737 0.0538167 0.527872
105 3 0.395317 0.0236388 0.570927
102 3 0.381203 0.0751384 0.577708
101 1 0.39679 0.053694 0.557761
104 3 0.428717 0.0631847 0.554512
1109 2 0.482408 0.0904299 0.603025
1110 4 0.477647 0.0615747 0.581926
1111 4 0.487168 0.119285 0.624124
558 4 0.122831 0.206831 0.56073
557 2 0.132445 0.183763 0.586728
559 4 0.142059 0.160696 0.612726
548 2 0.2011 0.12838 0.621127
492 4 0.246132 0.24079 0.61158
34 3 0.288752 0.145838 0.518248
428 2 0.370586 0.238769 0.601627
464 2 0.445617 0.240135 0.54309
465 4 0.432386 0.241011 0.509555
466 4 0.458848 0.239259 0.576625
451 4 0.415718 0.209056 0.632633
570 4 0.0663499 0.37882 0.563355
491 2 0.214621 0.254533 0.600688
493 4 0.18311 0.268276 0.589797
472 4 0.164411 0.257308 0.570444
470 2 0.165092 0.248475 0.535488
429 4 0.342594 0.255845 0.586616
436 4 0.316861 0.270095 0.578448
435 4 0.345471 0.326413 0.543641
434 2 0.331166 0.298254 0.561045
294 4 0.359956 0.329202 0.519809
569 2 0.0953832 0.392518 0.579783
567 4 0.0913612 0.493465 0.567848
805 4 0.0138844 0.495847 0.520603
481 4 0.110636 0.430135 0.604412
388 4 0.0319685 0.491443 0.498135
571 4 0.124416 0.406216 0.596211
265 4 0.309372 0.421907 0.523406
286 4 0.31611 0.403785 0.545152
284 2 0.344484 0.397405 0.566474
285 4 0.372859 0.391026 0.587796
543 4 0.385533 0.416832 0.594622
542 2 0.409887 0.442733 0.600662
789 4 0.453528 0.464148 0.58532
544 4 0.43424 0.468634 0.606703
788 2 0.484636 0.474388 0.600415
561 4 0.0917594 0.0370958 0.685213
537 4 0.0686725 0.0297609 0.700802
536 2 0.0331685 0.0358195 0.699013
1157 2 0.0312335 0.114714 0.681893
538 4 0.997664 0.041878 0.697225
560 2 0.124576 0.0230402 0.690305
562 4 0.157393 0.00898464 0.695398
904 4 0.206482 0.0224216 0.73807
448 4 0.440925 0.0882134 0.707761
49 3 0.467493 0.081228 0.698846
446 2 0.414214 0.110854 0.699135
506 2 0.0660841 0.188732 0.67502
1158 4 0.0582605 0.13804 0.68698
507 4 0.0601359 0.154863 0.664159
508 4 0.0720323 0.222601 0.68588
463 4 0.0805235 0.248843 0.696226
582 4 0.191764 0.166232 0.666091
549 4 0.186192 0.142059 0.650978
581 2 0.16601 0.166772 0.691327
583 4 0.140256 0.167313 0.716564
447 4 0.387504 0.133494 0.69051
430 4 0.398577 0.221693 0.616638
450 4 0.398682 0.148734 0.668309
449 2 0.4072 0.178895 0.650471
533 2 0.455519 0.225566 0.713387
534 4 0.464202 0.192054 0.723485
54 3 0.473545 0.186986 0.751766
461 2 0.105721 0.259546 0.719698
576 4 0.0621223 0.268912 0.644276
575 2 0.0350704 0.290186 0.655047
577 4 0.00801857 0.311461 0.665819
462 4 0.130918 0.27025 0.743171
526 4 0.285112 0.372817 0.645164
535 4 0.446835 0.259078 0.703289
522 4 0.432112 0.356818 0.70011
521 2 0.432357 0.320868 0.702943
523 4 0.432602 0.284919 0.705776
479 2 0.110199 0.444904 0.637308
844 4 0.0951643 0.486037 0.667628
480 4 0.109762 0.459674 0.670203
517 4 0.191996 0.427941 0.696954
515 2 0.170478 0.454559 0.708304
516 4 0.148959 0.481178 0.719655
423 4 0.170137 0.490013 0.738211
525 4 0.279702 0.426756 0.692736
524 2 0.282407 0.399786 0.66895
438 4 0.341993 0.383827 0.728906
555 4 0.359778 0.403984 0.718653
554 2 0.375212 0.43246 0.7028
556 4 0.390646 0.460936 0.686947
895 4 0.3905 0.488931 0.679652
1119 4 0.49277 0.390732 0.696126
781 4 0.0162834 0.990727 0.855959
580 4 0.0708463 0.0568853 0.865866
902 2 0.204774 0.051967 0.758675
467 2 0.204504 0.0777346 0.840778
468 4 0.19506 0.084595 0.806657
903 4 0.203065 0.0815125 0.779281
469 4 0.213947 0.0708742 0.874898
574 4 0.242806 0.0775325 0.869394
501 4 0.258029 0.00503553 0.786796
502 4 0.292854 0.0399716 0.839412
500 2 0.275442 0.0225036 0.813104
114 3 0.41882 0.0145631 0.806573
111 1 0.439781 0.0028655 0.829892
1233 4 0.47874 0.0057364 0.851887
112 3 0.466629 0.0223288 0.830915
419 2 0.0800624 0.236769 0.8376
421 4 0.113189 0.2466 0.827285
420 4 0.0469357 0.226937 0.847915
37 3 0.168015 0.21219 0.779696
38 3 0.12759 0.240604 0.801989
36 1 0.151205 0.240758 0.778277
40 3 0.137322 0.243681 0.748653
489 4 0.250048 0.222738 0.864502
505 4 0.26174 0.196243 0.854547
1226 2 0.470309 0.179525 0.858987
52 3 0.493837 0.155159 0.790673
1228 4 0.465597 0.183648 0.823473
51 1 0.489985 0.186633 0.780913
55 3 0.472834 0.20299 0.803653
477 4 0.0730772 0.317297 0.765893
476 2 0.0942701 0.346428 0.767521
488 2 0.229937 0.252664 0.863842
440 2 0.195661 0.313959 0.763839
441 4 0.199658 0.349702 0.761212
442 4 0.191664 0.278216 0.766466
39 3 0.172453 0.266083 0.783478
564 4 0.140946 0.34508 0.827783
563 2 0.162747 0.321207 0.84376
565 4 0.184548 0.297335 0.859737
490 4 0.209826 0.28259 0.863183
518 2 0.335106 0.334057 0.839018
439 4 0.332387 0.339672 0.785119
520 4 0.324377 0.320843 0.807227
519 4 0.345834 0.347271 0.87081
42 3 0.371106 0.355854 0.855847
437 2 0.33719 0.36175 0.757013
478 4 0.115463 0.37556 0.769149
820 4 0.105652 0.466463 0.788165
818 2 0.0804452 0.491883 0.783821
547 4 0.11803 0.44308 0.799934
545 2 0.128231 0.416276 0.778073
546 4 0.138431 0.389471 0.756212
578 2 0.0878088 0.0689075 0.895331
579 4 0.104771 0.0809298 0.924796
552 4 0.0951235 0.107226 0.929129
363 4 0.00105315 0.0690219 0.974371
838 4 0.214038 0.00460113 0.99676
572 2 0.270244 0.0768094 0.892783
573 4 0.297682 0.0760863 0.916173
510 4 0.323455 0.0790521 0.929927
509 2 0.327253 0.0560685 0.957454
511 4 0.331052 0.0330848 0.984982
404 2 0.268339 0.117079 0.992695
59 3 0.338431 0.118943 0.914362
455 2 0.0104028 0.173236 0.964493
551 2 0.0721994 0.134664 0.93383
456 4 0.0365326 0.148463 0.96251
553 4 0.0492754 0.162102 0.938531
63 3 0.1876 0.216602 0.926616
64 3 0.215876 0.199957 0.882708
61 1 0.213266 0.197928 0.916009
65 3 0.208848 0.166653 0.92502
62 3 0.241239 0.20939 0.929678
405 4 0.298269 0.126968 0.975179
270 4 0.251178 0.23697 0.928849
60 3 0.295004 0.124433 0.946499
325 4 0.325241 0.136209 0.986205
503 2 0.28505 0.19268 0.88183
56 1 0.323568 0.137954 0.937548
57 3 0.343435 0.140062 0.964035
58 3 0.318347 0.168722 0.925464
504 4 0.30836 0.189117 0.909113
164 3 0.498382 0.171149 0.949092
1227 4 0.475022 0.175402 0.894501
531 4 0.426325 0.174758 0.911321
530 2 0.411 0.151522 0.934248
532 4 0.395675 0.128285 0.957176
306 4 0.430195 0.228726 0.967243
1041 4 0.0050262 0.335725 0.946116
312 4 0.0818533 0.300377 0.993038
269 2 0.276354 0.262771 0.927891
321 4 0.316073 0.30047 0.948918
320 2 0.333885 0.319872 0.924286
271 4 0.30153 0.288573 0.926933
322 4 0.351697 0.339274 0.899654
43 3 0.37996 0.349294 0.908923
539 2 0.447163 0.343019 0.977003
483 4 0.442253 0.346191 0.891516
305 2 0.418681 0.262491 0.972517
540 4 0.472875 0.367064 0.96918
541 4 0.421451 0.318975 0.984825
307 4 0.407168 0.296256 0.97779
41 1 0.390103 0.365316 0.881348
44 3 0.421932 0.357462 0.874627
482 2 0.476724 0.354744 0.885268
458 2 0.042243 0.464019 0.907259
513 4 0.0963181 0.453053 0.921771
460 4 0.0689444 0.449676 0.926798
512 2 0.113701 0.481761 0.934967
459 4 0.0155416 0.478362 0.887721
45 3 0.387211 0.397765 0.885537
811 4 0.0770428 0.535504 0.0209077
432 4 0.160008 0.531999 0.0396664
268 4 0.171586 0.505976 0.0352252
431 2 0.178129 0.548964 0.0135076
69 3 0.332006 0.540928 0.0378771
66 1 0.312543 0.525927 0.0605939
67 3 0.280852 0.528989 0.0512646
291 4 0.338516 0.517282 0.0244585
70 3 0.316599 0.540105 0.0899427
621 4 0.302141 0.61101 0.104887
290 2 0.371037 0.51278 0.00954152
255 4 0.312428 0.538415 0.118577
732 4 0.401315 0.59892 0.0980693
78 3 0.421079 0.61828 0.0919179
615 4 0.0718671 0.713693 0.0906937
664 4 0.0595812 0.714236 0.0646205
662 2 0.0270198 0.702051 0.0550438
663 4 0.994458 0.689866 0.045467
628 4 0.240013 0.705196 0.014925
620 2 0.309008 0.636771 0.129171
76 1 0.421197 0.650251 0.101809
77 3 0.389955 0.659804 0.107587
79 3 0.434157 0.669598 0.0777749
189 3 0.467445 0.695975 0.0215084
186 1 0.495708 0.711658 0.0301786
187 3 0.493407 0.721164 0.0618808
740 2 0.00862809 0.831616 0.110939
640 4 0.205091 0.765623 0.0792402
607 4 0.147753 0.799714 0.0450638
605 2 0.166224 0.805274 0.014595
638 2 0.176925 0.758829 0.10071
702 4 0.356067 0.818528 0.102049
658 4 0.362017 0.847051 0.0954036
701 2 0.340982 0.789153 0.116538
703 4 0.325896 0.759777 0.131027
1306 4 0.0265993 0.99201 0.064535
1304 2 0.0444212 0.00535706 0.0929016
74 3 0.0131145 0.888912 0.0111671
671 2 0.219974 0.992559 0.0781871
673 4 0.188817 0.974588 0.0807817
713 2 0.253748 0.892647 0.112611
714 4 0.229488 0.880187 0.136205
715 4 0.278008 0.905107 0.0890181
656 2 0.36667 0.882134 0.102326
590 2 0.372615 0.977983 0.0906551
591 4 0.375163 0.942836 0.0983127
657 4 0.371323 0.917218 0.109249
874 4 0.290502 0.960836 0.000363764
230 3 0.499587 0.930573 0.994917
85 3 0.435933 0.877243 0.999101
340 4 0.105832 0.535814 0.264004
338 2 0.0766998 0.546857 0.245843
339 4 0.0475675 0.557901 0.227683
299 2 0.160135 0.546231 0.239306
651 4 0.197025 0.586762 0.233157
300 4 0.194029 0.556956 0.233259
301 4 0.12624 0.535505 0.245353
650 2 0.207715 0.618952 0.245401
733 4 0.356121 0.572079 0.147453
254 2 0.32565 0.530251 0.151119
256 4 0.338872 0.522086 0.18366
670 4 0.342313 0.521132 0.21319
668 2 0.317966 0.526297 0.239286
731 2 0.378718 0.5855 0.122761
754 4 0.473716 0.524962 0.154504
752 2 0.481757 0.518766 0.189107
762 4 0.473688 0.5323 0.23637
753 4 0.489798 0.512571 0.223711
88 3 0.114297 0.684199 0.221247
614 2 0.0625335 0.718131 0.125243
1310 2 0.0118775 0.737558 0.188069
616 4 0.0531999 0.72257 0.159791
1312 4 0.030113 0.710683 0.172395
90 3 0.166666 0.698557 0.221755
86 1 0.139909 0.69423 0.240309
622 4 0.315874 0.662531 0.153454
629 2 0.334696 0.66268 0.205851
630 4 0.340533 0.657893 0.170588
631 4 0.328859 0.667466 0.241114
80 3 0.438745 0.653382 0.129397
603 4 0.488032 0.641816 0.245304
741 4 0.0231548 0.818378 0.141175
697 4 0.00281331 0.790258 0.214504
695 2 0.0329167 0.807481 0.224383
696 4 0.0630201 0.824704 0.234262
692 2 0.121308 0.773271 0.159197
694 4 0.122441 0.789004 0.191626
639 4 0.148759 0.752034 0.122179
693 4 0.120175 0.757537 0.126768
597 4 0.133762 0.805341 0.212373
596 2 0.152916 0.788003 0.237532
699 4 0.233776 0.773626 0.160487
700 4 0.302637 0.774196 0.139049
698 2 0.268207 0.773911 0.149768
705 4 0.471904 0.810492 0.239912
646 4 0.0594163 0.995686 0.139016
710 2 0.272747 0.945086 0.254807
711 4 0.299738 0.968761 0.25143
1419 4 0.464175 0.964108 0.230726
1418 2 0.481562 0.933429 0.22318
1420 4 0.498949 0.90275 0.215634
734 2 0.0914539 0.599191 0.335645
735 4 0.123198 0.585697 0.325124
736 4 0.0597102 0.612685 0.346166
669 4 0.293619 0.531461 0.265382
730 4 0.377817 0.594031 0.35409
728 2 0.356444 0.620689 0.342556
761 2 0.481219 0.561948 0.255467
763 4 0.48875 0.591596 0.274565
675 4 0.497408 0.616914 0.28921
757 4 0.000434335 0.745543 0.353762
1397 2 0.996061 0.688678 0.367808
1399 4 0.995709 0.717677 0.346375
89 3 0.132065 0.722798 0.255873
724 4 0.234417 0.670793 0.270335
87 3 0.146075 0.670935 0.263113
586 4 0.200765 0.685668 0.334036
584 2 0.183248 0.671884 0.305688
585 4 0.16573 0.658101 0.27734
652 4 0.218406 0.651143 0.257646
723 4 0.305626 0.673129 0.259127
722 2 0.270022 0.671961 0.264731
729 4 0.335072 0.647346 0.331022
602 2 0.482434 0.674802 0.258761
604 4 0.476836 0.707787 0.272217
708 4 0.44293 0.740686 0.359336
632 2 0.00764892 0.864803 0.372457
92 3 0.0670155 0.835945 0.263017
755 2 0.00271686 0.779966 0.364264
91 1 0.0930931 0.848417 0.279299
95 3 0.101858 0.827664 0.303202
93 3 0.118404 0.85238 0.257769
598 4 0.17207 0.770666 0.26269
654 4 0.184859 0.767394 0.288862
653 2 0.198998 0.784687 0.317172
655 4 0.213137 0.801979 0.345483
766 4 0.34702 0.768604 0.272312
764 2 0.358264 0.801551 0.262905
765 4 0.369508 0.834499 0.253498
600 4 0.374555 0.863114 0.256608
707 2 0.433874 0.769337 0.339398
704 2 0.447183 0.806125 0.265801
706 4 0.422461 0.801758 0.291689
623 2 0.479308 0.864757 0.338941
709 4 0.424817 0.797989 0.31946
94 3 0.0845219 0.877985 0.292423
712 4 0.245755 0.921412 0.258184
24 3 0.363858 0.994259 0.282699
21 1 0.331631 0.997858 0.290971
601 4 0.339308 0.9154 0.291615
599 2 0.356932 0.889257 0.274112
23 3 0.313748 0.972427 0.278584
625 4 0.452838 0.873442 0.36184
682 4 0.410652 0.944693 0.360741
680 2 0.401438 0.977977 0.371119
721 4 0.244881 0.50514 0.399394
641 2 0.151891 0.52385 0.474442
642 4 0.155542 0.558064 0.485236
719 2 0.236455 0.530673 0.423426
720 4 0.228029 0.556205 0.447458
660 4 0.246722 0.566847 0.466666
402 4 0.269202 0.514279 0.385818
659 2 0.279082 0.565707 0.482542
610 4 0.350001 0.60323 0.43922
661 4 0.311441 0.564567 0.498417
1393 4 0.463168 0.618722 0.443637
1398 4 0.996414 0.65968 0.389242
619 4 0.00556138 0.651883 0.417908
617 2 0.0221881 0.659257 0.449047
618 4 0.0388148 0.666631 0.480185
915 4 0.201679 0.717465 0.416145
914 2 0.223967 0.715873 0.44445
916 4 0.246254 0.714282 0.472755
876 4 0.247241 0.707207 0.499676
608 2 0.337517 0.635245 0.428282
609 4 0.325033 0.66726 0.417344
595 4 0.314214 0.6912 0.425819
593 2 0.331368 0.72038 0.438257
594 4 0.348523 0.74956 0.450694
1391 2 0.455188 0.653352 0.437511
1443 4 0.454832 0.713716 0.44685
1392 4 0.447207 0.687982 0.431385
1442 2 0.443055 0.728971 0.41637
678 4 0.00120879 0.802106 0.480775
677 2 0.0271704 0.824727 0.491485
687 4 0.363458 0.774313 0.45038
1444 4 0.431278 0.744227 0.385891
686 2 0.376992 0.807355 0.445334
688 4 0.390526 0.840398 0.440288
1512 4 0.494021 0.830586 0.442163
684 4 0.471489 0.84707 0.433442
683 2 0.437265 0.85563 0.440917
685 4 0.403041 0.864191 0.448393
918 4 0.482012 0.770607 0.485333
633 4 0.0266621 0.894206 0.381083
691 4 0.124337 0.931288 0.453565
774 4 0.107777 0.909911 0.462148
773 2 0.081614 0.892814 0.480139
718 4 0.199249 0.979795 0.43858
690 4 0.181677 0.974633 0.45949
689 2 0.153007 0.95296 0.456528
751 4 0.257359 0.922255 0.469908
749 2 0.283939 0.945505 0.477212
726 4 0.328781 0.984688 0.496608
803 2 0.0355047 0.524074 0.526624
804 4 0.0571251 0.552301 0.532645
1536 4 0.0217186 0.585883 0.616052
566 2 0.116274 0.518271 0.575876
879 4 0.13566 0.570387 0.585128
568 4 0.141187 0.543077 0.583903
878 2 0.146125 0.601279 0.60051
473 2 0.354073 0.521958 0.516787
475 4 0.324261 0.539847 0.507212
474 4 0.383884 0.504068 0.526362
815 2 0.452397 0.614864 0.5479
816 4 0.460407 0.593475 0.575807
767 2 0.0294848 0.698097 0.52309
769 4 0.0086439 0.720411 0.542279
864 4 0.0301998 0.732019 0.562559
768 4 0.0503257 0.675783 0.503902
880 4 0.156591 0.632171 0.615892
877 4 0.298327 0.690269 0.547688
875 2 0.272784 0.698738 0.523682
899 2 0.34319 0.682423 0.585644
900 4 0.320671 0.67648 0.558113
901 4 0.36571 0.688365 0.613176
884 2 0.420632 0.693806 0.534447
886 4 0.438291 0.66353 0.525962
817 4 0.444387 0.636253 0.519993
885 4 0.402972 0.724081 0.542932
863 2 0.0573242 0.751424 0.576277
865 4 0.0844486 0.770828 0.589994
855 4 0.110001 0.772426 0.602715
679 4 0.053132 0.847348 0.502195
854 2 0.14144 0.789352 0.597663
775 4 0.0554513 0.875718 0.498129
856 4 0.17288 0.806278 0.592611
925 4 0.304102 0.81413 0.557845
923 2 0.318269 0.817549 0.590831
924 4 0.332437 0.820969 0.623816
917 2 0.480407 0.789972 0.515711
919 4 0.478802 0.809337 0.54609
1372 4 0.0567501 0.894662 0.5424
1370 2 0.0332628 0.918805 0.555279
1371 4 0.00977552 0.942949 0.568158
777 4 0.158381 0.948545 0.56741
776 2 0.159252 0.931756 0.535507
778 4 0.160124 0.914966 0.503605
847 4 0.230991 0.993726 0.54237
845 2 0.248367 0.965555 0.556684
117 3 0.289941 0.876957 0.582898
118 3 0.335011 0.904225 0.595687
119 3 0.287238 0.930575 0.590401
116 1 0.301964 0.902308 0.600602
846 4 0.265743 0.937384 0.570999
750 4 0.31052 0.968756 0.484516
842 2 0.116676 0.51373 0.676045
859 4 0.0422298 0.59687 0.633486
890 2 0.197474 0.532788 0.69795
892 4 0.162846 0.523619 0.693792
891 4 0.232102 0.541957 0.702108
843 4 0.138187 0.541422 0.684462
787 4 0.25163 0.563685 0.707793
785 2 0.278825 0.548659 0.7261
786 4 0.306019 0.533634 0.744407
893 2 0.373738 0.519215 0.669535
894 4 0.356976 0.5495 0.659419
889 4 0.484118 0.546001 0.686747
858 4 0.0426815 0.662885 0.662529
857 2 0.0424556 0.629877 0.648008
222 3 0.00600211 0.689478 0.739985
1567 4 0.38548 0.705915 0.628817
1565 2 0.412781 0.727429 0.638421
1566 4 0.440082 0.748944 0.648024
910 4 0.104713 0.847482 0.731429
870 4 0.241151 0.791506 0.710793
908 2 0.137938 0.850289 0.745165
869 2 0.261929 0.808601 0.734803
795 4 0.365015 0.823992 0.728448
110 3 0.349568 0.846526 0.73913
794 2 0.367953 0.788724 0.735374
108 3 0.297406 0.85 0.753827
796 4 0.370892 0.753456 0.7423
798 4 0.227961 0.922788 0.744757
120 3 0.295644 0.897234 0.632432
791 2 0.005773 0.556598 0.771584
819 4 0.055238 0.517303 0.779478
793 4 0.0362914 0.537407 0.772468
424 4 0.187806 0.516638 0.802869
422 2 0.178971 0.503325 0.77054
823 4 0.31986 0.509122 0.752525
821 2 0.327666 0.523888 0.784485
822 4 0.335472 0.538655 0.816446
96 1 0.306402 0.559053 0.863031
97 3 0.317928 0.538784 0.83943
98 3 0.300012 0.588957 0.849436
99 3 0.278302 0.546024 0.875704
207 3 0.486043 0.515217 0.855568
812 2 0.0758237 0.692888 0.817774
814 4 0.0632309 0.667381 0.79561
852 4 0.0974408 0.729846 0.864665
813 4 0.0884165 0.718395 0.839939
1516 4 0.994249 0.728752 0.793667
772 4 0.295477 0.699903 0.792832
770 2 0.280658 0.685956 0.822603
867 4 0.314821 0.698684 0.769854
866 2 0.329396 0.731006 0.77643
771 4 0.26584 0.672008 0.852374
851 2 0.123712 0.754548 0.864861
909 4 0.171163 0.853096 0.7589
853 4 0.149984 0.779251 0.865057
871 4 0.282707 0.825695 0.758813
106 1 0.328059 0.862805 0.75787
107 3 0.336832 0.859776 0.789722
868 4 0.343971 0.763329 0.783006
862 4 0.347962 0.788881 0.797756
860 2 0.377474 0.80092 0.814624
861 4 0.406986 0.812959 0.831493
850 4 0.420278 0.808364 0.85707
799 4 0.16933 0.883302 0.75908
797 2 0.198645 0.903045 0.751919
834 4 0.218357 0.947973 0.755546
833 2 0.246516 0.96979 0.761163
835 4 0.274675 0.991606 0.76678
109 3 0.328055 0.895255 0.749689
113 3 0.424927 0.00333884 0.859877
921 4 0.451099 0.944361 0.858236
826 4 0.458096 0.944499 0.828778
115 3 0.448914 0.972219 0.822392
824 2 0.492211 0.935331 0.821528
810 4 0.127933 0.509494 0.976914
809 2 0.102488 0.522499 0.998911
514 4 0.131083 0.510469 0.948163
433 4 0.196249 0.565929 0.987349
739 4 0.210733 0.572021 0.962238
737 2 0.199483 0.603832 0.949513
906 4 0.356382 0.555536 0.896394
100 3 0.329003 0.562087 0.886671
292 4 0.403559 0.508277 0.994625
210 3 0.502261 0.55902 0.882319
905 2 0.390109 0.547406 0.886554
907 4 0.423836 0.539276 0.876714
208 3 0.449219 0.548473 0.877396
206 1 0.479685 0.535184 0.881288
209 3 0.480783 0.517191 0.909483
252 4 0.497455 0.508714 0.93063
738 4 0.188234 0.635644 0.936789
626 2 0.233837 0.681536 0.988421
627 4 0.227661 0.657875 0.961917
829 4 0.260026 0.673806 0.879449
828 4 0.24505 0.718138 0.934332
827 2 0.252538 0.695972 0.906891
807 4 0.449962 0.61935 0.891927
808 4 0.412937 0.644623 0.948426
806 2 0.431449 0.631987 0.920176
784 4 0.213715 0.811483 0.97837
606 4 0.184695 0.810835 0.984126
782 2 0.244351 0.817685 0.960388
783 4 0.274988 0.823886 0.942405
801 4 0.476083 0.800447 0.886141
802 4 0.507475 0.75457 0.932094
800 2 0.491779 0.777509 0.909118
82 3 0.398641 0.862659 0.963129
612 4 0.376061 0.860728 0.981609
84 3 0.444962 0.834712 0.966567
849 4 0.425085 0.860677 0.906486
848 2 0.422681 0.83452 0.881778
81 1 0.421955 0.85164 0.984004
83 3 0.407628 0.831506 0.00657169
1582 4 0.0024804 0.93255 0.942498
1581 4 0.0522632 0.979682 0.920093
746 2 0.104977 0.966975 0.950021
748 4 0.0746059 0.982869 0.938824
1580 2 0.0273718 0.956116 0.931295
747 4 0.135349 0.95108 0.961217
837 4 0.158379 0.970414 0.966179
836 2 0.186209 0.987508 0.98147
613 4 0.316031 0.885714 0.950401
611 2 0.346046 0.873221 0.966005
872 2 0.293814 0.933594 0.976968
873 4 0.297126 0.906352 0.953572
229 3 0.50922 0.962125 0.951782
922 4 0.427653 0.885033 0.891883
920 2 0.439376 0.914697 0.87506
1073 2 0.57557 0.0134097 0.00141538
936 4 0.641264 0.0293307 0.114562
1005 4 0.639353 0.0582254 0.119327
1140 4 0.686132 0.112653 0.0151328
1162 4 0.746574 0.107018 0.00998543
1244 2 0.749076 0.047809 0.0066082
1246 4 0.759284 0.0808031 0.0169823
1139 2 0.686722 0.14857 0.0183028
1141 4 0.687312 0.184488 0.0214729
1052 2 0.869432 0.23896 0.109977
1053 4 0.877297 0.227301 0.0767707
970 4 0.868757 0.24352 0.0539312
968 2 0.878707 0.237727 0.0197572
1242 4 0.901342 0.132022 0.981758
122 3 0.604588 0.312051 0.102458
946 4 0.724629 0.276471 0.113328
124 3 0.655425 0.319802 0.119606
966 4 0.753515 0.268329 0.119305
965 2 0.779065 0.287978 0.103131
971 2 0.854568 0.338672 0.0585545
967 4 0.804614 0.307626 0.0869569
972 4 0.828534 0.321819 0.0769562
973 4 0.880602 0.355526 0.0401528
981 4 0.910736 0.313034 0.101856
1332 4 0.524781 0.485454 0.0211961
992 2 0.65248 0.424991 0.0315686
994 4 0.665372 0.420205 0.0649053
1063 4 0.656348 0.39918 0.082667
1061 2 0.678763 0.403262 0.11062
1068 4 0.865165 0.484351 0.106486
1067 2 0.889283 0.492034 0.0808011
1069 4 0.913402 0.499716 0.0551163
1034 2 0.577803 0.0340553 0.224013
1036 4 0.600005 0.030425 0.195829
1035 4 0.555602 0.0376856 0.252198
1004 2 0.661482 0.0832496 0.132911
1006 4 0.683611 0.108274 0.146495
986 2 0.706874 0.117425 0.196977
987 4 0.734859 0.12272 0.219096
988 4 0.678889 0.11213 0.174859
1077 4 0.762758 0.0156046 0.176789
1076 2 0.75235 0.0497431 0.171623
1078 4 0.741942 0.0838816 0.166458
1044 4 0.883799 0.0611341 0.217207
1010 2 0.854999 0.0989643 0.240366
1012 4 0.857507 0.0668002 0.224253
1043 2 0.899225 0.0305266 0.228417
1054 4 0.861567 0.25062 0.143183
1009 4 0.00353095 0.167254 0.157339
121 1 0.623167 0.325587 0.126381
123 3 0.614959 0.311618 0.155663
1059 4 0.59792 0.305996 0.177757
1060 4 0.597168 0.346385 0.237506
1058 2 0.597544 0.32619 0.207631
127 3 0.527355 0.348195 0.246272
125 3 0.617563 0.357934 0.127433
944 2 0.697991 0.295182 0.128844
945 4 0.671353 0.313894 0.144359
142 3 0.616432 0.366135 0.238692
144 3 0.66829 0.350364 0.238017
1066 4 0.827216 0.265147 0.207454
1064 2 0.84709 0.291835 0.193553
1065 4 0.866964 0.318522 0.179651
982 4 0.886069 0.335155 0.165918
980 2 0.898403 0.324094 0.133887
951 4 0.604353 0.462117 0.196951
950 2 0.618649 0.436486 0.217907
1062 4 0.701178 0.407343 0.138573
1050 4 0.716344 0.426353 0.157244
952 4 0.632945 0.410855 0.238862
145 3 0.655057 0.401026 0.252408
1048 4 0.871213 0.475397 0.133604
1046 2 0.842692 0.455884 0.143912
1049 2 0.752302 0.424794 0.154997
1047 4 0.814172 0.436371 0.154221
1051 4 0.78826 0.423235 0.15275
1018 4 0.956267 0.46892 0.179482
282 4 0.963463 0.480658 0.206106
281 2 0.980765 0.474581 0.237157
1056 4 0.554937 0.0610598 0.268192
1055 2 0.546195 0.0483252 0.300778
1057 4 0.537453 0.0355906 0.333365
138 3 0.544017 0.0452517 0.360198
139 3 0.587399 0.07859 0.363534
1081 4 0.611369 0.0825387 0.344091
1002 4 0.686302 0.103451 0.325808
1079 2 0.640629 0.103235 0.3401
1080 4 0.66989 0.123931 0.336108
1001 2 0.717797 0.116643 0.314211
667 4 0.969974 0.049456 0.315742
959 2 0.671675 0.247165 0.322747
960 4 0.636242 0.250667 0.328465
957 4 0.687179 0.174824 0.348502
961 4 0.707108 0.243663 0.317029
1003 4 0.749292 0.129834 0.302615
1011 4 0.852491 0.131129 0.256478
1023 4 0.828668 0.147253 0.255425
1024 4 0.773516 0.145237 0.301858
1022 2 0.801092 0.146245 0.278642
1019 2 0.987853 0.212669 0.278183
1020 4 0.969697 0.236494 0.258103
126 1 0.509758 0.333139 0.270028