ITEM: TIMESTEP
5660000
ITEM: NUMBER OF ATOMS
4800
ITEM: BOX BOUNDS pp pp pp
-9.9985700000000008e+00 9.9985700000000008e+00
-9.9985700000000008e+00 9.9985700000000008e+00
-9.9985700000000008e+00 9.9985700000000008e+00
ITEM: ATOMS id type xs ys zs
2921 4 0.038522 0.0253394 0.0833663
182 3 0.057445 0.025444 0.0797126
1714 2 0.0509849 0.079296 0.0040345
984 4 0.126069 0.0422353 0.0457716
3537 4 0.112247 0.0441574 0.0296726
3535 2 0.120436 0.0629599 0.0153692
982 2 0.129177 0.0481924 0.0698554
1423 2 0.310189 0.0411309 0.0137698
1425 4 0.311898 0.0200624 0.0271254
1424 4 0.30848 0.0621995 0.000414142
1274 4 0.31595 0.0793476 0.991971
1940 4 0.312213 0.00199589 0.0353113
3206 4 0.400884 0.0754065 0.0687562
255 3 0.487973 0.0566482 0.0680455
3461 4 0.476383 0.017419 0.0222401
3460 2 0.480841 0.0385654 0.0348154
3462 4 0.485298 0.0597118 0.0473907
3887 4 0.492848 0.073774 0.0345447
1715 4 0.0509076 0.103046 0.011853
1670 4 0.0502193 0.106375 0.0315787
1669 2 0.0571038 0.126021 0.0454281
1671 4 0.0639883 0.145667 0.0592776
803 4 0.0491379 0.16046 0.0624227
1202 4 0.000942817 0.159549 0.981845
1740 4 0.140869 0.151635 0.0667642
1220 4 0.159482 0.147002 0.0573017
1219 2 0.176356 0.130531 0.0656175
1221 4 0.193231 0.11406 0.0739333
1150 2 0.314554 0.15039 0.0472462
1151 4 0.298103 0.159949 0.0310232
1152 4 0.331004 0.14083 0.0634693
1273 2 0.340682 0.0830049 0.991657
3299 4 0.392161 0.0856816 0.0532568
3298 2 0.387084 0.086757 0.0287977
3300 4 0.382007 0.0878323 0.00433863
955 2 0.0053347 0.165604 0.0378222
802 2 0.0595708 0.1785 0.0762399
956 4 0.0139685 0.18058 0.0197568
1185 4 0.303152 0.170575 0.0140512
1208 4 0.368473 0.233881 0.064837
3410 4 0.380198 0.235534 0.0491515
1207 2 0.367039 0.211701 0.0762913
1209 4 0.365605 0.189522 0.0877456
3409 2 0.401481 0.242363 0.0379447
3212 4 0.51089 0.179022 0.0694068
1757 4 0.503991 0.170787 0.0519844
1372 2 0.0596612 0.304409 0.0500124
1373 4 0.063434 0.28257 0.0384363
1374 4 0.0558883 0.326248 0.0615885
939 4 0.0501506 0.324499 0.0807141
866 4 0.0797306 0.280392 0.0294845
865 2 0.101466 0.270465 0.0221201
867 4 0.123201 0.260539 0.0147557
1406 4 0.173775 0.320954 0.0561755
763 2 0.186314 0.305121 0.0162104
765 4 0.180254 0.312952 0.0391697
791 4 0.238627 0.300146 0.0934168
3411 4 0.422764 0.249192 0.026738
3641 4 0.0834765 0.356077 0.0220474
776 4 0.0946766 0.372787 0.0270268
775 2 0.116704 0.361127 0.0290323
777 4 0.138732 0.349468 0.0310378
2055 4 0.189993 0.347715 0.0391155
2053 2 0.176685 0.368477 0.0432441
767 4 0.161863 0.405205 0.0600372
2054 4 0.163377 0.389238 0.0473727
1117 2 0.339531 0.399958 0.0737343
1118 4 0.35147 0.412207 0.0554972
1266 4 0.351552 0.394946 0.0444001
1264 2 0.35296 0.385704 0.0212099
4057 2 0.47435 0.3912 0.0453142
4059 4 0.475248 0.366251 0.0439248
756 4 0.43708 0.395075 0.0679586
1726 2 0.136839 0.451719 0.991506
1728 4 0.119713 0.433888 0.995238
2468 4 0.293889 0.474272 0.0860476
1034 4 0.399226 0.438785 0.00883483
3273 4 0.40295 0.433682 0.0268819
1952 4 0.479057 0.495116 0.994432
4058 4 0.473452 0.416149 0.0467036
3271 2 0.414862 0.436578 0.048674
3272 4 0.426774 0.439475 0.0704661
4548 4 0.478221 0.456611 0.0440354
1953 4 0.474309 0.455669 0.024799
1951 2 0.476683 0.475392 0.00961546
2920 2 0.0157714 0.0328981 0.0904696
845 4 0.0281175 0.992149 0.154365
983 4 0.132285 0.0541496 0.0939391
916 2 0.14138 0.02844 0.12927
918 4 0.135073 0.0457587 0.112375
917 4 0.147687 0.0111213 0.146166
1328 4 0.224054 0.0866046 0.127695
1327 2 0.226258 0.0646033 0.139368
1329 4 0.228462 0.042602 0.151042
966 4 0.224156 0.0239008 0.156914
3205 2 0.387801 0.0610569 0.0845078
771 4 0.366762 0.033233 0.114531
769 2 0.348863 0.016463 0.119387
3207 4 0.374718 0.0467074 0.100259
252 3 0.495696 0.0273372 0.0898198
251 1 0.499592 0.049745 0.0863756
253 3 0.492591 0.0615394 0.105092
4089 4 0.490776 0.00645493 0.0848322
3064 2 0.464275 0.0769132 0.138858
3066 4 0.458631 0.0530992 0.143978
3998 4 0.448744 0.0455042 0.160011
3194 4 0.0468324 0.0931287 0.110328
3193 2 0.0311333 0.111719 0.116084
3195 4 0.0154342 0.130308 0.12184
1738 2 0.134256 0.15604 0.0904715
925 2 0.13546 0.164116 0.154431
927 4 0.139837 0.164215 0.129814
1739 4 0.127642 0.160445 0.114179
1458 4 0.209749 0.102504 0.0710968
1457 4 0.232757 0.099495 0.115395
1456 2 0.221253 0.100999 0.0932458
1097 4 0.305832 0.122421 0.174486
799 2 0.425324 0.179972 0.156439
3065 4 0.469919 0.100727 0.133737
3576 4 0.479919 0.117474 0.13885
3574 2 0.466552 0.137754 0.132914
801 4 0.441673 0.168223 0.141612
3575 4 0.453184 0.158033 0.126977
804 4 0.0700036 0.196539 0.090057
3310 2 0.0547591 0.205492 0.128024
3311 4 0.051043 0.216906 0.149959
1047 4 0.0538283 0.223339 0.169512
900 4 0.998112 0.23302 0.140133
3312 4 0.0584752 0.194079 0.10609
898 2 0.990046 0.209437 0.138156
904 2 0.289702 0.214922 0.132015
905 4 0.285044 0.19038 0.130925
1083 4 0.315132 0.239213 0.131981
906 4 0.29436 0.239463 0.133104
800 4 0.408975 0.191721 0.171267
3211 2 0.495719 0.181614 0.0891121
3213 4 0.480548 0.184205 0.108817
3292 2 0.467198 0.211103 0.139315
3293 4 0.468034 0.198226 0.117899
937 2 0.063492 0.328486 0.101482
829 2 0.107223 0.339568 0.146455
831 4 0.126996 0.333844 0.160648
1405 2 0.17699 0.317936 0.0807872
2182 2 0.197349 0.300267 0.143426
2183 4 0.187681 0.313675 0.124667
1407 4 0.180204 0.314917 0.105399
2184 4 0.207018 0.286858 0.162185
790 2 0.254676 0.31209 0.108415
1081 2 0.32809 0.260445 0.129443
792 4 0.270725 0.324034 0.123413
1082 4 0.341049 0.281677 0.126904
70 3 0.345254 0.290891 0.145019
68 3 0.351957 0.312512 0.114932
1242 4 0.386772 0.307093 0.160888
66 1 0.353858 0.310771 0.137992
1240 2 0.409108 0.315751 0.168051
4361 4 0.367709 0.326844 0.115519
69 3 0.376142 0.312408 0.144249
67 3 0.342113 0.32798 0.147742
1241 4 0.431445 0.324409 0.175214
938 4 0.0768334 0.332473 0.122249
2994 4 0.00275728 0.375183 0.153935
830 4 0.0874494 0.345291 0.132262
766 2 0.162786 0.415557 0.0827784
1784 4 0.228155 0.406089 0.151779
1783 2 0.252382 0.40841 0.146045
1011 4 0.328021 0.374473 0.106837
1119 4 0.327592 0.387709 0.0919714
1009 2 0.329289 0.35898 0.126421
1010 4 0.330557 0.343486 0.146005
4360 2 0.382827 0.344537 0.106377
755 4 0.412263 0.37398 0.105904
4362 4 0.397944 0.362231 0.0972349
754 2 0.424671 0.384528 0.0869312
3599 4 0.439315 0.365479 0.155868
1057 2 0.48993 0.401059 0.137765
1677 4 0.473697 0.416807 0.112142
2903 4 0.0195419 0.500455 0.103627
4076 4 0.0680187 0.496902 0.151793
2902 2 0.03707 0.49991 0.12145
4075 2 0.0906492 0.504417 0.159314
768 4 0.163709 0.425909 0.10552
1913 4 0.180495 0.43454 0.113028
1912 2 0.199546 0.422889 0.124276
1914 4 0.218597 0.411239 0.135524
854 4 0.308242 0.497894 0.145006
1785 4 0.276608 0.41073 0.140311
2825 4 0.282321 0.424029 0.127359
2824 2 0.2958 0.444988 0.129408
2826 4 0.309279 0.465947 0.131457
853 2 0.283928 0.499255 0.150678
1791 4 0.257259 0.48152 0.161581
963 4 0.418599 0.513897 0.159193
1676 4 0.441996 0.44238 0.0831286
1058 4 0.488705 0.421643 0.123624
1675 2 0.457847 0.429593 0.0976351
1413 4 0.438532 0.481427 0.153034
394 3 0.014703 0.00413776 0.160222
1061 4 0.0619633 0.0696538 0.240167
929 4 0.142857 0.0124396 0.214093
1073 4 0.135597 0.99492 0.207733
928 2 0.143455 0.0266785 0.234638
964 2 0.2301 0.0277547 0.180893
1000 2 0.229234 0.0331579 0.248798
1002 4 0.229507 0.0346103 0.223838
965 4 0.236043 0.0316086 0.204872
4243 2 0.272574 0.0805796 0.249623
4117 2 0.461609 0.0367952 0.235739
3999 4 0.438956 0.0467482 0.209035
3997 2 0.44385 0.0461262 0.184523
4118 4 0.440324 0.0477442 0.228511
4119 4 0.482894 0.0258461 0.242967
1164 4 0.0757621 0.130223 0.21184
1162 2 0.0675861 0.107967 0.219778
1163 4 0.0594101 0.0857117 0.227716
1032 4 0.0897119 0.124398 0.198119
1030 2 0.089866 0.146341 0.186132
4222 2 0.140981 0.144492 0.215177
4224 4 0.139736 0.128249 0.234145
926 4 0.131082 0.164018 0.179049
1096 2 0.320721 0.140699 0.166154
1937 4 0.274901 0.102012 0.21342
4245 4 0.266382 0.0953905 0.230454
1938 4 0.30305 0.102813 0.172095
1936 2 0.288975 0.102413 0.192758
1098 4 0.33561 0.158977 0.157823
1045 2 0.0763923 0.228616 0.178903
4430 4 0.002382 0.175692 0.238226
1031 4 0.0900201 0.168283 0.174145
4223 4 0.142225 0.160735 0.196208
1046 4 0.0989563 0.233892 0.188295
1169 4 0.112745 0.243383 0.196188
3294 4 0.466363 0.22398 0.160732
882 4 0.0415781 0.280627 0.192663
880 2 0.0511424 0.270422 0.213389
2156 4 0.0263593 0.291015 0.191257
2155 2 0.0171826 0.314194 0.193173
881 4 0.0607068 0.260216 0.234114
884 4 0.0584107 0.274715 0.247923
3991 2 0.12975 0.321826 0.196108
3992 4 0.131311 0.302295 0.21164
1170 4 0.129806 0.284966 0.218108
1168 2 0.121276 0.264175 0.207148
859 2 0.1533 0.30376 0.243412
860 4 0.14149 0.283889 0.233882
2270 4 0.192907 0.294866 0.172699
2269 2 0.197293 0.293221 0.19726
2271 4 0.201679 0.291577 0.221821
29 3 0.305238 0.260478 0.233873
931 2 0.287331 0.314545 0.234073
3255 4 0.314887 0.267225 0.21751
27 3 0.281997 0.281646 0.254475
3253 2 0.338495 0.262709 0.210621
3254 4 0.362102 0.258193 0.203731
2993 4 0.9938 0.351069 0.196819
2992 2 0.998279 0.363126 0.175377
3020 4 0.0136352 0.391728 0.189778
3019 2 0.0265697 0.402876 0.208043
3993 4 0.12819 0.341358 0.180575
981 4 0.294372 0.341353 0.213536
932 4 0.282605 0.338574 0.22903
979 2 0.286338 0.359988 0.198929
980 4 0.278304 0.378623 0.184322
3600 4 0.416158 0.384098 0.19609
1968 4 0.39955 0.374059 0.19715
1966 2 0.38008 0.3752 0.212796
1967 4 0.36061 0.376341 0.228442
2044 2 0.502133 0.374105 0.188809
3598 2 0.427736 0.374788 0.175979
2046 4 0.49829 0.362944 0.210851
782 4 0.504849 0.348909 0.223795
3021 4 0.0395042 0.414024 0.226308
602 3 0.0473103 0.432821 0.226359
2835 4 0.159569 0.496808 0.189713
4187 4 0.170578 0.481819 0.196333
4186 2 0.193635 0.472415 0.198602
1790 4 0.235158 0.45769 0.199587
1789 2 0.246208 0.469605 0.180584
4188 4 0.216691 0.463011 0.200872
1411 2 0.422259 0.465434 0.163262
1412 4 0.405987 0.449441 0.17349
1060 2 0.0773994 0.0600634 0.25734
3952 2 0.0895968 0.0198482 0.293229
1062 4 0.0928356 0.0504731 0.274514
930 4 0.144054 0.0409175 0.255182
3954 4 0.104581 0.0380483 0.284898
1882 2 0.152063 0.0555932 0.292917
1883 4 0.148279 0.0653846 0.31561
1884 4 0.155848 0.0458018 0.270223
83 3 0.158805 0.0738993 0.330848
1001 4 0.228961 0.0317056 0.273758
1244 4 0.224343 0.032619 0.29275
1243 2 0.212393 0.0507102 0.305203
1245 4 0.200443 0.0688015 0.317657
4244 4 0.278767 0.0657688 0.268792
1877 4 0.348561 0.0830851 0.295183
57 3 0.031782 0.145977 0.3197
84 3 0.16904 0.110109 0.336185
1878 4 0.300411 0.0887262 0.30745
1160 4 0.287791 0.0886321 0.323718
1159 2 0.278209 0.111697 0.324888
1161 4 0.268628 0.134762 0.326058
2966 4 0.415074 0.131803 0.258664
2965 2 0.415794 0.156132 0.264388
1876 2 0.324486 0.0859056 0.301316
56 1 0.0362498 0.168069 0.324298
60 3 0.026919 0.181129 0.308142
59 3 0.0592447 0.171152 0.324669
2272 2 0.0904752 0.251571 0.318024
891 4 0.317026 0.246254 0.278692
1205 4 0.385631 0.210442 0.330908
1786 2 0.406184 0.197607 0.306025
1787 4 0.401174 0.199542 0.330445
1788 4 0.411194 0.195671 0.281605
2967 4 0.416513 0.18046 0.270112
1204 2 0.37663 0.23204 0.339723
1054 2 0.496975 0.235953 0.299208
1056 4 0.477522 0.233082 0.314653
883 2 0.0684055 0.262424 0.267267
885 4 0.0784002 0.250132 0.286611
2274 4 0.0949688 0.258083 0.294305
861 4 0.165111 0.323632 0.252941
3152 4 0.175912 0.280947 0.325426
3151 2 0.200552 0.277638 0.322762
3153 4 0.225192 0.274328 0.320097
924 4 0.241357 0.275076 0.331734
933 4 0.292058 0.290516 0.239116
26 1 0.294635 0.262426 0.254421
28 3 0.280644 0.244239 0.25787
30 3 0.310122 0.263585 0.271078
889 2 0.333124 0.257218 0.29437
890 4 0.349222 0.268182 0.310049
605 3 0.0519592 0.415296 0.25898
1028 4 0.159894 0.334417 0.268482
1027 2 0.163337 0.357687 0.276959
1029 4 0.16678 0.380956 0.285436
2048 4 0.370638 0.372664 0.245978
2049 4 0.351288 0.402948 0.280751
2047 2 0.360963 0.387806 0.263364
876 4 0.34187 0.409321 0.332792
3474 4 0.377751 0.342195 0.329188
3867 4 0.0177889 0.43201 0.322416
601 1 0.0453047 0.434753 0.249193
2187 4 0.0621633 0.484255 0.276634
1848 4 0.0753195 0.441707 0.262314
3866 4 0.0212476 0.44432 0.274071
603 3 0.0587059 0.452252 0.256446
604 3 0.023117 0.439069 0.254436
3865 2 0.0195182 0.438165 0.298244
1847 4 0.1204 0.421502 0.270075
1846 2 0.0978597 0.431605 0.266194
2890 2 0.169549 0.47792 0.297569
1892 4 0.213591 0.405334 0.311349
2891 4 0.191607 0.46639 0.299951
1893 4 0.205558 0.452089 0.295534
1891 2 0.209574 0.428711 0.303441
2169 4 0.316699 0.499291 0.263918
1983 4 0.299386 0.44689 0.342802
875 4 0.335392 0.416392 0.283713
874 2 0.338631 0.412856 0.308252
4013 4 0.420803 0.455292 0.293373
1131 4 0.406764 0.462544 0.306231
1129 2 0.399574 0.448706 0.325776
4014 4 0.434363 0.498245 0.271649
4012 2 0.427583 0.476769 0.282511
1077 4 0.148972 0.0429749 0.39726
1075 2 0.152473 0.0617449 0.381117
85 3 0.195208 0.0835111 0.331144
90 3 0.155201 0.0259556 0.40573
87 3 0.179958 0.000827393 0.417918
86 1 0.17209 0.0222814 0.420559
1100 4 0.311462 0.0474899 0.33738
1572 4 0.281864 0.0452611 0.404284
3181 2 0.282658 0.0531768 0.369507
3183 4 0.296194 0.0550324 0.348566
3182 4 0.269123 0.0513212 0.390449
1099 2 0.335926 0.0489958 0.342321
1101 4 0.36039 0.0505016 0.347261
1286 4 0.372938 0.0533129 0.362685
1285 2 0.372262 0.0464059 0.386706
1287 4 0.371586 0.0394989 0.410727
2737 2 0.4889 0.00442454 0.349065
2857 2 0.996607 0.091005 0.367352
400 3 0.999272 0.100218 0.403902
2859 4 0.00591836 0.105679 0.385329
828 4 0.00944253 0.164759 0.349447
826 2 0.0100422 0.144441 0.364006
398 3 0.0142945 0.133627 0.395194
827 4 0.0106419 0.124122 0.378566
1076 4 0.155973 0.0805149 0.364973
1143 4 0.17554 0.128837 0.33017
81 1 0.174758 0.0879682 0.34012
1141 2 0.162893 0.149463 0.336479
82 3 0.175514 0.0844065 0.362833
920 4 0.274494 0.152392 0.334311
3669 4 0.490376 0.124466 0.334147
2938 2 0.488526 0.159888 0.3504
2939 4 0.479962 0.137117 0.344626
58 3 0.0272073 0.173401 0.344991
1853 4 0.0650601 0.2299 0.407527
20 3 0.0757637 0.243652 0.396946
1158 4 0.0214226 0.254034 0.388275
18 3 0.0868622 0.248278 0.361266
2273 4 0.0859815 0.245059 0.341743
1142 4 0.150245 0.170088 0.342789
919 2 0.277633 0.174483 0.345592
848 4 0.29006 0.205906 0.341072
921 4 0.280773 0.196575 0.356874
847 2 0.297556 0.227479 0.35125
849 4 0.305052 0.249052 0.361429
999 4 0.386763 0.241446 0.406367
1579 2 0.412695 0.206617 0.367738
1581 4 0.410062 0.192767 0.347088
1580 4 0.415327 0.220467 0.388388
2940 4 0.497089 0.182659 0.356174
369 3 0.503578 0.212568 0.404969
1166 4 0.422422 0.227866 0.404584
1165 2 0.447094 0.226553 0.408425
3233 4 0.0155477 0.305666 0.352169
1157 4 0.0266043 0.28962 0.353525
1156 2 0.0240135 0.271827 0.3709
868 2 0.0652866 0.304231 0.407651
869 4 0.0779232 0.295632 0.387863
843 4 0.155643 0.278867 0.324863
17 3 0.0863539 0.277396 0.385026
16 1 0.0901942 0.254782 0.383288
19 3 0.112078 0.250381 0.389623
842 4 0.145106 0.299898 0.368992
841 2 0.150374 0.289382 0.346927
1238 4 0.126974 0.299887 0.379932
1237 2 0.121909 0.315675 0.398647
1239 4 0.116843 0.331463 0.417362
922 2 0.247574 0.279328 0.355576
1052 4 0.25774 0.302372 0.384761
923 4 0.253791 0.283581 0.379418
1857 4 0.308545 0.264781 0.34807
1855 2 0.32679 0.278019 0.35889
1856 4 0.345035 0.291257 0.369709
1206 4 0.367629 0.253637 0.348538
3473 4 0.38664 0.297965 0.350762
3472 2 0.382196 0.32008 0.339975
816 4 0.465378 0.304618 0.334417
1361 4 0.469772 0.301939 0.396365
814 2 0.473916 0.302157 0.357789
815 4 0.482454 0.299696 0.38116
1360 2 0.447405 0.298765 0.407081
1020 4 0.133826 0.408905 0.341401
2924 4 0.153144 0.366814 0.373613
1019 4 0.135517 0.365624 0.366392
1018 2 0.134672 0.387264 0.353897
2923 2 0.153447 0.361491 0.398041
3512 4 0.319903 0.34588 0.399011
1192 2 0.400976 0.3692 0.361386
1194 4 0.381614 0.370755 0.377131
3513 4 0.365585 0.361568 0.386056
3511 2 0.342744 0.353724 0.392534
1193 4 0.420337 0.367645 0.345642
794 4 0.491594 0.385167 0.339176
793 2 0.478618 0.387841 0.36038
795 4 0.465641 0.390515 0.381585
1950 4 0.452296 0.377632 0.3894
1140 4 0.983059 0.485097 0.373496
1138 2 0.00257072 0.476551 0.38659
1139 4 0.0220825 0.468005 0.399684
3214 2 0.0246809 0.435137 0.414255
3216 4 0.0311562 0.459285 0.414575
2238 4 0.148162 0.477427 0.385572
2845 2 0.126442 0.451839 0.4123
2846 4 0.143418 0.461493 0.396686
2236 2 0.165319 0.494692 0.379849
1037 4 0.201617 0.433963 0.375442
1036 2 0.22314 0.438036 0.363386
1038 4 0.244663 0.442109 0.351331
348 3 0.282622 0.498326 0.341052
349 3 0.303115 0.466392 0.343212
1981 2 0.275919 0.439045 0.339201
1982 4 0.252453 0.4312 0.3356
346 1 0.303579 0.489467 0.345606
350 3 0.309901 0.494956 0.366784
1130 4 0.392384 0.434868 0.34532
3921 4 0.0060747 0.0069319 0.45067
3438 4 0.0459056 0.0859068 0.50381
758 4 0.0883064 0.0674799 0.471348
757 2 0.0921946 0.0448963 0.481351
759 4 0.0960828 0.0223127 0.491353
3353 4 0.10326 0.0777181 0.461071
3107 4 0.0842017 0.0110676 0.504377
88 3 0.164258 0.0247812 0.442257
1323 4 0.202568 0.0515337 0.419943
89 3 0.189448 0.0371724 0.416638
1321 2 0.218 0.0700736 0.426523
1231 2 0.212953 0.0748693 0.496026
1570 2 0.273461 0.0586517 0.423655
37 3 0.268799 0.0600578 0.492562
1497 4 0.31331 0.0741893 0.501312
1495 2 0.323492 0.0513596 0.501876
1571 4 0.265058 0.0720424 0.443027
39 3 0.301881 0.0756328 0.483864
40 3 0.272444 0.0790427 0.460637
36 1 0.278854 0.0781199 0.482471
2305 2 0.340092 0.00975896 0.42296
2307 4 0.35472 0.0290499 0.416708
396 1 0.00541384 0.120532 0.412166
1473 4 0.0428072 0.0937423 0.485673
399 3 0.0210663 0.117796 0.429075
1472 4 0.0263903 0.122345 0.448082
1471 2 0.0345988 0.108044 0.466878
3776 4 0.0484741 0.172167 0.484188
3775 2 0.0516086 0.174525 0.459494
3352 2 0.119823 0.0942119 0.452195
3354 4 0.136387 0.110706 0.443318
840 4 0.135557 0.12817 0.452658
838 2 0.15996 0.132419 0.449246
1322 4 0.233432 0.0886135 0.433104
172 3 0.218244 0.10121 0.438491
839 4 0.184362 0.136667 0.445835
173 3 0.221888 0.136757 0.450144
171 1 0.212001 0.11627 0.45472
4467 4 0.203789 0.144664 0.44676
174 3 0.188896 0.118398 0.454489
175 3 0.218902 0.108679 0.475052
1232 4 0.208917 0.0978301 0.486988
38 3 0.272296 0.0974691 0.493472
23 3 0.488628 0.167545 0.495549
22 3 0.497118 0.147532 0.464888
25 3 0.461381 0.154553 0.473043
21 1 0.482518 0.163011 0.473628
1852 2 0.0536143 0.209083 0.415327
1854 4 0.0421686 0.188267 0.423128
3777 4 0.054743 0.176883 0.4348
2209 2 0.151886 0.2015 0.454666
2210 4 0.129495 0.206117 0.46479
780 4 0.128837 0.214272 0.482856
778 2 0.112935 0.201547 0.497361
4466 4 0.19276 0.192185 0.435769
4465 2 0.198274 0.168424 0.441264
2211 4 0.174277 0.196884 0.444541
997 2 0.389008 0.225114 0.425166
998 4 0.391253 0.208781 0.443965
2827 2 0.370583 0.198606 0.474313
2828 4 0.376744 0.195727 0.450252
2829 4 0.364423 0.201484 0.498374
1167 4 0.471766 0.225241 0.412265
2943 4 0.499361 0.191456 0.496031
1535 4 0.492497 0.2233 0.467354
24 3 0.483643 0.182394 0.460921
1534 2 0.490669 0.219119 0.442771
1536 4 0.488841 0.214939 0.418187
870 4 0.05265 0.31283 0.427439
1051 2 0.264507 0.308509 0.408035
1053 4 0.271275 0.314646 0.43131
4254 4 0.28006 0.322824 0.446092
4252 2 0.29285 0.325658 0.467389
2219 4 0.393044 0.30691 0.435695
2218 2 0.408389 0.321886 0.448556
1362 4 0.425038 0.295591 0.417797
2220 4 0.423734 0.336863 0.461417
3215 4 0.0182057 0.410988 0.413935
1186 2 0.99498 0.355859 0.466004
1188 4 0.00934366 0.359112 0.486209
3755 4 0.0173605 0.376677 0.494669
2925 4 0.15375 0.356167 0.42247
1041 4 0.146137 0.338056 0.48007
1040 4 0.153441 0.337489 0.430602
1039 2 0.149789 0.337772 0.455336
3486 4 0.150367 0.35738 0.485181
4253 4 0.30564 0.328492 0.488686
4240 2 0.445906 0.35755 0.485562
1114 2 0.433158 0.410203 0.452744
4242 4 0.439173 0.336262 0.474306
1948 2 0.453074 0.375102 0.414263
1949 4 0.453852 0.372572 0.439126
1115 4 0.447381 0.391122 0.445074
3022 2 0.0349593 0.447481 0.483564
3024 4 0.03689 0.466311 0.4999
1091 4 0.052221 0.426027 0.458189
3023 4 0.0330285 0.428651 0.467228
1090 2 0.075585 0.42846 0.449622
1592 4 0.119928 0.466938 0.496536
1092 4 0.098949 0.430893 0.441056
3542 4 0.131038 0.479688 0.483768
2847 4 0.109466 0.442185 0.427914
1591 2 0.103831 0.452732 0.509351
1116 4 0.418935 0.429283 0.460413
1455 4 0.419582 0.437332 0.478531
3437 4 0.025767 0.061429 0.542488
4511 4 0.00852062 0.0589953 0.534786
2655 4 0.0711406 0.995182 0.565261
3436 2 0.0358363 0.0736679 0.523149
1233 4 0.216989 0.0519085 0.505065
1700 4 0.250216 0.0639985 0.549035
1496 4 0.333673 0.0285299 0.50244
2204 4 0.333298 0.0225996 0.520198
2203 2 0.335086 0.00801955 0.540432
2205 4 0.336875 0.99344 0.560666
3564 4 0.0194241 0.113733 0.567525
3562 2 0.0389173 0.123972 0.555678
3563 4 0.0584105 0.134211 0.543831
3330 4 0.0173952 0.10169 0.582723
1427 4 0.0665126 0.132397 0.525399
1426 2 0.0762428 0.15298 0.515064
1699 2 0.2397 0.0866671 0.548192
4524 4 0.234418 0.113868 0.567387
1701 4 0.229183 0.109336 0.547349
148 3 0.318043 0.113822 0.555073
146 1 0.324428 0.113033 0.577367
147 3 0.307599 0.103192 0.589578
149 3 0.327919 0.134531 0.585373
150 3 0.343469 0.100735 0.579567
1428 4 0.085973 0.173564 0.504728
779 4 0.0970336 0.188822 0.511865
1697 4 0.395182 0.175271 0.543716
1696 2 0.378114 0.179667 0.525981
1698 4 0.361045 0.184064 0.508246
517 3 0.470023 0.174652 0.578156
518 3 0.488335 0.181404 0.546035
1386 4 0.443694 0.220665 0.573124
516 1 0.483819 0.189517 0.5673
2941 2 0.485341 0.20866 0.507548
1384 2 0.447795 0.243449 0.582569
2942 4 0.471322 0.225864 0.519065
519 3 0.473073 0.21003 0.565835
1145 4 0.307471 0.323983 0.506923
1385 4 0.451896 0.266234 0.592015
3756 4 0.99982 0.418286 0.516158
3754 2 0.00859033 0.397481 0.505414
2595 4 0.113177 0.374077 0.52625
1356 4 0.157063 0.385888 0.545977
1354 2 0.142129 0.381449 0.565533
2593 2 0.107051 0.398319 0.526367
3485 4 0.153937 0.370137 0.533402
3484 2 0.152152 0.363759 0.509292
902 4 0.199117 0.345796 0.545891
1105 2 0.243771 0.407919 0.545049
901 2 0.214687 0.362602 0.535876
162 3 0.312026 0.342286 0.568582
1107 4 0.24596 0.392185 0.52574
903 4 0.230257 0.379408 0.525861
1146 4 0.30161 0.330644 0.556137
1144 2 0.30454 0.327314 0.53153
1353 4 0.319099 0.39488 0.563429
1351 2 0.340817 0.384234 0.55709
1352 4 0.362535 0.373587 0.550751
1575 4 0.404752 0.410573 0.554129
1573 2 0.415293 0.40903 0.576749
1614 4 0.452304 0.395266 0.508777
1612 2 0.438543 0.402387 0.528402
4241 4 0.45264 0.378837 0.496818
1613 4 0.424782 0.409507 0.548026
3685 2 0.0177361 0.445012 0.540641
3686 4 0.0254452 0.467563 0.548205
4372 2 0.0678217 0.464752 0.559835
4373 4 0.0432361 0.467317 0.556074
4374 4 0.0924073 0.462187 0.563596
2594 4 0.100924 0.42256 0.526485
2566 2 0.122911 0.486668 0.576414
2568 4 0.1347 0.501985 0.592275
1593 4 0.0877335 0.438526 0.522167
2567 4 0.111121 0.47135 0.560553
1106 4 0.241582 0.423653 0.564357
10 3 0.233085 0.43756 0.576243
1651 2 0.291419 0.42028 0.573951
1653 4 0.310703 0.412529 0.56005
1021 2 0.368035 0.461035 0.571073
1023 4 0.360977 0.463619 0.547226
1454 4 0.395366 0.460643 0.515557
1453 2 0.407474 0.448987 0.497044
2247 4 0.395764 0.479496 0.509462
2653 2 0.0592797 0.998956 0.586946
3329 4 0.0422895 0.0791886 0.6198
463 3 0.0342698 0.0866417 0.636982
862 2 0.202505 0.0260744 0.632151
1682 4 0.226667 0.055295 0.651872
863 4 0.220561 0.0417993 0.639354
864 4 0.184449 0.0103494 0.624947
65 3 0.300754 0.0304427 0.600777
1681 2 0.250113 0.0548442 0.643198
62 3 0.296071 0.0666793 0.59317
61 1 0.293402 0.050318 0.609118
64 3 0.270906 0.0487728 0.614588
63 3 0.305745 0.0560712 0.627905
1683 4 0.27356 0.0543934 0.634523
2496 4 0.297704 0.0719887 0.633792
2494 2 0.309974 0.0728802 0.65556
1283 4 0.268321 0.0169267 0.624886
102 3 0.391637 0.0152433 0.626422
101 1 0.40079 0.00635113 0.645561
104 3 0.411683 0.0232112 0.6572
103 3 0.415903 0.989769 0.639644
3328 2 0.0298424 0.0904395 0.601261
461 1 0.023952 0.0898366 0.657518
2873 4 0.0128855 0.115271 0.672381
464 3 0.00633923 0.104778 0.655295
2872 2 0.996386 0.132663 0.679484
465 3 0.0390211 0.0977816 0.672633
4522 2 0.230484 0.127323 0.588091
126 1 0.225171 0.152078 0.644485
129 3 0.218333 0.153298 0.622346
4523 4 0.22655 0.140778 0.608795
130 3 0.213212 0.136092 0.655442
127 3 0.247499 0.146574 0.645079
1178 4 0.266198 0.152789 0.646187
1177 2 0.290685 0.157355 0.644008
1179 4 0.315171 0.161922 0.641828
2556 4 0.413308 0.141833 0.592017
2371 2 0.337867 0.153767 0.619852
1668 4 0.399183 0.129102 0.584484
1666 2 0.374267 0.127055 0.58489
1667 4 0.34935 0.125007 0.585296
2373 4 0.341747 0.140415 0.599071
2554 2 0.43152 0.157419 0.584903
3046 2 0.0181961 0.221897 0.648855
3048 4 0.0272505 0.237657 0.666025
3389 4 0.990573 0.199529 0.628397
1690 2 0.142782 0.229065 0.633734
1691 4 0.119683 0.220126 0.637152
1311 4 0.0998594 0.217997 0.633871
1309 2 0.0859996 0.212236 0.653869
1692 4 0.165882 0.238004 0.630317
1568 4 0.180747 0.224275 0.6352
128 3 0.222237 0.172641 0.654827
1569 4 0.213142 0.189582 0.650937
1567 2 0.196945 0.206929 0.643068
2372 4 0.333987 0.167119 0.640633
528 3 0.303494 0.228049 0.639881
526 1 0.282363 0.223444 0.648288
529 3 0.27194 0.207397 0.635163
1560 4 0.319619 0.23771 0.64749
530 3 0.26985 0.242468 0.648702
1558 2 0.338309 0.221778 0.642797
1559 4 0.356999 0.205845 0.638105
2268 4 0.368704 0.212112 0.652689
2266 2 0.391193 0.20949 0.663297
2555 4 0.449731 0.173004 0.577788
3129 4 0.0500926 0.328648 0.647866
3127 2 0.0306693 0.315913 0.657124
1339 2 0.242916 0.279718 0.656919
1340 4 0.258432 0.282966 0.637583
1617 4 0.271878 0.29873 0.635928
1616 4 0.273543 0.335429 0.601999
1615 2 0.27271 0.317079 0.618964
165 3 0.322365 0.319647 0.596394
2780 4 0.462117 0.279887 0.603193
2779 2 0.468627 0.291627 0.624287
2781 4 0.475137 0.303367 0.645382
1661 4 0.47811 0.300294 0.66441
3025 2 0.0108275 0.40078 0.617213
3027 4 0.035005 0.40023 0.623563
3368 4 0.0448604 0.405667 0.639766
3367 2 0.0568152 0.411987 0.660797
1355 4 0.127195 0.37701 0.58509
1288 2 0.123508 0.371934 0.62918
1290 4 0.128751 0.370342 0.653576
1289 4 0.118266 0.373526 0.604784
1295 4 0.140969 0.354668 0.653329
3427 2 0.223464 0.382364 0.647334
3429 4 0.22181 0.357866 0.642614
3428 4 0.225118 0.406862 0.652055
1602 4 0.234115 0.393016 0.595675
1470 4 0.243394 0.416087 0.656821
8 3 0.243661 0.40987 0.59946
1601 4 0.263262 0.352436 0.597779
1652 4 0.272135 0.428032 0.587851
1600 2 0.248688 0.372726 0.596727
161 1 0.313263 0.339924 0.591431
163 3 0.326564 0.356888 0.600017
164 3 0.291867 0.34138 0.600291
1468 2 0.268272 0.414246 0.658525
1574 4 0.425834 0.407486 0.59937
1704 4 0.43818 0.406022 0.615667
1445 4 0.443576 0.36103 0.649132
2562 4 0.107993 0.442297 0.597205
2068 2 0.0379618 0.496439 0.622187
2070 4 0.0589993 0.499625 0.609055
2560 2 0.0994791 0.436365 0.619954
2561 4 0.0909649 0.430434 0.642702
3572 4 0.103982 0.419508 0.656488
3571 2 0.122081 0.424396 0.673033
4603 2 0.0921351 0.507484 0.617726
4604 4 0.0772831 0.488342 0.611545
156 1 0.217242 0.43631 0.661263
157 3 0.21256 0.421368 0.644412
4436 4 0.222467 0.473645 0.664667
159 3 0.211731 0.457677 0.654089
158 3 0.23989 0.435204 0.666191
9 3 0.22722 0.441237 0.613253
6 1 0.241384 0.432821 0.596914
7 3 0.262057 0.442645 0.599214
1022 4 0.375094 0.45845 0.59492
2527 2 0.397841 0.469055 0.619008
2528 4 0.380221 0.475905 0.602645
1703 4 0.429692 0.448358 0.640893
2529 4 0.415462 0.462204 0.635372
1702 2 0.433936 0.42719 0.62828
462 3 0.0157109 0.0696748 0.664916
1325 4 0.0290143 0.0452052 0.715645
1324 2 0.0162608 0.0505513 0.694814
124 3 0.0350879 0.0406851 0.733539
1326 4 0.00350727 0.0558974 0.673982
121 1 0.0539342 0.0468004 0.745615
123 3 0.0651559 0.063903 0.734661
122 3 0.0679165 0.0286117 0.747293
1946 4 0.263421 0.015209 0.684602
2495 4 0.322243 0.0737717 0.677328
1945 2 0.265656 0.0116496 0.709249
944 4 0.274566 0.06288 0.742734
107 3 0.416009 0.0363775 0.719618
489 3 0.495004 0.0187385 0.718761
486 1 0.476388 0.0135902 0.73162
1301 4 0.466418 0.048973 0.738012
487 3 0.461956 0.0314999 0.731316
490 3 0.482697 0.00940504 0.753099
1300 2 0.46948 0.069166 0.752436
1629 4 0.0340845 0.117248 0.673431
1627 2 0.0554054 0.128371 0.680279
1628 4 0.0767263 0.139493 0.687126
3588 4 0.0598662 0.0826844 0.73583
1494 4 0.0893092 0.140548 0.701319
3586 2 0.058224 0.103521 0.749553
2775 4 0.220828 0.125479 0.670338
2774 4 0.225033 0.10088 0.713673
322 3 0.238274 0.108414 0.727723
2773 2 0.222931 0.11318 0.692006
321 1 0.251041 0.100724 0.745245
324 3 0.260538 0.0804172 0.739261
325 3 0.267392 0.115897 0.749838
1532 4 0.324379 0.0924116 0.686043
1531 2 0.323739 0.117406 0.685809
1533 4 0.323099 0.1424 0.685575
856 2 0.493145 0.148824 0.708145
1335 4 0.495553 0.130216 0.677957
858 4 0.481257 0.132923 0.692946
3476 4 0.011647 0.211275 0.743342
695 3 0.0415523 0.232764 0.67927
692 3 0.0509485 0.222621 0.713936
691 1 0.0343508 0.231698 0.700849
693 3 0.0154957 0.218247 0.702247
1310 4 0.0721399 0.206474 0.673866
1493 4 0.102324 0.188444 0.707426
1492 2 0.0958166 0.164496 0.704373
1605 4 0.198976 0.224873 0.710836
2415 4 0.184809 0.234393 0.700531
1603 2 0.194072 0.212491 0.731998
2413 2 0.196534 0.252332 0.68765
527 3 0.284488 0.215306 0.669698
2267 4 0.413683 0.206868 0.673905
1367 4 0.374357 0.226904 0.749755
857 4 0.505034 0.164724 0.723344
3494 4 0.411621 0.222559 0.685798
3493 2 0.421251 0.244394 0.69326
694 3 0.029474 0.253008 0.70863
3128 4 0.0112461 0.303177 0.666382
1479 4 0.0390343 0.267333 0.718477
1477 2 0.0490273 0.290167 0.716495
1478 4 0.0590203 0.313001 0.714513
1346 4 0.0636397 0.332654 0.714811
1296 4 0.182294 0.352392 0.681396
1341 4 0.2274 0.27647 0.676255
2414 4 0.208258 0.270271 0.67477
1660 2 0.462845 0.288727 0.680484
1662 4 0.44758 0.277161 0.696558
3495 4 0.430881 0.266229 0.700722
3466 2 0.993599 0.374184 0.693326
1518 4 0.00751933 0.412304 0.707358
1345 2 0.0563766 0.35658 0.714735
1347 4 0.0491136 0.380505 0.714659
3468 4 0.995669 0.395681 0.705927
3369 4 0.0687701 0.418307 0.681828
2812 2 0.174973 0.334898 0.723751
1294 2 0.161631 0.35353 0.667362
2814 4 0.181569 0.344317 0.701549
1719 4 0.234216 0.402198 0.707699
1717 2 0.234944 0.420917 0.72426
1469 4 0.293149 0.412405 0.660229
1444 2 0.436051 0.364023 0.672787
4550 4 0.435095 0.381459 0.709446
4549 2 0.443743 0.379874 0.732853
1446 4 0.428526 0.367016 0.696443