LAMMPS data file via write_data, version 4 Feb 2025, timestep = 2000000, units = lj

3100 atoms
4 atom types
2100 bonds
1 bond types
1250 angles
2 angle types

-10.410592 10.410592 xlo xhi
-10.410592 10.410592 ylo yhi
-10.410592 10.410592 zlo zhi
-6.394884621840902e-14 0 0 xy xz yz

Masses

1 1
2 1
3 0.1
4 0.1

Bond Coeffs # harmonic/omp

1 100 0.45

Angle Coeffs # harmonic/omp

1 100 180
2 100 109.471

Atoms # full

2824 908 4 0 -9.709348251926542 -8.911328615268408 -9.61986450369616 31 1 1
2822 908 2 0 -9.717741466505265 -8.980019987995012 -10.081997170707664 31 1 1
1646 516 2 0 -5.59270344046707 -9.367151414211655 -10.064450254272849 8 0 1
1647 516 4 0 -6.029072674945614 -9.427739178493367 -10.091360765433073 8 0 1
1648 516 4 0 -5.13922377108378 -9.303929622536378 -10.032257297129265 8 0 1
581 161 2 0 -4.4503618027217735 -9.156839657333792 -9.877568563135103 8 0 0
582 161 4 0 -4.882470041506621 -9.105804246989104 -9.764518199540804 8 0 0
583 161 4 0 -3.9849325591438065 -9.207309977791859 -10.00549647902722 8 0 0
1736 546 2 0 -8.663418117316658 -7.2728518523077295 -10.368484576736117 8 0 0
1738 546 4 0 -8.324777936039233 -7.335502577445211 -10.061700405861243 8 0 0
1389 430 4 0 -7.964110760746495 -7.259030979414997 -10.218072781352038 28 1 1
1388 430 2 0 -7.549561387632739 -7.458183187293372 -10.281682137401898 28 1 1
1390 430 4 0 -7.1533065196843815 -7.6405542387457235 -10.344783725087124 28 1 1
1314 405 4 0 -2.65543963866767 -7.019242888772862 -10.119095767756512 29 1 0
2270 724 2 0 -10.273381646856107 -6.391490409190127 -9.63486292707694 9 0 1
2271 724 4 0 -9.824777962351147 -6.353322482767696 -9.547914466830177 9 0 1
1313 405 2 0 -2.9246986445774574 -6.787184837627812 -9.84848218716796 29 1 0
1315 405 4 0 -3.2009456627178032 -6.559962142079497 -9.587449635317556 29 1 0
1615 505 4 0 -7.083057870250941 -4.563397552396733 -9.94307467430918 10 0 1
2439 780 4 0 -7.411720682351602 -4.411769444140486 -9.784425342820706 15 0 0
2438 780 2 0 -7.754979049628897 -4.620034442881048 -9.559844901328132 15 0 0
1595 499 2 0 -3.288754288389409 -4.955588677029016 -9.763012936518443 17 0 1
1597 499 4 0 -2.9628163806064283 -4.798859183839378 -10.044995578674968 17 0 1
38 8 3 0 -2.7762630916250073 -4.839939116971637 -10.395561926945682 11 0 1
1971 624 4 0 -8.191454218434208 -3.721738125060817 -10.028104251905319 12 0 0
1970 624 2 0 -8.319076828960805 -4.013019986300939 -10.323889636627875 12 0 0
1613 505 2 0 -6.873610404363635 -4.196571127567509 -10.134115215114376 10 0 1
1614 505 4 0 -6.676815708426777 -3.8532636192727994 -10.309934762015294 10 0 1
746 216 2 0 -2.0617324604587814 -4.019389608752997 -10.178995837629229 11 0 1
748 216 4 0 -1.8470682054077034 -3.893291418530885 -9.803967196691511 11 0 1
1300 400 4 0 -7.999185338840478 -3.3914702711583544 -9.946126768341824 12 0 0
1298 400 2 0 -7.6417385479345254 -3.2926229218090697 -9.690720778247043 12 0 0
2852 918 2 0 -6.131346145271462 -3.348238581718075 -10.239670299279428 13 0 1
2853 918 4 0 -5.855832871826659 -3.067337211631581 -10.002726956615271 13 0 1
2635 845 4 0 -5.577334059743346 -2.8241885346284015 -9.847161652590914 13 0 1
2633 845 2 0 -5.235814881673135 -3.0710727380737195 -9.692505353195237 13 0 1
2634 845 4 0 -4.888127803453217 -3.320523167665046 -9.550142342925236 13 0 1
1754 552 2 0 -3.857285173030128 -2.746798059979528 -9.919762856055284 27 0 0
1755 552 4 0 -3.6647000830083734 -3.0160051898140257 -9.602104603232416 27 0 0
1756 552 4 0 -4.051931118751367 -2.465048502199064 -10.247028631407598 27 0 0
3053 985 2 0 -9.169947086487912 -8.762915174644043 -8.984231642240522 31 1 1
3055 985 4 0 -9.386893758919086 -8.852635662202431 -9.370060715944746 31 1 1
591 164 4 0 -2.511837837127798 -7.006706142400296 -8.756119412376647 8 0 0
3031 977 4 0 -9.54538529534086 -6.119581464065117 -9.422744489739264 11 0 1
3029 977 2 0 -9.23587420084313 -6.188554646704247 -9.107975237471088 11 0 1
3030 977 4 0 -8.919795022708527 -6.2650823472219646 -8.78999071963539 11 0 1
1143 348 4 0 -3.3889125934084046 -6.27564107288354 -9.337260547878572 8 0 0
1142 348 2 0 -3.3179266467150583 -6.205688748017163 -8.914185570326469 8 0 0
2744 882 2 0 -1.8525180406540667 -6.661926152953546 -8.869592998888995 30 1 0
2746 882 4 0 -1.5724546245167783 -6.433126902188775 -9.199046043841944 30 1 0
2898 933 4 0 -4.735789134669341 -6.036560499038822 -8.737531434809226 13 0 1
1047 316 4 0 -4.519390601176022 -5.830566908702104 -9.01001365626246 14 0 1
1046 316 2 0 -4.174290086799871 -5.62151465532092 -9.167927526362842 14 0 1
1048 316 4 0 -3.815554873548889 -5.392170867051528 -9.333531582055823 14 0 1
2440 780 4 0 -8.079056229965861 -4.80782934316884 -9.348301210563118 15 0 0
802 234 4 0 -8.237220959765171 -4.828176385049394 -8.963326022269753 27 1 0
1596 499 4 0 -3.5965097239349726 -5.107502227240644 -9.465250321523664 17 0 1
2155 685 4 0 -4.578338985855527 -4.278053148726148 -9.09467100426006 13 0 2
2153 685 2 0 -4.597575294363561 -3.842932483307157 -9.180313493952626 13 0 2
937 279 4 0 -1.74731864979724 -3.63267950531546 -9.50797628040326 31 1 0
935 279 2 0 -1.4705820249697883 -3.6351998355304715 -9.185331111008706 31 1 0
936 279 4 0 -1.166352103915342 -3.632255563323712 -8.830872744333794 31 1 0
1299 400 4 0 -7.313972139255763 -3.190201752881493 -9.446327008874801 12 0 0
95 19 3 0 -7.287755618647205 -3.372557539364486 -9.065867723346509 12 0 1
2154 685 4 0 -4.625606025476683 -3.396013724406007 -9.270606691160094 13 0 2
1189 363 4 0 -3.289671735639857 -3.1085163210094358 -9.538473730382922 19 0 0
1187 363 2 0 -2.910521461927476 -2.9618438751500493 -9.318184836253996 19 0 0
1188 363 4 0 -2.5723918648079085 -2.8363232780781855 -9.109657077674134 19 0 0
827 243 2 0 -9.665334939827469 -2.5907849252200794 -8.762356701030601 16 0 0
3048 983 4 0 -9.058260673140232 -2.29285077121183 -8.815098442209678 18 0 0
828 243 4 0 -9.362479571308583 -2.422378159443589 -9.035448635840497 16 0 0
3047 983 2 0 -8.669375593151626 -2.093007910337045 -8.844131613314527 18 0 0
2298 733 4 0 -7.8515620949903635 -1.7884411166130487 -8.868265594262958 18 0 1
3049 983 4 0 -8.252685178921308 -1.8767395844857955 -8.883564517647427 18 0 0
2297 733 2 0 -7.581299299383025 -2.15849776410049 -8.813001509929485 18 0 1
2299 733 4 0 -7.333664279840443 -2.4930062482219792 -8.765524434274623 18 0 1
874 258 4 0 -2.3572898660485944 -2.582644188160856 -8.878959574684549 -3 -1 1
873 258 4 0 -1.7688356144955364 -1.8992097981888758 -8.839612612697461 -3 -1 1
872 258 2 0 -2.0674809496315927 -2.246704666820559 -8.861177864590001 -3 -1 1
2514 805 4 0 -1.37670101992774 -1.8592811141002006 -8.88452235056971 34 1 0
2513 805 2 0 -0.9911843805982077 -1.8749188388863551 -9.0988016446957 34 1 0
2515 805 4 0 -0.6177905404440285 -1.8855743894876316 -9.297628676424335 34 1 0
1041 314 4 0 -3.090255881912757 -9.068365082403172 -8.0902290187728 29 1 1
1040 314 2 0 -2.7438433832447426 -9.149760137867407 -7.816846618014232 29 1 1
304 68 4 0 -2.952487468554553 -8.741739452885165 -8.3152345038862 8 0 0
3054 985 4 0 -8.945493767926452 -8.66201628178593 -8.579816252904543 31 1 1
1534 478 4 0 -8.827606540055047 -8.627814180676392 -8.20534054225188 30 1 1
1532 478 2 0 -8.555235366514827 -8.351095410259896 -7.964405846111699 30 1 1
302 68 2 0 -3.0369817488297635 -8.301147449895405 -8.439234590138698 8 0 0
303 68 4 0 -3.120133734604762 -7.875686676002649 -8.553844314920031 8 0 0
592 164 4 0 -3.039090176335879 -7.577326273763954 -8.271740605396609 8 0 0
590 164 2 0 -2.7616372249422785 -7.289053131513384 -8.519940192502045 8 0 0
2538 813 4 0 -8.654979057358444 -6.179879550998131 -8.49065890360166 31 1 0
2537 813 2 0 -8.21570614889482 -6.163298214502708 -8.525518384404126 31 1 0
2539 813 4 0 -7.772557111674818 -6.137980266987842 -8.568582325570953 31 1 0
2899 933 4 0 -5.16369866279276 -6.539619335930048 -8.156303339552556 13 0 1
2897 933 2 0 -4.945550395412525 -6.2776974368384115 -8.444329873831437 13 0 1
1144 348 4 0 -3.251569148912587 -6.13259255671656 -8.486843199978509 8 0 0
2745 882 4 0 -2.1184837050780825 -6.869124131600479 -8.5619218970558 30 1 0
2907 936 4 0 -7.463687092705877 -5.907635385789319 -8.443926152769423 35 1 0
2906 936 2 0 -7.087935193005275 -5.78732331901504 -8.332780712149942 35 1 0
2908 936 4 0 -6.682384664936775 -5.652033485214643 -8.21085094254645 35 1 0
1407 436 4 0 -6.300605783516014 -5.555306889147989 -8.285446830182405 9 0 1
1406 436 2 0 -5.8590914382474795 -5.607343690860276 -8.174413384878811 9 0 1
1408 436 4 0 -5.438434904234261 -5.660760710679208 -8.06439961651702 9 0 1
2118 673 4 0 -0.5817789183305031 -5.650630060554058 -7.938592214159679 17 0 0
2326 742 4 0 -0.2164793598312702 -5.54173669532319 -8.030951102960111 17 0 0
800 234 2 0 -8.233877165587804 -4.911204171967152 -8.523649573280712 27 1 0
801 234 4 0 -8.241007698170607 -4.982948688514432 -8.050762566591546 27 1 0
2554 818 4 0 -8.028032033546275 -3.502212137107394 -8.309460715271863 32 1 0
94 19 3 0 -6.916757888415441 -3.484080946354866 -8.440541189659495 12 0 1
3043 981 4 0 -1.0165696730331621 -3.687369922682592 -8.457864017110662 30 1 1
3041 981 2 0 -0.859674141025863 -3.4749104012398515 -8.09439658778791 30 1 1
829 243 4 0 -9.970831029208362 -2.760986118608529 -8.471145906446536 16 0 0
2749 883 4 0 -10.06573655638048 -2.9051807459223706 -8.126850990627222 20 0 0
2552 818 2 0 -8.348028744884632 -3.456175302692638 -7.969319714941351 32 1 0
91 19 1 0 -7.2671706422007665 -3.265384226141223 -8.643383300345512 12 0 1
92 19 3 0 -7.650898540886033 -3.380055670733415 -8.439514729525257 12 0 1
93 19 3 0 -7.207152909682388 -2.8284158206106422 -8.611153478272445 12 0 1
1079 327 2 0 -9.725938903903282 -1.779939111124067 -8.001909870828527 21 0 0
1080 327 4 0 -10.139165324103505 -1.8280642298049177 -8.18319441102468 21 0 0
1081 327 4 0 -9.304362423014554 -1.739032682322799 -7.817784996208465 21 0 0
2343 748 4 0 -10.048326234313071 -0.16071279936020133 -8.498142394306123 20 0 0
35 7 3 0 -10.40898034551622 -0.2530970876352523 -8.654317797359896 19 0 0
1204 368 4 0 -2.465799293891723 -9.614098316012695 -7.516094430568201 28 1 0
1202 368 2 0 -2.3179220692973814 -10.02984408738662 -7.387938118463621 28 1 0
1042 314 4 0 -2.4116838960872933 -9.241640727223706 -7.555152260536998 29 1 1
1533 478 4 0 -8.299183779825869 -8.069749547794062 -7.728915822371614 30 1 1
2434 778 4 0 -7.913235496566447 -8.062155763893152 -7.6649752071463855 32 1 1
2432 778 2 0 -7.6996983521480065 -8.18397402394465 -7.295522293464045 32 1 1
968 290 2 0 -10.232310049970872 -7.4151601006817796 -7.661844137931514 30 1 -1
969 290 4 0 -9.823670550799175 -7.289006615154695 -7.46644325461926 30 1 -1
988 296 4 0 -5.491532170426405 -6.910164504791222 -7.07073916569491 29 1 0
986 296 2 0 -5.283280628474588 -6.693883736287022 -7.421071991440808 29 1 0
987 296 4 0 -5.0733860312447225 -6.486620202118044 -7.7778878453994675 29 1 0
1475 459 2 0 -7.898009246556515 -5.337272397505725 -7.394363682105988 10 0 1
1476 459 4 0 -7.799011074457235 -5.641085621494944 -7.075832584400748 10 0 1
2731 877 4 0 -7.580672185359175 -5.999055730518071 -7.064780499579314 11 0 0
2122 674 4 0 -5.213994014515257 -5.766070099101519 -7.7574342032733785 10 0 1
2120 674 2 0 -4.83753459598168 -5.570702983640341 -7.562585893005057 10 0 1
2121 674 4 0 -4.474426418422208 -5.384077761017883 -7.381273296804883 10 0 1
2119 673 4 0 -0.7248175533921923 -5.6091747196799915 -7.033697060819597 17 0 0
2117 673 2 0 -0.6415001696915184 -5.630072857317128 -7.496554889988886 17 0 0
1477 459 4 0 -8.00100613487589 -5.0344164254974215 -7.71281065217906 10 0 1
307 69 4 0 -6.733945616439949 -4.891031243947775 -7.270114315187993 16 0 0
305 69 2 0 -6.2688561672448895 -4.87969716782678 -7.414918346104049 16 0 0
414 105 4 0 -5.586324699926443 -4.554481654484547 -7.547002227639666 13 0 0
306 69 4 0 -5.854018697247124 -4.868383965246459 -7.552678711225221 16 0 0
761 221 2 0 -9.299862125984035 -3.4754738214518976 -7.181457214054968 32 1 0
762 221 4 0 -8.955749526180691 -3.599830447903236 -7.448233006833254 32 1 0
413 105 2 0 -5.362683302756798 -4.1547581377228 -7.587603953054887 13 0 0
415 105 4 0 -5.154982614394938 -3.770248270546454 -7.624582746179835 13 0 0
2553 818 4 0 -8.65323577746422 -3.41382410718626 -7.634770447204495 32 1 0
1713 538 4 0 -5.078628717909172 -3.3625335668184917 -7.660115084585009 13 0 0
1712 538 2 0 -5.1072089136092345 -3.0309537432401257 -7.356247693138046 13 0 0
1714 538 4 0 -5.131669196641975 -2.687213093514334 -7.0409048280911595 13 0 0
3042 981 4 0 -0.7029241793141026 -3.2438494488367207 -7.708798320924889 30 1 1
523 141 4 0 -0.5106916674055668 -3.3565359794783207 -7.386090120195837 15 0 0
521 141 2 0 -0.46512987102912895 -3.4571434080043257 -6.9433084787480865 15 0 0
1929 610 4 0 -8.969249757613092 -1.5367373318167878 -7.782739362126229 21 0 1
1928 610 2 0 -8.554332389760232 -1.3882938625835433 -7.639654854055439 21 0 1
1930 610 4 0 -8.164883150256156 -1.2400881553848357 -7.508545786294967 21 0 1
345 82 4 0 -7.786698610663631 -1.1596696688041224 -7.426125478111647 19 0 1
344 82 2 0 -7.364431315027524 -1.1995264270114472 -7.532003954459438 19 0 1
346 82 4 0 -6.9153887095144455 -1.229211753458408 -7.639540284210563 19 0 1
1006 302 4 0 -6.551303742909789 -1.3779444097426943 -7.713762578706013 19 0 0
1004 302 2 0 -6.086646923129507 -1.2798503580906928 -7.681210924017214 19 0 0
1594 498 4 0 -5.251460894323532 -1.1844660134656149 -7.672890019132266 22 0 1
1005 302 4 0 -5.6534244835621115 -1.180777106451833 -7.662071571523484 19 0 0
1592 498 2 0 -4.8020888264373625 -1.1755206682819814 -7.713783195293155 22 0 1
1593 498 4 0 -4.333137909039049 -1.1682440531057434 -7.762718225114772 22 0 1
2394 765 4 0 -4.146734218356444 -1.4308740937326938 -7.54440320537711 22 0 1
2393 765 2 0 -3.698915255691996 -1.3067018627006242 -7.476058643902353 22 0 1
2395 765 4 0 -3.245069885283262 -1.1694401658453053 -7.400917703337479 22 0 1
1785 562 4 0 -2.934333381938041 -1.062478963332083 -7.191782914911929 22 0 0
1784 562 2 0 -2.4995195548714317 -1.2161276411071142 -7.213139475007747 22 0 0
1786 562 4 0 -2.0646658859703315 -1.3647886320978042 -7.230009881294682 22 0 0
1939 613 4 0 -1.6806845070139662 -1.2587719783585793 -7.36750495939935 21 0 1
1937 613 2 0 -1.3263990335167808 -1.1266129187860248 -7.154202944717527 21 0 1
1157 353 2 0 -0.07567478901638047 -0.9026994192297284 -7.043504035487628 21 0 1
1158 353 4 0 -0.5172973699771575 -1.0077224783620018 -6.994380867296614 21 0 1
1978 626 4 0 -3.1338071017966493 -9.942999735073828 -6.155630661170276 29 1 0
1976 626 2 0 -2.6982507136742653 -10.036074446791458 -6.133032542309806 29 1 0
73 15 3 0 -1.9602892275710353 -10.358537692655707 -6.280056096277499 28 1 0
1977 626 4 0 -2.268962383489324 -10.1264766807711 -6.115568392239655 29 1 0
480 127 4 0 -1.0579756691785143 -10.036013739990805 -6.612381198193599 28 1 0
74 15 3 0 -1.3642882667261897 -10.245256474853507 -6.761295482148853 28 1 0
479 127 2 0 -0.6198555269098271 -10.12948241304384 -6.720407858544612 28 1 0
481 127 4 0 -0.19950410073202285 -10.217268980438087 -6.814699108800968 28 1 0
2465 789 2 0 -6.073463852033864 -8.820049514111027 -6.142672907120368 13 0 0
2467 789 4 0 -5.852297866604872 -9.212548011793094 -6.077458060600924 13 0 0
1723 541 4 0 -3.350537484254242 -8.803199504239911 -6.215479212128589 12 0 1
2433 778 4 0 -7.463626521589104 -8.313788866173443 -6.908667449750024 32 1 1
1891 597 4 0 -7.41387802905013 -8.498033575434885 -6.555111105521464 30 1 0
1889 597 2 0 -7.018541233623502 -8.323255749205178 -6.436808112680121 30 1 0
1890 597 4 0 -6.617844168586422 -8.15110277385629 -6.312640375475278 30 1 0
2466 789 4 0 -6.297400340348456 -8.42080015357828 -6.208744539913138 13 0 0
1722 541 4 0 -4.135834899448149 -8.35139873548135 -6.18882472147576 12 0 1
1651 517 4 0 -4.286765374703694 -7.982542637276486 -6.1559259377140725 27 1 1
1721 541 2 0 -3.742753476990332 -8.574525764701459 -6.206652723993752 12 0 1
1419 440 4 0 -1.9142284955607707 -8.324438804874044 -6.264524436553339 31 1 1
1418 440 2 0 -1.6045254942615568 -7.997993620330996 -6.325839846267312 31 1 1
1420 440 4 0 -1.3156736845759607 -7.67897968047228 -6.3871143225861 31 1 1
2730 877 4 0 -7.340795452431935 -6.756361473502609 -6.653216446416073 11 0 0
2729 877 2 0 -7.459747690901866 -6.380919524109592 -6.849363699356215 11 0 0
460 120 4 0 -7.095835001196882 -6.9168207803044695 -6.364916758755629 9 0 0
458 120 2 0 -6.717014865072732 -6.7793427618058 -6.147586049677764 9 0 0
579 160 4 0 -5.374820232315258 -6.840180512710438 -6.693563004800379 9 0 0
578 160 2 0 -5.66408315740935 -6.752424266252422 -6.37724512847184 9 0 0
669 190 4 0 -8.895500311726781 -5.784001475663375 -6.200221318928542 11 0 0
2890 930 4 0 -8.602929481340867 -5.587220822746284 -6.405451313304653 31 1 1
2888 930 2 0 -8.31192190309871 -5.379029198359992 -6.111772626950912 31 1 1
631 177 4 0 -0.5331259999273517 -5.542764795483982 -6.677181269785306 15 0 1
629 177 2 0 -0.3910590607200035 -5.221408119857906 -6.4190182073612 15 0 1
1415 439 2 0 -6.781729202244978 -5.139258379822156 -6.480260332311591 39 1 0
1417 439 4 0 -6.769058772833098 -4.979382330905295 -6.883714491116579 39 1 0
630 177 4 0 -0.2385349827453087 -4.879087600120571 -6.1573093375151995 15 0 1
15 3 3 0 -0.48209365668027004 -4.5565723619000496 -6.099326326148483 15 0 0
602 168 2 0 -10.221557551015742 -3.543450403599598 -6.469658217987759 13 0 1
12 3 3 0 -0.3417921859242874 -3.9418473385396124 -6.4591876611500405 15 0 0
522 141 4 0 -0.41057863860823396 -3.551498423677465 -6.4941552739375865 15 0 0
603 168 4 0 -10.023388284595377 -3.323211745228022 -6.802553800592694 13 0 1
763 221 4 0 -9.637379216522767 -3.3399732077246718 -6.927737122247855 32 1 0
1484 462 2 0 -6.7638078770381735 -1.796707661829501 -6.33176714604639 14 0 2
2592 831 4 0 -6.238914201068716 -2.3296923162484617 -6.462298176810174 33 1 0
1486 462 4 0 -6.602887548702001 -2.2053948123747933 -6.3866407658324835 14 0 2
2593 831 4 0 -5.470046221283895 -2.5810383541298894 -6.843959458023832 33 1 0
2591 831 2 0 -5.837134786344261 -2.4541426069512946 -6.658838185715834 33 1 0
2645 849 2 0 -10.410171790400849 -1.2453139748445814 -6.281422603134525 22 0 0
1485 462 4 0 -6.939372358847242 -1.3829391525609616 -6.272570303268998 14 0 2
1938 613 4 0 -0.9514787123024817 -0.9834537804790227 -6.9280600288427845 21 0 1
2928 943 4 0 -4.641425232685299 -9.6261383886362 -5.558388958430235 11 0 0
3025 975 4 0 -3.496828813157286 -9.87165135417372 -5.997840151270735 11 0 1
3024 975 4 0 -4.2403684286825465 -9.626040353315771 -5.563009830882828 11 0 1
3023 975 2 0 -3.871770766519978 -9.748949711136737 -5.786274378235036 11 0 1
2929 943 4 0 -5.455343458630241 -9.431335181435996 -5.219492172841784 11 0 0
2927 943 2 0 -5.027740946106524 -9.531468143686753 -5.401445934782501 11 0 0
856 252 4 0 -2.989837787953099 -8.815463972436511 -6.028433936683804 11 0 1
854 252 2 0 -2.578376023779347 -8.701738883023376 -6.043922095079747 11 0 1
1650 517 4 0 -4.915632147625026 -8.041584275801016 -5.470988431247321 27 1 1
68 14 3 0 -5.165157083515644 -7.872335210806895 -5.226965875465932 10 0 0
1649 517 2 0 -4.610152340594841 -8.011208646445693 -5.808679674448983 27 1 1
855 252 4 0 -2.134496344524546 -8.588659403274608 -6.063229009892987 11 0 1
459 120 4 0 -6.3427532670476845 -6.64512607463717 -5.929622405715476 9 0 0
580 160 4 0 -5.962830642472453 -6.632829150673789 -6.0445404396203815 9 0 0
670 190 4 0 -9.748362079033644 -5.741646425588761 -5.877972543631559 11 0 0
1410 437 4 0 -10.08696770640992 -5.802565405338423 -6.066179745694782 10 0 0
668 190 2 0 -9.333831166219806 -5.761553889473893 -6.028395936696118 11 0 0
1099 333 4 0 -7.680318596704554 -5.235765015585236 -5.706024671899448 30 1 0
1416 439 4 0 -6.779872702325065 -5.315836790465752 -6.044013791242109 39 1 0
2497 799 4 0 -6.699230744044252 -5.216970023610823 -5.64471528665469 29 1 0
2889 930 4 0 -8.062938039288907 -5.182075091273817 -5.824442139852522 31 1 1
1097 333 2 0 -7.298355012862995 -5.1587294265841654 -5.472115603333105 30 1 0
1098 333 4 0 -6.883697200364862 -5.068625716932999 -5.217348098403591 30 1 0
2495 799 2 0 -6.2408966269360855 -5.14080035727845 -5.486346890848159 29 1 0
2496 799 4 0 -5.813354162726425 -5.061737539902265 -5.330588857554023 29 1 0
643 181 4 0 -1.96344781208413 -4.154188562998561 -5.246412427470539 15 0 0
641 181 2 0 -1.5620292812453638 -4.12794958765481 -5.484132287633555 15 0 0
642 181 4 0 -1.1662544180733807 -4.104967670361387 -5.712901689809005 15 0 0
14 3 3 0 -0.8188890453390378 -3.9474177286217085 -5.907888031014635 15 0 0
11 3 1 0 -0.4353189695293729 -4.124797946936062 -6.059138920946839 15 0 0
13 3 3 0 -0.11446902678386017 -4.046367520255722 -5.787748991384922 15 0 0
2647 849 4 0 -10.224848912059143 -1.2267421908536722 -5.845314490946931 22 0 0
993 298 4 0 -10.001127629160676 -0.922088611797351 -5.749622585932036 0 -1 0
992 298 2 0 -9.58629745400443 -0.8096149949277152 -5.657259518391058 0 -1 0
994 298 4 0 -9.175227030206823 -0.6912737089430951 -5.5687161426218355 0 -1 0
2871 924 4 0 -8.972269261328345 -0.4134229669659817 -5.335094151743805 21 0 0
2518 806 4 0 -5.772042052867041 -9.37791728923856 -4.95084258538618 11 0 0
2516 806 2 0 -5.805932166938192 -8.936163177425158 -4.816680055498738 11 0 0
2517 806 4 0 -5.838716665949389 -8.509154468815534 -4.682742652744914 11 0 0
66 14 1 0 -5.343264592418653 -7.887975915606399 -4.8443372344919835 10 0 0
70 14 3 0 -5.535749944224909 -8.265356152803294 -4.783307187899414 10 0 0
69 14 3 0 -5.041823362919865 -7.838846805878785 -4.547472018243153 10 0 0
2247 716 4 0 -5.885670213167191 -7.6446344637133485 -4.515126362265372 10 0 0
67 14 3 0 -5.63329212449405 -7.569508533138687 -4.805196723887308 10 0 0
2494 798 4 0 -5.448295663038659 -5.161614399301941 -5.202605822545404 29 1 0
2492 798 2 0 -5.02730442297419 -5.03430432074691 -5.078883804984688 29 1 0
2493 798 4 0 -4.619603608977826 -4.912281524355268 -4.974751656724027 29 1 0
179 36 3 0 -4.2397919237277675 -4.753940250202202 -5.021091563498836 10 0 1
176 36 1 0 -3.9355359220934316 -4.49084269708218 -4.805272175645531 10 0 1
177 36 3 0 -3.7422469890212096 -4.719717993692529 -4.480830682775856 10 0 1
1480 460 4 0 -4.379856137675124 -4.300359223768135 -4.350244031493402 30 1 1
180 36 3 0 -4.149250506642558 -4.132000262486187 -4.621975551605121 10 0 1
178 36 3 0 -3.618658126956518 -4.336366544209192 -5.111874175885507 10 0 1
2337 746 4 0 -3.2506495112596685 -4.217761753232768 -5.168397764216381 10 0 1
2336 746 2 0 -2.7787535238779633 -4.156013431514058 -5.134158254172739 10 0 1
2338 746 4 0 -2.3252393232466915 -4.10182878264834 -5.108768715956225 10 0 1
1066 322 4 0 -0.056003133325221555 -2.7348328953366776 -4.422786953991648 38 1 0
2870 924 2 0 -8.811581390545136 -0.1613253924484983 -5.003452992999569 21 0 0
1894 598 4 0 -4.839291785042055 -7.825036709660166 -4.213894209239077 9 0 0
1892 598 2 0 -4.5042775993596225 -7.906905251446567 -3.9560866670466304 9 0 0
1893 598 4 0 -4.151200574942982 -8.000696652772794 -3.6686952706029574 9 0 0
2246 716 2 0 -6.205405460361069 -7.6506812316322135 -4.173159363246633 10 0 0
2248 716 4 0 -6.514913716522228 -7.65359915839574 -3.8398171877267604 10 0 0
1840 580 4 0 -6.222163659957874 -4.483397577759988 -3.618965990505165 16 0 0
1838 580 2 0 -5.800666444581165 -4.435987832788561 -3.766010724817212 16 0 0
1839 580 4 0 -5.396960747222439 -4.391059691465152 -3.9107450045750474 16 0 0
2814 905 4 0 -2.5495494813606374 -4.608479406656696 -4.003160805744679 28 1 1
2815 905 4 0 -1.7720098175760537 -5.081737520992794 -3.939113866451164 28 1 1
2813 905 2 0 -2.1430984321742983 -4.852766956565119 -3.974353021392152 28 1 1
1445 449 2 0 -1.046867055956552 -4.991621468791577 -3.625622597463762 31 1 1
1446 449 4 0 -1.4336400566424423 -4.860288432939038 -3.8165636151663325 31 1 1
1478 460 2 0 -4.718627943847641 -4.271119698607693 -4.050848407196555 30 1 1
1479 460 4 0 -5.058330516204698 -4.241859353945851 -3.7599967729014088 30 1 1
617 173 2 0 -3.006781195257058 -4.281945791931663 -3.641030349472273 8 0 1
618 173 4 0 -2.562189486222251 -4.261547131180495 -3.8269181674698247 8 0 1
2361 754 4 0 -0.7800004885962082 -3.0150774823019475 -3.4892014486126373 18 0 0
2360 754 2 0 -0.5745194448683293 -2.9752084411882826 -3.8972470894878724 18 0 0
2362 754 4 0 -0.3774234333618871 -2.9269337752942137 -4.303490000054077 18 0 0
1333 411 4 0 -8.751978203707905 -1.3173948950777508 -3.722119907703947 17 0 1
1331 411 2 0 -9.121252795203734 -1.3337857815523666 -3.4746812765827464 17 0 1
1989 630 4 0 -8.358893119773041 -1.328225946463963 -3.7033810925223243 14 0 0
1988 630 2 0 -7.87881954382126 -1.2411573402335936 -3.6756094446613483 14 0 0
975 292 4 0 -7.267733390385525 -1.0285874824000647 -4.030229372655948 30 1 0
1990 630 4 0 -7.388906143769576 -1.1506388262239557 -3.648600832772008 14 0 0
974 292 2 0 -6.841342350110063 -0.9023871061758193 -4.08073145552826 30 1 0
2446 782 4 0 -6.064065116806965 -0.9754277899880961 -4.202404924164134 31 1 0
2444 782 2 0 -5.619695958501026 -0.939943024907711 -4.184343026362976 31 1 0
2445 782 4 0 -5.147650920215789 -0.9016308016484142 -4.165698773253295 31 1 0
535 145 4 0 -4.852731005149652 -1.0399551734397647 -3.9141092760389213 12 0 0
976 292 4 0 -6.41213267602862 -0.7784541281865778 -4.138637858759315 30 1 0
533 145 2 0 -4.433687072994302 -0.8454114336802636 -3.9411324305571496 12 0 0
2527 809 4 0 -3.7165176179966766 -0.4041451753223875 -4.134641304384147 17 0 1
534 145 4 0 -4.015379258799689 -0.645592622201022 -3.9745515765122157 12 0 0
2525 809 2 0 -3.324979663563699 -0.19802745725786508 -4.117944532947675 17 0 1
333 78 4 0 -6.3776171609420915 -9.029284830359936 -2.9113986472847575 9 0 0
693 198 4 0 -4.112598344714285 -7.963065110365297 -3.277006812307815 29 1 0
692 198 2 0 -4.155206136026052 -7.735933613594941 -2.907255127662008 29 1 0
2842 914 4 0 -0.26185864596926756 -5.22651083811632 -3.40718083839037 31 1 1
1654 518 4 0 -6.545151236397798 -4.6181870793395134 -3.41914125399194 56 2 0
1652 518 2 0 -6.736932120923534 -4.617833510754291 -3.0198701380263815 56 2 0
1790 564 2 0 -4.05608514549144 -4.3448059416063085 -3.028310079182 10 0 0
1791 564 4 0 -3.8355694044685427 -4.408814418438887 -3.3862437963509784 10 0 0
1447 449 4 0 -0.65730921864054 -5.129612312743031 -3.4339740560926826 31 1 1
1792 564 4 0 -4.2806735076787525 -4.289288306700174 -2.65504815094713 10 0 0
619 173 4 0 -3.4362503915946014 -4.303349411040314 -3.4574650849736326 8 0 1
719 207 2 0 -10.241526769287745 -1.6146698817231915 -2.998896671408094 16 0 1
720 207 4 0 -9.779697044607108 -1.6514026724989126 -3.070750547515912 16 0 1
1332 411 4 0 -9.50819486064328 -1.3588299473041907 -3.214262402237879 17 0 1
2385 762 4 0 -2.7542483826454864 -9.92512415593652 -1.9868737470162383 7 0 0
2949 950 4 0 -1.0868403412683474 -9.745999213025021 -2.158849718987815 33 1 1
2948 950 2 0 -1.0346299746002305 -10.210893979180595 -2.1152135595785495 33 1 1
332 78 2 0 -6.431005490959208 -8.987581061122157 -2.4679812022228633 9 0 0
334 78 4 0 -6.478607023775847 -8.952238953876785 -2.034525431689378 9 0 0
2384 762 2 0 -2.679644162702038 -9.488318078362608 -2.0269267146445547 7 0 0
1459 453 4 0 -2.707064659613044 -8.83125735278938 -1.7430566223696005 27 1 1
2386 762 4 0 -2.602519797131216 -9.02919026056651 -2.078616580819274 7 0 0
1513 471 4 0 -1.3112636191250377 -9.401196871286428 -2.1835355293495002 8 0 1
1511 471 2 0 -1.0772505794205909 -9.07560929371782 -1.9688910277171079 8 0 1
1512 471 4 0 -0.8519621987510533 -8.766535093283585 -1.7514547947447756 8 0 1
463 121 4 0 -0.47109742292172996 -8.77463876331461 -1.8821570842530413 8 0 0
694 198 4 0 -4.204274878919711 -7.475561289634964 -2.506088784890755 29 1 0
846 249 4 0 -4.105001147139398 -7.112568111258405 -2.3759696855798733 29 1 1
845 249 2 0 -3.750818995583735 -7.035693510033153 -2.1033089105374962 29 1 1
847 249 4 0 -3.4133529627846118 -6.956193349447901 -1.832151396120464 29 1 1
1007 303 2 0 -9.761106223452881 -5.976805205746556 -1.757879624317738 29 1 0
1009 303 4 0 -9.338217801604175 -5.811846670893546 -1.8748136351254772 29 1 0
684 195 4 0 -9.097215184950802 -5.740585985540616 -2.2068442075204757 30 1 0
683 195 2 0 -8.707231230418303 -5.620685945900643 -2.317431395088228 30 1 0
2130 677 4 0 -8.011969885233185 -5.260619717794666 -2.2905322104941863 11 0 0
685 195 4 0 -8.30718151345267 -5.501594394162835 -2.431613272265924 30 1 0
2131 677 4 0 -7.243626780576051 -4.806250321744011 -2.4047497659682016 11 0 0
2129 677 2 0 -7.631489265121347 -5.036872300541972 -2.3428828519240064 11 0 0
1653 518 4 0 -6.936534238448042 -4.615843685093789 -2.580957108767529 56 2 0
1836 579 4 0 -0.7254996298014369 -1.0202199360160993 -2.071591090513744 37 1 0
1835 579 2 0 -0.3694648207236586 -1.2454895778530144 -2.277197500318234 37 1 0
1837 579 4 0 -0.0038941364578253257 -1.469194685834692 -2.475950722230815 37 1 0
2124 675 4 0 -0.8951815198631348 -0.6313083364414922 -2.1543135463567804 1 -1 0
2123 675 2 0 -0.9796739525065359 -0.2091229192913584 -1.9979487593830694 1 -1 0
498 133 4 0 -6.587857394663384 -9.109369204727768 -1.6880576064177255 7 0 0
497 133 2 0 -6.55106674328363 -8.83329157390736 -1.336566821341938 7 0 0
499 133 4 0 -6.510075948989751 -8.550652839654184 -0.9870921404413977 7 0 0
1292 398 2 0 -3.982945026116263 -8.244116541425702 -1.0094469697939896 27 1 0
1293 398 4 0 -3.645471946909499 -8.320388111688453 -1.320968750482816 27 1 0
1458 453 4 0 -3.2717677934928444 -8.40921305095115 -1.2061973643719472 27 1 1
1457 453 2 0 -2.9961871614597753 -8.618935425912145 -1.4721875754234102 27 1 1
461 121 2 0 -0.0930200650586297 -8.584127586749 -1.7273004367179947 8 0 0
2620 840 4 0 -3.272377244125172 -7.2930582781907205 -1.6942315036263178 28 1 0
2618 840 2 0 -2.9384374121679127 -7.373567521416312 -1.3736917325124214 28 1 0
2619 840 4 0 -2.6245640817667546 -7.463462882473777 -1.0573922823195687 28 1 0
2167 689 4 0 -2.2506846752361493 -7.325332087825471 -1.113309398987738 13 0 1
2165 689 2 0 -1.8060960414798846 -7.418783442210126 -1.0218655613465035 13 0 1
2166 689 4 0 -1.381633761776726 -7.504977018172285 -0.9473699440999237 13 0 1
1008 303 4 0 -10.188429988805696 -6.1346663082798765 -1.6529717525898313 29 1 0