LAMMPS data file via write_data, version 4 Feb 2025, timestep = 8500000, units = lj

3100 atoms
4 atom types
2100 bonds
1 bond types
1250 angles
2 angle types

-10.410592 10.410592 xlo xhi
-10.410592 10.410592 ylo yhi
-10.410592 10.410592 zlo zhi

Masses

1 1
2 1
3 0.1
4 0.1

Bond Coeffs # harmonic/omp

1 100 0.45

Angle Coeffs # harmonic/omp

1 100 180
2 100 109.471

Atoms # full

575 159 2 0 -8.293627623741926 -10.38688906645097 -9.38390510815905 0 0 0
576 159 4 0 -8.396819973415198 -10.253163789059816 -9.784282924777077 0 0 0
2206 702 4 0 -4.598976608500027 -9.353128529181866 -9.431634043770543 0 0 1
1177 359 4 0 -4.592734834865101 -8.955895963859161 -9.376962950252366 0 1 1
2204 702 2 0 -4.320847235563995 -9.687544142080572 -9.358962374980004 0 0 1
2205 702 4 0 -4.017921748520224 -10.029625928825457 -9.291760857035161 0 0 1
2497 799 4 0 -3.634867372252839 -10.196497127963399 -9.182121211379801 1 1 0
2495 799 2 0 -3.378924936621946 -10.059793895556673 -8.874765640069693 1 1 0
459 120 4 0 -0.2823624890029585 -9.925105054563387 -9.321893684106454 0 0 0
3003 968 4 0 -8.586706517099573 -7.808159757816784 -9.142589586717323 1 1 1
3002 968 2 0 -8.332179169810097 -7.493265701392763 -8.909122490879588 1 1 1
1627 509 4 0 -4.710126879472569 -7.71982500433133 -9.393729616275055 0 1 1
1176 359 4 0 -4.7783922183382455 -8.066717943830316 -9.218210680834215 0 1 1
1175 359 2 0 -4.68709860682608 -8.526582349329939 -9.299252132002715 0 1 1
1420 440 4 0 -3.9054185115028233 -8.210420615665171 -9.116691074687493 0 1 1
1418 440 2 0 -3.470319740798725 -8.249207777754487 -8.999091098148796 0 1 1
1419 440 4 0 -3.0337523695668565 -8.283538459526486 -8.881853464186527 0 1 1
1625 509 2 0 -4.79300957323813 -7.278782408007813 -9.466256576222552 0 1 1
1988 630 2 0 -4.672225271203541 -6.046079970922367 -9.774826876254993 0 0 0
1626 509 4 0 -4.873299791629674 -6.836401534242437 -9.54202982783319 0 1 1
1990 630 4 0 -4.833771972886629 -6.469209515991408 -9.691128063994098 0 0 0
2284 728 4 0 -10.178395403929079 -5.749121668782789 -8.848205709883148 0 -1 1
1989 630 4 0 -4.50771723035301 -5.632055874687782 -9.86184932830238 0 0 0
390 97 4 0 -4.618633639362499 -5.233068508241229 -9.91446520035726 0 0 0
389 97 2 0 -4.786477200220655 -4.999432317205634 -10.272536326850348 0 0 0
1415 439 2 0 -7.338444590038713 -0.007232435227035936 -0.19820710488669488 0 1 0
2905 935 4 0 -0.3092579890814492 -5.5950408608286715 -9.909211633333433 0 1 1
2904 935 4 0 -0.03390526804386529 -4.72480817282679 -9.814157452751852 0 1 1
2903 935 2 0 -0.17627295038750493 -5.163315392493237 -9.858620781316153 0 1 1
2759 887 2 0 -10.303839457316888 -3.2085195819644867 -9.006077730726076 1 0 0
1593 498 4 0 -8.733852528973141 -1.9613735515313377 -9.081174759488501 0 0 1
1592 498 2 0 -8.549010775754835 -1.6774664344346806 -9.37387794243668 0 0 1
2394 765 4 0 -8.807412367758674 -2.1609928540313277 -8.746828404101452 0 0 1
2393 765 2 0 -9.068264441476469 -2.5180485089058675 -8.719028752022007 0 0 1
1594 498 4 0 -8.338852473565872 -1.3930528036049619 -9.684494637086507 0 0 1
724 208 4 0 -8.30202048525798 -0.16512455105283563 -9.946753758385332 0 -1 1
722 208 2 0 -8.243234222877303 -0.6282073625696052 -9.934184554891281 0 -1 1
723 208 4 0 -8.177482930974545 -1.0849394289493268 -9.909193567406088 0 -1 1
2194 698 4 0 -10.3952575797792 -3.8338620578930427 -1.7161075985706897 1 0 0
96 20 1 0 -4.856459900391937 -0.3498422144453127 -10.273209465934755 0 0 1
97 20 3 0 -4.5466747877569365 -0.7021062726038039 -10.3228403322712 0 0 1
543 148 4 0 -9.721374712894328 -9.639532003406577 -8.644614010947953 0 0 0
542 148 2 0 -9.440168528977539 -9.98550701470021 -8.590602743507958 0 0 0
544 148 4 0 -9.175139177758613 -10.31131389306035 -8.537305898882506 0 0 0
2974 958 4 0 -10.052625851706992 -9.510623193790334 -8.53024730108029 0 1 1
2972 958 2 0 -10.27959869166844 -9.21864173951741 -8.275229604645792 0 1 1
152 31 3 0 -8.791687508047904 -10.343781073744003 -8.423606973419034 1 0 0
2496 799 4 0 -3.1105909111667738 -9.918653635929136 -8.552116193723341 1 1 0
2271 724 4 0 -2.86315303730044 -10.03203912931535 -8.251073105950264 0 0 1
2270 724 2 0 -2.4356013599280453 -10.143493391166743 -8.1752362203887 0 0 1
2272 724 4 0 -1.9857120965779405 -10.250811199122593 -8.10159010033604 0 0 1
458 120 2 0 -0.4998517951638896 -9.707693544466201 -9.006140963224885 0 0 0
460 120 4 0 -0.7105990012485282 -9.493938012834024 -8.676640657971117 0 0 0
2523 808 4 0 -0.610929183025819 -9.140963182398925 -8.533270853440278 0 1 0
913 271 4 0 -10.354525227556195 -7.823482407895792 -7.6195875744788655 0 0 1
911 271 2 0 -10.404265954927366 -8.181920255393488 -7.889502501236645 0 0 1
630 177 4 0 -7.780445975328138 -8.574848844506704 -7.574733072825498 1 0 1
855 252 4 0 -2.8252107620026057 -8.2212468727833 -8.555302771914983 0 0 1
854 252 2 0 -2.5451463688850144 -8.303088288373843 -8.234280205513036 0 0 1
856 252 4 0 -2.258643489737048 -8.392083598181312 -7.912948717177264 0 0 1
1723 541 4 0 -2.3138001358595828 -8.019331350032305 -7.69427538879713 1 0 1
2522 808 2 0 -0.6065858892313531 -8.768520821462701 -8.26095356305665 0 1 0
2524 808 4 0 -0.6030094837859384 -8.396069948321731 -7.991821853288803 0 1 0
1008 303 4 0 -0.8347491006490665 -8.084442252517636 -7.833004750333096 0 1 0
700 200 4 0 -7.962000077553863 -6.87278503574872 -8.562027427420295 0 1 0
3004 968 4 0 -8.1087398990581 -7.207970915762788 -8.69705074684368 1 1 1
698 200 2 0 -8.21520751544547 -6.534819193257232 -8.392653348932454 0 1 0
699 200 4 0 -8.465190887664729 -6.205899562075444 -8.231181175469505 0 1 0
1393 431 4 0 -8.814863863970855 -6.281182017889401 -8.027008957266714 0 0 1
1093 331 4 0 -10.183794036894119 -5.386171571017611 -8.976163934742326 0 1 0
1091 331 2 0 -10.151405977859804 -5.086687181532116 -8.64457746360761 0 1 0
1391 431 2 0 -8.958548989590298 -5.854280804264924 -7.849690218466268 0 0 1
1392 431 4 0 -9.090900716699801 -5.470178677039933 -7.678601518123889 0 0 1
1092 331 4 0 -10.123367328233067 -4.764257998238509 -8.31333327995407 0 1 0
2916 939 4 0 -9.31456769612363 -5.304099658065901 -7.373978404662382 1 0 1
67 14 3 0 -10.25403120909669 -4.430960854651871 -8.180441948824846 0 0 0
1318 406 4 0 -0.3556717618186152 -1.0889175847307568 -1.4347952047710095 0 0 1
1317 406 4 0 -0.2199996226796451 -1.0297156200176913 -0.5204615943874386 0 0 1
1784 562 2 0 -9.589010755940986 -3.116732405747772 -7.929642921161285 0 0 0
1785 562 4 0 -9.513545877146175 -3.0608515839230197 -8.360388244304866 0 0 0
1786 562 4 0 -9.671228000360683 -3.175864365384397 -7.502628212184424 0 0 0
2395 765 4 0 -9.334942985863838 -2.8853310135080235 -8.695187318263741 0 0 1
1930 610 4 0 -9.971421813721468 -2.9710696230293836 -7.324063675859274 0 0 1
1471 457 4 0 -1.6617730326438416 -1.4649647120058258 -8.320608034527508 0 1 1
1469 457 2 0 -1.313170649743262 -1.7996834399264445 -8.368132708905964 0 1 1
1470 457 4 0 -0.9838178371924889 -2.1100524490216275 -8.419718391984718 0 1 1
1571 491 2 0 -0.42534170192865034 -2.2553327271489656 -7.928097834719769 0 1 1
1573 491 4 0 -0.7897838495378396 -2.034907239597431 -8.05014050843132 0 1 1
1546 482 4 0 -0.11520626484000715 -1.0209227997765786 -0.13663732479878746 0 0 0
706 202 4 0 -8.116725642678242 -0.14981247166747608 -7.711551744223228 -1 -1 1
2192 698 2 0 -10.377391508870005 -3.7581789196294357 -2.1713388551607506 1 0 0
2851 917 4 0 -10.180540511191047 -4.291848765474907 -4.043932372233561 0 0 0
2953 951 4 0 -2.3865499311365026 -1.4416716665694616 -7.296250381682765 0 0 1
2952 951 4 0 -1.6967407472322205 -1.484386275365042 -7.923399470273917 0 0 1
2951 951 2 0 -2.0413460547687787 -1.465908426642794 -7.610870938838478 0 0 1
1238 380 2 0 -4.125520472105855 -9.742734406294362 -6.786079229198864 0 1 0
1240 380 4 0 -4.0818082653858445 -9.323814392798434 -6.702855197678918 0 1 0
2554 818 4 0 -3.6918510094061934 -9.192799190771689 -6.760038113049012 0 1 0
1239 380 4 0 -4.1709529681914725 -10.179634313999484 -6.863734413848392 0 1 0
2255 719 2 0 -9.214133219642456 -8.088507532274596 -6.771386072606903 1 0 1
2256 719 4 0 -9.572767413536925 -8.015979917219243 -6.496700085449355 1 0 1
125 25 3 0 -9.953865277361048 -7.901510047429098 -6.417028201332247 1 0 0
2257 719 4 0 -8.825234332624674 -8.160615094347266 -7.0624694260008045 1 0 1
631 177 4 0 -8.411778473595726 -8.069825307602606 -7.154319609882737 1 0 1
629 177 2 0 -8.08761964097482 -8.335127844267618 -7.365536136104475 1 0 1
2552 818 2 0 -3.5680217666821665 -8.7834114276235 -6.84514823088507 0 1 0
763 221 4 0 -3.620570442165174 -7.324167195138389 -6.228344660710923 0 1 0
762 221 4 0 -3.3487727491464727 -8.15639482373552 -6.582393665565346 0 1 0
2553 818 4 0 -3.4350288859157776 -8.33554658887195 -6.941009084605659 0 1 0
761 221 2 0 -3.4706416876600206 -7.755392731726139 -6.417078237699973 0 1 0
1861 587 4 0 -3.9728753052534618 -7.43027490729801 -6.076934824551365 1 0 0
1790 564 2 0 -1.7157075443469278 -8.661683621449496 -6.464220410693983 1 0 0
1792 564 4 0 -1.5811748839653432 -8.48955704126383 -6.855861865766556 1 0 0
1721 541 2 0 -2.149110092395175 -7.777360472739383 -7.361418566832496 1 0 1
1722 541 4 0 -1.971558582725657 -7.536717336280767 -7.002261112301987 1 0 1
1009 303 4 0 -1.333322071916289 -8.26052669638288 -7.112884272623406 0 1 0
1007 303 2 0 -1.0807342404058793 -8.17299656608298 -7.46939280524191 0 1 0
844 248 4 0 -10.107223592950717 -7.633468754405707 -7.361079788972229 0 0 0
842 248 2 0 -10.12189861638638 -7.178602344407145 -7.239211272119462 0 0 0
843 248 4 0 -10.132921158519341 -6.735313377208507 -7.111485602758021 0 0 0
1143 348 4 0 -10.118480951775574 -6.410549822784512 -7.300171441026414 0 0 0
1142 348 2 0 -10.260314505310596 -6.034219095022127 -7.039449934820562 0 0 0
1860 587 4 0 -4.797894857565075 -7.099535537181382 -5.94713776548469 1 0 0
1859 587 2 0 -4.377853571439972 -7.268680209618207 -6.009306994164665 1 0 0
2592 831 4 0 -1.7411169118872345 -7.24915046018161 -6.809912258849624 0 1 0
2591 831 2 0 -1.6921474370168956 -7.029706572734575 -6.43284449277472 0 1 0
1714 538 4 0 -1.6367376679561045 -6.419453548197153 -6.069616753912746 0 0 0
2593 831 4 0 -1.6468690177131882 -6.817108190617419 -6.061339265904832 0 1 0
2718 873 4 0 -9.319804650074383 -4.473126851250228 -6.589231438349935 1 0 0
2915 939 2 0 -9.240832065572315 -4.89433146562913 -7.171879110804333 1 0 1
2917 939 4 0 -9.165933007609377 -4.493794997645391 -6.975724997025713 1 0 1
2717 873 2 0 -9.125179126576505 -4.538201710383198 -6.172174780132625 1 0 0
2929 943 4 0 -5.2326048820938995 -3.292987022922034 -6.837501392878672 0 0 0
2927 943 2 0 -4.968696631189381 -2.913955551201323 -6.942919924077055 0 0 0
2928 943 4 0 -4.732539701285586 -2.5873207183310454 -7.029548005060658 0 0 0
1929 610 4 0 -10.357002078893334 -2.3916567566278024 -6.755071750898297 0 0 1
1928 610 2 0 -10.16249923119925 -2.6824146465735037 -7.031351203043499 0 0 1
3024 975 4 0 -4.337064190898145 -2.6611205152393853 -7.056255696858142 0 0 1
2516 806 2 0 -3.0724152996383824 -1.6447225343355052 -7.1443431270498285 0 0 0
3023 975 2 0 -3.9844952276186625 -2.425327335105376 -6.923376726696195 0 0 1
2518 806 4 0 -3.3462037694444713 -1.9494361193542709 -6.955838297324155 0 0 0
3025 975 4 0 -3.6214606260847635 -2.1809585351118237 -6.7867526485482 0 0 1
2517 806 4 0 -2.7932126613090165 -1.3442718896366874 -7.324905622938446 0 0 0
622 174 4 0 -10.00200595708199 -0.7234290582508042 -6.578681143517853 0 0 1
2872 924 4 0 -9.633093126956874 -0.7580424210556215 -6.466690930371176 1 0 0
2870 924 2 0 -9.31477927884237 -0.6306732370996558 -6.140048102768267 1 0 0
620 174 2 0 -10.251965188915626 -0.5430917828316048 -6.903729919234207 0 0 1
2871 924 4 0 -9.019557050571088 -0.5115597665385538 -5.827487525764909 1 0 0
1316 406 2 0 -0.2902146484966582 -1.055907241041295 -0.9835217991859112 0 0 1
927 276 4 0 -3.7516421792698607 -0.5739241620424689 -6.404476805153746 0 0 0
1969 623 4 0 -4.005978743401899 -0.42224360512294457 -6.078515067588429 0 0 0
926 276 2 0 -3.341904157531936 -0.6700202842480989 -6.210994395893563 0 0 0
1460 454 2 0 -1.3299136565985195 -0.3445264471797646 -7.1106229593905095 0 0 0
1462 454 4 0 -1.1980156105293494 -0.6403698629950074 -6.797311375359776 0 0 0
1652 518 2 0 -0.7604242362310852 -0.8408220825667464 -6.2829926995089584 0 2 0
1653 518 4 0 -0.839295100691611 -0.6438506394596242 -6.657701165259109 0 2 0
1654 518 4 0 -0.6892241630779306 -1.0455020914305218 -5.91088454825538 0 2 0
719 207 2 0 -10.283639292088486 -9.619516767060565 -4.507625231493474 0 0 1
720 207 4 0 -10.005811532037312 -9.37849408070846 -4.828318943507013 0 0 1
1836 579 4 0 -10.184685649455698 -9.131251529472637 -5.0826164419546735 1 1 0
1837 579 4 0 -10.256606548359189 -8.35178202372692 -5.508385361991634 1 1 0
1835 579 2 0 -10.220002088166977 -8.724497048310859 -5.303771885828828 1 1 0
1791 564 4 0 -1.867232142501247 -8.82773679837968 -6.056274558047555 1 0 0
2821 907 4 0 -1.9201539759661754 -9.036841766319915 -5.7036860394278355 0 0 0
2819 907 2 0 -1.918832517307277 -8.85586461473234 -5.312342990484235 0 0 0
2820 907 4 0 -1.9050070766061868 -8.670867539621 -4.907951389324782 0 0 0
2322 741 4 0 -1.747715997669024 -8.874997578697707 -4.59898112875723 0 0 1
447 116 4 0 -7.599588404341988 -5.790219774730484 -4.159122760393322 0 0 0
1198 366 4 0 -6.2015580515701005 -6.742897353775849 -5.410995752800361 1 1 0
1196 366 2 0 -6.496431967152429 -6.637567759028999 -5.109033803255405 1 1 0
1197 366 4 0 -6.8017863174535975 -6.535219391271374 -4.807857276032201 1 1 0
2671 857 4 0 -6.898815423554299 -6.666638127949004 -4.443314518276836 1 1 0
1284 395 4 0 -5.119533563200458 -6.854145827652099 -5.89197291584363 0 0 0
1283 395 2 0 -5.533749863194426 -6.952143922090038 -5.7159155932398305 0 0 0
1285 395 4 0 -5.951670536706721 -7.034795020267968 -5.536811021521814 0 0 0
1712 538 2 0 -1.4156634186578392 -6.057986496636913 -5.8621765184494325 0 0 0
2719 873 4 0 -8.92732899828947 -4.598087005647856 -5.768460172035062 1 0 0
2099 667 2 0 -8.470658645136375 -4.910677142341369 -5.300274982774356 1 0 0
2101 667 4 0 -8.380286091313003 -5.203577669850925 -4.985672691040927 1 0 0
448 116 4 0 -8.0576138269041 -5.2873343104787525 -4.765939882873408 0 0 0
446 116 2 0 -7.822013732723779 -5.53953440600599 -4.461256483074494 0 0 0
2100 667 4 0 -8.564573284462822 -4.612557802878226 -5.629673254518481 1 0 0
415 105 4 0 -1.2262522891672156 -5.342693007393123 -5.738269847399507 0 0 0
1713 538 4 0 -1.2299103574649908 -5.744893229156359 -5.680272664442831 0 0 0
413 105 2 0 -1.0658316981473828 -4.9771635756388966 -5.577513717571266 0 0 0
414 105 4 0 -0.8932316101059461 -4.600933647010418 -5.415802082718811 0 0 0
2448 783 4 0 -1.83114390458147 -2.807080259536809 -4.958500324047593 0 0 0
1332 411 4 0 -0.681496131363397 -4.285923579852944 -5.311403633641309 0 0 1
1331 411 2 0 -0.7415747184204343 -3.852966117348592 -5.434466483518347 0 0 1
1333 411 4 0 -0.8063752646247877 -3.459535402222114 -5.553224067708456 0 0 1
148 30 3 0 -0.7958993124680186 -3.1081831522771246 -5.337323505925866 0 0 0
2238 713 4 0 -0.5791915532684144 -3.23736642691193 -4.591799350960928 0 0 1
417 106 4 0 -10.245802572611385 -1.8376960216330414 -5.173550767623887 0 0 0
2447 783 2 0 -2.146237481686718 -2.8307987542276387 -4.642303367754492 0 0 0
150 30 3 0 -0.8441615292479894 -2.9167375380995533 -4.597776511979787 0 0 0
147 30 3 0 -1.452288372646552 -2.968334058601742 -4.998548681393125 0 0 0
146 30 1 0 -1.031246733836536 -2.846659588794877 -5.014005324553932 0 0 0
1838 580 2 0 -0.7514916377263051 -1.7188728014792158 -5.50259557228215 0 0 0
1839 580 4 0 -0.8405055148544197 -2.0184894831274334 -5.1494049679943705 0 0 0
149 30 3 0 -0.998291916194863 -2.3892970198001553 -5.127539291977263 0 0 0
433 111 4 0 -9.071897049757407 -0.11749364550514747 -5.795636656187353 0 0 0
3069 990 4 0 -5.960100211709918 -0.812709946836573 -5.374009667233421 1 0 0
2655 852 4 0 -6.258041868747816 -0.964352696595723 -5.118669409657979 0 0 0
2654 852 2 0 -6.241761774461067 -1.327012445845957 -4.815440688174841 0 0 0
1968 623 4 0 -4.8557354819114975 -0.7233303071300664 -6.006698756498702 0 0 0
3068 990 2 0 -5.582378307323608 -0.8584383749317898 -5.594716414140008 1 0 0
3070 990 4 0 -5.169209920922537 -0.9091644142846776 -5.847197107800475 1 0 0
1967 623 2 0 -4.429458282302399 -0.5760257242211804 -6.043215613710136 0 0 0
928 276 4 0 -2.9522749365275907 -0.7597843738320985 -6.027379147932689 0 0 0
2170 690 4 0 -2.8524203647049062 -0.5386926454770666 -5.725001297272706 0 0 0
2168 690 2 0 -2.6330130401449234 -0.6536062673798924 -5.3586448098322865 0 0 0
2169 690 4 0 -2.3857654935919888 -0.7734655268095104 -4.972009216142125 0 0 0
2164 688 4 0 -2.227431151600843 -1.0276604753482714 -4.742089863928606 0 0 1
1840 580 4 0 -0.6666957591460975 -1.4293156363247261 -5.840079626790669 0 0 0
1411 437 4 0 -8.873408932533202 -10.325125134432199 -3.8444694453844543 0 0 0
1229 377 2 0 -8.723080488514043 -10.398888720354575 -3.091810250251958 1 1 0
1230 377 4 0 -8.69355779298199 -10.200308921282614 -3.504704864660388 1 1 0
2321 741 2 0 -1.4631974874353157 -8.963017092854267 -4.275350495949581 0 0 1
2323 741 4 0 -1.1663716945196636 -9.054399839121409 -3.943838520714307 0 0 1
850 250 4 0 -1.0257175667183698 -9.411655376210145 -3.8118914465781786 0 0 0
848 250 2 0 -0.9349118515361193 -9.858976251344641 -3.7579303613250734 0 0 0
849 250 4 0 -0.8389818214073306 -10.296957377814508 -3.70925330508348 0 0 0
2609 837 2 0 -4.969134674189543 -7.346779982439061 -3.6863162605007362 1 1 0
2610 837 4 0 -5.393698502184181 -7.235059100643653 -3.673294863563245 1 1 0
1527 476 4 0 -4.140255193692958 -7.394911194101104 -3.717264612783978 0 1 0
1526 476 2 0 -3.7174054230331284 -7.468805304263452 -3.5616987720702986 0 1 0
1528 476 4 0 -3.280936947804623 -7.537535178309962 -3.417164967192144 0 1 0
2619 840 4 0 -2.8773018113450672 -7.558645651456849 -3.379266756302425 0 1 0
2670 857 4 0 -7.595543181552007 -6.189024868442555 -4.105486585079561 1 1 0
2669 857 2 0 -7.2447079096007405 -6.420330584863955 -4.2749507898211485 1 1 0
2611 837 4 0 -4.539709795855494 -7.462672497284957 -3.6923915176828537 1 1 0
1590 497 4 0 -5.713818969746323 -7.417002988402269 -3.4886622808849044 1 1 0
2618 840 2 0 -2.4578892610116267 -7.3906628726856685 -3.43139000916234 0 1 0
2620 840 4 0 -2.0250898147904834 -7.206917603186787 -3.4901372250126004 0 1 0
1014 305 4 0 -1.8259672647959873 -6.8605814979857795 -3.5410866518992736 -1 0 0
2809 903 4 0 -10.272188384299588 -3.93499528947542 -2.9493335710529736 0 0 0
2807 903 2 0 -10.104695726510888 -4.129005786530747 -3.3309944111325804 0 0 0
2808 903 4 0 -9.937922796865948 -4.346056330377993 -3.7328304854509016 0 0 0
2237 713 2 0 -0.47951974548669485 -3.299407104873489 -4.150180807860797 0 0 1
2239 713 4 0 -0.3764959238909842 -3.357698630941452 -3.724353583449887 0 0 1
1342 414 4 0 -0.6819265344192514 -3.3814739575121453 -3.4622382277318358 0 0 0
1340 414 2 0 -0.9315709606348875 -3.1655391979456393 -3.142636195023713 0 0 0
1847 583 2 0 -10.309990732681467 -2.219315916453592 -4.529754339691295 1 0 0
2486 796 2 0 -4.104277940090555 -0.4209078350002229 -1.586780786356877 1 0 0
1899 600 4 0 -8.94238556016747 -2.1768979999047584 -3.1261200927438417 0 0 0
1214 372 2 0 -9.042691305481254 -1.444177788764534 -3.4531340783531594 0 1 0
1216 372 4 0 -8.975768628484868 -1.8456088015388283 -3.271186865684259 0 1 0
1898 600 2 0 -8.632375855432986 -2.399618824251353 -2.904077996901882 0 0 0
2656 852 4 0 -6.230348584658109 -1.6820401731980856 -4.51965269805284 0 0 0
967 289 4 0 -6.137326760950743 -2.050414200408075 -4.405818203739126 0 0 0
965 289 2 0 -5.725726707719851 -2.1357044488549497 -4.215323355531819 0 0 0
966 289 4 0 -5.300537583585432 -2.2123378799255695 -4.037782048246358 0 0 0
500 134 2 0 -4.6002727547847515 -1.9001470534981992 -3.9189368897334034 0 0 0
502 134 4 0 -4.926902317347866 -2.072759808463781 -4.1697692806458715 0 0 0
501 134 4 0 -4.265943192052942 -1.7152914264731403 -3.6619506398067667 0 0 0
702 201 4 0 -3.054060459505697 -1.38787033861215 -3.7713556573577387 -1 0 1
701 201 2 0 -3.4858185266706743 -1.5770244795856598 -3.6648335092808293 -1 0 1
703 201 4 0 -3.8808530884905057 -1.7479198224219716 -3.569287223599957 -1 0 1
2449 783 4 0 -2.4572730483907823 -2.8429163936203445 -4.322134602022679 0 0 0
1618 506 4 0 -2.5847492425001755 -2.507285946367364 -4.135298777588415 -1 0 1
1616 506 2 0 -2.62731914959512 -2.3108892495002107 -3.732542528877282 -1 0 1
1617 506 4 0 -2.6652465986199054 -2.10967293902773 -3.322710473499736 -1 0 1
13 3 3 0 -2.817223603060165 -1.9952033300653353 -2.9861341770516936 0 0 0
187 38 3 0 -9.287531788551584 -0.2732904593445422 -3.010152779829997 1 0 0
189 38 3 0 -8.975423778898127 -0.6450995980721859 -3.603374185908953 1 0 0
186 38 1 0 -8.907887567198351 -0.2964527369996816 -3.308642558567412 1 0 0
416 106 2 0 -10.334189914948182 -1.4634564179003586 -5.367544613700152 0 0 0
1215 372 4 0 -9.102411372532302 -1.0252004517189262 -3.6442961251592987 0 1 0
188 38 3 0 -8.52809375042931 -0.3751793369195871 -3.069000666846537 1 0 0
2163 688 4 0 -2.8117516086559315 -1.3588911735483358 -4.105367785305884 0 0 1
2162 688 2 0 -2.521385114485177 -1.1951594532748009 -4.420334757853455 0 0 1
1855 585 4 0 -9.136410078714214 -10.105199757986282 -1.546363837335567 1 0 -1
1853 585 2 0 -9.035259428065132 -10.2151175230447 -1.9533568701987405 1 0 -1
1848 583 4 0 -10.124776541550016 -1.9860291699556636 -4.820452423176286 1 0 0
1591 497 4 0 -6.18568787444225 -7.660856174153428 -2.804214648980908 1 1 0
2965 955 4 0 -6.149120192088504 -7.7139802334002265 -2.3920213748481016 0 1 0
2963 955 2 0 -6.282061892824206 -7.855565245175804 -1.9730576310428964 0 1 0
1589 497 2 0 -5.944739699381498 -7.535903222161149 -3.155044056554361 1 1 0
2964 955 4 0 -6.404637963177698 -7.998480421359409 -1.5647637327363753 0 1 0
1013 305 2 0 -1.8170098538225123 -6.558188138623989 -3.193427027022768 -1 0 0
1015 305 4 0 -1.8061294299386779 -6.245770073840613 -2.8510887246717447 -1 0 0
462 121 4 0 -2.063861555383797 -6.016963318652361 -2.6751093420906797 0 0 0
2967 956 4 0 -1.0037742394543485 -5.957035343118188 -1.6633786560285901 0 0 1
2290 730 4 0 -7.59212801589778 -4.905432907936868 -2.1529544005357226 1 0 0
2288 730 2 0 -7.855485024310021 -4.687714304670732 -2.4475461843609083 1 0 0
2422 774 4 0 -7.60186857923306 -4.8055141281636775 -1.747844055837931 0 0 0
461 121 2 0 -2.196811693692444 -5.761144571661844 -2.327254020832127 0 0 0
1511 471 2 0 -2.650831923957313 -5.034196953945443 -1.5441907513865338 0 0 1
1512 471 4 0 -2.369405590730916 -5.381178533181206 -1.58516534100016 0 0 1
463 121 4 0 -2.330788506949579 -5.50214129150866 -1.9807888549307082 0 0 0
2846 916 2 0 -1.4531133543650252 -4.517987851682696 -1.5066307385585933 0 1 1
2193 698 4 0 -10.35479225620263 -3.6858960932451192 -2.6130052438929288 1 0 0
1998 633 4 0 -9.115462781160895 -3.268597181141209 -2.2762219356309017 1 0 0
528 143 4 0 -8.820114364433309 -3.4681852446094976 -2.4287877234832664 0 0 0
1900 600 4 0 -8.322092643145634 -2.630976925360355 -2.6744049716673666 0 0 0
527 143 2 0 -8.614681723469502 -3.8827246557182953 -2.4887308638808334 0 0 0
24 5 3 0 -8.120990520064792 -2.968125557079247 -2.6469404856398944 0 0 0
529 143 4 0 -8.430216698012616 -4.268373699457157 -2.5492569850187445 0 0 0
22 5 3 0 -7.6231624668075035 -3.3145103125577347 -2.2712481862254976 0 0 0
21 5 1 0 -7.782166419541245 -2.909286434666296 -2.404383231821163 0 0 0
2289 730 4 0 -8.103077833458027 -4.478208909756454 -2.730325869404329 1 0 0
23 5 3 0 -7.467780424661698 -2.6981781192177 -2.6369422269513914 0 0 0
2246 716 2 0 -3.1315392336863344 -3.9207504125083017 -1.5676074223705718 0 0 0
642 181 4 0 -3.2026049852797396 -3.313475524685201 -2.148326929005373 0 0 0
2248 716 4 0 -3.204188113685558 -3.470749406623493 -1.7547932312495704 0 0 0
799 233 4 0 -1.721379529726209 -3.7856949958445387 -1.5682076480256106 0 0 0
797 233 2 0 -1.522871442907395 -3.4104748970165923 -1.4486523737163792 0 0 0
798 233 4 0 -1.3218250018029762 -3.036908378520123 -1.3282302409064337 0 0 0
2848 916 4 0 -1.629038351136807 -4.163084097277703 -1.6554187332328871 0 1 1
1999 633 4 0 -9.721739462019254 -2.6301450163636932 -2.3680533013122473 1 0 0
1997 633 2 0 -9.418767320519203 -2.9401910462923087 -2.327430988095588 1 0 0
25 5 3 0 -7.880824209429456 -2.675546045665583 -2.066426639755352 0 0 0
2628 843 4 0 -7.836045239185304 -2.4292135775855352 -1.7664544757505616 1 1 0
2627 843 2 0 -8.00713338767638 -2.178196193882085 -1.4604374439149599 1 1 0
641 181 2 0 -3.0433853088743685 -2.900323208486476 -2.1602461758032194 0 0 0
643 181 4 0 -2.8803702952333414 -2.459243368400452 -2.1606689943914623 0 0 0
14 3 3 0 -2.5541242590817155 -2.447659113269518 -2.4133472540135914 0 0 0
12 3 3 0 -2.160488076909652 -1.8445172026212335 -2.655681380370005 0 0 0
11 3 1 0 -2.5794108874678243 -2.005696025468908 -2.5797731859622672 0 0 0
1482 461 4 0 -1.7697756550952075 -1.9542652066338226 -2.645131062135518 0 0 1
15 3 3 0 -2.8000872414029705 -1.7304391958197705 -2.265754650461166 0 0 0
1483 461 4 0 -1.2083646124406253 -2.574782829739721 -2.9494642534223394 0 0 1
1481 461 2 0 -1.494280125639673 -2.2620398261675767 -2.802680788089275 0 0 1
1341 414 4 0 -1.1701532387016276 -2.960220132393084 -2.844297466833112 0 0 0
2791 897 4 0 -0.1826590888659775 -2.637141163525594 -1.66696856012358 0 1 0
1272 391 4 0 -9.005761687638905 -1.0201771778557 -1.6075550472113422 0 1 0
2126 676 2 0 -8.742118510002747 -0.6957542018227498 -2.2791707687312854 1 0 1
2127 676 4 0 -8.874670685642245 -0.7564824399103333 -1.8495400633110712 1 0 1
2128 676 4 0 -8.602680477175815 -0.6250324662117208 -2.719748821332776 1 0 1
1271 391 2 0 -8.756922250152845 -1.3153896378665775 -1.371395494161679 0 1 0
1813 571 4 0 -2.5393529738917793 -1.496754193881098 -2.1078412445024495 0 0 0
1562 488 2 0 -1.7917030494245545 -0.14582111216093793 -1.5815159867524888 0 0 0
1564 488 4 0 -1.7243003161475963 -0.512026652297991 -1.8437721506702398 0 0 0
1812 571 4 0 -1.9476010009166302 -0.81219249098885 -1.9631739719006853 0 0 0
1811 571 2 0 -2.239162542695713 -1.1465344005293894 -2.031941863439411 0 0 0
951 284 4 0 -0.7424801573450265 -0.22787941666893521 -2.1973856703068257 0 1 -1
952 284 4 0 -0.37036015023794094 -0.7047929783896749 -1.5217700711721465 0 1 -1
950 284 2 0 -0.5651467241010802 -0.45527437189096 -1.8799471171457545 0 1 -1
1638 513 4 0 -9.372130574391317 -9.863537773638443 -1.3558746515939553 0 1 0
1637 513 2 0 -9.519262928627867 -9.529798987362962 -1.0631219703218122 0 1 0
1639 513 4 0 -9.658570277561926 -9.192999806825704 -0.7794187085688036 0 1 0
1412 438 2 0 -6.370895024257733 -9.118640810354247 -0.012768989542079749 0 0 1
1413 438 4 0 -6.06132193065322 -8.941010779055373 -0.27731671107483735 0 0 1
1806 569 4 0 -9.477174051579768 -8.890711801814655 -0.6438371440631437 0 0 0
1805 569 2 0 -9.39618369215088 -8.498234657141682 -0.45373515928497365 0 0 0
1807 569 4 0 -9.309824331189347 -8.106343696841966 -0.25582467500553635 0 0 0
2842 914 4 0 -8.993307952818803 -7.895077480190274 -0.18700619954954023 1 1 1
711 204 4 0 -6.242893990567843 -8.286290828804587 -1.3137781938028708 0 0 1
712 204 4 0 -5.929472248195157 -8.657333924114388 -0.5395208446217806 0 0 1
710 204 2 0 -6.08703096738737 -8.472375565352882 -0.9150701228586821 0 0 1
1771 557 4 0 -2.376981295093252 -7.663798415216078 -0.13965695375125833 0 0 0
2454 785 4 0 -2.222236454230431 -7.623252586670059 -0.5266576849009756 0 0 0
1854 585 4 0 -8.92150294157918 -10.342917951393172 -2.3969946746038766 1 0 -1
3085 995 4 0 -4.492265395140321 -6.9133052486144235 -0.020682522985827435 0 1 0
3083 995 2 0 -4.360670702474086 -6.6429023904533 -0.3797924593620881 0 1 0
1199 367 2 0 -3.485649321226387 -6.7486394738176045 -1.0211357070138427 -1 1 0
1201 367 4 0 -3.9130827721815193 -6.577198303699049 -0.8982317137400007 -1 1 0
3084 995 4 0 -4.238989916194198 -6.407647054334262 -0.7100151595207046 0 1 0
2453 785 2 0 -2.4842572573423523 -7.382175175749808 -0.7772160232445575 0 0 0
1200 367 4 0 -3.076666521129809 -6.92328450161084 -1.1389705405330783 -1 1 0
2455 785 4 0 -2.7641800433886567 -7.137390018617528 -1.0327103153326163 0 0 0
2420 774 2 0 -7.542582544834164 -4.785064443149161 -1.3178311412980643 0 0 0
2421 774 4 0 -7.482968652146172 -4.749292581204791 -0.8456237641221837 0 0 0
1433 445 2 0 -7.583950914075047 -4.907966069112982 -0.20924289191531423 0 1 0
1435 445 4 0 -7.706536336915735 -4.626285886041715 -0.518338825911308 0 1 0
1513 471 4 0 -2.947013814927722 -4.6675112237910135 -1.5007183132754573 0 0 1
2847 916 4 0 -1.2661258208601067 -4.891162152104713 -1.3370547664898509 0 1 1
2968 956 4 0 -0.9839339891358345 -5.172969934218806 -1.251795091570289 0 0 1
2966 956 2 0 -0.9932979760640596 -5.5690925590222795 -1.4559543320445165 0 0 1
1103 335 2 0 -10.256955821097453 -3.988832993278605 -1.055540416616001 0 0 0
1104 335 4 0 -9.969832894550592 -4.002573683618048 -0.7258596772170757 0 0 0
717 206 4 0 -9.830638330116297 -3.6472076705978362 -0.5191034297880576 0 0 0
716 206 2 0 -9.614646185286215 -3.259166801655087 -0.38253993086361815 0 0 0
718 206 4 0 -9.416389819891952 -2.9010674452996463 -0.25687083079278294 0 0 0
2247 716 4 0 -3.0742586784170083 -4.309127859847954 -1.4078179278395169 0 0 0
802 234 4 0 -0.3620331722606119 -3.8226687264546957 -0.3739006958141704 -1 1 0
1633 511 4 0 -0.5857700206576659 -3.619633833599344 -0.09900617873709397 0 0 1
800 234 2 0 -0.027245950452795924 -4.011206464836516 -0.6280466954653652 -1 1 0
403 101 4 0 -9.554271352104925 -0.045411307579354424 -2.809192308439102 0 0 0
2557 819 4 0 -9.251442220030567 -2.584925434382903 -0.13132608372435212 1 1 0
2629 843 4 0 -8.201132648345178 -1.910624620781666 -1.1294419200704515 1 1 0
1273 391 4 0 -8.507317739377225 -1.6135563598114877 -1.1239762826719675 0 1 0
727 209 4 0 -3.7541865843476954 -1.8174513727338908 -0.9843782760200932 0 0 0
2789 897 2 0 -0.6351803377624229 -2.733993398550595 -1.609617015590747 0 1 0
2790 897 4 0 -1.0943748303823222 -2.8216277159760286 -1.5522929770868676 0 1 0
1416 439 4 0 -7.310627593677911 -0.00927924896815823 -0.6384061019491817 0 1 0