LAMMPS data file via write_data, version 4 Feb 2025, timestep = 4000, units = lj

64 atoms
4 atom types
48 bonds
1 bond types
56 angles
2 angle types

-2.5 2.5 xlo xhi
-2.5 2.5 ylo yhi
-2.5 2.5 zlo zhi
0 0 0 xy xz yz

Masses

1 1
2 1
3 0.1
4 0.1

Bond Coeffs # harmonic/omp

1 100 0.45

Angle Coeffs # harmonic/omp

1 100 180
2 100 109.471

Atoms # full

6 2 1 0 -2.433819378892747 -2.0639617555370586 -2.491074904326046 -1 -1 2
8 2 3 0 -2.399033766309534 -1.6494786033634243 -2.2656401352976454 -1 -1 2
7 2 3 0 -2.429782035595677 -2.3779976417542663 -2.21002151275807 -1 -1 2
29 6 3 0 -2.1417377439369787 -0.9778734564661284 -1.5128211749297145 3 1 1
26 6 1 0 -2.4583193769767755 -0.6958384771986492 -1.6383398255646198 3 1 1
28 6 3 0 -2.279976918858009 -0.3509299215441568 -1.896648359805212 3 1 1
42 9 4 0 -0.2657020689270202 -1.5810774086618964 0.5914456848786909 -1 -1 0
41 9 2 0 -0.051750991469835306 -1.3951893702899054 0.25566753725124913 -1 -1 0
64 16 4 0 -2.314623173062058 1.3516968333529311 0.3182348393573782 4 1 1
62 16 2 0 -2.290014651956459 1.700711283587875 0.6366354560160814 4 1 1
9 2 3 0 -2.0879294126604835 -2.1120094580169835 2.233101667608069 -1 -1 1
31 7 1 0 -0.6295269992106309 -1.9164440904353868 1.2525054042829842 2 1 0
34 7 3 0 -0.8782789053669147 -1.6962263150827042 1.561049027472114 2 1 0
32 7 3 0 -0.8600474285272597 -2.247210698299329 1.0738876336427676 2 1 0
35 7 3 0 -0.26749304145253117 -2.093368065453024 1.4616783132364919 2 1 0
33 7 3 0 -0.4882121436103217 -1.632395476215548 0.9274809456467086 2 1 0
14 3 3 0 -1.3136887876712087 1.3809964942776025 1.0532021189085183 -2 -3 0
11 3 1 0 -1.457526693323819 1.0042780310596209 1.2884634289850228 -2 -3 0
15 3 3 0 -1.4178528206456378 1.0718218264295265 1.7460782738740823 -2 -3 0
12 3 3 0 -1.867356505520314 0.9364673915930704 1.194619821427576 -2 -3 0
13 3 3 0 -1.2154239084402463 0.6424778627111061 1.1657919809674788 -2 -3 0
63 16 4 0 -2.2665482012514424 2.0288302279769033 0.9289916788004238 4 1 1
20 4 3 0 -2.421410714065878 2.3493115270129863 1.1311823263659937 3 0 0
51 12 4 0 -1.0875566127765948 1.5921809513441367 1.3573621469921626 1 -1 0
52 12 4 0 -0.8184908399820212 2.4553099315205174 1.3749443076599577 1 -1 0
50 12 2 0 -0.9520758760567256 2.0054015202699187 1.3685623086336651 1 -1 0
47 11 2 0 0.5349378695085965 -2.403867769884151 -1.2646844645420716 1 1 1
49 11 4 0 0.5871878105678379 -1.9652716584633216 -1.2181472180378994 1 1 1
59 15 2 0 1.7620386705761018 -1.0105480178325656 -0.8942907523066879 1 0 2
61 15 4 0 2.0647198990474553 -0.8455203969677472 -1.1682598711368262 1 0 2
27 6 3 0 2.346856615297554 -0.5171146146397887 -1.2556422749596108 2 1 1
30 6 3 0 2.230545377530188 -0.9122006409502057 -1.873741263437119 2 1 1
58 14 4 0 0.9996604054641356 1.2407958626591054 -1.3740372016250317 1 -1 1
25 5 3 0 1.0584614841811462 1.361698780855206 -1.7536500009680756 2 0 0
56 14 2 0 1.2908848911466562 1.2170093161486584 -1.0112519317267343 1 -1 1
48 11 4 0 0.47081230023634735 2.1398255028672413 -1.3039508821054773 1 0 1
22 5 3 0 0.6259691712932414 1.9571394081235738 -1.6454991982086276 2 0 0
21 5 1 0 0.8894560668610918 1.7557420266314407 -1.9368343331885671 2 0 0
23 5 3 0 0.6616901409910825 1.667943118441226 -2.2979080772897356 2 0 0
24 5 3 0 1.2279769327316759 2.021296833575014 -2.0424619624457416 2 0 0
45 10 4 0 1.3901898598718754 1.9230820518102254 -2.3805890708760593 2 1 1
1 1 1 0 0.7653119570041285 -1.6485419323930297 -0.46799090578838687 1 1 0
2 1 3 0 0.9306067848823529 -1.9058112908419589 -0.15918593198870967 1 1 0
4 1 3 0 0.6454092434688419 -1.89429560996787 -0.8239310602321293 1 1 0
55 13 4 0 1.2825511324151218 -1.9713315279191344 0.06745059426188238 2 1 1
53 13 2 0 1.416126594679867 -2.116671645905076 0.4859237876822142 2 1 1
5 1 3 0 0.40038553307986113 -1.4397542157810217 -0.2916795191214927 1 1 0
3 1 3 0 1.071513476782247 -1.3365488889139452 -0.5932605522874601 1 1 0
43 9 4 0 0.16608912782644714 -1.20071423979182 -0.072050139773288 -1 -1 0
60 15 4 0 1.4376007005406564 -1.1989451988211304 -0.6154838232234567 1 0 2
36 8 1 0 1.900855297908672 1.2597621261740022 0.021433977059698073 1 -1 1
38 8 3 0 1.688739579039101 1.0092641917466665 0.35037743944899846 1 -1 1
57 14 4 0 1.5748672526473442 1.1967135062623124 -0.6637048138937205 1 -1 1
39 8 3 0 1.8302108847884089 1.0795649669413288 -0.34713241932396954 1 -1 1
40 8 3 0 2.34741999823812 1.2720025206573027 0.10242356593498991 1 -1 1
37 8 3 0 1.743162958909208 1.6897607274634723 0.017907341765761586 1 -1 1
19 4 3 0 2.3020822883951126 -2.3783448848431132 1.7521123589474765 2 1 0
54 13 4 0 1.543148102447124 -2.2543754620313856 0.9017662353096361 2 1 1
10 2 3 0 2.1696533598657712 -2.082669890648848 2.2635627073189273 -2 -1 1
18 4 3 0 1.867676244553735 -2.413979763738786 1.1284726755587204 2 1 0
16 4 1 0 2.209845209064926 2.3785212661125996 1.3726471431124132 2 0 0
46 10 4 0 1.9040401457319964 2.004891909809176 1.861657103383207 2 1 0
44 10 2 0 1.6632859902953223 1.9640647546294492 2.2297705583412917 2 1 0
17 4 3 0 2.0724770200223777 1.939529065113275 1.4870689290808157 2 0 0

Velocities

6 0.10163370989223647 0.23146969744507787 -0.08219344756347235
8 0.4417554912689403 -0.15205044807487275 -0.1489343414196723
7 0.8765721188836462 0.5723728069723751 -0.4424609120693268
29 0.2887398321339281 0.12154300436213436 0.17125194755772907
26 0.02303570891387602 -0.07778085165628393 0.14397653137198999
28 0.03160328721388117 -0.7220197905077274 1.2562141986792439
42 0.7430714589157604 -0.5421322626830058 -0.35817809213880236
41 0.3755672543189195 0.05761957593547597 0.24140643418863006
64 1.3457546956260946 -0.308232332031196 0.4382019534582271
62 0.42159920830641073 0.005315151652794342 0.18638493240022852
9 -1.2610412554149946 -0.9733241346200084 -1.5418217857495355
31 0.34192249843392 0.6349350965046624 -0.3810475735970571
34 1.4315262142353893 1.1485006730309129 -0.26729321597249156
32 1.9545347430071218 -1.4289387180191848 -0.765089801433157
35 0.8290302302389113 0.10911551990033923 -0.06469097381713187
33 0.005099936279491568 -0.6964179088546266 0.28731383241856207
14 -0.15043779409909264 -1.4636986697428642 -0.07799090832815007
11 1.2526646360724019 -0.4545624531474169 -0.0897207061254435
15 1.9190503108576884 1.4080559841795866 0.6541314504856756
12 1.8573207412835109 0.43497797531351284 -0.7900707073913213
13 1.2158070494643334 -0.737483462209628 0.1792750248364833
63 0.9147887073781852 -0.9449171175654479 -0.6445896055145163
20 0.01040370887476838 0.7184532589941606 0.6469645372860324
51 1.096486306630135 -0.5899039799386286 -0.014894537237875113
52 0.9803678875431725 -0.42467290140943054 0.9742956807446863
50 0.5097986926583965 0.04521519902377936 0.026343654721003012
47 0.4714190964603207 0.3396940001461569 -0.05967778054221133
49 0.2308858206621144 -0.07012294852479961 0.6466099931107313
59 0.28414384688963074 -0.12266316410791138 0.3755805144677322
61 1.3206266130623585 -0.23637248409900688 -0.25327761364074025
27 0.48638129732979174 -0.30737935231277164 1.6069816537335455
30 1.0373152671909813 -0.6710499758323217 1.6173674800846487
58 1.217268968891121 -0.7270168501322842 0.849826660632417
25 2.2041499312827657 0.09368384291370835 -0.7253310559779789
56 1.3225861773324787 -0.4897483257001616 0.09197272129118562
48 0.6633449244207283 1.1887950221520005 -0.021345837894294818
22 1.1695647198250199 0.11554624201474342 -0.5381110199523866
21 0.9639737155067091 0.11617358480468519 0.2282801150259698
23 0.702976298235121 1.0035883700687955 0.4445348989544957
24 0.44793593374800156 -0.07622144160311828 0.2816820135842557
45 0.7458846031004889 -0.30246398862361207 0.8008898113900523
1 0.3821092689722949 0.22963415162607712 0.05887165970968729
2 0.35124318080649514 -0.8625832896466998 0.1403135469199012
4 1.3041441629255415 0.3300851577029161 1.5915102607675167
55 -0.8538196045964574 0.31790306761515086 0.34217647933179896
53 0.42656614789362596 0.27149730920206977 0.09821027256557406
5 0.8314408647722925 0.9257732610677051 0.6314280131182953
3 -0.7918927293190458 0.6920407523572382 0.43776864597651166
43 1.1830245340610919 1.0334774355124512 -0.19745873504463152
60 0.04127300241959325 -0.5522703123099831 -0.48513741978621344
36 1.3700790596747094 -0.31875728944233883 -0.4804735396454939
38 2.6728447357461915 -1.1404144558755456 0.460575628033669
57 -0.22436396440558737 -1.3317077503783017 -0.08522410383057231
39 1.5630475019309562 0.14732267980836733 -0.1093310574455349
40 -0.34871531662829636 -0.6505592160151679 -0.4996325150444431
37 0.6056724706959188 0.03201849986832539 -1.4006018856504072
19 0.27341961198349024 0.0842942812505105 -0.03584887197460816
54 -0.9798389745694999 0.17768984438107482 -0.7533938272293857
10 -0.3909669451120801 -0.057289582146318754 -0.9167022164738746
18 0.4547640002545684 0.5017907958958058 -0.8343632277005076
16 0.944932698956771 0.11801138434696022 -0.3328887193558292
46 1.2079717844245894 -0.3828204537745868 -0.18996448892910486
44 1.0968412919551178 -0.02445829192956641 -0.275229908145681
17 0.6827943079467584 -0.4384655894230743 0.27366155797393976

Bonds

1 1 6 7
2 1 6 8
3 1 6 9
4 1 6 10
5 1 26 27
6 1 26 28
7 1 26 29
8 1 26 30
9 1 41 42
10 1 41 43
11 1 62 63
12 1 62 64
13 1 31 32
14 1 31 33
15 1 31 34
16 1 31 35
17 1 11 12
18 1 11 13
19 1 11 14
20 1 11 15
21 1 50 51
22 1 50 52
23 1 47 48
24 1 47 49
25 1 59 60
26 1 59 61
27 1 56 57
28 1 56 58
29 1 21 22
30 1 21 23
31 1 21 24
32 1 21 25
33 1 1 2
34 1 1 3
35 1 1 4
36 1 1 5
37 1 53 54
38 1 53 55
39 1 36 37
40 1 36 38
41 1 36 39
42 1 36 40
43 1 16 17
44 1 16 18
45 1 16 19
46 1 16 20
47 1 44 45
48 1 44 46

Angles

1 2 7 6 8
2 2 7 6 9
3 2 7 6 10
4 2 8 6 9
5 2 8 6 10
6 2 9 6 10
7 2 27 26 28
8 2 27 26 29
9 2 27 26 30
10 2 28 26 29
11 2 28 26 30
12 2 29 26 30
13 1 42 41 43
14 1 63 62 64
15 2 32 31 33
16 2 32 31 34
17 2 32 31 35
18 2 33 31 34
19 2 33 31 35
20 2 34 31 35
21 2 12 11 13
22 2 12 11 14
23 2 12 11 15
24 2 13 11 14
25 2 13 11 15
26 2 14 11 15
27 1 51 50 52
28 1 48 47 49
29 1 60 59 61
30 1 57 56 58
31 2 22 21 23
32 2 22 21 24
33 2 22 21 25
34 2 23 21 24
35 2 23 21 25
36 2 24 21 25
37 2 2 1 3
38 2 2 1 4
39 2 2 1 5
40 2 3 1 4
41 2 3 1 5
42 2 4 1 5
43 1 54 53 55
44 2 37 36 38
45 2 37 36 39
46 2 37 36 40
47 2 38 36 39
48 2 38 36 40
49 2 39 36 40
50 2 17 16 18
51 2 17 16 19
52 2 17 16 20
53 2 18 16 19
54 2 18 16 20
55 2 19 16 20
56 1 45 44 46
