LAMMPS data file via write_data, version 2 Aug 2023, timestep = 9000000, units = lj

15846 atoms
4 atom types
10724 bonds
1 bond types
6322 angles
2 angle types

-16.594292 16.594292 xlo xhi
-16.594292 16.594292 ylo yhi
-16.594292 16.594292 zlo zhi

Masses

1 1
2 1
3 1
4 1

Bond Coeffs # harmonic

1 100 0.5

Angle Coeffs # harmonic

1 100 180
2 100 109.471

Atoms # full

8418 2646 4 0 -16.00093915525888 -15.226319530071333 -15.93621005192377 1 0 1
9618 3046 4 0 -10.88043886707307 -16.222255179336567 -15.962655446920353 0 1 0
9616 3046 2 0 -10.601254432991293 -16.16350695289842 -16.36575015281203 0 1 0
2112 544 4 0 -4.503564775993762 -15.642130565281443 -16.327843287944507 0 0 0
2110 544 2 0 -4.8040935864406125 -15.96607435338441 -16.57161626076391 0 0 0
2236 586 2 0 -3.8236041695110337 -15.6928427976004 -16.13845925763775 0 0 0
2238 586 4 0 -3.4519343493935266 -15.986430766763272 -15.948271711562299 0 0 0
10381 3301 2 0 -3.2873838261411503 -16.29610303558635 -15.092521000671312 0 1 0
10383 3301 4 0 -3.336619952479441 -16.031609676723182 -15.547300169046139 0 1 0
14981 4834 4 0 -3.338166613064221 -16.31923077120064 -15.800866615790035 0 1 1
2237 586 4 0 -4.17501132052962 -15.417288841209905 -16.324062549903175 0 0 0
1355 292 4 0 4.7725087510753985 -1.4112102442180559 -5.939856879090742 0 0 0
2331 617 4 0 0.04419367060028542 -16.16560205949012 -16.262995412638432 0 0 0
8120 2547 4 0 0.12383924528688166 -15.996341581016125 -15.87864995247925 0 0 1
8119 2547 2 0 0.04079676203734989 -15.565257297945687 -15.64214930725858 0 0 1
165 33 3 0 0.041647657608079744 -16.580474271446413 -16.229032823211085 0 0 0
162 33 3 0 0.27504240298666255 -16.176637472797466 -15.562703356263388 0 0 0
2185 569 2 0 1.4438854902743017 -16.411057844706388 -16.043851879310317 0 0 0
1354 292 2 0 4.463972853684331 -1.012831112422739 -5.849577337778741 0 0 0
2186 569 4 0 1.748393723406411 -16.074187176031707 -16.306459484091107 0 0 0
8375 2632 4 0 1.9072943306770855 -15.807820836586195 -16.577198716030303 0 0 1
7749 2423 4 0 7.389102288225502 -16.15105841316739 -15.644343759897042 0 0 1
7747 2423 2 0 7.15064395992067 -16.527699663648654 -15.822188345076285 0 0 1
2940 820 4 0 7.441269384465783 -15.758708368266916 -15.576740017620615 0 0 0
2938 820 2 0 7.6386745066965585 -15.316130217403286 -15.79119324173787 0 0 0
425 85 3 0 7.650612646935232 -16.005413657748882 -15.35431493900428 0 0 1
3070 864 2 0 8.72073140137571 -15.418748865425803 -15.451184162356075 0 0 0
3071 864 4 0 8.562665802647269 -15.783319733498065 -15.198625791928235 0 0 0
422 85 3 0 8.363877811074161 -16.006130277009444 -14.927963179231824 0 0 1
2805 775 4 0 8.678617214726806 -16.144167876016027 -15.147243279083144 0 0 0
8416 2646 2 0 -15.876157065225048 -15.19608257993834 -15.4449862326504 1 0 1
2466 662 4 0 -16.09023081712316 -14.964136906775607 -16.229124593322755 1 0 0
2464 662 2 0 -15.701400490260353 -14.692915009566818 -16.43301369971713 1 0 0
8128 2550 2 0 -15.186879041433174 -13.722253696563959 -16.180038653565443 0 0 1
3067 863 2 0 -4.630632332763349 -14.144994795292364 -15.660827930493634 0 0 0
3068 863 4 0 -4.529919189390398 -14.150490986979788 -15.157036180340226 0 0 0
7016 2179 4 0 -4.669743264322038 -13.96476837124754 -16.509854029888995 0 0 1
3069 863 4 0 -4.740284548412934 -14.143996282710225 -16.17011914566976 0 0 0
7752 2424 4 0 -4.741386132666668 -14.34917753612977 -16.49712808929788 0 0 1
7750 2424 2 0 -4.6068968362861895 -14.842562738077504 -16.54964420018901 0 0 1
2028 516 4 0 -2.281970254996123 -14.018520557907378 -15.75658843477967 0 0 0
3383 968 4 0 -1.9253239639305153 -14.213656607276924 -15.802316756572681 0 0 0
2026 516 2 0 -2.445051769163411 -14.157844046278177 -15.300516846879837 0 0 0
3382 968 2 0 -1.5628545706263854 -14.326872056731835 -16.117632857122953 0 0 0
3384 968 4 0 -1.178051531064492 -14.449205772687643 -16.445225251597794 0 0 0
2787 769 4 0 -0.8037794837164631 -14.455584783446014 -16.302454463400586 0 0 0
2785 769 2 0 -0.5378823940303908 -14.644527578433149 -15.913169345357955 0 0 0
2786 769 4 0 -0.268780396541561 -14.823197689382313 -15.530059237592543 0 0 0
12122 3881 4 0 -15.842131307375618 -0.0668304704902504 -5.791835802297515 0 0 0
8121 2547 4 0 -0.04735180160295756 -15.150638825156268 -15.412014614677378 0 0 1
1907 476 4 0 -0.22262000934471177 -14.89992998971594 -15.13191824994783 0 0 0
2491 671 2 0 7.788635545916455 -13.722405761289158 -15.172559035480537 0 0 0
2939 820 4 0 7.828530464731129 -14.89003084229335 -15.991604823191288 0 0 0
475 95 3 0 8.196949896504032 -14.77005857289588 -16.09157381717807 0 0 1
473 95 3 0 8.825356733243114 -14.28802032360291 -16.355648870648768 0 0 1
471 95 1 0 8.559088723537663 -14.440528698590574 -15.950128949059525 0 0 1
472 95 3 0 8.348263008860334 -14.04594742925695 -15.736667178724908 0 0 1
6714 2078 4 0 8.53294208502914 -13.77966721535972 -15.49854574446959 0 0 1
2493 671 4 0 8.150499750972598 -13.959116447381021 -15.400280509539547 0 0 0
474 95 3 0 8.867002578657992 -14.652084064315954 -15.616966015796828 0 0 1
3072 864 4 0 8.88151387082656 -15.032143545610767 -15.722023310541509 0 0 0
10877 3466 4 0 -15.473470316942562 -0.03926353636960077 -5.664702778498428 0 0 0
1694 405 4 0 10.183706004879571 -13.785507766585702 -16.25134901281692 0 0 0
2352 624 4 0 10.52270295161594 -13.63901399716145 -16.352708790703293 0 0 0
8130 2550 4 0 -15.276727711461572 -13.310170805780846 -15.912742419775523 0 0 1
2114 545 4 0 -15.367890985492137 -12.967128219611363 -15.725049501778544 0 0 0
2113 545 2 0 -15.34922346345645 -12.925139133726924 -15.24950317049241 0 0 0
1539 353 4 0 2.8131385564719866 -13.341833895296704 -15.053451769669662 0 0 0
1537 353 2 0 2.3450538884770644 -13.452845021526285 -14.875506329977204 0 0 0
3032 851 4 0 3.1631014761492415 -13.206624823683368 -15.181016794862277 0 0 0
3033 851 4 0 3.9490372928651203 -12.678233111854416 -15.196301976759516 0 0 0
3464 995 4 0 4.25728273092469 -12.476643179539591 -15.11012810767355 0 0 0
1593 371 4 0 4.099900854312494 -12.450937383201474 -15.47170872980909 0 0 0
3031 851 2 0 3.5471090973436925 -12.945548076471573 -15.192921635226131 0 0 0
6712 2078 2 0 8.93183268334483 -13.47409353616776 -15.482659067283066 0 0 1
1693 405 2 0 9.900497054876329 -13.445420602096103 -15.985305048184385 0 0 0
6713 2078 4 0 9.32996280112149 -13.188130967454102 -15.475102984233692 0 0 1
1695 405 4 0 9.636506576420741 -13.12097193614094 -15.729455023839254 0 0 0
2370 630 4 0 9.595142660780756 -12.890465562128545 -15.40777182259047 0 0 0
2368 630 2 0 9.597088141114455 -12.565892085181542 -15.002456228067043 0 0 0
2350 624 2 0 10.962596490997848 -13.444747653983026 -16.469457777906765 0 0 0
2351 624 4 0 11.429386807995956 -13.243909912618136 -16.592338422983527 0 0 0
105 21 3 0 11.999745168333328 -12.58604536786604 -15.211911657302828 0 0 0
2908 810 2 0 12.112064931962085 -12.878766477947226 -16.503288308870683 0 0 0
1411 311 2 0 13.142420102958617 -12.987407874894592 -15.661811275789422 0 0 0
1412 311 4 0 12.796479546245441 -12.78497092971943 -16.00372041682018 0 0 0
2910 810 4 0 12.50682986411877 -12.663986252981081 -16.268170935899963 0 0 0
104 21 3 0 12.488257851146221 -12.593169632217306 -15.883117746265707 0 0 0
8237 2586 4 0 12.764032997818159 -12.418419646543505 -16.101945914081462 0 0 1
8236 2586 2 0 13.105089828804305 -12.112073486144356 -16.32485715683675 0 0 1
1413 311 4 0 13.474736116919322 -13.188121349321536 -15.324576543652064 0 0 0
101 21 1 0 12.28731218353671 -12.297281650987845 -15.528329339699294 0 0 0
3490 1004 2 0 -13.001343453176226 -10.679183791451957 -16.550717950091915 0 0 0
1713 411 4 0 -13.398703488685422 -11.131768101286582 -14.94935870364732 0 0 0
2928 816 4 0 -13.281414946638321 -10.753295504832781 -15.005621061941502 0 0 0
6149 1890 4 0 -4.3654772998533975 -10.532154072532112 -16.287223913626516 0 0 1
6575 2032 4 0 -4.048393149369923 -10.591627387268291 -16.495572347674564 0 0 1
8516 2679 4 0 7.432745804054825 -0.07185702397877161 -7.738837070709381 0 0 0
2541 687 4 0 0.3462615470478689 -10.551131375917954 -15.302613584732033 0 0 0
1494 338 4 0 0.45322315759752635 -10.82449482041017 -15.559725518506566 0 0 0
1591 371 2 0 4.0114799716157075 -12.152635487957332 -15.879144794751461 0 0 0
1592 371 4 0 3.9183484183971746 -11.869592879855059 -16.276944503767844 0 0 0
1419 313 4 0 3.5881262843036015 -11.65895584205167 -16.42055541664656 0 0 0
1252 258 2 0 9.959244715910106 -10.53058880083727 -15.895521857752316 0 0 0
1253 258 4 0 9.982016070039407 -10.270574001129908 -15.47596502735226 0 0 0
103 21 3 0 11.999460015935005 -11.938318428281372 -15.750051009983022 0 0 0
102 21 3 0 12.647541894016857 -12.076677542622903 -15.27848691797958 0 0 0
3305 942 4 0 12.848987805882507 -11.904522472684043 -14.977265338025395 0 0 0
8238 2586 4 0 13.439937789430207 -11.80879590552492 -16.563437384708795 0 0 1
3024 848 4 0 15.958103785660214 -11.263565745198514 -15.126165022487388 0 0 0
2269 597 2 0 16.072920971289392 -10.562132086792674 -15.572613642148376 0 0 0
2270 597 4 0 16.085074176420505 -10.89347262739629 -15.162658731290524 0 0 0
2798 773 4 0 -14.274201130017124 -9.87495118639317 -16.22926817667597 0 0 0
2797 773 2 0 -13.76842748585474 -9.984605713199914 -16.154383231625584 0 0 0
2926 816 2 0 -13.152855564949652 -10.54858306112675 -15.42870354895618 0 0 0
3491 1004 4 0 -12.961922632646766 -10.273354551888424 -16.276500247525018 0 0 0
2799 773 4 0 -13.275380636566481 -10.10137498822898 -16.07411473984543 0 0 0
2927 816 4 0 -13.013551383667147 -10.336852596840647 -15.878312773371691 0 0 0
2409 643 4 0 -12.929808417876131 -9.950142600744845 -16.03510556429598 0 0 0
2407 643 2 0 -12.45611798336092 -9.789749789992422 -16.011469087434293 0 0 0
2408 643 4 0 -11.965185082742888 -9.623905778755818 -15.991897285766148 0 0 0
2871 797 4 0 -11.82171912146343 -9.30104832829304 -15.815696081692424 0 0 0
2869 797 2 0 -11.565197240183327 -9.245010625138796 -15.378354994287207 0 0 0
2937 819 4 0 -11.627602285256582 -9.472044657915914 -16.148199189408544 0 0 0
2935 819 2 0 -11.599315601120244 -9.18594469974332 -16.536466851586347 0 0 0
2265 595 4 0 -9.362628492796434 -9.104810955837682 -15.438568170994568 0 0 0
2263 595 2 0 -9.206282570123062 -9.42562251842548 -15.055034267975955 0 0 0
6150 1890 4 0 -4.461089618877576 -10.08370130686979 -15.378496692124141 0 0 1
6148 1890 2 0 -4.40870662743412 -10.313584828026071 -15.837487913969635 0 0 1
7170 2230 4 0 -4.68804801624275 -9.925350750824391 -15.098376860388273 0 0 1
2703 741 4 0 -4.277128332693266 -9.856767507903436 -15.113198504388562 0 0 0
2701 741 2 0 -3.9816993713701945 -9.475117967239568 -15.056563783738843 0 0 0
1492 338 2 0 0.30080347779553995 -10.619495620118386 -15.968976212496278 0 0 0
1493 338 4 0 0.14928623237457195 -10.413984102388552 -16.38760934712081 0 0 0
6874 2132 2 0 4.083795725624558 -9.800226696121996 -16.48053152003769 0 0 1
6875 2132 4 0 4.243139888921229 -9.755353844222238 -16.01739883630434 0 0 1
2168 563 4 0 4.417382163235792 -9.425037212709395 -15.850394769242467 0 0 0
3438 986 4 0 5.182282976412316 -10.308900535052448 -15.232781147868804 0 0 0
3437 986 4 0 4.544986442309019 -9.776768720699165 -15.750188736038679 0 0 0
3436 986 2 0 4.879730423937937 -10.057543433564037 -15.474764055511216 0 0 0
1841 454 4 0 10.132603485942994 -10.501553809819875 -15.15643882546933 0 0 0
1254 258 4 0 9.947963663920275 -10.799710914537512 -16.323535249731176 0 0 0
2271 597 4 0 16.061682814129274 -10.241292918716594 -15.97588795065718 0 0 0
6945 2155 4 0 16.17706495316668 -10.430985703020195 -16.301601335643188 0 0 1
748 150 3 0 -4.702954473176771 -16.5689442231363 -10.167955288442597 0 1 0
1208 243 4 0 -9.476022924869651 -8.942307850815864 -15.785808631967038 0 0 0
1207 243 2 0 -9.807294883777494 -8.722146168784564 -16.08261041350615 0 0 0
1209 243 4 0 -10.134351551873383 -8.497735460267322 -16.38163126239278 0 0 0
1651 391 2 0 -6.473246640163436 -8.4168965538917 -15.151212115944409 0 0 0
1652 391 4 0 -6.3064839372308406 -8.181103786250501 -15.567972712912205 0 0 0
2960 827 4 0 -5.972054893081335 -7.976079697693324 -15.5778352869454 0 0 0
2959 827 2 0 -5.572028294779375 -7.774453851721064 -15.743576455484515 0 0 0
8462 2661 4 0 -4.837089917448692 -7.433197501061073 -15.823334108273441 0 0 1
2961 827 4 0 -5.183998603846205 -7.572551603209487 -15.909606374409414 0 0 0
8461 2661 2 0 -4.451968896110763 -7.735755441239035 -15.8244047451031 0 0 1
8463 2661 4 0 -4.060792598581912 -8.04577276259916 -15.825751962663341 0 0 1
2048 523 4 0 -3.690140565379306 -8.044573207396772 -15.671053055146523 0 0 0
2047 523 2 0 -3.532385358392064 -8.473979687033314 -15.430560430097394 0 0 0
7385 2302 4 0 -3.719869037972835 -8.074807984301488 -16.064399444760806 0 0 1
7384 2302 2 0 -3.4386064612838654 -8.190438088109895 -16.501828099731544 0 0 1
2880 800 4 0 -0.16864794890705773 -7.8673731905729305 -15.986964241177697 0 0 0
2878 800 2 0 -0.15581304994751974 -7.945309279913744 -15.499884779300947 0 0 0
6870 2130 4 0 -0.1637150020859364 -8.200660671875312 -16.21222805073772 0 0 1
6868 2130 2 0 -0.31392750285383375 -8.555930737765637 -16.566523647247088 0 0 1
1278 266 4 0 4.034925173255352 -8.152291275295827 -15.827663238973193 0 0 0
2169 563 4 0 4.340867147368974 -8.394964781870453 -15.813471210433889 0 0 0
2890 804 2 0 4.403373160889605 -7.7341002204496645 -15.31100999852359 0 0 0
2892 804 4 0 4.388091606359729 -8.009047838763987 -15.72675165568529 0 0 0
1276 266 2 0 3.8220506200611246 -8.022480394437068 -16.273853283483827 0 0 0
2167 563 2 0 4.3829809669082955 -8.923675059822976 -15.835354533171827 0 0 0
3241 921 2 0 -7.943872328706653 -6.728451664785237 -16.24139409498253 0 0 0
3242 921 4 0 -7.7536210869886455 -6.566935792066477 -15.828516096178815 0 0 0
8755 2759 2 0 6.718657367406551 -16.563456913483236 -5.706973719716174 0 1 0
115 23 3 0 8.554174105517856 -16.591971339721105 -10.49952011599107 0 0 0
1919 480 4 0 -7.387830655821705 -6.39317948206381 -15.794741468450164 0 0 0
1918 480 2 0 -7.076523166165112 -6.1813630644606175 -15.466824508625564 0 0 0
1597 373 2 0 -4.946819391869307 -6.786218624530593 -16.12641723134983 0 0 0
1599 373 4 0 -5.060297919806128 -7.284322498996168 -16.12489851978954 0 0 0
1598 373 4 0 -4.824589404565297 -6.2960664149003405 -16.131669548931395 0 0 0
3335 952 4 0 4.3345140666541475 -6.219895010087647 -15.290429220770568 0 0 0
3334 952 2 0 4.429517570825046 -6.625874320027853 -15.069851655864287 0 0 0
3515 1012 4 0 16.42822592066444 -5.079076498365937 -15.761963002811896 -1 0 0
3514 1012 2 0 -16.50415777256109 -4.933561340552248 -16.14359006124492 0 0 0
3516 1012 4 0 -16.2300205269834 -4.781598112423533 -16.560522287940643 0 0 0
1920 480 4 0 -6.741698591184203 -5.962423803333307 -15.118319154166509 0 0 0
7478 2333 4 0 -6.397373318786973 -5.756644852032411 -15.186918533429338 0 0 1
3117 879 4 0 -4.826297625008445 -5.902898843024465 -16.036266072204683 0 0 0
7477 2333 2 0 -6.030312848428802 -5.463714730753756 -15.312599987911835 0 0 1
7479 2333 4 0 -5.6403403309055875 -5.155800284737202 -15.422960269352663 0 0 1
3116 879 4 0 -5.283491485114332 -5.120784822924503 -15.61798095959045 0 0 0
3115 879 2 0 -5.051143675785866 -5.512601207833408 -15.82621884682448 0 0 0
2078 533 4 0 -5.352039698369011 -4.9438057509199 -15.299717134068839 0 0 0
144 29 3 0 -5.522412872062977 -4.835504284381488 -15.648181830535 0 0 0
143 29 3 0 -5.728605850915779 -4.551289769391896 -16.389059292849055 0 0 0
141 29 1 0 -5.402897033536587 -4.499109232787485 -16.00569200576824 0 0 0
2077 533 2 0 -5.013500929974668 -4.7587483449607815 -14.99969663042232 0 0 0
2579 700 4 0 4.221085147521841 -5.837650712852911 -15.269852353997447 0 0 0
6960 2160 4 0 4.543652235078423 -5.9386718384145185 -15.485726538926391 0 0 1
6958 2160 2 0 4.918392327008552 -5.630312621740375 -15.71152704574072 0 0 1
6959 2160 4 0 5.2714823787358585 -5.3491090306625155 -15.925743203237 0 0 1
6572 2031 4 0 5.350730164174505 -4.96248592396549 -15.870495540674527 0 0 1
1758 426 4 0 5.60655748563219 -5.262522605079098 -15.737874640276928 0 0 0
6571 2031 2 0 5.107363965459267 -4.536623735988957 -15.722390578206223 0 0 1
1756 426 2 0 6.094374954494476 -5.271639022857309 -15.859745331494588 0 0 0
1757 426 4 0 6.606558811951706 -5.277210058220933 -15.984828942513102 0 0 0
2987 836 4 0 6.693519313027644 -4.885687970192135 -15.994265412910831 0 0 0
1904 475 4 0 6.604367510191719 -5.077850061133868 -16.33002990325686 0 0 0
2986 836 2 0 7.070298958947003 -4.5797271447917485 -15.881104891960021 0 0 0
1976 499 4 0 8.711054964404934 -4.518496147470644 -15.555954088551399 0 0 0
1975 499 2 0 8.296521472084946 -4.339882573575975 -15.675898313050805 0 0 0
1635 385 4 0 16.501336082808383 -5.330719896942666 -15.45632737784263 -1 0 0
1633 385 2 0 16.56978186347264 -5.569055768694896 -15.00837212378232 -1 0 0
9031 2851 2 0 -12.296888119712396 -0.09212075416792659 -11.61206198916563 0 0 0
1250 257 4 0 -14.089419657878887 -3.225785586251887 -15.588972923384459 0 0 0
3198 906 4 0 -13.98052512593137 -3.0241954484738924 -15.92079592750756 0 0 0
1496 339 4 0 -13.938938829349944 -2.8604274429915804 -15.55025172807207 0 0 0
3196 906 2 0 -13.930173862281261 -3.1897173198733944 -16.38360631784227 0 0 0
1249 257 2 0 -14.540936639950012 -3.097256909981515 -15.381415567231532 0 0 0
1251 257 4 0 -14.988229263265728 -2.9689884218571176 -15.166312898892153 0 0 0
7367 2296 4 0 -4.771325770861062 -4.850204955474211 -16.457050209518812 0 0 1
142 29 3 0 -4.925258982587726 -4.587939022440387 -16.171428925758576 0 0 0
1745 422 4 0 -5.677564644828653 -3.7145694306181003 -15.995691764296847 0 0 0
2840 787 4 0 -5.512045452104336 -3.6738537236201134 -15.638282025484736 0 0 0
145 29 3 0 -5.432397370035201 -4.0074086414830115 -15.829462801020952 0 0 0
2839 787 2 0 -5.511791022547525 -3.473434723117089 -15.142839845369732 0 0 0
1744 422 2 0 -5.5740537411688225 -3.315505329216479 -16.273544504345374 0 0 0
1936 486 2 0 4.3913793463905 -3.371246450911873 -15.449336269165357 0 0 0
1938 486 4 0 4.044109367210262 -3.0255029843008043 -15.403233239401683 0 0 0
6573 2031 4 0 4.8458438571633575 -4.104505133762185 -15.579414091054502 0 0 1
1320 280 4 0 4.624421822202998 -4.013506534749711 -15.268450092335272 0 0 0
1937 486 4 0 4.767453473261875 -3.724864904661067 -15.512809557328179 0 0 0
3398 973 4 0 5.10494470181396 -3.810260404693862 -15.636327967017388 0 0 0
3397 973 2 0 5.315185223703537 -3.521700010480953 -16.002223761564828 0 0 0
3503 1008 4 0 5.021290794390546 -3.9410040939768747 -15.265319223028298 0 0 0
3399 973 4 0 5.538841132565691 -3.231108489974376 -16.36082216343343 0 0 0
2988 836 4 0 7.441076490707961 -4.249709324255721 -15.771396069142732 0 0 0
3016 846 2 0 7.399446024662767 -3.8806077085180535 -15.052451033380681 0 0 0
3017 846 4 0 7.59195527428943 -4.066925852716239 -15.467060308288842 0 0 0
1977 499 4 0 7.818922205026708 -4.13441177664901 -15.806220798598828 0 0 0
2435 652 4 0 7.532509278227188 -3.867301579710081 -15.788537930077815 0 0 0
2434 652 2 0 7.649419908993205 -3.595824117932314 -16.19036619619509 0 0 0
2191 571 2 0 -15.490481562747124 -2.554353075206916 -15.517070706633005 1 0 0
2192 571 4 0 -15.611901222755366 -2.295483356381166 -15.926029714012769 1 0 0
2193 571 4 0 -15.369528414268403 -2.8192265549993105 -15.12179978734526 1 0 0
1974 498 4 0 -15.859599044869956 -2.3119188367292063 -16.237103043056045 1 0 0
593 119 3 0 -15.646197637797448 -1.979216944104131 -16.19515603093864 1 0 1
591 119 1 0 -15.28631686995937 -1.596298199717732 -16.213662516829103 1 0 1
595 119 3 0 -14.866850196763117 -1.7528605160724082 -15.99771414512881 1 0 1
1495 339 2 0 -13.4772699558877 -2.6649070727825297 -15.575138959021706 0 0 0
1497 339 4 0 -13.004290766291916 -2.4480085911706166 -15.595662441659162 0 0 0
1627 383 2 0 -12.266319765166015 -2.641699936948265 -15.224646339094653 0 0 0
1629 383 4 0 -12.637285836696964 -2.4916787959861426 -15.491388687856054 0 0 0
3354 958 4 0 -12.744316978901093 -2.3641908549259765 -15.848264220794075 0 0 0
1229 250 4 0 -12.750370051369769 -2.1444866399694296 -15.538619671825145 0 0 0
1228 250 2 0 -12.927779096726999 -1.6799435373094254 -15.440175657084904 0 0 0
3352 958 2 0 -12.69864147937586 -2.488245681863044 -16.335392406136513 0 0 0
1628 383 4 0 -11.900153633846541 -2.7965020913018055 -14.969160569981325 0 0 0
6492 2004 4 0 -5.671800105569327 -2.5857852581639267 -16.414183019113892 0 0 1
6490 2004 2 0 -5.594024609179096 -2.1729454366409624 -16.129458640829046 0 0 1
6491 2004 4 0 -5.530435773943174 -1.7685655860810598 -15.843545662031655 0 0 1
2125 549 2 0 -5.511332180295009 -1.4741704464216656 -15.236471059539396 0 0 0
2126 549 4 0 -5.543893677212099 -1.3806023955575994 -15.738049135625028 0 0 0
6965 2162 4 0 -3.3702104950167966 -1.655566153870411 -16.155797938263213 0 0 1
125 25 3 0 -3.3816519626823998 -1.898501010972007 -15.812081323724257 0 0 0
121 25 1 0 -3.275035590858561 -2.023152097474845 -15.384925921806913 0 0 0
6964 2162 2 0 -3.068529021591767 -1.8164472600792265 -16.536794275960236 0 0 1
122 25 3 0 -3.6271428541467214 -2.342693660848405 -15.222921487769861 0 0 0
124 25 3 0 -2.8368426978897685 -2.2437212322423408 -15.391775767455032 0 0 0
2598 706 4 0 3.935393098176855 -2.632532944416933 -15.352469200171353 0 0 0
2597 706 4 0 4.021777616403765 -1.7079770604468887 -15.63128095402614 0 0 0
2596 706 2 0 3.976242481856572 -2.1749442952420277 -15.490140584254815 0 0 0
3275 932 4 0 5.6930065743886225 -2.8752080884930282 -16.382104320025668 0 0 0
10441 3321 2 0 -5.984657983025513 -0.004696186414544204 -12.53763113351858 0 0 0
3274 932 2 0 6.041052962712164 -2.6939423537036356 -16.09835003518264 0 0 0
3276 932 4 0 6.397075230376212 -2.5153996749116385 -15.80259915013976 0 0 0
2054 525 4 0 6.645973158129854 -2.8188612516611107 -15.826058720641795 0 0 0
2053 525 2 0 7.005406778347798 -2.6229617296969185 -15.527671394742747 0 0 0
2055 525 4 0 7.357840347151381 -2.425569106066888 -15.22876198441066 0 0 0
7746 2422 4 0 9.951632942932763 -1.8410630139093935 -16.346114480045703 0 0 1
9018 2846 4 0 9.745835165423363 -1.6523447703264464 -16.078236743700288 0 0 0
9016 2846 2 0 9.623633405065387 -1.5488379630429892 -15.608551770420048 0 0 0
9017 2846 4 0 9.502783099578823 -1.4393969715678 -15.134343882937957 0 0 0
6222 1914 4 0 9.139394841964007 -1.4745799638179526 -14.979414642713786 0 0 1
6710 2077 4 0 11.659177442764067 -2.234164212729284 -15.760199787781977 0 0 1
6709 2077 2 0 11.395602035499406 -2.2485825697294914 -16.192859529454616 0 0 1
3441 987 4 0 11.687292360724083 -2.19416511415263 -15.347996753849804 0 0 0
9524 3015 4 0 12.01166791037573 -2.225805391459812 -15.57459765606288 0 0 0
3439 987 2 0 11.213045853260606 -2.297673975030273 -15.14629373060836 0 0 0
9525 3015 4 0 12.973606790138206 -2.3041580287540633 -15.345640339525286 0 0 0
7547 2356 4 0 13.366483353277921 -2.267278998013048 -15.237854620482485 0 0 1
9523 3015 2 0 12.483911333505759 -2.25365655641201 -15.46666085505956 0 0 0
7546 2356 2 0 13.627703128240586 -2.3524031161727645 -15.680738409128741 0 0 1
10721 3414 4 0 13.084777391405844 -2.1796468987276274 -14.982972813421021 0 0 0
7548 2356 4 0 13.872458544870275 -2.441548563552367 -16.098975033597302 0 0 1
3285 935 4 0 13.716659871041221 -2.5174997351202397 -16.455194943991174 0 0 0
592 119 3 0 -15.449063968603582 -1.2128129329871709 -15.96760351789661 1 0 1
9346 2956 2 0 -13.631819728824896 -0.6905322642557727 -15.628148562629804 0 0 0
9347 2956 4 0 -14.085153059743178 -0.44620101743488805 -15.693267593650944 0 0 0
10163 3228 4 0 -14.237283038612116 -0.10402122114018321 -15.513184879871392 0 0 0
10162 3228 2 0 -14.588237538514141 -0.07130315512886748 -15.85975305016547 0 0 0
1230 250 4 0 -13.088988895922583 -1.2164311253493558 -15.361458377493655 0 0 0
9348 2956 4 0 -13.214878918018176 -0.9138973564449777 -15.56536619025354 0 0 0
3453 991 4 0 -5.435959804913481 -1.4744393898838175 -16.11268022446376 0 0 0
3451 991 2 0 -5.052995770726474 -1.1887912486483265 -16.27225389058544 0 0 0
3452 991 4 0 -4.658705685478579 -0.8899024687585212 -16.424146149792005 0 0 0
9015 2845 4 0 -3.558610591128608 -1.5193855828679383 -15.826361245879497 0 0 0
9967 3163 2 0 -4.3686953204723675 -0.19533676463877095 -16.5071623282809 0 0 0
9969 3163 4 0 -4.432027332743555 -0.6281218139918373 -16.264039334339543 0 0 0
9014 2845 4 0 -4.3412318721350305 -1.0128965099341052 -16.209563230856688 0 0 0
9013 2845 2 0 -3.948331871663646 -1.2500941036596462 -16.025897318020288 0 0 0
3227 916 4 0 -1.988393736832972 -0.8879344425042333 -15.167449358143486 0 0 0
3226 916 2 0 -2.4477317222218136 -1.1465797084121168 -15.166114607717164 0 0 0
3162 894 4 0 -2.005505075387809 -0.702267152434299 -14.827576030263213 0 0 0
3228 916 4 0 -2.914636780351335 -1.419970250959772 -15.150553201540403 0 0 0
2951 824 4 0 3.8941957807680514 -1.395440936152396 -15.842681350808506 0 0 0
2259 593 4 0 3.833887374774835 -1.4053963887262588 -15.450664912877933 0 0 0
2950 824 2 0 4.046777096102334 -1.3947592883168736 -16.336662196062232 0 0 0
3006 842 4 0 9.874543688593516 -1.4857524213214635 -16.427372098412135 0 0 0
9626 3049 4 0 9.960279545871547 -0.21604565041976942 -16.52614288182696 0 0 0
8954 2825 4 0 9.454329123874096 -1.3989255623353194 -14.757700603475069 0 0 0
2948 823 4 0 -4.6204702256736425 -15.202233976842747 -14.057116783816271 0 0 0
2947 823 2 0 -4.494374414959348 -15.643961617186893 -13.991115389642095 0 0 0
2949 823 4 0 -4.344312096004776 -16.14956683741605 -13.910928872252637 0 0 0
765 153 3 0 -3.4640934461093997 -15.998449701661908 -13.968676373322383 0 1 0
762 153 3 0 -4.1744237348235504 -16.306466951664248 -14.296295356903173 0 1 0
761 153 1 0 -3.7277659572134603 -16.412207127260476 -14.048681072742442 0 1 0
3066 862 4 0 -3.337041368753751 -15.60751014649302 -13.988132358915585 0 0 0
3064 862 2 0 -3.3151365350971824 -15.391616918080786 -13.53505670548553 0 0 0
10614 3378 4 0 -4.161298785036558 -16.41148247496642 -13.695448232475357 0 1 0
7976 2499 4 0 -4.37359049446759 -16.530746287521602 -14.017342885204231 0 0 1
1941 487 4 0 -3.1549546125240573 -15.422740988588526 -14.29050899555214 0 0 0
10382 3301 4 0 -3.249693682462604 -16.563377974619158 -14.644163760068146 0 1 0
707 142 3 0 -2.917010840824212 -16.4820863150771 -14.433290912507864 0 1 0
708 142 3 0 -2.974674532748876 -15.731644060625106 -14.127372117468346 0 1 0
706 142 1 0 -2.6602173735412835 -16.113919923972027 -14.205130780467522 0 1 0
710 142 3 0 -2.2873880275537464 -15.97916577346255 -14.49152160335674 0 1 0
709 142 3 0 -2.4658656490982085 -16.282582132450518 -13.752800296337409 0 1 0
424 85 3 0 7.660555351110676 -15.950578310337328 -14.52202279377252 0 0 1
421 85 1 0 7.882648233015082 -16.158343991700367 -14.91732427894495 0 0 1
3810 1110 4 0 3.8146674428931306 -0.38083233587401316 -5.794132139100524 0 0 0
2803 775 2 0 8.982575617606356 -16.494172243881042 -15.061308645051906 0 0 0
1678 400 2 0 12.904471771901282 -16.24436126272247 -14.323719203473594 0 0 0
1680 400 4 0 13.172606472648729 -15.884525611369979 -14.134124925541807 0 0 0
1752 424 4 0 13.382252905129153 -15.585077132911934 -14.20310099197175 0 0 0
2660 727 4 0 13.45668328161915 -15.750488245551637 -13.863081089207833 0 0 0
1750 424 2 0 13.452800741336514 -15.098151808881855 -14.295745884566738 0 0 0
2659 727 2 0 13.663368118074041 -16.08658244061283 -13.534993332292753 0 0 0
8417 2646 4 0 -15.754353006383427 -15.161969184469102 -14.967140561816523 1 0 1
2736 752 4 0 -15.522384300606456 -14.833306090708215 -14.876011984643167 0 0 0
2734 752 2 0 -15.217180111769965 -14.538309309052348 -14.565458918905758 0 0 0
2735 752 4 0 -14.942289122988047 -14.283206732352422 -14.28180593726574 0 0 0
2306 609 4 0 -14.843393758258365 -14.218234809583382 -13.923298874011136 0 0 0
2772 764 4 0 -14.874586136129313 -13.919905307835512 -14.189517061666175 0 0 0
3216 912 4 0 -4.870705882611731 -14.913462478876346 -14.116278812723756 0 0 0
1658 393 4 0 -4.937966347294603 -15.15040956980812 -13.800746963795786 0 0 0
3214 912 2 0 -4.849609004804933 -14.598931201914189 -14.516933037313025 0 0 0
3215 912 4 0 -4.830221062338271 -14.286492187845303 -14.91406127780783 0 0 0
2532 684 4 0 -4.764032522570824 -13.880661732458941 -14.949909804136 0 0 0
2027 516 4 0 -2.6183326220133605 -14.298431201597447 -14.81679118256713 0 0 0
1939 487 2 0 -2.917764508919643 -15.06194755574957 -14.496977591289339 0 0 0
1940 487 4 0 -2.6583144831217767 -14.681689168527713 -14.713408444740962 0 0 0
1395 305 4 0 -2.308405372285648 -14.489931998625817 -14.613802758180391 0 0 0
1393 305 2 0 -2.079744556840344 -14.439841931126448 -14.194701628374347 0 0 0
1394 305 4 0 -1.8295497027862024 -14.386730784460015 -13.762217847287744 0 0 0
1596 372 4 0 -1.7668277077834853 -14.052880517322423 -13.530749482809542 0 0 0
1594 372 2 0 -1.8786813788897352 -13.601918866269978 -13.336955772894832 0 0 0
1906 476 2 0 0.06425217333054792 -14.696520707001456 -14.811786206688323 0 0 0
3522 1014 4 0 0.5319168838323047 -14.300171180552498 -14.147094289813154 0 0 0
1908 476 4 0 0.36138353591640215 -14.484962608728589 -14.47234502030556 0 0 0
3099 873 4 0 0.7459492763904807 -14.39793090729754 -14.458395348989745 0 0 0
3520 1014 2 0 0.4278331724001111 -14.146432439430562 -13.661075675040063 0 0 0
3097 873 2 0 1.1747659119563971 -14.117547800747674 -14.498398388174095 0 0 0
3098 873 4 0 1.5915037240277503 -13.828003046774088 -14.543020343906608 0 0 0
1538 353 4 0 1.8773148160237618 -13.564821360703553 -14.700180060433436 0 0 0
2016 512 4 0 7.447779453161027 -13.60899223715684 -14.555965710623052 0 0 0
3314 945 4 0 6.893590623920805 -14.588552648346898 -13.761100252465264 0 0 0
2015 512 4 0 7.129239691229866 -14.29213126939667 -13.874443529024703 0 0 0
2014 512 2 0 7.288377670635423 -13.948600278578708 -14.221448155732773 0 0 0
3358 960 2 0 13.409915688270878 -13.900634180986348 -14.812994642231184 0 0 0
3359 960 4 0 13.347417737219079 -14.332605116751623 -14.594331852017644 0 0 0
1751 424 4 0 13.537200356313093 -14.615694736090695 -14.384934117402869 0 0 0
2371 631 2 0 -15.784497622682629 -12.809780859556371 -14.025850553092113 0 0 0