LAMMPS data file via write_data, version 2 Aug 2023, timestep = 10000000, units = lj

15885 atoms
4 atom types
10750 bonds
1 bond types
6335 angles
2 angle types

-16.594292 16.594292 xlo xhi
-16.594292 16.594292 ylo yhi
-16.594292 16.594292 zlo zhi
4.263256414560601e-14 0 0 xy xz yz

Masses

1 1
2 1
3 1
4 1

Bond Coeffs # harmonic

1 100 0.5

Angle Coeffs # harmonic

1 100 180
2 100 109.471

Atoms # full

15088 4870 2 0 -9.347518510521608 -16.040865729063164 -15.227596217948784 7 1 1
15090 4870 4 0 -9.12697600156558 -16.272838001964576 -15.595996346509637 7 1 1
6498 2006 4 0 -6.663763807929968 -16.570887248664427 -15.33063562711741 6 1 1
7865 2462 4 0 -6.325097097635441 -16.42144555222991 -15.416437249675978 6 1 1
3121 881 2 0 8.19962877916166 -0.2619226315476162 -6.949082036209418 4 0 0
6229 1917 2 0 -4.803482775136938 -16.341013169213394 -15.354859466991497 6 1 1
1671 397 4 0 7.082512346121444 -1.2787859899653302 -6.914315197695053 4 0 0
6230 1917 4 0 -4.396441026691555 -16.02442591237489 -15.404859458089648 6 1 1
13836 4452 4 0 -10.431014546376105 -14.085721085293246 -15.436042575647448 6 1 1
8399 2640 4 0 1.3136385494624427 -3.6921981985689634 -15.175008051388728 4 0 1
2083 535 2 0 -0.4513455995352835 -2.2926914601271324 -15.122117313419109 4 0 0
2085 535 4 0 -0.7742264463702355 -2.417585284568146 -15.498308553542541 4 0 0
2632 718 2 0 2.1427159448755617 -1.9974881183805966 -15.882130685952424 4 0 0
2634 718 4 0 2.483796755089905 -2.1650691867966607 -15.542043010366772 4 0 0
6749 2090 4 0 2.657743839760702 -1.9691053020005462 -15.210176795404363 4 0 1
2633 718 4 0 1.8194151601830946 -1.8455165853213025 -16.21001494083103 4 0 0
7373 2298 4 0 1.4203249343279367 -1.9103714041607969 -16.304054098936994 4 0 1
6748 2090 2 0 3.002184587579581 -1.6203627903128073 -15.288861593741744 4 0 1
7465 2329 2 0 12.589721148641758 -2.0346722326882603 -15.080353328813626 4 0 1
7467 2329 4 0 12.790178821291438 -2.1720858792237543 -15.51799983219479 4 0 1
7907 2476 4 0 12.997710256805735 -2.0557058320981447 -15.861172187882168 4 0 1
7906 2476 2 0 13.30186634113505 -1.90840195897432 -16.268326683285547 4 0 1
7342 2288 2 0 2.582304875753376 -0.5684947906507638 -15.439245741101754 4 0 1
7344 2288 4 0 2.9122823115832404 -0.527941628065463 -15.840885554776776 4 0 1
6740 2087 4 0 3.1397831661587077 -0.29153319075236084 -16.09765366022178 4 0 1
524 105 3 0 3.288608067687786 -0.4642136040337803 -15.758754638175306 3 0 1
6750 2090 4 0 3.34805979736349 -1.2739008060841375 -15.354467802873735 4 0 1
525 105 3 0 3.657694222940126 -1.036557012642115 -15.262879029368925 3 0 1
521 105 1 0 3.726738741856554 -0.7543543829931032 -15.673042411023857 3 0 1
522 105 3 0 3.811376139002359 -1.0799489417250854 -16.076341269320707 3 0 1
523 105 3 0 4.152727035228548 -0.4330257506510691 -15.605020981754356 3 0 1
7949 2490 4 0 4.282683425918751 -0.3682725660641353 -15.972620961344138 3 0 1
7948 2490 2 0 4.283133101338908 -0.35326327817267256 -16.485630661578746 3 0 1
7016 2179 4 0 4.26628594399045 -0.08257021834031164 -15.7092575243808 3 0 1
6702 2074 4 0 4.561210432623966 -0.32883918472062845 -15.684105006763632 3 0 1
6700 2074 2 0 5.095457647915083 -0.22477817452362103 -15.608449574099707 3 0 1
6701 2074 4 0 5.59671974437866 -0.1269596376773201 -15.5358863911675 3 0 1
7842 2454 4 0 5.9800352523567 -0.042665214522997985 -15.69941576290129 3 0 1
3283 935 2 0 6.120890781084064 -0.5066974717477386 -5.618994537054103 4 0 0
2619 713 4 0 6.416979525623653 -1.3613187825358946 -5.772020393937371 4 0 0
3389 970 4 0 6.045737485291582 -1.2669825154870509 -5.664007333803278 4 0 0
8410 2644 2 0 7.784302751118265 -0.07184575054296971 -15.258721910796094 3 0 1
8412 2644 4 0 8.18972241261946 -0.26294848309866836 -15.020383066565698 3 0 1
1320 280 4 0 8.595341486356546 -0.21896475135552507 -14.974187264689656 4 0 0
7495 2339 2 0 12.771514417162301 -0.17823357476432733 -15.36074268709044 4 0 1
124 25 3 0 7.395466966047255 -0.07685480138823308 -6.095159222653038 4 0 0
7497 2339 4 0 12.403573706509903 -0.38648405544600095 -15.077768316544779 4 0 1
27 6 3 0 6.98831012385325 -0.10553145236728412 -7.039361908435115 4 0 0
7330 2284 2 0 13.863254067337461 -0.2955133225190174 -15.87595208013986 4 0 1
7156 2226 2 0 14.180526502797168 -1.226742506490238 -16.491956211872992 4 0 1
7157 2226 4 0 14.464416087944727 -0.8722786539020113 -16.20779999480218 4 0 1
7331 2284 4 0 14.191034847100006 -0.659127317911798 -15.989247624161568 4 0 1
7503 2341 4 0 14.561401547981344 -0.7399883378118162 -15.83134211067842 4 0 1
7501 2341 2 0 14.660309130438975 -1.0282612640914746 -15.439524518389653 4 0 1
6489 2003 4 0 14.50894160815799 -0.4674411978176174 -16.12259545003408 4 0 1
6487 2003 2 0 14.821827984308502 -0.2820043996328714 -16.472118000112786 4 0 1
7502 2341 4 0 14.7550779970462 -1.3050509242114572 -15.038548856646852 4 0 1
14959 4827 2 0 -11.12532266787753 -16.583131774675365 -13.654261195696579 6 1 1
15717 5079 4 0 -10.548998798702394 -16.548023259925234 -14.278821717785252 6 1 1
15715 5079 2 0 -10.206913825584557 -16.22219812576204 -14.434314399927246 6 1 1
15716 5079 4 0 -9.85038905051677 -15.895887345095852 -14.582260013305515 6 1 1
13457 4326 4 0 -9.732464795068093 -15.53648744630912 -14.575687389769277 6 1 1
15089 4870 4 0 -9.582700382638714 -15.795176825897876 -14.849427407942116 7 1 1
1866 462 4 0 -9.477202007535652 -15.82181370733187 -14.473782579744347 6 1 0
1864 462 2 0 -9.226915888601948 -15.885285341256541 -14.04427386918755 6 1 0
1865 462 4 0 -8.980127408542984 -15.950678238119071 -13.61527978258945 6 1 0
6374 1965 4 0 -6.518305910164976 -16.313300350032595 -15.074975063298861 6 1 1
6373 1965 2 0 -6.43865585532512 -16.38803050161595 -14.550139746581577 6 1 1
8642 2721 4 0 -12.464801949267311 -14.306617544001416 -14.242910920842752 6 1 0
8643 2721 4 0 -11.665355361080987 -14.109992238533918 -13.736565253024347 6 1 0
8641 2721 2 0 -12.075007599715557 -14.211013436930779 -13.99575318547275 6 1 0
15852 5124 4 0 -11.295613562535006 -14.22609394686222 -13.698906607627114 6 1 1
1928 483 4 0 -11.436898546991836 -13.930353564169584 -13.471840646214863 6 1 0
15850 5124 2 0 -10.822423350117168 -14.267235605888734 -13.877515881575052 6 1 1
9984 3168 4 0 -11.531677357921351 -14.302257585884055 -13.40001008608772 6 1 0
13834 4452 2 0 -10.348223269023698 -14.210009678804695 -14.947465379981987 6 1 1
13456 4326 2 0 -9.948633911592937 -15.090490139321734 -14.381642451765108 6 1 1
13835 4452 4 0 -10.260464795248815 -14.349078551174102 -14.430578115044632 6 1 1
13458 4326 4 0 -10.14951658991654 -14.643762216103875 -14.18886609575812 6 1 1
15851 5124 4 0 -10.32467682319529 -14.31710019242007 -14.054653759589065 6 1 1
6773 2098 4 0 -10.048421823058222 -14.493195719144817 -13.843437385522114 6 1 1
7194 2238 4 0 -9.953091426590477 -14.291576098820784 -14.187025601081706 6 1 1
7192 2238 2 0 -9.504875443226176 -14.05245418318006 -14.225344638656873 6 1 1
7193 2238 4 0 -9.059560630358108 -13.830895622497842 -14.266582798656755 6 1 1
8220 2580 4 0 -8.814879466472547 -13.510654247702977 -14.209574347126118 6 1 1
8218 2580 2 0 -8.35927034082451 -13.414474654530787 -14.065821287242676 6 1 1
8219 2580 4 0 -7.869764126155225 -13.324903251654739 -13.913136723056905 6 1 1
7809 2443 4 0 -7.569240099311452 -13.082527290535982 -13.977463460580028 6 1 1
7807 2443 2 0 -7.178395748910328 -13.274315977995327 -13.70955483914344 6 1 1
8398 2640 2 0 1.368915676468827 -3.2997505981791306 -14.857511876500793 4 0 1
6391 1971 2 0 -0.2687338608973455 -1.934738732954413 -13.965654475927188 4 0 1
2084 535 4 0 -0.14423275520301004 -2.1837717104251784 -14.755880306652182 4 0 0
6392 1971 4 0 -0.03080675291024093 -2.0955047940540847 -14.383693821660993 4 0 1
6393 1971 4 0 -0.5085027631109824 -1.7762144196759717 -13.544232940131224 4 0 1
6095 1872 4 0 0.11728395615426734 -1.9040682336372665 -14.703067661070481 4 0 1
2042 521 4 0 0.20640723859575516 -2.2945457897203845 -14.622680726168866 4 0 0
2041 521 2 0 0.7164119647970857 -2.42598079892767 -14.577652944544656 4 0 0
2043 521 4 0 1.2349822098880843 -2.556521182590405 -14.526130130068088 4 0 0
6124 1882 2 0 1.2585403328011573 -2.8879961262011093 -13.732948054864885 4 0 1
8400 2640 4 0 1.4206061202518399 -2.912741067587536 -14.543040795917268 4 0 1
6125 1882 4 0 1.3764642407151797 -2.752965508625408 -14.198414377804514 4 0 1
7856 2459 4 0 1.4591020588612196 -2.35219392093736 -14.233811513635846 4 0 1
7855 2459 2 0 1.501424095803916 -1.852622257385347 -14.047117263184832 4 0 1
7110 2210 4 0 1.6080822774034473 -2.5841858923977945 -14.521062602163456 4 0 1
7109 2210 4 0 2.3075580634062547 -2.197929300467843 -15.167982906304584 4 0 1
7108 2210 2 0 1.956569453317801 -2.3921829267362504 -14.844610078815949 4 0 1
8233 2585 2 0 11.95320688488037 -1.939710252174761 -13.83200980552301 4 0 1
8235 2585 4 0 11.696051550679105 -2.067420018703057 -13.391693529251935 4 0 1
7196 2239 4 0 12.129485487020794 -1.5783860685742006 -14.564654921293343 4 0 1
8234 2585 4 0 12.206337214775058 -1.8085085509057812 -14.264715454850423 4 0 1
7466 2329 4 0 12.370014666744396 -1.8951400107106426 -14.61119614537537 4 0 1
10755 3425 4 0 -13.088649300959588 -0.17019637561877587 -14.024645557508713 7 0 0
8500 2674 2 0 0.04947180286294994 -0.41734939783120595 -14.212937355266702 4 0 1
8501 2674 4 0 -0.23948256954188807 -0.13070012747759563 -13.912744133150616 4 0 1
6094 1872 2 0 0.2873291804227627 -1.4061402764607038 -14.75951995678172 4 0 1
8502 2674 4 0 0.3467339513478862 -0.6931069759582122 -14.521768874158505 4 0 1
6096 1872 4 0 0.4535857360997362 -0.9355559778682547 -14.816107015446613 4 0 1
6167 1896 4 0 0.7482416631443733 -0.7739457991541379 -14.610754812693179 4 0 1
6166 1896 2 0 1.06785001678357 -0.8831066552602387 -14.246398734595449 4 0 1
6168 1896 4 0 1.4048609012136488 -1.0006065951034575 -13.870244974012284 4 0 1
1899 473 4 0 1.3399485136023443 -1.2651657004842782 -13.556787571119328 4 0 0
7857 2459 4 0 1.545005536216955 -1.392504160698687 -13.869713371794411 4 0 1
7343 2288 4 0 2.247555065821224 -0.6093668178612379 -15.035097147250685 4 0 1
6491 2004 4 0 1.6940964456445506 -1.1345309092183342 -13.6484567906356 4 0 1
440 88 3 0 2.093522484329771 -1.4314668609129786 -14.700820669499821 4 0 1
437 88 3 0 1.7554686692239336 -1.087220930167387 -14.039040072691094 4 0 1
436 88 1 0 2.1626510144281106 -1.0838450312707106 -14.398148009216506 4 0 1
438 88 3 0 2.1816591374169754 -0.6193023484866025 -14.647800800536128 4 0 1
7728 2416 4 0 2.18398672335805 -0.2696222281681422 -14.836450211067758 3 0 1
439 88 3 0 2.6105989826107816 -1.1641752837218498 -14.137556980419847 4 0 1
2617 713 2 0 6.579171085467223 -1.2970961764388367 -6.237197787348482 4 0 0
2618 713 4 0 6.741121344168942 -1.2331185558356754 -6.723469429712017 4 0 0
1245 255 4 0 8.355044767413478 -0.07139033292799724 -14.695806165976924 3 0 0
3527 1016 4 0 8.306988695290574 -0.11964017735964916 -13.553346686989666 4 0 0
175 35 3 0 9.864386704442087 -0.7225541692669033 -13.766137549992864 4 0 0
2316 612 4 0 9.810335264759903 -0.033150404428205604 -13.667016190123404 3 0 0
7197 2239 4 0 12.159894893453426 -0.5937403666625016 -14.828268969727226 4 0 1
7195 2239 2 0 12.147345540195715 -1.0747270140330158 -14.703288190370245 4 0 1
8280 2600 4 0 12.167594726960026 -0.20484419551929278 -14.84553886599648 4 0 1
8813 2778 4 0 -11.709906943655087 -15.514378515695855 -12.706350134652956 6 1 0
8812 2778 2 0 -11.656820549308597 -15.97396550893562 -12.818336654354763 6 1 0
8814 2778 4 0 -11.577959289539749 -16.48545572908374 -12.930765296511625 6 1 0
9983 3168 4 0 -11.594830103371928 -15.216201159588728 -12.945890181348224 6 1 0
29 6 3 0 6.8382626473280865 -0.9778375025077359 -7.008405789659095 4 0 0
2998 840 2 0 -9.333237256174563 -15.44557931391127 -13.04912696139339 6 1 0
3000 840 4 0 -9.060046565012948 -15.8351297659008 -13.236878071259062 6 1 0
2999 840 4 0 -9.598420260843053 -15.052429598452424 -12.872907635947941 6 1 0
7869 2463 4 0 -8.923680404589316 -16.203150957313838 -13.332799627202112 6 1 1
6765 2095 4 0 -8.685718560030312 -15.886131223965908 -13.346556684073201 6 1 1
6763 2095 2 0 -8.31746200643442 -15.865881823848177 -13.018362865296648 6 1 1
2099 540 4 0 -7.9227633508843365 -15.788819894495719 -12.28216740424689 6 1 0
6764 2095 4 0 -7.9315529528198 -15.839503901371078 -12.682786290949391 6 1 1
7121 2214 4 0 -7.730054729060111 -15.550757694216784 -12.510266405955921 6 1 1
2098 540 2 0 -8.242315409036404 -16.019493579499876 -11.951241795966402 6 1 0
7008 2176 4 0 -7.617872729779101 -15.92717524437732 -12.472885475758762 6 1 1
8499 2673 4 0 -7.582785494316633 -15.67055191199549 -12.152723867925825 6 1 1
7120 2214 2 0 -7.553670601694355 -15.16916287582653 -12.768434954574197 6 1 1
7006 2176 2 0 -7.425157579140187 -16.372992628992545 -12.637624137017916 6 1 1
6441 1987 4 0 -4.595374886644025 -15.844937318992073 -12.074911230123114 6 1 1
6439 1987 2 0 -4.564551746670775 -16.353059487306222 -12.071592470533892 6 1 1
1425 315 4 0 7.608663664442254 -16.051178578634932 -11.795994525312441 1 0 0
1424 315 4 0 7.706452352492292 -16.568188782656932 -12.662864543983568 1 0 0
1423 315 2 0 7.663238959480996 -16.32315328955675 -12.237215850477726 1 0 0
3460 994 2 0 7.827495724096977 -15.253567326117999 -11.980287484807688 1 0 0
8997 2839 4 0 9.878230739573862 -15.593285033096064 -11.747200568393719 11 1 0
1927 483 2 0 -11.633640875005561 -13.576564185104637 -13.226076159632196 6 1 0
9982 3168 2 0 -11.561490475409508 -14.760667774107143 -13.16943873958404 6 1 0
6772 2098 2 0 -9.930880296438449 -14.598818977078293 -13.354017841849986 6 1 1
6774 2098 4 0 -9.80546734879486 -14.716787414483486 -12.869380694336645 6 1 1
7122 2214 4 0 -7.3766199895120526 -14.775487338321906 -13.039386079262254 6 1 1
2298 606 4 0 -6.958277055317897 -14.658163564466575 -13.022810340475406 6 1 0
2296 606 2 0 -6.931385924748291 -14.247927183890376 -13.283224079485498 6 1 0
2297 606 4 0 -6.904227281878601 -13.821046182891646 -13.556817819635333 6 1 0
3461 994 4 0 7.993268467228688 -14.864933792772224 -12.250647559272897 1 0 0
1772 431 4 0 8.190477342292741 -14.503812280153253 -12.306951518847002 1 0 0
1771 431 2 0 8.52816966590834 -14.369486149420498 -11.930973730712633 1 0 0
1929 483 4 0 -11.849983609873053 -13.190128385168384 -12.953540084867438 6 1 0
7808 2443 4 0 -6.797219486771445 -13.45708863938808 -13.458272191997976 6 1 1
11872 3798 2 0 10.63839572161081 -13.524202515068465 -12.330416474848933 3 0 0
11874 3798 4 0 10.832034757252082 -13.609899011609642 -12.772913389764454 3 0 0
10413 3311 4 0 10.001969806706391 -10.99006932201306 -12.053481353640102 3 0 0
10411 3311 2 0 9.798483383758999 -11.434945714487487 -11.981242339736394 3 0 0
8598 2706 4 0 -3.1071693999699264 -6.335533883258178 -12.32322232212196 4 0 0
8596 2706 2 0 -3.0359537327105723 -6.058248717881488 -11.898391280518862 4 0 0
10037 3186 4 0 -2.31119033703043 -4.68728720368747 -12.03361555829356 4 0 0
14769 4763 4 0 3.2881205301174994 -4.900455230541549 -12.326941728189466 4 0 1
10497 3339 4 0 3.509277156942602 -5.143040495707417 -12.575596058438434 4 0 0
9657 3059 4 0 3.348406593454083 -5.302571127684487 -12.248704432668962 4 0 0
10495 3339 2 0 3.9675914168567736 -4.891276439450621 -12.571833695281667 4 0 0
10496 3339 4 0 4.3800892667236795 -4.644799897611776 -12.564120034099284 4 0 0
10907 3476 4 0 -6.171029357217796 -4.2650687476937374 -11.968074321107146 4 0 0
10521 3347 4 0 -1.959587004755436 -4.76443994639668 -12.243890830422298 4 0 0
10519 3347 2 0 -1.5919079403179754 -4.379923759618489 -12.218882306055193 4 0 0
10520 3347 4 0 -1.2071081690781238 -3.9915105465108542 -12.186949211671038 4 0 0
8615 2712 4 0 -0.8652287458431402 -3.776568487561761 -12.250435989693107 4 0 0
10359 3293 4 0 -1.04687139795341 -3.7757364633765143 -11.90373034600359 4 0 0
8614 2712 2 0 -0.46471600388004575 -3.538043942144812 -12.422965376851536 4 0 0
8616 2712 4 0 -0.039982707656655236 -3.2862343435790855 -12.610750207133806 4 0 0
9092 2871 4 0 0.3101055354965965 -3.4228555387564175 -12.508634310528548 4 0 0
9091 2871 2 0 0.689670521875339 -3.581243926555601 -12.234603768103074 4 0 0
9093 2871 4 0 1.0760023335600373 -3.739973200417843 -11.94958055940315 4 0 0
14767 4763 2 0 2.9939003343810136 -4.532466558213287 -12.155788650544705 4 0 1
8632 2718 2 0 2.8021649238406887 -3.4496289439400947 -12.243022104357674 4 0 0
14768 4763 4 0 2.6992663732478235 -4.163575377676231 -11.97071419305767 4 0 1
8634 2718 4 0 3.0871333746905414 -3.0632755975660277 -12.474706112137907 4 0 0
8633 2718 4 0 2.5277779140966388 -3.8118754589750843 -12.02351470523316 4 0 0
7418 2313 4 0 -1.1776341874545846 -2.8543729694227853 -13.265480558837393 4 0 1
7417 2313 2 0 -0.9597832077723645 -2.3970222686141085 -13.278099669183117 4 0 1
7419 2313 4 0 -0.7515894223811976 -1.9528813478440927 -13.288385589686328 4 0 1
6981 2167 4 0 -0.5077633202925114 -1.6440624456840496 -13.150159607817882 4 0 1
6979 2167 2 0 -0.07241988497151297 -1.7151600101539817 -12.910702701305318 4 0 1
7079 2200 4 0 -0.8053037609720679 -1.5621812250890503 -13.37285610073086 4 0 1
688 138 3 0 0.26291195181278226 -3.029672214194978 -12.485353658724765 4 0 0
6126 1882 4 0 1.1321661863581802 -3.0281834991165333 -13.25220989296279 4 0 1
687 138 3 0 0.1686151964755389 -2.613896511881668 -13.220348977028126 4 0 0
6980 2167 4 0 0.3703145241446997 -1.784852070299154 -12.663337935834107 4 0 1
9653 3058 4 0 0.36969054686137426 -1.887839954980194 -12.291055691811462 12 1 0
686 138 1 0 0.457104159973202 -2.6671199826670318 -12.812079493738244 4 0 0
690 138 3 0 0.48231125819122056 -2.1867934592024127 -12.551449531532828 4 0 0
9521 3014 4 0 0.7167795268364756 -1.8786338462282668 -12.475250619212835 4 0 0
689 138 3 0 0.9285706827726941 -2.8081700760161414 -12.962941818014858 4 0 0
9520 3014 2 0 1.1813331438045367 -2.01485703960463 -12.213049568635844 4 0 0
1898 473 4 0 0.6992914858672599 -1.6246389732961255 -12.778422826638964 4 0 0
3174 898 4 0 0.5352151248083459 -1.536332426234802 -12.425404349368508 4 0 0
9522 3014 4 0 1.6013041552652396 -2.1638556223349177 -11.967873720642435 4 0 0
2311 611 2 0 8.388844019882875 -1.834589654536174 -12.092820339295042 4 0 0
2313 611 4 0 8.41939843021579 -1.9318499013574595 -12.57854020128787 4 0 0
1341 287 4 0 8.738409843978957 -1.8171027271735198 -12.800151054865278 4 0 0
6444 1988 4 0 9.968644499508308 -2.133815236663036 -13.260536542798608 4 0 1
6442 1988 2 0 10.059809837567414 -1.6429015989664428 -13.128446844016919 4 0 1
8098 2540 2 0 10.180112119082565 -2.1281097131937976 -11.964713449639568 4 0 1
8099 2540 4 0 10.389675486448645 -2.5291687287488163 -12.215400647955386 4 0 1
6516 2012 4 0 10.66940583708637 -2.4454391553773753 -12.482673172352392 4 0 1
6514 2012 2 0 11.023208574784196 -2.364952718328354 -12.820956618951595 4 0 1
6515 2012 4 0 11.393935299143113 -2.279656218714866 -13.179874675647286 4 0 1
6791 2104 4 0 11.75593918696033 -2.2264621072600086 -13.024234184990613 4 0 1
6790 2104 2 0 11.9752373140056 -1.9145130956766643 -12.701149366184245 4 0 1
6792 2104 4 0 12.206920316633099 -1.595131817930394 -12.362938252565101 4 0 1
7473 2331 4 0 -1.6399787468847364 -0.6373192664040612 -12.855144240580469 4 0 1
7471 2331 2 0 -1.815361037763708 -0.14580462534598482 -12.948445629063082 4 0 1
7080 2200 4 0 -1.4628805757750545 -0.9808634545551982 -12.868699804073692 4 0 1
15261 4927 4 0 -1.3862394066761645 -0.7570991550255215 -12.54775448064474 4 0 1
7078 2200 2 0 -1.1225158737085934 -1.2821045285466592 -13.132917751469641 4 0 1
15259 4927 2 0 -0.9803544118248038 -0.5043274125188617 -12.385539990427247 4 0 1
15260 4927 4 0 -0.5843952704847482 -0.24461063689188833 -12.227999815697036 4 0 1
8130 2550 4 0 -0.38533877346798207 -0.2500530941374741 -12.590111312606561 4 0 1
188 38 3 0 -0.27415918218560265 -0.47489973077658476 -12.285622659953347 4 0 0
8128 2550 2 0 -0.23176172957445118 -0.13481346113174197 -13.091319355453999 4 0 1
186 38 1 0 -0.04505722014635083 -0.11497392477958002 -11.991707540817526 4 0 0
3172 898 2 0 0.5411200074774669 -1.0498363904705936 -12.212176692407063 4 0 0
1897 473 2 0 1.0193957358819539 -1.4376184691925644 -13.163325697558163 4 0 0
3173 898 4 0 0.5348982145573764 -0.5659149495915372 -11.997835202966229 4 0 0
26 6 1 0 6.6342237477476225 -0.4722111302277625 -6.903598207288603 4 0 0
6490 2004 2 0 2.046748225271571 -0.8756976805694254 -13.324469212685727 4 0 1
6492 2004 4 0 2.3798017981709414 -0.6289163610354755 -13.021266878819922 4 0 1
1265 262 4 0 2.303852608596589 -0.24870925760187035 -12.991207453722657 4 0 0
1635 385 4 0 2.634289195654958 -0.3586209367607367 -13.141470503335372 4 0 0
3526 1016 2 0 8.676059003097997 -0.37347252255463204 -13.280290364587872 4 0 0
1339 287 2 0 8.958409385749341 -1.3733866951054061 -12.896096685463306 4 0 0
3528 1016 4 0 9.010043455055492 -0.6099637744143696 -13.024759301415676 4 0 0
1340 287 4 0 9.160519815274906 -0.9705292991139789 -12.985810980510765 4 0 0
1854 458 4 0 9.260846916427713 -0.6674843573311797 -12.718879482770474 4 0 0
1852 458 2 0 9.308282412555343 -0.30508812971667965 -12.390357189602389 4 0 0
173 35 3 0 9.420812055817393 -0.6919692539343494 -13.083744517248123 4 0 0
174 35 3 0 9.891849552512976 -0.03395203532349811 -13.294406426555437 4 0 0
171 35 1 0 9.853921367117987 -0.5586082875607588 -13.295278789568009 4 0 0
6443 1988 4 0 10.14858617910852 -1.1597827014168054 -12.985439145503976 4 0 1
172 35 3 0 10.243645291681613 -0.7703061414098933 -13.02663949702587 4 0 0
7500 2340 4 0 10.147513505751853 -0.935131297934582 -12.666962311249721 4 0 1
7498 2340 2 0 10.062357780741419 -1.095811339568403 -12.18219352455038 4 0 1
8207 2576 4 0 10.499700615731818 -1.0370344642697855 -12.874807131180647 4 0 1
7439 2320 4 0 12.072131275196842 -1.4929509550469415 -12.021628246328955 4 0 1
8206 2576 2 0 10.949922647176976 -0.7801177823805112 -12.86261393287502 4 0 1
8208 2576 4 0 11.416553633544058 -0.5126932153404056 -12.847893223142353 4 0 1
8052 2524 4 0 11.591923915833224 -0.14961143150447498 -12.768878499332724 4 0 1
7052 2191 4 0 11.641724764864527 -0.3256142669251183 -13.109296642983827 4 0 1
8232 2584 4 0 11.80184400346204 -0.4736491113501877 -12.797990062167434 4 0 1
8230 2584 2 0 11.997472700611606 -0.82814290916623 -12.541916034629255 4 0 1
3408 976 4 0 12.491778250187966 -1.4816132448346373 -12.092420981390333 4 0 0
8231 2584 4 0 12.20652193408052 -1.2135768267971816 -12.268951785599308 4 0 1
3406 976 2 0 12.828131171058395 -1.2032858771274704 -11.85875142154731 4 0 0
493 99 3 0 -10.568144314455267 -16.083502976064523 -10.778498838065715 6 1 1
491 99 1 0 -10.223627080121803 -16.39300109255327 -10.559261215649196 6 1 1
495 99 3 0 -9.838132291616994 -16.1124072701525 -10.372684656142521 6 1 1
2667 729 4 0 -8.853101127771584 -16.431196599382456 -11.423179723328131 6 1 0
2100 540 4 0 -8.567630447271759 -16.246511339450134 -11.629506811449577 6 1 0
1421 314 4 0 -8.47694566397712 -16.454364730152815 -11.312685107560325 6 1 0
1420 314 2 0 -8.449519554650823 -16.231198676771378 -10.84304738846703 6 1 0
1422 314 4 0 -8.441973278128568 -16.00582722357409 -10.36276313015121 6 1 0
8497 2673 2 0 -7.267975333356 -15.54379814689509 -11.742452288833693 6 1 1
7765 2429 2 0 -7.0765811311957485 -15.712138723538722 -10.506333169785135 6 1 1
7766 2429 4 0 -7.010120299166633 -15.586130109730114 -10.99081539395984 6 1 1
8498 2673 4 0 -6.959349806231721 -15.43221590998669 -11.343809291840243 6 1 1
6650 2057 4 0 -6.6732842778747035 -15.670816652565108 -11.189969490831535 6 1 1
6470 1997 4 0 -6.754222230414783 -15.301317266243725 -11.013198913790974 6 1 1
6649 2057 2 0 -6.169865279220797 -15.806114212455311 -11.140202440347759 6 1 1
6651 2057 4 0 -5.670845329547063 -15.936367851720028 -11.092462965582659 6 1 1
7260 2260 4 0 -5.447064406441566 -16.111607832341083 -10.848779749935877 6 1 1
2558 693 4 0 -5.339625545324553 -15.76269506340371 -10.941606122609905 6 1 0
2557 693 2 0 -5.10667305199723 -15.71760161917344 -11.394851604379847 6 1 0
7258 2260 2 0 -5.393757682397883 -16.5299316433481 -10.556235601598539 6 1 1
2559 693 4 0 -4.870956960195521 -15.678573810091674 -11.855906066820445 6 1 0
1272 264 4 0 -1.6261689830628576 -16.47194587301244 -11.643672140938502 6 1 0
7257 2259 4 0 -1.615830792407893 -16.041740320025195 -10.364385118325247 6 1 1
30 6 3 0 6.522081071483857 -0.42726651070196553 -6.435212036189954 4 0 0
1270 264 2 0 -1.5255910410415918 -16.273389797851117 -11.190812344105467 6 1 0
1271 264 4 0 -1.4230031816448943 -16.065356651976003 -10.706071680733722 6 1 0
1473 331 4 0 -1.2355532231496653 -15.890248685020362 -10.40797881021348 6 1 0
2090 537 4 0 5.776078139348723 -15.375494979294515 -10.399241809355459 1 0 0
2089 537 2 0 5.861128089976269 -15.456164216786611 -10.899710597113264 1 0 0
2091 537 4 0 5.959532378858512 -15.537074686172293 -11.399370337833533 1 0 0
2474 665 4 0 6.372733079311541 -15.584769771562605 -11.463933109565136 1 0 0
2473 665 2 0 6.831896810815042 -15.723139984798534 -11.530912595874373 1 0 0
2475 665 4 0 7.312711655330116 -15.873113148590685 -11.590176225340722 1 0 0
2747 756 4 0 7.440672171638038 -16.232825391775993 -11.48579950367032 1 0 0
3285 935 4 0 6.331635451684068 -1.0019606628404478 -5.5879855216253915 4 0 0
3462 994 4 0 7.658106420456704 -15.658958996177573 -11.71428282513319 1 0 0
5854 1792 2 0 7.888785203546661 -15.760130250433134 -11.036173949853778 1 0 0
5855 1792 4 0 7.687486816841496 -15.945706837460683 -11.448470918354113 1 0 0
2000 507 4 0 7.915794664563233 -15.2683097515875 -10.460365572757388 1 0 0
5856 1792 4 0 8.097514952602179 -15.565935263958718 -10.613158507614704 1 0 0
8937 2819 4 0 8.274310436648541 -15.204575616931177 -10.630388933182978 11 1 0
12201 3907 4 0 8.29863494560227 -15.783633331922234 -10.346195702081683 11 1 0
10362 3294 4 0 8.242482456382529 -15.386281329918774 -10.286794843425303 11 1 0
12199 3907 2 0 8.531162047239693 -16.259217098377288 -10.27263309380108 11 1 0
2754 758 4 0 7.919335700277209 -15.623666143841913 -10.281616296755292 1 0 0
8995 2839 2 0 9.67176694786458 -16.037463749309897 -11.659195420463197 11 1 0
8996 2839 4 0 9.49853735678305 -16.498002762291705 -11.565286139985211 11 1 0
9962 3161 4 0 9.706351052809762 -15.266906494246472 -11.639420220866793 11 1 0
8910 2810 4 0 12.75306925385998 -16.561894431182843 -10.380572053131864 11 1 0
12580 4034 2 0 14.208339793566026 -16.527930154142716 -10.75634653208143 11 1 0
4839 1453 4 0 14.777532702960333 -15.981063098777273 -10.95545143982543 3 0 0
12581 4034 4 0 14.411589958136183 -16.06650246532949 -10.845978599546093 11 1 0
11417 3646 4 0 14.519023407610202 -15.710327376145163 -10.992733091921275 11 1 0
11416 3646 2 0 14.072774322550874 -15.50264811010161 -11.183975869588172 11 1 0
1325 282 4 0 14.61885549680455 -15.79655427790606 -10.628615347955844 3 0 0
4837 1453 2 0 15.284794615043225 -16.083074318492386 -11.00474498754985 3 0 0
4838 1453 4 0 15.78903302647031 -16.19187057646996 -11.06325706374208 3 0 0
6469 1997 2 0 -6.662073864114092 -14.823393850328092 -11.05946312679528 6 1 1
6471 1997 4 0 -6.572047490335555 -14.35762726924257 -11.100867298393862 6 1 1
7381 2301 2 0 0.21325688006400867 -15.022643249256262 -10.332773820712845 6 1 1
7382 2301 4 0 0.5153551272589176 -14.980226693669751 -10.698851878806199 6 1 1
6191 1904 4 0 4.0854322201808735 -14.993227752998614 -10.488172240187838 6 1 1
2001 507 4 0 7.161382275226369 -14.557694301490029 -10.403082229312142 1 0 0
8935 2819 2 0 8.53029895448951 -14.847173345537897 -10.94620852492242 11 1 0
8936 2819 4 0 8.76691466937433 -14.501378666473519 -11.265780100390938 11 1 0
1773 431 4 0 8.846485212976223 -14.251850384526456 -11.577429121115708 1 0 0
10785 3435 4 0 8.865723225541085 -13.873662331175659 -11.463665005638367 11 1 0
1999 507 2 0 7.535113163157199 -14.913926484802255 -10.436374822340346 1 0 0
1647 389 4 0 8.98364770673945 -14.173260530063844 -11.236630124370947 1 0 0
9963 3161 4 0 9.138942943512198 -14.450699801125626 -11.440370257762744 11 1 0
9065 2862 4 0 9.18313568577388 -14.073431020230128 -11.574267121494383 11 1 0
1645 389 2 0 9.21430989348568 -14.0759902462029 -10.777183240245805 1 0 0
9961 3161 2 0 9.429737884588192 -14.868196549250912 -11.54381003596701 11 1 0
9064 2862 2 0 9.635864252040868 -13.785400136265734 -11.698753304664995 11 1 0
1646 389 4 0 9.435850995052022 -13.984699315626283 -10.32928989361574 1 0 0
9425 2982 4 0 11.160611330941581 -13.598301058399448 -10.538512938040448 3 0 0
11418 3646 4 0 13.65957267221727 -15.328403968372076 -11.383405867735641 11 1 0
4996 1506 2 0 8.343434104427903 -12.453306177464743 -10.540394618985367 1 0 0
4997 1506 4 0 8.427263472558042 -12.564241340529597 -11.036706287197113 1 0 0
10784 3435 4 0 8.479431910408838 -12.93484364053213 -11.247198117917424 11 1 0
10783 3435 2 0 8.670269934171454 -13.389826388038102 -11.354885682341902 11 1 0
11873 3798 4 0 10.43914307092092 -13.433573833998643 -11.863296407901238 3 0 0
11112 3544 4 0 10.151775735864987 -13.133622840660774 -11.769927907197562 3 0 0
9066 2862 4 0 10.061168839537192 -13.51589201779383 -11.803754858445524 11 1 0
11111 3544 4 0 9.819337209152984 -12.201076855632728 -11.972812703293574 3 0 0
11110 3544 2 0 9.97880731862718 -12.667230644320329 -11.864926743414014 3 0 0
10584 3368 4 0 10.293041312341519 -13.403050934421419 -11.515964325312936 3 0 0
10582 3368 2 0 10.610933612994021 -13.356912487656258 -11.108090974759676 3 0 0
10583 3368 4 0 10.913288320580943 -13.31058201332845 -10.695893043777613 3 0 0
10319 3280 4 0 11.100604988498905 -13.255270761905049 -10.362000484385876 3 0 0
10412 3311 4 0 9.602794605636962 -11.864971383471477 -11.91176172487492 3 0 0
9701 3074 4 0 12.961656357156183 -11.464715009627653 -10.42893012565315 11 1 0
13028 4183 4 0 13.206099865931844 -11.152785289407277 -10.350195412031715 11 1 0
769 154 3 0 -1.8616147787101802 -8.023667586681665 -10.431545229298331 4 0 0
9449 2990 4 0 -5.791825198797152 -7.531658910963511 -10.59334207209504 4 0 0
8681 2734 4 0 -3.461725980895741 -6.960857778980856 -10.51967035116026 4 0 0
8544 2688 4 0 -3.548827873830758 -6.58340481620893 -10.576244199329953 4 0 0