LAMMPS data file via write_data, version 2 Aug 2023, timestep = 2000000, units = lj

15885 atoms
4 atom types
10750 bonds
1 bond types
6335 angles
2 angle types

-16.594292 16.594292 xlo xhi
-16.594292 16.594292 ylo yhi
-16.594292 16.594292 zlo zhi
4.263256414560601e-14 0 0 xy xz yz

Masses

1 1
2 1
3 1
4 1

Bond Coeffs # harmonic

1 100 0.5

Angle Coeffs # harmonic

1 100 180
2 100 109.471

Atoms # full

1269 263 4 0 -16.30811700886102 -13.46831148544537 -15.194518947221486 3 0 0
1267 263 2 0 -16.48757971512545 -13.019896375712024 -15.192194344967334 3 0 0
2334 618 4 0 -11.645849689427475 -12.281923614244375 -15.240285634804989 3 0 0
574 115 3 0 -7.556903942622666 -12.20074854143858 -15.318439900613688 3 0 1
3528 1016 4 0 16.184875697733087 -12.379843442478201 -15.201450238509382 2 0 0
1854 458 4 0 16.550646081493564 -12.19921358423808 -15.116544097218053 2 0 0
3526 1016 2 0 15.795054819970904 -12.252096659261934 -15.496434388615626 2 0 0
3527 1016 4 0 15.38152436939707 -12.121258338595132 -15.802372084742128 2 0 0
1268 263 4 0 16.524915262227015 -12.576180541622193 -15.163596077288119 2 0 0
1244 255 4 0 15.383313073034401 -12.053585928338586 -16.195121694062603 1 0 0
1350 290 4 0 -16.136675330264985 -10.879441372692584 -15.20199323231767 3 0 0
1348 290 2 0 -15.915443354788952 -10.806541634702597 -15.673005077276317 3 0 0
1349 290 4 0 -15.6969672599285 -10.736824546998541 -16.15537356845725 3 0 0
1853 458 4 0 -16.338388617602597 -11.22211702754967 -15.171273814238889 3 0 0
3483 1001 4 0 -16.495496127880067 -10.87228031533357 -15.12503028599876 2 0 0
1852 458 2 0 -16.493985566668112 -11.722767567030338 -15.144246649287902 3 0 0
2306 609 4 0 -15.981725223942378 -10.577466373121073 -16.405365907879773 3 0 0
1964 495 4 0 -15.9459934259564 -11.19118825239122 -15.073590818903781 3 0 0
1441 321 2 0 -12.82364971815672 -10.761106479937284 -15.418190334135861 3 0 0
1442 321 4 0 -12.626870343700645 -11.055526242995922 -15.771734656578415 3 0 0
3485 1002 4 0 -12.45718760649378 -10.93522779488389 -16.11826406697615 3 0 0
3537 1019 4 0 -12.288997194529681 -11.22307156461337 -15.886619992647606 3 0 0
3484 1002 2 0 -12.465330531869943 -10.590166278038307 -16.50899442478214 3 0 0
3535 1019 2 0 -12.094776891172856 -11.662654561828202 -15.701238363637948 3 0 0
3536 1019 4 0 -11.901110339571053 -12.105771419881869 -15.509089841065741 3 0 0
7559 2360 4 0 -10.264945371711065 -10.777803369964683 -15.372345858344248 3 0 1
7247 2256 4 0 -9.91244557345438 -10.62089370073058 -15.320646670996085 3 0 1
7246 2256 2 0 -9.443047238959466 -10.670470969818444 -15.102406709998661 3 0 1
7330 2284 2 0 -8.168372967514586 -10.811674703516715 -16.365846742473607 3 0 1
7332 2284 4 0 -8.667648938706163 -10.823209030444088 -16.513727793739214 3 0 1
7331 2284 4 0 -7.686325534209185 -10.793875593594752 -16.212130892379392 3 0 1
7502 2341 4 0 -7.393691349294738 -11.208396191260864 -15.182629592838865 3 0 1
7501 2341 2 0 -7.348953783677917 -11.028097377733019 -15.632037110786436 3 0 1
7503 2341 4 0 -7.302600144473082 -10.813527945869062 -16.138733182923097 3 0 1
7157 2226 4 0 -7.450497068382672 -10.706496110172282 -16.51301563959198 3 0 1
575 115 3 0 -6.850150211165957 -11.784396885523895 -15.118311894842043 3 0 1
7352 2291 4 0 -6.453877856547402 -11.808554030798009 -15.099883072004106 3 0 1
6331 1951 2 0 13.814156887015823 -11.14204365904327 -16.21364626069725 1 0 1
6332 1951 4 0 13.916847992607412 -11.27397012651157 -15.750825564836044 1 0 1
1314 278 4 0 14.048205882964812 -11.130753460415578 -15.415652934961239 1 0 0
1312 278 2 0 14.229814904419356 -10.659741603584425 -15.301418729963386 1 0 0
2448 656 4 0 14.261125920000751 -11.403728482556337 -15.600491835641778 2 0 0
2446 656 2 0 14.67460338993078 -11.677808166144999 -15.780349429444621 2 0 0
2447 656 4 0 15.08300576233906 -11.941065381974939 -15.95471583809509 2 0 0
3426 982 4 0 15.575419971738864 -10.88377253292047 -15.88518649002551 1 0 0
3482 1001 4 0 15.744357209257483 -10.773815337334547 -15.519381941572421 1 0 0
3424 982 2 0 15.78021550742049 -10.947889274063476 -16.332012676596197 1 0 0
3481 1001 2 0 16.191729473856473 -10.82170783647117 -15.341989014135873 1 0 0
3321 947 4 0 -16.1997612159985 -9.127265056547484 -15.527497561544498 2 0 0
3319 947 2 0 -15.73428670233396 -9.149603096689617 -15.65426129526099 2 0 0
3308 943 4 0 -15.60303752545718 -10.490106591852763 -16.450636317895473 3 0 0
3068 863 4 0 -16.362623557113285 -10.493031860594472 -15.164880250320044 2 0 0
3067 863 2 0 -16.42279871132404 -9.90869878629445 -15.30889637885196 2 0 0
3069 863 4 0 -16.482100258023465 -9.395250642737189 -15.434872492962562 2 0 0
7265 2262 4 0 -16.453775650713215 -9.08796610898808 -15.21708256433354 2 0 1
3320 947 4 0 -15.24570808840759 -9.17040484112759 -15.786240825249072 2 0 0
3566 1029 4 0 -13.668621160950327 -9.343580595363129 -15.253477514438025 3 0 0
2690 737 4 0 -13.427125977037159 -9.045316042129079 -15.37845040895126 3 0 0
3565 1029 2 0 -13.5119697443434 -9.795865727739349 -15.17575939569601 3 0 0
3407 976 4 0 -10.232797093143907 -10.398650423641906 -15.505838329785423 3 0 0
3406 976 2 0 -10.01289892904347 -9.99352318364004 -15.730039259300597 3 0 0
3408 976 4 0 -9.795046217015695 -9.6035231598726 -15.9628674275656 3 0 0
6792 2104 4 0 -9.505027444377536 -9.483547242986358 -16.21217422274065 3 0 1
8231 2584 4 0 -9.456934925139588 -9.861386437058586 -16.09110217156956 3 0 1
7439 2320 4 0 -9.44472439360117 -9.576497527387566 -15.816169132053439 3 0 1
7438 2320 2 0 -9.126582333410017 -9.322460676410536 -15.50834255754854 3 0 1
8232 2584 4 0 -8.651452138143647 -10.505132553604401 -16.23387481446446 3 0 1
8230 2584 2 0 -9.04238320505874 -10.195184495539912 -16.162602773466876 3 0 1
6558 2026 4 0 -8.455035620392763 -9.24352785983098 -15.247917241906451 3 0 1
7440 2320 4 0 -8.812139056603193 -9.083149203519469 -15.221563973212533 3 0 1
6556 2026 2 0 -7.9457488944105314 -9.298110990290464 -15.339006236284208 3 0 1
6488 2003 4 0 -7.323636010677117 -9.514359879615617 -15.785582151745796 3 0 1
6489 2003 4 0 -7.474351775652908 -10.468842137159884 -16.194377188151755 3 0 1
6487 2003 2 0 -7.398086703307138 -9.983853384675417 -15.99069739383885 3 0 1
7412 2311 4 0 -7.066656842335686 -9.414582681007444 -15.531247453242061 3 0 1
6557 2026 4 0 -7.4463064967759 -9.344886947122484 -15.43965978573707 3 0 1
6117 1879 4 0 -7.254788565709928 -9.11802315806997 -15.71335363909284 3 0 1
7411 2311 2 0 -6.575549238121111 -9.532959422519916 -15.415334634455359 3 0 1
7413 2311 4 0 -6.096643197798548 -9.639073143453144 -15.303476772297833 3 0 1
7316 2279 4 0 -7.158223427427373 -9.085865883810602 -15.323481119900562 3 0 1
8295 2605 4 0 -5.732162770250245 -9.613722996892557 -15.155699530958579 3 0 1
8293 2605 2 0 -5.504828650805585 -9.1533023839818 -15.208231137369099 3 0 1
8110 2544 2 0 14.248416291790058 -9.290153970759889 -16.392623612097537 1 0 1
94 19 3 0 14.269219367254976 -9.206547874764947 -15.63588412435241 1 0 0
1313 278 4 0 14.421002568936863 -10.191247939525448 -15.18333726337506 1 0 0
91 19 1 0 14.500784959581186 -9.559463635951404 -15.322425309674571 1 0 0
92 19 3 0 14.509710350506815 -10.014156309075654 -15.548049952823431 1 0 0
3012 844 4 0 14.765623249580138 -10.220169569028236 -15.36742664428052 2 0 0
93 19 3 0 14.97643618215486 -9.418608341709863 -15.230330933356642 1 0 0
3010 844 2 0 15.218449971477835 -10.365665480303681 -15.578467667088514 2 0 0
3198 906 4 0 15.36181036916864 -9.429488629450866 -15.105944460396413 1 0 0
3011 844 4 0 15.65206898685425 -10.508566843359635 -15.799717328151107 2 0 0
3196 906 2 0 15.877479997299925 -9.31367515062692 -15.221118425289346 1 0 0
3197 906 4 0 16.373121577872478 -9.214960205729868 -15.328632584716798 1 0 0
129 26 3 0 -16.56726550991423 -9.04621703080119 -15.598876922467847 2 0 0
127 26 3 0 -16.230037812632983 -8.548752438998665 -16.160425826325998 2 0 0
8475 2665 4 0 -15.95806152045624 -8.39231645893969 -16.40867519845004 2 0 1
8473 2665 2 0 -15.551433307918277 -8.045241255160635 -16.49608935710553 2 0 1
2219 580 4 0 -15.224494045504027 -8.767707809026499 -15.758989397376475 2 0 0
2418 646 4 0 16.561124422174874 -7.8672150285501985 -15.671079715665881 1 0 0
8474 2665 4 0 -15.137544366514394 -7.691413356209964 -16.571614716040088 2 0 1
2066 529 4 0 -16.2296463894225 -8.692971806709126 -16.49339423209384 3 0 0
2218 580 2 0 -14.851851551559529 -8.54709246609619 -15.505536652338598 2 0 0
2220 580 4 0 -14.484430382947568 -8.334184904448163 -15.263324059595595 2 0 0
2291 604 4 0 -14.179203958793789 -8.106573341350062 -15.404030485720028 2 0 0
502 101 3 0 -14.075099817029585 -7.770015361607836 -16.3409529950306 2 0 1
2290 604 2 0 -13.92515911547998 -7.966039464978639 -15.81765265777583 2 0 0
2292 604 4 0 -13.670757383123915 -7.837809849719708 -16.224816864653725 2 0 0
1343 288 4 0 -14.426945639181147 -7.9740321043338955 -15.127457667653601 2 0 0
2199 573 4 0 -14.198298759472472 -8.285836961121266 -15.001977323185656 3 0 0
2197 573 2 0 -13.840351918432113 -8.677245298143045 -15.000505972689345 3 0 0
2689 737 2 0 -13.282360785193562 -8.951130393361307 -15.870136052664716 3 0 0
465 93 3 0 -13.285190047692472 -7.906932878951716 -16.266127138426583 2 0 1
461 93 1 0 -12.879897459787886 -8.117799198038744 -16.423526412778454 2 0 1
464 93 3 0 -12.568752624178229 -8.1268241245666 -16.067289349016285 2 0 1
2691 737 4 0 -13.14630708450109 -8.849153324747688 -16.350471501887288 3 0 0
8456 2659 4 0 -12.277204944494152 -8.082850363779665 -15.802474565375135 2 0 1
463 93 3 0 -12.983462319602912 -8.561536012908942 -16.558731203738716 2 0 1
8455 2659 2 0 -11.815410865539448 -8.163539897282655 -15.924531321327054 2 0 1
8457 2659 4 0 -11.309047673629372 -8.253759630300316 -16.067536534705162 2 0 1
15483 5001 4 0 -10.973125263232145 -8.222167709240574 -16.29835788436606 12 1 1
7058 2193 4 0 -11.17582316068831 -8.58541408884359 -16.206221256051236 2 0 1
6906 2142 4 0 -10.970814123225463 -8.388164841984699 -15.940360475111675 2 0 1
7057 2193 2 0 -11.298084950077113 -8.929367333596913 -16.561266896605765 2 0 1
6904 2142 2 0 -10.591039641356911 -8.12404813468426 -15.779653707399152 2 0 1
6905 2142 4 0 -10.194373679732536 -7.8641596830624145 -15.60549532154483 2 0 1
1739 420 4 0 -10.140453358355526 -7.780559506574939 -15.23446892952563 3 0 0
8279 2600 4 0 -9.907368592766863 -7.723208510719182 -15.825512207273466 3 0 1
7053 2191 4 0 -9.813040562585972 -7.833618990976369 -15.460067480136752 3 0 1
8278 2600 2 0 -9.70881967120499 -7.615743217094444 -16.28843989320076 3 0 1
7051 2191 2 0 -9.31621265800015 -7.868534297559734 -15.297801598905453 3 0 1
6750 2090 4 0 -10.041000613188395 -7.516029884983574 -15.507439326762837 3 0 1
7052 2191 4 0 -8.828236608991899 -7.901723023929808 -15.138650487444485 3 0 1
6084 1868 4 0 -8.601860383912777 -7.56759872841921 -15.145701117393646 3 0 1
8052 2524 4 0 -8.416212515117424 -7.907446694977182 -15.107396807113503 3 0 1
6115 1879 2 0 -7.179469511166763 -8.942846450298635 -16.203630513728484 3 0 1
7315 2279 2 0 -7.126583760435654 -8.644302258395209 -15.10159198225747 3 0 1
3034 852 2 0 -6.698119547726716 -7.667421504259458 -15.191685080638017 3 0 0
7298 2273 4 0 -6.394580360977354 -7.658127995696487 -15.88095699205985 3 0 1
1917 479 4 0 -6.024928661987056 -7.699449346044458 -15.703545049612774 3 0 0
1915 479 2 0 -5.753152929307468 -8.106328683153311 -15.588788548282091 3 0 0
8294 2605 4 0 -5.27558914209445 -8.701413607591942 -15.255143263026362 3 0 1
1916 479 4 0 -5.497871569142504 -8.485487063500774 -15.485899399519855 3 0 0
8111 2544 4 0 14.284015657790512 -8.9959618363968 -15.976871308558351 1 0 1
2 1 3 0 14.133282633721858 -7.8828402289464385 -15.959219515032968 1 0 0
5 1 3 0 14.479598833623147 -8.639169998351226 -15.980572413459615 1 0 0
1 1 1 0 14.574145824995792 -8.131696717643981 -15.96675210411915 1 0 0
3 1 3 0 14.847867960646543 -7.987648397408986 -16.3550087722163 1 0 0
4 1 3 0 14.863832978138579 -8.007868108357716 -15.495829041454263 1 0 0
2534 685 4 0 14.892800947523494 -7.755665231967376 -15.21761244592353 1 0 0
3332 951 4 0 14.950525705129785 -8.142521314611464 -15.139344351593278 1 0 0
3331 951 2 0 15.029796332930577 -8.634060326558624 -15.048798649831445 1 0 0
126 26 1 0 16.548275404360897 -8.638996740847338 -15.9209178997813 1 0 0
7365 2295 4 0 15.227922464731858 -7.936213638359963 -15.331217451621526 1 0 1
7363 2295 2 0 15.708165576003271 -7.942011727879851 -15.527520031307285 1 0 1
7364 2295 4 0 16.160094139956026 -7.9437785233412015 -15.715320401024712 1 0 1
128 26 3 0 16.190486599663085 -8.741504304431764 -16.241900772257292 1 0 0
130 26 3 0 16.41666803650561 -8.223110121399188 -15.63150797754194 1 0 0
2416 646 2 0 -16.242640172446965 -7.528247747713184 -15.640066495975825 2 0 0
2417 646 4 0 -15.85561476284315 -7.18676055640487 -15.618807775485427 2 0 0
7209 2243 4 0 -15.692678555897196 -6.829232317406099 -15.809715356076428 2 0 1
2565 695 4 0 -15.725391366937105 -6.86017724876756 -15.430380323390724 2 0 0
7207 2243 2 0 -15.353014184014848 -7.083674258678229 -16.0760878428308 2 0 1
7208 2243 4 0 -15.000462431092988 -7.3460913379985975 -16.35455569834406 2 0 1
6749 2090 4 0 -10.04274414768357 -6.561647598350575 -15.29559973683868 3 0 1
6748 2090 2 0 -10.041937414722302 -7.040087211595585 -15.401510309155123 3 0 1
6965 2162 4 0 -9.763173066195122 -6.25549634400803 -15.25820628944131 3 0 1
6964 2162 2 0 -9.267532710606122 -6.280014339833867 -15.37248014004063 3 0 1
6966 2162 4 0 -8.76573411888389 -6.318982980544261 -15.499537959598001 3 0 1
7267 2263 2 0 -8.511047375275394 -6.529762681671336 -16.2402364534553 3 0 1
6082 1868 2 0 -8.533696005486364 -7.082597160811018 -15.259178690098521 3 0 1
6083 1868 4 0 -8.469336781821866 -6.593989626858178 -15.385186450519777 3 0 1
7268 2263 4 0 -8.469350230412454 -6.386138111838241 -15.725309336591486 3 0 1
7755 2425 4 0 -8.46448106572498 -6.209915072151944 -15.312343104056724 3 0 1
7826 2449 4 0 -8.143138049318889 -6.390212655152519 -15.478009574476834 3 0 1
7825 2449 2 0 -7.688790684667072 -6.1634029087322215 -15.659959717491994 3 0 1
3035 852 4 0 -6.328905579285378 -7.5274604288518905 -15.515846891364129 3 0 0
7243 2255 2 0 -6.961584664471511 -6.426399322943645 -16.39558414738001 3 0 1
7297 2273 2 0 -6.632782491272245 -7.455429007692732 -16.276227897453282 3 0 1
114 23 3 0 -15.303813319840762 -4.892011753810273 -15.047590436247821 2 0 0
10102 3208 2 0 -12.852644378133267 -4.861870210341392 -15.059533771056868 13 1 0
10103 3208 4 0 -12.541228374548773 -5.1501142063212875 -15.30280204106615 13 1 0
2932 818 2 0 -12.448399412495181 -4.656557106265499 -16.03932619116637 3 0 0
2934 818 4 0 -12.342286199592136 -4.955653567848493 -15.622131923164593 3 0 0
14607 4709 4 0 -12.179644131124794 -4.961844081928474 -15.25014743493275 13 1 1
14605 4709 2 0 -11.74593768609681 -5.119014001601167 -15.383432579924767 13 1 1
13948 4490 2 0 -11.406097514732268 -5.720527385730669 -16.211031308153455 13 1 1
14606 4709 4 0 -11.272198915313254 -5.291651740482854 -15.533701354316767 13 1 1
13949 4490 4 0 -11.222812518290988 -5.555561095594367 -15.788160373469173 13 1 1
6269 1930 4 0 -10.98308898148337 -5.2478052732027685 -15.759068277662106 3 0 1
6268 1930 2 0 -10.8241375465359 -4.799895997926306 -15.972968335096462 3 0 1
1799 440 4 0 -10.987427955146835 -5.532296952747068 -15.460761608295847 3 0 0
7276 2266 2 0 -9.69096641328489 -5.083606630651122 -15.550376564503383 3 0 1
6288 1936 4 0 -9.700716806575711 -5.512059831019982 -16.017708430170032 3 0 1
7278 2266 4 0 -9.67872426555081 -5.562231749890989 -15.64040776834851 3 0 1
6286 1936 2 0 -9.774279724531596 -5.639936792325081 -16.531399701128525 3 0 1
7277 2266 4 0 -9.688830047711853 -4.554733047754969 -15.45645538801284 3 0 1
7622 2381 4 0 -9.327348331061486 -5.60087482779983 -15.88712862523954 3 0 1
7621 2381 2 0 -8.814650806192855 -5.478227499885136 -15.957054054443494 3 0 1
7623 2381 4 0 -8.308884743113241 -5.357253431254033 -16.025654056982578 3 0 1
483 97 3 0 -7.927959946499723 -5.216151563942283 -16.080554116087086 3 0 1
481 97 1 0 -7.486023644775525 -5.358041722629938 -16.34398885171984 3 0 1
485 97 3 0 -7.335057201177911 -5.822977935337679 -16.189741481779947 3 0 1
482 97 3 0 -7.1209449231778095 -5.043613989319127 -16.25312231043627 3 0 1
7827 2449 4 0 -7.282611437597563 -5.964526020890645 -15.830497049756714 3 0 1
7245 2255 4 0 -6.975362065605433 -6.010529054888899 -16.141217068019312 3 0 1
7608 2376 4 0 -7.064353503333175 -5.6631591986835055 -15.946907442173147 3 0 1
7606 2376 2 0 -6.718393201832075 -5.63484321598483 -15.596294550854767 3 0 1
7607 2376 4 0 -6.368808276364188 -5.605601331342985 -15.233046792217822 3 0 1
6537 2019 4 0 -13.923779588955991 -3.6933485093521217 -16.488263904711747 3 0 1
1892 471 4 0 -12.920145612283791 -3.4219306007753527 -15.324336350122922 3 0 0
13503 4341 4 0 -12.91685767975871 -3.0465059869313738 -15.457722382018996 13 1 1
8547 2689 4 0 -12.909709880114962 -3.3514677391813414 -15.727269212823117 13 1 0
1891 471 2 0 -13.161051367420889 -3.827328832906163 -15.075483304543067 3 0 0
8546 2689 4 0 -12.842188483341637 -4.045085275022663 -16.523355174007115 13 1 0
8545 2689 2 0 -12.885997917246383 -3.6736726999124887 -16.099920304748117 13 1 0
738 148 3 0 -12.603817917440537 -3.22424641623083 -15.511521256202178 13 1 0
2933 818 4 0 -12.555038997969806 -4.325599500238974 -16.48490554198832 3 0 0
736 148 1 0 -12.05300741441652 -3.233889771425364 -15.511671153419547 13 1 0
740 148 3 0 -11.896086858301555 -3.7200153664539073 -15.55805501611484 13 1 0
6270 1930 4 0 -10.65763856013979 -4.35032136635682 -16.176905020051397 3 0 1
3392 971 4 0 -10.73176028833958 -3.998286309349572 -16.33660862678947 3 0 0
737 148 3 0 -11.892227345337785 -3.0383916541676808 -15.075440594964007 13 1 0
3391 971 2 0 -10.641292426735799 -3.552006643538604 -16.53576371129447 3 0 0
7892 2471 4 0 -10.413757245275319 -4.037093450593307 -16.145433317278542 3 0 1
6368 1963 4 0 -10.413979599275432 -4.240285018191095 -16.4663468706928 3 0 1
7891 2471 2 0 -10.017378901398667 -4.088989391713104 -15.816072130578405 3 0 1
7893 2471 4 0 -9.633741992430267 -4.157620865373433 -15.50158559677575 3 0 1
10185 3235 4 0 -9.562082433338972 -4.3050286543150555 -15.174511081331723 13 1 0
1866 462 4 0 -9.316251411145391 -4.01216219488407 -15.326384162220807 4 0 0
6774 2098 4 0 -9.317758455511402 -4.356826592611313 -15.485223674218917 4 0 1
6772 2098 2 0 -9.005081709148968 -4.36787485877656 -15.939809391868568 4 0 1
6773 2098 4 0 -8.729066407986839 -4.401271635371481 -16.349577054998278 4 0 1
147 30 3 0 4.255393560321778 -3.0402606487270063 -15.133828113702691 3 0 0
8211 2577 4 0 -12.713688695535783 -3.028977813509554 -15.829004802929871 3 0 1
8209 2577 2 0 -12.73203601308657 -2.5977374031737703 -16.119483615090505 3 0 1
8210 2577 4 0 -12.732355094646579 -2.1737417078090893 -16.39212463426729 3 0 1
7230 2250 4 0 -12.606874880594365 -1.8140574215579477 -16.31266713355736 3 0 1
8165 2562 4 0 -12.901880243458235 -1.8604772235239029 -16.58664312208238 3 0 1
739 148 3 0 -11.878148781155002 -2.9720443074914975 -15.879431169708361 13 1 0
683 137 3 0 -11.31058027902306 -2.614827688393552 -16.548972029806407 4 0 0
9377 2966 4 0 -9.602060134511209 -2.5348420946441763 -16.123135338228998 4 0 0
9376 2966 2 0 -9.449123983575253 -2.0846181336847494 -16.01660152063875 4 0 0
9378 2966 4 0 -9.300830955910243 -1.6318368088350876 -15.901907168242882 4 0 0
6609 2043 4 0 -9.346673125235963 -2.6718748912440766 -16.376829531280762 4 0 1
3564 1028 4 0 -9.733596803498955 -2.6084879313455183 -16.497861448242237 4 0 0
88 18 3 0 4.801933824826435 -0.040560765974760216 -6.7548416536267375 4 0 0
10809 3443 4 0 12.760684995689964 -0.04996411646611065 -8.84140425241656 5 0 0
2298 606 4 0 -7.392174377646894 -2.7257623597342278 -16.49816681187367 4 0 0
7122 2214 4 0 -7.437249950189059 -2.48925249651351 -16.183386458076875 4 0 1
7120 2214 2 0 -7.450612012477002 -2.548154296374051 -15.686441593001984 4 0 1
7121 2214 4 0 -7.466648592378421 -2.6142526605177085 -15.134305980876531 4 0 1
2766 762 4 0 -7.435913845655316 -2.346266685715909 -16.546006998639825 4 0 0
9174 2898 4 0 13.610516407959793 -1.8039213568017178 -15.042706676239 6 0 0
7228 2250 2 0 -12.596730076886894 -1.3412307372962147 -16.145264369894463 3 0 1
7229 2250 4 0 -12.585853937654761 -0.8480111773053967 -15.969423183769942 3 0 1
6130 1884 2 0 -9.449049602276578 -1.4360209891743416 -15.147950038930507 4 0 1
10435 3319 2 0 -9.713325370111084 -1.0987693031725865 -16.306224304283845 4 0 0
10437 3319 4 0 -9.350343381424784 -1.2321301225804184 -15.982408639446986 4 0 0
6131 1884 4 0 -9.28133930907364 -1.3573087919420193 -15.624108438802983 4 0 1
3215 912 4 0 -9.000273981779184 -1.370749173618579 -15.927169896618244 4 0 0
3214 912 2 0 -8.602313030184828 -1.3000890736339041 -16.22273399511485 4 0 0
3216 912 4 0 -8.188792777576268 -1.229268413820126 -16.517904437804397 4 0 0
7152 2224 4 0 -7.812737641715836 -1.210757997644297 -16.444645079519024 4 0 1
1945 489 2 0 -7.74460201379188 -0.40819203567767914 -15.162440140935281 4 0 0
1947 489 4 0 -7.49860294814124 -0.3462541701996855 -15.610360685339822 4 0 0
2480 667 4 0 -6.466378441963721 -0.005598960396934416 -10.173487567022976 4 0 0
7150 2224 2 0 -7.565423536124957 -0.9104976079767653 -16.1217050304357 4 0 1
6469 1997 2 0 -6.808049361262631 -0.10311201495315814 -15.625434995767423 4 0 1
7151 2224 4 0 -7.315552685491159 -0.6206269672548004 -15.803592932491632 4 0 1
6471 1997 4 0 -7.208564594472801 -0.24190448252004515 -15.867925350048166 4 0 1
8498 2673 4 0 -6.263543661452289 -0.07894581522900168 -15.051279075725958 4 0 1
7110 2210 4 0 5.260092611212155 -0.5690871274686096 -15.179769163051068 5 0 1
7856 2459 4 0 5.529346251572662 -0.287699508653521 -15.132287749355513 5 0 1
10685 3402 4 0 15.11366402625259 -0.759040607804712 -15.251994645291177 6 0 0
2332 618 2 0 -11.454136121452674 -12.308159551533151 -14.756739694658547 3 0 0
2727 749 4 0 -11.374839198027528 -12.227689550152315 -13.923689283281377 3 0 0
2333 618 4 0 -11.259129741390796 -12.340907864859256 -14.28112415434796 3 0 0
3468 996 4 0 -11.0034863388897 -12.247906353645924 -13.993414467238154 3 0 0
2725 749 2 0 -11.808384340574985 -12.11132417802844 -13.723884200441125 3 0 0
3466 996 2 0 -10.734591524010279 -12.170786837477246 -13.54312337425624 3 0 0
7805 2442 4 0 -7.268328029831919 -12.453481623439078 -14.431747072460473 4 0 1
7804 2442 2 0 -7.138848460022434 -12.850533863130437 -14.141226699002033 4 0 1
7806 2442 4 0 -7.022774239836412 -13.257590932591787 -13.853597776428801 4 0 1
6978 2166 4 0 -7.132225993243917 -12.16082034134459 -14.191505568090278 3 0 1
573 115 3 0 -7.35821998096182 -12.087004442973885 -14.515141826282575 3 0 1
2522 681 4 0 16.225851178712585 -12.478923248931993 -13.840499794483405 1 0 0
2521 681 2 0 16.289788822584267 -12.4561097720677 -14.324982381235893 1 0 0
2523 681 4 0 16.359448104628004 -12.437904561360977 -14.851757579291915 1 0 0
2927 816 4 0 15.93263174422287 -12.34505092922337 -13.596879995114037 2 0 0
203 41 3 0 -16.228104277004643 -11.053347214524814 -14.861567120050216 3 0 0
1963 495 2 0 -15.51750442227622 -11.378352623335706 -14.848932728777976 3 0 0
201 41 1 0 -16.26066099900494 -10.643861278698271 -14.56276646838452 3 0 0
2353 625 2 0 -15.245617199415944 -11.334555452766239 -13.741414299090463 3 0 0
2354 625 4 0 -15.210618429607168 -11.607257392182667 -14.191484767697904 3 0 0
204 41 3 0 -16.581176916134957 -10.732599577518268 -14.206135911194302 3 0 0
202 41 3 0 -15.799228789921116 -10.552816396623381 -14.353971018928075 3 0 0
1965 495 4 0 -15.110531838485178 -11.557280648977253 -14.61289516480156 3 0 0
3180 900 4 0 -12.421121242674477 -10.788694840561853 -14.172295436372645 3 0 0
3178 900 2 0 -12.432262031523365 -11.189321538073042 -13.86186911295994 3 0 0
3179 900 4 0 -12.433037993194839 -11.588091447959028 -13.55199390957424 3 0 0
2726 749 4 0 -12.262353103929833 -11.980165557187764 -13.525183789271697 3 0 0
2828 783 4 0 -11.192548634773276 -11.974457154526796 -14.163954479778656 3 0 0
2827 783 2 0 -11.131123811291435 -11.4668547231534 -14.259360350266316 3 0 0
2829 783 4 0 -11.06468267791504 -10.938059591785018 -14.376451689156468 3 0 0
7560 2360 4 0 -10.865817625624413 -10.63097171722832 -14.585953133005944 3 0 1
550 110 3 0 -10.846709151154982 -10.643631729953901 -14.20065500936331 3 0 1
1958 493 4 0 -11.177023334846805 -10.555914975038187 -14.376023786517623 3 0 0
7558 2360 2 0 -10.554209790292363 -10.704532162358506 -14.984565276093395 3 0 1
549 110 3 0 -10.391060563251774 -11.20268978692666 -13.767138663904877 3 0 1
546 110 1 0 -10.453292082698773 -10.711850817827363 -13.872346358129517 3 0 1
2703 741 4 0 -9.196459538835008 -11.700183404389577 -13.509908459969052 3 0 0
6575 2032 4 0 -9.05700059644794 -10.980594513877637 -14.609916778616968 3 0 1
7248 2256 4 0 -8.994742866502392 -10.710702172392477 -14.888553767658818 3 0 1
6574 2032 2 0 -8.991930531763664 -11.257369925006019 -14.206005238839222 3 0 1
6576 2032 4 0 -8.925016273506788 -11.552238367822799 -13.768216658644796 3 0 1
6822 2114 4 0 -8.679967234245302 -10.854932717514858 -14.741791700189495 3 0 1
2382 634 4 0 -8.91205562408018 -10.626520212404492 -14.511077715663442 3 0 0
7596 2372 4 0 -8.601764012051422 -11.437524561949006 -13.577687275223838 3 0 1
6820 2114 2 0 -8.225169462834366 -10.95425391165243 -14.887251420983713 3 0 1
7594 2372 2 0 -8.074094026955486 -11.308708578199202 -13.6438301063539 3 0 1
6821 2114 4 0 -7.738491913581639 -11.061224682319233 -15.045610041486386 3 0 1
7595 2372 4 0 -7.557253597782443 -11.18186552702727 -13.693199965344974 3 0 1
572 115 3 0 -7.625851035933113 -11.430540010298715 -14.976612987066066 3 0 1
2789 770 4 0 -8.813560805820604 -11.752203420769336 -13.454545598158607 3 0 0
571 115 1 0 -7.353858409765241 -11.880471388284194 -14.982953539169646 3 0 1
7351 2291 2 0 -6.378640213810755 -11.366778233351562 -14.868461571622223 3 0 1
6977 2166 4 0 -7.149266845923709 -11.286419779556836 -13.722137406660142 3 0 1
535 107 3 0 -7.324021439899326 -11.021686857773405 -13.982443198257458 3 0 1
533 107 3 0 -7.402453559420739 -11.014957322902807 -14.842140400482293 3 0 1
7844 2455 4 0 -7.27260766292105 -10.910875021144614 -13.613030854002934 3 0 1
6976 2166 2 0 -7.148144197757864 -11.714808379349819 -13.948021963748177 3 0 1
531 107 1 0 -7.186964944348141 -10.77672516400217 -14.436404466832366 3 0 1
7353 2291 4 0 -6.316203798911825 -10.91568448616695 -14.632524586237322 3 0 1
1835 452 4 0 -6.368677483300248 -10.947898432154195 -14.242330577515906 3 0 0
534 107 3 0 -6.667650414534259 -10.788933795313065 -14.485299910224423 3 0 1
6467 1996 4 0 -6.341714157443297 -10.60885175324597 -14.378570110731951 3 0 1
1834 452 2 0 -6.00289149151337 -10.939372787682487 -13.90030545241518 3 0 0
1836 452 4 0 -5.621378154975066 -10.929607512149303 -13.557742070053354 3 0 0
3278 933 4 0 -5.273396295140456 -10.707365994481115 -13.462879432166298 3 0 0
44 9 3 0 13.024259442610227 -10.555595447920629 -14.185124347586818 1 0 0
3520 1014 2 0 15.869532277698095 -10.894827532317978 -13.922567567312763 2 0 0
3521 1014 4 0 16.225474139316074 -10.651631360207965 -14.153727086618394 2 0 0
3522 1014 4 0 15.489141729096797 -11.13498146312771 -13.683143362186538 2 0 0
2926 816 2 0 15.674634389009878 -11.929843611304285 -13.543881938598325 2 0 0
2928 816 4 0 15.388341048139598 -11.468356110758528 -13.49009532570157 2 0 0
205 41 3 0 -16.413139963484927 -10.245526057883886 -14.830434185050425 3 0 0
2601 707 4 0 -15.314293970534726 -9.277607765048305 -13.597774862525421 2 0 0
3495 1005 4 0 -15.18257182216604 -9.054035880289877 -13.915460400331886 2 0 0
2470 664 2 0 -16.489615725180755 -10.302555106951992 -13.48968274899176 3 0 0
2255 592 4 0 -14.94422167041476 -9.252523634978399 -13.69335780235336 3 0 0
2254 592 2 0 -14.576441625255764 -9.603167218424975 -13.576205343939865 3 0 0
2256 592 4 0 -14.213633173567269 -9.964738001910503 -13.448106894759043 3 0 0
1443 321 4 0 -13.003128308310844 -10.46668072393058 -15.066241738057364 3 0 0
3567 1029 4 0 -13.342888127990557 -10.266609404441311 -15.091603237210064 3 0 0
2198 573 4 0 -13.490100238543594 -9.066203444013258 -14.997104819437217 3 0 0
1307 276 4 0 -13.02800259113372 -10.159520835159327 -14.82968720505659 3 0 0
1306 276 2 0 -12.79608702957741 -10.318429248112439 -14.42325748302581 3 0 0
1308 276 4 0 -12.559655785640402 -10.483651863199743 -14.025339461275285 3 0 0
1959 493 4 0 -12.17423212507286 -10.432398255304552 -14.118046267548216 3 0 0
1957 493 2 0 -11.678825807687527 -10.493907941720446 -14.24680671335905 3 0 0
8432 2651 4 0 -10.841643084184794 -10.30036491352552 -14.393630735195766 3 0 1
8431 2651 2 0 -10.695870380177018 -9.791834650622123 -14.387104633870349 3 0 1
8433 2651 4 0 -10.554492753044974 -9.302917809496444 -14.392829712629934 3 0 1
548 110 3 0 -10.056572839594308 -10.532030634918598 -14.074180779369756 3 0 1
6912 2144 4 0 -10.189418663546288 -9.44094781286054 -14.236529369774683 3 0 1
2312 611 4 0 -10.41841658018808 -9.17442814710341 -14.057641701681813 3 0 0
6910 2144 2 0 -9.703627316623367 -9.455971053641509 -14.142014533126192 3 0 1
6911 2144 4 0 -9.19938832068502 -9.458547707886293 -14.04399425068963 3 0 1
7499 2340 4 0 -9.107881605664126 -9.188501919721633 -13.746075016836137 3 0 1
2380 634 2 0 -8.902140710509142 -10.172577176821735 -14.287662441574595 3 0 0
2381 634 4 0 -8.894780039655007 -9.727614147412002 -14.056345329221966 3 0 0
7383 2301 4 0 -8.99802310640783 -9.566120945138756 -13.729450429116959 3 0 1
1472 331 4 0 -8.609328210123024 -9.604397567045124 -13.787816090248851 3 0 0
8201 2574 4 0 -8.828938084978947 -9.334935439068035 -14.000465558564288 3 0 1
8200 2574 2 0 -8.658382684825403 -9.150018851286498 -14.49472015076618 3 0 1
1471 331 2 0 -8.152623141251311 -9.725642018571152 -13.511767377793785 3 0 0
532 107 3 0 -7.3436166155686475 -10.293646768155 -14.410670876219765 3 0 1
6466 1996 2 0 -6.166850242834174 -10.213368583251118 -14.687044941195401 3 0 1
6468 1996 4 0 -6.00203504011634 -9.821725526444949 -14.975048521491896 3 0 1
3277 933 2 0 -5.306156970750729 -10.188156209074544 -13.43078190710882 3 0 0