LAMMPS data file via write_data, version 4 Feb 2025, timestep = 8500000, units = lj

3100 atoms
4 atom types
2100 bonds
1 bond types
1250 angles
2 angle types

-10.410592 10.410592 xlo xhi
-10.410592 10.410592 ylo yhi
-10.410592 10.410592 zlo zhi

Masses

1 1
2 1
3 0.1
4 0.1

Bond Coeffs # harmonic/omp

1 100 0.45

Angle Coeffs # harmonic/omp

1 100 180
2 100 109.471

Atoms # full

1111 337 4 0 -9.997422723224519 -10.069270082937328 -9.964929684837065 0 1 0
1109 337 2 0 -10.33640154180174 -9.775530833864915 -10.099276008774343 0 1 0
2054 652 2 0 -4.882894842129692 -9.281381463580908 -9.378745978864808 0 1 1
2055 652 4 0 -4.5934967780517 -9.52324715419017 -9.168646335355012 0 1 1
2056 652 4 0 -5.173650213565473 -9.031243012414148 -9.593510800430769 0 1 1
916 272 4 0 -5.556351605393189 -8.91709987394036 -9.610100563355727 0 1 1
2916 939 4 0 -4.3542106045198254 -9.511250396013999 -8.87335180538862 0 1 1
1844 582 2 0 -9.448785656056188 -7.753253582687542 -10.383284636437937 1 0 0
3040 980 4 0 -5.831373675682639 -7.854667262128864 -10.09485140534925 1 1 1
915 272 4 0 -5.97126739182748 -8.188010381083574 -9.87209317886871 0 1 1
914 272 2 0 -5.760836417604747 -8.561073025512053 -9.733083296713025 0 1 1
1824 575 4 0 -1.4840699706038 -7.640989963740409 -9.837061057756287 0 0 0
1823 575 2 0 -1.1933119557185112 -7.488795181523301 -9.50196276285041 0 0 0
1357 419 4 0 -1.5671171892848068 -7.72130851052573 -10.220827499851165 0 1 0
1846 582 4 0 -9.746304610928256 -7.4217987824463885 -10.25764580515904 1 0 0
1263 388 4 0 -6.8918788429858555 -0.3192272121766562 -1.3806785144887403 0 0 0
1230 377 4 0 -0.39053541927932517 -2.531004246734841 -10.280520799055397 0 1 0
2065 655 4 0 -6.894990388804183 -6.287914132600298 -9.960086813931923 0 0 1
2112 671 4 0 -6.6800107175026 -6.1965250710882644 -9.618765440062463 1 0 1
2111 671 2 0 -6.444391429030157 -6.447890623583412 -9.313744500039853 1 0 1
2113 671 4 0 -6.223269021087409 -6.683133313463094 -9.035541124309235 1 0 1
2063 655 2 0 -7.161629293965863 -6.173175570990102 -10.313839378546001 0 0 1
2244 715 4 0 -2.9975890890945402 -7.0003038268127336 -9.889284116036956 0 0 1
1872 591 4 0 -2.0955634913918937 -6.348229907398698 -9.179438614111735 0 1 0
2245 715 4 0 -2.375733481749053 -6.626437407718866 -9.30959910633139 0 0 1
2243 715 2 0 -2.691750968646921 -6.811664361306631 -9.592534381888354 0 0 1
1614 505 4 0 -3.079109871628992 -7.253461851240558 -10.181058383308532 0 1 1
1825 575 4 0 -0.9117622120199071 -7.328909108760151 -9.175563679718564 0 0 0
1315 405 4 0 -9.15840573185434 -5.7621066011215145 -9.213503264571198 -1 1 0
2207 703 2 0 -9.582794447618076 -5.510830105242505 -9.856968709605939 0 1 1
2209 703 4 0 -9.343227883918154 -5.5235416188047415 -9.461079734117122 0 1 1
2208 703 4 0 -9.800789086964672 -5.48853038961329 -10.236470719608064 0 1 1
3030 977 4 0 -9.957842947482256 -5.159065787473593 -10.403129448766391 1 0 1
1313 405 2 0 -8.79336582249741 -5.527802893817292 -9.079131427132443 -1 1 0
1871 591 2 0 -1.9172335578941846 -5.967319342563012 -9.280454471274739 0 1 0
2614 838 4 0 -1.612740327498006 -5.188733230656476 -9.251679311776973 0 1 0
2612 838 2 0 -1.4042767596350263 -4.843951793333444 -9.46377817582999 0 1 0
2613 838 4 0 -1.2104094107839538 -4.5274226650751235 -9.674049180853537 0 1 0
2501 801 2 0 -4.806600426142481 -3.4867548658106986 -9.427863567118234 0 0 0
2503 801 4 0 -5.051500680728616 -3.5522954693859914 -9.083222323248977 0 0 0
2502 801 4 0 -4.537326100665841 -3.413575130003704 -9.809396599379685 0 0 0
497 133 2 0 -3.8897334641783257 -3.7515947306640975 -10.157020557101898 0 0 1
498 133 4 0 -4.159045107049013 -3.46811356199727 -9.956710926734528 0 0 1
499 133 4 0 -3.613637937704154 -4.054523098534841 -10.372119025545599 0 0 1
1883 595 2 0 -0.8625213667871927 -3.5093099853638057 -9.108465168044287 0 0 0
1884 595 4 0 -0.9596682374842621 -3.169520448160029 -9.395573985301866 0 0 0
1231 377 4 0 -0.928147923486163 -3.0667515624789474 -9.788179408596944 0 1 0
1229 377 2 0 -0.6522668199889919 -2.787377761779738 -10.048319449303378 0 1 0
2490 797 4 0 -7.840868381587191 -0.8078508131352018 -9.238662204723848 0 0 0
304 68 4 0 -7.834737073043106 -0.6844486140608377 -9.609384823176223 0 0 1
302 68 2 0 -7.49632090056547 -0.8624106534460727 -9.874544942443295 0 0 1
303 68 4 0 -7.178366006378077 -1.0288209218597786 -10.139740514971349 0 0 1
2125 675 4 0 -8.41895007898034 -0.3288940441283631 -10.192972260472713 0 0 1
2445 782 4 0 -6.627186358303295 -0.5371892101208933 -9.484118044230128 1 1 0
614 172 2 0 -6.149560198535215 -0.5136234483007905 -10.221888015568373 0 0 0
616 172 4 0 -6.3096245190029965 -0.5896981084721243 -9.774337171334478 0 0 0
2444 782 2 0 -6.640577654288347 -0.9175847878805542 -9.201661347724567 1 1 0
1995 632 4 0 -10.250757907961592 -9.997025778049363 -6.970545978662558 1 1 0
2915 939 2 0 -3.9896183886804995 -9.351299610127567 -8.680213625640778 0 1 1
2917 939 4 0 -3.5993524899339744 -9.187061498427367 -8.476716749380005 0 1 1
817 239 4 0 -3.2855481361387775 -9.425522055263206 -8.366255136877353 0 1 1
815 239 2 0 -3.143890842075225 -9.388886925876259 -7.926745364759524 0 1 1
816 239 4 0 -3.0085763222072095 -9.35069017553493 -7.493679913431873 0 1 1
933 278 4 0 -6.0712128629207305 -6.607647638560975 -8.684952100440146 0 0 0
932 278 2 0 -5.753548045110004 -6.404032769470479 -8.436712069106092 0 0 0
934 278 4 0 -5.404735955205147 -6.16803792160044 -8.164370689231648 0 0 0
819 240 4 0 -5.384742869942462 -6.410054240079892 -7.841174214366168 0 -1 1
1087 329 4 0 -3.6694913121488053 -6.0108392715306005 -7.443505691362309 0 0 0
1608 503 4 0 -0.7087780514239884 -7.42620904775695 -8.850924214653919 0 1 1
2175 692 4 0 -0.9459295752864407 -7.165997332173928 -7.675353829259283 1 0 0
1607 503 2 0 -0.8939696475789195 -7.37391441725127 -8.443689536224271 0 1 1
1609 503 4 0 -1.0701961678317244 -7.3159350518276565 -8.04685359956379 0 1 1
1314 405 4 0 -8.409329861772328 -5.271063133258098 -8.9344843213124 -1 1 0
3066 989 4 0 -8.147102138357583 -5.430507300767458 -8.686529229748668 0 1 1
3065 989 2 0 -7.800031187752911 -5.170154354168754 -8.713561209204101 0 1 1
3067 989 4 0 -7.442245122691912 -4.902301796801905 -8.759117558718867 0 1 1
2560 820 4 0 -7.4578369747712845 -4.507410543275775 -8.788820010617819 1 0 0
1631 511 2 0 -4.967846001582759 -5.664303954332512 -8.259448141472825 0 0 1
1633 511 4 0 -5.21725732451937 -5.818443571256982 -8.58470189894651 0 0 1
1632 511 4 0 -4.710521188551191 -5.507964555111896 -7.920896666708585 0 0 1
1086 329 4 0 -4.375536669387941 -5.738291470514315 -7.990067202697212 0 0 0
2067 656 4 0 -3.3077287846078907 -6.198296882643174 -7.408072988888639 1 -1 1
1085 329 2 0 -4.024107414400652 -5.873356704624739 -7.708000015188274 0 0 0
1873 591 4 0 -1.733884754838681 -5.555304346518661 -9.364081954693651 0 1 0
2066 656 2 0 -2.958943494126615 -5.932088651699804 -7.553711373911354 1 -1 1
2068 656 4 0 -2.618104255384391 -5.663976036838768 -7.700769074195161 1 -1 1
1672 524 4 0 -2.4413378491316635 -5.456759861231024 -7.975368609263046 0 0 1
1670 524 2 0 -2.0764171743496647 -5.185169720797285 -8.044417514081033 0 0 1
1671 524 4 0 -1.7402113386744988 -4.914583033086102 -8.11529590977099 0 0 1
2496 799 4 0 -1.4794469581401248 -4.622896825515353 -8.237422791816716 1 1 0
2558 820 2 0 -7.499005488718347 -4.10750140712618 -8.595703200998601 1 0 0
2559 820 4 0 -7.534862251032799 -3.718878896951171 -8.395749100702844 1 0 0
1170 357 4 0 -7.615899850707237 -3.3154802410442215 -8.364854547947031 0 1 1
1039 313 4 0 -5.150390570298261 -3.533435218531836 -8.697107085734594 0 0 0
1037 313 2 0 -4.921081514128179 -3.483589709011868 -8.286219424992689 0 0 0
1038 313 4 0 -4.696296387705999 -3.430206131742617 -7.8793234537000245 0 0 0
1080 327 4 0 -4.599416089932662 -3.63352775786105 -7.553827695743788 0 0 0
1885 595 4 0 -0.7653051165579658 -3.849692854098222 -8.812049752914744 0 0 0
2497 799 4 0 -1.073551757835202 -3.926288540667294 -8.559876383856174 1 1 0
2495 799 2 0 -1.2785115798944215 -4.2748655219394625 -8.396907929348144 1 1 0
355 85 4 0 -0.3465778729795106 -4.284582278502321 -7.631805628494149 0 1 0
1169 357 2 0 -7.671057277230426 -2.9173814952154453 -8.13279039536756 0 1 1
2188 696 4 0 -7.868938307881064 -2.1838983742653957 -7.726096279570865 1 -1 1
2186 696 2 0 -8.042717467666476 -1.8582300835183851 -7.99694885183518 1 -1 1
1171 357 4 0 -7.741420030038546 -2.5219723380412375 -7.901850657953206 0 1 1
3003 968 4 0 -6.335815015856379 -1.9591796169862925 -8.171919295925893 1 1 0
3002 968 2 0 -6.579044006695575 -1.7903180664287337 -8.51787263590473 1 1 0
3004 968 4 0 -6.824284017090476 -1.6086654672565008 -8.860911119215508 1 1 0
2878 926 4 0 -6.311547128184992 -2.2884637233360916 -7.944789598237863 0 0 1
2187 696 4 0 -8.216340114574905 -1.5507633491598476 -8.254961941402994 1 -1 1
2489 797 2 0 -7.989689140155992 -1.0456751603143937 -8.895015922961193 0 0 0
2491 797 4 0 -8.136811738465443 -1.2711689348467283 -8.55022509697772 0 0 0
2446 782 4 0 -6.6665796675910265 -1.2538531222396503 -8.931261722084248 1 1 0
1994 632 2 0 -9.810596661398284 -10.015412035325191 -7.036267259657109 1 1 0
1996 632 4 0 -9.366608753504128 -10.035349887357912 -7.112351232397411 1 1 0
948 283 4 0 -9.233304323887227 -10.39720938427474 -7.109337960526048 1 1 0
903 268 4 0 -0.11574765002512385 -10.243813403536663 -4.41717348889689 0 0 0
1594 498 4 0 -3.0921256094251537 -9.011693659375183 -7.298743942116907 0 1 1
1592 498 2 0 -2.839278200612927 -8.720176875055893 -7.053124836603708 0 1 1
1593 498 4 0 -2.6000551583677702 -8.45543947235601 -6.815688479857801 0 1 1
555 152 4 0 -2.326395722386418 -8.251840609215812 -6.602255345591757 0 0 0
554 152 2 0 -1.9901467180275723 -8.096636296925238 -6.807450771911434 0 0 0
556 152 4 0 -1.6193114796420365 -7.917650674031935 -7.017267825470795 0 0 0
818 240 2 0 -5.1380524453554495 -6.613011052302577 -7.473421508316357 0 -1 1
820 240 4 0 -4.915529059735252 -6.8018035469382285 -7.125622481563996 0 -1 1
32 7 3 0 -5.027642818990568 -6.561516250688851 -6.820096683490139 0 0 1
31 7 1 0 -4.954421341250942 -6.592427530312106 -6.373266987301221 0 0 1
33 7 3 0 -4.9876369693214455 -7.0225579785417995 -6.249767554854624 0 0 1
34 7 3 0 -4.538208479318986 -6.430565676526616 -6.282260302907851 0 0 1
35 7 3 0 -5.248851239947368 -6.359813279669026 -6.163480960311517 0 0 1
2176 692 4 0 -1.5233627915189436 -7.498907242294444 -7.041099671429935 1 0 0
2174 692 2 0 -1.2276448912946725 -7.333267930465975 -7.360621136166029 1 0 0
2099 667 2 0 -6.5802672420522015 -4.523237706055706 -6.8219735800870405 0 0 1
1473 458 4 0 -6.153291249529222 -5.088534827576303 -6.937374971342546 0 1 0
2101 667 4 0 -6.533608928895769 -4.987887821065083 -6.919067996395417 0 0 1
1472 458 2 0 -5.721568133560427 -5.238492875391965 -6.802855642625123 0 1 0
1474 458 4 0 -5.317195636969019 -5.379318285477893 -6.695758178898395 0 1 0
1822 574 4 0 -4.985924135615066 -5.241104588700325 -6.544728855325893 0 0 0
1820 574 2 0 -4.60887258149652 -5.176625857803406 -6.798684559164816 0 0 0
1821 574 4 0 -4.240393236465517 -5.120302046332288 -7.04322325326968 0 0 0
1710 537 4 0 -3.8789287400515993 -5.20920863567472 -7.141756405529617 0 0 0
1711 537 4 0 -3.1443048660381 -5.4117800189581455 -6.558293127900012 0 0 0
1709 537 2 0 -3.502961740728248 -5.3185774112103825 -6.847488786741891 0 0 0
585 162 4 0 -2.8489411940518448 -5.25244500995869 -6.324121411105159 1 0 0
584 162 2 0 -2.641986864413515 -4.9002361502461715 -6.146367719699917 1 0 0
2100 667 4 0 -6.626047449984257 -4.0705379123136955 -6.743635131637905 0 0 1
309 70 4 0 -6.818294524204703 -3.751491490985463 -6.5886628971826795 -1 0 0
310 70 4 0 -6.905018692479854 -3.0669176424340066 -7.193124617840867 -1 0 0
308 70 2 0 -6.8682031871471905 -3.4112902774256093 -6.8837107048874415 -1 0 0
1079 327 2 0 -4.3227126572126275 -3.4330374471128033 -7.288470499546019 0 0 0
1081 327 4 0 -4.027699539402638 -3.2286515052367903 -7.0028928575056675 0 0 0
1455 452 4 0 -3.9075638460699005 -2.951463699409819 -6.753680189932192 0 0 0
2872 924 4 0 -0.4228335935242444 -3.906715017364532 -7.671763520774079 0 1 1
2871 924 4 0 -0.7649496573790506 -3.4029851884119373 -6.956386752031269 0 1 1
2870 924 2 0 -0.5999342013436525 -3.6485560050828987 -7.307067834244574 0 1 1
2877 926 4 0 -6.8231810972456675 -2.9422580800779903 -7.572855104925204 0 0 1
2876 926 2 0 -6.568184136297637 -2.6200708219964777 -7.759928531379818 0 0 1
1454 452 2 0 -3.550074938280842 -2.7035626675288436 -6.8019726312526645 0 0 0
1456 452 4 0 -3.1800860480848256 -2.4426716572249028 -6.851441861726073 0 0 0
2344 748 4 0 -3.293376177412352 -2.1246905708494195 -6.657647562138012 1 0 1
2342 748 2 0 -3.2261223073404524 -1.72189562718246 -6.495152161740132 1 0 1
588 163 4 0 -9.262452436119439 -0.5337907511218457 -6.503322266135786 0 0 1
639 180 4 0 -9.403990886518603 -0.15022813830554468 -6.553806932263756 0 0 1
589 163 4 0 -8.642923360101605 -0.8180625263222969 -7.072544394765962 0 0 1
2889 930 4 0 -7.47919122430005 -0.3419809830113043 -7.178603841110918 0 0 1
2888 930 2 0 -7.887180548310275 -0.523943536532572 -7.07166281592825 0 0 1
2890 930 4 0 -8.2672440902274 -0.6925462675262736 -6.9585411647829885 0 0 1
587 163 2 0 -8.947606079671731 -0.674136688651818 -6.799818394151248 0 0 1
2343 748 4 0 -3.156873161538979 -1.3279609113284716 -6.32122687264804 1 0 1
2202 701 4 0 -2.91794082501992 -1.2130576568155669 -6.017191802287465 0 0 1
2201 701 2 0 -2.4907854202477044 -1.115294814624876 -5.89961784350229 0 0 1
2203 701 4 0 -2.0379383580828536 -1.0080682532461815 -5.771536472065245 0 0 1
978 293 4 0 -1.8416440365393916 -0.718584586115325 -5.977694139573973 -1 0 0
977 293 2 0 -1.4180987127276605 -0.899757772130091 -5.975876473815438 -1 0 0
2035 645 4 0 -7.269256695189331 -9.851169862816722 -4.646975200488797 0 0 0
1129 343 4 0 -7.456648748756298 -9.69368502267785 -4.329252166977974 0 1 0
1127 343 2 0 -7.818795019355432 -9.493353093682252 -4.4256708844444566 0 1 0
1128 343 4 0 -8.227309424804492 -9.278959901435273 -4.537507643677845 0 1 0
2033 645 2 0 -7.024069166468119 -10.096041220856879 -4.932646945329003 0 0 0
2034 645 4 0 -6.785427765211165 -10.34002526411183 -5.2048900855189775 0 0 0
2079 660 4 0 -1.7759042367466595 -10.231384177832506 -4.706324541597715 0 0 0
2078 660 2 0 -1.4246546372354134 -9.951114378501542 -4.727464814934885 0 0 0
2080 660 4 0 -1.0680446816594353 -9.667435802507683 -4.748853395107266 0 0 0
849 250 4 0 -1.1226189254942516 -9.372949282998857 -4.499438739407018 -1 0 0
848 250 2 0 -0.7968945875790109 -9.159397604976585 -4.279500165183349 -1 0 0
1402 434 4 0 -5.316069870831271 -7.831107035851283 -5.336581130833823 0 1 1
850 250 4 0 -0.4829839809204727 -8.949536757973785 -4.064822324242283 -1 0 0
1401 434 4 0 -5.158957923362241 -7.228661865983537 -5.95609250749483 0 1 1
2107 669 4 0 -4.272483992771335 -6.360409631406648 -5.981139506555781 0 0 1
1400 434 2 0 -5.236490398595769 -7.526928868850591 -5.6538967817613655 0 1 1
514 138 4 0 -5.244996483829072 -6.331220102494848 -5.751169651390701 0 0 0
512 138 2 0 -5.336993941350166 -6.278188280883584 -5.326877231901959 0 0 0
346 82 4 0 -5.2295594919386765 -6.18180421781263 -4.529316435389037 0 0 0
513 138 4 0 -5.437065329741238 -6.206458520885584 -4.864590011356174 0 0 0
2105 669 2 0 -4.141445790756757 -6.196357278299329 -5.583882656986872 0 0 1
2106 669 4 0 -4.011251337191645 -6.027046193466285 -5.197421943722591 0 0 1
723 208 4 0 -3.621422281762084 -5.911733680967016 -5.08248030056502 0 0 0
722 208 2 0 -3.384070832016682 -6.055937049394004 -4.755724432632511 0 0 0
1992 631 4 0 -1.5654887510345807 -6.495548347906787 -4.6432971806025405 0 0 0
1991 631 2 0 -1.8256577278945576 -6.172573731357987 -4.485828286331998 0 0 0
1599 500 4 0 -8.10914052536582 -4.60605606885086 -4.567824043454273 1 1 1
2178 693 4 0 -1.995906110908261 -4.668052566402781 -4.782486769753954 0 0 1
2177 693 2 0 -2.2161518056931713 -4.591501943504268 -5.188814590345069 0 0 1
2179 693 4 0 -2.4202829241038932 -4.517186262259194 -5.583912245287487 0 0 1
586 162 4 0 -2.4320865239036764 -4.561196827136155 -5.9685940080123006 1 0 0
1993 631 4 0 -2.0938765993309096 -5.831493212735127 -4.335395460669317 0 0 0
142 29 3 0 -1.8481154469444183 -4.74600234617824 -4.424512095225248 0 0 0
1600 500 4 0 -8.314686671326308 -3.820142652805561 -4.9362302227396775 1 1 1
1598 500 2 0 -8.20703285439127 -4.221814291838272 -4.746676146471021 1 1 1
2406 769 4 0 -8.225878146691302 -3.4452085009075146 -4.840704025409036 1 0 0
2405 769 2 0 -8.442519101666102 -3.1412192649548274 -5.081738606748087 1 0 0
874 258 4 0 -10.231022086180998 -2.388337498664594 -5.2248748685336395 0 0 1
2398 766 4 0 -9.864295868104291 -2.481502090148301 -5.104185617639468 1 1 0
2396 766 2 0 -9.429573610871875 -2.5462523458357396 -5.162473837346847 1 1 0
2397 766 4 0 -8.991252421556675 -2.6146158498201597 -5.223943245009907 1 1 0
2407 769 4 0 -8.659617097542101 -2.8469873620845783 -5.32079721300443 1 0 0
2626 842 4 0 -0.6320053146632141 -0.930032738050021 -5.923172972403069 0 0 0
2624 842 2 0 -0.23245561839665757 -1.0573370267624684 -5.9243685119559 0 0 0
979 293 4 0 -1.0311936244333606 -1.066533289766163 -5.9827422946529865 -1 0 0
1966 622 4 0 -0.23128414129242778 -8.648706236103097 -4.161254252679916 0 1 0
1258 386 4 0 -5.3542688711377515 -7.076239167689641 -3.782631802785396 0 1 0
1256 386 2 0 -5.60374902015635 -7.024170037275357 -3.420408138661187 0 1 0
345 82 4 0 -5.039122838268935 -6.977931512651704 -4.026801943962951 0 0 0
344 82 2 0 -5.135429229421209 -6.570844982331799 -4.289065826477491 0 0 0
973 291 4 0 -7.861784823442581 -5.173178086212533 -3.495679257772565 0 1 0
971 291 2 0 -7.876741417490292 -4.906582734532693 -3.8727929188069377 0 1 0
972 291 4 0 -7.883068644218228 -4.661238039085256 -4.221068646486572 0 1 0
1102 334 4 0 -7.567217649487495 -5.343098572378423 -3.3004408067317788 0 1 0
724 208 4 0 -3.129836501898128 -6.208437585230715 -4.419029039225697 0 0 0
1482 461 4 0 -3.341667202878115 -5.0059660952490335 -3.7183071656741813 0 0 0
1414 438 4 0 -3.6122201971565264 -4.931542881630348 -3.4384528272264467 0 0 1
1412 438 2 0 -3.9767764197859026 -4.875417831462953 -3.204238198448584 0 0 1
143 29 3 0 -1.9652499784981525 -5.48107553929453 -4.256155606818502 0 0 0
141 29 1 0 -1.8057583609267986 -5.105222056294406 -4.095977498529776 0 0 0
145 29 3 0 -2.039419876241488 -4.996793564502461 -3.713207303137624 0 0 0
1481 461 2 0 -2.8956492786566983 -4.974629649201785 -3.6906447899461736 0 0 0
1483 461 4 0 -2.4454334043469266 -4.95338015164305 -3.6725362835721906 0 0 0
144 29 3 0 -1.3655684288191128 -5.16469677135922 -3.999031678504118 0 0 0
1935 612 4 0 -0.9584794798962065 -5.220068556948076 -3.992025533600405 0 -1 0
1934 612 2 0 -0.5689681701049926 -5.168841157486316 -3.774690048344327 0 -1 0
1936 612 4 0 -0.16243873612934961 -5.109627482111801 -3.5476832490559054 0 -1 0
1288 396 4 0 -3.8013669506967944 -0.45511838417665224 -0.6392879351615178 0 0 0
464 122 2 0 -8.81780864909393 -4.42542131466257 -3.246995326549934 0 0 0
466 122 4 0 -8.384621624755438 -4.408126988764296 -3.413925513395371 0 0 0
1725 542 4 0 -4.901868534605469 -1.7519400206642537 -2.7382297422294704 0 0 0
425 109 2 0 -3.389697918086274 -1.7402626218829123 -3.1109156621998837 0 0 -1
427 109 4 0 -3.6743848357352413 -1.631307945351214 -2.8083005099957306 0 0 -1
596 166 2 0 -6.2818207844128295 -0.40750795098476766 -3.0367915464762887 1 -1 0
597 166 4 0 -6.72465114177616 -0.3586696161844076 -2.991596949771517 1 -1 0
10 2 3 0 -7.070495228777108 -0.47380323155927256 -3.1373646261813675 0 0 0
598 166 4 0 -5.84206025307621 -0.45285802460722085 -3.0814287742559094 1 -1 0
576 159 4 0 -5.6892068544075505 -0.8205474419118352 -2.9917858348515445 0 0 0
575 159 2 0 -5.446124268797238 -1.1751674104681362 -2.930184009049321 0 0 0
577 159 4 0 -5.202543235046385 -1.5395695600814205 -2.863775636900759 0 0 0
426 109 4 0 -3.0859729925820925 -1.8579068369718519 -3.42414312196377 0 0 -1
3028 976 4 0 -9.56990372297139 -9.724162387068175 -2.101816320668 1 1 0
1149 350 4 0 -9.379423443838302 -9.436913217503381 -1.885757956557628 0 1 0
1148 350 2 0 -9.447665582409233 -9.003457353499538 -1.941315355893041 0 1 0
3026 976 2 0 -9.690961231759461 -10.091249657696572 -2.3123807812704493 1 1 0
155 31 3 0 -6.182443306781851 -9.512554413763468 -2.373047089895266 0 0 0
153 31 3 0 -6.814008935570805 -9.457036803210178 -1.978405422606869 0 0 0
151 31 1 0 -6.442133337010481 -9.23329204003535 -2.136058428378071 0 0 0
152 31 3 0 -6.203514434798961 -9.074911025489794 -1.7762297778451184 0 0 0
741 214 4 0 -6.154671995925083 -9.903381826028951 -2.2302664330447164 0 0 0
2386 762 4 0 -7.150829902214552 -9.627102385618057 -1.8524726881761706 0 0 1
740 214 2 0 -6.060664472228949 -10.306067425015758 -2.458627060353402 0 0 0
2384 762 2 0 -7.007168208022866 -10.011112182304725 -1.6555049824407466 0 0 1
2861 921 2 0 -5.521499876722007 -8.935623338929245 -1.5948528770491508 0 1 0
1364 422 2 0 -1.7448980244944063 -10.225368044885945 -2.1424441704874986 0 1 0
1365 422 4 0 -1.786357639445283 -9.77387499746117 -2.0073857484438937 0 1 0
3088 996 4 0 -1.4521356755613979 -9.590272436964453 -2.1005226283188088 1 1 0
3086 996 2 0 -1.136500332499505 -9.26991163671544 -1.9968895660340804 1 1 0
1150 350 4 0 -9.50946530296996 -8.575723198561482 -1.9961949920984943 0 1 0
1384 428 4 0 -9.55788917488555 -8.172876049211592 -1.9387219680871355 0 1 0
1382 428 2 0 -9.587513722986742 -7.85126529411547 -1.605305644668083 0 1 0
154 31 3 0 -6.587368920282729 -8.87761909306905 -2.4145762216835314 0 0 0
2863 921 4 0 -5.97303907519139 -8.895227044269898 -1.5007096689682549 0 1 0
1657 519 4 0 -6.680439920052907 -8.485631192639397 -2.4320709500886353 0 1 1
1655 519 2 0 -6.534114446731813 -8.076898445433427 -2.32595596621075 0 1 1
1656 519 4 0 -6.392457063520315 -7.664407371132596 -2.221298196173581 0 1 1
192 39 3 0 -6.050017150679772 -7.47032850497641 -2.066720805583152 0 0 1
195 39 3 0 -5.773890035416177 -7.139176488577418 -2.6566099567037496 0 0 1
194 39 3 0 -5.412242998922892 -7.662440007612401 -2.3120061975664763 0 0 1
1131 344 4 0 -1.4677844176306283 -7.349640933655833 -1.5656389471570595 0 1 0
1446 449 4 0 -0.5452356691292185 -8.713019325523137 -2.0509600542769504 0 1 0
3087 996 4 0 -0.8417752043319202 -8.966060944322168 -1.8905455972825886 1 1 0
1447 449 4 0 -0.43660429754419816 -7.838857407992457 -1.7848978509074902 0 1 0
1445 449 2 0 -0.4788780561575928 -8.263182785309311 -1.9127856147850324 0 1 0
2456 786 2 0 -7.569493698748765 -5.98677815704841 -1.8982218529895636 1 1 0
2457 786 4 0 -7.446017939234726 -5.864082176394957 -2.3213071288884795 1 1 0
2458 786 4 0 -7.684593655037102 -6.105301258849747 -1.4930375497961414 1 1 0
1101 334 4 0 -7.765313255766158 -5.745767171672258 -2.5326498526832957 0 1 0
193 39 3 0 -5.476199464004752 -7.0147423205478345 -1.9918167821576902 0 0 1
2258 720 2 0 -6.002420218468074 -6.392729374943181 -1.7243844631835936 0 0 1
2259 720 4 0 -6.2515843832267315 -6.077986629020475 -1.5140399549425518 0 0 1
1257 386 4 0 -5.876505275126117 -6.977654056557769 -3.027260794446997 0 1 0
191 39 1 0 -5.677993986990907 -7.333507713570077 -2.2619798333979353 0 0 1
2260 720 4 0 -5.750777835331901 -6.702031317229182 -1.9381270012584564 0 0 1
1130 344 2 0 -1.3420669405168744 -7.310363428358451 -2.0023813400622505 0 1 0
1214 372 2 0 -0.4652485024581678 -7.003792503648735 -2.563771998769299 -1 1 0
1216 372 4 0 -0.9204360780374872 -7.084986748735253 -2.591603407192184 -1 1 0
1132 344 4 0 -1.215219164657898 -7.280638487739371 -2.4324824886320444 0 1 0
1215 372 4 0 -0.03649201471795588 -6.9343530357669225 -2.527742873523685 -1 1 0
465 122 4 0 -9.24244256983637 -4.434536723452789 -3.0912887416158465 0 0 0
1100 334 2 0 -7.660238478079448 -5.5427204228004285 -2.9185244012770104 0 1 0
1767 556 4 0 -6.5684840784805445 -5.881817680298519 -1.3933137779568805 0 0 0
1413 438 4 0 -4.357613279299021 -4.819472581471761 -2.969512763701184 0 0 1
2949 950 4 0 -4.577230648953682 -4.548594948570178 -2.7225275873944113 0 0 1
2948 950 2 0 -4.751151171116851 -4.813495902051368 -2.376405529930552 0 0 1
2950 950 4 0 -4.905203936505662 -5.060194024926883 -2.0377006655603234 0 0 1
2853 918 4 0 -9.309125775798988 -4.304265241251636 -2.7067778710248525 1 0 1
2852 918 2 0 -9.645724789230199 -4.079247612546896 -2.506675330477836 1 0 1
2854 918 4 0 -9.986441723828358 -3.8530770228720534 -2.3111260397626054 1 0 1
2700 867 4 0 -10.147478487946747 -3.6845088472624408 -1.9825198148917615 1 0 0
2699 867 2 0 -10.201291780868317 -3.3582930709178065 -1.7250532720921083 1 0 0
1724 542 2 0 -4.4669391253682225 -1.6689253213720314 -2.852041986274119 0 0 0
1726 542 4 0 -4.036945909740172 -1.5892325545413093 -2.9460430452021935 0 0 0
1185 362 4 0 -8.8498100500494 -0.9505147328226116 -2.37451100344001 0 0 0
1186 362 4 0 -8.018281228739411 -0.8019329854587798 -2.7379927201815053 0 0 0
8 2 3 0 -7.785022887721564 -0.629943756847644 -2.9888607398416673 0 0 0
1184 362 2 0 -8.431669173150961 -0.8737959296023677 -2.561668629174952 0 0 0
6 2 1 0 -7.449884323672157 -0.3358265340306164 -2.9086825731937314 0 0 0
2862 921 4 0 -5.063627269826269 -8.976291717224724 -1.6893622302862448 0 1 0
2688 863 4 0 -4.87297814031188 -9.344392004999996 -1.5926152804612013 1 1 0
2687 863 2 0 -4.561159633463657 -9.495997406184816 -1.3126015627875538 1 1 0
2689 863 4 0 -4.231112029054429 -9.650579564678816 -1.0252519093905748 1 1 0
2761 887 4 0 -4.20787570092096 -9.764626458856354 -0.6296299137446111 0 1 1
2759 887 2 0 -4.114269150555846 -9.44852812645737 -0.31968957826995087 0 1 1
1403 435 2 0 -0.863729549463653 -9.752500714044299 -0.8272942682839044 0 1 0
1404 435 4 0 -1.0028928569571511 -9.599069263768694 -1.220716356451031 0 1 0
1405 435 4 0 -0.7229326377714752 -9.911650612353686 -0.42541795091593954 0 1 0
1354 418 4 0 -0.7919106816489515 -9.965086366611905 -0.03091769681512054 0 1 0
1383 428 4 0 -9.609998800239632 -7.5201167394872925 -1.2821358193519938 0 1 0
325 75 4 0 -9.874095474194123 -7.563113806789707 -0.9912525661692699 0 0 0
323 75 2 0 -9.99507400292058 -7.61335635813722 -0.5419297297436187 0 0 0
683 195 2 0 -7.427810227603632 -7.6105787820582025 -0.2730481395675206 0 0 0
685 195 4 0 -7.201755064224618 -7.9138975571215004 -0.10831177438018397 0 0 0
1121 341 2 0 -2.2603889995961772 -8.117450965321488 -0.29700798768890374 -1 1 0
1126 342 4 0 -1.719601256967622 -7.520744712927585 -0.5208661524626275 0 1 0
1123 341 4 0 -1.995494723368987 -7.77103785934204 -0.36255002958552746 -1 1 0
1390 430 4 0 -2.8780799411801863 -8.527472382050714 -0.06872492927568015 0 1 0
1122 341 4 0 -2.5305759408932857 -8.480176310787074 -0.23409560743990113 -1 1 0
1212 371 4 0 -0.3147561024573442 -7.496107841169248 -1.6464534040008847 -1 1 0
324 75 4 0 -10.099708375250925 -7.650135605153872 -0.11774400166116994 0 0 0
684 195 4 0 -7.679397852584465 -7.28358813847702 -0.45015647000568815 0 0 0
1536 479 4 0 -7.885015978383031 -6.3334474307048065 -1.2326289407627447 0 0 0
1535 479 2 0 -7.7308566769495375 -6.621470500370168 -0.9162249084773995 0 0 0
1537 479 4 0 -7.577064619662093 -6.9095272128221445 -0.5997261169946234 0 0 0
1125 342 4 0 -1.82749583536455 -7.243309615450654 -1.405442480283673 0 1 0
1124 342 2 0 -1.7723853517597086 -7.377722578589752 -0.9737245207978918 0 1 0
1213 371 4 0 -0.11039810044337249 -6.727106043225393 -1.2081776634051975 -1 1 0
1211 371 2 0 -0.20988388677578707 -7.1149272702161594 -1.430974090486447 -1 1 0
1766 556 2 0 -6.4281632047675075 -5.5964068603387025 -1.0838481161246747 0 0 0
1768 556 4 0 -6.28141611035131 -5.303820395512621 -0.7743156207109166 0 0 0
657 186 4 0 -6.0979076466943205 -5.066323421843055 -0.5091483069158108 0 0 0
658 186 4 0 -5.300157508234135 -4.85526176602688 -0.1701655687302988 0 0 0
656 186 2 0 -5.684735151207441 -4.960003397836891 -0.33121858515616825 0 0 0
1264 388 4 0 -7.179895834641624 -0.05520460104631131 -2.220802817298584 0 0 0
2701 867 4 0 -10.264308577456124 -2.977419949686314 -1.4342066844160566 1 0 0
1312 404 4 0 -3.50206198968483 -3.511076096062689 -0.1733170136861581 0 0 0
2896 932 4 0 -3.2601443169903863 -3.4475439050852805 -0.49288250601408 0 0 0
2385 762 4 0 -6.871201457735283 -10.380458512568822 -1.4810875478271603 0 0 1
1262 388 2 0 -7.040633397633675 -0.18049934720086655 -1.8039422630289368 0 0 0
2895 932 4 0 -2.558971141770261 -3.0422526966903995 -0.8570396163932685 0 0 0
2894 932 2 0 -2.9270741874047683 -3.252991252815878 -0.6682455154944013 0 0 0
2544 815 4 0 -2.279295318158273 -3.240125509291185 -1.0781572964025614 0 0 0
2543 815 2 0 -1.8474683041558542 -3.13113120905255 -1.217288261067736 0 0 0
2545 815 4 0 -1.4304272163283986 -3.0209453845052066 -1.3500190193625534 0 0 0
2566 822 4 0 -10.065947508472048 -2.0682418375527645 -0.9811667323033061 1 0 0
2565 822 4 0 -10.06008281824154 -2.6980759670256997 -1.6462016379724627 1 0 0
2564 822 2 0 -10.060273482924929 -2.3743410825149303 -1.313334417024385 1 0 0
2340 747 4 0 -9.878278858330276 -1.7216657368655794 -0.9418491863431834 1 0 0
1773 558 4 0 -6.528513197864317 -2.595609435573599 -0.06705482637317195 1 0 0
1336 412 4 0 -6.15091363455606 -2.6873223531355666 -0.20098830798094994 0 1 0
1335 412 4 0 -5.36211612483807 -2.2402622918822956 -0.3861411094032775 0 1 0
1490 464 2 0 -4.656715656432299 -2.4826833154848695 -0.2846142313972089 0 1 0
1334 412 2 0 -5.754391255558191 -2.4678011064667618 -0.29503793038855625 0 1 0
1491 464 4 0 -4.987044864942605 -2.300619810162321 -0.5208908880757384 0 1 0
1492 464 4 0 -4.319916873286209 -2.6715120101569894 -0.04678867527285711 0 1 0
2341 747 4 0 -9.924630461439627 -0.9845080642706824 -0.4637896416374295 1 0 0
1207 369 4 0 -10.07964592446354 -0.6379045665799216 -0.49271385468224277 0 0 0
2339 747 2 0 -9.894538881967748 -1.3537828060769768 -0.7092760140149601 1 0 0
1205 369 2 0 -10.055706671918195 -0.21957615368980066 -0.34385517935842647 0 0 0
2966 956 2 0 -6.450792284389382 -0.315070854253997 -0.7933503226508191 1 0 0
2967 956 4 0 -6.375351176366317 -0.18774520642863282 -0.35483536513724356 1 0 0
1525 475 4 0 -6.335154997620733 -0.36073212904131396 -0.0035766008737430893 0 0 0