LAMMPS data file via write_data, version 4 Feb 2025, timestep = 800000, units = lj

3100 atoms
4 atom types
2100 bonds
1 bond types
1250 angles
2 angle types

-10.410592 10.410592 xlo xhi
-10.410592 10.410592 ylo yhi
-10.410592 10.410592 zlo zhi
-7.105427357601002e-15 0 0 xy xz yz

Masses

1 1
2 1
3 0.1
4 0.1

Bond Coeffs # harmonic/omp

1 100 0.45

Angle Coeffs # harmonic/omp

1 100 180
2 100 109.471

Atoms # full

595 165 4 0 -7.712210462353013 -9.758664615631183 -10.349643923311907 3 0 1
2312 738 2 0 -6.946513020870906 -9.958729091105724 -10.174002095901347 4 0 1
2314 738 4 0 -7.336591470362864 -9.769195706002968 -10.28105216778736 4 0 1
2313 738 4 0 -6.5497168920700535 -10.142815744587255 -10.07231331808558 4 0 1
17 4 3 0 -6.220938604701249 -10.285141315111536 -9.895684019978201 3 0 0
19 4 3 0 -5.531714867508999 -10.04191812488435 -9.706103773422097 3 0 0
2286 729 4 0 -5.346307262675145 -9.778378847397457 -9.949034882578916 3 0 1
2287 729 4 0 -5.2523183550760555 -8.994919102630355 -10.324120191684791 3 0 1
2285 729 2 0 -5.300398010401169 -9.38851333277758 -10.133304203673386 3 0 1
2147 683 2 0 -7.891806341541981 -8.21590913369607 -9.816588676283459 4 0 1
2149 683 4 0 -7.70137262924295 -8.390735231569233 -10.20056795663969 4 0 1
1924 608 4 0 -0.7469737946325647 -7.936864080174801 -10.272507147948417 3 0 1
1432 444 4 0 -8.430187822102221 -6.995783325131713 -10.302882144623412 11 1 0
1430 444 2 0 -8.602826286305415 -7.4095528596840525 -10.369476455161546 11 1 0
1922 608 2 0 -0.8272042028538298 -7.776305517629903 -9.853616367260182 3 0 1
815 239 2 0 -8.66058125177183 -6.222711428489963 -10.355046743766717 11 1 1
2319 740 4 0 -3.178081819784551 -6.639567375235194 -10.395377387817724 13 1 0
14 3 3 0 -2.277138399758572 -6.353306903037379 -10.261759324070155 4 0 1
1756 552 4 0 -2.2632246401579845 -6.560780582851633 -9.930978862541044 5 0 1
817 239 4 0 -8.796200395885021 -5.822983155772549 -10.245832530028716 11 1 1
1933 611 4 0 -8.530044100779646 -5.5192456303995225 -10.124462207889287 5 0 0
1931 611 2 0 -8.421254011103303 -5.101842070420647 -10.274476975836889 5 0 0
1314 405 4 0 -0.6017862652151944 -4.841884814681689 -10.18839990164935 11 1 0
3066 989 4 0 -0.19967989092954141 -4.924767991721227 -10.241034317755345 12 1 1
1067 323 2 0 -7.740334689935756 -4.197594951354893 -10.332247867132438 13 1 0
1069 323 4 0 -7.5186844237725206 -3.8071811496468904 -10.15025689539827 13 1 0
375 92 4 0 -7.45511730853419 -3.474960872645794 -9.925438270724728 7 0 0
2148 683 4 0 -8.081509655784936 -8.033920155233195 -9.434863311999761 4 0 1
218 44 3 0 -8.109652960069855 -7.6450637254592895 -9.303493421625395 12 1 0
216 44 1 0 -8.094073158161752 -7.544957949294225 -8.83111610838744 12 1 0
219 44 3 0 -7.908176848373786 -7.13877402174038 -8.766225681471806 12 1 0
2491 797 4 0 -7.607510287904846 -7.026906693577648 -9.001245151673144 4 0 0
1672 524 4 0 -2.09101259618366 -7.679013168972495 -9.08593914704234 4 0 1
1923 608 4 0 -0.9161958389705891 -7.619142782443594 -9.427111364689196 3 0 1
2489 797 2 0 -7.19082377495962 -6.895893302166279 -9.076727384264542 4 0 0
304 68 4 0 -6.569873481474456 -6.8541965898398685 -8.812941442944393 4 0 1
2490 797 4 0 -6.749521377654409 -6.768061726517988 -9.164843350389177 4 0 0
302 68 2 0 -6.127004314773745 -6.848452562695316 -8.70850445565646 4 0 1
1755 552 4 0 -2.684200346198005 -6.49408108104446 -9.133889375907728 5 0 1
1066 322 4 0 -3.0164565726617205 -6.344717024836259 -8.9884765611837 5 0 0
1754 552 2 0 -2.468287260624849 -6.524137137679039 -9.534288063811136 5 0 1
1065 322 4 0 -3.638517662334756 -5.768808106294097 -8.915113528011751 5 0 0
790 230 4 0 -3.6986646988056453 -5.386054690539388 -8.951175713128489 5 0 1
1064 322 2 0 -3.3251806648335274 -6.055969074178054 -8.950566381176602 5 0 0
788 230 2 0 -3.8144618153936616 -4.984378771131774 -9.132108025904605 5 0 1
789 230 4 0 -3.9466493526495467 -4.590706363840342 -9.32092329733969 5 0 1
2403 768 4 0 -3.721308623490744 -4.275777453134593 -9.384245535512099 5 0 -1
2402 768 2 0 -3.677406567215188 -3.824987533096375 -9.30131819675172 5 0 -1
374 92 2 0 -7.364478012486238 -3.345719894523473 -9.487381671042442 7 0 0
376 92 4 0 -7.273961581023544 -3.2097761584079327 -9.056587602218238 7 0 0
2404 768 4 0 -3.647263830712064 -3.4008723548153785 -9.220925367770233 5 0 -1
1488 463 4 0 -3.4160765029892417 -3.3008813518066438 -8.894379648616882 12 1 1
1487 463 2 0 -2.9979656081695003 -3.225558568464824 -8.737330297412962 12 1 1
895 265 4 0 -9.362823855824328 -0.9033418991274793 -9.429176092857439 2 -1 1
1082 328 2 0 -10.013334076365167 -0.6486618367922343 -8.955694064847794 10 0 0
1083 328 4 0 -9.62629305746131 -0.7846560021838282 -9.165724220258676 10 0 0
1084 328 4 0 -10.401186707400203 -0.5205053772341124 -8.749198650326457 10 0 0
893 265 2 0 -8.960225792506865 -0.69045226998991 -9.48111542200308 2 -1 1
894 265 4 0 -8.5821174413191 -0.4940087299729079 -9.525808834849455 2 -1 1
1143 348 4 0 -8.119035343164049 -8.13043944805898 -8.492699879788288 11 1 0
1142 348 2 0 -8.138820278023895 -8.396097857476526 -8.130258857763634 11 1 0
220 44 3 0 -7.848606103921909 -7.86130047325464 -8.608872002552381 12 1 0
916 272 4 0 -9.568820643348863 -7.520424503883664 -7.904602353214995 11 1 1
2056 652 4 0 -9.937759724621312 -7.664625953216981 -7.873821162506264 11 1 1
915 272 4 0 -8.844828903008358 -7.479570242248137 -8.488312654531928 11 1 1
914 272 2 0 -9.204609454626006 -7.501293636768198 -8.19222789341797 11 1 1
217 44 3 0 -8.49769108623217 -7.544018422944463 -8.674084058696433 12 1 0
2495 799 2 0 -2.7489748314586153 -7.1163696155464065 -7.891805700280711 13 1 0
1670 524 2 0 -2.0744923886067443 -7.459000509994012 -8.667793743190211 4 0 1
2496 799 4 0 -2.319673037689423 -7.070012555935486 -8.056179353612661 13 1 0
1671 524 4 0 -2.0504322875700076 -7.256457149972727 -8.2798145441761 4 0 1
303 68 4 0 -5.674273852911482 -6.834550680332995 -8.598829870552114 4 0 1
1230 377 4 0 -5.285473380037262 -6.75371898140947 -8.487813081001606 12 1 0
1229 377 2 0 -4.980486064308452 -6.62706278996123 -8.160356690171401 12 1 0
1231 377 4 0 -4.696168949574545 -6.503003764935035 -7.849847525376647 12 1 0
1713 538 4 0 -0.19576531946205833 -5.916601634541576 -7.95696111017136 4 0 0
2468 790 2 0 -9.652891320975076 -4.426095289309155 -7.929326855814256 6 0 0
3094 998 4 0 -9.02256798286341 -4.119648762781603 -7.837636939971234 12 1 1
2470 790 4 0 -9.328089810814442 -4.199901714621547 -8.080728976197383 6 0 0
1489 463 4 0 -2.5572855807693804 -3.1432841221356025 -8.585891555479199 12 1 1
637 179 4 0 -2.4482807140329177 -2.810096121058155 -8.390251319718072 3 0 0
635 179 2 0 -2.3483121520229453 -2.4376185394753396 -8.212140297459104 3 0 0
636 179 4 0 -2.2413795579214266 -2.0281627139458873 -8.019343885149716 3 0 0
2024 642 2 0 -6.281262493955326 -10.027493155327836 -7.12343185492403 4 0 -1
2025 642 4 0 -6.439323720007323 -9.64964175218465 -7.003365381268786 4 0 -1
2434 778 4 0 -5.322277548225638 -10.08086734647061 -7.6588154836465225 12 1 0
2432 778 2 0 -5.350249556328493 -9.670146941360594 -7.620455010311392 12 1 0
2848 916 4 0 -8.119110341679077 -8.797183345694183 -7.423738844247955 5 0 0
2846 916 2 0 -7.88798371666212 -8.894216518006695 -7.054289679967217 5 0 0
27 6 3 0 -6.737876545107174 -9.376715789610069 -7.040850296658105 3 0 0
2433 778 4 0 -5.376541619864474 -9.237204113116434 -7.590957784811432 12 1 0
855 252 4 0 -5.274243788268823 -8.884073603069655 -7.41509940339593 3 0 1
854 252 2 0 -5.046544105518346 -8.705767297722156 -7.041841182888529 3 0 1
1144 348 4 0 -8.157505633655315 -8.653163561258568 -7.7866712811260985 11 1 0
2054 652 2 0 -10.325118401739214 -7.794530151046607 -7.712019680740779 11 1 1
1883 595 2 0 -3.9675984130701867 -6.951700275202943 -7.706379814352976 4 0 0
1885 595 4 0 -3.5420785450287724 -7.147439805106398 -7.6446904963028155 4 0 0
2497 799 4 0 -3.1439933117443246 -7.1627690425583275 -7.7395056783352745 13 1 0
1884 595 4 0 -4.3755947371376935 -6.760660514872201 -7.766534628776537 4 0 0
2766 889 4 0 -1.1939179129861817 -5.537281327751434 -7.346662582520112 12 1 1
2765 889 2 0 -0.7975828273085135 -5.605202705997653 -7.51829236837654 12 1 1
2767 889 4 0 -0.4044494262826497 -5.690261916919292 -7.685395454934543 12 1 1
2469 790 4 0 -9.991068945744182 -4.6584850401032405 -7.772052948649023 6 0 0
2553 818 4 0 -10.1547342218278 -4.998376328666998 -7.65565099184591 11 1 0
3005 969 2 0 -4.657782517935167 -4.6686795424714935 -7.102306406694444 4 0 1
3006 969 4 0 -5.12599962994962 -4.583526325822753 -7.079264942359935 4 0 1
3007 969 4 0 -4.218391744014255 -4.749795739207654 -7.130962004002194 4 0 1
871 257 4 0 -4.012997659956059 -4.958513322708423 -7.418174459015676 4 0 1
869 257 2 0 -3.611022537509979 -5.0479479132987715 -7.220587935020705 4 0 1
870 257 4 0 -3.222312970354219 -5.143024195552091 -7.0289707134203425 4 0 1
3092 998 2 0 -8.624562968909428 -4.1542605084094815 -7.654268543586649 12 1 1
3093 998 4 0 -8.21228597131603 -4.1913315335447665 -7.457427555061495 12 1 1
946 282 4 0 -8.138008626138916 -3.919094315423928 -7.19759660692498 7 0 0
2565 822 4 0 -5.058505530926421 -2.9498967180172073 -7.5795682955639005 6 0 0
2564 822 2 0 -5.0712149009483145 -2.8975427467302914 -7.1025574015449155 6 0 0
2178 693 4 0 -4.16753424099254 -1.755419866841251 -7.110261247736091 6 0 1
2177 693 2 0 -3.6962597424666193 -1.7766409681313142 -7.1833302821670095 6 0 1
9 2 3 0 -2.9010162581999532 -1.8174758904663957 -7.093623695952113 6 0 0
2179 693 4 0 -3.263091548149643 -1.7995294858490514 -7.248034296215842 6 0 1
10 2 3 0 -2.434669764927466 -1.870867833107889 -7.690498844655087 6 0 0
6 2 1 0 -2.4532353512108527 -1.8808856210025056 -7.242288731744092 6 0 0
8 2 3 0 -2.3061173652236615 -2.2743483708660275 -7.094287258575418 6 0 0
718 206 4 0 -10.268868204239588 -1.6329552645070073 -7.231817793365735 6 0 1
7 2 3 0 -2.179552217572814 -1.537662658547431 -7.075747704337855 6 0 0
2871 924 4 0 -1.7798448797431554 -1.4364556789592804 -7.110661339598899 14 1 1
2870 924 2 0 -1.345589624278361 -1.29714364326707 -7.054680939505864 14 1 1
2872 924 4 0 -0.9059311305802282 -1.161956260691161 -7.01099856254492 14 1 1
177 36 3 0 -0.521730710964535 -1.1239415391341048 -7.113216410616355 7 0 1
180 36 3 0 -0.45850882384553593 -0.37087955707353437 -7.130891688974401 7 0 1
370 90 4 0 -0.3427015000426703 -9.932246408282928 -6.711075032759416 3 0 0
723 208 4 0 -0.5754686200831607 -9.618333338766 -6.6726727746058305 4 0 0
2847 916 4 0 -7.672366366167169 -9.002132810661273 -6.686749855307216 5 0 0
29 6 3 0 -7.261602110663102 -8.987024819809717 -6.683975503593771 3 0 0
26 6 1 0 -6.833977696705303 -9.113298106271472 -6.6787121792124 3 0 0
28 6 3 0 -6.575467272368994 -8.766550993476669 -6.689397174953396 3 0 0
30 6 3 0 -6.757884570648226 -9.340307667517125 -6.309106656949674 3 0 0
314 72 2 0 -4.5789187844020525 -9.177385919674133 -6.17657356775585 2 0 0
316 72 4 0 -4.713104554394041 -8.77002049376952 -6.375231456497997 2 0 0
722 208 2 0 -0.8012756086266162 -9.50681100372251 -6.2934336349907305 4 0 0
1146 349 4 0 -6.559471029122147 -8.380846479485108 -6.50777094387599 11 1 0
1145 349 2 0 -6.389776920191849 -8.008802600806291 -6.326606026369007 11 1 0
856 252 4 0 -4.836875099689913 -8.542847973180354 -6.6933118848859925 3 0 1
1147 349 4 0 -6.193719706269795 -7.629452920058561 -6.130522954421531 11 1 0
2740 880 4 0 -4.485076101272897 -6.234216729790562 -6.29472995485398 5 0 0
2913 938 4 0 -4.102563475115637 -6.083998768484445 -6.316330151427365 12 1 1
2912 938 2 0 -3.6686782761119012 -5.943995580134596 -6.338026422512148 12 1 1
2914 938 4 0 -3.216063184359684 -5.79691179412013 -6.373632009491352 12 1 1
48 10 3 0 -2.8890173432441886 -5.570188589126632 -6.39384409256934 4 0 1
49 10 3 0 -2.2242213122582903 -5.2579984803215645 -6.554215665831665 4 0 1
2701 867 4 0 -7.2939425070985155 -4.363850060864879 -6.34133778229458 6 0 0
1306 402 4 0 -5.337672260275867 -4.427384934807415 -6.739498924455484 11 1 0
47 10 3 0 -2.8549441696367808 -5.0537629761669685 -6.919242323991364 4 0 1
46 10 1 0 -2.688487212251217 -5.191624866967754 -6.51069097230451 4 0 1
50 10 3 0 -2.762495629169581 -4.866718632311331 -6.183475779970143 4 0 1
1920 607 4 0 -2.8395490906613174 -4.463113500813283 -6.198911802013959 4 0 1
2451 784 4 0 -1.8459967057035715 -5.1677866314085055 -6.4889699197679835 13 1 0
2450 784 2 0 -1.4420137966613638 -4.948341241113092 -6.459206538160508 13 1 0
2452 784 4 0 -1.0354131466862135 -4.725490363830875 -6.434469912071929 13 1 0
2217 706 4 0 -0.6495172395186515 -4.65172844916575 -6.3911671864179205 4 0 1
2216 706 2 0 -0.1941377741256325 -4.567298063348791 -6.385215880949682 4 0 1
944 282 2 0 -7.891871805029833 -4.094959548202862 -6.862335252656367 7 0 0
945 282 4 0 -7.6377525863285385 -4.280931523693293 -6.515300756421629 7 0 0
2699 867 2 0 -6.8450762530251055 -4.288898945736081 -6.373021411136751 6 0 0
2700 867 4 0 -6.388149850766836 -4.214802387893195 -6.406474754197035 6 0 0
1305 402 4 0 -6.179561789548921 -4.067650563378228 -6.691267714142564 11 1 0
1304 402 2 0 -5.76509327957606 -4.24465026133659 -6.715827139659783 11 1 0
2854 918 4 0 -5.098600904014512 -3.1760701228473316 -6.396799809736879 6 0 1
2566 822 4 0 -5.087080096826083 -2.8564282617594667 -6.649141717966417 6 0 0
353 85 2 0 -6.984189833059537 -2.298660239145084 -6.185609100128037 14 1 0
354 85 4 0 -7.397835228252656 -2.514058534820797 -6.125484894340811 14 1 0
2107 669 4 0 -6.1999829265806525 -2.2639057815062937 -6.2192420359401215 5 0 1
355 85 4 0 -6.556233365873764 -2.0858727061368754 -6.250467446276931 14 1 0
2105 669 2 0 -5.818792054041393 -1.9879858742306045 -6.27531259233629 5 0 1
145 29 3 0 -5.087707235538328 -1.8466726771660653 -6.432865821876974 6 0 0
142 29 3 0 -4.451345014205087 -1.753782425285264 -6.836707987494286 6 0 0
141 29 1 0 -4.632658838751474 -1.7943446160231744 -6.403573418576624 6 0 0
143 29 3 0 -4.440583164907755 -2.161081475885741 -6.200285387447216 6 0 0
1262 388 2 0 -2.254729628447704 -2.5651793708114683 -6.38721226349581 6 0 0
1264 388 4 0 -2.5146445078589608 -2.356069156803404 -6.71177775708801 6 0 0
2106 669 4 0 -5.453383583029464 -1.7198391955357515 -6.330622645355339 5 0 1
144 29 3 0 -4.527494696156531 -1.3943016304133646 -6.14048379668105 6 0 0
176 36 1 0 -0.4096028863098464 -0.7358491702571097 -6.870572260886922 7 0 1
178 36 3 0 -0.7091570367529005 -0.688711849455725 -6.500183616879037 7 0 1
1666 522 4 0 -0.8469375445020475 -0.45356933270495325 -6.191694641338818 8 0 1
1132 344 4 0 -4.107055238023339 -9.64576773586637 -5.9286828044006645 11 1 0
1130 344 2 0 -3.8277238761189274 -9.989552646031514 -5.9579409099631295 11 1 0
1131 344 4 0 -3.5537817736479687 -10.346913005681637 -5.990808111715746 11 1 0
315 72 4 0 -4.475767693164854 -9.533079938564278 -6.012758001105357 2 0 0
724 208 4 0 -1.0146578183280504 -9.400810593044826 -5.924004992433337 4 0 0
190 38 3 0 -0.8193986984756698 -9.249284065868638 -5.602905241603296 3 0 1
189 38 3 0 -0.17070592908968152 -8.853322307245135 -5.493380081027393 3 0 1
186 38 1 0 -0.6215674572347147 -8.903788440444867 -5.361365979093889 3 0 1
2188 696 4 0 -0.5297262868486641 -8.270789906860587 -5.376721300534971 -3 -1 1
188 38 3 0 -0.8457224969957089 -8.522641356977397 -5.441637498259006 3 0 1
2186 696 2 0 -0.39380176213404816 -7.839341675442264 -5.408847018701016 -3 -1 1
1807 569 4 0 -5.824145696541525 -7.643002465800071 -6.004813660554707 -3 -1 0
1805 569 2 0 -5.470498444455337 -7.3796766858252365 -6.004237420170249 -3 -1 0
1806 569 4 0 -5.100694535158044 -7.106961917167686 -5.996480410385382 -3 -1 0
1222 374 4 0 -0.08996676322012576 -7.043900284244286 -5.439484440933597 4 0 0
2187 696 4 0 -0.2585865353426904 -7.412612456792937 -5.451131306778023 -3 -1 1
2739 880 4 0 -4.982660283040937 -6.767745571253428 -5.81900613724092 5 0 0
2738 880 2 0 -4.73514948843747 -6.495094202798189 -6.064270652835171 5 0 0
1919 607 2 0 -3.018106279597789 -4.37525943207548 -5.79838209867628 4 0 1
209 42 3 0 -10.253426987667762 -3.577574824682479 -5.2742626335802365 6 0 0
330 77 4 0 -5.533905474145739 -3.924580325633414 -5.58329669026072 -2 -1 0
2853 918 4 0 -5.29208697768211 -3.6123255703856616 -5.620020493875717 6 0 1
443 115 2 0 -3.5147235738077214 -3.558437362462729 -5.247913336769485 7 0 0
445 115 4 0 -3.3338687588261964 -3.9618587339472224 -5.209840784143751 7 0 0
1921 607 4 0 -3.191638366385858 -4.277541599911883 -5.4228829874534465 4 0 1
210 42 3 0 -10.047114766515385 -3.0449480709242787 -5.75527039062815 6 0 0
513 138 4 0 -9.734182740483819 -2.8610599759699147 -5.62131716855314 5 0 0
206 42 1 0 -10.366895559864227 -3.1781179250105023 -5.435813446111345 6 0 0
512 138 2 0 -9.265007497522769 -2.7734199759879044 -5.6491761703915815 5 0 0
514 138 4 0 -8.823268696081314 -2.6938451945680164 -5.673944230120224 5 0 0
2778 893 4 0 -8.230406187344398 -3.353092904064395 -5.383510141746401 13 1 1
32 7 3 0 -7.958623990191272 -3.0846762469503934 -5.525241215664012 5 0 1
31 7 1 0 -7.990594119469272 -2.6536604759515114 -5.537830016231579 5 0 1
2852 918 2 0 -5.196780873965128 -3.3831953160660415 -6.01321006162195 6 0 1
1992 631 4 0 -3.9690564068639356 -2.9024642713143685 -5.536602375684429 6 0 0
444 115 4 0 -3.7189277886138266 -3.136894889343571 -5.295722567795959 7 0 0
1263 388 4 0 -1.9930688091396576 -2.770218562287374 -6.068276588063194 6 0 0
1478 460 2 0 -1.200560415378403 -2.975439838614518 -5.676851462962188 16 1 1
1480 460 4 0 -1.604378597650756 -2.823380919017305 -5.913998046318146 16 1 1
1479 460 4 0 -0.8459906729619906 -3.113973680240269 -5.470543994002761 16 1 1
35 7 3 0 -8.445855227649544 -2.5281013728461197 -5.656462760959279 5 0 1
34 7 3 0 -7.704215373935063 -2.483393019361225 -5.850799637549245 5 0 1
1993 631 4 0 -4.182233845081419 -2.0977658935427552 -5.896208448335283 6 0 0
1991 631 2 0 -4.075944942696392 -2.5163354264525353 -5.710965290905576 6 0 0
1185 362 4 0 -4.322556861844883 -1.3223505051955176 -5.788572841486851 6 0 0
1184 362 2 0 -3.9250718334870145 -1.1260409764123178 -5.718331955886809 6 0 0
1186 362 4 0 -3.5325202075018627 -0.9330954732520791 -5.654103685135379 6 0 0
2928 943 4 0 -3.130679794373255 -0.924008575364768 -5.560859892971328 8 0 1
2927 943 2 0 -2.8537465673528546 -0.6094358341097639 -5.338700270159012 8 0 1
1664 522 2 0 -0.8433700419439472 -0.20159901562387006 -5.8139734992925005 8 0 1
187 38 3 0 -0.6365597417988127 -9.006988611266198 -4.930838056122586 3 0 1
1215 372 4 0 -0.4891188363234438 -8.786429249836935 -4.616178348020908 10 1 0
1214 372 2 0 -0.27381054628347634 -8.445572184264115 -4.407766599636705 10 1 0
847 249 4 0 -10.016316007931092 -3.85593861823849 -5.10306866727659 5 0 1
845 249 2 0 -9.595848188897614 -3.920991028923101 -4.980330450260356 5 0 1
2779 893 4 0 -8.777691797221339 -3.888954310869444 -4.95140686221151 13 1 1
846 249 4 0 -9.155683125333546 -3.98788063547251 -4.846702157842655 5 0 1
2777 893 2 0 -8.500964864789113 -3.6157719221653846 -5.171289923405012 13 1 1
331 77 4 0 -5.875720524213004 -4.223990958416075 -4.797012117195919 -2 -1 0
329 77 2 0 -5.6997039908972 -4.06570591021153 -5.20087515521739 -2 -1 0
2950 950 4 0 -5.888257452629516 -4.260149436613264 -4.379346407629516 5 0 1
263 55 2 0 -9.779355629621655 -2.700698040163327 -4.53227214279116 7 0 0
265 55 4 0 -10.24076396384757 -2.6870083305010892 -4.728852527354321 7 0 0
208 42 3 0 -10.391312683398716 -2.86045457972838 -5.0848908331194815 6 0 0
264 55 4 0 -9.376050083119694 -2.707149845082066 -4.368541679621817 7 0 0
1402 434 4 0 -6.738900061801081 -2.602842929787508 -4.526291624454509 13 1 1
33 7 3 0 -7.891852881226969 -2.486411930296663 -5.1360250483543854 5 0 1
1401 434 4 0 -7.523811433378102 -2.491756822899518 -4.985245204270407 13 1 1
1400 434 2 0 -7.140111488497542 -2.5456715285395237 -4.765711046989461 13 1 1
759 220 4 0 -6.35989664485401 -2.4850021457425004 -4.448844977008183 4 0 0
2929 943 4 0 -2.59503155019937 -0.3318925664013683 -5.122576136674989 8 0 1
1216 372 4 0 -0.06302741872398343 -8.088876099619444 -4.214155681685959 10 1 0
2458 786 4 0 -0.09259005953924593 -7.721818566401368 -4.035022345732888 12 1 0
2948 950 2 0 -5.90832365396302 -4.19037222717377 -3.90380660790675 5 0 1
1567 489 4 0 -9.06125248774583 -2.4616279941009367 -4.283651009607709 7 0 0
1565 489 2 0 -8.835474043437143 -2.0827978859990264 -4.197879358667936 7 0 0
758 220 2 0 -5.97067632353114 -2.3958745060326994 -4.2275946586051285 4 0 0
760 220 4 0 -5.603479160793525 -2.309438344901986 -4.0188297459806535 4 0 0
2406 769 4 0 -5.209241645421746 -2.1726901400067344 -4.0115500858174045 6 0 0
2405 769 2 0 -4.8014391655612805 -2.243777814227263 -3.901878992549431 6 0 0
2407 769 4 0 -4.36987982189894 -2.316098195551909 -3.7874970807694632 6 0 0
2397 766 4 0 -4.066655139792923 -2.101898229610633 -3.6439968780644376 14 1 0
2396 766 2 0 -3.645488405274408 -1.9680624306574934 -3.588050075619683 14 1 0
2398 766 4 0 -3.2057880881667007 -1.8332708308368328 -3.521982669081578 14 1 0
1566 489 4 0 -8.602624471717263 -1.7026659443421224 -4.11632388697405 7 0 0
1759 553 4 0 -8.246090411602545 -1.6422379338741653 -3.9540240664258626 8 0 0
1757 553 2 0 -7.993016141341874 -1.259986575007531 -4.008631333484923 8 0 0
1758 553 4 0 -7.736597726061383 -0.8822962389038373 -4.061345061797027 8 0 0
1078 326 4 0 -7.474295753636771 -0.6157836351730293 -4.112377432840113 7 0 0
1076 326 2 0 -7.0370677934766315 -0.6077961212110221 -3.961574279430705 7 0 0
1077 326 4 0 -6.5906701025081205 -0.6010548057523604 -3.7980342709272 7 0 0
1699 533 4 0 -2.5005384275223417 -8.73695545092458 -2.7050821046988665 4 0 0
1268 390 2 0 -0.08337780779160475 -9.169043322873687 -2.8140504673760054 10 1 0
1269 390 4 0 -0.5300623298119742 -9.301208173888671 -2.7317096546708406 10 1 0
1509 470 4 0 -2.2848051075893157 -8.394489280687644 -2.7304700782426883 12 1 0
1508 470 2 0 -1.9304834139450744 -8.12495737002289 -2.6436111680490937 12 1 0
1413 438 4 0 -6.145819685573715 -4.220725725360061 -3.151665510754329 5 0 1
1412 438 2 0 -6.497225344397856 -4.099746635889313 -2.9170335386858204 5 0 1
1414 438 4 0 -6.857489977033078 -3.97163874009689 -2.6715413270568966 5 0 1
2949 950 4 0 -5.924665618597237 -4.119278190600181 -3.4620271177255777 5 0 1
646 182 4 0 -8.673455665980315 -2.2177824643234434 -2.695569541767429 1 -1 0
872 258 2 0 -2.7375742918350667 -1.8254003287855323 -2.901874049359961 5 0 1
874 258 4 0 -3.069940590286919 -1.7376581583243311 -3.1644809159257035 5 0 1
873 258 4 0 -2.410897149346706 -1.9066288971341745 -2.623706546245656 5 0 1
2081 661 2 0 -10.156986994272643 -0.1655307804528423 -2.6609872544045876 8 0 0
2083 661 4 0 -10.37946126060739 -0.18096177153484483 -3.081812750773361 8 0 0
1695 532 4 0 -6.466321485299913 -0.7343265586359191 -3.45363391310587 8 0 0
1694 532 2 0 -6.179407953282364 -0.689249460912853 -3.1108911306674303 8 0 0
1696 532 4 0 -5.882701359752949 -0.655296922011189 -2.764469029436502 8 0 0
1629 510 4 0 -9.848807139339414 -10.192444625031428 -1.9310421818977108 12 1 0
1628 510 2 0 -10.193058856860718 -9.899619798192779 -1.8722322055305067 12 1 0
1141 347 4 0 -9.49694969397635 -10.3008939254109 -2.08623272027935 13 1 0
2298 733 4 0 -0.5610386172508015 -9.606863728544631 -2.4437084958900446 3 0 0
2297 733 2 0 -0.5916720196184677 -9.972619662575221 -2.178259808666388 3 0 0
2299 733 4 0 -0.6262431519484686 -10.331502155537855 -1.924685009924394 3 0 0
1698 533 4 0 -2.6198915650416863 -9.38809073102863 -2.0650104324419463 4 0 0
1697 533 2 0 -2.5565606172850677 -9.061641068294662 -2.384917390368372 4 0 0
1510 470 4 0 -1.5650255792357832 -7.843143519828216 -2.5327749214260438 12 1 0
158 32 3 0 -1.3302691106113063 -7.848563003706994 -2.221103409357296 4 0 0
830 244 2 0 -0.032074532864777794 -8.062694932450562 -2.2950232779429385 3 0 0
156 32 1 0 -1.0149163370782066 -7.541518957432847 -2.2442833256129173 4 0 0
157 32 3 0 -1.1464709751360296 -7.204548733464135 -2.539767794612845 4 0 0
160 32 3 0 -0.9611868761998874 -7.365157632164702 -1.8239005045930075 4 0 0
832 244 4 0 -0.19831971815914606 -7.768997984362027 -2.568338839478309 3 0 0
159 32 3 0 -0.6147192691439134 -7.743212103992548 -2.3919631731002813 4 0 0
1514 472 2 0 -1.3063596386888054 -6.48049111716211 -2.465760369434209 10 1 0
1515 472 4 0 -1.431211877784694 -6.9078922504673095 -2.595400004070414 10 1 0
1516 472 4 0 -1.1660603472649242 -6.054114598440739 -2.327376175703142 10 1 0
526 142 4 0 -0.9079712831999647 -5.7724588563203705 -2.4862156017939245 11 1 0
525 142 4 0 -0.04059774945162253 -5.681690256063468 -2.3735115683551573 11 1 0
524 142 2 0 -0.47645129458766355 -5.727323392810218 -2.431050531190401 11 1 0
1481 461 2 0 -6.881219768019026 -4.411085841815093 -1.9369654271169274 5 0 0
1482 461 4 0 -6.8426942205195385 -4.130787079787897 -2.296051694726822 5 0 0
549 150 4 0 -9.854692878827832 -2.051820068922858 -2.283472750354539 0 -1 0
548 150 2 0 -10.238164613891014 -1.839194896823635 -2.1324080610878884 0 -1 0
645 182 4 0 -9.435728176219824 -2.0962847669555025 -2.241908008752434 1 -1 0
644 182 2 0 -9.055940270579773 -2.1537665316332806 -2.4661630323012744 1 -1 0
1986 629 4 0 -8.331180775299005 -2.2663667484645806 -2.4978857146200832 1 -1 0
1985 629 2 0 -7.978942108083537 -2.208381798847105 -2.251469284393462 1 -1 0
1987 629 4 0 -7.603570912546587 -2.1476380159696102 -2.0026302556241795 1 -1 0
2181 694 4 0 -7.206060498897776 -2.1779890845970105 -2.109031928654966 9 0 0
2180 694 2 0 -6.7725011464151965 -2.030538785010327 -2.1405787150424427 9 0 0
2182 694 4 0 -6.347418047549082 -1.8667380179684567 -2.168761187969091 9 0 0
648 183 4 0 -2.0425480531762847 -1.997826547524907 -2.4817536803263094 5 0 0
649 183 4 0 -1.2145064667096488 -2.197087533410878 -2.250565758994478 5 0 0
647 183 2 0 -1.6380509197818078 -2.0997447360811705 -2.3773744674549935 5 0 0
291 64 4 0 -0.8081881206015993 -2.091272696359498 -2.255186958882316 5 0 0
290 64 2 0 -0.3459857461366109 -2.0504227122154806 -2.1984007277005624 5 0 0
763 221 4 0 -6.15126380164035 -1.578691034825022 -1.9192091765503978 8 0 0
761 221 2 0 -5.990599315028672 -1.2603712433048795 -2.2107024988455635 8 0 0
762 221 4 0 -5.83500525861186 -0.9506745979207576 -2.4817761889452727 8 0 0
613 171 4 0 -9.995840082470746 -0.17810542987493427 -1.8494919459703887 8 0 1
2082 661 4 0 -9.941739232112951 -0.147663494926487 -2.2542258748896113 8 0 0
1344 415 4 0 -2.545916106451437 -9.568468895458302 -1.7132266673246992 12 1 1
1345 415 4 0 -1.8972126665697253 -10.068551856470883 -1.3160221861268404 12 1 1
1343 415 2 0 -2.208586294704002 -9.826791205129528 -1.5125436286790084 12 1 1
2306 736 2 0 -1.157826975702827 -10.254804122229139 -1.1772006827681363 4 0 1
2308 736 4 0 -1.4913763522630035 -10.082297864860875 -1.3940735466113292 4 0 1
1122 341 4 0 -2.0707943443908334 -9.003076363513136 -0.9942395505120647 10 1 0
1218 373 4 0 -0.7917319588002432 -7.297470234642914 -1.476166220579449 12 1 -1
1217 373 2 0 -0.36955689184658524 -7.24098680343678 -1.3415181783176635 12 1 -1
1206 369 4 0 -8.941478249230013 -6.182089537655528 -1.4734572383287254 5 0 0
1100 334 2 0 -9.695279149752249 -5.958791236857792 -1.5645675315584526 12 1 0
1102 334 4 0 -10.13179660770286 -5.948891430553482 -1.5482222778045855 12 1 0
1101 334 4 0 -9.241492181471454 -5.974001914385745 -1.5879157827102084 12 1 0
1205 369 2 0 -8.535747845599758 -5.974353254335999 -1.4284947894489903 5 0 0
1207 369 4 0 -8.11623461437029 -5.772561022294238 -1.3840634754713914 5 0 0
2341 747 4 0 -7.9765065597353955 -5.458103610034489 -1.5854082331132346 6 0 0
2339 747 2 0 -7.612095009234309 -5.1756545859018415 -1.608884922477543 6 0 0
2340 747 4 0 -7.254641637784902 -4.906610643782385 -1.6389881666813846 6 0 0
1483 461 4 0 -6.930940792216168 -4.671827081945142 -1.57887175092538 5 0 0
2761 887 4 0 -9.989638065124124 -3.977427969161579 -1.4771149966900374 12 1 1
2689 863 4 0 -9.834957932997707 -3.8721603215919576 -1.092456771195291 13 1 0
2759 887 2 0 -10.275911890589128 -4.3189286171651275 -1.5997958343196803 12 1 1
2687 863 2 0 -9.427013905679681 -4.056693001758566 -0.9903085632485844 13 1 0
2688 863 4 0 -9.017719818619318 -4.234210162109849 -0.8810570574369585 13 1 0
1878 593 4 0 -5.236624589886941 -3.2796066778089363 -1.1616056525933445 4 0 0
1877 593 2 0 -4.952085932694931 -3.4519363424903107 -0.8691236558795268 4 0 0
989 297 2 0 -8.839309974303855 -1.900595361532746 -1.1703472115304798 6 0 0
991 297 4 0 -8.685204238588701 -2.3011844145214972 -1.3256300897875963 6 0 0
990 297 4 0 -9.0002029919147 -1.4788228849559957 -0.9978775376091402 6 0 0
2281 727 4 0 -9.031958024315301 -1.0827804724504446 -1.0802881245199796 7 0 0
2279 727 2 0 -8.655057095924723 -0.8212053682926221 -1.1660685095321437 7 0 0
2280 727 4 0 -8.315938980375334 -0.5870718535996282 -1.2360529389298307 7 0 0
2302 734 4 0 -7.986245806709411 -0.3727866885571718 -1.1441883421355161 7 0 0
2300 734 2 0 -7.642494143306088 -0.32378093999050606 -0.8862488178790446 7 0 0
704 202 2 0 -9.07888777793046 -10.362505099053129 -0.6777792461526833 4 0 0
706 202 4 0 -8.621569347457404 -10.276239934395715 -0.6524679438057905 4 0 0
1536 479 4 0 -1.2933909931235075 -9.262992151480281 -0.04835124824913173 3 0 0
1121 341 2 0 -1.725631483311247 -9.132363840456055 -0.7062401716744695 10 1 0
1123 341 4 0 -1.3964839642897005 -9.259546726486114 -0.4436312514258365 10 1 0
419 107 2 0 -8.411468609821497 -4.377853000706507 -0.2745264858701333 5 0 0
420 107 4 0 -8.697028473018296 -4.262399285796618 -0.6021827814001046 5 0 0
1879 593 4 0 -4.681906447123781 -3.640809349046221 -0.57400077887824 4 0 0
1324 408 4 0 -4.662339630866603 -3.890555698234092 -0.24606379058885608 12 1 0
1572 491 4 0 -10.246732558450613 -0.10336213126152316 -0.26003111350804 6 0 0
928 276 4 0 -7.065339275274756 -0.009109694461473694 -0.35757052465450023 6 0 0
2301 734 4 0 -7.268238006985105 -0.26883626138635996 -0.5948064120391887 7 0 0
741 214 4 0 -2.9621254460895274 -10.262468724051754 0.5908958968317819 4 0 0
1535 479 2 0 -0.9766452703412245 -9.270023717197319 0.2525105386724622 3 0 0
1537 479 4 0 -0.6371089969253987 -9.27810950979163 0.5652367512337229 3 0 0
3061 987 4 0 -1.4960181134382857 -7.051429938122152 0.8135296818406115 11 1 0