LAMMPS data file via write_data, version 19 Nov 2024, timestep = 10000, units = lj

5 atoms
4 atom types
4 bonds
1 bond types
6 angles
2 angle types

-0.5 0.5 xlo xhi
-0.5 0.5 ylo yhi
-0.5 0.5 zlo zhi

Masses

1 1
2 1
3 0.1
4 0.1

Bond Coeffs # harmonic/omp

1 100 0.45

Angle Coeffs # harmonic/omp

1 100 180
2 100 109.471

Atoms # full

2 1 3 0 -0.1697857095744323 -0.23322786704440837 -0.3967774450429502 -2 1 -1
5 1 3 0 -0.44890502984849245 -0.3860584319078594 -0.3922021563703811 -1 1 -1
1 1 1 0 0.1646030196275861 -0.48181528726101697 -0.2059099617886891 -2 1 -1
3 1 3 0 0.1920803164598056 -0.39741477863370206 0.2363657032814012 -2 1 -1
4 1 3 0 0.06861176773497839 0.04921613643803773 -0.27115646064387144 -2 0 -1

Velocities

2 -0.5537920723030638 -0.7294196496772899 0.539141447166982
5 0.24281064914372522 0.0507647809661759 1.4074651234862163
1 -0.025000560197122323 0.08239945641753474 -0.3376085131128534
3 -1.2093251864456405 -0.5777201963958568 0.9278079802022975
4 1.0957331484127237 -1.2059040476869713 0.11470578905807025

Bonds

1 1 1 2
2 1 1 3
3 1 1 4
4 1 1 5

Angles

1 2 2 1 3
2 2 2 1 4
3 2 2 1 5
4 2 3 1 4
5 2 3 1 5
6 2 4 1 5
