LAMMPS data file via write_data, version 19 Nov 2024, timestep = 100000, units = lj

32 atoms
4 atom types
22 bonds
1 bond types
15 angles
2 angle types

-2.068243 2.068243 xlo xhi
-2.068243 2.068243 ylo yhi
-2.068243 2.068243 zlo zhi
-4.136487405137501e-05 0 0 xy xz yz

Masses

1 1
2 1
3 0.1
4 0.1

Bond Coeffs # harmonic/omp

1 100 0.45

Angle Coeffs # harmonic/omp

1 100 180
2 100 109.471

Atoms # full

19 6 4 0 -0.415456929018426 -2.029233316673885 -1.43561052480249 0 0 0
6 2 2 0 -0.36940728622207786 -0.15345771567370492 -1.3657305931565769 0 0 0
7 2 4 0 -0.07693479151278937 -0.460792316098686 -1.5185123585296494 0 0 0
4 1 3 0 -1.9898803369670075 0.6728684604237389 -1.8409710988813586 1 0 1
5 1 3 0 -1.9707836445183027 0.10409830282018584 -1.4050399152003101 1 0 1
8 2 4 0 -0.6624454771746315 0.15736145526701995 -1.208204341463742 0 0 0
29 9 4 0 -1.22022925077717 1.8146403163713796 1.211033999098051 1 0 -1
25 8 4 0 -1.557545261569071 1.8128114948385976 1.4422887878294541 1 -1 0
24 8 2 0 -1.9625050290053605 1.8120539919830385 1.6377746540730378 1 -1 0
32 10 4 0 -0.02741752441956269 1.5113420378175895 1.6301407814283486 1 0 0
27 9 2 0 -0.8243006979613543 1.6811379499264083 1.3494207068266557 1 0 -1
28 9 4 0 -0.39516724387858915 1.5366399277877796 1.497160024631206 1 0 -1
12 4 2 0 0.8306694114886244 -1.1791539232253285 -1.449003840957314 0 1 0
13 4 4 0 0.8027115371223079 -1.6335144879674597 -1.5606221987814952 0 1 0
14 4 4 0 0.8564714835442704 -0.7430087184329224 -1.3388628975938066 0 1 0
17 5 4 0 1.3493339974538854 -0.0822902476390861 -1.8778526554512753 0 0 1
11 3 4 0 0.6427469309171845 -1.7335005352220874 1.2601859896859722 0 0 0
31 10 4 0 0.4726013726080396 -1.8743643933824328 1.587366306183898 1 1 0
9 3 2 0 0.9457995219020288 -1.4272348048133048 1.3950004566907612 0 0 0
10 3 4 0 1.2562372924308245 -1.1066864458867478 1.5295886610708735 0 0 0
15 5 2 0 1.2502859239338675 -0.41835543012525367 1.997035877563925 0 0 0
16 5 4 0 1.152467715544843 -0.7739972328855356 1.721392847157138 0 0 0
1 1 1 0 1.9025433199459072 0.37179533833058054 -1.6431447823529752 0 0 1
2 1 3 0 1.6080081650318472 0.5703773720316492 -1.3739377214845816 0 0 1
3 1 3 0 1.6857046042035213 0.13202581282888515 -1.9544598973063372 0 0 1
23 7 4 0 0.7207096772632839 1.6215398029087034 -1.6107332858940115 0 -1 0
20 6 4 0 0.45060308751620015 1.8747736026970214 -1.452782145066232 0 -1 0
18 6 2 0 0.019957631688383604 1.9921854415392781 -1.4427277500797766 0 -1 0
21 7 2 0 1.1488978283662106 1.6338336334743242 -1.8012024419918216 0 -1 0
22 7 4 0 1.5657728973214362 1.6522953397450997 -2.0026693465798084 0 -1 0
30 10 2 0 0.2278159885384925 1.8958018651200796 1.612995033599764 1 0 0
26 8 4 0 1.7745769773487767 1.8106606932833351 1.8312950375331671 0 -1 0

Velocities

19 -0.17780991914656308 0.24329077341311448 -0.029317831430436914
6 -0.010584399668621238 -0.2219057811761155 0.29625112153503147
7 0.8978503460227892 -0.7713946619274803 0.0963753175881322
4 0.30096023829688173 -0.19609102054746175 -0.3804623481734364
5 0.5777733114216681 0.5998642261212465 0.010773269355569576
8 0.3388664405002859 -0.4791140802208906 -0.2090075621969556
29 0.18189210089301353 -0.5806878199504405 -0.44637630198912914
25 -0.2961460811680564 1.0902153243130295 -0.20130186985511284
24 0.023948280569686637 0.031097871781630832 -0.048210724844078415
32 0.5023170526975766 0.6609019413636962 -0.6053002075586741
27 -0.20173364134001034 -0.1423624899820202 -0.21845810483371597
28 -0.19478569489072753 0.04206438877413685 -0.8948504688711202
12 0.16722129797217292 0.3338017198826873 -0.02960092381228227
13 -0.2505344625807084 0.4662736745230337 0.4168981277007284
14 -0.4806715248703386 -0.5391109024750991 0.7832825208536524
17 0.025222795079926932 0.28552232931616867 0.23565845139069905
11 -0.5601946901313146 -0.4776085360509554 -0.10962815730068104
31 -0.14540815009147845 -0.4618662314064989 0.4834017856304278
9 -0.19296685413359424 -0.17537713496457552 -0.26370243360889906
10 -1.0270663462114125 0.20440900760323494 0.30163383369120494
15 0.42333297515413476 0.2804098962757618 -0.24614141128999156
16 -0.2675324148535607 1.0764584326115296 0.00887439418826245
1 -0.011025923015244883 -0.1680519266713902 0.15072798856632721
2 0.983359595063083 -0.8425470407001969 -0.5928447912244056
3 -0.4674388358317174 0.795735177005958 -0.7454592638792643
23 0.5285072891775686 -0.3934715846258683 -0.024145035296318937
20 0.05778994759884922 0.4758141237351752 -0.014380274586844637
18 0.07607969539427886 -0.2282047244452817 0.25892759391376624
21 0.14150195154959697 0.20836163194345325 0.22770218542168472
22 -0.27605414165559283 -0.006175426734419419 -0.1132841772199295
30 -0.08451026072827492 -0.03620571539191088 0.03342798982966495
26 -0.3691996512435007 -0.008111766245937208 0.4202385479791065

Bonds

1 1 6 7
2 1 6 8
3 1 24 25
4 1 24 26
5 1 27 28
6 1 27 29
7 1 12 13
8 1 12 14
9 1 9 10
10 1 9 11
11 1 15 16
12 1 15 17
13 1 1 2
14 1 1 3
15 1 1 4
16 1 1 5
17 1 18 19
18 1 18 20
19 1 21 22
20 1 21 23
21 1 30 31
22 1 30 32

Angles

1 1 7 6 8
2 1 25 24 26
3 1 28 27 29
4 1 13 12 14
5 1 10 9 11
6 1 16 15 17
7 2 2 1 3
8 2 2 1 4
9 2 2 1 5
10 2 3 1 4
11 2 3 1 5
12 2 4 1 5
13 1 19 18 20
14 1 22 21 23
15 1 31 30 32
