LAMMPS data file via write_data, version 4 Feb 2025, timestep = 800000, units = lj

4650 atoms
4 atom types
3150 bonds
1 bond types
1875 angles
2 angle types

-11.917153 11.917153 xlo xhi
-11.917153 11.917153 ylo yhi
-11.917153 11.917153 zlo zhi
2.1316282072803006e-14 0 0 xy xz yz

Masses

1 1
2 1
3 0.1
4 0.1

Bond Coeffs # harmonic/omp

1 100 0.45

Angle Coeffs # harmonic/omp

1 100 180
2 100 109.471

Atoms # full

2988 946 4 0 -11.732613827192148 -11.798434168909697 -11.042089179242716 4 0 0
3484 1112 2 0 -5.936798495850716 -11.327587317854979 -11.257514151065198 5 0 1
3485 1112 4 0 -6.183219080430499 -11.020722776906206 -11.04266177800754 5 0 1
3486 1112 4 0 -5.682523337983064 -11.648773861002168 -11.494563732420866 5 0 1
3734 1195 4 0 -5.3339670349066175 -11.807012395213274 -11.66998722402301 13 1 1
3979 1277 2 0 -0.08028366188576186 -11.181586389482613 -11.708160927695742 11 1 0
3981 1277 4 0 -0.5302943737506904 -11.202856024930433 -11.862534437322049 11 1 0
1448 433 4 0 -4.713541425994959 -10.991370838583455 -11.60496415712477 10 1 0
1447 433 2 0 -4.942840761801797 -10.717824572390455 -11.346895006057954 10 1 0
1449 433 4 0 -5.165325821470269 -10.418487988493395 -11.068506335193222 10 1 0
4327 1393 2 0 -3.7146690182192614 -10.198658880054909 -11.006778480453255 13 1 1
4328 1393 4 0 -3.8643692221396897 -9.852827347294053 -11.257464345101523 13 1 1
1911 587 4 0 -4.588933655858517 -8.293882617079163 -11.745131918021194 3 0 0
617 156 4 0 -4.823809550442506 -8.19307806053424 -11.423610383985482 3 0 0
616 156 2 0 -5.001933746559231 -8.151257269066177 -11.014459669583582 3 0 0
531 127 4 0 -11.42857401049335 -11.80133195626935 -10.791828421824182 3 0 0
529 127 2 0 -11.00358904537611 -11.871563257815037 -10.816647013107488 3 0 0
83 17 3 0 -6.786912584384176 -11.33592856279994 -10.34684477321151 3 0 1
4529 1460 4 0 -3.436150972919812 -11.68890431079625 -10.637474617096219 13 1 1
4528 1460 2 0 -3.358147889541554 -11.25002320539854 -10.676542200425407 13 1 1
4612 1488 2 0 -6.808159591333375 -10.491388432054132 -10.578216882888686 11 1 0
4613 1488 4 0 -6.810690159242045 -10.953060050973626 -10.494806491881786 11 1 0
2879 910 4 0 -5.00286174566528 -10.145708386996985 -10.860211156493458 3 0 0
4530 1460 4 0 -3.272578515219374 -10.819232720038473 -10.71458022448645 13 1 1
4329 1393 4 0 -3.562636094558238 -10.552674211556555 -10.748106313421195 13 1 1
4614 1488 4 0 -6.801663582764048 -10.04156200553682 -10.66436255384437 11 1 0
3875 1242 4 0 -6.561212792639197 -9.719302720185574 -10.583135133929732 11 1 0
3874 1242 2 0 -6.384421229081137 -9.521866124562452 -10.237324981500802 11 1 0
2878 910 2 0 -4.749479804338219 -9.895962947322596 -10.612694168475628 3 0 0
2880 910 4 0 -4.465328763826951 -9.618835558199375 -10.34211522298462 3 0 0
2387 746 4 0 -3.9399643712581245 -8.38301126278925 -10.138961839962183 11 1 0
2431 761 2 0 -1.9116945062552482 -8.29191144943601 -10.70094085549647 11 1 1
2433 761 4 0 -1.7698455973578984 -8.705933055798099 -10.8061297730649 11 1 1
872 241 4 0 -5.387587069599744 -7.996835863970162 -10.258023849880763 3 0 0
618 156 4 0 -5.182852212742576 -8.123210993040466 -10.594036597071616 3 0 0
2386 746 2 0 -3.795969443452064 -7.989025411697279 -10.195244851762462 11 1 0
2388 746 4 0 -3.6434452058203863 -7.5573041284365 -10.251064483565075 11 1 0
2432 761 4 0 -2.0588664474160634 -7.855508626611393 -10.595535408658298 11 1 1
1471 441 2 0 -0.05631633169896055 -8.195506888435963 -10.195060809168787 10 1 0
2916 922 4 0 -11.39696665933298 -6.141952897987643 -10.453390736396832 6 0 0
2796 882 4 0 -11.757634669150313 -6.077453223145633 -10.552457490641428 5 0 0
2914 922 2 0 -10.914202985774201 -6.164128587021352 -10.519406349009817 6 0 0
2915 922 4 0 -10.461018275065996 -6.1923486619806685 -10.576673945923813 6 0 0
569 140 4 0 -10.088842542221093 -6.108863872658434 -10.581299514437783 6 0 0
568 140 2 0 -9.653732231537695 -6.101114950220918 -10.524777114407025 6 0 0
570 140 4 0 -9.188601569545774 -6.098777782191502 -10.466765345474393 6 0 0
498 116 4 0 -8.807142551263903 -5.985929340777483 -10.419443209211206 5 0 0
496 116 2 0 -8.483760517721825 -5.948272221148324 -10.128790746055708 5 0 0
1722 524 4 0 -11.846465676708332 -0.06983697217074969 -10.59241756764608 8 0 0
1436 429 4 0 -0.3621585573106696 -0.5298445180142348 -10.374298549486294 9 0 0
2891 914 4 0 -0.36312363447404294 -0.23056296027971435 -10.66049528205903 9 0 0
1059 303 4 0 -7.515355521892792 -11.127606583838432 -9.528215228201017 3 0 1
81 17 1 0 -6.900762112473911 -11.562672788561644 -9.986308915883356 3 0 1
84 17 3 0 -7.265536453916596 -11.350170877943631 -9.780833047567633 3 0 1
85 17 3 0 -6.555953548582299 -11.589385706201249 -9.706271896176318 3 0 1
4152 1334 4 0 -6.230684552348988 -11.535896753641705 -9.461090236746625 14 1 1
4150 1334 2 0 -5.795993615933522 -11.685281398230886 -9.432258544271999 14 1 1
4151 1334 4 0 -5.385851662256737 -11.84023634601414 -9.403693125499675 14 1 1
2025 625 4 0 -8.415396349284643 -10.359616087293295 -9.892591829680436 3 0 1
1058 303 4 0 -8.073104680806857 -10.524998812910171 -9.822650270896657 3 0 1
1057 303 2 0 -7.79175710813117 -10.828055988353192 -9.670197449799105 3 0 1
2024 625 4 0 -8.606541221475844 -9.490435052728422 -9.63426605079222 3 0 1
2023 625 2 0 -8.508082781147277 -9.931650174135916 -9.771840153204948 3 0 1
1371 407 4 0 -8.275468863551547 -9.28402515181505 -9.504483050465595 3 0 1
3876 1242 4 0 -6.1946610795335655 -9.29720718526842 -9.865348751440557 11 1 0
2931 927 4 0 -5.832521547776978 -9.220300454073513 -9.800485164439472 3 0 0
44 9 3 0 -4.299165297004744 -9.383895339156552 -10.078344874899186 2 0 0
45 9 3 0 -4.065062859542183 -9.185364796466196 -9.42042604650728 2 0 0
1369 407 2 0 -7.988163848945593 -8.953373238067261 -9.466696297234195 3 0 1
1370 407 4 0 -7.678234603044466 -8.611257087850076 -9.438279531684529 3 0 1
2929 927 2 0 -5.428590371721996 -9.105600974704638 -9.667616695583748 3 0 0
2930 927 4 0 -5.021799299391995 -8.997224432619202 -9.545280142152025 3 0 0
43 9 3 0 -4.6864995657040796 -8.870768026304097 -9.725042508098865 2 0 0
41 9 1 0 -4.253632428966482 -9.049404026922183 -9.821464900002928 2 0 0
42 9 3 0 -4.001748785563488 -8.746307477023457 -10.010575380849929 2 0 0
4299 1383 4 0 -0.9831800860248201 -9.088435703206953 -9.354351229823491 11 1 0
4297 1383 2 0 -0.7339534409286426 -8.703599321978757 -9.46108399718789 11 1 0
4298 1383 4 0 -0.4953846219326543 -8.317892637619176 -9.572010839209367 11 1 0
4542 1464 4 0 -7.726176643286601 -8.212672235591969 -9.573545642411867 11 1 1
4540 1464 2 0 -7.874874959572243 -7.8491016307278 -9.36696703258754 11 1 1
4541 1464 4 0 -8.01252575721705 -7.500667362645649 -9.176001937046907 11 1 1
871 241 2 0 -5.564474680661626 -7.701635274872605 -9.951259477925374 3 0 0
755 202 4 0 -5.6596763468617 -7.37717718034641 -9.262793210419794 3 0 0
873 241 4 0 -5.748069109713279 -7.412871009411624 -9.643398595947005 3 0 0
1473 441 4 0 -0.40643855537758355 -8.157605775229358 -9.923214528531798 10 1 0
497 116 4 0 -8.143697982964865 -5.905420357256758 -9.803256683480292 5 0 0
941 264 4 0 -7.937754666463212 -5.600091535107955 -9.611077996529287 5 0 1
940 264 2 0 -7.506100184854721 -5.71074104103154 -9.548656066744748 5 0 1
942 264 4 0 -7.087385106810909 -5.818779670698231 -9.479696538742804 5 0 1
3345 1065 4 0 -6.702287891506307 -5.90539555393326 -9.506800107439096 5 0 1
3343 1065 2 0 -6.320549565127505 -5.670706432220072 -9.51541314647981 5 0 1
4368 1406 4 0 -3.0069472356621016 -5.667225670954002 -9.51402120252714 6 0 1
2514 788 4 0 -2.6264850538830746 -5.730213538011817 -9.39256866992262 6 0 0
2763 871 4 0 -0.34435436209363957 -5.990690783574624 -9.20767639226572 5 0 0
1446 432 4 0 -0.6825283617545423 -5.7999713244360365 -9.22255037585747 5 0 0
3344 1065 4 0 -5.953057858582591 -5.4485243704973945 -9.517391878388825 5 0 1
2882 911 4 0 -5.571812254704951 -5.443655929754629 -9.360074226130168 5 0 0
2881 911 2 0 -5.217547165100913 -5.178694515313318 -9.277347257388866 5 0 0
2883 911 4 0 -4.879206234983807 -4.92220727372895 -9.205738767049553 5 0 0
4367 1406 4 0 -3.757177404979318 -5.148523481855847 -9.433954098709352 6 0 1
4366 1406 2 0 -3.375568710697266 -5.4085577023266005 -9.470206364767325 6 0 1
650 167 4 0 -0.6963067005407133 -2.81887606321253 -9.42027703555802 7 0 0
3368 1073 4 0 -0.43218865804433726 -2.5898684437157904 -9.240789135101961 7 0 1
3044 965 4 0 -4.784674624013029 -1.586880833079686 -9.566311062004885 8 0 0
3043 965 2 0 -4.499287175473333 -1.558022459258078 -9.222331112115569 8 0 0
1120 324 2 0 -11.83974217063746 -11.87212283578167 -8.8316121721584 6 0 1
1343 398 4 0 -3.8380494590171033 -11.00946574186416 -8.751259525013262 2 0 1
4552 1468 2 0 -1.9168930112719877 -11.030073449081359 -8.749100709202601 11 1 0
4554 1468 4 0 -2.38805583051073 -11.036077470052874 -8.79289140766988 11 1 0
2007 619 4 0 -1.131693057376122 -11.031056661733396 -8.50076641549455 10 1 0
4553 1468 4 0 -1.4684806005408415 -11.023243842430835 -8.700933142665308 11 1 0
2005 619 2 0 -0.6822446980031298 -11.149615962772648 -8.542311428574125 10 1 0
3290 1047 4 0 -0.132724888166738 -11.648395512804692 -8.471642399706672 3 0 0
2006 619 4 0 -0.23789782537392412 -11.271446537510194 -8.584955156545082 10 1 0
1342 398 2 0 -4.058420105643581 -10.781098873370551 -8.406021583130283 2 0 1
2925 925 4 0 -3.5061268256754587 -10.808223360937168 -8.742943102861753 3 0 0
2923 925 2 0 -3.0374483973843454 -10.756959154125692 -8.828062826409212 3 0 0
2924 925 4 0 -2.6022361206688114 -10.700978142435297 -8.909238457297567 3 0 0
2099 650 4 0 -3.8824470718423534 -9.189082256900345 -9.080361778194696 10 1 1
2098 650 2 0 -3.540470075191349 -9.455626185142101 -9.043487077509008 10 1 1
2100 650 4 0 -3.175195966182132 -9.735577865185938 -9.00295063475569 10 1 1
827 226 4 0 -2.8451374830060168 -9.506333046313753 -9.032585323504295 2 0 0
826 226 2 0 -2.4264584159938885 -9.532572294280246 -8.928598566944082 2 0 0
828 226 4 0 -1.9512787456583407 -9.568813167058007 -8.811795728811926 2 0 0
396 82 4 0 -1.6514643571901733 -9.552408248378345 -8.562001934622602 2 0 0
394 82 2 0 -1.3164390664330607 -9.375287904586745 -8.754010106850592 2 0 0
395 82 4 0 -0.9505583915736349 -9.199184380295272 -8.969963858376703 2 0 0
2830 894 2 0 -7.738237388478074 -6.7464524937778805 -8.942739143362695 4 0 0
2831 894 4 0 -7.801353212196571 -7.179527657311818 -9.08014500266461 4 0 0
754 202 2 0 -5.469101732222283 -7.151538825564848 -8.930810643735281 3 0 0
756 202 4 0 -5.269436576047406 -6.924647079444466 -8.592547986769397 3 0 0
861 237 4 0 -5.255581558648904 -6.570238520075719 -8.425438715773256 3 0 0
2832 894 4 0 -7.677529794605974 -6.297454143564114 -8.799168613427472 4 0 0
2512 788 2 0 -2.2521007796262573 -5.78604295487642 -9.16207670722032 6 0 0
2513 788 4 0 -1.85650448950547 -5.844137215303906 -8.913664981305958 6 0 0
1445 432 4 0 -1.531419456880636 -6.076370056212786 -8.995202545679216 5 0 0
1444 432 2 0 -1.1077107481565722 -5.935689627166805 -9.108175735925485 5 0 0
35 7 3 0 -4.48790590603771 -4.813629849053857 -9.130292472457313 5 0 0
31 7 1 0 -4.095109345347168 -4.66541636820017 -8.97502907235787 5 0 0
32 7 3 0 -4.117991098557861 -4.609234539094485 -8.525086518316582 5 0 0
34 7 3 0 -3.7876849550166476 -4.945284210253362 -9.062555087561604 5 0 0
33 7 3 0 -3.99220189874894 -4.279302939117838 -9.16128251020748 5 0 0
4455 1435 4 0 -3.7674149315134873 -3.9295966138535023 -9.075075620405004 7 0 1
4453 1435 2 0 -3.3610361238138644 -3.785614615226214 -9.031996996674952 7 0 1
4454 1435 4 0 -2.926740934117216 -3.6407349474206665 -8.99194080270507 7 0 1
515 122 4 0 -2.5483576599035 -3.4708874139134167 -8.983193606360995 7 0 0
514 122 2 0 -2.1216302974991716 -3.32547300092296 -8.890474245377222 7 0 0
516 122 4 0 -1.7219728127505487 -3.1901010228412776 -8.807034995019906 7 0 0
651 167 4 0 -1.3195280859911396 -3.1325404799426657 -8.858678860678202 7 0 0
649 167 2 0 -1.0125106839324722 -2.9803917932943946 -9.136042605844064 7 0 0
3045 965 4 0 -4.210867601274033 -1.5319838596990234 -8.895926896757016 8 0 0
3476 1109 4 0 -2.487620277602609 -0.9248276491370522 -8.470587103801403 8 0 0
3475 1109 2 0 -2.065787370254137 -0.9763396043199268 -8.355651553372342 8 0 0
3709 1187 2 0 -3.2469076403397352 -0.7189668891472998 -8.270444747891808 8 0 0
3710 1187 4 0 -2.8331663066549897 -0.7280479292990911 -8.44022448195521 8 0 0
3151 1001 2 0 -4.853008094976788 -10.251600186400303 -7.472271421622445 3 0 0
3152 1001 4 0 -4.48283152152728 -10.404934707680225 -7.724012347217781 3 0 0
1344 398 4 0 -4.272289798540641 -10.534706536206626 -8.046873667844512 2 0 1
4050 1300 4 0 -1.0314822296049826 -9.79944904719956 -7.457024450535519 10 1 0
4048 1300 2 0 -1.4548384364995393 -9.71366345785191 -7.343935760099298 10 1 0
2704 852 2 0 -0.40180436247147355 -9.308665683570005 -7.583334838340466 4 0 0
2706 852 4 0 -0.6486647469254319 -9.689795460167822 -7.604293731910245 4 0 0
2705 852 4 0 -0.15383460747778877 -8.919930665442244 -7.560202563191218 4 0 0
859 237 2 0 -4.947986293578228 -6.670359579825198 -8.096310010234003 3 0 0
860 237 4 0 -4.631205817880067 -6.767620296528912 -7.774330534702314 3 0 0
1091 314 4 0 -4.299068008240921 -6.683750285980306 -7.5370736921136405 3 0 1
1563 471 4 0 -3.4171715219923655 -6.179171808501059 -7.418030566508404 5 0 0
1561 471 2 0 -3.1078587373101243 -5.859738088141747 -7.389910084689582 5 0 0
1562 471 4 0 -2.810563870065854 -5.548661871601533 -7.346200686287213 5 0 0
3063 971 4 0 -2.4098355251519017 -5.565462047470653 -7.40967500552071 6 0 1
2790 880 4 0 -4.35891598879307 -4.5851084205686545 -8.21736197232713 7 0 0
3061 971 2 0 -2.2809717045472375 -5.1449937464070485 -7.497940601889513 6 0 1
3062 971 4 0 -2.1644375540058114 -4.689195749748968 -7.590637572001698 6 0 1
2789 880 4 0 -5.003390967580565 -4.0562339320104455 -7.835161505835811 7 0 0
3527 1126 4 0 -4.783678485237586 -3.798383756154765 -7.591493711192788 7 0 1
2788 880 2 0 -4.681203384336706 -4.316740337863071 -8.028719477642895 7 0 0
3528 1126 4 0 -4.873781075874777 -2.9575753243537086 -7.4582166291390495 7 0 1
3526 1126 2 0 -4.826842872408361 -3.3703250369315985 -7.524371060374792 7 0 1
3314 1055 4 0 -4.849726159319085 -2.569257960218886 -7.513806729025984 7 0 1
3313 1055 2 0 -4.773600197173319 -2.1642687258285775 -7.659181721804078 7 0 1
3315 1055 4 0 -4.700151095055625 -1.7714169761574876 -7.7928754910847715 7 0 1
408 86 4 0 -4.501974555122804 -1.4528237924079956 -7.674332967033535 7 0 0
406 86 2 0 -4.222799644087121 -1.1108728435248523 -7.726392631657753 7 0 0
3477 1109 4 0 -1.615485714476769 -1.0303149412980996 -8.223026388548858 8 0 0
2864 905 4 0 -1.5140618573851974 -1.053015515179485 -7.859414139281548 8 0 0
3711 1187 4 0 -3.691801438077885 -0.7018263891644221 -8.072686524993257 8 0 0
407 86 4 0 -3.9467773935952266 -0.765612224856218 -7.781958325627305 7 0 0
2863 905 2 0 -1.1676386236222118 -0.784006891641809 -7.72906989512271 8 0 0
2865 905 4 0 -0.8299687085640759 -0.5174544935698666 -7.603237045526376 8 0 0
3810 1220 4 0 -0.6518168486291955 -0.20741662171014674 -7.76740310662765 8 0 0
3808 1220 2 0 -0.2546008229330621 -0.15092402933208504 -7.599246233166282 8 0 0
3094 982 2 0 -8.243690974593772 -11.81653221865746 -6.578562042423019 3 0 0
3096 982 4 0 -8.048257594731423 -11.832929717239924 -6.984788462713516 3 0 0
1119 323 4 0 -7.752606320372958 -11.594490811196426 -7.103666136089379 2 0 1
1117 323 2 0 -7.296432206793558 -11.58864749215402 -7.103536155127884 2 0 1
1118 323 4 0 -6.855018051411545 -11.583439621383613 -7.120762171594894 2 0 1
4212 1354 4 0 -6.4853544093011655 -11.694479387128577 -7.254960128320778 11 1 1
4210 1354 2 0 -6.131528041997496 -11.80048842115006 -7.024235591257991 11 1 1
3153 1001 4 0 -5.215274131299663 -10.086795012134417 -7.225739105133168 3 0 0
3683 1178 4 0 -6.582958193016671 -9.190828204640301 -7.196950599586292 12 1 0
418 90 2 0 -5.945583450766957 -9.699361010840118 -7.270330872696111 2 0 0
419 90 4 0 -5.597993105535672 -10.021147080259793 -7.229858754329157 2 0 0
420 90 4 0 -6.268036261501837 -9.387914491163212 -7.305187314794444 2 0 0
3804 1218 4 0 -2.921743547247516 -9.69406955913506 -6.5871198842614636 11 1 0
3503 1118 4 0 -3.175110897349567 -10.011994721698038 -6.539634027949502 5 0 1
3802 1218 2 0 -2.556526500755405 -9.783742210529203 -6.840665573127118 11 1 0
3803 1218 4 0 -2.1676615428721195 -9.883429302419971 -7.101276519633066 11 1 0
4049 1300 4 0 -1.8912307733517277 -9.638269077104148 -7.220990978493209 10 1 0
3682 1178 2 0 -6.7125375154808875 -8.942648905242638 -6.867364012484113 12 1 0
3684 1178 4 0 -6.831276104778971 -8.700803723327848 -6.538639505192547 12 1 0
1090 314 2 0 -4.209310291391257 -6.518049250154641 -7.139240393966527 3 0 1
855 235 4 0 -0.4549275460525841 -6.611606311413176 -6.819200557587356 3 0 0
853 235 2 0 -0.7088642937497909 -6.906194074698927 -6.59011739761918 3 0 0
1092 314 4 0 -4.119775182374686 -6.350092549119756 -6.72717790780443 3 0 1
1818 556 4 0 -0.1906177808367886 -6.350593670506268 -7.002542202560688 4 0 0
500 117 4 0 -2.1759352657227033 -4.409821258502625 -7.285770195591849 5 0 0
501 117 4 0 -2.496237736428821 -3.6941162990253087 -6.861691518540667 5 0 0
499 117 2 0 -2.339740938069683 -4.0496009209583 -7.076809407416908 5 0 0
2027 626 4 0 -2.48490055976451 -3.328759916555324 -6.707427041778633 5 0 0
2936 929 4 0 -9.356977950005868 -11.56871561669287 -5.5370294880523 3 0 0
3095 982 4 0 -8.458302715915451 -11.805742354600259 -6.1432244318801095 3 0 0
2937 929 4 0 -8.52614556733144 -11.87191633501268 -5.728257183726021 3 0 0
2935 929 2 0 -8.923144790318187 -11.724279970950429 -5.636514538828468 3 0 0
4606 1486 2 0 -4.016223818125397 -11.253031394925927 -5.7182451813502455 13 1 1
4608 1486 4 0 -3.814052955274951 -11.023186198689737 -6.045587850548625 13 1 1
3504 1118 4 0 -3.558285985419559 -10.723868452628546 -6.170930355816702 5 0 1
3502 1118 2 0 -3.3676540298639512 -10.380836174264678 -6.35352079685909 5 0 1
224 45 3 0 -2.4798744043053205 -8.60243863222777 -5.535296223134888 4 0 0
222 45 3 0 -1.9981113968995743 -8.054332558027767 -5.5498750890977275 4 0 0
1266 372 4 0 -1.7136412124904599 -7.935795472648641 -5.807802889830681 3 0 0
1264 372 2 0 -1.3420719003892465 -7.759388112724624 -6.024278494781163 3 0 0
1265 372 4 0 -0.9778812400009418 -7.587415470111794 -6.234783435985468 3 0 0
854 235 4 0 -0.9563305938210753 -7.197331962746633 -6.350772624772083 3 0 0
2699 850 4 0 -3.895944798210966 -6.172785835407508 -6.404716531696045 3 0 0
2698 850 2 0 -3.5402259278878816 -6.102045411847205 -6.1389839057880735 3 0 0
1020 290 4 0 -2.829169573398799 -5.895062865558326 -5.837241406240644 3 0 0
2700 850 4 0 -3.2032036458700173 -6.03538408089469 -5.88112505601148 3 0 0
1018 290 2 0 -2.4615227311980146 -6.045018432638132 -5.690941697520539 3 0 0
1019 290 4 0 -2.0584989114720553 -6.209963352149905 -5.525261448213497 3 0 0
3442 1098 2 0 -4.5050947242219035 -4.45446888321443 -5.60770949754284 6 0 0
3444 1098 4 0 -4.287928654074536 -4.252596428705045 -5.929880044951101 6 0 0
4275 1375 4 0 -3.897069692109465 -4.296103678730081 -5.925725782922445 6 0 0
4273 1375 2 0 -3.553536433910736 -3.9859875619257155 -5.9700901876832 6 0 0
4274 1375 4 0 -3.2456758691064014 -3.7015276833455317 -6.013120207635091 6 0 0
2026 626 2 0 -2.7880458754233644 -3.3138425118534105 -6.351732934092775 5 0 0
2028 626 4 0 -3.0860436075309163 -3.301580765401539 -6.009237255505387 5 0 0
1752 534 4 0 -2.323613670504093 -0.2754178026271301 -5.5677868032866025 8 0 0
1169 340 4 0 -5.910808749263426 -11.558035932781904 -4.741944376894584 2 0 0
1985 612 4 0 -5.572809190658924 -11.396327005550493 -4.594113522432332 10 1 0
1168 340 2 0 -6.318872065272795 -11.393196918528124 -4.627692030334163 2 0 0
1984 612 2 0 -5.17916248276106 -11.585577134343572 -4.693773904446808 10 1 0
1986 612 4 0 -4.764292168229112 -11.776973250848696 -4.798493933686917 10 1 0
4607 1486 4 0 -4.213516778313995 -11.487781470221147 -5.377217853891645 13 1 1
1795 549 2 0 -4.081674665320447 -11.86031075519901 -4.649767739512599 10 1 0
1796 549 4 0 -3.6602379800761256 -11.759320682819984 -4.707335433383218 10 1 0
221 45 1 0 -2.294468894628647 -8.287872429441093 -5.293673890152448 4 0 0
1713 521 4 0 -2.2535838884669293 -8.743866031707412 -4.707460833130743 11 1 0
225 45 3 0 -2.073107464908267 -8.477505129395903 -4.949700163906382 4 0 0
947 266 4 0 -3.715978890181054 -8.150046506616855 -4.587175053977973 3 0 0
948 266 4 0 -3.001530953875106 -8.03559925668858 -5.076034242233829 3 0 0
946 266 2 0 -3.3523271865895428 -8.097248952313764 -4.837365648834387 3 0 0
223 45 3 0 -2.608715763233013 -8.009310307600533 -5.131325356114877 4 0 0
1705 519 2 0 -10.043227255463398 -6.969941195856093 -4.614304881989164 11 1 0
1707 519 4 0 -9.608012903530772 -6.862277958568419 -4.716623855668406 11 1 0
1662 504 4 0 -9.233461121961621 -6.76291455636017 -4.603014946601652 11 1 0
1660 504 2 0 -8.861596463045501 -6.549455014099086 -4.709099283611584 11 1 0
3677 1176 4 0 -8.055736889419466 -6.418472646059564 -4.812802668271402 12 1 0
3523 1125 2 0 -0.2788188901500206 -6.445572537184776 -5.047110381834751 4 0 0
1661 504 4 0 -8.447619165669543 -6.3263290186219505 -4.815081418738005 11 1 0
1286 379 4 0 -1.8872428986605936 -5.998170305832068 -5.241682545740229 3 0 0
1285 379 2 0 -1.4557138089343091 -6.040566989478382 -5.134050332549613 3 0 0
1287 379 4 0 -1.024785174953502 -6.077415004072225 -5.04309188601303 3 0 0
3524 1125 4 0 -0.6660517873960075 -6.242800690891654 -4.9807978033454035 4 0 0
3443 1098 4 0 -4.731622325834422 -4.66623736471575 -5.282869402075412 6 0 0
4146 1332 4 0 -5.023039160281053 -4.65058466470526 -5.017943666872816 6 0 0
4144 1332 2 0 -5.043543746025615 -4.41017352538612 -4.636380366844896 6 0 0
3686 1179 4 0 -0.212028939750331 -1.8841647339115966 -4.7547773061474015 8 0 0
2703 851 4 0 -1.8399217075812206 -1.523169967600495 -5.232385386586627 8 0 0
2701 851 2 0 -1.6383526584671841 -1.3318319193316484 -4.871194351762287 8 0 0
1750 534 2 0 -1.8769855521904457 -0.25278438140834325 -5.496508690074585 8 0 0
1751 534 4 0 -1.415948492100819 -0.22805309722285294 -5.42791987359838 8 0 0
1439 430 4 0 -1.1442403515091044 -0.021932740344620782 -5.187500712850138 8 0 0
1438 430 2 0 -0.891538085242285 -0.2571318372645699 -4.8937381601 8 0 0
1440 430 4 0 -0.6445167958506044 -0.48232124757236683 -4.600301523667824 8 0 0
992 281 4 0 -6.831674093982742 -11.167565648764022 -4.13587930698064 2 0 0
1170 340 4 0 -6.724697841143268 -11.231275109133598 -4.515291640760267 2 0 0
2271 707 4 0 -3.3291480322714904 -11.627635961874727 -4.542502207017335 10 1 0
2269 707 2 0 -3.0426046727911302 -11.456399179812655 -4.2209058462285345 10 1 0
2270 707 4 0 -2.7513054649791204 -11.293312576392672 -3.900181261637945 10 1 0
993 281 4 0 -7.429012174319659 -10.601220776367441 -3.7094737839472653 2 0 0
991 281 2 0 -7.123490501658646 -10.883896951852837 -3.920472492804806 2 0 0
1712 521 4 0 -2.4107768064051616 -9.283217130840491 -3.995810172817883 11 1 0
2779 877 2 0 -3.8813071269406727 -8.392951788778982 -3.8403840510868203 4 0 0
2780 877 4 0 -3.619083547933064 -8.297428271088046 -4.20543505779833 4 0 0
1711 521 2 0 -2.3309653953934806 -8.99796740495446 -4.367843705519092 11 1 0
3877 1243 2 0 -11.296168635634428 -7.223143130415232 -4.479699487189164 12 1 0
3879 1243 4 0 -11.74757336185465 -7.236783416103062 -4.527580448731233 12 1 0
1706 519 4 0 -10.479227830254814 -7.083777247377915 -4.512749213932477 11 1 0
3878 1243 4 0 -10.862710519710499 -7.216185020808466 -4.438196553914399 12 1 0
3676 1176 2 0 -7.717870574336062 -6.331958973595994 -4.538579173235942 12 1 0
3678 1176 4 0 -7.370684911746622 -6.243858454461017 -4.273731708535753 12 1 0
1878 576 4 0 -7.037661295860944 -6.20649251460722 -4.449853470835032 11 1 0
1876 576 2 0 -6.612344986574087 -6.158686641659309 -4.34962941538657 11 1 0
3215 1022 4 0 -5.8743440250312275 -5.813681176624804 -4.21922629919788 5 0 1
1877 576 4 0 -6.162169801635508 -6.111464995383857 -4.2400761449254105 11 1 0
3214 1022 2 0 -5.452410682445359 -5.724499326731203 -4.1648079631721515 5 0 1
3216 1022 4 0 -4.99559899455137 -5.628537578200232 -4.107521096651761 5 0 1
434 95 4 0 -4.672712509519251 -5.824267080775301 -4.176720060063164 4 0 0
433 95 2 0 -4.292809055345818 -5.8008294082449465 -3.888305584983028 4 0 0
2855 902 4 0 -11.268920945532177 -4.962794113742759 -4.224699784846373 5 0 0
2854 902 2 0 -11.697014167889018 -4.988609997022913 -4.1346380529824325 5 0 0
445 99 2 0 -10.432634423223035 -4.8846933195853595 -4.187029428680064 4 0 0
446 99 4 0 -10.876126396599485 -4.917331668644829 -4.113700438209532 4 0 0
447 99 4 0 -9.998651121196827 -4.84294694353795 -4.259424944701336 4 0 0
3201 1017 4 0 -9.65724784244342 -4.7593283202725 -4.045121893468768 5 0 0
3199 1017 2 0 -9.216473337275897 -4.659714790593109 -4.0585082259445056 5 0 0
3200 1017 4 0 -8.747891969964606 -4.550223347252068 -4.0704270482325535 5 0 0
4506 1452 4 0 -8.500860176996662 -4.2266153051611175 -4.111765049031003 6 0 0
4504 1452 2 0 -8.133061067733586 -4.231194918644844 -3.885549820042595 6 0 0
644 165 4 0 -7.376425947107572 -4.43676112782792 -3.702360745235593 5 0 0
643 165 2 0 -6.942580168426109 -4.35467464858479 -3.6883308190354605 5 0 0
645 165 4 0 -6.508588931759375 -4.2696112799682995 -3.667504519693571 5 0 0
559 137 2 0 -5.785749921515858 -3.9501890535995123 -3.7020569573434017 5 0 0
4145 1332 4 0 -5.055806788206435 -4.200341259464297 -4.295171543576321 6 0 0
155 31 3 0 -4.73172158807964 -4.073065317164938 -4.118101516776202 5 0 0
151 31 1 0 -4.697709677979295 -3.8183133990879696 -3.727477855469722 5 0 0
561 137 4 0 -5.460868291641601 -3.6338249936717855 -3.7603324214050655 5 0 0
683 178 4 0 -3.9936458864719784 -3.581213402968979 -3.915496429849469 5 0 0
153 31 3 0 -4.376978217954715 -3.4759073402424168 -3.7998063147006036 5 0 0
682 178 2 0 -3.6358729717273093 -3.434560226261169 -3.705585067647281 5 0 0
1928 593 4 0 -8.36938205416979 -2.125795810723755 -4.27253300855371 13 1 0
1927 593 2 0 -8.631846831321866 -2.103904455842029 -3.872902832291354 13 1 0
3103 985 2 0 -1.3031227495712105 -2.594366795375576 -3.6893411851343707 7 0 0
3105 985 4 0 -0.8689069253710002 -2.54490786480042 -3.8206482829121047 7 0 0
197 40 3 0 -0.4677562253781886 -2.5301320999594896 -3.887038228631978 8 0 0
198 40 3 0 -0.3450275969997936 -2.022563358222426 -4.415906464452539 8 0 0
196 40 1 0 -0.33427501750702504 -2.122665324506702 -3.959959238962531 8 0 0
199 40 3 0 -0.5988637866591926 -1.8369839124706626 -3.740298294481409 8 0 0
2702 851 4 0 -1.4513590942556114 -1.1398756969104404 -4.53034259029966 8 0 0
597 149 4 0 -1.272930427613277 -1.0582996573585923 -4.198430815504776 7 0 0
595 149 2 0 -1.0296464022630385 -1.2657707443006814 -3.9240097618698604 7 0 0
4065 1305 4 0 -9.786987716219175 -0.8097427215349509 -3.7126276080776535 8 0 0
4253 1368 4 0 -7.806566248278602 -10.572209711269954 -3.5904657027588893 2 0 0
4252 1368 2 0 -7.949490389888007 -10.174827760688526 -3.4801483840590066 2 0 0
3006 952 4 0 -10.259769941663057 -9.392114172996608 -2.8476204142758323 3 0 0
4254 1368 4 0 -8.099043924673046 -9.768581021930732 -3.375261265512025 2 0 0
1086 312 4 0 -7.90649815583081 -9.506111577041397 -3.1292777608283373 2 0 0
1084 312 2 0 -7.86569983905735 -9.237164937689434 -2.7926104874674795 2 0 0
3492 1114 4 0 -5.211253303179816 -9.432327374487103 -3.0136328402915655 4 0 0
758 203 4 0 -4.813741237587921 -9.309006753307019 -2.9814598747811836 3 0 0
2650 834 2 0 -2.79689070464787 -9.221542614141521 -3.257444551943955 3 0 0
2652 834 4 0 -2.5979854185536695 -9.315839644865768 -3.645699768688253 3 0 0
1807 553 2 0 -11.287750690436424 -8.254825307902212 -3.1530913691270115 11 1 0
1808 553 4 0 -11.36141964484835 -8.715877038662581 -3.203930549600477 11 1 0
874 242 2 0 -9.759365519956148 -8.748336475900086 -2.828099175030923 2 0 0
875 242 4 0 -10.05723381051185 -9.055925451521844 -2.9270577974341467 2 0 0
757 203 2 0 -4.461024286222199 -9.065606667269577 -3.099913265723476 3 0 0
2781 877 4 0 -4.141343987145684 -8.486895705037654 -3.462462231540467 4 0 0
759 203 4 0 -4.091497583259916 -8.81413868922054 -3.2282129564256596 3 0 0
2651 834 4 0 -2.9814811248188917 -9.129535682416883 -2.882476899283123 3 0 0
2012 621 4 0 -3.220172493118177 -8.80232743234525 -2.8792650474917725 11 1 0
1809 553 4 0 -11.220319830531311 -7.801269853198491 -3.101229021904505 11 1 0
2484 778 4 0 -10.98391447739166 -7.510212204672568 -3.2554132522986343 11 1 0
2482 778 2 0 -10.61455133722561 -7.342179264043395 -3.1361819204473296 11 1 0
2483 778 4 0 -10.220465651164897 -7.1818466304265005 -3.008648479093239 11 1 0
405 85 4 0 -8.065555333295716 -6.906600307341175 -2.876674325005359 3 0 0
552 134 4 0 -7.7040584244439 -6.97949109754253 -3.0202116381975976 3 0 0
550 134 2 0 -7.260753565975803 -7.079537682622078 -2.9589549615121005 3 0 0
551 134 4 0 -6.804421955197845 -7.171194264047548 -2.9144285761948385 3 0 0
3708 1186 4 0 -6.410381770326864 -7.198038091591888 -2.927335299580756 12 1 0
435 95 4 0 -3.9230531652948457 -5.775938537133006 -3.6124157453237196 4 0 0
1493 448 4 0 -3.5975284253233575 -5.574093403144787 -3.59545531131492 12 1 0
3304 1052 2 0 -1.9906323554239904 -5.5536740212424744 -3.243390558807352 4 0 0
3306 1052 4 0 -1.6056802115618858 -5.684702611435199 -3.0289765691756347 4 0 0
1492 448 2 0 -3.1702487613210053 -5.458970330112038 -3.4788801720232776 12 1 0
1494 448 4 0 -2.745612049700622 -5.334862499470751 -3.3606091698344063 12 1 0
3305 1052 4 0 -2.348197074025828 -5.429334750330205 -3.4459396668666233 4 0 0
4505 1452 4 0 -7.724130633846171 -4.23573404968535 -3.6327642168667964 6 0 0
560 137 4 0 -6.1145723412112005 -4.268638943508051 -3.637287157449162 5 0 0
154 31 3 0 -4.547482561461825 -4.080869667243139 -3.3781771659546695 5 0 0
2574 808 4 0 -4.414692147890376 -4.15499225856675 -3.011719606346068 6 0 0
152 31 3 0 -5.091180576957987 -3.642174621818601 -3.626814101859832 5 0 0
2582 811 4 0 -2.902765439276749 -3.161855329526581 -3.6173083905984935 7 0 0
684 178 4 0 -3.2632670890951907 -3.278470619827095 -3.4784296915863617 5 0 0
2581 811 2 0 -2.4801207881517513 -2.9714496714012206 -3.487716665285438 7 0 0