LAMMPS data file via write_data, version 4 Feb 2025, timestep = 11833330, units = lj

6000 atoms
4 atom types
4500 bonds
1 bond types
5250 angles
2 angle types

-12.037717 12.037717 xlo xhi
-12.037717 12.037717 ylo yhi
-12.037717 12.037717 zlo zhi
-0.0002407543399840506 0 0 xy xz yz

Masses

1 1
2 1
3 0.1
4 0.1

Bond Coeffs # harmonic/omp

1 100 0.45

Angle Coeffs # harmonic/omp

1 100 180
2 100 109.471

Atoms # full

5136 1212 4 0 -8.966644584125103 -11.279607117007998 -11.659387046355599 16 1 0
5134 1212 2 0 -9.31188509460058 -11.282576401556867 -11.926195611779143 16 1 0
2201 441 1 0 -8.165248125968198 -11.44379302734026 -11.43635977789366 16 1 0
2202 441 3 0 -8.573383750019659 -11.347806927992242 -11.618665425210601 16 1 0
2203 441 3 0 -8.044661903767999 -11.880117464372686 -11.533830206472672 16 1 0
2204 441 3 0 -7.847202084559265 -11.156464657213961 -11.594850961394137 16 1 0
5244 1248 4 0 -1.1183190624376298 -0.03506926284388001 -4.3555072203249905 9 0 0
1419 284 3 0 7.919254484479634 -11.856512517009012 -11.247517995532391 5 0 1
4591 1031 2 0 8.674036313366216 -11.908793056865438 -11.212389001165421 2 0 1
5993 1498 4 0 11.027581249227804 -11.343304845800937 -11.766836564315987 12 1 1
184 37 3 0 -12.011787440112927 -11.476947669786108 -11.540442186441247 4 0 0
182 37 3 0 11.324833588460038 -11.425406285908375 -11.52223284007161 3 0 0
181 37 1 0 11.727972543468606 -11.430450716156649 -11.276675466754574 3 0 0
5056 1186 2 0 -11.577373333042347 -10.681812896498817 -11.380615776524069 14 1 0
5057 1186 4 0 -11.238791371001362 -10.425664757203558 -11.565857377230156 14 1 0
5058 1186 4 0 -11.90727345958981 -10.938344575803415 -11.196232960387501 14 1 0
5992 1498 2 0 10.916519504325649 -10.923923337615804 -11.806087248602724 12 1 1
3274 655 3 0 10.915308187683198 -10.089771734178589 -11.82978571088731 13 1 1
185 37 3 0 11.7840771148086 -11.034140489561594 -11.040901176890614 3 0 0
2107 422 3 0 -11.212527705560042 -10.027481216603292 -11.695409118852258 16 1 0
2308 462 3 0 3.675978274301091 -9.481744147632817 -4.108372098629402 15 1 0
2109 422 3 0 -10.497316463725863 -9.881451290998243 -11.765832521281997 16 1 0
2106 422 1 0 -10.923311773909647 -9.938580833310787 -11.976161163802347 16 1 0
96 20 1 0 -6.116354696691861 -9.52002977529819 -11.814066278344042 3 0 0
98 20 3 0 -6.481126328253068 -9.721562699859433 -12.027756820820452 3 0 0
97 20 3 0 -5.884598310119006 -9.82210783651409 -11.582983022663068 3 0 0
5118 1206 4 0 -5.643673609636322 -9.93019989110461 -11.271993971377158 13 1 0
5116 1206 2 0 -5.191748627441552 -9.919418349524312 -11.375886408425849 13 1 0
5117 1206 4 0 -4.7727629828912645 -9.902663250453518 -11.481021227057962 13 1 0
349 70 3 0 -4.6140841903906855 -9.610687319677435 -11.708312967881602 4 0 0
2352 471 3 0 -9.6329451017757 -4.63262646931683 -4.075501168077805 15 1 0
347 70 3 0 -4.383000436879541 -8.984919048716858 -12.025947872611612 4 0 0
3783 761 4 0 -3.8081327342084155 -9.348737386007631 -11.965446570326549 4 0 0
3781 761 2 0 -3.357367818053257 -9.257013695495885 -11.797978973657779 4 0 0
644 129 3 0 -1.191513649327586 -9.764548034148362 -11.321468390014273 3 0 0
642 129 3 0 -0.5638003062269732 -9.361675734965347 -11.349683867434377 3 0 0
492 99 3 0 4.441918152067583 -9.502916959404375 -11.549029074308239 3 0 0
1240 248 3 0 9.085981990645688 -0.4448052965329179 -4.777075933172082 11 0 0
5754 1418 4 0 11.873768616591995 -9.486243690332719 -11.820690799320873 13 1 1
3273 655 3 0 11.558325148219204 -9.756006048019401 -11.863630362512458 13 1 1
3145 629 3 0 -11.39050184623243 -8.653671585462693 -11.968233245293211 14 1 1
5752 1418 2 0 -11.897476590724905 -9.213724610552507 -11.984970265623627 14 1 1
99 20 3 0 -6.26575728398019 -9.208814015836625 -11.537239722628014 3 0 0
5994 1498 4 0 10.813709032582839 -10.491459200411414 -11.856968385869294 12 1 1
3782 761 4 0 -2.9434597699381975 -9.160867131740202 -11.64981623228898 4 0 0
1152 231 3 0 -2.6380494674651533 -8.938328865282221 -11.790072418164232 6 0 1
1153 231 3 0 -2.1525160756178288 -8.383295132110456 -11.784212108605688 6 0 1
643 129 3 0 -1.1595191183314792 -9.115136737244827 -10.99841668714957 3 0 0
234 47 3 0 0.05769059620194206 -8.373376660295664 -11.219847648676648 5 0 0
495 99 3 0 4.282350281960895 -8.832365454732976 -11.66952494555569 3 0 0
491 99 1 0 4.580414699822917 -9.108674602781607 -11.515175740940341 3 0 0
494 99 3 0 4.9714425960520074 -9.051516414453266 -11.74477774064664 3 0 0
4489 997 2 0 5.472086745690287 -8.697564369822171 -12.018133470136847 3 0 1
510 102 3 0 -1.7522598797349591 -3.353473535051128 -11.927404035525738 9 0 0
4491 997 4 0 5.684456215562534 -8.314346488498638 -11.973923539913018 3 0 1
3866 789 4 0 -1.8812729403561352 -8.199685544026147 -11.529561131284678 5 0 0
3865 789 2 0 -1.4481836699799775 -8.214419585201053 -11.405457030584904 5 0 0
3867 789 4 0 -1.0254994709383976 -8.222178368775841 -11.288848932628953 5 0 0
235 47 3 0 -0.6690443617823476 -8.144918245944158 -11.155276687942024 5 0 0
332 67 3 0 5.064299736782829 -7.64137945188118 -11.629746418643704 3 0 0
334 67 3 0 5.692084007816774 -7.907902894070728 -11.889863853604664 3 0 0
331 67 1 0 5.4941484247518275 -7.725601297647501 -11.535447937972037 3 0 0
335 67 3 0 5.698596804277191 -7.339014248789776 -11.436454270356423 3 0 0
333 67 3 0 5.517407449648804 -8.044071120044258 -11.152386200328838 3 0 0
1376 276 1 0 -5.28813323013499 -6.546460679657934 -11.282684170535594 5 0 0
1378 276 3 0 -5.749398885373219 -6.609713665840725 -11.325313675828347 5 0 0
3307 662 3 0 -6.667586067913114 -6.406624032237666 -11.828749957850484 14 1 1
3310 662 3 0 -6.763555278502646 -5.668158978020435 -11.921151537218115 14 1 1
1379 276 3 0 -5.142531853198867 -6.284705769372651 -11.616830867521493 5 0 0
695 139 3 0 -0.22849392932953805 -0.33599643302494897 -4.671759767465347 9 0 0
2458 492 3 0 -0.7993572015796317 -6.2044080518582705 -11.722350561316407 5 0 0
5126 1209 4 0 0.1818611457058843 -5.883600309458998 -11.88863706423657 5 0 0
4716 1072 4 0 -4.667624368875464 -4.734074452560156 -11.846454059148602 4 0 1
4714 1072 2 0 -4.8263199361294475 -4.702768650519478 -11.433290559199245 4 0 1
5125 1209 2 0 0.2872660024809335 -5.518007008461558 -11.698320826045563 5 0 0
1652 331 3 0 0.5324850625363577 -4.75685676613114 -11.669089679936299 5 0 1
5127 1209 4 0 0.3882043663275656 -5.103896391050696 -11.500168849094907 5 0 0
1653 331 3 0 -0.0032398003408573572 -4.4873094304743875 -11.24272883023717 5 0 1
1651 331 1 0 0.40657434812288074 -4.421579223544075 -11.379820220671753 5 0 1
1655 331 3 0 0.42045256660842334 -4.020444459805137 -11.590108502234143 5 0 1
1904 381 3 0 10.02080592268586 -4.613697587495219 -11.826428213881847 4 0 1
508 102 3 0 -1.7938352652097542 -3.07918321133927 -11.224158372870102 9 0 0
506 102 1 0 -1.6504409097055106 -3.003209774244924 -11.655869738242808 9 0 0
507 102 3 0 -1.185479276411316 -2.93991515324819 -11.661756233951808 9 0 0
3899 800 4 0 -0.8001324065433391 -2.8453237510322253 -11.727249251374266 8 0 0
1934 387 3 0 1.1492857580223035 -2.8855583308599115 -11.174823951101876 7 0 1
509 102 3 0 -1.849670550721834 -2.6344567305169058 -11.81135166903677 9 0 0
3898 800 2 0 -0.3926209680629178 -2.6626546376321727 -11.750306973644122 8 0 0
3900 800 4 0 0.019519206638406672 -2.4825431979712143 -11.760219055772877 8 0 0
1011 203 1 0 9.119025549250352 -5.3384900575184275 -4.041157589114252 5 0 0
4439 980 4 0 0.5340366874994178 -1.3334527461283532 -11.929491665954602 9 0 1
4438 980 2 0 0.6600393699648404 -1.3422417126210107 -11.48559192112298 9 0 1
2205 441 3 0 -8.187438459712693 -11.396562835287169 -10.998516773880969 16 1 0
2516 504 1 0 5.72202552797318 -11.329030008663079 -10.494500762867276 15 1 0
2517 504 3 0 5.499440733128637 -11.68482508864196 -10.677487255883168 15 1 0
4579 1027 2 0 6.783779274802047 -11.776777462524732 -10.935335106476838 3 0 1
2518 504 3 0 6.1467301461826445 -11.31254884697873 -10.659109118395156 15 1 0
4580 1027 4 0 6.391726678026121 -11.557562997184052 -10.854667670415052 3 0 1
4581 1027 4 0 7.184018593831929 -11.989090748184084 -11.01361122996216 3 0 1
4592 1031 4 0 9.058670129500147 -11.827460981063446 -11.016121050693474 2 0 1
1428 286 3 0 9.202837759420387 -11.525456237078025 -10.787721390123867 3 0 1
1426 286 1 0 9.433310829043211 -11.578944127180803 -10.376245489277016 3 0 1
1429 286 3 0 9.73903284501024 -11.932726723522956 -10.412124564113848 3 0 1
183 37 3 0 11.71793041391874 -11.771317053027978 -11.000312005791043 3 0 0
664 133 3 0 -7.5266741386692875 -10.398557099855223 -10.475294797670863 3 0 0
2519 504 3 0 5.508029759501092 -10.94850642501259 -10.600208330121246 15 1 0
4044 848 4 0 -6.486936285418511 -9.406854216270512 -10.238825471400766 3 0 0
4042 848 2 0 -6.426610946821731 -9.338721744544404 -10.676864765548945 3 0 0
645 129 3 0 -0.793110279777407 -9.679831738103827 -10.702138868851598 3 0 0
641 129 1 0 -0.9296503049927818 -9.482435741008352 -11.091090642056205 3 0 0
4043 848 4 0 -6.375083962732725 -9.279641844776854 -11.124215623642698 3 0 0
232 47 3 0 -0.4751554549377417 -8.8355258404889 -10.984919517543101 5 0 0
231 47 1 0 -0.3382063427815307 -8.410263151694991 -10.969425366082818 5 0 0
493 99 3 0 4.657871073671213 -9.016892297731607 -11.08994780171163 3 0 0
233 47 3 0 -0.25886312951506696 -8.282067764141432 -10.545632229026124 5 0 0
1380 276 3 0 -5.102491801917599 -6.926563579800878 -11.31172197134277 5 0 0
1377 276 3 0 -5.203338606224613 -6.356267386253261 -10.884238767436075 5 0 0
3459 692 3 0 -4.727977208916898 -5.523405914791816 -10.40546944053373 14 1 1
3458 692 3 0 -4.735856628793213 -4.852573649515317 -10.703407275981304 14 1 1
4715 1072 4 0 -4.9821003040625556 -4.681697933600471 -10.99181723852805 4 0 1
3456 692 1 0 -4.614124835281731 -5.097990187174624 -10.345170570619162 14 1 1
4658 1053 4 0 -0.8759289071749201 -4.29527805178508 -10.34011382849477 6 0 1
4659 1053 4 0 -0.32189217141576343 -4.446249205401446 -10.987253054342533 6 0 1
4657 1053 2 0 -0.5917371137570164 -4.370198690562288 -10.67229839815196 6 0 1
1654 331 3 0 0.6969985262963974 -4.413834533449083 -11.014946600804414 5 0 1
4991 1164 4 0 -2.0818565793081945 -3.600716486706647 -10.239591858975599 9 0 0
4992 1164 4 0 -1.9707177041409576 -2.995573271843959 -10.87290851330467 9 0 0
4990 1164 2 0 -2.0245630324172996 -3.2938375026974356 -10.559836925404662 9 0 0
1935 387 3 0 0.9198959715211661 -3.4446635204108738 -10.77292160780117 7 0 1
1931 387 1 0 1.0743253723962596 -3.0243023900048307 -10.76060653684888 7 0 1
1932 387 3 0 1.426253375878165 -3.0061923066790293 -10.529979692657406 7 0 1
1933 387 3 0 0.7534063449404158 -2.753603938744508 -10.569092157733575 7 0 1
1525 305 3 0 -8.052472211958662 -1.7735619505925815 -10.605924479664958 8 0 1
1521 305 1 0 -7.833502087803452 -1.372889994613118 -10.555830229240629 8 0 1
1523 305 3 0 -8.049115090478098 -1.0612059633198854 -10.78126464297375 8 0 1
1524 305 3 0 -7.399800361157024 -1.3961360421687523 -10.715905703372524 8 0 1
4440 980 4 0 0.783980138452474 -1.3504627119289196 -11.050593328297841 9 0 1
2065 413 3 0 0.7914185585695233 -1.1339311647878159 -10.692979148230426 9 0 0
2061 413 1 0 1.0454508058463343 -0.9672162191112434 -10.370373883375072 9 0 0
2062 413 3 0 1.4178088538013576 -1.2283126384368064 -10.327057419048254 9 0 0
2064 413 3 0 1.156728587454504 -0.5463915223215761 -10.473563960709892 9 0 0
3146 630 1 0 -11.68089068188082 -11.989396765714888 -9.539732768900684 18 1 1
3150 630 3 0 -11.272908990913589 -11.830907171282785 -9.618070154484531 18 1 1
3147 630 3 0 -11.94070167936897 -11.915335791838011 -9.911785591992535 18 1 1
4779 1093 4 0 -10.950396765687959 -11.909600844329852 -9.356308786807755 4 0 1
90 18 3 0 -9.913728776252297 -11.215583906092705 -9.615750778394874 6 0 0
2520 504 3 0 5.7414877942958 -11.377074862675993 -10.015367666317264 15 1 0
1430 286 3 0 9.13794032069756 -11.68591593084043 -10.05486689064348 3 0 1
1427 286 3 0 9.65248294068472 -11.19309344069805 -10.274103089320704 3 0 1
86 18 1 0 -9.572010149847289 -10.940399079605815 -9.425881146679501 6 0 0
87 18 3 0 -9.45170711452683 -10.606205660461358 -9.718903859382891 6 0 0
4523 1008 4 0 -9.248969692758305 -10.294222615562477 -9.834255290200618 3 0 1
663 133 3 0 -7.684713740475457 -10.442081395007936 -9.7792422214095 3 0 0
3462 693 3 0 -6.292099888715838 -10.497628698171832 -9.929894926635624 12 1 1
4522 1008 2 0 -8.847461894716387 -10.14062582024942 -9.966202589163716 3 0 1
662 133 3 0 -8.03807000199695 -9.984474842081385 -10.2148323695177 3 0 0
4524 1008 4 0 -8.430672904908688 -9.989771967572002 -10.107404552237078 3 0 1
661 133 1 0 -7.650383126905747 -10.165623858334328 -10.133225675124004 3 0 0
665 133 3 0 -7.354037888243874 -9.855843543319313 -10.048198504827539 3 0 0
3465 693 3 0 -6.338999872479903 -9.984227072739639 -9.380116102101995 12 1 1
3464 693 3 0 -6.448270018063848 -9.789396556809134 -10.088901433027955 12 1 1
3461 693 1 0 -6.209484080210059 -10.067189888490624 -9.817246269584173 12 1 1
3463 693 3 0 -5.7516687474835715 -9.970530876478827 -9.861839228213325 12 1 1
3860 787 4 0 -5.409280603172361 -9.766992532803245 -9.85608682923316 3 0 0
3859 787 2 0 -5.200838056454044 -9.788859879818423 -9.471604011116542 3 0 0
354 71 3 0 -11.582909793658965 -6.636310705473659 -9.793965378748764 5 0 0
355 71 3 0 12.036727771493439 -7.1395812215031915 -9.632533887435603 4 0 0
351 71 1 0 -11.857084388763349 -6.753844931848479 -9.508470804473532 5 0 0
353 71 3 0 11.888789720960741 -6.44197739459317 -9.479348759252863 4 0 0
3460 692 3 0 -4.809359901616752 -4.952375660502524 -10.010022448112316 14 1 1
3457 692 3 0 -4.1754831183409795 -5.079170442094603 -10.284961477902117 14 1 1
423 85 3 0 -1.7362355167260901 -3.7576707376612166 -10.221625178942277 6 0 0
422 85 3 0 -1.8215545236732726 -4.440903232181646 -10.261699062571333 6 0 0
425 85 3 0 -1.1647764379653474 -4.1569417785358205 -10.092289405652652 6 0 0
421 85 1 0 -1.6226332635272254 -4.111331057720329 -10.051908415663759 6 0 0
424 85 3 0 -1.7322461351937033 -4.1106924189092835 -9.623576987715229 6 0 0
4166 889 4 0 1.5642323151262225 -2.980875615142084 -10.159919269522367 7 0 0
4167 889 4 0 2.327601009533316 -2.8374607683264887 -9.655760139046707 7 0 0
4165 889 2 0 1.9439826255607198 -2.9047640172591276 -9.896866595123383 7 0 0
460 92 3 0 7.811205321317296 -1.9344687581242006 -9.725631642472013 6 0 0
1522 305 3 0 -7.823662749325716 -1.261059895805392 -10.090515795249065 8 0 1
2063 413 3 0 0.8138195707019396 -0.9711985649780797 -9.971686592888503 9 0 0
458 92 3 0 7.271047942998216 -1.5362496927225866 -9.938377943434745 6 0 0
456 92 1 0 7.616697484327826 -1.5520521905328728 -9.681153801775167 6 0 0
459 92 3 0 7.88476542464203 -1.2432393027841915 -9.790437943837746 6 0 0
3148 630 3 0 -11.851212001112238 -11.781512092374584 -9.182539741058086 18 1 1
4961 1154 4 0 -8.94987948780307 -11.474283585376455 -9.074068242870071 16 1 0
88 18 3 0 -9.170949830548162 -11.222897266081466 -9.316413088232862 6 0 0
4960 1154 2 0 -8.578329963556303 -11.254557186542552 -8.909039604414776 16 1 0
4962 1154 4 0 -8.20424189356775 -11.03394592697343 -8.75259483491772 16 1 0
2157 432 3 0 -7.521725261984662 -11.622343169430158 -8.850726213959149 16 1 0
5770 1424 2 0 -6.4761546319923005 -11.23046751260222 -8.801965865316786 15 1 1
5772 1424 4 0 -6.137868672077952 -11.479897736123913 -8.697826306826341 15 1 1
2480 496 3 0 -5.783238368405191 -11.686829443389591 -8.604026159045345 5 0 0
2479 496 3 0 -5.074727964412936 -11.864731321128923 -8.798264465536942 5 0 0
2476 496 1 0 -5.45357196869259 -12.01695608735935 -8.579048908604875 5 0 0
804 161 3 0 0.8930807178529729 -1.0231262394758716 -4.468112140189456 7 0 0
1995 399 3 0 -3.4643289128437083 -11.630559285181473 -9.205760309097933 15 1 0
1793 359 3 0 -2.0458604830310083 -8.19489936359989 -4.08543609767238 4 0 0
364 73 3 0 -6.435123399976707 -8.080603926765551 -4.03336831057249 3 0 0
89 18 3 0 -9.72755696285881 -10.740381988847641 -9.048396557638537 6 0 0
342 69 3 0 -7.944838200001097 -10.778159577934735 -8.86788363429232 7 0 0
341 69 1 0 -7.524330031438908 -10.641812488277498 -8.734429540015194 7 0 0
345 69 3 0 -7.413462503595386 -10.222626842845294 -8.946687502476403 7 0 0
344 69 3 0 -7.210724658303317 -10.961328280227962 -8.84719159503581 7 0 0
5771 1424 4 0 -6.835961101641984 -10.962040306490898 -8.918634095493813 15 1 1
4083 861 4 0 -6.6140128453210405 -9.83812455434772 -9.126478148241258 2 0 0
4081 861 2 0 -6.311972620222444 -9.774724415962304 -8.80236200475484 2 0 0
3861 787 4 0 -4.99562290996308 -9.811102174103965 -9.053466818283393 3 0 0
500 100 3 0 -5.1528027919807995 -9.809946051973208 -8.68969117477861 4 0 0
352 71 3 0 -11.647822096175576 -6.806714887356943 -9.099660000209296 5 0 0
3885 795 4 0 -11.772088199531895 -6.7833859398560845 -8.715615784689849 5 0 0
1963 393 3 0 0.4382217377028841 -6.610861027611136 -8.946619852522462 5 0 1
545 109 3 0 -4.73435506235758 -5.767652269860211 -8.924464450382668 6 0 0
1961 393 1 0 0.7618365364247648 -6.377108996605803 -8.767461506199878 5 0 1
1962 393 3 0 0.664778291403584 -5.957732472465048 -8.763268885896704 5 0 1
1964 393 3 0 1.1152094740700136 -6.439754594229841 -9.001573188724045 5 0 1
541 109 1 0 -4.675910292613709 -5.532043077135832 -8.553797407473125 6 0 0
542 109 3 0 -4.46256362101124 -5.150860666962291 -8.657517876284611 6 0 0
594 119 3 0 -11.562998555933794 -4.300651885501858 -8.786403550154676 11 0 0
591 119 1 0 -11.832596540633283 -4.143396020027217 -8.416186039478324 11 0 0
592 119 3 0 11.84068507873997 -4.236628942115334 -8.492938605958882 10 0 0
1690 338 3 0 0.3375079671344885 -3.005385917778284 -8.789917612168479 10 0 1
1332 267 3 0 2.281161537229071 -3.7160385742568796 -8.95166232924843 6 0 0
1333 267 3 0 2.32323597201132 -3.09247175428586 -9.33103758140983 6 0 0
1334 267 3 0 2.033168563269225 -3.093379264530256 -8.62686037296201 6 0 0
1331 267 1 0 2.355359615830105 -3.293217214466285 -8.923487959170153 6 0 0
1335 267 3 0 2.7970851811553707 -3.2228103587263046 -8.748545830704218 6 0 0
1357 272 3 0 -6.628674963882959 -2.113577525244109 -8.612039344216354 5 0 0
3840 780 4 0 6.871580080888453 -2.166018456964151 -8.460979610427259 7 0 0
3838 780 2 0 7.031441193829256 -1.962954849052668 -8.812400090650108 7 0 0
1360 272 3 0 -6.725064014993297 -1.4842767781486383 -8.949241789616966 5 0 0
1356 272 1 0 -6.487853845385553 -1.702863081284887 -8.641461673765154 5 0 0
1359 272 3 0 -6.054062082925214 -1.698134150015532 -8.766419274505724 5 0 0
457 92 3 0 7.484496360215672 -1.4990778090720482 -9.260878713171198 6 0 0
3839 780 4 0 7.18793960414974 -1.7504914043225153 -9.177700576020646 7 0 0
5547 1349 4 0 -5.284285209760666 -11.967701622840341 -7.785580818519632 14 1 0
343 69 3 0 -7.519739691289598 -10.591153750596854 -8.302063468288997 7 0 0
4082 861 4 0 -6.014624923893309 -9.717789249873439 -8.485631124586273 2 0 0
497 100 3 0 -5.6867137400402825 -9.556049402496411 -8.306833678081668 4 0 0
496 100 1 0 -5.2513945254945735 -9.64817114591414 -8.313726935582912 4 0 0
499 100 3 0 -5.151879154080339 -9.929084359152471 -8.015269838625407 4 0 0
498 100 3 0 -4.995354291817814 -9.24754305785041 -8.24129592765123 4 0 0
3039 608 3 0 -4.3730463579186125 -7.399329010659808 -8.091933779361728 15 1 0
3037 608 3 0 -5.076346835975954 -7.378124592493118 -8.023430238584574 15 1 0
3883 795 2 0 -11.776748272407122 -6.6283913322852 -8.300379180414186 5 0 0
3884 795 4 0 -11.787560868274875 -6.482646689962917 -7.904528404923719 5 0 0
3036 608 1 0 -4.69787875249698 -7.232738165916164 -7.859347692639488 15 1 0
3040 608 3 0 -4.691858087742219 -6.78048851388467 -7.8880326249797745 15 1 0
543 109 3 0 -4.430325887053882 -5.76378524747418 -8.263722146625254 6 0 0
1965 393 3 0 0.8452229647240372 -6.518985503315832 -8.346192294442004 5 0 1
157 32 3 0 -6.463517970904024 -4.862935617745375 -7.9905265754207795 7 0 0
156 32 1 0 -6.139391881562463 -4.98419113002889 -7.6899903330391455 7 0 0
5070 1190 4 0 -6.76349133156165 -4.664798413081861 -8.13387933872666 7 0 0
160 32 3 0 -5.955900294513086 -5.3763059713343315 -7.8292425724466135 7 0 0
158 32 3 0 -5.8169007929503875 -4.659432641089826 -7.663393558859185 7 0 0
544 109 3 0 -5.074524531687749 -5.438505886255839 -8.372188423454029 6 0 0
593 119 3 0 -11.69606250839373 -4.337781490208413 -8.053060135377082 11 0 0
595 119 3 0 -11.778644223417764 -3.703316612754284 -8.382710139507997 11 0 0
529 106 3 0 -7.923082416702982 -4.160409737222033 -7.777195929926821 6 0 0
5069 1190 4 0 -7.509153460611058 -4.209896053992941 -7.830976522390781 7 0 0
5068 1190 2 0 -7.141206224308507 -4.429701764081453 -7.981291197819206 7 0 0
4565 1022 4 0 -4.902453667750044 -3.806154211368817 -7.669606577860992 6 0 1
2673 535 3 0 -4.436006211802378 -2.9729498924288293 -8.162053090806012 6 0 0
2671 535 1 0 -4.326828548429759 -3.2003766154141644 -7.793328810235238 6 0 0
2674 535 3 0 -4.608580101829482 -3.5560771668171025 -7.7506628367139125 6 0 0
2672 535 3 0 -3.8996798777268875 -3.3386349286339954 -7.831009086174299 6 0 0
1688 338 3 0 -0.17737952188494255 -2.6784884605649317 -8.44315075674762 10 0 1
1686 338 1 0 0.16804832117766288 -2.935774604895604 -8.405094531370775 10 0 1
1687 338 3 0 0.03870795739489097 -3.354106595383783 -8.216264862460429 10 0 1
3800 767 4 0 2.86198761539419 -2.9887198111115314 -8.436607883142248 7 0 0
2452 491 3 0 6.650532299496259 -2.934549819952096 -7.698814724541631 7 0 0
194 39 3 0 -6.5423785844229645 -2.3521089329456206 -7.795835365758637 9 0 0
1689 338 3 0 0.471407149332455 -2.750693023514801 -8.13491573170637 10 0 1
3799 767 2 0 3.2072044447642583 -2.7752109716081534 -8.225160126495297 7 0 0
3801 767 4 0 3.5718134033034 -2.559921287040277 -8.004867561389625 7 0 0
2002 401 3 0 3.803454201345451 -2.242440937905913 -7.8760326998106995 7 0 0
2001 401 1 0 4.144524972177365 -1.9680376137629718 -8.040817369448803 7 0 0
4275 925 4 0 4.9051466205586856 -2.29048023055676 -8.090477967045535 7 0 0
2003 401 3 0 4.505243423355928 -2.204741498224374 -8.14926148046151 7 0 0
4273 925 2 0 5.353677603158975 -2.3350360760534894 -8.05753524718745 7 0 0
4274 925 4 0 5.788015486010988 -2.381692345516134 -8.026094986120247 7 0 0
2454 491 3 0 6.17771913439989 -2.40438197484103 -7.945842029620704 7 0 0
2453 491 3 0 6.889711583441372 -2.385678860461626 -8.163261062287653 7 0 0
2451 491 1 0 6.606616418729285 -2.4857162278104443 -7.822005334988296 7 0 0
1358 272 3 0 -6.537969516816492 -1.5037078665652324 -8.24646179167469 5 0 0
2005 401 3 0 4.263263640803601 -1.662169493353998 -7.71379622124096 7 0 0
2004 401 3 0 3.998214246790962 -1.7363753495852166 -8.412915330953803 7 0 0
218 44 3 0 10.031006179819126 -1.3723705197835745 -7.680885181149394 7 0 0
145 29 3 0 -10.640654413030738 -11.7112331230471 -7.002248564872353 4 0 0
4773 1091 4 0 -9.128085633468013 -11.96984454149737 -6.819995862162387 2 0 1
2100 420 3 0 -8.30220322329101 -11.683408024676114 -6.736143983610113 14 1 0
3084 617 3 0 -9.782922282307918 -8.843379177984358 -7.31331933037888 14 1 0
3081 617 1 0 -9.696014676314404 -8.444037581378389 -7.13945774224416 14 1 0
3085 617 3 0 -9.374013573932608 -8.491137538564697 -6.813607480776269 14 1 0
4724 1075 4 0 -10.261837699675041 -8.132631789465135 -6.620349298379234 4 0 0
3083 617 3 0 -10.062774161900501 -8.266303668807357 -6.952883330416341 14 1 0
3082 617 3 0 -9.52884738033698 -8.165739647959127 -7.483859504000888 14 1 0
4005 835 4 0 -4.281510394248566 -7.330405221843817 -7.29063016074845 5 0 0
4003 835 2 0 -3.9074856203466712 -7.5364890952237245 -7.125644986380032 5 0 0
4004 835 4 0 -3.5428959894410657 -7.743524585015627 -6.968306522032993 5 0 0
1863 373 3 0 -2.6487301128196155 -8.07141645529271 -7.0728574000688305 5 0 1
1861 373 1 0 -2.749768130232521 -7.6520604064206506 -7.112458679071315 5 0 1
1864 373 3 0 -3.191984418271266 -7.61621868059055 -7.1545916594334225 5 0 1
1865 373 3 0 -2.5474001154648445 -7.4786728355347725 -7.474334839343476 5 0 1
1862 373 3 0 -2.6156320452685673 -7.436025008945043 -6.745943987742311 5 0 1
1939 388 3 0 -0.07531970776011754 -7.564076249715401 -7.04198902217803 4 0 1
1940 388 3 0 -0.26910454352473323 -8.198117701930949 -6.7221719061317735 4 0 1
1936 388 1 0 -0.0562912332411436 -7.803432190735391 -6.661710579890852 4 0 1
1937 388 3 0 0.347376974933594 -7.868074933092474 -6.562145859187163 4 0 1
834 167 3 0 -11.507938907642114 -7.263005159830832 -7.290516295031878 5 0 0
832 167 3 0 -11.874856314540876 -6.70003820735778 -7.5937709761516325 5 0 0
831 167 1 0 -11.686430550036814 -6.855032872291999 -7.220426238238625 5 0 0
835 167 3 0 -11.352268563937988 -6.567673243588164 -7.089066500508541 5 0 0
713 143 3 0 -6.330600160846195 -7.123004169443453 -6.665490957527574 5 0 0
3038 608 3 0 -4.65077535788902 -7.361571357990855 -7.41393923388145 15 1 0
833 167 3 0 -12.011043176393283 -6.883900874576742 -6.889016715612454 5 0 0
63 13 3 0 -10.752859834385475 -4.70328452920135 -7.350426070207109 6 0 0
4197 899 4 0 -11.146601841481017 -4.749429622609386 -7.3009647828712145 6 0 0
62 13 3 0 -10.197091030539717 -4.831203663868015 -6.911168298271676 6 0 0
528 106 3 0 -8.017016612820088 -4.527479934362075 -7.160096272525576 6 0 0
159 32 3 0 -6.317047385015225 -5.043120712985635 -7.27730908068995 7 0 0
4195 899 2 0 -11.525582509200351 -4.6010739628853425 -7.130196608881581 6 0 0
4196 899 4 0 -11.905965130648811 -4.443399440333359 -6.976703286449568 6 0 0
61 13 1 0 -10.397092312159913 -4.521989905559114 -7.135875313505125 6 0 0
64 13 3 0 -10.53866392401525 -4.189959682939552 -6.858394395982706 6 0 0
65 13 3 0 -10.100208708452678 -4.34776095263631 -7.430410219564058 6 0 0
3992 831 4 0 -9.69040094057426 -4.373250709957927 -7.425547472550856 6 0 0
3993 831 4 0 -8.864148711932256 -4.010223806425884 -7.227401752041771 6 0 0
3991 831 2 0 -9.264308776130793 -4.185414779632211 -7.326278936807608 6 0 0
527 106 3 0 -8.477307945577094 -4.0337243302358985 -7.337693663123904 6 0 0
530 106 3 0 -7.842930063837086 -3.838537530597076 -7.1285013498243615 6 0 0
526 106 1 0 -8.07119956537665 -4.141329678519501 -7.349599448015598 6 0 0
4566 1022 4 0 -5.620391258691758 -4.351683872483966 -7.500305294442316 6 0 1
4564 1022 2 0 -5.2680387169423755 -4.092126959776393 -7.591790405400481 6 0 1
3670 734 3 0 2.899621124696905 -3.99998130712709 -7.134406304930311 9 0 1
3666 734 1 0 2.9315586616226774 -3.917381070431494 -6.719409553621947 9 0 1
4217 906 4 0 -7.6053652851951385 -3.4970869193046035 -7.064052280022227 6 0 0
4216 906 2 0 -7.198991773159729 -3.3705059131772437 -7.169082298257747 6 0 0
4218 906 4 0 -6.773948661063093 -3.2378044427404014 -7.276406227068483 6 0 0
195 39 3 0 -6.744797939953034 -2.846759557106882 -7.3603788628383775 9 0 0
2675 535 3 0 -4.366518528317844 -2.9466637357767116 -7.442716617974812 6 0 0
314 63 3 0 -10.756444620102313 -2.0568769873352366 -6.772767909710451 8 0 0
193 39 3 0 -6.847646657884542 -2.16652588841281 -7.213221113318032 9 0 0
192 39 3 0 -6.143560945529385 -2.4205458434498954 -7.180661307484328 9 0 0
191 39 1 0 -6.580683265934952 -2.442627204389238 -7.399799625673063 9 0 0
4944 1148 4 0 -5.85248695643649 -2.672271268705673 -7.048081085467666 8 0 0
4942 1148 2 0 -5.56969286916815 -2.317688744657664 -6.971600268286154 8 0 0
4943 1148 4 0 -5.287131303624188 -1.9695732243333826 -6.905778788470014 8 0 0
2455 491 3 0 6.7075346406775544 -2.227587165817262 -7.4652945685212115 7 0 0
217 44 3 0 9.912865134397272 -1.9030169267689274 -7.168189835738687 7 0 0
947 190 3 0 -6.739404270573203 -1.7761482887810285 -6.758384236888009 9 0 0
946 190 1 0 -6.636346533086431 -1.3477894342476944 -6.82806056954527 9 0 0
949 190 3 0 -6.412358452767187 -1.3159532770496316 -7.193635741339088 9 0 0
3117 624 3 0 -5.325719268258433 -1.6079204023453588 -7.1274041442033935 9 0 0
3118 624 3 0 -4.645917935142913 -1.5248220448796665 -7.3248071695387225 9 0 0
3119 624 3 0 -5.1140608604826525 -1.0463003022130124 -7.540178657957554 9 0 0
3116 624 1 0 -4.993983053691144 -1.319305698293558 -7.207283251672356 9 0 0
3120 624 3 0 -4.915336725493409 -1.073352589440013 -6.830680057431977 9 0 0
5333 1278 4 0 -4.584146259975958 -0.8947830488910515 -6.96222819623097 9 0 0
4910 1137 4 0 4.205920875440757 -1.439000955176514 -7.366393715695996 6 0 0
4909 1137 2 0 4.3569334462409905 -1.6169109226578247 -6.990331369562972 6 0 0
219 44 3 0 9.957229064980641 -1.1922898132862407 -6.94418756758035 7 0 0
216 44 1 0 10.113785341633832 -1.5093683148147452 -7.244225558694984 7 0 0
220 44 3 0 10.588340987304385 -1.5562380069914354 -7.179068309075116 7 0 0
5334 1278 4 0 -3.9612572399804744 -0.2440502248172436 -6.773342646186006 9 0 0
5332 1278 2 0 -4.271892449922627 -0.5600023640506944 -6.865781940498892 9 0 0
142 29 3 0 -10.832293407011276 -12.022115742660969 -6.369591470788776 4 0 0
141 29 1 0 -10.614905088837903 -11.666136283204022 -6.567752468456246 4 0 0
143 29 3 0 -10.818477448694486 -11.266821471872872 -6.445477792587401 4 0 0
144 29 3 0 -10.182263877325564 -11.669382435617264 -6.44132770570047 4 0 0
4772 1091 4 0 -9.787641339634218 -11.556401298208081 -6.385629202455011 2 0 1
4771 1091 2 0 -9.45137191276538 -11.760036596394775 -6.605006546670737 2 0 1
4002 834 4 0 -8.00123849930051 -11.528850393856608 -6.477596759480715 4 0 0
4000 834 2 0 -7.5723240717560625 -11.48208677275154 -6.336511068959109 4 0 0
4001 834 4 0 -7.1424795332840665 -11.433234389835928 -6.192540464185557 4 0 0
844 169 3 0 -5.012285496080306 -0.09167777370825902 -4.946558366756126 10 0 0
1340 268 3 0 -6.181059053801201 -11.906040839670826 -6.605239409510012 3 0 0
1339 268 3 0 -6.8094646305488515 -11.664969701633593 -6.278723714080909 3 0 0
1336 268 1 0 -6.510725773058465 -12.0038185164519 -6.306670038761019 3 0 0
3954 818 4 0 -9.067338603421067 -8.482699400047808 -6.604492717612047 3 0 0
4725 1075 4 0 -10.69475011093825 -7.954791873225139 -5.829889530897968 4 0 0
4723 1075 2 0 -10.491079612419654 -8.043725649101136 -6.220459020361858 4 0 0
3952 818 2 0 -8.913669442473399 -8.272156450030646 -6.2404260174170565 3 0 0
3953 818 4 0 -8.767211174760423 -8.065481822670224 -5.869373033847302 3 0 0
712 143 3 0 -6.223509199229615 -7.583878947584079 -6.120145528173978 5 0 0