LAMMPS data file via write_data, version 19 Nov 2024, timestep = 9000000, units = lj

661 atoms
4 atom types
474 bonds
1 bond types
437 angles
2 angle types

-4.496439 4.496439 xlo xhi
-4.496439 4.496439 ylo yhi
-4.496439 4.496439 zlo zhi

Masses

1 1
2 1
3 0.1
4 0.1

Bond Coeffs # harmonic/omp

1 100 0.45

Angle Coeffs # harmonic/omp

1 100 180
2 100 109.471

Atoms # full

468 123 4 0 -3.313965689506166 -3.7275426258240874 -3.67251956884493 0 0 0
164 33 3 0 -3.5954475252026588 -4.0323723097291095 -3.594421773668938 1 0 0
162 33 3 0 -4.0963379203835135 -4.266374043166973 -4.094015998221471 1 0 0
618 173 4 0 -0.5379420744488085 -1.119553220573535 -0.3897239318604977 0 0 0
161 33 1 0 -3.803613334876651 -4.378281626213172 -3.7245831862011176 1 0 0
467 123 2 0 -2.9986342893727764 -3.6319968695291887 -3.324742678697432 0 0 0
298 66 4 0 -3.7167616889910446 -2.486648178420041 -3.6503224393029043 1 0 0
197 40 3 0 -3.333660309856056 -2.615623639686154 -3.635480414946034 1 0 1
296 66 2 0 -4.133822459057192 -2.6234395395452896 -3.7898363171842098 1 0 0
198 40 3 0 -3.0722117763083854 -1.9810593870694222 -3.8223580619300526 1 0 1
576 159 4 0 -0.1821664232858725 -1.048117895715809 -0.2187841549974361 0 -1 0
199 40 3 0 -2.758776839948683 -2.379637239364263 -3.349403376822358 1 0 1
196 40 1 0 -2.9758226281721574 -2.392224726545347 -3.705138513224163 1 0 1
174 35 3 0 -1.8997205918872198 -2.677723581322849 -2.9231521169515395 0 0 0
200 40 3 0 -2.74702274310784 -2.5876794899382562 -4.022613530085738 1 0 1
486 129 4 0 -2.8849176996436054 -2.7671906553904897 -4.34945822056664 1 0 0
311 71 2 0 -1.7381256868320676 -2.07544567472187 -3.333889481186408 0 0 0
312 71 4 0 -1.99076359473116 -2.442885621011404 -3.2554339959094927 0 0 0
313 71 4 0 -1.4827145935526784 -1.7141150522800235 -3.417597585801734 0 0 0
459 120 4 0 -0.27064049995299744 -1.9194698770449696 -3.337769409714648 0 0 -1
412 104 4 0 -0.5961184893686685 -1.904337803794935 -4.278473482041888 0 0 1
215 43 3 0 -0.48386233002021345 -1.6983496513312508 -3.930573603712322 1 0 0
212 43 3 0 -1.1581249679587438 -1.7322379134103827 -3.6722329236659284 1 0 0
214 43 3 0 -0.5801875840005838 -1.6945492325828673 -3.1913550262193495 1 0 0
211 43 1 0 -0.755284109632217 -1.558546634096114 -3.6104118917840387 1 0 0
634 178 4 0 -0.7480803289274335 -0.9674325238814673 -3.975435806887326 1 0 1
632 178 2 0 -0.7625177711500247 -0.4924893358350567 -4.014040359512861 1 0 1
213 43 3 0 -0.7862477136371934 -1.1178470992685439 -3.6152316785797565 1 0 0
469 123 4 0 -2.711672292431942 -3.540622669494396 -2.9884409105398877 0 0 0
172 35 3 0 -2.4723768968067543 -3.208319140370785 -2.8900013910461286 0 0 0
173 35 3 0 -1.9349800055209463 -3.192484546900735 -2.3688078079138952 0 0 0
455 119 2 0 -0.42507910215792427 -4.462971096796198 -2.3936462372220166 0 0 0
471 124 4 0 -0.7615157136767834 -3.734465791609149 -2.5874835950140995 1 0 0
470 124 2 0 -0.5175151417101074 -3.3498881567836625 -2.4625712929534984 1 0 0
456 119 4 0 -0.6438952962969552 -4.106678226319026 -2.4794389831809074 0 0 0
472 124 4 0 -0.29945895397713196 -2.993275638361772 -2.3460339078707153 1 0 0
114 23 3 0 -3.91237191647784 -2.0772455821673685 -2.7139730019058246 -1 0 1
658 186 4 0 -3.4958301582303317 -2.0519613128931833 -2.68508688871017 1 0 0
111 23 1 0 -4.161780948168661 -1.7938436801739017 -2.49285551305246 -1 0 1
616 172 4 0 -4.038610635037656 -2.0181003332281486 -1.6935281627018897 1 0 1
656 186 2 0 -3.1059978111935527 -2.2200636883366274 -2.612120572553246 1 0 0
115 23 3 0 -4.0904589400275135 -1.836370139497791 -2.059503491750321 -1 0 1
614 172 2 0 -4.292401092265097 -2.174062773984563 -1.3738928447043441 1 0 1
171 35 1 0 -2.1865443197982266 -2.9313420735860753 -2.6337205696783874 0 0 0
415 105 4 0 -1.8068928155661879 -2.989270504194807 -2.0639564966814223 0 0 0
413 105 2 0 -1.6121848618680048 -2.7369428668855704 -1.734890855309972 0 0 0
657 186 4 0 -2.681941810545817 -2.3982388982513894 -2.5531170839790627 1 0 0
175 35 3 0 -2.4377530888228156 -2.6495439242069 -2.379091468491687 0 0 0
228 46 3 0 -0.5577124481067557 -2.324249830577206 -1.6375203664502351 0 0 1
112 23 3 0 -4.066880028464035 -1.3773947475460275 -2.631787878598328 -1 0 1
434 112 2 0 -3.1814865040310627 -1.1129553501424663 -1.594167706975266 0 0 0
453 118 4 0 -3.0890920417255594 -0.5748486265011875 -1.9441790018782419 2 -1 0
436 112 4 0 -3.193745788952816 -0.6497321146848238 -1.5744664299667366 0 0 0
332 78 2 0 -4.479911968124317 -0.8357866121584678 -3.065448684230963 0 0 0
452 118 2 0 -3.0762352207357826 -0.1457966898169404 -2.111095604664024 2 -1 0
334 78 4 0 -4.261608986458651 -1.2141475766330823 -2.9683862062305746 0 0 0
617 173 2 0 -0.807938112713808 -1.4561719850535468 -0.2473225258845877 0 0 0
491 131 2 0 -1.2117487285165942 -4.375212530964191 -0.15202345544820253 0 0 0
435 112 4 0 -3.1651032572596325 -1.5591162414312612 -1.604541975399671 0 0 0
383 95 2 0 -2.639230088966925 -1.9570108563948727 -1.133286268929864 0 0 0
385 95 4 0 -2.344511600502464 -2.1367715216945355 -0.843166883526127 0 0 0
483 128 4 0 -2.2294565149771945 -2.242080169777638 -0.48704114606898763 1 0 -1
482 128 2 0 -1.8231092413505776 -2.1421519386402346 -0.33874637416960945 1 0 -1
484 128 4 0 -1.3655989424266077 -2.0420782238577324 -0.17023005757430246 1 0 -1
384 95 4 0 -2.9229350535487892 -1.788493765564196 -1.4073915143852143 0 0 0
414 105 4 0 -1.4079373333267517 -2.4853490080991296 -1.4032797974428584 0 0 0
229 46 3 0 -1.2183375797111446 -2.1580467681839948 -1.323584871452223 0 0 1
230 46 3 0 -0.6115251047488264 -1.772849158341992 -1.1489965242239335 0 0 1
226 46 1 0 -0.7668770643834008 -2.178637951864218 -1.2505919097993803 0 0 1
227 46 3 0 -0.6882879760368188 -2.4679835734864572 -0.910551796044797 0 0 1
479 127 2 0 -0.16989244275502902 -2.5810861861822483 -0.37309173816887925 0 0 0
619 173 4 0 -1.0677198407105315 -1.7835483322975034 -0.1166119135795433 0 0 0
481 127 4 0 -0.4278703973010003 -2.3143700770975393 -0.6498240306043385 0 0 0
633 178 4 0 -0.7827752819936691 -0.05806733080394755 -4.05504735484784 1 0 1
539 147 2 0 -3.438518523081659 -3.7479271752583867 1.1402122007754967 0 0 0
540 147 4 0 -3.7787929713212267 -3.8550573466768743 1.4258242632119444 0 0 0
541 147 4 0 -3.1082590512081394 -3.653813111773541 0.865967387775964 0 0 0
35 7 3 0 -2.7333183444475013 -3.716810591705999 0.7136461304080796 0 0 0
564 155 4 0 -1.7826142789160795 -3.2156004535845404 0.3487846867429747 1 0 0
356 86 2 0 -1.8910141776923477 -4.332181785413057 0.7157111352511671 -1 0 -1
32 7 3 0 -2.1548303742081094 -3.405817705059581 0.326012165758736 0 0 0
360 87 4 0 -0.05667247893203312 -0.9602558669277005 3.4064371342127098 -1 0 0
31 7 1 0 -2.606580635563578 -3.5821466304993175 0.3016794331160152 0 0 0
34 7 3 0 -2.6225796881499535 -3.928444220990588 0.016745450934455394 0 0 0
358 86 4 0 -1.7031046441150142 -4.154572869781415 0.3527740534677396 -1 0 -1
492 131 4 0 -1.3125814805999088 -4.163089697217525 0.2568731636552082 0 0 0
627 176 4 0 -4.467194554862458 -1.5726718966405517 1.134270213333003 1 0 0
33 7 3 0 -2.878683079894631 -3.2660036606970357 0.16439499317706932 0 0 0
563 155 2 0 -1.4948237889364504 -2.8746637448040087 0.4594707060840502 1 0 0
565 155 4 0 -1.2088013656288148 -2.5404108781948813 0.5665674055640514 1 0 0
450 117 4 0 -0.8018725076966988 -2.6033423897084904 0.6184932566400746 0 0 0
449 117 2 0 -0.38690499928532746 -2.61819288436569 0.7598819855198212 0 0 0
438 113 4 0 -4.136016572350342 -1.3961430986511891 0.9673364377190359 0 0 0
437 113 2 0 -3.953685844619522 -1.0014117917274759 0.814914062504649 0 0 0
439 113 4 0 -3.7701170296290054 -0.6148153998959516 0.6602956109677846 0 0 0
101 21 1 0 -3.430706890332371 -0.007683863337553129 0.6795047160377812 0 0 0
192 39 3 0 -0.15827563008360707 -3.979781775383592 3.3886328293778902 1 0 0
103 21 3 0 -3.389658482915817 -0.46471143040298235 0.6759844583332959 0 0 0
142 29 3 0 -0.41125275461669303 -2.7573617871638136 2.9484122922728697 1 0 -1
264 55 4 0 -3.767966620778432 -0.24290535744477942 1.225976058992793 0 0 0
604 168 4 0 -1.6929262339612614 -0.11831577440437178 0.06342602406146468 0 0 0
7 2 3 0 -0.35591886436558995 -0.790103993543707 1.654247285593539 0 -1 -1
602 168 2 0 -1.277746390093644 -0.046953330672380146 0.17952196974188317 0 0 0
169 34 3 0 -3.742266205274941 -4.201466251005203 1.5606624664750446 1 0 0
411 104 4 0 -0.5506175540355851 -2.2251333933876927 3.873857226078506 0 0 0
168 34 3 0 -3.4986927727435972 -4.477084243367568 2.238978912649056 1 0 0
642 181 4 0 -3.432944586090709 -4.130750749475702 2.4346405543187997 1 0 0
641 181 2 0 -3.04234343723366 -3.9481946356655873 2.636028137883157 1 0 0
130 26 3 0 -2.4110195033344275 -3.511096150644105 2.9382159105903387 1 0 0
643 181 4 0 -2.678655929434868 -3.783190023260286 2.811204573893371 1 0 0
266 56 2 0 -0.529456660266325 -2.1324698965015645 2.3760836153334615 0 0 -1
268 56 4 0 -0.44493197868238943 -2.507391911620772 2.6359180350782387 0 0 -1
267 56 4 0 -0.6020464801762891 -1.7850870501920844 2.125885618975086 0 0 -1
119 24 3 0 -3.6971328029303447 -0.13550390997893558 2.367630898924934 1 0 0
265 55 4 0 -3.693680464999613 -0.4697376458515022 2.1393576899698377 0 0 0
263 55 2 0 -3.728593128884181 -0.3544163135457539 1.695756390627247 0 0 0
6 2 1 0 -0.24976334631051933 -1.1591006463585745 1.9067479654498047 0 -1 -1
10 2 3 0 -0.1102981824335877 -1.021927755737698 2.3134094513943704 0 -1 -1
361 87 4 0 -0.054563319253134845 -0.6743406721916676 2.5090077353007847 -1 0 0
8 2 3 0 -0.6006852577518541 -1.4233072535942026 1.9504154256636344 0 -1 -1
359 87 2 0 -0.05250666277472882 -0.8201695240308416 2.967959060817338 -1 0 0
365 89 2 0 -4.2625418206959464 -4.238064835840267 3.3532308085902964 0 1 0
367 89 4 0 -3.8629941053507335 -4.369390876863363 3.540750568110355 0 1 0
420 107 4 0 -2.3220161317874313 -4.109845270446631 3.7094884110350583 1 1 0
129 26 3 0 -2.3631993118714485 -3.095144884151136 3.530311410945175 1 0 0
126 26 1 0 -2.180169957849792 -3.441556952948019 3.3014810026814265 1 0 0
127 26 3 0 -1.735134633499827 -3.3424603738316687 3.1827842682592546 1 0 0
128 26 3 0 -2.192798020683579 -3.78916920146932 3.5560964485763997 1 0 0
559 153 4 0 -1.5151328007996654 -3.6259924009181965 3.4150321476974494 1 1 -1
191 39 1 0 -0.2129295487907694 -4.136705845628996 3.807434807349898 1 0 0
558 153 4 0 -0.9693261609851481 -3.8831748529124743 4.145260962508578 1 1 -1
557 153 2 0 -1.243519992368706 -3.7553702850389343 3.778982363927792 1 1 -1
193 39 3 0 -0.5963595024712421 -3.9844044508302394 3.982972443619634 1 0 0
526 142 4 0 -0.12653628405736186 -2.9119156807284123 4.017432406094603 1 0 0
487 129 4 0 -2.5547878988880854 -2.8291474374477596 3.798981026728741 1 0 -1
485 129 2 0 -2.7215936186851426 -2.7900727167319976 4.221934975071655 1 0 -1
144 29 3 0 -0.27876935474512954 -2.970743474410546 3.6215444669650707 1 0 -1
410 104 2 0 -0.5726732425843609 -2.0680885861729017 4.286866741447385 0 0 0
143 29 3 0 -0.6766130851548103 -2.331755528831953 3.5096695670409686 1 0 -1
141 29 1 0 -0.31370196392833977 -2.6207244811853045 3.3523754078393755 1 0 -1
301 67 4 0 -2.0387444158724675 -0.014870599333692476 0.2175794155891037 0 0 0
419 107 2 0 -2.6103340620296485 -4.429826046550229 3.7886217250022147 1 1 0
348 83 4 0 -4.179467412164638 0.7272605305246834 -3.774319910046288 -1 0 1
27 6 3 0 -4.056881562842884 1.0123092177731563 -4.017285642934773 1 -1 1
29 6 3 0 -3.4066093915936633 1.3369708091397918 -4.206861360054951 1 -1 1
26 6 1 0 -3.7609523520386805 1.103450043550573 -4.364278286305428 1 -1 1
327 76 4 0 -0.5850200757242017 0.23658646960228066 -3.8295146103151816 0 1 1
326 76 2 0 -0.599353305130364 0.6757882186349152 -3.7001135612251903 0 1 1
328 76 4 0 -0.6194786298528813 1.0744719946513253 -3.588928006558857 0 1 1
418 106 4 0 -1.5041772314088406 4.2967771010462625 -0.5887499265622722 -1 0 1
249 50 3 0 -0.587340930867985 1.4374099474073019 -3.7500557491401083 0 0 1
188 38 3 0 -2.3166270824385142 2.4780529501713255 -3.2714116370269837 1 -1 1
613 171 4 0 -1.730235317186593 2.818745422950937 -4.01092240943552 1 0 0
186 38 1 0 -2.210661491113326 2.9029214010179207 -3.3315672279533444 1 -1 1
190 38 3 0 -1.9915585189468283 2.952917108453627 -3.7355868097612355 1 -1 1
189 38 3 0 -2.564552081168685 3.1441428479236015 -3.3280549627618963 1 -1 1
611 171 2 0 -1.4325011306872408 2.48540182510843 -4.049298193134323 1 0 0
573 158 4 0 -2.301448301103288 2.121662361154093 -3.0972789990916754 1 0 1
612 171 4 0 -1.1091689959806674 2.1204835221902885 -4.088176324622831 1 0 0
250 50 3 0 -0.620392569301091 2.1557227914080506 -3.495599846895706 0 0 1
246 50 1 0 -0.5078260548676832 1.873796991895175 -3.8669905970149987 0 0 1
248 50 3 0 -0.7558909219943483 1.982626214300435 -4.2057315195053055 0 0 1
447 116 4 0 -0.81087458835656 2.4026729084411 -3.2487136932277205 0 0 1
247 50 3 0 -0.07106337313374889 1.922314376807302 -3.963910610559245 0 0 1
294 65 4 0 -0.12311504893800106 2.30336583061678 -4.109250095494143 0 -1 1
305 69 2 0 -3.1026421314190658 3.626971278374477 -3.723095883652145 0 0 1
307 69 4 0 -3.4217811762399837 3.92133142426691 -3.8860165048629876 0 0 1
163 33 3 0 -3.5038846574502758 4.302216935428729 -3.861414568486083 1 -1 0
165 33 3 0 -4.053599103939331 4.443188148708998 -3.3797445873912886 1 -1 0
561 154 4 0 -3.8636913189674735 4.124482640665838 -3.1722106309119034 1 0 0
306 69 4 0 -2.7962981518063046 3.349110139810141 -3.568283179581504 0 0 1
122 25 3 0 -3.116088359720507 0.6964520380522257 -2.329965293614599 0 0 1
121 25 1 0 -2.9858117535253847 1.0060787077282485 -2.0597112144784453 0 0 1
454 118 4 0 -3.0686284158226225 0.28893470289172146 -2.275197091316057 2 -1 0
123 25 3 0 -3.0255051214085467 1.3853457366876578 -2.26003449602596 0 0 1
124 25 3 0 -3.256442118411379 1.0021267278041361 -1.670399396496041 0 0 1
587 163 2 0 -1.9898194685920723 0.8060571203979263 -1.671481819930391 1 1 0
588 163 4 0 -2.426849118724151 0.7664710327973372 -1.6170487663145094 1 1 0
125 25 3 0 -2.5692496687755937 0.9351008095161698 -1.9535860329347754 0 0 1
589 163 4 0 -1.5387455183986831 0.8482026197185384 -1.7221394422295904 1 1 0
574 158 4 0 -2.7919596484869147 1.5900849164988817 -2.5316997898839304 1 0 1
546 149 4 0 -0.2173892887718805 0.5526954443598587 -2.5285971520237696 0 0 0
610 170 4 0 -0.47955745503992525 0.5926037557471419 -2.235269361259557 0 1 0
608 170 2 0 -0.9139628760585286 0.6218127086872314 -2.1331220523741155 0 1 0
609 170 4 0 -1.3338792754031965 0.6459881655696595 -2.023229259226832 0 1 0
572 158 2 0 -2.5410356330181534 1.8595742170828193 -2.816092131674615 1 0 1
446 116 2 0 -0.5922211086640116 2.6055459171381066 -2.8870503630074817 0 0 1
448 116 4 0 -0.37471745584354055 2.795418841411757 -2.533908513036855 0 0 1
560 154 2 0 -3.8909061441298842 4.131984720085718 -2.702054904408732 1 0 0
474 125 4 0 -3.9827040097594377 4.430473310083607 -2.0166868065530146 1 -1 0
562 154 4 0 -3.9240735265876907 4.148415965642567 -2.2659940521401305 1 0 0
473 125 2 0 -3.9361377914423663 4.424889992780933 -1.6061341868740595 1 -1 0
187 38 3 0 -1.9396544618304703 3.0359321037487157 -2.999736958743629 1 -1 1
510 137 4 0 -2.136240851770329 3.3260981908402196 -2.8234826070854404 0 -1 0
511 137 4 0 -2.4569503019171615 3.5689743697864196 -2.0207006171143598 0 -1 0
179 36 3 0 -2.5680423394967584 3.3068145123359347 -1.7141365953041385 0 -1 1
509 137 2 0 -2.295464068677336 3.4472741214340408 -2.420640123503898 0 -1 0
556 152 4 0 -0.4412708250912323 2.997482435147155 -1.6844363182397861 0 0 1
148 30 3 0 -0.22339988226878138 3.136121436978222 -2.6294555416647514 1 -1 0
149 30 3 0 -0.16989421263788762 3.21973418148808 -1.8874080391719477 1 -1 0
146 30 1 0 -0.11568096765264615 3.431518548949449 -2.301779041474629 1 -1 0
150 30 3 0 -0.3918485805115734 3.7994248666867656 -2.324830225810371 1 -1 0
457 119 4 0 -0.18352603556140673 4.139353238029511 -2.298929458010787 0 -1 0
259 53 4 0 -4.15324337659133 0.9304697456884727 -0.2718996822505544 1 -1 0
567 156 4 0 -3.5490723065211958 1.2514982541255404 -1.5353225886732347 1 0 1
566 156 2 0 -3.776616332198164 1.3695208147145435 -1.1716620217289664 1 0 1
257 53 2 0 -4.046478721069597 0.5018698288491169 -0.12467603817182729 1 -1 0
493 131 4 0 -1.1083085176226406 4.416156168049504 -0.5307195482698658 0 -1 0
184 37 3 0 -4.366030367319661 1.6277640215887945 -0.6486188676943356 1 -1 0
568 156 4 0 -4.0015189748949345 1.5022803909557378 -0.7899346430665966 1 0 1
180 36 3 0 -2.269152335585514 2.7530938620646093 -1.371407493848225 0 -1 1
178 36 3 0 -2.717156171119323 3.1796582222280847 -1.0057634217265625 0 -1 1
554 152 2 0 -0.43805412068936184 2.809041481659973 -1.2768463653362085 0 0 1
555 152 4 0 -0.42824293721200624 2.6199848262631646 -0.8697158589504412 0 0 1
310 70 4 0 -0.3038864623807163 2.8084449986965865 -0.5204833732100449 -1 0 0
308 70 2 0 -0.19519082137913732 2.847763056807376 -0.09758370904285729 -1 0 0
331 77 4 0 -3.104396383061127 3.0705894365382114 -1.0590305178924255 0 0 -1
329 77 2 0 -3.4082479456388413 3.218012922650346 -0.8059219509268376 0 0 -1
330 77 4 0 -3.715653474290225 3.367985401404156 -0.5315910384996011 0 0 -1
110 22 3 0 -4.082622831375199 3.502214002190275 -0.45002940989629747 0 -1 0
416 106 2 0 -1.714859172299457 4.036095463978043 -0.9127346462615885 -1 0 1
177 36 3 0 -2.039685344055346 3.411102126401653 -1.1979248442064079 0 -1 1
417 106 4 0 -1.9097079618301205 3.788441854500077 -1.2251678384343496 -1 0 1
176 36 1 0 -2.4051743860139383 3.1630894104316827 -1.3283966330781483 0 -1 1
475 125 4 0 -3.8810299350933173 4.42881655041374 -1.1615826679001813 1 -1 0
185 37 3 0 -4.461890891525266 1.1386196845431604 -0.10966493148294598 1 -1 0
166 34 1 0 -3.6759947113643774 4.39929970379326 1.8234474375027472 1 -1 0
258 53 4 0 -3.943789262489309 0.06260470715163613 0.04131288402645907 1 -1 0
102 21 3 0 -3.6767809905468996 0.10876442802407503 0.3423469948129991 0 0 0
409 103 4 0 -1.8883415252128837 1.2159187210822238 0.18847160371232993 0 0 0
407 103 2 0 -1.9179555449897623 1.1685258565852676 0.6156156540104915 0 0 0
408 103 4 0 -1.9498996115513372 1.1098034622653314 1.074830846356494 0 0 0
300 67 4 0 -2.7879231312712824 0.4148491991673787 0.4338399927687796 0 0 0
500 134 2 0 -1.2906305072393423 3.3879171464604707 3.5343738976418835 1 -1 0
299 67 2 0 -2.4198731973830006 0.2021049677524127 0.32544218104731454 0 0 0
3 1 3 0 -1.9301211424708788 1.3303694231351582 1.4051139717023982 1 0 0
603 168 4 0 -0.8729201536377853 0.013473914914219828 0.29144101043891607 0 0 0
325 75 4 0 -0.7015154610698133 0.39836749180823794 0.2103672491678974 -1 0 0
323 75 2 0 -0.400372420306969 0.7590919936783588 0.19619196067805453 -1 0 0
324 75 4 0 -0.11372682313226055 1.0957631566028772 0.17887419741518323 -1 0 0
401 101 2 0 -4.362151719291935 2.4307733662850137 0.3561885202061723 0 -1 1
502 134 4 0 -0.9490977652885242 3.4578258214781497 3.2563452458148636 1 -1 0
402 101 4 0 -4.4476218251526936 1.994439823480001 0.4706234619604162 0 -1 1
535 145 4 0 -2.7680958801615216 2.750172600292788 0.8219519726875877 1 0 1
2 1 3 0 -1.9823245753018512 2.0504380203354837 1.2228009483991866 1 0 0
533 145 2 0 -2.3725609193767787 2.570869580773623 0.9252677943504031 1 0 1
534 145 4 0 -1.9633336946263824 2.394494252445045 1.0173495543873674 1 0 1
549 150 4 0 -2.851095982146521 3.116881140118699 0.7038202819613353 0 -1 0
309 70 4 0 -0.07475739014666477 2.875687166412484 0.3411143124559488 -1 0 0
548 150 2 0 -3.201004559141647 3.1507398835618465 0.419963091560678 0 -1 0
403 101 4 0 -4.267466701772088 2.8606089190452706 0.2543402152538211 0 -1 1
550 150 4 0 -3.5590747447997635 3.177168902135737 0.13027865497488877 0 -1 0
109 22 3 0 -3.7851348513383885 3.503537493765762 0.26061095391345723 0 -1 0
107 22 3 0 -4.458287496477711 3.209092446994637 0.13859504386939844 0 -1 0
444 115 4 0 -3.0199502542618695 4.351164533837943 1.5810792907589042 0 0 1
106 22 1 0 -4.180383572977441 3.5388799846747987 0.023249421216506225 0 -1 0
108 22 3 0 -4.3697029826083735 3.9245424413399657 0.11360249583356466 0 -1 0
443 115 2 0 -2.637141917283674 4.234813019835068 1.3681422213722976 0 0 1
445 115 4 0 -2.256080962520728 4.116953663551395 1.165885300227867 0 0 1
67 14 3 0 -0.031305367892414726 3.710950139465683 1.0734258430694874 0 0 0
505 135 4 0 -0.2509279880417103 4.014059575079937 1.2308753982190768 1 -1 0
70 14 3 0 -0.020583920777036437 3.2228482291729255 0.5249152181647999 0 0 0
117 24 3 0 -4.085184315571793 0.17382505170660706 2.969390695529898 1 0 0
116 24 1 0 -3.6909183673714914 0.208128222533412 2.693772965125229 1 0 0
120 24 3 0 -3.679892167379906 0.6094452065020243 2.494787600105355 1 0 0
317 73 2 0 -4.111448472260042 1.2633936997334942 2.6167094687323766 0 -1 0
319 73 4 0 -4.011266122782578 0.8208077752761911 2.5398758364861584 0 -1 0
118 24 3 0 -3.315787550384075 0.1648882228555807 2.9618329521017324 1 0 0
318 73 4 0 -4.207364664748458 1.6958236301583884 2.6918755073185237 0 -1 0
64 13 3 0 -3.8804790763076746 1.9147681028890724 2.613334665482188 0 0 0
61 13 1 0 -3.7155361478272706 2.306789042246669 2.761766523874487 0 0 0
65 13 3 0 -3.768509382813186 2.635639776132371 2.4182082989360567 0 0 0
63 13 3 0 -3.2853846030998963 2.2586532819076037 2.855700943564911 0 0 0
649 183 4 0 -3.0171961823656015 2.1759167947019535 2.586531348013192 1 0 0
337 79 4 0 -3.9358031644751637 2.946272256261502 2.5494681744917815 0 0 0
1 1 1 0 -1.9569301047702516 1.7467582888012512 1.570530311292001 1 0 0
647 183 2 0 -2.8081263692502154 2.116841074329144 2.1776223446791136 1 0 0
5 1 3 0 -2.3170556543298058 1.783882165352231 1.8420343548283695 1 0 0
648 183 4 0 -2.608758716159456 2.0575610999288925 1.787319468744899 1 0 0
4 1 3 0 -1.5866133092530545 1.8346899683769793 1.8082497466317426 1 0 0
586 162 4 0 -1.4983008324368214 2.1885514011836222 1.9763437929245968 0 -1 0
584 162 2 0 -1.154738746581535 2.4557416758402097 2.012299319560677 0 -1 0
585 162 4 0 -0.7993376872147991 2.7348136966987813 2.049245862081969 0 -1 0
335 79 2 0 -3.9944098254806817 3.3509065551134207 2.429733875752894 0 0 0
336 79 4 0 -4.056248455480426 3.8020645009073513 2.308754761137133 0 0 0
170 34 3 0 -4.092662821741483 4.165409442205754 1.894272847175666 1 -1 0
523 141 4 0 -4.4735941490669315 4.136440815586355 2.013665160108704 1 -1 0
167 34 3 0 -3.3779973058095907 4.109233437967903 1.5947628904578033 1 -1 0
82 17 3 0 -0.3575631455644443 2.9474240059157 2.858551241731731 0 -1 0
83 17 3 0 -0.2613677347180973 3.5084105044456897 2.3938007463025572 0 -1 0
504 135 4 0 -0.16842152070354033 3.831716925079672 2.128872089092653 1 -1 0
84 17 3 0 -0.8389793393520202 3.059780917074495 2.315674241115646 0 -1 0
85 17 3 0 -0.8068149690191835 3.523935870767104 2.8915529944261285 0 -1 0
81 17 1 0 -0.5648760868621864 3.2574095585184613 2.611557699171362 0 -1 0
503 135 2 0 -0.21089891153385507 3.9206937200587593 1.6757658462356768 1 -1 0
375 92 4 0 -4.419958538185163 0.37566958786603233 2.9571440467058663 1 0 0
316 72 4 0 -3.363182645557738 0.3689812426656228 3.2947448340014236 1 -1 0
314 72 2 0 -3.3568181478993946 0.48954464929765257 3.737977861992518 1 -1 0
315 72 4 0 -3.3385200019612444 0.6044443447844687 4.165027824108694 1 -1 0
30 6 3 0 -3.6106069679293604 0.6925792414001185 4.444425068892813 1 -1 0
28 6 3 0 -3.959952294114492 1.3335093177672526 4.313972653566096 1 -1 0
490 130 4 0 -4.241024066260329 1.4285860430574404 4.096895693489944 1 -1 0
62 13 3 0 -3.9413702474745778 2.4361073021537054 3.126799689040562 0 0 0
622 174 4 0 -3.677410330413007 2.6006686206910326 3.3416696325885975 1 0 0
620 174 2 0 -3.6791348726381656 2.9426539946399743 3.6815606447356357 1 0 0
352 84 4 0 -0.3737140454071365 2.5763233881760015 3.047357353738939 0 0 -1
351 84 4 0 -0.44500245682134915 2.164822493168812 3.8532730659031786 0 0 -1
350 84 2 0 -0.4124258853535428 2.367233830819501 3.4514854828670707 0 0 -1
18 4 3 0 -3.8664109377872347 4.03556912301861 4.316343790138935 1 -1 -1
17 4 3 0 -3.194000166389758 4.240295811113328 4.078280398496519 1 -1 -1
20 4 3 0 -3.4730497608073674 3.6042881843229515 3.857512049388186 1 -1 -1
16 4 1 0 -3.569143800072883 4.032159607814845 3.9591142359893707 1 -1 -1
621 174 4 0 -3.674618681868279 3.251196569994931 3.9849237569665936 1 0 0
19 4 3 0 -3.7452926889947107 4.232427284098928 3.613525027019151 1 -1 -1
639 180 4 0 -4.206855596797324 3.7968878634146233 4.403252079932139 1 0 0
501 134 4 0 -1.646347219913016 3.325135893716103 3.8100544268555185 1 -1 0
421 107 4 0 -2.8865437547195394 4.24566170066227 3.8646535263816757 1 0 0
372 91 4 0 -0.11238476232043434 4.161804289871587 4.127228822280159 0 0 0
194 39 3 0 -0.21009472177429642 4.383995619115921 3.7883318072680336 1 -1 0
357 86 4 0 -2.080252478114177 4.486960678001191 1.0672585633846532 -1 -1 -1
105 21 3 0 -3.652959363117067 0.12011613169662955 1.0855611070639881 0 0 0
104 21 3 0 -3.043542784385151 0.17534782918192007 0.6500383106903073 0 0 0
379 93 4 0 1.2397300990536426 -3.9161141836464917 -3.8325169382411817 0 1 0
516 139 4 0 1.0202611246167044 -4.000918898487983 -4.150053642710019 0 0 2
377 93 2 0 1.7260989044499884 -3.908289102610823 -3.8761229823972525 0 1 0
378 93 4 0 2.1738403547846925 -3.903914258778995 -3.918427990026478 0 1 0
629 177 2 0 2.8047281617716067 -4.456978643764505 -3.9740313007349486 1 1 1
631 177 4 0 2.4422019209591572 -4.202452718032616 -3.9152845604741766 1 1 1
462 121 4 0 4.034652139521208 -3.4903777576438086 -3.8064323024143984 0 0 0
461 121 2 0 4.262969071844516 -3.8442980292512106 -3.963969770235476 0 0 0
98 20 3 0 3.761422876703974 -3.1891085625642788 -3.7715223022019893 -1 0 0
606 169 4 0 0.6767952312186245 -3.000553837394857 -4.2328155946453485 1 0 0
605 169 2 0 1.1224597741541036 -2.917037831242617 -4.35223910840125 1 0 0
525 142 4 0 0.2672677423172747 -3.017632361881297 -4.150673163314173 1 0 1
607 169 4 0 1.5419051393908356 -2.8332948112317737 -4.478357467705514 1 0 0
538 146 4 0 2.954828238575182 -1.5806750641766458 -4.417512772992414 0 0 1
399 100 4 0 3.0589790688708574 -1.4471160180976923 -3.2006914336530343 -1 0 0
536 146 2 0 3.078327524716407 -2.042747190392075 -4.424494894875189 0 0 1
96 20 1 0 3.781334643870362 -2.7852121157465275 -3.9682563139310902 -1 0 0
537 146 4 0 3.199177352654749 -2.4628407424127285 -4.42891908829861 0 0 1
99 20 3 0 3.775492364024473 -2.478815097126119 -3.6662227216570322 -1 0 0
97 20 3 0 4.170448870162155 -2.7492069642650905 -4.212583295243875 -1 0 0
100 20 3 0 3.4194684849640615 -2.7389988014433952 -4.2527871073015975 -1 0 0
288 63 4 0 3.6320460120278852 -2.3086530285330564 -3.3435807307148884 0 0 0
287 63 2 0 3.840538523372535 -2.028305150337855 -3.0277723390618254 0 0 0
240 48 3 0 2.7872984469856905 -1.2657765333188715 -4.2105718709461515 0 0 0
236 48 1 0 2.8533642767487386 -1.122215898870257 -3.7915789076478577 0 0 0
237 48 3 0 2.439414016934432 -1.0913286108385738 -3.567602339012261 0 0 0
654 185 4 0 2.4684995456062304 -0.873349359386729 -3.2189263641331674 0 0 1
239 48 3 0 3.1400352076917395 -1.422830005235195 -3.5700449704304056 0 0 0
297 66 4 0 4.456870574396006 -2.7610626087680097 -3.9193382615377526 0 0 0
285 62 4 0 2.7959843459513123 -0.41204864633704147 -3.8204450702541464 0 0 0
238 48 3 0 3.0440262082692486 -0.7193346203375519 -3.807986005076418 0 0 0
333 78 4 0 4.285693177599269 -0.4493320437879252 -3.1584036591318605 -1 0 0
43 9 3 0 3.893973224809881 -0.413627176083702 -3.1864552057001765 0 -1 1
652 184 4 0 0.557191655558937 -3.362912151939526 -2.626423325355886 1 1 1
650 184 2 0 0.7103917896624581 -3.7598366553548197 -2.6512810337450916 1 1 1
651 184 4 0 0.8744466768093024 -4.183576826383029 -2.675752042330459 1 1 1
321 74 4 0 0.7815415545561161 -4.445995804594322 -1.6457231198006457 0 -1 0
157 32 3 0 0.7850760432244317 -3.1033025332089994 -2.4699941926598625 1 1 0
341 81 2 0 1.2819309720827248 -3.055755535474375 -1.4899851333815626 0 0 0
159 32 3 0 0.07591452233926367 -2.896570953918106 -2.2899076697211234 1 1 0
342 81 4 0 1.6622571141046918 -3.0322408462207933 -1.2310613115781908 0 0 0
343 81 4 0 0.9145108748296227 -3.087036512199151 -1.7572852396353462 0 0 0
458 120 2 0 0.04208514181072136 -2.1209861152130305 -3.0249611272992434 0 0 -1
460 120 4 0 0.35660189046929797 -2.3180390816962904 -2.723954574913997 0 0 -1
156 32 1 0 0.505991466659094 -2.7887505613070807 -2.237440102989932 1 1 0
160 32 3 0 0.6240119225711599 -2.7917666570403847 -1.7986429766728125 1 1 0
158 32 3 0 0.5718834068273739 -2.4067066351238364 -2.4005925751089805 1 1 0
340 80 4 0 2.196135472921306 -2.0172702120279338 -1.950491189211638 0 1 0
338 80 2 0 1.9742164954815853 -1.639302211417022 -1.961920663918761 0 1 0
134 27 3 0 2.2852653015610325 -2.2559131786779747 -1.6514812716580636 0 0 0
398 100 2 0 2.8480351612452157 -1.5507607948976914 -2.795517642357473 -1 0 0
400 100 4 0 2.6393149087876275 -1.6443789585401607 -2.418575662915922 -1 0 0
289 63 4 0 4.032772705452412 -1.7728427405132612 -2.734379023434288 0 0 0
113 23 3 0 4.390144404001599 -1.8798117394353164 -2.58168830904747 -2 0 1
659 187 2 0 1.0481868992686383 -0.9512883479200968 -1.688859118483729 0 0 0
661 187 4 0 0.7170255775570327 -0.6810536044185255 -1.5323695671334694 0 0 0
660 187 4 0 1.3821661984213933 -1.233900828282938 -1.8276671614655213 0 0 0
339 80 4 0 1.7495132126833428 -1.2589220496877789 -1.976263484223368 0 1 0
15 3 3 0 2.3038413434647067 -0.19156566605205338 -2.209133300637549 -1 0 0
653 185 2 0 2.3133426681521176 -0.582767004917231 -2.90429163357558 0 0 1
655 185 4 0 2.1638980403580677 -0.2863253495125342 -2.588644421440293 0 0 1
463 121 4 0 4.486045749945411 -4.190110686939173 -4.102994927116747 0 0 0
320 74 2 0 0.7246025692335426 -4.0755651577634335 -1.3839616555232572 0 -1 0
25 5 3 0 0.14796157306802427 -3.7841794871081014 -0.29987417291634244 0 0 0
322 74 4 0 0.6596798091255103 -3.6991309939389585 -1.102220636640532 0 -1 0
21 5 1 0 0.4949912531754157 -3.4864298883515463 -0.3558192161538634 0 0 0
22 5 3 0 0.575592717880033 -3.4356474167641147 -0.7865747911954156 0 0 0
24 5 3 0 0.39049278400551335 -3.0988863225809746 -0.1822321052379826 0 0 0
405 102 4 0 0.1900607704576497 -4.183014613653361 -0.42769065875674 0 0 0