LAMMPS data file via write_data, version 19 Nov 2024, timestep = 100000, units = lj

736 atoms
4 atom types
524 bonds
1 bond types
462 angles
2 angle types

-4.641584 4.641584 xlo xhi
-4.641584 4.641584 ylo yhi
-4.641584 4.641584 zlo zhi

Masses

1 1
2 1
3 0.1
4 0.1

Bond Coeffs # harmonic/omp

1 100 0.45

Angle Coeffs # harmonic/omp

1 100 180
2 100 109.471

Atoms # full

3 1 3 0 -3.4377850804121266 -3.3372904600525124 -3.282612155670248 0 0 0
263 55 2 0 -3.0061538908575156 -3.931043959682807 -3.2118888493438096 0 0 0
264 55 4 0 -2.791526639575182 -4.301481135045472 -3.3544581435341585 0 0 0
296 66 2 0 -2.0412193617274896 -4.15798504018392 -3.6856391183740342 0 0 0
298 66 4 0 -2.501684170435122 -4.197829248784903 -3.658411924365683 0 0 0
297 66 4 0 -1.569028248288777 -4.126400508978137 -3.7146838476903015 0 0 0
25 5 3 0 -1.3789984022728135 -3.8509802406040254 -3.923020963397047 0 0 0
22 5 3 0 -0.761020661832523 -4.050661913768819 -3.596279771653903 0 0 0
21 5 1 0 -0.9993652010374436 -3.7110346259686815 -3.789499000093409 0 0 0
24 5 3 0 -0.764490948796719 -3.555534905664697 -4.139677555769124 0 0 0
23 5 3 0 -1.0508011250444975 -3.3800310103034756 -3.49194459398029 0 0 0
427 109 4 0 -0.8149400759072564 -3.200463271874874 -4.3251865443243505 0 1 0
270 57 4 0 -0.6132770111995904 -3.9541783474322876 -3.2201081524931707 0 0 0
269 57 2 0 -0.4126265333553027 -4.362790151262095 -3.1501737519330053 0 0 0
2 1 3 0 -3.7935642291530267 -2.6975849566732926 -3.4600103624166265 0 0 0
1 1 1 0 -3.708337767614754 -3.012879934443014 -3.1343070505480357 0 0 0
288 63 4 0 -1.5885157044262248 -2.23749319222499 -3.653554854580225 0 0 0
340 80 4 0 -2.1161122345124204 -1.7673214414770153 -4.094991654878812 0 0 1
33 7 3 0 -1.9380892816972561 -2.0330358162127284 -4.359288557792188 0 0 1
287 63 2 0 -1.3946321084671507 -2.632991034486164 -3.5454511103847364 0 0 0
289 63 4 0 -1.2030543783171268 -3.0177464003128276 -3.4434005531972622 0 0 0
425 109 2 0 -0.9376066544555727 -2.840891582117567 -4.550400592664514 0 1 0
41 9 1 0 -2.25552668987596 -0.22954877720174058 -4.372363739476033 0 0 1
45 9 3 0 -2.3234160470194505 -0.6050640377867449 -4.1236188753008545 0 0 1
339 80 4 0 -2.029747409346778 -0.881104600423712 -4.098784783508306 0 0 1
338 80 2 0 -2.0725649261227113 -1.3132229692154713 -4.095675193913426 0 0 1
44 9 3 0 -1.8629792614642262 -0.020552373815912288 -4.241799433426629 0 0 1
255 52 4 0 -0.6859133891685364 -0.2722373205191668 -4.060279218049202 0 0 0
254 52 2 0 -1.088417499562545 -0.2204834630147862 -4.2020717800476755 0 0 0
256 52 4 0 -1.5092892050783175 -0.15893151013176032 -4.340561283330926 0 0 0
621 174 4 0 -0.06021992525457759 -1.0173564655227685 -3.2937481583914487 0 0 0
307 69 4 0 -0.43816942786676305 -1.05988415920717 -3.1937387913754844 0 0 0
391 97 4 0 -0.3333023491410668 -0.07525086781413787 -4.002027387146499 0 0 0
265 55 4 0 -3.214825444198535 -3.5940226495774357 -3.0729440588899033 0 0 0
312 71 4 0 -1.4392744975562657 -3.322977301571427 -1.526213238977152 0 0 0
253 51 4 0 -1.4679855843801366 -3.6905784252514895 -1.615762314345588 0 0 0
274 58 4 0 -4.508439318467476 -3.2669406962714636 -2.821314126597413 0 0 0
5 1 3 0 -4.109398594857859 -3.2052981476710634 -2.9905644545716576 0 0 0
4 1 3 0 -3.510776741946114 -2.8184531185811927 -2.786314598287161 0 0 0
519 140 4 0 -3.520940225817809 -2.614825905349095 -2.454959705484876 0 0 0
518 140 2 0 -3.280978515237474 -2.588549575091134 -2.0807508229773934 0 0 0
522 141 4 0 -4.376289531132274 -2.179660969391109 -1.7444872746271558 1 0 0
311 71 2 0 -1.6142871524561986 -3.0563190080433342 -1.8712098518200306 0 0 0
257 53 2 0 -1.9776314780426916 -2.0556935594585304 -2.4616309293234067 0 0 0
258 53 4 0 -1.945239578409236 -1.6312053166461828 -2.6525359030599915 0 0 0
259 53 4 0 -2.0061374832634313 -2.4797609258625877 -2.267550674223696 0 0 0
313 71 4 0 -1.7789161581571515 -2.7913065511908286 -2.2045613596335634 0 0 0
520 140 4 0 -3.039934132094388 -2.5651045671909984 -1.694078281763329 0 0 0
300 67 4 0 -1.820924717252295 -1.2581308318919313 -2.7204453016384558 0 0 0
314 72 2 0 -2.919103892881637 -0.33348944534037867 -1.9933633129320294 0 0 0
315 72 4 0 -2.8339760002650274 -0.6394056308453279 -2.334602630426431 0 0 0
301 67 4 0 -2.4303109231027777 -0.6365447285658192 -2.461217945660086 0 0 0
299 67 2 0 -2.134873662987105 -0.9508235930830999 -2.5858842882600688 0 0 0
316 72 4 0 -3.0093002177507278 -0.021671764792525167 -1.6524051130357391 0 0 0
306 69 4 0 -0.8900398211365448 -0.3343966208853352 -2.9536933633748848 0 0 0
305 69 2 0 -0.670786145438225 -0.6937337372719776 -3.0691972608985587 0 0 0
411 104 4 0 -3.1960922892765824 -4.547073967773828 -0.8055280234872102 0 1 0
280 60 4 0 -3.6870989483947043 -3.3558510453846244 -0.8284700691419383 0 0 0
278 60 2 0 -3.4101905157879453 -3.7544729529042473 -0.838841131302841 0 0 0
279 60 4 0 -3.16024769073237 -4.123346463805243 -0.8388436228914334 0 0 0
251 51 2 0 -1.1171164551785202 -3.9214024251232757 -1.431011249814495 0 0 0
146 30 1 0 -0.098715713142303 -4.123103138711315 -0.8591854745369507 0 0 0
252 51 4 0 -0.7981152591039307 -4.139660308564316 -1.2641996002460474 0 0 0
150 30 3 0 -0.46875076328780263 -4.173330253814492 -1.0826916695915667 0 0 0
149 30 3 0 -0.19744613498992616 -4.100711490022748 -0.4128242205753592 0 0 0
295 65 4 0 -3.685451557713647 -2.942090078329292 -0.8910694141306925 0 0 0
294 65 4 0 -4.16449052295684 -2.4076153125215036 -1.4743894511465292 0 0 0
293 65 2 0 -3.9264776861240622 -2.672534325677229 -1.1805101599356407 0 0 0
260 54 2 0 -2.7897467632742217 -2.6731447780067303 -1.0326257158596677 0 0 0
261 54 4 0 -3.0356457854021537 -2.844196465550047 -1.435721071238988 0 0 0
262 54 4 0 -2.5773965024883077 -2.5213382798893385 -0.6638509931478468 0 0 0
267 56 4 0 -2.447929605528763 -2.232772983620072 -0.39540845031569344 0 0 0
266 56 2 0 -2.3432238290858907 -1.94000769490444 -0.09469629498305698 0 0 0
381 94 4 0 -4.1655055522872715 -0.7687926587731345 -0.6948707386159425 0 0 0
382 94 4 0 -3.4994003605460824 -0.55552962601714 -0.09521992720327825 0 0 0
556 152 4 0 -4.191706637348648 -1.1172203899633928 -0.8662572684912763 1 0 0
380 94 2 0 -3.82303563400816 -0.6619441576669629 -0.38720568910470676 0 0 0
12 3 3 0 -3.262220935392753 -0.23639653289945273 -0.11106951108427555 0 0 0
14 3 3 0 -2.5291953106777436 -0.16068582772345905 -0.31329517430990755 0 0 0
554 152 2 0 -4.612001844774497 -1.3135256117793217 -0.7854429192446292 1 0 0
582 161 4 0 -0.18894527033592637 -4.116360951739178 -0.021011552493972085 0 0 0
7 2 3 0 -3.1923740325047527 -2.661966477146953 -4.587885990206029 0 0 0
74 15 3 0 -4.128347095105623 -4.104603038823348 1.3814958791714809 0 1 0
448 116 4 0 -3.885034022758033 -4.201837477034309 1.0800472654026883 0 1 0
446 116 2 0 -3.585296999926965 -4.474655014586532 0.8971325587156954 0 1 0
581 161 2 0 -0.07461697712308897 -4.134160091030734 0.4280799905723185 0 0 0
705 202 4 0 -0.3996717343697271 -1.0163342170823448 3.947102202285044 0 0 0
353 85 2 0 -0.860477790739547 -1.4898024541196908 4.154830078444717 0 0 0
704 202 2 0 -0.1981057149787803 -0.6075002134180315 3.888195821144188 0 0 0
359 87 2 0 -1.108898495722299 -4.090453571683868 1.2058430138897624 0 0 0
360 87 4 0 -1.2851253665723659 -4.383271237597527 0.9167244436323823 0 0 0
361 87 4 0 -0.9260157969882735 -3.772897514678072 1.5112921551418863 0 0 0
268 56 4 0 -2.2226692721041617 -1.6165715497346067 0.22754173419322354 0 0 0
326 76 2 0 -1.8084374111200796 -2.7092299118189387 1.4101730815720084 0 0 0
457 119 4 0 -2.371484242724506 -1.5161124315215213 0.5827834491027104 0 0 0
328 76 4 0 -1.5151664235749362 -2.503970732381641 1.1259074521455543 0 0 0
362 88 2 0 -1.1812706376452422 -1.762186754340645 1.2655727332101503 0 0 0
363 88 4 0 -1.2921482766004517 -2.1852296830512965 1.1633958102965287 0 0 0
286 62 4 0 -3.8243071294077433 -1.316277789475703 0.7991267976836711 0 0 0
284 62 2 0 -4.289223190295418 -1.4170825486771494 0.6809614708530033 0 0 0
368 90 2 0 -4.067604353249175 -0.09239312519105078 1.5107439313108628 0 0 0
355 85 4 0 -0.5164139926791825 -1.4035100405023535 3.910320869414431 0 0 0
47 10 3 0 -3.7402450391146567 -0.796859775271257 1.4973921813690216 0 0 0
456 119 4 0 -2.709745802526511 -0.649991317919536 0.7071730831713526 0 0 0
455 119 2 0 -2.5509268500024067 -1.060913077062178 0.6436463079920934 0 0 0
13 3 3 0 -2.7091256344531858 -0.5203015762841475 0.3244345645160213 0 0 0
11 3 1 0 -2.8236821654695947 -0.17473044805944454 0.04558609866274905 0 0 0
364 88 4 0 -1.0676989603075424 -1.322572489328875 1.3682805778030716 0 0 0
385 95 4 0 -1.0859003012915094 -0.9164361280669864 1.335786828754245 0 0 0
71 15 1 0 -4.464574049478578 -3.9027155826680713 1.63865662326064 0 1 0
706 202 4 0 -0.0006794289905274936 -0.20892779066405937 3.8346431582573035 0 0 0
594 165 4 0 -4.363119355558415 -4.259622511455128 2.374142609714703 1 0 0
39 8 3 0 -3.0468091440976233 -3.449957003468189 1.718535418858151 0 0 0
378 93 4 0 -4.480479162567991 -3.241774984076772 1.9407877804694234 0 0 0
75 15 3 0 -4.416801471123116 -4.01026386148296 2.0660607185430293 0 1 0
72 15 3 0 -4.435808229917782 -3.458618739580377 1.600769470008942 0 1 0
37 8 3 0 -2.7709668552635573 -3.307480468344631 2.3629423179368927 0 0 0
36 8 1 0 -2.7911521052222863 -3.1795686463796926 1.9350886120792261 0 0 0
348 83 4 0 -1.0728919589498842 -3.432989523521897 1.6507523319519326 0 0 0
347 83 2 0 -1.0970428058033705 -3.3610084883274807 2.088432426947215 0 0 0
349 83 4 0 -1.1176397626087637 -3.294239737317516 2.50384884961419 0 0 0
610 170 4 0 -1.0322726796246398 -3.516530550937734 2.84337618569958 0 0 0
374 92 2 0 -3.397130099828509 -2.1447891092745426 2.016384278462169 0 0 0
375 92 4 0 -3.65437012424221 -1.807257469909584 1.8822063577392751 0 0 0
38 8 3 0 -2.397484439263054 -3.1726211568765934 1.7741644153745548 0 0 0
327 76 4 0 -2.0972329393941673 -2.9135083606042875 1.6836672456566213 0 0 0
376 92 4 0 -3.133737453474903 -2.4853649433579643 2.1663633286053394 0 0 0
40 8 3 0 -2.9772323033410566 -2.732830222283013 1.9037306724770344 0 0 0
369 90 4 0 -3.8069140668700743 -0.41542116788689515 1.6401509500405804 0 0 0
329 77 2 0 -3.603005132254791 -1.238836573935303 2.88627012105995 0 0 0
331 77 4 0 -3.486214123839251 -0.9186533225960213 2.5932005978533277 0 0 0
48 10 3 0 -3.5783706219867697 -0.8364429768706785 2.2147251244462534 0 0 0
46 10 1 0 -3.4758299525575724 -0.9847683665856467 1.7875854118043344 0 0 0
49 10 3 0 -3.5225206838834264 -1.4428146217361493 1.7667752551237628 0 0 0
50 10 3 0 -3.0793003431071786 -0.8904034677752574 1.6962855234787795 0 0 0
366 89 4 0 -2.8334618796782682 -1.0809631828568378 1.9415820401010149 0 0 0
367 89 4 0 -2.078671222822103 -1.0903931694140099 2.480193887748593 0 0 0
365 89 2 0 -2.466449838165865 -1.0864087349971838 2.2106544325694264 0 0 0
30 6 3 0 -1.7444145222667073 -1.2533558432405665 2.620727949149934 0 0 0
575 159 2 0 -0.4089025790736411 -1.45875927165065 2.997800037875936 0 0 0
383 95 2 0 -1.2142070551217448 -0.6676608745091773 1.6984923847849964 0 0 0
384 95 4 0 -1.3376861631045993 -0.4228518376000096 2.0518877140360994 0 0 0
29 6 3 0 -1.3707918785059627 -0.641071522725991 2.420128755649858 0 0 0
26 6 1 0 -1.4954051193465132 -0.9384019140564676 2.769799650800175 0 0 0
576 159 4 0 -0.8489806115227576 -1.3972344074440817 2.892687911290473 0 0 0
27 6 3 0 -1.133247168702343 -1.10664458284513 2.95084619205261 0 0 0
336 79 4 0 -3.085377094270594 -4.6146545551406914 3.997220783112454 0 0 0
335 79 2 0 -3.0505047810306407 -4.187574855063314 4.167118414684557 0 0 0
10 2 3 0 -3.1635287645632353 -3.3988463592868365 4.442776468179598 0 0 -1
536 146 2 0 -4.409956268458724 -3.2847693696356632 4.416475881210271 1 0 -1
337 79 4 0 -3.007165740390115 -3.771370563591198 4.337698788374446 0 0 0
325 75 4 0 -1.9550727951616347 -3.598502236898704 4.4030699728526885 0 0 0
323 75 2 0 -1.6191742485492802 -3.8152904525887203 4.2196118716757445 0 0 0
608 170 2 0 -0.672601631504902 -3.6920510033440035 3.041897460144467 0 0 0
324 75 4 0 -1.2864308352430012 -4.031405941390086 4.034616107848963 0 0 0
373 91 4 0 -1.2469232762265599 -4.436313959392952 3.967190450454064 0 0 0
371 91 2 0 -0.7997963709919138 -4.583437858298523 3.923181292921354 0 0 0
609 170 4 0 -0.3060930243813323 -3.8809742196739 3.241803246610278 0 0 0
6 2 1 0 -3.30223905536224 -2.957991756847337 4.335154811057944 0 0 -1
8 2 3 0 -3.741199303931192 -2.9632249262717103 4.269550836525825 0 0 -1
330 77 4 0 -3.7229987414882335 -1.559623225524305 3.177017846130847 0 0 0
9 2 3 0 -3.100986974044319 -2.8268887121872885 3.9689408815171383 0 0 -1
537 146 4 0 -4.0557610664646395 -3.145379350472993 4.147224181677177 1 0 -1
358 86 4 0 -3.7786489227579563 -1.9304506707862708 3.298737257844974 0 0 0
357 86 4 0 -3.2076532846920656 -2.5004224111894797 3.7388896841061716 0 0 0
356 86 2 0 -3.487479250447438 -2.2193555092159527 3.520352915727195 0 0 0
43 9 3 0 -2.2272119239404624 -0.3543101050693279 4.4856532588907525 0 0 0
32 7 3 0 -2.117312001062341 -2.2775042019780543 4.2521948174848125 0 0 0
31 7 1 0 -1.7812856251843079 -2.1359620012476643 4.5152970572019875 0 0 0
34 7 3 0 -1.4577067611119123 -2.467703147409787 4.542934647655081 0 0 0
354 85 4 0 -1.2435988809740002 -1.5799684857649225 4.415449281528976 0 0 0
426 109 4 0 -1.0514779377131374 -2.4955697431072856 4.528511614706897 0 1 -1
35 7 3 0 -1.5997368112746981 -1.7749002565784426 4.327986299380169 0 0 0
28 6 3 0 -1.7235137958119953 -0.7072154642440266 3.0777062006038696 0 0 0
346 82 4 0 -1.9240043469527204 -0.3855801998901551 4.204045625134255 0 0 0
345 82 4 0 -1.6313903155626472 -0.40177722235875063 3.341251818012353 0 0 0
344 82 2 0 -1.776917467010253 -0.38954142432546124 3.783434111190495 0 0 0
342 81 4 0 -4.579793384738467 1.016289097351877 -4.216676591431647 0 0 1
429 110 4 0 -2.779625219060367 0.430040928859012 -4.359461184513826 0 0 0
42 9 3 0 -2.603829556471627 0.04990759993825934 -4.317189166419517 0 0 1
413 105 2 0 -2.16685936287078 1.3531355934947453 -4.336532408930824 0 0 0
414 105 4 0 -2.333053804121386 1.5570842085241194 -3.927383158197394 0 0 0
483 128 4 0 -0.9023281765746652 1.2547071778736776 -3.221383614177542 0 0 1
283 61 4 0 -0.9527622442324182 0.8891436653291434 -3.343118022924357 0 0 0
482 128 2 0 -1.239865933891117 1.5235082832774283 -3.1802990072204835 0 0 1
105 21 3 0 -4.372718826803002 1.9311292207856046 -4.4787696581293215 0 0 1
206 42 1 0 -3.5139538796723078 2.863231963835795 -3.524558171086715 1 0 0
209 42 3 0 -3.6068893520494765 2.7513578619469747 -3.9668214642659807 1 0 0
208 42 3 0 -3.44789463810081 2.4867429451709 -3.282197605332268 1 0 0
471 124 4 0 -3.2772230398354423 2.2373983732557448 -3.530072234296326 0 0 1
472 124 4 0 -2.697972816299017 1.6849383432102334 -3.9387073092429663 0 0 1
470 124 2 0 -2.9833694538594595 1.9571401287157917 -3.7404738752718916 0 0 1
422 108 2 0 -1.1014825605744691 2.644458179577996 -4.616127942873176 0 0 0
424 108 4 0 -0.7257971157290689 2.6105456022094 -4.399672113692317 0 0 0
400 100 4 0 -0.3429636549789887 2.7420039960129046 -4.320271451420814 0 0 0
398 100 2 0 -0.10799922047971441 2.9699320053852163 -4.016941577862803 0 0 0
210 42 3 0 -3.1504907169534726 3.1280965490827324 -3.50806198093138 1 0 0
679 193 4 0 -2.8265745897418073 3.284434869347177 -3.6446225134368357 1 0 0
677 193 2 0 -2.580654906817166 3.309473205487821 -4.032556356994634 1 0 0
678 193 4 0 -2.3411751985797613 3.344494446279911 -4.41416935153707 1 0 0
458 120 2 0 -1.4068436479140365 3.306292861402021 -0.03252548982401201 0 0 0
271 57 4 0 -0.22988213433994562 4.523048087013476 -3.0871298675231422 0 -1 0
64 13 3 0 -3.2141921546987358 0.2754570996992514 -1.4275266726891034 0 0 0
65 13 3 0 -3.8348723280768358 0.3180794014622962 -1.847552183282169 0 0 0
442 114 4 0 -4.364786409626892 1.2661220466888918 -2.4780677165304676 0 0 0
144 29 3 0 -4.639018416379347 0.9799988320572912 -2.59652291884599 1 0 0
440 114 2 0 -3.90262194747286 1.3224424546807316 -2.4398507565671275 0 0 0
441 114 4 0 -3.4573428383406375 1.3744042498971454 -2.401635848918925 0 0 0
281 61 2 0 -0.8382940374118418 0.45727802447742194 -3.187227231361275 0 0 0
202 41 3 0 -1.3657676619144967 0.6585997116855455 -1.6549747230710963 0 0 0
282 61 4 0 -0.7352033222470624 0.033556750333390103 -3.0311631762076963 0 0 0
409 103 4 0 -0.4481153494197414 0.9371367783781255 -1.6127388136075271 0 0 0
207 42 3 0 -3.875072776460817 3.105944418787984 -3.349988844440208 1 0 0
397 99 4 0 -3.3306478069085617 1.6836048979131522 -2.1962413999633736 0 0 0
484 128 4 0 -1.5945689609116855 1.80559451812709 -3.1474158192885855 0 0 1
395 99 2 0 -3.0728957779688266 1.9864801300428776 -2.0193498149728386 0 0 0
396 99 4 0 -2.786222888249305 2.315348430925352 -1.8365691402802575 0 0 0
439 113 4 0 -1.5953332900966528 2.8514654851666372 -2.3065323746164967 0 0 0
401 101 2 0 -2.2779909203161646 2.7654681817263485 -2.047432572196921 0 0 0
403 101 4 0 -1.8465419489464123 2.9249742277431574 -2.0056671890502704 0 0 0
402 101 4 0 -2.687113130692345 2.6233974371676836 -2.0762724100673524 0 0 0
437 113 2 0 -1.1513707715732078 2.8090930082938224 -2.400399066871861 0 0 0
438 113 4 0 -0.7008521231917157 2.7496772977415596 -2.499719498800603 0 0 0
435 112 4 0 -4.170140391489224 3.0728591874979267 -3.092958577418777 0 0 0
434 112 2 0 -4.446544042369144 3.1727483401079923 -2.721963628537743 0 0 0
544 148 4 0 -0.14194018934471378 4.307923845051567 -3.410158713267138 0 -1 0
656 186 2 0 -0.25434357881718894 3.4774863039324293 -1.5281879309325048 0 0 0
62 13 3 0 -3.8936464080417283 0.15151734689261273 -1.0936406112657815 0 0 0
631 177 4 0 -4.285826243830363 0.07505992394187463 -1.0630393920305174 1 0 0
61 13 1 0 -3.6586204438972243 0.4006226386214538 -1.4222721227935433 0 0 0
63 13 3 0 -3.6858620418707906 0.835464357535333 -1.334776386548838 0 0 0
417 106 4 0 -3.7139414606980967 1.0153575030846729 -0.9693003030040994 0 0 0
416 106 2 0 -3.3981156985960665 1.2133687579879984 -0.7199151568550183 0 0 0
302 68 2 0 -1.9302014796527662 0.25052279064834826 -0.6596003511541133 0 0 0
303 68 4 0 -2.326116721707614 0.16639792098976205 -0.4029012793978849 0 0 0
304 68 4 0 -1.557871007601023 0.33117192828188685 -0.9025083259457924 0 0 0
418 106 4 0 -3.0921743415598573 1.4092054422769242 -0.4632138456567976 0 0 0
406 102 4 0 -1.8398439211954725 1.5898395015667552 -0.21163519001017134 0 0 0
404 102 2 0 -1.5523869416949636 1.487392236061711 -0.567495935190951 0 0 0
205 41 3 0 -1.179214249700962 0.2825691396693282 -1.0363223741973238 0 0 0
407 103 2 0 -0.2648353486122519 1.2998382082177085 -1.463021816237926 0 0 0
405 102 4 0 -1.2858699431235867 1.398203900542369 -0.9116866347529575 0 0 0
204 41 3 0 -1.2831250122382856 1.01227870879779 -0.9991802834834883 0 0 0
201 41 1 0 -1.1294816872393556 0.6726843467489921 -1.2618723000756256 0 0 0
203 41 3 0 -0.690532730960405 0.742173380765179 -1.3479435556207076 0 0 0
643 181 4 0 -4.44814717901669 1.752910161658251 -1.2620384249440937 1 0 0
444 115 4 0 -4.165388511327706 1.8376003365259013 -0.9828591724882229 0 0 0
443 115 2 0 -4.050235324936387 2.2813309052699378 -1.0006611776609269 0 0 0
445 115 4 0 -3.946797409199866 2.719525404855328 -1.01782139972354 0 0 0
432 111 4 0 -2.935324282988534 1.773835467991284 -0.3523971596687202 0 0 0
431 111 2 0 -2.536579182448946 1.735475387618656 -0.1396644857744291 0 0 0
542 148 2 0 -0.0327948013681834 3.866087520705835 -3.3956992124082426 0 -1 0
408 103 4 0 -0.08654896573328315 1.6745407372268122 -1.3112121824638636 0 0 0
681 194 4 0 -0.787990617366119 2.8778757486361854 -0.19424949934195065 0 0 0
657 186 4 0 -0.5673550057854465 3.6306658231145708 -1.252197999766077 0 0 0
387 96 4 0 -0.021904628310099747 1.7821252371182505 -0.9313758057164909 0 0 0
412 104 4 0 -3.7687479035908455 4.0740404533643355 -0.5316907586156578 0 0 0
66 14 1 0 -4.239067609386713 3.461634687415514 -0.8429271167945859 0 0 0
67 14 3 0 -4.014265486439625 3.7537698018921755 -0.5148775488388364 0 0 0
70 14 3 0 -3.943381204783476 3.129903498133043 -0.9905668363474003 0 0 0
68 14 3 0 -4.589087363174975 3.2716809443607477 -0.6499963071950844 0 0 0
69 14 3 0 -4.371176708768559 3.713288333069091 -1.19335543145121 0 0 0
410 104 2 0 -3.4836710732429452 4.396011666002836 -0.6632090011829087 0 0 0
597 166 4 0 -0.5373617325205932 3.8201579556767427 -0.8789711256435843 0 -1 0
460 120 4 0 -1.0090532976303774 3.1851974035146213 -0.2437133281831338 0 0 0
596 166 2 0 -0.4732932483810824 3.8543400234862744 -0.4355884516166629 0 -1 0
370 90 4 0 -4.322621626894925 0.23514265159548653 1.3825656977847427 0 0 0
15 3 3 0 -2.7927280661750533 0.19653134483003032 0.25910868819250865 0 0 0
241 49 1 0 -4.00743546123317 2.8902620635256637 1.418944510181346 1 0 0
244 49 3 0 -4.337723967500077 2.756566630349088 1.1569057505336877 1 0 0
243 49 3 0 -3.64240024273641 2.566668586654969 1.3988139364808418 1 0 0
372 91 4 0 -0.3343993003993186 4.546518506542332 3.8929052928061694 0 -1 0
485 129 2 0 -2.8503500323018742 2.2008061896586213 1.0025938292863392 0 0 0
466 122 4 0 -2.7248448989582332 2.539778008067774 0.28616573429904796 0 0 0
486 129 4 0 -2.9428840464394903 2.4498697038207915 0.6379835851240001 0 0 0
464 122 2 0 -2.3946349341298303 2.8179637421525485 0.22442711984789418 0 0 0
109 22 3 0 -1.8412483541658715 2.9247408098401113 1.375295670861109 0 0 0
487 129 4 0 -2.7503157809904497 1.9533617102575154 1.3681166918901542 0 0 0
465 122 4 0 -2.051829614598833 3.1194895127087396 0.15919956256286683 0 0 0
421 107 4 0 -1.4899962828990356 2.7295870583788875 1.3470731470966575 0 0 0
682 194 4 0 -0.10832023957972507 2.4016684047882713 0.1991247468063475 0 0 0
447 116 4 0 -3.2907028409572514 4.522858066204215 0.7090544341441629 0 0 0
492 131 4 0 -3.02170028704721 4.240715293500664 0.8756800844842375 0 0 0
245 49 3 0 -3.8680588047507976 3.2615557659467576 1.2920614833289934 1 0 0
491 131 2 0 -2.815010162642942 3.8365897328094003 0.8403791851447181 0 0 0
108 22 3 0 -2.404590480909498 3.3341067496524985 1.1058055244416252 0 0 0
107 22 3 0 -1.8685515577214513 3.6297949672159455 1.54226079784764 0 0 0
493 131 4 0 -2.607636336983219 3.4324498803469305 0.793804612723324 0 0 0
474 125 4 0 -1.5653342758575794 3.7602506727714915 1.285886323409619 0 0 0
106 22 1 0 -2.1117020070639914 3.2643892292336703 1.4742236440761083 0 0 0
459 120 4 0 -1.808093051523311 3.431967870429363 0.1759713175418871 0 0 0
473 125 2 0 -1.5639448340841775 4.1719880583221265 1.083952246298662 0 0 0
475 125 4 0 -1.5699795261935312 4.582259003014294 0.8778802172403767 0 0 0
319 73 4 0 -0.1883634464269035 3.7018408835343424 0.3426297913462908 0 -1 0
480 127 4 0 -3.375868986698002 1.0444046430720901 2.3727853608766964 0 0 0
479 127 2 0 -3.8182432222195075 0.9266389961589246 2.3597646860165855 0 0 0
93 19 3 0 -3.098175456164456 1.1472588873092475 2.1444756327763925 0 0 0
481 127 4 0 -4.256880249220729 0.7998193021698197 2.3495283278643813 0 0 0
94 19 3 0 -2.35299566079561 1.252630221470861 2.0708282619023 0 0 0
91 19 1 0 -2.783006802802012 1.4597461666553104 2.082242434083205 0 0 0
476 126 2 0 -0.22318920111057822 1.2363857937802545 3.111390999129938 0 0 0
477 126 4 0 -0.25231953194422685 1.4347043530791133 2.704922952941328 0 0 0
242 49 3 0 -4.169108768272576 2.9225521875428555 1.8630620184403432 1 0 0
727 209 4 0 -3.5738997292946766 2.7351889408474355 2.7163693738063546 1 0 0
697 199 4 0 -3.262260286934294 2.8013426866881828 2.477823812539064 1 0 0
725 209 2 0 -3.8042400269930576 2.5693767529866838 3.045080873603495 1 0 0
92 19 3 0 -2.8559260294906785 1.6830187876592149 1.6665672227555632 0 0 0
95 19 3 0 -2.800355288670643 1.7550245318003181 2.4170441890167007 0 0 0
462 121 4 0 -2.7230451467478973 1.6826936381292923 2.8122692298432317 0 0 0
695 199 2 0 -2.8944000564679397 2.826972376165213 2.227856889706517 1 0 0
696 199 4 0 -2.5422608327790184 2.849757187220608 1.9837637018233125 1 0 0
461 121 2 0 -2.6666672694683498 2.083905386933522 3.0587247319698845 0 0 0
419 107 2 0 -1.1172169034740187 2.7290353547030057 1.5773209325546669 0 0 0
420 107 4 0 -0.7243851744106804 2.7177484721372207 1.834901155371388 0 0 0
495 132 4 0 -0.7712672305951563 2.342580134379606 2.021707864345332 0 0 0
494 132 2 0 -0.4468052574974789 2.3056669672447723 2.357700076431127 0 0 0
496 132 4 0 -0.13199691941626918 2.2728553603507797 2.6789394815762355 0 0 0
79 16 3 0 -0.004467509303742137 2.6336443044281315 2.80878060167398 0 0 0
110 22 3 0 -2.3451146691276623 3.166594365601123 1.8386726776341802 0 0 0
450 117 4 0 -0.08803101448287234 4.249580350232794 3.87263157297195 0 0 0
247 50 3 0 -3.747089711473548 0.6838636609721473 3.446076191479186 1 0 0
732 211 4 0 -4.360479643596974 1.2827584549639057 3.6288439100069563 1 0 0
249 50 3 0 -4.188011023166393 1.0460158904189554 3.8899281164979325 1 0 0
246 50 1 0 -3.9581849785768966 0.6680166547956445 3.8309061358692245 1 0 0
248 50 3 0 -3.6664111723310255 0.6056610699865344 4.170078906968114 1 0 0
250 50 3 0 -4.230740314111571 0.31060900333078256 3.829530867321632 1 0 0
430 110 4 0 -3.376334166406881 0.7848361468350967 4.359630583933662 0 0 -1
322 74 4 0 -4.40692328763331 0.030908242500220177 3.5927387205477697 0 0 0
428 110 2 0 -3.0859965970830086 0.6143697134088735 4.631708498458766 0 0 -1
51 11 1 0 -1.7915005507570094 1.0704719208494415 3.9762679207966505 0 0 -1
54 11 3 0 -1.5991029745558811 0.7881801675319258 3.6761951587854957 0 0 -1
53 11 3 0 -2.183523246877321 1.1636516957629026 3.85479231230746 0 0 -1
55 11 3 0 -1.7962370993633474 0.8702753244507131 4.390613283552346 0 0 -1
415 105 4 0 -2.017334012323856 1.161940430237901 4.561428182766318 0 0 -1
84 17 3 0 -0.08590209129701032 0.9351396599633582 3.87556081725763 0 0 0
82 17 3 0 -0.16421276022263084 0.5106681994306256 4.4746215885054665 0 0 0
478 126 4 0 -0.18995656042750597 1.0292580556275766 3.5121548227067834 0 0 0
731 211 2 0 -4.301220949536306 1.7174287104055623 3.6568287836967928 1 0 0
733 211 4 0 -4.242092021690167 2.1670196170215816 3.6905939045541842 1 0 0
726 209 4 0 -4.049856241480728 2.388264823032345 3.4054870659807372 1 0 0
52 11 3 0 -1.5378441584983003 1.4601928856925115 4.003909129152281 0 0 -1
463 121 4 0 -2.615394914354113 2.463763873175997 3.2894082361978447 0 0 0
499 133 4 0 -2.57984598525378 2.835202390069488 3.199520442287017 0 0 0
468 123 4 0 -1.6439264939567995 2.9305431885218707 4.1298235584161205 0 0 0
423 108 4 0 -1.5201457352714656 2.6857062265070195 4.433319257485001 0 0 -1
89 18 3 0 -3.2895795902939446 4.31714107368089 3.840829475146423 0 0 0
90 18 3 0 -3.5787587705432813 3.6571398234391523 3.7082335022115247 0 0 0
88 18 3 0 -3.1707304249617843 3.9692547636642264 3.18819124811071 0 0 0
86 18 1 0 -3.4728583226108927 4.047503431594249 3.530904235836235 0 0 0
452 118 2 0 -4.618300915331495 4.0447592365371685 3.5423321560167724 0 0 0
87 18 3 0 -3.853343113900565 4.253426931172883 3.366708573881476 0 0 0
454 118 4 0 -4.188042161136985 4.150481543263323 3.5587393115564816 0 0 0
498 133 4 0 -3.0226449806586015 3.617371627250653 3.319740198370643 0 0 0
497 133 2 0 -2.791705714883885 3.214198330283585 3.2619659500369425 0 0 0
469 123 4 0 -2.437262299789681 3.2324651009611367 4.489758581639634 0 0 0
467 123 2 0 -2.0324117441130456 3.0807454677061976 4.306182113698565 0 0 0
720 207 4 0 -4.638881747041539 0.46518640449185245 1.409291458140396 1 0 0
225 45 3 0 -0.09562485329179167 4.530257689186579 3.5731799134387985 0 0 0
449 117 2 0 -0.023154106148264596 3.8275663225422325 4.030930080400023 0 0 0
593 165 2 0 -4.560631917550569 4.609959917283796 2.405169154746247 1 -1 0
598 166 4 0 -0.416181078578063 3.890021506813221 0.022831282314275458 0 -1 0
433 111 4 0 -2.1242783868161954 1.68627401626639 0.07607883915425517 0 0 0
680 194 2 0 -0.4449877880321958 2.6420969846142133 0.000772075852895199 0 0 0
500 134 2 0 1.0149993040923633 -3.7051704171711046 -3.391018982767037 0 0 0
502 134 4 0 1.3114039224623741 -3.536274746092924 -3.672790953078079 0 0 0
168 34 3 0 2.264678603043141 -3.363828113474582 -3.626191299242179 0 0 0
546 149 4 0 2.2121853398174145 -3.0969122920683274 -3.914386636416328 0 0 0
545 149 2 0 2.1836626938100157 -3.1417105235719616 -4.3602326038145245 0 0 0
169 34 3 0 1.5773508637505458 -3.3600939125597904 -3.3726051624733717 0 0 0
166 34 1 0 2.0251505120737168 -3.3072042376532456 -3.2686486464682107 0 0 0
19 4 3 0 3.542362431864009 -1.068716660885832 -0.95116330055084 -1 0 0
128 26 3 0 2.7947958426550543 -4.57852433557097 -4.421086817564292 0 0 0
113 23 3 0 1.3926926004609221 -2.228693078015711 -3.7974306377682914 0 0 0
114 23 3 0 1.2881246540528137 -2.3846281568739363 -3.098058325236036 0 0 0
111 23 1 0 1.2538336435652668 -2.076463282427502 -3.3813199721351386 0 0 0
541 147 4 0 1.1179576166199086 -2.529550329810934 -3.8700815565028415 0 0 0
115 23 3 0 0.7858748781299486 -1.9349134930983427 -3.4013878965926985 0 0 0
539 147 2 0 1.135988131617388 -2.6388952727372463 -4.3090651783000204 0 0 0
622 174 4 0 0.45725840923456745 -1.7388769407212763 -3.561578267104832 0 0 0
112 23 3 0 1.505696327961624 -1.7339021641607675 -3.263456246326602 0 0 0
273 58 4 0 4.1005421356039085 -2.7335278330638437 -3.113676887901294 -1 0 0
17 4 3 0 4.018660229187392 -1.6211272148352953 -0.950192216516052 -1 0 0
389 97 2 0 0.04236060171829553 -0.013082483658698203 -3.807764828023227 0 0 0
620 174 2 0 0.19389461022098745 -1.3692508875054485 -3.4225775595941372 0 0 0
508 136 4 0 1.8396088040077476 -1.5254124711293486 -3.3555185619877066 0 0 0
506 136 2 0 1.987636716160089 -1.2069196191223568 -3.678906663035201 0 0 0
507 136 4 0 2.124948003318301 -0.9072137376851936 -3.9828259842884375 0 0 0
163 33 3 0 2.264148958978291 -0.7797142100965209 -4.324193547278076 0 0 1
162 33 3 0 3.001714906029923 -0.8580831885451993 -4.572304250348797 0 0 1
560 154 2 0 3.587106634956897 -0.30689955623815124 -4.332476346715697 0 0 1
562 154 4 0 3.9669347340224563 -0.07625056460493544 -4.168216524306404 0 0 1
561 154 4 0 3.2222038637838226 -0.5291854254190411 -4.483727053255805 0 0 1
501 134 4 0 0.707291781642608 -3.8753063806532317 -3.097314621511836 0 0 0
651 184 4 0 0.9349922740965844 -4.171360743039231 -2.986581500927911 0 1 0