LAMMPS data file via write_data, version 19 Nov 2024, timestep = 10000, units = lj

20 atoms
4 atom types
14 bonds
1 bond types
11 angles
2 angle types

-1.357208 1.357208 xlo xhi
-1.357208 1.357208 ylo yhi
-1.357208 1.357208 zlo zhi

Masses

1 1
2 1
3 0.1
4 0.1

Bond Coeffs # harmonic/omp

1 100 0.45

Angle Coeffs # harmonic/omp

1 100 180
2 100 109.471

Atoms # full

16 5 4 0 -0.6063854464685721 -0.36206662168595244 0.043942780610825245 1 0 0
15 5 2 0 -0.7562514384976734 0.020131851586961996 -0.10859120348736458 1 0 0
17 5 4 0 -0.901708975034237 0.4045510537979014 -0.2622766193171341 1 0 0
13 4 4 0 -0.8676962219777351 1.1992205619731207 -0.9583583383472777 1 -1 0
11 3 4 0 -0.4924724062181569 1.1520987740776676 -1.1186402879217847 0 0 1
12 4 2 0 -1.239766939068152 1.0491006441901918 -1.1383745992013232 1 -1 0
9 3 2 0 -0.16484697233432122 0.8752244382794713 -1.264890377017754 0 0 1
19 6 4 0 0.9070801232334397 -0.6481929010411727 0.19850776581128565 0 0 0
18 6 2 0 0.9083893953166758 -1.0708679352728392 0.4112136546527629 0 0 0
2 1 3 0 0.7998369975467016 -0.14482698406491187 1.0998268653506593 0 0 0
8 2 4 0 0.8535490946266976 -0.2527872440542529 0.19433632625724503 0 0 0
6 2 2 0 0.8392406500428538 0.06471425180928608 -0.1426106754051377 0 0 0
7 2 4 0 0.8118412413532702 0.39337528158778867 -0.49336772964260944 0 0 0
14 4 4 0 1.089162162557932 0.906374968563143 -1.3344364422375297 0 -1 0
1 1 1 0 0.6507469873869706 0.2626250505173381 0.9283009458521118 0 0 0
3 1 3 0 0.6965864620076568 0.25707801168072725 0.47533359865519503 0 0 0
5 1 3 0 0.9189360621803012 0.6220221844771856 1.114477063247491 0 0 0
20 6 4 0 0.90632173083617 1.236625390245073 0.6005148216880939 0 -1 0
4 1 3 0 0.2235670699895725 0.3207178770467491 1.035318676179657 0 0 0
10 3 4 0 0.15992627744626475 0.6030422926727106 1.3019907085360551 0 0 0

Velocities

16 -0.1578625722268816 0.13787960279847833 0.1710103545021735
15 0.09607742029305207 0.0029523938663173375 -0.2067798010914827
17 0.06965795481937796 0.7278233339858409 0.5928148300103319
13 -1.1348074164851687 -0.30845030086746944 -0.09638242343536098
11 0.15464841496730677 -0.3802747023064252 -0.13261550808599254
12 -0.18026774854139818 0.4868091103828742 0.07768320090783645
9 0.016109036427107922 0.04924720230554648 0.2967369530860124
19 -0.13844354347452165 -0.2760265315087413 0.03817694540335024
18 0.043811550548092 -0.12806078614124633 0.2738497543967849
2 0.03012378159111838 0.2912698746046432 -0.5452790076027323
8 -0.20526828746151857 0.21723123020253893 1.1959420865683232
6 -0.09340177341040475 -0.10638560382340811 -0.14824884579850825
7 0.3421629924185452 -0.16735374855285645 0.8431152022353104
14 0.5525311611485937 -0.6725392363631806 -0.09077738748499312
1 0.4210749910640019 0.10512596769185197 -0.2414763361999664
3 -0.03190120597330563 -0.32734918581052497 -0.7865793439915724
5 -0.6979126587730143 -0.20391077816569508 0.1634109653444254
20 -0.9742723542796411 -0.615594567823816 -0.03939683473727282
4 -0.09842088532370336 -1.402371898179179 0.026317616104898498
10 0.42445149165545115 -0.27585230625477936 -1.4324611874531108

Bonds

1 1 15 16
2 1 15 17
3 1 12 13
4 1 12 14
5 1 9 10
6 1 9 11
7 1 18 19
8 1 18 20
9 1 6 7
10 1 6 8
11 1 1 2
12 1 1 3
13 1 1 4
14 1 1 5

Angles

1 1 16 15 17
2 1 13 12 14
3 1 10 9 11
4 1 19 18 20
5 1 7 6 8
6 2 2 1 3
7 2 2 1 4
8 2 2 1 5
9 2 3 1 4
10 2 3 1 5
11 2 4 1 5
