LAMMPS data file via write_data, version 4 Feb 2025, timestep = 4000, units = lj

64 atoms
4 atom types
48 bonds
1 bond types
56 angles
2 angle types

-2.5 2.5 xlo xhi
-2.5 2.5 ylo yhi
-2.5 2.5 zlo zhi
0 0 0 xy xz yz

Masses

1 1
2 1
3 0.1
4 0.1

Bond Coeffs # harmonic/omp

1 100 0.45

Angle Coeffs # harmonic/omp

1 100 180
2 100 109.471

Atoms # full

8 2 3 0 -2.139988409552361 -1.6710171805205851 -2.1175777946983834 -1 -1 2
29 6 3 0 -2.2307534105102245 -0.7675163770426994 -2.0868863490880543 3 1 1
26 6 1 0 -2.142234417309461 -0.7704502241767108 -1.6378291306275288 3 1 1
28 6 3 0 -1.790380543392616 -1.0642382207836834 -1.5458100739164569 3 1 1
30 6 3 0 -2.0257356077313178 -0.3562099959574514 -1.4972146713949597 3 1 1
33 7 3 0 -0.7174617650845834 -1.9438718417439065 0.4537126657251296 2 1 0
42 9 4 0 -0.3660080245929578 -1.8922411912883565 0.29761399884508766 -1 -1 0
41 9 2 0 -0.07274555069862121 -1.8048775808998654 -0.012659929402190961 -1 -1 0
7 2 3 0 -1.7994872262465123 -1.507373958091629 2.2682202300758867 -1 -1 1
10 2 3 0 -2.340146974838094 -1.995188671667384 2.279701386584148 -1 -1 1
6 2 1 0 -2.1895343437854162 -1.6181036838750433 2.4480711279477667 -1 -1 1
52 12 4 0 -0.8944116840434386 -2.387617056979763 1.339940767545471 1 0 0
32 7 3 0 -1.0637707971564934 -2.142697376647173 1.0720885486619984 2 1 0
31 7 1 0 -0.725289505893598 -1.9165364705028551 0.918205856452277 2 1 0
35 7 3 0 -0.35963518994710375 -2.0825759617677213 1.0774438754176652 2 1 0
9 2 3 0 -2.4684702710374697 -1.300611886000412 2.3860897618122205 -1 -1 1
34 7 3 0 -0.7638494901668524 -1.4836264680851767 1.0516522170818208 2 1 0
12 3 3 0 -1.9695159453770419 1.3504068824236537 2.1975203653662305 -2 -3 0
15 3 3 0 -1.9897425189611557 1.3255306137777154 1.4631805825333943 -2 -3 0
14 3 3 0 -1.4852041289742526 1.7621215284641938 1.807091063657504 -2 -3 0
11 3 1 0 -1.9165079036549737 1.59180970111389 1.822773990654393 -2 -3 0
13 3 3 0 -2.210256895036149 1.927559417073046 1.8188391765102185 -2 -3 0
50 12 2 0 -0.9838599632493805 2.1978104075265517 1.548637519922078 1 -1 0
51 12 4 0 -1.0711002378536325 1.7978801627044598 1.7539190601520147 1 -1 0
49 11 4 0 1.300661940479742 -2.3765960608061714 -1.0445174547555924 1 1 1
3 1 3 0 1.1505120068858918 -1.4832274970206147 -0.9669092673042035 1 1 0
60 15 4 0 1.4203217322681945 -1.2807836938759762 -1.1577914883492937 1 0 2
59 15 2 0 1.8677573315868532 -1.134158826748509 -1.1145868229091027 1 0 2
27 6 3 0 2.4822546218151684 -0.911759330612627 -1.4166402285864608 2 1 1
61 15 4 0 2.275402815971656 -1.0030306441851056 -1.077338782978999 1 0 2
56 14 2 0 1.2351076112176762 1.046865927842691 -0.904149835302287 1 -1 1
58 14 4 0 0.967420443051699 0.8956652421435174 -1.2156344185889412 1 -1 1
24 5 3 0 0.8178116904397918 1.3852729381641904 -2.1386558608841137 2 0 0
25 5 3 0 0.7833594136112354 1.1895329601417548 -1.421752737745786 2 0 0
21 5 1 0 0.5816012548438598 1.4341359824930988 -1.7226895370903084 2 0 0
23 5 3 0 0.15272399863494712 1.2875791150271425 -1.7822469272421628 2 0 0
47 11 2 0 1.0902895360912956 2.3748111278665345 -1.3698348324487037 1 0 1
45 10 4 0 1.1255573149374474 1.5008936404814914 -2.3769451330935363 2 1 1
48 11 4 0 0.8979507442501422 2.135396997344184 -1.6788654871380917 1 0 1
22 5 3 0 0.5799001482355197 1.867432888579799 -1.5963259032745838 2 0 0
5 1 3 0 0.5306847068078762 -1.6727528753912204 -0.6022969964307354 1 1 0
1 1 1 0 0.9627599407320009 -1.7693486884944936 -0.6638684425266483 1 1 0
2 1 3 0 1.195069570249716 -1.7453202975037307 -0.2514933103949035 1 1 0
43 9 4 0 0.23580040657386236 -1.713862993946456 -0.34409650157795646 -1 -1 0
4 1 3 0 0.9924111064082357 -2.2092890346789815 -0.8313002385034374 1 1 0
53 13 2 0 1.2967249361518949 -1.9217814004621372 0.46487149721373555 2 1 1
55 13 4 0 1.2569100885564808 -1.639709364136878 0.12774202245313493 2 1 1
54 13 4 0 1.3449550726959285 -2.2184675967279652 0.8142858442727645 2 1 1
37 8 3 0 1.202899910639843 1.3164668623753961 0.45431739729829257 1 -1 1
39 8 3 0 1.3124979815044657 1.3046117090662723 -0.2659913642675953 1 -1 1
57 14 4 0 1.5210310853705353 1.206787505799134 -0.591151276598274 1 -1 1
40 8 3 0 1.8796895285390027 1.403395893060111 0.21090173549186275 1 -1 1
38 8 3 0 1.5383970609745123 0.7526861598316459 0.16357549232730095 1 -1 1
64 16 4 0 2.0704941996719866 1.3922569151121378 0.6185826949430528 3 1 1
36 8 1 0 1.482395663651177 1.188918191908122 0.14583489803777594 1 -1 1
19 4 3 0 1.8986057504875546 -2.119295169762857 1.7938917564213401 2 1 0
16 4 1 0 1.670522465045491 -2.367516645296813 1.4776388881379203 2 1 0
18 4 3 0 1.516428948615788 -2.096887057035273 1.1510433893230965 2 1 0
44 10 2 0 1.2333459613429074 1.8312349555096255 2.2907586372188 2 1 0
20 4 3 0 1.953691401833355 2.3168393217991277 1.2946827101641434 2 0 0
62 16 2 0 1.9524516336529887 1.6688222555481271 0.9729387508675136 3 1 1
46 10 4 0 1.3208048850239722 2.148425832816871 1.991769508603154 2 1 0
17 4 3 0 1.3154314071537332 2.424204612795771 1.6924454022088167 2 0 0
63 16 4 0 1.826649245800076 1.9539243524035896 1.3322108084961553 3 1 1

Velocities

8 -1.1885332795766463 0.13164148487462285 1.3651346201049719
29 1.9482683265189573 0.29792636097935066 0.9274627818536677
26 0.7804328402563587 0.41940005398582986 0.36645809905804444
28 0.493823228908006 -0.08997646486132833 -0.0755475009340629
30 -0.7891652506552136 0.1323537985366755 0.33170393348192306
33 -0.09144933781897885 -0.7146292735866951 1.333492539152791
42 -0.5946232806135953 1.336299289396197 -1.4655059119455751
41 0.39278446222974633 0.13018857834881123 -0.20444748184723474
7 -0.129516313324763 -0.9974198049949782 0.9498069044669305
10 -0.645002191649517 0.036752196917039584 -0.12396827431517504
6 0.3166780176466121 0.2581582645593905 -0.4752489281102035
52 1.244226204034041 -1.3563133418991589 -0.42690202734443
32 0.11790660328551203 -0.42383631269576044 1.9751891095454779
31 0.3491805652575011 0.35767022733005865 -0.276748744427105
35 -0.18305101396941736 -0.3731307731272907 -0.657144990700242
9 0.6386528544267317 -0.17886137401547444 0.6749190284025327
34 -0.03459678923252185 0.18364310381532623 -0.6478116890850328
12 0.023895135174422988 -1.2429043265690374 1.219965449769493
15 0.9325717521088762 -0.7054757877585051 0.6058716143391436
14 2.6359906964468176 0.03879940598067437 0.19365543065704105
11 0.8653354893461767 -0.17717949793738128 0.052677541036467476
13 1.3611291799456362 1.2498610739390905 -1.0777914707880232
50 0.5921971130874703 0.0784571262229577 0.3675941613748872
51 0.3122191199312294 -0.941819421030922 -0.35609375171182844
49 -0.03794784664799235 0.9958510311020013 -0.12357855284391803
3 -0.8803408438483517 -0.34436070765960414 -0.04053418472442531
60 -1.1320498228627325 -0.7688975345810297 0.42289510448056394
59 0.2235774697129831 0.024890371847012045 -0.17192236950176767
27 -0.42435925087483595 -0.9991727105888064 -0.30730525326246494
61 -0.28895902905433657 0.09893535761112898 -0.10559169801582038
56 1.1101195234191152 0.20304965966249547 0.5413408022009951
58 1.0199537636449365 0.4591796475406649 -0.1769773572306498
24 0.10874776337244862 -1.2869831486051355 0.6698692106474748
25 2.4060983959609143 -0.6349342940753976 -0.9087296829090152
21 1.2312909429279029 -0.3215709949249503 0.08292844454580214
23 0.7371548911416842 -1.258543602956289 0.8379396941191564
47 1.098369720988543 0.013422132173418668 -0.07633596979454055
45 1.55277461135553 0.2353346844481204 0.8332106003244696
48 2.7788339485505054 -0.7651360927298013 0.34917777969176134
22 1.6302172294663344 0.16194685836459913 -1.25488003824361
5 -0.8483488482107061 0.03683960676936758 1.0866056578621663
1 0.46064621525767546 -0.003546190271137138 0.09881427686938608
2 1.177027783544773 0.5630718665753364 -0.13451653670968747
43 -0.08217234735389789 -0.46856967397304167 0.05390280229286408
4 0.7764832363985601 0.7144076042056859 0.49440275378903786
53 -0.2513087362373868 -0.2537912540101495 -0.20366939275945253
55 0.07959079804396113 -0.15147916747150267 -0.3257479263305106
54 0.8953361891797621 0.4306410701928596 -0.012641897710684916
37 0.4873057636333134 0.6070031650219563 0.5160641016680584
39 1.6187140351542413 0.3477019390172617 -0.03767523690566754
57 1.7064917131049553 -1.2132804377140867 -0.7869500690530095
40 0.8304234159951612 0.3193650278354597 1.4567707048264713
38 -0.09501665145186688 0.4386691924079164 -0.054633680803323245
64 1.3189214034705494 0.9050298907450599 -0.705696920345929
36 0.5486475123036021 -0.14655747517210904 0.12751256435838826
19 1.7605258106722845 -1.2186966659946727 0.28928287375105155
16 0.9217538966109694 0.11397379622762804 0.2066680149397647
18 0.3540505676052386 -0.7028356115569094 0.4377031340917612
44 1.082006552947639 -0.004537452294662353 -0.11376483486478654
20 -0.6418695807406276 0.11601185142335786 -0.1332852132310581
62 0.26919355737482065 0.06921923461459675 -0.2658994001643344
46 2.100854733389045 0.4621521198720381 -1.5013471244054268
17 -0.047964743263948506 0.6090233957676422 -0.28979580349151435
63 0.902767936592182 -0.2706515893685798 0.9629946050833308

Bonds

1 1 26 27
2 1 26 28
3 1 26 29
4 1 26 30
5 1 41 42
6 1 41 43
7 1 6 7
8 1 6 8
9 1 6 9
10 1 6 10
11 1 31 32
12 1 31 33
13 1 31 34
14 1 31 35
15 1 11 12
16 1 11 13
17 1 11 14
18 1 11 15
19 1 50 51
20 1 50 52
21 1 59 60
22 1 59 61
23 1 56 57
24 1 56 58
25 1 21 22
26 1 21 23
27 1 21 24
28 1 21 25
29 1 47 48
30 1 47 49
31 1 1 2
32 1 1 3
33 1 1 4
34 1 1 5
35 1 53 54
36 1 53 55
37 1 36 37
38 1 36 38
39 1 36 39
40 1 36 40
41 1 16 17
42 1 16 18
43 1 16 19
44 1 16 20
45 1 44 45
46 1 44 46
47 1 62 63
48 1 62 64

Angles

1 2 27 26 28
2 2 27 26 29
3 2 27 26 30
4 2 28 26 29
5 2 28 26 30
6 2 29 26 30
7 1 42 41 43
8 2 7 6 8
9 2 7 6 9
10 2 7 6 10
11 2 8 6 9
12 2 8 6 10
13 2 9 6 10
14 2 32 31 33
15 2 32 31 34
16 2 32 31 35
17 2 33 31 34
18 2 33 31 35
19 2 34 31 35
20 2 12 11 13
21 2 12 11 14
22 2 12 11 15
23 2 13 11 14
24 2 13 11 15
25 2 14 11 15
26 1 51 50 52
27 1 60 59 61
28 1 57 56 58
29 2 22 21 23
30 2 22 21 24
31 2 22 21 25
32 2 23 21 24
33 2 23 21 25
34 2 24 21 25
35 1 48 47 49
36 2 2 1 3
37 2 2 1 4
38 2 2 1 5
39 2 3 1 4
40 2 3 1 5
41 2 4 1 5
42 1 54 53 55
43 2 37 36 38
44 2 37 36 39
45 2 37 36 40
46 2 38 36 39
47 2 38 36 40
48 2 39 36 40
49 2 17 16 18
50 2 17 16 19
51 2 17 16 20
52 2 18 16 19
53 2 18 16 20
54 2 19 16 20
55 1 45 44 46
56 1 63 62 64
