LAMMPS data file via write_data, version 19 Nov 2024, timestep = 1000000, units = lj

160 atoms
4 atom types
110 bonds
1 bond types
75 angles
2 angle types

-3.758247 3.758247 xlo xhi
-3.758247 3.758247 ylo yhi
-3.758247 3.758247 zlo zhi

Masses

1 1
2 1
3 0.1
4 0.1

Bond Coeffs # harmonic/omp

1 100 0.45

Angle Coeffs # harmonic/omp

1 100 180
2 100 109.471

Atoms # full

92 28 2 0 -3.358214922923891 -2.111520391985614 -2.858809987089574 0 0 0
93 28 4 0 -3.4722287978124458 -2.027688650040276 -3.268031929645247 0 0 0
9 2 3 0 -2.60333474827658 -2.930441874715979 -2.451938423346686 0 1 1
94 28 4 0 -3.230270378975657 -2.1958842884839465 -2.4305598938547583 0 0 0
10 2 3 0 -2.8473556588855096 -2.267052592885122 -2.316839078474143 0 1 1
6 2 1 0 -2.75713525408434 -2.6600597711432052 -2.1394466552816658 0 1 1
159 50 4 0 -2.424176409742612 -3.1049760448526045 -2.7757335060048547 0 1 0
158 50 2 0 -2.144515179063458 -3.458930705503631 -2.726032644223798 0 1 0
153 48 4 0 -3.605457968716734 -1.8954404568850478 -3.6112101949366533 0 0 1
112 34 4 0 -1.4959637981958827 -3.640537581873692 -2.6376720654860257 1 0 1
54 15 4 0 -0.9160836345353714 -2.39826971263376 -0.046183489743170866 0 0 0
101 31 2 0 -0.10273629510327417 -0.12707697205487373 -3.5285573582259286 0 0 1
7 2 3 0 -3.135527415682967 -2.837674287632339 -1.9550649113461418 0 1 1
8 2 3 0 -2.428132629201277 -2.6182136924713553 -1.8075689325380637 0 1 1
2 1 3 0 -1.8349630540796793 -2.2811874568209842 -0.2909340608710379 0 0 0
68 20 2 0 -2.0567528076136172 -2.5755535761491477 -1.024789045119505 0 0 0
70 20 4 0 -2.177361045218381 -2.621367493363997 -1.461666568001188 0 0 0
69 20 4 0 -1.921546665130331 -2.534514311997531 -0.5665884548589918 0 0 0
40 10 4 0 -2.7036332697645795 -3.296371018250433 1.047213036758794 0 0 0
45 12 4 0 -3.076183788696373 -3.182764237404867 0.9615331316385621 0 0 0
38 10 2 0 -2.342882202501911 -3.0516946384220884 0.8554998324457642 0 0 0
39 10 4 0 -2.018334407656072 -2.8208550992797767 0.6845236331326089 0 0 0
44 12 2 0 -3.332145311681269 -3.3287590228684745 1.2814407575668478 0 0 0
37 9 4 0 -3.5396639065984195 -3.7328479845753066 1.90233673171931 0 0 0
46 12 4 0 -3.5977560408648053 -3.4682024216345138 1.59807259278384 0 0 0
4 1 3 0 -1.9396170920469438 -2.603530104813109 0.34503053520561633 0 0 0
55 15 4 0 -0.23925669972604532 -2.988685487614596 0.029973524103236573 0 0 0
1 1 1 0 -1.7019592017669833 -2.2905638856930417 0.12596015974402128 0 0 0
5 1 3 0 -1.2473365196768216 -2.3920131334638604 0.14399123287865748 0 0 0
99 30 4 0 -1.8274285915741926 -1.465044853579772 0.2903515391163978 0 0 0
3 1 3 0 -1.7809965014683207 -1.8876185590468115 0.3233519762447728 0 0 0
98 30 2 0 -1.61545369499974 -1.1979656762740303 0.5720781434399078 0 0 0
100 30 4 0 -1.398136498253343 -0.9216463263390237 0.868806656324877 0 0 0
90 27 4 0 -1.1144186457248995 -1.0849656132465668 1.0939726026483152 0 0 1
89 27 2 0 -0.9094874292619481 -1.3395166872527746 1.448748423446634 0 0 1
91 27 4 0 -0.7284828022068558 -1.5677320929763294 1.7588043449411974 0 0 1
152 48 2 0 -3.575518384227791 -1.6626029954618484 3.5113594501157737 0 0 0
154 48 4 0 -3.541432582679812 -1.4350027765106605 3.14016878161155 0 0 0
115 35 4 0 -3.257742568892589 -1.3166489076750936 2.9381148927476275 0 0 0
113 35 2 0 -3.0337664883266013 -0.9312995643429665 2.9297242494065587 0 0 0
114 35 4 0 -2.806403960671316 -0.5499108886204225 2.9216932549897816 0 0 0
109 33 4 0 -2.4513006747425172 -0.40783193224863384 2.829125858561968 0 -1 0
107 33 2 0 -2.0465597089984353 -0.3657915581865805 3.0445892764317066 0 -1 0
156 49 4 0 -0.4778529440597768 -0.07873106727378335 3.2345585380958615 0 0 0
102 31 4 0 -0.35327752175616184 -0.056285290739226924 3.616400144416046 0 0 0
157 49 4 0 -1.2453545426078494 -0.5208775634124123 3.119928487904201 0 0 0
127 39 4 0 -0.843465697763336 -1.344845329677713 3.0014213086829478 0 0 0
155 49 2 0 -0.86163421152405 -0.30321848870155776 3.1808334716629365 0 0 0
126 39 4 0 -0.6768653286859351 -1.6417807147287005 2.142205245466136 0 0 0
108 33 4 0 -1.6241550528320157 -0.3313108559487385 3.2567491162040145 0 -1 0
125 39 2 0 -0.7649547508194784 -1.4845405411780659 2.5916060992748786 0 0 0
97 29 4 0 -0.10809018556027837 -3.3229333315700162 0.17070896604678087 0 0 0
53 15 2 0 -0.5746981372910688 -2.690335175910489 0.003960061090652585 0 0 0
59 17 2 0 -2.0643002929315872 2.4609209787364095 -2.1951158452984387 0 0 1
52 14 4 0 -2.6992756541830327 2.3132015556279755 -1.837742849560986 0 0 1
60 17 4 0 -2.4030214027247476 2.18003032067197 -2.1075803798720893 0 0 1
61 17 4 0 -1.7242592800153602 2.7423633908432183 -2.287238439799349 0 0 1
111 34 4 0 -0.8820898053362229 3.2420997044121607 -2.95216936194286 1 -1 1
58 16 4 0 -0.7901525852527186 2.845693683369932 -3.086061680011684 -1 -1 1
56 16 2 0 -0.44598042331902804 2.685158089690403 -2.8902599710339962 -1 -1 1
49 13 4 0 -1.3631937643610275 2.586692924210573 -2.230813532778016 0 0 0
57 16 4 0 -0.06634550851730203 2.51696495142164 -2.677685518998681 -1 -1 1
47 13 2 0 -1.0449010948954218 2.7145418347692742 -1.9404372664450307 0 0 0
110 34 2 0 -1.1832180775537096 3.544058552203891 -2.8012359442983543 1 -1 1
50 14 2 0 -3.1402811805947612 2.4078556155269717 -1.8042908964264586 0 0 1
51 14 4 0 -3.609240215740327 2.498089412132161 -1.7755180200321619 0 0 1
74 22 2 0 -0.3430433584509139 2.865165051054351 -0.9488535113648989 0 0 1
75 22 4 0 -0.44106422639669757 2.7560755021648777 -1.3905163405589047 0 0 1
48 13 4 0 -0.7268762207008367 2.8424976252272236 -1.6439874209519594 0 0 0
76 22 4 0 -0.24712390900542539 2.9706374440285677 -0.5081118115076384 0 0 1
160 50 4 0 -1.8565923707552865 3.692136061986659 -2.6769101757116456 0 0 0
41 11 2 0 2.4679159535695367 -3.656209850192236 -2.103402245088043 -1 0 0
43 11 4 0 2.8968654473168653 -3.6753403028397433 -2.2726480573347345 -1 0 0
137 43 2 0 3.1809196488819276 -3.6676681912461158 -3.07966322460343 0 1 0
139 43 4 0 2.987336881497174 -3.6469451027829245 -2.661370281326462 0 1 0
103 31 4 0 0.15275949177631545 -0.20665770900126612 -3.173528232057807 0 0 1
141 44 4 0 1.6248367400195534 -0.7486370946599553 -0.071969798253746 0 0 0
29 7 2 0 1.6203403471994973 -3.349010157175124 -1.340840030905809 -1 0 0
30 7 4 0 1.3399708629023066 -3.086199267254863 -1.1155041398577952 -1 0 0
18 4 3 0 1.4779086758927487 -2.8209079793024596 -0.8443410145306681 0 0 0
16 4 1 0 1.2080492256516266 -2.455724104764532 -0.7331370198162921 0 0 0
150 47 4 0 0.8247581228671965 -2.527030417927128 -0.04777401276337488 0 0 1
19 4 3 0 1.0519040128624753 -2.51238449950446 -0.34059348101728826 0 0 0
20 4 3 0 0.8517301998675096 -2.413827415947848 -1.0477253451899238 0 0 0
17 4 3 0 1.4509888033156555 -2.092428350316618 -0.7368849242738902 0 0 0
31 7 4 0 1.9057357997388489 -3.62515957797989 -1.5721370842868443 -1 0 0
42 11 4 0 2.0532007448091325 -3.6469137469424457 -1.9341606244713054 -1 0 0
130 40 4 0 1.3928970546886015 -1.031543939165895 -0.2269942730337704 0 0 0
128 40 2 0 1.4767997589408541 -1.3824524318708582 -0.5251166608810843 0 0 0
140 44 2 0 1.6735100365014899 -0.3082012717968426 -0.14660245977479575 0 0 0
129 40 4 0 1.557882761591454 -1.7232611441737067 -0.8098445831334291 0 0 0
33 8 4 0 0.9586997753905426 -0.029369476219131874 -2.4119959281153114 0 0 1
138 43 4 0 3.3775876969375247 -3.685044472424181 -3.4733374689271175 0 1 0
95 29 2 0 0.2894428229716384 -3.5057024029680313 0.309884024751132 0 0 0
149 47 2 0 0.6956250714054919 -2.3455442326862586 0.3392225619278138 0 0 1
72 21 4 0 0.37042392757100984 -1.9998573667682336 1.03920422391097 -1 1 0
151 47 4 0 0.5676486437235759 -2.167568708749359 0.7188497020960305 0 0 1
86 26 2 0 0.33495212117047574 -0.7381997194810959 1.9389554165971914 0 0 1
73 21 4 0 0.20852583964174912 -1.5250549439367498 1.8092601412356693 -1 1 0
71 21 2 0 0.29169179797722494 -1.7688359879329298 1.4218674261235917 -1 1 0
87 26 4 0 0.41405695157191225 -1.1646526399310828 1.8657530012036503 0 0 1
88 26 4 0 0.26000617345035015 -0.32525945961449493 2.022207359928368 0 0 1
145 45 4 0 0.04179266573762396 -0.0014541993711309998 2.0560161710963647 0 0 0
96 29 4 0 0.6815116557741313 -3.684195139979452 0.4347086307370295 0 0 0
81 24 4 0 1.2169540270040962 0.11923052339026827 -2.137242964979807 0 0 1
32 8 2 0 0.6228998815304886 0.05379283911294134 -2.6890386303464937 0 0 1
122 38 2 0 3.2501580094336515 2.096768230325741 -1.5932605682435725 0 0 0
26 6 2 0 0.5890979680898522 2.4536662841260726 -2.617877478186603 -1 -1 1
27 6 4 0 0.20250533331021117 2.2811873071658777 -2.4910947218891977 -1 -1 1
28 6 4 0 1.023866146011594 2.6458357141938174 -2.759147407543066 -1 -1 1
119 37 2 0 1.17974787278646 2.903849901289406 -3.518340122155481 0 -1 1
120 37 4 0 1.1848074411503164 2.696839943697384 -3.108573574508475 0 -1 1
124 38 4 0 3.6328702026243964 2.229269288272468 -1.7702569651739297 0 0 0
80 24 2 0 1.2588946166333694 0.4783823746284708 -1.8567938967515156 0 0 1
82 24 4 0 1.298863636252248 0.8599852100890742 -1.5728772177226906 0 0 1
133 41 4 0 1.271004202188375 1.09217122591598 -1.2554448486575949 0 -1 0
131 41 2 0 1.6116548534573958 1.369389894241638 -1.0656386648417848 0 -1 0
142 44 4 0 1.7005065443822358 0.12255064503723868 -0.22016557710802065 0 0 0
132 41 4 0 1.9323778911488043 1.620525133401146 -0.896075117566703 0 -1 0
85 25 4 0 1.9337326878335819 0.3234947664144706 -0.49318224012007883 0 0 1
13 3 3 0 2.6588530853480288 1.156109603235145 -0.8864438945520146 0 0 1
84 25 4 0 2.675811194991677 0.8235554932685448 -0.6501267767366028 0 0 1
83 25 2 0 2.314294174927297 0.5757485620786411 -0.5769549190868127 0 0 1
12 3 3 0 2.2296180510115238 1.747247148211846 -0.682631098050026 0 0 1
11 3 1 0 2.6635908231824805 1.5984414128593416 -0.7264268297086831 0 0 1
14 3 3 0 2.896995303252389 1.859626497680761 -1.019655578997089 0 0 1
15 3 3 0 2.8627822589318233 1.6102770811368365 -0.3369223924244434 0 0 1
123 38 4 0 2.8647056274829135 1.9658918007390338 -1.4170690101115146 0 0 0
34 8 4 0 0.28484173633303156 0.1359034311186787 -2.9784842662431115 0 0 1
136 42 4 0 2.683408097573969 1.5538531519502812 0.019230412339621212 0 0 0
62 18 2 0 0.644162076182025 2.358437739354308 1.602366288291055 0 -1 0
63 18 4 0 0.6493855476165886 2.66492756771413 1.2776191229157685 0 -1 0
23 5 3 0 0.8221546984726417 2.8986450165143425 0.9804666285603161 0 0 0
21 5 1 0 0.9690306780501895 3.3033089935466196 0.9495824018386486 0 0 0
22 5 3 0 1.3219702937915452 3.310130662790994 0.7056500493840758 0 0 0
147 46 4 0 1.677009282720142 3.1572267675156414 0.570429516322666 0 0 0
118 36 4 0 1.4372363339216587 3.543369065386855 1.4233294100321208 0 -1 0
24 5 3 0 1.0637694346097046 3.4578703844616157 1.3530615261701024 0 0 0
25 5 3 0 0.6506637523640897 3.5666042042197166 0.769209316536749 0 0 0
146 46 2 0 1.8059640143009936 2.7274544184041742 0.4928280459733651 0 0 0
78 23 4 0 3.2762715884621 3.6990452651912573 3.6904357598614657 -1 0 0
135 42 4 0 2.251909509726366 2.1105132209009203 0.5842793875763583 0 0 0
148 46 4 0 1.9321116523943944 2.3140485702529787 0.41523968125354116 0 0 0
134 42 2 0 2.468556765721566 1.8301492282939384 0.2967986688935547 0 0 0
65 19 2 0 0.643115010066518 1.422085018135688 2.1709448012802905 -1 0 0
144 45 4 0 0.5921249736189877 0.7024299055582749 2.0604530513486616 0 0 0
143 45 2 0 0.3083950827914952 0.3433356274764294 2.057568220451323 0 0 0
66 19 4 0 0.8492461814433068 0.9818986008356064 2.1618230783293146 -1 0 0
67 19 4 0 0.4541890523819596 1.810917929441529 2.1822952636170982 -1 0 0
106 32 4 0 1.6914814719910494 3.055392938879215 2.5594879501166194 0 -1 0
64 18 4 0 0.6444114590121869 2.0455654071489495 1.9294656583540477 0 -1 0
116 36 2 0 1.6195159607938556 3.3893517979650234 1.8146151760077847 0 -1 0
104 32 2 0 1.4263997996980535 3.0048201054996193 2.8964583830994863 0 -1 0
105 32 4 0 1.153226046737986 2.949472904852179 3.237639852085896 0 -1 0
117 36 4 0 1.8017661832608542 3.232961435372241 2.1886335750533457 0 -1 0
121 37 4 0 1.1844217160461945 3.113744652355489 3.598225109112481 0 -1 0
35 9 2 0 3.62303716944411 3.6516441887656454 2.218281864962145 -1 -1 0
36 9 4 0 3.276549104705125 3.526047675923339 2.5352805913023997 -1 -1 0
79 23 4 0 3.377651739791882 3.3422333083620908 2.8703424625524927 -1 0 0
77 23 2 0 3.325650886809365 3.518515013839526 3.2750109454699046 -1 0 0

Velocities

92 0.010612409613297544 -0.1032267738584016 0.024570854284411445
93 -0.16112389982753775 -0.8644338016875293 0.32170645760210576
9 0.8024240147560229 0.6675855167668611 1.195060088464151
94 -0.2964797167982674 -0.9970372763537654 -0.10305083726913569
10 0.5742014595868259 1.1727929887559894 -0.43425998379901953
6 0.09802821159479075 0.3821561376479458 -0.20705016583676508
159 -0.6814865861921551 -0.9507025375558947 -0.10799513043938781
158 0.0023523092449456474 0.020441281783357138 0.18014653004117792
153 0.3463926344359782 -0.05378901956134389 0.35195429270257117
112 -0.09011304719783014 -0.10917175720552294 0.23237820687235558
54 0.056010242513703686 0.09041780193825462 -0.021061767973982737
101 0.02472193526789003 -0.011625783347257494 0.42126645241318433
7 0.2611312425878264 0.2424597438646655 0.11881424324508474
8 0.8600957660106617 -0.5677772685230869 -0.7062355357300997
2 -0.17197254632700787 1.2671405032319552 -0.38354787377331706
68 -0.10832169529536699 -0.0005160517716858316 -0.10439082331365646
70 1.6385582493286972 0.2857072742244643 0.6854196181950677
69 -0.9782505473453149 0.5323968019790029 1.2181306486576922
40 -0.28885809984694566 1.0975456527094343 0.5218272639502838
45 -0.08941013004687824 0.3637747087244194 0.5122263026251482
38 -0.2067957084826445 -0.11475497513076709 0.4298638203021865
39 0.3832036935274794 -0.3571661530632816 -1.6762751906229105
44 -0.26850157579502926 -0.6486643553208111 0.06378511331097282
37 -0.28848301058942183 0.20880893060422878 -0.8073652481327622
46 0.8322809605399271 -0.31056560011303863 -0.6421763367564851
4 -0.24070490512903334 0.05815951529392265 1.2424990670064604
55 0.33386348287757756 -0.6358698735695472 0.904081709002479
1 -0.024242727559576085 -0.051050611434179785 -0.22739394870108312
5 0.48570699120021327 0.1346229701456157 0.2696401811781685
99 0.19127759667684932 0.9574316650943795 -1.3351553606110158
3 1.194369829708494 0.008733704391526736 0.347933898388583
98 0.0023546278891167834 -0.05402768959707426 -0.04146769240687673
100 -0.41438132887777757 -0.09799146188036202 -1.1410037413941145
90 0.7106102534804849 -0.214158592398669 -0.3625845155546671
89 0.023355478133784788 -0.20089986875355506 0.10071584499364448
91 0.654048911197827 -0.10371692581702001 -0.9699763487679448
152 -0.010608366157937886 -0.022938433701500525 0.5398047462543261
154 -0.4547006966228422 0.5809508182837879 0.05927850631585137
115 0.07337564774017982 0.2520342062218809 0.49237180259562086
113 0.1932359948898998 0.21083432512118114 0.19912597347978228
114 -0.10601609749120204 0.3018032202709794 0.3658168090049223
109 -1.401647602405206 -0.9785583537710602 -0.25926185909197696
107 0.01995409434280672 0.11941682664137004 -0.367345284169174
156 -1.0534251676617317 1.1034154250013821 0.43334964245381885
102 0.367139701200603 -0.6546282818429092 -0.42115117156464654
157 0.8877726967164388 -0.4616923076398104 -1.5138064497531982
127 -0.07179498519909107 -0.5891525562647283 0.5985945888244163
155 0.0916382551649413 0.2155926560459356 0.027880104273405357
126 -0.6693605747102336 -0.24415648011498117 0.6338486532750692
108 -0.942219254245187 -0.15783264411696557 0.48038381844063693
125 0.08889215870791994 -0.11428711831230001 -0.032213436022793446
97 0.35718549008198797 0.614047518670623 -0.7071751483353325
53 0.23710413888189324 -0.38516610545642854 0.26835510632219084
59 0.09918722843804532 0.1321322127309485 0.05120865333062083
52 0.15994662650308883 -0.02941974274674474 -0.4363283493980387
60 -0.4546979902968866 -1.2655092843851046 1.556173990965701
61 -1.2772280673016896 0.8793060407210722 -0.25649539069957195
111 0.2776629112953088 1.0348278576329122 0.4468449360157719
58 -0.06842908792649696 -0.7472724255312875 -0.21958306711651643
56 -0.045655294782701604 -0.12837034748197973 -0.41370684171030364
49 -0.296345815683647 -0.21284044342793682 -0.7360743431881445
57 0.3798337463627334 -0.14182075850005488 -0.172784306614621
47 0.22072110355808433 0.21588778015611174 0.3665676287537545
110 -0.4101366974635762 -0.1930532088744531 0.005682534027369433
50 -0.25561130931485926 0.1896938153167922 -0.23487021342639947
51 0.4350683964528845 0.5005271705332015 0.2755426659406023
74 0.38344432107694304 0.028363423620371777 -0.17241684843305455
75 -0.10034685579640595 2.23761252497263 -0.638201878523849
48 1.739044649371358 -0.39911938154784804 -0.009589846380324923
76 -0.6225140764425952 -0.21799930350144048 0.5427964048782096
160 -0.7523218955287378 0.3956241902117039 1.2385173480460807
41 -0.03469853159738119 -0.3025865038463555 -0.09095758792918084
43 -0.17179415966377432 0.5702382756840775 0.2812701709103421
137 -0.07794405472371878 -0.15941806029026753 -0.3789670499766936
139 -0.6968428626629172 0.3074241553090314 -0.12334223672753064
103 -0.5797761045015162 0.33401198069786087 -0.7407905568978569
141 -0.12087117972114304 -0.06947145287603779 -0.41351815040844153
29 0.08475970052280506 0.09483386354484097 -0.36516345321031496
30 -0.5768593909262149 -0.03656039523045914 1.3328114691140047
18 -0.2682814281336251 0.8055052831278802 0.13387944152422016
16 -0.2777414860667142 -0.2923019887321224 0.046997397476829454
150 0.580383524714349 0.23398524552798877 -0.40776884369141553
19 0.38315688052430696 0.9480474693391618 -0.3558954728576003
20 -1.2967900133294732 -0.1676721113403175 0.8550973803264896
17 0.06380871796445764 0.552237710822981 1.9340780428083035
31 1.485174913571094 -1.097854175872725 -0.01287055328932845
42 0.006152855491575435 0.5705508124521348 -0.24762549422409874
130 -0.06405113519472154 -1.7290347532753283 -0.22670709642941417
128 0.07471739917832484 -0.10703995238487672 -0.2167446444207591
140 -0.19944912814842986 -0.17464759299210422 -0.3760405899889443
129 -0.7531528379595017 -0.20562050703066037 -0.934045995570256
33 -0.28649339863496254 -0.2798433926279393 0.012470460557263877
138 -0.5338484566039803 0.5742285546948669 0.02202969379134633
95 0.03321550447817795 0.18905085638844352 0.02116894843601918
149 0.447989850438373 0.4944795295276186 -0.09767328880188823
72 -0.09234676326354051 0.9915238192169001 -1.0494064440502233
151 0.189326426529829 -0.43586347065077147 -0.15862800177858125
86 0.10478367032341304 0.22847841712449146 -0.4058416150793122
73 -1.9234778961171264 1.2414115083077735 -0.44090116052688033
71 0.24495124266766677 -0.0691837985944389 0.1981199697863906
87 0.02153769855240865 -0.8481789202008867 0.5733126306259373
88 -0.003471258169004024 0.4040662416488706 -0.3659184699157449
145 -0.280509296600998 0.7931778906892034 0.41250330272930336
96 -0.8884662546825067 -0.20742185948553513 0.502529984858616
81 0.4432310273417678 -0.7648436017233087 0.07655458132124188
32 -0.06171620937617571 -0.14904807732113948 0.15547656364287502
122 -0.15183800352701562 -0.43447008279480653 -0.07300634466775213
26 0.039396350614340214 0.18179137081292374 -0.26380075118532426
27 0.7370175320949762 2.5923883093030984 -0.6754695499157833
28 -1.321542082584585 0.1935102339952698 -0.04590257283688414
119 -0.06260156855732851 -0.008958741537060281 -0.12382862341704608
120 -0.3785852788537657 0.005734439399827618 0.27559749730329786
124 -0.18167770156023874 0.8854046430506766 -0.2957444163703093
80 -0.07818724925771481 0.08950589232981067 -0.40696200441943053
82 0.41778867563761696 -0.07997223952346072 0.3399986690073409
133 0.7135691219349964 0.5657352897923309 -0.7841897391151766
131 -0.17255099715161865 -0.5510434774487832 0.15114923715269243
142 0.6783303553052981 0.08210634394985321 1.0456596873865287
132 -1.7060105122435127 0.4035872304233825 0.2288388114077248
85 -0.7042341302798953 -0.20509141400144615 -0.7420458293276392
13 -1.287056315150325 1.2210865855477016 0.3415723523499982
84 0.15942766546247397 0.9481704053311716 1.044811326911266
83 0.041032124648232256 0.038210907165169596 -0.07397176559286296
12 0.09858255177913057 -0.23010786343010242 -0.5028438706245434
11 0.08007949134239199 0.027228744447396428 0.11485952797949332
14 -0.5042278725767346 0.9261748616204859 0.2021577679506708
15 2.0621474389375427 -0.18254443483939417 -0.045121147935151935
123 -0.20892997950356795 0.24489755564872942 0.8251417438581562
34 0.9157423656477833 -0.23749910460394008 1.398540863495337
136 -0.23365364890438944 -0.9702561557643457 0.02444616449227807
62 -0.3159215762953207 0.3102963342414239 -0.27098519314862046
63 0.348717145498337 -1.4828871326097903 -0.3284094535115264
23 -0.23174395477233461 0.016549505274082804 0.723652274802704
21 -0.08585059630754668 -0.0637534796579516 -0.08857384489933587
22 2.077510093785915 0.1686146109714012 -0.5299754310227075
147 -0.05946001640961043 0.6857435067277676 -0.8648596065953921
118 0.8539107955715255 1.4235927944876865 -0.7519568147883726
24 0.39621872823830256 -0.3261105374661999 -0.009988196709999269
25 -0.9761272660019324 0.8583394553962311 0.6283572761297067
146 0.12504885128822416 -0.01581006453170932 -0.1961029274186623
78 -0.9307468575405264 0.8158260937553736 1.37561990564737
135 -0.9149057251539741 -0.1580035388500509 0.21964032405119557
148 0.0400523220165208 -1.0055308988977105 -0.4594027538714403
134 -0.14291897505430143 -0.397768303829772 -0.29354864866458386
65 0.37648800443513253 -0.000360760637375614 0.12522455996362267
144 -0.1589952524269842 0.9146016617835099 0.48872216386552503
143 -0.3166520597230288 -0.01843806410544026 -0.3815481185589493
66 1.1477782181137262 -0.6820532373665344 -0.4680494863203895
67 -0.7058042105170095 1.4067248219862958 -0.23594829827751665
106 0.43123105827309755 0.8027562362534826 0.5350810832790418
64 -0.23033970848882665 -1.2556093364302603 -0.4096260631609424
116 -0.17976930102835575 0.06508205925726368 -0.002821999535146648
104 0.1282631998713384 -0.09576906126987494 0.09043407728874858
105 0.16480925776807245 0.7917472653858398 -0.9792275045304841
117 -0.036667080294302476 0.21721134876494774 0.7854848745298134
121 0.30843801446152674 0.952215461755034 -0.8736790231030723
35 -0.25434215561813706 0.21797251173803564 -0.052690103307366135
36 0.775059294076344 -0.3857123391644309 -0.19664579130673399
79 1.2529200501425235 -0.5360133908457286 0.6714102062876822
77 0.2523663361202673 -0.320921160389673 -0.04024815318512378

Bonds

1 1 92 93
2 1 92 94
3 1 6 7
4 1 6 8
5 1 6 9
6 1 6 10
7 1 158 159
8 1 158 160
9 1 101 102
10 1 101 103
11 1 68 69
12 1 68 70
13 1 38 39
14 1 38 40
15 1 44 45
16 1 44 46
17 1 1 2
18 1 1 3
19 1 1 4
20 1 1 5
21 1 98 99
22 1 98 100
23 1 89 90
24 1 89 91
25 1 152 153
26 1 152 154
27 1 113 114
28 1 113 115
29 1 107 108
30 1 107 109
31 1 155 156
32 1 155 157
33 1 125 126
34 1 125 127
35 1 53 54
36 1 53 55
37 1 59 60
38 1 59 61
39 1 56 57
40 1 56 58
41 1 47 48
42 1 47 49
43 1 110 111
44 1 110 112
45 1 50 51
46 1 50 52
47 1 74 75
48 1 74 76
49 1 41 42
50 1 41 43
51 1 137 138
52 1 137 139
53 1 29 30
54 1 29 31
55 1 16 17
56 1 16 18
57 1 16 19
58 1 16 20
59 1 128 129
60 1 128 130
61 1 140 141
62 1 140 142
63 1 95 96
64 1 95 97
65 1 149 150
66 1 149 151
67 1 86 87
68 1 86 88
69 1 71 72
70 1 71 73
71 1 32 33
72 1 32 34
73 1 122 123
74 1 122 124
75 1 26 27
76 1 26 28
77 1 119 120
78 1 119 121
79 1 80 81
80 1 80 82
81 1 131 132
82 1 131 133
83 1 83 84
84 1 83 85
85 1 11 12
86 1 11 13
87 1 11 14
88 1 11 15
89 1 62 63
90 1 62 64
91 1 21 22
92 1 21 23
93 1 21 24
94 1 21 25
95 1 146 147
96 1 146 148
97 1 134 135
98 1 134 136
99 1 65 66
100 1 65 67
101 1 143 144
102 1 143 145
103 1 116 117
104 1 116 118
105 1 104 105
106 1 104 106
107 1 35 36
108 1 35 37
109 1 77 78
110 1 77 79

Angles

1 1 93 92 94
2 2 7 6 8
3 2 7 6 9
4 2 7 6 10
5 2 8 6 9
6 2 8 6 10
7 2 9 6 10
8 1 159 158 160
9 1 102 101 103
10 1 69 68 70
11 1 39 38 40
12 1 45 44 46
13 2 2 1 3
14 2 2 1 4
15 2 2 1 5
16 2 3 1 4
17 2 3 1 5
18 2 4 1 5
19 1 99 98 100
20 1 90 89 91
21 1 153 152 154
22 1 114 113 115
23 1 108 107 109
24 1 156 155 157
25 1 126 125 127
26 1 54 53 55
27 1 60 59 61
28 1 57 56 58
29 1 48 47 49
30 1 111 110 112
31 1 51 50 52
32 1 75 74 76
33 1 42 41 43
34 1 138 137 139
35 1 30 29 31
36 2 17 16 18
37 2 17 16 19
38 2 17 16 20
39 2 18 16 19
40 2 18 16 20
41 2 19 16 20
42 1 129 128 130
43 1 141 140 142
44 1 96 95 97
45 1 150 149 151
46 1 87 86 88
47 1 72 71 73
48 1 33 32 34
49 1 123 122 124
50 1 27 26 28
51 1 120 119 121
52 1 81 80 82
53 1 132 131 133
54 1 84 83 85
55 2 12 11 13
56 2 12 11 14
57 2 12 11 15
58 2 13 11 14
59 2 13 11 15
60 2 14 11 15
61 1 63 62 64
62 2 22 21 23
63 2 22 21 24
64 2 22 21 25
65 2 23 21 24
66 2 23 21 25
67 2 24 21 25
68 1 147 146 148
69 1 135 134 136
70 1 66 65 67
71 1 144 143 145
72 1 117 116 118
73 1 105 104 106
74 1 36 35 37
75 1 78 77 79
