LAMMPS data file via write_data, version 4 Feb 2025, timestep = 100000, units = lj

1550 atoms
4 atom types
1050 bonds
1 bond types
625 angles
2 angle types

-8.262893 8.262893 xlo xhi
-8.262893 8.262893 ylo yhi
-8.262893 8.262893 zlo zhi
7.105427357601002e-15 0 0 xy xz yz

Masses

1 1
2 1
3 0.1
4 0.1

Bond Coeffs # harmonic/omp

1 100 0.45

Angle Coeffs # harmonic/omp

1 100 180
2 100 109.471

Atoms # full

1241 397 4 0 -5.152565061360313 -7.848005279736572 -8.173005238322085 2 0 0
992 314 4 0 -5.422302818953246 -7.516537744468888 -8.166755710964063 2 0 1
1239 397 2 0 -4.72474142288953 -7.997914478650671 -8.233809758851939 2 0 0
1106 352 4 0 -2.4572123783056483 -7.35496520283414 -7.674541742106414 7 1 0
1104 352 2 0 -2.1579915179135307 -7.5686680278736 -7.39200224081534 7 1 0
990 314 2 0 -5.605485044156686 -7.10748912833889 -8.045669104740831 2 0 1
991 314 4 0 -5.777119554611691 -6.705476182007979 -7.930765096308379 2 0 1
580 177 4 0 -3.8523427474929637 -6.7213893139403735 -7.611729360567882 1 0 0
1009 320 4 0 -3.4743499505753945 -6.751629628794794 -7.56333110831268 2 0 0
1008 320 2 0 -3.035207541541048 -6.880397639239244 -7.635418924345607 2 0 0
1010 320 4 0 -2.6015995944890156 -7.004136196112434 -7.706422578267956 2 0 0
258 70 2 0 -5.5993115443156825 -5.970894835829768 -7.76726670916247 2 0 0
260 70 4 0 -5.769065993393848 -6.30158594137642 -8.01101122055211 2 0 0
259 70 4 0 -5.419379648413056 -5.640605733658811 -7.515876511371208 2 0 0
589 180 4 0 -1.4182844498519183 -5.646087968146153 -8.033919588517955 7 1 0
722 224 4 0 -1.0401676565386913 -5.514141339233819 -7.944262739030338 2 0 1
720 224 2 0 -0.6649378721767167 -5.821905078312263 -8.055361386072615 2 0 1
721 224 4 0 -0.308916755107286 -6.12113494635777 -8.169239792056409 2 0 1
569 173 4 0 -7.818073866500998 -5.341567126370668 -8.026650825631496 7 1 0
100 20 3 0 -7.438028746951482 -5.268798966201379 -8.140708718000718 3 0 1
567 173 2 0 -8.238732315808047 -5.29366231538509 -8.051664634283327 7 1 0
1255 402 4 0 -6.444274195190461 -4.348681931979831 -7.352027098951408 8 1 0
1129 360 4 0 -6.07678996761844 -4.312192373686155 -7.502751381878125 3 0 1
1128 360 2 0 -5.713178301965236 -4.251517942389565 -7.800132301105256 3 0 1
1130 360 4 0 -5.3592864826027 -4.190212125955181 -8.087671869796198 3 0 1
303 85 2 0 -2.34866544020392 -2.5716896669944402 -7.564379066642675 3 0 1
304 85 4 0 -2.674238479802976 -2.6804978236414465 -7.823518481676892 3 0 1
294 82 2 0 -1.1965894374495818 -2.595380323773684 -7.513360144866832 3 0 1
296 82 4 0 -0.7726004176447363 -2.587608676508575 -7.720948368259635 3 0 1
650 200 4 0 -0.43893006587652916 -2.419452906692527 -7.5384147576733795 4 0 1
648 200 2 0 -0.004075871758894678 -2.4241158889184513 -7.57190969918507 4 0 1
1105 352 4 0 -1.8560156274384605 -7.772200232649315 -7.114762213400683 7 1 0
1139 363 4 0 -1.491004610526251 -7.922279126412882 -7.051426498018813 2 0 0
1137 363 2 0 -1.0060801049051644 -7.824927523975842 -7.035281801449774 2 0 0
1138 363 4 0 -0.5361023684736521 -7.72951243323196 -7.013594971956512 2 0 0
75 15 3 0 -0.15694416808229583 -7.667834061569396 -7.095981573414597 2 0 0
1550 500 4 0 -4.335722826697112 -7.200633351675998 -6.513620531361172 7 1 1
581 177 4 0 -4.262596802923625 -6.940490307534242 -6.815838325822614 1 0 0
579 177 2 0 -4.064541338944882 -6.833553473153266 -7.197236998190447 1 0 0
1454 468 4 0 -0.6486151526367259 -6.810930220755737 -6.5746856363320285 7 1 1
1452 468 2 0 -0.2050791986377778 -6.71473725330574 -6.68314696649982 7 1 1
147 33 2 0 -5.645137314054134 -5.544689823997247 -6.755911993560112 2 0 0
1175 375 4 0 -6.225243658778316 -5.787388259621421 -6.485496790614133 2 0 1
148 33 4 0 -5.361853589458278 -5.526532182270581 -7.122804134346001 2 0 0
900 284 2 0 -7.9162588982825 -4.629129506370312 -6.547888122028416 3 0 0
901 284 4 0 -7.632340998597791 -4.505781985942719 -6.854333040040484 3 0 0
1256 402 4 0 -7.246518137009819 -4.48935398579021 -6.919616124789892 8 1 0
1254 402 2 0 -6.8678104494217935 -4.425817743272689 -7.128184772105464 8 1 0
305 85 4 0 -2.0048661766799345 -2.45918690507086 -7.291083223735465 3 0 1
295 82 4 0 -1.6154472208369448 -2.602059794883706 -7.313865081674663 3 0 1
1299 417 2 0 -8.158456666583897 -1.6559765497462031 -6.6369470294973665 5 0 0
1300 417 4 0 -7.724902255677201 -1.5024786862622772 -6.676907293113703 5 0 0
341 97 4 0 -7.328711617772101 -1.5110368846554838 -6.587469572174896 4 0 1
1549 500 4 0 -3.9759434965968703 -7.568545389918828 -5.724591533287758 7 1 1
1548 500 2 0 -4.163363599887617 -7.380428241839691 -6.134269223455596 7 1 1
1001 317 4 0 -7.930323834048662 -6.454203951149879 -5.833081969208218 2 0 0
320 90 4 0 -2.065635513998977 -6.955688826590995 -5.68249612649617 1 0 1
1277 409 4 0 -0.9884263809368443 -6.833949334924324 -6.3097732232721135 7 1 1
1276 409 4 0 -1.7109484652565659 -6.8329618596677015 -5.757907796090517 7 1 1
1275 409 2 0 -1.3628859326372895 -6.835594011649205 -6.026984403848307 7 1 1
999 317 2 0 -7.554614085147378 -6.2396841705642725 -5.879167793979202 2 0 0
1000 317 4 0 -7.174443093244094 -6.028415366670633 -5.936228204333545 2 0 0
1174 375 4 0 -7.038709723257087 -6.171271408502657 -6.282192656744742 2 0 1
1173 375 2 0 -6.635623886523948 -5.982759082780001 -6.387855454633863 2 0 1
149 33 4 0 -5.924280107803413 -5.565959892092572 -6.37889403703928 2 0 0
902 284 4 0 -8.223282879228682 -4.759408068354436 -6.235825087338197 3 0 0
339 97 2 0 -6.8959724739189525 -1.5157760282906239 -6.4028005724453045 4 0 1
340 97 4 0 -6.489678236870361 -1.5225508799186063 -6.221980917680095 4 0 1
47 10 3 0 -6.076093864450172 -1.5271530801921234 -6.243178918500108 4 0 0
49 10 3 0 -5.640128634354361 -1.564731576425479 -5.638297873757091 4 0 0
48 10 3 0 -5.774838442386976 -0.9277037931088437 -5.971230086775565 4 0 0
46 10 1 0 -5.708316574231894 -1.358665922513766 -6.0442985201670885 4 0 0
50 10 3 0 -5.348602365599017 -1.4352887857051106 -6.307241493433364 4 0 0
1225 392 4 0 -4.945761194776605 -1.424787357978654 -6.185091746433683 5 0 0
1224 392 2 0 -4.486720048334729 -1.3100076544371664 -6.18198021107774 5 0 0
1226 392 4 0 -4.035319983037121 -1.2108143897594141 -6.178102541510645 5 0 0
911 287 4 0 -3.6424215837919967 -1.2636334621112466 -6.082411882077498 5 0 0
909 287 2 0 -3.2068912276672963 -1.178306780370832 -6.028599799366194 5 0 0
910 287 4 0 -2.737431782866924 -1.086134463988163 -5.987096782875735 5 0 0
965 305 4 0 -2.389583287870897 -1.0280888993120083 -5.787553919920609 4 0 0
963 305 2 0 -1.9489049145710213 -0.9478324627700703 -5.644949946085294 4 0 0
772 241 4 0 -3.7780752535501145 -7.672601032198182 -5.398415318479005 6 1 1
771 241 2 0 -3.343514567066185 -7.699559852487214 -5.405416978145329 6 1 1
773 241 4 0 -2.909611251137531 -7.735871242458072 -5.400497686049869 6 1 1
319 90 4 0 -2.60629297019565 -7.5337226619107325 -5.2685544113613725 1 0 1
578 176 4 0 -4.138174199283622 -6.519268118587824 -4.749633988463762 6 1 0
318 90 2 0 -2.3311640003234517 -7.236653092717705 -5.472682338346365 1 0 1
576 176 2 0 -3.8909274590164653 -6.286131036448142 -5.04300481623252 6 1 0
577 176 4 0 -3.627268817338937 -6.046746761437873 -5.342802189209338 6 1 0
267 73 2 0 -5.639785074632881 -1.8803015467792275 -4.877080521827162 4 0 0
269 73 4 0 -5.6169496457832455 -1.5564950726489108 -5.231430183613339 4 0 0
133 28 4 0 -6.809115570476231 -0.10854453220500027 -4.675046387069391 5 0 -1
964 305 4 0 -1.5179728287193415 -0.8572485108541459 -5.499099456997887 4 0 0
565 172 4 0 -1.12980973115007 -0.7781941138293735 -5.412057698939739 4 0 0
564 172 2 0 -0.6954104440867104 -0.637226726391714 -5.332993236247753 4 0 0
566 172 4 0 -0.31739287175534514 -0.5168637814072161 -5.2582703090137475 4 0 0
1285 412 4 0 -0.23374453019859054 -0.3389059536998609 -4.916633017339967 5 0 0
1417 456 4 0 -4.453152099489985 -6.478223907103705 -4.499910276179897 7 1 1
1416 456 2 0 -4.40477588900808 -6.436386459260605 -4.063347064645545 7 1 1
1120 357 4 0 -6.54970001887191 -2.2265352129396154 -3.676676210811289 5 0 1
1119 357 2 0 -6.279207214739652 -2.290396635980011 -4.0187952191816185 5 0 1
1121 357 4 0 -5.996081592233576 -2.3555270008667843 -4.377928732865126 5 0 1
268 73 4 0 -5.651999394276132 -2.167460247878015 -4.547046537231951 4 0 0
439 130 4 0 -6.81947636338506 -1.1112001562134513 -3.768981666434213 5 0 0
440 130 4 0 -6.7763983020023915 -0.38507071014707517 -4.373077240157375 5 0 0
438 130 2 0 -6.795225690208244 -0.7582275132647229 -4.064094593873609 5 0 0
1418 456 4 0 -4.370445570604914 -6.409820405558694 -3.6284693732723765 7 1 1
970 307 4 0 -4.074763905043201 -6.413529348998514 -3.3401460885815712 2 0 0
969 307 2 0 -3.666437882109464 -6.199660235582861 -3.294362640497388 2 0 0
971 307 4 0 -3.2522187536485383 -5.978919546272838 -3.254327166920004 2 0 0
8 2 3 0 -3.137612692741757 -5.949596568423418 -2.8429449813383254 1 0 0
1446 466 2 0 -0.7043157754938036 -5.750783599842008 -2.7728009998555923 2 0 0
1448 466 4 0 -0.2600826570282102 -5.66036788819563 -2.88469234827231 2 0 0
907 286 4 0 -6.725732689553292 -2.04169662206663 -3.3774151755609987 5 0 0
908 286 4 0 -7.04237644090113 -1.1937934735552904 -3.420910026801641 5 0 0
906 286 2 0 -6.891180424516463 -1.6173026437522244 -3.4012040102110417 5 0 0
850 267 4 0 -5.014627934773962 -7.405648194302303 -2.0554673718592458 2 0 -1
9 2 3 0 -3.2303233016554813 -5.948945473580443 -2.1026186202989887 1 0 0
6 2 1 0 -3.097086239839415 -5.701580228706917 -2.4653211738431313 1 0 0
7 2 3 0 -2.681863697545615 -5.58645346684192 -2.4141304919984474 1 0 0
930 294 2 0 -1.9493569479745867 -5.534046096872821 -2.6493871131885465 2 0 0
1447 466 4 0 -1.1425847429979248 -5.829368061938223 -2.673395771462295 2 0 0
932 294 4 0 -1.4894453061263837 -5.639360767077223 -2.6612546950012828 2 0 0
799 250 4 0 -4.530413478857357 -5.48819624862324 -2.3752647891130385 1 0 0
798 250 2 0 -4.133552085926181 -5.3162479904609174 -2.448165615310592 1 0 0
800 250 4 0 -3.7224229755037896 -5.1296126478473045 -2.519892765920405 1 0 0
10 2 3 0 -3.3626635168779666 -5.329774128303619 -2.492128421544134 1 0 0
931 294 4 0 -2.3727723272445695 -5.43628771301108 -2.6423563001718104 2 0 0
1131 361 2 0 -3.4574879281484083 -0.1301709425522688 -1.9599152626730314 1 -1 1
1521 491 2 0 -7.949059019906768 -6.918189625225676 -1.0092465812995153 7 1 0
1523 491 4 0 -8.260221953723173 -7.005096527438522 -1.3485356147346526 7 1 0
849 267 2 0 -4.760918545090238 -7.136798599883001 -1.8153026429913712 2 0 -1
607 186 4 0 -4.130691817491246 -6.722367463557529 -1.5025000666902848 6 1 -1
851 267 4 0 -4.497488121869152 -6.858235720632238 -1.568535977523533 2 0 -1
606 186 2 0 -3.793417181490776 -6.425360904880092 -1.6488180710388365 6 1 -1
608 186 4 0 -3.452986942437682 -6.122850866358629 -1.8018971983594616 6 1 -1
1133 361 4 0 -3.5125491924406003 -0.43452638825878687 -1.6287886450200686 1 -1 1
15 3 3 0 -3.3532972382557356 -0.5115207120310901 -1.2677667756139002 5 0 0
953 301 4 0 -3.9247393954697882 -8.07459560971539 -0.49094560350812166 2 0 -1
951 301 2 0 -3.5693766413219032 -8.155566118306748 -0.21232573702389068 2 0 -1
1522 491 4 0 -7.665131360776835 -6.844574187672182 -0.6984537862645777 7 1 0
63 13 3 0 -7.401241953272877 -6.7815645871584875 -0.37825105927080127 2 0 0
62 13 3 0 -6.784195066076546 -7.066787539762379 -0.6787382115040028 2 0 0
61 13 1 0 -6.950443520953512 -6.819255579693973 -0.3445712155739846 2 0 0
65 13 3 0 -6.779499157771125 -6.42717213196415 -0.34693021338929686 2 0 0
1064 338 4 0 -6.432492194385005 -6.282295869808041 -0.2104737067977016 2 0 0
1062 338 2 0 -6.021974215337176 -6.157406167563119 -0.37649860778182287 2 0 0
1063 338 4 0 -5.622085498231149 -6.038424503267385 -0.5385563416490857 2 0 0
1015 322 4 0 -5.249440217453928 -6.038218308425053 -0.5010921045004055 2 0 0
1014 322 2 0 -4.866242369977169 -5.980278311817034 -0.25692906684328953 2 0 0
1016 322 4 0 -4.477988996138091 -5.912265063529463 -0.02565702191325947 2 0 0
531 161 2 0 -4.876122220833947 -4.6159493562147995 -0.6932758101104195 7 1 0
532 161 4 0 -4.441013519740132 -4.70245152542512 -0.7255599313364156 7 1 0
227 59 4 0 -4.047047672456538 -4.775151972037989 -0.7822558652256371 2 0 0
225 59 2 0 -3.6181676018877535 -4.664531334415974 -0.658519569863139 2 0 0
533 161 4 0 -5.3311475659896805 -4.527978051632219 -0.6625593572016149 7 1 0
226 59 4 0 -3.1894684848952117 -4.542828975941013 -0.5327796837630059 2 0 0
635 195 4 0 -2.8419552016255194 -4.54880083806977 -0.3681134226438161 7 1 0
633 195 2 0 -2.4115771355246256 -4.508565697432268 -0.4501336531071525 7 1 0
634 195 4 0 -1.985651071283491 -4.465478397044893 -0.5345517462610756 7 1 0
1157 369 4 0 -1.704532092477696 -4.1652612995114575 -0.5225805383740294 2 0 0
1155 369 2 0 -1.3260548282854652 -3.9692393709470224 -0.4463442039953831 2 0 0
1156 369 4 0 -0.9398549011677924 -3.768585824207645 -0.36681557977719237 2 0 0
610 187 4 0 -0.6078516198095523 -3.973894828260998 -0.3327767492386622 7 1 0
609 187 2 0 -0.18292078699122172 -4.040489374220702 -0.3054297705075033 7 1 0
220 57 4 0 -4.328424262559388 -1.575948313862642 -0.18392624685584558 4 0 -1
14 3 3 0 -3.552905495543709 -1.1552307649923073 -0.900614716354867 5 0 0
1030 327 4 0 -4.957605856805612 -0.7937106538982226 -0.8846148351651166 5 0 0
1029 327 2 0 -4.5286876012427175 -0.7419117774629047 -0.8083987715415537 5 0 0
1031 327 4 0 -4.097114404786102 -0.6902916426408714 -0.7343729574457383 5 0 0
12 3 3 0 -3.771529665392668 -0.463384686468701 -0.6467831810554161 5 0 0
13 3 3 0 -3.0753313585799544 -0.6673053920883794 -0.5851506705174323 5 0 0
11 3 1 0 -3.429962004537984 -0.6973394040679466 -0.846285291294155 5 0 0
190 47 4 0 -2.6912326684184507 -0.5404841019262667 -0.6437326687273606 5 0 0
189 47 2 0 -2.243914445907194 -0.42044322716498694 -0.6384334793679436 5 0 0
408 120 2 0 -0.9893456012572681 -0.09140625002503455 -0.42162589760248803 5 0 1
191 47 4 0 -1.7986647701454475 -0.30562370967356944 -0.6343333238944755 5 0 0
409 120 4 0 -1.4332978491846395 -0.1922656560617586 -0.4869496168250764 5 0 1
1170 374 2 0 -6.52854587144107 -7.7922620688625175 0.265499824532089 2 0 0
1172 374 4 0 -6.856887346647199 -7.466770404401249 0.10853133064005505 2 0 0
1171 374 4 0 -6.216645989857842 -8.104133442583803 0.4029385587559684 2 0 0
518 156 4 0 -5.98210288781476 -7.987810036744808 0.687426534276641 6 1 -1
516 156 2 0 -5.590140445004781 -8.095207259792927 0.8346627635856105 6 1 -1
952 301 4 0 -3.229446239690188 -8.227269884055637 0.07101505234911976 2 0 -1
64 13 3 0 -6.845578889297151 -7.034098253369557 0.06353113225615203 2 0 0
500 150 4 0 -4.165103617557351 -5.8581457284768685 0.23760407798848782 2 0 0
498 150 2 0 -3.8469788654356716 -5.593354461232744 0.21278794459696648 2 0 0
499 150 4 0 -3.5162128106966124 -5.31084976994251 0.19578834738731032 2 0 0
386 112 4 0 -7.604981850133244 -3.89998994690794 0.0945353113713292 3 0 0
515 155 4 0 -8.020681501177926 -3.8642429228353645 0.13375175771058423 3 0 0
384 112 2 0 -7.184374177923901 -3.9291844362823483 0.2060606606120512 3 0 0
385 112 4 0 -6.723143081046042 -3.9604391562202075 0.32730504334597477 3 0 0
751 234 4 0 -0.6047848777241338 -3.678623646804521 0.8317010266175995 8 1 0
1252 401 4 0 -0.4002023199174287 -3.3266551577360204 0.8381927886605283 3 0 0
1251 401 2 0 -0.1856759137579882 -3.111751885019416 0.5107849871502896 3 0 0
219 57 2 0 -4.087389969051716 -1.636800582966698 0.18599996165463395 4 0 -1
221 57 4 0 -3.8329018435790045 -1.6997938388875724 0.56587844759148 4 0 -1
719 223 4 0 -3.5743537030357198 -1.7607401205539217 0.8924752031715659 4 0 0
654 202 2 0 -7.250495689226842 -8.25491427132415 1.805822667457237 9 1 0
517 156 4 0 -5.191556197326905 -8.199783353749536 0.9925556334499497 6 1 -1
541 164 4 0 -3.94266114982074 -7.42284852350856 1.7332259841150126 1 0 0
479 143 4 0 -6.279502388473287 -7.069504357058028 1.7061178193834277 1 0 0
325 92 4 0 -6.213297055901366 -6.786591631672335 1.4000373082465956 2 0 0
324 92 2 0 -5.759364495451198 -6.85660825514403 1.4212426616742526 2 0 0
326 92 4 0 -5.314098646726936 -6.917066085955223 1.4367149089499662 2 0 0
128 26 4 0 -4.943524367426779 -6.8975934321735926 1.556875428692587 -4 -1 0
126 26 2 0 -4.564534491241572 -7.022242972886367 1.7303304141142828 -4 -1 0
750 234 2 0 -0.4696118001443388 -3.88046145004325 1.223479351848658 8 1 0
752 234 4 0 -0.3186153649011496 -4.0815730829469254 1.594428472626868 8 1 0
993 315 2 0 -2.17189035331395 -2.0073606745005765 1.4553213450456752 5 0 0
718 223 4 0 -2.736561155136874 -1.8719157837328435 1.0577283915251687 4 0 0
994 315 4 0 -2.505435830687423 -2.154653170564698 1.1994834011164937 5 0 0
995 315 4 0 -1.8307514448465199 -1.8531958631108285 1.7389657204867266 5 0 0
1181 377 4 0 -1.4405149512282627 -1.8638767830431426 1.8252093226250157 5 0 0
717 223 2 0 -3.1564833261517515 -1.8167458961569753 0.9696615996862139 4 0 0
1069 340 4 0 -7.959178017784804 -7.89540957110578 1.8497693625279172 4 0 0
656 202 4 0 -7.570968852703863 -8.002664675266725 1.9945472757960019 9 1 0
540 164 2 0 -3.541010178827997 -7.478030763386545 1.9868738719898804 1 0 0
542 164 4 0 -3.1615373321070583 -7.528363079720631 2.2198930891715936 1 0 0
680 210 4 0 -2.7812750759867697 -7.381786793563101 2.187554413875338 1 0 0
678 210 2 0 -2.4370091086803303 -7.653660698921025 2.0908736103450085 1 0 0
679 210 4 0 -2.0852925503999105 -7.939637889804941 1.998169613359984 1 0 0
921 291 2 0 -0.33795911904576137 -8.164940365934838 2.6985300449015313 2 0 0
478 143 4 0 -6.988146504027346 -7.335695253293341 2.3300415786748854 1 0 0
477 143 2 0 -6.6218927675653125 -7.1969633592445135 2.003232257923731 1 0 0
1243 398 4 0 -7.012336163857058 -7.063000938329262 2.611428165294253 7 1 0
127 26 4 0 -4.1859170122119025 -7.166654098268699 1.9125160648716193 -4 -1 0
216 56 2 0 -7.588956891179175 -3.797254560217013 2.4153236238003117 -2 -1 0
218 56 4 0 -8.00039598770024 -3.9021387973833637 2.261857498989759 -2 -1 0
217 56 4 0 -7.156922334472454 -3.6926169814587677 2.577881567288097 -2 -1 0
820 257 4 0 -0.3233741354065369 -3.8480220794478095 1.9198936174074461 8 1 0
819 257 2 0 -0.08575829665680423 -3.6872317568677566 2.2431385528236305 8 1 0
1099 350 4 0 -6.769436628256114 -3.5948447233615024 2.5725837598035532 4 0 0
1098 350 2 0 -6.333156773397548 -3.599673223669635 2.71666660420669 4 0 0
1179 377 2 0 -1.0218254012513022 -1.9717901356697798 1.9672936101664167 5 0 0
1180 377 4 0 -0.6327869010140068 -2.063197636597863 2.1056108573861234 5 0 0
844 265 4 0 -4.7295439005772195 -7.505025567784348 2.908999329760041 1 0 0
1242 398 2 0 -6.990064657472264 -6.871869144323791 2.995502969847699 7 1 0
1244 398 4 0 -6.9766589911522505 -6.6712694820512635 3.4099245828133053 7 1 0
845 265 4 0 -4.832715778981274 -6.600109897494517 2.940644465626738 1 0 0
843 265 2 0 -4.783365131099137 -7.050416343918637 2.9244446122949146 1 0 0
602 184 4 0 -6.805715348975543 -6.306393512897221 3.3302715034341404 6 1 -1
600 184 2 0 -6.441532511088671 -6.021455930552007 3.3852417476926764 6 1 -1
601 184 4 0 -6.072517792864192 -5.73547955499003 3.436625241881396 6 1 -1
809 253 4 0 -5.737788165186421 -5.920758765916505 3.2830001690623067 1 0 1
808 253 4 0 -4.875164393781015 -6.2462814051803175 3.1494394676020026 1 0 1
807 253 2 0 -5.282058967433335 -6.093808288562583 3.2135632647828594 1 0 1
1100 350 4 0 -5.93593459132779 -3.605442723995113 2.8598123346466924 4 0 0
1154 368 4 0 -5.591438676033286 -3.507131075088858 3.076262012548833 3 0 0
1152 368 2 0 -5.213742710516364 -3.327452822454923 3.3049338971736635 3 0 0
1153 368 4 0 -4.838426385800659 -3.1470810410346326 3.5354396245619153 3 0 0
1026 326 2 0 -3.8057092387951377 -1.4693709165217097 3.56051415826742 5 0 0
1028 326 4 0 -3.4900324923132304 -1.2589653342731904 3.3643233903381926 5 0 0
1168 373 4 0 -3.109960622218451 -1.1641151725476924 3.420047900556048 5 0 0
1167 373 2 0 -2.6662538467541763 -1.1500377078803563 3.4350244142063904 5 0 0
1169 373 4 0 -2.2231349659298285 -1.1299110871710045 3.4474219923494953 5 0 0
1376 442 4 0 -1.8607222148882823 -0.9857128195937532 3.423611914707468 5 0 0
1374 442 2 0 -1.400057258292147 -0.9435027494348089 3.440027032497179 5 0 0
1375 442 4 0 -0.951425429872014 -0.8996313701359497 3.4571408150039673 5 0 0
597 183 2 0 -0.1648605169756472 -0.6630786185202444 3.4046197842092276 4 0 0
598 183 4 0 -0.5999210484857729 -0.7864736305899385 3.5162085141225443 4 0 0
1382 444 4 0 -0.3248583759224646 -7.854775030320873 4.52212089664903 7 1 0
1238 396 4 0 -5.051687994615362 -4.692364367492722 4.334272116690583 8 1 0
214 55 4 0 -4.646980882151668 -4.639203772329097 4.380684464858266 3 0 0
213 55 2 0 -4.170213110647924 -4.548452503772807 4.470252791441874 3 0 0
215 55 4 0 -3.7272960774222934 -4.470956800123252 4.553621590138395 3 0 0
676 209 4 0 -4.582157629165032 -3.0256355729376416 3.8188225610040316 3 0 -1
675 209 2 0 -4.155956958616114 -3.066958258565581 4.012064775870099 3 0 -1
677 209 4 0 -3.7389084135695985 -3.1077878763797226 4.185182595419443 3 0 -1
370 107 4 0 -3.356059617570396 -3.0531633314668447 4.282202275783936 2 0 0
369 107 2 0 -3.0042501093871943 -3.1361230806817773 4.548977497899825 2 0 0
1027 326 4 0 -4.149118475891714 -1.699984192883968 3.7780421496948957 5 0 0
1136 362 4 0 -1.474669333189114 -7.492241094315524 4.881960118273694 2 0 0
1134 362 2 0 -1.0886543906085597 -7.661830415231607 4.761868404825632 2 0 0
1135 362 4 0 -0.7015941977848321 -7.838530930876139 4.639142849463001 2 0 0
336 96 2 0 -1.9640121289349128 -7.199285169449257 5.335125922312875 2 0 -1
338 96 4 0 -1.7556294360877667 -7.218267309504986 4.954800431309513 2 0 -1
668 206 4 0 -1.1690774509424928 -6.153008011328534 5.0568742336184425 1 0 0
667 206 4 0 -0.3363557212771795 -5.933516553317276 5.303945428707186 1 0 0
666 206 2 0 -0.7415446523609361 -6.037996889619355 5.185950742447625 1 0 0
322 91 4 0 -0.1583347118973748 -6.276404900350055 5.38480890823269 1 0 0
1236 396 2 0 -5.303434245067246 -4.59941385685187 4.730481679361537 8 1 0
1237 396 4 0 -5.557758059074352 -4.501686751779601 5.106660823663649 8 1 0
475 142 4 0 -5.378182956160662 -4.455663846254289 5.472241703169136 8 1 0
1432 461 4 0 -3.601146861864887 -4.327175405308208 4.893839581986159 4 0 0
1431 461 2 0 -3.1757809890395734 -4.201422630349602 4.966125497752598 4 0 0
1433 461 4 0 -2.7614577361624635 -4.08118236855788 5.034514931298785 4 0 0
20 4 3 0 -2.354717592594165 -4.048660086646112 4.990946480520041 3 0 -1
16 4 1 0 -2.2188489334760746 -3.710689414564172 5.245046844801017 3 0 -1
919 290 4 0 -1.4295562307896326 -3.8727464074281084 5.09063074547001 3 0 -1
918 290 2 0 -0.9938593785395655 -3.827697060012735 5.162335276850639 3 0 -1
920 290 4 0 -0.5788313871247919 -3.7798029593194133 5.240866441511505 3 0 -1
371 107 4 0 -2.6712968674845152 -3.2210769307324556 4.802676885565541 2 0 0
17 4 3 0 -2.4157640468361548 -3.3323823859869535 5.112504820479911 3 0 -1
18 4 3 0 -1.7490275400292026 -3.6674984120509286 5.21473629177636 3 0 -1
670 207 4 0 -0.22557365457911338 -3.5685482704163434 5.23078561662709 3 0 -1
946 299 4 0 -8.059289768628442 -2.206131199088901 4.8987069489075115 5 0 -1
945 299 2 0 -8.218766247273374 -1.8007470603138538 4.895636928938794 5 0 -1
869 273 4 0 -0.6071222906850053 -1.237919842119311 5.446825860767566 -1 -1 -1
459 137 2 0 -6.801619451474297 -8.080371423306499 6.385399234546698 2 0 0
337 96 4 0 -2.1737913162709415 -7.187527081048246 5.720842910205397 2 0 -1
1540 497 4 0 -2.059398531052415 -6.93724507630088 5.996428867779295 8 1 -1
1539 497 2 0 -2.076848976110102 -6.642959036279803 6.3228368865399815 8 1 -1
474 142 2 0 -5.135132221202384 -4.167403343420013 5.757234048760681 8 1 0
476 142 4 0 -4.905639340572776 -3.8816336663927906 6.033654452243304 8 1 0
916 289 4 0 -4.530752421149287 -3.9801963571562373 6.071993700950506 3 0 0
747 233 2 0 -2.756014338887166 -3.9569801806552887 6.347059435646122 3 0 0
19 4 3 0 -2.3224248898254034 -3.7919430321900975 5.653024193620711 3 0 -1
749 233 4 0 -2.53736198742443 -3.9690894053305197 5.957275480750313 3 0 0
915 289 2 0 -4.243659858221908 -3.6485722266995806 6.031961047686927 3 0 0
917 289 4 0 -3.936497462902275 -3.2889865279150827 5.9860830533045934 3 0 0
944 298 4 0 -3.768811224364617 -2.905966256369542 5.94600190392187 3 0 0
942 298 2 0 -3.2974321469896344 -2.8155776428731105 6.008099109429709 3 0 0
1079 343 4 0 -2.5085642385376 -2.756678443386229 6.213521253009535 4 0 0
943 298 4 0 -2.8678838722505278 -2.7215685120270265 6.062484068072651 3 0 0
1077 343 2 0 -2.1970932499833804 -2.499859762956685 6.4062632777782 4 0 0
433 128 4 0 -4.949854419344412 -1.416408013988809 6.300494596952133 4 0 0
432 128 2 0 -4.538243316796843 -1.4827267352824292 6.164144292181655 4 0 0
434 128 4 0 -4.124536740618411 -1.5337090077457773 6.01936229472995 4 0 0
835 262 4 0 -3.8727546756734217 -1.5216595176373424 5.720141532166448 4 0 0
834 262 2 0 -3.459810010457111 -1.5312602375914448 5.897648579054264 4 0 0
836 262 4 0 -3.060524258392962 -1.5445952049037874 6.0804768174027615 4 0 0
1184 378 4 0 -2.7459442026019296 -1.4015573978979194 5.881295506208174 -1 -1 0
1182 378 2 0 -2.2892391437040125 -1.4150829898630608 5.814243958753959 -1 -1 0
1183 378 4 0 -1.8566315008420506 -1.4281940438265393 5.754633064262192 -1 -1 0
868 273 4 0 -1.4753750319255508 -1.3201452697578002 5.691085117854092 -1 -1 -1
867 273 2 0 -1.0263312118891168 -1.2783769087248666 5.573359865526079 -1 -1 -1
1322 424 4 0 -0.25526500262577123 -1.0644185528210617 5.5682992383547525 4 0 0
714 222 2 0 -7.841180732048803 -7.875277898144608 6.850081936858155 2 0 0
716 222 4 0 -7.420877049923969 -7.865377396608816 6.83518002708286 2 0 0
461 137 4 0 -7.046280383039688 -7.869608576593708 6.650327161524546 2 0 0
784 245 4 0 -0.12179520312031045 -6.777947679011417 7.32512832362792 2 0 0
816 256 2 0 -7.916832942544928 -5.569577083955999 7.2665384117181215 7 1 0
1541 497 4 0 -2.0955383643884753 -6.340166071820122 6.6600389711377215 8 1 -1
1314 422 2 0 -2.1061275912555475 -5.835806493432806 7.138603612096409 8 1 -1
1316 422 4 0 -2.178840329136488 -5.95090176437321 6.714894855411705 8 1 -1
1500 484 2 0 -3.7058857388673143 -3.9151753598206955 7.128254254839872 3 0 0
1502 484 4 0 -3.321927747059126 -3.842609962059961 6.884396625604742 3 0 0
748 233 4 0 -2.979958643428552 -3.9415272192321957 6.753377168560187 3 0 0
1078 343 4 0 -1.8757267879096577 -2.239924147073417 6.607622322408012 4 0 0
1178 376 4 0 -1.4799698616195043 -2.312777694044393 6.648261806119331 4 0 0
1176 376 2 0 -1.061324933840499 -2.2351163930685196 6.849013696169244 4 0 0
1177 376 4 0 -0.64169145596669 -2.1586113731560506 7.055211285219881 4 0 0
359 103 4 0 -0.23202099651650698 -2.003166172662791 7.044606486434281 3 0 1
574 175 4 0 -7.420185453296924 -1.251846445371675 6.5514411364933895 4 0 0
573 175 2 0 -7.837162730696771 -1.2321933145696384 6.552284905107186 4 0 0
1246 399 4 0 -7.073044507972627 -1.0740011390305018 6.644151156242774 5 0 0
732 228 2 0 -5.553540112971573 -0.9808716740503174 6.6910141937029675 4 0 0
734 228 4 0 -5.2181940043952775 -1.2492009820445933 6.552183333436179 4 0 0
1245 399 2 0 -6.695813674055401 -0.8695752559179128 6.722829890189383 5 0 0
1247 399 4 0 -6.289914133806277 -0.6582651600632632 6.800106828667191 5 0 0
733 228 4 0 -5.895701261539164 -0.7159493813143953 6.824271508946211 4 0 0
1442 464 4 0 -5.12193956159151 -0.19163960900354837 6.990178909515743 7 0 0
1240 397 4 0 -4.28069845607594 -8.153045846845602 8.224996897008024 2 0 -1
512 154 4 0 -4.025818460055333 -8.181789997901435 7.90901580899911 7 1 -1
510 154 2 0 -3.597879795929419 -8.005367791031082 7.859913811742915 7 1 -1
511 154 4 0 -3.196654278146008 -7.837832450387805 7.814918111630943 7 1 -1
985 312 4 0 -2.7915417741765216 -7.870957101053545 7.846699657440693 2 0 -1
986 312 4 0 -1.9447698682445314 -8.142019406860271 7.859652858164688 2 0 -1
984 312 2 0 -2.381643700346854 -8.001699796966905 7.852500040359976 2 0 -1
785 245 4 0 -0.388595942322012 -6.449989005878579 8.144150455971284 2 0 0
783 245 2 0 -0.25460790536509137 -6.613200526091894 7.737918451812716 2 0 0
818 256 4 0 -7.578695083408945 -5.53757119748123 7.503645063244393 7 1 0
98 20 3 0 -7.219855477792376 -5.522795407620837 7.7342995787593 3 0 0
1315 422 4 0 -2.0360660725175697 -5.723196861770444 7.556525667909678 8 1 -1
590 180 4 0 -2.1680324087013627 -5.80832785588545 7.971336975199135 7 1 -1
588 180 2 0 -1.788618878314793 -5.722224841458735 8.23441712112759 7 1 -1
96 20 1 0 -7.136439116211332 -5.226617718698517 8.083476974362418 3 0 0
97 20 3 0 -7.1380238610469355 -4.817787047648863 7.919773595718683 3 0 0
99 20 3 0 -6.752176497174159 -5.30491123058776 8.250904229594026 3 0 0
530 160 4 0 -6.435669224750766 -5.245403596435627 8.001781541515198 8 1 -1
528 160 2 0 -6.017362809561424 -5.317638387140728 7.841754664449999 8 1 -1
529 160 4 0 -5.594464666517 -5.396599845776716 7.677424381235873 8 1 -1
1220 390 4 0 -5.200591223526258 -5.293440397401415 7.648741424951419 8 1 -1
1218 390 2 0 -4.759763206905381 -5.22226633076652 7.574217483989473 8 1 -1
1219 390 4 0 -4.331027388171904 -5.152775489675534 7.495432243110523 8 1 -1
1066 339 4 0 -3.929923031137683 -5.090575933849305 7.3881514674119035 3 0 0
1065 339 2 0 -3.5068720430146856 -5.012103861583088 7.569777614946998 3 0 0
1067 339 4 0 -3.081698615364437 -4.940190387104334 7.748199034601727 3 0 0
551 167 4 0 -2.7525612004576026 -4.796400315607991 7.595361211410589 3 0 -1
549 167 2 0 -2.2682192974582867 -4.792458237728341 7.593095096496514 3 0 -1
550 167 4 0 -1.8210659438046006 -4.794787353519276 7.60570962895107 3 0 -1
480 144 2 0 -1.0510128394815732 -4.605326629872225 7.699526400800355 3 0 -1
481 144 4 0 -1.413823980148802 -4.7650371296431215 7.525182630213628 3 0 -1
222 58 2 0 -4.773865071658026 -3.953358482108392 7.870759324654129 3 0 -1
223 58 4 0 -5.130106796511212 -4.023421688273001 8.151260788091852 3 0 -1
224 58 4 0 -4.419846540265449 -3.8941440785473276 7.590800285838899 3 0 -1
1501 484 4 0 -4.091271312017098 -3.9923808675814287 7.3706298213379124 3 0 0
661 204 4 0 -0.3070859168549278 -4.464369345927457 7.6393389720449125 3 0 -1
482 144 4 0 -0.6484994645929296 -4.422881451609416 7.8701870206175695 3 0 -1