LAMMPS data file via write_data, version 4 Feb 2025, timestep = 8500000, units = lj

1550 atoms
4 atom types
1050 bonds
1 bond types
625 angles
2 angle types

-8.262893 8.262893 xlo xhi
-8.262893 8.262893 ylo yhi
-8.262893 8.262893 zlo zhi

Masses

1 1
2 1
3 0.1
4 0.1

Bond Coeffs # harmonic/omp

1 100 0.45

Angle Coeffs # harmonic/omp

1 100 180
2 100 109.471

Atoms # full

1527 493 2 0 -6.770404157495538 -7.5262462525416804 -7.420855694231528 1 1 1
712 221 4 0 -7.101733368056195 -6.932316677291537 -7.562835494272238 0 1 1
1528 493 4 0 -6.997704491533612 -7.276865878540869 -7.700205047314458 1 1 1
1529 493 4 0 -6.549284797553733 -7.765138088638701 -7.15740549025015 1 1 1
1307 419 4 0 -6.335778927397632 -7.835463835206312 -6.841678916117622 0 0 0
1486 479 4 0 -0.8226760988194357 -7.755540371545784 -7.685346312613726 0 0 0
1002 318 2 0 -0.3460829877131742 -7.22464177257905 -7.703378793424649 1 0 0
1485 479 2 0 -0.8596570234129054 -8.16054992082526 -7.580317533984537 0 0 0
1004 318 4 0 -0.7414594600117618 -7.374780658570329 -7.590045047948885 1 0 0
711 221 2 0 -7.38953483143304 -6.614502677421139 -7.587057222776006 0 1 1
401 117 4 0 -8.076501230640176 -6.177501163999125 -7.562820029237874 0 0 1
713 221 4 0 -7.694372943008604 -6.276398850660295 -7.602871413886012 0 1 1
532 161 4 0 -3.889885411393635 -5.9841374833781495 -6.8257048965213505 0 1 0
531 161 2 0 -3.559156397077378 -5.713137114215501 -6.932507666723059 0 1 0
1324 425 4 0 -3.5132308835144817 -5.856414932582368 -8.225085462649842 0 1 0
227 59 4 0 -3.9345812488033918 -6.365802805442902 -6.69527748208374 0 0 0
1085 345 4 0 -3.3028585391818712 -5.526127430540866 -8.173606314520834 0 0 1
1083 345 2 0 -3.1658823737439783 -5.100029691356358 -8.002607486710392 0 0 1
533 161 4 0 -3.203680017169677 -5.431139424522392 -7.037468387309796 0 1 0
1084 345 4 0 -3.0424584245589665 -4.710149824287086 -7.8423689058061 0 0 1
956 302 4 0 -2.72066348040641 -4.720798146945199 -7.584550324542485 0 0 0
954 302 2 0 -2.4157637836502417 -4.507589415248059 -7.349454645780295 0 0 0
955 302 4 0 -2.0974357142452744 -4.285450183218969 -7.112745676880326 0 0 0
715 222 4 0 -1.8035373381488777 -4.042372787454213 -7.01399219036785 0 0 1
714 222 2 0 -1.4608742222516071 -3.8839615263559435 -6.727510192826164 0 0 1
1345 432 4 0 -5.636933462119226 -1.9343313315981214 -7.412812875561777 0 0 1
1344 432 2 0 -5.21760285141809 -1.943966321817238 -7.565274514867351 0 0 1
890 280 4 0 -5.879107764545883 -1.7901862126762722 -7.136909631620105 0 0 0
453 135 2 0 -4.151776882726534 -2.165321755351527 -7.643913222360681 0 0 1
455 135 4 0 -3.7737249288763826 -2.2673095921041817 -7.875969052343681 0 0 1
671 207 4 0 -3.454184904489823 -2.388741773586643 -8.077110566006494 0 0 0
454 135 4 0 -4.533750632123071 -2.060027698231275 -7.426250339704156 0 0 1
1346 432 4 0 -4.792771945372813 -1.9540223530608014 -7.7097688698396505 0 0 1
786 246 2 0 -0.8258750784734581 -1.675775822446649 -8.238540759727064 0 0 1
888 280 2 0 -5.977162922396695 -1.5740181337002055 -6.751984977515742 0 0 0
788 246 4 0 -0.9580701844860027 -1.466224460852444 -7.897707076286761 0 0 1
203 51 4 0 -1.1781047084527991 -0.23835609228050722 -7.60438898573702 0 0 0
201 51 2 0 -1.0681851353099767 -0.67560424287362 -7.646243064621125 0 0 0
202 51 4 0 -0.9587771846519922 -1.1148140160736555 -7.694646322910352 0 0 0
1305 419 2 0 -6.28334115936985 -7.626396363442571 -6.412862845032812 0 0 0
1306 419 4 0 -6.231269799183896 -7.433056293580257 -6.020777598843627 0 0 0
225 59 2 0 -3.913157491384546 -6.706013391022815 -6.387311118117391 0 0 0
634 195 4 0 -4.4521112703718 -8.170778028402003 -5.700298599789718 0 1 0
635 195 4 0 -4.2032667173732605 -7.321898888660439 -5.987772597235203 0 1 0
633 195 2 0 -4.3249698760130775 -7.744261161529636 -5.843533934501431 0 1 0
226 59 4 0 -3.8960933213645803 -7.040775916231096 -6.087850646155927 0 0 0
1530 494 2 0 -0.07247590789398035 -8.035768385637827 -6.09192956780145 0 1 0
856 269 4 0 -0.7484255879795555 -8.136727658954895 -6.4556771531488755 0 0 0
716 222 4 0 -1.111798052966803 -3.743689529549198 -6.451326335420886 0 0 1
460 137 4 0 -0.5872972973772572 -4.212255273723422 -5.48856114417688 0 0 1
461 137 4 0 -0.8340313062691419 -3.6788737190532963 -6.133002004689332 0 0 1
459 137 2 0 -0.7067612068351462 -3.9487815554024843 -5.805784702776391 0 0 1
1363 438 4 0 -0.2814310521517486 -4.46038492307013 -5.533382171260158 0 1 1
1362 438 2 0 -0.06748222091206585 -4.696043403923564 -5.220400600612475 0 1 1
824 258 4 0 -2.2801532854425877 -1.8242304545539352 -4.965680942364348 0 0 0
440 130 4 0 -0.1871815031569343 -1.8926690196950666 -5.714663978478162 0 0 0
196 49 4 0 -5.729773359637801 -1.4749661285177698 -5.271987186902193 0 0 0
197 49 4 0 -5.895660185044252 -1.1198421880192844 -6.105248929431543 0 0 0
889 280 4 0 -6.072171960005565 -1.3585166594465279 -6.379960127958758 0 0 0
195 49 2 0 -5.815678056226001 -1.3037444994379659 -5.680098951341587 0 0 0
329 93 4 0 -1.9810905261465521 -1.5483939029768519 -4.937175446114571 0 0 1
133 28 4 0 -0.27406541027031417 -1.551140394856378 -5.926326376117136 0 0 -1
132 28 2 0 -0.6575781829706997 -1.325025822337622 -5.844478511258526 0 0 -1
328 93 4 0 -1.338293464796785 -1.1824879070416954 -5.505090725339734 0 0 1
134 28 4 0 -1.0074732968629112 -1.1183353879165965 -5.750326700639835 0 0 -1
327 93 2 0 -1.6492556682570683 -1.3646930207717487 -5.232141242635611 0 0 1
271 74 4 0 -8.173987124395538 -8.25541579832786 -3.6414057045721435 0 0 0
386 112 4 0 -0.8214910926572684 -1.4478736018016736 -0.5692505027332643 0 0 0
186 46 2 0 -6.14690396573931 -8.175543301352247 -3.3784353266490132 0 0 -1
609 187 2 0 -4.061435051905722 -8.171214940065989 -3.934372522065819 0 1 0
611 187 4 0 -4.126597115995131 -7.907597787673868 -3.553220407243269 0 1 0
1030 327 4 0 -2.311298503238008 -4.517618895972244 -3.694951639417267 0 0 0
1029 327 2 0 -2.615531260749241 -4.185360814426289 -3.5797452045051115 0 0 0
1031 327 4 0 -2.916115383584072 -3.8417557773953943 -3.4602100190714458 0 0 0
1329 427 2 0 -2.732693767387968 -2.40254689986933 -3.589200988628634 0 0 -1
1331 427 4 0 -2.7008256771582597 -2.189939711119025 -3.9955691945868295 0 0 -1
823 258 4 0 -2.415425833372752 -2.3251665573983917 -4.242135844808409 0 0 0
822 258 2 0 -2.3408097531089114 -2.0757311220723 -4.611518009084909 0 0 0
691 214 4 0 -4.536617461753514 -0.5549272274319225 -3.4214658673333602 0 0 1
690 214 2 0 -4.389839892958439 -0.1518130461617781 -3.4181367314128934 0 0 1
971 307 4 0 -7.197711828313881 -8.089710935170693 -2.20192374483734 1 0 0
10 2 3 0 -7.1589794258883614 -7.193924670048225 -1.7988913903613735 0 0 0
800 250 4 0 -6.923568714645574 -6.866602762119964 -1.8446373590621803 0 0 0
8 2 3 0 -7.05098367400875 -7.914531884885358 -1.87399724748402 0 0 0
9 2 3 0 -7.7311543680895936 -7.670163741029061 -1.7885482592764652 0 0 0
6 2 1 0 -7.295644188990044 -7.606159944019896 -1.6701072556482834 0 0 0
608 186 4 0 -7.946133487218589 -8.008398264221183 -1.8172216588858987 0 1 -1
188 46 4 0 -5.684049823735298 -8.043084500772279 -3.345821500595455 0 0 -1
1354 435 4 0 -4.180740014167109 -7.738668605615523 -3.2007455653476797 1 0 0
1353 435 2 0 -4.337978672406869 -7.3469359770558045 -2.9181913870818694 1 0 0
1355 435 4 0 -4.466494621702983 -6.987560955306398 -2.6625563260484624 1 0 0
865 272 4 0 -4.214111941381032 -6.716785989563039 -2.5058001288714293 1 0 0
1193 381 4 0 -0.33291838042573463 -8.085593570948694 -2.3470419426804554 0 1 0
1191 381 2 0 -0.39555012074193835 -7.6573195333363575 -2.293417543444937 0 1 0
1192 381 4 0 -0.4535015011734158 -7.227414024591385 -2.23713910656589 0 1 0
730 227 4 0 -0.6735908668914229 -7.086402950153456 -1.9251094242501592 0 0 0
798 250 2 0 -7.1348905705569665 -6.457240712970516 -1.8112144714467928 0 0 0
799 250 4 0 -7.36335228787946 -6.043079817545872 -1.7751072738975562 0 0 0
864 272 2 0 -3.997314749143477 -6.592965706147068 -2.137334770283075 1 0 0
866 272 4 0 -3.782293616447367 -6.4596593680819865 -1.7668122030222924 1 0 0
1383 445 2 0 -0.3435210154501153 -5.231410176403472 -2.2868212663019873 0 1 0
1385 445 4 0 -0.1912792509561603 -5.61630067520245 -2.143280203135721 0 1 0
191 47 4 0 -3.9516644592874686 -3.3488408848484266 -1.6926763619054268 0 0 0
12 3 3 0 -2.8976759047536307 -3.6103976782021854 -3.1124564106841746 0 0 0
1022 324 4 0 -0.1604328211817325 -4.629508677683541 -2.37793141863729 0 0 -1
1384 445 4 0 -0.5001850114788768 -4.847700759347189 -2.4235070838800197 0 1 0
764 238 4 0 -7.440315103169946 -1.853856672476633 -2.2182357150267915 0 0 1
553 168 4 0 -7.162839567143392 -2.0640800654279934 -2.029385882187132 0 0 0
552 168 2 0 -7.23978888870241 -2.4281757697621953 -1.8042153249273463 0 0 0
190 47 4 0 -3.468118117099321 -3.14060222802911 -2.450031917530847 0 0 0
189 47 2 0 -3.7045417230667796 -3.243627616911681 -2.067826869976189 0 0 0
1330 427 4 0 -2.7670218282445265 -2.625584346232636 -3.1798977740307794 0 0 -1
15 3 3 0 -2.5990987315517056 -2.965574834260823 -3.1543624187725485 0 0 0
13 3 3 0 -3.255292400553261 -3.033779569080199 -2.7839438233662435 0 0 0
14 3 3 0 -2.5884078241177186 -3.3203738365027253 -2.5052886799210032 0 0 0
11 3 1 0 -2.8257879031049296 -3.229232645557078 -2.9014203358505206 0 0 0
833 261 4 0 -2.486937822218103 -2.948848543359473 -2.410038059726354 0 1 1
831 261 2 0 -2.325563718960999 -2.6417569349257595 -2.1082362225569744 0 1 1
832 261 4 0 -2.172990540422721 -2.344494641051487 -1.8150854496573976 0 1 1
762 238 2 0 -7.433545057930689 -1.4072342176975225 -2.232564063310748 0 0 1
877 276 4 0 -7.12416279485158 -0.05214946252302167 -2.7260361755955747 1 0 0
763 238 4 0 -7.417936018548016 -0.9730866061526254 -2.2482844143777636 0 0 1
878 276 4 0 -7.114489112934555 -0.7185367719576793 -2.124186791344664 1 0 0
876 276 2 0 -7.119967179747814 -0.38730182907878347 -2.4290523547164056 1 0 0
958 303 4 0 -5.305568520633742 -0.23390614968562026 -1.8893844353463711 1 0 0
1313 421 4 0 -5.625968616901562 -0.3770283338254268 -2.0977546316823394 1 0 0
1311 421 2 0 -5.963934540978337 -0.11036117502967777 -2.1770737483200104 1 0 0
957 303 2 0 -4.922960813417404 -0.4407412666002796 -1.7168372759474193 1 0 0
7 2 3 0 -7.245354685742974 -7.65047775943511 -1.2231257815466883 0 0 0
128 26 4 0 -7.598945306260024 -8.017662189959113 -0.2893138359367607 0 -1 0
326 92 4 0 -7.404601552569565 -7.721497808367292 -0.4429679402462262 1 0 0
324 92 2 0 -7.293572360801955 -7.4013060270039945 -0.12599084355859852 1 0 0
279 77 2 0 -2.9476952992781786 -8.168210386704363 -0.846438667409669 0 0 0
281 77 4 0 -2.773412910413263 -7.96612102186245 -0.43769481334227245 0 0 0
1492 481 4 0 -2.6488222117126377 -7.841401186065327 -0.06348007641743411 0 1 0
729 227 2 0 -0.68805435259842 -6.833092119316663 -1.5829979454504817 0 0 0
641 197 4 0 -7.461902259248602 -5.755230882819147 -1.4822962229299004 0 1 0
639 197 2 0 -7.48780716167801 -5.475672656083124 -1.1251581913935929 0 1 0
1468 473 4 0 -7.868383050427178 -5.200033853357146 -0.5912687941220394 1 1 1
640 197 4 0 -7.5172860235695245 -5.203943382127348 -0.7716016157371164 0 1 0
1467 473 2 0 -8.0651435376085 -5.354302971861976 -0.20026274957990814 1 1 1
274 75 4 0 -3.7556189069635746 -6.527801124148279 -1.3652049225810863 0 0 0
273 75 2 0 -3.431669099809886 -6.406375750253494 -1.084263455390435 0 0 0
275 75 4 0 -3.080947247184301 -6.266445820127771 -0.7752739923603443 0 0 0
92 19 3 0 -2.7067934345801383 -6.24641241658391 -0.708800917096161 1 0 0
91 19 1 0 -2.560067309270357 -6.097237655053365 -0.32149484780122045 1 0 0
94 19 3 0 -2.1279825947932136 -6.006022518030076 -0.35097955797380775 1 0 0
95 19 3 0 -2.777182042658633 -5.727921411958237 -0.21761202857769996 1 0 0
164 38 4 0 -3.033673895424438 -5.434418454975376 -0.3491803843102141 0 0 0
1531 494 4 0 -0.3911164178834034 -8.26242486041764 -6.279959211297285 0 1 0
162 38 2 0 -2.894436659321736 -5.011290496865208 -0.24210123773986506 0 0 0
93 19 3 0 -2.628271636473493 -6.406302847442585 -0.004164509800397655 1 0 0
731 227 4 0 -0.703619221513967 -6.5704697918568495 -1.2228111113040991 0 0 0
1523 491 4 0 -0.5402839171783094 -6.492274294216015 -0.8569311664550373 0 1 0
1521 491 2 0 -0.18072662849458324 -6.508702290548638 -0.5363677421830432 0 1 0
1133 361 4 0 -7.876924103728745 -3.5368541322101104 -0.7826500733246151 1 -1 1
409 120 4 0 -4.264170053989851 -3.3906994618183504 -1.450263834639963 0 0 1
84 17 3 0 -2.4902761606889228 -3.5175983475008405 -0.22957793551302283 1 0 0
163 38 4 0 -2.753638034998175 -4.595459352812349 -0.13225326736328932 0 0 0
347 99 4 0 -2.2555730458947503 -3.500084249866612 -0.5392511165987718 0 0 0
85 17 3 0 -2.611645512248035 -4.221730176878391 -0.16834466228409334 1 0 0
1131 361 2 0 -7.606723312670606 -3.2765488663601126 -1.0430853579884816 1 -1 1
1132 361 4 0 -7.344499654758241 -3.029819266746749 -1.2845303268698092 1 -1 1
554 168 4 0 -7.317559252041566 -2.784003990386406 -1.5837653992060465 0 0 0
221 57 4 0 -7.933363303975717 -1.7687039965738676 -0.01380173664907294 0 0 -1
408 120 2 0 -4.480802730476184 -3.0382268330842854 -1.2831767592358962 0 0 1
410 120 4 0 -4.70091551950825 -2.676583777848699 -1.1167409956052299 0 0 1
935 295 4 0 -4.799447917787589 -2.401421269460316 -0.8464228837143084 1 0 0
933 295 2 0 -4.615995308279729 -2.0012078436656218 -0.7804299060357612 1 0 0
345 99 2 0 -1.9049176059774404 -3.2046514947989797 -0.4737101987984125 0 0 0
643 198 4 0 -2.321020339691772 -2.235787499759133 -1.4297863127654982 0 0 0
642 198 2 0 -2.3152261635642164 -1.9693914744635308 -1.0858970178303313 0 0 0
644 198 4 0 -2.3137775135875565 -1.7020622573931603 -0.7216801740756483 0 0 0
346 99 4 0 -1.5590955514969376 -2.9071457343047586 -0.415507591365757 0 0 0
514 155 4 0 -1.4794493097034507 -2.5205426312038197 -0.4523999020393618 0 0 0
515 155 4 0 -1.0347196526315428 -1.7560783833796967 -0.6729084245123164 0 0 0
513 155 2 0 -1.2509182211666174 -2.131290267653831 -0.563732657565078 0 0 0
1180 377 4 0 -5.007910202632696 -0.7516832055702917 -0.21750564246071744 1 0 0
934 295 4 0 -4.443878897325872 -1.6180196602472985 -0.7203386266542648 1 0 0
959 303 4 0 -4.527697278351542 -0.6433748676344769 -1.541575258239474 1 0 0
69 14 3 0 -4.64155807052073 -0.8473689780770696 -1.2128236908425343 1 0 0
638 196 4 0 -3.6774341240218034 -0.4206196043765961 -0.9453320291415979 0 0 0
66 14 1 0 -4.44212913176925 -0.8450077034819695 -0.8188655127164192 1 0 0
70 14 3 0 -4.726742172582477 -0.6488046413487505 -0.48384551162041767 1 0 0
68 14 3 0 -4.042621387843778 -0.5881717455062306 -0.8530560869305182 1 0 0
67 14 3 0 -4.336469861926653 -1.2511062244693616 -0.7041406495749402 1 0 0
463 138 4 0 -1.713076750152112 -0.2719065026613404 -1.110636886347457 0 0 1
462 138 2 0 -2.1137909017439274 -0.10941710358328526 -0.9374124252780847 0 0 1
637 196 4 0 -2.8378387988342575 -0.04598800156090348 -0.9878488420562825 0 0 0
1122 358 2 0 -2.0130685613192845 -1.3834427179454185 -0.06434781123631717 0 0 0
385 112 4 0 -0.12557373806705696 -0.8943642568850813 -0.41135866006531185 0 0 0
636 196 2 0 -3.2556292575782084 -0.23440821118921187 -0.967769384127582 0 0 0
1124 358 4 0 -2.334891512366048 -1.438738288527891 -0.40353280302957995 0 0 0
384 112 2 0 -0.46544187615208965 -1.1587692016111732 -0.4955385819327842 0 0 0
479 143 4 0 -6.907357810285023 -6.846620636728974 0.3627960581165167 0 0 0
325 92 4 0 -7.196128397458092 -7.087480768368244 0.18997929391811788 1 0 0
477 143 2 0 -6.650153233385287 -6.864853244220275 0.7446190111180289 0 0 0
478 143 4 0 -6.389485618286859 -6.890162479535582 1.1320720612852042 0 0 0
1243 398 4 0 -6.304558097993013 -7.076875935495619 1.4754714632292025 1 1 0
1242 398 2 0 -5.986538945968091 -7.367932000266344 1.646689891260055 1 1 0
1493 481 4 0 -1.9928578744305414 -8.09228728419206 0.5537740940362872 0 1 0
416 122 4 0 -2.7832994043706183 -6.780228142922141 1.1780856443528738 0 0 0
414 122 2 0 -2.658748855302043 -6.665691619960778 0.7667993074320166 0 0 0
1491 481 2 0 -2.3300272974564384 -7.969269081238374 0.24742225438273238 0 1 0
794 248 4 0 -1.766834137676777 -8.021207817805973 0.8832004887230706 0 0 0
1469 473 4 0 -8.256991591187857 -5.514055399679069 0.17697619334558404 1 1 1
1391 447 4 0 -8.116284778864667 -5.741968913301789 0.44963531316199445 1 1 0
415 122 4 0 -2.530907355082512 -6.545950451108067 0.34988923766876784 0 0 0
768 240 2 0 -0.4981264700032933 -6.172642984858241 0.520167728724632 0 0 0
769 240 4 0 -0.8611915113638049 -5.902427938580113 0.6064045607528433 0 0 0
313 88 4 0 -1.2133317456370107 -5.8298868218015105 0.40908220397853473 0 0 0
770 240 4 0 -0.1312225623618855 -6.451552346356662 0.44243875249721326 0 0 0
312 88 2 0 -1.6222835478879845 -5.95054888304311 0.21701138012290633 0 0 0
927 293 2 0 -3.551789736746352 -3.347140468455973 0.39997733876764424 1 0 0
929 293 4 0 -3.4767339622286757 -3.6992406051143716 0.15234458581461546 1 0 0
82 17 3 0 -2.429934301922662 -3.8585504067561405 0.41940890650636015 1 0 0
1081 344 4 0 -2.40409396259539 -4.145622993990089 0.6909063360376059 1 0 0
1080 344 2 0 -2.21682572522686 -4.258651414495108 1.068929286732794 1 0 0
83 17 3 0 -3.079623600077561 -3.7796249255011136 0.10941425926096104 1 0 0
81 17 1 0 -2.6562267041635974 -3.8511780404351312 0.029803983493312865 1 0 0
1082 344 4 0 -2.0390712408858978 -4.380047778671214 1.4482174482192574 1 0 0
1393 448 4 0 -1.8521190652919128 -4.702923718608422 1.5562115758929875 0 1 0
1168 373 4 0 -6.6738853271238865 -2.092677687068771 0.661362659727394 1 0 0
719 223 4 0 -7.5583932504779145 -1.8698426121463703 0.13366060599964655 0 0 0
1169 373 4 0 -6.144468139287598 -1.8583301108463113 1.3092786695490757 1 0 0
1167 373 2 0 -6.403321979660816 -1.9767836856255407 0.9916078094537281 1 0 0
218 56 4 0 -3.7693631472179847 -3.119663245205617 0.984796340021706 0 -1 0
928 293 4 0 -3.6238350494243683 -2.9781667382707546 0.6486290515766993 1 0 0
216 56 2 0 -3.699028864837107 -3.0629291658658206 1.4347879357092348 0 -1 0
717 223 2 0 -7.284002314991313 -1.5393191555134884 0.24662190860980834 0 0 0
718 223 4 0 -7.021307270270555 -1.213667526664516 0.359857109813523 0 0 0
994 315 4 0 -6.865263889886568 -0.8660639273689716 0.2782970326463197 1 0 0
1181 377 4 0 -5.643421479493338 -0.7023146874799935 0.4610568988128631 1 0 0
1179 377 2 0 -5.321925024259685 -0.7246761212412065 0.11799466699198845 1 0 0
993 315 2 0 -6.437959271475101 -0.7362100104421282 0.2906824583648961 1 0 0
995 315 4 0 -5.9860974851813715 -0.5985537013879554 0.30565458804435736 1 0 0
1123 358 4 0 -1.698899186456399 -1.3235342336997757 0.26551802324875645 0 0 0
593 181 4 0 -1.8551396866790795 -1.4157957889919621 0.6466766800178183 0 0 0
591 181 2 0 -1.8174699151220375 -1.2642009406307793 1.0825483833141323 0 0 0
592 181 4 0 -1.7757882276329868 -1.1131883680867012 1.5150902988757158 0 0 0
600 184 2 0 -5.695557290632427 -8.231207148002044 2.311311199034803 0 1 -1
602 184 4 0 -5.738133514268481 -8.049764625225922 1.8872878916706008 0 1 -1
1244 398 4 0 -5.671869564298138 -7.669282578640287 1.8270093723365344 1 1 0
1394 448 4 0 -1.1164844184816947 -4.962382062790388 1.8864439575660898 0 1 0
1392 448 2 0 -1.4889876479329376 -4.828797506956311 1.71794667854152 0 1 0
599 183 4 0 -6.690228051559353 -2.7094659932557903 3.273850959550192 0 0 0
597 183 2 0 -6.363696714400058 -2.46048980235681 3.0913391943354895 0 0 0
598 183 4 0 -6.01450941264859 -2.2042370028409404 2.887440282743427 0 0 0
1375 442 4 0 -6.191737154373354 -2.0279073504987206 2.5655403749361656 1 0 0
1374 442 2 0 -6.118474888086254 -1.9680384135073135 2.122862776041304 1 0 0
1376 442 4 0 -6.049293950793058 -1.9074112071166964 1.6872459800312969 1 0 0
217 56 4 0 -3.63372744287466 -3.018713157548621 1.8943100185624815 0 -1 0
1099 350 4 0 -3.383754873085255 -2.721772925014186 1.9190959639970024 1 0 0
1098 350 2 0 -3.416564425361865 -2.5120629368381078 2.3300229106160484 1 0 0
1154 368 4 0 -3.4816109631207235 -2.002012635819566 3.026252206805133 0 0 0
1100 350 4 0 -3.4421899038073542 -2.310205434763876 2.7496414477374 1 0 0
1196 382 4 0 -0.808695377345362 -3.009781996912974 2.959924018201494 0 0 0
1195 382 4 0 -1.1304197279858799 -2.194113957997786 3.1303722443086204 0 0 0
1194 382 2 0 -0.9648703795129063 -2.6149761882202234 3.040219068382127 0 0 0
1207 386 4 0 -0.998287989300762 -1.8504848259888778 3.004015532772095 0 0 0
1141 364 4 0 -7.326466106425714 -0.9813310323499932 2.1473520790974128 0 -1 0
746 232 4 0 -7.706738054684343 -0.8111430583081634 2.0789675848790647 0 0 0
1140 364 2 0 -7.051129337621651 -1.0749712339096302 2.4718161749157415 0 -1 0
744 232 2 0 -8.125511012349158 -0.8765105598615178 2.297545604835648 0 0 0
1142 364 4 0 -6.767129001520925 -1.1674192635823533 2.7961054588652487 0 -1 0
737 229 4 0 -5.384081106657376 -1.0230001296834093 1.7164779321116634 0 0 0
735 229 2 0 -5.0066203533791995 -1.1885014445658217 1.808417976185884 0 0 0
1073 341 4 0 -6.6307146410221085 -0.8709272981610112 3.0222092748572695 0 -1 0
736 229 4 0 -4.618903376107737 -1.3683648393393817 1.904494086627192 0 0 0
1152 368 2 0 -3.394162343945895 -1.6380173328733068 3.2801813793331593 0 0 0
373 108 4 0 -2.0164841116834538 -0.9555795292189005 1.796640699485195 0 -1 0
495 149 2 0 -2.060545005212093 -0.11364335522085532 3.060647435779367 0 0 0
372 108 2 0 -1.9613259820150215 -0.7262633671895066 2.1705580020014215 0 -1 0
496 149 4 0 -2.0237164120362086 -0.5429930093248625 2.947576583942273 0 0 0
374 108 4 0 -1.9102127182347897 -0.4875288891428981 2.567952059451259 0 -1 0
1208 386 4 0 -0.5527859247988813 -1.095991819003777 3.1612437367411292 0 0 0
290 80 4 0 -0.5495523667699013 -0.7176831157759053 3.075869212073536 0 0 0
288 80 2 0 -0.2718236467386551 -0.40744573744082024 3.269739384704808 0 0 0
1206 386 2 0 -0.7658536443655238 -1.4636078559233028 3.08268062832992 0 0 0
1471 474 4 0 -8.14261663566252 -4.97360466907141 4.849990943520233 1 0 0
649 200 4 0 -8.11632877190568 -5.376471510067259 4.812956116669627 1 0 0
172 41 4 0 -5.360265069525004 -6.212604890300007 4.407053267795764 0 0 0
323 91 4 0 -5.680808596570979 -6.1779991356689505 4.600953601308197 0 0 0
321 91 2 0 -5.9800466402333265 -6.3579891317937705 4.932624498841735 0 0 0
171 41 2 0 -4.991834518138635 -6.01102939565483 4.508184472648336 0 0 0
173 41 4 0 -4.614105589154006 -5.798358113674878 4.600462338154427 0 0 0
724 225 4 0 -4.264119718263431 -5.77456627901685 4.772254183769308 0 1 0
407 119 4 0 -6.938149601287412 -3.5949870246711106 4.963875707232563 0 0 0
358 103 4 0 -6.931989199339403 -3.3779614997894805 4.628349061250282 0 0 1
359 103 4 0 -6.062483579686868 -3.37939889863945 4.4084199784078075 0 0 1
357 103 2 0 -6.499632539250792 -3.380785608021017 4.517895425908598 0 0 1
1176 376 2 0 -5.2741277473567365 -3.5954350742585137 4.334326039153445 1 0 0
1177 376 4 0 -5.733542685331388 -3.61696597097448 4.374657260912033 1 0 0
1178 376 4 0 -4.83327108002571 -3.5704893978506185 4.278997020617221 1 0 0
1077 343 2 0 -4.121662877315561 -3.538532590155467 4.679508416834067 1 0 0
1079 343 4 0 -3.677371183445068 -3.5473797788813672 4.789845106748064 1 0 0
1078 343 4 0 -4.567895472403287 -3.534246798872898 4.562425845354194 1 0 0
943 298 4 0 -3.347723201186408 -3.352206638383727 4.637529102868951 0 0 0
917 289 4 0 -2.401779653484411 -3.5164802180107713 4.229584670084332 0 0 0
944 298 4 0 -2.7400187007778882 -3.6138181008334875 4.032352463781121 0 0 0
942 298 2 0 -3.0426355106493803 -3.485737381565711 4.340832404962166 0 0 0
915 289 2 0 -1.9532718654378 -3.589365310776392 4.330271695082567 0 0 0
916 289 4 0 -1.4989219273758616 -3.64674261341918 4.453567608970405 0 0 0
476 142 4 0 -1.1343279686231091 -3.507498321508218 4.322455573213453 0 1 0
1093 348 4 0 -7.0115611337899235 -2.8080434423405305 3.5077450640516723 1 -1 0
1092 348 2 0 -7.4367242077925875 -2.7948699946701137 3.584952956273999 1 -1 0
709 220 4 0 -8.173405636431353 -3.046132419015416 3.7194490257413695 0 0 0
1094 348 4 0 -7.867526039383432 -2.771871937439454 3.6658102581435266 1 -1 0
474 142 2 0 -0.8278369943898976 -3.2715080003365182 4.533169823821075 0 1 0
475 142 4 0 -0.5171424178924185 -3.03145648108025 4.7283175034423754 0 1 0
1237 396 4 0 -0.34795998891792723 -2.6732000697724896 4.7850901561361185 0 1 0
1071 341 2 0 -6.311350360470078 -0.8959221370799666 3.354499237929628 0 -1 0
1072 341 4 0 -6.014356419551064 -0.9290041578496284 3.678707357512384 0 -1 0
632 194 4 0 -5.648892151267222 -0.8010269836813649 3.5658107251568363 0 0 -1
630 194 2 0 -5.302064149080881 -0.5493288454848853 3.491942226492605 0 0 -1
631 194 4 0 -4.92396893187842 -0.29572548716361213 3.4008499485395736 0 0 -1
559 170 4 0 -4.904363928923582 -0.047465725586299606 3.7038605684039565 0 0 -1
1153 368 4 0 -3.3066502860515423 -1.252172815537788 3.5374944557958345 0 0 0
676 209 4 0 -3.309924665202991 -1.2168896334660402 3.9380397511418863 0 0 -1
675 209 2 0 -3.121590396019082 -1.0625462262562568 4.311625956861687 0 0 -1
677 209 4 0 -2.935906257378157 -0.9145784419437719 4.700259710516089 0 0 -1
668 206 4 0 -7.154164823089756 -7.301997291938739 5.621772237321287 0 0 0
666 206 2 0 -6.778082007667483 -7.086426582453581 5.5098857997203 0 0 0
667 206 4 0 -6.411810700933858 -6.887824688037855 5.40427990215337 0 0 0
141 31 2 0 -4.093277592491643 -6.772513225956025 6.056827696593986 0 0 -1
142 31 4 0 -4.242629566218656 -6.932172199237928 6.456111843114372 0 0 -1
322 91 4 0 -6.268836080543297 -6.533314368233018 5.257361571396484 0 0 0
723 225 2 0 -4.054437374683409 -6.072936533494618 5.063023781719521 0 1 0
725 225 4 0 -3.8369497682629086 -6.354603502203838 5.358550292263972 0 1 0
143 31 4 0 -3.9302589322806627 -6.609798421130378 5.6606201473813815 0 0 -1
338 96 4 0 -1.6983726738157008 -5.339775959636243 6.2670506988752415 0 0 -1
1136 362 4 0 -1.4528111343280772 -5.440429979049343 5.965318380440982 0 0 0
1134 362 2 0 -1.0794321969597893 -5.599758384453415 5.763917489828114 0 0 0
1135 362 4 0 -0.7126065408073187 -5.742884157615097 5.571020403547324 0 0 0
1382 444 4 0 -0.43064806281659634 -6.009717402734602 5.707426520092875 0 1 0
1380 444 2 0 -0.09148089915102439 -6.273348187196714 5.646794796348017 0 1 0
405 119 2 0 -7.333280972756871 -3.600455014144817 5.223188334879096 0 0 0
406 119 4 0 -7.710914896376565 -3.601547084314096 5.4675165175339275 0 0 0
44 9 3 0 -7.796071485346214 -4.2821719862036405 6.195226468459892 0 0 -1
45 9 3 0 -7.823773918516905 -3.6458688206215655 5.833938428385339 0 0 -1
41 9 1 0 -8.063692215753521 -3.983163866111771 5.99430872680305 0 0 -1
442 131 4 0 -7.507303619643562 -4.418401069355106 6.475095147154762 0 0 0
441 131 2 0 -7.106615527099956 -4.2976712702966475 6.587056316599258 0 0 0
1400 450 4 0 -5.391521046781507 -4.141255163605364 5.798536615347463 1 0 0
418 123 4 0 -6.31684428509022 -4.067159421410574 6.6071667584553415 0 0 0
417 123 2 0 -6.022055433580749 -4.164814622753417 6.301194334728369 0 0 0
1398 450 2 0 -5.203273163115748 -3.7841067399574726 5.633190448388436 1 0 0
419 123 4 0 -5.6994395193788945 -4.269457158375523 5.981768668205247 0 0 0
1399 450 4 0 -5.011494673553955 -3.4203778302445382 5.46144720791131 1 0 0
1500 484 2 0 -3.8454180953609916 -3.3196008375267962 6.099542953312997 0 0 0
1501 484 4 0 -4.121390316093303 -3.5263308933697983 6.433415706448716 0 0 0
336 96 2 0 -1.9045095928016473 -4.9345405233009645 6.32558077652694 0 0 -1
337 96 4 0 -2.1204412342288848 -4.528418908885233 6.389877721596987 0 0 -1
1540 497 4 0 -2.27928357415622 -4.210428884056972 6.570871353687426 1 1 -1
394 115 4 0 -4.965639582027328 -2.185471866559472 5.269028395693779 0 -1 0
1502 484 4 0 -3.5984596964290145 -3.1239882246775332 5.778263535360494 0 0 0
395 115 4 0 -4.8142577776075415 -3.0886757276472263 5.390752899923859 0 -1 0
538 163 4 0 -4.926970694531074 -1.813068415530359 5.1192768137520135 0 0 0
393 115 2 0 -4.892724364117922 -2.6253474293061623 5.332762100672933 0 -1 0
748 233 4 0 -3.475688371793908 -2.7707746642001627 5.59555226598977 0 0 0
20 4 3 0 -1.8799678554093573 -1.8787307785291252 6.263249588529826 0 0 -1
747 233 2 0 -3.038411163498614 -2.680180710122222 5.730503439371666 0 0 0
19 4 3 0 -2.4004433343915137 -2.2548128450442846 5.926386463820645 0 0 -1
749 233 4 0 -2.591648884191202 -2.596527933210081 5.864884245345114 0 0 0
16 4 1 0 -2.325010549954233 -1.8926364262448696 6.138469140383083 0 0 -1
18 4 3 0 -2.5781644130125034 -1.8698713924392811 6.507913599309039 0 0 -1
945 299 2 0 -1.087156349308261 -2.01571716373586 6.35837366677792 0 0 -1
946 299 4 0 -0.6450309019621295 -2.0187268989851734 6.473273730653777 0 0 -1
913 288 4 0 -0.39859574242859963 -1.6968475262313436 6.404640492298129 0 0 -1
947 299 4 0 -1.5085819697171468 -2.0100666228901027 6.257487956367132 0 0 -1
811 254 4 0 -0.3755698977792897 -1.806314515594893 7.719748428634454 0 0 0
539 163 4 0 -5.34761701229237 -1.0445337441118772 5.219790354048636 0 0 0
575 175 4 0 -5.412682029028201 -0.6612223075021585 5.106516569099413 0 0 0
573 175 2 0 -5.204663585551333 -0.32563660554441465 5.314871089457287 0 0 0
537 163 2 0 -5.134437402061686 -1.433106953535885 5.171338023172524 0 0 0
17 4 3 0 -2.4163944604265035 -1.5618723546929003 5.887461753481811 0 0 -1
370 107 4 0 -2.9988112200877657 -1.0747034266036886 5.039332106277168 -1 0 0
371 107 4 0 -2.676174077041453 -1.2720717429344197 5.845434884322605 -1 0 0
369 107 2 0 -2.846109988647687 -1.168586376561705 5.432031670344734 -1 0 0
914 288 4 0 -0.15358191959616643 -0.969086388990412 5.967024484938625 0 0 -1
912 288 2 0 -0.27866841413351656 -1.3450681935283242 6.191221276687876 0 0 -1
503 151 4 0 -3.8082946923764696 -6.737185295384195 7.63011197335226 0 1 -1
502 151 4 0 -4.181734676245522 -6.99153419604547 6.851783589708185 0 1 -1
1325 425 4 0 -3.7589333772104085 -6.703501613562921 8.039431135044543 0 1 -1
501 151 2 0 -3.9980567575377415 -6.86527158575929 7.228020174976964 0 1 -1
1323 425 2 0 -3.624413380379626 -6.272413140434748 8.175914640164706 0 1 -1
443 131 4 0 -6.700266358591862 -4.172136958581593 6.7054876370562315 0 0 0
223 58 4 0 -3.880891699495572 -3.7944913945134506 7.612252621947989 0 0 -1
224 58 4 0 -3.840789252112663 -3.5120434316300866 6.726301024963231 0 0 -1
222 58 2 0 -3.86015785233284 -3.6607650120561757 7.167629809798603 0 0 -1