LAMMPS data file via write_data, version 4 Feb 2025, timestep = 800000, units = lj

3100 atoms
4 atom types
2100 bonds
1 bond types
1250 angles
2 angle types

-10.410592 10.410592 xlo xhi
-10.410592 10.410592 ylo yhi
-10.410592 10.410592 zlo zhi
-7.105427357601002e-15 0 0 xy xz yz

Masses

1 1
2 1
3 0.1
4 0.1

Bond Coeffs # harmonic/omp

1 100 0.45

Angle Coeffs # harmonic/omp

1 100 180
2 100 109.471

Atoms # full

305 69 2 0 -9.195433679565229 -6.10528595631362 -9.938322458988369 5 0 0
307 69 4 0 -9.27713877947973 -6.335641850116842 -10.343311668974113 5 0 0
306 69 4 0 -9.118543431519038 -5.875378226890092 -9.558320010966709 5 0 0
1062 321 4 0 -8.333884857547478 -4.963239485114691 -10.376117768835272 5 0 0
655 185 4 0 -10.175098146229061 -3.549653511951341 -9.707055222786396 6 0 1
133 27 3 0 -4.467903619790779 -1.1767997946420792 -9.590834853203315 7 0 0
2538 813 4 0 -4.626041491306077 -0.9733192277338194 -9.933069019222492 7 0 0
1471 457 4 0 -5.465869409102223 -0.1574160945804728 -9.936755872238258 6 0 0
2539 813 4 0 -5.060850744604746 -0.2316054252217601 -10.034666023182428 7 0 0
2537 813 2 0 -4.846189201462673 -0.5934087612094636 -9.977647245125398 7 0 0
2035 645 4 0 -1.8104128618799358 -0.19154476877844218 -9.664845823878125 6 0 1
869 257 2 0 -5.781738480236162 -10.0402370466027 -8.80792575238801 4 0 1
870 257 4 0 -5.853222021887108 -10.174280970880275 -9.228041942180576 4 0 1
1997 633 2 0 -1.7845752214500124 -9.704249666724698 -9.291401234370197 4 0 0
1998 633 4 0 -2.2294112503446435 -9.62533241901886 -9.215699430505556 4 0 0
1999 633 4 0 -1.3308877180870837 -9.79016508489697 -9.361524090094303 4 0 0
925 275 4 0 -1.0032096926962613 -10.053676817843124 -9.404138924712065 2 0 0
923 275 2 0 -0.6590524580081372 -10.313576600540996 -9.412274440258525 2 0 0
653 185 2 0 -9.863629299449457 -3.353772873257146 -9.428457744960268 6 0 1
654 185 4 0 -9.55702102561965 -3.165844320475686 -9.157830134645511 6 0 1
1995 632 4 0 -9.358973182540016 -3.1961167644784947 -8.80647620640253 6 0 0
1994 632 2 0 -8.907381503525144 -3.0827226949113973 -8.718171467051492 6 0 0
2667 856 4 0 -7.376596769471101 -1.2192448361303505 -8.766809829046267 20 1 1
132 27 3 0 -4.374438597181395 -1.6153090157810333 -9.02242482707411 7 0 0
131 27 1 0 -4.181196763185249 -1.2943964240007304 -9.282929239240588 7 0 0
135 27 3 0 -3.798653185438339 -1.4514721326537057 -9.481903036966516 7 0 0
134 27 3 0 -4.074260396684327 -0.92379626704356 -9.019543463685316 7 0 0
2173 691 4 0 -3.7628882697181556 -0.8969374192829616 -8.799486972603692 6 0 1
2668 856 4 0 -7.208215312232239 -0.5000024733099995 -9.224299961646834 20 1 1
2666 856 2 0 -7.293365229324154 -0.8619131781647198 -8.99191048937428 20 1 1
2171 691 2 0 -3.4502464427436355 -0.5609550865314077 -8.798461926630624 6 0 1
2172 691 4 0 -3.1271788588037426 -0.2216792246800896 -8.796830047271259 6 0 1
828 243 4 0 -2.9180533806787476 -0.4141721467869832 -9.074035297222112 6 0 1
827 243 2 0 -2.49109373819807 -0.2611374775378703 -9.233029597690209 6 0 1
829 243 4 0 -2.0899617052173447 -0.1358539128949996 -9.379335833705634 6 0 1
2033 645 2 0 -1.3733298308224455 -0.35233301329341593 -9.509598287730507 6 0 1
2034 645 4 0 -0.981870616021995 -0.5058004286477047 -9.384829794713063 6 0 1
1071 324 4 0 -0.8341581332019636 -0.6392859156635335 -9.064814468679513 6 0 1
871 257 4 0 -5.699642654544 -9.918039385835876 -8.374870644319698 4 0 1
1824 575 4 0 -5.541455874371296 -9.965354411542034 -8.028912878676897 12 1 0
3100 1000 4 0 -0.8796865173665154 -6.138143918264762 -8.129538360802359 12 1 0
684 195 4 0 -0.9464881070172222 -6.357380875802119 -7.824136922897848 4 0 0
3098 1000 2 0 -0.7917533881540955 -5.77721781489525 -8.406740882664062 12 1 0
3099 1000 4 0 -0.7063039420504165 -5.4214693058759265 -8.670062839151578 12 1 0
1936 612 4 0 -0.39813182480126486 -5.237515913355879 -8.457592987595177 12 1 0
1934 612 2 0 -0.0048062468916771905 -4.98314599449935 -8.400616949086467 12 1 0
2814 905 4 0 -7.777038707632892 -3.682383165679341 -7.879409599928239 14 1 1
1996 632 4 0 -8.482689607061557 -2.994738914241732 -8.638116989855682 6 0 0
2815 905 4 0 -8.193154804064205 -3.0876427113351808 -8.376586886352134 14 1 1
2813 905 2 0 -7.986422413513232 -3.376180132418521 -8.125907273361962 14 1 1
2532 811 4 0 -4.50338374344882 -1.6122367007194267 -8.611806004117966 -1 -1 0
2531 811 2 0 -4.332468521509423 -1.5682634561109428 -8.206702513508922 -1 -1 0
751 217 4 0 -2.2412286427668295 -1.1052634835431139 -7.940624204175913 0 -1 0
749 217 2 0 -2.044022947176023 -0.7454705683096314 -8.153585367673829 0 -1 0
750 217 4 0 -1.848354016265688 -0.401746186181251 -8.34680573573012 0 -1 0
2167 689 4 0 -1.460671367918863 -0.30383050160786595 -8.386711773703613 2 -1 1
1070 324 2 0 -0.6600399416565743 -0.7143761363295749 -8.62766712814679 6 0 1
2737 879 4 0 -0.549075245937745 -0.5704653467866958 -7.855906575536267 14 1 1
1072 324 4 0 -0.486700115289608 -0.7787466679613662 -8.21449331960658 6 0 1
1823 575 2 0 -5.638927576475054 -9.745554195925052 -7.642595886735165 12 1 0
1825 575 4 0 -5.744986101607128 -9.522999645991968 -7.248810469302475 12 1 0
1333 411 4 0 -9.911743026777133 -7.26053642649615 -7.027286967743469 13 1 1
1915 605 4 0 -10.296604112801385 -7.118528535541463 -6.951516660317084 5 0 0
1331 411 2 0 -9.464693040433165 -7.178880022121239 -6.978066952084078 13 1 1
2428 776 4 0 -8.889133017912558 -6.906930713280838 -7.2647661494790885 14 1 1
2427 776 4 0 -8.152225102791558 -6.369399675034801 -7.298628930975749 14 1 1
2426 776 2 0 -8.528040923451334 -6.642341022709475 -7.2807635911889665 14 1 1
2664 855 4 0 -7.858328176991987 -6.473502009079128 -7.016956168561951 13 1 0
2663 855 2 0 -7.408138583428563 -6.531871265564244 -6.946642180776804 13 1 0
683 195 2 0 -0.6006557474888474 -6.498524695289885 -7.5624793931707766 4 0 0
685 195 4 0 -0.2607237275612846 -6.637402714084283 -7.309222543489273 4 0 0
2641 847 4 0 -0.03727460833343521 -6.928837391324809 -7.199711824461885 13 1 0
997 299 4 0 -2.643697166851595 -3.08379062029638 -6.956956422673437 5 0 0
922 274 4 0 -2.2528315749006556 -3.0083608927183327 -6.988290797454362 -3 -1 1
2480 794 2 0 -10.257944609986868 -2.05772004333312 -7.420822325118824 14 1 0
2481 794 4 0 -9.814371736619137 -1.903975036321567 -7.514320504480655 14 1 0
1024 308 4 0 -4.043116307580956 -1.8549516248237676 -7.599982274111579 6 0 0
2194 698 4 0 -1.5122479133364486 -2.0171957356792856 -7.011484860923115 -2 -1 1
1666 522 4 0 -9.531495551047685 -1.6206964236568595 -7.477633629704416 14 1 1
1664 522 2 0 -9.131537759864607 -1.4706614214931335 -7.282196115180155 14 1 1
1665 522 4 0 -8.761653223421103 -1.31915561060279 -7.100319051070116 14 1 1
2533 811 4 0 -4.158930604874437 -1.5296264714814694 -7.793620444591606 -1 -1 0
1022 308 2 0 -3.849022247775558 -1.680034203573742 -7.221970645260857 6 0 0
2192 698 2 0 -1.224727208017745 -1.6811636861104908 -7.041956720549143 -2 -1 1
2193 698 4 0 -0.9229733904556063 -1.3263495095029896 -7.070478520497236 -2 -1 1
2736 879 4 0 -0.6361730467766566 -1.0762855668361588 -7.093731885290028 14 1 1
1573 491 4 0 -7.83375949703848 -0.2020371050520815 -7.764100363988063 7 0 1
1571 491 2 0 -7.695341701123645 -0.12482644278030186 -7.302370142115963 7 0 1
895 265 4 0 -4.374444233624302 -0.12654620757224322 -7.119475898156935 8 0 1
2735 879 2 0 -0.5964884724140145 -0.8117392995176438 -7.484434874055621 14 1 1
1183 361 4 0 -5.706904279109356 -9.781964395593594 -6.928853600657186 11 1 0
1181 361 2 0 -5.84089585832185 -9.71879580198431 -6.4939289168544665 11 1 0
936 279 4 0 -9.866624869009906 -7.7926638273242945 -6.29276844518125 4 0 0
1332 411 4 0 -9.015767740781145 -7.082308695047704 -6.921299158262086 13 1 1
962 288 2 0 -8.24691571802012 -7.124160530598175 -6.322646435137017 4 0 1
963 288 4 0 -8.467477035566056 -7.022487283533698 -6.696781589317535 4 0 1
2665 855 4 0 -6.956458800769592 -6.582804528149078 -6.871650369270126 13 1 0
426 109 4 0 -6.72477823333962 -6.802381321997278 -6.615840002744985 5 0 0
425 109 2 0 -6.653182637944234 -6.892345957106341 -6.162650915044046 5 0 0
2674 858 4 0 -3.6157069833409157 -3.3848509884024027 -6.195139203042166 6 0 0
2672 858 2 0 -4.045441383453521 -3.2532972216896443 -6.0986934779361075 6 0 0
996 299 4 0 -3.332539934756441 -3.163130155450606 -6.398918314524444 5 0 0
995 299 2 0 -2.989827946070843 -3.1221312660470453 -6.683098881992658 5 0 0
920 274 2 0 -1.944925890590552 -2.689858478754978 -6.937715529534208 -3 -1 1
1327 409 4 0 -8.195685860866892 -1.7717224153631879 -6.1139175543420965 6 0 1
921 274 4 0 -1.6402715518916047 -2.3695525513416413 -6.898933327590891 -3 -1 1
1326 409 4 0 -8.59315013824887 -1.2200378786529527 -6.749251647924755 6 0 1
1325 409 2 0 -8.394161237662068 -1.501109437875627 -6.434159806791788 6 0 1
1023 308 4 0 -3.654134743064218 -1.5152703227163453 -6.857809110645669 6 0 0
1428 443 4 0 -3.3615224549614062 -1.3118703576123867 -6.709474684493763 6 0 1
1427 443 2 0 -2.999542952291569 -1.19837174562252 -6.528110373455825 6 0 1
1429 443 4 0 -2.6335193710373757 -1.086580698629211 -6.332738766744396 6 0 1
2779 893 4 0 -2.3414003078193915 -0.9349997141114912 -6.544650870631075 14 1 1
1385 429 2 0 -7.547051793996664 -0.3362319117801231 -6.093964211030193 7 0 1
1387 429 4 0 -7.468480034123251 -0.21070093760147834 -6.546272131229517 7 0 1
1572 491 4 0 -7.555550991165193 -0.04830976507298601 -6.873610446249217 7 0 1
893 265 2 0 -4.669893895103355 -0.23861563636524608 -6.816573234511103 8 0 1
894 265 4 0 -4.981331552636578 -0.3596264450010995 -6.490550763473647 8 0 1
3076 992 4 0 -4.8686993619644925 -0.2050492050817443 -6.133460549775199 8 0 1
2777 893 2 0 -1.9659912307643541 -0.839555321778418 -6.28580365985143 14 1 1
1182 361 4 0 -5.984980931582138 -9.658944050624887 -6.059981926627775 11 1 0
533 145 2 0 -5.813500665608999 -9.878634379512425 -5.349897884176236 12 1 0
534 145 4 0 -5.715854553774984 -9.815635195039397 -5.791199763327018 12 1 0
2450 784 2 0 -8.131019329088641 -8.75842358826771 -5.2267531416457365 12 1 0
1240 380 4 0 -9.407241127737628 -8.35060969529279 -5.651161458232944 4 0 -1
1238 380 2 0 -9.473246068578634 -8.327638086194359 -5.253937952680754 4 0 -1
2452 784 4 0 -7.98693826903626 -8.354085005932161 -5.392657837469667 12 1 0
2041 647 4 0 -7.703155796489067 -8.12606123983274 -5.221579359480305 4 0 1
935 279 2 0 -10.201955082036694 -7.747993048822704 -5.985068721209676 4 0 0
964 288 4 0 -8.014489805949392 -7.219395849253833 -5.94809996444738 4 0 1
2040 647 4 0 -7.800353565736373 -7.313552905950883 -5.61433436994636 4 0 1
2039 647 2 0 -7.756751463947364 -7.72224078642564 -5.414523121935693 4 0 1
427 109 4 0 -6.578990508165145 -6.970801515363153 -5.731019228504152 5 0 0
850 250 4 0 -8.306087588363292 -6.106251273445458 -5.487665783585122 5 0 1
848 250 2 0 -7.8660661573842034 -6.21697073252581 -5.393973654581787 5 0 1
969 290 4 0 -8.573160998077102 -6.266819488268031 -5.228642682155616 5 0 0
849 250 4 0 -7.4424723300505775 -6.326309743870489 -5.295321084254389 5 0 1
129 26 3 0 -6.479963071341899 -6.703408888261558 -5.459284838293472 5 0 1
1864 588 4 0 -4.6092080972603675 -2.882003217069764 -5.689358776000211 6 0 -1
1862 588 2 0 -4.865313177603151 -2.6813713021711827 -5.408033382705552 6 0 -1
2673 858 4 0 -4.470617749168688 -3.1277324067248333 -5.993671097663212 6 0 0
638 180 2 0 -7.943742089321345 -1.8692250980481706 -5.423868001814466 6 0 1
639 180 4 0 -8.224257176262094 -1.6361274935805525 -5.715416339665964 6 0 1
2445 782 4 0 -0.04394993773937195 -0.9649186038726629 -5.392187848575785 8 0 0
1722 541 4 0 -7.632055293985155 -0.4855245919709965 -5.240787933966831 1 -1 1
1386 429 4 0 -7.636591198086222 -0.4613920065983468 -5.647546024262984 7 0 1
3074 992 2 0 -5.089674748782869 -0.07734125932609892 -5.778536382844993 8 0 1
321 74 4 0 -1.9845101269663417 -0.12918954095905377 -5.483329425074825 -1 -1 0
320 74 2 0 -2.218048984379891 -0.3990621044625211 -5.234191880980831 -1 -1 0
2778 893 4 0 -1.6181390852558604 -0.7512838341130816 -6.024085211372644 14 1 1
1480 460 4 0 -1.2034827467183309 -0.6888558859153537 -5.978588805806837 6 0 1
1478 460 2 0 -0.7979671093835758 -0.762919015527574 -5.704367690768337 6 0 1
1479 460 4 0 -0.40863677449879177 -0.8383969565330247 -5.449998335311044 6 0 1
535 145 4 0 -5.901849489686534 -9.937385679257396 -4.9376977384009715 12 1 0
1278 393 4 0 -5.787129396261046 -10.21999163901173 -4.69589881983254 12 1 0
2224 708 4 0 -8.133587261637494 -9.38137827982193 -4.758462402951474 4 0 0
2451 784 4 0 -8.27717230396499 -9.161588370751607 -5.067386222405018 12 1 0
2222 708 2 0 -7.964080935932278 -9.531640934936316 -4.367751219549805 4 0 0
1239 380 4 0 -9.55567392419265 -8.2938189627072 -4.798321577516714 4 0 -1
130 26 3 0 -6.669488228280059 -6.994615062787343 -4.847468825170965 5 0 1
2896 932 4 0 -6.584270508548169 -7.257128263301687 -4.546392010928383 11 1 1
945 282 4 0 -0.0093697627200644 -7.153887904008121 -4.491041046492481 3 0 0
968 290 2 0 -8.976673802978873 -6.096160698044397 -5.081773835855764 5 0 0
128 26 3 0 -7.122457362066994 -6.5094740470660595 -5.1490225981383135 5 0 1
126 26 1 0 -6.683698011581153 -6.636513882030991 -5.0759555761275745 5 0 1
127 26 3 0 -6.48588390175874 -6.316827677791084 -4.855721025378701 5 0 1
2023 641 4 0 -9.749825867669047 -5.968252072784747 -5.050908399301828 5 0 0
2021 641 2 0 -10.051561331638625 -5.650035207815951 -5.10683893644652 5 0 0
2022 641 4 0 -10.362275842240384 -5.325764064827121 -5.158270878946046 5 0 0
970 290 4 0 -9.370611392193128 -5.92212278214509 -4.922521334960711 5 0 0
1291 397 4 0 -6.318952689033009 -2.627340029540033 -5.013698738774052 6 0 0
656 186 2 0 -6.945386286507965 -2.151269002132974 -4.9762987294514485 7 0 1
640 180 4 0 -7.686010309419137 -2.0740754305936786 -5.164787222216828 6 0 1
657 186 4 0 -7.396466705790465 -2.0116047671111 -4.867420551733477 7 0 1
658 186 4 0 -6.5331720306868695 -2.2792234251230354 -5.070815185584505 7 0 1
1290 397 4 0 -5.469924811172963 -2.3153528844323645 -5.071831725538936 6 0 0
1289 397 2 0 -5.90792801545084 -2.475496114896635 -5.041679526235883 6 0 0
1863 588 4 0 -5.125041854022314 -2.479124775813238 -5.1318282838015055 6 0 -1
1845 582 4 0 -0.3257178772581728 -2.1474718282391265 -4.890180991052001 8 0 0
1844 582 2 0 -0.6236336832288067 -2.2597286581209257 -4.558011182340012 8 0 0
1723 541 4 0 -7.156314144887755 -0.04682805452293337 -4.613449619710074 1 -1 1
1721 541 2 0 -7.393612363135777 -0.2660377966752261 -4.92523173874424 1 -1 1
1203 368 4 0 -6.770790329724109 -0.21746099994464885 -4.572415378744255 9 0 0
322 74 4 0 -2.4453731868855213 -0.6637470100536031 -4.990800220038037 -1 -1 0
2225 709 2 0 -7.102765417971934 -10.149711347988914 -3.9323394927491266 13 1 0
2227 709 4 0 -7.444336065872218 -9.897649018375386 -3.8743063551411403 13 1 0
2223 708 4 0 -7.7965463746376855 -9.689760382604154 -3.964566114613122 4 0 0
1277 393 2 0 -6.079345566689884 -10.3083645461939 -4.334654109453047 12 1 0
1279 393 4 0 -6.353005273023919 -10.403380424260211 -3.988914815280509 12 1 0
2894 932 2 0 -6.494217787432605 -7.310050348434371 -4.09718152561671 11 1 1
2895 932 4 0 -6.399520284206716 -7.368455772233473 -3.697698124266031 11 1 1
1342 414 4 0 -3.0143696844374945 -6.953930007004153 -3.5573042924394587 11 1 0
1363 421 4 0 -1.867935067970162 -7.129823152633296 -3.7408346258643466 11 1 0
1361 421 2 0 -1.4314507665248648 -7.1016261944025825 -3.8360153223578184 11 1 0
1362 421 4 0 -0.9850041534209701 -7.064545443283591 -3.92680193957516 11 1 0
944 282 2 0 -0.37219674896874366 -6.989642058174876 -4.304139429111075 3 0 0
1340 414 2 0 -2.5886409216597945 -6.896404953683214 -3.6494565076237304 11 1 0
1341 414 4 0 -2.1629787891354777 -6.857374668266454 -3.741737556049822 11 1 0
946 282 4 0 -0.7250999229116744 -6.841995571795977 -4.118814842828308 3 0 0
3012 971 4 0 -7.814984842886339 -3.7538625589797556 -4.206326358081004 8 0 0
3011 971 2 0 -8.219908405164933 -3.503551052635233 -4.221379698091311 8 0 0
1112 338 2 0 -10.314183140441875 -3.1632744623630824 -3.8197209520081596 7 0 0
1012 304 4 0 -9.569515001229366 -3.061630857042557 -3.570595994084691 7 0 0
1113 338 4 0 -9.89935575708922 -3.2435492854371413 -3.6816095048154374 7 0 0
1011 304 4 0 -8.823300152395149 -3.038669940517674 -4.049730607015871 7 0 0
1010 304 2 0 -9.191848416933253 -3.0469487855414386 -3.814295654049154 7 0 0
3013 971 4 0 -8.571362354068352 -3.2829228854115247 -4.224729843233224 8 0 0
1544 482 2 0 -0.8372150424734262 -2.869013324091892 -3.594252080024636 15 1 0
1846 582 4 0 -0.9160663838802581 -2.377518195689161 -4.242640449739776 8 0 0
1545 482 4 0 -0.9597809081859623 -2.4784188802651617 -3.858387007542028 15 1 0
1202 368 2 0 -6.386632481831791 -0.18018398767405053 -4.31022438892876 9 0 0
1204 368 4 0 -6.0053784326519954 -0.15365680730119813 -4.039757504238346 9 0 0
2394 765 4 0 -6.373544182383631 -7.405527842741267 -3.311764543303501 3 0 0
2393 765 2 0 -5.96021234706211 -7.46303607313832 -3.1530004104013125 3 0 0
789 230 4 0 -5.341480865614889 -7.299403525143077 -3.2684674731316257 3 0 1
2395 765 4 0 -5.516511452483127 -7.533854024761534 -2.9851309646971442 3 0 0
788 230 2 0 -4.89652869696216 -7.201335971782922 -3.163510216405297 3 0 1
790 230 4 0 -4.4537568144124435 -7.109899363483464 -3.049872957047439 3 0 1
2362 754 4 0 -4.058593355495114 -7.1642606224334635 -3.0902656446963235 3 0 1
2360 754 2 0 -3.6023120242998443 -7.0364931913997015 -3.1407467350423346 3 0 1
2361 754 4 0 -3.1603831581244 -6.916522349047883 -3.190470595622757 3 0 1
2109 670 4 0 -0.7695468879546343 -3.497904786329441 -3.0134413248418976 0 -1 0
1546 482 4 0 -0.7391637551739922 -3.2357402004149076 -3.3439643479799077 15 1 0
295 65 4 0 -6.347052761783655 -2.0850337094277975 -2.658424315326334 7 0 0
293 65 2 0 -5.940590920522633 -2.0597480957112975 -2.8482284961555546 7 0 0
294 65 4 0 -5.514084841823001 -2.0382738284594506 -3.039269760013177 7 0 0
1018 306 4 0 -5.158377551103044 -1.9758389658686397 -3.247631372265877 7 0 0
1016 306 2 0 -4.737886186167006 -1.835962726995911 -3.255820806877521 7 0 0
1017 306 4 0 -4.2941373378857906 -1.6790621492992788 -3.2630600247839716 7 0 0
1401 434 4 0 -4.009944727360215 -1.4421313786235803 -3.41754849283904 8 0 0
1400 434 2 0 -3.6209560994392564 -1.2700597258639537 -3.3159379742976185 8 0 0
1402 434 4 0 -3.2401310479697045 -1.1037224747966015 -3.2162461046224706 8 0 0
1985 629 2 0 -0.5608200218424333 -0.9840640357006354 -3.0850259915750335 8 0 0
1987 629 4 0 -0.23385855788045085 -1.2482097793783833 -3.1742196775324025 8 0 0
979 293 4 0 -2.9783738378620086 -0.8369035419366977 -3.0777231823081124 8 0 0
977 293 2 0 -2.6102500954297483 -0.6441361969826609 -3.2081470158021723 8 0 0
978 293 4 0 -2.2268693855247896 -0.44949052884378204 -3.34303721468583 8 0 0
2236 712 4 0 -2.0088170289118104 -0.45058841849420617 -3.013282656808972 8 0 0
1986 629 4 0 -0.877936192425766 -0.722266546894728 -2.9970753397082195 8 0 0
2235 712 4 0 -1.110885394573124 -0.39131205579132633 -2.919651250211948 8 0 0
2234 712 2 0 -1.5633769991737676 -0.41665019365613 -2.9669781047469472 8 0 0
622 174 4 0 -0.4139533720400621 -5.743596423523976 -1.8420129095739668 6 0 0
2108 670 2 0 -0.6132593966024995 -3.4057848875878616 -2.5918348123048736 0 -1 0
2110 670 4 0 -0.4679106314670385 -3.3176485267865825 -2.1758736773431284 0 -1 0
2100 667 4 0 -0.3856856489271081 -2.917076450206464 -2.1263199002974407 0 -1 0
795 232 4 0 -6.557221538986252 -1.9822211350266272 -2.348532668850348 7 0 1
794 232 2 0 -6.600613597748266 -1.8700020957478838 -1.912944941990121 7 0 1
2099 667 2 0 -0.09824324232040027 -2.5655443612518045 -2.1169499599508015 0 -1 0
2075 659 2 0 -9.848755504361316 -9.786524283346981 -1.251715890315234 3 0 0
2076 659 4 0 -10.272124410653372 -9.71074202863591 -1.3442359172523854 3 0 0
2077 659 4 0 -9.41441209098952 -9.847993744751113 -1.1564121176454059 3 0 0
579 160 4 0 -9.099861620782388 -9.760803751977967 -0.9025883931363978 10 1 0
621 174 4 0 -1.1606450812976146 -5.431678249765842 -1.3770492907396825 6 0 0
620 174 2 0 -0.7948901557739365 -5.591060256578628 -1.6089907457710986 6 0 0
2856 919 4 0 -0.3000625543635671 -6.0712237694202535 -1.6411053526186894 7 0 1
796 232 4 0 -6.640693512851645 -1.759490401089776 -1.4808893410905704 7 0 1
1431 444 4 0 -6.9434651111299885 -1.5572720217091174 -1.3719273556189702 15 1 0
1430 444 2 0 -7.277281886037418 -1.3900360256467454 -1.14303300456816 15 1 0
1432 444 4 0 -7.632603017537027 -1.2025771196889075 -0.9066400565037096 15 1 0
1152 351 4 0 -10.164988200862124 -0.7544867969844073 -1.4073039097686166 7 0 0
1151 351 2 0 -9.83910407037293 -0.6593903256464895 -1.0803056761686243 7 0 0
357 86 4 0 -0.9413591510282977 -0.007209754004838587 -1.10182361210102 8 0 0
1132 344 4 0 -1.2660304373431917 -0.2501789977330624 -0.9870703855337677 8 0 0
578 160 2 0 -8.772399380872967 -10.00317852808626 -0.7119863488346088 10 1 0
972 291 4 0 -8.053309296545958 -10.213433786070901 -0.4416993593644456 12 1 0
580 160 4 0 -8.441850714758257 -10.249475744157017 -0.5260806446340762 10 1 0
973 291 4 0 -7.186456830029057 -10.245227644706357 -0.20367816696087004 12 1 0
971 291 2 0 -7.6255014873042875 -10.228160865830189 -0.3285692830403182 12 1 0
948 283 4 0 -6.794919222911993 -10.279698259226883 -0.1247697554594609 12 1 0
1555 485 4 0 -10.003944527809363 -5.774893818548736 -0.0009754843170153293 11 1 0
1232 378 2 0 -9.30256756475589 -1.4549858155324529 -0.02829576551362223 8 0 0
1233 378 4 0 -8.946793940666783 -1.271251333722672 -0.20564694451379317 8 0 0
1912 604 4 0 -8.554890889994407 -1.1821674245195677 -0.1353442197888466 0 -1 0
1910 604 2 0 -8.253756203738053 -1.2773211649961027 -0.4155227625317881 0 -1 0
1911 604 4 0 -7.94628953618054 -1.3722978116532953 -0.7076492686577094 0 -1 0
1815 572 4 0 -9.406343403913962 -0.2207743377890239 -0.6399386414603665 8 0 1
1153 351 4 0 -9.517186548464649 -0.567639991201375 -0.7629881474262614 7 0 0
193 39 3 0 -3.310124033062193 -0.11091769265481233 -0.5213879341752499 9 0 0
1540 480 4 0 -2.97809018981771 -0.2704047253028321 -0.3539108355121314 17 1 0
1131 344 4 0 -1.768863051382258 -0.36223033679969063 -0.23171759054951835 8 0 0
1539 480 4 0 -2.1358893958048792 -0.38041383982078436 -0.12635219350758753 17 1 0
1538 480 2 0 -2.5597570602071364 -0.3222650546377128 -0.24306791547319584 17 1 0
1130 344 2 0 -1.523941633505121 -0.3066872007328971 -0.6140494506696559 8 0 0
855 252 4 0 -9.70696292952566 -5.725824450375616 0.2745461980273358 12 1 0
854 252 2 0 -9.279681901123965 -5.604138601019259 0.3663900132962947 12 1 0
856 252 4 0 -8.837478439262703 -5.471806219931999 0.4571441429123837 12 1 0
2571 824 4 0 -8.490327853339346 -5.407608927648954 0.6662995418108117 12 1 0
2570 824 2 0 -8.022806781740535 -5.364845553773736 0.7113480588650791 12 1 0
2572 824 4 0 -7.577263614715083 -5.333114030652285 0.747657472608692 12 1 0
474 125 4 0 -7.18669853454424 -5.275727325552398 0.8245157808511561 4 0 1
473 125 2 0 -6.788034724502427 -5.469744266344594 0.8106951476146715 4 0 1
475 125 4 0 -6.375458292183247 -5.674802546573128 0.7957792460278892 4 0 1
2552 818 2 0 -9.934504728992534 -3.6631180923587507 0.5315290953906047 14 1 0
2554 818 4 0 -10.256137468814037 -3.8200304855609106 0.2460500570381381 14 1 0
2553 818 4 0 -9.625891220462904 -3.508056787691154 0.8070083990485006 14 1 0
2379 760 4 0 -10.027895977285759 -1.7640109596726568 0.2913171339934255 15 1 1
2378 760 2 0 -10.207543702399889 -1.6428526880740346 0.6889189022763702 15 1 1
1234 378 4 0 -9.670839879422305 -1.6486722859139782 0.15389527192540697 8 0 0
2419 773 4 0 -3.167892085955218 -10.3597369642454 1.1474984315699963 13 1 0
2417 773 2 0 -3.2129027068646687 -9.916478605691156 1.2257527563457185 13 1 0
2418 773 4 0 -3.2567602893128136 -9.457873121087884 1.30633088900667 13 1 0
2761 887 4 0 -3.224458025160299 -9.200119884135669 1.6294997517417098 12 1 0
1216 372 4 0 -5.999992202144128 -5.570263482248787 0.8686509185739055 -3 -1 -1
1214 372 2 0 -5.5426656918001695 -5.45148999223402 0.913876778236764 -3 -1 -1
1215 372 4 0 -5.09693628529361 -5.332378230026367 0.9424640557848338 -3 -1 -1
28 6 3 0 -4.821895042105793 -5.288979618880591 1.2426606666687068 5 0 0
1595 499 2 0 -5.386166715404006 -4.405359430420213 1.6156377754886684 13 1 0
1596 499 4 0 -5.847098605877943 -4.398142650807141 1.686048190919136 13 1 0
1597 499 4 0 -4.925459706222547 -4.413532072545167 1.5565994686294964 13 1 0
30 6 3 0 -4.593070237075302 -4.648469902493346 1.5535435472676316 5 0 0
26 6 1 0 -4.522264200760029 -5.108940960457132 1.5326518219364598 5 0 0
27 6 3 0 -4.1069879696337095 -5.185206644913299 1.392263354898395 5 0 0
862 254 4 0 -3.814760501427351 -4.887826148402421 1.3659171115571596 4 0 0
860 254 2 0 -3.3879762885557376 -4.701078575874907 1.4705783555822958 4 0 0
861 254 4 0 -2.9652156602423423 -4.5173276812195216 1.5783718625533343 4 0 0
2637 846 4 0 -2.585509278482644 -4.5515893020538645 1.4221840947307012 12 1 0
2636 846 2 0 -2.192786614742092 -4.378746816601127 1.5949277927578134 12 1 0
1101 334 4 0 -0.31947035262828827 -3.954180803871326 1.6506616916700292 13 1 0
2691 864 4 0 -9.548578837568158 -3.4265063091086967 1.1860475840994145 6 0 0
2690 864 2 0 -9.50050306233579 -3.0775492199411376 1.4458556644403462 6 0 0
2692 864 4 0 -9.448426745745364 -2.7355077520969306 1.705098992041222 6 0 0
2380 760 4 0 -10.393254722833493 -1.5092439128800006 1.0912242817382083 15 1 1
1424 442 2 0 -0.8956282749429754 -9.943415155643267 2.5761863431833802 12 1 0
1426 442 4 0 -0.5874457689181227 -10.182459572305074 2.3083341713732928 12 1 0
2772 891 4 0 -0.45336002327485403 -10.253619595967322 1.9369579840084494 12 1 0
2759 887 2 0 -2.9038212009494098 -8.98177427408467 1.9116349942988027 12 1 0
2760 887 4 0 -2.614091206316166 -8.791431465972009 2.178775707746899 12 1 0
1626 509 4 0 -2.4787877698639162 -8.464046088262657 2.4047019370595084 12 1 0
2197 699 4 0 -10.276981119287463 -6.328827592996983 2.4093172023674825 6 0 0
2105 669 2 0 -9.576261111732613 -6.266523683928483 2.557933993940127 6 0 0
2106 669 4 0 -9.169854219773866 -6.3348557356844735 2.4305895506983237 6 0 0
2757 886 4 0 -8.914601084622573 -6.049998521156429 2.544959269607938 6 0 0
2756 886 2 0 -8.479749403631402 -5.980108004418219 2.519439988869717 6 0 0
2758 886 4 0 -8.046808734305266 -5.91095349341643 2.495614035644886 6 0 0
784 228 4 0 -7.754558559690216 -5.673981840875547 2.3606350986798805 6 0 0
782 228 2 0 -7.531950626116547 -5.3869565096597745 2.072661948999892 6 0 0
2006 636 2 0 -5.0583350187178215 -5.316812294841787 2.5920904824407316 6 0 -1
2008 636 4 0 -4.708026441721827 -5.280846430501242 2.3253725260865004 6 0 -1
29 6 3 0 -4.581971772185847 -5.291210203852652 1.9341717409422916 5 0 0
594 165 4 0 -7.042462686857425 -4.864766974798841 1.9860270950474543 6 0 0
783 228 4 0 -7.303132029676458 -5.09280706541627 1.7872874708627595 6 0 0
595 165 4 0 -6.238392326725868 -4.460069945933227 1.7716680753408447 6 0 0
593 165 2 0 -6.649709682443009 -4.67119076963064 1.8788473288871508 6 0 0
2638 846 4 0 -1.7750898497316836 -4.199961341798081 1.7797486188504337 12 1 0
38 8 3 0 -1.388566335700446 -4.079687748503094 1.8138322764928283 4 0 -1
36 8 1 0 -1.0485381606535071 -3.793903371305346 1.9558525484255895 4 0 -1
40 8 3 0 -1.0940026638088245 -3.727660628614661 2.432923895642384 4 0 -1
39 8 3 0 -0.6450148936191358 -3.9814076724558527 1.8717711919570998 4 0 -1
1422 441 4 0 -6.127422595347359 -2.8534097050992635 2.582537415207117 7 0 1
2940 947 4 0 -5.723542637286607 -2.8443803812675936 2.5169427306381973 8 0 1
37 8 3 0 -1.0958691737371282 -3.392741498309591 1.7492860711951668 4 0 -1
1461 454 4 0 -0.8269270907284554 -3.0909546727022548 1.8187532826802943 4 0 0
1460 454 2 0 -0.4855080224759565 -2.7780779029918277 1.786559874217545 4 0 0
1379 427 2 0 -9.671064391120627 -2.1912154320763033 2.2272098315416056 6 0 0
1380 427 4 0 -9.930196520866614 -1.890372995118268 2.3974819092418684 6 0 0
1381 427 4 0 -9.397468775403096 -2.5134626439425656 2.049159369095431 6 0 0
1462 454 4 0 -0.16476190855271966 -2.4784612854820756 1.7619617320972552 4 0 0
2238 713 4 0 -7.41518398060477 -1.104952242013713 2.3257644291889275 1 -1 0
1344 415 4 0 -7.039800864356106 -1.1789812605818284 2.4065601668926995 9 0 0
1343 415 2 0 -6.602349003374515 -1.2040113634301743 2.331806118173832 9 0 0
1345 415 4 0 -6.173140843271304 -1.2226224499046587 2.276754930380795 9 0 0
708 203 4 0 -5.8927614012424945 -0.9975274354948578 2.4299584548032342 8 0 0
707 203 2 0 -5.432083841615525 -1.016663092666306 2.4544013084641563 8 0 0
709 203 4 0 -4.970408567908295 -1.029324056259636 2.494302566483107 8 0 0
1873 591 4 0 -8.941409551947698 -0.10239050721979659 2.54937605758324 2 -1 0
2237 713 2 0 -7.6208212824076815 -0.7664789564258996 2.5366150803079 1 -1 0
3038 980 2 0 -3.2398723381954717 -0.48325084747364677 2.5072078603200776 18 1 0
3040 980 4 0 -2.842639905828001 -0.4369151850084858 2.2586527902176954 18 1 0
2344 748 4 0 -2.840529464078708 -0.05770425886074548 2.1546866311856494 9 0 0
2339 747 2 0 -7.946774385981463 -9.690986279772785 3.37526858125994 4 0 0
2340 747 4 0 -7.604105085913959 -9.938912282523747 3.4633349533780766 4 0 0
3061 987 4 0 -2.6910017867775036 -10.288583732705229 3.1558558695510506 12 1 1
1638 513 4 0 -3.0115022419997217 -10.346754479836973 2.8912698795637617 3 0 0
3059 987 2 0 -2.497727485822711 -9.941477616919522 3.3586789708924396 12 1 1
1425 442 4 0 -1.1975102811959673 -9.700371112533778 2.847629926499554 12 1 0
173 35 3 0 -1.5230187107529503 -9.599034567231964 3.058169686550489 4 0 0
877 259 4 0 -8.484716519157795 -9.079954816456883 3.37048024878367 4 0 0
2341 747 4 0 -8.313187439238597 -9.42047764677976 3.293673728603112 4 0 0
454 118 4 0 -6.464612186045818 -8.927182961888994 2.6687891486518893 3 0 0
172 35 3 0 -1.7622043705076589 -8.923290015411224 3.1834839336235063 4 0 0
171 35 1 0 -1.6072044912364998 -9.285882363262726 3.3723257722229096 4 0 0
876 259 4 0 -8.511600999853512 -8.172565105587124 3.357998323373632 4 0 0
875 259 2 0 -8.497581554505095 -8.616896148367472 3.362285037788423 4 0 0
452 118 2 0 -6.234533013632623 -8.553361456567497 2.8165417200649383 3 0 0
453 118 4 0 -6.000826188096392 -8.186236815322383 2.94756924073398 3 0 0