LAMMPS data file via write_data, version 4 Feb 2025, timestep = 8500000, units = lj

3100 atoms
4 atom types
2100 bonds
1 bond types
1250 angles
2 angle types

-10.410592 10.410592 xlo xhi
-10.410592 10.410592 ylo yhi
-10.410592 10.410592 zlo zhi

Masses

1 1
2 1
3 0.1
4 0.1

Bond Coeffs # harmonic/omp

1 100 0.45

Angle Coeffs # harmonic/omp

1 100 180
2 100 109.471

Atoms # full

1665 522 4 0 -6.0824149983554125 -9.81908675169452 -9.137413668175617 1 1 1
1664 522 2 0 -5.847846346795874 -9.435708815552404 -9.01343092660218 1 1 1
1522 474 4 0 -3.528996760994902 -10.28236612118365 -10.352302715449149 0 1 1
1520 474 2 0 -3.230650682578241 -10.237835051820971 -10.01401624570489 0 1 1
2372 758 2 0 -2.160176863050953 -10.105566379058201 -9.441811538295497 1 1 0
1036 312 4 0 -1.5127680668055676 -10.146866188957132 -9.090824889959238 0 1 0
1521 474 4 0 -2.9283048960392715 -10.187576150393545 -9.671475659693456 0 1 1
2373 758 4 0 -2.6019113640738207 -10.235232279830173 -9.493335454652003 1 1 0
2374 758 4 0 -1.706639575978745 -9.988585502590764 -9.390496213705642 1 1 0
1034 312 2 0 -1.1505736459912665 -10.358222170419639 -9.248272427343403 0 1 0
2037 646 4 0 -8.477611174992946 -8.651609996594177 -8.9870852635352 1 0 1
1768 556 4 0 -2.7226410364332856 -2.1229895918532535 -10.267791208707996 1 0 0
2201 701 2 0 -2.421224345729418 -2.2756506081569152 -9.526244720944623 1 0 1
2203 701 4 0 -2.544570681926262 -2.037308323181188 -9.902645701250844 1 0 1
2202 701 4 0 -2.306764603834077 -2.5051950201789492 -9.164383256067321 1 0 1
1683 528 4 0 -9.683558712893895 -1.2942373462256054 -9.46310705538574 1 -1 0
1684 528 4 0 -10.191753063691197 -0.5470983855805528 -9.309369128011687 1 -1 0
1682 528 2 0 -9.936313973186577 -0.9268216580472669 -9.38282555118423 1 -1 0
133 27 3 0 -10.36946372819063 -0.28450071319699016 -9.043996399856095 1 0 0
2990 964 2 0 -5.801860822889373 -0.6417178729607012 -9.06446148967356 0 0 0
2992 964 4 0 -5.52049276572477 -0.3744396534587568 -9.319747585737892 0 0 0
2958 953 4 0 -5.249375715708986 -0.17040512328120558 -9.558696911173994 1 1 1
2886 929 4 0 -9.743748325316998 -10.297744775559856 -8.244103208280709 1 1 1
225 45 3 0 -9.340284122219593 -10.331031604632726 -8.12869661723872 1 1 1
2885 929 2 0 -10.12987541743181 -10.084532923710723 -8.347716040468002 1 1 1
221 45 1 0 -8.939806849115193 -10.354653664198164 -8.350225528161596 1 1 1
1060 320 4 0 -8.476802933960855 -9.762854002790789 -8.489700317041397 0 1 1
1058 320 2 0 -8.532238235628968 -9.382114928667791 -8.665420981123361 0 1 1
222 45 3 0 -8.834276869802768 -9.944386369931836 -8.513410930234024 1 1 1
1059 320 4 0 -8.589776612898739 -8.995118980666938 -8.838773748890558 0 1 1
1666 522 4 0 -5.615345228601099 -9.060770848776027 -8.895376251305326 1 1 1
251 51 2 0 -0.28736599823418796 -9.313433705689446 -7.7900513141380054 0 0 0
2038 646 4 0 -8.968125679405201 -7.971784531257199 -8.753065517697124 1 0 1
2956 952 4 0 -9.264023365540917 -7.907982991494959 -8.446854967792214 1 0 1
2954 952 2 0 -9.471405929650535 -7.626909378127075 -8.148306987986224 1 0 1
2036 646 2 0 -8.735810788503384 -8.303905260447115 -8.872682877563678 1 0 1
2481 794 4 0 -5.619483586537384 -8.788335622876549 -8.618371302198648 1 1 0
2480 794 2 0 -5.245367591216508 -8.553232699144301 -8.510288553327113 1 1 0
2523 808 4 0 -4.712569493765324 -8.042091131362422 -8.149252621496645 1 1 0
2482 794 4 0 -4.870519736692408 -8.319872710833963 -8.395366449043184 1 1 0
2522 808 2 0 -4.451961087145967 -7.844730926463227 -7.771582540574945 1 1 0
2524 808 4 0 -4.2136105023942685 -7.67221883725886 -7.430894620149058 1 1 0
2955 952 4 0 -9.672465397329281 -7.337037162263109 -7.851863699843405 1 0 1
2142 681 4 0 -9.603881312446543 -7.084829167581973 -7.529385694783633 1 0 1
311 71 2 0 -1.7977999064777401 -5.134401890324651 -7.868099867749222 1 0 0
313 71 4 0 -1.837776946937219 -5.190259018059223 -8.30884773892142 1 0 0
1168 356 4 0 -9.058819895010945 -1.625768586512126 -7.484577923071499 0 0 0
2377 759 4 0 -2.5497923652563084 -2.64558354662043 -8.891278841236849 1 0 0
2375 759 2 0 -2.487215537951069 -2.802057381292045 -8.468215007468087 1 0 0
2376 759 4 0 -2.4223665644217482 -2.9596819273393464 -8.023616509761142 1 0 0
1879 593 4 0 -2.769675152495855 -2.8324594161598076 -7.856506983873676 1 0 1
1877 593 2 0 -2.916867551108407 -2.6078561453549245 -7.457188164655111 1 0 1
2477 793 2 0 -7.6240503284679875 -0.8417620370902452 -7.758470722239284 1 -1 0
1167 356 4 0 -8.439038010588362 -1.0285680648731736 -7.79957435068222 0 0 0
1166 356 2 0 -8.75903404740511 -1.3346325854925858 -7.637544953672042 0 0 0
2478 793 4 0 -8.081045015558669 -0.8304034103359949 -7.794731166367851 1 -1 0
2479 793 4 0 -7.150440207428401 -0.8534116457296455 -7.720490517887313 1 -1 0
1033 311 4 0 -6.866021802938988 -0.7527662668309818 -7.9602002516210835 0 -1 0
1032 311 4 0 -6.149701535499137 -0.9921267890559411 -8.39354244615387 0 -1 0
1031 311 2 0 -6.510718408819559 -0.8654044088924049 -8.169878095765402 0 -1 0
2991 964 4 0 -6.0745513214510005 -0.8972920495959622 -8.809809462339341 0 0 0
1326 409 4 0 -4.1260085517944995 -1.191631470390769 -7.633224777074624 0 0 1
2640 847 4 0 -4.890885729919393 -9.89206782073498 -6.77241257224624 1 1 0
1756 552 4 0 -4.705321272757001 -9.541277511339567 -6.75032185673161 1 1 0
2641 847 4 0 -5.688791368929072 -9.909531277375626 -6.321404996275577 1 1 0
2639 847 2 0 -5.303047915586946 -9.903246272097729 -6.536886103425629 1 1 0
685 195 4 0 -5.860741932651579 -9.835177758259306 -5.961792808243782 0 0 0
1754 552 2 0 -4.287762556072273 -9.347811289393501 -6.7560254811087965 1 1 0
1755 552 4 0 -3.9034473426691156 -9.173833633814017 -6.76421834963387 1 1 0
63 13 3 0 -3.5888520947127014 -9.365357635197656 -6.594688944439822 0 1 1
61 13 1 0 -3.2575765898425906 -9.067859159097868 -6.539570496019646 0 1 1
65 13 3 0 -3.0492216113877144 -9.156844563795689 -6.172720257199721 0 1 1
1444 448 4 0 -3.0567397075764022 -9.533955005752636 -6.062398316003461 0 0 1
64 13 3 0 -2.972521732925564 -9.095629359631175 -6.857348798384475 0 1 1
540 147 4 0 -2.6905503037394323 -9.318944850189055 -7.00537297779612 0 0 0
541 147 4 0 -1.7682142419355913 -9.51666493727246 -7.013347075049389 0 0 0
2769 890 4 0 -1.554883744077498 -9.869680163985603 -7.1379702454005285 0 1 0
539 147 2 0 -2.2557807709294426 -9.415375140515303 -7.0058843850762695 0 0 0
252 51 4 0 -0.530323799129455 -9.320068359088685 -7.42307268099016 0 0 0
2768 890 2 0 -1.1392251612182782 -9.71988055076411 -7.146024785360657 0 1 0
2770 890 4 0 -0.7140598036173945 -9.563584837924399 -7.155567841566685 0 1 0
265 55 4 0 -4.124890676672568 -7.929408964099449 -7.1729051039583505 0 0 0
62 13 3 0 -3.4151893021860245 -8.668035873680799 -6.527997374554246 0 1 1
263 55 2 0 -3.8558508781858203 -8.084460245244314 -6.871300358035851 0 0 0
264 55 4 0 -3.5631458089963823 -8.254234515449383 -6.538048548196046 0 0 0
2141 681 2 0 -9.700754417072613 -6.851981591294896 -7.173930571593075 1 0 1
2143 681 4 0 -9.806200190001478 -6.596282715375323 -6.787669891032919 1 0 1
1282 394 4 0 -9.72562877075257 -6.391658714560882 -6.438868787724748 1 1 0
1280 394 2 0 -9.820286218543025 -6.365592151734998 -6.005659957212487 1 1 0
2065 655 4 0 -7.669127189692596 -6.638592584570804 -6.764646834355487 1 -1 0
2063 655 2 0 -7.524732380668572 -6.571083937695131 -6.371382324126022 1 -1 0
2064 655 4 0 -7.35754379170612 -6.4783312778181275 -5.920768415110124 1 -1 0
1061 321 2 0 -2.9944289729240614 -4.6002499015765865 -6.25645526331425 0 0 0
312 71 4 0 -1.7464367789461046 -5.072383566620135 -7.424382902248935 1 0 0
2214 705 4 0 -1.7798760732206762 -5.133589150269871 -7.022661705325149 1 0 1
1062 321 4 0 -2.7152618467537186 -4.675260165527811 -6.572792902765708 0 0 0
2215 705 4 0 -2.5333573092959463 -5.047633515728089 -6.6034529054516975 1 0 1
2213 705 2 0 -2.1628989980117663 -5.082275747251076 -6.804543519454305 1 0 1
1220 374 2 0 -5.700951144786504 -3.136722270092414 -6.028569924039103 0 0 0
804 235 4 0 -9.430908115683941 -1.553797834861099 -7.351792960654703 0 0 1
805 235 4 0 -10.07482857493078 -2.148095959712386 -7.135016251966343 0 0 1
803 235 2 0 -9.753937483977065 -1.8503528525478579 -7.2402080902073775 0 0 1
1558 486 4 0 -10.335873373269042 -2.444194289813751 -7.108258269002173 0 0 1
320 74 2 0 -5.2628493527829505 -2.098617440958233 -6.470835940546629 0 -1 0
321 74 4 0 -5.254738482323816 -2.54103323034832 -6.356313954401681 0 -1 0
322 74 4 0 -5.26040341625228 -1.6660170601146944 -6.574755219787895 0 -1 0
1222 374 4 0 -5.363209607846137 -2.926813884598706 -6.242447688592535 0 0 0
1864 588 4 0 -5.513831752550008 -1.5323945962590901 -6.852911035436722 0 0 -1
2273 725 2 0 -3.7801748956669177 -2.4186792765453764 -6.707299293254278 0 0 1
2275 725 4 0 -4.169430554512648 -2.5628156182754487 -6.504512374190641 0 0 1
2274 725 4 0 -3.380339449985379 -2.2544319658108747 -6.911400889496906 0 0 1
2986 962 4 0 -4.3045808176017335 -2.7608839460980095 -6.20531319225336 0 1 1
1878 593 4 0 -3.0549638420890295 -2.4070588390909085 -7.080866635402159 1 0 1
767 223 2 0 -7.592339902096458 -0.40306529423348303 -6.344348656457172 1 0 1
1017 306 4 0 -10.378731805155196 -4.596380323382586 -4.440423701261193 0 0 0
769 223 4 0 -7.404334676261043 -0.7875578759602913 -6.266875313536781 1 0 1
1290 397 4 0 -5.412740671595239 -0.4336702232074033 -7.048625580629079 0 0 0
1863 588 4 0 -5.445804769431207 -0.7730087687077287 -7.323655220537298 0 0 -1
1862 588 2 0 -5.480112128461937 -1.132081243943044 -7.106553228368718 0 0 -1
253 51 4 0 -0.05966839407550057 -9.300381740013385 -8.146816120664504 0 0 0
1325 409 2 0 -4.129701037047366 -1.3129251841852074 -7.215540889354936 0 0 1
1327 409 4 0 -4.1434010714674345 -1.4315933461059278 -6.799737682350487 0 0 1
683 195 2 0 -5.862178158500876 -9.856504696647033 -5.516751948748657 0 0 0
3098 1000 2 0 -5.354658622305127 -9.824966680827929 -4.5444331825657 0 1 0
684 195 4 0 -5.858803723664681 -9.877494929845295 -5.09475733678811 0 0 0
3100 1000 4 0 -5.506044507237854 -9.773063190650324 -4.982165734719137 0 1 0
1442 448 2 0 -2.904480522628966 -9.661294499675703 -5.6737132907454235 0 0 1
1443 448 4 0 -2.7325985380975504 -9.809216567150854 -5.227907694923788 0 0 1
2899 933 4 0 -2.4060763893069237 -9.717305900644474 -4.991080914510353 0 1 1
2897 933 2 0 -1.969577027148994 -9.656706485594555 -4.927585633751631 0 1 1
2898 933 4 0 -1.5231484895729517 -9.599480941953313 -4.856293677078153 0 1 1
648 183 4 0 -1.3128748566667414 -9.594041617028898 -4.475061872785582 0 0 1
1363 421 4 0 -6.984633946739816 -8.021484042954096 -4.566247639410904 0 1 0
1361 421 2 0 -6.843699866300719 -7.716522261185508 -4.873274316899005 0 1 0
1281 394 4 0 -9.921965980782936 -6.339473222739222 -5.573355910215715 1 1 0
407 103 2 0 -10.347289867529815 -6.788215210276485 -5.060194807848682 1 0 0
409 103 4 0 -10.174598992100554 -6.618982489115275 -5.428692155109796 1 0 0
2461 787 4 0 -7.115142120070106 -6.519061362834772 -5.599265489182158 1 0 0
2459 787 2 0 -6.8420234642742095 -6.828045858514446 -5.5022312714865125 1 0 0
2460 787 4 0 -6.546819392134031 -7.165022877959081 -5.408238644187693 1 0 0
1362 421 4 0 -6.7074217202040645 -7.426567048586021 -5.176645324090775 0 1 0
1063 321 4 0 -3.2633677343899037 -4.520478951174009 -5.941436879891203 0 0 0
1845 582 4 0 -1.7516328015656846 -4.511559258494042 -5.06291181437657 1 0 0
1569 490 4 0 -1.8418199449861257 -4.55040131189181 -5.448423422219962 0 1 0
1844 582 2 0 -1.7081285232515713 -4.642956332780218 -4.604906051207118 1 0 0
2235 712 4 0 -8.22783280043812 -3.249766665488698 -4.985309065702449 1 0 0
571 157 4 0 -7.963185342920946 -3.579637954425806 -4.957279594269324 0 0 -1
569 157 2 0 -7.5194562126162 -3.6528322854366495 -4.971623081444106 0 0 -1
2234 712 2 0 -8.563820133868889 -3.11626649350451 -4.726201623389771 1 0 0
2236 712 4 0 -8.917031861672044 -2.967360871283002 -4.43419145290206 1 0 0
396 99 4 0 -6.111662923392981 -3.343283713192079 -5.4417399022099575 0 -1 0
1221 374 4 0 -6.02372083777193 -3.3365979305161746 -5.822964465648063 0 0 0
395 99 2 0 -6.452477429787453 -3.3947304811477688 -5.1489680723749585 0 -1 0
397 99 4 0 -6.79418724805355 -3.447897214859581 -4.872214132582123 0 -1 0
570 157 4 0 -7.063266317783203 -3.7279425112500264 -4.989913191798571 0 0 -1
1200 367 4 0 -3.5684896809279865 -4.425422944206195 -5.6948921569685265 0 0 0
2984 962 2 0 -4.222330449106657 -3.0724052457488598 -5.880937923187467 0 1 1
2985 962 4 0 -4.133690026496433 -3.381252316109468 -5.541154622350005 0 1 1
1199 367 2 0 -3.777163658875943 -4.061355682145917 -5.526605654800438 0 0 0
1201 367 4 0 -3.9872900223070777 -3.7006641417260457 -5.350624733709933 0 0 0
2016 639 4 0 -1.9709311340455526 -3.4485622539977934 -5.722872675912309 0 0 0
2015 639 2 0 -1.65999182726007 -3.1188042480037645 -5.7051914017415575 0 0 0
1570 490 4 0 -1.8820686703907412 -3.8104760116457115 -5.8881931639069 0 1 0
1568 490 2 0 -1.8565367993866704 -4.19663199645021 -5.664065513302044 0 1 0
779 227 2 0 -9.687308062703778 -1.9150309336497038 -5.330072561803717 0 0 1
781 227 4 0 -10.120208130567162 -1.9186308754966157 -5.250769222924894 0 0 1
780 227 4 0 -9.244779782103478 -1.9092776842451558 -5.404954201742347 0 0 1
1735 545 4 0 -8.92645328111506 -1.842184958849545 -5.161664916012578 1 -1 1
1733 545 2 0 -8.51747119063039 -1.9356133524248584 -5.300771213438368 1 -1 1
1734 545 4 0 -8.080904153418553 -2.0296358171436606 -5.458366104713103 1 -1 1
1149 350 4 0 -7.969227103788205 -1.6718771875079068 -5.636015735021489 0 0 0
3055 985 4 0 -0.6978258773784807 -1.851085621133297 -5.713727530868796 0 0 0
2017 639 4 0 -1.3436149118008025 -2.789601019766595 -5.691718285558409 0 0 0
3054 985 4 0 -1.3647442819673679 -2.3903464540109676 -5.746937886570144 0 0 0
3053 985 2 0 -1.0369185960015566 -2.121227488878822 -5.733580743242144 0 0 0
808 236 4 0 -0.792329997726994 -1.5195298691662193 -5.477152199364263 0 0 0
1148 350 2 0 -7.708319881424097 -1.324035983523278 -5.7624991035406214 0 0 0
1150 350 4 0 -7.454342260636636 -0.9771823607845075 -5.905167094627393 0 0 0
806 236 2 0 -0.41596980537697376 -1.2533476239986174 -5.394376103750637 0 0 0
807 236 4 0 -0.06991612531115575 -1.0122585599498213 -5.313357820994376 0 0 0
3099 1000 4 0 -5.201781013987467 -9.880812346619397 -4.123775889764041 0 1 0
1936 612 4 0 -4.946423552033497 -10.21252238094343 -4.021039667072207 0 1 0
1934 612 2 0 -4.651102279454309 -10.163614698269697 -3.7194682312521588 0 1 0
1935 612 4 0 -4.344347770085362 -10.10940252092836 -3.415837209717322 0 1 0
2974 958 4 0 -3.964352653938729 -10.072748763481107 -3.242672036478373 0 0 0
647 183 2 0 -0.9467658343728289 -9.326514403498539 -4.4079208962645575 0 0 1
649 183 4 0 -0.5715862606928883 -9.05958403502862 -4.329201333002423 0 0 1
2013 638 4 0 -0.546732674844578 -8.973831177657766 -3.9244140472315543 1 0 0
1342 414 4 0 -6.931855018708088 -8.225022043622406 -3.4307900399819435 0 1 0
2361 754 4 0 -6.644746382350824 -8.08143999602069 -3.1704524975031823 0 0 1
1341 414 4 0 -7.174939956513045 -8.208794710930308 -4.278839396169043 0 1 0
1340 414 2 0 -7.054971415880892 -8.217544511947207 -3.8489991103247942 0 1 0
2014 638 4 0 -0.17304472248102828 -8.674084494748717 -3.1639220650528266 1 0 0
2012 638 2 0 -0.36347180425890885 -8.822076551011184 -3.550740865896924 1 0 0
819 240 4 0 -0.03248003790699649 -8.309392486945976 -3.122144217213614 0 0 0
1546 482 4 0 -1.9091142500426992 -5.321993077859855 -3.2060878476123102 0 1 0
1544 482 2 0 -1.713723242544666 -5.075476997707539 -3.5049976310621243 0 1 0
1545 482 4 0 -1.5242935473309958 -4.829730269128846 -3.810063788010873 0 1 0
1846 582 4 0 -1.674712316035873 -4.766220066477133 -4.209005898176938 1 0 0
1402 434 4 0 -9.926978149136643 -3.841417234770819 -3.5941954101442413 1 0 0
1400 434 2 0 -10.188241993171948 -4.0858812622830945 -3.8454350187242765 1 0 0
977 293 2 0 -9.369904082590237 -3.3511607591592116 -3.8520774711417842 1 0 0
979 293 4 0 -9.587522945295046 -3.624150837809589 -3.5759994673133635 1 0 0
978 293 4 0 -9.141029584544 -3.0840645920043914 -4.120605953892045 1 0 0
1709 537 2 0 -9.022661334757135 -1.6626760327027028 -4.0826727897960025 1 -1 0
1884 595 4 0 -7.665491388897802 -2.337509533533246 -4.202997405880957 1 0 0
1883 595 2 0 -7.987691484192554 -2.0700353605795705 -4.326071041615871 1 0 0
1710 537 4 0 -8.712424068207662 -1.868877327100277 -4.353379392236317 1 -1 0
1885 595 4 0 -8.332599894150349 -1.794610455583487 -4.451244835601056 1 0 0
439 113 4 0 -6.320517634083259 -2.5909905945044285 -3.778542974001694 0 0 0
280 60 4 0 -7.3393800632109265 -2.580345523941782 -4.241652851161528 0 0 0
279 60 4 0 -6.558346949639582 -2.9239691274113397 -3.8738803502686774 0 0 0
278 60 2 0 -6.964367188630853 -2.750355545473419 -4.059905329756682 0 0 0
437 113 2 0 -5.910571833622967 -2.4094213354080716 -3.865008438381894 0 0 0
438 113 4 0 -5.521541407444693 -2.2368162719356373 -3.93617952204415 0 0 0
1642 514 4 0 -5.223958391472292 -2.0225497471003617 -4.061365404410202 0 0 0
1640 514 2 0 -4.772858582952977 -2.0752526110385427 -3.9811626424939104 0 0 0
1641 514 4 0 -4.331722807177118 -2.131408915838308 -3.904394293637572 0 0 0
595 165 4 0 -4.12559609215529 -2.0853744154859197 -3.5514915879449487 0 0 0
593 165 2 0 -3.810449314879865 -2.2174937258380725 -3.254304035601901 0 0 0
594 165 4 0 -3.493706364902182 -2.3416946525594406 -2.9347591966548956 0 0 0
2445 782 4 0 -10.377440276125997 -0.9680680391178682 -3.6142616217872496 1 0 0
1711 537 4 0 -9.35231648377829 -1.4449704008139175 -3.811763855317882 1 -1 0
2446 782 4 0 -9.433937984938483 -1.0684425243572506 -3.7334477945703415 1 0 0
2444 782 2 0 -9.915489515857834 -1.0170396505967731 -3.6775198978905377 1 0 0
2973 958 4 0 -4.032035412281376 -10.141461372927742 -2.3377946735670854 0 0 0
345 82 4 0 -3.8515712461785956 -9.99856378019082 -1.99172564888771 0 0 0
2972 958 2 0 -3.992511540573896 -10.10736276184968 -2.796635274719339 0 0 0
344 82 2 0 -3.956827605893636 -10.016688164686434 -1.555491098912658 0 0 0
2360 754 2 0 -6.385170302570346 -8.391203957936693 -2.9347668290384044 0 0 1
2362 754 4 0 -6.115699461638844 -8.70630328383788 -2.6843492330022403 0 0 1
789 230 4 0 -5.807418025102734 -8.605659039079768 -1.5021793703250728 0 0 1
790 230 4 0 -5.858374998437051 -8.713045039736658 -2.3773911809131634 0 0 1
788 230 2 0 -5.827391256013071 -8.656619464776183 -1.9370923429919304 0 0 1
2564 822 2 0 -3.6484110226287076 -7.467620209798502 -2.093096533619422 0 1 0
384 95 4 0 -3.788765820047108 -8.250223383972013 -1.7932717200450066 0 0 0
2566 822 4 0 -3.6998731791409947 -7.862313985490926 -1.8469549782140433 0 1 0
2099 667 2 0 -3.387203395778651 -6.321331925420472 -2.6176214481557354 1 -1 0
2565 822 4 0 -3.587911043764488 -7.08211502453902 -2.338923265452591 0 1 0
2101 667 4 0 -3.5979156424215417 -6.712528765005767 -2.5065913526667583 1 -1 0
2100 667 4 0 -3.185177785759563 -5.935754850490133 -2.735966426546592 1 -1 0
2110 670 4 0 -2.874067552339051 -5.670226291348091 -2.692354338417174 1 -1 0
2108 670 2 0 -2.471860353339883 -5.494739885850115 -2.7602428864139443 1 -1 0
2109 670 4 0 -2.0510575547485934 -5.297668540177033 -2.825086951762762 1 -1 0
784 228 4 0 -3.706790658661289 -2.3803553416485204 -1.6307660371139938 0 0 0
782 228 2 0 -3.639295938707674 -2.3969857064953404 -2.0865712906962637 0 0 0
783 228 4 0 -3.573008660395746 -2.3981713446648776 -2.5384588833228845 0 0 0
362 88 2 0 -7.429716410758219 -0.12091812956379783 -1.5813745832896016 0 0 0
1841 581 2 0 -7.112038368785265 -0.8377457906555857 -0.7887816531855688 1 0 0
138 28 3 0 -4.488357604253745 -10.217805868968192 -0.15183649336654614 0 0 0
140 28 3 0 -3.8287347550034454 -10.341519792646105 -0.4374805077060397 0 0 0
139 28 3 0 -4.354152891868502 -10.164282732875849 -0.8932296928529684 0 0 0
346 82 4 0 -4.052576530696135 -10.028844657696006 -1.1179295854739462 0 0 0
136 28 1 0 -4.1785387150437305 -10.100412682496898 -0.48578371474152615 0 0 0
2551 817 4 0 -4.096957009918305 -9.404917783706681 -0.08872768679477952 1 1 0
137 28 3 0 -4.054567628827405 -9.627076426986825 -0.4257572077884473 0 0 0
2549 817 2 0 -3.9100124940109673 -9.039874759608685 -0.3569951011560143 1 1 0
2394 765 4 0 -6.0076373441489395 -7.586200568314788 -0.7360318811658223 0 0 0
2393 765 2 0 -5.971051229132895 -7.990770856859581 -0.9724015966321344 0 0 0
2395 765 4 0 -5.941763261800854 -8.38768549753055 -1.193953367224168 0 0 0
383 95 2 0 -3.870022333317946 -8.435311116374997 -1.3742551851063867 0 0 0
385 95 4 0 -3.9585722290998557 -8.624819909054922 -0.9454312245085712 0 0 0
2550 817 4 0 -3.7425505711896783 -8.698902002827795 -0.6144635764918402 1 1 0
2602 834 4 0 -8.790399167914698 -6.850334487075323 -0.5829904750429352 1 0 0
2600 834 2 0 -8.750966085702844 -6.849057750333157 -0.1127753788741876 1 0 0
454 118 4 0 -6.064919085336466 -7.219661465804824 -0.6091539388660757 0 0 0
452 118 2 0 -6.117545553765297 -7.026502946089945 -0.20419207944771653 0 0 0
1567 489 4 0 -5.604111648960935 -6.311945812589799 -0.5069659979192794 0 1 0
1565 489 2 0 -5.339386639740926 -6.185461460759015 -0.16005281020925605 0 1 0
2379 760 4 0 -3.9661630663528182 -6.0623988313906585 -1.333284700034073 0 1 1
1186 362 4 0 -4.685464038977822 -5.278514696994406 -1.3890322459968008 0 1 0
1184 362 2 0 -4.8815643522971035 -4.9049012288455955 -1.1699067706890431 0 1 0
1185 362 4 0 -5.08675566197281 -4.545770257252296 -0.9529570766417186 0 1 0
2380 760 4 0 -4.71239290862393 -5.599174266926889 -1.1920588627605537 0 1 1
2378 760 2 0 -4.351742286716475 -5.823656053434196 -1.265044197606767 0 1 1
182 37 3 0 -3.349009614979599 -4.781039793561968 -0.47893039060465864 0 0 0
183 37 3 0 -2.7039438189347536 -5.123391452289085 -0.3293647885331588 0 0 0
1831 577 4 0 -2.7363807346986424 -5.426569643505483 -0.06592837172489291 1 0 0
181 37 1 0 -2.9644413852275244 -4.739491976750304 -0.25941242226001 0 0 0
2425 775 4 0 -5.330885765639927 -3.4226388815697764 -0.622900616465426 1 0 0
2424 775 4 0 -5.38197053324245 -4.297773369119708 -0.8041305002894228 1 0 0
2423 775 2 0 -5.354170982713769 -3.8731188091935107 -0.7180916531547468 1 0 0
759 220 4 0 -5.3349492569777475 -3.1881294433717082 -0.3119306097373983 0 0 0
2757 886 4 0 -3.560584806356257 -3.2835092636751897 -0.6856547258403013 0 0 0
2106 669 4 0 -3.6347461206241096 -3.3837558545637463 -0.30148462096113876 0 0 0
2105 669 2 0 -4.0039308943421945 -3.5437690052253155 -0.11446525338108128 0 0 0
184 37 3 0 -2.7369296293355547 -4.378277144285368 -0.4126370563587545 0 0 0
1381 427 4 0 -1.9592024032566535 -3.3745494741663085 -0.3890350529659767 0 0 0
1380 427 4 0 -2.5658266704565325 -4.010109383565645 -0.4761807946384566 0 0 0
1379 427 2 0 -2.2596091417585735 -3.6903190639446755 -0.43678912628333527 0 0 0
2692 864 4 0 -1.5819558170255934 -3.576977359712038 -0.34998364967158546 0 0 0
2553 818 4 0 -0.4696100709127688 -3.4733808216388233 -0.06060292125188955 0 1 0
2690 864 2 0 -1.1448678466735414 -3.684912682816566 -0.2068443949675882 0 0 0
2691 864 4 0 -0.7322101875217129 -3.7834241230685937 -0.050569075166875845 0 0 0
1697 533 2 0 -6.529331043889626 -2.1641567476707597 -0.19488123049819592 1 0 0
1699 533 4 0 -6.0956954453161964 -2.3067013003475703 -0.21337636382096375 1 0 0
1698 533 4 0 -6.952963793956567 -2.019618749547045 -0.16994359789038538 1 0 0
760 220 4 0 -6.040890925260603 -2.6668245020882537 -0.05824841622645718 0 0 0
758 220 2 0 -5.688423576527944 -2.930714230752491 -0.19238318777909388 0 0 0
2758 886 4 0 -3.5282702767901233 -2.606222525041819 -1.3190654651243658 0 0 0
2756 886 2 0 -3.5498757872674656 -2.9517301654512695 -0.9988773422979735 0 0 0
1131 344 4 0 -10.229478324043958 -0.345387880275524 -0.054333883034243226 0 0 0
363 88 4 0 -7.5224559548953565 -0.38927629142084547 -1.24783771349863 0 0 0
35 7 3 0 -7.773876016889938 -1.3726234396981332 -0.04975331344863159 0 0 0
1843 581 4 0 -6.908783800286123 -0.9602509386870006 -0.38643656341004134 1 0 0
33 7 3 0 -7.092633636806582 -1.1927895704089542 -0.12523066055185486 0 0 0
1842 581 4 0 -7.304708304289709 -0.7073957325274183 -1.1851459230051986 1 0 0
578 160 2 0 -9.297593844674182 -9.23882513864233 0.755320786709268 0 1 0
1687 529 4 0 -9.86986836320298 -9.018109275360997 0.28518382307420675 0 1 0
579 160 4 0 -9.632961750969464 -9.019165253131776 0.5992805798572046 0 1 0
580 160 4 0 -8.936952258878518 -9.473496914495607 0.9376902164700943 0 1 0
2301 734 4 0 -8.650400358686408 -9.671090635801272 1.177914470251108 1 0 0
287 63 2 0 -4.657997951766245 -10.329571421666085 0.5622855102303171 0 0 0
289 63 4 0 -4.449819515923203 -10.08780158622644 0.2250787374229533 0 0 0
1928 610 2 0 -1.0726499093625135 -7.925095531570635 1.2872275547489125 1 0 0
1930 610 4 0 -0.8197664318600982 -8.032534169739884 0.9239543915556477 1 0 0
1822 574 4 0 -0.4801304031888676 -8.253276768810988 0.8589240937675822 1 0 0
1820 574 2 0 -0.08249093105306346 -8.445530574421971 1.0055908907912336 1 0 0
2601 834 4 0 -8.711191589100563 -6.844154182977062 0.34666753911615406 1 0 0
2431 777 4 0 -8.87414858553887 -6.671888138523923 0.6810654160878269 1 0 0
2429 777 2 0 -8.707784279559531 -6.733722424034001 1.0852115599225358 1 0 0
690 197 4 0 -8.188836516301777 -5.961037265695848 1.025924876182863 0 0 0
453 118 4 0 -6.172618798920021 -6.831446072979338 0.19224961412034658 0 0 0
2832 911 4 0 -5.909206230443651 -6.996663620321249 0.46181694330383377 0 1 0
2831 911 2 0 -5.67956757741642 -6.975389229531705 0.862867924627281 0 1 0
2833 911 4 0 -5.430868043142165 -6.957979445760047 1.2798498657039525 0 1 0
1566 489 4 0 -5.069903729996836 -6.066038582024205 0.19098040813075687 0 1 0
2586 829 4 0 -2.02840764469091 -6.047618959030502 0.3783973392536021 0 1 0
2585 829 2 0 -1.6192416554664102 -6.309078781688259 0.4641385942467567 0 1 0
2572 824 4 0 -1.108502831096618 -6.466005203794303 0.9182188239708499 0 1 0
2570 824 2 0 -0.7226350948153197 -6.43640271382586 1.1846944177528003 0 1 0
2587 829 4 0 -1.2531700292858792 -6.550936018586113 0.542483530154469 0 1 0
2571 824 4 0 -0.34790108260352975 -6.400459365100153 1.4491578197165287 0 1 0
689 197 2 0 -8.005608557659196 -5.620558626124129 1.2735010485304665 0 0 0
1375 425 4 0 -4.867896978467824 -5.770798358681305 0.37424601361587273 0 1 0
1373 425 2 0 -4.952817641140215 -5.306819536648779 0.45392683190369754 0 1 0
1374 425 4 0 -5.030670696114225 -4.860156292172312 0.5427483202291646 0 1 0
2196 699 4 0 -4.705797523216196 -4.68813341415688 0.6370197816080618 0 0 0
185 37 3 0 -3.0510123635275095 -4.69761991655038 0.17648753316271454 0 0 0
342 81 4 0 -3.1111033035027504 -4.466347262541892 0.47826946006947385 0 0 0
1830 577 4 0 -1.9846759426166005 -5.651400931984639 0.3768377746113196 1 0 0
1829 577 2 0 -2.344788848451689 -5.542399768519411 0.1586752395213497 1 0 0
2195 699 2 0 -4.564957713550833 -4.292412634621015 0.545450910555747 0 0 0
2197 699 4 0 -4.433261331020429 -3.860278383558093 0.43750148529774835 0 0 0
2107 669 4 0 -4.385386958611501 -3.7160761431314437 0.07018303537014331 0 0 0
341 81 2 0 -3.0253099973797615 -4.445568465692107 0.9197959244658355 0 0 0
343 81 4 0 -2.9318256246517 -4.42793967574781 1.3678051823527062 0 0 0
2552 818 2 0 -0.10958979304102662 -3.395492757142691 0.20918466401426142 0 1 0
34 7 3 0 -7.263907567429631 -1.847283247710509 0.01762671714759638 0 0 0
357 86 4 0 -9.102525311435583 -0.47001933391187384 0.6646671287436484 0 0 0
1130 344 2 0 -9.83374857184712 -0.3562133540861894 0.2005530052314989 0 0 0
1132 344 4 0 -9.445212575651764 -0.3664462402935701 0.45733771019406727 0 0 0
418 106 4 0 -8.052620521233365 -1.305934057374758 0.2153482459137154 0 0 0
356 86 2 0 -8.797185325883268 -0.18230719919146393 0.8391382531507625 0 0 0
416 106 2 0 -8.484967122635595 -1.404842303218173 0.10885907385105009 0 0 0
32 7 3 0 -7.336871038011548 -1.3649352396463834 0.5056486101270689 0 0 0
31 7 1 0 -7.36503142268248 -1.449578565829344 0.08284704395504994 0 0 0
721 207 4 0 -7.147630801120035 -1.4572564429975738 0.8596684525762506 0 0 0
719 207 2 0 -7.0217175258512 -1.1599306524134754 1.1623052487290044 0 0 0
720 207 4 0 -6.893558549556619 -0.857519828780399 1.4606865141109704 0 0 0
2300 734 2 0 -8.372686199508575 -9.462137936257921 1.5083709367479567 1 0 0
2302 734 4 0 -8.115734991151495 -9.257365164657571 1.8065165861927774 1 0 0
1737 546 4 0 -8.295642947331755 -9.046766194710191 2.0893818829895285 1 1 0
260 54 2 0 -6.391700197705806 -9.595852576177363 2.1025371813743714 0 0 0
261 54 4 0 -6.552203350235219 -9.161752268903603 2.197726289181577 0 0 0
262 54 4 0 -6.230980063718164 -10.043908603242432 1.9989923096599442 0 0 0
1377 426 4 0 -6.630779888412975 -8.930125584801454 2.527647657099245 0 1 0
1315 405 4 0 -5.913235859495621 -10.03986916192781 1.7925871856568696 -1 1 0
1313 405 2 0 -5.597069113644232 -10.33934561012494 1.6970507396051473 -1 1 0
1588 496 4 0 -1.6557586183470823 -9.142859844860977 2.6660874269469885 -1 1 0
1102 334 4 0 -1.3489989647923117 -9.364631916076615 2.7248636758982947 0 1 0
1736 546 2 0 -8.15818558178501 -8.677572039862133 2.3080916754037073 1 1 0
1738 546 4 0 -8.03091871930344 -8.316224108860075 2.5242812215232786 1 1 0
158 32 3 0 -7.943267918866412 -8.271381851489851 2.9142558173352695 0 0 0
1603 501 4 0 -7.528630910981838 -7.513932329533147 3.0005670762008108 0 0 0
1376 426 2 0 -6.920724171976715 -8.81930125705586 2.830423652990355 0 1 0
1045 315 4 0 -1.6799039016787372 -7.6587896176620704 2.8688745158615845 0 1 -1
1043 315 2 0 -2.084932074032906 -7.442943584151815 2.800565943588553 0 1 -1
1586 496 2 0 -1.4819560311138569 -8.779341663952945 2.45275904474097 -1 1 0
1929 610 4 0 -1.3176829793849338 -7.813319017965179 1.6432523480505856 1 0 0
1587 496 4 0 -1.3103350039811599 -8.431377532648542 2.2502530094714124 -1 1 0
102 21 3 0 -1.1463221466101343 -8.218596408978119 2.5547759790389257 0 1 0
103 21 3 0 -1.1997520439113112 -7.72765961416474 2.000473368741794 0 1 0
101 21 1 0 -1.0828283371441625 -7.781109053744517 2.4324469500040107 0 1 0
104 21 3 0 -1.3299616400738514 -7.5125967642798654 2.6945989780378548 0 1 0
105 21 3 0 -0.6149370025768892 -7.671923045531418 2.479122692591823 0 1 0
2430 777 4 0 -8.538927820605391 -6.79629801494861 1.4952379728051688 1 0 0