LAMMPS data file via write_data, version 4 Feb 2025, timestep = 4000000, units = lj

2000 atoms
4 atom types
1500 bonds
1 bond types
1750 angles
2 angle types

-8.346487 8.346487 xlo xhi
-8.346487 8.346487 ylo yhi
-8.346487 8.346487 zlo zhi
8.526512829121202e-14 0 0 xy xz yz

Masses

1 1
2 1
3 0.1
4 0.1

Bond Coeffs # harmonic/omp

1 100 0.45

Angle Coeffs # harmonic/omp

1 100 180
2 100 109.471

Atoms # full

791 159 1 0 -8.142089474169406 -7.537742326877964 -7.496829703942368 10 0 0
794 159 3 0 -7.713063608537414 -7.551756243218875 -7.659372116667224 10 0 0
795 159 3 0 8.323196098401674 -7.867085050828619 -7.667267614341253 9 0 0
793 159 3 0 -8.331116185622282 -7.143567848997744 -7.610010221696471 10 0 0
430 86 3 0 -1.3644542907386583 -6.724439610422708 -7.796008936140453 24 1 1
426 86 1 0 -1.7122386531328644 -6.599641632559884 -8.031802700453396 24 1 1
429 86 3 0 -2.0812174597103805 -6.574363678700952 -7.764594220273508 24 1 1
427 86 3 0 -1.788331542046075 -6.880212062707765 -8.333073068329666 24 1 1
509 102 3 0 4.621676596670454 -6.633106988867464 -7.825761791038647 13 0 1
1613 371 4 0 8.163110351534456 -6.831109648910198 -7.795511619099686 7 0 1
17 4 3 0 -7.849971296520376 -6.0754441500824115 -8.30273320687766 30 1 0
1612 371 4 0 -8.223606140627854 -6.093180214635762 -8.26991567942141 8 0 1
20 4 3 0 -7.098745158805819 -5.991742595651702 -8.216550262133012 30 1 0
428 86 3 0 -1.6215219953311255 -6.197720036749663 -8.220961957696385 24 1 1
506 102 1 0 4.892955167527667 -6.406168305522731 -7.525228813989137 13 0 1
508 102 3 0 5.228539402646083 -6.214492133268788 -7.739063810184361 13 0 1
1399 300 4 0 5.60034851568475 -6.0970354195124 -7.904865374691887 -9 -1 1
1398 300 2 0 5.811374833423997 -6.022100578082903 -8.29481449951651 -9 -1 1
1611 371 2 0 8.314696496669583 -6.458440062082395 -8.030210251409825 7 0 1
570 114 3 0 -8.27460668479667 -2.9070759805989512 -7.497526313766929 14 0 2
344 69 3 0 -6.73180290221692 -3.4350914558953267 -8.26604739096699 17 0 1
1012 203 3 0 -5.217579644908371 -3.6405506883112295 -7.511692553231802 34 1 -1
1379 293 4 0 -4.971752201764559 -3.377111259826135 -7.703416119106817 12 0 0
1377 293 2 0 -4.737611729217534 -3.1101975064491665 -8.017510544863999 12 0 0
1378 293 4 0 -4.50869539948679 -2.85194639244106 -8.324973108219456 12 0 0
1993 498 4 0 -2.5142310232251663 -2.9199069862126663 -8.26922611013237 11 0 1
569 114 3 0 7.823277241161353 -3.3555605371902955 -7.630069136857381 13 0 2
566 114 1 0 7.95237720832754 -2.9187812070675276 -7.533323574114417 13 0 2
1629 377 2 0 -8.21736228657803 -2.3840644810291787 -8.333192550807004 11 0 0
1992 498 2 0 -2.2040786409413125 -2.6216620735195555 -8.218810154672187 11 0 1
1994 498 4 0 -1.8810814367554771 -2.30629091645618 -8.179363610956148 11 0 1
634 127 3 0 -1.4919839088288018 -2.2300331403143625 -8.168673578356884 10 0 0
631 127 1 0 -1.3292004933461783 -1.9251880340847904 -7.873139438691355 10 0 0
633 127 3 0 -1.554462087356696 -1.9224499600150722 -7.549299628237236 10 0 0
635 127 3 0 -0.8992279435986514 -2.037825538879795 -7.7588489766309925 10 0 0
1816 439 4 0 -0.5584120814836249 -2.0717452560238385 -7.544217964274194 17 0 1
162 33 3 0 2.8160024104716967 -1.8916377040707006 -8.156115281600563 20 0 1
466 94 1 0 3.8006762296052425 -2.6888181081568625 -8.333444889066763 9 0 2
468 94 3 0 3.8954014397699783 -2.6565432937067825 -7.882474480904436 9 0 2
1630 377 4 0 8.155955839283862 -2.4756450576620086 -7.9952935469078685 10 0 0
567 114 3 0 7.814854901891806 -2.6434297207167026 -7.865699577529835 13 0 2
1781 427 4 0 -3.7449525619019157 -1.1669656632982859 -7.729634344394961 18 0 0
1653 385 2 0 -1.9897676668099038 -1.0517695096747417 -8.072624342867252 16 0 0
1654 385 4 0 -1.5805321152708958 -1.2257198452528337 -8.204598733646318 16 0 0
632 127 3 0 -1.339613409893599 -1.5194438997142719 -8.061943166450135 10 0 0
1815 439 2 0 -0.24626075812080295 -1.77914275134013 -7.660625439975655 17 0 1
378 76 3 0 0.32804144170520644 -1.1676354360226933 -7.944542699706509 18 0 0
1817 439 4 0 0.08976340968973595 -1.4535685134781913 -7.782271310546507 17 0 1
1530 344 2 0 1.6561367789930248 -0.9893753713669629 -8.299665499034717 19 0 1
1532 344 4 0 2.071556536910169 -1.1441246010833037 -8.26325273465974 19 0 1
161 33 1 0 2.7727590595038496 -1.4420918828327292 -8.140535288449305 20 0 1
164 33 3 0 3.07502453810015 -1.267115723102254 -7.848141192847356 20 0 1
163 33 3 0 2.343663775452523 -1.3238523686040011 -8.019267143037947 20 0 1
1900 467 4 0 3.423897537118023 -1.2225137758495412 -7.678377032840809 14 0 1
1899 467 2 0 3.7948816576606745 -0.9621328344868614 -7.703557517086179 14 0 1
1389 297 2 0 7.7128995180133835 -1.1733882875459871 -7.986151085528213 11 0 1
1390 297 4 0 7.769236538314839 -1.107166349205336 -7.551846682750601 11 0 1
717 144 3 0 -3.428545523253648 -0.9111814219053311 -7.817343165486975 13 0 0
716 144 1 0 -3.1091805987617844 -0.6841629850121889 -8.018517834624578 13 0 0
720 144 3 0 -3.1998730635015713 -0.27273665870567143 -8.011653529472662 13 0 0
1655 385 4 0 -2.369707923247635 -0.8902409858627971 -7.961981938263395 16 0 0
718 144 3 0 -2.720322303959623 -0.7610422287552234 -7.809418774185588 13 0 0
379 76 3 0 0.3791033207503425 -0.4453301562593799 -7.824458890314873 18 0 0
380 76 3 0 0.9691040194947025 -0.851214419170943 -8.066258818048047 18 0 0
376 76 1 0 0.5972550735298761 -0.860788764154548 -7.8008785230719955 18 0 0
1531 344 4 0 1.267857466957988 -0.8537217064239471 -8.329547592177853 19 0 1
1901 467 4 0 4.150332186229894 -0.7093579971086577 -7.73028891512619 14 0 1
1020 204 3 0 4.475308422889649 -0.5230257976529105 -7.705061801941135 37 1 1
1016 204 1 0 4.797893340708185 -0.33804293257110096 -7.948559572687934 37 1 1
1018 204 3 0 5.120054165550361 -0.6215163575337215 -8.019564150015386 37 1 1
792 159 3 0 -8.130959433577823 -7.586433994670531 -7.023018251489229 10 0 0
507 102 3 0 5.048449852888691 -6.6905164414462535 -7.2189796169252345 13 0 1
76 16 1 0 2.888616489717622 -6.112948721037891 -6.593771754138206 29 1 0
77 16 3 0 2.5265669091464407 -6.076599331987594 -6.868430206172069 29 1 0
80 16 3 0 3.227689047297673 -6.2328182127473335 -6.834889346197825 29 1 0
1701 401 2 0 3.8211424299326175 -6.021229987235436 -7.18183992726761 21 0 1
1702 401 4 0 3.3937458182097444 -5.945179397286876 -7.077608668113596 21 0 1
1703 401 4 0 4.220840024571711 -6.095145474976644 -7.291168482443964 21 0 1
510 102 3 0 4.636664570443131 -6.089576109178585 -7.319026141437042 13 0 1
1015 203 3 0 -5.615990246947265 -3.9414598947992037 -6.982197801733683 34 1 -1
1014 203 3 0 -5.891719278637085 -3.3695027399935418 -7.3709208597878995 34 1 -1
1011 203 1 0 -5.50680059484896 -3.5605954448713133 -7.193281151277788 34 1 -1
1013 203 3 0 -5.319872096866458 -3.276719382087758 -6.901131459453013 34 1 -1
1459 320 4 0 -5.17639452312752 -3.184617638154453 -6.535876551561783 17 0 0
1458 320 2 0 -4.81003519341686 -2.919827717923395 -6.619140159753285 17 0 0
568 114 3 0 7.765181564409797 -2.784876180908988 -7.142421930678897 13 0 2
943 189 3 0 -3.9817945569226953 -1.9402967172145846 -6.7381184268271275 20 0 1
1460 320 4 0 -4.434590300167468 -2.647323124180245 -6.71415157098065 17 0 0
293 59 3 0 2.173701506143903 -1.9152085070665814 -6.822526460017745 22 0 1
1623 375 2 0 7.3765149731140625 -2.118959576666862 -6.980547993968083 22 0 0
1624 375 4 0 7.571097582857613 -2.44243197391057 -7.227629525630303 22 0 0
1780 427 4 0 -3.8698117841359334 -1.6132063512173413 -6.9305958012542295 18 0 0
1779 427 2 0 -3.8110630084050348 -1.3850126878271674 -7.33706115914748 18 0 0
377 76 3 0 0.7214508327241003 -0.9341840836577999 -7.3823193142602825 18 0 0
294 59 3 0 1.6991217704501285 -1.3808215024718917 -6.628547131546338 22 0 1
291 59 1 0 2.1170280121848712 -1.518338419430929 -6.588177870409712 22 0 1
295 59 3 0 2.387528703021756 -1.2061621158730533 -6.7495862335031696 22 0 1
1625 375 4 0 7.184456153014079 -1.8038111408805566 -6.737974058929535 22 0 0
685 137 3 0 7.36908276394373 -1.4754651812387616 -6.657050250606141 26 0 0
683 137 3 0 7.753896459409887 -1.08899375902301 -7.166557039564034 26 0 0
681 137 1 0 7.608615119638621 -1.0590265652667137 -6.7588245252383485 26 0 0
1840 447 4 0 8.292425137294195 -1.1163722654988355 -6.641277341292123 16 0 0
682 137 3 0 7.335646684885379 -0.7122234066122983 -6.72128377655212 26 0 0
78 16 3 0 2.9756642367178383 -5.710579379075846 -6.38173576528888 29 1 0
79 16 3 0 2.802395477737514 -6.437919340106934 -6.26413108771486 29 1 0
945 189 3 0 -4.470286334717016 -2.397584106110876 -6.399932247021585 20 0 1
941 189 1 0 -4.19253906453628 -2.0518202641521706 -6.3331629224018595 20 0 1
944 189 3 0 -3.862333883274287 -2.1817129651764224 -6.006253124909089 20 0 1
942 189 3 0 -4.401510820039188 -1.7367145212984454 -6.1948287035389535 20 0 1
292 59 3 0 2.202663285724359 -1.5824116768775598 -6.153758786897809 22 0 1
1747 416 4 0 2.5490727806213176 -1.6687222582520125 -5.957686077550385 19 0 0
1746 416 2 0 2.8306796974238413 -1.4891977520704192 -5.6664674911940764 19 0 0
684 137 3 0 7.9593548199885085 -1.0119438070571372 -6.472634055246283 26 0 0
1839 447 2 0 -8.082496324712734 -0.8546005097508385 -6.463711612154498 17 0 0
1841 447 4 0 -7.758646790376367 -0.5749649166422 -6.270863122187283 17 0 0
48 10 3 0 -7.471747108599096 -0.47119735713079436 -6.0185111884510345 10 0 1
49 10 3 0 -6.745454658752567 -0.4754201047030069 -5.846452162811069 10 0 1
46 10 1 0 -7.1722676313577205 -0.38579616640520964 -5.692750996032736 10 0 1
1349 283 4 0 -6.4841725336289935 -0.38940512530007165 -6.123285604780443 15 0 0
1347 283 2 0 -6.112725379860422 -0.13580833728399888 -6.122170595711389 15 0 0
144 29 3 0 6.24373127602637 -0.11485129442742625 -5.707167536437874 11 0 0
1790 430 4 0 -8.024212382693381 -6.69776041401494 -5.043555593862113 19 0 1
275 55 3 0 -8.194370946633951 -6.99059823371326 -4.850238406083514 19 0 1
1788 430 2 0 -7.7593101077705215 -6.505070232376881 -4.737974515165396 19 0 1
273 55 3 0 7.954939101655825 -7.289736532467287 -5.250007308658381 18 0 1
271 55 1 0 8.103397558757422 -7.20056701927313 -4.8218631076887615 18 0 1
745 149 3 0 1.5384607907288643 -5.882930569811326 -4.9567525080435715 30 1 -1
741 149 1 0 1.3726722215866776 -5.581704806934479 -4.664790352808619 30 1 -1
743 149 3 0 1.1536522482923335 -5.260401207972009 -4.879293790350418 30 1 -1
1099 220 3 0 -1.8509985316366215 -4.475735192722292 -4.860423024924418 6 0 0
443 89 3 0 8.22529968721048 -2.8102524263716715 -5.185146290086838 20 0 1
441 89 1 0 8.009284661457698 -2.8699079787142026 -4.784546016236752 20 0 1
442 89 3 0 7.840043847632899 -3.2871365125316414 -4.763629217254406 20 0 1
1826 442 4 0 7.7205425659051095 -3.6833718135530633 -4.793312606106629 13 0 0
444 89 3 0 7.663842331153127 -2.5703287786259743 -4.747124864392944 20 0 1
404 81 3 0 3.4087262228886903 -1.0360070794474447 -5.235742668657288 13 0 1
1748 416 4 0 3.1318586242042805 -1.2781122229138626 -5.347185816875882 19 0 0
1492 331 4 0 -7.394986565119401 -0.7197293614776736 -4.964427584538032 17 0 1
50 10 3 0 -7.266368223793951 -0.6555585569188329 -5.325018119845019 10 0 1
403 81 3 0 3.5888985771426594 -0.3939387214555756 -5.543615403283233 13 0 1
401 81 1 0 3.6991910558167973 -0.7068034131220093 -5.224515460638219 13 0 1
405 81 3 0 3.6995174840490677 -0.5096667440330425 -4.793105979690694 13 0 1
402 81 3 0 4.10482008827408 -0.86860985390895 -5.316191184303333 13 0 1
1760 420 4 0 4.391944028519276 -0.5965901491274197 -5.235092519641679 11 0 0
1758 420 2 0 4.811624004255782 -0.5054767249277266 -5.308819991898832 11 0 0
142 29 3 0 5.556121832117864 -0.1631734530451947 -5.487587068020093 11 0 0
1759 420 4 0 5.249361081999377 -0.407135465004842 -5.389603218878792 11 0 0
143 29 3 0 6.092116666157867 -0.12098594969691057 -5.001136076505601 11 0 0
1346 282 4 0 6.037341981292805 -0.3349640273708623 -4.671697245183969 14 0 1
272 55 3 0 8.150275100053072 -7.562471574078055 -4.595152846791691 18 0 1
274 55 3 0 7.80882530376017 -6.953416239049215 -4.624499462949204 18 0 1
1789 430 4 0 -7.506109065973842 -6.3082924844228065 -4.437070626968357 19 0 1
422 85 3 0 -7.220101468790495 -6.029028257011948 -4.420680225901029 34 1 0
421 85 1 0 -7.269813417260458 -5.676397448057305 -4.133084448939255 34 1 0
1149 230 3 0 -4.0485588971275375 -5.697080411772497 -3.92073443756464 42 2 1
1146 230 1 0 -4.191279037363889 -5.600315362080492 -4.326980372314314 42 2 1
1150 230 3 0 -4.569829417372079 -5.828147961396445 -4.404875413922639 42 2 1
1148 230 3 0 -3.9027237538710793 -5.706995095769241 -4.61185424962697 42 2 1
1757 419 4 0 0.9257323484083937 -5.755392944638868 -4.006404661959777 31 1 0
742 149 3 0 1.0907135163664528 -5.787046304813557 -4.376523435254326 30 1 -1
1755 419 2 0 0.5319465650405899 -5.789250858506492 -3.7640124585633306 31 1 0
1982 494 4 0 -8.079565445802094 -5.532301327569197 -4.237540494887237 17 0 1
424 85 3 0 -7.67650682917236 -5.48913577840864 -4.184392446648971 34 1 0
423 85 3 0 -6.959201553162508 -5.366621176790946 -4.226614468381244 34 1 0
1489 330 4 0 -6.531650692465465 -5.351009755010844 -4.229698137171591 2 -1 0
1488 330 2 0 -6.230569608032944 -5.130407748201755 -3.993404995252882 2 -1 0
1490 330 4 0 -5.926007343187848 -4.90975570852938 -3.7585155431579826 2 -1 0
1147 230 3 0 -4.276826941126637 -5.1315550698735795 -4.3714363890144625 42 2 1
744 149 3 0 1.7274190920017105 -5.4003983496973404 -4.431080259191191 30 1 -1
1534 345 4 0 1.9665182090223627 -5.318730161946162 -4.126274086741518 11 0 0
1535 345 4 0 2.8619626006639045 -5.418557013238595 -3.9517120810300375 11 0 0
1533 345 2 0 2.4183690638242314 -5.368171388181127 -4.038638761462981 11 0 0
6 2 1 0 3.5836761436489333 -5.2811310663242015 -4.015337925659585 13 0 -1
10 2 3 0 3.904243488882619 -5.355631124737573 -4.324436808526039 13 0 -1
9 2 3 0 3.212227138732713 -5.5170357006156205 -4.123853906334036 13 0 -1
7 2 3 0 3.489457478635778 -4.864938716363825 -4.0080697818072 13 0 -1
1980 494 2 0 8.271209492173522 -5.385163937827347 -3.988300367528012 16 0 1
1981 494 4 0 7.9302297924254646 -5.237572161411965 -3.7454821222653027 16 0 1
1107 222 3 0 -5.893978096124032 -4.503189031112706 -3.737685368705705 23 0 0
1108 222 3 0 -6.028431274333898 -3.7949695042977707 -3.8991785743438205 23 0 0
1802 434 4 0 -2.7177995970710933 -3.9096215667982017 -4.4857962092095605 15 0 1
1097 220 3 0 -2.379416058734977 -4.078792673079284 -4.604568313278733 6 0 0
1100 220 3 0 -1.6994305881616611 -3.8093112274582444 -4.6145757557347995 6 0 0
1096 220 1 0 -1.9557554513503268 -4.177391950427263 -4.55400231067447 6 0 0
1098 220 3 0 -1.880980734636589 -4.345492691347804 -4.133864874983082 6 0 0
1677 393 2 0 1.6488237328375845 -3.9239837079622406 -3.7862229730977557 10 0 0
312 63 3 0 7.498324812173426 -4.6349613819971704 -4.075679762913177 0 -1 0
1824 442 2 0 7.646088582399109 -3.9598199487731156 -4.438697732045357 13 0 0
1825 442 4 0 7.577491352016828 -4.239064046111783 -4.080969733347026 13 0 0
1463 321 4 0 -7.998864797773777 -2.8505661669112294 -4.405689058484607 -8 -1 0
1461 321 2 0 -7.693850842907546 -2.8037339288769427 -4.071076276105654 -8 -1 0
1801 434 4 0 -3.1377469557877564 -3.3880800246786666 -3.880591878858816 15 0 1
1800 434 2 0 -2.932756980081341 -3.645660124291748 -4.171794557125667 15 0 1
1678 393 4 0 1.9920014981153127 -3.706995078156206 -4.003497962954563 10 0 0
1234 247 3 0 2.0019474876876746 -3.322003237550356 -3.8663392831426506 12 0 1
1235 247 3 0 2.4459859240493955 -3.2247942229905355 -4.4858265447119425 12 0 1
1231 247 1 0 2.3351929462162584 -3.0549759475905987 -4.052136064469523 12 0 1
1233 247 3 0 2.6931108405407933 -3.0598026106905865 -3.8037344924948195 12 0 1
445 89 3 0 8.300946250808533 -2.8102603513513635 -4.45038938336994 20 0 1
660 132 3 0 -8.166315361052646 -1.9907251324443145 -4.334260730866214 18 0 0
1462 321 4 0 -7.3933279979447475 -2.76366064527879 -3.738752440614671 -8 -1 0
1232 247 3 0 2.169514744609433 -2.607564518839368 -4.086284039492547 12 0 1
475 95 3 0 4.129022886281911 -1.8825695191873821 -4.113830455600688 -10 -1 1
658 132 3 0 -7.979218263478795 -1.2740678024726462 -4.134711294632027 18 0 0
656 132 1 0 -8.298589721437663 -1.6001873397578104 -4.098755117886016 18 0 0
471 95 1 0 3.7409832089394506 -1.6381054870084562 -4.024504468600189 -10 -1 1
473 95 3 0 3.3858020446233503 -1.8081447676615312 -4.280901667248989 -10 -1 1
474 95 3 0 3.804701959980095 -1.2226208190139873 -4.109286175628406 -10 -1 1
1485 329 2 0 7.298580274507531 -1.4473639780101593 -4.241399258258787 14 0 0
1487 329 4 0 6.925555901702955 -1.4853743172673903 -3.9687114474191816 14 0 0
657 132 3 0 7.998316174762099 -1.4437395851465151 -4.265868237406048 17 0 0
1486 329 4 0 7.677257389668167 -1.397163011657729 -4.519905983354528 14 0 0
1491 331 2 0 -7.635191976727496 -0.8183682604688727 -4.614448185157585 17 0 1
1493 331 4 0 -7.879899009806525 -0.9199917505429918 -4.2628543867707185 17 0 1
1894 465 4 0 -5.916248627723608 -0.49269801944518576 -3.805770297289465 29 0 0
1893 465 2 0 -5.990470871022223 -0.14433465094659148 -4.0612643695960395 29 0 0
1142 229 3 0 0.029824233273107126 -0.32855476242245274 -4.115860322390401 14 0 0
1141 229 1 0 0.17589662018484375 -0.17424869718227676 -3.740649395524602 14 0 0
1145 229 3 0 0.6038963190490954 -0.06826493637136188 -3.78707916866146 14 0 0
1591 364 4 0 0.8399761400073942 -0.1262061508099528 -4.104598087441845 11 0 0
1590 364 2 0 1.3021557832531894 -0.2230753677936672 -4.1286439895321925 11 0 0
1592 364 4 0 1.7403398508519743 -0.3169362543110381 -4.153717019835784 11 0 0
308 62 3 0 1.8669465251599924 -0.5172869697374249 -3.819506052212306 10 0 0
309 62 3 0 2.5871262968046977 -0.5958836966641323 -3.9264691698157597 10 0 0
1978 493 4 0 2.8423203207436174 -0.8819953481172913 -4.012949779085709 12 0 1
1979 493 4 0 3.555811722487766 -0.44722119108629954 -4.411253594648867 12 0 1
1977 493 2 0 3.195589916817976 -0.6617335904509192 -4.204115060070192 12 0 1
93 19 3 0 6.2880738748962735 -0.8757191368654222 -3.7992179318980686 -8 -1 0
1345 282 4 0 5.922734682292035 -0.7684315518273497 -3.871376487395543 14 0 1
1344 282 2 0 5.980511414575419 -0.5458757189629155 -4.283882832269661 14 0 1
425 85 3 0 -7.224569533303693 -5.820880275491077 -3.690984395760144 34 1 0
1306 269 4 0 -7.37479337610023 -5.6704075055475025 -3.359692111903265 21 0 0
1635 379 2 0 -0.3097996367178464 -5.898260224075072 -2.8342195370920615 31 1 0
1636 379 4 0 0.01739409425893257 -5.886187437572607 -3.1584839259271025 31 1 0
1756 419 4 0 0.1428095197516548 -5.820150532202054 -3.5247847825834935 31 1 0
1307 269 4 0 -7.676645746505954 -4.92083598141066 -2.961074629592451 21 0 0
1305 269 2 0 -7.52543048568371 -5.294420396202453 -3.1580333735341473 21 0 0
922 185 3 0 0.9794178414886403 -4.920876600340378 -3.26358463772692 17 0 0
8 2 3 0 3.7286126685935574 -5.41065760920034 -3.6163785909889574 13 0 -1
313 63 3 0 7.040239420447861 -4.81623728201854 -3.5057691171507974 0 -1 0
311 63 1 0 7.471617132986205 -4.707737198999329 -3.6075790909464995 0 -1 0
314 63 3 0 7.7258603215492165 -5.025601564673509 -3.494997018323354 0 -1 0
1250 250 3 0 -7.578168996668373 -4.02455545852554 -3.229521059896884 30 1 0
1246 250 1 0 -7.695498415634529 -4.112884606923265 -2.8323820507125728 30 1 0
1248 250 3 0 -7.808223103581532 -4.546319915831844 -2.813736978648347 30 1 0
1106 222 1 0 -5.908918522019721 -4.079651310785668 -3.5738219821535804 23 0 0
1109 222 3 0 -6.206641403344394 -4.070104626739816 -3.2424489432672425 23 0 0
1110 222 3 0 -5.528752274224694 -3.9690065604019464 -3.4174161415820254 23 0 0
1336 279 4 0 -5.2045704126181285 -3.9436752515005775 -3.19027182433081 11 0 -1
924 185 3 0 0.48344345325530647 -4.527397876044665 -3.647207972991005 17 0 0
923 185 3 0 1.010703620920447 -4.1781244992364766 -3.3027123187525502 17 0 0
1679 393 4 0 1.2983692356539969 -4.1516014575414095 -3.581386805336324 10 0 0
921 185 1 0 0.7333982084657684 -4.522976813281383 -3.283932483939923 17 0 0
925 185 3 0 0.47180484351557794 -4.486661677174866 -2.913974209900598 17 0 0
1809 437 2 0 7.442030027674335 -3.7357953588219743 -2.9250928693828104 12 0 0
1811 437 4 0 7.556038112836573 -3.948378303629376 -3.3275350576333036 12 0 0
315 63 3 0 7.587841589070743 -4.340342203848742 -3.394869708453646 0 -1 0
1786 429 4 0 2.9990380383406876 -3.204693164299509 -3.5924694776579766 18 0 0
1785 429 2 0 3.110075619176966 -3.0643765729122157 -3.20408391717054 18 0 0
1787 429 4 0 3.219529497920602 -2.9105874795245565 -2.7941620910077596 18 0 0
283 57 3 0 -7.499167512147622 -2.2485554488541757 -2.862303153899754 27 0 0
282 57 3 0 -7.409664915844754 -2.360347447865726 -3.6323443745135666 27 0 0
284 57 3 0 -6.877591244673402 -2.6118967759237783 -3.146569501385307 27 0 0
281 57 1 0 -7.178356592737549 -2.2771390333859367 -3.235145900498539 27 0 0
285 57 3 0 -6.966864627409011 -1.8790598635309212 -3.267412322561409 27 0 0
1693 398 4 0 -6.568483770875522 -2.5434987647356637 -2.888155187497831 38 1 0
804 161 3 0 4.1959224443736645 -1.9652836562028666 -3.0582889815973706 28 0 0
54 11 3 0 7.232684143739204 -2.5576937687946213 -3.020848823881992 13 0 -1
1898 466 4 0 7.263422425877804 -2.285537213641592 -3.323094628420339 12 0 0
1896 466 2 0 7.644818032750486 -2.132397129028452 -3.447666542299727 12 0 0
1897 466 4 0 8.031528669082984 -1.9720529284404078 -3.5740640854088728 12 0 0
1382 294 4 0 -6.811044328757234 -1.6920802057310889 -3.593621117771792 18 0 0
1381 294 4 0 -5.915961576594764 -1.4785505536074455 -3.387991807198814 18 0 0
212 43 3 0 -5.786324162052029 -1.1058211509770466 -3.431224720347986 26 0 -1
1380 294 2 0 -6.3657715980474965 -1.5874925363136558 -3.490623602552355 18 0 0
310 62 3 0 2.1876624822596593 -1.1064395698587735 -3.566622065027757 10 0 0
472 95 3 0 3.633259194032915 -1.6808820491661907 -3.561294676842982 -10 -1 1
802 161 3 0 4.142850635904535 -1.2957286857089398 -3.354800793419577 28 0 0
801 161 1 0 4.228672850422555 -1.5224826092633563 -2.980537275721061 28 0 0
805 161 3 0 4.62526781157513 -1.4358580860586985 -2.8451175075341064 28 0 0
1880 460 4 0 4.922184016299358 -1.1772607874771195 -2.947748247397211 31 1 0
1878 460 2 0 5.346740192952819 -1.3144111728728696 -3.0974581013047278 31 1 0
1879 460 4 0 5.718236075647571 -1.4427307836202425 -3.2475718234773465 31 1 0
91 19 1 0 6.433957459204166 -1.123709145005793 -3.4655441709915955 -8 -1 0
95 19 3 0 6.108805021066857 -1.3879202666418742 -3.3182765018568565 -8 -1 0
94 19 3 0 6.766976761699377 -1.3634758537879295 -3.601076159691562 -8 -1 0
659 132 3 0 8.33736300994838 -1.7206395347660575 -3.639487472561795 17 0 0
211 43 1 0 -5.5313932592973964 -0.7333067245079796 -3.309953158769141 26 0 -1
214 43 3 0 -5.095831881419738 -0.8718211213179625 -3.2284972986356806 26 0 -1
215 43 3 0 -5.531379587349946 -0.4358128918202189 -3.649945457306007 26 0 -1
1421 307 4 0 -5.015772866561648 -0.7360761414410506 -2.835053819081036 16 0 1
213 43 3 0 -5.70197529837953 -0.5360478082466873 -2.9400567438115797 26 0 -1
1144 229 3 0 0.12856857619885353 -0.49312850303927913 -3.4134320087007435 14 0 0
306 62 1 0 2.232247884310528 -0.6774869745921945 -3.639464563892682 10 0 0
307 62 3 0 2.3005513548346297 -0.4849486602953368 -3.272665753830953 10 0 0
92 19 3 0 6.5767316968566405 -0.8586961227999659 -3.135297139207996 -8 -1 0
300 60 3 0 -1.3191578155677455 -7.609286010322892 -1.8579533025843702 15 0 0
298 60 3 0 -1.6505026982451607 -8.26675305725401 -1.9676317932609066 15 0 0
296 60 1 0 -1.246313004411988 -8.051749788280745 -1.9217878675484705 15 0 0
297 60 3 0 -0.9944547683429823 -8.101928254536356 -2.285980266877937 15 0 0
389 78 3 0 -2.8049817935752728 -7.295183365796497 -1.9260524960748455 13 0 0
348 70 3 0 -1.5415525999478774 -6.169363405807494 -2.4361782199942947 8 0 0
346 70 1 0 -1.3264672166855043 -5.806956327235625 -2.3954768780155113 8 0 0
349 70 3 0 -0.9928286715134949 -5.792403276239897 -2.6912127751804285 8 0 0
1637 379 4 0 -0.6339237033343137 -5.895079076836036 -2.4962166764620077 31 1 0
350 70 3 0 -1.1507637829535762 -5.768622280620591 -1.9655278431961225 8 0 0
1227 246 3 0 4.786756008500676 -6.183300597346319 -1.8569394208895709 20 0 0
1229 246 3 0 4.804985926875993 -5.992155887824018 -2.539218247534407 20 0 0
1226 246 1 0 5.034109005302859 -6.007918587515218 -2.1809850227550953 20 0 0
1228 246 3 0 5.395975637949785 -6.2756344357311 -2.252229119635661 20 0 0
1230 246 3 0 5.171639803578847 -5.577636941664553 -2.0552117766423823 20 0 0
1537 346 4 0 5.7219898337019615 -6.338147110139786 -2.074271553287087 3 -1 0
347 70 3 0 -1.5895085090403844 -5.465580921319199 -2.4654827194745472 8 0 0
597 120 3 0 2.872376480748869 -4.701632132224487 -2.046478153623733 -8 -1 0
1397 299 4 0 5.147668356455064 -5.247284418499395 -1.862090274579594 19 0 0
1395 299 2 0 4.950935160340899 -4.874178515736132 -2.0483650525917154 19 0 0
1249 250 3 0 -8.044137128549982 -3.8560312779212254 -2.7168983893462677 30 1 0
1247 250 3 0 -7.312570581210637 -4.0222527470804215 -2.532501323815489 30 1 0
1585 362 4 0 -7.308857208342121 -4.186019855036589 -2.1773085734548063 11 0 0
1584 362 2 0 -7.032583979500096 -3.8831397160653776 -1.9820887417672175 11 0 0
1335 279 2 0 -5.257037294110567 -3.809380352408544 -2.725501892785851 11 0 -1
1479 327 2 0 0.1176186621355555 -4.18879957944226 -2.284567508088788 -3 -1 1
1481 327 4 0 -0.12868931026341457 -3.8344969272083347 -2.0256427646711126 -3 -1 1
1480 327 4 0 0.34569246493476946 -4.517750605716762 -2.5247758835510883 -3 -1 1
596 120 1 0 2.876465598924085 -4.380832212556667 -2.3742123602222156 -8 -1 0
598 120 3 0 2.5698182026129732 -4.4937440422361075 -2.6964989374912447 -8 -1 0
599 120 3 0 2.7672466189777154 -4.00257030813968 -2.202769503161247 -8 -1 0
600 120 3 0 3.310697743077794 -4.35667960978315 -2.5712934829405736 -8 -1 0
224 45 3 0 3.8995880201561075 -3.8332380141054205 -2.0097034923515595 12 0 0
221 45 1 0 4.338563204546231 -3.8668308494053845 -1.8595451592098557 12 0 0
223 45 3 0 4.545689962750817 -4.222636226076265 -2.0725200168714295 12 0 0
1396 299 4 0 4.759591514193676 -4.509720551653544 -2.2400363909329464 19 0 0
1694 398 4 0 -6.342689951624877 -3.112950011191396 -2.2118709282456237 38 1 0
733 147 3 0 -6.02549961740819 -3.073839129056414 -2.009580784137544 14 0 -1
1692 398 2 0 -6.461452225986823 -2.8236695499031956 -2.562367171128227 38 1 0
1337 279 4 0 -5.309279790109141 -3.680490435497669 -2.294693940864449 11 0 -1
735 147 3 0 -5.682194332186839 -3.6833658493679895 -2.126159579272949 14 0 -1
528 106 3 0 -0.6712821776888784 -2.8740697393538372 -2.1130859554894528 13 0 0
530 106 3 0 -0.21923942685634046 -3.4616262189824667 -2.023739004629455 13 0 0
526 106 1 0 -0.305606484536856 -3.017837191077197 -1.9085473038224547 13 0 0
239 48 3 0 3.7003766789074817 -2.789871706713898 -2.0111197299252073 0 -1 0
225 45 3 0 4.550810355735257 -3.4856103333581006 -1.9429960266495288 12 0 0
1515 339 2 0 5.8610220791545355 -2.830796438432043 -2.430057603663574 12 0 1
1517 339 4 0 6.221297503971817 -2.8789446626228496 -2.7312396779908816 12 0 1
1810 437 4 0 7.332562050870624 -3.5332160933459695 -2.5356187812344286 12 0 0
52 11 3 0 7.132575049328947 -3.2012383557099664 -2.671724374591907 13 0 -1
231 47 1 0 -7.594030063156898 -2.6205581098834054 -2.0175858430897886 11 0 0
233 47 3 0 -7.88101190503124 -2.3278850240950124 -1.9491755425723127 11 0 0
1367 289 4 0 -8.25076051370692 -2.444519667391913 -2.075885713781406 16 0 0
232 47 3 0 -7.562272252741478 -2.6904571713145007 -2.4575104544618505 11 0 0
235 47 3 0 -7.1942229576369225 -2.4872175297940213 -1.8590217545613834 11 0 0
529 106 3 0 0.0541680564617355 -2.756067593504838 -2.033124039639481 13 0 0
236 48 1 0 3.722557083296987 -2.4894081497869776 -2.374950636587906 0 -1 0
240 48 3 0 3.678973452129812 -2.0810895873544206 -2.2279417274933886 0 -1 0
238 48 3 0 3.3875856732882568 -2.5728129002395006 -2.6616583633811732 0 -1 0
237 48 3 0 4.11943398463225 -2.5333113469895894 -2.5989091668256217 0 -1 0
318 64 3 0 4.674515098878409 -2.0857460917530677 -2.440557452955569 19 0 0
1516 339 4 0 5.505169325906399 -2.7780971219905926 -2.1382109179884523 12 0 1
316 64 1 0 4.896691591905762 -2.2658759711575662 -2.0888669906965767 19 0 0
319 64 3 0 5.172260789434141 -1.9629957351258938 -1.9160729210418088 19 0 0
320 64 3 0 5.140809429256658 -2.639460562101908 -2.2318887657945012 19 0 0
55 11 3 0 6.598521663590041 -2.721832690939431 -2.7193572823710648 13 0 -1
53 11 3 0 7.148952025817755 -2.560596213093687 -2.2895847093676203 13 0 -1
51 11 1 0 7.026659060864482 -2.7674409990123365 -2.679549445528739 13 0 -1
1366 289 4 0 7.534898162651864 -2.5594902616029795 -2.174136413983753 15 0 0
1365 289 2 0 7.979072929311002 -2.50366715462102 -2.1284040505556394 15 0 0
364 73 3 0 -4.03871308271831 -1.1495850114736337 -2.1125330486666734 3 -1 0
1420 307 4 0 -4.242637496540263 -1.0530291384088288 -2.446902387159608 16 0 1
361 73 1 0 -3.610241750707652 -1.1523114882126126 -1.975761410610974 3 -1 0
362 73 3 0 -3.4506789858026385 -1.5607260333002424 -1.9889383659304407 3 -1 0
917 184 3 0 2.0515319947589514 -1.3987993657943019 -2.417812057678205 18 0 1
916 184 1 0 2.278792418338046 -1.2558222164972603 -2.0163536184740822 18 0 1
919 184 3 0 2.736496964393206 -1.375299812126201 -2.046086099438641 18 0 1
1996 499 4 0 3.0104641049564194 -1.099422950154513 -1.9238221471584813 39 1 1
1995 499 2 0 3.393026209020455 -1.276807171660817 -2.133211132518353 39 1 1
1997 499 4 0 3.761639840954988 -1.4454917602037298 -2.3377330024706504 39 1 1
803 161 3 0 3.9415864144844015 -1.4088954379022027 -2.676131591062531 28 0 0
415 83 3 0 7.863890254197429 -1.6449869547111886 -2.047145380227282 10 0 -1
44 9 3 0 -7.581548576544807 -0.5878066605623156 -2.160532967292971 16 0 0
1828 443 4 0 -7.879198975340706 -0.8247184016193483 -2.044577902159447 22 0 -1
1827 443 2 0 -8.288460520130995 -0.6925867137934052 -1.9528330071938447 22 0 -1
42 9 3 0 -7.173767911483698 -0.1849909663238165 -2.63276552148403 16 0 0
41 9 1 0 -7.22005631832239 -0.30277749100233464 -2.205485635987837 16 0 0
45 9 3 0 -6.867079051635297 -0.4977533645497685 -2.05583891198766 16 0 0
1419 307 2 0 -4.629298130765035 -0.8990417816790224 -2.642372595074102 16 0 1