LAMMPS data file via write_data, version 29 Aug 2024, timestep = 500000, units = lj

24 atoms
4 atom types
18 bonds
1 bond types

-1.55636 1.55636 xlo xhi
-1.55636 1.55636 ylo yhi
-1.55636 1.55636 zlo zhi

Masses

1 1
2 1
3 1
4 1

Bond Coeffs # zero

1 0

Atoms # bond

20 5 4 -0.6171203615807647 -1.2900318311284342 -0.3325629837527458 0 0 0
19 5 2 -0.2878699053810263 -1.2841038992435594 -0.7088062517532937 0 0 0
15 3 3 -1.5304989421185111 -0.5034997727295999 -1.5438369239974397 1 0 1
23 6 4 -0.605176126121049 -1.0610518886632505 0.9701824629342084 1 -1 -1
1 1 1 -0.05083070088326592 -1.3538997803860728 1.2894412167018843 0 0 0
4 1 3 -0.5146008494742224 -1.3415257006183805 1.2814330068020694 0 0 0
22 6 2 -1.0456847135499108 -0.9815506959516594 1.192964295135334 1 -1 -1
24 6 4 -1.4861933009787727 -0.9020495032400686 1.4157461273364595 1 -1 -1
10 2 3 -0.020822979340205272 0.5381382215860582 -1.1532960463648514 0 -1 0
13 3 3 -1.4404639656298497 0.2265030527848003 -1.3829345382177929 1 0 1
17 4 4 -1.1097277280421798 0.6317665617166295 -0.565752661477366 0 -2 0
16 4 2 -0.9731748972878229 0.5770732004397181 -0.08788033475680372 0 -2 0
18 4 4 -0.8366220665334663 0.5223798391628066 0.38999199196375867 0 -2 0
14 3 3 1.466297776080568 -0.263450736437961 -0.839679091610507 0 0 1
11 3 1 1.429301906506796 -0.15772214278430916 -1.2899598597079964 0 0 1
2 1 3 0.09716163915213802 -1.138466042172713 -1.4447466555596131 0 0 1
12 3 3 0.9866098771155072 -0.0813182225686714 -1.388885124878572 0 0 1
21 5 4 0.04138055081871217 -1.2781759673586846 -1.0850495197538417 0 0 0
5 1 3 0.1165960020241168 -1.1434349191144544 0.9219186441659148 0 0 0
6 2 1 0.40779495752740014 0.485635264406784 -1.008623645117328 0 -1 0
9 2 3 0.6391137768544364 0.8856937211197515 -1.0503948677175554 0 -1 0
7 2 3 0.6162386646255533 0.16583603322743173 -1.2652940031803679 0 -1 0
8 2 3 0.409568896227985 0.34712509660629676 -0.5657785406425235 0 -1 0
3 1 3 0.09572169757949028 1.3187026268382431 1.3003453000712253 0 -1 0

Velocities

20 0.3440273638221015 0.13049913540436686 0.04528219358290572
19 0.2444595387561703 0.18428581986138504 -0.04100216227154071
15 -0.19804290521323223 -0.20921471021708532 0.04755534967666525
23 -0.02061733834257972 0.26655002340582046 -0.21666376487167682
1 0.021414956076351237 0.10003320497920096 -0.07807631825242921
4 0.02705946389592547 0.23474025783967806 -0.1968142665250447
22 0.012641030943970255 0.08334194693778592 -0.08552264990932729
24 0.04589940023052026 -0.09986612953024869 0.04561846505302229
10 0.07945371333619371 0.1081300712509214 0.23446733575135725
13 -0.029172301175404987 -0.20766684421986664 -0.05396090402282043
17 -0.004913331999567299 0.03242874475386115 0.011307958928883418
16 0.008107705421609384 -0.17173187900197381 -0.015779381243435826
18 0.02112874284278607 -0.37589250275780883 -0.04286672141575508
14 0.05625292263525164 -0.11878097313020013 0.05859019885270945
11 -0.06383055340892896 -0.15837904083673665 0.0591586099992989
2 -0.011036546829488954 0.10841418973855521 -0.0701588212780257
12 -0.08148867570707749 -0.09578535263461987 0.18652256634633296
21 0.14489171369023907 0.2380725043184032 -0.12728651812598715
5 0.17579945326269594 0.000795384216911485 -0.06457507088671763
6 0.16865560852094807 0.1740388506781655 -0.00589037003710789
9 0.10736226408879532 0.18779329524881136 -0.2135865220460056
7 0.04852598165125786 0.14656405567194133 -0.06921613371272217
8 0.4396544171845661 0.2548118175447689 0.018287704444789936
3 -0.11021225732399825 0.058609483232036894 0.01904098099678532

Bonds

1 1 19 20
2 1 19 21
3 1 1 2
4 1 1 3
5 1 1 4
6 1 1 5
7 1 22 23
8 1 22 24
9 1 16 17
10 1 16 18
11 1 11 12
12 1 11 13
13 1 11 14
14 1 11 15
15 1 6 7
16 1 6 8
17 1 6 9
18 1 6 10
