LAMMPS data file via write_data, version 29 Aug 2024, timestep = 1001000, units = lj

3400 atoms
4 atom types
2400 bonds
1 bond types

-10.791198 10.791198 xlo xhi
-10.791198 10.791198 ylo yhi
-10.791198 10.791198 zlo zhi

Masses

1 1
2 1
3 1
4 1

Bond Coeffs # zero

1 0

Atoms # bond

1746 449 4 -10.670325548802749 -10.686519940979862 -9.535917739886791 0 1 0
1745 449 2 -10.70045596726688 -10.19982943696113 -9.646482251286628 0 1 0
1747 449 4 -10.73058638573101 -9.713138932942398 -9.757046762686464 0 1 0
140 28 3 -5.363325743290516 -9.451160537655715 -9.48807229433813 0 0 1
1329 310 4 -5.273118878831061 -9.84597791613429 -9.417306992807555 0 0 1
1328 310 2 -5.476662524561222 -10.269575078862145 -9.587998023654892 0 0 1
1330 310 4 -5.680206170291384 -10.69317224159 -9.758689054502229 0 0 1
1440 347 4 -3.6473074751298964 -9.410202355843765 -10.2519571893046 0 0 1
1900 500 4 -3.5408707894578053 -9.771689894183169 -10.370676205255812 0 1 1
1439 347 2 -4.050882064377239 -9.425650469743726 -9.95718794618224 0 0 1
1441 347 4 -4.454456653624582 -9.441098583643686 -9.662418703059881 0 0 1
1898 500 2 -3.140059703948363 -9.710219382899474 -10.663202870665218 0 1 1
3031 877 4 -0.34804231291582044 -10.284578977756507 -10.4500898094573 0 1 0
1022 208 2 -10.271679607359722 -7.846295457029444 -10.264463323666414 0 0 0
1023 208 4 -10.70848572531974 -8.07269805793497 -10.175343866667058 0 0 0
692 139 3 -8.900307741198196 -7.8367601553013255 -9.837417896721421 1 0 1
1465 355 4 -7.738360340828947 -8.236750944117423 -10.703991686241373 0 0 1
693 139 3 -8.697636127450137 -7.687027110401506 -10.545516923867893 1 0 1
1463 355 2 -7.825699647170859 -7.8643603958921835 -10.381971306202566 0 0 1
1731 444 4 -8.692242739608451 -9.145303196881594 -9.819008481750306 0 1 0
1730 444 2 -8.672752401465972 -9.193855682051364 -9.321753232504076 0 1 0
199 40 3 -6.8222246250158225 -8.752328939266132 -10.447266121181716 0 0 1
1437 346 4 -6.4373308016161515 -8.679885917109608 -10.363149896637816 0 0 1
136 28 1 -5.11280914628817 -9.07946202605071 -9.568580996333587 0 0 1
137 28 3 -5.156078553694297 -8.960449814434847 -10.01080701532052 0 0 1
139 28 3 -5.2606877217304895 -8.728429484082792 -9.3036129201344 0 0 1
138 28 3 -4.665931108371284 -9.167479413904571 -9.479964075472257 0 0 1
1438 346 4 -5.518836299632688 -8.777426492102329 -9.979934962094658 0 0 1
1436 346 2 -5.97808355062442 -8.728656204605969 -10.171542429366237 0 0 1
694 139 3 -9.431176119629049 -7.682989400028774 -10.34676386912633 1 0 1
1024 208 4 -9.834873489399708 -7.619892856123918 -10.35358278066577 0 0 0
2579 727 2 -9.468882103120524 -6.284891452423851 -9.435086764040609 1 0 1
691 139 1 -8.999481412705572 -7.583769657532127 -10.20857876604662 1 0 1
2581 727 4 -9.168588985696312 -6.585458539556774 -9.698683937318116 1 0 1
1363 321 4 -8.883328084398132 -6.3340894541096935 -9.810565646005697 0 0 1
695 139 3 -8.968130870897264 -7.142153371423463 -10.101844519565399 1 0 1
1361 321 2 -8.61447269819633 -6.228052575827623 -10.218576628400278 0 0 1
1266 289 4 -7.99231324416214 -7.314137802745843 -9.72151809959389 0 0 0
1464 355 4 -7.913038953512772 -7.491969847666943 -10.059950926163758 0 0 1
1362 321 4 -8.345617311994529 -6.122015697545552 -10.626587610794859 0 0 1
1265 289 2 -7.555327503877044 -7.2118478227783545 -9.501108882940475 0 0 0
1093 231 4 -5.789763932825213 -7.283906991403982 -9.237199934981081 0 0 0
2167 589 4 -2.042898538871863 -6.820131806916249 -9.804260502046754 0 0 0
2165 589 2 -1.7461809866750309 -6.693511340631967 -9.422257947426711 0 0 0
2254 618 4 -10.164915472655991 -6.027189873425615 -9.237225985267754 1 0 0
1615 405 4 -2.8201684592371565 -5.092060541130575 -9.345480342600505 0 1 0
1025 209 2 -2.6049322732353937 -5.247931615011884 -10.01452449053498 0 0 0
1026 209 4 -2.6788572398335506 -5.532234512143597 -10.419131660510832 0 0 0
1027 209 4 -2.5310073066372363 -4.963628717880172 -9.609917320559127 0 0 0
2211 604 4 -2.865046230431532 -5.713902271298341 -10.749626901737294 0 0 0
580 116 3 -0.7589060482408552 -4.7167417118916095 -9.374194757879103 0 0 0
578 116 3 -0.032659453650295156 -4.901082553784267 -9.448251073316703 0 0 0
576 116 1 -0.3313178904721119 -4.576558303419342 -9.304073581868362 0 0 0
1006 202 4 -8.308975304428863 -3.3005275477601583 -10.152747506907117 0 0 0
577 116 3 -0.25754172689206806 -4.1901315637870935 -9.542467064549205 0 0 0
101 21 1 -10.232371374867023 -2.59027052304374 -10.503335889237912 0 0 0
102 21 3 -10.066638844137135 -2.5520121130667395 -10.075937922087926 0 0 0
104 21 3 -10.695213623382381 -2.5613122738569327 -10.487893324900147 0 0 0
103 21 3 -10.105082679181443 -3.0011402423019895 -10.677357904360585 0 0 0
1004 202 2 -8.267922889227059 -2.8284418154700264 -10.312277317833338 0 0 0
1005 202 4 -8.226870474025256 -2.3563560831798944 -10.47180712875956 0 0 0
1371 324 4 -7.9334769183119365 -2.1161613934466343 -10.561107289212645 0 0 1
1370 324 2 -7.826068936788144 -1.6309356105004367 -10.506157629801264 0 0 1
1228 276 4 -3.3316421308898367 -1.842275656015016 -9.864239621591585 0 0 0
1226 276 2 -3.317788228325767 -1.6423184806554705 -10.322306426114556 0 0 0
47 10 3 -3.659817579571985 -2.1100398442334334 -9.766988814687037 0 0 0
46 10 1 -3.3670964287208727 -2.0546770328033475 -9.41649018850603 0 0 0
49 10 3 -3.2033109892403786 -2.4702138716760125 -9.290778353925084 0 0 0
50 10 3 -3.0240110687636492 -1.7859084433477175 -9.54861089507723 0 0 0
1122 241 4 -2.8769788937092726 -2.7022613048729958 -9.328690602852832 0 0 0
117 24 3 -1.6727368769323585 -3.1034452446293734 -9.412083481636497 0 0 0
1372 324 4 -7.718660955264352 -1.1457098275542386 -10.451207970389882 0 0 1
1096 232 4 -7.401888576483031 -1.0279462185550627 -10.280825653387279 0 0 0
1094 232 2 -7.060184526288623 -0.8427329148090273 -9.966287302472285 0 0 0
1095 232 4 -6.718480476094215 -0.657519611062992 -9.651748951557291 0 0 0
1632 411 4 -6.557965583691347 -0.3347886309267458 -9.865732974179075 0 0 0
1733 445 2 -7.618455916555411 -0.07159433622353265 -10.529855545540606 0 0 0
1227 276 4 -3.303934325761697 -1.442361305295925 -10.780373230637528 0 0 0
1292 298 2 -0.13849277312931713 -1.5049925305070566 -10.505391527457675 0 0 1
1294 298 4 -0.34945556954976476 -1.1424018310040738 -10.233320427999509 0 0 1
1797 466 4 -10.522731482393477 -10.732540256031527 -9.166567527112601 0 1 0
2448 683 4 -9.293070636755061 -10.224799276991114 -7.89078830306124 1 0 0
1647 416 4 -8.965277796823699 -10.225253137230462 -8.104929977548986 0 1 0
1646 416 2 -8.717621185970494 -9.863156785634393 -8.34483086387789 0 1 0
1648 416 4 -8.469964575117288 -9.501060434038324 -8.584731750206794 0 1 0
353 71 3 -10.171844131549877 -8.78083585914433 -8.76580720583263 0 1 0
354 71 3 -9.459939543423848 -8.876019180789871 -8.517347968360289 0 1 0
351 71 1 -9.84649948488945 -8.622861515316053 -8.47512702490982 0 1 0
355 71 3 -9.998709611051487 -8.64198998007638 -8.04633082701443 0 1 0
352 71 3 -9.750607463234406 -8.185971706559927 -8.5825142456944 0 1 0
1732 444 4 -8.653262063323494 -9.242408167221136 -8.824497983257844 0 1 0
2252 618 2 -10.431457974046507 -6.197643429834927 -8.850055893370502 1 0 0
2253 618 4 -10.698000475437025 -6.368096986244239 -8.46288580147325 1 0 0
1091 231 2 -6.278966332955042 -7.212723255550378 -9.162274055225966 0 0 0
1267 289 4 -7.118341763591948 -7.109557842810865 -9.280699666287061 0 0 0
1092 231 4 -6.76816873308487 -7.1415395196967735 -9.08734817547085 0 0 0
2166 589 4 -1.449463434478199 -6.566890874347686 -9.040255392806671 0 0 0
2580 727 4 -9.769175220544735 -5.984324365290928 -9.1714895907631 1 0 1
1032 211 4 -9.60676044856866 -4.670162891763012 -8.51790715888736 0 0 0
1613 405 2 -3.210083608691179 -4.851428280774182 -9.145324674426638 0 1 0
579 116 3 -0.26517606827327633 -4.489547158987189 -8.853125336388985 0 0 0
2260 620 4 -0.15157713322395472 -4.752772159355492 -8.587709051801092 0 0 0
1033 211 4 -10.481391573135323 -4.242025647614698 -8.745325047612084 0 0 0
1031 211 2 -10.044076010851992 -4.4560942696888555 -8.631616103249721 0 0 0
1176 259 4 -9.316747602083534 -4.477937079902325 -8.31816000806565 0 0 0
1452 351 4 -10.624510210178839 -4.603883218228916 -8.836388261090457 0 0 1
1175 259 2 -9.026791713517198 -4.114232176075654 -8.13473611208138 0 0 0
1177 259 4 -8.73683582495086 -3.7505272722489837 -7.9513122160971115 0 0 0
44 9 3 -8.37715490597461 -3.7854724130175303 -8.140543321692428 0 0 0
41 9 1 -7.915316182977662 -3.74181277384928 -8.15048464194599 0 0 0
42 9 3 -7.809155029011892 -3.3152872963219506 -8.286152716336671 0 0 0
1168 256 4 -7.920317960914855 -2.995073769371663 -8.072966452960037 0 0 0
45 9 3 -7.7372112809954885 -4.041213902634517 -8.443806321970124 0 0 0
1614 405 4 -3.599998758145201 -4.610796020417788 -8.945169006252772 0 1 0
1123 241 4 -3.3228185119990585 -3.513909467996551 -8.951259424937753 0 0 0
1126 242 4 -3.461621011157207 -3.857390920956617 -8.810613412643152 0 0 0
1124 242 2 -3.8915096265068905 -3.9545967217001743 -8.57450578740712 0 0 0
1125 242 4 -4.321398241856573 -4.051802522443731 -8.338398162171089 0 0 0
1153 251 4 -4.512317396625661 -4.3265023744761315 -8.110338352054459 0 0 0
119 24 3 -2.048467776848105 -3.583895758773825 -8.972886948969423 0 0 0
1121 241 2 -3.0998987028541656 -3.1080853864347735 -9.139975013895294 0 0 0
116 24 1 -1.6527528637299187 -3.3466553013984583 -9.022148220980728 0 0 0
118 24 3 -1.5977706094528155 -3.0545664998932374 -8.665832232355699 0 0 0
120 24 3 -1.3005107565498697 -3.6345750817287774 -9.042829082275153 0 0 0
79 16 3 -7.938677988293365 -1.574617611734569 -7.845884928881923 0 0 0
1166 256 2 -7.63318516503908 -2.5969581816290126 -7.977789058958706 0 0 0
77 16 3 -7.32026533541731 -1.870952584145533 -8.153539564617223 0 0 0
1167 256 4 -7.346052369163305 -2.1988425938863623 -7.882611664957375 0 0 0
48 10 3 -3.593368483162815 -1.8595801043298388 -9.061471673666823 0 0 0
2298 633 4 -1.6864952977819152 -2.6971889747647286 -8.518742784116284 0 0 0
2297 633 2 -1.7132688845660557 -2.30700793450804 -8.207227245378844 0 0 0
2299 633 4 -1.7400424713501963 -1.916826894251351 -7.895711706641404 0 0 0
78 16 3 -7.822568108118907 -1.528581684920308 -8.595550980646747 0 0 0
2398 666 4 -8.192802114075311 -0.27173815061798595 -8.906338220504344 1 0 0
2397 666 4 -7.9914825494041875 -1.2489006877318685 -8.83833962535933 1 0 0
2396 666 2 -8.09214233173975 -0.7603194191749272 -8.872338922931837 1 0 0
89 18 3 -8.532265497076091 -0.18448982780728973 -9.141840279943178 0 0 0
76 16 1 -7.619359528953307 -1.5223528280568657 -8.178456896900842 0 0 0
80 16 3 -7.396867036478509 -1.1293340803477303 -8.11986206144881 0 0 0
2437 679 4 -0.44743801180969095 -0.18052286919701777 -8.327373213341613 0 0 0
2435 679 2 -0.4508132935177871 -0.29243840557712375 -7.840070925033582 0 0 0
2447 683 2 -9.602092861619136 -10.376977224343106 -7.5283698475712075 1 0 0
2449 683 4 -9.911115086483209 -10.529155171695098 -7.165951392081175 1 0 0
2176 592 4 -9.909601419533608 -9.326213836526522 -7.0428663728027985 1 0 0
1088 230 2 -8.600893040923225 -9.896326333610336 -6.7259801853055725 0 0 0
1090 230 4 -8.556714168029007 -9.404311845608037 -6.648714599268715 0 0 0
1089 230 4 -8.645071913817445 -10.388340821612633 -6.8032457713424295 0 0 0
308 62 3 -8.914225500182235 -10.57340655751854 -6.508002119881464 0 1 0
1599 400 4 -3.694155558128251 -9.698788562840484 -6.339191336581984 0 1 0
2175 592 4 -10.080928353200026 -8.557762620029154 -7.65941305365091 1 0 0
2174 592 2 -9.995264886366817 -8.941988228277838 -7.351139713226854 1 0 0
2221 607 4 -8.837141754102731 -9.248181204041792 -6.395664241615033 1 0 0
2219 607 2 -8.832048421554774 -8.795306341502876 -6.607509507891412 1 0 0
2220 607 4 -8.826955089006816 -8.34243147896396 -6.819354774167791 1 0 0
1219 273 4 -3.208746608931592 -7.303804097975442 -7.591781355268645 0 0 0
1217 273 2 -3.2297519741883294 -6.9841877534268235 -7.207848852179846 0 0 0
1218 273 4 -3.2507573394450664 -6.664571408878205 -6.823916349091047 0 0 0
2439 680 4 -9.80770259364514 -5.129307020534088 -7.383727537509055 1 0 0
2438 680 2 -9.352615207754619 -4.948739775553676 -7.282283260965524 1 0 0
2440 680 4 -8.897527821864099 -4.768172530573265 -7.180838984421994 1 0 0
1129 243 4 -8.010868224257742 -3.8351206436901775 -6.439678088065763 0 0 0
1127 243 2 -7.995727287345502 -3.778091021131619 -6.936184255379054 0 0 0
1128 243 4 -7.980586350433263 -3.72106139857306 -7.432690422692344 0 0 0
43 9 3 -7.740382703582921 -3.812276894295275 -7.726535251668379 0 0 0
1151 251 2 -4.495453261805103 -4.244336045955653 -7.617424266828372 0 0 0
1152 251 4 -4.478589126984547 -4.162169717435175 -7.124510181602286 0 0 0
1056 219 4 -8.170981449060445 -1.7596810169289983 -7.566757913626841 0 0 0
1057 219 4 -7.743553343195455 -1.8628700934122318 -6.668616928696906 0 0 0
1171 257 4 -7.962487062272621 -1.8062550415538048 -6.3496074480936375 0 0 0
1055 219 2 -7.95726739612795 -1.8112755551706152 -7.1176874211618735 0 0 0
134 27 3 -6.5244129303203104 -0.9314773280519666 -6.663553505605616 0 0 0
131 27 1 -6.298160524306302 -0.7595714226684165 -6.296731738984596 0 0 0
135 27 3 -6.112747734083946 -0.3574167547088976 -6.403003655595563 0 0 0
133 27 3 -5.967421437729887 -1.0556362390182914 -6.161612232139189 0 0 0
1035 212 4 -0.23520971965894794 -0.7067751386659816 -7.179023223446949 0 0 0
2436 679 4 -0.45418857522588324 -0.4043539419572297 -7.3527686367255525 0 0 0
1753 451 4 -10.12388823084403 -9.4231292725033 -6.0276153903904275 0 1 0
1751 451 2 -9.735312587004229 -9.730542480295533 -5.96048798399297 0 1 0
1752 451 4 -9.346736943164428 -10.037955688087768 -5.893360577595514 0 1 0
1617 406 4 -10.438668866279736 -9.381121367892339 -4.989157652647116 0 1 0
309 62 3 -9.033059157800365 -10.279639423005001 -5.817220365274985 0 1 0
306 62 1 -9.057853450256026 -10.663872541804032 -6.076160809160723 0 1 0
1598 400 2 -3.7736253420809676 -10.16384260641015 -6.173633823921833 0 1 0
1008 203 4 -4.10747239176641 -10.676945105345652 -5.683098331433897 0 0 0
1600 400 4 -3.853095126033684 -10.628896649979815 -6.008076311261681 0 1 0
1336 312 4 -10.255593649338298 -9.072062314530886 -5.933705886451301 0 0 1
1334 312 2 -10.318410192583556 -8.576703275735506 -5.95965785320411 0 0 1
1335 312 4 -10.381226735828815 -8.081344236940126 -5.985609819956919 0 0 1
55 11 3 -10.27385474195181 -7.752119709920239 -5.8194400611929025 0 0 0
54 11 3 -9.87097568972332 -7.825175820947181 -5.187576726351295 0 0 0
1215 272 4 -3.6288357339586765 -8.03669754040837 -5.074999556969974 0 0 0
1214 272 2 -3.3450912711606904 -8.275466678000251 -4.73962159292749 0 0 0
52 11 3 -10.378720173831748 -7.275141314329437 -5.255086580352815 0 0 0
51 11 1 -10.067201144880588 -7.525657501559412 -5.482677297512167 0 0 0
53 11 3 -9.744857850327593 -7.24138036284714 -5.657552421135593 0 0 0
1083 228 4 -2.5375545511289257 -7.385057821294019 -5.081463774510653 0 0 0
1082 228 2 -2.20870978196784 -7.340148155576822 -5.455421311833552 0 0 0
1084 228 4 -1.8798650128067547 -7.295238489859623 -5.82937884915645 0 0 0
1021 207 4 -1.6527392052357741 -7.251171489603461 -6.154655817121898 0 0 0
114 23 3 -2.4681217245149516 -7.322828714261739 -4.694323436201796 0 0 0
1020 207 4 -0.6787348669266962 -7.068233036368437 -6.0210554006415995 0 0 0
1019 207 2 -1.165737036081235 -7.159702262985949 -6.087855608881749 0 0 0
2262 621 4 -0.47824743007135395 -6.786226791574456 -5.850320962591859 0 0 0
82 17 3 -10.588819141700254 -4.810066447848846 -5.958354517481527 0 0 0
85 17 3 -10.627533303536179 -5.554181783406532 -6.000705208868824 0 0 0
1207 269 4 -5.468382516799605 -4.920325781048565 -5.870503749083267 0 0 0
1087 229 4 -8.158224921734046 -3.6668107684600866 -6.107485699245106 0 0 0
1085 229 2 -8.577587941482964 -3.4538216747253845 -5.937867588132782 0 0 0
1086 229 4 -8.996950961231883 -3.2408325809906833 -5.7682494770204595 0 0 0
259 52 3 -8.914185153151388 -3.064691572510002 -5.444425728432512 0 0 0
1250 284 2 -6.2836247052153755 -3.7652949834391944 -4.847198438606682 0 0 0
1251 284 4 -6.46543322291039 -3.3476943488062467 -4.640908902159428 0 0 0
1252 284 4 -6.101816187520361 -4.182895618072142 -5.053487975053937 0 0 0
1205 269 2 -5.728255046401669 -4.553904341755928 -5.650955127623405 0 0 0
1206 269 4 -5.988127576003733 -4.187482902463289 -5.431406506163543 0 0 0
2412 671 4 -1.7460908409457687 -3.3706074118808687 -4.688008870142386 0 0 0
630 126 3 -1.6983965296657546 -4.176512908994586 -5.305511507571355 0 0 0
626 126 1 -1.7271209047765195 -4.13948666526551 -4.852517062186463 0 0 0
627 126 3 -1.9268778594802591 -3.7391583282901224 -4.745585393997108 0 0 0
629 126 3 -1.984136844952068 -4.485813815429056 -4.681343724440711 0 0 0
1188 263 4 -2.96371414632772 -2.971906692411171 -4.656537560694422 0 0 0
628 126 3 -1.3025680958203323 -4.149933599932277 -4.665579174204319 0 0 0
260 52 3 -9.600319635930097 -2.7561796607296736 -5.413768399264417 0 0 0
257 52 3 -9.05628463719664 -2.4958872226379056 -4.974139275086537 0 0 0
1169 257 2 -8.352369938792156 -1.9504647877081975 -6.071767761023746 0 0 0
256 52 1 -9.153632765223158 -2.671254007623738 -5.388107670853045 0 0 0
258 52 3 -9.031975535707906 -2.363800117578707 -5.713640501767043 0 0 0
1170 257 4 -8.74225281531169 -2.09467453386259 -5.793928073953854 0 0 0
1446 349 4 -5.300011113056859 -1.5757102149548077 -0.5339930998711102 0 0 0
1231 277 4 -0.34256894757357903 -2.4763443441358195 -4.7516283001305055 0 0 0
132 27 3 -6.596596494338345 -0.7022970433665455 -5.951397672801641 0 0 0
1848 483 4 -6.058637815696783 -0.05855461828165537 -6.163068353351378 0 0 0
847 170 3 -0.6984411000823723 -0.004798866638320964 -5.3566965106332365 0 0 0
2457 686 4 -10.663395125728941 -9.785952799311612 -3.945681335345738 1 0 0
1698 433 4 -10.344633584599418 -9.59753537818951 -3.8161268943959 0 1 0
1697 433 2 -10.145109253080863 -9.337403005015638 -4.193646681372417 0 1 0
1210 270 4 -3.4821016428291984 -10.26079288617894 -3.183906301106086 0 0 0
1572 391 4 -3.7924464522256414 -10.05795400263877 -3.0613892550233808 0 1 0
1208 270 2 -3.15233004077817 -10.155085627836254 -3.544567729615173 0 0 0
1107 236 4 -2.9714973499591264 -9.685913236653937 -4.0405622282544185 0 0 0
1209 270 4 -2.8225584387271416 -10.049378369493567 -3.9052291581242597 0 0 0
1699 433 4 -9.945584921562308 -9.077270631841765 -4.571166468348934 0 1 0
1216 272 4 -3.0613468083627042 -8.514235815592132 -4.4042436288850055 0 0 0
1106 236 2 -2.87101991630995 -9.205468313923193 -4.135835317579871 0 0 0
1108 236 4 -2.7705424826607734 -8.72502339119245 -4.231108406905324 0 0 0
1172 258 2 -3.2387006408933323 -7.350751059843828 -3.5484196705777085 0 0 0
1174 258 4 -3.5928510553742083 -7.605236992728354 -3.3038498566454932 0 0 0
1002 201 4 -3.9422084061790885 -7.386406245384451 -3.212452563830826 0 0 0
1173 258 4 -2.8845502264124567 -7.096265126959303 -3.792989484509924 0 0 0
115 23 3 -2.5723521140844694 -7.294555216551766 -3.949181412680545 0 0 0
111 23 1 -2.2846643918256087 -7.194765075961235 -4.287822376390489 0 0 0
113 23 3 -2.1954161283748665 -6.739434146301253 -4.290736474187425 0 0 0
1138 246 4 -1.781716411598829 -6.690479568671095 -4.237506721616152 0 0 0
1136 246 2 -1.5219605035942123 -6.263249665460424 -4.236290966938951 0 0 0
112 23 3 -1.8904974744892562 -7.423154541476012 -4.224020391159626 0 0 0
1047 216 4 -1.697687282703045 -4.7977761562960435 -4.679361810898455 0 0 0
1048 216 4 -1.2025584249562074 -5.6643002990014955 -4.616248228096527 0 0 0
1046 216 2 -1.4501228538296265 -5.231038227648769 -4.647805019497491 0 0 0
1137 246 4 -1.2622045955895953 -5.8360197622497525 -4.235075212261749 0 0 0
1181 261 2 -7.895977428144239 -3.4862373644383635 -3.3448210551736044 0 0 0
1182 261 4 -7.965785963699308 -3.2020397819750195 -3.7502325775621945 0 0 0
1198 266 4 -6.118522312074429 -3.3892442539770746 -4.390359654250408 0 0 0
1196 266 2 -6.171416326667452 -3.1084319779490515 -3.9800589244773787 0 0 0
1187 263 2 -3.322001604881393 -3.1313342107834443 -4.346355415126837 0 0 0
1189 263 4 -3.6802890634350662 -3.290761729155718 -4.036173269559252 0 0 0
2411 671 2 -2.1981331499918775 -3.2008408632761878 -4.558251135085539 0 0 0
1197 266 4 -6.224310341260475 -2.8276197019210283 -3.5697581947043493 0 0 0
2413 671 4 -2.6501754590379867 -3.0310743146715073 -4.428493400028691 0 0 0
5 1 3 -0.3561456861236305 -2.1221406607792606 -4.583195284891044 0 0 0
1 1 1 -0.27410909321395704 -1.8261161712908167 -4.246981812456046 0 0 0
3 1 3 -0.6487315289107947 -1.7864025212632644 -3.9760928007298904 0 0 0
1425 342 4 -10.636333543988846 -8.924171672810935 -1.3227277693843087 0 0 0
1165 255 4 -8.886075107968294 -0.08187725896663989 -4.119160126174727 0 0 0
295 59 3 -4.770974911994067 -0.2190033424859291 -3.302952856560114 0 0 0
294 59 3 -4.4825640931589845 -0.6156571167868468 -3.874253988111432 0 0 0
291 59 1 -4.403611836217608 -0.444187973256863 -3.450385053249492 0 0 0
293 59 3 -4.037043672169106 -0.1598817776367406 -3.4602728355166414 0 0 0
2316 639 4 -0.834904061841026 -0.26605290556943917 -4.517694599727291 0 0 0
2315 639 2 -0.6451525197578075 -0.7105631508104556 -4.389612617571628 0 0 0
4 1 3 -0.16224204196737613 -1.41217523347776 -4.424291323897928 0 0 0
2317 639 4 -0.4554009776745891 -1.155073396051472 -4.261530635415966 0 0 0
1573 391 4 -4.098777853942653 -9.142338149392728 -2.8009882534763757 0 1 0
1571 391 2 -3.9456121530841473 -9.600146076015749 -2.931188754249878 0 1 0
1726 442 4 -6.398167620362545 -8.964854113273944 -2.639176792951222 0 1 0
1724 442 2 -6.256836713278074 -8.51476284976801 -2.804837377334923 0 1 0
1725 442 4 -6.115505806193602 -8.064671586262076 -2.970497961718625 0 1 0
1248 283 4 -5.335194111794777 -8.42866537030024 -2.277811312478578 0 0 0
64 13 3 -5.465132973743076 -8.266482902741927 -2.611000220403632 0 0 0
1247 283 2 -5.2871455445641535 -8.575758422208654 -1.8023589286719182 0 0 0
1003 201 4 -4.744789833281916 -7.7916185064945305 -2.7746557201750304 0 0 0
61 13 1 -5.447188435193493 -7.803745572841789 -2.5818084912130574 0 0 0
62 13 3 -5.85062939895086 -7.630345470704804 -2.7188040872788193 0 0 0
65 13 3 -5.116154553299778 -7.64381532435442 -2.850581415178901 0 0 0
63 13 3 -5.370246271581227 -7.6756032996178645 -2.142536979193815 0 0 0
1001 201 2 -4.343499119730502 -7.5890123759394905 -2.993554142002928 0 0 0
1234 278 4 -8.482498228549735 -4.948839177372953 -1.9147484079894566 0 0 0
110 22 3 -7.283909406062693 -6.013503382966145 -1.882312782223576 0 0 0
109 22 3 -7.03358046378515 -5.387823323293462 -2.218110166946363 0 0 0
106 22 1 -6.966274458387226 -5.687372481172817 -1.8702018404416323 0 0 0
107 22 3 -6.550660102021128 -5.8788453643154694 -1.9171362819916116 0 0 0
1134 245 4 -10.644421377330588 -3.776165626581254 -2.8238664340328423 0 0 0
12 3 3 -9.90037387868125 -3.8519202247841386 -2.6828021281246257 0 0 0
15 3 3 -10.254587487015145 -3.5084306451186182 -2.1228488904944207 0 0 0
14 3 3 -10.481940947060952 -3.399918023185951 -2.832380718594306 0 0 0
11 3 1 -10.116203806718874 -3.466427786310768 -2.5546888109275887 0 0 0
13 3 3 -9.821639462511127 -3.1099223617459177 -2.5925798306736665 0 0 0
1183 261 4 -7.826168892589171 -3.7704349469017076 -2.9394095327850143 0 0 0
1232 278 2 -8.047596009047213 -4.72832621977137 -2.0253562512986436 0 0 0
1233 278 4 -7.612693789544691 -4.507813262169787 -2.135964094607831 0 0 0
1072 224 4 -6.646265596542161 -4.175412257224731 -2.790474927543499 0 0 0
1070 224 2 -7.086504979780042 -3.9445012103321515 -2.7369083906994236 0 0 0
1071 224 4 -7.526744363017922 -3.7135901634395716 -2.683341853855348 0 0 0
3116 906 2 -0.1438389689136151 -3.5012747449354253 -2.0026946197599846 0 0 0
3118 906 4 -0.4116340481415017 -3.8897613490430665 -1.8372740830356031 0 0 0
1383 328 4 -0.7495801132084197 -3.6845267817760976 -1.9335671830535426 0 0 0
1382 328 2 -1.1079389774742108 -3.8713544688927817 -1.6391621224168536 0 0 0
60 12 3 -1.2657013175573057 -1.962626114590194 -1.9360375082484385 0 0 0
57 12 3 -1.4717811725178374 -2.663985677391575 -1.7856185697918088 0 0 0
56 12 1 -1.2844165283362716 -2.2816282710476847 -1.6115573623828725 0 0 0
1262 288 2 -9.405693946631295 -0.13802334950033798 -2.5709548664832163 0 0 0
1263 288 4 -8.977517914417044 -0.3684220031501464 -2.68749561400801 0 0 0
1042 214 4 -8.608144708929691 -0.5279036204250674 -2.6809309780444304 0 0 0
1040 214 2 -8.247159831777871 -0.3452773798962408 -2.3870984156249513 0 0 0
1041 214 4 -7.886174954626052 -0.1626511393674144 -2.0932658532054726 0 0 0
292 59 3 -4.314053579236243 -0.7923753484951528 -3.163427094079217 0 0 0
1161 254 4 -3.942645167786222 -1.4078849958984032 -2.046923055634728 0 0 0
1162 254 4 -4.431948170442966 -0.9756354472036264 -2.804381238799788 0 0 0
1160 254 2 -4.187296669114594 -1.1917602215510148 -2.4256521472172583 0 0 0
8 2 3 -6.387221815187132 -10.619837386874462 -1.1654938792631389 0 0 0
1314 305 4 -7.247456092753803 -10.214522560571185 -0.14699363925834502 0 0 0
7 2 3 -5.943956986102426 -10.029367198663746 -1.3060685858453558 0 0 0
9 2 3 -5.639586492349722 -10.660990857020554 -1.0353101017004138 0 0 0
10 2 3 -6.077981058200247 -10.230624503476248 -0.5999998601835416 0 0 0
6 2 1 -6.012809157251567 -10.385564728733238 -1.0232564607510513 0 0 0
344 69 3 -1.7786284250262943 -10.66361613739403 -0.3913195332398571 0 1 0
341 69 1 -1.8827913014292181 -10.220511197876643 -0.4813645650559505 0 1 0
343 69 3 -2.0594481229672734 -10.019169227705307 -0.10247965053493535 0 1 0
342 69 3 -2.196873211241707 -10.20686528223421 -0.8171715675362738 0 1 0
345 69 3 -1.5093462680242549 -9.997389845177162 -0.6161075388791588 0 1 0
1249 283 4 -5.23909697733353 -8.722851474117068 -1.3269065448652584 0 0 0
1119 240 4 -2.0607071990228634 -7.125768054215405 -0.7250461390127838 0 0 0
1118 240 2 -2.0046660819674265 -7.0749843721387915 -0.23079882153509096 0 0 0
2446 682 4 -2.153425799227696 -6.868849393046913 -1.041129148954314 0 0 0
2444 682 2 -2.2364200745120413 -6.382112028147723 -1.1198608952901499 0 0 0
108 22 3 -6.983677684950248 -5.464443849690256 -1.4636308712730413 0 0 0
1018 206 4 -5.790980276184506 -5.7434874223720715 -0.6738586059860646 0 0 0
1016 206 2 -5.293318828826432 -5.711427257965091 -0.6377306435224096 0 0 0
1017 206 4 -4.795657381468358 -5.679367093558111 -0.6016026810587545 0 0 0
2445 682 4 -2.3194143497963866 -5.895374663248532 -1.1985926416259858 0 0 0
27 6 3 -1.464308177322708 -4.831752393693745 -0.6278513927520704 0 0 0
1353 318 4 -3.09521446886031 -4.679267175908302 -1.030128883205713 0 0 0
28 6 3 -2.0155241849141254 -4.344017920108177 -0.7800880383109121 0 0 0
1352 318 2 -2.6790888514006053 -4.402400673662851 -1.0165491030882032 0 0 0
1354 318 4 -2.2629632339409005 -4.125534171417399 -1.0029693229706935 0 0 0
26 6 1 -1.5629460115016092 -4.431834709995658 -0.8326352396101304 0 0 0
30 6 3 -1.4606791986447734 -4.460834527140735 -1.2754676114999808 0 0 0
1384 328 4 -1.4662978417400019 -4.058182156009466 -1.3447570617801645 0 0 0
29 6 3 -1.312254494242326 -4.0957207045783335 -0.6339366272936551 0 0 0
1242 281 4 -7.282802987885681 -2.342760258286813 -1.4857885493855179 0 0 0
1241 281 2 -6.805084454525977 -2.197189922108763 -1.4614106883309343 0 0 0
1243 281 4 -6.327365921166272 -2.0516195859307134 -1.4370328272763506 0 0 0
1156 252 4 -6.131406875940632 -2.1714627579018644 -1.0903160018667646 0 0 0
1154 252 2 -5.737703761406717 -1.873021735884177 -1.0133042236555443 0 0 0
58 12 3 -1.546658064099689 -2.133310603689125 -1.2586675120474906 0 0 0
59 12 3 -0.856613076729867 -2.379421884968111 -1.4608237700087843 0 0 0
1356 319 4 -7.269452633869345 -0.23597870323781908 -1.164191824383695 0 0 0
1445 349 2 -5.419220510577542 -1.3708794748334054 -0.09372785318005723 0 0 0
1155 252 4 -5.344000646872802 -1.5745807138664896 -0.9362924454443239 0 0 0
2241 614 4 -10.714302779139201 -9.408107700815366 -9.992743555292385 1 0 0
2240 614 2 -10.782739931063336 -8.914829400694641 -10.037385182351162 1 0 0
2261 621 2 -0.014319907787367425 -6.778681057726809 -6.036638744803253 0 0 0
1639 413 4 -3.3388753552874393 -10.073307867196029 -0.013891601883149945 0 1 0
1735 445 4 -7.345663067406533 -0.46449462904809824 -10.675503825143757 0 0 0
198 40 3 -7.362008282990559 -8.332307751025565 -10.778650797973015 0 0 1
105 21 3 -10.064117178931244 -2.2538984932284465 -10.760132273768509 0 0 0
2634 745 4 -10.075482474855475 -9.601764549513971 0.30387700622654223 1 0 0
2633 745 2 -10.329964494448774 -10.02104197867818 0.20668987180456697 1 0 0
2520 707 4 -9.901106750620023 -9.524753990962045 0.6556844080828513 1 0 0
2635 745 4 -10.584446514042073 -10.44031940784239 0.10950273738259218 1 0 0
2519 707 2 -9.471057603180872 -9.272913706678539 0.6152591437181847 1 0 0
1393 331 4 -0.14303427784930062 -0.6834191060978478 6.266463429496183 0 0 0
1315 305 4 -7.377471884082303 -9.784352949664173 0.7463428034424724 0 0 0
1313 305 2 -7.312463988418053 -9.999437755117679 0.29967458209206366 0 0 0
1532 378 2 -4.705855465003037 -9.419218587709146 0.765085895545506 0 0 0
1533 378 4 -4.438322367961041 -9.767507359140302 0.526085950603592 0 0 0
1638 413 4 -4.03477656120112 -10.747011716826886 0.23479421315368423 0 1 0
1637 413 2 -3.6868259582442797 -10.410159792011457 0.11045130563526714 0 1 0
1683 428 4 -3.2599493152035177 -9.723434714352548 0.16940420334632394 0 1 0
1905 502 4 -7.364356013661081 -0.09832118810137042 5.372296055223228 0 0 0
1545 382 4 -3.0770516134436416 -10.447276759838132 1.2167090728670145 0 1 0
1682 428 2 -2.762668177842109 -9.728679779142505 0.1175972567080801 0 1 0
1684 428 4 -2.2653870404807 -9.73392484393246 0.06579031006983628 0 1 0
401 81 1 -0.22364044508672562 -9.452659448445804 0.6596755158535146 0 1 0
405 81 3 -0.6586508587892996 -9.328899101178543 0.7130545043665064 0 1 0
402 81 3 -0.1567515215261458 -9.587612895146899 0.225033779329661 0 1 0
2521 707 4 -9.041008455741721 -9.021073422395032 0.574833879353518 1 0 0
2571 724 4 -9.112408905511954 -8.640197735965215 0.4857636505185177 1 0 0
2570 724 2 -8.940505871384662 -8.170812869828922 0.47448560547179 1 0 0
1534 378 4 -4.973388562045033 -9.07092981627799 1.00408584048742 0 0 0
2603 735 2 -1.7294631408875911 -7.776031098490353 0.6367880121951769 0 0 0