LAMMPS data file via write_data, version 29 Aug 2024, timestep = 1250000, units = lj

700 atoms
4 atom types
500 bonds
1 bond types

-6.310732 6.310732 xlo xhi
-6.310732 6.310732 ylo yhi
-6.310732 6.310732 zlo zhi

Masses

1 1
2 1
3 1
4 1

Bond Coeffs # zero

1 0

Atoms # bond

35 7 3 -5.713157600404449 -5.1673737079149396 -5.976626697993048 0 0 1
493 131 4 -5.826079857202363 -5.204654992419513 -5.576478405216022 1 0 0
491 131 2 -5.670248187115088 -4.949590499284738 -5.175656006964968 1 0 0
32 7 3 -5.109246939208194 -4.859746977390606 -6.289129030720299 0 0 1
331 77 4 -4.672709079478457 -5.971445775768816 -4.883350123299118 0 0 1
312 71 4 -4.283117356484163 -4.727756927986263 -4.831946718777865 0 0 1
17 4 3 -4.654754578706173 -4.791235638986074 -4.70353495129942 0 0 0
257 53 2 -2.46366464164251 -5.593067034671422 -5.972262581511086 0 0 0
259 53 4 -2.001929417584689 -5.738221456552089 -5.846840188483833 0 0 0
258 53 4 -2.9253998657003306 -5.447912612790755 -6.097684974538338 0 0 0
492 131 4 -5.514416517027811 -4.694526006149963 -4.774833608713914 1 0 0
311 71 2 -4.017388149660613 -4.4004614444257415 -5.100769439323985 0 0 1
313 71 4 -3.751658942837063 -4.07316596086522 -5.369592159870105 0 0 1
27 6 3 -3.6191222066054336 -3.681432599269992 -5.440699556847925 0 0 1
26 6 1 -3.445947296424658 -3.357960864603268 -5.163253188417149 0 0 1
29 6 3 -3.5965169396030063 -3.434689841052971 -4.731117276086353 0 0 1
30 6 3 -2.9911291454228643 -3.377921687647663 -5.175170195698689 0 0 1
107 22 3 -2.3518696380153754 -3.6675236645558096 -5.737277283887356 0 0 1
106 22 1 -2.3036259042753713 -3.4228748197369336 -5.350729117569699 0 0 1
336 79 4 -2.0704413455244994 -3.7204893669871484 -6.01867974522965 0 0 1
109 22 3 -1.8832718731610356 -3.5054297201079208 -5.172439530238883 0 0 1
108 22 3 -2.6317593140400177 -3.552383668590312 -5.049305954118667 0 0 1
591 164 4 -5.191715790247626 -2.0614418623073725 -6.0925876823895715 1 0 0
590 164 2 -5.057135742957186 -1.8962233189221802 -5.6402702675215615 1 0 0
592 164 4 -4.922555695666745 -1.731004775536988 -5.187952852653551 1 0 0
672 191 4 -4.760172389683511 -1.8528421835140514 -4.7913448996288865 1 0 1
28 6 3 -3.5900494746695246 -2.94191409824357 -5.30967603645176 0 0 1
318 73 4 -3.369472319781427 -2.594674567911086 -5.323656272382687 0 0 1
110 22 3 -2.347270720597839 -2.9799265275617346 -5.447123829391373 0 0 1
317 73 2 -3.0972366592752647 -2.1785354221417816 -5.27154143277779 0 0 1
319 73 4 -2.8250009987691027 -1.7623962763724768 -5.2194265931728925 0 0 1
354 85 4 -2.4719472117534935 -1.6216799622922689 -5.245845154194109 0 0 0
353 85 2 -2.1643416136462386 -1.679012972892267 -5.63583454111214 0 0 0
355 85 4 -1.8567360155389834 -1.7363459834922648 -6.025823928030171 0 0 0
690 197 4 -4.886654007906968 -1.4537330400281336 -4.811334590248134 1 0 1
689 197 2 -4.666109115759981 -1.005447745166092 -4.79132846722735 1 0 1
691 197 4 -4.445564223612991 -0.5571624503040502 -4.771322344206566 1 0 1
423 108 4 -2.986192963987074 -0.8837951226043406 -6.109221792202636 0 0 1
20 4 3 -5.34933065079591 -4.775894429857368 -4.430901997710261 0 0 0
16 4 1 -4.908462960664306 -4.736450747092702 -4.32375781593662 0 0 0
18 4 3 -4.790459851235794 -5.063146468056205 -4.016113261183419 0 0 0
19 4 3 -4.825462601939127 -4.31538467572083 -4.147365344467725 0 0 0
13 3 3 -1.8614066256535846 -4.028795971561655 -3.191847873798699 0 0 0
203 41 3 -6.2747190211971775 -2.754299018854681 -4.190198875335855 1 0 0
253 51 4 -5.214429512011678 -2.6675338158902333 -3.779640479608123 0 0 0
205 41 3 -5.619608371337629 -2.7435557544601226 -3.8192344313379945 1 0 0
201 41 1 -5.997347345421189 -2.506864094682671 -3.912456347484662 1 0 0
474 125 4 -5.826120434525017 -1.7183351023855136 -4.133234231935822 1 0 0
204 41 3 -5.886203539506953 -2.1052710618879282 -4.1165888789870655 1 0 0
202 41 3 -6.220806297707637 -2.4175619508191852 -3.520421624858734 1 0 0
274 58 4 -6.179941386949396 -2.270819671902585 -3.135671260886326 0 0 0
251 51 2 -4.925300538261785 -2.761970798451841 -3.382795304681056 0 0 0
473 125 2 -5.456077461575777 -1.771094945950236 -4.4653254800554985 1 0 0
475 125 4 -5.086034488626537 -1.8238547895149586 -4.797416728175174 1 0 0
671 191 2 -4.38210187683431 -2.104029118760062 -4.58165987184775 1 0 1
673 191 4 -4.004031363985108 -2.355216054006072 -4.371974844066613 1 0 1
100 20 3 -4.107531692359125 -1.148981890512768e-05 -4.194492980766416 0 0 1
99 20 3 -3.4800715422391137 -0.26832241358803566 -4.5126171832370625 0 0 1
11 3 1 -1.9924314622317711 -3.6883022921136197 -2.9051484729349264 0 0 0
15 3 3 -2.213885482608996 -3.8628764020597015 -2.547542548773507 0 0 0
12 3 3 -2.2724848808016627 -3.402433745108089 -3.131972758628303 0 0 0
14 3 3 -1.6207631221391825 -3.450996513641276 -2.7607579868338585 0 0 0
291 64 4 -2.5029405969610274 -3.091407466959738 -3.2233838949922027 0 0 0
268 56 4 -0.394169677850198 -3.7822098026534583 -2.312938727679124 0 0 0
267 56 4 -1.282312799144734 -3.692766809031464 -2.763717772211213 0 0 0
266 56 2 -0.838241238497466 -3.737488305842461 -2.5383282499451685 0 0 0
252 51 4 -4.636171564511892 -2.856407781013449 -2.985950129753989 0 0 0
379 93 4 -4.433029595287112 -2.9187661067735022 -2.65536227849407 0 0 0
377 93 2 -3.9399359351650105 -2.8438929778558744 -2.6907551720363876 0 0 0
378 93 4 -3.4468422750429077 -2.7690198489382474 -2.7261480655787054 0 0 0
290 64 2 -2.8048082314759792 -2.947618078701463 -2.85163055868356 0 0 0
292 64 4 -3.1066758659909306 -2.803828690443188 -2.479877222374917 0 0 0
346 82 4 -5.3919454798536135 -0.7832319472963852 -1.5038627119454748 0 0 1
344 82 2 -5.5767654460206675 -0.987182125063086 -1.9212904363418581 0 0 1
345 82 4 -5.7615854121877215 -1.1911323028297858 -2.338718160738242 0 0 1
188 38 3 -4.104027597927274 -5.833996938837763 -0.13341999941570368 1 0 0
298 66 4 -3.988837737827566 -6.196371180831785 -0.2771405718022302 0 0 0
211 43 1 -5.312108876366088 -0.1579866243878676 -1.1414217419343617 1 0 0
214 43 3 -5.231020780243118 -0.2524163385520314 -0.6944231404265231 1 0 0
212 43 3 -4.911333114405908 -0.15147829883566538 -1.3671127482320908 1 0 0
213 43 3 -5.582939111781066 -0.4863858753745229 -1.3260969041419775 1 0 0
190 38 3 -3.7348566747030625 -5.668433360499991 0.5015615207668138 1 0 0
187 38 3 -4.448190767691922 -5.463644734684117 0.4227193333558724 1 0 0
186 38 1 -4.047280241650674 -5.521306195049388 0.20466909580108827 1 0 0
406 102 4 -3.531964355453814 -5.966039799492061 0.6172861394691084 0 0 0
189 38 3 -3.914986764909732 -5.114911945113521 0.02399771004596221 1 0 0
404 102 2 -3.0698764089379136 -5.969136022573004 0.8082446247147435 0 0 0
405 102 4 -2.6077884624220133 -5.972232245653946 0.9992031099603785 0 0 0
103 21 3 -2.4242775314498717 -5.87186652378088 0.6482107334590262 0 1 0
102 21 3 -1.8752035370667595 -5.362971620004994 0.7148720086015645 0 1 0
101 21 1 -2.0502052186312576 -5.689885576881878 0.4426557779155649 0 1 0
104 21 3 -2.1695049859913498 -5.499164214447369 0.03683201392539054 0 1 0
105 21 3 -1.7366495390152943 -6.013388915735215 0.3761093615469363 0 1 0
395 99 2 -1.5989116985616691 -5.106661292422324 1.2900936938812626 0 1 0
396 99 4 -1.5744768609675852 -5.448439920326867 0.9259641726673724 0 1 0
179 36 3 -0.33820391827400353 -1.2441050314871056 1.0931392080725453 0 0 0
176 36 1 -0.5470320996392977 -1.0317637740458236 1.4489509294304692 0 0 0
180 36 3 -0.7592549392421188 -0.6562182266287498 1.3029132350981387 0 0 0
526 142 4 -0.711229961320486 -0.4355372768099144 0.9761721624666355 0 0 0
609 170 4 -1.1937480708757806 -1.2015873832199566 5.558626813862244 0 0 -1
578 160 2 -6.259704505394255 -4.900668695711941 2.1006708205997833 1 0 0
397 99 4 -1.623346536155753 -4.7648826645177795 1.6542232150951528 0 1 0
523 141 4 -1.3416230044444513 -4.883663254741504 1.9278530980533715 0 0 0
521 141 2 -0.9431377882586668 -4.699332082348384 2.1670842652655002 0 0 0
580 160 4 -5.993063222440106 -4.525015227001134 2.295059343074715 1 0 0
409 103 4 -5.886225644278337 -4.171430063851598 2.441494388406905 0 1 -1
407 103 2 -6.1481932645833215 -3.8140316486062855 2.6730960695144534 0 1 -1
608 170 2 -1.5075587183643442 -1.3862315989620724 5.901306534761068 0 0 -1
522 141 4 -0.5446525720728823 -4.515000909955265 2.406315432477629 0 0 0
277 59 4 -0.46369000815609385 -4.551336173910133 2.810369716913622 0 0 0
275 59 2 -0.5245230543050731 -4.19266271317285 3.153375094508524 0 0 0
177 36 3 -0.8560780604467807 -1.318678944835486 1.6327178439692172 0 0 0
178 36 3 -0.23403083159574312 -0.9208479993812434 1.7730310077034979 0 0 0
684 195 4 -0.3524686538899878 -0.8835258707134187 2.133893541920663 0 0 0
683 195 2 -0.3596525199616834 -0.7255770129060638 2.6082357711030175 0 0 0
685 195 4 -0.3668363860333791 -0.5676281550987088 3.082578000285372 0 0 0
598 166 4 -0.2694365873993333 -0.19998084263612642 3.0004032814715504 0 0 -1
561 154 4 -4.132383405144935 -5.290408806116511 3.8879458395366666 1 0 0
576 159 4 -4.5538229719498995 -4.771728636755098 4.425576299902603 1 0 0
560 154 2 -3.899686104607285 -4.927105278279461 3.6352355053918246 1 0 0
485 129 2 -5.980185821187984 -3.9014387178099406 4.503625790988118 1 0 -1
487 129 4 -5.491539055461588 -4.000450992644886 4.465930860601837 1 0 -1
575 159 2 -4.83846993408931 -4.371814022826332 4.520678395100372 1 0 0
577 159 4 -5.12311689622872 -3.9718994088975643 4.6157804902981425 1 0 0
562 154 4 -3.666988804069635 -4.563801750442411 3.3825251712469826 1 0 0
666 189 4 -4.194506059428277 -3.276288920068163 4.0783805918184495 0 0 0
299 67 2 -1.5949250895124822 -3.336526833918455 4.332585063258503 0 0 -1
300 67 4 -2.016511760086208 -3.31219536778266 4.600302561659239 0 0 -1
276 59 4 -0.5853561004540523 -3.833989252435568 3.4963804721034264 0 0 0
23 5 3 -0.22788850683273132 -3.6408901241388634 4.127347722391522 0 0 -1
21 5 1 -0.5440295046303795 -3.592385142777035 4.463505626202553 0 0 -1
24 5 3 -0.9703570781338292 -3.64931617213194 4.289426167427886 0 0 -1
301 67 4 -1.173338418938756 -3.3608583000542507 4.064867564857767 0 0 -1
665 189 2 -3.961687709408469 -3.1021470946357996 3.6716002573268405 0 0 0
667 189 4 -3.728869359388661 -2.9280052692034357 3.264819922835231 0 0 0
25 5 3 -0.507354098591239 -3.179877312021994 4.652958005859457 0 0 -1
435 112 4 -3.7542158933890213 -0.3531020770673791 4.498334675541365 0 0 0
469 123 4 -0.2290109089442654 -0.4883548413290243 4.62920942359055 0 0 -1
34 7 3 -5.4882044643446415 -5.393316698096876 5.962747973719185 0 0 0
31 7 1 -5.527948611289164 -5.03217915024032 6.251365496249672 0 0 0
33 7 3 -5.79095123476986 -4.702694257754594 6.057537413491336 0 0 0
288 63 4 -1.7491761450222891 -5.6384232221085755 4.764384919520378 0 0 -1
415 105 4 -1.4989149344900965 -5.938911742664632 4.733167378896569 0 1 0
287 63 2 -1.5572831061592611 -5.192199608422453 4.882966318671369 0 0 -1
50 10 3 -0.3865304226718564 -5.938771482658917 6.000057337215168 0 0 0
46 10 1 -0.037611506727342245 -6.221862054001078 6.07432252767023 0 0 0
335 79 2 -1.9860182530489594 -3.4360874676364257 6.200306552154968 0 0 0
337 79 4 -1.9015951605734196 -3.151685568285703 5.797828849539587 0 0 0
531 144 4 -0.1874782486511829 -3.082639658251422 4.8742356603611485 0 0 0
22 5 3 -0.470327953387887 -3.9135971531619096 4.784427619417395 0 0 -1
289 63 4 -1.3653900672962331 -4.745975994736331 5.00154771782236 0 0 -1
4 1 3 -1.3162271368518532 -4.567373994202736 5.383225046819353 0 0 -1
3 1 3 -0.9207405166164659 -4.255164302567631 5.952185011723886 0 0 -1
5 1 3 -0.5717861844948822 -4.6700725202626305 5.429708174933011 0 0 -1
1 1 1 -0.9112987645600457 -4.375835701713708 5.5042461021097155 0 0 -1
2 1 3 -0.8433753574272739 -3.998548503880181 5.2500005886497965 0 0 -1
7 2 3 -5.11137560516591 -1.4479670339875255 4.929509660979843 0 0 -1
615 172 4 -0.07017205512693608 -2.8450706811965736 6.229909754048338 0 0 -1
324 75 4 -6.157771518197582 -1.512520972522598 5.409212951588869 0 0 0
293 65 2 -6.17668020836154 -0.4181776093376903 5.156162193118318 0 0 -1
6 2 1 -5.420310315112578 -1.2403340893723875 5.199783420898497 0 0 -1
9 2 3 -5.524309260673609 -0.8262437973868926 5.018087385153324 0 0 -1
8 2 3 -5.23730935645637 -1.1862858930367022 5.622736658980107 0 0 -1
10 2 3 -5.795156494113696 -1.497791445054096 5.224401546204779 0 0 -1
294 65 4 -5.906979256573401 -0.8349086480595573 5.096190216577885 0 0 -1
424 108 4 -3.5858298401182678 -0.4210345814131675 5.85933463524162 0 0 0
436 112 4 -3.699004029053706 -0.46001576404307964 5.491068836116324 0 0 0
434 112 2 -3.7266099612213632 -0.40655892055522935 4.994701755828845 0 0 0
422 108 2 -3.2860114020526714 -0.6524148520087539 6.185788421519491 0 0 0
610 170 4 -1.8213693658529078 -1.570875814704188 6.243986255659894 0 0 -1
467 123 2 -0.07387109500446055 -0.9553158205899667 4.717973616701468 0 0 -1
390 97 4 -3.6866883634304757 -0.014249446258323695 4.290482090309398 0 0 0
399 100 4 -5.913365242914512 1.2761085348566321 -5.103780567677875 0 0 0
398 100 2 -5.645531795422032 1.4028378276876716 -4.701033834925519 0 0 0
384 95 4 -3.5753368844811146 3.87861256598938 -5.987370078400795 0 0 0
383 95 2 -3.2118448600662144 3.877666107643121 -5.644044209286059 0 0 0
125 25 3 -2.2033496177027136 3.427059423519124 -5.907456433182332 0 0 1
124 25 3 -1.960626484146244 3.462651007561541 -5.195614653303163 0 0 1
385 95 4 -2.848352835651314 3.876719649296862 -5.300718340171323 0 0 0
122 25 3 -2.479008506079129 3.9454723556888007 -5.446739373569834 0 0 1
121 25 1 -2.102852027526047 3.7076398050337893 -5.5631093932972115 0 0 1
123 25 3 -1.7714111120099538 4.00526824780857 -5.692971741855923 0 0 1
89 18 3 -0.24820385405097595 5.629868028657091 -0.1944127322759698 0 0 0
342 81 4 -1.626281809396289 3.7537100985583773 -5.98964464380893 0 -1 1
329 77 2 -5.014576620772883 6.29283092413872 -4.808893311241343 0 -1 1
48 10 3 -0.13651946481250216 6.115731719185403 -6.1936801446624825 0 -1 1
206 42 1 -5.103737117389903 1.5058669920901726 -3.592700340189688 1 0 0
210 42 3 -5.342486103027348 1.3552090629697364 -3.2353474190455946 1 0 0
208 42 3 -5.270507034306542 1.3205182893777156 -3.984023292767747 1 0 0
400 100 4 -5.377698347929552 1.5295671205187111 -4.2982871021731635 0 0 0
98 20 3 -3.7814943080567724 0.3869891962406376 -4.752014364236845 0 0 1
209 42 3 -4.6562087414291975 1.3940168283413674 -3.542621466606886 1 0 0
97 20 3 -3.4554050770517235 0.34313864926156956 -4.07626075310907 0 0 1
96 20 1 -3.7093393817744 0.11397478017067364 -4.383833980143417 0 0 1
602 168 2 -0.6368107180055523 0.449942382004331 -3.9905535248459736 0 0 0
604 168 4 -0.16372541890093767 0.4213012226652237 -3.831273947490281 0 0 0
603 168 4 -1.109896017110167 0.47858354134343833 -4.149833102201666 0 0 0
207 42 3 -5.140717776394506 1.963708533833833 -3.6174703525707295 1 0 0
338 80 2 -5.3679409666579785 4.413812020784931 -3.6497138177427884 0 -1 1
340 80 4 -5.169856274441292 3.9562934033986776 -3.6876502046882895 0 -1 1
382 94 4 -4.7649744640432035 3.803043347960556 -3.6238413315196314 0 0 0
380 94 2 -4.336206002097322 3.621194853828484 -3.4419382495709634 0 0 0
381 94 4 -3.907437540151442 3.4393463596964122 -3.260035167622296 0 0 0
339 80 4 -5.566025658874664 4.871330638171185 -3.6117774307972863 0 -1 1
310 70 4 -5.844942735310961 5.054028897639207 -3.794248420459266 0 -1 1
330 77 4 -5.356444162067309 5.935643624046256 -4.734436499183569 0 -1 1
309 70 4 -5.604973210922897 5.635879569061527 -4.571335560701693 0 -1 1
308 70 2 -5.724957973116929 5.344954233350367 -4.18279199058048 0 -1 1
304 68 4 -5.598704809198373 1.32060615087179 -1.8686375705642582 0 0 0
286 62 4 -5.456853123545484 1.6540578833514947 -2.026724390861839 0 0 0
284 62 2 -5.409595204609317 1.6782569122394073 -2.523897495623852 0 0 0
285 62 4 -5.362337285673151 1.70245594112732 -3.021070600385865 0 0 0
362 88 2 -3.3403189403220583 2.8856634095793328 -1.840936811522719 0 0 0
363 88 4 -3.111593015893454 2.4458208214283417 -1.7759525892613692 0 0 0
79 16 3 -2.3389753371338466 1.8237268779729148 -2.0517992069101014 0 0 0
78 16 3 -2.8075374170899754 2.2381787244702505 -1.6201984143222663 0 0 0
76 16 1 -2.5589587957938194 1.8470959887500542 -1.64392525263305 0 0 0
494 132 2 -0.37117875055543453 1.6157659910604738 -1.7296277111045184 0 0 0
496 132 4 -0.7698767809017226 1.8594325820734063 -1.551676950998784 0 0 0
417 106 4 -1.0537975666696506 1.8136840468461666 -1.830509870068048 0 0 0
370 90 4 -3.7569820988706093 3.580860127691308 -1.695343203863081 0 0 0
364 88 4 -3.5690448647506625 3.325505997730324 -1.9059210337840686 0 0 0
368 90 2 -4.029981055794992 3.9920315831496156 -1.615283203024267 0 0 0
198 40 3 -1.3534772428991528 3.180788115787907 -1.53230127146298 1 0 0
69 14 3 -4.476367035792573 5.371816644459092 -1.5774469890482468 0 0 0
302 68 2 -5.674799526078548 0.9450025908192761 -1.5474965427609577 0 0 0
303 68 4 -5.750894242958723 0.5693990307667621 -1.2263555149576573 0 0 0
215 43 3 -5.512801951614489 0.24896221861683782 -1.1803438272383482 1 0 0
159 32 3 -3.6791982277547475 0.8461663156734098 -0.3406694541362974 1 0 0
450 117 4 -3.599081420319874 0.7724135638093297 -0.7157848002331766 0 0 1
90 18 3 -0.5803366711572933 5.018552341019215 -0.48230320076848865 0 0 0
449 117 2 -3.3748709405976056 1.0237033671983142 -1.085356302780785 0 0 1
451 117 4 -3.1506604608753372 1.2749931705872983 -1.4549278053283934 0 0 1
86 18 1 -0.46023637983845117 5.228890156725133 -0.09664282775981568 0 0 0
351 84 4 -6.037146074458879 2.235776613634122 -0.39091972609727677 0 -1 1
375 92 4 -6.227797460233003 2.2794453251718276 -0.7297437497468171 0 0 0
350 84 2 -5.6518688529162056 2.131376340982427 -0.08981833847045581 0 -1 1
80 16 3 -2.8320445623049055 1.4861146559008807 -1.5937591140174574 0 0 0
418 106 4 -1.8443227375192035 1.902530158280439 -1.2245591107341394 0 0 0
77 16 3 -2.246504014710327 1.8487824849292143 -1.3063320573390407 0 0 0
84 17 3 -2.323305892718743 2.4097700860281352 -0.03418567809254816 0 0 0
416 106 2 -1.449060152094427 1.8581071025633027 -1.5275344904010937 0 0 0
200 40 3 -1.4702362846990973 3.065152696250371 -0.7975252675637676 1 0 0
369 90 4 -4.302980012719375 4.403203038607923 -1.535223202185453 0 0 0
70 14 3 -4.3860324880981665 4.690019118398869 -1.271029295448495 0 0 0
501 134 4 -0.7752290610411452 4.672315707366648 -0.4757843177679193 0 -1 0
196 40 1 -1.3179765747820023 3.362649305762785 -1.1069000371628601 1 0 0
502 134 4 -1.38882221452055 3.9691857219673268 -0.835105435481106 0 -1 0
197 40 3 -1.572377353142028 3.7453866689619812 -1.0870920897414464 1 0 0
199 40 3 -0.8758757192663424 3.471606188060563 -1.0175958863512755 1 0 0
500 134 2 -1.0820256377808475 4.320750714666987 -0.6554448766245127 0 -1 0
366 89 4 -5.985494040046432 4.9974710906714765 -0.5966053987215327 0 0 0
365 89 2 -5.504946845037566 4.952428663097636 -0.7271640946682509 0 0 0
367 89 4 -5.024399650028699 4.907386235523795 -0.8577227906149693 0 0 0
66 14 1 -4.416252731004158 5.1357286725881925 -1.182543532621634 0 0 0
68 14 3 -4.770857729313404 5.2162289306627185 -0.8943161855082333 0 0 0
296 66 2 -4.002401856080371 6.046991107996745 -0.6040275717047738 0 -1 0
297 66 4 -4.0159659743331755 5.668889396825275 -0.9309145716073175 0 -1 0
67 14 3 -4.026945546447516 5.277218220714931 -0.9824919797072236 0 0 0
85 17 3 -2.9989390127372992 2.741947734092383 -0.043011620558306846 0 0 0
441 114 4 -3.966033128866184 0.5022096781190202 0.6636412122731445 0 0 0
157 32 3 -3.751531263182204 0.692764608707102 0.39154352600372383 1 0 0
440 114 2 -4.085707195433654 0.6608024033483308 1.1224728429346416 0 0 0
442 114 4 -4.205381262001125 0.8193951285776415 1.5813044735961386 0 0 0
156 32 1 -3.878129832351204 0.981089865371205 0.05622077304191274 1 0 0
158 32 3 -3.7379888151313088 1.4095903748587244 0.16598328331502257 1 0 0
525 142 4 -0.6919299786331603 0.5486040101363268 0.7998388474182325 0 0 0
115 23 3 -5.202735943483999 2.2617911199596925 0.5334393969703202 0 0 0
352 84 4 -5.266591631373531 2.0269760683307325 0.2112830491563649 0 -1 1
112 23 3 -4.736891028641226 2.548975834434031 1.040897232743248 0 0 0
111 23 1 -4.887668667070758 2.5821596160619995 0.6075787120376928 0 0 0
113 23 3 -5.072214193471098 3.003232244612674 0.5448029988118184 0 0 0
392 98 2 -3.758072883494479 2.2079865453690983 0.32862378879677856 0 0 0
394 98 4 -4.188827789248598 2.411423161764913 0.48049134385080305 0 0 0
114 23 3 -4.529371991771119 2.5216199552998027 0.31903332229113446 0 0 0
393 98 4 -3.3273179777403605 2.0045499289732827 0.17675623374275423 0 0 0
82 17 3 -2.9230402741987476 2.06288054973797 0.2571668940311675 0 0 0
81 17 1 -2.721227994347418 2.4717393086842256 0.19628734956749122 0 0 0
83 17 3 -2.636025198639787 2.6602872608241825 0.6116066885674947 0 0 0
426 109 4 -2.5853658004172404 2.8562424774941357 0.9415532552610569 0 0 0
524 142 2 -0.7015799699768235 0.05653336666320621 0.8880055049424344 0 0 0
425 109 2 -2.512826396031785 3.3443865076931347 0.8612199459023248 0 0 0
348 83 4 -2.601364611882785 3.9392086044062125 1.1284528129776223 0 -1 0
427 109 4 -2.44028699164633 3.8325305378921337 0.7808866365435926 0 0 0
347 83 2 -2.4648939979670423 4.416289975919908 1.189846106521361 0 -1 0
349 83 4 -2.3284233840512996 4.893371347433605 1.2512394000651 0 -1 0
388 96 4 -1.747797316888826 6.20656964967904 0.45242274836419627 0 0 0
386 96 2 -1.366552380423179 5.93739178175018 0.27299149736115774 0 0 0
387 96 4 -0.9853074439575321 5.66821391382132 0.09356024635811938 0 0 0
87 18 3 -0.169734660822711 4.960459631958772 0.1382056438608269 0 0 0
88 18 3 -0.835765044377876 5.307772376948475 0.1642322715537602 0 0 0
314 72 2 -5.181511141738646 0.9552633087204216 2.9649197912031267 0 0 0
316 72 4 -5.060528265088861 0.7929408315608489 2.507738692549329 0 0 0
127 26 3 -4.098590226133786 1.1472676708084517 2.3413793747659564 0 0 0
130 26 3 -4.68890512720829 0.7767514236043815 2.6082988909645115 0 0 0
126 26 1 -4.3471403145212655 0.7616675178254168 2.307684040041232 0 0 0
129 26 3 -4.073084005009449 0.3982129038649698 2.3976500492213826 0 0 0
128 26 3 -4.5165154771559575 0.7295457295545488 1.876893783650804 0 0 0
57 12 3 -3.7024114001485793 1.2975885838835104 2.130670385878235 0 0 0
56 12 1 -3.327602259442416 1.5635169795377217 2.1506752959720576 0 0 0
58 12 3 -2.994737430443478 1.3735074964199443 1.8891463263705996 0 0 0
60 12 3 -3.187604598675901 1.5931435921488915 2.5830211283852655 0 0 0
596 166 2 -0.3000255310341731 0.2984975810138152 3.0245606340302227 0 0 -1
597 166 4 -0.3306144746690128 0.7969760046637562 3.0487179865888954 0 0 -1
550 150 4 -5.915192154633793 1.718669014791698 1.7965778795082996 1 0 0
699 200 4 -4.8775803261096105 2.411593579392165 2.1672013976019624 0 0 0
700 200 4 -4.528043998741229 2.01223671463092 3.0147498920363347 0 0 0
698 200 2 -4.7028121624254196 2.2119151470115423 2.5909756448191485 0 0 0
59 12 3 -3.4342170586205283 1.9853748487023661 1.9895256052492587 0 0 0
420 107 4 -4.383419044550872 3.985194405570412 2.8044154438224163 0 0 0
419 107 2 -4.0338280439121865 4.25200312088059 2.56650949243183 0 0 0
421 107 4 -3.6842370432735008 4.518811836190768 2.328603541041244 0 0 0
444 115 4 -3.9473301755864183 4.797233885506985 2.2184273025049324 0 0 0
443 115 2 -3.857803321696378 5.1649660624351155 1.8916888926353594 0 0 0
445 115 4 -3.7682764678063383 5.5326982393632465 1.564950482765787 0 0 0
315 72 4 -5.3024940183884315 1.1175857858799942 3.422100889856925 0 0 0
389 97 2 -3.435939095588963 0.4181301744467087 4.277341760176918 0 0 0
391 97 4 -3.18518982774745 0.8505097951517411 4.264201430044437 0 0 0
358 86 4 -3.505392421884493 1.0995227857857375 4.276105849625789 0 0 -1
414 105 4 -1.8368252537471366 5.790203300746171 5.032382946362178 0 0 0
361 87 4 -0.05008221393332038 0.9167885154480555 3.2841002985246472 0 0 -1
356 86 2 -3.75475880729671 1.5250786301988466 4.358073093768002 0 0 -1
583 161 4 -3.8936440034046162 2.332992116093612 4.500142473380668 1 0 0
581 161 2 -4.193683315938343 2.7070587848332583 4.358542550103054 1 0 0
582 161 4 -4.493722628472069 3.0811254535729047 4.216942626825439 1 0 0
357 86 4 -4.004125192708928 1.9506344746119562 4.440040337910216 0 0 -1
72 15 3 -4.4160635190595485 4.136214627457422 3.739769559291991 0 0 0
71 15 1 -4.2780026519566245 3.8883927941555143 4.101879398862512 0 0 0
75 15 3 -4.496374379284608 3.4887508309163717 4.102179269287281 0 0 0
74 15 3 -4.37609686984866 4.122696128384961 4.49018272357817 0 0 0
73 15 3 -3.8203517773595643 3.818711683716416 4.070253146655843 0 0 0
452 118 2 -0.14948815005048882 4.122539260632922 3.509386310746494 0 0 0
62 13 3 -1.520352717297877 3.8246995900519605 4.0178818614072185 0 -1 0
64 13 3 -0.9095167310628232 4.187309162127839 3.7723341141989373 0 -1 0
65 13 3 -0.973123026592369 3.4422559249926667 3.6843005240002302 0 -1 0
61 13 1 -1.2010201821804112 3.8365345457146023 3.686994167710604 0 -1 0
63 13 3 -1.4109085672874508 3.90087524370144 3.2782067652876896 0 -1 0
454 118 4 -0.6312903200532893 4.009268127874346 3.5803533415721778 0 0 0
584 162 2 -6.09172786163435 4.865483159241075 3.9058888748938907 1 0 -1
586 162 4 -5.631662692760482 4.925294066016131 4.092336443448348 1 0 -1
271 57 4 -1.9243336135547662 5.6330599287490495 3.4144640776775086 0 -1 0
269 57 2 -1.527660852665152 5.930263965367226 3.348733708849558 0 -1 0
262 54 4 -1.955557377790808 5.522293393967379 3.8130175309586436 0 -1 -1
260 54 2 -1.905948765739194 5.224543536279823 4.211620099762944 0 -1 -1
261 54 4 -1.856340153687581 4.926793678592267 4.610222668567243 0 -1 -1
270 57 4 -1.1309880917755377 6.227468001985403 3.283003340021607 0 -1 0
429 110 4 -0.7159935798073931 2.44050250441063 5.383526629494544 0 0 0
428 110 2 -1.0328893893376905 2.8182611132050797 5.466445139996209 0 0 0
332 78 2 -2.5949840162442905 4.0924757988855 5.248569233518487 0 -1 0
333 78 4 -2.741593065953934 3.714495097349963 4.955932298375435 0 -1 0
334 78 4 -2.448374966534648 4.470456500421037 5.541206168661539 0 -1 0
430 110 4 -1.3497851988679879 3.196019721999529 5.549363650497873 0 0 0
343 81 4 -1.1537079905135539 3.3328777873786892 5.857497619717998 0 -1 0
55 11 3 -2.074837087744085 5.498500638768329 5.175173916554209 0 -1 0
53 11 3 -2.339653715562726 4.85254010108483 5.457144016718636 0 -1 0
54 11 3 -1.665475991932384 5.121548284397373 5.682352796014273 0 -1 0
413 105 2 -1.6678700941186164 6.236377779040769 4.882775162629374 0 0 0
51 11 1 -1.9598212914812558 5.08432145855776 5.3255965654148385 0 -1 0
52 11 3 -1.7537261612446151 4.851772844621608 4.986412338999104 0 -1 0
341 81 2 -1.3899948999549216 3.543293942968533 6.244658487954534 0 -1 0
160 32 3 -4.331466223572695 0.9719688298133611 0.01375993102746468 1 0 0
371 91 2 0.7446495275431684 -5.321874900299282 -6.19154405206162 0 1 0
372 91 4 0.7913119763639445 -4.850042645211152 -6.032808615159661 0 1 0
402 101 4 2.1109740523871645 -6.14229516598956 -6.166859114278363 0 1 0
401 101 2 2.0945792910889893 -5.6458596599764475 -6.2241565851766705 0 1 0
506 136 2 1.2519417851166883 -4.507945837320822 -5.576533525337013 0 0 0
507 136 4 1.4945879008618916 -4.51127215864355 -5.139370171314467 0 0 0
538 146 4 1.3425325536371884 -4.643356087240933 -4.7924238754978 0 0 1
508 136 4 1.0092956693714843 -4.504619515998094 -6.01369687935956 0 0 0
614 172 2 0.2831599203801964 -2.682227096737317 -6.077486606605408 0 0 0
616 172 4 0.6364918958873286 -2.5193835122780603 -5.763418967259154 0 0 0
464 122 2 0.746507873863204 -2.3392557729722516 -4.958651378280724 0 0 0
465 122 4 0.5245688260707214 -2.4668217314136234 -5.388151070145571 0 0 0
448 116 4 2.9085641730660297 -1.5692601708882736 -5.295015772456331 0 0 1
634 178 4 3.186115554934586 -1.7310095844767057 -5.540467819509569 0 0 0
632 178 2 3.6771835537839004 -1.6575719251782794 -5.481653444542912 0 0 0
633 178 4 4.168251552633215 -1.5841342658798532 -5.4228390695762565 0 0 0
619 173 4 5.086004368686062 -2.2179762273200874 -5.475659111881823 0 0 0
617 173 2 4.820730339993561 -2.2338822348732066 -5.05213025970674 0 0 0
446 116 2 2.730632275477561 -1.2643679024548102 -4.94092405486035 0 0 1
306 69 4 4.190406632514255 -1.172471952320965 -5.490058987107932 0 0 1
305 69 2 4.532610261113405 -0.9621506492123737 -5.7878200087886285 0 0 1
307 69 4 4.874813889712555 -0.7518293461037823 -6.085581030469325 0 0 1
649 183 4 5.59231887105374 -0.12828001937006883 -6.196383299744177 0 0 1
536 146 2 1.7574067602056056 -4.417913841048013 -4.627939267233799 0 0 1
537 146 4 2.172280966774023 -4.192471594855092 -4.463454658969798 0 0 1
622 174 4 2.221535746818666 -3.790608922568965 -4.534323335035694 0 0 0
620 174 2 2.644727648638631 -3.676037628350951 -4.2939443992379305 0 0 0
621 174 4 3.067919550458596 -3.5614663341329362 -4.053565463440167 0 0 0
568 156 4 3.279345165380239 -3.453759151650566 -4.383058361971887 0 0 1
566 156 2 3.738411091672781 -3.2702759029167567 -4.457840530642525 0 0 1
669 190 4 5.3411033928187726 -3.2941309233207448 -4.064578477208951 0 1 1
466 122 4 0.9684469216556869 -2.21168981453088 -4.529151686415877 0 0 0
593 165 2 1.178711075532181 -1.8205661215917235 -3.735115639421688 0 0 0
595 165 4 1.0938877006562193 -1.998956184919144 -4.1944433877460305 0 0 0
594 165 4 1.2635344504081425 -1.6421760582643035 -3.2757878910973455 0 0 0
567 156 4 4.197477017965323 -3.0867926541829473 -4.532622699313162 0 0 1
183 37 3 4.289521408796696 -2.891082925566462 -4.159158602790077 0 0 1
181 37 1 4.702688717237136 -2.711926879450261 -4.047373602114929 0 0 1
184 37 3 4.680906209080181 -2.5124920962107993 -3.628982290574557 0 0 1
618 173 4 4.555456311301061 -2.2497882424263262 -4.628601407531655 0 0 0
185 37 3 4.828552838160991 -2.4050415570684134 -4.359430683384543 0 0 1
182 37 3 5.013243464149835 -3.0510280253634248 -4.034483217705549 0 0 1
668 190 2 5.782732890324208 -3.151121634757424 -4.250351807688986 0 1 1
670 190 4 6.224362387829644 -3.008112346194103 -4.436125138169022 0 1 1
479 127 2 1.4904738602453975 -0.2616161948579224 -3.150897109829398 0 0 0
480 127 4 1.791375249435942 -0.47283867107068833 -3.489782665033013 0 0 0
256 52 4 1.805714641505008 -0.6169736170204606 -3.8659766631130843 0 0 0
255 52 4 2.3475612950452063 -0.6476042292911438 -4.705895688757 0 0 0