LAMMPS data file via write_data, version 29 Aug 2024, timestep = 1001000, units = lj

3400 atoms
4 atom types
2400 bonds
1 bond types

-10.791198 10.791198 xlo xhi
-10.791198 10.791198 ylo yhi
-10.791198 10.791198 zlo zhi

Masses

1 1
2 1
3 1
4 1

Bond Coeffs # zero

1 0

Atoms # bond

1284 295 4 -0.9468457235574032 -8.943627626079952 -9.715491068996217 0 0 0
1283 295 2 -0.8221975247722582 -9.039202654852263 -10.0282661326039 0 0 0
1285 295 4 -0.6975493259871132 -9.134777683624574 -10.341041196211583 0 0 0
77 16 3 -0.3455769994420612 -9.280923064974946 -10.431490157128344 0 0 0
1207 269 4 -1.0286026506123112 -8.884146333018672 -9.319492813305192 0 0 0
1582 394 4 -2.370831197888022 -6.675166178991098 -10.478534186845692 0 0 1
49 10 3 -2.2856714183493057 -6.305478617155627 -10.393377016385827 0 0 0
2768 790 2 -9.058314776122348 -4.739108608153185 -10.639333848518623 1 0 1
1154 252 2 -5.120826438424105 -5.282422089775605 -10.354058940188619 0 0 0
1156 252 4 -5.143840953736712 -4.950444186762857 -10.245610777474313 0 0 0
1116 239 4 -5.1555784482185825 -4.668908093882649 -9.944735353819189 0 0 0
1155 252 4 -5.0978119231114984 -5.614399992788353 -10.462507102902924 0 0 0
195 39 3 -4.938365171389899 -5.898487261364763 -10.69427333569343 0 0 1
3288 963 4 -3.058993933901859 -4.917066048243759 -9.807322428381914 0 1 1
1174 258 4 -3.3771910732212707 -4.682021071215617 -9.680743503088118 0 0 0
3287 963 2 -2.791194395252767 -5.092771391296696 -9.948428911301539 0 1 1
48 10 3 -2.4032301341377793 -5.657365680411136 -10.014260187998246 0 0 0
3289 963 4 -2.523394856603675 -5.268476734349633 -10.089535394221164 0 1 1
46 10 1 -2.0880964366700234 -5.916602703146929 -10.235137798369703 0 0 0
50 10 3 -1.7462089936443506 -6.01988062657015 -9.952566308592733 0 0 0
47 10 3 -1.9228874199167514 -5.6779051421487745 -10.59197032933762 0 0 0
2113 571 4 -1.512287366291607 -0.05465625163144977 -5.436158692352941 0 0 1
1215 272 4 -1.437332351417278 -5.914052426239961 -9.744548723828755 0 0 0
1214 272 2 -1.3234975486094782 -5.8482369774990435 -9.4201878686431 0 0 0
1355 319 2 -8.744631237356394 -4.433426187699208 -9.633177298557456 0 0 1
1356 319 4 -8.802172154655635 -4.545026391600961 -9.9598796666626 0 0 1
2769 790 4 -9.023418024211527 -4.603123313889783 -10.318724715070815 1 0 1
1357 319 4 -8.687090320057154 -4.321825983797456 -9.306474930452312 0 0 1
1115 239 2 -5.182767005981944 -4.3433039855601585 -9.819265249928764 0 0 0
1117 239 4 -5.2099555637453046 -4.017699877237669 -9.693795146038338 0 0 0
1152 251 4 -5.49923250096931 -3.7055167417460444 -9.62412562553326 0 0 0
1151 251 2 -5.581911368874558 -3.398057032311197 -9.47875461096683 0 0 0
1173 258 4 -3.8318482262913203 -4.197119155485007 -9.46129645871686 0 0 0
1172 258 2 -3.6045196497562952 -4.439570113350312 -9.57101998090249 0 0 0
1096 232 4 -4.031475562506697 -3.953621133608071 -9.234746015814007 0 0 0
1057 219 4 -1.5892852252139464 -4.201474313553581 -9.244158022065822 0 0 0
1393 331 4 -1.2956566949661448 -4.237102195122674 -9.557212249893965 0 0 1
1391 331 2 -1.1024972394653072 -4.184123738400303 -9.844236130213787 0 0 1
1392 331 4 -0.9093377839644696 -4.131145281677933 -10.131260010533609 0 0 1
1029 210 4 -9.740595573529575 -3.150067870960128 -10.32142635403076 0 0 0
1433 345 2 -9.64370486883434 -3.1658075072715337 -9.579183176786934 0 0 1
1435 345 4 -9.589690210220034 -3.2004918494368506 -9.92324627138359 0 0 1
1434 345 4 -9.697719527448644 -3.1311231651062172 -9.235120082190278 0 0 1
1028 210 2 -9.852694335525532 -2.993454283677454 -10.613669492252084 0 0 0
1044 215 4 -7.489055610102243 -2.833891368895922 -9.489174721737369 0 0 0
1043 215 2 -7.1954403410909356 -2.685985160677479 -9.369117121503727 0 0 0
1045 215 4 -6.901825072079629 -2.538078952459036 -9.249059521270087 0 0 0
74 15 3 -5.4377140790981615 -2.845114095614612 -10.644996913019595 0 0 0
71 15 1 -5.090654980419569 -2.5385719028249896 -10.67469314281651 0 0 0
75 15 3 -4.830832709041521 -2.5613657888486685 -10.301366441312439 0 0 0
73 15 3 -5.2616183994313 -2.1098874256572726 -10.722663220941083 0 0 0
2032 544 4 -5.266139914832314 -1.7291733538865048 -10.54024032650611 0 0 1
1147 249 4 -4.5990809958277 -2.710078290455605 -10.00231311962606 0 0 0
1145 249 2 -4.2926050251878936 -2.6851875762512245 -9.835121816721989 0 0 0
1146 249 4 -3.986129054548087 -2.660296862046844 -9.667930513817918 0 0 0
2030 544 2 -5.356396832515395 -1.4255120315693492 -10.689047215254696 0 0 1
1177 259 4 -0.023479683165640877 -10.38779710160297 -5.833403185445149 0 0 0
377 76 3 -4.309003306476616 -0.3384699343633438 -9.753703905049045 0 0 1
2203 601 4 -3.634667748894292 -0.9541879977887965 -10.414128902724888 0 0 1
2201 601 2 -3.435535695443887 -0.9314380625004032 -10.701058973879839 0 0 1
2198 600 2 -1.0486822607193813 -0.07909480073282092 -10.697734168209783 0 0 1
2199 600 4 -0.7278756434547329 -0.15200864517874213 -10.578290936474438 0 0 1
1589 397 2 -9.283209420884239 -9.787913605872648 -9.094565232423028 0 0 1
1591 397 4 -9.359603425043927 -9.449596165967135 -9.141525492049627 0 0 1
1590 397 4 -9.206815416724552 -10.126231045778159 -9.047604972796428 0 0 1
1348 316 4 -9.203250097041531 -10.55324571978354 -9.009884549787902 0 0 1
1205 269 2 -1.1665371180141622 -8.853338636493795 -8.999297609503841 0 0 0
1206 269 4 -1.3044715854160132 -8.82253093996892 -8.67910240570249 0 0 0
1048 216 4 -1.3237014593039054 -8.816154950041561 -8.252428545766813 0 0 0
1046 216 2 -1.412857887811461 -8.729888178355608 -7.92515316423215 0 0 0
1327 309 4 -8.352879877438843 -4.594047658502145 -8.282711215772245 0 0 1
577 116 3 -8.457349502782401 -4.912506655874385 -8.05179899267483 1 0 0
1074 225 4 -5.686209272733639 -4.714364838386505 -7.710443254196698 0 0 0
2364 655 4 -3.0824306890324085 -4.798973685169595 -7.782359768220719 0 0 0
1216 272 4 -1.2096627458016784 -5.7824215287581255 -9.095827013457447 0 0 0
2224 608 4 -1.1710513858651477 -5.710580462705329 -8.684622083419951 0 0 0
2222 608 2 -1.1093885164432575 -5.750943210454344 -8.342469282571056 0 0 0
2223 608 4 -1.0477256470213674 -5.791305958203359 -8.00031648172216 0 0 0
1325 309 2 -8.443295117055005 -4.485925657656457 -8.603077751755977 0 0 1
1326 309 4 -8.533710356671167 -4.377803656810769 -8.92344428773971 0 0 1
9 2 3 -6.483347063114774 -2.9932713515113916 -8.51760101479984 0 0 0
1105 235 4 -6.589595198480598 -3.2650486156199277 -8.239875387391377 0 0 0
1103 235 2 -6.701126515101475 -3.2124525029523525 -7.912317126397936 0 0 0
1153 251 4 -5.664590236779807 -3.090597322876349 -9.333383596400399 0 0 0
1132 244 4 -5.235744993992874 -3.722241967962197 -7.728645362401796 0 0 0
1130 244 2 -5.0842936795516005 -3.428458551071789 -7.84377052608947 0 0 0
1131 244 4 -4.932842365110326 -3.134675134181381 -7.958895689777144 0 0 0
1094 232 2 -4.110317075012099 -3.6745448586628857 -9.038785691593558 0 0 0
1095 232 4 -4.189158587517502 -3.3954685837177 -8.84282536737311 0 0 0
1220 274 2 -3.459528906471548 -3.302921945530807 -7.716220878787986 0 0 0
95 19 3 -4.324147232757546 -3.043769768425396 -8.722716993632424 0 0 0
2272 624 4 -2.9096268887190093 -4.611857626068355 -8.108655715774129 0 0 0
2270 624 2 -2.7150825318695873 -4.558332356010136 -8.394640922879764 0 0 0
2271 624 4 -2.520538175020165 -4.504807085951917 -8.6806261299854 0 0 0
1055 219 2 -1.886246175234881 -4.247700790938343 -9.064777680469522 0 0 0
1056 219 4 -2.183207125255815 -4.293927268323107 -8.88539733887322 0 0 0
2458 686 4 -10.217023829556778 -2.940048292903059 -8.241607555702753 1 0 0
2456 686 2 -10.031184901514214 -3.012951281196374 -8.529095028685202 1 0 0
2457 686 4 -9.84534597347165 -3.0858542694896887 -8.81658250166765 1 0 0
2332 644 4 -10.330316653664095 -2.7180798076826753 -7.891656383785184 1 0 0
2330 644 2 -10.577466539231153 -2.609045897762302 -7.6691062982949045 1 0 0
8 2 3 -6.544681862136077 -2.4876600367322017 -9.08168898736832 0 0 0
6 2 1 -6.248779894679139 -2.7190898751600043 -8.809324790858488 0 0 0
7 2 3 -5.977199087481636 -2.9803963302050582 -9.073072400731625 0 0 0
10 2 3 -5.9920183448963416 -2.4255571048286293 -8.57413971630065 0 0 0
92 19 3 -4.670081307729823 -2.865751362803156 -8.085818993139057 0 0 0
1266 289 4 -5.9409546714131825 -2.220066917693581 -8.210837919621174 0 0 0
1265 289 2 -5.919721075639627 -1.9624394852923615 -7.97487766770377 0 0 0
1267 289 4 -5.898487479866072 -1.7048120528911421 -7.738917415786366 0 0 0
1461 354 4 -3.6705446157604045 -2.6259495660128347 -9.452636338425025 0 0 1
1460 354 2 -3.36058172357009 -2.603079484846241 -9.291701678228913 0 0 1
1221 274 4 -3.629998428999227 -3.171318564281722 -7.9921206648208765 0 0 0
94 19 3 -3.920243110524565 -2.915025163744119 -8.100474045252678 0 0 0
1462 354 4 -3.0506188313797753 -2.5802094036796475 -9.1307670180328 0 0 1
91 19 1 -4.296123485230845 -2.792976576789634 -8.343616156646299 0 0 0
93 19 3 -4.274664214402724 -2.3425577913532747 -8.452988993408576 0 0 0
1398 333 4 -2.775587320711507 -2.3561604110838004 -8.905956048694907 0 0 1
1397 333 2 -2.4584340462566106 -2.2136652207342897 -8.865844688336448 0 0 1
1399 333 4 -2.141280771801714 -2.071170030384779 -8.82573332797799 0 0 1
2274 625 4 -1.7294602978670786 -2.0477225437063686 -8.706908246844094 0 0 0
2273 625 2 -1.4284826267999804 -1.9770732485257094 -8.542831683589409 0 0 0
1012 204 4 -0.13059113066934974 -2.1314387487683963 -7.93122923803874 0 0 0
2275 625 4 -1.1275049557328827 -1.90642395334505 -8.378755120334725 0 0 0
1011 204 4 -0.7513210746074862 -1.9250009318787358 -8.180383335851166 0 0 0
1010 204 2 -0.44095610263841806 -2.0282198403235663 -8.055806286944954 0 0 0
1218 273 4 -2.9242650050810646 -0.3798521336090248 -9.34991667769971 0 0 0
1219 273 4 -2.472928091693639 -0.7118321331601153 -8.930292714475266 0 0 0
1217 273 2 -2.6985965483873517 -0.5458421333845701 -9.140104696087487 0 0 0
1149 250 4 -0.4796210956115493 -0.34545749454584046 -8.362942192550042 0 0 0
1864 488 4 -0.8501353295692953 -0.33593657107693325 -8.118364640689354 0 0 0
1862 488 2 -1.1184294759079054 -0.3112089709844744 -7.894966348766474 0 0 0
1148 250 2 -0.2102274977669368 -0.30427832672083516 -8.58255859807931 0 0 0
1449 350 4 -7.3779995798905205 -2.1606984826031175 -1.1069005304363204 0 0 0
2290 630 4 -1.3976453993617075 -9.721439432063184 -6.603805265349891 0 0 0
2288 630 2 -1.4835919456034896 -9.987854267341007 -6.39371879093289 0 0 0
144 29 3 -1.5721869910025557 -9.391473071236684 -6.727705983873637 0 0 0
2431 677 4 -10.6329213204259 -9.107474280118183 -7.067037672080702 1 0 0
494 99 3 -10.507594736984508 -8.78927102482908 -6.8701069251288835 1 0 0
495 99 3 -10.119312601798526 -8.18950147357587 -6.632591727962949 1 0 0
2233 611 4 -9.945593880184349 -8.059989469238658 -6.985346526484678 1 0 0
491 99 1 -10.376796707099597 -8.541139091921004 -6.500482224588637 1 0 0
493 99 3 -10.139247284236587 -8.809351802995344 -6.2056395320973 1 0 0
492 99 3 -10.752336237581678 -8.382362083579126 -6.287503533947433 1 0 0
1014 205 4 -6.243410932833955 -8.401088002845462 -6.2845573183924985 0 0 0
1119 240 4 -6.473618885823098 -8.729169894534111 -6.16520224395885 0 0 0
1015 205 4 -5.956259444708775 -7.78084187157383 -6.435682298162894 0 0 0
1013 205 2 -6.099835188771365 -8.090964937209646 -6.360119808277696 0 0 0
1230 277 4 -3.8704143478758644 -7.881485611839271 -7.61214938367765 0 0 0
1229 277 2 -3.6354585761548903 -8.113713385841564 -7.496537765243561 0 0 0
1231 277 4 -3.4005028044339167 -8.345941159843857 -7.380926146809472 0 0 0
1164 255 4 -3.096178857590647 -8.454990620681142 -7.118047147208128 0 0 0
1163 255 2 -2.7816228634797477 -8.601182409138788 -7.0713300458803 0 0 0
1165 255 4 -2.4670668693688502 -8.747374197596434 -7.024612944552472 0 0 0
143 29 3 -2.1233922134791863 -8.879373104875556 -6.835067183418383 0 0 0
141 29 1 -1.6652713764850668 -8.952335909361885 -6.845153207084699 0 0 0
1047 216 4 -1.5020143163190167 -8.643621406669656 -7.597877782697489 0 0 0
142 29 3 -1.5120567861146375 -8.876970089203654 -7.272289347500839 0 0 0
145 29 3 -1.4561440791196436 -8.667094046908405 -6.558268468207221 0 0 0
1639 413 4 -1.3980443214462968 -8.642304588448825 -6.1640874829195855 0 1 0
2231 611 2 -9.79848974433705 -7.742763226387672 -7.000442355816908 1 0 0
2232 611 4 -9.651385608489752 -7.425536983536687 -7.015538185149138 1 0 0
44 9 3 -9.43359495527736 -7.080646313717914 -6.9559176763077595 0 0 0
41 9 1 -9.319421593148734 -6.70053497060991 -6.7155433635769635 0 0 0
45 9 3 -9.661659213064391 -6.40032826704634 -6.7277641102763805 0 0 0
1017 206 4 -9.857927197138478 -6.163909663976521 -6.480735236386466 0 0 0
42 9 3 -9.237922543998165 -6.819687567564869 -6.278781914240636 0 0 0
43 9 3 -8.935396968701767 -6.510145975302964 -6.89324288041453 0 0 0
1060 220 4 -8.895593409454401 -6.371444244212415 -7.265130054436676 0 0 0
1016 206 2 -9.95617753690976 -5.958539223753064 -6.214897216123708 0 0 0
1144 248 4 -9.03587401300022 -5.419909758899149 -6.424574656275717 0 0 0
1058 220 2 -8.719506601537804 -6.109555541484568 -7.416483096894292 0 0 0
576 116 1 -8.389239041005181 -5.049172424283805 -7.617882603561112 1 0 0
580 116 3 -8.761957783091098 -4.959381955712865 -7.372081035112835 1 0 0
578 116 3 -8.304358835777807 -5.505342651177847 -7.615863976322786 1 0 0
1059 220 4 -8.543419793621206 -5.847666838756721 -7.5678361393519085 0 0 0
579 116 3 -8.025586316784887 -4.819611983429176 -7.443645121480715 1 0 0
1143 248 4 -8.844498624402222 -5.042052298329724 -6.981888930389002 0 0 0
1142 248 2 -8.94018631870122 -5.230981028614436 -6.7032317933323595 0 0 0
2363 655 2 -3.1325942620984106 -4.949621349597819 -7.470448086586855 0 0 0
2365 655 4 -3.182757835164413 -5.1002690140260425 -7.158536404952992 0 0 0
1270 290 4 -7.809401768824685 -4.614043894540325 -7.184861687026745 0 0 0
1268 290 2 -7.733541679019533 -4.281652544376197 -7.105733707709623 0 0 0
1269 290 4 -7.657681589214381 -3.949261194212068 -7.026605728392501 0 0 0
88 18 3 -7.583396465231085 -3.585800419642715 -6.909077234339718 0 0 0
86 18 1 -7.272762306381257 -3.245904968354852 -6.851827766660822 0 0 0
89 18 3 -7.017568340321941 -3.326723264542575 -6.472823224882934 0 0 0
1104 235 4 -6.812657831722351 -3.1598563902847774 -7.584758865404497 0 0 0
87 18 3 -6.9951538744843935 -3.2348596825472886 -7.21844958843529 0 0 0
1075 225 4 -5.394631641744643 -4.078338913578801 -7.689147525049832 0 0 0
1073 225 2 -5.540420457239141 -4.396351875982653 -7.699795389623265 0 0 0
1222 274 4 -3.289059383943869 -3.4345253267798923 -7.440321092755095 0 0 0
1448 350 2 -7.496595820841654 -2.119481322387699 -0.7801956523949791 0 0 0
1037 213 2 -7.862101907819205 -2.2117404864923547 -6.7235971152114695 0 0 0
1038 213 4 -7.7304214707389525 -2.5338502971770818 -6.761087545337632 0 0 0
1039 213 4 -7.993782344899457 -1.8896306758076276 -6.686106685085307 0 0 0
90 18 3 -7.4860408344737746 -2.8453943531463715 -6.813052561180384 0 0 0
1024 208 4 -7.923163863979988 -1.994083070142288 -0.17836222219295994 0 0 0
1450 350 4 -7.615192061792787 -2.0782641621722813 -0.45349077435363805 0 0 0
1186 262 4 -4.037633672810399 -3.0955729490915256 -0.25267461799310675 0 0 0
1111 237 4 -5.82757313355931 -1.4206924164778516 -7.421470460662238 0 0 0
1109 237 2 -5.652701898406068 -1.263465311251835 -7.162241433548861 0 0 0
1110 237 4 -5.477830663252827 -1.106238206025818 -6.903012406435483 0 0 0
1236 279 4 -5.3088280351500385 -0.9654882695375845 -6.54692698952432 0 0 0
1235 279 2 -5.279247894666796 -0.7419594652607653 -6.279233341957746 0 0 0
13 3 3 -2.392324604251216 -0.4417239035910254 -7.1625920581513745 0 0 0
11 3 1 -1.989963674840019 -0.21208984552873533 -7.136632823545955 0 0 0
1630 410 4 -1.6805976804593332 -0.7519451151432712 -6.631754291719163 0 0 0
12 3 3 -1.724152649865779 -0.41319888405238736 -6.819616020164285 0 0 0
1628 410 2 -1.7412505208759201 -0.9052353524172073 -6.323009516693083 0 0 0
15 3 3 -1.7780043740435392 -0.22395670920322547 -7.539537815265457 0 0 0
2993 865 2 -0.1262182289436231 -10.197964474847868 -3.001158435332473 0 1 0
1863 488 4 -1.3867236222465156 -0.2864813708920156 -7.6715680568435936 0 0 0
1425 342 4 -10.078477468137843 -9.507928950503894 -5.453197934623038 0 0 1
1424 342 2 -10.161462773125827 -9.33097926476578 -5.743546428459804 0 0 1
1025 209 2 -8.017753363732599 -10.572651727201618 -5.476913500758124 0 0 0
1026 209 4 -7.922072167968444 -10.236679914870775 -5.498547966231223 0 0 0
1202 268 2 -7.431753393958726 -9.667176888527818 -5.6683874488657136 0 0 0
1204 268 4 -7.647072273841744 -9.93089410023316 -5.5872023996493505 0 0 0
1203 268 4 -7.216434514075709 -9.403459676822479 -5.7495724980820775 0 0 0
1120 240 4 -6.96748113167339 -9.113496363309734 -5.851525264372178 0 0 0
2289 630 4 -1.5695384918452717 -10.25426910261883 -6.183632316515888 0 0 0
1426 342 4 -10.24444807811381 -9.154029579027666 -6.03389492229657 0 0 1
1020 207 4 -7.6983934154944516 -8.325500724123023 -4.936629778929632 0 0 0
1123 241 4 -8.007523313425166 -8.151901906278566 -5.136406459561415 0 0 0
1121 241 2 -8.20320678297122 -7.91801372509093 -5.3081746127420875 0 0 0
1122 241 4 -8.398890252517274 -7.684125543903295 -5.479942765922759 0 0 0
1019 207 2 -7.534655514389753 -8.578081723383656 -4.758044397236605 0 0 0
1118 240 2 -6.720550008748244 -8.921333128921923 -6.008363754165514 0 0 0
17 4 3 -5.412599332066277 -8.72842686046041 -5.16113573563145 0 0 0
16 4 1 -5.620428977403554 -8.622913945902779 -4.764558046671828 0 0 0
20 4 3 -5.956453963625889 -8.326390551434763 -4.845558572395197 0 0 0
1065 222 4 -1.42149914896382 -8.455657782053839 -5.085626962265328 0 0 0
1637 413 2 -1.4389055467366965 -8.62684023152321 -5.816825026076581 0 1 0
1638 413 4 -1.4797667720270962 -8.611375874597593 -5.469562569233576 0 1 0
1064 222 2 -1.3751027401629419 -8.497272021963731 -4.741220765620828 0 0 0
1183 261 4 -9.158627242500625 -7.0521826880478224 -5.948989254589885 0 0 0
1181 261 2 -8.907505020160803 -7.269663429655227 -5.838808691526232 0 0 0
1182 261 4 -8.656382797820982 -7.487144171262632 -5.728628128462579 0 0 0
1018 206 4 -10.054427876681041 -5.753168783529607 -5.94905919586095 0 0 0
35 7 3 -6.300480262638868 -3.771574668585367 -5.459720824393159 0 0 0
31 7 1 -6.32736438278575 -3.7365357680845723 -5.006455428035047 0 0 0
33 7 3 -6.459674837255748 -3.3077556160802972 -4.888381193397728 0 0 0
32 7 3 -6.6385736149641525 -4.036715115807113 -4.849480356740737 0 0 0
34 7 3 -5.915759416904936 -3.8335320663615655 -4.815476187846827 0 0 0
1233 278 4 -5.529428338238712 -3.78471958767413 -4.701229761328187 0 0 0
1342 314 4 -6.531745496130099 -2.8927199863923088 -4.956825750076099 0 0 1
1340 314 2 -6.3856345923384366 -2.6468465181214893 -4.755088690035998 0 0 1
2499 700 4 -1.9620450175121593 -1.785193638228677 -5.185661619932813 0 0 0
1137 246 4 -7.969920220241262 -4.561334338460621 -0.2944248227723606 0 0 0
1237 279 4 -5.249667754183553 -0.5184306609839461 -6.011539694391172 0 0 0
1209 270 4 -5.254892500527662 -0.15314882804317534 -5.819483779108589 0 0 0
2134 578 4 -3.535762807669301 -0.8253013949051858 -5.871993669751426 0 0 0
2132 578 2 -3.725036008411464 -0.8709723887926117 -5.581150385836861 0 0 0
2133 578 4 -3.9143092091536276 -0.9166433826800378 -5.290307101922297 0 0 0
1239 280 4 -4.2021613228625725 -0.932284750948428 -5.016483043938148 0 0 0
1238 280 2 -4.421046746629225 -0.9406203233341818 -4.743500096676723 0 0 0
1629 410 4 -1.8019033612925068 -1.0585255896911432 -6.014264741667002 0 0 0
2498 700 2 -1.9339911866999229 -1.5580369694148681 -5.450449894579016 0 0 0
2500 700 4 -1.9059373558876862 -1.330880300601059 -5.71523816922522 0 0 0
2027 543 2 -2.1681022229312865 -10.158926882472954 -3.3842183491908893 0 1 0
2029 543 4 -1.9176836048654464 -10.394539250178441 -3.4496196328964883 0 1 0
2028 543 4 -2.4185208409971266 -9.923314514767467 -3.31881706548529 0 1 0
2080 560 4 -2.7129564826916663 -9.6666157561442 -3.2968433389329665 0 1 0
2078 560 2 -2.8104480787550514 -9.336111031077342 -3.2355080684483966 0 1 0
127 26 3 -1.4946957389446325 -10.313849458905208 -3.524600410413197 0 0 0
130 26 3 -0.9946373555311944 -10.16959774291825 -4.0595144741771545 0 0 0
126 26 1 -1.0527447997126138 -10.352082118445306 -3.6463281026459806 0 0 0
128 26 3 -0.791603357766844 -10.127066302209906 -3.3357270245050783 0 0 0
2995 865 4 -0.3968248415804108 -10.16774432853281 -3.2210647880237873 0 1 0
1021 207 4 -7.370917613285054 -8.83066272264429 -4.579459015543579 0 0 0
64 13 3 -7.109257253259591 -8.74503999112047 -4.295365048695975 0 0 0
63 13 3 -6.969178502584134 -8.393068275114679 -3.6365070558467307 0 0 0
61 13 1 -6.777681822354089 -8.58363624365921 -4.013750837539358 0 0 0
65 13 3 -6.498651570055226 -8.92237881177829 -3.8921137097937804 0 0 0
62 13 3 -6.536718024829364 -8.261621818751365 -4.237006651425137 0 0 0
18 4 3 -5.7932869357140655 -9.010965013099634 -4.577912673045472 0 0 0
19 4 3 -5.308619166865379 -8.434262862030437 -4.477355312343 0 0 0
1134 245 4 -5.032947144083177 -8.218049184006283 -4.287161178901497 0 0 0
1133 245 2 -4.851730030180904 -8.000759138745368 -4.081138379533665 0 0 0
1135 245 4 -4.670512916278631 -7.783469093484452 -3.8751155801658332 0 0 0
2079 560 4 -2.907939674818436 -9.005606306010485 -3.174172797963826 0 1 0
3128 910 2 -1.12802939330306 -8.518997852539304 -3.6538326517806996 0 1 0
3130 910 4 -1.24050108023331 -8.521641319462024 -3.9852585586160933 0 1 0
1066 222 4 -1.3287063313620637 -8.538886261873623 -4.396814568976328 0 0 0
3129 910 4 -1.01555770637281 -8.516354385616584 -3.3224067449453054 0 1 0
3 1 3 -8.221392002883483 -6.49902260208191 -3.5816248713900967 0 0 0
1 1 1 -7.799747483908842 -6.311510441555958 -3.5330956093578663 0 0 0
4 1 3 -7.474644563615685 -6.618470537199824 -3.6571262140448937 0 0 0
1141 247 4 -7.174160290218314 -6.749104595571055 -3.9360939115540603 0 0 0
1139 247 2 -6.866051562308178 -6.913612852268893 -3.958589361403161 0 0 0
1140 247 4 -6.557942834398042 -7.078121108966733 -3.981084811252262 0 0 0
5 1 3 -7.735531483881951 -6.183265461554319 -3.1008577923580223 0 0 0
2 1 3 -7.7684725617870205 -5.943049783514633 -3.8066986479409386 0 0 0
1264 288 4 -7.616272936566184 -5.613538425068396 -3.9946105845070217 0 0 0
1263 288 4 -7.180804375569749 -5.074798686883553 -4.095241727221977 0 0 0
1262 288 2 -7.3985386560679665 -5.344168555975974 -4.044926155864499 0 0 0
1036 212 4 -6.908716866653839 -4.823402362886478 -4.259104435800838 0 0 0
1035 212 4 -6.717989640120128 -4.432449182978045 -4.807537418195379 0 0 0
1034 212 2 -6.813353253386984 -4.627925772932262 -4.533320926998108 0 0 0
1232 278 2 -5.227613759958927 -3.895047479078642 -4.562536875007472 0 0 0
1234 278 4 -4.925799181679141 -4.005375370483153 -4.423843988686757 0 0 0
122 25 3 -4.663630931329298 -4.04390678932207 -4.118510785960808 0 0 0
1170 257 4 -4.840321579808215 -3.4037305523144883 -3.5694333142493755 0 0 0
124 25 3 -4.428054118304846 -3.544232240623472 -3.6088747290064322 0 0 0
121 25 1 -4.329028256339565 -3.946251627539657 -3.818336637728599 0 0 0
125 25 3 -4.3024423194886685 -4.279933340713379 -3.509549166714673 0 0 0
123 25 3 -3.927340473219702 -3.9105564780861153 -4.047842152254296 0 0 0
2001 534 4 -3.7061662991992823 -3.7543556525557324 -4.364858380830356 0 0 0
2000 534 2 -3.4194257284764187 -3.565824114418073 -4.433674834015214 0 0 0
2002 534 4 -3.132685157753555 -3.3772925762804133 -4.502491287200073 0 0 0
1005 202 4 -4.3489809000894475 -4.445715233828715 -3.1313720397495857 0 0 0
1083 228 4 -2.193426686689231 -3.692076318623139 -3.846594174376592 0 0 0
1082 228 2 -2.0511820009431454 -3.909010810528872 -3.6116348681156447 0 0 0
1084 228 4 -1.9089373151970597 -4.125945302434605 -3.376675561854697 0 0 0
1341 314 4 -6.239523688546774 -2.40097304985067 -4.5533516299958965 0 0 1
1720 440 4 -6.109984923484022 -2.091398015288361 -4.31262894333519 0 0 0
1718 440 2 -5.824864280439046 -2.0036956130370616 -4.129559263844116 0 0 0
51 11 1 -5.018270248004564 -1.9536615748216308 -3.3761161317356825 0 0 0
1169 257 2 -4.974598979335741 -3.102342274866034 -3.4526656552304 0 0 0
53 11 3 -5.060620999534547 -2.4148794537358644 -3.4041247378213684 0 0 0
1171 257 4 -5.1088763788632665 -2.80095399741758 -3.3358979962114237 0 0 0
1719 440 4 -5.5397436373940705 -1.9159932107857625 -3.946489584353043 0 0 0
54 11 3 -5.276459598211769 -1.7506877004976247 -3.7038963412994153 0 0 0
55 11 3 -4.581622063639715 -1.8343873313883652 -3.4262361670953925 0 0 0
1240 280 4 -4.639932170395877 -0.9489558957199355 -4.470517149415297 0 0 0
1870 490 4 -3.1107059908743233 -7.989012806521523 -2.830878021752193 0 1 0
1869 490 4 -2.997528870482109 -8.618045886716065 -3.116374647722423 0 1 0
1868 490 2 -3.0541174306782164 -8.303529346618793 -2.973626334737308 0 1 0
114 23 3 -6.031274231742437 -7.000200541961558 -1.684114404976218 0 0 0
1128 243 4 -7.547622667753308 -5.98922035494701 -2.7695882611918683 0 0 0
1127 243 2 -7.223854856214827 -5.8610365691024775 -2.7343275003078937 0 0 0
1129 243 4 -6.900087044676346 -5.732852783257945 -2.699066739423919 0 0 0
1335 312 4 -6.49196362767036 -5.652385334178243 -2.759456384618945 0 0 0
1334 312 2 -6.169487288756593 -5.516418057806316 -2.7547755089807557 0 0 0
1336 312 4 -5.847010949842826 -5.380450781434389 -2.7500946333425667 0 0 0
83 17 3 -5.59501227516361 -5.143952593547206 -2.5559161447216985 0 0 0
81 17 1 -5.3952363210113194 -4.983643524176719 -2.169017488197759 0 0 0
84 17 3 -5.2225157956645125 -5.336450698183339 -1.922046400632222 0 0 0
85 17 3 -5.7001085878976285 -4.754383827087209 -1.9202346668978312 0 0 0
1195 265 4 -5.958733754791138 -4.946435628780912 -1.695891009349996 0 0 0
2329 643 4 -10.747617510004797 -4.462378123999556 -2.542321400960424 1 0 0
1909 503 4 -8.435416177474337 -4.4648547309093605 -2.0407292109609356 0 0 0
1907 503 2 -8.430707396789524 -4.193249481386963 -1.8200293790253934 0 0 0
1908 503 4 -8.42599861610471 -3.921644231864565 -1.5993295470898512 0 0 0
82 17 3 -5.051350625444584 -4.701119266489152 -2.285304513280494 0 0 0
1006 202 4 -4.7998062027690125 -4.575695750625301 -2.611889978733893 0 0 0
1004 202 2 -4.57439355142923 -4.510705492227008 -2.871631009241739 0 0 0
1902 501 4 -5.357170235428975 -1.7171300200569435 -2.610090143129 0 0 0
52 11 3 -5.166633121808817 -1.8155099992469974 -2.963196527159988 0 0 0
2376 659 4 -0.08591849468929666 -1.6636700155816224 -2.301919399113018 0 0 0
1903 501 4 -5.380084252982457 -1.0738614629322747 -2.3349892321633208 0 0 0
1901 501 2 -5.368627244205716 -1.3954957414946092 -2.4725396876461603 0 0 0
2399 667 2 -0.5745645597938523 -0.20320574668523944 -2.4312343652912958 0 0 0
2401 667 4 -0.5673550962627992 -0.4976085156572249 -2.620377256400474 0 0 0
137 28 3 -10.525811112325819 -9.991081575049446 -0.1840200477597536 0 0 0
136 28 1 -10.569505052535124 -9.714851841442353 -0.5492432313889611 0 0 0
139 28 3 -10.400929582508194 -9.932354395097226 -0.9228405414150351 0 0 0
138 28 3 -10.330469690452503 -9.324780335161877 -0.47174280776418154 0 0 0
1566 389 4 -3.181033372607862 -9.499871184001552 -0.37175446447055505 0 0 0
1565 389 2 -3.468392705419045 -9.506426287729541 -0.17205057251665612 0 0 0
1053 218 4 -10.769224889521338 -1.3535292600870135 -7.313451583116272 0 0 0
1093 231 4 -2.991754133836466 -9.418712324043108 -0.7200204458859885 0 0 0
1092 231 4 -2.5862293068990025 -9.360347480980044 -1.2875970132597185 0 0 0
1091 231 2 -2.788991720367734 -9.389529902511576 -1.0038087295728535 0 0 0
133 27 3 -0.05713285840420246 -9.420328256346234 -1.208069396992982 0 0 0
1160 254 2 -0.4497860831504631 -8.628182750768278 -0.13323811166954821 0 0 0
135 27 3 -0.10831708755827435 -8.999669581242163 -0.5857138284107328 0 0 0
1162 254 4 -0.18777867515721264 -8.684381932295375 -0.35839088236603167 0 0 0
1547 383 2 -6.9189217078573915 -6.642312684303888 -0.8074340652772184 0 0 0
1548 383 4 -6.771237505312381 -6.948692531839726 -0.8900219901960609 0 0 0
113 23 3 -6.409201741642026 -6.983024575444125 -1.0249666344157853 0 0 0
1549 383 4 -7.0666059104024015 -6.335932836768049 -0.7248461403583759 0 0 0
115 23 3 -6.009313552573107 -7.591081766485445 -1.2179844798747697 0 0 0
112 23 3 -5.658027516244563 -6.959105822339654 -1.033039821392466 0 0 0
111 23 1 -6.0281545728170665 -7.1366235978760795 -1.2406293234425245 0 0 0
1136 246 2 -7.788764605341329 -4.849876753800739 -0.37458664498168026 0 0 0
59 12 3 -7.2171134099115015 -5.586030767343244 -1.3038271486439947 0 0 0
56 12 1 -7.019977404685338 -5.538463317716653 -0.8864846835394542 0 0 0
57 12 3 -7.269520116161029 -5.243440967876365 -0.636904539609458 0 0 0
58 12 3 -7.009670067713437 -5.947980290777651 -0.6685635795142837 0 0 0
1138 246 4 -7.6076089904413955 -5.138419169140857 -0.45474846719100004 0 0 0
60 12 3 -6.596975728210767 -5.376003136942201 -0.9320508043144025 0 0 0
1194 265 4 -6.407804619408425 -5.093722642583079 -1.1795172163308472 0 0 0
1193 265 2 -6.183269187099781 -5.020079135681995 -1.4377041128404215 0 0 0
1244 282 2 -8.334862860509057 -3.4865030757408717 -1.0099068120658483 0 0 0
67 14 3 -8.119251738406241 -3.511550055486107 -0.32674081016155404 0 0 0
70 14 3 -7.8299210800559464 -4.1902654760312235 -0.21434353238084558 0 0 0
1246 282 4 -8.253247573029645 -3.3867711585539326 -0.6844955499007057 0 0 0
1245 282 4 -8.41647814798847 -3.5862349929278112 -1.3353180742309911 0 0 0
66 14 1 -8.055871799655922 -3.8468809566511966 -0.018299292061790227 0 0 0
1184 262 2 -4.053018118858829 -3.3630745656979064 -0.027494237114256415 0 0 0
1580 394 2 -2.4263250995868653 -6.83695200682787 -10.783895894964747 0 0 1
1114 238 4 -10.663495791189861 -10.637991469787442 0.6587689028957024 0 0 0
1112 238 2 -10.6732309265018 -10.44504239723063 0.3669198279615809 0 0 0
1113 238 4 -10.682966061813739 -10.252093324673817 0.07507075302745936 0 0 0
1588 396 4 -5.402624028319694 -9.432184866802348 1.4546818278032174 0 0 0
1586 396 2 -5.424401362768898 -9.741966146708004 1.616116973680489 0 0 0
1536 379 4 -6.489407889069961 -8.463998950873787 0.4043299890484861 0 0 0
1535 379 2 -6.152205129500766 -8.415720395565739 0.4847257603074857 0 0 0
1537 379 4 -5.815002369931572 -8.36744184025769 0.5651215315664851 0 0 0
1501 367 4 -5.461941557616524 -8.289953567826956 0.7461426997131648 0 0 0