LAMMPS data file via write_data, version 29 Aug 2024, timestep = 500000, units = lj

24 atoms
4 atom types
18 bonds
1 bond types

-1.55636 1.55636 xlo xhi
-1.55636 1.55636 ylo yhi
-1.55636 1.55636 zlo zhi

Masses

1 1
2 1
3 1
4 1

Bond Coeffs # zero

1 0

Atoms # bond

19 5 2 -1.1791897396059188 -0.8812335340205425 -0.5629966726827501 1 -1 1
20 5 4 -1.3003149681208874 -1.2678813543624354 -0.8559679034241748 1 -1 1
21 5 4 -1.0580645110909503 -0.49458571367864934 -0.27002544194132533 1 -1 1
14 3 3 -0.7144240240934414 -0.5603427092393959 -0.08333718223296296 0 -1 0
11 3 1 -0.26922721736498195 -0.4487669240601585 -0.15153283781659024 0 -1 0
12 3 3 -0.13072308136634223 -0.6277654824640397 -0.5520027123398348 0 -1 0
4 1 3 -0.4173172268237453 -1.2394068339562505 -1.2004887786323617 0 0 0
1 1 1 -0.773566481376822 -1.4188161383057563 -1.4375515765217344 0 0 0
5 1 3 -1.1657020604568658 -1.3166409394682062 -1.2297297384921317 0 0 0
15 3 3 -0.01329583819888025 -0.6180898258458553 0.18496216079270203 0 -1 0
2 1 3 -0.7754939021459345 -1.2397257099622956 1.2514669914239593 0 0 -1
3 1 3 -0.7266605880240461 1.2333879154251481 -1.4695656421896806 0 -1 0
13 3 3 -0.2224571935634874 0.012534211018886021 -0.16924801911552656 0 -1 0
22 6 2 -0.411871230067753 0.6113344746387005 0.31450807676339687 1 -1 0
17 4 4 -0.07066901645408162 1.2525712401706848 0.7403962633367356 0 -1 0
24 6 4 -0.45576815268138754 0.1608025524489144 0.10215448655847292 1 -1 0
23 6 4 -0.36797430745411863 1.0618663968284865 0.5268616669683208 1 -1 0
10 2 3 0.6752976627248479 -0.2945279605544742 -1.2957628687746625 1 -1 0
9 2 3 0.5613290252221153 -0.3627065599834745 -0.5546401878065322 1 -1 0
6 2 1 0.5803821444445292 -0.06780772592167905 -0.9123714505119086 1 -1 0
16 4 2 0.004578976791686577 -1.4296938954889613 0.49740171755790197 0 0 0
18 4 4 0.07982697003745476 -0.9992390311486075 0.2544071717790683 0 0 0
8 2 3 0.9048256838790141 0.25468818445843217 -0.8347004938600169 1 -1 0
7 2 3 0.17208919050666194 0.13952290891891006 -0.9560849681144024 1 -1 0

Velocities

19 0.06476694292290097 0.28648877260836053 -0.03379365723414621
20 0.0567312614932913 0.22206245977863076 0.05455500796485991
21 0.07280262435251064 0.3509150854380903 -0.12214232243315237
14 -0.1093959348638204 0.05654698113063966 0.0492115037783119
11 -0.08737059637095428 -0.06412217684861854 -0.0044304130418853106
12 -0.16448921605691633 -0.15998571518133964 0.011746053124896001
4 -0.15744882835904495 0.2545576125203556 -0.12443611347328995
1 -0.1001401871691086 0.14275139949251095 -0.12594240549913943
5 -0.14501292220576772 0.17215545661723441 -0.2250684719278302
15 -0.10170084895208963 -0.07571578946389196 0.0006350327559296823
2 -0.046387060840176825 0.004748311715321002 -0.18451817399370332
3 -0.049907471473216176 0.13690686975338207 0.03172921299880757
13 0.025345207041954268 -0.07842158170243725 -0.07920305348190108
22 0.07212111785191319 -0.03588439489863232 0.0182586272234029
17 -0.16737814114861788 0.06269898824012217 -0.0850694634352811
24 0.10853309277574402 -0.06383040152563738 0.07002226553601383
23 0.03570914292808235 -0.007938388271627288 -0.03350501108920802
10 0.061287971719704404 -0.03144912369174463 0.11352949148477356
9 -0.08928098513466613 -0.015883401464472723 0.09180719079723548
6 -0.01789971579570199 -0.02357475373426989 0.08926859527474369
16 -0.05470012477215633 0.055487338592467794 -0.06295166269508248
18 0.05797789160430522 0.04827568894481342 -0.04083386195488387
8 -0.03531102579254659 -0.020278630506430667 0.1483125542803465
7 -0.01002492482388291 -0.02654680590883189 0.001620212307732613

Bonds

1 1 19 20
2 1 19 21
3 1 11 12
4 1 11 13
5 1 11 14
6 1 11 15
7 1 1 2
8 1 1 3
9 1 1 4
10 1 1 5
11 1 22 23
12 1 22 24
13 1 6 7
14 1 6 8
15 1 6 9
16 1 6 10
17 1 16 17
18 1 16 18
