LAMMPS data file via write_data, version 19 Nov 2024, timestep = 1500000, units = lj

40 atoms
4 atom types
30 bonds
1 bond types
35 angles
2 angle types

-6 6 xlo xhi
-6 6 ylo yhi
-6 6 zlo zhi

Masses

1 1
2 1
3 1
4 1

Bond Coeffs # harmonic/omp

1 100 0.45

Angle Coeffs # harmonic/omp

1 100 180
2 100 109.471

Atoms # full

40 10 4 0 -5.234590422834899 -0.3429051090732119 0.9435176754660437 0 0 0
38 10 2 0 -5.465769135702551 -0.5190296198351018 1.2891016908776274 0 0 0
34 8 4 0 4.338335415117203 -3.2770844305786917 2.381940764027061 0 0 0
32 8 2 0 4.705152685090382 -3.413656928965935 2.6442444613924323 0 0 0
33 8 4 0 5.045989021403535 -3.529467606328151 2.88065884196582 0 0 0
39 10 4 0 -5.697450470747238 -0.6911615124248663 1.6264379622300964 0 0 0
10 2 3 0 0.44726730321606023 -0.20963466082303062 4.642449297982895 0 0 0
3 1 3 0 4.428026159824776 2.2970404072714965 -3.1469156650132977 0 0 0
5 1 3 0 5.009449352222179 2.1444230559642237 -3.593675037515187 0 0 0
1 1 1 0 4.864569068606171 2.2014605635811266 -3.1492798286997243 0 0 0
12 3 3 0 4.437085965151039 4.165821757325688 -3.587055058084996 0 0 0
11 3 1 0 4.852907910998514 4.149513760855662 -3.402106073274085 0 0 0
13 3 3 0 5.147014340877158 3.901468602901301 -3.6778468782753495 0 0 0
14 3 3 0 5.01769467904238 4.561964832190685 -3.3531091405822924 0 0 0
31 7 4 0 5.355845315302589 1.2690451923038824 -2.0570885355123005 0 0 0
29 7 2 0 5.2685625766956745 1.612035415311488 -2.3315576705955583 0 0 0
2 1 3 0 4.934135608235606 1.8145413928782024 -2.896913815550778 0 0 0
30 7 4 0 5.180471333117378 1.9631785443887257 -2.6323914935574226 0 0 0
28 6 4 0 5.271273547616531 2.355252926425761 -2.6433342620172873 0 0 0
4 1 3 0 5.102583231310665 2.548883400952543 -2.9618463570151663 0 0 0
26 6 2 0 5.425844434398144 2.7006922727180642 -2.3550250512943993 0 0 0
27 6 4 0 5.571738030325327 3.048493641023106 -2.0829811888716376 0 0 0
15 3 3 0 4.820871754330316 3.950020055496481 -3.0019437302414014 0 0 0
9 2 3 0 0.2958209803649727 0.5176263024124371 4.589931545447655 0 0 0
7 2 3 0 0.783116430549105 0.29503965466729726 5.096037522004191 0 0 0
6 2 1 0 0.3937830577300244 0.18819467330051737 4.870706943483079 0 0 0
8 2 3 0 0.06454354218452328 0.15589880242825488 5.168398057015189 0 0 0
20 4 3 0 4.343076190553065 3.4803653956711296 5.613623744306899 0 0 0
19 4 3 0 4.943189234708236 3.316602773704325 5.999484379529259 0 0 0
18 4 3 0 4.97088040447083 3.329519507482258 5.303739512261793 0 0 0
16 4 1 0 4.799391498215059 3.516454430340936 5.643777529981898 0 0 0
17 4 3 0 4.913929959359673 3.932271764735786 5.6495726204570875 0 0 0
37 9 4 0 5.068344964568408 4.3093960945880605 5.672529593197888 0 0 0
36 9 4 0 4.623592598177219 5.117812229478776 5.687594114671773 0 0 0
24 5 3 0 3.666429239187979 5.334843159423371 5.186915922610915 0 0 0
21 5 1 0 3.788095556827668 5.163395002376749 5.56204781614422 0 0 0
22 5 3 0 3.591355175891372 5.374184729064621 5.892438903382612 0 0 0
25 5 3 0 4.233052346832308 5.20498307656791 5.598987220219096 0 0 0
23 5 3 0 3.6722722071007374 4.722384815379786 5.586060596188021 0 0 0
35 9 2 0 4.840448646509573 4.725531135967918 5.683158823227487 0 0 0

Velocities

40 0.0939996994163763 -0.17652025390172 0.11843995465673557
38 -0.025521672759455848 -0.27903840085316056 0.22917164773837848
34 0.19483980962075637 -0.27502122533358697 -0.1568515936888859
32 -0.13354337027622037 -0.13708857031787344 0.20613308237035394
33 0.012199500709682617 -0.13340036981242206 0.03053949395416072
39 -0.0047838401362920585 0.0719334055614596 -0.3703830183366148
10 0.21418985618154684 -0.0021152375834125967 0.2975799497693424
3 -0.012174475619689505 -0.2460879605623343 -0.2033979703026194
5 0.09495349328528177 0.13494136288562136 -0.017000247879242338
1 -0.2534696285591524 -0.6172308634177504 -0.17505791849292396
12 -0.04175904000234481 0.45386251743953687 -0.19481157389125034
11 -0.10634900890781068 -0.32850950738170714 -0.3616453359861214
13 -0.4557656547292628 0.10683430606855202 -0.32590816813678786
14 0.1616138217489817 -0.24620424748635245 -0.2284685528378384
31 -0.21371754471871263 -0.018007696444710546 0.14184542776286
29 -0.01150608020034151 0.4356042319186328 0.49637721647713845
2 0.13755905393222018 -0.160914982667738 0.12507100865150264
30 -0.2974459992131994 0.21798187571722435 0.30647991444980144
28 -0.4510953796149033 -0.02264814859295903 -0.08757955687887181
4 0.2274391038640954 0.13070183960277623 0.09127273482440046
26 -0.1048537629011009 0.024642648059275914 0.05784744875237024
27 0.039585505534915987 0.24632394157455062 -0.16704145502613849
15 0.20249340393035287 -0.24312722396163974 0.1746437378161238
9 -0.32198094537009586 0.09036970668026821 0.040922795601532794
7 -0.004784364652098045 -0.3062318571996843 -0.3460379782315541
6 -0.04702205053261743 -0.2495376392129098 0.1321377577991533
8 -0.13141170679402298 -0.07860442818190687 -0.08426508740711704
20 -0.09246840731420967 0.18987226590638626 -0.2253764999550972
19 0.14589406132713173 0.037539754038928314 0.2743048853338207
18 -0.23104480746087683 0.22588990418415447 -0.22763864445037824
16 -0.18293065979467782 -0.39588327102202475 -0.12965808193332679
17 0.17094959162653478 0.05306344891377345 -0.36319813197586975
37 0.2369664107071403 -0.730266977255171 0.40534061187836423
36 0.2871348101886416 0.40108274557044865 0.19999922999713082
24 0.07301569094096179 0.10983437436221999 0.2028815260605929
21 0.40729027410611307 -0.05377949968559882 -0.16120789131576946
22 0.009450325657871506 0.2946059799833287 0.07961748195385024
25 -0.09356300653389106 -0.024315324791782677 -0.23613727126643505
23 -0.05975325722050234 -0.2947471047266615 -0.0604475609202605
35 0.07777540125943991 0.22119749915061773 -0.26279377452492875

Bonds

1 1 38 39
2 1 38 40
3 1 32 33
4 1 32 34
5 1 1 2
6 1 1 3
7 1 1 4
8 1 1 5
9 1 11 12
10 1 11 13
11 1 11 14
12 1 11 15
13 1 29 30
14 1 29 31
15 1 26 27
16 1 26 28
17 1 6 7
18 1 6 8
19 1 6 9
20 1 6 10
21 1 16 17
22 1 16 18
23 1 16 19
24 1 16 20
25 1 21 22
26 1 21 23
27 1 21 24
28 1 21 25
29 1 35 36
30 1 35 37

Angles

1 1 39 38 40
2 1 33 32 34
3 2 2 1 3
4 2 2 1 4
5 2 2 1 5
6 2 3 1 4
7 2 3 1 5
8 2 4 1 5
9 2 12 11 13
10 2 12 11 14
11 2 12 11 15
12 2 13 11 14
13 2 13 11 15
14 2 14 11 15
15 1 30 29 31
16 1 27 26 28
17 2 7 6 8
18 2 7 6 9
19 2 7 6 10
20 2 8 6 9
21 2 8 6 10
22 2 9 6 10
23 2 17 16 18
24 2 17 16 19
25 2 17 16 20
26 2 18 16 19
27 2 18 16 20
28 2 19 16 20
29 2 22 21 23
30 2 22 21 24
31 2 22 21 25
32 2 23 21 24
33 2 23 21 25
34 2 24 21 25
35 1 36 35 37
