LAMMPS data file via write_data, version 19 Nov 2024, timestep = 1000000, units = lj

79 atoms
4 atom types
54 bonds
1 bond types
35 angles
2 angle types

-3.045986 3.045986 xlo xhi
-3.045986 3.045986 ylo yhi
-3.045986 3.045986 zlo zhi

Masses

1 1
2 1
3 0.1
4 0.1

Bond Coeffs # harmonic/omp

1 100 0.45

Angle Coeffs # harmonic/omp

1 100 180
2 100 109.471

Atoms # full

63 20 4 0 -2.6520058481214575 -2.8701548814319584 -0.20786022249677774 1 1 0
40 12 4 0 -1.5457524631446615 -0.9515293345375984 -0.46838152764178087 1 0 0
38 12 2 0 -1.7634704126995253 -0.9504124297564351 -0.08200846543398214 1 0 0
19 5 4 0 -0.3338665828554062 -0.8778777027158877 -0.44167595688099714 0 0 0
65 21 2 0 -0.9238271362983055 -0.9262682503084718 -0.7973596334163119 1 0 0
67 21 4 0 -0.47199263654641305 -1.024337996312055 -0.7978256235901784 1 0 0
66 21 4 0 -1.3883477485491338 -0.8314236295996466 -0.804440689545175 1 0 0
62 20 2 0 -2.682928320148126 -2.4735708253264925 -0.0014287081059974386 1 1 0
5 1 3 0 -2.4146564815719453 -1.3473164627796688 0.9644155700921472 0 0 0
46 14 4 0 -1.7657962069052404 -2.2093048630844807 1.3723053313695417 0 1 1
10 2 3 0 -0.3941329152987521 -0.11423509265089371 2.0336077652833446 1 0 0
44 14 2 0 -2.0295087715482985 -1.8158620694021492 1.3326541852424192 0 1 1
45 14 4 0 -2.2635453156121907 -1.4637515724530972 1.3010715624262599 0 1 1
13 3 4 0 -0.4608533387271119 -2.0799190640013765 0.7739896342086622 0 0 0
32 10 2 0 -1.040001776239614 -2.3877961506701717 1.0886183478847793 0 1 0
34 10 4 0 -0.6261932164976328 -2.404366702355447 0.8560845840242861 0 1 0
11 3 2 0 -0.03500029577061303 -1.9242575136054363 0.6863205047635914 0 0 0
1 1 1 0 -2.610932868877601 -1.3039927205443178 0.5294607394201161 0 0 0
3 1 3 0 -2.3058987253441328 -1.1696187608915734 0.24409554049374194 0 0 0
33 10 4 0 -1.420227726253579 -2.3787635274335086 1.2980005446919958 0 1 0
75 24 4 0 -0.11320712330014703 -0.356183115144156 2.204206155142492 1 0 0
2 1 3 0 -2.7852861139115954 -1.7193982782417292 0.3992433336890659 0 0 0
64 20 4 0 -2.7100684148672163 -2.0644224339914397 0.2244799319342076 1 1 0
4 1 3 0 -2.9506698312220587 -0.9925777032861944 0.534523385912979 0 0 0
39 12 4 0 -1.989686483928658 -0.9428552681311272 0.3090181422509404 1 0 0
15 4 4 0 -2.699460496615104 2.9146726168294417 -0.41603513883674353 0 -1 0
14 4 2 0 -3.045592667966979 2.633675239544412 -0.31181160113488043 0 -1 0
7 2 3 0 -0.7744231214891458 0.12082938479071158 1.4470960374670043 1 0 0
52 16 4 0 -0.26170887633392237 2.934110398692707 1.4718369685343797 0 0 0
8 2 3 0 -0.03015280472803208 0.31021715634702296 1.533139020151993 1 0 0
6 2 1 0 -0.4385505278060131 0.21967164253308183 1.7625656729754235 1 0 0
22 6 4 0 -0.771490614644395 0.833638283636373 2.2396919876113617 0 0 -1
9 2 3 0 -0.5714033221472372 0.5915193638655915 1.9937333694643147 1 0 0
20 6 2 0 -0.8077252381985577 1.2663445028810683 2.2038480227194284 0 0 -1
60 19 4 0 -0.5821100709515351 2.0271907715421924 2.2936891362200615 0 0 0
21 6 4 0 -0.821127334572567 1.715797937923506 2.165625066772517 0 0 -1
59 19 2 0 -0.501165003294698 2.363931660122964 2.0070709187354256 0 0 0
61 19 4 0 -0.4297339349252764 2.6911698835163875 1.7324427724384688 0 0 0
28 8 4 0 1.9509688485784806 -1.7099281100071446 -3.0184502961802884 -1 0 1
57 18 4 0 1.6663929085447622 -1.1304220214695897 -2.0948166925762157 -1 0 1
26 8 2 0 1.7132724276084161 -1.4567713904279 -2.712811389625001 -1 0 1
27 8 4 0 1.4840228652306704 -1.2114525486433483 -2.4258849008570604 -1 0 1
56 18 2 0 1.7966958370730588 -1.0333548739912743 -1.690420783428191 -1 0 1
17 5 2 0 0.07582937060312236 -0.6961481344297186 -0.43270199066302184 0 0 0
41 13 2 0 1.8018295867255332 -1.3010642223964222 -0.50141363375143 -1 1 0
42 13 4 0 1.7997475391802953 -1.0255871926225917 -0.8907223163307743 -1 1 0
58 18 4 0 1.919113281895303 -0.935886022137077 -1.2760549409881219 -1 0 1
43 13 4 0 1.7956723149981266 -1.5585187213226135 -0.11644333171722324 -1 1 0
18 5 4 0 0.47084126364822704 -0.516620265873031 -0.4235325682720279 0 0 0
77 25 2 0 1.1040823131428992 -1.582912204983371 0.7135724309506984 0 1 0
79 25 4 0 0.6700977762393533 -1.6806124081522844 0.8508905768381048 0 1 0
12 3 4 0 0.36859178116649305 -1.7783038696247646 0.5979689824212917 0 0 0
78 25 4 0 1.5173901038072055 -1.490662420859697 0.5879104213835357 0 1 0
49 15 4 0 0.8953050311875709 -2.948628243353286 1.4098523667768563 0 1 0
37 11 4 0 1.8248982483279832 -2.044591917982436 2.8950151753584534 0 1 0
54 17 4 0 1.931752056393672 -1.3815874002307675 0.5642451291298216 0 0 0
48 15 4 0 1.42151227419492 -2.806135545239106 2.115571529305885 0 1 0
76 24 4 0 0.46099209175358735 -0.09002939965529584 2.856224013112914 1 0 0
53 17 2 0 2.3321553496597613 -1.2925535559398085 0.5380256604206148 0 0 0
55 17 4 0 2.798181026045022 -1.2008261860214595 0.5200840202969171 0 0 0
36 11 4 0 1.6434641696821672 -2.4660857756893706 2.147690631386084 0 1 0
47 15 2 0 1.1641158413683022 -2.872294895478099 1.7568900341528542 0 1 0
35 11 2 0 1.7321559403594255 -2.263731836466117 2.5179024453836414 0 1 0
51 16 4 0 0.55509131745622 -2.9884649239512235 1.169209158452453 0 1 0
74 24 2 0 0.18391032835539356 -0.21650207969044188 2.5407267391265345 1 0 0
73 23 4 0 0.836061877970048 -0.03470155479740839 2.99417329053032 1 0 0
71 23 2 0 1.0575884218447498 0.31893317931389015 -2.9740685934395064 1 0 1
72 23 4 0 1.2830626681756796 0.6923451117745227 -2.8481800575236287 1 0 1
16 4 4 0 2.7072953647392777 2.3711280261058167 -0.2115610317288867 -1 -1 0
30 9 4 0 1.1113595280181852 0.9859647589014665 0.6242854515991015 0 0 1
23 7 2 0 0.5554226089952076 0.6250799313474396 1.0886584313438787 0 0 1
24 7 4 0 0.9345269693672611 0.6787088023946062 0.8533014596848583 0 0 1
25 7 4 0 0.19040109241952413 0.5598168692498305 1.3082706527829264 0 0 1
50 16 2 0 0.12913717272276262 3.010256004052516 1.3243383022580757 0 0 0
29 9 2 0 1.3738391596441464 1.3073293075539218 0.7305954831582747 0 0 1
31 9 4 0 1.6478249805003022 1.6527472417792453 0.8480387728869405 0 0 1
69 22 4 0 2.6676939394327217 2.1208944158856835 0.09353563705834327 0 0 0
70 22 4 0 1.9305098845400623 1.8055313817368361 0.5849310291467 0 0 0
68 22 2 0 2.308742111943716 1.9703292836982853 0.3403341235385292 0 0 0

Velocities

63 0.30770329319147316 -0.08443131902873867 -0.4626004510426531
40 -0.16964106322057415 -0.9874770699864949 -0.05832502871031223
38 -0.3276213886645404 -0.4482228611101676 0.07414409438078746
19 -1.3790858332200195 -0.7539600712282961 0.21448883817787012
65 0.043765575755120856 -0.11142428206649255 -0.3364768761478343
67 1.3727684782170695 0.03800960770871439 0.14016186035339992
66 0.8727129608079823 0.6272042444643975 -1.04419496997565
62 0.6182154287095394 -0.07129692905140764 -0.1575498138111426
5 0.5038320715822239 -0.5351145533101644 -6.171964324400148e-05
46 0.6586118106806963 0.06160920414585794 -0.18561912095459301
10 -0.45699379140920887 -0.40608691479918424 -0.32702876104624967
44 0.028607467094809255 -0.03874617860212999 -0.27539549008260283
45 -1.0327235215937478 -0.27270937605278933 -0.3266271366561225
13 -0.5115490424405236 0.3356408414132338 -0.8191457978263502
32 0.1968136831669304 0.2950191998182399 -0.011344306945783764
34 1.0259507992889967 -0.04846390810430529 0.32894818625991595
11 0.049836423742955153 0.09794782888060448 -0.11130252060013435
1 -0.0870400912075574 -0.13595088271359654 0.11994354085052558
3 -1.3983608456061911 -0.8439589441918665 -0.08181486907241192
33 0.8007692795809527 -0.6451544783624533 0.435336658205166
75 0.1184182289785814 -0.6605334397359299 0.9061293457260436
2 0.6732171037115335 0.0006027345799493461 -0.39671413482282797
64 -0.30585667240166153 0.6065280618040385 0.30811587850818956
4 -0.1356377792703032 0.8127184894356574 -0.9484544534209316
39 0.623623107065137 0.940467512335886 0.2294616618807456
15 -0.0120664532174766 0.020834095347344372 -0.07576252183200026
14 -0.31643553415230097 0.10007767758037521 0.021041020902900637
7 0.3562593086296419 0.4951832092444787 -0.1298706646139328
52 -0.8941040366347283 0.8044930539978256 -1.0594343742937171
8 -1.2330978413658555 -0.3266060318799162 1.3625854821215908
6 0.059357524566844566 -0.05035872447002599 -0.16254546431286523
22 -0.8922496188691129 0.959305327422779 0.20512342258126248
9 -2.149281493261436 0.3647237232535552 0.2747396449423389
20 -0.1738761741648724 0.12720115897892745 -0.3810227302719041
60 0.7540216632455211 0.5566945841063223 -0.550881498556873
21 -0.17327092346174078 -0.5832005470454675 0.601241751286132
59 -0.09092143706478688 -0.028986910195910823 0.17480160059869831
61 0.4871397570930796 -1.479269265078463 -0.4368553707777112
28 -0.0797007951977083 -0.9987560760780618 0.7448053353225398
57 0.518200549384606 -1.737218177958537 -0.5212926074782357
26 -0.23454126127741542 -0.16719133222051066 0.30478755775556093
27 -0.6655683224322297 0.42861661026222375 1.6276019259114738
56 -0.18422828863555582 0.011184811262874583 -0.016013951703261597
17 0.34564115733181244 0.14053550674022344 0.11825369238768299
41 0.2945260241761193 0.2786066830576211 0.21857808506526935
42 -0.8161631352756452 0.9336897367166827 -0.3503796538466651
58 -0.34886315765042214 -0.012155436804035559 -0.9798017781404211
43 0.3180175266403083 -0.046413448013615785 -1.068120793766211
18 -0.20893001874019385 1.1275617091671277 0.7130538066011625
77 0.11775556681697927 0.25601122637477963 -0.06245598962978207
79 -0.03290161839601629 -0.0707387320722287 -0.03898237360403914
12 -0.9160218467663321 0.35092085219022834 -0.7485953388066566
78 -0.450805250141038 -0.23968406143644042 0.7654274183267976
49 -0.6705862248951596 -0.5600934312461365 -0.49872281291445614
37 1.0791182423878405 -0.06082860394429463 -1.1807187438736055
54 0.7348852954183787 0.4979839071057814 0.6027224353419777
48 -0.08358313933316489 0.019253921132319912 0.028236434828619185
76 -0.0925251758521684 -0.05148446266977884 -0.6071458556962009
53 -0.08839505826207306 0.2967352028266005 -0.027623066795499546
55 0.3078162482078328 -0.0088392831545053 -0.11322904753972698
36 -0.10655224079755515 0.1956573076554397 0.5892035098557175
47 -0.17910676044925058 -0.1973342211426938 -0.153544268702644
35 -0.09333436282936991 -0.03904020061577459 0.006763933921565912
51 0.08481100397957841 0.17373127488807433 -0.3571506843959667
74 -0.14446320166885804 -0.25627746843045357 0.21864638831079983
73 0.6557463041641314 0.5903297722993451 -1.0300577514599303
71 0.044673109551430015 0.39727597539452325 -0.10537796183510881
72 -0.6674889091063537 0.9325375141503323 -0.5486890403810792
16 0.17803648078962664 1.2723242484386492 0.19975224423268256
30 -0.13158860121136817 -0.4449199064155818 -0.06552839738769434
23 -0.11500854315680814 0.2987388546472992 0.07717407625962856
24 -0.5880065185333271 1.0292319921761794 -0.29284135934820943
25 1.2939243461169865 0.23214926718680187 -0.26392671769553594
50 -0.0063680781187571405 0.049116685348092104 0.2529441424659543
29 -0.18115209360244286 0.02872729832022792 0.05183295054866658
31 -0.7039658074346528 -1.0381553881169254 1.0091148786454542
69 0.3645966281523845 -0.0042898306024592376 -1.0201996863745724
70 -1.0892027742055506 -1.2611961070971298 0.40294456250351535
68 0.07357667240672067 0.4608821748966692 0.10650183029278164

Bonds

1 1 38 39
2 1 38 40
3 1 65 66
4 1 65 67
5 1 62 63
6 1 62 64
7 1 44 45
8 1 44 46
9 1 32 33
10 1 32 34
11 1 11 12
12 1 11 13
13 1 1 2
14 1 1 3
15 1 1 4
16 1 1 5
17 1 14 15
18 1 14 16
19 1 6 7
20 1 6 8
21 1 6 9
22 1 6 10
23 1 20 21
24 1 20 22
25 1 59 60
26 1 59 61
27 1 26 27
28 1 26 28
29 1 56 57
30 1 56 58
31 1 17 18
32 1 17 19
33 1 41 42
34 1 41 43
35 1 77 78
36 1 77 79
37 1 53 54
38 1 53 55
39 1 47 48
40 1 47 49
41 1 35 36
42 1 35 37
43 1 74 75
44 1 74 76
45 1 71 72
46 1 71 73
47 1 23 24
48 1 23 25
49 1 50 51
50 1 50 52
51 1 29 30
52 1 29 31
53 1 68 69
54 1 68 70

Angles

1 1 39 38 40
2 1 66 65 67
3 1 63 62 64
4 1 45 44 46
5 1 33 32 34
6 1 12 11 13
7 2 2 1 3
8 2 2 1 4
9 2 2 1 5
10 2 3 1 4
11 2 3 1 5
12 2 4 1 5
13 1 15 14 16
14 2 7 6 8
15 2 7 6 9
16 2 7 6 10
17 2 8 6 9
18 2 8 6 10
19 2 9 6 10
20 1 21 20 22
21 1 60 59 61
22 1 27 26 28
23 1 57 56 58
24 1 18 17 19
25 1 42 41 43
26 1 78 77 79
27 1 54 53 55
28 1 48 47 49
29 1 36 35 37
30 1 75 74 76
31 1 72 71 73
32 1 24 23 25
33 1 51 50 52
34 1 30 29 31
35 1 69 68 70
