LAMMPS data file via write_data, version 4 Feb 2025, timestep = 1500000, units = lj

64 atoms
4 atom types
48 bonds
1 bond types
56 angles
2 angle types

-2.5 2.5 xlo xhi
-2.5 2.5 ylo yhi
-2.5 2.5 zlo zhi

Masses

1 1
2 1
3 0.1
4 0.1

Bond Coeffs # harmonic/omp

1 100 0.45

Angle Coeffs # harmonic/omp

1 100 180
2 100 109.471

Atoms # full

24 5 3 0 -0.2379528094405874 0.5897908698884553 -1.3089161672879002 0 0 2
57 14 4 0 -0.6505076077525263 0.3475703980917344 -2.4788298495090326 0 0 2
56 14 2 0 -0.5817536889160368 0.4487683666430038 -2.0550128442275497 0 0 2
58 14 4 0 -0.5034701127516672 0.5666809048496511 -1.6404317396072154 0 0 2
22 5 3 0 -0.08747955648986316 -0.006513545383782571 -0.9331833964373273 0 0 2
21 5 1 0 -0.15084900949717017 0.42441031901151893 -0.8998818832990076 0 0 2
18 4 3 0 -2.2328191286295334 -0.3651552653914192 0.5605673836254956 2 -1 1
20 4 3 0 -2.498980375540281 0.10569588918290362 0.04039946305490272 2 -1 1
17 4 3 0 -2.39173563001298 0.3651938551837497 0.7266811237891613 2 -1 1
25 5 3 0 -0.5092801719943076 0.5088931178195386 -0.6183611655334373 0 0 2
31 7 1 0 -0.33588900835429936 -0.06797998548279782 1.9714852447741658 0 -1 0
33 7 3 0 -0.4700645763031934 -0.4409008455650958 1.7370515246423501 0 -1 0
35 7 3 0 -0.6245090018595505 0.007647046614647213 2.3093277925004134 0 -1 0
32 7 3 0 -0.3261956294421906 0.2999421073577886 1.6963941841766186 0 -1 0
38 8 3 0 2.0130181433077725 -2.4255329450822183 -1.414574461490195 0 0 3
40 8 3 0 1.3983071777465064 -2.038816002751733 -1.1992456601613835 0 0 3
37 8 3 0 1.7217337295283377 -1.9192291176708018 -1.8471077185864346 0 0 3
61 15 4 0 2.0020433863947478 -1.810681810886331 -2.1557389902042248 1 0 2
36 8 1 0 1.7970292089199127 -2.019358335018983 -1.4325452180635059 0 0 3
39 8 3 0 2.06155092138002 -1.704811544747019 -1.248946180361359 0 0 3
64 16 4 0 1.1612483929542567 -1.7075115488951798 -1.073627665531238 0 0 3
44 10 2 0 0.8633107288466735 0.8646144662402211 -1.1777411442474541 0 1 1
46 10 4 0 1.2330124806751845 0.8628085748213832 -1.4122178475517768 0 1 1
45 10 4 0 0.47860595770711445 0.8637209219680644 -0.9310784353957391 0 1 1
43 9 4 0 1.568126893495771 0.7175271753036414 -2.335280119588697 0 0 1
48 11 4 0 2.1200234605107138 0.5178746718534488 -0.9689204683034258 0 1 2
12 3 3 0 2.035304180168753 0.45714386966388254 -1.3545050039417605 0 0 1
13 3 3 0 2.3062264380141233 1.110432937638124 -1.6404634298521978 0 0 1
14 3 3 0 1.8125791919901264 0.6969722736840245 -2.032739925776804 0 0 1
11 3 1 0 1.9326723037336562 0.8320607514584708 -1.6172624167075673 0 0 1
15 3 3 0 1.5888840376052968 1.0517582963488596 -1.4245667343919497 0 0 1
59 15 2 0 1.943642543598596 -1.4498886684683083 -2.4439935492598295 1 0 2
63 16 4 0 1.194262445488743 -1.624406059983493 -0.13700620663552776 0 0 3
62 16 2 0 1.1745090138439225 -1.6644940518327873 -0.6189648928429092 0 0 3
9 2 3 0 2.0457872403885933 -1.4522168843876129 0.587639136674365 0 1 0
8 2 3 0 1.7406033631858158 -2.099641591057161 0.39221195111202034 0 1 0
7 2 3 0 1.5262324377733103 -1.468785129529221 0.060360022080121034 0 1 0
6 2 1 0 1.6661528142558488 -1.6582365950645688 0.446265224536766 0 1 0
19 4 3 0 2.0629143709102298 -0.10711502652732374 0.5786240693206373 1 -1 1
49 11 4 0 2.1331168621490484 0.20651176524171166 -0.14799195002435628 0 1 2
53 13 2 0 2.355855123346222 1.0935071472203308 0.7523720056242085 0 -1 1
47 11 2 0 2.1217778674206516 0.367139169835657 -0.5646150513429826 0 1 2
55 13 4 0 2.3626278972827257 0.6569227751733706 0.5959920585896263 0 -1 1
16 4 1 0 2.479959730322286 0.002407154648265575 0.47346209353199686 1 -1 1
10 2 3 0 1.3721941702300162 -1.610903110719045 0.7403846571896198 0 1 0
23 5 3 0 0.210619634364821 0.6237983290592974 -0.7268247303526727 0 0 2
60 15 4 0 1.8830727111852656 -1.1023904279853804 2.264954423076607 1 0 1
34 7 3 0 0.051736439395582146 -0.132687992474394 2.12512517381405 0 -1 0
5 1 3 0 1.5925642778342937 1.3299686965531414 1.6739360542417359 0 0 -1
52 12 4 0 0.32314328958992933 -0.35291730220551365 2.325761802464733 -1 -1 1
50 12 2 0 0.7015060975953196 -0.2731127096108139 2.0932689492542913 -1 -1 1
42 9 4 0 1.4567574264078886 0.5065688038288418 1.7793046860423676 0 0 0
29 6 3 0 1.268402209859394 0.6437062744955684 1.4340890628114367 0 0 1
41 9 2 0 1.5095202530444833 0.6096087831180572 2.2168558427646294 0 0 0
51 12 4 0 1.0818049504151555 -0.19988459070507014 1.8615822834457703 -1 -1 1
30 6 3 0 0.9042546371633775 0.3662707452690346 0.8509093180276448 0 0 1
28 6 3 0 0.9698818605863839 -0.040122453325482255 1.5076857148381588 0 0 1
26 6 1 0 1.1859800159050309 0.2753492678680596 1.2110875031362527 0 0 1
1 1 1 0 1.6874284387096354 1.6770192423856312 1.4212583361816544 0 0 -1
3 1 3 0 1.395990949218695 1.7296817240084152 1.1183315177037771 0 0 -1
2 1 3 0 1.7008029461552825 2.0660937129013206 1.6940594992715123 0 0 -1
4 1 3 0 2.113550630972547 1.6134680025661723 1.226894112084584 0 0 -1
27 6 3 0 1.5783474724502629 0.09897479105925377 1.0656796482952666 0 0 1
54 13 4 0 2.3522634360474743 1.4973118664615246 0.896923756479933 0 -1 1

Velocities

24 0.588092294579992 0.09410979089861901 1.1712378400261372
57 -0.07950439343201615 -0.167359678814957 0.42711864928633947
56 0.11408624285686939 -0.027622231143272044 -0.4469496201971818
58 -0.5314957500394789 0.9954012560188715 -1.2150400507441912
22 0.24111487916389376 1.1249514543657304 -0.4689898442591146
21 -0.07364516894156053 0.12395249682937468 -0.17725585826628706
18 -0.5716908587108361 1.0142896496308975 0.20206866514595587
20 -0.40437833763025893 -0.6198636787208721 -0.3066063781809128
17 -1.1312619505693868 0.8663365426008945 -0.6635169377130263
25 0.6488127885742786 0.20428426116094464 -0.5357022242528301
31 -0.11846666004059359 -0.02032344897261089 0.093594956373422
33 0.3310181932831668 -0.07341317577114226 0.2901773570468367
35 -0.05104057211785849 -0.5584319902624569 0.06515869369259915
32 0.38627609764351856 0.5133148666736846 -0.3352178199807165
38 -0.4651625317303059 -0.36805775930170553 -0.23450560853623756
40 0.3000481252707822 -0.10863505423475737 0.39075842555530943
37 -0.23694726718705367 0.6014889643181367 -0.6582602381067588
61 -0.7260878918884964 0.23744457742613528 0.35682449074366857
36 -0.7807677871848778 -0.1367659844860828 -0.19497620894848888
39 -0.45253637493705207 0.2737487973252973 -0.8338609884685951
64 -0.5285648240204203 0.1895091847966202 0.6613375121077909
44 -0.1812072079782983 0.15996041628685842 0.1436045194835741
46 0.17765917638668932 -0.12933578501678306 1.6125286980926457
45 0.39534463294326583 -0.8832731771184228 -0.7349793743805052
43 -1.9791162683789187 -1.858691010635013 -0.21406115783858426
48 1.1712896032295723 -0.035547904667038804 -0.9680461080200402
12 -1.4209383041593329 1.3345446992095875 -0.2968825342248798
13 -0.10266590927932942 -0.033311162184351234 1.7145401516711773
14 0.1817023099247046 -0.07254503777079527 1.0698927180014908
11 0.15925250276252986 0.08903671067716938 0.09356174069559484
15 0.5431699876905808 0.5202138020596212 -0.24196836415842482
59 0.24690712523623942 0.48446349549781664 -0.12458368755342748
63 1.0801060850257345 0.9616756511366734 0.4518012085937633
62 -0.09253281838476159 0.229495724882343 0.23841400965870888
9 -0.16430244331157595 -0.7821773770985863 0.28825529972613173
8 1.0755279803700182 -0.9731570702560446 0.06550832664607772
7 0.2660460972277705 0.5285915761555093 -1.010095325254531
6 -0.3217975176982575 -0.14465799396596496 0.11809981853971821
19 0.47464653159262493 0.12713909518674635 0.12253990015293975
49 -0.3170128048075695 -0.674448531668675 -0.046039094516850974
53 0.31337384411326674 -0.2942898475039641 0.4757080735787225
47 -0.0943840265589269 0.12227141201060668 0.36678009946839657
55 -0.7390041199685115 -1.9839431022828513 0.18143182247188863
16 -0.04490785058759793 -0.16250981970780398 0.20713675047887067
10 0.6771212806042233 0.28355223474224434 -0.014797593579473365
23 -0.6299773912800987 0.38018415756788154 -0.09579984191546237
60 0.3215156637121831 0.35672857631225013 -0.4478225862821306
34 -0.9455110779626436 -0.7597376126131039 -0.5068595059559465
5 -0.14602048405076515 0.14020210430264318 -1.3492784645404343
52 0.7520565489636607 0.3724163395802249 -0.41923339151116124
50 -0.008652169483815876 -0.01965381334772285 -0.1975092603352109
42 0.3932684486127427 -0.024826752392221513 1.57276377075702
29 -0.556761877196477 0.3830784418386243 0.22056035363147053
41 -0.10010346406422894 0.09607480109891596 0.143238191153662
51 -0.7830889675413479 -0.41824241041335364 -0.03844926951372759
30 -0.23802833042832994 0.1749300825364274 0.12381461930261549
28 1.3028269199171212 0.25119616863966887 0.8586596234679251
26 -0.33399155357262744 -0.4715966136635113 0.279708550558899
1 -0.3691665980891837 -0.29337595960268625 0.37476026294249354
3 0.577438223756713 0.08013773121950675 1.6218978998955549
2 0.08589365360817047 1.0434968779153024 -0.30745245596595805
4 -1.0725141426747533 -0.5588634292304198 0.07089412017774671
27 -0.6294005544763547 0.1597212374377851 -0.21195345309269542
54 -0.7198364127611335 -1.2193450188176267 0.602913892948296

Bonds

1 1 56 57
2 1 56 58
3 1 21 22
4 1 21 23
5 1 21 24
6 1 21 25
7 1 31 32
8 1 31 33
9 1 31 34
10 1 31 35
11 1 36 37
12 1 36 38
13 1 36 39
14 1 36 40
15 1 44 45
16 1 44 46
17 1 11 12
18 1 11 13
19 1 11 14
20 1 11 15
21 1 59 60
22 1 59 61
23 1 62 63
24 1 62 64
25 1 6 7
26 1 6 8
27 1 6 9
28 1 6 10
29 1 53 54
30 1 53 55
31 1 47 48
32 1 47 49
33 1 16 17
34 1 16 18
35 1 16 19
36 1 16 20
37 1 50 51
38 1 50 52
39 1 41 42
40 1 41 43
41 1 26 27
42 1 26 28
43 1 26 29
44 1 26 30
45 1 1 2
46 1 1 3
47 1 1 4
48 1 1 5

Angles

1 1 57 56 58
2 2 22 21 23
3 2 22 21 24
4 2 22 21 25
5 2 23 21 24
6 2 23 21 25
7 2 24 21 25
8 2 32 31 33
9 2 32 31 34
10 2 32 31 35
11 2 33 31 34
12 2 33 31 35
13 2 34 31 35
14 2 37 36 38
15 2 37 36 39
16 2 37 36 40
17 2 38 36 39
18 2 38 36 40
19 2 39 36 40
20 1 45 44 46
21 2 12 11 13
22 2 12 11 14
23 2 12 11 15
24 2 13 11 14
25 2 13 11 15
26 2 14 11 15
27 1 60 59 61
28 1 63 62 64
29 2 7 6 8
30 2 7 6 9
31 2 7 6 10
32 2 8 6 9
33 2 8 6 10
34 2 9 6 10
35 1 54 53 55
36 1 48 47 49
37 2 17 16 18
38 2 17 16 19
39 2 17 16 20
40 2 18 16 19
41 2 18 16 20
42 2 19 16 20
43 1 51 50 52
44 1 42 41 43
45 2 27 26 28
46 2 27 26 29
47 2 27 26 30
48 2 28 26 29
49 2 28 26 30
50 2 29 26 30
51 2 2 1 3
52 2 2 1 4
53 2 2 1 5
54 2 3 1 4
55 2 3 1 5
56 2 4 1 5
