ITEM: TIMESTEP
2180000
ITEM: NUMBER OF ATOMS
4590
ITEM: BOX BOUNDS pp pp pp
-9.9985700000000008e+00 9.9985700000000008e+00
-9.9985700000000008e+00 9.9985700000000008e+00
-9.9985700000000008e+00 9.9985700000000008e+00
ITEM: ATOMS id type xs ys zs
994 2 0.214072 0.0621328 0.0198805
1327 2 0.169674 0.0930446 0.0447535
1329 4 0.194488 0.0901398 0.0457579
995 4 0.208976 0.0806107 0.0359359
996 4 0.219168 0.0436549 0.00382502
2163 4 0.275895 0.00310001 0.0757553
3835 2 0.488451 0.00772089 0.0266729
3837 4 0.49388 0.00594663 0.0510153
2468 4 0.505584 0.995182 0.0624528
1328 4 0.14486 0.0959495 0.0437492
18 3 0.128237 0.15496 0.0536945
237 4 0.244062 0.102547 0.0709948
461 4 0.234621 0.0916509 0.0851147
1254 4 0.248198 0.125371 0.00825306
235 2 0.255162 0.106512 0.0489436
236 4 0.266261 0.110478 0.0268923
746 4 0.282034 0.122687 0.0226791
745 2 0.306714 0.123518 0.0266024
747 4 0.331394 0.12435 0.0305258
770 4 0.337038 0.143239 0.0269372
769 2 0.360245 0.147259 0.0353311
771 4 0.383451 0.15128 0.043725
566 4 0.385753 0.170496 0.0494759
1073 4 0.0410861 0.205549 0.0200595
1286 4 0.0373115 0.197542 0.00199448
1072 2 0.0596951 0.191972 0.0297831
1285 2 0.0123493 0.196443 0.00106818
1074 4 0.0783041 0.178395 0.0395067
19 3 0.129602 0.181728 0.0267499
16 1 0.119319 0.175128 0.0464758
17 3 0.0968239 0.172337 0.0425627
20 3 0.122228 0.191079 0.062469
2760 4 0.116089 0.208027 0.0727052
55 3 0.237738 0.227497 0.0816545
957 4 0.252473 0.241008 0.0790805
51 1 0.246151 0.21156 0.0677298
53 3 0.229428 0.203661 0.0537185
357 4 0.2692 0.234235 0.0695932
52 3 0.26287 0.220774 0.0548947
355 2 0.292422 0.239646 0.0771214
15 3 0.344053 0.247032 0.0427519
12 3 0.378027 0.234516 0.0336945
567 4 0.385976 0.220396 0.0462029
565 2 0.385864 0.195446 0.0478394
11 1 0.357409 0.240561 0.0254778
14 3 0.348025 0.222331 0.0146141
3086 4 0.451085 0.199103 0.0042018
282 4 0.461129 0.185858 0.016201
281 4 0.504246 0.203637 0.0342435
280 2 0.482688 0.194747 0.0252222
287 4 0.0695091 0.268949 0.0354299
286 2 0.0942407 0.270508 0.0387606
288 4 0.118972 0.272068 0.0420914
293 4 0.118122 0.284328 0.0576623
292 2 0.135769 0.300008 0.0659019
294 4 0.153417 0.315687 0.0741415
955 2 0.240645 0.262954 0.0809856
956 4 0.228818 0.284901 0.0828906
241 2 0.277661 0.324866 0.0163925
664 2 0.329354 0.284343 0.999991
13 3 0.360133 0.258128 0.0105653
665 4 0.348861 0.268706 0.999616
518 4 0.417435 0.30095 0.0575797
517 2 0.437234 0.292176 0.0700769
537 4 0.0341869 0.339264 0.99696
250 2 0.0639529 0.366836 0.0794915
2786 4 0.0180931 0.408671 0.0549314
252 4 0.0736698 0.370316 0.0567175
242 4 0.261913 0.338311 0.030407
3212 4 0.31685 0.334994 0.0233617
627 4 0.265644 0.35647 0.0377112
625 2 0.279759 0.369485 0.053728
626 4 0.293874 0.3825 0.0697448
446 4 0.302941 0.368176 0.079594
3211 2 0.336905 0.345854 0.0336108
3213 4 0.356959 0.356714 0.04386
2386 2 0.382635 0.379667 0.0204147
2388 4 0.365182 0.362699 0.0261317
1069 2 0.481288 0.390689 0.0152135
1070 4 0.456587 0.389762 0.0114472
39 3 0.441653 0.403472 0.00568584
788 4 0.196202 0.463135 0.0235997
291 4 0.158542 0.460645 0.0781958
1779 4 0.168809 0.466447 0.0620368
1777 2 0.180524 0.487621 0.068329
787 2 0.18121 0.455422 0.00513527
1289 4 0.229682 0.501853 0.993087
284 4 0.33173 0.440896 0.081844
273 4 0.333313 0.45903 0.0721185
271 2 0.34807 0.479105 0.0742186
272 4 0.362827 0.49918 0.0763188
523 2 0.466305 0.474489 0.045347
525 4 0.454777 0.471771 0.0673671
524 4 0.477834 0.477207 0.023327
659 4 0.442611 0.463667 0.0809694
589 2 0.0772359 0.0727198 0.170733
591 4 0.0999622 0.0631282 0.174819
460 2 0.231021 0.0682673 0.093203
462 4 0.22742 0.0448836 0.101291
2162 4 0.242431 0.0331801 0.0975744
2161 2 0.259163 0.0181401 0.0866648
1505 4 0.260006 0.00435505 0.152961
571 2 0.322887 0.0747767 0.157659
1504 2 0.25834 0.0266369 0.164182
1110 4 0.381483 0.0431967 0.0995582
2724 4 0.374235 0.0176585 0.145576
1108 2 0.388759 0.0666355 0.0947766
654 4 0.358199 0.0161113 0.134962
25 3 0.374086 0.0373599 0.145903
21 1 0.373199 0.0525607 0.162838
22 3 0.357118 0.0682986 0.158059
23 3 0.393703 0.0632058 0.165004
572 4 0.341402 0.0596545 0.164987
311 4 0.409467 0.0737787 0.158953
590 4 0.0545097 0.0823114 0.166647
692 4 0.0449388 0.0817165 0.148926
691 2 0.0263706 0.0983242 0.146785
693 4 0.00780249 0.114932 0.144643
421 2 0.273401 0.132836 0.157102
423 4 0.267766 0.136833 0.133072
866 4 0.250979 0.148889 0.129002
573 4 0.304372 0.0898988 0.150331
865 2 0.254889 0.162411 0.108337
1109 4 0.396035 0.0900743 0.0899951
629 4 0.378168 0.0986734 0.0923451
628 2 0.373217 0.118004 0.107411
630 4 0.368266 0.137335 0.122478
557 4 0.364636 0.152246 0.137864
556 2 0.353565 0.159884 0.158942
310 2 0.418798 0.0969674 0.158331
312 4 0.42813 0.120156 0.157708
2758 2 0.103527 0.217791 0.091994
2759 4 0.0909664 0.227556 0.111283
381 4 0.195429 0.223563 0.116313
379 2 0.197577 0.244236 0.130212
54 3 0.255002 0.19407 0.0801459
867 4 0.2588 0.175932 0.0876714
352 2 0.327581 0.236113 0.117629
353 4 0.312394 0.230802 0.0984895
27 3 0.357391 0.242952 0.149959
354 4 0.342768 0.241424 0.136769
2937 4 0.4878 0.186371 0.123927
2935 2 0.463944 0.19187 0.118847
2936 4 0.440087 0.197369 0.113767
2515 2 0.43022 0.250013 0.147725
361 2 0.0497913 0.29947 0.158233
362 4 0.0610581 0.282672 0.143534
449 4 0.0675251 0.28174 0.124708
450 4 0.115844 0.269144 0.127411
448 2 0.0916848 0.275442 0.126059
507 4 0.219163 0.301085 0.0917576
506 4 0.172928 0.315411 0.0791943
505 2 0.196045 0.308248 0.0854759
380 4 0.199725 0.264908 0.144111
509 4 0.215619 0.326117 0.150631
748 2 0.204922 0.296992 0.162602
749 4 0.190579 0.277378 0.156709
356 4 0.315643 0.245057 0.0846496
447 4 0.331553 0.335557 0.104454
2516 4 0.408994 0.259969 0.139034
28 3 0.393165 0.254422 0.151109
385 2 0.413263 0.314949 0.156461
386 4 0.391891 0.302032 0.157715
495 4 0.373969 0.30176 0.148079
493 2 0.359539 0.313679 0.131499
29 3 0.365834 0.275046 0.167604
26 1 0.373191 0.253551 0.162887
494 4 0.345109 0.325598 0.114919
526 2 0.484955 0.263893 0.0993253
387 4 0.434635 0.327866 0.155208
528 4 0.463816 0.264611 0.0859913
519 4 0.457034 0.283403 0.082574
104 3 0.471745 0.327373 0.131351
103 3 0.472533 0.339253 0.167443
251 4 0.054236 0.363357 0.102265
394 2 0.0416222 0.40804 0.149456
396 4 0.0484082 0.391537 0.166971
508 2 0.207266 0.347693 0.141151
510 4 0.198914 0.36927 0.13167
309 4 0.209481 0.386773 0.13235
307 2 0.224647 0.401536 0.145663
308 4 0.239813 0.416299 0.158976
445 2 0.317247 0.351866 0.092024
596 4 0.419699 0.387935 0.117027
102 3 0.4683 0.363923 0.139405
595 2 0.439142 0.384211 0.132301
597 4 0.458585 0.380488 0.147576
2652 4 0.456847 0.391922 0.168149
101 1 0.478609 0.344324 0.145631
395 4 0.0348362 0.424544 0.131941
1595 4 0.0318362 0.443089 0.126995
1594 2 0.0255034 0.467147 0.129506
1596 4 0.0191706 0.491205 0.132017
289 2 0.161111 0.44232 0.0950118
290 4 0.163679 0.423995 0.111828
756 4 0.148921 0.425504 0.124511
755 4 0.1179 0.440627 0.160701
754 2 0.133411 0.433066 0.142606
283 2 0.309217 0.430976 0.0863068
285 4 0.286704 0.421056 0.0907696
1431 4 0.294868 0.489927 0.156705
1575 4 0.427743 0.493314 0.127662
1573 2 0.430288 0.499112 0.151851
658 2 0.435701 0.482971 0.0952801
660 4 0.428791 0.502274 0.109591
731 4 0.0940904 0.00962665 0.201057
730 2 0.105293 0.0127607 0.223189
732 4 0.116496 0.0158947 0.245322
1403 4 0.12552 0.014393 0.262332
1506 4 0.256673 0.0489188 0.175404
1495 2 0.298526 0.019474 0.241451
1497 4 0.306297 0.0394524 0.228581
744 4 0.325195 0.0441504 0.224956
1496 4 0.290754 0.999495 0.254321
742 2 0.336875 0.0466583 0.202991
24 3 0.367642 0.0419546 0.182714
743 4 0.348554 0.0491661 0.181025
351 4 0.502738 0.0649471 0.246637
427 2 0.00082222 0.150516 0.235405
477 4 0.229562 0.136851 0.223524
546 4 0.22124 0.148925 0.239192
475 2 0.249003 0.128579 0.210152
422 4 0.279037 0.128839 0.181132
476 4 0.268444 0.120306 0.196781
558 4 0.342495 0.167522 0.18002
2768 4 0.492757 0.132386 0.196465
333 4 0.4345 0.133246 0.171365
332 4 0.474743 0.136875 0.200827
331 2 0.454621 0.13506 0.186096
389 4 0.103634 0.242288 0.214463
372 4 0.121897 0.20465 0.24354
370 2 0.104319 0.189905 0.25348
400 2 0.257751 0.2367 0.20489
402 4 0.279099 0.230348 0.193527
278 4 0.288622 0.223043 0.210725
277 2 0.303188 0.203967 0.217733
279 4 0.317754 0.184892 0.224741
497 4 0.335173 0.175094 0.22049
498 4 0.382745 0.183416 0.233463
496 2 0.358959 0.179255 0.226977
2517 4 0.451447 0.240058 0.156415
2701 2 0.460135 0.241645 0.196529
2702 4 0.457378 0.249881 0.173082
2703 4 0.462892 0.233409 0.219975
2837 4 0.47349 0.237288 0.23684
363 4 0.0385245 0.316269 0.172932
603 4 0.0204027 0.324663 0.174357
390 4 0.102614 0.281082 0.182923
388 2 0.103124 0.261685 0.198693
750 4 0.219266 0.316606 0.168495
401 4 0.236403 0.243052 0.216253
30 3 0.376086 0.241906 0.182243
601 2 0.00282528 0.341791 0.179138
2493 4 0.00947276 0.335061 0.242332
339 4 0.109319 0.367938 0.19046
621 4 0.0988115 0.383854 0.19465
337 2 0.0973763 0.355909 0.20884
338 4 0.0854336 0.343879 0.22722
619 2 0.106772 0.405962 0.186106
768 4 0.241149 0.409448 0.179197
767 4 0.236687 0.381983 0.220748
504 4 0.246891 0.365978 0.227831
766 2 0.238918 0.395715 0.199973
502 2 0.243309 0.350035 0.246756
611 4 0.397226 0.360958 0.213058
587 4 0.35017 0.384399 0.187765
586 2 0.36683 0.367412 0.195449
588 4 0.38349 0.350424 0.203133
610 2 0.403057 0.3616 0.237364
435 4 0.35808 0.395944 0.202298
2650 2 0.468375 0.385253 0.18931
2651 4 0.479903 0.378585 0.210472
2451 4 0.484063 0.363192 0.221067
2449 2 0.496523 0.377613 0.237252
345 4 0.0880651 0.494213 0.187949
620 4 0.114733 0.428071 0.177561
343 2 0.0954313 0.471826 0.196301
344 4 0.102797 0.449439 0.204652
1555 2 0.263152 0.495163 0.226529
1437 4 0.343617 0.48731 0.254174
433 2 0.352192 0.417023 0.214388
1435 2 0.34985 0.470135 0.237105
434 4 0.346305 0.438102 0.226479
1436 4 0.356084 0.452961 0.220037
1763 4 0.0839922 0.991254 0.262752
1402 2 0.149591 0.0206064 0.259656
1404 4 0.173662 0.0268198 0.25698
764 4 0.182226 0.0237184 0.274334
763 2 0.202116 0.0368041 0.266695
765 4 0.222005 0.0498899 0.259057
1701 4 0.228036 0.0678643 0.262306
1699 2 0.25003 0.0750897 0.271752
1785 4 0.273294 0.00120179 0.266044
1700 4 0.272025 0.0823151 0.281198
466 2 0.310564 0.0649448 0.283987
468 4 0.288417 0.0749486 0.28987
404 4 0.254562 0.073698 0.325184
403 2 0.271912 0.0567056 0.331134
3678 4 0.354756 0.00786697 0.307604
3676 2 0.379506 0.00495879 0.309647
467 4 0.332711 0.054941 0.278104
632 4 0.3495 0.064677 0.273572
2744 4 0.41487 0.01785 0.31859
2745 4 0.450053 0.0221399 0.283313
2743 2 0.432461 0.0199949 0.300951
2848 2 0.0110318 0.150515 0.299152
2849 4 0.00829596 0.145338 0.274843
298 2 0.0792615 0.152962 0.286426
300 4 0.0680866 0.151807 0.308764
429 4 0.0102828 0.155963 0.2579
299 4 0.0904363 0.154117 0.264089
2850 4 0.0137677 0.155691 0.32346
531 4 0.0147207 0.107572 0.305193
371 4 0.0867406 0.175161 0.263419
938 4 0.157008 0.14839 0.305946
261 4 0.140528 0.160268 0.306749
937 2 0.169912 0.132364 0.291741
544 2 0.211594 0.131916 0.254775
939 4 0.182817 0.116337 0.277535
545 4 0.201949 0.114906 0.270358
631 2 0.35576 0.0857002 0.261571
708 4 0.377598 0.110355 0.260268
633 4 0.362021 0.106723 0.249571
706 2 0.399718 0.118955 0.268137
707 4 0.421838 0.127555 0.276005
489 4 0.431097 0.113413 0.28758
487 2 0.456086 0.113741 0.288379
488 4 0.481075 0.114068 0.289179
365 4 0.0397076 0.243783 0.270319
259 2 0.151118 0.181128 0.315575
260 4 0.161707 0.201988 0.324402
600 4 0.171175 0.21379 0.312117
474 4 0.233867 0.23601 0.320986
599 4 0.219042 0.228121 0.310113
598 2 0.195109 0.220956 0.311115
472 2 0.257184 0.237638 0.312107
473 4 0.280501 0.239267 0.303228
275 4 0.300031 0.233201 0.301915
615 4 0.414969 0.249937 0.327829
266 4 0.419749 0.182931 0.318105
2836 2 0.470955 0.252906 0.2562
2838 4 0.46842 0.268525 0.27556
265 2 0.415406 0.206877 0.32384
364 2 0.041092 0.266893 0.279762
366 4 0.0424764 0.290003 0.289206
416 4 0.061568 0.288525 0.29365
415 2 0.0718804 0.3106 0.288037
274 2 0.317261 0.249497 0.293993
276 4 0.334491 0.265793 0.286072
729 4 0.287771 0.335764 0.313259
249 4 0.334074 0.285922 0.29432
247 2 0.350627 0.301727 0.304387
248 4 0.36718 0.317533 0.314454
738 4 0.385679 0.324353 0.30862
2491 2 0.999384 0.350833 0.258904
417 4 0.0821929 0.332676 0.282424
648 4 0.0803461 0.347526 0.268696
646 2 0.10059 0.362174 0.269601
647 4 0.120833 0.376822 0.270507
2954 4 0.123483 0.391402 0.28359
2953 2 0.142457 0.397711 0.298602
2955 4 0.161432 0.404019 0.313614
503 4 0.239728 0.334091 0.265681
728 4 0.245958 0.332497 0.286024
727 2 0.266865 0.334131 0.299641
543 4 0.298573 0.352609 0.31482
541 2 0.318821 0.352637 0.32949
736 2 0.395402 0.333802 0.287611
612 4 0.408889 0.362242 0.261669
737 4 0.405124 0.343251 0.266603
548 4 0.0444547 0.427206 0.309374
549 4 0.0461637 0.441577 0.261507
547 2 0.0453092 0.434391 0.285441
680 4 0.0763814 0.463734 0.349018
777 4 0.0982041 0.451608 0.302825
679 2 0.0841848 0.44061 0.343579
303 4 0.106165 0.499537 0.261296
775 2 0.107717 0.468152 0.28667
776 4 0.11723 0.484696 0.270515
1819 2 0.237515 0.444891 0.324204
1821 4 0.245956 0.433976 0.303353
1557 4 0.267378 0.481459 0.247011
414 4 0.264118 0.461865 0.251685
412 2 0.263869 0.450477 0.273943
413 4 0.26362 0.439089 0.296201
594 4 0.494496 0.456691 0.275848
119 3 0.501962 0.441319 0.285446
593 4 0.446085 0.469203 0.276612
592 2 0.470291 0.462947 0.27623
713 4 0.435839 0.484301 0.284477
1491 4 0.0165974 0.00559866 0.413172
2636 4 0.0326989 0.0620824 0.379572
2635 2 0.0300264 0.0417472 0.393873
2637 4 0.0273538 0.021412 0.408174
340 2 0.162871 0.0392234 0.417541
341 4 0.17883 0.039111 0.398294
605 4 0.192095 0.0266803 0.389142
604 2 0.197356 0.0101884 0.3711
682 2 0.249841 0.0329264 0.402771
320 4 0.243195 0.0897452 0.332208
2429 4 0.256269 0.00528455 0.410285
1818 4 0.316486 0.015018 0.397386
683 4 0.260145 0.0128541 0.391995
405 4 0.289263 0.0397133 0.337085
1518 4 0.295696 0.021194 0.340632
1516 2 0.299467 0.0126574 0.363828
1517 4 0.303238 0.00412072 0.387025
369 4 0.160573 0.152681 0.402706
367 2 0.141727 0.167129 0.410534
319 2 0.232126 0.0920058 0.354514
1182 4 0.174907 0.140944 0.393887
1180 2 0.188893 0.121203 0.387573
1181 4 0.202879 0.101462 0.38126
321 4 0.221056 0.0942664 0.376819
418 2 0.445341 0.152989 0.327861
424 2 0.4801 0.114291 0.36133
426 4 0.45688 0.11751 0.352632
420 4 0.454421 0.132945 0.339735
470 4 0.0221099 0.172835 0.323728
469 2 0.0106318 0.186004 0.341616
348 4 0.0591706 0.235089 0.412329
734 4 0.0739491 0.230749 0.424929
616 2 0.170526 0.237816 0.413161
617 4 0.18318 0.242016 0.392009
267 4 0.411063 0.230824 0.329575
419 4 0.436262 0.173033 0.315987
676 2 0.151823 0.312811 0.345771
717 4 0.188796 0.241611 0.371993
677 4 0.172951 0.30054 0.34046
715 2 0.183682 0.264642 0.363711
716 4 0.178568 0.287673 0.355429
804 4 0.232071 0.263349 0.384554
802 2 0.24963 0.281018 0.386718
803 4 0.267188 0.298687 0.388883
614 4 0.381456 0.278306 0.351761
613 2 0.398213 0.264122 0.339795
376 2 0.359117 0.316249 0.356949
377 4 0.37253 0.295171 0.357951
3671 4 0.999758 0.379115 0.394223
3670 2 0.0176094 0.393592 0.384379
3672 4 0.0354608 0.408069 0.374535
935 4 0.0523852 0.404613 0.385599
678 4 0.130695 0.325082 0.351082
569 4 0.118622 0.340016 0.350198
568 2 0.123802 0.363071 0.358372
570 4 0.128982 0.386126 0.366545
681 4 0.0919882 0.417486 0.33814
378 4 0.345705 0.337326 0.355947
542 4 0.339069 0.352665 0.34416
561 4 0.355497 0.378154 0.400561
559 2 0.36743 0.392492 0.383912
560 4 0.379363 0.40683 0.367262
1401 4 0.348084 0.386479 0.417274
934 2 0.0682622 0.421619 0.394759
936 4 0.0841391 0.438625 0.403918
1398 4 0.0992684 0.447881 0.395054
1396 2 0.112634 0.464865 0.407628
1397 4 0.125999 0.481848 0.420203
1820 4 0.229074 0.455807 0.345056
1640 4 0.227676 0.476088 0.394814
1639 2 0.228816 0.475994 0.369836
1641 4 0.229956 0.475901 0.344859
5 3 0.317707 0.502412 0.3535
1472 4 0.370933 0.470108 0.361626
1802 4 0.382267 0.471268 0.344759
1473 4 0.369309 0.422162 0.375742
1587 4 0.344853 0.46271 0.400828
1471 2 0.370121 0.446135 0.368684
752 4 0.354054 0.480002 0.401922
1331 4 0.471172 0.488905 0.362054
2586 4 0.067018 0.998833 0.423174
1647 4 0.0856062 0.005078 0.427863
342 4 0.146911 0.0393358 0.436789
1646 4 0.130709 0.0262359 0.432193
1645 2 0.108158 0.0156569 0.430028
857 4 0.177515 0.10014 0.476355
684 4 0.239538 0.0529987 0.413547
431 4 0.227521 0.046208 0.428475
430 2 0.223918 0.044243 0.45314
432 4 0.220315 0.042278 0.477804
792 4 0.209532 0.0530629 0.489633
1817 4 0.309191 0.010165 0.446619
1816 2 0.312838 0.0125915 0.422003
256 2 0.282081 0.0236589 0.476732
258 4 0.294274 0.0187589 0.455459
257 4 0.269889 0.028559 0.498004
2334 4 0.431407 0.00250074 0.498835
480 4 0.421655 0.0180709 0.490021
478 2 0.431799 0.0285783 0.469726
479 4 0.441943 0.0390857 0.449432
858 4 0.128845 0.111627 0.476213
856 2 0.15318 0.105883 0.476284
1272 4 0.126701 0.132966 0.478069
1270 2 0.118353 0.155229 0.485806
3731 4 0.366893 0.136433 0.506945
2916 4 0.0113881 0.246303 0.472664
733 2 0.0927748 0.214696 0.421316
618 4 0.157871 0.233615 0.434313
368 4 0.122881 0.181576 0.418362
735 4 0.111601 0.198642 0.417702
1198 2 0.141343 0.229893 0.466487
1200 4 0.131281 0.240903 0.486555
1271 4 0.110005 0.177492 0.493542
1199 4 0.151405 0.218883 0.446419
374 4 0.348856 0.26111 0.472605
873 4 0.358994 0.243998 0.474116
515 4 0.381151 0.173526 0.499619
346 2 0.0390979 0.245698 0.422803
347 4 0.0190252 0.256308 0.433277
2914 2 0.0328114 0.258085 0.477901
1220 4 0.00780966 0.316925 0.448585
1152 4 0.0724402 0.27074 0.473956
1150 2 0.078541 0.293521 0.465651
2915 4 0.0542346 0.269866 0.483138
1219 2 0.0195113 0.322381 0.469997
1221 4 0.031213 0.327837 0.491409
1151 4 0.0846418 0.316302 0.457346
1178 4 0.0889887 0.335567 0.449733
238 2 0.234345 0.308646 0.441697
239 4 0.252507 0.292423 0.447364
710 4 0.250286 0.284913 0.465372
240 4 0.216183 0.32487 0.43603
373 2 0.324668 0.255894 0.469016
709 2 0.272614 0.275185 0.459713
375 4 0.300479 0.250679 0.465426
711 4 0.294941 0.265458 0.454053
871 2 0.38206 0.253338 0.471687
872 4 0.405126 0.262678 0.469257
813 4 0.404612 0.282941 0.471651
811 2 0.422728 0.299098 0.465653
812 4 0.440843 0.315255 0.459656
585 4 0.457458 0.303149 0.467164
583 2 0.471833 0.317113 0.452213
584 4 0.486208 0.331078 0.437263
501 4 0.0499847 0.329982 0.484991
3352 2 0.0877021 0.423489 0.465574
668 4 0.16206 0.327307 0.424255
1177 2 0.0927696 0.359144 0.457151
1179 4 0.0965506 0.38272 0.464569
3354 4 0.0875821 0.399409 0.472305
669 4 0.211057 0.335605 0.418678
667 2 0.186558 0.331456 0.421467
1453 2 0.392576 0.36603 0.487125
1455 4 0.370503 0.37245 0.47729
1400 4 0.375043 0.375677 0.457984
1399 2 0.361563 0.381078 0.437629
2678 4 0.48956 0.349755 0.440405
3353 4 0.0878221 0.447569 0.458844
4298 4 0.0764346 0.466009 0.48316
1446 4 0.244017 0.474105 0.404282
383 4 0.198267 0.489304 0.490476
774 4 0.311593 0.445443 0.496072
882 4 0.311045 0.448729 0.442251
1586 4 0.330303 0.446879 0.445976
880 2 0.305071 0.440434 0.465069
881 4 0.299097 0.432139 0.487888
1444 2 0.246076 0.48495 0.426717
1585 2 0.337578 0.454795 0.423402
1057 2 0.166055 0.0460485 0.54495
1058 4 0.159403 0.0275707 0.529474
851 4 0.148893 0.0158559 0.541346
850 2 0.128191 0.00256011 0.53689
1059 4 0.172706 0.0645263 0.560427
1602 4 0.224804 0.0442397 0.537336
1524 4 0.238343 0.0572499 0.529581
1522 2 0.248623 0.065595 0.550791
1600 2 0.218169 0.0201713 0.535973
1601 4 0.211533 0.996103 0.534611
790 2 0.19623 0.0740152 0.49267
410 4 0.186861 0.0667734 0.574514
791 4 0.182927 0.0949676 0.495706
1153 2 0.326544 0.0431384 0.575616
1154 4 0.336367 0.0373825 0.553355
1218 4 0.405255 0.0584357 0.57686
1216 2 0.414302 0.0453524 0.557569
1217 4 0.423349 0.032269 0.538278
4227 4 0.481118 0.0274601 0.56616
4225 2 0.465602 0.040724 0.5806
3032 4 0.0223759 0.160065 0.577838
1060 2 0.39581 0.0972669 0.570683
3730 2 0.37814 0.122348 0.524274
3732 4 0.389386 0.108263 0.541603
1061 4 0.389137 0.118136 0.558637
1212 4 0.164603 0.214398 0.526665
1210 2 0.17343 0.198541 0.509466
694 2 0.233241 0.248623 0.574291
695 4 0.232456 0.230756 0.556817
1211 4 0.182256 0.182684 0.492266
514 2 0.405996 0.174938 0.502049
516 4 0.430841 0.176351 0.504479
1032 4 0.434188 0.178004 0.524066
641 4 0.47506 0.190301 0.573882
1031 4 0.455882 0.189254 0.567696
1030 2 0.445035 0.183629 0.545881
1193 4 0.450678 0.233966 0.529072
650 4 0.466003 0.236252 0.516669
649 2 0.483476 0.246974 0.502354
640 2 0.497027 0.200299 0.56735
796 2 0.3194 0.297967 0.546692
797 4 0.29871 0.298668 0.560714
1007 4 0.282032 0.312358 0.56337
798 4 0.340089 0.297266 0.53267
900 4 0.403092 0.278143 0.542294
898 2 0.381819 0.288793 0.534599
899 4 0.360546 0.299443 0.526903
1194 4 0.418667 0.268932 0.544989
1192 2 0.434672 0.251449 0.537031
335 4 0.444053 0.323151 0.545502
500 4 0.0705133 0.35335 0.524148
499 2 0.060249 0.341666 0.504569
879 4 0.00779787 0.377323 0.59747
983 4 0.999188 0.393668 0.601831
807 4 0.235877 0.356344 0.568493
806 4 0.198918 0.366278 0.536306
805 2 0.217397 0.361311 0.552399
1008 4 0.238678 0.336733 0.568565
1006 2 0.260355 0.324546 0.565967
930 4 0.322804 0.351693 0.573803
2028 4 0.31591 0.355376 0.592664
925 2 0.398437 0.377641 0.565171
927 4 0.383204 0.359697 0.556737
929 4 0.365134 0.360459 0.548663
928 2 0.343969 0.356076 0.561233
336 4 0.42892 0.346458 0.503927
926 4 0.413671 0.395585 0.573605
1454 4 0.414649 0.35961 0.49696
334 2 0.436486 0.334805 0.524715
663 4 0.426591 0.402171 0.559697
661 2 0.439518 0.420807 0.570221
953 4 0.444071 0.335978 0.560933
408 4 0.0975501 0.459737 0.547347
4297 2 0.085882 0.466656 0.506301
4299 4 0.0953295 0.467304 0.529442
1160 4 0.171459 0.507358 0.539301
406 2 0.0999916 0.439729 0.562142
407 4 0.102433 0.41972 0.576937
382 2 0.183252 0.502115 0.505826
2152 2 0.305288 0.425115 0.572758
2153 4 0.3089 0.436186 0.550631
773 4 0.296484 0.425104 0.539186
772 2 0.304038 0.435274 0.517629
662 4 0.452446 0.439444 0.580744
2133 4 0.0935285 0.0142463 0.601514
962 4 0.112681 0.0539506 0.644463
2131 2 0.107826 0.0292738 0.615476
2132 4 0.122124 0.0443012 0.629437
961 2 0.0974372 0.0559445 0.664181
1523 4 0.258904 0.0739401 0.572001
409 2 0.188804 0.0523606 0.594853
411 4 0.190747 0.0379478 0.615192
824 4 0.207084 0.028244 0.610505
823 2 0.207389 0.0151673 0.631814
825 4 0.207693 0.00209056 0.653123
1781 4 0.263741 0.0815647 0.589678
1155 4 0.316721 0.0488943 0.597877
1780 2 0.281473 0.0664276 0.598712
1782 4 0.299204 0.0512904 0.607747
1025 4 0.444828 0.0516391 0.663024
4226 4 0.450086 0.0539879 0.595039
1026 4 0.441699 0.0472755 0.613306
1024 2 0.443263 0.0494573 0.638165
862 2 0.0213519 0.133924 0.674775
1077 4 0.0228939 0.166849 0.65195
863 4 0.0310796 0.114111 0.686523
864 4 0.0116243 0.153737 0.663028
1284 4 0.173204 0.169505 0.656283
1277 4 0.183271 0.152581 0.655062
1062 4 0.402484 0.0763974 0.582729
43 3 0.339169 0.124477 0.655507
3401 4 0.38581 0.130123 0.636175
44 3 0.367915 0.124423 0.630646
45 3 0.364131 0.0962897 0.655382
3400 2 0.399675 0.146204 0.622972
41 1 0.361381 0.118665 0.652153
3402 4 0.413541 0.162285 0.609769
3355 2 0.447887 0.140168 0.597345
3357 4 0.464599 0.121801 0.594427
3009 4 0.482855 0.121907 0.602152
3356 4 0.431175 0.158536 0.600263
90 3 0.461 0.147552 0.661766
87 3 0.473661 0.124158 0.635588
86 1 0.479742 0.13929 0.651811
89 3 0.491691 0.156529 0.641888
1075 2 0.0281512 0.179713 0.631164
3044 4 0.030265 0.210641 0.620001
3043 2 0.0380337 0.233069 0.627862
1076 4 0.0334086 0.192577 0.610377
1067 4 0.120677 0.246197 0.627403
1283 4 0.159686 0.176156 0.608599
1282 2 0.166445 0.17283 0.632441
1167 4 0.347402 0.201044 0.647716
1137 4 0.353018 0.218663 0.655852
1135 2 0.343873 0.238892 0.644348
831 4 0.42816 0.195142 0.658114
801 4 0.417394 0.205592 0.644935
799 2 0.422576 0.226246 0.63183
3045 4 0.0458025 0.255497 0.635722
3264 4 0.0158609 0.310818 0.612615
3262 2 0.0254154 0.287757 0.611164
3263 4 0.0349698 0.264697 0.609713
878 4 0.0167053 0.328391 0.602667
822 4 0.0817446 0.281006 0.6493
1068 4 0.0901347 0.285487 0.632321
1066 2 0.105406 0.265842 0.629862
696 4 0.234027 0.26649 0.591765
1260 4 0.240564 0.284225 0.599806
1259 4 0.207945 0.299019 0.634704
10 3 0.207904 0.301346 0.654641
1258 2 0.224255 0.291622 0.617255
1136 4 0.334728 0.259121 0.632844
800 4 0.427758 0.2469 0.618726
1238 4 0.424451 0.265446 0.628598
1237 2 0.431145 0.288566 0.62183
1239 4 0.437839 0.311687 0.615061
954 4 0.426942 0.326158 0.606877
877 2 0.0122516 0.352857 0.600068
1173 4 0.10476 0.426882 0.596299
1171 2 0.108309 0.408114 0.612435
1172 4 0.111857 0.389346 0.62857
1190 4 0.115109 0.396444 0.647295
1393 2 0.250369 0.371926 0.660116
2026 2 0.309804 0.378035 0.601296
2027 4 0.303699 0.400693 0.609928
2154 4 0.301677 0.414045 0.594884
1394 4 0.274664 0.377824 0.659772
1019 4 0.411081 0.406919 0.652653
1011 4 0.424828 0.401118 0.638718
1009 2 0.433493 0.390582 0.617764
952 2 0.435507 0.331068 0.583905
1010 4 0.442159 0.380046 0.596809
2141 4 0.46432 0.427993 0.5923
2140 2 0.484494 0.427589 0.607066
963 4 0.0821933 0.0579384 0.6839
2254 2 0.118657 0.0110333 0.726231
2300 4 0.202259 0.0124733 0.668899
2299 2 0.212223 0.0246766 0.688315
2301 4 0.222187 0.03688 0.70773
2201 4 0.234656 0.00820074 0.735925
1050 4 0.252853 0.0146794 0.735781
2200 2 0.211189 0.006022 0.744274
1048 2 0.277335 0.0175951 0.739942
842 4 0.355536 0.0460801 0.690482
841 2 0.354593 0.069378 0.681455
843 4 0.353649 0.092676 0.672428
2049 4 0.0690442 0.0839054 0.743769
2047 2 0.0811107 0.102985 0.73302
2048 4 0.0931771 0.122065 0.722271
1278 4 0.193261 0.146757 0.703713
976 2 0.214125 0.13733 0.72707
977 4 0.213601 0.142143 0.70254
1276 2 0.188266 0.149669 0.679388
1261 2 0.323854 0.126644 0.692464
1263 4 0.305437 0.127395 0.709358
887 4 0.28748 0.136179 0.714043
886 2 0.274723 0.153825 0.701753
1262 4 0.342272 0.125893 0.67557
42 3 0.374429 0.130154 0.667216
1143 4 0.359503 0.133255 0.681552
1141 2 0.37226 0.150819 0.693958
48 3 0.407115 0.154466 0.73646
3387 4 0.993457 0.191076 0.729698
838 2 0.233882 0.198876 0.693022
839 4 0.219917 0.21781 0.684557
1130 4 0.207315 0.232341 0.678626
840 4 0.247846 0.179942 0.701488
942 4 0.214967 0.222796 0.736551
940 2 0.195328 0.222039 0.752008
888 4 0.261965 0.171471 0.689464
1166 4 0.319302 0.173198 0.678305
1165 2 0.333352 0.187121 0.66301
1142 4 0.385018 0.168383 0.706365
49 3 0.385967 0.182292 0.721531
46 1 0.404907 0.177435 0.734024
50 3 0.423371 0.185973 0.723785
829 2 0.430048 0.194915 0.683045
830 4 0.431936 0.194687 0.707976
1297 2 0.455265 0.227833 0.739797
1299 4 0.453147 0.203484 0.745072
1086 4 0.46566 0.189033 0.752322
820 2 0.0762757 0.289591 0.672138
1209 4 0.0855609 0.299032 0.707398
821 4 0.0708067 0.298175 0.694976
1207 2 0.0972989 0.31651 0.720886
1208 4 0.109037 0.333987 0.734375
6 1 0.212079 0.307032 0.676294
9 3 0.23469 0.304594 0.680901
7 3 0.200117 0.293162 0.690211
1131 4 0.201888 0.276815 0.700836
1129 2 0.204602 0.254578 0.689731
918 4 0.31142 0.299099 0.721811
916 2 0.298285 0.290074 0.741078
1308 4 0.454356 0.270922 0.739347
1306 2 0.441383 0.291281 0.745856
1298 4 0.457383 0.252182 0.734522
1189 2 0.106574 0.403414 0.66974
1120 2 0.166048 0.412193 0.717691
8 3 0.205534 0.328961 0.680125
815 4 0.218956 0.348438 0.678032
1395 4 0.226073 0.366027 0.66046
816 4 0.181103 0.375835 0.695845
814 2 0.200029 0.362136 0.686939
1121 4 0.179766 0.393128 0.709117
1903 2 0.24201 0.412335 0.740168
891 4 0.285629 0.390138 0.671815
889 2 0.298492 0.385872 0.692827
890 4 0.311355 0.381607 0.71384
1230 4 0.327129 0.378902 0.725387
1904 4 0.265324 0.403303 0.740356
2121 4 0.280314 0.410654 0.730763
2119 2 0.302706 0.416756 0.740065
1018 2 0.395688 0.398658 0.670542
1228 2 0.350045 0.384412 0.71704
1229 4 0.372961 0.389921 0.708692
1020 4 0.380296 0.390396 0.68843
1028 4 0.348837 0.385116 0.766361
948 4 0.0759356 0.432162 0.738017
946 2 0.0775606 0.423644 0.714565
947 4 0.0791856 0.415126 0.691114
1191 4 0.0980397 0.410384 0.692185
1122 4 0.15233 0.431258 0.726265
1186 2 0.199823 0.506115 0.692644
1905 4 0.218695 0.421367 0.739979
1176 4 0.228566 0.487743 0.722015
1174 2 0.224185 0.463506 0.726323
1175 4 0.219804 0.439269 0.730632
1188 4 0.217196 0.498484 0.708927
2369 4 0.367338 0.489725 0.728902
2174 4 0.349939 0.49693 0.723511
2173 2 0.353341 0.505601 0.700307
1268 4 0.504522 0.486661 0.70793
1267 2 0.491945 0.482703 0.729175
1269 4 0.479368 0.478744 0.750419
2256 4 0.122174 0.0332109 0.737229
945 4 0.114004 0.0370824 0.756061
943 2 0.133242 0.0450086 0.769927
944 4 0.15248 0.0529348 0.783793
909 4 0.152251 0.0711575 0.793551
2232 4 0.179066 0.0118234 0.768468
907 2 0.176812 0.0683792 0.797319
908 4 0.201373 0.0656008 0.801087
960 4 0.217658 0.0684583 0.811345
2202 4 0.187721 0.00384325 0.752623
1049 4 0.301817 0.0205108 0.744104
34 3 0.310037 0.0053229 0.754336
31 1 0.330733 0.00712959 0.764672
32 3 0.329619 0.0235709 0.780722
966 4 0.31762 0.0397535 0.780762
964 2 0.325414 0.0545482 0.799351
35 3 0.346621 0.012686 0.749331
1255 2 0.0986722 0.104615 0.790688
1257 4 0.0980276 0.11101 0.814851
1256 4 0.0993167 0.0982197 0.766524
870 4 0.165963 0.139413 0.825492
2000 4 0.105462 0.117968 0.830407
978 4 0.214648 0.132516 0.7516
1227 4 0.176556 0.139868 0.809085
1225 2 0.187956 0.138793 0.786858
1226 4 0.199356 0.137717 0.76463
965 4 0.333209 0.0693428 0.81794
2051 4 0.344845 0.0848716 0.825186
1111 2 0.464397 0.142001 0.81039
1112 4 0.447631 0.140148 0.791932
1085 4 0.450475 0.145822 0.772396
1113 4 0.481162 0.143854 0.828847
1080 4 0.118941 0.206513 0.796132
941 4 0.175689 0.221282 0.767464
1079 4 0.166206 0.214847 0.782087
1078 2 0.142573 0.21068 0.78911
1044 4 0.294169 0.202919 0.818503
47 3 0.402716 0.186946 0.754854
1084 2 0.458068 0.167428 0.762359
892 2 0.0601023 0.280858 0.807372
894 4 0.0413001 0.265492 0.801411
2999 4 0.0222146 0.25893 0.804062
2998 2 0.00484771 0.276556 0.807653
1041 4 0.080514 0.312689 0.801716
893 4 0.0789044 0.296224 0.813334
1245 4 0.146527 0.223457 0.834408
917 4 0.28515 0.28105 0.760345
1096 2 0.291924 0.280874 0.798272
1098 4 0.287261 0.292399 0.776579
1097 4 0.296587 0.269348 0.819965
998 4 0.408303 0.308072 0.750784
997 2 0.385398 0.312908 0.759569
999 4 0.362494 0.317743 0.768353
1065 4 0.386387 0.264986 0.83079