ITEM: TIMESTEP
5790000
ITEM: NUMBER OF ATOMS
4590
ITEM: BOX BOUNDS pp pp pp
-9.9985700000000008e+00 9.9985700000000008e+00
-9.9985700000000008e+00 9.9985700000000008e+00
-9.9985700000000008e+00 9.9985700000000008e+00
ITEM: ATOMS id type xs ys zs
1504 2 0.0143237 0.0426871 0.0611704
1505 4 0.00855188 0.0502357 0.0380429
1125 4 0.00911321 0.0579501 0.0187637
1506 4 0.0200955 0.0351385 0.084298
1403 4 0.0360118 0.0475212 0.0886878
770 4 0.19816 0.0541638 0.0655211
867 4 0.218239 0.0583013 0.0622177
865 2 0.237517 0.0670418 0.0489091
769 2 0.18272 0.0526179 0.085127
1110 4 0.328878 0.0195047 0.0025485
1108 2 0.308391 0.00589906 0.00706046
866 4 0.256796 0.0757823 0.0356005
77 3 0.382351 0.0249688 0.0221795
76 1 0.362105 0.01557 0.0277408
79 3 0.347663 0.0176455 0.00969868
78 3 0.353449 0.0267445 0.0461423
1495 2 0.35251 0.00938622 0.080928
3835 2 0.403351 0.0475836 0.997739
1497 4 0.356908 0.00715649 0.0564155
3836 4 0.387899 0.0287552 0.00338616
1565 4 0.436885 0.0547713 0.992955
3837 4 0.418804 0.0664121 0.992092
3202 2 0.451731 0.999554 0.0798186
912 4 0.081207 0.169562 0.0593968
243 4 0.0525982 0.119045 0.996855
4395 4 0.0696497 0.109331 0.997586
624 4 0.132098 0.138292 0.0309732
622 2 0.14024 0.115565 0.0374819
911 4 0.117367 0.137608 0.0462765
55 3 0.145595 0.144104 0.0158994
623 4 0.148382 0.0928375 0.0439906
910 2 0.0992872 0.153585 0.0528366
379 2 0.231145 0.152805 0.00290255
913 2 0.21288 0.140608 0.0595248
915 4 0.212557 0.158793 0.042367
914 4 0.213202 0.122423 0.0766826
461 4 0.315025 0.101665 0.0321775
462 4 0.272622 0.0765742 0.0236251
460 2 0.293823 0.0891195 0.0279013
828 4 0.293864 0.163433 0.0303414
826 2 0.31285 0.169487 0.0152391
571 2 0.408104 0.107407 0.0559921
572 4 0.391741 0.107715 0.0748954
746 4 0.394542 0.158955 0.0617796
1785 4 0.373303 0.102237 0.0713116
1783 2 0.351125 0.107029 0.0818156
573 4 0.424467 0.107098 0.0370888
2839 2 0.486835 0.144145 0.0695957
2840 4 0.479752 0.14035 0.0459183
2855 4 0.463262 0.153462 0.0481503
763 2 0.0442545 0.188746 0.0567044
765 4 0.0253511 0.201989 0.0470886
764 4 0.063158 0.175503 0.0663203
363 4 0.0135716 0.261287 0.0615945
51 1 0.152114 0.162612 0.00434011
54 3 0.1566 0.179972 0.0190676
955 2 0.148791 0.239484 0.058668
957 4 0.126022 0.246131 0.0507572
381 4 0.221647 0.159249 0.025116
956 4 0.17156 0.232838 0.0665788
546 4 0.187644 0.233065 0.0774094
827 4 0.331835 0.175541 0.00013691
745 2 0.399516 0.168811 0.0393456
747 4 0.40449 0.178668 0.0169116
527 4 0.388427 0.191711 0.0163963
2854 2 0.456792 0.157628 0.0243602
2856 4 0.450322 0.161793 0.000570162
361 2 0.0318755 0.278316 0.0620119
362 4 0.0501794 0.295344 0.0624292
1595 4 0.107495 0.253796 0.0463513
1594 2 0.10361 0.252758 0.0216733
27 3 0.400182 0.258574 0.0709365
28 3 0.392894 0.290859 0.0531258
26 1 0.408895 0.274451 0.0567536
30 3 0.414529 0.264592 0.0370126
2827 2 0.467395 0.272989 0.0680738
29 3 0.42772 0.283783 0.0665993
2828 4 0.491169 0.270968 0.060599
2829 4 0.44362 0.27501 0.0755486
2356 2 0.0784248 0.404773 0.0150289
2583 4 0.000428639 0.404941 0.064312
2358 4 0.0975421 0.388727 0.0165308
923 4 0.147811 0.381407 0.0095714
922 2 0.125885 0.379643 0.0214578
924 4 0.103958 0.37788 0.0333441
1236 4 0.160958 0.395888 0.00360149
1234 2 0.181643 0.407766 0.0111005
13 3 0.262611 0.394959 0.0602635
11 1 0.278868 0.399229 0.07626
271 2 0.337901 0.376715 0.0727288
15 3 0.297986 0.38798 0.0711042
272 4 0.358894 0.3635 0.0695892
2454 4 0.424405 0.35051 0.0108361
2452 2 0.419504 0.372502 0.999996
563 4 0.443087 0.333026 0.0631209
1071 4 0.458812 0.343465 0.0575192
564 4 0.418875 0.33351 0.0193687
562 2 0.430981 0.333268 0.0412448
1069 2 0.4831 0.349286 0.0586975
3882 4 0.454294 0.388673 0.0808892
3880 2 0.451779 0.397284 0.0575505
3881 4 0.449263 0.405896 0.0342118
1777 2 0.0445379 0.478362 0.0744918
1779 4 0.0446321 0.494272 0.055203
626 4 0.218063 0.431043 0.0194593
1235 4 0.202327 0.419645 0.0185994
625 2 0.242742 0.431001 0.0154421
627 4 0.267421 0.43096 0.0114249
3212 4 0.271596 0.448993 0.00763063
3211 2 0.29623 0.450366 0.0035693
14 3 0.283132 0.422012 0.0773352
3801 4 0.440887 0.411085 0.0156734
2782 2 0.472154 0.483524 0.0849641
1402 2 0.047917 0.0642734 0.102929
1404 4 0.0598223 0.0810256 0.11717
2798 4 0.995753 0.0591948 0.120876
477 4 0.153595 0.0774451 0.155776
475 2 0.155174 0.0724761 0.131322
476 4 0.156753 0.0675071 0.106868
771 4 0.16728 0.051072 0.104733
2724 4 0.303376 0.0310141 0.135883
654 4 0.293047 0.0175086 0.146307
2722 2 0.319835 0.0152391 0.125616
699 4 0.274204 0.0743011 0.0972755
697 2 0.297069 0.0843078 0.0957773
2723 4 0.336295 0.999464 0.115349
1496 4 0.348112 0.0116159 0.105441
628 2 0.45976 0.03805 0.118268
630 4 0.47489 0.0434073 0.13744
629 4 0.44463 0.0326926 0.0990956
3203 4 0.439499 0.0131039 0.096905
2505 4 0.492729 0.0399285 0.146741
1533 4 0.0736442 0.0805186 0.131053
1531 2 0.0723164 0.100102 0.146542
1532 4 0.0709885 0.119685 0.162032
691 2 0.121352 0.167485 0.156509
875 4 0.219103 0.115383 0.0960403
874 2 0.239784 0.10196 0.100201
1784 4 0.328946 0.11182 0.0923196
25 3 0.277096 0.101261 0.140326
876 4 0.260465 0.0885365 0.104361
698 4 0.319934 0.0943146 0.094279
401 4 0.353941 0.171437 0.162093
418 2 0.407459 0.163863 0.113402
419 4 0.399743 0.143564 0.101009
2841 4 0.493918 0.147939 0.093273
484 2 0.485283 0.140461 0.130708
485 4 0.471496 0.14205 0.151506
312 4 0.457356 0.131071 0.160989
529 2 0.05965 0.206028 0.15902
531 4 0.0672703 0.224078 0.143486
2760 4 0.124793 0.184172 0.12081
2758 2 0.125116 0.209102 0.118917
692 4 0.116063 0.170343 0.132239
2759 4 0.125438 0.234032 0.117024
450 4 0.126636 0.248286 0.10334
545 4 0.195848 0.238425 0.126447
544 2 0.191746 0.235745 0.101928
420 4 0.415175 0.184163 0.125794
556 2 0.400133 0.24349 0.138953
557 4 0.380682 0.230662 0.148025
402 4 0.369701 0.21433 0.141784
400 2 0.361821 0.192883 0.151938
547 2 0.0641716 0.300055 0.108598
548 4 0.0657411 0.276978 0.0991036
549 4 0.0626021 0.323133 0.118092
449 4 0.083839 0.273663 0.108353
448 2 0.105238 0.260974 0.105847
558 4 0.419583 0.256318 0.129881
519 4 0.432687 0.27068 0.138027
517 2 0.441519 0.287263 0.154525
2597 4 0.0559124 0.338635 0.128087
2596 2 0.0458709 0.361518 0.127253
2598 4 0.0358293 0.384402 0.12642
2842 2 0.0359071 0.410836 0.15514
2844 4 0.0277931 0.402856 0.132877
2094 4 0.146102 0.404063 0.105429
2092 2 0.157715 0.399344 0.127063
1223 4 0.182878 0.407697 0.14421
2093 4 0.169328 0.394626 0.148698
1222 2 0.198614 0.406214 0.163584
273 4 0.316909 0.38993 0.0758684
12 3 0.271188 0.392126 0.0967472
3607 2 0.449813 0.345588 0.15695
659 4 0.467688 0.395066 0.0935673
3609 4 0.446402 0.369182 0.14941
660 4 0.452994 0.385165 0.14033
658 2 0.460341 0.390115 0.116949
1778 4 0.0444437 0.462453 0.0937806
700 2 0.0702162 0.479136 0.122625
702 4 0.0502646 0.46746 0.113096
701 4 0.0901677 0.490812 0.132153
2784 4 0.491228 0.467426 0.0864547
610 2 0.481478 0.446414 0.171845
4367 4 0.498727 0.449312 0.0870891
17 3 0.159777 0.0786567 0.17538
19 3 0.174098 0.0879977 0.20885
652 2 0.280524 0.011982 0.167231
22 3 0.272382 0.0896115 0.175468
332 4 0.368718 0.0653123 0.233509
331 2 0.387796 0.0556782 0.246486
2476 2 0.0153579 0.165426 0.163129
18 3 0.15008 0.111434 0.19101
366 4 0.124683 0.163177 0.200223
364 2 0.139174 0.143113 0.203776
365 4 0.153665 0.123049 0.207329
693 4 0.12664 0.164627 0.18078
389 4 0.166209 0.11288 0.25628
353 4 0.146777 0.116064 0.264632
744 4 0.236536 0.117128 0.166205
468 4 0.227673 0.0891115 0.239762
16 1 0.167342 0.0961821 0.188216
20 3 0.184899 0.10616 0.177687
742 2 0.213166 0.121386 0.174009
743 4 0.189796 0.125644 0.181814
390 4 0.207197 0.0886278 0.241031
388 2 0.186703 0.100754 0.248656
21 1 0.274614 0.108065 0.161917
23 3 0.255595 0.121202 0.163941
24 3 0.293294 0.120084 0.168627
1700 4 0.352375 0.124362 0.207607
422 4 0.369822 0.126684 0.218723
1699 2 0.35819 0.143139 0.192153
421 2 0.367615 0.117797 0.24199
1701 4 0.364004 0.161915 0.1767
310 2 0.469569 0.120174 0.17989
311 4 0.481782 0.109277 0.198792
2478 4 0.0370547 0.175053 0.170987
530 4 0.0520297 0.187977 0.174554
493 2 0.348857 0.231146 0.248683
104 3 0.379643 0.237173 0.201641
105 3 0.381963 0.24781 0.237684
2837 4 0.493642 0.192802 0.250766
2836 2 0.499795 0.174089 0.235367
1766 4 0.989517 0.320365 0.182529
343 2 0.136152 0.261534 0.229646
344 4 0.159036 0.256345 0.221008
602 4 0.107303 0.319822 0.208031
756 4 0.166718 0.272893 0.231194
755 4 0.215323 0.27257 0.219441
754 2 0.19102 0.272732 0.225317
510 4 0.2267 0.275946 0.234922
508 2 0.239502 0.295321 0.244189
494 4 0.367318 0.247659 0.252103
101 1 0.384723 0.254581 0.216116
103 3 0.371029 0.27279 0.211721
102 3 0.406632 0.260798 0.212871
588 4 0.386856 0.286407 0.215515
586 2 0.383431 0.309881 0.207612
750 4 0.405998 0.280385 0.219079
587 4 0.380007 0.333354 0.199709
3608 4 0.453223 0.321993 0.164489
518 4 0.450351 0.303845 0.171023
748 2 0.428258 0.286627 0.228602
749 4 0.450518 0.29287 0.238126
1912 2 0.0620112 0.388032 0.198845
289 2 0.00791589 0.40118 0.23934
1914 4 0.0509333 0.409657 0.192943
2843 4 0.0440211 0.418816 0.177404
1913 4 0.0730892 0.366408 0.204748
603 4 0.091763 0.366169 0.197485
601 2 0.0995328 0.342995 0.202758
1224 4 0.21435 0.404731 0.182958
387 4 0.399585 0.338759 0.203957
385 2 0.414287 0.358892 0.205877
386 4 0.42899 0.379025 0.207796
2651 4 0.445887 0.387495 0.212729
2650 2 0.460569 0.406459 0.205657
621 4 0.0206464 0.468118 0.22484
619 2 0.0148299 0.485049 0.242295
3716 4 0.0102248 0.456804 0.211449
1757 4 0.0971702 0.460711 0.218293
1756 2 0.115778 0.460449 0.234991
313 2 0.178429 0.478237 0.254008
595 2 0.353239 0.414965 0.245524
597 4 0.338713 0.423701 0.227143
1863 4 0.403817 0.457663 0.232246
3684 4 0.404984 0.475745 0.240565
611 4 0.464737 0.432039 0.183605
2652 4 0.475251 0.425422 0.198586
1862 4 0.438819 0.422032 0.229791
1861 2 0.421318 0.439848 0.231018
118 3 0.469583 0.484233 0.180107
1755 4 0.0239509 0.00130307 0.296948
2585 4 0.0324071 0.0163742 0.283994
2584 2 0.0130454 0.0179992 0.268257
439 2 0.121131 0.0481772 0.297395
440 4 0.117514 0.0632777 0.277798
441 4 0.124748 0.0330767 0.316993
354 4 0.112095 0.0836422 0.280339
1338 4 0.127486 0.0315478 0.337402
631 2 0.238492 0.000660206 0.324553
497 4 0.262383 0.0794667 0.296806
496 2 0.263931 0.0560169 0.305344
498 4 0.265479 0.0325672 0.313881
467 4 0.257099 0.0743958 0.277422
632 4 0.257565 0.0166759 0.322338
333 4 0.406873 0.0460441 0.259463
3891 4 0.425436 0.0450478 0.253927
3889 2 0.440658 0.045177 0.273763
3890 4 0.45588 0.0453062 0.293599
708 4 0.468376 0.0444195 0.310179
706 2 0.46284 0.031161 0.330642
300 4 0.0254917 0.113433 0.309641
298 2 0.0284934 0.128188 0.329602
352 2 0.129436 0.0998533 0.272485
466 2 0.242386 0.0817536 0.258592
423 4 0.365407 0.10891 0.265256
2895 4 0.366902 0.117931 0.284072
2893 2 0.367754 0.112703 0.308508
2894 4 0.368606 0.107475 0.332944
338 4 0.182402 0.246828 0.319673
495 4 0.330397 0.214633 0.245264
2853 4 0.495052 0.19728 0.270099
2851 2 0.486349 0.220564 0.267401
2852 4 0.477646 0.243848 0.264703
2600 4 0.996599 0.269816 0.285952
2614 2 0.0587836 0.313036 0.283311
2616 4 0.0379679 0.324965 0.276271
2615 4 0.0795994 0.301106 0.290352
345 4 0.113269 0.266724 0.238283
4298 4 0.109145 0.326302 0.277589
4297 2 0.113951 0.325166 0.3021
4299 4 0.118756 0.324031 0.326611
507 4 0.201838 0.250803 0.317678
505 2 0.222774 0.250407 0.331342
509 4 0.252305 0.314696 0.253457
646 2 0.272328 0.278805 0.327987
2955 4 0.297825 0.284032 0.306207
2953 2 0.321304 0.289975 0.299996
647 4 0.284468 0.296662 0.315379
2954 4 0.344783 0.295918 0.293785
473 4 0.36163 0.296814 0.308361
472 2 0.373509 0.281162 0.323824
2935 2 0.479218 0.2986 0.328668
275 4 0.468969 0.293266 0.248909
2937 4 0.467685 0.316411 0.315441
274 2 0.468246 0.301761 0.272414
276 4 0.467524 0.310256 0.295919
1821 4 0.0263182 0.381136 0.264755
459 4 0.0702401 0.330314 0.330071
290 4 0.0181436 0.400156 0.262133
1819 2 0.0367954 0.358465 0.263561
457 2 0.0580313 0.352116 0.32918
1820 4 0.0472726 0.335794 0.262368
458 4 0.0458224 0.373918 0.328289
248 4 0.312047 0.353184 0.295824
1430 4 0.331539 0.357624 0.300445
247 2 0.302823 0.343345 0.316879
1429 2 0.344259 0.3759 0.289072
1431 4 0.356979 0.394177 0.277699
596 4 0.367766 0.40623 0.263905
1530 4 0.437633 0.415194 0.247553
1529 4 0.457437 0.383994 0.281244
1528 2 0.447535 0.399594 0.264399
812 4 0.455731 0.370963 0.296779
811 2 0.453214 0.382441 0.318849
620 4 0.00901344 0.50198 0.25975
680 4 0.0138658 0.437511 0.333968
1809 4 0.0952185 0.501101 0.284835
1787 4 0.14955 0.464704 0.316511
1788 4 0.13311 0.469079 0.269486
1758 4 0.134387 0.460188 0.25169
1786 2 0.14133 0.466892 0.292998
569 4 0.135497 0.473814 0.325788
315 4 0.179481 0.453967 0.259925
413 4 0.196096 0.444611 0.267283
412 2 0.217285 0.448205 0.280062
414 4 0.238474 0.451799 0.292841
3682 2 0.411941 0.484544 0.262911
3683 4 0.418898 0.493342 0.285258
1585 2 0.419743 0.487709 0.320685
1336 2 0.129517 0.0069301 0.333526
1200 4 0.247513 0.0780366 0.394731
1516 2 0.323114 0.0561614 0.404598
1518 4 0.302641 0.0614348 0.417949
1198 2 0.2707 0.0785531 0.404074
430 2 0.382338 0.0543247 0.400478
431 4 0.401397 0.0580785 0.416221
432 4 0.363278 0.0505708 0.384736
1517 4 0.343587 0.050888 0.391248
489 4 0.446803 0.0149323 0.367253
707 4 0.457303 0.0179024 0.351105
299 4 0.0314951 0.142944 0.349563
792 4 0.231674 0.0871353 0.387435
790 2 0.214862 0.103088 0.39682
791 4 0.198051 0.119041 0.406204
1199 4 0.293886 0.0790696 0.413418
278 4 0.364848 0.100304 0.351625
277 2 0.373486 0.10877 0.373508
279 4 0.382125 0.117235 0.395392
2657 4 0.368999 0.132007 0.393837
2656 2 0.366692 0.14804 0.412884
2533 2 0.074222 0.201204 0.392774
2535 4 0.0592551 0.221217 0.393591
1151 4 0.0666961 0.239021 0.398566
2534 4 0.0891888 0.181191 0.391957
347 4 0.123419 0.169124 0.335945
348 4 0.0942077 0.184779 0.373393
346 2 0.108813 0.176951 0.354669
339 4 0.158799 0.221118 0.355487
261 4 0.175957 0.219165 0.364721
506 4 0.243709 0.250011 0.345007
337 2 0.170601 0.233973 0.33758
259 2 0.183706 0.206214 0.384655
260 4 0.191456 0.193262 0.404589
372 4 0.206533 0.179535 0.410563
1210 2 0.318115 0.229684 0.405206
599 4 0.284408 0.231392 0.42586
1211 4 0.294944 0.222575 0.411348
804 4 0.352909 0.239388 0.383497
1212 4 0.341287 0.236793 0.399064
1150 2 0.0522456 0.259407 0.399455
1152 4 0.0377951 0.279792 0.400343
648 4 0.260188 0.260949 0.340594
737 4 0.268011 0.336511 0.399063
736 2 0.28231 0.336564 0.378551
738 4 0.296608 0.336618 0.35804
802 2 0.372181 0.246289 0.36914
803 4 0.391453 0.25319 0.354782
474 4 0.385389 0.265511 0.339287
2936 4 0.49075 0.28079 0.341896
1193 4 0.472976 0.259524 0.381063
1192 2 0.459189 0.276285 0.39348
1194 4 0.445402 0.293045 0.405897
1220 4 0.0385312 0.390335 0.337382
1219 2 0.0538939 0.402006 0.353286
1221 4 0.0692567 0.413678 0.36919
1397 4 0.107052 0.333862 0.338688
1396 2 0.118233 0.350981 0.353079
1398 4 0.129414 0.3681 0.36747
678 4 0.119356 0.380581 0.377139
676 2 0.118736 0.405219 0.372927
538 2 0.213143 0.41179 0.412727
249 4 0.293599 0.333507 0.337934
871 2 0.325523 0.379086 0.408882
1473 4 0.310182 0.405747 0.36403
768 4 0.247833 0.420187 0.393032
873 4 0.302021 0.376431 0.416991
613 2 0.384566 0.390597 0.400521
615 4 0.407709 0.38158 0.39764
872 4 0.349026 0.381742 0.400773
614 4 0.361424 0.399614 0.403402
266 4 0.42553 0.391555 0.398772
813 4 0.450697 0.39392 0.340919
265 2 0.438046 0.38548 0.377997
267 4 0.450562 0.379406 0.357221
1737 4 0.996064 0.454243 0.42534
1640 4 0.00991548 0.452209 0.348347
2529 4 0.0645406 0.434042 0.371424
1639 2 0.0315673 0.464508 0.346085
2527 2 0.0605908 0.439469 0.39551
1641 4 0.0532191 0.476806 0.343823
1445 4 0.0659909 0.489115 0.35451
1444 2 0.0831511 0.495875 0.371393
568 2 0.132123 0.460055 0.346391
677 4 0.118116 0.429858 0.368715
1446 4 0.100311 0.502634 0.388275
936 4 0.108485 0.489889 0.401199
570 4 0.12875 0.446296 0.366994
540 4 0.232339 0.425465 0.40438
1471 2 0.330413 0.42026 0.361727
767 4 0.293507 0.410258 0.375255
766 2 0.27067 0.415222 0.384143
560 4 0.3525 0.450623 0.34821
559 2 0.375101 0.461087 0.345996
561 4 0.397701 0.471551 0.343783
1472 4 0.350643 0.434772 0.359425
1587 4 0.417593 0.471349 0.339471
2458 2 0.0510358 0.0239044 0.483341
2460 4 0.0497609 0.0173895 0.459235
1602 4 0.125487 0.0264487 0.466772
1600 2 0.119742 0.0496831 0.459538
1601 4 0.113997 0.0729176 0.452303
1428 4 0.341914 0.993335 0.491191
1216 2 0.310957 0.062137 0.485697
1217 4 0.30574 0.0389396 0.477962
257 4 0.418955 0.0607918 0.407148
256 2 0.438573 0.0669997 0.421353
258 4 0.45819 0.0732077 0.435559
900 4 0.474493 0.0805933 0.444453
898 2 0.474007 0.0806778 0.469451
1033 2 0.00614832 0.158351 0.424636
1035 4 0.0177408 0.137668 0.432573
471 4 0.00369696 0.123792 0.435628
723 4 0.0726569 0.148465 0.454535
721 2 0.0524459 0.157803 0.465915
722 4 0.032235 0.167141 0.477294
734 4 0.0882505 0.136086 0.455564
733 2 0.100377 0.114294 0.457363
735 4 0.112504 0.0925022 0.459162
716 4 0.165514 0.147992 0.472599
240 4 0.192726 0.135561 0.416879
239 4 0.174894 0.15874 0.457443
238 2 0.18381 0.147151 0.437161
1024 2 0.392312 0.148305 0.462
2658 4 0.364386 0.164074 0.431931
1026 4 0.377315 0.162503 0.447905
899 4 0.473521 0.0807622 0.49445
1025 4 0.40731 0.134107 0.476095
3158 4 0.426722 0.137466 0.472818
3157 2 0.432313 0.119354 0.489124
1490 4 0.0286385 0.153765 0.491029
1034 4 0.994556 0.179034 0.416699
715 2 0.154378 0.165661 0.486346
502 2 0.123834 0.22277 0.490585
503 4 0.11191 0.244533 0.487524
370 2 0.220042 0.187349 0.430099
371 4 0.23355 0.195164 0.449634
600 4 0.248681 0.206073 0.450009
598 2 0.266544 0.218732 0.437934
383 4 0.112209 0.263076 0.480988
382 2 0.112419 0.286612 0.472551
384 4 0.112629 0.310149 0.464114
1178 4 0.110056 0.319312 0.445931
374 4 0.398378 0.266162 0.467377
373 2 0.380002 0.282443 0.462641
650 4 0.353226 0.299071 0.475904
375 4 0.361627 0.298725 0.457905
649 2 0.341646 0.321036 0.478841
1167 4 0.404846 0.279542 0.482156
1010 4 0.437241 0.296394 0.423871
1009 2 0.444084 0.314168 0.440071
1011 4 0.450927 0.331942 0.45627
1177 2 0.118899 0.342689 0.445229
1179 4 0.127741 0.366066 0.444527
696 4 0.145718 0.374659 0.446068
695 4 0.185578 0.403863 0.438387
539 4 0.193946 0.398116 0.421074
694 2 0.165648 0.389261 0.442228
728 4 0.24307 0.381766 0.439245
651 4 0.330067 0.343001 0.481778
727 2 0.267963 0.381195 0.436969
729 4 0.292856 0.380623 0.434693
2455 2 0.489645 0.35171 0.45407
2456 4 0.467702 0.340696 0.449341
2528 4 0.0566409 0.444896 0.419595
1122 4 0.0876854 0.450508 0.471009
1121 4 0.0635645 0.430587 0.431995
1120 2 0.0756249 0.440548 0.451502
935 4 0.117847 0.475739 0.44824
3354 4 0.107547 0.447415 0.476545
934 2 0.113166 0.482814 0.42472
1682 4 0.132585 0.470789 0.462195
1681 2 0.137662 0.486959 0.480579
1173 4 0.212661 0.433973 0.502837
1399 2 0.389344 0.45256 0.455777
1401 4 0.375127 0.471751 0.463177
1400 4 0.403562 0.433369 0.448378
2436 4 0.375097 0.49149 0.464044
1453 2 0.428639 0.416147 0.482295
1455 4 0.416917 0.426056 0.462558
851 4 0.0497315 0.0206554 0.52495
850 2 0.0428984 0.998307 0.533841
2459 4 0.0523106 0.0304193 0.507448
2017 2 0.22342 0.999056 0.535253
2018 4 0.241856 0.00125496 0.518507
1218 4 0.316174 0.0853345 0.493433
1141 2 0.431581 0.0587415 0.510255
1143 4 0.434019 0.0339103 0.51188
1142 4 0.429142 0.0835727 0.508629
411 4 0.440424 0.019807 0.525734
1489 2 0.007263 0.154256 0.503992
856 2 0.125136 0.107138 0.57172
858 4 0.145833 0.121149 0.572439
887 4 0.162387 0.129574 0.5627
857 4 0.104439 0.0931278 0.571001
886 2 0.186087 0.127651 0.570431
888 4 0.209787 0.125727 0.578163
1059 4 0.319738 0.0980821 0.508232
1058 4 0.343123 0.105039 0.551884
1262 4 0.359956 0.149578 0.54495
1086 4 0.376426 0.150309 0.5327
1057 2 0.331431 0.101561 0.530058
1084 2 0.394716 0.167066 0.535836
1261 2 0.347878 0.159506 0.564463
3159 4 0.437903 0.101243 0.50543
641 4 0.477396 0.149295 0.577169
640 2 0.496274 0.134168 0.583492
2653 2 0.998652 0.18944 0.568516
2654 4 0.022517 0.191806 0.561441
3265 2 0.0499968 0.209878 0.568335
3266 4 0.038718 0.196432 0.550526
3267 4 0.0612757 0.223324 0.586144
504 4 0.135758 0.201007 0.493647
717 4 0.143242 0.18333 0.500093
1085 4 0.413007 0.183823 0.538972
711 4 0.363742 0.225643 0.551903
709 2 0.353069 0.238952 0.533623
710 4 0.342396 0.252261 0.515344
890 4 0.354451 0.213605 0.564956
2506 2 0.446313 0.168426 0.559203
2508 4 0.430947 0.175764 0.540894
3128 4 0.00914252 0.336946 0.559556
3127 2 0.997141 0.330849 0.580627
815 4 0.329156 0.327278 0.52357
801 4 0.411207 0.269482 0.583619
799 2 0.424444 0.27169 0.562522
1166 4 0.435173 0.277472 0.521864
800 4 0.437682 0.273898 0.541425
1165 2 0.42001 0.278507 0.50201
1259 4 0.131692 0.341361 0.57666
3262 2 0.127272 0.40379 0.534887
3264 4 0.144985 0.386174 0.533847
1260 4 0.144787 0.365442 0.534835
1258 2 0.138239 0.353401 0.555747
616 2 0.250217 0.395857 0.575788
617 4 0.240508 0.408841 0.556753
816 4 0.326272 0.360485 0.560848
814 2 0.327714 0.343881 0.542209
1239 4 0.32687 0.397945 0.495664
1237 2 0.338416 0.41212 0.51272
1136 4 0.331342 0.362465 0.579262
661 2 0.433283 0.389362 0.536877
663 4 0.427171 0.400644 0.515417
662 4 0.439396 0.37808 0.558337
3380 4 0.442295 0.366064 0.574216
983 4 0.0315355 0.469886 0.528247
982 2 0.0151535 0.459785 0.512285
3513 4 0.029869 0.48664 0.540191
3263 4 0.109558 0.421406 0.535927
3353 4 0.0988112 0.432258 0.523392
3352 2 0.103179 0.439836 0.499968
3431 4 0.193822 0.478747 0.556143
3430 2 0.192578 0.50279 0.562892
1171 2 0.189222 0.440431 0.508677
1172 4 0.165784 0.44689 0.514516
1238 4 0.349962 0.426296 0.529777
335 4 0.348595 0.444878 0.52582
334 2 0.35393 0.469228 0.527764
1454 4 0.440362 0.406237 0.502033
864 4 0.0325265 0.0782997 0.635738
862 2 0.00927758 0.0871593 0.633254
2132 4 0.108009 0.0749591 0.579668
2131 2 0.106938 0.0523244 0.590237
2133 4 0.105867 0.0296897 0.600806
3731 4 0.122361 0.018128 0.596146
3730 2 0.143853 0.0147417 0.608468
46 1 0.152769 0.063311 0.658071
50 3 0.158758 0.0471173 0.643221
3732 4 0.165345 0.0113554 0.62079
49 3 0.159864 0.0840501 0.650459
843 4 0.175628 0.00775161 0.602445
2299 2 0.325598 0.00463812 0.649149
1050 4 0.333349 0.0445704 0.643861
2301 4 0.335083 0.0248182 0.637837
1048 2 0.343495 0.0652462 0.634127
1162 2 0.48092 0.0411277 0.637946
1163 4 0.468339 0.0612213 0.629999
1164 4 0.4935 0.0210341 0.645893
3467 4 0.498818 0.00566616 0.657075
726 4 0.450136 0.0637622 0.637436
1271 4 0.0664472 0.0916359 0.606945
1270 2 0.0742408 0.113292 0.616714
1272 4 0.0820343 0.134949 0.626483
1523 4 0.100455 0.135947 0.618131
1522 2 0.116654 0.153989 0.612029
831 4 0.207492 0.118367 0.596319
830 4 0.207556 0.119744 0.646307
516 4 0.217442 0.138079 0.650966
829 2 0.207524 0.119055 0.621313
514 2 0.232581 0.151485 0.665672
1049 4 0.353641 0.0859219 0.624392
3425 4 0.365187 0.102119 0.620183
3424 2 0.387606 0.110075 0.627883
3426 4 0.410025 0.118031 0.635582
2507 4 0.461678 0.161088 0.577513
725 4 0.425103 0.10651 0.644269
724 2 0.43762 0.0851361 0.640853
821 4 0.0770597 0.235074 0.590737
820 2 0.0769678 0.230711 0.615357
822 4 0.0768759 0.226349 0.639977
1068 4 0.0736488 0.244246 0.648099
1524 4 0.132854 0.17203 0.605926
2915 4 0.145644 0.183397 0.616452
2914 2 0.149601 0.205862 0.626691
2916 4 0.153559 0.228327 0.636931
1284 4 0.138987 0.239982 0.64013
1263 4 0.335801 0.169434 0.583975
960 4 0.298884 0.187861 0.64655
1394 4 0.302155 0.202419 0.632504
1393 2 0.31554 0.194365 0.612981
1395 4 0.328925 0.186311 0.593459
891 4 0.383764 0.227843 0.602887
889 2 0.369108 0.220724 0.583921
667 2 0.142852 0.317488 0.601504
669 4 0.137123 0.297714 0.615695
1283 4 0.145569 0.279555 0.610274
1282 2 0.142278 0.259769 0.625202
805 2 0.314476 0.320502 0.65287
807 4 0.314163 0.33362 0.631587
798 4 0.398834 0.278778 0.596492
796 2 0.386834 0.29495 0.611313
797 4 0.374835 0.311123 0.626134
1007 4 0.368086 0.324284 0.640929
3097 2 0.471076 0.259001 0.646225
3066 4 0.447903 0.292819 0.641035
3064 2 0.440429 0.315748 0.634432
3099 4 0.450463 0.272716 0.642733
3065 4 0.432955 0.338677 0.627829
3098 4 0.49169 0.245287 0.649716
668 4 0.148581 0.337261 0.587314
2242 2 0.147909 0.385075 0.666202
2244 4 0.125298 0.39549 0.668534
2243 4 0.17052 0.374659 0.663871
3114 4 0.166971 0.356403 0.667532
618 4 0.259927 0.382874 0.594823
1229 4 0.277092 0.373059 0.595838
1228 2 0.271022 0.372286 0.620081
1230 4 0.264951 0.371514 0.644324
1135 2 0.323645 0.357423 0.602512
2309 4 0.276911 0.373676 0.660446
1137 4 0.315949 0.352381 0.625761
1006 2 0.373836 0.336628 0.661899
3381 4 0.422335 0.351561 0.617712
3379 2 0.432315 0.358813 0.595964
2173 2 0.487841 0.497427 0.580977
1267 2 0.49929 0.488034 0.661037
1782 4 0.0512052 0.060979 0.685866
2316 4 0.057098 0.0434614 0.678671
2314 2 0.0678642 0.0232434 0.688696
1780 2 0.0410978 0.0832094 0.680496
2315 4 0.0786305 0.00302546 0.698721
48 3 0.129735 0.0633573 0.660873
47 3 0.16272 0.0590353 0.678365
943 2 0.169673 0.0474644 0.719057
945 4 0.165118 0.0415899 0.74293
944 4 0.174229 0.0533388 0.695184
4549 2 0.494022 0.0730578 0.695967
845 4 0.424708 0.00268895 0.737971
1202 4 0.996853 0.150518 0.724842
1781 4 0.0309903 0.10544 0.675127
965 4 0.0382844 0.119179 0.686218
964 2 0.0267778 0.130417 0.705361
966 4 0.0152712 0.141655 0.724505
3235 2 0.132447 0.162536 0.689809
3236 4 0.154377 0.151172 0.693696
977 4 0.165493 0.0919897 0.669223
976 2 0.165984 0.116018 0.676122
978 4 0.166475 0.140046 0.683021
1226 4 0.236742 0.141406 0.735171
1225 2 0.221947 0.159137 0.725584
1044 4 0.252632 0.141341 0.723171
1042 2 0.26296 0.127496 0.741249
3356 4 0.377973 0.111039 0.736006
916 2 0.358285 0.123729 0.70416
918 4 0.3612 0.118111 0.72835
917 4 0.35537 0.129347 0.679971
4550 4 0.486225 0.0917758 0.710596
4466 4 0.467099 0.0997693 0.71152
4465 2 0.46842 0.116839 0.729743
1080 4 0.0674738 0.195634 0.74362
962 4 0.0699422 0.195892 0.723233
893 4 0.0160215 0.221208 0.726857
961 2 0.0800198 0.185741 0.702725
892 2 0.0369854 0.232801 0.719695
1066 2 0.0724675 0.243595 0.673066
1067 4 0.0712863 0.242945 0.698033
3237 4 0.110517 0.173899 0.685922
963 4 0.0900974 0.17559 0.682217
515 4 0.247721 0.164891 0.680377
1227 4 0.207152 0.176868 0.715997
958 2 0.282935 0.179127 0.663712
959 4 0.266985 0.170393 0.680873
894 4 0.0579493 0.244395 0.712534
838 2 0.101555 0.255564 0.744083
839 4 0.113563 0.250797 0.722676
1130 4 0.131709 0.24324 0.721754
1129 2 0.147333 0.261189 0.714078
1039 2 0.148089 0.314324 0.720903
1040 4 0.152657 0.289744 0.721263
1131 4 0.162956 0.279138 0.706401
10 3 0.220942 0.315501 0.689394
9 3 0.206383 0.289062 0.711904
7 3 0.209464 0.324609 0.723719
6 1 0.219379 0.30826 0.71093
8 3 0.24055 0.303932 0.719384
3113 4 0.20503 0.32848 0.684041
806 4 0.314789 0.307383 0.674153
942 4 0.287073 0.285903 0.748443
940 2 0.273838 0.264853 0.745814
499 2 0.0139508 0.371216 0.679259
501 4 0.0272176 0.364602 0.699394
3077 4 0.032291 0.382779 0.705413
3076 2 0.0502145 0.374674 0.720848
3078 4 0.068138 0.366569 0.736283
948 4 0.0837926 0.354218 0.740092
946 2 0.107424 0.353999 0.731925
1041 4 0.143522 0.338904 0.720544
947 4 0.131055 0.35378 0.723758
3112 2 0.186 0.342441 0.675787
2308 2 0.27631 0.394988 0.673507
1008 4 0.379585 0.348971 0.68287
2121 4 0.396053 0.35777 0.688451
2119 2 0.392374 0.368129 0.710909
2120 4 0.388695 0.378488 0.733366
1936 2 0.0653204 0.462671 0.727214
1938 4 0.0549837 0.468512 0.705209
991 2 0.15231 0.473692 0.751043
993 4 0.16074 0.491457 0.7356
1904 4 0.215329 0.463121 0.722989
2360 4 0.179758 0.492074 0.727388
2014 2 0.287508 0.435183 0.724762
2016 4 0.292782 0.442283 0.748149
2310 4 0.27571 0.416301 0.686569
2015 4 0.282234 0.428083 0.701375
2373 4 0.292034 0.482783 0.72573
2742 4 0.392809 0.487008 0.681465
2740 2 0.386206 0.490307 0.705354
2741 4 0.379603 0.493605 0.729243
2027 4 0.409391 0.497955 0.676939
2028 4 0.458878 0.493308 0.682428
1269 4 0.477268 0.488548 0.672866
2026 2 0.434134 0.495631 0.679684
926 4 0.469181 0.474321 0.706051
925 2 0.465957 0.474406 0.730846
927 4 0.462734 0.474492 0.755641
2265 4 0.00190944 0.0413546 0.763249
2270 4 0.0204805 0.0369925 0.770305
2269 2 0.0257813 0.0125573 0.770267
908 4 0.159658 0.0458054 0.761609
907 2 0.157112 0.0219499 0.768653
909 4 0.154566 0.998094 0.775696
44 3 0.386195 0.0690138 0.810998
41 1 0.407655 0.0740099 0.803726
818 4 0.386657 0.0766596 0.830613
45 3 0.419024 0.0547852 0.799275
1091 4 0.432544 0.0160805 0.749996
1092 4 0.425526 0.0554883 0.77997
1090 2 0.429035 0.0357844 0.764983
3008 4 0.275407 0.130445 0.813342
1043 4 0.273288 0.113652 0.759328
3009 4 0.260035 0.107448 0.771681
3007 2 0.267721 0.118946 0.792511
1095 4 0.263663 0.148679 0.812258
3355 2 0.386326 0.106657 0.759162
42 3 0.406257 0.0866034 0.784527
3357 4 0.394678 0.102275 0.782318
43 3 0.41886 0.0862625 0.819934
2051 4 0.414059 0.15445 0.821913
2050 2 0.418186 0.129791 0.822221
2052 4 0.422312 0.105132 0.82253
4467 4 0.469741 0.133908 0.747966
1063 2 0.485131 0.151777 0.772069
1064 4 0.464784 0.138331 0.766557
3028 2 0.0336634 0.198807 0.8055
2047 2 0.0505505 0.245799 0.773451
3029 4 0.0247917 0.221126 0.798547
2049 4 0.0313872 0.233205 0.783418
2048 4 0.0697138 0.258394 0.763485
3030 4 0.0425351 0.176489 0.812453
2998 2 0.106322 0.170781 0.814987
3000 4 0.102941 0.174134 0.790441
1078 2 0.0866606 0.191341 0.759067
1079 4 0.105847 0.187048 0.774514
840 4 0.0895477 0.260332 0.76549
60 3 0.291544 0.23308 0.821063
903 4 0.323601 0.202291 0.831413
941 4 0.260603 0.243803 0.743185
901 2 0.347886 0.207905 0.829434
902 4 0.37217 0.213519 0.827455
1195 2 0.00787854 0.316345 0.798249
1197 4 0.0250101 0.311603 0.815833
780 4 0.0134786 0.314576 0.830979
1243 2 0.175663 0.307979 0.770678
1245 4 0.160864 0.288098 0.767371
1098 4 0.302888 0.296036 0.74404
1096 2 0.312723 0.313579 0.758896
3491 4 0.508086 0.289852 0.804767
3490 2 0.485362 0.288758 0.815141
2000 4 0.0197201 0.380614 0.771794
395 4 0.0285189 0.384464 0.78866
394 2 0.0472443 0.386948 0.805042
1191 4 0.0809623 0.402062 0.818496
396 4 0.0659697 0.389431 0.821424
1189 2 0.105724 0.403519 0.821648
1190 4 0.130485 0.404975 0.8248
849 4 0.14328 0.419242 0.82869
847 2 0.160569 0.40947 0.813499
1244 4 0.190462 0.327859 0.773986
1209 4 0.193116 0.407347 0.789861
848 4 0.177858 0.399698 0.798308
1097 4 0.322557 0.331123 0.773752