ITEM: TIMESTEP
670000
ITEM: NUMBER OF ATOMS
4590
ITEM: BOX BOUNDS pp pp pp
-9.9985700000000008e+00 9.9985700000000008e+00
-9.9985700000000008e+00 9.9985700000000008e+00
-9.9985700000000008e+00 9.9985700000000008e+00
ITEM: ATOMS id type xs ys zs
589 2 0.999921 0.059256 0.0324233
590 4 0.00373839 0.0833562 0.0378809
532 2 0.11157 0.00293466 0.0330586
464 4 0.106725 0.02168 0.00153186
534 4 0.0966375 0.0153349 0.0172969
2163 4 0.226293 0.00722917 0.0514686
2161 2 0.240463 0.00777288 0.030875
2162 4 0.254633 0.00831659 0.0102813
484 2 0.338631 0.0285193 0.99467
486 4 0.329381 0.0513505 0.998955
1608 4 0.377245 0.00998384 0.026589
1606 2 0.395371 0.0147857 0.0100487
485 4 0.347881 0.0056881 0.990385
1760 4 0.478228 0.0749442 0.063645
2976 4 0.498626 0.0338592 0.000431562
1109 4 0.47912 0.0318381 0.999489
995 4 0.150268 0.124738 0.0727703
994 2 0.139071 0.129166 0.0508566
996 4 0.127875 0.133594 0.028943
423 4 0.219298 0.11868 0.0722015
867 4 0.242266 0.139657 0.0314571
360 4 0.241742 0.118555 0.034514
865 2 0.244538 0.16411 0.0361524
358 2 0.249146 0.10049 0.0188938
581 4 0.272854 0.0872999 0.992062
359 4 0.25655 0.082424 0.00327371
769 2 0.395186 0.149158 0.0510641
770 4 0.395881 0.132628 0.0323168
255 4 0.408033 0.139918 0.018401
253 2 0.416636 0.12587 0.999591
2770 2 0.0192722 0.23475 0.0209429
2772 4 0.0353018 0.228938 0.00265485
1252 2 0.210526 0.210547 0.0345375
1254 4 0.187574 0.217853 0.0278267
1253 4 0.233477 0.203241 0.0412483
54 3 0.243338 0.220798 0.0430543
866 4 0.246811 0.188564 0.0408476
53 3 0.268134 0.219784 0.0718387
51 1 0.264425 0.213789 0.0497319
55 3 0.266207 0.191205 0.0474017
52 3 0.280205 0.22404 0.0364998
356 4 0.299641 0.234074 0.0383532
771 4 0.39449 0.165687 0.0698114
566 4 0.379128 0.178529 0.0720215
565 2 0.389618 0.199659 0.0803084
665 4 0.402974 0.232809 0.0719103
567 4 0.400109 0.220788 0.0885952
655 2 0.0707496 0.273519 0.0616608
656 4 0.057806 0.286484 0.0786772
657 4 0.0836932 0.260554 0.0446444
294 4 0.0969336 0.268217 0.0319794
292 2 0.121307 0.264825 0.0275529
288 4 0.160369 0.256423 0.0113664
293 4 0.145681 0.261433 0.0231264
505 2 0.233269 0.302109 0.045013
506 4 0.223041 0.323786 0.0378943
507 4 0.243497 0.280433 0.0521318
354 4 0.231342 0.264967 0.0555584
352 2 0.220109 0.251382 0.0732921
355 2 0.304338 0.250923 0.0562201
357 4 0.309034 0.267772 0.0740871
624 4 0.3208 0.283739 0.0757123
955 2 0.3197 0.324979 0.0271455
956 4 0.306482 0.309124 0.0412552
664 2 0.392145 0.253722 0.0803106
622 2 0.345796 0.284253 0.0754359
666 4 0.381317 0.274635 0.088711
623 4 0.370793 0.284767 0.0751595
670 2 0.496854 0.308714 0.994254
2785 2 0.0538589 0.407285 0.0802183
2787 4 0.0630752 0.384736 0.0858559
328 2 0.103361 0.396557 0.00928106
330 4 0.112782 0.407617 0.0296304
756 4 0.210526 0.337885 0.0437688
754 2 0.193903 0.355183 0.0367242
755 4 0.177279 0.372481 0.0296795
241 2 0.243547 0.4082 0.0581899
242 4 0.222869 0.419635 0.0500121
243 4 0.264224 0.396766 0.0663678
739 2 0.326549 0.398254 0.054851
741 4 0.303094 0.404711 0.0606256
957 4 0.332919 0.340834 0.0130358
740 4 0.350004 0.391796 0.0490764
2387 4 0.368792 0.393103 0.0440116
2386 2 0.368985 0.404966 0.022002
495 4 0.409269 0.344766 0.0694743
1070 4 0.33952 0.347428 0.996167
523 2 0.431441 0.38024 0.0763636
525 4 0.423481 0.35668 0.073764
524 4 0.4394 0.403799 0.0789632
1674 4 0.426636 0.413579 0.0668113
2786 4 0.0446426 0.429834 0.0745807
314 4 0.0467192 0.445211 0.0622077
313 2 0.0526655 0.467235 0.0724414
1788 4 0.0450838 0.499165 0.0928274
551 4 0.117804 0.425715 0.0326254
550 2 0.120595 0.427851 0.0573808
552 4 0.123386 0.429987 0.0821361
1289 4 0.152813 0.427836 0.0370346
1288 2 0.174953 0.42755 0.0254194
1290 4 0.197093 0.427265 0.0138042
1777 2 0.230682 0.476467 0.0843075
483 4 0.334173 0.44408 0.0193913
1317 4 0.309436 0.486954 0.022816
481 2 0.346401 0.464934 0.0257762
482 4 0.358629 0.485788 0.0321611
228 4 0.439818 0.474611 0.050286
226 2 0.45176 0.488691 0.0334247
1673 4 0.424256 0.461368 0.0522761
1672 2 0.425446 0.437474 0.0595437
449 4 0.0849265 0.0641104 0.12523
688 2 0.148402 0.0187395 0.170868
690 4 0.17275 0.0154189 0.16625
1505 4 0.32369 0.0351426 0.114713
1504 2 0.323108 0.0102058 0.116445
653 4 0.337417 0.0445142 0.12732
652 2 0.35805 0.0445835 0.141442
654 4 0.378683 0.0446527 0.155565
1497 4 0.390553 0.00228879 0.140241
1759 2 0.473509 0.082919 0.0868683
758 4 0.477693 0.0787704 0.124192
448 2 0.0781139 0.088156 0.125989
18 3 0.0746212 0.128755 0.137524
450 4 0.0713014 0.112202 0.126749
701 4 0.134717 0.111611 0.0825197
20 3 0.0948531 0.160051 0.132153
700 2 0.127705 0.119858 0.105059
16 1 0.0918979 0.141944 0.145646
702 4 0.120694 0.128105 0.127598
17 3 0.111239 0.129495 0.145964
421 2 0.212846 0.138122 0.0865389
422 4 0.206394 0.157564 0.100876
476 4 0.195365 0.170416 0.0913185
237 4 0.26312 0.137145 0.139213
460 2 0.330357 0.105277 0.0997818
461 4 0.307955 0.115435 0.0952931
236 4 0.292188 0.1134 0.106168
573 4 0.251935 0.146962 0.152111
235 2 0.277654 0.125272 0.122691
462 4 0.352758 0.095118 0.104271
629 4 0.367169 0.0808738 0.101373
628 2 0.386659 0.09647 0.102817
630 4 0.406149 0.112066 0.10426
1761 4 0.468791 0.0908938 0.110092
557 4 0.418011 0.108764 0.120557
757 2 0.489327 0.0869645 0.144751
556 2 0.429445 0.130935 0.118864
558 4 0.44088 0.153106 0.11717
759 4 0.500961 0.0951585 0.165311
2760 4 0.1069 0.174838 0.12646
2758 2 0.102299 0.199353 0.12472
381 4 0.108864 0.232296 0.109841
2759 4 0.0976978 0.223868 0.122979
379 2 0.128694 0.242324 0.0983774
353 4 0.208877 0.237798 0.0910257
477 4 0.199828 0.219759 0.0981032
475 2 0.197597 0.195087 0.0947109
396 4 0.0500944 0.277594 0.095269
394 2 0.0633824 0.279991 0.116313
395 4 0.0766704 0.282387 0.137358
363 4 0.0589108 0.285786 0.147086
380 4 0.148523 0.252351 0.0869135
610 2 0.208523 0.311392 0.121637
611 4 0.186039 0.31783 0.112793
612 4 0.231006 0.304954 0.130482
13 3 0.37907 0.324644 0.120331
14 3 0.351752 0.322106 0.146631
11 1 0.356569 0.320328 0.124003
15 3 0.351347 0.299447 0.116563
12 3 0.344051 0.335821 0.112495
517 2 0.463046 0.277558 0.124043
519 4 0.471512 0.28773 0.145258
528 4 0.470393 0.299228 0.161912
518 4 0.45458 0.267386 0.102829
526 2 0.494848 0.295321 0.165355
627 4 0.175718 0.326428 0.126824
625 2 0.168672 0.343058 0.144115
252 4 0.197617 0.405976 0.129174
536 4 0.179651 0.410344 0.136631
535 2 0.174552 0.411139 0.161096
494 4 0.375471 0.339971 0.106018
387 4 0.356326 0.347946 0.105638
385 2 0.34918 0.371861 0.104154
386 4 0.342033 0.395775 0.102669
493 2 0.39237 0.342368 0.0877463
658 2 0.399072 0.409032 0.150249
660 4 0.375461 0.409964 0.158425
659 4 0.422683 0.4081 0.142074
597 4 0.428767 0.390948 0.148728
2652 4 0.476305 0.350523 0.128761
596 4 0.466639 0.35855 0.144634
595 2 0.447703 0.374749 0.146681
315 4 0.0586117 0.48926 0.082675
1779 4 0.217983 0.456215 0.091639
250 2 0.204635 0.421809 0.11114
251 4 0.211653 0.437643 0.0931064
1440 4 0.195718 0.514195 0.130155
511 2 0.0128507 0.0525365 0.238439
1463 4 0.0760575 0.0598551 0.182572
512 4 0.0362334 0.0532469 0.247266
1464 4 0.101138 0.0344406 0.217583
1462 2 0.0885978 0.0471479 0.200078
689 4 0.124054 0.0220602 0.175486
296 4 0.412096 0.00914357 0.202152
295 2 0.397849 0.0289135 0.207749
297 4 0.383601 0.0486834 0.213346
22 3 0.384396 0.0679724 0.20821
2723 4 0.429835 0.0200887 0.202726
744 4 0.435301 0.0811626 0.230572
2722 2 0.44859 0.0229739 0.186444
2724 4 0.467344 0.0258591 0.170161
23 3 0.414951 0.0749344 0.228961
674 4 0.085455 0.104618 0.186308
19 3 0.0870833 0.148878 0.167259
673 2 0.109974 0.103992 0.191168
578 4 0.144356 0.119857 0.202483
675 4 0.134493 0.103367 0.196027
577 2 0.156511 0.13881 0.19161
579 4 0.168666 0.157763 0.180738
571 2 0.245834 0.143154 0.176058
572 4 0.239733 0.139347 0.200005
633 4 0.327216 0.155689 0.21314
631 2 0.321724 0.157791 0.237442
764 4 0.340645 0.151053 0.198194
21 1 0.401543 0.0828873 0.211775
25 3 0.39281 0.103135 0.217467
310 2 0.415922 0.155022 0.193887
311 4 0.391795 0.159618 0.189199
763 2 0.360941 0.162131 0.188677
24 3 0.413974 0.0848249 0.192278
312 4 0.440048 0.150426 0.198574
333 4 0.449742 0.132144 0.195073
331 2 0.468804 0.119257 0.185288
332 4 0.487867 0.106371 0.175504
705 4 0.02056 0.213657 0.234726
703 2 0.0304199 0.236362 0.238256
2615 4 0.00222292 0.21544 0.22555
370 2 0.160605 0.253702 0.204885
546 4 0.165118 0.17601 0.26305
693 4 0.179789 0.174026 0.181818
691 2 0.180735 0.195503 0.194587
692 4 0.181681 0.216979 0.207357
372 4 0.169285 0.230519 0.201363
738 4 0.205944 0.223204 0.161907
736 2 0.213663 0.244159 0.173154
765 4 0.381236 0.173209 0.179161
361 2 0.0639313 0.29119 0.170977
362 4 0.0689518 0.296594 0.194868
704 4 0.0402798 0.259067 0.241787
389 4 0.0453936 0.278555 0.240803
365 4 0.00691418 0.318902 0.211008
749 4 0.0887856 0.297674 0.194931
750 4 0.132527 0.275445 0.204588
371 4 0.151926 0.276885 0.208407
748 2 0.110656 0.28656 0.199759
510 4 0.167816 0.334365 0.229806
508 2 0.169028 0.309426 0.23112
737 4 0.221383 0.265113 0.1844
509 4 0.170239 0.284486 0.232434
2954 4 0.0109623 0.386433 0.196269
621 4 0.0294968 0.392821 0.197016
364 2 0.00639849 0.343009 0.204393
619 2 0.0389355 0.410849 0.182487
647 4 0.0728442 0.403056 0.244099
289 2 0.154117 0.357157 0.196485
290 4 0.154662 0.34418 0.217851
338 4 0.0810626 0.388595 0.255079
291 4 0.153572 0.370134 0.17512
626 4 0.161627 0.359688 0.161406
278 4 0.229643 0.403506 0.161542
283 2 0.24043 0.356798 0.227192
284 4 0.220316 0.366211 0.215703
277 2 0.227172 0.39276 0.183983
279 4 0.224702 0.382014 0.206424
537 4 0.169454 0.411934 0.185561
345 4 0.205102 0.412045 0.252657
285 4 0.260544 0.347386 0.238682
620 4 0.0483742 0.428877 0.167958
646 2 0.0927006 0.417226 0.238611
263 4 0.150981 0.417554 0.190672
264 4 0.127943 0.442389 0.227459
262 2 0.139462 0.429971 0.209065
648 4 0.112557 0.431396 0.233123
343 2 0.200166 0.427034 0.233263
344 4 0.19523 0.442022 0.213868
446 4 0.375646 0.409092 0.178746
445 2 0.365036 0.422424 0.197045
447 4 0.354426 0.435756 0.215345
1584 4 0.419832 0.495532 0.198241
1575 4 0.400844 0.49069 0.202008
1582 2 0.433306 0.476265 0.206751
593 4 0.456648 0.451959 0.233531
1583 4 0.446779 0.456998 0.215262
393 4 0.101023 0.052856 0.318904
391 2 0.113758 0.0730341 0.311432
1830 4 0.207214 0.0110918 0.262448
742 2 0.441703 0.063494 0.247065
743 4 0.448104 0.0458255 0.263558
2745 4 0.456205 0.0503677 0.282016
2743 2 0.446958 0.0327383 0.297145
2744 4 0.437712 0.0151089 0.312274
479 4 0.431106 0.00579746 0.328538
392 4 0.126493 0.0932121 0.30396
632 4 0.316232 0.159893 0.261744
30 3 0.307832 0.159521 0.279577
29 3 0.270928 0.166219 0.282883
545 4 0.151051 0.203043 0.302699
732 4 0.141659 0.211071 0.318964
544 2 0.158084 0.189527 0.282875
730 2 0.133543 0.203087 0.341225
249 4 0.228621 0.200088 0.315767
247 2 0.239728 0.183046 0.301229
248 4 0.250835 0.166003 0.286691
28 3 0.296004 0.186757 0.302728
26 1 0.292108 0.175696 0.282706
27 3 0.293319 0.190876 0.265465
489 4 0.301574 0.178331 0.321955
418 2 0.415953 0.185974 0.284679
420 4 0.405159 0.204783 0.297123
707 4 0.398556 0.215598 0.313407
419 4 0.426748 0.167164 0.272235
388 2 0.041985 0.295673 0.258707
390 4 0.0385765 0.312791 0.27661
299 4 0.0677654 0.329331 0.315157
734 4 0.0854707 0.324168 0.307903
733 2 0.108828 0.333064 0.308609
401 4 0.280645 0.264851 0.263398
400 2 0.289507 0.287473 0.269305
496 2 0.313284 0.324941 0.30594
498 4 0.301151 0.30603 0.29497
402 4 0.298369 0.310095 0.275212
613 2 0.374835 0.319348 0.312771
615 4 0.365938 0.303872 0.330278
300 4 0.0296684 0.345786 0.287254
298 2 0.0487169 0.337559 0.301205
603 4 0.0366402 0.365144 0.290918
601 2 0.0347823 0.389974 0.288634
602 4 0.0329244 0.414803 0.286349
735 4 0.132184 0.34196 0.309316
339 4 0.0989381 0.342161 0.260086
337 2 0.0900004 0.365378 0.257583
308 4 0.21793 0.41232 0.268826
307 2 0.236178 0.395303 0.267203
497 4 0.325416 0.343853 0.31691
542 4 0.307173 0.336094 0.253392
309 4 0.254425 0.378286 0.26558
543 4 0.272503 0.370278 0.264799
541 2 0.289838 0.353186 0.259096
614 4 0.383732 0.334824 0.295263
435 4 0.398269 0.414618 0.264567
378 4 0.390974 0.395888 0.261137
376 2 0.389707 0.374824 0.274549
377 4 0.388441 0.35376 0.287962
588 4 0.460818 0.403846 0.327412
547 2 0.00730194 0.464296 0.309573
417 4 0.0534133 0.500299 0.265481
548 4 0.0320625 0.463036 0.312814
416 4 0.0474086 0.453242 0.249659
415 2 0.0504109 0.47677 0.25757
1776 4 0.152918 0.477089 0.250216
1774 2 0.147834 0.4999 0.259103
766 2 0.233391 0.424937 0.314302
767 4 0.233303 0.428045 0.289493
303 4 0.25244 0.431891 0.288498
728 4 0.308734 0.456268 0.27236
727 2 0.331868 0.459542 0.263458
302 4 0.300641 0.439149 0.277331
301 2 0.276541 0.43552 0.282915
2 3 0.277066 0.496041 0.327966
1803 4 0.28354 0.48803 0.310945
434 4 0.360959 0.447828 0.266964
729 4 0.355002 0.462815 0.254555
433 2 0.379614 0.431223 0.265766
592 2 0.474686 0.440749 0.246727
594 4 0.492725 0.42954 0.259923
586 2 0.446031 0.421942 0.336303
587 4 0.431245 0.440038 0.345195
117 3 0.494534 0.465656 0.300198
2637 4 0.0194935 0.000875109 0.363589
429 4 0.0804529 0.0471944 0.375127
428 4 0.0904055 0.0712005 0.417851
427 2 0.0854292 0.0591975 0.396489
341 4 0.125175 0.0433964 0.41015
605 4 0.123671 0.0478037 0.390858
604 2 0.14324 0.0621303 0.384776
1699 2 0.225465 0.0020649 0.364694
440 4 0.18971 0.0043532 0.357422
1701 4 0.207182 0.0119216 0.350775
606 4 0.162809 0.076457 0.378693
439 2 0.166715 0.997638 0.35026
1818 4 0.290609 0.0750753 0.416097
699 4 0.347538 0.0128659 0.407645
1426 2 0.388983 0.0140198 0.397498
257 4 0.363702 0.0491673 0.35043
256 2 0.373624 0.068302 0.363103
1428 4 0.367093 0.0150421 0.409539
1427 4 0.410872 0.0129975 0.385458
480 4 0.429338 0.0122147 0.3781
478 2 0.430222 0.00900607 0.353319
2880 4 0.485336 0.0853887 0.367749
721 2 0.0352654 0.148148 0.368709
723 4 0.0450139 0.125129 0.369219
259 2 0.0732793 0.130717 0.405316
260 4 0.0571824 0.127155 0.386518
687 4 0.187537 0.132025 0.374151
685 2 0.177657 0.110911 0.383192
686 4 0.167778 0.089796 0.392233
600 4 0.182198 0.145391 0.388486
405 4 0.2796 0.133794 0.379683
682 2 0.318525 0.12968 0.401078
403 2 0.275071 0.158384 0.379672
684 4 0.294413 0.129773 0.394461
258 4 0.383546 0.0874367 0.375775
426 4 0.38637 0.105908 0.371448
424 2 0.372539 0.122343 0.384245
683 4 0.342637 0.129587 0.407695
425 4 0.358707 0.138777 0.397042
306 4 0.477256 0.101056 0.376523
304 2 0.479153 0.122875 0.388586
305 4 0.48105 0.144695 0.400648
269 4 0.465245 0.154191 0.409825
722 4 0.0255169 0.171167 0.368199
731 4 0.125428 0.195103 0.363487
939 4 0.130107 0.186067 0.409667
598 2 0.187218 0.169885 0.388335
599 4 0.192238 0.194379 0.388184
474 4 0.182428 0.210489 0.39178
472 2 0.201276 0.226258 0.387168
275 4 0.238292 0.237504 0.375262
473 4 0.220124 0.242027 0.382557
274 2 0.254577 0.219624 0.381608
404 4 0.270542 0.182974 0.379661
487 2 0.322159 0.179927 0.336059
276 4 0.270862 0.201743 0.387953
488 4 0.342743 0.181524 0.350162
467 4 0.35616 0.189126 0.361961
468 4 0.360621 0.184986 0.411597
706 2 0.381571 0.206652 0.329427
466 2 0.358391 0.187056 0.386779
708 4 0.364585 0.197706 0.345447
516 4 0.379818 0.189154 0.413846
268 2 0.469265 0.177751 0.417171
457 2 0.00152698 0.316381 0.384581
458 4 0.0116988 0.293553 0.385372
346 2 0.0752583 0.271825 0.398977
471 4 0.00440459 0.283293 0.400374
348 4 0.0740926 0.286041 0.378441
618 4 0.0924506 0.292359 0.381777
616 2 0.101708 0.315232 0.377736
373 2 0.32024 0.294578 0.415354
711 4 0.285673 0.307097 0.425298
374 4 0.344282 0.297633 0.409204
266 4 0.351851 0.302303 0.392046
265 2 0.351261 0.305424 0.367245
267 4 0.350672 0.308545 0.342444
3959 4 0.0205081 0.408267 0.390105
617 4 0.110965 0.338104 0.373694
677 4 0.124159 0.348041 0.387094
676 2 0.139389 0.367762 0.389169
678 4 0.15462 0.387483 0.391243
504 4 0.240884 0.403694 0.339929
681 4 0.173618 0.383271 0.395921
679 2 0.194693 0.396285 0.399338
502 2 0.235447 0.386409 0.357159
503 4 0.230011 0.369124 0.374389
680 4 0.215768 0.409298 0.402754
3958 2 0.0112794 0.422855 0.408193
1556 4 0.146293 0.491244 0.368949
768 4 0.233478 0.421829 0.339112
413 4 0.238108 0.496395 0.367984
3 3 0.250549 0.489639 0.353821
4 3 0.286916 0.481378 0.361142
1 1 0.272561 0.496196 0.350524
752 4 0.434754 0.443157 0.364783
751 2 0.441658 0.467085 0.367009
753 4 0.448561 0.491013 0.369234
2584 2 0.0438238 0.015696 0.485034
1646 4 0.134858 0.0119465 0.489087
1524 4 0.153171 0.0127467 0.458757
342 4 0.138523 0.00954933 0.444457
340 2 0.131849 0.0264729 0.427303
1600 2 0.233969 0.0170986 0.443801
725 4 0.307098 0.0721465 0.429362
1817 4 0.258398 0.0369222 0.413352
1601 4 0.246337 0.0329784 0.428967
1816 2 0.274504 0.0559988 0.414725
1061 4 0.425368 0.00732177 0.505842
261 4 0.0893762 0.134278 0.424115
938 4 0.106591 0.144586 0.424737
937 2 0.118349 0.165327 0.417202
1181 4 0.240586 0.144627 0.440212
1182 4 0.212183 0.110537 0.463273
1180 2 0.226385 0.127582 0.451742
321 4 0.244646 0.163595 0.434754
410 4 0.222748 0.162672 0.503988
724 2 0.308034 0.0850682 0.450747
726 4 0.30897 0.0979899 0.472132
431 4 0.296613 0.0901228 0.486834
319 2 0.269232 0.161316 0.43869
320 4 0.293819 0.159036 0.442626
430 2 0.28453 0.104544 0.503303
717 4 0.311127 0.158886 0.452248
640 2 0.381201 0.162511 0.496038
326 4 0.0561987 0.219372 0.473592
325 2 0.0631361 0.234806 0.455184
367 2 0.152085 0.209817 0.42689
369 4 0.141617 0.187163 0.425338
368 4 0.162553 0.232471 0.428441
1151 4 0.174895 0.241245 0.44063
715 2 0.324442 0.17844 0.444153
641 4 0.392162 0.161347 0.473595
515 4 0.396341 0.165291 0.454568
716 4 0.337757 0.197994 0.436057
514 2 0.388079 0.177222 0.434207
270 4 0.473285 0.20131 0.424518
584 4 0.470045 0.209082 0.442647
585 4 0.477275 0.236083 0.484113
583 2 0.47366 0.222582 0.46338
905 4 0.474473 0.172418 0.487335
904 2 0.455724 0.158241 0.495859
327 4 0.0700735 0.250239 0.436776
347 4 0.0764239 0.25761 0.419513
470 4 0.00121041 0.261393 0.445216
469 2 0.0028075 0.272343 0.422795
1035 4 0.0578068 0.290227 0.500177
1221 4 0.158968 0.283128 0.487205
1152 4 0.170166 0.268054 0.482578
1150 2 0.17253 0.25465 0.461604
375 4 0.296198 0.291523 0.421504
873 4 0.355001 0.301217 0.425323
871 2 0.378398 0.294667 0.431227
872 4 0.401795 0.288116 0.437131
575 4 0.42008 0.287195 0.430694
574 2 0.44503 0.286583 0.4322
576 4 0.469981 0.28597 0.433707
936 4 0.0296594 0.372405 0.460174
934 2 0.0381819 0.393968 0.450815
3353 4 0.0992097 0.377036 0.502705
570 4 0.222751 0.414221 0.421156
668 4 0.248674 0.393484 0.468137
568 2 0.238042 0.400627 0.43553
709 2 0.282854 0.331717 0.428627
710 4 0.280034 0.356337 0.431957
569 4 0.253332 0.387033 0.449903
239 4 0.291587 0.361829 0.447858
238 2 0.314508 0.365234 0.457251
667 2 0.267749 0.389294 0.48375
773 4 0.293351 0.36981 0.509359
240 4 0.337428 0.368638 0.466645
336 4 0.399387 0.388813 0.469076
334 2 0.377504 0.376719 0.468866
335 4 0.355621 0.364624 0.468655
501 4 0.0637368 0.466243 0.440266
499 2 0.0640297 0.441935 0.446116
500 4 0.0643225 0.417627 0.451966
935 4 0.0467044 0.415531 0.441457
636 4 0.168748 0.470716 0.451579
635 4 0.193187 0.454924 0.492249
634 2 0.180968 0.46282 0.471914
1979 4 0.368747 0.486176 0.507516
1453 2 0.357614 0.44811 0.481227
1455 4 0.368145 0.454752 0.459544
1400 4 0.379579 0.470591 0.466561
1399 2 0.397871 0.487256 0.462972
1401 4 0.416162 0.503921 0.459383
1126 2 0.0138853 0.0549815 0.524299
1128 4 0.0107238 0.0739173 0.540318
1083 4 0.0283952 0.0844145 0.543914
2585 4 0.0286011 0.0345256 0.49127
1127 4 0.0170468 0.0360457 0.508279
1645 2 0.117388 0.002816 0.504469
90 3 0.435177 0.0488375 0.550073
1062 4 0.428887 0.0498148 0.53197
86 1 0.441494 0.0694329 0.55746
88 3 0.46413 0.0726608 0.553511
89 3 0.437051 0.0714127 0.580148
1060 2 0.427127 0.0285683 0.518906
1081 2 0.0532744 0.0843679 0.546404
1200 4 0.0764838 0.164708 0.578532
1082 4 0.0781537 0.0843213 0.548894
852 4 0.0980214 0.0831449 0.546983
850 2 0.121257 0.0879102 0.539073
851 4 0.144493 0.0926755 0.531162
1058 4 0.157831 0.0826259 0.519066
1057 2 0.174221 0.101508 0.519178
409 2 0.243462 0.149495 0.508729
1059 4 0.190611 0.12039 0.51929
411 4 0.264176 0.136318 0.513471
432 4 0.272446 0.118965 0.519771
1153 2 0.285209 0.170813 0.561322
1155 4 0.266305 0.161248 0.574601
841 2 0.366524 0.150492 0.559996
842 4 0.374205 0.153772 0.536429
843 4 0.358843 0.147212 0.583564
642 4 0.37024 0.163675 0.518481
87 3 0.429598 0.0855274 0.546121
1217 4 0.420559 0.102874 0.550523
1216 2 0.421154 0.117106 0.529974
1218 4 0.42175 0.131338 0.509425
906 4 0.436976 0.144063 0.504384
2658 4 0.50171 0.088849 0.508869
1271 4 0.0907688 0.176379 0.583045
1270 2 0.107129 0.182757 0.565245
1272 4 0.12349 0.189136 0.547446
856 2 0.146259 0.207334 0.527607
858 4 0.122136 0.203257 0.532772
857 4 0.170381 0.21141 0.522443
1154 4 0.304112 0.180378 0.548043
899 4 0.320814 0.185813 0.539717
898 2 0.333023 0.207617 0.538868
900 4 0.345232 0.22942 0.538018
1194 4 0.363408 0.229409 0.546285
1033 2 0.0360936 0.277835 0.500584
1034 4 0.0143804 0.265444 0.50099
1178 4 0.0677323 0.286871 0.518282
3262 2 0.00983594 0.307497 0.56211
3263 4 0.0272812 0.324914 0.557928
1177 2 0.0750636 0.307148 0.530941
1179 4 0.0823949 0.327426 0.543601
1284 4 0.125471 0.249861 0.575775
695 4 0.19658 0.292222 0.540237
694 2 0.194477 0.300584 0.563707
1220 4 0.179413 0.284657 0.532816
1219 2 0.169191 0.283893 0.510011
1212 4 0.27092 0.268279 0.577279
804 4 0.298608 0.305689 0.533869
774 4 0.297039 0.32535 0.531951
802 2 0.294147 0.288366 0.551339
803 4 0.289685 0.271043 0.568808
1192 2 0.362786 0.249489 0.56117
1193 4 0.362165 0.26957 0.576055
649 2 0.396494 0.287019 0.524313
650 4 0.375676 0.277104 0.514646
651 4 0.417313 0.296934 0.53398
813 4 0.428519 0.309256 0.521753
878 4 0.0391791 0.401753 0.521259
877 2 0.0152326 0.395679 0.517405
3352 2 0.0761605 0.38173 0.511183
3354 4 0.0531114 0.386424 0.519662
408 4 0.115904 0.385313 0.509096
406 2 0.138693 0.383302 0.519186
407 4 0.161481 0.381291 0.529276
1171 2 0.164351 0.395901 0.568297
1173 4 0.167353 0.393853 0.543559
1393 2 0.200189 0.371295 0.525916
1394 4 0.224529 0.372377 0.531535
1395 4 0.175849 0.370214 0.520297
384 4 0.176624 0.411235 0.538587
772 2 0.295195 0.34758 0.520655
669 4 0.286824 0.385104 0.499364
929 4 0.339779 0.380283 0.566738
927 4 0.354007 0.374242 0.552021
925 2 0.370347 0.391268 0.543756
926 4 0.386686 0.408294 0.535491
811 2 0.440363 0.331247 0.522884
812 4 0.452208 0.353237 0.524014
1161 4 0.0443415 0.486546 0.53384
2138 4 0.0526912 0.494741 0.517063
382 2 0.184979 0.430585 0.525135
383 4 0.193334 0.449935 0.511683
882 4 0.299445 0.433196 0.544658
891 4 0.312179 0.435703 0.5589
880 2 0.313955 0.434598 0.524343
889 2 0.298012 0.439467 0.579156
881 4 0.328465 0.436 0.504029
1000 2 0.396207 0.445049 0.542498
1002 4 0.383788 0.427062 0.530356
1001 4 0.408625 0.463035 0.55464
663 4 0.400904 0.468642 0.570622
1454 4 0.347084 0.441468 0.50291
909 4 0.132769 0.0516629 0.667816
962 4 0.288049 0.0333408 0.652243
961 2 0.277836 0.0313957 0.629503
963 4 0.267623 0.0294507 0.606764
2132 4 0.276572 0.04758 0.659957
1025 4 0.380378 0.095676 0.59747
3426 4 0.461907 0.000224369 0.645103
3424 2 0.444486 0.99754 0.662837
862 2 0.0690175 0.0886602 0.662945
1077 4 0.0578612 0.130617 0.664701
864 4 0.0669705 0.113497 0.660913
3178 2 0.00539445 0.155962 0.618787
3179 4 0.0284143 0.165147 0.615486
792 4 0.261326 0.146999 0.587064
791 4 0.259404 0.130798 0.634335
790 2 0.260365 0.138898 0.6107
887 4 0.325201 0.146506 0.653152
886 2 0.304139 0.159414 0.657022
1031 4 0.327656 0.137365 0.635751
1030 2 0.345733 0.138234 0.618498
1032 4 0.363809 0.139104 0.601245
1024 2 0.403621 0.0864686 0.597914
1026 4 0.426863 0.0772611 0.598358
1263 4 0.430266 0.0842162 0.617071
1261 2 0.441535 0.089856 0.638666
1262 4 0.452804 0.0954957 0.660262
3356 4 0.486957 0.163289 0.608494
1198 2 0.0529749 0.165951 0.586956
1199 4 0.0294659 0.167194 0.59538
1283 4 0.155529 0.239889 0.614477
1282 2 0.1405 0.244875 0.595126
1131 4 0.228801 0.232719 0.666321
3043 2 0.0118107 0.252356 0.631633
3045 4 0.0229426 0.254176 0.609318
1207 2 0.0749168 0.318549 0.619054
1208 4 0.0716225 0.310744 0.595529
1209 4 0.0782112 0.326353 0.642579
821 4 0.0678268 0.322304 0.659988
1259 4 0.144219 0.285401 0.666896
696 4 0.192374 0.308946 0.587177
9 3 0.174463 0.317314 0.59045
1135 2 0.177716 0.289019 0.649068
7 3 0.179609 0.311449 0.627217
1137 4 0.191889 0.295136 0.629399
796 2 0.245345 0.258268 0.652763
6 1 0.181073 0.327101 0.610423
797 4 0.248234 0.270706 0.631266
1211 4 0.252083 0.286679 0.619792
1210 2 0.261502 0.277479 0.598536
1008 4 0.37714 0.322141 0.655306
1238 4 0.484501 0.291804 0.631565
1237 2 0.465526 0.308012 0.633114
1239 4 0.44655 0.324221 0.634663
954 4 0.426526 0.331337 0.631951
1066 2 0.15206 0.357819 0.645995
1067 4 0.148901 0.353664 0.621542
1172 4 0.16135 0.397949 0.593035
8 3 0.203062 0.334333 0.608805
10 3 0.167454 0.344679 0.615344
1190 4 0.175681 0.391521 0.605405
1189 2 0.192783 0.40198 0.620348
1191 4 0.209885 0.41244 0.635291
928 2 0.345598 0.372724 0.58985
807 4 0.383148 0.339272 0.647942
930 4 0.351418 0.365165 0.612963
806 4 0.353347 0.375214 0.630032
805 2 0.368247 0.357243 0.638987
1009 2 0.406515 0.401529 0.601815
1010 4 0.401053 0.377509 0.597524
953 4 0.419082 0.37019 0.601361
952 2 0.422804 0.350764 0.616656
2028 4 0.210815 0.487073 0.61644
1174 2 0.205288 0.453612 0.635203
1176 4 0.198492 0.429555 0.635705
1175 4 0.212085 0.477668 0.634701
2214 4 0.267958 0.486779 0.656814
890 4 0.283845 0.44323 0.599413
661 2 0.414671 0.486295 0.581759
1011 4 0.411978 0.425548 0.606107
662 4 0.428437 0.503948 0.592896
863 4 0.0710644 0.0638235 0.664976
2048 4 0.070654 0.000844891 0.688518
2047 2 0.0683626 0.0251282 0.683018
2049 4 0.0660711 0.0494115 0.677518
944 4 0.150346 0.0422903 0.671058
943 2 0.149707 0.0178075 0.676094
907 2 0.131284 0.0736714 0.679589
2131 2 0.269201 0.0599973 0.68037
2133 4 0.26183 0.0724145 0.700782
824 4 0.263426 0.0842203 0.716193
1003 2 0.412591 0.00490676 0.712557
1005 4 0.408903 0.00026758 0.736847
44 3 0.408933 0.0611824 0.702828
1004 4 0.41628 0.00954594 0.688266
3425 4 0.427065 0.994856 0.68057
42 3 0.445508 0.0572087 0.710518
41 1 0.430205 0.0692606 0.698282
43 3 0.434983 0.0667348 0.675717
844 2 0.488068 0.0346725 0.746407
845 4 0.498064 0.0122655 0.741592
1075 2 0.0368864 0.135534 0.677392
1076 4 0.0159116 0.140451 0.690083
833 4 0.00221463 0.145919 0.735134
3476 4 0.00471275 0.157164 0.685521
1227 4 0.149439 0.0931618 0.697508
908 4 0.129799 0.0956799 0.691362
1225 2 0.160275 0.0998149 0.719037
1226 4 0.171111 0.106468 0.740566
825 4 0.235715 0.122306 0.699391
823 2 0.24957 0.103263 0.707792
838 2 0.253559 0.156696 0.718839
840 4 0.249764 0.134385 0.708209
1142 4 0.420241 0.147912 0.717282
1141 2 0.420656 0.126163 0.704955
45 3 0.43158 0.0912347 0.704104
810 4 0.458129 0.105579 0.675864
1143 4 0.42107 0.104414 0.692627
808 2 0.475294 0.102067 0.693702
49 3 0.437542 0.156039 0.714906
798 4 0.242457 0.245829 0.67426
1278 4 0.21949 0.216126 0.731614
1129 2 0.222203 0.223413 0.68857
1130 4 0.215605 0.214108 0.71082
839 4 0.257354 0.179007 0.729469
1276 2 0.240513 0.226709 0.740054
888 4 0.283078 0.172322 0.660892
831 4 0.376574 0.220659 0.719485
829 2 0.400994 0.215329 0.720109
830 4 0.425415 0.209999 0.720732
47 3 0.437089 0.192921 0.722131
46 1 0.444927 0.172562 0.729427
50 3 0.467695 0.172982 0.729787
1136 4 0.163544 0.282902 0.668738
1260 4 0.102219 0.307141 0.683149
1258 2 0.123219 0.296271 0.675022
1122 4 0.159417 0.323904 0.736068
896 4 0.186914 0.31986 0.708557
948 4 0.205579 0.314029 0.702484
946 2 0.224594 0.302395 0.713809
947 4 0.243609 0.29076 0.725134
1064 4 0.254076 0.293923 0.741858
801 4 0.316976 0.280849 0.746621
799 2 0.341165 0.285706 0.742563
1006 2 0.378895 0.300879 0.668346
1007 4 0.38065 0.279618 0.681387
800 4 0.365354 0.290563 0.738505
1166 4 0.382774 0.28416 0.732354
1206 4 0.486535 0.313969 0.708529
820 2 0.0754819 0.343366 0.671077
1039 2 0.0652591 0.393402 0.705284
1041 4 0.0477927 0.409517 0.713056
822 4 0.083137 0.364428 0.682166
1040 4 0.0827255 0.377287 0.697512
1068 4 0.155219 0.361974 0.670448
897 4 0.161311 0.342889 0.672297
895 2 0.174112 0.331375 0.690427
1029 4 0.306571 0.327656 0.699134
1027 2 0.326068 0.343293 0.698421
1028 4 0.345566 0.35893 0.697707
1230 4 0.367203 0.358326 0.700836
1228 2 0.378348 0.379362 0.708485
1229 4 0.389492 0.400397 0.716134
1020 4 0.409177 0.396269 0.719196
1018 2 0.431419 0.387452 0.726458
2987 4 0.477686 0.408315 0.72759
1019 4 0.453661 0.378634 0.733719
1204 2 0.498836 0.335204 0.713319
1281 4 0.00765262 0.461805 0.684605
1279 2 0.0287458 0.474491 0.689002
1280 4 0.049839 0.487176 0.693399
992 4 0.0999403 0.440456 0.683104
991 2 0.104891 0.447088 0.706698
993 4 0.109843 0.453721 0.730292
1983 4 0.128721 0.458114 0.731177
3329 4 0.468737 0.422321 0.714451
3330 4 0.472384 0.472146 0.716676
3328 2 0.47056 0.447234 0.715563
1268 4 0.477346 0.490871 0.72241
1267 2 0.462256 0.501314 0.739394
2000 4 0.19975 0.0484292 0.804357
1999 2 0.192685 0.0709216 0.812685
1257 4 0.219764 0.0536182 0.799519
1255 2 0.244747 0.0539564 0.798549
1050 4 0.326258 0.0235594 0.76455
1256 4 0.269729 0.0542946 0.797578
2052 4 0.35564 0.995924 0.817275
1048 2 0.343145 0.0419989 0.764593
1049 4 0.360031 0.0604384 0.764637
2301 4 0.368204 0.0706005 0.780948
2299 2 0.386484 0.0874197 0.783796
846 4 0.478072 0.0570795 0.751223
1112 4 0.466596 0.0538997 0.767493
1111 2 0.454873 0.0754247 0.772434
920 4 0.118924 0.133165 0.818749
919 2 0.112772 0.118421 0.837983
978 4 0.187806 0.117072 0.744742
976 2 0.209184 0.126657 0.753476
977 4 0.230562 0.136243 0.762209
2001 4 0.18562 0.093414 0.821012
964 2 0.208664 0.12871 0.820146
966 4 0.202151 0.104968 0.81578
965 4 0.215178 0.152453 0.824511
2300 4 0.404765 0.104239 0.786644
818 4 0.348877 0.145751 0.810199
1084 2 0.443749 0.134323 0.769889
1085 4 0.437819 0.114846 0.784403
1113 4 0.443149 0.0969498 0.777374
1086 4 0.449679 0.1538 0.755375
916 2 0.288035 0.255199 0.748464
1277 4 0.261535 0.237292 0.748494
969 4 0.277505 0.238028 0.830303
917 4 0.279893 0.231641 0.750443
817 2 0.363342 0.16209 0.822405
1298 4 0.417611 0.212365 0.787284
819 4 0.377807 0.178429 0.83461
48 3 0.436744 0.168585 0.750772
1297 2 0.425143 0.193508 0.801874
1299 4 0.432676 0.174651 0.816463