ITEM: TIMESTEP
1390000
ITEM: NUMBER OF ATOMS
4590
ITEM: BOX BOUNDS pp pp pp
-9.9985700000000008e+00 9.9985700000000008e+00
-9.9985700000000008e+00 9.9985700000000008e+00
-9.9985700000000008e+00 9.9985700000000008e+00
ITEM: ATOMS id type xs ys zs
579 4 0.0504993 0.0386512 0.0678851
591 4 0.00514572 0.0798264 0.0672263
534 4 0.107866 0.0836056 0.000976837
1074 4 0.111283 0.0751838 0.0492962
464 4 0.128107 0.0791804 0.00286506
2161 2 0.310548 0.0411292 0.0170207
2163 4 0.335346 0.0440186 0.018388
2162 4 0.285749 0.0382398 0.0156533
689 4 0.341828 0.0527292 0.0551805
688 2 0.36579 0.0595908 0.0571672
690 4 0.389751 0.0664523 0.0591539
1541 4 0.389174 0.00612402 0.0347149
1608 4 0.395706 0.0244606 0.0336509
485 4 0.397726 0.0755836 0.00505871
1606 2 0.415884 0.0285077 0.0478508
254 4 0.411732 0.0835246 0.0182859
1110 4 0.442227 0.0533029 0.0625508
1607 4 0.436062 0.0325549 0.0620506
1108 2 0.458046 0.0557907 0.0817532
589 2 0.0115002 0.1006 0.0796058
1285 2 0.0610076 0.123028 0.0123941
1286 4 0.0837605 0.114694 0.0185611
1073 4 0.096538 0.119994 0.0327029
1072 2 0.10391 0.0975889 0.0409995
463 2 0.146791 0.0936535 0.994702
994 2 0.20572 0.157789 0.0698007
996 4 0.221939 0.139097 0.06623
237 4 0.227761 0.119837 0.0671024
581 4 0.261261 0.119022 0.0161436
359 4 0.273429 0.117626 0.0321757
358 2 0.276326 0.136294 0.0485552
580 2 0.27675 0.103548 0.00406675
360 4 0.279224 0.154962 0.0649347
55 3 0.284184 0.170091 0.0763019
770 4 0.385973 0.138629 0.016007
255 4 0.384265 0.123619 0.0300631
253 2 0.397998 0.103572 0.0241745
769 2 0.374115 0.156567 0.028767
2894 4 0.464541 0.146334 0.0720138
2893 2 0.486339 0.134372 0.0746463
2772 4 0.047314 0.215094 0.0607386
2771 4 0.0276214 0.244162 0.0251296
2770 2 0.0374677 0.229628 0.0429341
700 2 0.152873 0.190609 0.0691797
287 4 0.151359 0.229671 0.0546435
17 3 0.122061 0.176456 0.0864597
702 4 0.12802 0.1902 0.0718885
286 2 0.14163 0.249021 0.0671367
995 4 0.189502 0.176481 0.0733714
701 4 0.177726 0.191017 0.066471
866 4 0.233329 0.179727 0.030234
1253 4 0.244245 0.169206 0.0172066
865 2 0.249183 0.194869 0.042257
867 4 0.265036 0.210011 0.0542801
54 3 0.277762 0.206804 0.0709573
51 1 0.292863 0.191004 0.0787484
52 3 0.312287 0.192622 0.0665312
771 4 0.362257 0.174504 0.0415269
566 4 0.346787 0.185779 0.0367976
518 4 0.389858 0.209541 0.0527343
665 4 0.387783 0.223101 0.0401512
565 2 0.346093 0.200931 0.0566753
664 2 0.37632 0.243415 0.0311464
567 4 0.345399 0.216083 0.076553
517 2 0.403596 0.209756 0.0736242
2808 4 0.0235931 0.261686 0.0146416
923 4 0.0635119 0.325077 0.00979319
329 4 0.0614796 0.33304 0.0284678
922 2 0.0861845 0.315721 0.00493495
288 4 0.131901 0.268372 0.0796299
924 4 0.108857 0.306366 7.67005e-05
293 4 0.114933 0.27577 0.0704745
506 4 0.175974 0.336966 0.0558465
505 2 0.195186 0.329106 0.0697856
507 4 0.214398 0.321247 0.0837247
740 4 0.298596 0.322162 0.0188525
14 3 0.332888 0.261169 0.0746737
624 4 0.356182 0.313617 0.00988693
243 4 0.351178 0.310944 0.0289918
241 2 0.344406 0.324911 0.048594
666 4 0.364856 0.26373 0.0221416
622 2 0.354465 0.288739 0.00806249
623 4 0.352747 0.263861 0.00623805
328 2 0.0453496 0.351048 0.022089
330 4 0.0292196 0.369057 0.0157101
551 4 0.0265081 0.389256 0.0169449
756 4 0.163862 0.339415 0.0716469
754 2 0.145288 0.355577 0.0760006
788 4 0.213931 0.38445 0.0597087
787 2 0.208189 0.381664 0.0355332
789 4 0.202448 0.378878 0.0113577
627 4 0.319013 0.334216 0.0780313
242 4 0.337635 0.338878 0.0681963
626 4 0.30103 0.380869 0.0771332
625 2 0.310022 0.357543 0.0775823
2387 4 0.376298 0.406875 0.00194021
1069 2 0.419104 0.370821 0.00658478
2652 4 0.420445 0.386938 0.0587241
1071 4 0.423597 0.394804 0.0120435
2650 2 0.432789 0.399345 0.0765814
597 4 0.493153 0.369147 0.0705879
1674 4 0.443045 0.39954 0.00983763
1222 2 0.118821 0.451299 0.0614741
1224 4 0.125709 0.451501 0.0374387
1290 4 0.141594 0.454012 0.0266526
1288 2 0.166397 0.456536 0.0285497
1289 4 0.191201 0.459061 0.0304468
794 4 0.190858 0.479447 0.0248809
793 2 0.212086 0.492626 0.0257927
482 4 0.452177 0.493952 0.0182711
1628 4 0.433354 0.490902 0.0110489
481 2 0.459464 0.473902 0.00522967
577 2 0.0645538 0.029722 0.0865377
673 2 0.0705192 0.0054793 0.142659
675 4 0.0651516 0.0148624 0.120113
578 4 0.0786083 0.0207928 0.10519
1504 2 0.285064 0.0278131 0.141913
1506 4 0.274815 0.0154268 0.122763
1505 4 0.295313 0.0401993 0.161063
1329 4 0.270476 0.00703824 0.104921
652 2 0.333872 0.0590257 0.164095
1327 2 0.278395 0.997855 0.0830543
654 4 0.355074 0.0721954 0.162605
297 4 0.481499 0.0577968 0.119061
1109 4 0.473866 0.0582785 0.100956
295 2 0.474847 0.0368829 0.131041
759 4 0.43561 0.0814515 0.152773
296 4 0.468194 0.0159691 0.143022
332 4 0.425277 0.0847609 0.168609
2723 4 0.506962 0.018761 0.167631
1653 4 0.473395 0.000614733 0.130967
450 4 0.0748454 0.150006 0.102871
449 4 0.0267264 0.136404 0.10338
590 4 0.0178547 0.121374 0.0919854
448 2 0.0507859 0.143205 0.103126
19 3 0.116848 0.158687 0.119166
18 3 0.0895571 0.158652 0.0927163
235 2 0.241872 0.113679 0.0868033
461 4 0.273546 0.113336 0.11395
236 4 0.255983 0.107521 0.106504
460 2 0.296435 0.10864 0.122852
462 4 0.319324 0.103945 0.131754
22 3 0.336159 0.114285 0.135731
628 2 0.376026 0.144947 0.117786
629 4 0.364106 0.138311 0.138739
630 4 0.387947 0.151582 0.0968325
23 3 0.370178 0.123381 0.148869
21 1 0.351796 0.109555 0.151925
557 4 0.406253 0.145451 0.0947846
25 3 0.358095 0.0877435 0.150127
556 2 0.424121 0.128218 0.0917977
558 4 0.44199 0.110985 0.0888109
758 4 0.440527 0.0997799 0.106507
757 2 0.438068 0.0906157 0.12964
16 1 0.106493 0.171112 0.10253
2760 4 0.102903 0.20778 0.121382
2759 4 0.135685 0.241744 0.104876
20 3 0.0979267 0.190285 0.111344
2758 2 0.119294 0.224762 0.113129
381 4 0.146014 0.254863 0.116751
422 4 0.215912 0.223514 0.139602
476 4 0.204805 0.207753 0.135399
421 2 0.237614 0.226563 0.127565
475 2 0.202155 0.190121 0.152929
423 4 0.259316 0.229612 0.115528
53 3 0.297697 0.195006 0.101087
355 2 0.293916 0.215048 0.130183
357 4 0.272189 0.2273 0.131919
356 4 0.315643 0.202797 0.128447
12 3 0.35611 0.232095 0.0799808
519 4 0.417334 0.209971 0.0945142
11 1 0.350522 0.253128 0.0874333
15 3 0.344363 0.251939 0.109326
528 4 0.434783 0.201342 0.0914616
526 2 0.453016 0.216507 0.0993836
527 4 0.471248 0.231673 0.107306
522 4 0.474562 0.237007 0.12533
1761 4 0.488862 0.177649 0.131661
656 4 0.084694 0.320192 0.15951
362 4 0.0917887 0.301937 0.163028
655 2 0.0828343 0.335047 0.139483
294 4 0.0804293 0.289209 0.104084
292 2 0.0976811 0.282489 0.0872793
379 2 0.142331 0.271759 0.13481
380 4 0.138647 0.288655 0.15287
749 4 0.144201 0.307249 0.153224
748 2 0.160671 0.326036 0.154197
956 4 0.224846 0.305328 0.0899058
955 2 0.231419 0.283022 0.0990934
957 4 0.237992 0.260716 0.108281
13 3 0.36895 0.267041 0.0851379
353 4 0.338579 0.2639 0.124695
352 2 0.339189 0.28307 0.140737
354 4 0.3398 0.302239 0.156779
611 4 0.342852 0.315754 0.142524
387 4 0.376063 0.261164 0.102295
385 2 0.398731 0.269846 0.108294
520 2 0.489641 0.256754 0.128134
386 4 0.421398 0.278527 0.114293
495 4 0.434904 0.279871 0.129308
493 2 0.447191 0.298331 0.117757
494 4 0.459478 0.316791 0.106205
2786 4 0.00681225 0.359004 0.107253
394 2 0.0356682 0.378325 0.130134
395 4 0.0177215 0.374373 0.113178
537 4 0.0753118 0.35495 0.101185
396 4 0.0536148 0.382276 0.147089
620 4 0.0547692 0.384745 0.166353
657 4 0.0809747 0.349901 0.119457
536 4 0.116511 0.382089 0.0930091
755 4 0.126714 0.37174 0.0803542
535 2 0.0959111 0.36852 0.0970969
750 4 0.177141 0.344824 0.15517
509 4 0.194817 0.352899 0.157784
610 2 0.350501 0.339408 0.13985
612 4 0.358151 0.363062 0.137175
447 4 0.347059 0.372126 0.123594
445 2 0.353885 0.395622 0.118446
2651 4 0.445132 0.411752 0.0944387
595 2 0.481034 0.350538 0.0820772
596 4 0.468914 0.331929 0.0935665
1223 4 0.111934 0.451096 0.0855095
251 4 0.13847 0.445259 0.140882
250 2 0.121618 0.44587 0.122421
252 4 0.104766 0.44648 0.10396
291 4 0.15302 0.460111 0.143808
289 2 0.164059 0.462841 0.166076
446 4 0.360711 0.419119 0.113299
525 4 0.411561 0.467885 0.112501
524 4 0.432032 0.426261 0.0938169
659 4 0.421537 0.475613 0.127516
523 2 0.421797 0.447073 0.103159
658 2 0.423914 0.476552 0.152389
731 4 0.199692 0.0104595 0.223803
732 4 0.190152 0.054121 0.201367
730 2 0.194922 0.0322903 0.212585
653 4 0.31267 0.045856 0.165585
1495 2 0.273459 0.00636066 0.206727
1497 4 0.262916 0.0290326 0.206609
572 4 0.26877 0.048455 0.208712
571 2 0.280438 0.0689633 0.216986
573 4 0.292106 0.0894716 0.225259
333 4 0.450818 0.0602527 0.203933
331 2 0.438048 0.0725068 0.186271
391 2 0.0689698 0.116826 0.224041
392 4 0.062076 0.100741 0.206182
393 4 0.0758636 0.13291 0.2419
546 4 0.148721 0.149339 0.226293
691 2 0.182321 0.160913 0.207477
693 4 0.198516 0.164159 0.188705
765 4 0.297919 0.107705 0.224463
763 2 0.312112 0.107304 0.245044
312 4 0.382876 0.133493 0.220828
24 3 0.342385 0.113384 0.172786
311 4 0.345034 0.121673 0.190348
310 2 0.363955 0.127583 0.205588
703 2 0.00546664 0.232227 0.237973
428 4 0.0620464 0.193561 0.261621
477 4 0.199504 0.17249 0.170458
692 4 0.166127 0.157667 0.226249
361 2 0.0710549 0.289941 0.170197
363 4 0.0503211 0.277946 0.177366
366 4 0.0324387 0.270033 0.17281
364 2 0.0137449 0.282295 0.184008
497 4 0.214769 0.302561 0.205842
496 2 0.219235 0.305791 0.230231
278 4 0.287258 0.274056 0.242523
277 2 0.31101 0.279064 0.236527
279 4 0.334761 0.284072 0.230531
737 4 0.344413 0.280712 0.212854
736 2 0.365511 0.291617 0.205034
738 4 0.386609 0.302521 0.197214
619 2 0.0603005 0.373379 0.187926
621 4 0.0658317 0.362013 0.209499
339 4 0.0848524 0.367661 0.217999
337 2 0.104595 0.364719 0.233057
338 4 0.124338 0.361776 0.248115
508 2 0.211715 0.357415 0.175652
510 4 0.228613 0.361931 0.193519
309 4 0.221516 0.378338 0.201451
307 2 0.228477 0.390758 0.222005
308 4 0.235438 0.403178 0.242559
284 4 0.304908 0.392009 0.218954
283 2 0.302757 0.416336 0.213593
588 4 0.333613 0.360429 0.167772
586 2 0.343101 0.382705 0.17401
587 4 0.352589 0.404982 0.180247
647 4 0.0670318 0.47618 0.221728
2954 4 0.067545 0.487912 0.206397
290 4 0.175099 0.465572 0.188344
646 2 0.0906135 0.471833 0.228812
264 4 0.134394 0.468376 0.229562
648 4 0.114195 0.467485 0.235896
262 2 0.156884 0.467506 0.21867
263 4 0.179374 0.466635 0.207779
344 4 0.19349 0.486365 0.22341
285 4 0.300605 0.440664 0.208233
660 4 0.426291 0.47749 0.177262
435 4 0.361067 0.416286 0.194459
434 4 0.380324 0.462437 0.194596
433 2 0.370695 0.439362 0.194527
1436 4 0.368648 0.469022 0.208909
1435 2 0.35902 0.490458 0.217452
1574 4 0.453325 0.491381 0.223197
1584 4 0.460099 0.479439 0.2381
1575 4 0.424812 0.4967 0.182461
1573 2 0.439068 0.494041 0.202829
1699 2 0.239185 0.0429545 0.314845
1701 4 0.214853 0.0448746 0.309419
1517 4 0.322074 0.0124796 0.295743
1700 4 0.263518 0.0410343 0.32027
1518 4 0.279566 0.0320369 0.313386
1516 2 0.30082 0.0222582 0.304565
742 2 0.373507 0.0506945 0.276314
743 4 0.385031 0.0376796 0.294286
744 4 0.361984 0.0637094 0.258342
2745 4 0.403329 0.0343509 0.295408
2743 2 0.418941 0.0157802 0.301456
316 2 0.010829 0.147857 0.286606
317 4 0.0160133 0.130201 0.269678
427 2 0.0726492 0.171779 0.255432
429 4 0.083252 0.149996 0.249244
937 2 0.156832 0.161204 0.30742
939 4 0.165167 0.150097 0.286626
545 4 0.150185 0.157846 0.275549
544 2 0.149453 0.153593 0.250921
764 4 0.326305 0.106904 0.265625
633 4 0.341714 0.114038 0.275951
631 2 0.346599 0.105721 0.299019
632 4 0.351484 0.097404 0.322088
467 4 0.344397 0.0954281 0.340866
707 4 0.43545 0.141964 0.272167
489 4 0.443273 0.158155 0.259444
706 2 0.429217 0.123557 0.2879
708 4 0.422984 0.105151 0.303633
318 4 0.00564469 0.165514 0.303534
704 4 0.0153004 0.236019 0.260647
389 4 0.0351048 0.237526 0.260523
388 2 0.0580965 0.235593 0.270157
390 4 0.0810881 0.233661 0.279792
299 4 0.0957387 0.235124 0.333843
298 2 0.0982472 0.234982 0.308966
300 4 0.100756 0.234841 0.284089
938 4 0.148498 0.17231 0.328213
261 4 0.154617 0.190491 0.333332
30 3 0.335516 0.214302 0.254892
28 3 0.333743 0.195789 0.287631
248 4 0.361419 0.239634 0.298837
26 1 0.347482 0.207459 0.273021
29 3 0.356726 0.225814 0.283793
247 2 0.352468 0.243886 0.321793
27 3 0.364463 0.193575 0.266089
419 4 0.412243 0.255207 0.31729
488 4 0.431208 0.203312 0.27722
487 2 0.437241 0.180733 0.268332
418 2 0.423168 0.234517 0.326107
420 4 0.434092 0.213826 0.334924
503 4 0.201997 0.323614 0.321443
498 4 0.223702 0.309021 0.254619
400 2 0.245553 0.310661 0.287748
401 4 0.252012 0.305456 0.311336
402 4 0.239094 0.315867 0.264161
266 4 0.40011 0.271765 0.316228
681 4 0.119325 0.346572 0.337297
768 4 0.228362 0.398722 0.260636
502 2 0.197625 0.342346 0.305468
504 4 0.193254 0.361077 0.289493
766 2 0.216298 0.387705 0.279564
767 4 0.204234 0.376687 0.298491
543 4 0.310784 0.409673 0.309386
417 4 0.0165652 0.449039 0.32394
301 2 0.230668 0.436753 0.32241
302 4 0.24764 0.453445 0.314761
303 4 0.213697 0.42006 0.330058
728 4 0.267133 0.458299 0.315085
727 2 0.287029 0.443581 0.311525
729 4 0.306926 0.428863 0.307966
1803 4 0.32592 0.497753 0.332333
592 2 0.490149 0.454205 0.307286
1582 2 0.467437 0.467605 0.258867
1583 4 0.474776 0.45577 0.279634
593 4 0.469445 0.463589 0.296871
2637 4 0.105509 0.0283191 0.36631
2635 2 0.0913473 0.00931215 0.35835
405 4 0.297986 0.0795563 0.381415
1428 4 0.46211 0.998913 0.372182
480 4 0.456915 0.0596846 0.390886
1427 4 0.450922 0.0416894 0.395544
1426 2 0.456516 0.0203013 0.383863
478 2 0.442748 0.0797749 0.395453
3678 4 0.472201 0.99617 0.355188
1182 4 0.130824 0.131926 0.399562
369 4 0.127948 0.151152 0.39721
1180 2 0.154246 0.128102 0.391692
321 4 0.197497 0.120555 0.386654
1181 4 0.177669 0.124277 0.383822
319 2 0.218846 0.109675 0.3938
320 4 0.240194 0.0987956 0.400945
404 4 0.259756 0.101358 0.40516
403 2 0.278871 0.0904573 0.393288
468 4 0.301979 0.0923547 0.367171
466 2 0.323188 0.0938914 0.354018
258 4 0.396171 0.12871 0.357604
256 2 0.41337 0.122911 0.374801
257 4 0.430569 0.117112 0.391998
479 4 0.428581 0.0998652 0.400019
367 2 0.11336 0.171136 0.393602
733 2 0.100707 0.22047 0.367711
735 4 0.0912248 0.209477 0.388069
368 4 0.0987728 0.19112 0.389995
734 4 0.110189 0.231463 0.347354
259 2 0.169873 0.209085 0.340167
260 4 0.185128 0.227679 0.347002
600 4 0.202399 0.237803 0.351049
598 2 0.212026 0.25179 0.369403
276 4 0.324538 0.243652 0.348515
274 2 0.309804 0.246313 0.36854
249 4 0.343518 0.248139 0.344749
2658 4 0.419951 0.165723 0.39998
583 2 0.492115 0.237311 0.404772
426 4 0.419702 0.199209 0.340048
425 4 0.420642 0.172125 0.382075
424 2 0.420172 0.185667 0.361061
585 4 0.468389 0.244673 0.407606
371 4 0.143468 0.273531 0.336404
370 2 0.151936 0.270095 0.359678
372 4 0.160404 0.266659 0.382951
678 4 0.164499 0.284029 0.392361
474 4 0.232673 0.252331 0.399292
599 4 0.221653 0.265777 0.387757
275 4 0.295069 0.248973 0.388565
473 4 0.282572 0.25268 0.402569
472 2 0.257622 0.252506 0.400931
265 2 0.394577 0.284005 0.337317
267 4 0.389043 0.296244 0.358406
615 4 0.382687 0.311704 0.347094
711 4 0.357611 0.295351 0.424768
709 2 0.345202 0.315409 0.416472
872 4 0.465825 0.259652 0.419039
679 2 0.129803 0.347614 0.359975
680 4 0.140281 0.348656 0.382654
570 4 0.15206 0.361119 0.391775
568 2 0.168692 0.36966 0.408376
569 4 0.185324 0.378201 0.424977
667 2 0.222284 0.380966 0.424894
669 4 0.244728 0.369957 0.425374
541 2 0.320968 0.404292 0.331578
613 2 0.368496 0.331396 0.353097
378 4 0.345196 0.402036 0.367984
542 4 0.331152 0.39891 0.353771
376 2 0.346808 0.377625 0.373153
377 4 0.34842 0.353215 0.378322
614 4 0.354305 0.351088 0.359099
1401 4 0.416891 0.406635 0.3966
1399 2 0.394769 0.395688 0.400592
1400 4 0.372646 0.384742 0.404583
548 4 0.034965 0.448426 0.330616
547 2 0.051183 0.446876 0.349583
549 4 0.067401 0.445326 0.36855
775 2 0.0821814 0.464772 0.401077
777 4 0.0831701 0.450483 0.380582
1398 4 0.0830038 0.500093 0.419508
936 4 0.100205 0.422115 0.426391
1641 4 0.196519 0.483947 0.412635
561 4 0.410656 0.424447 0.393603
751 2 0.362926 0.499435 0.401116
1802 4 0.361416 0.490616 0.366826
1801 2 0.343668 0.494184 0.349579
753 4 0.357172 0.506397 0.377801
1471 2 0.442082 0.495016 0.38073
559 2 0.423553 0.444868 0.40007
1473 4 0.441461 0.470854 0.387133
560 4 0.43645 0.465289 0.406538
1647 4 0.118822 0.0129085 0.471489
1645 2 0.136154 0.0250092 0.458133
1646 4 0.153485 0.0371098 0.444778
605 4 0.219657 0.0439104 0.405195
604 2 0.242211 0.0435387 0.415981
341 4 0.208376 0.0426933 0.421283
342 4 0.171484 0.0396855 0.454909
340 2 0.18993 0.0411894 0.438096
606 4 0.264766 0.0431671 0.426767
432 4 0.254814 0.0767436 0.481171
724 2 0.293296 0.019319 0.473176
430 2 0.263892 0.0626429 0.462625
726 4 0.285468 0.0338751 0.454414
431 4 0.27297 0.0485421 0.444079
3731 4 0.409821 0.0668018 0.441504
1061 4 0.422122 0.0378703 0.495027
3732 4 0.426357 0.034331 0.475752
3730 2 0.418089 0.0505664 0.458628
515 4 0.408233 0.126248 0.492043
514 2 0.420735 0.142789 0.478069
516 4 0.433237 0.15933 0.464094
347 4 0.0278193 0.223588 0.461919
346 2 0.0467801 0.239886 0.461759
348 4 0.0657409 0.256185 0.461598
618 4 0.144386 0.226719 0.46641
1151 4 0.126942 0.227845 0.476521
1150 2 0.105197 0.237945 0.469429
616 2 0.162428 0.243178 0.461047
2656 2 0.423387 0.168772 0.424558
2657 4 0.426823 0.171821 0.449136
904 2 0.490747 0.171909 0.485508
813 4 0.480614 0.226135 0.496612
811 2 0.492312 0.242542 0.481808
2915 4 0.0100172 0.255153 0.498749
1220 4 0.0363677 0.310312 0.493604
1219 2 0.0509985 0.313524 0.473584
1221 4 0.0656294 0.316737 0.453564
501 4 0.0814788 0.320102 0.442067
1152 4 0.0834515 0.248045 0.462336
676 2 0.17069 0.275983 0.41521
677 4 0.176882 0.267938 0.43806
617 4 0.18047 0.259637 0.455684
803 4 0.237387 0.300429 0.455144
717 4 0.199553 0.261384 0.46162
715 2 0.221265 0.273463 0.464424
802 2 0.24042 0.324998 0.451629
716 4 0.242977 0.285542 0.467229
375 4 0.371286 0.293619 0.438641
373 2 0.39544 0.28725 0.43755
334 2 0.354687 0.326241 0.484886
374 4 0.419594 0.280881 0.436459
335 4 0.353757 0.303145 0.49442
871 2 0.445747 0.262495 0.433666
873 4 0.425669 0.265338 0.448294
934 2 0.107861 0.399582 0.434062
499 2 0.098364 0.338526 0.442862
935 4 0.115517 0.37705 0.441733
500 4 0.115249 0.35695 0.443657
668 4 0.199839 0.391975 0.424414
240 4 0.271084 0.353927 0.43254
804 4 0.243454 0.349567 0.448113
773 4 0.28871 0.391485 0.414219
772 2 0.288776 0.410546 0.430401
239 4 0.313386 0.333312 0.41562
238 2 0.292235 0.343619 0.42408
710 4 0.332792 0.335468 0.408176
336 4 0.355618 0.349336 0.475351
1454 4 0.362838 0.356635 0.457201
1453 2 0.359955 0.371247 0.437117
1455 4 0.357071 0.385858 0.417033
1159 2 0.164288 0.464929 0.482988
776 4 0.0811926 0.479061 0.421571
382 2 0.208174 0.489089 0.451256
1160 4 0.177426 0.460627 0.462155
384 4 0.192801 0.469439 0.45291
774 4 0.288843 0.429606 0.446584
882 4 0.280178 0.449762 0.497054
880 2 0.29136 0.446102 0.474991
881 4 0.302542 0.442442 0.452929
752 4 0.368681 0.492474 0.424431
850 2 0.0766121 0.0339878 0.551438
852 4 0.0607087 0.0188778 0.563436
851 4 0.0925154 0.0490978 0.53944
1057 2 0.13014 0.0478547 0.550799
1058 4 0.109415 0.0586454 0.541899
1059 4 0.150866 0.0370641 0.559699
963 4 0.154648 0.0869003 0.576724
410 4 0.176172 0.0575361 0.550467
409 2 0.193397 0.0394158 0.55084
411 4 0.210622 0.0212956 0.551213
1524 4 0.209251 0.00240885 0.551559
790 2 0.238504 0.0758869 0.517728
791 4 0.227841 0.0860073 0.537953
792 4 0.249168 0.0657664 0.497503
1153 2 0.325978 0.0389128 0.551304
1154 4 0.323975 0.0495017 0.528742
1155 4 0.327981 0.0283238 0.573866
843 4 0.335175 0.0669622 0.524566
1025 4 0.401162 0.0351937 0.5599
1062 4 0.406058 0.041588 0.542238
1060 2 0.41409 0.0397291 0.518632
1024 2 0.419652 0.039721 0.576111
3158 4 0.498219 0.0397809 0.569194
3157 2 0.483864 0.0204313 0.57588
88 3 0.459306 0.0778173 0.561936
856 2 0.198005 0.113501 0.534727
857 4 0.219975 0.104059 0.542028
858 4 0.176034 0.122944 0.527426
841 2 0.354057 0.0828925 0.528422
842 4 0.372939 0.0988229 0.532277
1032 4 0.374659 0.104724 0.551578
1030 2 0.387993 0.119458 0.566753
642 4 0.355685 0.161629 0.521821
640 2 0.374647 0.151089 0.50939
1031 4 0.401327 0.134193 0.581928
641 4 0.393609 0.140549 0.496958
90 3 0.427603 0.0953495 0.55168
87 3 0.457273 0.115346 0.562297
1217 4 0.459454 0.111148 0.542075
1216 2 0.466187 0.129139 0.526071
1218 4 0.47292 0.147131 0.510066
86 1 0.445401 0.0959705 0.565875
906 4 0.476102 0.167435 0.505274
1199 4 0.0753349 0.213635 0.567549
1198 2 0.0927706 0.195713 0.567564
1200 4 0.110206 0.177792 0.567579
1270 2 0.145788 0.190709 0.55409
1271 4 0.128878 0.1737 0.561154
1272 4 0.162699 0.207718 0.547026
1210 2 0.231998 0.227182 0.569886
1211 4 0.21192 0.218014 0.558139
898 2 0.330421 0.229313 0.557972
899 4 0.307566 0.223911 0.566553
900 4 0.353277 0.234714 0.549392
1194 4 0.361003 0.22304 0.564149
1192 2 0.383085 0.22673 0.575282
575 4 0.481502 0.231123 0.516614
574 2 0.47585 0.24177 0.53852
651 4 0.468727 0.240248 0.576505
327 4 0.0191744 0.309644 0.503461
1033 2 0.0359235 0.285938 0.533031
1034 4 0.0189009 0.292907 0.516095
1035 4 0.0529462 0.278968 0.549967
1178 4 0.061686 0.294722 0.558909
325 2 0.0063345 0.330731 0.499501
1177 2 0.0843548 0.303264 0.552718
1179 4 0.107024 0.311807 0.546527
3354 4 0.125322 0.321239 0.544824
576 4 0.470198 0.252417 0.560426
3122 4 0.481251 0.329133 0.5776
406 2 0.142497 0.403934 0.521661
408 4 0.125362 0.386123 0.517872
3352 2 0.125062 0.343489 0.53342
3353 4 0.124802 0.365738 0.522016
407 4 0.159632 0.421744 0.52545
925 2 0.384516 0.410431 0.577338
3065 4 0.473256 0.340811 0.563119
2456 4 0.483365 0.404185 0.547711
3066 4 0.479072 0.390434 0.561021
3064 2 0.476164 0.365623 0.56207
1173 4 0.17535 0.427609 0.537811
2138 4 0.14524 0.482154 0.520247
2137 2 0.121869 0.486033 0.528241
1161 4 0.151149 0.469231 0.503822
2139 4 0.0984976 0.489913 0.536235
539 4 0.0824816 0.501499 0.533501
1171 2 0.174262 0.427151 0.562787
926 4 0.389914 0.430343 0.563212
663 4 0.396305 0.44898 0.558377
661 2 0.412731 0.46754 0.561672
662 4 0.429158 0.486101 0.564968
2141 4 0.444885 0.48439 0.553752
2140 2 0.46681 0.491775 0.563238
2712 4 0.48614 0.496041 0.505539
863 4 0.0373599 0.0762204 0.652635
2048 4 0.0332162 0.0657641 0.668497
961 2 0.17826 0.0866141 0.584946
2132 4 0.21444 0.0721735 0.596784
2131 2 0.225228 0.0759171 0.619028
2133 4 0.236015 0.0796607 0.641272
1782 4 0.319292 0.0170678 0.588493
1780 2 0.298569 0.00325143 0.590697
1163 4 0.435242 0.0502861 0.6107
1026 4 0.438141 0.0442483 0.592323
1162 2 0.445315 0.0568315 0.632629
4226 4 0.472877 0.0538832 0.657149
1164 4 0.455389 0.0633769 0.654557
4225 2 0.495785 0.0457352 0.651317
862 2 0.0523374 0.0930621 0.641809
864 4 0.0673149 0.109904 0.630982
1077 4 0.07141 0.127227 0.638958
1075 2 0.060781 0.148626 0.646328
962 4 0.201871 0.0863279 0.593167
824 4 0.249032 0.0949811 0.647051
3401 4 0.407747 0.139805 0.600158
43 3 0.428871 0.104675 0.648963
89 3 0.438003 0.0956584 0.587865
3007 2 0.467754 0.119348 0.639369
3400 2 0.424075 0.157847 0.605909
3008 4 0.486717 0.133906 0.632042
3009 4 0.448792 0.10479 0.646695
1076 4 0.0501519 0.170025 0.653697
3044 4 0.0335046 0.177209 0.664782
696 4 0.243453 0.242434 0.599696
1131 4 0.235998 0.200597 0.618202
1212 4 0.252076 0.23635 0.581634
1129 2 0.245627 0.192493 0.639808
1130 4 0.255255 0.18439 0.661413
798 4 0.307799 0.214848 0.58601
796 2 0.293472 0.230434 0.599315
797 4 0.279145 0.246019 0.612619
1193 4 0.405167 0.23042 0.586414
649 2 0.44529 0.239398 0.585173
3356 4 0.437404 0.189404 0.626999
3402 4 0.440403 0.175888 0.61166
650 4 0.421852 0.238547 0.593842
3355 2 0.455952 0.185634 0.643338
3357 4 0.474499 0.181864 0.659676
3114 4 0.488172 0.197022 0.660288
878 4 0.0438227 0.322087 0.622472
695 4 0.219913 0.261583 0.639443
694 2 0.231683 0.252008 0.61957
1136 4 0.224828 0.278856 0.649059
1135 2 0.215406 0.296623 0.663916
1007 4 0.282045 0.255218 0.630085
807 4 0.307913 0.315497 0.64079
1006 2 0.287564 0.279044 0.635285
1008 4 0.293083 0.30287 0.640485
805 2 0.309286 0.332606 0.622608
954 4 0.443759 0.304534 0.664757
952 2 0.446277 0.324746 0.650254
3264 4 0.0565414 0.337713 0.626038
877 2 0.0230498 0.331107 0.611874
3262 2 0.0715374 0.344513 0.644855
806 4 0.310659 0.349714 0.604426
930 4 0.322846 0.359906 0.592391
927 4 0.379117 0.390519 0.591465
929 4 0.362553 0.388737 0.602025
928 2 0.342699 0.374322 0.597208
1018 2 0.391961 0.40652 0.655827
1020 4 0.371551 0.40361 0.669973
1019 4 0.412371 0.40943 0.64168
1011 4 0.415788 0.39243 0.629846
1010 4 0.453023 0.362801 0.645221
953 4 0.448796 0.344958 0.635752
1009 2 0.434406 0.377615 0.637534
897 4 0.0129571 0.465316 0.663957
1190 4 0.159112 0.424628 0.604039
1176 4 0.155674 0.453968 0.665106
1191 4 0.148653 0.447224 0.647407
1189 2 0.153883 0.435926 0.625723
1172 4 0.173175 0.426694 0.587762
2047 2 0.0307326 0.0662108 0.693373
2049 4 0.028249 0.0666575 0.718249
909 4 0.15691 0.0787687 0.706152
943 2 0.169443 0.0413625 0.694736
945 4 0.16814 0.0182995 0.685167
944 4 0.170746 0.0644256 0.704306
2299 2 0.223777 0.076316 0.722291
2301 4 0.230665 0.0603272 0.740238
1050 4 0.224789 0.994622 0.753763
1004 4 0.402905 0.0485873 0.708407
3425 4 0.35592 0.0174871 0.685753
3426 4 0.383468 0.0537997 0.706326
3424 2 0.369694 0.0356434 0.69604
42 3 0.413562 0.0785135 0.671186
1003 2 0.4243 0.0467172 0.72121
1005 4 0.445696 0.044847 0.734014
907 2 0.142961 0.099356 0.708754
908 4 0.129012 0.119943 0.711357
823 2 0.241759 0.0919005 0.670774
825 4 0.234486 0.0888198 0.694498
977 4 0.178485 0.154631 0.744885
2300 4 0.21689 0.0923047 0.704344
1263 4 0.331214 0.088417 0.677431
887 4 0.315535 0.0992518 0.681483
886 2 0.305776 0.120714 0.673155
888 4 0.296018 0.142175 0.664828
840 4 0.306433 0.159445 0.665402
1261 2 0.355138 0.0939563 0.672723
1262 4 0.379061 0.0994956 0.668014
44 3 0.396635 0.111895 0.667755
41 1 0.417151 0.101095 0.668667
45 3 0.429206 0.108797 0.686387
1143 4 0.444967 0.106473 0.698167
1141 2 0.448357 0.118688 0.719719
1142 4 0.451746 0.130904 0.74127
49 3 0.43855 0.146004 0.746664
810 4 0.470755 0.135848 0.750372
3043 2 0.0284664 0.196189 0.68026
3045 4 0.0234282 0.215169 0.695738
822 4 0.0148958 0.22423 0.711497
820 2 0.0364106 0.236925 0.712555
1278 4 0.173031 0.171916 0.738108
1282 2 0.149499 0.230492 0.694606
1283 4 0.151911 0.206541 0.701368
1277 4 0.1591 0.188559 0.693057
1276 2 0.166066 0.180238 0.715582
838 2 0.286245 0.172691 0.671897
839 4 0.266058 0.185937 0.678392
801 4 0.39422 0.238675 0.738315
799 2 0.387218 0.246882 0.715758
831 4 0.403689 0.223266 0.730808
829 2 0.424418 0.211654 0.738597
821 4 0.0579255 0.24962 0.713613
1207 2 0.0617259 0.289761 0.728011
1209 4 0.0644418 0.268412 0.715281
1208 4 0.05901 0.311109 0.740741
1040 4 0.066341 0.328857 0.7392
1259 4 0.155068 0.31846 0.674657
1260 4 0.141611 0.27079 0.681528
1284 4 0.147087 0.254443 0.687845
1258 2 0.14834 0.294625 0.678092
1137 4 0.205984 0.31439 0.678773
7 3 0.205823 0.327527 0.694814
10 3 0.169454 0.324769 0.686902
916 2 0.316159 0.253987 0.740012
918 4 0.309575 0.27055 0.722476
1166 4 0.3262 0.279237 0.718176
800 4 0.380216 0.255088 0.693201
1237 2 0.406764 0.293932 0.68169
1238 4 0.383871 0.284604 0.685445
1165 2 0.344804 0.283171 0.701941
1167 4 0.363408 0.287105 0.685705
1239 4 0.429657 0.303259 0.677935
1307 4 0.431413 0.305559 0.744097
3263 4 0.0865333 0.351314 0.663671
1066 2 0.0841696 0.377619 0.691725
1067 4 0.0713394 0.395716 0.70326
1068 4 0.0969999 0.359522 0.68019
816 4 0.144461 0.376628 0.736641
1121 4 0.147397 0.391556 0.722676
1120 2 0.155108 0.415047 0.726406
1394 4 0.23072 0.405072 0.667522
1393 2 0.217688 0.383844 0.669693
8 3 0.180712 0.345439 0.71629
6 1 0.185716 0.338699 0.694658
1395 4 0.204656 0.362616 0.671863
9 3 0.187537 0.357228 0.68081
891 4 0.248779 0.401625 0.675047
889 2 0.255027 0.41647 0.694172
1228 2 0.347842 0.393979 0.696834
1230 4 0.342073 0.392647 0.721126
1229 4 0.353611 0.395311 0.672541
1028 4 0.351148 0.398087 0.737834
1206 4 0.483676 0.401638 0.718498
1204 2 0.488953 0.377314 0.720878
1205 4 0.494231 0.35299 0.723259
895 2 0.0278258 0.456598 0.682071
896 4 0.0426944 0.447881 0.700184
992 4 0.0604988 0.442271 0.706364
991 2 0.0791814 0.456081 0.715606
1174 2 0.143908 0.474026 0.674293
993 4 0.0978639 0.469891 0.724849
1983 4 0.116965 0.477086 0.719735
1981 2 0.131075 0.477568 0.740371
1175 4 0.132141 0.494084 0.683479
1122 4 0.162819 0.438538 0.730135
948 4 0.168247 0.445748 0.747199
946 2 0.191589 0.45395 0.743589
1905 4 0.230936 0.473326 0.741028
947 4 0.214932 0.462151 0.739979
1903 2 0.250211 0.459352 0.733386
2175 4 0.319678 0.464943 0.684675
890 4 0.261275 0.431315 0.713297
1904 4 0.269486 0.445379 0.725744
2173 2 0.335087 0.455677 0.70205
2174 4 0.350496 0.446411 0.719424
1257 4 0.155187 0.0565596 0.825403
2000 4 0.142328 0.0658306 0.837964
1255 2 0.176185 0.0577329 0.81188
35 3 0.18615 0.0371675 0.755772
34 3 0.212859 0.0207048 0.776587
1256 4 0.197184 0.0589062 0.798357
32 3 0.20666 0.057679 0.779257
31 1 0.206891 0.0397833 0.764806
33 3 0.222376 0.0438959 0.748021
869 4 0.20863 0.076632 0.789495
2321 4 0.493748 0.0333382 0.759539
2320 2 0.484479 0.043497 0.780421
2322 4 0.475209 0.0536558 0.801303
845 4 0.456404 0.0564307 0.806876
844 2 0.440818 0.0741698 0.815097
833 4 0.992397 0.115146 0.826235
1202 4 0.0463795 0.11064 0.81706
1201 2 0.0247938 0.107256 0.829216
976 2 0.164874 0.144218 0.763092
1226 4 0.132238 0.133404 0.789102
1225 2 0.125943 0.145007 0.810337
978 4 0.151262 0.133804 0.781299
868 2 0.217626 0.09479 0.804143
870 4 0.226621 0.112948 0.818791
964 2 0.271615 0.0875606 0.801568
965 4 0.277953 0.0984803 0.82315
966 4 0.265276 0.0766409 0.779986
1112 4 0.414434 0.108956 0.821614
808 2 0.493492 0.127083 0.755975
846 4 0.425233 0.0919088 0.823318
1111 2 0.408105 0.118602 0.799431
1113 4 0.401776 0.128248 0.777248
1085 4 0.451144 0.163243 0.797756
48 3 0.474238 0.155138 0.756011
47 3 0.445543 0.165948 0.777745
46 1 0.452167 0.162297 0.75602
917 4 0.322744 0.237424 0.757547
967 2 0.299295 0.238288 0.791413
968 4 0.279243 0.233461 0.805548
1044 4 0.267917 0.244925 0.819385
969 4 0.319347 0.243114 0.777278
1297 2 0.415909 0.237196 0.796896
1299 4 0.426053 0.220843 0.81286
1086 4 0.421527 0.200671 0.81268
1084 2 0.436336 0.181957 0.805218
830 4 0.445146 0.200042 0.746386