ITEM: TIMESTEP
920000
ITEM: NUMBER OF ATOMS
4590
ITEM: BOX BOUNDS pp pp pp
-9.9985700000000008e+00 9.9985700000000008e+00
-9.9985700000000008e+00 9.9985700000000008e+00
-9.9985700000000008e+00 9.9985700000000008e+00
ITEM: ATOMS id type xs ys zs
589 2 0.0557544 0.0377237 0.0799213
591 4 0.0724337 0.0205934 0.0726047
2271 4 0.0657078 0.0352183 0.00257641
533 4 0.0651739 0.054318 0.0090101
2269 2 0.0699918 0.0108176 0.999196
532 2 0.0800101 0.0673509 0.993674
2265 4 0.241817 0.0739985 0.0136275
2263 2 0.249011 0.0507732 0.0194588
2264 4 0.256205 0.0275479 0.0252901
2162 4 0.262752 0.0172888 0.00826656
1608 4 0.385933 0.0509181 0.0671342
1606 2 0.408887 0.0596196 0.0623815
1541 4 0.384325 0.0421394 0.0835585
1540 2 0.37569 0.019034 0.0794642
1109 4 0.483875 0.0508704 0.0561917
1108 2 0.464707 0.0659511 0.061701
1110 4 0.44554 0.0810317 0.0672103
1607 4 0.431841 0.0683211 0.0576288
2976 4 0.493243 0.0371519 0.0442411
994 2 0.155542 0.171813 0.0562684
995 4 0.14047 0.152853 0.0624737
865 2 0.23051 0.149294 0.0391446
867 4 0.242874 0.129786 0.0487244
581 4 0.304309 0.107374 0.0075584
359 4 0.291283 0.0934479 0.0152922
360 4 0.256359 0.122586 0.0360771
358 2 0.273821 0.108017 0.0256846
254 4 0.340546 0.0940753 0.0489909
55 3 0.265588 0.161076 0.0761398
255 4 0.357813 0.134274 0.0247713
253 2 0.34918 0.114175 0.0368811
770 4 0.374538 0.146398 0.0301814
769 2 0.377767 0.165394 0.0461157
2770 2 0.0373928 0.231531 0.997002
2771 4 0.0144213 0.234166 0.00651721
2808 4 0.0144509 0.254645 0.00480517
996 4 0.170614 0.190774 0.0500631
915 4 0.183432 0.17558 0.000932337
866 4 0.218147 0.168801 0.0295647
352 2 0.231368 0.233194 0.0669204
353 4 0.245041 0.212277 0.0677315
1253 4 0.224977 0.186758 0.0285187
354 4 0.217695 0.254112 0.0661092
1252 2 0.24582 0.198211 0.0208021
1254 4 0.266664 0.209664 0.0130855
356 4 0.274564 0.241299 0.0417512
566 4 0.380845 0.203751 0.0571186
771 4 0.380997 0.184391 0.0620499
565 2 0.381067 0.226264 0.0679936
567 4 0.381289 0.248778 0.0788686
657 4 0.0606359 0.270188 0.0692065
294 4 0.0739137 0.269134 0.0551982
655 2 0.0389056 0.282074 0.0726242
656 4 0.0171754 0.293961 0.076042
396 4 0.00207045 0.306797 0.06936
923 4 0.0151218 0.290154 0.00866999
292 2 0.0915464 0.281992 0.0429934
293 4 0.109179 0.294849 0.0307886
288 4 0.12868 0.290442 0.0351202
286 2 0.14424 0.298459 0.0172653
287 4 0.1598 0.306476 0.99941
505 2 0.193518 0.28275 0.0590939
507 4 0.198398 0.258247 0.0600699
756 4 0.192402 0.317445 0.0750589
506 4 0.188637 0.307253 0.0581179
355 2 0.295193 0.252974 0.0497088
357 4 0.315822 0.264649 0.0576664
956 4 0.291228 0.312074 0.0763624
1069 2 0.334596 0.31825 0.994921
955 2 0.304081 0.31557 0.055202
1070 4 0.331385 0.325285 0.018699
957 4 0.316933 0.319067 0.0340416
624 4 0.335118 0.270158 0.0528916
622 2 0.355373 0.279258 0.0413986
494 4 0.40513 0.297752 0.0645839
623 4 0.375629 0.288358 0.0299057
493 2 0.39418 0.319306 0.0582047
666 4 0.399344 0.278858 0.0622243
664 2 0.420633 0.266411 0.0663507
672 4 0.450368 0.322492 0.985061
551 4 0.0475143 0.40701 0.0152593
328 2 0.05399 0.365936 0.0195546
330 4 0.0589387 0.390043 0.0151341
329 4 0.0490413 0.341829 0.0239751
755 4 0.22187 0.354972 0.0600896
754 2 0.207136 0.336208 0.0675743
789 4 0.222411 0.412141 0.0369264
787 2 0.215585 0.38909 0.043797
788 4 0.208759 0.366038 0.0506677
739 2 0.285275 0.416863 0.00915836
740 4 0.295889 0.395436 0.0018506
2387 4 0.310349 0.385006 0.992434
495 4 0.38323 0.340861 0.0518256
386 4 0.363179 0.346498 0.0491031
524 4 0.4064 0.412633 0.0476618
385 2 0.352529 0.354042 0.0704302
550 2 0.0360359 0.429137 0.013314
552 4 0.0245575 0.451265 0.0113686
1289 4 0.176635 0.467317 0.997908
741 4 0.27466 0.438289 0.0164661
243 4 0.295867 0.456293 0.0561827
241 2 0.286978 0.445461 0.0768911
525 4 0.359541 0.411261 0.0302537
523 2 0.382971 0.411947 0.0389577
1674 4 0.406817 0.431603 0.0420883
483 4 0.428788 0.493652 0.0200869
228 4 0.466045 0.464882 0.0449175
1672 2 0.425789 0.44784 0.0433516
1673 4 0.444761 0.464077 0.0446148
226 2 0.470839 0.488109 0.0369972
590 4 0.0390752 0.054854 0.0872379
577 2 0.138314 0.0286714 0.119245
675 4 0.129667 0.993711 0.145122
578 4 0.135177 0.00578177 0.128805
673 2 0.110496 0.00238261 0.15863
579 4 0.141452 0.051561 0.109684
1504 2 0.285809 0.0170996 0.137379
1505 4 0.301856 0.0321406 0.149272
653 4 0.319398 0.0318334 0.160156
571 2 0.254565 0.0718524 0.152459
573 4 0.252654 0.0826715 0.129999
1506 4 0.269763 0.00205857 0.125485
296 4 0.468744 0.00368811 0.143486
297 4 0.419686 0.00819613 0.134902
295 2 0.444215 0.00594212 0.139194
449 4 0.0252756 0.116472 0.0952452
448 2 0.0446245 0.109841 0.109627
450 4 0.0639733 0.10321 0.124008
18 3 0.0783248 0.112463 0.134073
20 3 0.0656109 0.146896 0.142464
701 4 0.130324 0.141546 0.074707
16 1 0.0831913 0.132574 0.144575
700 2 0.123043 0.137564 0.0982932
702 4 0.115762 0.133582 0.12188
17 3 0.101753 0.141847 0.134645
422 4 0.205106 0.154995 0.148417
421 2 0.219864 0.151477 0.128543
423 4 0.234623 0.147959 0.108668
476 4 0.189728 0.150656 0.158133
237 4 0.272546 0.0853912 0.126771
236 4 0.312815 0.11489 0.123783
235 2 0.29268 0.100141 0.125277
461 4 0.330158 0.108454 0.119583
629 4 0.396234 0.100115 0.113044
460 2 0.354168 0.10731 0.112698
462 4 0.378178 0.106165 0.105814
628 2 0.409547 0.121132 0.110549
557 4 0.420876 0.153327 0.0904075
630 4 0.422861 0.142148 0.108054
1759 2 0.501274 0.124385 0.135663
1760 4 0.505296 0.112642 0.113958
1761 4 0.497253 0.136127 0.157369
2760 4 0.0727326 0.164963 0.147403
2758 2 0.0723339 0.187781 0.137188
381 4 0.0707366 0.231641 0.126191
2759 4 0.0719352 0.2106 0.126973
379 2 0.07939 0.255041 0.127852
54 3 0.248432 0.194512 0.0784619
53 3 0.235072 0.164707 0.0978948
51 1 0.254185 0.175173 0.0899208
52 3 0.267573 0.180803 0.10776
738 4 0.301023 0.261891 0.138244
556 2 0.412543 0.173542 0.102536
558 4 0.404209 0.193756 0.114664
518 4 0.438117 0.237334 0.0829414
519 4 0.473026 0.229835 0.117953
528 4 0.48709 0.230681 0.134352
517 2 0.455571 0.233585 0.100447
526 2 0.490256 0.2522 0.146685
380 4 0.0880435 0.278441 0.129513
627 4 0.248302 0.325129 0.141954
611 4 0.243748 0.327805 0.122173
625 2 0.224433 0.332167 0.144389
737 4 0.251386 0.267404 0.14078
736 2 0.276205 0.264648 0.139512
610 2 0.264485 0.323203 0.108983
612 4 0.285222 0.318601 0.0957937
12 3 0.331728 0.328555 0.134377
665 4 0.441922 0.253964 0.0704771
527 4 0.493422 0.273718 0.159018
2786 4 0.027527 0.404138 0.135695
620 4 0.0732501 0.39436 0.164974
536 4 0.117794 0.411254 0.117984
535 2 0.100376 0.401699 0.133166
626 4 0.200565 0.339205 0.146823
278 4 0.264719 0.355812 0.15651
15 3 0.364567 0.345453 0.128998
11 1 0.342013 0.348557 0.129551
13 3 0.334543 0.356041 0.108897
387 4 0.34188 0.361587 0.0917574
14 3 0.336544 0.363969 0.146012
595 2 0.489576 0.409202 0.126527
659 4 0.454654 0.407538 0.124318
315 4 0.0633574 0.498447 0.123573
252 4 0.113632 0.430077 0.111978
313 2 0.0871231 0.500355 0.131105
251 4 0.145802 0.464378 0.128988
250 2 0.129717 0.447227 0.120483
1779 4 0.161826 0.468681 0.117797
1777 2 0.166335 0.493273 0.117507
242 4 0.278089 0.434629 0.0975994
660 4 0.413528 0.412932 0.152252
446 4 0.400449 0.42514 0.160292
445 2 0.376982 0.433699 0.159183
597 4 0.467935 0.420212 0.132493
658 2 0.434091 0.410235 0.138285
512 4 0.0169846 0.0402108 0.183863
1463 4 0.0298566 0.0257926 0.188575
1464 4 0.0768253 0.0238512 0.17152
1462 2 0.053341 0.0248219 0.180048
392 4 0.0877198 0.0938985 0.226108
674 4 0.0913254 0.0110542 0.172138
1829 4 0.213729 0.0280354 0.206371
688 2 0.214755 0.0616622 0.21938
690 4 0.209701 0.0376994 0.224422
689 4 0.219809 0.085625 0.214338
572 4 0.256477 0.0610333 0.174919
652 2 0.336659 0.0421397 0.175023
25 3 0.385564 0.0644368 0.170121
654 4 0.35392 0.0524461 0.189889
24 3 0.370378 0.0465815 0.199587
21 1 0.382579 0.0650741 0.19269
23 3 0.403164 0.0654239 0.203392
333 4 0.411867 0.0698377 0.220828
19 3 0.0877475 0.128887 0.167026
475 2 0.197097 0.162726 0.178753
22 3 0.370976 0.0841387 0.198262
763 2 0.34239 0.153119 0.20409
310 2 0.391471 0.132583 0.22585
312 4 0.407201 0.133374 0.24527
311 4 0.375741 0.131791 0.206431
765 4 0.358493 0.135385 0.19692
758 4 0.49067 0.117773 0.164904
757 2 0.476469 0.11064 0.184208
332 4 0.446138 0.105991 0.216451
759 4 0.462268 0.103507 0.203512
331 2 0.429003 0.0879144 0.21864
705 4 0.0268776 0.205239 0.19999
703 2 0.0226393 0.213852 0.223077
2615 4 0.0234931 0.194014 0.184307
704 4 0.018401 0.222465 0.246165
477 4 0.204467 0.174796 0.199373
693 4 0.21214 0.191193 0.192049
691 2 0.207838 0.210594 0.207224
692 4 0.203537 0.229995 0.222399
372 4 0.185986 0.234694 0.228743
764 4 0.326288 0.170853 0.21126
633 4 0.315473 0.172116 0.228007
631 2 0.315548 0.192942 0.241843
361 2 0.0653084 0.309939 0.177379
363 4 0.044027 0.320141 0.185638
749 4 0.105956 0.2932 0.175325
362 4 0.0865897 0.299737 0.169121
748 2 0.125473 0.282613 0.186823
750 4 0.14499 0.272027 0.19832
371 4 0.163881 0.273606 0.206429
510 4 0.145142 0.301423 0.212675
290 4 0.158026 0.314952 0.205229
370 2 0.174933 0.25415 0.217586
289 2 0.177771 0.329704 0.209438
291 4 0.197516 0.344456 0.213647
309 4 0.221933 0.330042 0.248862
497 4 0.225734 0.311164 0.250405
496 2 0.245957 0.298586 0.242789
498 4 0.26618 0.286008 0.235173
402 4 0.28193 0.294429 0.245801
366 4 0.0337563 0.337954 0.186695
364 2 0.0245625 0.347987 0.207671
365 4 0.0153687 0.35802 0.228647
619 2 0.0597876 0.387224 0.184799
621 4 0.0463252 0.380088 0.204624
2954 4 0.0343469 0.394554 0.210732
603 4 0.00272513 0.356156 0.243219
2953 2 0.0147842 0.409455 0.215253
338 4 0.0839239 0.370089 0.23421
647 4 0.0929471 0.38276 0.222083
646 2 0.105032 0.403727 0.215794
537 4 0.0829579 0.392144 0.148348
337 2 0.0930528 0.347236 0.238635
343 2 0.206777 0.408787 0.229861
345 4 0.216269 0.391114 0.244785
344 4 0.197285 0.426461 0.214938
307 2 0.212798 0.353316 0.248711
308 4 0.203662 0.376591 0.248561
284 4 0.257937 0.388709 0.208956
277 2 0.267509 0.372642 0.17479
279 4 0.270299 0.389472 0.19307
283 2 0.271124 0.39429 0.229454
2955 4 0.995221 0.424356 0.219774
648 4 0.117117 0.424693 0.209506
264 4 0.133549 0.433969 0.204078
262 2 0.158528 0.435074 0.203941
263 4 0.183507 0.436179 0.203805
447 4 0.353515 0.442258 0.158074
1574 4 0.401105 0.48301 0.217198
1584 4 0.420689 0.476157 0.214979
1582 2 0.442386 0.477994 0.227268
1583 4 0.464083 0.479831 0.239557
317 4 0.0126216 0.0650456 0.270332
316 2 0.0205573 0.0770264 0.290793
234 4 0.171844 0.0112615 0.26311
391 2 0.0888794 0.0919615 0.251009
427 2 0.116028 0.0873596 0.305281
429 4 0.09316 0.0886161 0.295248
393 4 0.090039 0.0900244 0.275911
428 4 0.138896 0.086103 0.315314
1701 4 0.218641 0.0343725 0.316805
2744 4 0.460071 0.0695201 0.333264
2743 2 0.462447 0.087036 0.31558
531 4 0.0183537 0.155494 0.316854
529 2 0.0248033 0.131817 0.312056
318 4 0.028493 0.0890073 0.311254
530 4 0.0312529 0.108141 0.307258
2849 4 0.00583756 0.160114 0.329825
732 4 0.179884 0.163799 0.308993
545 4 0.181723 0.181028 0.299492
487 2 0.322263 0.150462 0.301867
488 4 0.305163 0.132225 0.302296
744 4 0.410942 0.125965 0.265636
742 2 0.433088 0.122669 0.276767
2745 4 0.464823 0.104552 0.297896
743 4 0.455233 0.119374 0.287898
730 2 0.165647 0.175867 0.325632
546 4 0.207794 0.186929 0.257229
544 2 0.194759 0.183979 0.278361
632 4 0.315623 0.213769 0.25568
30 3 0.327456 0.214686 0.271619
29 3 0.320297 0.219194 0.308308
26 1 0.334462 0.209541 0.292669
248 4 0.323301 0.207106 0.32447
489 4 0.339364 0.168698 0.301439
28 3 0.334846 0.186511 0.295478
27 3 0.355713 0.21777 0.295804
420 4 0.410909 0.178075 0.302548
707 4 0.397016 0.191592 0.308578
418 2 0.416809 0.177981 0.278251
419 4 0.422709 0.177888 0.253953
389 4 0.0109667 0.234548 0.259435
388 2 0.0168415 0.250584 0.277697
390 4 0.0227162 0.266621 0.295958
300 4 0.0330816 0.28211 0.304925
298 2 0.050921 0.288438 0.321262
508 2 0.144171 0.295841 0.237028
509 4 0.1432 0.29026 0.261381
400 2 0.295623 0.313893 0.253473
401 4 0.309316 0.333356 0.261144
613 2 0.375008 0.301189 0.320006
614 4 0.367618 0.325037 0.318652
377 4 0.354071 0.337942 0.324612
615 4 0.382398 0.277341 0.321361
2493 4 0.00153033 0.371394 0.29621
416 4 0.0205286 0.369507 0.304748
415 2 0.028835 0.390029 0.293128
417 4 0.0371415 0.410551 0.281508
339 4 0.102182 0.324383 0.243059
503 4 0.147134 0.368487 0.318319
502 2 0.169821 0.370107 0.307934
504 4 0.192508 0.371727 0.297548
768 4 0.210387 0.3649 0.30327
766 2 0.222636 0.386479 0.30019
767 4 0.234885 0.408058 0.297109
543 4 0.27769 0.386026 0.262689
285 4 0.28431 0.399871 0.249951
541 2 0.299116 0.378432 0.273103
542 4 0.320542 0.370838 0.283516
378 4 0.325146 0.37273 0.303307
376 2 0.339608 0.355336 0.31396
2618 4 0.0101772 0.504139 0.270044
777 4 0.0215113 0.469248 0.326454
547 2 0.0230506 0.445337 0.299295
548 4 0.0366801 0.430171 0.284824
549 4 0.00942104 0.460503 0.313766
775 2 0.0321738 0.491864 0.326637
303 4 0.231005 0.42042 0.281784
1555 2 0.196353 0.477444 0.317199
1556 4 0.189126 0.493447 0.299399
727 2 0.318138 0.444076 0.263372
728 4 0.297084 0.432047 0.269472
302 4 0.278264 0.435104 0.274594
301 2 0.254634 0.427762 0.278189
2 3 0.294055 0.482063 0.294745
1803 4 0.293146 0.499368 0.284537
3 3 0.275336 0.467062 0.32368
4 3 0.278707 0.44796 0.290997
1 1 0.289293 0.462423 0.305733
729 4 0.339193 0.456104 0.257271
434 4 0.359018 0.456897 0.261856
438 4 0.379031 0.490978 0.318349
433 2 0.38287 0.46238 0.266975
435 4 0.406722 0.467864 0.272094
592 2 0.49216 0.47557 0.262039
593 4 0.467658 0.479625 0.25914
2635 2 0.0929832 0.0108724 0.396241
2637 4 0.113813 0.0246418 0.397552
440 4 0.16133 0.0161802 0.378476
604 2 0.209026 0.0412102 0.395723
606 4 0.22369 0.0313118 0.378055
1699 2 0.242648 0.0298847 0.322164
605 4 0.194361 0.0511087 0.41339
1700 4 0.266654 0.0253969 0.327524
1518 4 0.266687 0.00849938 0.33862
1516 2 0.290539 0.00378596 0.344454
1517 4 0.314391 0.999073 0.350287
682 2 0.32654 0.0633452 0.382546
684 4 0.326021 0.075732 0.404259
683 4 0.327059 0.0509584 0.360832
1428 4 0.382752 0.00472464 0.364193
1426 2 0.406853 0.999811 0.359704
426 4 0.398592 0.0810716 0.389039
424 2 0.406917 0.0921705 0.40984
479 4 0.465546 0.0506973 0.331899
478 2 0.452993 0.0302719 0.338999
1427 4 0.430955 0.994897 0.355215
480 4 0.44044 0.0098466 0.346098
939 4 0.125726 0.152402 0.354902
687 4 0.218481 0.107661 0.33651
685 2 0.230392 0.102537 0.357889
598 2 0.192597 0.145664 0.388507
600 4 0.187687 0.124979 0.401668
1180 2 0.208203 0.0956901 0.414361
1182 4 0.188414 0.110856 0.416256
686 4 0.242304 0.0974138 0.379267
599 4 0.197507 0.166349 0.375346
405 4 0.316744 0.132905 0.390522
403 2 0.299298 0.116249 0.397109
404 4 0.281852 0.0995923 0.403696
468 4 0.33444 0.134406 0.381462
258 4 0.396779 0.0847329 0.369303
256 2 0.399622 0.102809 0.352263
257 4 0.402466 0.120885 0.335224
466 2 0.346925 0.146281 0.363344
467 4 0.359411 0.158156 0.345225
2880 4 0.488545 0.0853556 0.397086
304 2 0.472433 0.121382 0.407087
306 4 0.474907 0.0965051 0.407508
305 4 0.469959 0.14626 0.406666
938 4 0.095005 0.170736 0.389842
937 2 0.110366 0.161569 0.372372
261 4 0.102031 0.168874 0.408397
731 4 0.15141 0.187935 0.342271
735 4 0.0951194 0.235616 0.362195
474 4 0.195131 0.175894 0.358303
472 2 0.215577 0.189923 0.355088
473 4 0.236023 0.203951 0.351874
275 4 0.242107 0.205894 0.371609
249 4 0.307535 0.22308 0.369158
247 2 0.315418 0.215093 0.346814
276 4 0.291745 0.211161 0.374611
274 2 0.266926 0.208528 0.37311
708 4 0.3689 0.176198 0.346961
706 2 0.382958 0.183895 0.327769
266 4 0.408624 0.230704 0.351238
269 4 0.482816 0.162566 0.404137
268 2 0.474395 0.18283 0.416122
270 4 0.465974 0.203094 0.428107
346 2 0.041706 0.279586 0.424877
299 4 0.0687604 0.294767 0.337599
348 4 0.0431744 0.296075 0.406138
734 4 0.0767284 0.280606 0.350432
733 2 0.0859239 0.258111 0.356314
617 4 0.107868 0.331783 0.406977
677 4 0.12456 0.326812 0.398573
711 4 0.328867 0.267763 0.431284
265 2 0.39197 0.247052 0.342262
267 4 0.375316 0.2634 0.333286
873 4 0.402576 0.272638 0.399248
374 4 0.38481 0.280395 0.396915
373 2 0.366536 0.272444 0.412016
375 4 0.348263 0.264494 0.427118
871 2 0.42443 0.264347 0.408125
676 2 0.143988 0.332123 0.383757
678 4 0.163416 0.337433 0.36894
681 4 0.168725 0.356353 0.370429
679 2 0.185577 0.373631 0.376962
680 4 0.202429 0.390909 0.383494
570 4 0.209639 0.407374 0.394856
568 2 0.232907 0.398738 0.397889
569 4 0.256174 0.390101 0.400922
588 4 0.409465 0.405632 0.329117
1557 4 0.203579 0.46144 0.335
414 4 0.215268 0.451239 0.347202
412 2 0.216203 0.465302 0.367855
413 4 0.217138 0.479365 0.388508
1821 4 0.216464 0.489329 0.405356
5 3 0.308691 0.453102 0.313181
586 2 0.4108 0.429731 0.335647
587 4 0.412135 0.45383 0.342176
4381 2 0.495377 0.460739 0.41174
752 4 0.425431 0.46777 0.347746
751 2 0.449099 0.467711 0.355807
753 4 0.472767 0.467651 0.363868
1126 2 0.0449955 0.0113094 0.494034
1083 4 0.02907 0.051804 0.493722
1646 4 0.167971 0.0345872 0.487814
1645 2 0.15128 0.0239866 0.503119
321 4 0.238484 0.0636785 0.409437
1181 4 0.227991 0.0805242 0.412467
1523 4 0.231539 0.996966 0.463255
342 4 0.162637 0.0387019 0.469577
340 2 0.173285 0.0486213 0.449244
341 4 0.183932 0.0585407 0.428912
1522 2 0.230233 0.0215903 0.467393
1524 4 0.228928 0.0462145 0.471531
319 2 0.25951 0.0761347 0.414725
725 4 0.301271 0.0591952 0.447171
724 2 0.303838 0.0737456 0.467342
1818 4 0.303558 0.0412355 0.439153
1816 2 0.326111 0.0304861 0.43816
1817 4 0.348665 0.0197368 0.437167
411 4 0.205853 0.0870058 0.508588
409 2 0.182453 0.0948728 0.504619
320 4 0.280535 0.0885908 0.420013
726 4 0.306406 0.088296 0.487513
717 4 0.280753 0.171321 0.497916
715 2 0.296877 0.165725 0.479644
641 4 0.391714 0.146201 0.486879
515 4 0.407609 0.134224 0.480731
514 2 0.418138 0.119873 0.46317
425 4 0.415242 0.103269 0.430642
516 4 0.428668 0.105523 0.445609
904 2 0.467825 0.149935 0.463667
1218 4 0.487339 0.121197 0.482121
906 4 0.484931 0.131739 0.464882
905 4 0.450719 0.168132 0.462452
722 4 0.997345 0.237935 0.409268
721 2 0.0140016 0.22484 0.422544
259 2 0.0962419 0.191132 0.418207
723 4 0.0306583 0.211745 0.435821
260 4 0.090453 0.21339 0.428018
327 4 0.0454796 0.245994 0.44949
326 4 0.0474999 0.228182 0.496173
325 2 0.0464897 0.237088 0.472831
369 4 0.085984 0.230845 0.434444
367 2 0.10712 0.243922 0.437175
1151 4 0.139474 0.257151 0.456618
716 4 0.313001 0.160129 0.461371
575 4 0.444535 0.238157 0.468254
574 2 0.427265 0.242967 0.485684
584 4 0.474608 0.209701 0.444676
583 2 0.463751 0.23177 0.440177
347 4 0.0402376 0.263097 0.443615
368 4 0.128256 0.256999 0.439906
618 4 0.101156 0.30768 0.450275
616 2 0.104512 0.319731 0.428626
1150 2 0.145231 0.260346 0.480739
1152 4 0.150989 0.263541 0.50486
709 2 0.31431 0.287417 0.436482
710 4 0.299753 0.30707 0.44168
239 4 0.316155 0.319426 0.442934
804 4 0.252722 0.293552 0.510385
811 2 0.490907 0.270023 0.490175
812 4 0.478558 0.287524 0.477275
872 4 0.446285 0.256055 0.417002
585 4 0.452893 0.25384 0.435678
936 4 0.126714 0.38796 0.433188
934 2 0.113382 0.408738 0.437153
238 2 0.318605 0.344208 0.445177
773 4 0.270578 0.348812 0.478517
669 4 0.264838 0.357054 0.460995
667 2 0.261544 0.367645 0.438586
668 4 0.258249 0.378237 0.416178
240 4 0.321055 0.36899 0.44742
334 2 0.325493 0.387302 0.485108
772 2 0.259053 0.329091 0.488688
335 4 0.320673 0.37144 0.46639
500 4 0.0807526 0.426704 0.442878
499 2 0.0567991 0.433236 0.445834
501 4 0.0328456 0.439768 0.448791
935 4 0.10005 0.429516 0.441118
635 4 0.198503 0.476903 0.498039
880 2 0.328977 0.454136 0.45744
882 4 0.34092 0.471874 0.444482
881 4 0.317034 0.436398 0.470398
1401 4 0.424629 0.472843 0.48578
1399 2 0.406242 0.464108 0.500299
4383 4 0.478179 0.455849 0.429218
561 4 0.415889 0.487642 0.476001
1081 2 0.0380456 0.0642706 0.513451
1082 4 0.0470211 0.0767371 0.533179
1128 4 0.0328604 0.0329293 0.497274
2586 4 0.12429 0.999509 0.507836
1647 4 0.13459 0.0133859 0.518423
2584 2 0.100262 0.99704 0.501373
1782 4 0.269847 0.0219409 0.569396
432 4 0.304046 0.0936658 0.548375
430 2 0.299293 0.0868175 0.524802
1061 4 0.408439 0.0078322 0.529867
1060 2 0.416406 0.0315088 0.528806
4227 4 0.453674 0.0290705 0.568101
1062 4 0.424372 0.0551855 0.527745
90 3 0.421835 0.0745687 0.532241
3159 4 0.47385 0.0258891 0.569847
3157 2 0.487935 0.0410785 0.555845
88 3 0.443582 0.0722784 0.562891
852 4 0.0560549 0.0901781 0.546356
850 2 0.074406 0.103757 0.536157
1198 2 0.0772176 0.159283 0.57864
1199 4 0.0609344 0.171776 0.592921
851 4 0.0927571 0.117336 0.525957
1270 2 0.13159 0.144544 0.566572
1271 4 0.108977 0.149095 0.576222
1058 4 0.104395 0.103583 0.514795
1057 2 0.126776 0.0947024 0.508058
1272 4 0.154202 0.139993 0.556922
1059 4 0.149157 0.0858221 0.501321
1200 4 0.0935009 0.146789 0.564359
858 4 0.162332 0.155803 0.547629
963 4 0.220004 0.102051 0.575365
790 2 0.229482 0.119893 0.552259
791 4 0.20933 0.10678 0.559123
856 2 0.179 0.163152 0.530501
410 4 0.159054 0.10274 0.50065
792 4 0.249635 0.133006 0.545394
1155 4 0.267767 0.136675 0.552112
1153 2 0.282591 0.156736 0.553829
431 4 0.29454 0.0799692 0.501229
642 4 0.368845 0.131507 0.528853
841 2 0.358137 0.147026 0.560893
842 4 0.372833 0.146687 0.540667
640 2 0.380279 0.138854 0.507866
1025 4 0.425963 0.117299 0.561674
89 3 0.43623 0.106042 0.547069
86 1 0.439853 0.0835005 0.542927
1217 4 0.472682 0.0925389 0.52039
87 3 0.458449 0.0812892 0.529568
1216 2 0.48001 0.106868 0.501256
857 4 0.195668 0.1705 0.513373
898 2 0.307332 0.212432 0.547871
1154 4 0.297415 0.176798 0.555547
900 4 0.316362 0.234321 0.555903
1194 4 0.333671 0.237111 0.56591
899 4 0.298303 0.190543 0.539838
1034 4 0.069828 0.28314 0.51662
1033 2 0.0853287 0.298753 0.528501
1035 4 0.100829 0.314365 0.540381
1178 4 0.116145 0.323629 0.54764
1177 2 0.133152 0.324568 0.565944
1179 4 0.150159 0.325507 0.584249
1221 4 0.163107 0.247895 0.507436
1220 4 0.191187 0.266738 0.544275
695 4 0.190258 0.258663 0.563446
694 2 0.207501 0.274376 0.572444
1219 2 0.177147 0.257317 0.525855
774 4 0.247529 0.30937 0.498859
696 4 0.224744 0.290089 0.581441
1212 4 0.238278 0.303447 0.578059
802 2 0.270417 0.275947 0.51184
803 4 0.288111 0.258341 0.513294
1192 2 0.351218 0.254906 0.566694
1193 4 0.368765 0.272701 0.567479
650 4 0.387118 0.266948 0.562721
649 2 0.399939 0.259875 0.542454
651 4 0.412761 0.252802 0.522187
576 4 0.409995 0.247777 0.503114
3354 4 0.0695281 0.393178 0.547396
3352 2 0.0941279 0.392403 0.551803
3353 4 0.118728 0.391628 0.556211
406 2 0.149237 0.409076 0.553787
408 4 0.135729 0.389698 0.545588
889 2 0.214087 0.36032 0.552515
890 4 0.221169 0.354995 0.529134
891 4 0.207005 0.365644 0.575896
336 4 0.330313 0.403163 0.503826
1454 4 0.350187 0.406452 0.501254
2138 4 0.0690878 0.453516 0.553537
2137 2 0.0723028 0.474899 0.566091
1161 4 0.0855961 0.441486 0.548552
1159 2 0.104654 0.444517 0.532653
1160 4 0.123713 0.447548 0.516754
384 4 0.143495 0.451379 0.521474
382 2 0.16615 0.46142 0.518138
407 4 0.162745 0.428453 0.561985
1173 4 0.176943 0.440107 0.568844
383 4 0.188805 0.471461 0.514802
2223 4 0.248024 0.492132 0.538747
2221 2 0.249386 0.491818 0.563711
1000 2 0.358998 0.501745 0.570794
926 4 0.339112 0.46493 0.584105
1400 4 0.387856 0.455372 0.514818
1453 2 0.359323 0.429083 0.506688
1455 4 0.36846 0.451714 0.512122
2049 4 0.0265596 0.0484918 0.651867
2047 2 0.0391054 0.0340072 0.635805
2048 4 0.0516512 0.0195226 0.619744
863 4 0.0233 0.067435 0.645445
2132 4 0.223556 0.0714912 0.635534
2131 2 0.241561 0.0818251 0.649469
962 4 0.216505 0.0803511 0.620283
3426 4 0.403662 0.00108929 0.652336
1263 4 0.406268 0.091243 0.613529
4225 2 0.444891 0.0216317 0.590298
3400 2 0.489797 0.0222564 0.669296
3401 4 0.4903 0.0257365 0.64454
1164 4 0.446962 0.00503837 0.626054
3180 4 0.987808 0.154614 0.633463
961 2 0.218255 0.0912009 0.597824
887 4 0.305794 0.123017 0.656783
1031 4 0.30946 0.133116 0.639577
1030 2 0.32017 0.136409 0.617225
886 2 0.319278 0.10401 0.665844
1262 4 0.408651 0.0714505 0.659391
1024 2 0.412312 0.111655 0.581847
843 4 0.343442 0.147365 0.581119
1261 2 0.40746 0.0813467 0.63646
1026 4 0.398661 0.106011 0.602021
1032 4 0.33088 0.139702 0.594872
3007 2 0.472529 0.0985554 0.659021
3008 4 0.49103 0.11374 0.651787
3356 4 0.498698 0.130188 0.644343
1284 4 0.139634 0.252945 0.640262
1282 2 0.14237 0.235497 0.657961
1136 4 0.228154 0.228441 0.63524
1129 2 0.256347 0.207335 0.668542
1131 4 0.258673 0.232209 0.667513
798 4 0.260845 0.237693 0.648962
831 4 0.375887 0.218765 0.655057
1209 4 0.0574991 0.324417 0.659011
1258 2 0.132578 0.288623 0.636681
1260 4 0.125895 0.264994 0.631975
1259 4 0.139262 0.312253 0.641388
1067 4 0.135386 0.320905 0.624862
1135 2 0.215019 0.249312 0.639371
7 3 0.211212 0.288337 0.644788
1137 4 0.201883 0.270182 0.643502
10 3 0.193466 0.320817 0.649582
6 1 0.212566 0.309296 0.654173
9 3 0.230855 0.320379 0.645169
1395 4 0.220702 0.332157 0.631534
1210 2 0.255816 0.296907 0.594638
797 4 0.278814 0.271895 0.617212
1211 4 0.273353 0.290368 0.611216
796 2 0.26983 0.254794 0.633087
1007 4 0.370186 0.291113 0.608759
1006 2 0.358492 0.312505 0.614309
1008 4 0.346799 0.333898 0.61986
3262 2 0.0169592 0.354139 0.596057
3263 4 0.0378417 0.34101 0.600146
1207 2 0.0465053 0.334422 0.638906
1208 4 0.0355116 0.344427 0.6188
1066 2 0.14197 0.344061 0.631619
1068 4 0.148554 0.367216 0.638376
897 4 0.133757 0.37993 0.6329
895 2 0.13325 0.401495 0.645544
1394 4 0.202673 0.353361 0.589988
1393 2 0.211688 0.342759 0.610761
807 4 0.338421 0.350571 0.628015
806 4 0.363343 0.384794 0.654631
805 2 0.350882 0.367683 0.641323
930 4 0.366486 0.404257 0.656334
953 4 0.46511 0.383631 0.629875
952 2 0.457077 0.367005 0.646733
1010 4 0.463356 0.387669 0.610663
1009 2 0.445685 0.399438 0.597457
954 4 0.449043 0.350379 0.663592
896 4 0.132742 0.42306 0.658188
1190 4 0.205655 0.42764 0.626734
1171 2 0.192003 0.436949 0.588551
1172 4 0.207064 0.43379 0.608259
1189 2 0.200673 0.42816 0.651231
1002 4 0.354718 0.478712 0.579532
928 2 0.371058 0.421123 0.638451
927 4 0.378133 0.439017 0.601615
929 4 0.375629 0.437989 0.620568
925 2 0.358623 0.451974 0.59286
663 4 0.388661 0.478375 0.64273
661 2 0.411155 0.489242 0.643784
1011 4 0.428013 0.411207 0.584252
662 4 0.433648 0.50011 0.644838
945 4 0.169178 0.00412195 0.706284
909 4 0.137591 0.0480733 0.670276
907 2 0.14204 0.0726711 0.669698
944 4 0.137317 0.0373498 0.686752
943 2 0.153248 0.0207359 0.696518
2256 4 0.186323 0.996248 0.713873
2133 4 0.259566 0.0921589 0.663405
1050 4 0.3333 0.0274263 0.752355
3424 2 0.392544 0.0210126 0.662565
3425 4 0.381426 0.0409358 0.672793
41 1 0.4207 0.0791338 0.691626
1004 4 0.409419 0.0461661 0.712231
1003 2 0.405629 0.0224413 0.719155
42 3 0.418733 0.0625986 0.707496
44 3 0.402743 0.0776712 0.677004
2322 4 0.489572 0.00143939 0.742617
3402 4 0.489294 0.0187763 0.694051
43 3 0.440592 0.0761102 0.680069
862 2 0.0345886 0.0830284 0.661401
864 4 0.0458772 0.0986218 0.677357
1077 4 0.0596003 0.112284 0.680379
1075 2 0.0841192 0.116864 0.682118
1076 4 0.108638 0.121444 0.683857
908 4 0.146489 0.0972689 0.669121
1227 4 0.163732 0.107009 0.667158
1225 2 0.172309 0.126276 0.680589
1226 4 0.180886 0.145543 0.69402
978 4 0.200586 0.150552 0.696599
976 2 0.209624 0.164876 0.714992
888 4 0.332762 0.0850039 0.674906
824 4 0.258851 0.098999 0.682201
840 4 0.282726 0.146433 0.710844
825 4 0.264739 0.137699 0.713319
823 2 0.261795 0.118349 0.69776
45 3 0.420704 0.0994485 0.70192
1143 4 0.425765 0.11604 0.694448
1141 2 0.429602 0.139676 0.701643
1142 4 0.433439 0.163313 0.708837
3009 4 0.454029 0.0833703 0.666255
810 4 0.466425 0.0884702 0.696327
808 2 0.482952 0.0787958 0.712403
809 4 0.499479 0.0691214 0.728479
1283 4 0.145107 0.21805 0.675661
977 4 0.218663 0.179201 0.733384
1278 4 0.231529 0.19235 0.741887
1130 4 0.25402 0.182461 0.669571
838 2 0.28488 0.171342 0.710642
839 4 0.287034 0.196252 0.710439
1277 4 0.267402 0.227184 0.742523
1276 2 0.249465 0.209767 0.742205
829 2 0.393038 0.210627 0.671329
830 4 0.410189 0.202489 0.687602
50 3 0.416517 0.211921 0.704504
49 3 0.417806 0.17559 0.714306
48 3 0.445453 0.190719 0.693065
46 1 0.4303 0.194703 0.71018
47 3 0.441909 0.200259 0.729246
1306 2 0.475516 0.200164 0.747767
1308 4 0.461696 0.200982 0.726946
821 4 0.0519436 0.307819 0.668161
820 2 0.0311196 0.30178 0.680614
822 4 0.0102957 0.29574 0.693066
3045 4 0.0188608 0.277457 0.695174
816 4 0.120199 0.299587 0.727825
1121 4 0.11615 0.318944 0.731372
814 2 0.115748 0.295584 0.752101
8 3 0.215155 0.307084 0.677125
916 2 0.30682 0.283292 0.738094
918 4 0.282578 0.277689 0.735617
799 2 0.368204 0.262545 0.727834
1166 4 0.388643 0.290414 0.734746
1165 2 0.411029 0.300722 0.730533
800 4 0.382155 0.281213 0.718777
801 4 0.354252 0.243877 0.736892
1238 4 0.433776 0.303855 0.70742
1167 4 0.433415 0.311031 0.726319
1237 2 0.438894 0.317807 0.687311
893 4 0.0183779 0.376587 0.737047
1039 2 0.0548842 0.395534 0.72619
1041 4 0.0381817 0.378989 0.734702
1040 4 0.0715868 0.412079 0.717677
1120 2 0.123138 0.342262 0.725659
1122 4 0.130126 0.365579 0.719947
948 4 0.149458 0.36749 0.722423
947 4 0.192833 0.372557 0.746789
946 2 0.171146 0.370024 0.734606
1029 4 0.32602 0.3504 0.723017
2175 4 0.280646 0.40002 0.717302
1064 4 0.317116 0.350756 0.740584
1027 2 0.345635 0.352098 0.707604
1028 4 0.365249 0.353795 0.69219
1230 4 0.376743 0.365632 0.703442
1228 2 0.396377 0.376672 0.714295
1020 4 0.419133 0.39842 0.742967
1206 4 0.439436 0.331072 0.728515
1239 4 0.444012 0.331758 0.667203
1229 4 0.416011 0.387712 0.725149
1204 2 0.45715 0.3444 0.740079
992 4 0.0884802 0.418528 0.709573
991 2 0.0980435 0.436891 0.723592
993 4 0.107607 0.455253 0.737611
1983 4 0.119742 0.456114 0.754629
1191 4 0.19569 0.42868 0.675728
1174 2 0.181149 0.466898 0.69121
1176 4 0.189896 0.443607 0.688723
1175 4 0.172402 0.490189 0.693697
2174 4 0.294734 0.446226 0.70437
1903 2 0.278194 0.476814 0.724535
1904 4 0.291029 0.465927 0.706043
2173 2 0.28769 0.423123 0.710836
1256 4 0.13153 0.0278325 0.807386
1255 2 0.15252 0.0413099 0.805674
1257 4 0.173511 0.0547873 0.803963
2000 4 0.182834 0.0625342 0.787939
2200 2 0.234618 0.00554178 0.826852
1048 2 0.336877 0.0472252 0.7672
1049 4 0.340453 0.0670241 0.782046
845 4 0.485005 0.017571 0.752544
844 2 0.479783 0.0319075 0.772352
846 4 0.474562 0.0462441 0.792161
1112 4 0.464772 0.0614304 0.786597