ITEM: TIMESTEP
1830000
ITEM: NUMBER OF ATOMS
4590
ITEM: BOX BOUNDS pp pp pp
-9.9985700000000008e+00 9.9985700000000008e+00
-9.9985700000000008e+00 9.9985700000000008e+00
-9.9985700000000008e+00 9.9985700000000008e+00
ITEM: ATOMS id type xs ys zs
532 2 0.0781951 0.0332982 0.0236439
534 4 0.084061 0.0402463 0.0469354
578 4 0.0929597 0.057596 0.0520692
577 2 0.0902141 0.0656475 0.0755812
875 4 0.105601 0.997952 0.986701
1328 4 0.220492 0.0268292 0.0140182
1327 2 0.217479 0.0393963 0.035423
2264 4 0.218185 0.00721167 0.0082383
1329 4 0.214466 0.0519634 0.0568279
1541 4 0.317651 0.0139258 0.0107009
1540 2 0.330368 0.994451 0.00152661
2163 4 0.324931 0.00410503 0.0993768
1606 2 0.453512 0.00986011 0.0805149
1286 4 0.0563204 0.157486 0.0240092
1285 2 0.037496 0.159131 0.00763504
463 2 0.169945 0.100758 0.00126403
994 2 0.195823 0.133048 0.048224
995 4 0.1907 0.112313 0.0352247
465 4 0.188439 0.109206 0.0158171
996 4 0.200947 0.153784 0.0612233
360 4 0.23037 0.145399 0.0251335
358 2 0.241143 0.125323 0.0148347
769 2 0.379525 0.166492 0.00739352
1109 4 0.421607 0.0910145 0.0829509
1073 4 0.061853 0.177742 0.0214656
1072 2 0.0846926 0.182074 0.0306728
19 3 0.129254 0.163063 0.078405
1074 4 0.107532 0.186406 0.03988
17 3 0.121755 0.189941 0.053226
702 4 0.146169 0.248465 0.0116556
700 2 0.150597 0.22386 0.0120727
16 1 0.119168 0.183715 0.075219
701 4 0.155025 0.199255 0.0124897
1254 4 0.245865 0.206838 0.000744317
1252 2 0.243708 0.184317 0.0113904
1253 4 0.241551 0.161797 0.0220364
867 4 0.25796 0.224702 0.0944204
52 3 0.289008 0.209937 0.0494971
54 3 0.266563 0.22414 0.0760893
51 1 0.285665 0.211555 0.0721986
55 3 0.28312 0.19067 0.0809139
53 3 0.304077 0.221938 0.0817701
15 3 0.335262 0.239673 0.0708921
771 4 0.379295 0.190976 0.0124611
566 4 0.359907 0.194522 0.0182693
565 2 0.352761 0.218476 0.018845
12 3 0.347491 0.249591 0.0370546
567 4 0.345615 0.242429 0.0194207
2772 4 0.0397358 0.27396 0.0318612
2770 2 0.0188074 0.281148 0.0435025
2771 4 0.997879 0.288335 0.0551439
288 4 0.121991 0.328312 0.024519
293 4 0.129391 0.32856 0.0430284
292 2 0.15165 0.317171 0.0431048
286 2 0.108442 0.319174 0.00559512
294 4 0.173908 0.305782 0.0431813
506 4 0.189632 0.318144 0.0457943
505 2 0.212316 0.328557 0.0472661
507 4 0.235001 0.33897 0.048738
14 3 0.322254 0.271102 0.0547473
623 4 0.307521 0.283059 0.0518197
622 2 0.304146 0.284166 0.0270698
956 4 0.240464 0.323265 0.0603851
955 2 0.258211 0.31023 0.072231
11 1 0.340726 0.257357 0.0576234
518 4 0.388452 0.271941 0.0428371
665 4 0.376242 0.288003 0.0420782
664 2 0.369946 0.308375 0.0290211
517 2 0.408684 0.267485 0.0568376
13 3 0.358119 0.269364 0.0671997
666 4 0.363649 0.328748 0.0159641
527 4 0.486721 0.262848 0.08239
526 2 0.462039 0.260387 0.0855342
528 4 0.437356 0.257926 0.0886784
519 4 0.428915 0.263029 0.070838
535 2 0.036525 0.405228 0.0650515
3213 4 0.334176 0.35256 0.00394477
242 4 0.307113 0.333812 0.0618179
241 2 0.321215 0.341328 0.0425875
627 4 0.312082 0.335052 0.081548
243 4 0.335317 0.348844 0.023357
788 4 0.271801 0.378395 0.995484
2388 4 0.402325 0.349508 0.0154382
2386 2 0.402342 0.3745 0.0162047
2387 4 0.40236 0.399492 0.0169712
40 3 0.395508 0.412599 0.00341688
1674 4 0.48197 0.409526 0.0131114
1071 4 0.462173 0.408969 0.00848058
252 4 0.0655496 0.437029 0.0562347
536 4 0.0488915 0.425719 0.0578151
250 2 0.0782382 0.456637 0.0651621
1223 4 0.13974 0.417783 0.0371618
1222 2 0.161028 0.428709 0.0299075
1779 4 0.150377 0.503028 0.0699455
1224 4 0.182316 0.439634 0.0226533
1290 4 0.196132 0.452933 0.0193173
1288 2 0.206991 0.473817 0.010885
1289 4 0.21785 0.494702 0.00245267
481 2 0.494806 0.486814 0.0118587
524 4 0.420101 0.480935 0.0462099
523 2 0.442584 0.478953 0.0569685
1672 2 0.496236 0.429994 0.0147562
525 4 0.465068 0.476971 0.0677271
1673 4 0.510503 0.450462 0.016401
579 4 0.0874685 0.073699 0.0990932
591 4 0.0711067 0.0697999 0.109532
2161 2 0.300066 0.00296056 0.101746
462 4 0.291069 0.0772082 0.143982
460 2 0.276808 0.0880359 0.126531
573 4 0.308636 0.0758642 0.151161
571 2 0.32772 0.0618093 0.159126
653 4 0.335527 0.0197913 0.0957716
652 2 0.339585 0.0442357 0.0991153
654 4 0.343644 0.0686801 0.102459
2724 4 0.396093 0.0377037 0.104953
2722 2 0.401542 0.0387694 0.129333
2723 4 0.40699 0.0398351 0.153712
1108 2 0.42292 0.0661557 0.0852944
759 4 0.41282 0.0332019 0.171299
25 3 0.380235 0.0740597 0.16067
1607 4 0.436177 0.0261494 0.0882174
1110 4 0.424233 0.0412968 0.0876379
705 4 0.0618448 0.1584 0.158387
589 2 0.0822163 0.0846719 0.126282
691 2 0.0940899 0.135799 0.146593
590 4 0.0933259 0.0995439 0.143033
692 4 0.108467 0.11543 0.144699
693 4 0.0797126 0.156168 0.148487
236 4 0.242065 0.0982859 0.105837
235 2 0.224761 0.113133 0.116101
237 4 0.207458 0.12798 0.126365
423 4 0.208188 0.146541 0.117934
421 2 0.20074 0.156568 0.139595
422 4 0.193292 0.166595 0.161255
461 4 0.262546 0.0988636 0.10908
629 4 0.40376 0.0988068 0.0806869
628 2 0.393571 0.120429 0.0880243
630 4 0.383383 0.142052 0.0953616
557 4 0.382427 0.161333 0.102199
2893 2 0.503389 0.166632 0.114597
332 4 0.486805 0.120744 0.156984
2895 4 0.483294 0.15531 0.104945
449 4 0.0557818 0.223478 0.105292
448 2 0.0766598 0.210983 0.0995334
450 4 0.0975379 0.198488 0.0937748
18 3 0.0965056 0.182283 0.0799927
20 3 0.128964 0.199299 0.0886289
2760 4 0.115358 0.203785 0.103219
2758 2 0.127148 0.211916 0.123714
2759 4 0.138938 0.220047 0.144209
381 4 0.143915 0.211165 0.159859
866 4 0.209271 0.220497 0.105025
865 2 0.233615 0.222599 0.0997225
556 2 0.390367 0.171289 0.123717
558 4 0.398307 0.181245 0.145234
2703 4 0.495841 0.192848 0.162656
361 2 0.0504092 0.298831 0.101975
363 4 0.0311916 0.285423 0.110698
362 4 0.0696267 0.312239 0.0932516
756 4 0.0896609 0.334978 0.134185
508 2 0.174079 0.335044 0.146825
509 4 0.162656 0.31282 0.145934
957 4 0.275957 0.297195 0.0840769
357 4 0.284454 0.285602 0.100168
355 2 0.287868 0.279954 0.124284
356 4 0.291281 0.274306 0.148401
353 4 0.298155 0.273799 0.167243
387 4 0.351879 0.270568 0.0864812
385 2 0.362217 0.270849 0.109246
386 4 0.372556 0.27113 0.13201
495 4 0.36894 0.267716 0.151746
493 2 0.381007 0.288549 0.158496
612 4 0.385261 0.321593 0.152018
494 4 0.393074 0.309381 0.165246
596 4 0.430384 0.318876 0.121408
595 2 0.453151 0.323449 0.130679
597 4 0.475917 0.328022 0.13995
2652 4 0.485757 0.321125 0.123564
537 4 0.0241585 0.384737 0.072288
657 4 0.0122017 0.372346 0.084653
656 4 0.0360763 0.34965 0.122277
655 2 0.024139 0.360998 0.103465
620 4 0.0309925 0.408495 0.160258
755 4 0.125954 0.356526 0.107368
754 2 0.107808 0.345752 0.120776
510 4 0.185501 0.357268 0.147716
309 4 0.203647 0.361596 0.154526
625 2 0.318159 0.353234 0.0975996
626 4 0.324236 0.371417 0.113651
446 4 0.328271 0.388749 0.104633
445 2 0.34534 0.396048 0.121383
447 4 0.362409 0.403348 0.138132
588 4 0.374705 0.405539 0.154019
610 2 0.383721 0.345088 0.160432
611 4 0.382182 0.368583 0.168846
251 4 0.0909268 0.476245 0.0740895
394 2 0.0104001 0.431777 0.138328
396 4 0.0308493 0.4275 0.152065
291 4 0.0947665 0.46565 0.0898914
289 2 0.104404 0.463064 0.112818
290 4 0.114041 0.460478 0.135744
284 4 0.311825 0.462271 0.13594
273 4 0.328553 0.469317 0.126827
283 2 0.309252 0.472246 0.158723
586 2 0.37087 0.426054 0.167789
271 2 0.343184 0.486818 0.116589
660 4 0.444956 0.448138 0.127047
658 2 0.45533 0.45807 0.10658
659 4 0.465703 0.468002 0.0861118
1575 4 0.436781 0.463156 0.136223
1415 4 0.0688804 0.994473 0.182397
1403 4 0.151219 0.037199 0.243234
1402 2 0.167562 0.0206062 0.234137
1404 4 0.183906 0.00401347 0.22504
24 3 0.401112 0.0487952 0.179203
572 4 0.346803 0.0477544 0.167091
21 1 0.381136 0.0605981 0.179017
22 3 0.36367 0.0456451 0.178308
742 2 0.361703 0.00666011 0.237183
743 4 0.383004 0.00716284 0.250267
758 4 0.455191 0.0066506 0.170603
757 2 0.434006 0.0199263 0.170951
428 4 0.030422 0.149953 0.217488
703 2 0.0463188 0.157228 0.177951
704 4 0.0307929 0.156056 0.197515
427 2 0.0202447 0.152517 0.240182
546 4 0.14447 0.140767 0.212848
477 4 0.165049 0.145068 0.212377
544 2 0.140953 0.140024 0.237592
476 4 0.182837 0.173372 0.175186
475 2 0.173943 0.15922 0.193781
23 3 0.3793 0.0733677 0.198304
311 4 0.391397 0.087999 0.203459
310 2 0.410071 0.103336 0.197037
312 4 0.428745 0.118672 0.190615
331 2 0.467122 0.117949 0.172149
333 4 0.44744 0.115154 0.187315
389 4 0.152149 0.1932 0.243904
388 2 0.146441 0.217218 0.247872
379 2 0.150743 0.228547 0.176484
380 4 0.15757 0.24593 0.19311
390 4 0.140732 0.241235 0.25184
496 2 0.316768 0.195121 0.247836
27 3 0.319586 0.244019 0.210619
354 4 0.304055 0.236546 0.200077
498 4 0.334977 0.196703 0.230773
30 3 0.337776 0.215725 0.226787
29 3 0.350219 0.250979 0.231254
26 1 0.340273 0.235956 0.216632
28 3 0.353276 0.233685 0.197549
248 4 0.345685 0.258805 0.249356
2935 2 0.466092 0.211232 0.174351
2936 4 0.4473 0.213219 0.190725
2517 4 0.429649 0.219065 0.184947
2515 2 0.418003 0.236974 0.19794
2937 4 0.484884 0.209245 0.157977
364 2 0.0527464 0.274528 0.194826
365 4 0.0286955 0.28014 0.190924
601 2 0.000257616 0.292772 0.1904
603 4 0.0113738 0.271139 0.196199
366 4 0.0767974 0.268915 0.198729
749 4 0.171114 0.257992 0.187079
748 2 0.169568 0.279091 0.173752
750 4 0.168021 0.300191 0.160425
352 2 0.301105 0.255173 0.18366
737 4 0.307077 0.285407 0.195915
736 2 0.323421 0.296833 0.210998
738 4 0.339765 0.308259 0.226081
2516 4 0.406357 0.254883 0.210933
2838 4 0.422199 0.263133 0.218913
2837 4 0.450201 0.303837 0.226647
2836 2 0.4362 0.283485 0.22278
339 4 0.0215944 0.370215 0.207098
621 4 0.0232187 0.366978 0.187029
337 2 0.0286838 0.354404 0.225124
619 2 0.0271056 0.387737 0.173644
338 4 0.0357732 0.338594 0.243151
308 4 0.191121 0.388955 0.194467
307 2 0.197384 0.375276 0.174497
768 4 0.198561 0.398339 0.20936
766 2 0.197271 0.384197 0.22994
2953 2 0.139021 0.443277 0.250012
2955 4 0.152467 0.463352 0.243581
2954 4 0.125574 0.423201 0.256442
301 2 0.175086 0.487085 0.25986
303 4 0.168266 0.473618 0.239927
285 4 0.306679 0.482221 0.181506
1431 4 0.268678 0.481212 0.159711
587 4 0.367036 0.446569 0.18156
435 4 0.3666 0.444008 0.200833
434 4 0.376328 0.481042 0.232997
433 2 0.371464 0.462525 0.216915
1573 2 0.43386 0.459669 0.160809
1574 4 0.430939 0.456182 0.185395
1584 4 0.442584 0.464147 0.198083
1582 2 0.45433 0.484991 0.205344
317 4 0.00223844 0.04428 0.274832
316 2 0.00394056 0.0639642 0.290155
732 4 0.135198 0.0474867 0.247722
730 2 0.113832 0.052119 0.259856
731 4 0.0924671 0.0567514 0.27199
765 4 0.213716 0.066102 0.297907
1701 4 0.228734 0.0647391 0.284164
606 4 0.216228 0.0151375 0.338649
1341 4 0.202395 0.00534531 0.327516
1700 4 0.26917 0.0505174 0.258408
1699 2 0.248952 0.0576283 0.271286
468 4 0.333437 0.0687234 0.334618
466 2 0.345506 0.0695772 0.312737
467 4 0.357575 0.0704309 0.290855
632 4 0.359583 0.0756967 0.271575
513 4 0.0040337 0.152288 0.281878
529 2 0.0323657 0.111471 0.311873
318 4 0.00564268 0.0836485 0.305479
530 4 0.018821 0.0967863 0.296838
531 4 0.0459104 0.126156 0.326909
429 4 0.0100674 0.155082 0.262876
545 4 0.137436 0.139281 0.262336
939 4 0.155134 0.143181 0.271955
937 2 0.155876 0.154279 0.294348
938 4 0.156619 0.165377 0.316742
763 2 0.21038 0.0908435 0.299288
764 4 0.207044 0.115585 0.30067
631 2 0.377686 0.0909113 0.263452
633 4 0.395788 0.106126 0.255329
708 4 0.405891 0.122112 0.250083
706 2 0.418545 0.137862 0.264814
305 4 0.495778 0.117981 0.328474
707 4 0.431198 0.153612 0.279545
489 4 0.449677 0.148854 0.286106
487 2 0.464427 0.135562 0.301303
488 4 0.479176 0.12227 0.316501
300 4 0.120751 0.245749 0.255459
298 2 0.107287 0.245016 0.276515
299 4 0.0938232 0.244282 0.297571
261 4 0.169671 0.17758 0.325898
259 2 0.191101 0.176232 0.338708
497 4 0.29856 0.19354 0.264898
279 4 0.286311 0.209423 0.256702
277 2 0.278286 0.22756 0.271927
278 4 0.270262 0.245698 0.287153
416 4 0.055529 0.34305 0.247526
503 4 0.215896 0.300098 0.256169
401 4 0.227527 0.298402 0.272981
400 2 0.241886 0.278369 0.277186
502 2 0.20162 0.314795 0.270499
402 4 0.256245 0.258336 0.281391
274 2 0.305262 0.266404 0.329418
276 4 0.312087 0.270919 0.305791
249 4 0.328706 0.264038 0.2961
247 2 0.337195 0.261421 0.272728
613 2 0.35815 0.315978 0.323004
615 4 0.35289 0.292755 0.330631
267 4 0.371783 0.284288 0.329439
415 2 0.0657032 0.355815 0.266466
548 4 0.0312982 0.381612 0.316933
680 4 0.0508323 0.386147 0.31781
547 2 0.0171188 0.393642 0.300218
549 4 0.0029394 0.405672 0.283502
679 2 0.0656807 0.376278 0.33534
647 4 0.112111 0.419267 0.270238
648 4 0.0764316 0.387673 0.285387
417 4 0.0758773 0.368579 0.285406
646 2 0.0942713 0.40347 0.277812
728 4 0.22038 0.361902 0.282052
767 4 0.195982 0.370056 0.25052
504 4 0.187345 0.329493 0.28483
727 2 0.239448 0.37463 0.292033
729 4 0.258515 0.387358 0.302014
543 4 0.254671 0.403726 0.313046
541 2 0.279243 0.401493 0.317094
542 4 0.303816 0.39926 0.321142
376 2 0.327602 0.363846 0.324109
377 4 0.34542 0.346593 0.320944
614 4 0.363409 0.339202 0.315378
118 3 0.503251 0.403508 0.298161
1821 4 0.301605 0.487375 0.319343
1705 2 0.310685 0.499658 0.251097
1707 4 0.329185 0.490278 0.265058
1437 4 0.34101 0.489609 0.281386
1436 4 0.380424 0.47968 0.252254
1435 2 0.360717 0.484645 0.26682
593 4 0.496954 0.495576 0.313219
119 3 0.502987 0.43647 0.317078
1489 2 0.0285794 0.0136658 0.356766
2635 2 0.0203392 0.0405761 0.408055
1491 4 0.0253145 0.0368238 0.36561
2637 4 0.0186962 0.0448762 0.383478
1646 4 0.146027 0.0400082 0.391646
1645 2 0.127575 0.0270192 0.402415
342 4 0.153324 0.0585731 0.388149
1647 4 0.109123 0.0140302 0.413185
604 2 0.211446 0.0376042 0.348526
605 4 0.206665 0.060071 0.358404
340 2 0.176218 0.0645493 0.380067
341 4 0.199113 0.0705256 0.371986
699 4 0.314914 0.00461657 0.335898
1517 4 0.300474 0.0154602 0.327329
1518 4 0.288609 0.0313453 0.373237
1516 2 0.294542 0.0234027 0.350283
405 4 0.278759 0.0467807 0.38196
403 2 0.274124 0.071294 0.380288
256 2 0.396274 0.0710457 0.422374
2849 4 0.0521637 0.14519 0.321371
2848 2 0.0534056 0.165104 0.33644
369 4 0.156394 0.133774 0.377174
367 2 0.135973 0.140163 0.390111
1182 4 0.150807 0.121279 0.362411
735 4 0.096612 0.143647 0.410628
368 4 0.115553 0.146553 0.403048
319 2 0.232704 0.106297 0.36212
321 4 0.215138 0.110561 0.344845
1180 2 0.173498 0.119368 0.352085
1181 4 0.196189 0.117457 0.341758
320 4 0.25027 0.102032 0.379396
404 4 0.269489 0.0958073 0.378617
258 4 0.379075 0.088442 0.417202
2657 4 0.409861 0.108507 0.39568
2656 2 0.416864 0.1294 0.383865
2658 4 0.423867 0.150293 0.372049
425 4 0.427592 0.160526 0.354637
2850 4 0.0546474 0.185018 0.351509
471 4 0.00930967 0.189629 0.401658
469 2 0.0232958 0.191196 0.380991
470 4 0.0372819 0.192764 0.360324
370 2 0.152732 0.237649 0.33681
371 4 0.127927 0.234721 0.337941
260 4 0.212531 0.174885 0.351519
598 2 0.239197 0.195609 0.370093
600 4 0.218084 0.19187 0.357231
599 4 0.26031 0.199348 0.382954
474 4 0.267197 0.216324 0.375609
472 2 0.272921 0.239298 0.367571
424 2 0.439071 0.182624 0.356894
426 4 0.45055 0.204722 0.359151
420 4 0.447821 0.224237 0.356921
418 2 0.426471 0.237248 0.356643
1221 4 0.0332848 0.339768 0.422489
372 4 0.177538 0.240577 0.33568
569 4 0.131079 0.339275 0.371202
678 4 0.126828 0.322093 0.382078
676 2 0.146744 0.316837 0.396253
716 4 0.163445 0.292083 0.409043
677 4 0.16666 0.311581 0.410428
473 4 0.278646 0.262272 0.359533
275 4 0.298436 0.26189 0.353044
265 2 0.379117 0.264314 0.34257
266 4 0.386451 0.244339 0.355701
419 4 0.405122 0.25026 0.356365
583 2 0.479808 0.298176 0.386812
585 4 0.45491 0.300463 0.386919
812 4 0.453512 0.303343 0.40762
681 4 0.0805291 0.36641 0.35287
501 4 0.0514287 0.347683 0.418962
935 4 0.0412308 0.414578 0.430233
568 2 0.11398 0.356781 0.366068
570 4 0.0968809 0.374286 0.360934
378 4 0.309783 0.381099 0.327274
1641 4 0.256991 0.418155 0.372375
1399 2 0.383276 0.411432 0.416435
1639 2 0.273421 0.42911 0.387712
1640 4 0.289851 0.440064 0.40305
1446 4 0.27792 0.455351 0.405014
1820 4 0.258283 0.464844 0.330127
1819 2 0.279944 0.47611 0.324735
1401 4 0.395794 0.427252 0.401664
561 4 0.387974 0.441962 0.391247
559 2 0.407361 0.454989 0.382324
1472 4 0.494971 0.461506 0.366494
560 4 0.426749 0.468015 0.373401
1473 4 0.445276 0.457893 0.370738
1471 2 0.470123 0.459699 0.368616
2636 4 0.0219822 0.036276 0.432631
2586 4 0.10781 0.00793112 0.431616
792 4 0.225665 0.0381662 0.487133
432 4 0.223407 0.036737 0.466577
430 2 0.241696 0.0207108 0.460758
431 4 0.259985 0.0046846 0.454939
2334 4 0.403113 0.00478372 0.471303
257 4 0.413473 0.0536494 0.427546
479 4 0.425914 0.0396558 0.419654
478 2 0.422361 0.0260679 0.44034
480 4 0.418809 0.01248 0.461027
3732 4 0.396127 0.0703533 0.479789
1061 4 0.378646 0.0684374 0.489489
3730 2 0.420984 0.071357 0.477273
3731 4 0.44584 0.0723606 0.474758
733 2 0.0883122 0.161295 0.426277
1200 4 0.117894 0.152705 0.491359
516 4 0.376209 0.172675 0.462491
515 4 0.404893 0.135203 0.479038
514 2 0.390551 0.153939 0.470764
641 4 0.468233 0.159674 0.481093
640 2 0.492467 0.165826 0.481226
346 2 0.0647228 0.217986 0.4361
347 4 0.0659838 0.242664 0.432276
734 4 0.0800124 0.178942 0.441925
348 4 0.0634619 0.193309 0.439924
1198 2 0.118353 0.177559 0.488662
616 2 0.130873 0.223626 0.454981
618 4 0.114284 0.212116 0.469729
1199 4 0.118811 0.202412 0.485966
617 4 0.147462 0.235135 0.440232
804 4 0.215557 0.249881 0.514317
1152 4 0.0815234 0.251656 0.424544
1034 4 0.0325725 0.293501 0.469254
1220 4 0.0424641 0.300755 0.452396
1219 2 0.0378745 0.320261 0.437442
1033 2 0.022134 0.303379 0.489714
1150 2 0.0962197 0.269619 0.433847
717 4 0.161599 0.249262 0.434806
1151 4 0.110916 0.287581 0.44315
1178 4 0.110772 0.283554 0.463368
715 2 0.162522 0.270672 0.421925
1177 2 0.128355 0.290124 0.479887
803 4 0.190306 0.271372 0.476884
668 4 0.180462 0.321869 0.434781
667 2 0.191639 0.335538 0.452485
802 2 0.202931 0.260627 0.495601
375 4 0.325673 0.308496 0.45948
373 2 0.344959 0.296475 0.469906
873 4 0.381746 0.27472 0.473072
374 4 0.364245 0.284453 0.480333
871 2 0.400851 0.287651 0.463428
813 4 0.412865 0.305018 0.4367
872 4 0.419955 0.300581 0.453783
811 2 0.433188 0.304181 0.42216
500 4 0.0492589 0.397417 0.423704
499 2 0.0503438 0.37255 0.421333
669 4 0.202816 0.349207 0.470188
240 4 0.220138 0.352264 0.479669
383 4 0.171815 0.424012 0.462337
238 2 0.244694 0.350153 0.475457
711 4 0.315921 0.317786 0.475727
709 2 0.301247 0.337401 0.470717
239 4 0.26925 0.348041 0.471246
710 4 0.286573 0.357017 0.465708
1400 4 0.370757 0.395612 0.431206
1455 4 0.368271 0.376117 0.430025
1453 2 0.367352 0.367741 0.453566
1454 4 0.366433 0.359364 0.477107
336 4 0.375354 0.343045 0.480555
1396 2 0.0880173 0.483764 0.425927
1398 4 0.0766002 0.464292 0.415171
936 4 0.0801069 0.44448 0.420476
934 2 0.0606689 0.429529 0.425354
382 2 0.172177 0.442722 0.478919
1445 4 0.290905 0.492007 0.436454
1444 2 0.284412 0.473679 0.420734
1585 2 0.343756 0.490644 0.459899
1586 4 0.341439 0.474913 0.479195
1083 4 0.0440652 0.0137695 0.573002
1081 2 0.0611799 0.00646749 0.556301
1057 2 0.147208 0.0338672 0.558029
1058 4 0.137387 0.0111337 0.554579
1059 4 0.157029 0.0566008 0.561479
1524 4 0.237043 0.0218614 0.569833
791 4 0.189096 0.0549697 0.516815
857 4 0.18982 0.0735842 0.50964
410 4 0.176283 0.060092 0.566234
790 2 0.20738 0.0465679 0.501974
1522 2 0.255198 0.0354216 0.580403
1781 4 0.289004 0.0582709 0.583859
1153 2 0.357625 0.0270927 0.55956
1062 4 0.367274 0.0358025 0.525633
1154 4 0.369368 0.0207333 0.538422
1060 2 0.37296 0.0521199 0.507561
1217 4 0.41638 0.991953 0.56779
1155 4 0.345881 0.033452 0.580699
1218 4 0.418598 0.039842 0.553563
1216 2 0.417489 0.0158973 0.560677
904 2 0.484291 0.0456444 0.525878
905 4 0.476387 0.0480624 0.549476
4227 4 0.477173 0.0330847 0.563223
906 4 0.492195 0.0432264 0.50228
4225 2 0.470751 0.0506936 0.579771
858 4 0.164782 0.110778 0.531787
1270 2 0.138911 0.131488 0.522623
1272 4 0.152871 0.12448 0.542146
1271 4 0.124951 0.138497 0.503099
856 2 0.177301 0.092181 0.520714
842 4 0.358994 0.116589 0.584362
1032 4 0.418883 0.141297 0.493411
1030 2 0.443834 0.142155 0.492047
1031 4 0.468786 0.143014 0.490684
3267 4 0.0070089 0.227443 0.515988
1211 4 0.194686 0.207101 0.544772
1210 2 0.212396 0.203526 0.562056
1212 4 0.230106 0.19995 0.579341
798 4 0.329089 0.250981 0.549053
898 2 0.355753 0.220578 0.562993
1194 4 0.390432 0.196957 0.573846
900 4 0.374429 0.204058 0.564859
1192 2 0.410349 0.208256 0.563806
1193 4 0.430267 0.219554 0.553765
650 4 0.448423 0.228796 0.555417
649 2 0.47285 0.230716 0.550434
1035 4 0.0116956 0.313257 0.510175
1179 4 0.145937 0.296695 0.496405
3354 4 0.157615 0.295748 0.51486
3352 2 0.151687 0.316659 0.52722
796 2 0.320616 0.274183 0.552929
797 4 0.312142 0.297385 0.556806
1007 4 0.308338 0.3145 0.564619
335 4 0.419573 0.328763 0.499032
3353 4 0.145759 0.337569 0.53958
406 2 0.14437 0.375932 0.561009
408 4 0.151089 0.354317 0.550385
925 2 0.372769 0.411576 0.55865
927 4 0.348894 0.413097 0.565921
926 4 0.396643 0.410056 0.551378
334 2 0.397463 0.335904 0.489794
663 4 0.404897 0.42185 0.565607
2138 4 0.149653 0.474498 0.56037
1161 4 0.161926 0.460185 0.555228
773 4 0.262727 0.427615 0.554657
2153 4 0.25043 0.431241 0.569536
1159 2 0.174071 0.460832 0.533382
1160 4 0.186217 0.46148 0.511536
384 4 0.172538 0.461432 0.495501
772 2 0.268728 0.448001 0.541482
881 4 0.29311 0.477138 0.524271
774 4 0.274729 0.468387 0.528307
880 2 0.313478 0.480529 0.51017
882 4 0.333846 0.483919 0.496069
661 2 0.423114 0.434698 0.576931
4337 4 0.0516144 0.00154679 0.585475
4336 2 0.0550863 0.990485 0.607628
411 4 0.212368 0.0493647 0.599151
409 2 0.194325 0.0547284 0.582693
824 4 0.219677 0.0502649 0.617444
823 2 0.235806 0.0459526 0.636057
825 4 0.251935 0.0416402 0.65467
962 4 0.172809 0.0905659 0.657013
1523 4 0.273352 0.0489818 0.590972
1782 4 0.335713 0.0431552 0.593369
1780 2 0.312358 0.050713 0.588614
2300 4 0.248688 0.0600399 0.66174
1026 4 0.43572 0.0835972 0.630925
4226 4 0.464329 0.0683025 0.59632
88 3 0.468962 0.0870996 0.599602
961 2 0.166593 0.0990144 0.634316
963 4 0.160376 0.107463 0.611618
843 4 0.372983 0.0923848 0.625825
1025 4 0.387268 0.0901706 0.641406
841 2 0.365988 0.104487 0.605093
45 3 0.372008 0.140017 0.643622
3401 4 0.387026 0.142408 0.630413
3400 2 0.401935 0.160016 0.620776
43 3 0.360311 0.105519 0.653147
1262 4 0.342972 0.113735 0.659243
3402 4 0.416843 0.177625 0.611138
1024 2 0.411494 0.0868839 0.636165
87 3 0.452472 0.120723 0.596405
90 3 0.46809 0.110826 0.628825
86 1 0.469909 0.109333 0.606172
89 3 0.489905 0.118812 0.599193
3356 4 0.43604 0.172045 0.606366
3355 2 0.459335 0.17303 0.615395
1283 4 0.170062 0.179791 0.625947
1284 4 0.160483 0.226779 0.611767
1282 2 0.165272 0.203285 0.618857
696 4 0.24068 0.185106 0.589478
1260 4 0.175134 0.240628 0.614512
694 2 0.255478 0.201686 0.600937
695 4 0.270276 0.218266 0.612396
1136 4 0.277773 0.236536 0.611942
899 4 0.337078 0.237099 0.561127
3357 4 0.48263 0.174015 0.624425
3114 4 0.493483 0.171756 0.641684
3262 2 0.0632931 0.291436 0.625139
3264 4 0.0418763 0.304335 0.625464
3263 4 0.08471 0.278536 0.624813
878 4 0.0282639 0.31885 0.626382
1067 4 0.137274 0.276461 0.596753
1068 4 0.0945235 0.294185 0.615699
1066 2 0.115899 0.285323 0.606226
1259 4 0.162126 0.283987 0.635762
1258 2 0.16863 0.262308 0.625137
10 3 0.171755 0.284906 0.653744
9 3 0.199897 0.30884 0.661014
1135 2 0.286703 0.256925 0.623331
1137 4 0.295633 0.277314 0.634721
1006 2 0.294217 0.329627 0.578653
1167 4 0.294278 0.282616 0.652882
800 4 0.437156 0.266687 0.662623
954 4 0.459183 0.328496 0.660037
1238 4 0.447246 0.26933 0.644751
1237 2 0.458475 0.29082 0.650854
1239 4 0.469705 0.31231 0.656957
877 2 0.0145036 0.33504 0.613202
407 4 0.137652 0.397546 0.571633
1173 4 0.132247 0.409542 0.58706
1171 2 0.123496 0.407058 0.61035
1008 4 0.280096 0.344754 0.592687
930 4 0.300343 0.415087 0.609024
807 4 0.279663 0.35318 0.611484
805 2 0.282755 0.377943 0.613029
806 4 0.285847 0.402707 0.614575
928 2 0.322161 0.415182 0.596812
929 4 0.34398 0.415276 0.584601
1009 2 0.381375 0.364658 0.652672
1010 4 0.403095 0.355567 0.644261
952 2 0.440803 0.34477 0.655293
953 4 0.422423 0.361045 0.650549
1172 4 0.114745 0.404574 0.63364
1190 4 0.129009 0.410178 0.64912
1189 2 0.130278 0.430892 0.663065
2152 2 0.259597 0.421336 0.590584
2028 4 0.268556 0.459267 0.661337
2154 4 0.268764 0.411431 0.611633
2027 4 0.265972 0.428189 0.622245
2026 2 0.267264 0.443728 0.641791
662 4 0.44133 0.447547 0.588255
2141 4 0.437757 0.458446 0.603653
2140 2 0.446875 0.47806 0.616196
2048 4 0.996341 0.0976042 0.676374
2254 2 0.123609 0.00821753 0.689436
2256 4 0.130735 0.0254463 0.706096
945 4 0.118839 0.029369 0.723236
943 2 0.136825 0.0300142 0.740593
2131 2 0.180657 0.0716109 0.697278
2133 4 0.189327 0.0618299 0.718593
1048 2 0.229647 0.0463189 0.739182
1050 4 0.211276 0.0330605 0.74976
2201 4 0.210932 0.018624 0.736319
34 3 0.248265 0.0742635 0.742496
1049 4 0.248019 0.0595773 0.728605
2299 2 0.251379 0.0643744 0.686217
2301 4 0.254069 0.0687088 0.710695
33 3 0.266479 0.0831452 0.710343
3426 4 0.385214 0.0296859 0.695757
3424 2 0.379698 0.0158282 0.67569
1143 4 0.429964 0.0556664 0.720059
1003 2 0.434553 0.0157966 0.70338
1005 4 0.43693 0.0396724 0.710413
1141 2 0.431331 0.0799802 0.725728
1004 4 0.432175 0.991921 0.696347
863 4 0.0110366 0.0870824 0.665437
862 2 0.028589 0.10486 0.66647
864 4 0.0461413 0.122637 0.667504
1077 4 0.0586002 0.13804 0.661115
1075 2 0.064907 0.162047 0.66413
1277 4 0.154978 0.173415 0.682004
1276 2 0.162066 0.153295 0.695046
2132 4 0.171987 0.0813918 0.675963
1278 4 0.169154 0.133174 0.708088
976 2 0.196829 0.143475 0.737493
977 4 0.18712 0.133768 0.716596
888 4 0.26382 0.161399 0.698429
887 4 0.296422 0.124139 0.705461
35 3 0.261622 0.109068 0.737215
1263 4 0.302746 0.115367 0.688906
31 1 0.26532 0.0869577 0.733202
886 2 0.280121 0.142769 0.701945
1261 2 0.322859 0.114551 0.674075
44 3 0.370657 0.130357 0.679988
41 1 0.374751 0.122906 0.658398
42 3 0.396399 0.115225 0.657162
1142 4 0.432698 0.104294 0.731398
830 4 0.414725 0.166547 0.696717
50 3 0.424751 0.152111 0.705936
48 3 0.450317 0.125658 0.697921
46 1 0.436313 0.134343 0.714257
49 3 0.421544 0.117995 0.721539
47 3 0.449091 0.141292 0.732078
1076 4 0.0712138 0.186053 0.667144
3044 4 0.0631644 0.184364 0.686252
3043 2 0.0691236 0.206148 0.696982
822 4 0.0803326 0.247141 0.699913
3045 4 0.0750829 0.227932 0.707712
840 4 0.249804 0.176823 0.701513
1130 4 0.251733 0.238088 0.686324
839 4 0.23973 0.222731 0.684434
838 2 0.244767 0.199777 0.692973
831 4 0.446249 0.204891 0.690661
829 2 0.430487 0.185719 0.693689
801 4 0.436434 0.222692 0.686385
799 2 0.436795 0.244689 0.674504
1298 4 0.418948 0.235133 0.763486
1308 4 0.413438 0.243705 0.746165
3476 4 0.00608846 0.276955 0.679555
820 2 0.0904673 0.252663 0.722094
821 4 0.100602 0.258184 0.744274
1209 4 0.103396 0.277576 0.739458
1207 2 0.102289 0.29954 0.751356
6 1 0.187725 0.290728 0.6689
1129 2 0.235047 0.256606 0.684367
814 2 0.16298 0.323989 0.703159
1395 4 0.1976 0.317547 0.679283
1131 4 0.218361 0.275124 0.682411
815 4 0.184063 0.314544 0.693595
7 3 0.202009 0.272974 0.672053
8 3 0.177813 0.296074 0.689187
1165 2 0.309749 0.283583 0.6725
1166 4 0.32522 0.284551 0.692119
918 4 0.311982 0.28523 0.705463
916 2 0.321699 0.284512 0.72849
1064 4 0.333558 0.324126 0.747273
1306 2 0.411714 0.268439 0.742936
1204 2 0.49746 0.311586 0.739714
1205 4 0.507417 0.289207 0.734696
816 4 0.141897 0.333434 0.712723
1121 4 0.139057 0.352977 0.707482
1120 2 0.128833 0.370412 0.722202
948 4 0.117963 0.408141 0.735986
1122 4 0.118609 0.387846 0.736922
946 2 0.137811 0.422593 0.740717
1393 2 0.216264 0.333735 0.683129
1394 4 0.234928 0.349923 0.686976
889 2 0.226741 0.386054 0.706182
891 4 0.237382 0.364617 0.698945
890 4 0.216099 0.407491 0.71342
1011 4 0.359654 0.373749 0.661084
1019 4 0.352832 0.378946 0.678564
1018 2 0.358256 0.395127 0.696838
1229 4 0.36538 0.395932 0.726857
1206 4 0.487503 0.333966 0.744732
3328 2 0.491197 0.372179 0.73737
897 4 0.0226548 0.48798 0.729407
895 2 0.0319473 0.46957 0.743546
1983 4 0.110073 0.487258 0.721803
1191 4 0.131547 0.451607 0.677011
1176 4 0.150172 0.455052 0.684978
1174 2 0.155488 0.47942 0.686746
947 4 0.157658 0.437045 0.745448
1981 2 0.125661 0.487367 0.741353
2173 2 0.314681 0.475498 0.714666
2174 4 0.329114 0.463745 0.731362
2175 4 0.300248 0.48725 0.697971
2369 4 0.335931 0.47035 0.748665
1020 4 0.36368 0.411309 0.715111
1267 2 0.489601 0.477287 0.71185
1101 4 0.494059 0.502317 0.738106
1202 4 0.995282 0.0605318 0.827411
1255 2 0.0816697 0.0660867 0.804605
1256 4 0.0813101 0.0503143 0.785207
944 4 0.154811 0.0306593 0.75795
909 4 0.167275 0.0185418 0.767654
907 2 0.177868 0.0256733 0.789151
908 4 0.18846 0.0328047 0.810648
2051 4 0.310616 0.0803351 0.814803
965 4 0.314476 0.0921209 0.798582
964 2 0.304077 0.0814971 0.778478
966 4 0.293677 0.0708732 0.758374
1257 4 0.0820292 0.081859 0.824003
870 4 0.163214 0.147645 0.816653
1227 4 0.184322 0.145181 0.818532
1225 2 0.196909 0.151926 0.798008
978 4 0.206539 0.153182 0.75839
32 3 0.285285 0.0807521 0.742797
2050 2 0.317252 0.0791556 0.838881
1085 4 0.420695 0.131914 0.784472
1113 4 0.435569 0.11741 0.778451
1111 2 0.45687 0.119135 0.79143
1112 4 0.478171 0.12086 0.80441
810 4 0.495098 0.131348 0.79846
1084 2 0.40954 0.152762 0.776342
1226 4 0.209496 0.158671 0.777483
968 4 0.336876 0.254662 0.806181
1044 4 0.335972 0.242891 0.822532
1086 4 0.398384 0.17361 0.768212
1299 4 0.409031 0.186496 0.757417
1297 2 0.413989 0.210815 0.760452
894 4 0.0220463 0.297832 0.839221
892 2 0.0284735 0.317613 0.825343
1039 2 0.067421 0.329947 0.786853
940 2 0.137882 0.271677 0.825627
1208 4 0.101183 0.321503 0.763253
941 4 0.141605 0.277472 0.801591
1078 2 0.145789 0.33224 0.816418
1040 4 0.08995 0.322056 0.779413
942 4 0.134159 0.265881 0.849663
969 4 0.346222 0.27424 0.761124
1096 2 0.288875 0.320679 0.817185
917 4 0.331416 0.283794 0.751517
1063 2 0.317859 0.328691 0.766191
999 4 0.344836 0.307116 0.754122
967 2 0.341549 0.264451 0.783652
997 2 0.369181 0.301805 0.752045
998 4 0.393525 0.296494 0.749968
1307 4 0.40999 0.293173 0.739708
893 4 0.0349006 0.337393 0.811464
991 2 0.045907 0.421491 0.767327
993 4 0.03621 0.39855 0.76512
1041 4 0.0448919 0.337838 0.794293
849 4 0.092816 0.38955 0.82464
990 4 0.0938731 0.39206 0.803117