ITEM: TIMESTEP
4980000
ITEM: NUMBER OF ATOMS
4590
ITEM: BOX BOUNDS pp pp pp
-9.9985700000000008e+00 9.9985700000000008e+00
-9.9985700000000008e+00 9.9985700000000008e+00
-9.9985700000000008e+00 9.9985700000000008e+00
ITEM: ATOMS id type xs ys zs
1038 4 0.0114346 0.0782643 0.0526216
1505 4 0.0869663 0.00524968 0.00854358
3782 4 0.00816331 0.0787531 0.0729619
1504 2 0.099763 0.0153829 0.027484
1506 4 0.11256 0.025516 0.0464245
764 4 0.1072 0.0433969 0.0537423
763 2 0.109733 0.0608902 0.071427
462 4 0.239784 0.0744226 0.0802237
460 2 0.248212 0.0540271 0.0684691
461 4 0.25664 0.0336315 0.0567146
2421 4 0.271671 0.0270363 0.0442357
2419 2 0.290397 0.0106057 0.0463719
1108 2 0.386131 0.0388764 0.0150915
1109 4 0.390521 0.0278804 0.0371142
1495 2 0.365588 0.000708851 0.0844377
3836 4 0.432637 0.0200978 0.00716102
77 3 0.427955 0.00528793 0.0196258
629 4 0.500262 0.0618324 0.0728369
241 2 0.0233539 0.153261 0.0307748
243 4 0.0236508 0.134818 0.0138951
1037 4 0.0247359 0.116097 0.0227469
1036 2 0.0180852 0.0971805 0.0376843
910 2 0.124815 0.0972741 0.0109
912 4 0.119218 0.0928684 0.0348675
51 1 0.16671 0.157709 0.0173242
54 3 0.159108 0.13817 0.00738178
874 2 0.155815 0.139068 0.0796711
55 3 0.164617 0.156236 0.0399538
875 4 0.161184 0.148902 0.0573183
52 3 0.18888 0.160653 0.0119415
771 4 0.236234 0.14435 0.0564424
865 2 0.227157 0.109503 0.0796027
867 4 0.225277 0.130987 0.0669505
624 4 0.207809 0.15393 0.00727278
747 4 0.337195 0.134892 0.0562927
746 4 0.380417 0.126831 0.0324679
745 2 0.358806 0.130861 0.0443803
571 2 0.413242 0.153169 0.0349108
572 4 0.399446 0.13258 0.0316067
485 4 0.40543 0.10073 0.0774395
242 4 0.023057 0.171705 0.0476546
1073 4 0.0340869 0.186616 0.0550834
1072 2 0.046725 0.204352 0.0673682
1074 4 0.059363 0.222087 0.079653
1215 4 0.052556 0.239623 0.0796719
53 3 0.154598 0.175852 0.00941732
1595 4 0.158412 0.205538 0.0304094
1594 2 0.170433 0.227443 0.0294896
769 2 0.239565 0.167037 0.046473
915 4 0.245323 0.236492 0.004327
913 2 0.244049 0.212251 0.0103185
770 4 0.242896 0.189724 0.0365036
914 4 0.242775 0.188009 0.0163101
527 4 0.350521 0.248293 0.0740691
27 3 0.363514 0.236906 0.0840961
573 4 0.427038 0.173759 0.0382148
3067 2 0.44018 0.207826 0.0179983
3069 4 0.436387 0.183752 0.0235899
3068 4 0.443973 0.231899 0.0124068
1596 4 0.182454 0.249348 0.0285699
956 4 0.242906 0.254694 0.997928
957 4 0.207604 0.276839 0.0255702
955 2 0.225255 0.265766 0.0117494
526 2 0.362659 0.259231 0.0551429
40 3 0.394232 0.269371 0.0303759
528 4 0.374797 0.270169 0.0362167
36 1 0.401122 0.291071 0.029866
37 3 0.38274 0.304825 0.0284099
2703 4 0.366545 0.299476 0.0177196
39 3 0.412763 0.29614 0.0492874
38 3 0.414652 0.294649 0.0113583
3609 4 0.488395 0.29779 0.0482654
3607 2 0.470988 0.279882 0.049475
2454 4 0.423351 0.31348 0.0124066
3608 4 0.453581 0.261973 0.0506845
518 4 0.437722 0.263225 0.0612877
2843 4 0.0186174 0.352003 0.0296106
664 2 0.180529 0.36129 0.00690244
665 4 0.191737 0.353273 0.0277661
357 4 0.203078 0.357184 0.0441517
355 2 0.227132 0.361142 0.0385915
356 4 0.251186 0.365099 0.0330314
627 4 0.256378 0.367164 0.0128395
14 3 0.263691 0.356194 0.0470025
11 1 0.281213 0.36661 0.0359175
13 3 0.27482 0.371969 0.0142653
12 3 0.29909 0.352161 0.0350322
15 3 0.287362 0.385474 0.0470974
273 4 0.28944 0.400114 0.0332882
1071 4 0.497239 0.351831 0.0182193
1777 2 0.105984 0.417085 0.0201358
1779 4 0.116634 0.423391 0.0418615
1242 4 0.102458 0.43175 0.0544368
1240 2 0.114793 0.430277 0.0761366
445 2 0.171174 0.493946 0.0188049
446 4 0.170914 0.469085 0.01615
271 2 0.297644 0.413632 0.01392
3880 2 0.405859 0.455697 0.0764316
3882 4 0.384002 0.464684 0.0845965
3881 4 0.427717 0.446711 0.0682667
3801 4 0.431553 0.445216 0.047828
3799 2 0.443241 0.44564 0.0257281
996 4 0.0391399 0.0482193 0.157763
994 2 0.0525517 0.0301038 0.14694
995 4 0.0659635 0.0119883 0.136118
732 4 0.0325279 0.0658324 0.150558
730 2 0.00850367 0.0726404 0.151848
1402 2 0.0715526 0.997696 0.101422
1532 4 0.152518 0.0130447 0.0860151
765 4 0.112267 0.0783834 0.0891116
320 4 0.134315 0.0378346 0.160557
1531 2 0.127831 0.00911079 0.0855047
1404 4 0.0843101 0.997501 0.0799191
17 3 0.158629 0.0806982 0.104607
19 3 0.121063 0.0797517 0.105362
475 2 0.171111 0.04714 0.0880959
476 4 0.173919 0.0709758 0.0951065
477 4 0.168304 0.0233041 0.0810853
1341 4 0.297311 0.999787 0.108582
1339 2 0.27445 0.994918 0.0997043
2724 4 0.334895 0.0433082 0.144969
2723 4 0.370675 0.0200609 0.118891
2722 2 0.352785 0.0316845 0.13193
1496 4 0.363278 0.0191652 0.101147
16 1 0.139883 0.0905368 0.113603
18 3 0.139496 0.112919 0.107498
20 3 0.140592 0.0886819 0.13629
876 4 0.150447 0.129234 0.102024
866 4 0.229037 0.0880188 0.0922549
484 2 0.408618 0.119867 0.0932129
698 4 0.362001 0.112999 0.164964
2828 4 0.406007 0.155889 0.121297
1784 4 0.380627 0.11459 0.156378
486 4 0.411806 0.139003 0.108986
2849 4 0.996851 0.226546 0.108367
2660 4 0.999563 0.244952 0.103308
545 4 0.161955 0.224775 0.152016
544 2 0.169726 0.24325 0.137067
353 4 0.178164 0.163278 0.145918
352 2 0.193456 0.169807 0.164592
402 4 0.317187 0.217988 0.160312
557 4 0.31626 0.233832 0.147757
400 2 0.308507 0.197066 0.1709
556 2 0.333897 0.231622 0.130173
2829 4 0.381489 0.189296 0.0933048
29 3 0.387485 0.208227 0.0880376
2827 2 0.393748 0.172592 0.107301
558 4 0.351534 0.229411 0.112588
26 1 0.379343 0.227571 0.0979328
30 3 0.396307 0.242446 0.101033
28 3 0.369447 0.222491 0.118296
1213 2 0.0525512 0.261783 0.0912526
1214 4 0.0525465 0.283943 0.102833
362 4 0.042448 0.29515 0.117552
361 2 0.0626993 0.306925 0.126293
363 4 0.0829506 0.318699 0.135035
449 4 0.0975961 0.307535 0.144176
448 2 0.108466 0.302361 0.16609
380 4 0.194732 0.308325 0.0847912
379 2 0.183585 0.288089 0.094351
546 4 0.177496 0.261725 0.122118
381 4 0.172437 0.267852 0.103911
754 2 0.233544 0.327945 0.154918
755 4 0.254863 0.316307 0.148978
510 4 0.272433 0.306952 0.144802
508 2 0.281716 0.30104 0.167252
519 4 0.401694 0.26192 0.0959425
517 2 0.419708 0.262572 0.0786151
549 4 0.0414267 0.383162 0.128154
547 2 0.0583357 0.393673 0.113029
287 4 0.034474 0.363742 0.161058
548 4 0.0752448 0.404185 0.0979041
603 4 0.118202 0.382657 0.139028
1912 2 0.139641 0.408347 0.124229
1913 4 0.133639 0.394067 0.143857
601 2 0.118438 0.374477 0.162655
756 4 0.212226 0.339582 0.160858
700 2 0.0626714 0.488629 0.133814
702 4 0.0541423 0.474856 0.152859
701 4 0.0712006 0.502402 0.114768
1241 4 0.127127 0.428805 0.0978364
1914 4 0.145643 0.422626 0.104601
2093 4 0.16383 0.485394 0.154299
2092 2 0.176405 0.492646 0.133941
659 4 0.371448 0.462221 0.102228
658 2 0.381869 0.465727 0.124685
660 4 0.392289 0.469234 0.147142
2784 4 0.499207 0.486448 0.09557
4367 4 0.49907 0.473498 0.111757
319 2 0.121858 0.0279163 0.179835
321 4 0.109401 0.0179981 0.199113
1422 4 0.10427 0.00626672 0.214581
25 3 0.303599 0.0521782 0.21445
23 3 0.303389 0.0490171 0.176932
21 1 0.297759 0.0624608 0.194987
22 3 0.275032 0.0660098 0.194815
24 3 0.30856 0.0829274 0.193295
331 2 0.392836 0.0511514 0.223522
332 4 0.403441 0.0298943 0.215721
333 4 0.382231 0.0724086 0.231323
3678 4 0.412399 0.0159639 0.227124
389 4 0.194772 0.0854892 0.195792
468 4 0.164951 0.125805 0.243494
388 2 0.183433 0.0986892 0.213747
390 4 0.172095 0.111889 0.231702
654 4 0.229173 0.11321 0.209442
742 2 0.225652 0.1526 0.210601
744 4 0.230474 0.130616 0.221492
653 4 0.268803 0.0841127 0.200302
699 4 0.325486 0.0920844 0.191981
652 2 0.248988 0.0986616 0.204872
1700 4 0.334679 0.146744 0.21928
422 4 0.329119 0.155069 0.235642
1699 2 0.315704 0.152233 0.203951
1701 4 0.296729 0.157722 0.188621
1783 2 0.400395 0.106413 0.169321
697 2 0.343743 0.102542 0.178473
421 2 0.348401 0.146708 0.249187
1785 4 0.420163 0.0982357 0.182265
305 4 0.482846 0.0950832 0.219582
420 4 0.430894 0.0853156 0.194312
418 2 0.445909 0.104844 0.198596
419 4 0.460924 0.124373 0.20288
312 4 0.465023 0.137835 0.187445
310 2 0.480487 0.157467 0.186634
304 2 0.490193 0.0980367 0.243299
354 4 0.208747 0.176337 0.183265
743 4 0.22083 0.174584 0.199709
401 4 0.299826 0.176145 0.181488
493 2 0.295685 0.220612 0.238318
494 4 0.293358 0.243629 0.228833
2837 4 0.45486 0.228844 0.175957
311 4 0.495951 0.177098 0.185824
2836 2 0.47374 0.212741 0.179026
2838 4 0.492619 0.196638 0.182095
2853 4 0.457365 0.246039 0.185685
450 4 0.119336 0.297187 0.188005
2758 2 0.105207 0.29053 0.227493
2759 4 0.114625 0.300654 0.206661
2760 4 0.0957884 0.280406 0.248326
104 3 0.301147 0.261187 0.232563
509 4 0.291 0.295128 0.189703
101 1 0.301789 0.283918 0.227948
105 3 0.293154 0.287892 0.207253
103 3 0.323657 0.291602 0.229011
588 4 0.333181 0.299428 0.245933
102 3 0.28922 0.295056 0.243668
586 2 0.355762 0.307992 0.239454
587 4 0.378342 0.316555 0.232975
387 4 0.397002 0.310705 0.24048
385 2 0.408133 0.329045 0.227638
2852 4 0.483608 0.282766 0.207205
2851 2 0.470486 0.264403 0.196445
2616 4 0.0573707 0.380525 0.206771
302 4 0.0383275 0.385588 0.209784
301 2 0.0288114 0.403491 0.224416
286 2 0.0163323 0.370115 0.17704
2614 2 0.0782432 0.369992 0.197906
602 4 0.118674 0.366297 0.186281
2615 4 0.0991156 0.35946 0.189041
344 4 0.226565 0.352509 0.166991
343 2 0.218091 0.372739 0.178996
1223 4 0.197179 0.403815 0.201728
345 4 0.209617 0.392968 0.191001
386 4 0.419264 0.347385 0.214796
610 2 0.494926 0.366215 0.246667
2651 4 0.423531 0.358769 0.231371
2650 2 0.4405 0.371315 0.244781
303 4 0.0192953 0.421394 0.239049
291 4 0.0678945 0.471886 0.167922
290 4 0.0790231 0.447237 0.209985
289 2 0.0734588 0.459561 0.188954
1766 4 0.00736118 0.492218 0.205624
1821 4 0.098153 0.439506 0.205082
1819 2 0.108615 0.431606 0.226373
1665 4 0.153129 0.496242 0.166909
1222 2 0.21007 0.425222 0.202575
1224 4 0.222962 0.446629 0.203422
1654 2 0.255623 0.477101 0.246721
1655 4 0.260973 0.50152 0.247221
594 4 0.365185 0.497738 0.176296
596 4 0.377313 0.484799 0.185232
1528 2 0.41608 0.434378 0.248041
595 2 0.385002 0.475078 0.206948
597 4 0.39269 0.465357 0.228664
1530 4 0.405107 0.451559 0.233565
416 4 0.0756151 0.00152544 0.286536
441 4 0.114632 0.0755088 0.276451
1337 4 0.087679 0.0138012 0.296587
1336 2 0.0989827 0.0343246 0.287858
1338 4 0.110286 0.0548481 0.279129
632 4 0.250269 0.0702341 0.292033
631 2 0.262374 0.0484125 0.293602
633 4 0.274479 0.026591 0.295172
404 4 0.269936 0.00674401 0.295765
469 2 0.0538222 0.134844 0.279828
471 4 0.0306115 0.127208 0.285132
470 4 0.0770329 0.142481 0.274524
365 4 0.0883811 0.159134 0.277333
439 2 0.108983 0.0941319 0.260753
440 4 0.103335 0.112755 0.245054
466 2 0.182698 0.127779 0.260997
496 2 0.230573 0.10565 0.286806
467 4 0.200444 0.129753 0.2785
497 4 0.214527 0.123938 0.292571
498 4 0.246619 0.0873624 0.28104
2893 2 0.392693 0.150606 0.285279
278 4 0.405257 0.133527 0.318932
2895 4 0.375189 0.155858 0.268214
423 4 0.367683 0.138347 0.262732
2894 4 0.410196 0.145354 0.302344
306 4 0.49754 0.10099 0.267015
1034 4 0.00857783 0.217899 0.331451
1035 4 0.0323005 0.174037 0.327702
1033 2 0.0204392 0.195968 0.329577
693 4 0.0934422 0.217711 0.263772
691 2 0.0906937 0.242471 0.261625
364 2 0.0896358 0.184033 0.279245
366 4 0.0908905 0.208932 0.281156
495 4 0.298012 0.197594 0.247802
276 4 0.410378 0.250339 0.264545
692 4 0.0879452 0.26723 0.259477
750 4 0.282135 0.296658 0.261799
748 2 0.291932 0.291032 0.284105
749 4 0.301729 0.285406 0.30641
2954 4 0.299862 0.285041 0.327726
274 2 0.419724 0.259304 0.285933
473 4 0.417277 0.272693 0.323216
275 4 0.429071 0.26827 0.307321
646 2 0.212861 0.384666 0.301628
648 4 0.206032 0.364718 0.315067
647 4 0.21969 0.404614 0.288189
506 4 0.186773 0.370707 0.312256
505 2 0.172021 0.359433 0.329002
315 4 0.263308 0.399598 0.260445
413 4 0.278347 0.404844 0.248765
412 2 0.302669 0.40238 0.254013
414 4 0.326991 0.399917 0.259262
1430 4 0.343634 0.393253 0.267917
1429 2 0.353561 0.397116 0.290538
1431 4 0.363488 0.40098 0.313159
611 4 0.471626 0.369938 0.254938
1529 4 0.427053 0.417196 0.262517
812 4 0.484183 0.341676 0.312537
813 4 0.487353 0.386844 0.291311
2652 4 0.457469 0.383861 0.258191
811 2 0.485768 0.36426 0.301924
680 4 0.0141192 0.491911 0.287407
1758 4 0.0333453 0.493886 0.292071
1820 4 0.119078 0.423705 0.247663
1788 4 0.102998 0.428981 0.259716
1787 4 0.128919 0.42298 0.302058
569 4 0.135976 0.436425 0.3136
568 2 0.155058 0.438198 0.329659
1786 2 0.115958 0.425981 0.280887
314 4 0.238133 0.442778 0.258893
1656 4 0.250273 0.452682 0.246222
313 2 0.25072 0.421188 0.259669
1587 4 0.405366 0.45779 0.33004
1585 2 0.415604 0.479092 0.321882
4382 4 0.443016 0.49999 0.303196
1586 4 0.425842 0.500395 0.313724
369 4 0.0346698 0.034367 0.411999
367 2 0.0307657 0.0546199 0.397866
368 4 0.0268616 0.0748729 0.383732
1773 4 0.0239521 0.016543 0.413349
705 4 0.130481 0.078779 0.387373
1478 4 0.135097 0.0685865 0.40385
1477 2 0.132458 0.0460672 0.39331
1479 4 0.129818 0.0235479 0.38277
1199 4 0.236885 0.0742033 0.376442
1198 2 0.22298 0.0792675 0.396596
1518 4 0.254385 0.0676886 0.367694
1516 2 0.276187 0.0772606 0.375324
430 2 0.322556 0.0653672 0.400874
431 4 0.337355 0.0452135 0.400916
257 4 0.35403 0.0538399 0.394303
256 2 0.366978 0.0333644 0.40049
258 4 0.379926 0.012889 0.406678
703 2 0.124783 0.095054 0.369266
704 4 0.119086 0.111329 0.35116
599 4 0.17128 0.137572 0.41723
600 4 0.182831 0.163242 0.375897
598 2 0.177056 0.150407 0.396563
1517 4 0.297989 0.0868325 0.382954
432 4 0.307758 0.085521 0.400831
277 2 0.410325 0.134105 0.343409
2657 4 0.410424 0.135922 0.387694
2656 2 0.414415 0.117174 0.40375
279 4 0.415394 0.134683 0.367887
2801 4 0.0111445 0.236744 0.333362
2534 4 0.0640375 0.175999 0.410825
1151 4 0.0357434 0.220445 0.387208
2535 4 0.0414012 0.204939 0.376902
2533 2 0.0527194 0.190469 0.393863
1150 2 0.0313562 0.241898 0.375138
371 4 0.169581 0.173912 0.36304
372 4 0.190395 0.219049 0.368528
260 4 0.190869 0.228562 0.350883
370 2 0.179988 0.19648 0.365784
457 2 0.0362825 0.304271 0.374071
458 4 0.0440606 0.325541 0.384667
459 4 0.0285045 0.283001 0.363475
1152 4 0.026969 0.263351 0.363068
337 2 0.155351 0.304844 0.343112
383 4 0.128198 0.286447 0.411549
382 2 0.133927 0.310338 0.406906
503 4 0.109604 0.277995 0.408861
339 4 0.155138 0.280607 0.33697
261 4 0.16028 0.26811 0.35186
338 4 0.155564 0.329081 0.349253
259 2 0.175574 0.248336 0.351371
2953 2 0.307964 0.286212 0.351352
2955 4 0.316065 0.287384 0.374978
736 2 0.331691 0.32193 0.391162
737 4 0.327405 0.29735 0.389535
803 4 0.404436 0.266591 0.380396
802 2 0.380663 0.267845 0.388043
804 4 0.356891 0.269098 0.39569
1212 4 0.347112 0.260799 0.410408
474 4 0.422347 0.265972 0.37251
472 2 0.419812 0.269332 0.347863
1220 4 0.0281095 0.333719 0.373697
2529 4 0.0412357 0.398984 0.365953
1221 4 0.0320911 0.383566 0.373936
1219 2 0.0301003 0.358643 0.373816
384 4 0.139655 0.33423 0.402263
507 4 0.157268 0.348159 0.345748
1178 4 0.139157 0.347859 0.419039
678 4 0.229884 0.400433 0.344153
728 4 0.302788 0.399563 0.384778
727 2 0.313297 0.378875 0.394092
729 4 0.323806 0.358187 0.403407
738 4 0.335976 0.34651 0.392789
248 4 0.363626 0.385825 0.328523
249 4 0.39259 0.354114 0.354141
247 2 0.378108 0.369969 0.341332
872 4 0.410316 0.356013 0.415457
650 4 0.409303 0.365929 0.358464
615 4 0.367568 0.408077 0.373823
649 2 0.416597 0.356795 0.380567
651 4 0.423892 0.347661 0.40267
2527 2 0.0454919 0.423592 0.367172
2528 4 0.0497482 0.448201 0.36839
1751 4 0.0859334 0.485229 0.404323
1750 2 0.0667627 0.474204 0.392656
1752 4 0.047592 0.463179 0.380989
1398 4 0.136215 0.423702 0.40796
935 4 0.122411 0.438887 0.412064
570 4 0.17414 0.439971 0.345719
677 4 0.190289 0.430363 0.350248
676 2 0.210086 0.415398 0.347201
539 4 0.259947 0.420927 0.402701
768 4 0.303235 0.418574 0.39248
766 2 0.309226 0.442839 0.393196
767 4 0.315218 0.467103 0.393912
2354 4 0.330349 0.469482 0.38163
2353 2 0.327218 0.49424 0.38319
613 2 0.362796 0.421082 0.394638
266 4 0.377101 0.42553 0.369578
265 2 0.393601 0.431853 0.351887
267 4 0.410101 0.438175 0.334197
850 2 0.0785535 0.00588118 0.489537
852 4 0.0838438 0.0303034 0.490401
1600 2 0.0780492 0.0624607 0.499199
1601 4 0.0867472 0.0857434 0.496471
1182 4 0.245622 0.00636538 0.457976
605 4 0.234006 0.0152244 0.472329
1200 4 0.209076 0.0843316 0.416751
604 2 0.248213 0.0137935 0.492855
3158 4 0.406314 0.0727556 0.483792
3157 2 0.397078 0.0533548 0.496578
348 4 0.0675321 0.157246 0.416415
346 2 0.0848493 0.146765 0.431093
733 2 0.105659 0.107283 0.465542
734 4 0.117613 0.125444 0.453195
347 4 0.102166 0.136285 0.445772
735 4 0.0937046 0.0891215 0.477888
791 4 0.218138 0.108035 0.470716
792 4 0.206063 0.10403 0.422354
790 2 0.212101 0.106032 0.446535
857 4 0.236716 0.110627 0.478881
1025 4 0.417088 0.0891051 0.478476
1024 2 0.410939 0.0883075 0.454254
1026 4 0.40479 0.08751 0.430031
2658 4 0.418406 0.0984265 0.419805
899 4 0.481877 0.148237 0.486362
717 4 0.140349 0.238021 0.427701
715 2 0.152363 0.220469 0.440846
504 4 0.122257 0.236234 0.433287
716 4 0.164378 0.202918 0.45399
238 2 0.199952 0.209067 0.47954
239 4 0.206326 0.195085 0.459815
240 4 0.193577 0.223048 0.499264
502 2 0.115931 0.257115 0.421074
1211 4 0.310071 0.257156 0.443806
1210 2 0.328592 0.258978 0.427107
375 4 0.321023 0.313444 0.456961
373 2 0.341652 0.300132 0.461694
374 4 0.362281 0.286819 0.466427
1167 4 0.355158 0.275496 0.481311
1165 2 0.367332 0.261593 0.498154
4298 4 0.058464 0.369261 0.428579
1121 4 0.0376761 0.371546 0.42848
1120 2 0.025941 0.357489 0.445506
1122 4 0.0142059 0.343432 0.462532
3354 4 0.0440587 0.391744 0.482778
4297 2 0.0805342 0.379606 0.434153
1396 2 0.129213 0.403816 0.421403
1397 4 0.122211 0.38393 0.434846
4299 4 0.102604 0.38995 0.439728
1177 2 0.145575 0.352562 0.442743
1179 4 0.151992 0.357265 0.466447
696 4 0.171033 0.365376 0.468741
694 2 0.161979 0.380682 0.486319
1239 4 0.320124 0.333449 0.455958
1237 2 0.327422 0.356992 0.460159
1238 4 0.334719 0.380535 0.464359
335 4 0.342235 0.393887 0.4762
334 2 0.360811 0.397955 0.492434
2538 4 0.488146 0.396171 0.448288
2457 4 0.491789 0.386149 0.466827
871 2 0.41924 0.353154 0.438638
2455 2 0.487944 0.390638 0.491122
873 4 0.428164 0.350294 0.461819
1193 4 0.437619 0.360932 0.475055
1192 2 0.433152 0.378846 0.491916
2221 2 0.151919 0.49856 0.449743
936 4 0.094341 0.471332 0.437757
934 2 0.108376 0.45511 0.424911
1160 4 0.0966657 0.494684 0.416316
538 2 0.242598 0.422874 0.420601
2345 4 0.183609 0.466912 0.454648
2346 4 0.214829 0.438452 0.42789
2223 4 0.169053 0.480354 0.450128
2344 2 0.199219 0.452682 0.441269
540 4 0.22525 0.42482 0.438502
1814 4 0.246807 0.491252 0.497579
309 4 0.370857 0.510712 0.447651
377 4 0.350299 0.45388 0.490931
614 4 0.358025 0.434088 0.415453
378 4 0.398982 0.457719 0.501699
376 2 0.37464 0.455799 0.496315
1455 4 0.418204 0.452779 0.502364
1276 2 0.0697611 0.0662322 0.564273
1278 4 0.0508764 0.0691368 0.580401
1602 4 0.0693512 0.0391781 0.501927
1277 4 0.0886457 0.0633276 0.548145
2132 4 0.106142 0.0717464 0.551049
2017 2 0.236716 0.0228282 0.554557
2018 4 0.216801 0.0123631 0.543646
888 4 0.242323 0.0669371 0.573089
2019 4 0.256631 0.0332933 0.565468
1058 4 0.266957 0.0484495 0.57354
1057 2 0.284304 0.0475279 0.555556
1059 4 0.301651 0.0466064 0.537572
606 4 0.262419 0.0123626 0.513381
831 4 0.254277 0.0588196 0.586663
3159 4 0.387842 0.033954 0.509363
1216 2 0.354142 0.00883403 0.565003
1217 4 0.371551 0.999882 0.549448
2131 2 0.119867 0.0869088 0.536665
2133 4 0.133593 0.102071 0.522281
1523 4 0.143455 0.120567 0.525268
1522 2 0.132058 0.139673 0.513855
1524 4 0.120662 0.158779 0.502441
886 2 0.240406 0.083904 0.554824
887 4 0.238488 0.100871 0.536558
856 2 0.244168 0.101574 0.500965
858 4 0.251621 0.0925217 0.523048
1263 4 0.334138 0.111434 0.505918
1261 2 0.353962 0.114488 0.520846
1143 4 0.366177 0.109368 0.551507
1141 2 0.359919 0.108843 0.575709
1262 4 0.373787 0.117543 0.535774
898 2 0.486852 0.143802 0.510461
900 4 0.491827 0.139367 0.53456
4226 4 0.499844 0.135546 0.554328
4225 2 0.486684 0.13907 0.575294
1284 4 0.130061 0.222383 0.536689
1282 2 0.134682 0.243586 0.549109
2916 4 0.112094 0.217272 0.527415
2914 2 0.120325 0.194301 0.521959
2915 4 0.128556 0.171331 0.516502
710 4 0.386591 0.229035 0.514392
709 2 0.393825 0.23079 0.538262
954 4 0.396 0.232317 0.58051
1166 4 0.379506 0.24769 0.514996
711 4 0.401058 0.232545 0.562132
1283 4 0.139302 0.264789 0.561529
669 4 0.123944 0.268694 0.573885
799 2 0.390969 0.325559 0.565282
801 4 0.369396 0.312933 0.564669
800 4 0.412542 0.338185 0.565894
890 4 0.35842 0.321205 0.579442
3353 4 0.0632793 0.36605 0.521133
3262 2 0.0668723 0.378756 0.55814
3263 4 0.0680019 0.3819 0.533361
3264 4 0.0657427 0.375611 0.582919
3352 2 0.053669 0.378897 0.501956
617 4 0.154706 0.385581 0.52186
695 4 0.152925 0.395987 0.503896
616 2 0.173336 0.388974 0.538186
618 4 0.191967 0.392368 0.554513
815 4 0.201267 0.38369 0.571533
805 2 0.284677 0.364605 0.581935
806 4 0.260093 0.365162 0.577409
807 4 0.309262 0.364049 0.58646
2028 4 0.375055 0.407463 0.572269
336 4 0.379387 0.402023 0.508669
1010 4 0.465278 0.39359 0.521537
1009 2 0.472071 0.397896 0.545211
2456 4 0.484099 0.395127 0.515417
1011 4 0.478865 0.402202 0.568886
1454 4 0.426215 0.408765 0.524708
1194 4 0.428686 0.396761 0.508777
3274 2 0.00207095 0.448988 0.57323
3276 4 0.996814 0.440706 0.55023
2244 4 0.105663 0.500401 0.577379
1172 4 0.112647 0.487208 0.563855
1171 2 0.114988 0.498693 0.541769
1704 4 0.260934 0.503515 0.506434
2026 2 0.385243 0.430234 0.573958
2173 2 0.41417 0.479661 0.573321
2027 4 0.395431 0.453006 0.575647
1453 2 0.422209 0.430772 0.513536
2174 4 0.418866 0.499673 0.559086
880 2 0.439504 0.492661 0.523329
1400 4 0.467851 0.480167 0.518047
882 4 0.451509 0.480032 0.505398
1399 2 0.492457 0.47844 0.522143
881 4 0.427498 0.505291 0.541261
2254 2 0.999636 0.00589469 0.662205
3043 2 0.0366487 0.0734667 0.616978
3045 4 0.0528428 0.0691947 0.598412
3044 4 0.0204547 0.0777387 0.635543
2459 4 0.00200583 0.0102446 0.608377
2232 4 0.141555 0.0416291 0.651796
2230 2 0.13844 0.0442185 0.627123
863 4 0.130719 0.0564304 0.659921
2231 4 0.135325 0.0468079 0.60245
841 2 0.224094 0.015039 0.632538
843 4 0.209273 0.0343272 0.638325
50 3 0.20264 0.0504549 0.647452
830 4 0.248108 0.0736081 0.634033
46 1 0.208668 0.0722985 0.649727
49 3 0.194357 0.0857844 0.637408
47 3 0.230112 0.0750967 0.641886
829 2 0.251193 0.0662138 0.610348
1218 4 0.336732 0.0177862 0.580558
725 4 0.40178 0.0387351 0.621322
3426 4 0.40135 0.031531 0.640903
3424 2 0.397433 0.0342047 0.665452
3467 4 0.495406 0.016138 0.642061
724 2 0.419954 0.0264395 0.609335
726 4 0.438128 0.0141439 0.597348
1162 2 0.475201 0.0231139 0.609209
1164 4 0.494491 0.027378 0.624536
1163 4 0.455912 0.0188497 0.593882
4286 4 0.00700551 0.162975 0.66002
1271 4 0.0188433 0.148816 0.666096
1270 2 0.0431075 0.151693 0.671401
3236 4 0.109916 0.142492 0.642206
3235 2 0.0979333 0.150652 0.662577
3731 4 0.182433 0.147327 0.613502
3730 2 0.188322 0.126984 0.626794
3732 4 0.19421 0.106641 0.640085
516 4 0.286764 0.0976888 0.656587
959 4 0.31633 0.158404 0.66668
1142 4 0.35366 0.108318 0.599911
1086 4 0.366038 0.0945986 0.610373
1084 2 0.366101 0.105273 0.632983
1085 4 0.366164 0.115948 0.655594
960 4 0.357091 0.135043 0.649547
958 2 0.336711 0.146723 0.658114
4227 4 0.473525 0.142594 0.59626
642 4 0.478439 0.140895 0.614765
640 2 0.468468 0.161781 0.624228
822 4 0.0834317 0.221926 0.65465
820 2 0.0817071 0.236641 0.634509
1068 4 0.0975733 0.212962 0.667028
1135 2 0.280198 0.203441 0.620789
1136 4 0.276666 0.227705 0.615896
797 4 0.279967 0.238492 0.632167
1137 4 0.28373 0.179176 0.625681
952 2 0.3764 0.243371 0.591412
953 4 0.356801 0.254426 0.602314
641 4 0.458497 0.182666 0.633691
2508 4 0.437158 0.227236 0.660948
2506 2 0.441606 0.211088 0.642384
2507 4 0.446054 0.194939 0.62382
3267 4 0.0729949 0.260951 0.598696
3265 2 0.0511559 0.272572 0.602328
3266 4 0.029317 0.284193 0.60596
2654 4 0.009796 0.282633 0.604602
821 4 0.0799825 0.251357 0.614368
667 2 0.134028 0.286225 0.588588
668 4 0.144113 0.303755 0.60329
8 3 0.159032 0.328677 0.628954
1131 4 0.151952 0.306174 0.666323
9 3 0.160781 0.298053 0.651392
7 3 0.157363 0.294164 0.614165
6 1 0.166832 0.306904 0.630814
3112 2 0.227556 0.29973 0.63314
10 3 0.189492 0.306548 0.628563
3113 4 0.207593 0.313218 0.626452
796 2 0.274151 0.262559 0.63565
3114 4 0.247519 0.286241 0.639828
798 4 0.268335 0.286626 0.639133
1008 4 0.270358 0.30379 0.648696
1006 2 0.288101 0.316331 0.661069
891 4 0.334782 0.317421 0.623347
889 2 0.346601 0.319313 0.601394
499 2 0.068948 0.381168 0.623585
501 4 0.0738969 0.394148 0.644374
3077 4 0.0723835 0.380495 0.658356
500 4 0.0639991 0.368188 0.602795
1259 4 0.146425 0.339916 0.617957
1258 2 0.125562 0.352679 0.612759
1260 4 0.104698 0.365441 0.607562
816 4 0.214787 0.387203 0.619549
3431 4 0.212921 0.405264 0.62685
814 2 0.208027 0.385447 0.595541
663 4 0.384449 0.372037 0.61333
1229 4 0.341233 0.370515 0.641178
2310 4 0.333883 0.389427 0.641148
661 2 0.403501 0.372655 0.629511
1228 2 0.332408 0.353109 0.656809
2308 2 0.348694 0.405687 0.653041
662 4 0.422553 0.373274 0.645692
3065 4 0.483862 0.348512 0.611887
3380 4 0.440985 0.374551 0.639184
3379 2 0.458414 0.357453 0.633792
3381 4 0.475842 0.340354 0.6284
3275 4 0.00732807 0.457269 0.596229
3430 2 0.22961 0.422203 0.634579
3432 4 0.246299 0.439141 0.642309
2309 4 0.363505 0.421947 0.664934
929 4 0.367439 0.438647 0.65418
928 2 0.374681 0.459391 0.642245
2175 4 0.409474 0.459649 0.587557
930 4 0.381922 0.480135 0.630311
2255 4 0.00245473 0.0272013 0.674982
4192 2 0.0121426 0.00960592 0.715182
4193 4 0.0078741 0.0146803 0.691074
4194 4 0.0164111 0.00453154 0.73929
862 2 0.120747 0.0525189 0.682514
2316 4 0.107766 0.0437212 0.724332
864 4 0.110775 0.0486074 0.705107
2314 2 0.0999201 0.0200546 0.722457
48 3 0.208006 0.0784055 0.672102
1050 4 0.333575 0.00173709 0.724569
1048 2 0.350484 0.0188511 0.717758
1049 4 0.367393 0.0359651 0.710947
3425 4 0.393516 0.0368785 0.690002
1090 2 0.40741 0.0237279 0.719853
42 3 0.361396 0.0483829 0.696863
1092 4 0.386822 0.0322151 0.708483
41 1 0.368056 0.0696242 0.702659
43 3 0.372989 0.0814753 0.683329
45 3 0.386531 0.0683379 0.715913
44 3 0.350785 0.08003 0.71414
3466 2 0.495667 0.00683238 0.665267
1091 4 0.427998 0.0152407 0.731224
1272 4 0.0673718 0.15457 0.676707
3237 4 0.0859509 0.158813 0.682949
1780 2 0.136 0.129571 0.726207
1781 4 0.117804 0.125779 0.742932
1782 4 0.154195 0.133364 0.709482
965 4 0.100803 0.127533 0.732491
978 4 0.17234 0.127497 0.704056
976 2 0.183079 0.10912 0.690936
977 4 0.193818 0.0907434 0.677815
963 4 0.216625 0.0962872 0.736916
961 2 0.192826 0.0957143 0.744561
514 2 0.276435 0.118327 0.666208
515 4 0.266105 0.138964 0.675829
1226 4 0.256654 0.152317 0.687568
3008 4 0.347217 0.0969349 0.725025
3007 2 0.36339 0.107729 0.740745
4465 2 0.479527 0.126112 0.703441
4467 4 0.458014 0.138802 0.704602
3356 4 0.45752 0.144258 0.723744
3355 2 0.440221 0.152348 0.739884
1067 4 0.0738941 0.212705 0.711073
894 4 0.0635212 0.227901 0.719213
1066 2 0.0857337 0.212834 0.68905
1225 2 0.273743 0.166282 0.699321
1043 4 0.292436 0.16891 0.728681
1227 4 0.290832 0.180248 0.711073
940 2 0.277451 0.244269 0.741099
1394 4 0.321766 0.248818 0.692834
1042 2 0.294788 0.188958 0.743436
892 2 0.0514532 0.248887 0.725467
893 4 0.0393852 0.269874 0.731721
3247 2 0.0371371 0.305612 0.745239
3248 4 0.0310654 0.281369 0.744481
3249 4 0.0432088 0.329856 0.745997
838 2 0.153589 0.274413 0.742833
839 4 0.1604 0.295514 0.731277
1130 4 0.156584 0.287956 0.712662
1129 2 0.154268 0.297065 0.689492
941 4 0.262723 0.262132 0.731655
916 2 0.393376 0.255318 0.746888
1393 2 0.341177 0.255515 0.707101
1395 4 0.360588 0.262212 0.721368
918 4 0.375908 0.267077 0.733406
947 4 0.0407689 0.348125 0.75287
946 2 0.0384316 0.363528 0.733313
3076 2 0.0618766 0.3835 0.680845
3078 4 0.0513697 0.386505 0.703334
948 4 0.0360944 0.37893 0.713756
1903 2 0.149564 0.393224 0.719497
1905 4 0.156724 0.369922 0.713937
849 4 0.172837 0.359039 0.708659
847 2 0.187617 0.347589 0.72526
848 4 0.202397 0.336138 0.741862
1007 4 0.305844 0.328872 0.673441
1230 4 0.323583 0.335703 0.67244
2592 4 0.472555 0.352744 0.735322
2384 4 0.487749 0.410215 0.676237
2172 4 0.108044 0.501051 0.746177
1904 4 0.142405 0.416527 0.725056
1190 4 0.125726 0.440048 0.75319
1176 4 0.248682 0.496207 0.699814
2014 2 0.2817 0.479646 0.682845
2016 4 0.306056 0.475601 0.678893
774 4 0.322201 0.476349 0.690544
2015 4 0.257344 0.483691 0.686797
772 2 0.330023 0.497275 0.701774
925 2 0.449571 0.488751 0.723462
1269 4 0.489973 0.473642 0.711262
926 4 0.472008 0.478493 0.7194
1078 2 0.146957 0.0702082 0.772084
1079 4 0.13656 0.0480462 0.777174
870 4 0.244644 0.06803 0.828772
845 4 0.428103 0.00939169 0.751581
2998 2 0.0494124 0.132832 0.829924
2999 4 0.0595253 0.155505 0.826949
1257 4 0.0773511 0.153841 0.820949
966 4 0.0673267 0.121595 0.769163
3000 4 0.0392994 0.110159 0.8329
964 2 0.0840648 0.124564 0.750827
1080 4 0.157355 0.0923702 0.766994
1255 2 0.0998213 0.164772 0.820058
1256 4 0.122292 0.175702 0.819166
962 4 0.169027 0.0951414 0.752206
869 4 0.204802 0.0977591 0.823341
868 2 0.224723 0.0828946 0.826056
818 4 0.277017 0.0976553 0.81114
817 2 0.280481 0.119535 0.822737
819 4 0.283945 0.141414 0.834333
3009 4 0.379562 0.118523 0.756465
90 3 0.381657 0.134332 0.769336
88 3 0.379896 0.108737 0.796893
89 3 0.377047 0.145778 0.804909
87 3 0.409821 0.131242 0.793629
86 1 0.386994 0.130043 0.791056
1299 4 0.427513 0.139722 0.792791
1297 2 0.442708 0.12446 0.805495
1298 4 0.457902 0.109199 0.818199
3087 4 0.469939 0.0957526 0.824669
3357 4 0.422922 0.160437 0.756023
3028 2 0.0700745 0.199452 0.767799
3030 4 0.0474322 0.191286 0.76103
2048 4 0.127638 0.25925 0.754711
3029 4 0.0927169 0.207619 0.774567
2047 2 0.116151 0.237158 0.756989
2049 4 0.104665 0.215066 0.759267
903 4 0.249847 0.221031 0.830145
57 3 0.243188 0.204913 0.822205
60 3 0.247791 0.18035 0.794485
56 1 0.255547 0.186959 0.814852
942 4 0.292179 0.226407 0.750543
1044 4 0.29714 0.209007 0.758191
58 3 0.277788 0.193352 0.81316
1094 4 0.295776 0.186225 0.820968
1093 2 0.307489 0.206505 0.829727
917 4 0.410844 0.243559 0.760371
3336 4 0.446205 0.226936 0.823096
1063 2 0.433381 0.245897 0.788344
1064 4 0.429026 0.251822 0.764447
1065 4 0.437736 0.239971 0.812242
840 4 0.146778 0.253312 0.754389