ITEM: TIMESTEP
3230000
ITEM: NUMBER OF ATOMS
4590
ITEM: BOX BOUNDS pp pp pp
-9.9985700000000008e+00 9.9985700000000008e+00
-9.9985700000000008e+00 9.9985700000000008e+00
-9.9985700000000008e+00 9.9985700000000008e+00
ITEM: ATOMS id type xs ys zs
1327 2 0.0127303 0.0299032 0.0721313
995 4 0.166771 0.0162833 0.0890532
996 4 0.182842 0.0416844 0.0490879
994 2 0.174807 0.0289839 0.0690705
477 4 0.197888 0.0552855 0.0487876
2069 4 0.167243 0.0681628 0.00380663
1566 4 0.323046 0.0166549 0.0687569
1564 2 0.332492 0.00893023 0.046933
484 2 0.375986 0.00163878 0.000532199
1110 4 0.376231 0.0268148 0.0819312
1565 4 0.341938 0.00120558 0.025109
1285 2 0.078242 0.169081 0.0154277
2606 4 0.0383698 0.139193 0.056949
2605 2 0.0159049 0.133978 0.0472892
2607 4 0.99344 0.128762 0.0376295
1074 4 0.132592 0.156912 0.0788186
1286 4 0.102859 0.172204 0.0184988
475 2 0.203808 0.079578 0.0489173
476 4 0.209727 0.10387 0.049047
243 4 0.177871 0.142886 0.0352853
915 4 0.179869 0.143183 0.0145523
866 4 0.225611 0.116239 0.0505123
53 3 0.23866 0.161244 0.0189687
865 2 0.249528 0.122108 0.0548352
741 4 0.250006 0.145751 0.0127236
867 4 0.273446 0.127976 0.0591581
771 4 0.288294 0.139296 0.0511447
769 2 0.307004 0.123109 0.0475249
770 4 0.325713 0.106921 0.0439051
747 4 0.341884 0.104971 0.0317146
2829 4 0.39589 0.112171 0.0238783
746 4 0.386245 0.128039 0.0309038
745 2 0.364064 0.116505 0.0313092
557 4 0.380878 0.136448 0.0773414
556 2 0.392437 0.156735 0.0683974
630 4 0.372568 0.118412 0.073134
2827 2 0.415333 0.116874 0.00887768
1287 4 0.0536251 0.165958 0.0123567
1124 4 0.0388936 0.178888 0.00904605
1072 2 0.119326 0.161986 0.058241
1073 4 0.10606 0.167061 0.0376634
3302 4 0.115218 0.245518 0.0534582
242 4 0.165583 0.190587 0.043907
957 4 0.172932 0.210272 0.0437458
241 2 0.171727 0.166737 0.0395962
51 1 0.233067 0.174237 0.0373617
54 3 0.210019 0.176556 0.0387073
955 2 0.188082 0.218038 0.0620579
357 4 0.241147 0.212115 0.0275164
55 3 0.242853 0.194731 0.0356634
52 3 0.240615 0.163792 0.0564165
19 3 0.172758 0.175784 0.0743024
956 4 0.203232 0.225805 0.08037
355 2 0.258971 0.22932 0.0309022
356 4 0.276795 0.246525 0.0342881
565 2 0.314978 0.234393 0.0295481
622 2 0.315235 0.185734 0.0029546
623 4 0.321097 0.205361 0.0172943
566 4 0.333494 0.217907 0.0263016
558 4 0.403996 0.177023 0.0594533
2771 4 0.00932227 0.269234 0.0341831
1213 2 0.0236393 0.277137 0.0738732
394 2 0.0826767 0.311175 0.034222
1215 4 0.00998882 0.268645 0.0547229
396 4 0.0683428 0.331583 0.0360263
395 4 0.0970106 0.290768 0.0324177
3303 4 0.0952041 0.276392 0.0195912
3301 2 0.105211 0.260955 0.0365247
1241 4 0.137098 0.30176 0.0144254
702 4 0.147533 0.307498 0.0308497
700 2 0.157689 0.330344 0.0305688
626 4 0.221479 0.324479 0.0740318
446 4 0.238374 0.312806 0.0735898
567 4 0.296462 0.25088 0.0327946
15 3 0.266994 0.262441 0.0450257
665 4 0.263713 0.307292 0.0328544
14 3 0.279531 0.29759 0.040026
13 3 0.287268 0.278857 0.0721757
11 1 0.284139 0.276815 0.0492749
12 3 0.303438 0.268589 0.0398374
664 2 0.250981 0.315408 0.0129245
522 4 0.487938 0.325393 0.0626315
520 2 0.486284 0.312549 0.0412428
521 4 0.484629 0.299706 0.0198541
854 4 0.485714 0.309085 0.00198212
250 2 0.0294492 0.340797 0.030021
251 4 0.00479601 0.338876 0.0337235
252 4 0.0541024 0.342718 0.0263185
536 4 0.00168317 0.349294 0.0499415
1595 4 0.119056 0.410602 0.0775295
924 4 0.121102 0.379443 0.014661
701 4 0.167846 0.35319 0.030288
1779 4 0.181582 0.363722 0.0210264
625 2 0.206555 0.344511 0.0751186
627 4 0.19163 0.364543 0.0762053
1777 2 0.189175 0.380749 0.0376871
1778 4 0.196769 0.397777 0.0543479
836 4 0.175903 0.378055 0.0817229
562 2 0.408038 0.350251 0.0337754
564 4 0.408685 0.342552 0.0575552
563 4 0.407392 0.357951 0.00999561
2795 4 0.0124436 0.492123 0.0720112
455 4 0.113286 0.418037 0.0599421
454 2 0.107025 0.424894 0.0367263
456 4 0.100765 0.431751 0.0135105
4212 4 0.0888236 0.446152 0.00830525
788 4 0.199952 0.453623 0.0341895
787 2 0.189826 0.466839 0.0528438
789 4 0.179699 0.480054 0.0714981
1290 4 0.187204 0.44101 0.027584
1288 2 0.197162 0.438484 0.00478825
525 4 0.401142 0.486405 0.0367445
523 2 0.405444 0.476174 0.0591498
524 4 0.409746 0.465943 0.081555
482 4 0.426931 0.459546 0.0758797
1328 4 0.0344379 0.0359106 0.0829881
3783 4 0.0216908 0.061372 0.137302
590 4 0.0634884 0.0297333 0.109606
3781 2 0.00982292 0.0824822 0.131082
589 2 0.0832144 0.014528 0.1074
763 2 0.139718 0.0626224 0.160522
732 4 0.158616 0.00513151 0.103498
765 4 0.146487 0.0746719 0.139686
1506 4 0.235844 0.072829 0.132314
462 4 0.316795 0.0201413 0.0891055
460 2 0.310581 0.0443489 0.0898524
461 4 0.304367 0.0685566 0.0905994
22 3 0.31527 0.0725552 0.129568
652 2 0.284886 0.0742332 0.147493
654 4 0.296097 0.0709317 0.125389
1108 2 0.365574 0.044485 0.0960509
25 3 0.35089 0.061413 0.129541
1109 4 0.354917 0.0621552 0.110171
21 1 0.337155 0.0795358 0.130791
629 4 0.358171 0.0827632 0.105112
692 4 0.0699237 0.161286 0.143363
2848 2 0.0322223 0.159956 0.147448
2849 4 0.0530503 0.148543 0.139629
17 3 0.14689 0.155805 0.0928582
691 2 0.0936967 0.165654 0.136965
1504 2 0.229022 0.0933656 0.144839
938 4 0.196876 0.154722 0.119195
937 2 0.209692 0.144466 0.138056
939 4 0.222508 0.134211 0.156917
18 3 0.180521 0.161483 0.108648
1505 4 0.222199 0.113902 0.157364
24 3 0.340399 0.090553 0.150953
628 2 0.36537 0.100587 0.0891232
23 3 0.341431 0.0939445 0.113113
2850 4 0.0113944 0.171368 0.155266
2760 4 0.143438 0.202419 0.114654
2759 4 0.105341 0.231631 0.128653
2758 2 0.12439 0.217025 0.121654
693 4 0.11747 0.170022 0.130566
16 1 0.164077 0.170903 0.0952602
20 3 0.156082 0.189888 0.104972
372 4 0.188044 0.187318 0.153722
380 4 0.200844 0.22829 0.0995341
379 2 0.198316 0.212341 0.118624
381 4 0.195787 0.196391 0.137713
400 2 0.314901 0.233299 0.130019
401 4 0.301301 0.243119 0.148561
402 4 0.328501 0.22348 0.111477
28 3 0.371808 0.203609 0.0844489
29 3 0.344699 0.224987 0.100339
571 2 0.366901 0.227659 0.159317
573 4 0.373821 0.219702 0.136645
27 3 0.370109 0.207477 0.121796
26 1 0.366865 0.218269 0.101742
30 3 0.380569 0.236428 0.100692
2894 4 0.415495 0.222538 0.163783
311 4 0.413619 0.202616 0.160743
312 4 0.459147 0.182063 0.1584
310 2 0.436383 0.192339 0.159571
1214 4 0.0372898 0.285629 0.0930234
288 4 0.055406 0.277406 0.133677
286 2 0.0530065 0.297334 0.148586
293 4 0.0663408 0.273657 0.117018
287 4 0.050607 0.317263 0.163496
292 2 0.0900651 0.277474 0.110106
294 4 0.113789 0.28129 0.103195
450 4 0.124902 0.296598 0.107894
448 2 0.137169 0.310583 0.124601
449 4 0.149437 0.324567 0.141308
507 4 0.141895 0.327697 0.158514
445 2 0.250525 0.296993 0.0886716
447 4 0.262677 0.28118 0.103753
494 4 0.276959 0.28521 0.116789
493 2 0.301039 0.286612 0.123376
495 4 0.325118 0.288014 0.129962
386 4 0.328623 0.30322 0.143728
2516 4 0.384336 0.255046 0.105049
2515 2 0.39054 0.270576 0.123637
2517 4 0.396744 0.286106 0.142225
2702 4 0.399384 0.304273 0.150497
385 2 0.343558 0.323201 0.142027
2853 4 0.485376 0.323379 0.11641
363 4 0.09226 0.40027 0.153782
835 2 0.159113 0.393142 0.092477
837 4 0.142322 0.408229 0.103231
291 4 0.14504 0.407178 0.123404
387 4 0.358493 0.343181 0.140327
102 3 0.363656 0.359437 0.15166
519 4 0.483264 0.339197 0.105804
2650 2 0.411712 0.392342 0.158948
597 4 0.484561 0.392225 0.0987227
517 2 0.490996 0.361648 0.0979725
595 2 0.483723 0.417214 0.0988923
2651 4 0.433993 0.387349 0.148759
2451 4 0.454271 0.389055 0.146491
2449 2 0.474493 0.396589 0.159118
518 4 0.498728 0.384099 0.0901409
2450 4 0.494716 0.404124 0.171745
4005 4 0.0585803 0.496717 0.113432
1766 4 0.0583144 0.481241 0.126705
1765 2 0.0681196 0.458249 0.127351
4003 2 0.0383055 0.501755 0.0996942
361 2 0.0832819 0.41794 0.169025
1767 4 0.0779249 0.435258 0.127998
1594 2 0.102242 0.417525 0.0946919
289 2 0.156477 0.423315 0.1387
1596 4 0.0854286 0.424448 0.111854
1222 2 0.174521 0.490398 0.105991
1224 4 0.18172 0.473031 0.0895063
290 4 0.167914 0.439451 0.153997
343 2 0.203678 0.444882 0.156784
345 4 0.181855 0.455237 0.150326
344 4 0.225501 0.434527 0.163242
106 1 0.500398 0.466766 0.108883
481 2 0.448343 0.458495 0.0887495
483 4 0.469754 0.457444 0.101619
108 3 0.478265 0.473582 0.10744
596 4 0.482884 0.442203 0.0990618
1422 4 0.0926187 0.0634297 0.247754
1403 4 0.0974793 0.0572006 0.229451
1402 2 0.106066 0.0578494 0.205977
1404 4 0.114653 0.0584983 0.182503
764 4 0.132948 0.0505729 0.181359
653 4 0.273675 0.0775348 0.169597
1785 4 0.337886 0.00258081 0.238498
1784 4 0.360282 0.0381798 0.211445
1783 2 0.349084 0.0203803 0.224972
698 4 0.365781 0.0505044 0.197866
697 2 0.35401 0.0671864 0.183433
704 4 0.000474207 0.122949 0.207486
705 4 0.0426937 0.148313 0.216139
703 2 0.0215839 0.135631 0.211813
544 2 0.20335 0.131797 0.20812
546 4 0.227795 0.129612 0.212903
545 4 0.178906 0.133983 0.203336
743 4 0.243579 0.124293 0.20134
744 4 0.277356 0.0924518 0.182738
742 2 0.260467 0.108372 0.192039
699 4 0.342238 0.0838683 0.168999
332 4 0.492625 0.160812 0.21283
299 4 0.0382867 0.167673 0.219897
298 2 0.0490856 0.188577 0.211439
300 4 0.0598845 0.209482 0.20298
365 4 0.0733123 0.206479 0.18902
366 4 0.119234 0.194883 0.172975
364 2 0.0962731 0.200681 0.180998
390 4 0.158295 0.190565 0.217422
388 2 0.167542 0.199384 0.238914
371 4 0.167311 0.191953 0.198992
370 2 0.177678 0.189635 0.176357
422 4 0.280983 0.206164 0.172213
353 4 0.300763 0.199868 0.170594
352 2 0.324854 0.193504 0.172661
421 2 0.279344 0.230187 0.17895
354 4 0.348946 0.18714 0.174728
572 4 0.359981 0.235615 0.181988
333 4 0.475009 0.17701 0.168921
331 2 0.483817 0.168911 0.190876
2893 2 0.421229 0.242888 0.177131
2616 4 0.0399117 0.326236 0.176988
338 4 0.0738043 0.263932 0.228974
2614 2 0.0232327 0.332598 0.194496
337 2 0.0869823 0.27923 0.214226
339 4 0.10016 0.294527 0.199477
750 4 0.227238 0.290918 0.177483
509 4 0.22758 0.310658 0.173379
748 2 0.248022 0.280038 0.186132
423 4 0.277706 0.25421 0.185687
749 4 0.268807 0.269158 0.19478
2701 2 0.402504 0.294648 0.173362
737 4 0.350941 0.280136 0.232436
612 4 0.354624 0.29444 0.219325
2703 4 0.405623 0.285023 0.196227
610 2 0.363127 0.316014 0.209972
2838 4 0.412062 0.29026 0.214341
2837 4 0.453059 0.268235 0.232641
2895 4 0.426964 0.263238 0.19048
2836 2 0.43256 0.279248 0.223491
2615 4 0.0065537 0.338959 0.212004
602 4 0.000246959 0.333297 0.231385
601 2 0.998385 0.351011 0.248933
505 2 0.159882 0.334297 0.174579
647 4 0.141902 0.389359 0.226366
646 2 0.155075 0.371641 0.21463
2954 4 0.128995 0.405478 0.225135
648 4 0.168247 0.353923 0.202894
506 4 0.17787 0.340897 0.190644
756 4 0.231937 0.418971 0.17428
508 2 0.22254 0.333902 0.18109
754 2 0.224548 0.397639 0.185029
510 4 0.2175 0.357147 0.188802
755 4 0.217159 0.376308 0.195778
104 3 0.381329 0.379694 0.177927
611 4 0.37163 0.337587 0.200619
105 3 0.34382 0.38089 0.17488
101 1 0.362168 0.367511 0.173148
103 3 0.360315 0.349599 0.18778
2652 4 0.389431 0.397335 0.169136
588 4 0.392296 0.414723 0.178915
620 4 0.0264038 0.419382 0.221778
362 4 0.0743039 0.43561 0.184268
619 2 0.0457499 0.431934 0.23144
548 4 0.00950684 0.430579 0.221434
621 4 0.0650959 0.444487 0.241101
2953 2 0.132786 0.429969 0.221817
2955 4 0.136577 0.45446 0.2185
777 4 0.0837558 0.441999 0.24773
314 4 0.204013 0.469032 0.182387
313 2 0.196172 0.492302 0.187097
586 2 0.391384 0.437468 0.18926
587 4 0.390471 0.460213 0.199606
531 4 0.0646877 0.052719 0.322374
529 2 0.0761286 0.0332653 0.311611
1416 4 0.100447 0.99914 0.262372
1420 2 0.0927058 0.0403976 0.257485
1421 4 0.0927929 0.0173655 0.267216
466 2 0.163074 0.038386 0.279692
467 4 0.140509 0.0276171 0.279644
530 4 0.0875694 0.0138116 0.300848
1338 4 0.09792 0.997341 0.30438
468 4 0.18564 0.0491549 0.279739
1700 4 0.187123 0.0676753 0.288321
496 2 0.314419 0.0793254 0.327857
497 4 0.331252 0.0620168 0.321356
3889 2 0.420462 0.0357692 0.328339
3891 4 0.435074 0.0215191 0.313895
2744 4 0.444769 0.0068976 0.303048
2743 2 0.460053 0.0184089 0.286952
304 2 0.487207 0.0608086 0.257801
305 4 0.466904 0.0698347 0.269269
2745 4 0.475337 0.0299202 0.270856
1699 2 0.188345 0.0910303 0.279477
415 2 0.174984 0.149881 0.278606
1701 4 0.189566 0.114385 0.270632
416 4 0.184699 0.127438 0.283812
632 4 0.286322 0.100902 0.319001
631 2 0.271827 0.100242 0.298639
633 4 0.257331 0.0995821 0.278276
3678 4 0.455641 0.0846331 0.273451
3677 4 0.456376 0.134331 0.267946
3676 2 0.456008 0.109482 0.270699
469 2 0.0413091 0.185847 0.326129
470 4 0.0270355 0.200308 0.311559
417 4 0.165268 0.172324 0.2734
600 4 0.146103 0.236307 0.322863
260 4 0.151646 0.23029 0.305246
389 4 0.17679 0.208203 0.260405
261 4 0.192196 0.227906 0.276079
259 2 0.171921 0.229098 0.290663
418 2 0.39886 0.242518 0.288423
419 4 0.413197 0.238769 0.268284
420 4 0.384523 0.246266 0.308563
677 4 0.0899508 0.26193 0.322533
766 2 0.227497 0.318782 0.316919
768 4 0.222549 0.32736 0.29396
738 4 0.317914 0.297614 0.265669
247 2 0.293196 0.308631 0.296348
248 4 0.302366 0.307504 0.273114
249 4 0.284026 0.309757 0.319582
736 2 0.334428 0.288875 0.249053
279 4 0.381573 0.258632 0.323411
376 2 0.375768 0.327816 0.328888
266 4 0.458756 0.33349 0.311729
603 4 0.996523 0.368724 0.266481
308 4 0.234598 0.339314 0.284833
307 2 0.255219 0.345803 0.27227
309 4 0.27584 0.352293 0.259706
377 4 0.396889 0.333465 0.316756
267 4 0.410416 0.34557 0.307479
265 2 0.434586 0.33953 0.309604
614 4 0.471079 0.348214 0.312119
613 2 0.49053 0.355312 0.326134
679 2 0.0744511 0.486254 0.311334
681 4 0.0703022 0.494899 0.334425
302 4 0.13711 0.49043 0.270404
680 4 0.0786 0.477609 0.288242
776 4 0.0955532 0.466919 0.28945
775 2 0.0896545 0.454459 0.26859
1821 4 0.156108 0.482672 0.274926
1819 2 0.171641 0.478652 0.294102
1820 4 0.187175 0.474632 0.313279
1641 4 0.191001 0.48842 0.326505
714 4 0.341119 0.465179 0.257551
414 4 0.34508 0.484932 0.253329
713 4 0.387887 0.447526 0.258912
712 2 0.364503 0.456353 0.258231
593 4 0.406171 0.437186 0.254217
592 2 0.417787 0.450599 0.271834
1330 2 0.456394 0.493292 0.300456
1332 4 0.441029 0.473825 0.303635
594 4 0.429402 0.464011 0.289451
2635 2 0.0267904 0.0628277 0.376326
2636 4 0.022756 0.0829479 0.36204
2637 4 0.0308247 0.0427076 0.390611
2604 4 0.0135463 0.0442876 0.399863
1646 4 0.138279 0.011659 0.401116
342 4 0.154636 0.011301 0.390414
369 4 0.0990788 0.0825832 0.384016
340 2 0.174289 0.0258885 0.395528
341 4 0.193942 0.040476 0.400642
605 4 0.206856 0.026289 0.407139
3890 4 0.40585 0.0500193 0.342782
2656 2 0.397744 0.0391873 0.41288
2658 4 0.412515 0.0357782 0.392996
708 4 0.410537 0.0682785 0.335078
2535 4 0.0643889 0.154127 0.333511
2533 2 0.05848 0.133134 0.345739
2534 4 0.052571 0.11214 0.357968
733 2 0.077117 0.152149 0.41834
368 4 0.0687299 0.116143 0.405309
735 4 0.0615932 0.134166 0.410542
367 2 0.0839044 0.099363 0.394662
1182 4 0.113775 0.0950977 0.39083
1180 2 0.136199 0.0926098 0.380052
1181 4 0.158623 0.0901219 0.369274
321 4 0.174906 0.0934539 0.382465
319 2 0.19692 0.104447 0.378024
320 4 0.218934 0.115441 0.373584
404 4 0.234027 0.122456 0.385461
403 2 0.251595 0.139366 0.390991
498 4 0.297587 0.096634 0.334358
405 4 0.269163 0.156277 0.396521
1518 4 0.285094 0.146592 0.389034
1516 2 0.299269 0.167163 0.387999
707 4 0.429784 0.113202 0.345666
706 2 0.420161 0.0907403 0.340372
488 4 0.490321 0.138855 0.365564
487 2 0.469257 0.128234 0.357276
489 4 0.448194 0.117613 0.348987
471 4 0.0555828 0.171385 0.3407
348 4 0.153541 0.177982 0.402865
598 2 0.144429 0.234186 0.34772
346 2 0.130847 0.170071 0.409762
599 4 0.142755 0.232065 0.372577
1199 4 0.15326 0.2258 0.389687
1198 2 0.175832 0.215106 0.388534
1200 4 0.198404 0.204412 0.387381
1212 4 0.217636 0.199406 0.390687
1210 2 0.23403 0.194573 0.372437
1211 4 0.250424 0.189739 0.354187
1517 4 0.313445 0.187734 0.386965
803 4 0.302378 0.232199 0.400759
474 4 0.321704 0.237921 0.396672
274 2 0.390251 0.207956 0.411259
472 2 0.346274 0.236974 0.401208
473 4 0.370845 0.236027 0.405745
275 4 0.370247 0.216229 0.398745
650 4 0.424143 0.212364 0.415663
1151 4 0.0706521 0.30953 0.36567
1150 2 0.0569759 0.312912 0.386327
1152 4 0.0432998 0.316294 0.406984
459 4 0.0547037 0.285963 0.417049
676 2 0.0976661 0.27704 0.3409
678 4 0.105381 0.29215 0.359267
569 4 0.114015 0.308251 0.349654
568 2 0.109564 0.322114 0.36998
767 4 0.232446 0.310204 0.339877
504 4 0.250014 0.317002 0.346208
802 2 0.289195 0.252227 0.393668
502 2 0.256163 0.300536 0.363991
503 4 0.262312 0.284071 0.381775
804 4 0.276012 0.272254 0.386577
277 2 0.366647 0.269227 0.340444
542 4 0.338752 0.329037 0.350675
278 4 0.351721 0.279822 0.357478
378 4 0.354647 0.322167 0.341019
1398 4 0.0817825 0.402929 0.400004
936 4 0.0710861 0.387468 0.406205
934 2 0.0865958 0.367857 0.406029
570 4 0.105114 0.335977 0.390307
935 4 0.102105 0.348246 0.405853
541 2 0.323326 0.348226 0.355038
727 2 0.324418 0.395885 0.390453
729 4 0.31482 0.379726 0.373962
543 4 0.3079 0.367414 0.3594
728 4 0.334016 0.412044 0.406944
560 4 0.352837 0.407221 0.411322
3672 4 0.0536649 0.48367 0.338123
3670 2 0.0319153 0.47992 0.349873
3671 4 0.0101657 0.476169 0.361623
1396 2 0.0875319 0.426658 0.394611
1397 4 0.0932814 0.450386 0.389219
1752 4 0.106671 0.46454 0.393089
1750 2 0.119303 0.482502 0.405046
1751 4 0.131935 0.500464 0.417003
1639 2 0.189345 0.473902 0.346794
1446 4 0.19668 0.466884 0.383988
1640 4 0.187688 0.459383 0.367083
1444 2 0.19673 0.457352 0.407104
1585 2 0.320685 0.500797 0.390483
1587 4 0.318001 0.482531 0.407344
1473 4 0.440826 0.491742 0.392814
1471 2 0.448068 0.481109 0.414254
2602 2 0.00128236 0.0472245 0.421454
852 4 0.161111 0.0282778 0.496511
1602 4 0.167685 0.0459966 0.493446
604 2 0.224499 0.0120395 0.417668
682 2 0.200039 0.0568708 0.439383
683 4 0.190711 0.0353116 0.447949
684 4 0.209366 0.07843 0.430818
606 4 0.242142 0.99779 0.428197
256 2 0.314593 0.0385412 0.491805
258 4 0.332014 0.041529 0.47412
1817 4 0.32952 0.0538728 0.458492
2657 4 0.382973 0.0425964 0.432764
1816 2 0.354142 0.0512529 0.455021
1818 4 0.378765 0.048633 0.451549
480 4 0.40555 0.00972634 0.49855
1026 4 0.402207 0.0293181 0.492382
431 4 0.219064 0.0905431 0.44375
430 2 0.236196 0.105607 0.453987
792 4 0.251328 0.134009 0.479587
432 4 0.253327 0.12067 0.464224
2914 2 0.0735749 0.23969 0.485208
2915 4 0.0891081 0.249797 0.468423
347 4 0.108152 0.162159 0.416658
734 4 0.0926409 0.170131 0.426139
276 4 0.410254 0.199683 0.423773
649 2 0.441662 0.226219 0.426902
651 4 0.459181 0.240074 0.438141
458 4 0.0293963 0.245345 0.431557
457 2 0.04205 0.265654 0.424303
1033 2 8.54073e-05 0.316356 0.438087
1035 4 0.0140946 0.314143 0.458679
500 4 0.0425748 0.320429 0.469768
3264 4 0.0418263 0.30579 0.483859
717 4 0.088558 0.269477 0.464649
715 2 0.106765 0.286192 0.460867
716 4 0.124972 0.302906 0.457085
1178 4 0.143672 0.313254 0.453432
1177 2 0.148683 0.325292 0.474766
238 2 0.227076 0.307064 0.483445
239 4 0.236689 0.30538 0.460425
710 4 0.243775 0.319914 0.448895
375 4 0.310053 0.326028 0.457929
709 2 0.268713 0.318116 0.449111
711 4 0.293651 0.316318 0.449327
373 2 0.319553 0.304253 0.465724
374 4 0.329053 0.282477 0.473519
872 4 0.455772 0.255248 0.424303
871 2 0.4602 0.279794 0.426047
873 4 0.464628 0.304341 0.427792
1193 4 0.450951 0.311184 0.441491
1192 2 0.454155 0.328424 0.459314
1221 4 0.999083 0.401715 0.429342
499 2 0.0429407 0.344756 0.464003
501 4 0.0433067 0.369084 0.458239
1219 2 0.0124099 0.389452 0.446582
1220 4 0.0257362 0.37719 0.463822
559 2 0.357648 0.405501 0.435798
561 4 0.362459 0.403781 0.460274
900 4 0.4607 0.334952 0.494281
1194 4 0.457359 0.345665 0.477138
3352 2 0.0702656 0.452195 0.501674
4297 2 0.112072 0.486458 0.477549
3353 4 0.0839037 0.470404 0.4913
4298 4 0.103827 0.465339 0.488093
2045 4 0.197023 0.496566 0.474882
1445 4 0.19678 0.44782 0.430219
2222 4 0.203901 0.430776 0.428536
2221 2 0.206695 0.430413 0.45338
2223 4 0.209489 0.430051 0.478224
383 4 0.191821 0.438794 0.479268
382 2 0.175345 0.441541 0.497874
753 4 0.322389 0.48403 0.426877
751 2 0.321126 0.465906 0.444055
752 4 0.319863 0.447781 0.461232
336 4 0.400543 0.441504 0.480759
1453 2 0.390071 0.47455 0.46583
1455 4 0.38369 0.49848 0.469269
1454 4 0.396452 0.45062 0.462391
1472 4 0.455311 0.470476 0.435694
334 2 0.421975 0.431848 0.48928
2740 2 0.460404 0.470978 0.473793
2741 4 0.465987 0.478093 0.450482
2742 4 0.454821 0.463864 0.497103
335 4 0.443408 0.422192 0.4978
1601 4 0.134606 0.0760847 0.515834
850 2 0.152222 0.00539117 0.501241
1600 2 0.151145 0.0610406 0.50464
725 4 0.235186 0.033358 0.540414
724 2 0.258067 0.0360257 0.530691
726 4 0.280948 0.0386934 0.520969
257 4 0.297173 0.0355534 0.509491
410 4 0.299519 0.009238 0.577291
1060 2 0.38303 0.0674719 0.553937
1062 4 0.383444 0.0452436 0.542495
1218 4 0.381307 0.0277989 0.535222
1216 2 0.385548 0.00332539 0.538092
1024 2 0.417335 0.0460789 0.503124
1025 4 0.432463 0.0628397 0.513866
791 4 0.249758 0.121811 0.528058
856 2 0.239874 0.11456 0.564855
790 2 0.250543 0.12791 0.503823
857 4 0.255991 0.122588 0.547506
514 2 0.308406 0.138863 0.581092
516 4 0.28497 0.138706 0.572378
1061 4 0.382617 0.0897002 0.565378
3732 4 0.376143 0.0892537 0.584069
3265 2 0.0581803 0.236793 0.545327
3266 4 0.0606082 0.22742 0.522274
2916 4 0.0580416 0.229583 0.501994
3043 2 0.0790301 0.191775 0.573319
3267 4 0.0557524 0.246166 0.56838
1283 4 0.163882 0.182617 0.565102
1282 2 0.139191 0.183494 0.561253
3045 4 0.0940992 0.182993 0.555403
1284 4 0.114501 0.184371 0.557405
1276 2 0.200064 0.164264 0.577917
1278 4 0.18113 0.173143 0.564211
3262 2 0.0547284 0.306128 0.505274
3263 4 0.0676305 0.306465 0.526689
618 4 0.0762678 0.290508 0.534147
616 2 0.0945131 0.305347 0.542636
617 4 0.112758 0.320187 0.551126
695 4 0.13161 0.323139 0.558528
694 2 0.143403 0.328303 0.537094
667 2 0.234065 0.290509 0.541668
669 4 0.226111 0.296294 0.51868
240 4 0.217462 0.308749 0.506465
668 4 0.242019 0.284724 0.564656
806 4 0.253577 0.30012 0.571975
805 2 0.273184 0.315288 0.56871
797 4 0.303077 0.268211 0.567168
796 2 0.315897 0.281166 0.550051
798 4 0.328717 0.294121 0.532934
2508 4 0.421203 0.264208 0.576985
899 4 0.448809 0.312826 0.537522
954 4 0.454972 0.294145 0.539217
953 4 0.421967 0.261231 0.557328
952 2 0.438469 0.277688 0.548272
898 2 0.454754 0.323889 0.515902
1179 4 0.153694 0.33733 0.4961
696 4 0.155196 0.333467 0.515659
807 4 0.292792 0.330456 0.565445
1006 2 0.314815 0.359091 0.562938
773 4 0.296943 0.418411 0.539119
1008 4 0.291777 0.349777 0.560166
2027 4 0.314809 0.410529 0.540962
1007 4 0.337853 0.368405 0.565709
1238 4 0.389509 0.334392 0.535048
1237 2 0.368548 0.345885 0.542378
1239 4 0.347588 0.357379 0.549709
2026 2 0.339021 0.404717 0.54324
2028 4 0.363233 0.398906 0.545517
661 2 0.442342 0.40833 0.537165
663 4 0.448887 0.409609 0.513067
662 4 0.435797 0.40705 0.561263
982 2 0.0144394 0.466772 0.516763
983 4 0.027845 0.487842 0.515529
2750 4 0.00994433 0.497414 0.519348
984 4 0.0010338 0.445701 0.517996
3354 4 0.0566276 0.433986 0.512048
1122 4 0.120745 0.41667 0.554762
1121 4 0.122772 0.46532 0.566157
1120 2 0.121758 0.440995 0.56046
1159 2 0.149084 0.486541 0.526806
1173 4 0.114551 0.483686 0.572184
1160 4 0.150392 0.462289 0.520863
384 4 0.158868 0.444289 0.516479
880 2 0.259073 0.482262 0.521072
881 4 0.263159 0.458234 0.526653
774 4 0.261134 0.442527 0.513883
772 2 0.279038 0.430469 0.526501
930 4 0.378167 0.411219 0.551908
928 2 0.383562 0.429832 0.567708
3123 4 0.440425 0.422884 0.572276
2142 4 0.419792 0.501175 0.576102
2132 4 0.154931 0.0786666 0.654046
962 4 0.138358 0.0710452 0.661103
1524 4 0.232737 0.0585204 0.64159
888 4 0.23752 0.0543878 0.622715
886 2 0.235362 0.0757251 0.60986
2201 4 0.240417 0.00323252 0.638518
1522 2 0.242196 0.0540618 0.664301
1059 4 0.288107 0.0155189 0.592563
1057 2 0.27409 0.00879958 0.612147
1058 4 0.260072 0.00208027 0.631732
3401 4 0.406263 0.0693656 0.629157
1032 4 0.465496 0.0603906 0.641235
3402 4 0.456213 0.0716149 0.628393
3400 2 0.431238 0.0704902 0.628775
1030 2 0.483842 0.0773547 0.642153
961 2 0.118893 0.0855849 0.667009
858 4 0.223757 0.106532 0.582203
2131 2 0.172964 0.0949967 0.648273
887 4 0.233203 0.0970624 0.597006
2133 4 0.190997 0.111327 0.6425
1277 4 0.218998 0.155385 0.591623
1272 4 0.214029 0.146189 0.608672
1271 4 0.196196 0.10291 0.626267
1270 2 0.205112 0.12455 0.61747
977 4 0.209157 0.155422 0.6603
840 4 0.225095 0.167178 0.658693
1262 4 0.294778 0.132571 0.626253
1261 2 0.310941 0.125736 0.644064
1263 4 0.327104 0.118901 0.661874
515 4 0.331841 0.13902 0.589806
843 4 0.32124 0.10104 0.666696
3730 2 0.356856 0.104719 0.587815
3731 4 0.33757 0.120184 0.591561
1141 2 0.393374 0.110463 0.64085
1142 4 0.387742 0.133779 0.647909
1143 4 0.399005 0.0871474 0.63379
1086 4 0.397284 0.149624 0.638113
3078 4 0.999722 0.215386 0.628162
3044 4 0.063961 0.200557 0.591235
3033 4 0.00763483 0.232616 0.633992
3031 2 0.0122313 0.236922 0.65819
838 2 0.233293 0.190485 0.654847
1166 4 0.234999 0.189627 0.588889
839 4 0.24149 0.213791 0.651002
1165 2 0.251048 0.208151 0.593835
1167 4 0.267097 0.226675 0.598781
1137 4 0.266181 0.246254 0.608609
1084 2 0.4124 0.169351 0.640858
640 2 0.457519 0.204542 0.656938
642 4 0.482256 0.208162 0.656563
641 4 0.432781 0.200922 0.657312
1085 4 0.427517 0.189078 0.643603
1068 4 0.0687573 0.30537 0.650579
822 4 0.0505962 0.296513 0.647559
1066 2 0.0903404 0.306877 0.638046
816 4 0.124799 0.305199 0.641593
1067 4 0.111924 0.308385 0.625513
814 2 0.145116 0.313871 0.653305
815 4 0.165433 0.322543 0.665018
1136 4 0.303189 0.271602 0.586504
1135 2 0.284685 0.258928 0.597556
1029 4 0.386681 0.250116 0.625286
2507 4 0.406731 0.249794 0.622631
1027 2 0.378729 0.262169 0.645699
2506 2 0.413967 0.257001 0.599808
1010 4 0.400824 0.315012 0.620414
925 2 0.443523 0.305517 0.617752
927 4 0.466802 0.296427 0.618558
926 4 0.420245 0.314607 0.616945
1259 4 0.218412 0.369502 0.657707
1258 2 0.200393 0.352658 0.6618
1393 2 0.25625 0.357838 0.649991
1394 4 0.277186 0.355478 0.636527
890 4 0.319524 0.393933 0.632132
889 2 0.3034 0.375849 0.625953
891 4 0.287276 0.357766 0.619774
801 4 0.33682 0.38691 0.638433
1009 2 0.396919 0.334187 0.635978
799 2 0.355096 0.370331 0.642472
800 4 0.373372 0.353752 0.646511
1011 4 0.393014 0.353362 0.651543
407 4 0.0552219 0.482926 0.599657
1190 4 0.0819077 0.468506 0.65741
3431 4 0.0652587 0.479488 0.653318
1189 2 0.10489 0.462746 0.665398
2154 4 0.217538 0.482893 0.618352
2152 2 0.228786 0.469138 0.635944
2153 4 0.240034 0.455384 0.653535
2174 4 0.223414 0.486452 0.599581
1176 4 0.245889 0.436723 0.647244
1229 4 0.3035 0.495093 0.614771
2140 2 0.413178 0.478352 0.583885
929 4 0.388956 0.448445 0.583507
2141 4 0.406565 0.45553 0.591668
3064 2 0.482272 0.443078 0.643942
3121 2 0.455642 0.430231 0.590706
3122 4 0.470859 0.437578 0.609135
3065 4 0.464277 0.445202 0.626713
3066 4 0.500267 0.440954 0.661171
4338 4 0.0759474 0.0126387 0.68389
4192 2 0.0752606 0.0429297 0.728783
4194 4 0.0552387 0.0385928 0.714448
864 4 0.00467091 0.00290841 0.691058
4193 4 0.0952826 0.0472667 0.743118
2231 4 0.239983 0.0153772 0.743441
2230 2 0.231834 0.0046607 0.722371
1781 4 0.241119 0.0612567 0.700885
1523 4 0.251655 0.0496033 0.687013
1780 2 0.252788 0.0679291 0.721968
1782 4 0.264457 0.0746016 0.743051
2400 4 0.31526 0.0289106 0.73977
1155 4 0.338183 0.999734 0.705517
3424 2 0.404611 0.00315148 0.669123
1153 2 0.359542 0.0120417 0.701333
1154 4 0.380901 0.0243489 0.69715
43 3 0.381031 0.0409029 0.708445
41 1 0.404173 0.0425324 0.70801
44 3 0.410519 0.0647967 0.706447
42 3 0.412615 0.033746 0.727521
45 3 0.412455 0.0308316 0.690314
3425 4 0.397631 0.0174982 0.688375
1092 4 0.427302 0.022381 0.732928
963 4 0.0994277 0.100125 0.672914
2049 4 0.0924825 0.124887 0.731248
2048 4 0.0972514 0.119042 0.681813
2047 2 0.0948669 0.121964 0.70653
1256 4 0.0830599 0.138693 0.742457
976 2 0.209079 0.139237 0.679358
1078 2 0.192515 0.103664 0.726934
1080 4 0.201507 0.105131 0.70365
978 4 0.209002 0.123051 0.698416
841 2 0.325687 0.0930398 0.689963
965 4 0.283355 0.11111 0.74019
842 4 0.330135 0.0850394 0.713231
48 3 0.342821 0.129992 0.667709
50 3 0.355441 0.164424 0.67624
47 3 0.361269 0.136134 0.699874
46 1 0.346529 0.145279 0.684766
49 3 0.326588 0.149992 0.695653
3008 4 0.499752 0.13472 0.701966
3007 2 0.496706 0.143254 0.72527
3032 4 0.0168277 0.241227 0.682387
4287 4 0.0234 0.231674 0.698207
4285 2 0.00575881 0.220238 0.711742
1130 4 0.246447 0.213631 0.670961
831 4 0.303641 0.206574 0.7225
1129 2 0.257445 0.235582 0.675689
829 2 0.316192 0.187863 0.711659
830 4 0.328743 0.169151 0.700818
2051 4 0.361228 0.169811 0.746742
3336 4 0.36983 0.175978 0.731148
3334 2 0.39182 0.187622 0.733606
1065 4 0.400811 0.242961 0.736366
3335 4 0.41381 0.199266 0.736064
1113 4 0.427346 0.210817 0.746039
3385 2 0.0132062 0.291574 0.713167
820 2 0.050828 0.28584 0.670169
821 4 0.0510597 0.275168 0.692779
3387 4 0.0342296 0.283649 0.702195
8 3 0.233764 0.285612 0.703475
1131 4 0.268443 0.257533 0.680417
10 3 0.269322 0.285231 0.715853
6 1 0.255942 0.289616 0.697952
9 3 0.262155 0.27632 0.679979
7 3 0.258251 0.311716 0.692002
1028 4 0.370777 0.274222 0.666111
3114 4 0.357727 0.289278 0.670501
3113 4 0.354027 0.267886 0.71555
3112 2 0.355877 0.278582 0.693025
1260 4 0.182374 0.335813 0.665893
1395 4 0.235314 0.360198 0.663455
1280 4 0.0059884 0.463141 0.737359
1279 2 0.0308579 0.463079 0.734774
1281 4 0.0557273 0.463018 0.732188
1191 4 0.127873 0.456987 0.673386
1174 2 0.255227 0.433322 0.670188
1905 4 0.263977 0.418648 0.708552
1175 4 0.264566 0.429922 0.693131
1903 2 0.273563 0.437584 0.72177
1904 4 0.283149 0.456519 0.734989
2121 4 0.286848 0.477217 0.732689
1979 4 0.332232 0.497047 0.703851
1295 4 0.0122507 0.0374596 0.835467
2255 4 0.110964 0.0423131 0.754905
2254 2 0.128612 0.0347412 0.770917
2256 4 0.146261 0.0271693 0.786928
945 4 0.16333 0.0365628 0.780848
943 2 0.187112 0.0292274 0.783258
944 4 0.210894 0.021892 0.785667
909 4 0.226115 0.0114337 0.791567
907 2 0.249544 0.0201641 0.791423
908 4 0.272974 0.0288945 0.791278
2399 4 0.289561 0.0221 0.782124
2398 2 0.302411 0.0255053 0.760947
1048 2 0.295707 0.0777272 0.825301
827 4 0.352876 0.0671363 0.800816
2004 4 0.416384 0.0429881 0.821845
3268 2 0.44809 0.0650676 0.812808
3269 4 0.424512 0.0569546 0.810946
3270 4 0.471667 0.0731806 0.814671
1134 4 0.0330968 0.118056 0.778416