ITEM: TIMESTEP
4220000
ITEM: NUMBER OF ATOMS
4590
ITEM: BOX BOUNDS pp pp pp
-9.9985700000000008e+00 9.9985700000000008e+00
-9.9985700000000008e+00 9.9985700000000008e+00
-9.9985700000000008e+00 9.9985700000000008e+00
ITEM: ATOMS id type xs ys zs
875 4 0.11776 0.0711345 0.0048644
491 4 0.117784 0.0510957 0.0065614
1110 4 0.401357 0.0176902 0.0691036
485 4 0.381554 0.0581127 0.997228
484 2 0.393302 0.0550566 0.0190878
486 4 0.405049 0.0520004 0.0409471
3835 2 0.438492 0.0149789 0.0638053
3837 4 0.461645 0.0244168 0.0635763
2468 4 0.480232 0.0290482 0.0588001
1566 4 0.467476 0.0594117 0.0194044
1564 2 0.462135 0.0528559 0.995874
2467 2 0.492623 0.00734469 0.0595793
1123 2 0.0146126 0.13529 0.0152622
1124 4 0.0156451 0.160042 0.0118789
1037 4 0.998489 0.103422 0.00637709
874 2 0.137232 0.0867231 0.0065934
241 2 0.115818 0.163446 0.0196651
243 4 0.114064 0.140937 0.00892056
876 4 0.156705 0.102312 0.0083224
867 4 0.230382 0.130954 0.0752639
771 4 0.222157 0.14774 0.0695321
1232 4 0.230984 0.136965 0.991991
629 4 0.339378 0.132203 0.0640044
572 4 0.358069 0.125511 0.0600851
571 2 0.358399 0.144903 0.0443044
573 4 0.35873 0.164295 0.0285237
747 4 0.341045 0.162572 0.0185608
2827 2 0.425553 0.151146 0.0180792
2828 4 0.443637 0.136182 0.00946208
2841 4 0.503482 0.117699 0.0398897
1253 4 0.0250012 0.178504 0.0155303
1252 2 0.0437049 0.192365 0.0246537
1254 4 0.0624086 0.206225 0.0337772
1074 4 0.0718341 0.222237 0.0423592
2850 4 0.000725069 0.170872 0.053818
1072 2 0.0935141 0.209957 0.0444452
242 4 0.117572 0.185955 0.0304096
1073 4 0.115194 0.197677 0.0465313
769 2 0.229619 0.165903 0.0540529
770 4 0.237081 0.184066 0.0385738
914 4 0.234686 0.177635 0.0196233
913 2 0.242419 0.186755 0.997664
29 3 0.404259 0.182069 0.0365289
28 3 0.387453 0.212054 0.0527411
26 1 0.4039 0.205231 0.0378632
27 3 0.399128 0.213805 0.0170578
558 4 0.37713 0.229248 0.0579273
556 2 0.362029 0.22207 0.0765173
2829 4 0.407469 0.166109 0.0266962
30 3 0.42422 0.212938 0.044672
3068 4 0.452009 0.216969 0.0235694
3299 4 0.445832 0.220778 0.00530379
3067 2 0.453894 0.236418 0.0391701
1213 2 0.0613706 0.250353 0.0721847
1215 4 0.0808749 0.262955 0.062914
292 2 0.117408 0.284026 0.0560438
293 4 0.136243 0.300458 0.0553995
294 4 0.098573 0.267595 0.0566881
355 2 0.221547 0.330011 0.0739545
664 2 0.230284 0.327759 0.0172222
957 4 0.221425 0.291971 0.0939827
2516 4 0.313813 0.300597 0.0725056
2515 2 0.334967 0.29167 0.062606
2702 4 0.375673 0.277633 0.0565542
2701 2 0.393215 0.28633 0.0410031
2517 4 0.356121 0.282743 0.0527064
2703 4 0.410756 0.295027 0.0254521
39 3 0.405823 0.310705 0.013954
3069 4 0.455778 0.255866 0.0547708
527 4 0.459343 0.253978 0.0737354
36 1 0.424038 0.324205 0.00901592
1071 4 0.450002 0.33464 0.0295116
37 3 0.441748 0.317948 0.0222958
657 4 0.0140521 0.384158 0.0388001
837 4 0.0323047 0.386158 0.0454158
655 2 0.0191535 0.395422 0.0170683
835 2 0.030538 0.386573 0.0703534
922 2 0.110328 0.385066 0.00984764
1594 2 0.120842 0.366752 0.0627751
1596 4 0.114726 0.365892 0.0385462
924 4 0.109121 0.384149 0.0348052
356 4 0.222005 0.34666 0.0553056
665 4 0.22762 0.345294 0.0348463
14 3 0.230255 0.365058 0.028012
11 1 0.234634 0.376091 0.0479491
15 3 0.223703 0.396067 0.0483385
12 3 0.22726 0.363078 0.0654254
446 4 0.229393 0.411826 0.0608005
13 3 0.257467 0.379514 0.0502589
627 4 0.277062 0.375339 0.0435425
625 2 0.28987 0.368783 0.0230935
626 4 0.302678 0.362227 0.00264455
40 3 0.418899 0.346004 0.0131451
1069 2 0.473685 0.342395 0.0315585
1070 4 0.497367 0.35015 0.0336053
518 4 0.431187 0.373034 0.0821712
702 4 0.0848387 0.452909 0.0632473
1241 4 0.102419 0.460181 0.055869
1240 2 0.109308 0.46816 0.0331963
1242 4 0.116197 0.47614 0.0105236
1779 4 0.117816 0.458472 9.74513e-05
787 2 0.183573 0.473058 0.0815669
445 2 0.213212 0.430447 0.0567274
447 4 0.19703 0.449068 0.0526543
789 4 0.197436 0.467668 0.0614686
285 4 0.365947 0.491062 0.013491
283 2 0.350523 0.499387 0.0313227
659 4 0.40678 0.478602 0.0865954
3609 4 0.385747 0.411964 0.084323
3882 4 0.418156 0.474818 0.0694236
4547 4 0.46008 0.477217 0.0276042
3880 2 0.434043 0.483787 0.052325
475 2 0.160686 0.0308542 0.145891
476 4 0.151748 0.0523404 0.136746
765 4 0.141187 0.0668284 0.146688
16 1 0.154798 0.0796675 0.119512
20 3 0.137567 0.0821048 0.134202
19 3 0.16327 0.0581015 0.120754
18 3 0.14749 0.0840772 0.0979352
763 2 0.125892 0.0676843 0.166449
477 4 0.169625 0.00936804 0.155036
460 2 0.276171 0.0766326 0.0984167
461 4 0.293229 0.0591687 0.0930095
2419 2 0.334387 0.00657614 0.124597
1108 2 0.378698 0.0169291 0.0796475
1109 4 0.356039 0.0161679 0.0901915
2420 4 0.34796 0.0187448 0.107483
1505 4 0.114067 0.137131 0.0795046
1504 2 0.127414 0.116018 0.0806348
1506 4 0.140761 0.0949045 0.0817651
866 4 0.239033 0.0900548 0.102707
865 2 0.234708 0.110504 0.0889857
17 3 0.171502 0.0945401 0.124891
743 4 0.238303 0.136855 0.151995
742 2 0.2314 0.113768 0.158667
628 2 0.320369 0.127651 0.0795964
462 4 0.259114 0.0940965 0.103824
354 4 0.253596 0.144051 0.142476
630 4 0.30136 0.123098 0.0951884
352 2 0.276239 0.154439 0.144613
353 4 0.298882 0.164828 0.146751
1214 4 0.0418663 0.237751 0.0814554
2760 4 0.13148 0.229971 0.13601
692 4 0.142253 0.214641 0.142141
691 2 0.128178 0.208233 0.161788
380 4 0.198994 0.237623 0.132135
379 2 0.208784 0.221837 0.148872
381 4 0.218575 0.206051 0.165609
401 4 0.311186 0.172423 0.133788
400 2 0.32218 0.191212 0.121488
494 4 0.293977 0.220394 0.156684
493 2 0.287453 0.241688 0.16805
402 4 0.333173 0.210002 0.109188
557 4 0.346927 0.214891 0.0951073
2837 4 0.451158 0.250658 0.167205
2758 2 0.125317 0.250677 0.123422
448 2 0.129903 0.313448 0.11236
450 4 0.126507 0.288757 0.110367
2759 4 0.119154 0.271384 0.110835
956 4 0.202855 0.253398 0.119827
357 4 0.22109 0.313362 0.0926033
955 2 0.21214 0.272684 0.106905
526 2 0.451866 0.273716 0.0871392
528 4 0.444389 0.293455 0.100543
2852 4 0.445809 0.286011 0.11813
2851 2 0.44299 0.276258 0.140979
2853 4 0.440171 0.266505 0.163829
519 4 0.453103 0.328222 0.0856721
601 2 0.0654189 0.40301 0.149493
836 4 0.0287712 0.386988 0.095291
603 4 0.0850395 0.391587 0.139018
449 4 0.1333 0.33814 0.114353
1595 4 0.126957 0.367612 0.0870041
362 4 0.121961 0.369741 0.107512
363 4 0.0920541 0.405012 0.126545
361 2 0.107007 0.387376 0.117029
344 4 0.243326 0.392946 0.183305
343 2 0.228298 0.410352 0.173488
3607 2 0.408772 0.40228 0.0854481
3608 4 0.431797 0.392596 0.0865732
517 2 0.442145 0.350628 0.0839217
2573 4 0.0128076 0.474383 0.117191
547 2 0.047985 0.47087 0.129879
548 4 0.0310308 0.471528 0.111513
549 4 0.0649392 0.470211 0.148245
2572 2 0.999525 0.49451 0.110584
700 2 0.0921679 0.452 0.0871353
701 4 0.0994971 0.451091 0.111023
455 4 0.107271 0.469454 0.114577
456 4 0.134532 0.496238 0.146828
454 2 0.120902 0.482846 0.130702
1913 4 0.16255 0.496824 0.102276
788 4 0.16971 0.478449 0.101665
345 4 0.21327 0.427758 0.16367
414 4 0.255844 0.488954 0.137404
712 2 0.361992 0.478004 0.135601
713 4 0.383348 0.467432 0.143171
593 4 0.391603 0.450452 0.133929
592 2 0.410051 0.444901 0.149868
658 2 0.416713 0.487017 0.107942
440 4 0.077428 0.0168596 0.175565
439 2 0.0760814 0.0346123 0.193121
441 4 0.0747349 0.052365 0.210677
1338 4 0.0766407 0.0411172 0.226633
1336 2 0.0839211 0.0271795 0.246073
1402 2 0.123193 0.0591676 0.224042
764 4 0.110598 0.0685402 0.18621
1403 4 0.138352 0.0526522 0.242829
1404 4 0.108035 0.065683 0.205255
653 4 0.276179 0.0602392 0.201588
22 3 0.292041 0.0484684 0.203281
21 1 0.308975 0.040117 0.216421
25 3 0.300019 0.0271054 0.232826
24 3 0.3206 0.0578511 0.225842
23 3 0.32321 0.0274641 0.203166
2724 4 0.33339 0.0150853 0.1934
699 4 0.329445 0.0720221 0.213735
652 2 0.256271 0.0712306 0.191194
332 4 0.463707 0.0761082 0.156882
299 4 0.0475965 0.147125 0.246499
388 2 0.223677 0.141791 0.235528
389 4 0.221479 0.142552 0.210633
744 4 0.224497 0.0906813 0.16534
654 4 0.236364 0.0822221 0.180799
545 4 0.221805 0.149215 0.191943
697 2 0.341927 0.0877664 0.198852
698 4 0.354409 0.103511 0.183969
1784 4 0.367234 0.119471 0.188623
1783 2 0.384116 0.121182 0.206987
1785 4 0.400997 0.122893 0.225352
331 2 0.458744 0.0953949 0.172
333 4 0.453781 0.114682 0.187119
312 4 0.460092 0.134463 0.181533
310 2 0.455094 0.158859 0.183776
365 4 0.055895 0.173903 0.164493
364 2 0.0752734 0.188803 0.169752
259 2 0.0774889 0.211058 0.224966
260 4 0.0666849 0.19032 0.233819
261 4 0.0882929 0.231797 0.216113
366 4 0.0946518 0.203702 0.175011
693 4 0.114102 0.201826 0.181435
546 4 0.208665 0.196026 0.180248
544 2 0.215235 0.172621 0.186096
311 4 0.450096 0.183256 0.186019
2836 2 0.449126 0.22656 0.173556
2838 4 0.447095 0.202462 0.179907
339 4 0.0892679 0.252367 0.22011
337 2 0.0873413 0.270369 0.237355
750 4 0.277615 0.27266 0.196972
495 4 0.28093 0.262982 0.179415
748 2 0.270854 0.267222 0.220422
510 4 0.276871 0.344479 0.185921
749 4 0.264092 0.261785 0.243871
385 2 0.375865 0.284272 0.203095
387 4 0.371353 0.301682 0.220465
386 4 0.380378 0.266862 0.185725
587 4 0.371548 0.318927 0.206974
602 4 0.0457982 0.414433 0.159968
287 4 0.0122009 0.362175 0.197033
2615 4 0.0278677 0.412523 0.164912
2614 2 0.0218152 0.396694 0.183296
2616 4 0.0157627 0.380865 0.201681
1819 2 0.151744 0.392152 0.241038
1821 4 0.142827 0.413326 0.231172
1820 4 0.16066 0.370978 0.250903
756 4 0.235978 0.375185 0.19456
754 2 0.248214 0.354172 0.188737
509 4 0.326863 0.34568 0.186278
508 2 0.301867 0.345079 0.186099
755 4 0.260451 0.333159 0.182915
102 3 0.307476 0.405794 0.227257
101 1 0.328039 0.401282 0.236527
588 4 0.331475 0.348814 0.205698
586 2 0.351511 0.333871 0.206336
104 3 0.332097 0.378484 0.235043
2651 4 0.442701 0.356368 0.201426
2652 4 0.444887 0.349047 0.250846
2650 2 0.443794 0.352707 0.226136
291 4 0.0657048 0.45668 0.164269
621 4 0.0541497 0.474771 0.215318
2795 4 0.0366513 0.467331 0.209232
2794 2 0.0168522 0.466317 0.193995
619 2 0.0719975 0.491378 0.209766
303 4 0.0861975 0.424647 0.207962
289 2 0.0819274 0.444611 0.178977
290 4 0.09815 0.432541 0.193686
301 2 0.0937457 0.426764 0.231705
620 4 0.0898453 0.507986 0.204214
1223 4 0.208171 0.446054 0.173159
1224 4 0.235735 0.481671 0.194893
1222 2 0.221953 0.463863 0.184026
1832 4 0.227902 0.498831 0.204562
1557 4 0.276544 0.464947 0.236244
1555 2 0.281578 0.489343 0.234089
1430 4 0.333914 0.461229 0.1743
1429 2 0.339751 0.443999 0.191454
105 3 0.344077 0.412785 0.225164
1431 4 0.345587 0.426769 0.208608
594 4 0.428499 0.43935 0.165806
4381 2 0.492825 0.485221 0.23891
596 4 0.432614 0.459955 0.169725
595 2 0.449452 0.468346 0.186195
597 4 0.466291 0.476736 0.202664
4383 4 0.479056 0.478986 0.218993
1332 4 0.494407 0.426831 0.225453
367 2 0.0693927 0.0773289 0.332364
1337 4 0.0912015 0.0132418 0.265513
416 4 0.100254 0.0211455 0.2812
415 2 0.0924059 0.0319193 0.302354
417 4 0.0845581 0.042693 0.323509
320 4 0.152127 0.0663106 0.250817
319 2 0.144656 0.0747215 0.273147
369 4 0.086693 0.063131 0.321216
3677 4 0.43871 0.0526891 0.274184
1321 2 0.416153 0.0203647 0.259221
1322 4 0.425054 0.0434248 0.262987
3676 2 0.455186 0.069323 0.282961
3678 4 0.471662 0.0859569 0.291738
530 4 0.0153228 0.0892393 0.262555
300 4 0.0293697 0.101221 0.254326
298 2 0.0384831 0.124173 0.250412
938 4 0.0610913 0.159227 0.252865
937 2 0.0776015 0.157163 0.271528
705 4 0.0426167 0.153148 0.322777
321 4 0.137184 0.0831324 0.295477
939 4 0.0941117 0.155098 0.290192
371 4 0.151472 0.167058 0.300423
600 4 0.166714 0.156001 0.306831
390 4 0.225876 0.14103 0.260423
468 4 0.244467 0.147939 0.268211
466 2 0.252216 0.143894 0.291636
467 4 0.259966 0.139848 0.315062
497 4 0.26266 0.120613 0.315287
496 2 0.276391 0.105336 0.329544
420 4 0.398568 0.131312 0.244084
2894 4 0.327297 0.118054 0.303208
2893 2 0.328176 0.142139 0.296551
418 2 0.38776 0.145247 0.261808
419 4 0.376952 0.159183 0.279533
278 4 0.363633 0.111044 0.308312
277 2 0.37755 0.115178 0.328668
305 4 0.483153 0.0996886 0.282852
304 2 0.500694 0.0965729 0.265309
470 4 0.00471161 0.20426 0.303203
469 2 0.0241452 0.201583 0.318706
471 4 0.0435788 0.198906 0.334209
372 4 0.112988 0.195668 0.286241
370 2 0.13223 0.181363 0.293332
1700 4 0.266103 0.239087 0.289691
423 4 0.302002 0.196721 0.271509
421 2 0.281105 0.210132 0.274451
422 4 0.260209 0.223544 0.277393
2895 4 0.329054 0.166224 0.289895
338 4 0.0854147 0.288371 0.2546
507 4 0.101245 0.282292 0.26469
505 2 0.119622 0.298237 0.270452
506 4 0.137999 0.314183 0.276213
648 4 0.142 0.317098 0.295143
646 2 0.160046 0.316858 0.312448
647 4 0.178091 0.316619 0.329753
1701 4 0.268036 0.288765 0.284298
1699 2 0.267069 0.263926 0.286995
2954 4 0.287581 0.288542 0.284095
2953 2 0.305667 0.303169 0.293268
2955 4 0.323753 0.317796 0.30244
737 4 0.343441 0.314888 0.304753
612 4 0.412474 0.32911 0.289953
610 2 0.433793 0.334221 0.277929
934 2 0.075614 0.400187 0.276822
1398 4 0.0697413 0.373067 0.307983
935 4 0.0653663 0.38276 0.291533
569 4 0.181013 0.365701 0.256212
568 2 0.187721 0.358188 0.279097
570 4 0.19443 0.350675 0.301982
676 2 0.214935 0.347341 0.333504
677 4 0.193159 0.34502 0.321437
736 2 0.346492 0.332754 0.321977
248 4 0.362053 0.360886 0.266287
247 2 0.382627 0.353795 0.278599
249 4 0.403202 0.346703 0.290911
543 4 0.403169 0.409556 0.307915
377 4 0.393007 0.400162 0.323207
611 4 0.455111 0.339331 0.265904
936 4 0.0858617 0.417615 0.26211
302 4 0.101294 0.428881 0.255447
313 2 0.242546 0.462623 0.266774
1655 4 0.213438 0.481155 0.284823
315 4 0.226565 0.465398 0.285803
314 4 0.258526 0.459847 0.247745
103 3 0.327843 0.407861 0.258778
541 2 0.408897 0.431557 0.297508
1585 2 0.41489 0.488227 0.314037
1587 4 0.40941 0.466953 0.302097
542 4 0.414625 0.453559 0.287102
1773 4 0.0338176 0.0543178 0.402587
1645 2 0.0412795 0.0147673 0.340501
1646 4 0.0271787 0.0229499 0.359458
1771 2 0.0176543 0.0435533 0.418337
1180 2 0.14488 0.0359878 0.392124
1181 4 0.146715 0.0311951 0.367652
405 4 0.219273 0.998212 0.372564
403 2 0.231796 0.0198057 0.371127
404 4 0.244319 0.0413992 0.369689
633 4 0.240246 0.0585366 0.380651
631 2 0.258663 0.0709217 0.369136
258 4 0.306712 0.0411648 0.406456
1817 4 0.325086 0.0449848 0.414664
708 4 0.449602 0.997459 0.332343
368 4 0.0520923 0.0915268 0.343513
704 4 0.0597493 0.109786 0.340857
703 2 0.051183 0.131467 0.331817
346 2 0.0538091 0.132544 0.405479
348 4 0.0483325 0.151504 0.390127
598 2 0.172802 0.166903 0.328493
1199 4 0.220964 0.185432 0.404336
1516 2 0.245703 0.151696 0.410977
632 4 0.27708 0.0833067 0.357621
498 4 0.290122 0.0900585 0.3438
1517 4 0.26546 0.13664 0.413835
279 4 0.391468 0.119311 0.349025
2657 4 0.411325 0.121871 0.354053
2656 2 0.431453 0.136705 0.354127
2658 4 0.45158 0.15154 0.354201
2535 4 0.0588129 0.202295 0.347065
2534 4 0.0595153 0.164062 0.379291
1033 2 0.0313915 0.244932 0.388982
1035 4 0.0472304 0.225877 0.392331
2533 2 0.0591641 0.183179 0.363178
1151 4 0.0947836 0.232121 0.389084
1518 4 0.225946 0.166752 0.408118
1198 2 0.205909 0.18412 0.384417
1200 4 0.190854 0.182809 0.364497
599 4 0.178891 0.177806 0.350155
1210 2 0.235165 0.232573 0.380817
1211 4 0.212822 0.221351 0.380619
1212 4 0.257508 0.243795 0.381016
804 4 0.277778 0.244602 0.373457
802 2 0.297885 0.245203 0.388307
2801 4 0.0138196 0.280195 0.374954
1034 4 0.0155526 0.263987 0.385632
1152 4 0.0921304 0.279422 0.405095
457 2 0.0584225 0.308862 0.410251
459 4 0.0737699 0.289135 0.409533
1150 2 0.093457 0.255772 0.39709
503 4 0.182303 0.307721 0.34658
502 2 0.17484 0.307811 0.370443
717 4 0.174594 0.31441 0.411369
504 4 0.167376 0.307902 0.394307
803 4 0.317992 0.245804 0.403157
474 4 0.327495 0.262192 0.408433
472 2 0.350729 0.266596 0.416554
473 4 0.373964 0.271 0.424675
274 2 0.411378 0.290178 0.408392
649 2 0.463748 0.331771 0.408191
650 4 0.44513 0.315084 0.407903
276 4 0.431368 0.302332 0.399567
2527 2 0.00145206 0.406717 0.372597
2529 4 0.00608486 0.389228 0.389855
1221 4 0.0219295 0.378313 0.388834
4299 4 0.0727534 0.401242 0.362502
1219 2 0.0377635 0.362319 0.399726
1220 4 0.0535975 0.346325 0.410619
1397 4 0.0594568 0.386367 0.355079
1396 2 0.0645991 0.379717 0.331531
4297 2 0.0911658 0.415329 0.371868
678 4 0.236711 0.349661 0.34557
2221 2 0.197231 0.409797 0.419635
767 4 0.251319 0.349537 0.358172
766 2 0.275046 0.356767 0.361326
727 2 0.328847 0.374357 0.359156
728 4 0.307342 0.381125 0.369969
768 4 0.298772 0.363997 0.36448
738 4 0.349542 0.350621 0.3392
729 4 0.350352 0.367589 0.348344
376 2 0.378741 0.404939 0.343178
613 2 0.501388 0.360095 0.364244
614 4 0.496703 0.382252 0.353648
266 4 0.481306 0.391637 0.346376
651 4 0.482366 0.348459 0.408479
1737 4 0.99992 0.490239 0.345841
1751 4 0.995761 0.471013 0.342604
1752 4 0.0358993 0.441341 0.34563
1750 2 0.0158299 0.456177 0.344117
4298 4 0.109578 0.429416 0.381234
1640 4 0.13332 0.494044 0.327956
1639 2 0.141987 0.480975 0.347431
1641 4 0.150654 0.467906 0.366905
1445 4 0.170764 0.466546 0.360759
2222 4 0.200729 0.428593 0.40352
1446 4 0.205193 0.442467 0.38788
1444 2 0.187978 0.454506 0.374319
378 4 0.364474 0.409716 0.363148
309 4 0.369682 0.424736 0.375291
307 2 0.364185 0.442074 0.392448
560 4 0.357634 0.479044 0.407177
308 4 0.358689 0.459412 0.409605
559 2 0.347623 0.495083 0.390815
265 2 0.468978 0.412594 0.352208
267 4 0.456651 0.433551 0.358041
2637 4 0.994146 0.993416 0.475282
1772 4 0.00149096 0.0327888 0.434086
1182 4 0.143046 0.0407805 0.416595
850 2 0.09425 0.996342 0.454823
1602 4 0.092381 0.0364764 0.473349
852 4 0.0895591 0.017343 0.467557
1600 2 0.0909686 0.0614092 0.474589
1601 4 0.0895562 0.0863421 0.475828
256 2 0.297029 0.0596792 0.42019
257 4 0.287346 0.0781936 0.433925
488 4 0.380309 0.00841792 0.419677
1818 4 0.359881 0.00911867 0.416576
1816 2 0.342484 0.0270518 0.41562
3401 4 0.439645 0.0265004 0.469715
3400 2 0.458478 0.0421953 0.4648
3402 4 0.477311 0.0578903 0.459885
1026 4 0.447553 0.0103981 0.477408
347 4 0.0592857 0.113583 0.420832
734 4 0.0761124 0.122068 0.42652
735 4 0.0962481 0.0876778 0.45673
733 2 0.0861803 0.104873 0.441625
791 4 0.172179 0.161979 0.451519
857 4 0.178182 0.143755 0.459451
856 2 0.18814 0.128076 0.476189
858 4 0.198097 0.112396 0.492928
432 4 0.256502 0.12276 0.425259
431 4 0.270384 0.078549 0.444056
430 2 0.263443 0.100655 0.434657
790 2 0.179117 0.183204 0.462769
792 4 0.186055 0.204428 0.474019
2915 4 0.19074 0.192863 0.491141
458 4 0.0430752 0.328588 0.410969
715 2 0.186118 0.322058 0.432199
238 2 0.227156 0.318497 0.468536
240 4 0.23718 0.300731 0.482995
275 4 0.391389 0.278023 0.417216
373 2 0.351896 0.323193 0.501626
716 4 0.197641 0.329707 0.453029
239 4 0.217131 0.336262 0.454077
384 4 0.181601 0.375658 0.492191
382 2 0.186265 0.373751 0.4677
383 4 0.19093 0.371844 0.44321
2223 4 0.193733 0.391002 0.435749
1178 4 0.196777 0.377868 0.503
1239 4 0.335475 0.357344 0.486106
335 4 0.337549 0.402138 0.443922
1238 4 0.324508 0.387552 0.447792
1237 2 0.329991 0.372448 0.466949
375 4 0.349392 0.347636 0.496994
1192 2 0.477818 0.387084 0.49104
1193 4 0.488079 0.401184 0.473121
873 4 0.479734 0.39946 0.454841
871 2 0.478658 0.382353 0.436637
872 4 0.477582 0.365246 0.418434
1814 4 0.206993 0.456835 0.44789
1815 4 0.169332 0.483162 0.428162
1702 2 0.211411 0.447163 0.485126
1704 4 0.19714 0.449681 0.464751
1813 2 0.188163 0.469998 0.438026
336 4 0.361096 0.444625 0.455798
1453 2 0.397526 0.445631 0.47866
1454 4 0.379899 0.440146 0.461797
334 2 0.349322 0.423382 0.44986
1455 4 0.415153 0.451117 0.495524
726 4 0.325987 0.0551771 0.57347
829 2 0.272866 0.0805314 0.556219
830 4 0.289266 0.062462 0.561672
409 2 0.341786 0.0199415 0.556123
410 4 0.337075 0.043592 0.562729
1030 2 0.485395 0.0356358 0.531995
1031 4 0.48055 0.0159117 0.517412
3043 2 0.0532694 0.116847 0.580446
3044 4 0.0502404 0.129875 0.559321
1271 4 0.120196 0.138252 0.579722
887 4 0.21761 0.109921 0.49667
886 2 0.230989 0.109355 0.517786
888 4 0.244368 0.108788 0.538901
831 4 0.256467 0.0986007 0.550766
2916 4 0.211942 0.186973 0.536046
1282 2 0.208558 0.215991 0.56573
1283 4 0.202723 0.237005 0.57796
1284 4 0.214394 0.194977 0.553501
2914 2 0.201341 0.189918 0.513593
1137 4 0.313753 0.185097 0.573699
1165 2 0.322919 0.212568 0.547896
1167 4 0.307085 0.197934 0.560557
1166 4 0.338753 0.227203 0.535236
710 4 0.344721 0.242813 0.543554
806 4 0.230185 0.306031 0.557908
668 4 0.214764 0.294283 0.562826
667 2 0.215732 0.272118 0.574356
805 2 0.249135 0.318151 0.568824
374 4 0.3544 0.298751 0.506257
711 4 0.350429 0.288278 0.523526
709 2 0.347575 0.265545 0.53354
799 2 0.385927 0.331071 0.558965
801 4 0.368719 0.327683 0.576786
898 2 0.455881 0.323618 0.510897
899 4 0.433253 0.321616 0.521342
900 4 0.47851 0.32562 0.500451
500 4 0.046884 0.335363 0.590472
1122 4 0.0656968 0.379843 0.529994
1120 2 0.0448291 0.36762 0.536344
1121 4 0.0239615 0.355397 0.542694
3354 4 0.0823264 0.369804 0.535786
3352 2 0.100832 0.385325 0.529321
3353 4 0.119338 0.400847 0.522857
1177 2 0.198532 0.393955 0.522061
1179 4 0.200288 0.410042 0.541122
694 2 0.190018 0.403067 0.578534
696 4 0.205873 0.412251 0.561521
1008 4 0.280251 0.336587 0.596003
807 4 0.268086 0.33027 0.579741
800 4 0.403135 0.334459 0.541144
1011 4 0.416283 0.348907 0.548415
1009 2 0.427215 0.370645 0.542659
1194 4 0.467558 0.372985 0.508959
1010 4 0.438147 0.392384 0.536903
1401 4 0.445755 0.411626 0.535305
751 2 0.245883 0.464856 0.525518
753 4 0.253309 0.488562 0.528357
1703 4 0.225682 0.444645 0.505502
752 4 0.238456 0.44115 0.522679
1400 4 0.433053 0.44032 0.496369
1399 2 0.439404 0.425973 0.515837
198 3 0.497395 0.480437 0.573453
3066 4 0.501896 0.464974 0.587082
1276 2 0.0836028 0.0809777 0.620393
1277 4 0.104928 0.06816 0.622865
2132 4 0.115686 0.0847295 0.622757
2131 2 0.139719 0.0868969 0.616208
3732 4 0.282937 0.0502143 0.576566
724 2 0.334159 0.0628223 0.595829
843 4 0.278393 0.0315436 0.640354
3731 4 0.286462 0.027818 0.621138
3730 2 0.284699 0.0390162 0.598852
841 2 0.273957 0.0227072 0.663319
3426 4 0.320753 0.0359582 0.640445
1062 4 0.331262 0.0670651 0.634991
1060 2 0.309557 0.0755363 0.644063
1061 4 0.287852 0.0840076 0.653136
725 4 0.342331 0.0704676 0.618189
1163 4 0.367759 0.000625068 0.622334
3424 2 0.335899 0.0251914 0.657174
1162 2 0.381844 0.993268 0.60303
1262 4 0.444213 0.0879795 0.584881
1261 2 0.420887 0.0948843 0.590658
3045 4 0.0562983 0.103818 0.601571
1278 4 0.0622774 0.0937954 0.617921
3237 4 0.032404 0.115244 0.653427
1270 2 0.12429 0.148128 0.602325
1272 4 0.128383 0.158003 0.624928
2048 4 0.132005 0.148333 0.642643
2047 2 0.112628 0.147843 0.658438
2133 4 0.163752 0.0890642 0.609659
1523 4 0.167937 0.105121 0.619043
1522 2 0.191739 0.10252 0.611842
1524 4 0.215541 0.0999188 0.60464
49 3 0.24692 0.11852 0.650606
46 1 0.267014 0.115476 0.661802
50 3 0.281198 0.103018 0.649064
47 3 0.276498 0.136051 0.665787
516 4 0.294206 0.129865 0.673335
1143 4 0.389388 0.116472 0.607169
1142 4 0.37402 0.141851 0.647424
1141 2 0.381704 0.129162 0.627297
1086 4 0.364905 0.158046 0.641715
1263 4 0.39756 0.101789 0.596435
3355 2 0.484394 0.144418 0.656723
3356 4 0.472745 0.122912 0.661913
822 4 0.0454977 0.243767 0.635828
1068 4 0.0413539 0.228029 0.648586
1066 2 0.0627177 0.217534 0.656241
1067 4 0.0840815 0.207038 0.663897
669 4 0.2167 0.249952 0.585886
839 4 0.187729 0.201744 0.644249
1129 2 0.206851 0.237565 0.661548
1135 2 0.30108 0.192088 0.594088
796 2 0.272108 0.21739 0.641952
797 4 0.275869 0.196241 0.629155
1136 4 0.288407 0.19908 0.614476
798 4 0.268348 0.238539 0.654748
1084 2 0.376596 0.177846 0.651537
3357 4 0.496044 0.165925 0.651533
2507 4 0.482802 0.23933 0.630155
642 4 0.474578 0.224563 0.641146
640 2 0.484915 0.204096 0.651118
641 4 0.495252 0.183629 0.66109
499 2 0.0305307 0.316497 0.591824
3267 4 0.00806936 0.279814 0.598128
501 4 0.0141774 0.297631 0.593177
820 2 0.0222921 0.25101 0.641677
7 3 0.203515 0.287706 0.622448
6 1 0.209936 0.295561 0.643093
8 3 0.193726 0.310203 0.650921
10 3 0.229882 0.306376 0.641133
9 3 0.212065 0.277596 0.657624
1131 4 0.216556 0.259875 0.667315
1259 4 0.174908 0.312009 0.644112
3113 4 0.245771 0.294117 0.640354
3112 2 0.26026 0.273823 0.642201
3114 4 0.274748 0.253529 0.644049
891 4 0.318411 0.339124 0.606173
890 4 0.356386 0.314845 0.584513
889 2 0.337398 0.326984 0.595343
2506 2 0.462843 0.254389 0.629944
2508 4 0.442883 0.269447 0.629732
952 2 0.454405 0.307485 0.631425
953 4 0.441749 0.287384 0.623616
3264 4 0.0581256 0.349912 0.583376
3262 2 0.0775542 0.363669 0.59102
618 4 0.116088 0.38321 0.598736
616 2 0.140723 0.379418 0.596765
617 4 0.165359 0.375625 0.594794
3263 4 0.0969827 0.377427 0.598664
814 2 0.12539 0.371617 0.656739
815 4 0.139102 0.366843 0.636384
1260 4 0.155332 0.358021 0.643499
1258 2 0.16512 0.335015 0.643806
695 4 0.174162 0.393884 0.595548
2015 4 0.242008 0.415396 0.648798
1007 4 0.290663 0.384908 0.588424
1006 2 0.285457 0.360748 0.592214
1230 4 0.309887 0.341629 0.624021
2027 4 0.304195 0.398955 0.585234
1228 2 0.322261 0.355244 0.640954
2014 2 0.260848 0.417404 0.665113
1229 4 0.334634 0.368859 0.657886
1394 4 0.326166 0.38721 0.653734
1393 2 0.340065 0.40799 0.654178
954 4 0.467061 0.327585 0.639234
663 4 0.463754 0.344956 0.649275
661 2 0.483456 0.360258 0.650964
662 4 0.503159 0.375559 0.652653
1173 4 0.100794 0.467641 0.627011
1171 2 0.12356 0.471671 0.636531
2244 4 0.162547 0.484776 0.653036
1172 4 0.146327 0.475702 0.646051
2026 2 0.315744 0.417542 0.597331
2028 4 0.327294 0.436128 0.609427
1395 4 0.353964 0.428769 0.654621
2308 2 0.349011 0.471479 0.655421
2310 4 0.345696 0.446812 0.657821
2309 4 0.352326 0.496145 0.65302
3380 4 0.419501 0.430647 0.661254
3379 2 0.441652 0.433417 0.64999
3064 2 0.490633 0.452365 0.605504
3065 4 0.479371 0.439756 0.623925
3381 4 0.463802 0.436187 0.638726
864 4 0.0532695 0.029859 0.702353
862 2 0.0518034 0.054448 0.698063
944 4 0.0661931 0.0134402 0.698474
863 4 0.0503372 0.079037 0.693772
4193 4 0.0852773 0.0200183 0.73413
4192 2 0.066538 0.0207926 0.750665
2316 4 0.153804 0.0055437 0.705638
2254 2 0.113494 0.0241773 0.716074
2256 4 0.136521 0.0152692 0.712124
2255 4 0.0904679 0.0330855 0.720024
963 4 0.167685 0.0684253 0.723174
966 4 0.237346 0.0291482 0.755111
1080 4 0.227349 0.0387757 0.740215
1078 2 0.206669 0.0517463 0.734804
1079 4 0.185989 0.0647169 0.729392
964 2 0.258074 0.0355918 0.742702
965 4 0.278802 0.0420355 0.730292
842 4 0.269521 0.0138708 0.686285
1782 4 0.273557 0.0589477 0.719928
2240 4 0.279192 0.995661 0.686442
1780 2 0.261797 0.0754557 0.705287
3425 4 0.351044 0.0144247 0.673903
45 3 0.354737 0.02872 0.687739
41 1 0.3626 0.0332439 0.708628
43 3 0.345043 0.0335793 0.723795
960 4 0.356673 0.0655427 0.713507
44 3 0.373532 0.0537103 0.708712
1049 4 0.350522 0.0524941 0.728141
42 3 0.37748 0.0168388 0.71484
958 2 0.356846 0.0889494 0.704717
3236 4 0.0428216 0.0970395 0.698823
3235 2 0.0376128 0.106142 0.676125
1257 4 0.105986 0.133221 0.734518
2049 4 0.093251 0.147354 0.674233
977 4 0.156077 0.163164 0.689551
1256 4 0.0848239 0.135117 0.689249
1255 2 0.0954049 0.134169 0.711884
976 2 0.16243 0.148647 0.708891
961 2 0.166459 0.092752 0.728821
978 4 0.168782 0.134129 0.728232
962 4 0.165234 0.117079 0.734468
48 3 0.263244 0.104896 0.682106
1781 4 0.250037 0.0919637 0.690645
514 2 0.317644 0.125973 0.681123
515 4 0.341083 0.122081 0.688911
959 4 0.35702 0.112356 0.695926
3007 2 0.398216 0.133496 0.722004
3008 4 0.400007 0.129777 0.697344
3009 4 0.396425 0.137215 0.746665
4466 4 0.409121 0.11403 0.688585
4467 4 0.454167 0.117787 0.667197
4465 2 0.431644 0.115909 0.677891
840 4 0.157944 0.177048 0.67593
1130 4 0.197146 0.215255 0.655782
838 2 0.172836 0.189396 0.66009
1226 4 0.313492 0.210774 0.753793
1085 4 0.388287 0.197645 0.661359
1063 2 0.41562 0.236947 0.696187
1065 4 0.431757 0.222354 0.708509
3336 4 0.437204 0.225601 0.727936
3385 2 0.00408687 0.274181 0.687633
3387 4 0.00511484 0.259494 0.667424
3038 4 0.984958 0.294927 0.704172
1064 4 0.399483 0.25154 0.683866
917 4 0.385145 0.263556 0.680929
918 4 0.35328 0.273011 0.718292
916 2 0.369212 0.268283 0.699611
1027 2 0.480771 0.311165 0.733164
1028 4 0.462013 0.324827 0.742472
1209 4 0.0724483 0.348535 0.726549
1191 4 0.0699405 0.365678 0.715328
1189 2 0.0743339 0.384513 0.699481
1190 4 0.0787273 0.403347 0.683634
816 4 0.111678 0.376391 0.677095
1207 2 0.086221 0.338505 0.744849
2016 4 0.279689 0.419411 0.681428
925 2 0.472058 0.404466 0.68877
927 4 0.454643 0.388219 0.696383
4060 2 0.452141 0.355178 0.715846
4061 4 0.442671 0.377116 0.708482
4062 4 0.46161 0.333239 0.72321
878 4 0.04108 0.413629 0.701693
1936 2 0.0274194 0.495543 0.717343
877 2 0.035772 0.438019 0.700237
1938 4 0.0378403 0.480763 0.700077
879 4 0.0304639 0.462409 0.69878
3431 4 0.118541 0.417195 0.665024
3432 4 0.110838 0.448055 0.703612
3430 2 0.114689 0.432625 0.684318
2172 4 0.124475 0.462485 0.706533
2170 2 0.128684 0.486261 0.713026
993 4 0.112852 0.431496 0.744354
2242 2 0.173717 0.495533 0.67265
2243 4 0.184886 0.506291 0.692263
1174 2 0.238331 0.45781 0.742027
1176 4 0.246241 0.435542 0.733857
773 4 0.329243 0.428296 0.690859
772 2 0.304563 0.430899 0.693907
774 4 0.279882 0.433501 0.696955
929 4 0.342421 0.432226 0.706967
930 4 0.383701 0.454597 0.724178
928 2 0.363061 0.443412 0.715572
1269 4 0.50541 0.420469 0.667205
926 4 0.489472 0.420712 0.681156
2311 2 0.0191441 0.0117883 0.779988
2312 4 0.0422378 0.0187369 0.78659
4194 4 0.0477987 0.0215669 0.767201
870 4 0.205309 0.0252521 0.824625
689 4 0.215929 0.0273487 0.808245
688 2 0.238763 0.035403 0.802007
868 2 0.185175 0.0295793 0.838806
908 4 0.278676 0.0538502 0.796315
907 2 0.301727 0.0572674 0.78725
690 4 0.261597 0.0434574 0.795769
909 4 0.324777 0.0606845 0.778186
358 2 0.279828 0.00700924 0.841738
1050 4 0.343222 0.068352 0.775002
1048 2 0.346872 0.060423 0.751571
1227 4 0.274805 0.180441 0.762957
88 3 0.387242 0.108167 0.782068
89 3 0.398901 0.14214 0.794491
86 1 0.404724 0.123424 0.782073
90 3 0.409722 0.129522 0.760707
87 3 0.423177 0.113586 0.791657
1299 4 0.432838 0.0993761 0.801612
1297 2 0.444365 0.102093 0.823634
894 4 0.0217341 0.222457 0.755471
2999 4 0.0102519 0.209822 0.744254
892 2 0.0374392 0.216268 0.773917
893 4 0.0531443 0.210079 0.792362
2000 4 0.0665275 0.195504 0.79917
1999 2 0.0699124 0.198239 0.823792
1040 4 0.160324 0.226344 0.780446
1039 2 0.152649 0.244598 0.76518
941 4 0.179017 0.226042 0.770555
1042 2 0.233614 0.167431 0.764785