ITEM: TIMESTEP
2980000
ITEM: NUMBER OF ATOMS
4590
ITEM: BOX BOUNDS pp pp pp
-9.9985700000000008e+00 9.9985700000000008e+00
-9.9985700000000008e+00 9.9985700000000008e+00
-9.9985700000000008e+00 9.9985700000000008e+00
ITEM: ATOMS id type xs ys zs
3290 4 0.0617005 0.0517875 0.0114807
465 4 0.0784879 0.0604091 0.0191325
1328 4 0.0456469 0.0174034 0.0815676
1662 4 0.245931 0.999248 0.0175282
1660 2 0.231749 0.0119018 0.00128222
461 4 0.248825 0.0592097 0.0580326
460 2 0.260143 0.0372315 0.0617791
462 4 0.271461 0.0152534 0.0655257
1566 4 0.290756 0.0127749 0.0625822
1564 2 0.315335 0.00824673 0.0618292
745 2 0.351509 0.0777333 0.0432917
746 4 0.35532 0.0606423 0.0611397
1110 4 0.372002 0.0616051 0.0727502
484 2 0.355021 0.00827539 0.021994
485 4 0.355654 0.0136918 0.997592
2467 2 0.492738 0.0417315 0.056454
2468 4 0.489715 0.0207362 0.0432163
2469 4 0.495762 0.0627268 0.0696917
1285 2 0.0673589 0.168382 0.0419352
463 2 0.0861079 0.0834776 0.0132201
1286 4 0.0821072 0.154997 0.0570515
1037 4 0.0943227 0.121653 0.995068
464 4 0.0937279 0.106546 0.00730763
1073 4 0.0995468 0.150437 0.047057
1072 2 0.120857 0.15044 0.0601363
1074 4 0.142166 0.150443 0.0732157
17 3 0.155599 0.137567 0.0771741
19 3 0.191783 0.127398 0.0771181
51 1 0.240091 0.153133 0.0383303
914 4 0.209027 0.134776 0.0139604
54 3 0.233092 0.158417 0.0598128
53 3 0.223847 0.140523 0.0275836
913 2 0.189613 0.148838 0.00685378
20 3 0.182148 0.163795 0.0767824
52 3 0.259443 0.140767 0.0396446
867 4 0.304562 0.144133 0.0418945
865 2 0.294015 0.138184 0.0637705
769 2 0.335494 0.131093 0.0263116
771 4 0.323269 0.149932 0.0373038
866 4 0.283469 0.132235 0.0856466
770 4 0.34772 0.112255 0.0153194
747 4 0.347698 0.0948243 0.0254436
2828 4 0.420467 0.158934 0.0432985
282 4 0.423425 0.165986 0.0253049
2827 2 0.429986 0.136204 0.0475309
2829 4 0.439505 0.113474 0.0517633
3068 4 0.500095 0.15339 0.0143288
1287 4 0.0526105 0.181767 0.026819
1124 4 0.0434163 0.19948 0.0300377
1123 2 0.0431761 0.21548 0.0108243
242 4 0.165812 0.213588 0.0389135
957 4 0.178793 0.227106 0.0352835
241 2 0.171667 0.196868 0.0212686
243 4 0.177521 0.180148 0.00362373
955 2 0.180242 0.236811 0.0582814
356 4 0.242447 0.238176 0.0283214
55 3 0.244162 0.172207 0.0265721
956 4 0.18169 0.246515 0.0812794
355 2 0.241715 0.213958 0.022145
357 4 0.240984 0.189741 0.0159686
566 4 0.324794 0.221286 0.0204985
565 2 0.311967 0.23905 0.032544
567 4 0.29914 0.256814 0.0445895
623 4 0.340856 0.213865 0.0116741
558 4 0.374077 0.202317 0.0750964
556 2 0.370931 0.177585 0.0769953
3303 4 0.0332767 0.263784 0.00517285
287 4 0.0275569 0.297379 0.091579
3301 2 0.0574547 0.269977 0.00667423
700 2 0.162968 0.315806 0.0126666
837 4 0.14393 0.32541 0.0499064
701 4 0.155481 0.318305 0.0363917
3302 4 0.0816327 0.276169 0.00817561
627 4 0.228163 0.294609 0.0539764
625 2 0.237918 0.303904 0.0750387
15 3 0.248398 0.249819 0.0434909
665 4 0.251525 0.30792 0.043927
664 2 0.254445 0.319359 0.0218862
11 1 0.263632 0.266407 0.0401126
13 3 0.254302 0.286949 0.0455339
12 3 0.281919 0.262757 0.053582
14 3 0.270522 0.266436 0.0179556
521 4 0.484274 0.267123 0.0185917
520 2 0.488944 0.275655 0.0416263
522 4 0.493613 0.284186 0.0646608
250 2 0.022112 0.358513 0.0821098
251 4 0.014606 0.353952 0.0586996
536 4 0.00256772 0.369451 0.0520959
455 4 0.128656 0.390997 0.0490042
454 2 0.121083 0.399081 0.0265881
836 4 0.139339 0.374967 0.0547811
835 2 0.141635 0.350188 0.0523438
1777 2 0.203696 0.378942 0.0770368
1778 4 0.195228 0.359766 0.0634076
564 4 0.412936 0.343229 0.0471159
562 2 0.423139 0.357153 0.0290271
38 3 0.447712 0.383591 0.0186419
36 1 0.446461 0.400837 0.00316811
563 4 0.433342 0.371077 0.0109383
1766 4 0.0466122 0.465554 0.0648985
1765 2 0.0704079 0.459256 0.0692894
4005 4 0.0362841 0.469536 0.0488296
4003 2 0.018166 0.486744 0.0497297
4210 2 0.0821174 0.457857 0.00407828
1596 4 0.105955 0.436011 0.078708
4212 4 0.0991709 0.447129 0.0188857
1290 4 0.194024 0.493689 0.00212016
788 4 0.186939 0.486173 0.0183299
284 4 0.329796 0.497995 0.0746117
273 4 0.324768 0.501266 0.0545921
271 2 0.324129 0.491752 0.0314783
272 4 0.323491 0.482238 0.00836451
1317 4 0.411567 0.472952 0.0431168
1315 2 0.414327 0.460421 0.0216563
39 3 0.441692 0.420822 0.0139491
525 4 0.434726 0.491111 0.0805162
1327 2 0.0283238 0.0352611 0.0840561
2754 4 0.0125686 0.0700001 0.153202
1329 4 0.0110006 0.0531188 0.0865445
730 2 0.145131 0.0190124 0.114066
731 4 0.132523 0.0347377 0.0992694
591 4 0.129606 0.05436 0.0936103
589 2 0.111535 0.068129 0.104051
732 4 0.157739 0.00328702 0.128862
590 4 0.0934634 0.0818979 0.114492
765 4 0.183824 0.0825718 0.168147
654 4 0.314918 0.0929966 0.119849
24 3 0.34392 0.0761121 0.165775
1108 2 0.360375 0.0561615 0.0942067
1109 4 0.348749 0.050718 0.115663
25 3 0.353418 0.0612686 0.132502
21 1 0.348259 0.0805761 0.143422
938 4 0.163782 0.148347 0.122479
744 4 0.256631 0.0795027 0.148809
18 3 0.176381 0.143448 0.107934
16 1 0.176584 0.143192 0.0847326
937 2 0.173852 0.157229 0.143572
477 4 0.252673 0.16467 0.132871
742 2 0.243919 0.0980661 0.159716
939 4 0.183921 0.16611 0.164664
475 2 0.261947 0.148014 0.116692
652 2 0.29162 0.086842 0.12652
476 4 0.271221 0.131359 0.100513
653 4 0.268322 0.0806875 0.133192
22 3 0.329489 0.0898746 0.133916
630 4 0.376621 0.135517 0.0825165
628 2 0.378424 0.118785 0.101008
557 4 0.367785 0.152853 0.0788942
629 4 0.380228 0.102052 0.1195
23 3 0.365824 0.0956297 0.141616
310 2 0.396703 0.151565 0.154349
572 4 0.366522 0.16611 0.139494
311 4 0.371755 0.151847 0.152705
312 4 0.421651 0.151284 0.155993
2848 2 0.031807 0.229215 0.103923
2850 4 0.011202 0.223397 0.0910096
2849 4 0.0524119 0.235033 0.116837
370 2 0.140439 0.228961 0.136058
372 4 0.151527 0.210633 0.123162
2759 4 0.16981 0.214409 0.114315
371 4 0.129351 0.247289 0.148954
2760 4 0.166899 0.177225 0.0810043
2758 2 0.168355 0.195817 0.0976595
352 2 0.291218 0.198422 0.115318
353 4 0.313789 0.18767 0.114931
354 4 0.268648 0.209174 0.115706
27 3 0.328137 0.201256 0.114666
573 4 0.321498 0.169717 0.118035
28 3 0.329998 0.236043 0.100557
571 2 0.34401 0.167913 0.128764
29 3 0.341201 0.229143 0.136213
26 1 0.340355 0.220746 0.114599
2516 4 0.369456 0.235169 0.110057
30 3 0.36142 0.216368 0.107133
2515 2 0.393295 0.238309 0.116911
402 4 0.353632 0.236594 0.150631
2517 4 0.417135 0.241449 0.123766
2894 4 0.478917 0.210234 0.147628
2893 2 0.4947 0.190878 0.148824
286 2 0.050487 0.292062 0.0831458
2615 4 0.0159813 0.306231 0.156545
288 4 0.0734172 0.286746 0.0747127
602 4 0.00699016 0.305684 0.139606
293 4 0.0854835 0.277533 0.0888307
292 2 0.101057 0.270507 0.107086
294 4 0.116631 0.26348 0.125342
450 4 0.116319 0.260563 0.145367
448 2 0.131247 0.275641 0.158595
626 4 0.247672 0.3132 0.0961011
381 4 0.202928 0.273698 0.127531
379 2 0.202187 0.263102 0.104896
380 4 0.201445 0.252505 0.0822614
446 4 0.241932 0.311455 0.115351
445 2 0.264709 0.305418 0.123716
447 4 0.287485 0.29938 0.132081
494 4 0.305136 0.307767 0.13163
493 2 0.326541 0.311389 0.144036
495 4 0.347945 0.31501 0.156443
386 4 0.353506 0.333762 0.15009
2702 4 0.41886 0.257031 0.136415
2837 4 0.431953 0.318319 0.157494
2701 2 0.428106 0.279799 0.141033
2703 4 0.437352 0.302567 0.145651
252 4 0.0296179 0.363074 0.10552
394 2 0.0663611 0.382548 0.108281
396 4 0.0416675 0.378675 0.107641
362 4 0.0536248 0.378148 0.185014
395 4 0.0910546 0.386421 0.108921
1595 4 0.099981 0.40428 0.116894
1779 4 0.212164 0.398118 0.0906659
291 4 0.203178 0.408531 0.106845
289 2 0.215933 0.405822 0.12818
290 4 0.228688 0.403114 0.149514
756 4 0.222587 0.401159 0.168938
385 2 0.375226 0.34526 0.145488
387 4 0.396947 0.356758 0.140887
102 3 0.394706 0.371351 0.154072
105 3 0.388848 0.406653 0.164669
101 1 0.399547 0.38726 0.169966
517 2 0.492978 0.356471 0.1541
2652 4 0.422213 0.410457 0.165352
104 3 0.422487 0.390727 0.170365
519 4 0.476394 0.348984 0.17125
1767 4 0.0942036 0.452959 0.0736804
1594 2 0.102968 0.420146 0.097801
315 4 0.168391 0.491624 0.161385
1223 4 0.238961 0.493832 0.0998334
1431 4 0.302673 0.498084 0.12069
283 2 0.315733 0.506685 0.0933702
1429 2 0.290515 0.485904 0.138828
1430 4 0.278356 0.473724 0.156967
588 4 0.404372 0.418149 0.168313
587 4 0.386553 0.464839 0.170113
586 2 0.395462 0.441494 0.169213
2650 2 0.444446 0.416537 0.155659
2451 4 0.478381 0.418095 0.161081
523 2 0.455676 0.489828 0.094103
2651 4 0.466678 0.422617 0.145967
482 4 0.47354 0.48083 0.127016
524 4 0.476627 0.488544 0.10769
1422 4 0.0984248 0.0402165 0.208522
1420 2 0.0960628 0.0153344 0.209218
1403 4 0.0877169 0.0576986 0.211392
1402 2 0.103831 0.075282 0.203886
763 2 0.162316 0.0870086 0.1801
1339 2 0.167855 0.0121561 0.221832
1340 4 0.17267 0.029596 0.23909
1504 2 0.196636 0.0492418 0.162415
1505 4 0.186261 0.0700147 0.15314
1506 4 0.207011 0.0284688 0.17169
1496 4 0.236963 0.00607596 0.225145
2421 4 0.243207 0.0152447 0.207656
1783 2 0.310444 0.0236522 0.246269
2419 2 0.255098 0.00459598 0.188411
697 2 0.319338 0.0618183 0.200435
698 4 0.30513 0.0537408 0.219357
1784 4 0.311626 0.0472998 0.238233
699 4 0.333546 0.0698958 0.181512
691 2 0.999463 0.147375 0.1714
704 4 0.0301281 0.0726299 0.221183
705 4 0.0137798 0.108979 0.190981
693 4 0.00612012 0.125491 0.181497
703 2 0.0219539 0.0908047 0.206082
298 2 0.074598 0.153345 0.19954
300 4 0.053205 0.160826 0.210102
299 4 0.095991 0.145865 0.188978
1404 4 0.119945 0.0928654 0.196379
764 4 0.140808 0.0914454 0.192054
545 4 0.19407 0.152731 0.174913
544 2 0.209886 0.13504 0.182791
546 4 0.225702 0.117349 0.190668
743 4 0.231206 0.116629 0.170624
3676 2 0.359106 0.164178 0.228555
333 4 0.435703 0.159198 0.167416
331 2 0.455932 0.163161 0.181566
366 4 0.0529738 0.229528 0.205495
364 2 0.0499989 0.204702 0.205559
365 4 0.0470241 0.179876 0.205623
339 4 0.0695464 0.235176 0.196189
390 4 0.160849 0.215917 0.214004
388 2 0.176088 0.207567 0.231983
389 4 0.191327 0.199218 0.249962
422 4 0.331221 0.233793 0.214828
400 2 0.343778 0.231788 0.173102
3678 4 0.348675 0.182724 0.215423
401 4 0.333923 0.226983 0.195574
2768 4 0.492357 0.15825 0.204619
332 4 0.476162 0.167125 0.195717
2614 2 0.0375796 0.295297 0.162801
2616 4 0.059178 0.284363 0.169057
337 2 0.0714732 0.253729 0.179538
338 4 0.0734001 0.272282 0.162887
449 4 0.146175 0.290719 0.171823
507 4 0.156998 0.302748 0.182746
505 2 0.166547 0.322812 0.194212
421 2 0.313671 0.250178 0.221807
423 4 0.296121 0.266563 0.228786
509 4 0.280873 0.318945 0.178308
750 4 0.267793 0.30597 0.185465
748 2 0.274272 0.293899 0.206381
749 4 0.280752 0.281829 0.227298
267 4 0.382776 0.289324 0.251672
2836 2 0.448144 0.330462 0.172178
2852 4 0.508936 0.332275 0.210659
2838 4 0.464334 0.342605 0.186861
361 2 0.0757432 0.367181 0.181056
363 4 0.0978616 0.356214 0.177098
2954 4 0.13089 0.402347 0.224721
647 4 0.150502 0.399128 0.22261
646 2 0.154743 0.375469 0.21572
648 4 0.158983 0.351811 0.20883
506 4 0.176095 0.342875 0.205678
309 4 0.246027 0.375683 0.227054
754 2 0.245059 0.392928 0.176181
508 2 0.279831 0.343483 0.182996
510 4 0.278788 0.368021 0.187684
307 2 0.257213 0.375645 0.249416
755 4 0.267531 0.384697 0.183423
413 4 0.322497 0.416345 0.254882
610 2 0.389977 0.348674 0.213483
611 4 0.385536 0.361293 0.192359
103 3 0.392328 0.379631 0.190657
612 4 0.394417 0.336055 0.234607
548 4 0.049411 0.48978 0.202412
620 4 0.0578005 0.481592 0.219785
619 2 0.065221 0.463957 0.235882
2953 2 0.114366 0.408177 0.242557
344 4 0.236843 0.43604 0.220528
313 2 0.183443 0.476715 0.174664
314 4 0.198495 0.461806 0.187944
345 4 0.208859 0.448006 0.180849
343 2 0.222851 0.442023 0.200689
1556 4 0.289537 0.474855 0.172401
1555 2 0.28792 0.469627 0.196798
412 2 0.308847 0.435245 0.245847
414 4 0.295198 0.454146 0.236811
1557 4 0.286302 0.464398 0.221196
233 4 0.208721 0.00633782 0.297063
1701 4 0.186404 0.0797957 0.34012
1495 2 0.243271 0.0107806 0.248878
1497 4 0.24958 0.0154852 0.272611
2744 4 0.403882 0.0172033 0.26097
3891 4 0.41839 0.0304387 0.254335
3889 2 0.430526 0.045167 0.27049
3890 4 0.442661 0.0598954 0.286645
2535 4 0.0320052 0.132855 0.327227
2533 2 0.0550152 0.133052 0.317445
2534 4 0.0780251 0.133248 0.307663
471 4 0.025383 0.149993 0.320507
1700 4 0.163653 0.097177 0.29912
468 4 0.169065 0.103522 0.280645
1699 2 0.175028 0.0884863 0.31962
466 2 0.174192 0.117597 0.260625
467 4 0.17932 0.131671 0.240605
633 4 0.224542 0.162857 0.282785
631 2 0.248233 0.154946 0.281631
632 4 0.271924 0.147035 0.280477
498 4 0.283312 0.155486 0.265489
496 2 0.294656 0.133494 0.261908
497 4 0.306001 0.111502 0.258326
3677 4 0.369536 0.145631 0.241686
708 4 0.363807 0.142304 0.260366
706 2 0.38076 0.133562 0.276533
707 4 0.397713 0.12482 0.292699
489 4 0.412236 0.111296 0.295546
487 2 0.437157 0.109317 0.296016
488 4 0.462077 0.107338 0.296487
305 4 0.475641 0.108598 0.281778
469 2 0.0127151 0.171453 0.318468
259 2 0.242289 0.253311 0.254653
260 4 0.220304 0.263289 0.261156
600 4 0.200569 0.259485 0.265629
261 4 0.264274 0.243332 0.24815
277 2 0.35097 0.247327 0.323447
279 4 0.368913 0.23045 0.327735
420 4 0.3867 0.231827 0.337579
418 2 0.408207 0.220792 0.331189
419 4 0.429714 0.209756 0.324798
598 2 0.193087 0.268489 0.287722
599 4 0.185604 0.277493 0.309815
248 4 0.324026 0.309196 0.270726
247 2 0.327443 0.288784 0.284756
249 4 0.330861 0.268372 0.298786
278 4 0.333027 0.264204 0.319158
266 4 0.386689 0.247967 0.279511
738 4 0.338516 0.316927 0.260024
265 2 0.384733 0.268645 0.265592
736 2 0.362053 0.319327 0.251934
614 4 0.43409 0.297005 0.331406
377 4 0.422236 0.285791 0.342179
777 4 0.0958387 0.39979 0.274794
775 2 0.0883389 0.405821 0.297871
308 4 0.268399 0.375607 0.271777
768 4 0.270139 0.360267 0.284613
766 2 0.268759 0.352473 0.308331
767 4 0.267379 0.344679 0.332048
737 4 0.38559 0.321726 0.243844
621 4 0.0726415 0.446322 0.25198
679 2 0.0628879 0.449824 0.32723
680 4 0.0718485 0.426642 0.329959
681 4 0.0539274 0.473007 0.324501
3672 4 0.0499578 0.492959 0.330287
2955 4 0.0978415 0.414006 0.260394
776 4 0.0808391 0.411852 0.320948
714 4 0.368665 0.448016 0.283957
712 2 0.389497 0.450709 0.29752
713 4 0.410329 0.453402 0.311083
117 3 0.492693 0.503309 0.322017
594 4 0.453656 0.494258 0.302604
592 2 0.442002 0.472331 0.305529
593 4 0.430347 0.450404 0.308455
530 4 0.047721 0.997933 0.343281
529 2 0.0509641 0.018303 0.357413
531 4 0.0542073 0.0386732 0.371546
2636 4 0.0446341 0.0247815 0.416816
340 2 0.134429 0.00490877 0.378495
341 4 0.151866 0.0166117 0.364923
606 4 0.17813 0.0759266 0.357678
605 4 0.154324 0.034567 0.372624
604 2 0.166227 0.0552468 0.365151
2658 4 0.410357 0.024827 0.391766
2656 2 0.390697 0.0360858 0.402345
2657 4 0.371038 0.0473447 0.412923
1818 4 0.35219 0.044373 0.418994
1182 4 0.162393 0.145888 0.37229
319 2 0.225548 0.0979075 0.363205
1181 4 0.204099 0.118298 0.372012
1180 2 0.183246 0.132093 0.372151
321 4 0.203331 0.0977329 0.374674
1210 2 0.225897 0.162399 0.406617
369 4 0.170388 0.159999 0.360574
404 4 0.252184 0.110798 0.336485
320 4 0.247765 0.098082 0.351736
403 2 0.267735 0.128168 0.345518
405 4 0.283286 0.145539 0.35455
1518 4 0.299383 0.135194 0.357062
1516 2 0.322271 0.144841 0.359928
1517 4 0.34516 0.154488 0.362794
734 4 0.0739443 0.17184 0.388525
346 2 0.0629068 0.236451 0.39972
347 4 0.0739835 0.219494 0.414381
733 2 0.0976218 0.17531 0.381278
367 2 0.151322 0.176018 0.362819
368 4 0.132255 0.192037 0.365064
735 4 0.121299 0.178779 0.374032
417 4 0.171333 0.210083 0.347382
415 2 0.190486 0.214359 0.331889
416 4 0.20964 0.218635 0.316395
1212 4 0.23933 0.167584 0.386176
1200 4 0.249719 0.160672 0.370917
1198 2 0.256065 0.184165 0.365174
1199 4 0.262411 0.207658 0.35943
472 2 0.329019 0.228341 0.382509
474 4 0.317644 0.245175 0.367935
803 4 0.297693 0.245924 0.372285
473 4 0.340394 0.211507 0.397083
275 4 0.356497 0.206583 0.386194
274 2 0.38049 0.212215 0.381973
650 4 0.413475 0.220577 0.395451
276 4 0.404482 0.217847 0.377751
649 2 0.42618 0.24191 0.398392
348 4 0.0518302 0.253408 0.385058
677 4 0.125612 0.293101 0.379429
676 2 0.111957 0.312678 0.386874
502 2 0.294543 0.31999 0.347432
802 2 0.295541 0.267773 0.360319
804 4 0.293389 0.289621 0.348353
503 4 0.303147 0.301777 0.362244
376 2 0.401914 0.298901 0.348533
378 4 0.381593 0.31201 0.354887
542 4 0.366952 0.304135 0.365375
541 2 0.354225 0.324922 0.370952
871 2 0.428071 0.296793 0.400827
651 4 0.438885 0.263243 0.401333
872 4 0.432707 0.276091 0.387593
613 2 0.45773 0.301082 0.338456
813 4 0.499243 0.311948 0.349624
615 4 0.48137 0.305159 0.345506
2529 4 0.00192218 0.394217 0.392066
568 2 0.0746167 0.355993 0.402457
570 4 0.0668603 0.371764 0.420242
678 4 0.0983015 0.332256 0.394319
569 4 0.0823731 0.340222 0.384673
504 4 0.285938 0.338204 0.332619
729 4 0.328691 0.357787 0.385532
727 2 0.309231 0.345116 0.394801
561 4 0.293205 0.41733 0.381182
728 4 0.28977 0.332445 0.40407
543 4 0.341499 0.345709 0.376528
3671 4 0.0118355 0.50635 0.35975
3670 2 0.0308967 0.499654 0.345018
1396 2 0.069813 0.445693 0.387297
1398 4 0.0572926 0.4293 0.401429
1750 2 0.1091 0.488759 0.391262
1397 4 0.0823335 0.462085 0.373166
1752 4 0.0921749 0.479359 0.375439
1820 4 0.181168 0.503756 0.352759
1641 4 0.197447 0.500461 0.366034
1639 2 0.207454 0.480322 0.376966
1446 4 0.213457 0.456672 0.407072
1640 4 0.21746 0.460184 0.387897
1444 2 0.204027 0.441519 0.424584
559 2 0.31009 0.433675 0.389721
560 4 0.326975 0.45002 0.39826
1801 2 0.385478 0.496004 0.383327
752 4 0.342943 0.460861 0.399756
1802 4 0.408245 0.488254 0.390167
4383 4 0.477897 0.47273 0.416553
1763 4 0.0592182 0.0138917 0.41153
2637 4 0.0360003 0.0657996 0.444087
2635 2 0.0403172 0.0452906 0.430452
1647 4 0.114828 0.984842 0.461888
2584 2 0.140989 0.00781222 0.48999
431 4 0.255475 0.0758259 0.435122
430 2 0.245124 0.0880124 0.454345
682 2 0.250139 0.0325111 0.425988
683 4 0.24933 0.00754251 0.424942
684 4 0.250948 0.0574797 0.427033
256 2 0.290958 0.0618254 0.470619
257 4 0.269139 0.0628275 0.482788
726 4 0.258618 0.0705734 0.497492
1817 4 0.31116 0.0657087 0.438022
258 4 0.312777 0.0608232 0.458449
1816 2 0.331675 0.0550408 0.428508
480 4 0.399724 0.011654 0.478428
432 4 0.234772 0.100199 0.473567
1211 4 0.212464 0.157214 0.427058
792 4 0.247348 0.109849 0.485388
2914 2 0.0709652 0.215176 0.46764
2916 4 0.0762338 0.191018 0.471358
3266 4 0.0723169 0.192732 0.490517
2915 4 0.0656967 0.239334 0.463923
717 4 0.129496 0.206329 0.43011
715 2 0.131471 0.231222 0.431377
457 2 0.00865536 0.281997 0.426187
458 4 0.0253819 0.30058 0.425891
1152 4 0.0817085 0.248373 0.458497
501 4 0.0376702 0.281243 0.480197
499 2 0.0415563 0.289285 0.503551
1150 2 0.0914751 0.271367 0.459524
716 4 0.133445 0.256116 0.432644
1151 4 0.101242 0.294362 0.460551
1178 4 0.14081 0.267719 0.446751
1177 2 0.148996 0.287944 0.458963
1179 4 0.157182 0.308168 0.471175
696 4 0.16794 0.297105 0.483156
709 2 0.305687 0.315653 0.471383
711 4 0.318947 0.294804 0.475217
375 4 0.311645 0.277162 0.47055
374 4 0.319193 0.252676 0.427606
373 2 0.315419 0.264919 0.449078
873 4 0.423436 0.317494 0.414061
1194 4 0.396851 0.305881 0.474023
1192 2 0.410583 0.311667 0.453945
900 4 0.389583 0.289974 0.483716
1193 4 0.424315 0.317453 0.433867
1221 4 0.0127719 0.350912 0.442938
934 2 0.0638043 0.403248 0.429925
935 4 0.0675914 0.380118 0.438632
3354 4 0.0636935 0.362304 0.486095
1220 4 0.0527499 0.351993 0.472959
1219 2 0.0327609 0.351453 0.457948
3352 2 0.0623684 0.387089 0.489116
240 4 0.229602 0.341854 0.478349
669 4 0.220738 0.337671 0.496813
710 4 0.292427 0.336501 0.46755
239 4 0.279591 0.341647 0.47969
238 2 0.254597 0.341751 0.479019
1454 4 0.448909 0.407625 0.480783
936 4 0.0600173 0.426379 0.421218
4298 4 0.0507503 0.423071 0.505425
2221 2 0.179205 0.425794 0.474308
2435 4 0.219154 0.460477 0.489917
2222 4 0.176188 0.427661 0.449558
1445 4 0.194596 0.426367 0.442095
2434 2 0.215645 0.485027 0.486723
753 4 0.331449 0.47483 0.446376
1455 4 0.415282 0.436751 0.457944
1400 4 0.402722 0.447341 0.470507
751 2 0.337196 0.467845 0.423066
1401 4 0.398045 0.491399 0.447317
1399 2 0.400384 0.46937 0.458912
1472 4 0.443415 0.499107 0.444998
1473 4 0.464764 0.459516 0.423147
1471 2 0.454089 0.479311 0.434073
1453 2 0.432096 0.422188 0.469363
851 4 0.155476 0.00323407 0.571668
850 2 0.134527 0.0123222 0.561485
852 4 0.113578 0.0214104 0.551301
2585 4 0.15641 0.0184941 0.506522
1602 4 0.171768 0.0285829 0.517441
1600 2 0.196318 0.0238433 0.517327
1601 4 0.220868 0.0191037 0.517213
725 4 0.238468 0.0287475 0.516075
724 2 0.248543 0.0496604 0.506783
1218 4 0.358208 0.0459398 0.590492
1216 2 0.37224 0.0260801 0.584671
1026 4 0.437075 0.0673744 0.529
1024 2 0.442161 0.0561417 0.550752
1025 4 0.447247 0.044909 0.572504
3267 4 0.0771224 0.159198 0.527301
856 2 0.234858 0.114293 0.574597
790 2 0.240844 0.110414 0.509524
791 4 0.23434 0.110978 0.53366
857 4 0.241122 0.118333 0.55073
1277 4 0.16733 0.156633 0.58366
3730 2 0.352306 0.139486 0.560486
3732 4 0.361118 0.130151 0.581943
3731 4 0.343494 0.148821 0.53903
3402 4 0.460142 0.125043 0.555464
3400 2 0.43857 0.122086 0.567757
1032 4 0.474693 0.116367 0.566824
1030 2 0.492598 0.122213 0.583269
3265 2 0.0747196 0.175965 0.508909
1284 4 0.160141 0.175325 0.5791
1283 4 0.158455 0.211582 0.544701
1282 2 0.159298 0.193454 0.5619
516 4 0.311454 0.201615 0.532686
1136 4 0.320321 0.25412 0.570972
514 2 0.329332 0.184159 0.531764
515 4 0.34721 0.166703 0.530842
953 4 0.412652 0.246325 0.553043
3264 4 0.0593941 0.312228 0.523606
500 4 0.0454425 0.297328 0.526904
3262 2 0.0805109 0.314886 0.536728
616 2 0.135045 0.307185 0.55599
617 4 0.156118 0.297624 0.546519
695 4 0.169373 0.303052 0.532787
618 4 0.113971 0.316745 0.56546
3263 4 0.101628 0.317544 0.549851
694 2 0.168657 0.300079 0.507971
797 4 0.319765 0.272611 0.563912
796 2 0.334698 0.274685 0.543965
1007 4 0.326367 0.325275 0.578323
899 4 0.360382 0.261848 0.512991
898 2 0.374983 0.275911 0.498353
798 4 0.349631 0.276759 0.524017
952 2 0.394747 0.262597 0.559352
1239 4 0.346301 0.324265 0.572849
1237 2 0.367179 0.310718 0.570446
1238 4 0.388056 0.297171 0.568042
954 4 0.376843 0.27887 0.565661
2508 4 0.431961 0.245875 0.561098
3353 4 0.0610433 0.411874 0.492137
806 4 0.220847 0.353273 0.557158
668 4 0.212974 0.359794 0.540983
667 2 0.216856 0.348732 0.518898
805 2 0.242152 0.353713 0.570238
1006 2 0.303165 0.334414 0.580155
1008 4 0.279964 0.343552 0.581987
807 4 0.263456 0.354153 0.583318
334 2 0.440952 0.411327 0.522239
663 4 0.447229 0.396183 0.561173
335 4 0.438907 0.405124 0.546375
336 4 0.442998 0.417529 0.498104
661 2 0.454296 0.390188 0.584396
926 4 0.410702 0.34008 0.578706
879 4 0.0140741 0.456726 0.584864
983 4 0.0535811 0.49825 0.527503
982 2 0.0325987 0.493754 0.514669
984 4 0.0116163 0.489259 0.501835
4297 2 0.0643051 0.442653 0.513039
4299 4 0.0778598 0.462236 0.520653
408 4 0.0730522 0.462529 0.540833
406 2 0.0870101 0.472645 0.558945
1160 4 0.148497 0.469762 0.546155
407 4 0.100968 0.48276 0.577057
384 4 0.160063 0.455208 0.540287
1159 2 0.155551 0.493706 0.547601
382 2 0.177274 0.442605 0.527243
880 2 0.235042 0.441368 0.528007
383 4 0.194485 0.430002 0.514199
881 4 0.242506 0.431657 0.549806
774 4 0.255346 0.430611 0.566908
882 4 0.227579 0.451078 0.506209
2223 4 0.182221 0.423927 0.499059
772 2 0.275671 0.445167 0.566463
2027 4 0.313607 0.453971 0.560616
773 4 0.295996 0.459722 0.566019
2026 2 0.337973 0.45384 0.555008
928 2 0.397649 0.452235 0.551632
930 4 0.378013 0.449807 0.536345
2028 4 0.362339 0.453709 0.5494
929 4 0.417285 0.454663 0.56692
4337 4 0.108296 0.0262484 0.627943
4336 2 0.108711 0.0080804 0.645117
2133 4 0.150818 0.0709988 0.604178
2131 2 0.140537 0.0702546 0.626958
2132 4 0.130256 0.0695104 0.649738
962 4 0.110045 0.071733 0.654123
4338 4 0.109126 0.989912 0.662291
1524 4 0.237222 0.0482146 0.627516
1522 2 0.251513 0.0642579 0.640305
1058 4 0.261594 0.030119 0.651933
1780 2 0.305011 0.0712464 0.649188
1781 4 0.281609 0.0705399 0.657967
1782 4 0.328412 0.071953 0.64041
1523 4 0.265804 0.0803011 0.653094
2201 4 0.27809 0.0307423 0.663611
1062 4 0.367886 0.0629672 0.593912
1217 4 0.386271 0.00622041 0.578849
1153 2 0.356285 0.0425403 0.648642
43 3 0.394865 0.0284617 0.663362
1154 4 0.375364 0.030908 0.65986
1155 4 0.337205 0.0541726 0.637425
44 3 0.421595 0.0479832 0.682039
1271 4 0.164773 0.0849937 0.608371
1270 2 0.187965 0.0940366 0.606021
977 4 0.217172 0.124198 0.645234
1278 4 0.171355 0.135946 0.629009
1276 2 0.169343 0.14629 0.606335
1272 4 0.211157 0.103079 0.603671
858 4 0.228595 0.110253 0.598464
840 4 0.213064 0.1596 0.643446
976 2 0.198504 0.113905 0.658302
888 4 0.253092 0.112797 0.615937
887 4 0.280865 0.127446 0.654857
886 2 0.266978 0.120121 0.635397
1061 4 0.360841 0.112284 0.589566
1060 2 0.364363 0.0876258 0.591739
48 3 0.394911 0.139597 0.658165
47 3 0.365442 0.117835 0.666569
1142 4 0.408238 0.145049 0.644909
1141 2 0.410135 0.136188 0.621605
49 3 0.360854 0.155098 0.664818
3401 4 0.416999 0.11913 0.58005
1143 4 0.412032 0.127328 0.598301
1086 4 0.426442 0.153692 0.647358
4466 4 0.508874 0.114964 0.652614
3077 4 0.0641892 0.235191 0.631719
3076 2 0.0513726 0.23087 0.652749
3045 4 0.149326 0.206785 0.604716
3043 2 0.15171 0.228165 0.61746
3044 4 0.154093 0.249544 0.630204
839 4 0.240822 0.201131 0.645765
838 2 0.226943 0.180365 0.644605
1129 2 0.253841 0.229443 0.665218
1130 4 0.248508 0.20503 0.664354
1084 2 0.447417 0.166078 0.652998
640 2 0.501533 0.19967 0.658839
641 4 0.487636 0.179574 0.653525
1085 4 0.468392 0.178463 0.658638
1166 4 0.228259 0.272968 0.612385
1165 2 0.252449 0.275552 0.606612
1135 2 0.302882 0.257671 0.588534
1137 4 0.285442 0.261222 0.606096
1167 4 0.27664 0.278137 0.60084
1028 4 0.410221 0.302092 0.645482
3114 4 0.394597 0.31339 0.650644
2507 4 0.460536 0.24335 0.60206
2506 2 0.446248 0.244613 0.581579
1027 2 0.430637 0.291727 0.635435
1029 4 0.451053 0.281362 0.625388
3381 4 0.469655 0.284134 0.622833
3379 2 0.486296 0.302377 0.626762
927 4 0.456719 0.320548 0.577405
801 4 0.330137 0.395296 0.652988
799 2 0.343997 0.378959 0.640096
800 4 0.357858 0.362623 0.627205
1009 2 0.391568 0.355721 0.608567
1011 4 0.377371 0.353934 0.629072
1010 4 0.405766 0.357508 0.588063
925 2 0.43371 0.330314 0.578055
662 4 0.461362 0.384194 0.607619
3123 4 0.478756 0.390174 0.615953
877 2 0.0389807 0.458892 0.584474
878 4 0.0638873 0.461057 0.584084
1189 2 0.0779073 0.470262 0.653322
1191 4 0.0757022 0.44601 0.65899
1122 4 0.10602 0.400788 0.592931
1172 4 0.0877479 0.489424 0.630489
1190 4 0.0801125 0.494515 0.647653
1121 4 0.14429 0.426675 0.573801
1120 2 0.125155 0.413732 0.583366
2016 4 0.198627 0.493964 0.627588
1187 4 0.209012 0.502456 0.642273
1230 4 0.328449 0.4376 0.644843
2153 4 0.274024 0.453781 0.656261
2152 2 0.271374 0.464339 0.633751
2154 4 0.268724 0.474897 0.611242
2174 4 0.286732 0.483451 0.613662
1176 4 0.279557 0.444685 0.673383
2173 2 0.296748 0.50019 0.59802
1228 2 0.342674 0.44406 0.664364
2141 4 0.415626 0.460581 0.585584
2140 2 0.415184 0.483064 0.596516
4193 4 0.11998 0.0323622 0.718046
2255 4 0.120598 0.0508712 0.724576
2254 2 0.132036 0.0451473 0.74606
961 2 0.116401 0.0844445 0.674695
4192 2 0.117277 0.0176263 0.698028
4194 4 0.114575 0.00289032 0.67801
2200 2 0.278656 0.0240686 0.687701
2202 4 0.279223 0.0173948 0.71179
2232 4 0.26075 0.01765 0.718452
41 1 0.414025 0.0268014 0.676344
841 2 0.333414 0.0759263 0.725955
843 4 0.334196 0.0512555 0.729945
2398 2 0.332829 0.018393 0.700408
2399 4 0.338766 0.0333827 0.719519
1092 4 0.396434 0.999651 0.702092
42 3 0.408982 0.0152793 0.695605
963 4 0.122758 0.097156 0.695266
2048 4 0.115765 0.105835 0.710795
2047 2 0.120805 0.12222 0.728997
2049 4 0.125845 0.138605 0.747199
1256 4 0.114051 0.155264 0.7469
1080 4 0.189353 0.102481 0.689982
978 4 0.179837 0.103612 0.67137
1078 2 0.191342 0.102489 0.714906
1079 4 0.19333 0.102496 0.739831
1226 4 0.174757 0.104329 0.746667
1263 4 0.291727 0.134814 0.670424
1261 2 0.313627 0.146207 0.674399
965 4 0.318501 0.115064 0.720244
964 2 0.298024 0.117359 0.734406
842 4 0.332632 0.100597 0.721966
46 1 0.375486 0.138099 0.670767
50 3 0.380477 0.139547 0.69294
3078 4 0.0385559 0.226549 0.673778
3033 4 0.0256664 0.215555 0.681355
3031 2 0.00399102 0.212399 0.693413
1262 4 0.335526 0.1576 0.678374
1131 4 0.259175 0.253855 0.666082
830 4 0.32687 0.175196 0.680291
831 4 0.370217 0.192731 0.698018
829 2 0.348543 0.183964 0.689155
3387 4 0.000357032 0.266955 0.696209
820 2 0.0393726 0.273255 0.689595
822 4 0.0598331 0.286303 0.683573
821 4 0.018912 0.260206 0.695618
1068 4 0.0644334 0.301447 0.696163
1066 2 0.0827944 0.315661 0.705437
1067 4 0.101155 0.329875 0.714711
816 4 0.119128 0.32581 0.709468
1258 2 0.203058 0.319058 0.680498
1259 4 0.22628 0.310174 0.68314
10 3 0.225821 0.2914 0.68448
7 3 0.247452 0.28191 0.713375
6 1 0.247017 0.285884 0.690722
9 3 0.2538 0.26668 0.679605
1395 4 0.245444 0.316052 0.68367
8 3 0.261494 0.303363 0.685894
3113 4 0.36573 0.293755 0.686447
3112 2 0.380164 0.303572 0.668545
1208 4 0.0224703 0.382487 0.713141
1207 2 0.0151766 0.37371 0.735389
1280 4 0.0259937 0.400876 0.706002
947 4 0.0751425 0.355187 0.741911
1279 2 0.0430869 0.418567 0.710476
814 2 0.139557 0.328306 0.695269
815 4 0.159986 0.330802 0.68107
948 4 0.0860054 0.403962 0.73998
946 2 0.0805739 0.379574 0.740945
1260 4 0.179835 0.327942 0.677856
1393 2 0.254149 0.33858 0.69014
890 4 0.290042 0.41088 0.682426
1394 4 0.262854 0.361109 0.696611
891 4 0.282968 0.362819 0.69429
889 2 0.286505 0.38685 0.688358
3431 4 0.0186258 0.443685 0.677154
3430 2 0.0207779 0.466613 0.686892
1281 4 0.06018 0.436259 0.714949
3432 4 0.0229301 0.489542 0.696631
897 4 0.0971561 0.419891 0.734163
895 2 0.0905201 0.436366 0.751762
1175 4 0.246364 0.437115 0.710011
1174 2 0.26296 0.4409 0.691697
1978 2 0.282786 0.496176 0.675329
1905 4 0.254106 0.439901 0.728042
1903 2 0.268093 0.446615 0.74765
2168 4 0.319161 0.498712 0.69993
1979 4 0.301225 0.498407 0.692068
1229 4 0.3569 0.450519 0.683886
2256 4 0.143474 0.0394234 0.767545
945 4 0.1395 0.0221871 0.776549
943 2 0.161911 0.0196848 0.78735
909 4 0.189309 0.00359684 0.784592
944 4 0.184322 0.0171825 0.798151
868 2 0.180042 0.0827979 0.830539
960 4 0.274581 0.070415 0.809301
1050 4 0.26313 0.0880794 0.808222
958 2 0.266141 0.0660426 0.832428
2051 4 0.333852 0.0903003 0.81024
2050 2 0.357289 0.0856497 0.817605