ITEM: TIMESTEP
1700000
ITEM: NUMBER OF ATOMS
4590
ITEM: BOX BOUNDS pp pp pp
-9.9985700000000008e+00 9.9985700000000008e+00
-9.9985700000000008e+00 9.9985700000000008e+00
-9.9985700000000008e+00 9.9985700000000008e+00
ITEM: ATOMS id type xs ys zs
577 2 0.0669265 0.0671773 0.0809477
532 2 0.0504397 0.0369499 0.0281056
534 4 0.0430427 0.0458114 0.0502853
578 4 0.0511895 0.0548256 0.065949
533 4 0.0578366 0.0280885 0.00592594
464 4 0.197701 0.0578013 0.0352988
1328 4 0.233236 0.0126187 0.0245715
2264 4 0.216178 0.0206367 0.0324402
2263 2 0.198822 0.0125611 0.0163559
1327 2 0.250054 0.0303611 0.0298214
1329 4 0.266871 0.0481034 0.0350714
689 4 0.293968 0.0694498 0.0162633
1607 4 0.387897 0.0445781 0.0502593
1110 4 0.375789 0.03431 0.0618153
1606 2 0.40737 0.0370917 0.0364776
1608 4 0.426843 0.0296053 0.0226959
463 2 0.204329 0.0780769 0.022255
995 4 0.193491 0.130502 0.0784728
465 4 0.210957 0.0983526 0.00921118
581 4 0.287032 0.111114 0.0305592
359 4 0.282748 0.123338 0.0443978
580 2 0.297295 0.108123 0.00795609
358 2 0.281985 0.134073 0.066967
55 3 0.269029 0.160191 0.0865242
769 2 0.372704 0.139467 0.00992195
771 4 0.378075 0.156821 0.0271032
2454 4 0.48293 0.149757 0.997484
2771 4 0.048088 0.238659 0.0164436
1072 2 0.0892336 0.199418 0.0287531
1074 4 0.0923833 0.201696 0.0534527
1073 4 0.0860839 0.19714 0.00405356
17 3 0.0934225 0.220661 0.0622389
700 2 0.155547 0.218134 0.00299593
701 4 0.146561 0.239135 0.0131633
287 4 0.134283 0.249739 0.0252081
867 4 0.23902 0.194309 0.0869409
1252 2 0.258349 0.221615 0.0215573
1253 4 0.258013 0.245529 0.0288503
15 3 0.318716 0.215679 0.0666563
566 4 0.377374 0.176028 0.0325684
11 1 0.333402 0.232547 0.0709519
565 2 0.372306 0.199151 0.0406193
12 3 0.354471 0.226121 0.0643203
567 4 0.367238 0.222274 0.0486702
2770 2 0.0641191 0.257128 0.0216489
2772 4 0.0801502 0.275596 0.0268541
286 2 0.132768 0.267758 0.0424764
288 4 0.131253 0.285777 0.0597446
293 4 0.119632 0.301493 0.06791
292 2 0.132201 0.322374 0.0623248
956 4 0.230237 0.334231 0.066534
955 2 0.248301 0.318472 0.0736427
624 4 0.26974 0.254599 0.0158328
14 3 0.327294 0.251562 0.0591409
740 4 0.240799 0.303922 0.00361719
622 2 0.292941 0.259597 0.00796575
627 4 0.325867 0.323624 0.0591059
789 4 0.258815 0.312967 0.0101227
957 4 0.266365 0.302713 0.0807514
787 2 0.280262 0.31716 0.997971
517 2 0.396248 0.260584 0.0505886
518 4 0.382658 0.263601 0.0298192
665 4 0.369363 0.276878 0.0231591
664 2 0.345405 0.27883 0.0162756
519 4 0.409839 0.257567 0.071358
528 4 0.429193 0.251749 0.0733066
526 2 0.454108 0.250813 0.0751835
535 2 0.0718274 0.401606 0.0750787
551 4 0.038037 0.377589 0.0152641
550 2 0.015364 0.369579 0.00841157
294 4 0.14477 0.343255 0.0567396
506 4 0.163153 0.34601 0.0525381
507 4 0.212362 0.340366 0.0594122
505 2 0.187758 0.343188 0.0559752
625 2 0.334026 0.336008 0.0792366
242 4 0.31738 0.338935 0.0488177
241 2 0.313651 0.358825 0.0341325
243 4 0.309922 0.378715 0.0194473
2388 4 0.366565 0.393342 0.0302833
2386 2 0.378869 0.401717 0.010193
1071 4 0.459266 0.399746 0.023919
1069 2 0.454679 0.376681 0.0324145
1674 4 0.475202 0.407059 0.0356263
1070 4 0.450091 0.353617 0.0409099
2786 4 0.997668 0.439825 0.0764376
536 4 0.0903677 0.417807 0.0707241
1223 4 0.131196 0.434928 0.0796199
1222 2 0.14308 0.438977 0.0579972
1290 4 0.151263 0.457146 0.0226978
252 4 0.0921723 0.435252 0.078238
1224 4 0.154964 0.443026 0.0363745
1288 2 0.168689 0.468417 0.00875195
1672 2 0.48362 0.422261 0.0176478
524 4 0.482174 0.465824 0.0454603
523 2 0.472764 0.452347 0.0643015
525 4 0.463353 0.438869 0.0831427
1673 4 0.492037 0.437463 0.999669
481 2 0.493152 0.48106 0.995753
579 4 0.0826635 0.079529 0.0959464
2162 4 0.286944 0.999687 0.107856
2163 4 0.316571 0.0379164 0.120562
2161 2 0.301758 0.0188015 0.114209
653 4 0.311822 0.0531642 0.131617
652 2 0.331322 0.0574467 0.14667
1108 2 0.376849 0.0467587 0.0834736
1109 4 0.377909 0.0592074 0.105132
2724 4 0.364638 0.0583142 0.148404
2722 2 0.388922 0.0529152 0.150914
654 4 0.350823 0.0617292 0.161722
629 4 0.37291 0.0759016 0.0961392
2723 4 0.413206 0.0475162 0.153423
297 4 0.470909 0.0151603 0.12174
758 4 0.462317 0.0285964 0.13478
757 2 0.444872 0.0371964 0.150493
759 4 0.427428 0.0457964 0.166206
591 4 0.078646 0.0991448 0.100196
589 2 0.0984919 0.105272 0.114116
590 4 0.118338 0.111399 0.128036
994 2 0.205443 0.14778 0.0920303
996 4 0.217395 0.165057 0.105588
461 4 0.238071 0.0964546 0.141877
236 4 0.243578 0.113465 0.133923
235 2 0.260064 0.119579 0.116147
237 4 0.276551 0.125693 0.0983711
360 4 0.281222 0.144807 0.0895362
460 2 0.252668 0.0804053 0.154307
628 2 0.385668 0.0931356 0.109
630 4 0.398426 0.11037 0.121861
557 4 0.414338 0.119632 0.127904
558 4 0.455853 0.147395 0.13044
556 2 0.435095 0.133514 0.129172
449 4 0.0327272 0.215191 0.144799
448 2 0.0435565 0.217307 0.122362
450 4 0.0543858 0.219423 0.0999247
18 3 0.0728483 0.22002 0.0936864
19 3 0.0970761 0.191766 0.0859958
16 1 0.0934346 0.214629 0.0844372
20 3 0.110006 0.225892 0.0952619
2760 4 0.110295 0.216766 0.113101
2758 2 0.130059 0.205992 0.123985
2759 4 0.149823 0.195218 0.13487
421 2 0.24172 0.172184 0.143084
381 4 0.16414 0.20417 0.146533
866 4 0.208961 0.230517 0.103856
865 2 0.223991 0.212413 0.0953984
379 2 0.181011 0.222599 0.14558
380 4 0.197882 0.241028 0.144628
52 3 0.293069 0.188584 0.0894944
53 3 0.26689 0.183537 0.115987
54 3 0.25705 0.195499 0.0812811
51 1 0.271419 0.181803 0.0932957
423 4 0.251582 0.171499 0.120117
13 3 0.333768 0.237125 0.0936963
387 4 0.345006 0.248507 0.105527
2936 4 0.476584 0.224221 0.176686
361 2 0.0380427 0.296758 0.107351
363 4 0.0467765 0.280167 0.123892
366 4 0.0622737 0.286151 0.134896
364 2 0.0589013 0.276819 0.157846
362 4 0.0293089 0.31335 0.0908095
509 4 0.17023 0.318445 0.135601
750 4 0.181768 0.303857 0.126859
749 4 0.200607 0.26081 0.143969
748 2 0.191187 0.282333 0.135414
357 4 0.270821 0.309914 0.0992446
355 2 0.2852 0.300473 0.11739
356 4 0.29958 0.291032 0.135536
353 4 0.316331 0.301352 0.141679
385 2 0.362754 0.265661 0.109518
386 4 0.380502 0.282815 0.113509
495 4 0.375854 0.294427 0.12906
493 2 0.385083 0.317163 0.124262
494 4 0.394313 0.3399 0.119463
596 4 0.414087 0.334691 0.122155
527 4 0.479024 0.249877 0.0770604
595 2 0.437471 0.327625 0.116821
597 4 0.460854 0.320559 0.111486
656 4 0.028706 0.327564 0.0759883
537 4 0.0532871 0.385405 0.0794333
657 4 0.0525368 0.369227 0.0900248
655 2 0.0406214 0.348395 0.0830066
619 2 0.026898 0.399223 0.151293
620 4 0.0328333 0.405309 0.127779
755 4 0.142476 0.3831 0.0868299
754 2 0.155437 0.36444 0.0972689
756 4 0.168399 0.345779 0.107708
508 2 0.172313 0.335516 0.153751
445 2 0.320932 0.384026 0.108808
447 4 0.312314 0.40649 0.11561
446 4 0.32955 0.361561 0.102006
588 4 0.330512 0.409244 0.122037
626 4 0.342186 0.348392 0.0993673
2652 4 0.475115 0.334728 0.107842
2650 2 0.49211 0.342227 0.124579
2651 4 0.509104 0.349726 0.141316
394 2 0.0285155 0.433828 0.104056
396 4 0.0402815 0.423299 0.123444
395 4 0.0167496 0.444357 0.0846686
251 4 0.0968239 0.468004 0.11574
250 2 0.0944981 0.451628 0.0969889
291 4 0.108913 0.470691 0.132133
289 2 0.11056 0.456189 0.152435
344 4 0.143765 0.491039 0.148011
343 2 0.163424 0.478351 0.156827
273 4 0.316192 0.48084 0.107115
586 2 0.342788 0.424275 0.137803
271 2 0.340514 0.485255 0.103355
587 4 0.355063 0.439307 0.153568
272 4 0.364836 0.489669 0.0995949
660 4 0.44501 0.455982 0.143442
658 2 0.452021 0.443796 0.122765
659 4 0.459031 0.43161 0.102088
1575 4 0.444145 0.44532 0.160539
1403 4 0.165587 0.0191261 0.178721
730 2 0.163995 0.0537157 0.196548
731 4 0.151624 0.0737554 0.204947
732 4 0.176366 0.0336759 0.188149
462 4 0.267265 0.064356 0.166738
572 4 0.31616 0.076091 0.213637
22 3 0.33044 0.0690084 0.203216
573 4 0.275236 0.0663699 0.186592
571 2 0.295698 0.0712304 0.200115
25 3 0.359054 0.0642346 0.179736
742 2 0.409217 0.034775 0.227227
744 4 0.399566 0.0506874 0.210529
21 1 0.348691 0.0791095 0.193519
24 3 0.363275 0.0858957 0.210242
311 4 0.400129 0.0705322 0.210377
310 2 0.411634 0.0870824 0.195581
693 4 0.0828876 0.162971 0.188767
546 4 0.129298 0.152246 0.231325
389 4 0.118255 0.164046 0.243897
476 4 0.221065 0.181357 0.180267
23 3 0.341494 0.0975022 0.18134
312 4 0.423138 0.103633 0.180785
332 4 0.486973 0.119337 0.188508
331 2 0.462481 0.118869 0.183499
333 4 0.437989 0.118401 0.178489
2616 4 0.00314669 0.227972 0.177009
2614 2 0.0125737 0.206144 0.184747
2615 4 0.0220006 0.184317 0.192485
705 4 0.0368633 0.170896 0.193741
703 2 0.0492346 0.165745 0.21485
704 4 0.0616059 0.160594 0.235959
691 2 0.106568 0.162848 0.180741
692 4 0.130248 0.162725 0.172716
388 2 0.124585 0.188145 0.245971
390 4 0.130915 0.212245 0.248046
422 4 0.231858 0.172868 0.16605
477 4 0.18674 0.157206 0.207457
475 2 0.203903 0.169282 0.193862
28 3 0.381315 0.187575 0.246429
29 3 0.349038 0.207584 0.247949
248 4 0.349676 0.22627 0.238944
2935 2 0.490376 0.203432 0.17502
2517 4 0.469313 0.23758 0.190084
2514 4 0.00553087 0.324372 0.190818
602 4 0.00965683 0.312307 0.206961
365 4 0.0555289 0.267487 0.180796
601 2 0.0251448 0.294439 0.198834
603 4 0.0406328 0.276572 0.190708
352 2 0.314062 0.301873 0.166574
277 2 0.261433 0.258082 0.245336
279 4 0.26982 0.235668 0.238096
737 4 0.32612 0.290002 0.200212
354 4 0.311793 0.302394 0.191469
736 2 0.345402 0.274855 0.205106
738 4 0.364684 0.259708 0.21
611 4 0.36493 0.319099 0.181581
2836 2 0.451141 0.313086 0.175125
2516 4 0.436719 0.274762 0.182611
2838 4 0.448791 0.288193 0.174999
2515 2 0.453016 0.256171 0.186347
2837 4 0.453492 0.337978 0.17525
621 4 0.0209628 0.393137 0.174807
339 4 0.0252751 0.380212 0.189531
337 2 0.0473238 0.373379 0.199141
338 4 0.0693726 0.366547 0.208751
648 4 0.0848688 0.354952 0.207293
646 2 0.0972045 0.374301 0.217224
647 4 0.10954 0.39365 0.227155
2954 4 0.11489 0.41181 0.226634
510 4 0.174395 0.352587 0.171901
309 4 0.178779 0.36008 0.190125
308 4 0.187536 0.395462 0.224362
307 2 0.183158 0.377771 0.207244
768 4 0.202193 0.406062 0.235431
610 2 0.355772 0.340517 0.190668
612 4 0.346614 0.361936 0.199755
263 4 0.0805498 0.50846 0.236409
2953 2 0.127775 0.432837 0.230757
290 4 0.112207 0.441688 0.172736
2955 4 0.14066 0.453864 0.234881
345 4 0.183082 0.465663 0.165644
285 4 0.270948 0.479189 0.23294
284 4 0.264051 0.447732 0.194683
283 2 0.2675 0.46346 0.213811
1705 2 0.298848 0.496006 0.246562
435 4 0.351658 0.438288 0.173249
434 4 0.349125 0.443304 0.22294
433 2 0.350392 0.440796 0.198094
1436 4 0.352088 0.438256 0.241264
1435 2 0.336952 0.456807 0.248472
1573 2 0.458098 0.457974 0.176982
1574 4 0.472051 0.470629 0.193424
1584 4 0.484165 0.459962 0.205052
1582 2 0.479901 0.453216 0.228748
1583 4 0.475638 0.446471 0.252444
606 4 0.238587 0.00309353 0.318335
1701 4 0.266708 0.0769196 0.292641
1699 2 0.266918 0.0575735 0.30848
466 2 0.332596 0.0755719 0.327207
1700 4 0.267128 0.0382273 0.324318
1518 4 0.278271 0.022012 0.32286
1516 2 0.297396 0.0133805 0.336458
467 4 0.33914 0.061298 0.307749
632 4 0.342706 0.0641142 0.287646
631 2 0.353172 0.0845027 0.277648
743 4 0.418869 0.0188626 0.243925
2745 4 0.430995 0.0198281 0.259306
2743 2 0.438362 0.999009 0.27103
316 2 0.0158761 0.0981589 0.318761
318 4 0.0333442 0.112112 0.307564
529 2 0.0371517 0.149299 0.315647
530 4 0.0452722 0.127638 0.306159
544 2 0.144479 0.136911 0.243956
545 4 0.15966 0.121575 0.256587
939 4 0.165973 0.123845 0.274743
937 2 0.168747 0.136068 0.296378
938 4 0.171521 0.148291 0.318013
765 4 0.272763 0.0952327 0.293239
763 2 0.279056 0.116968 0.303876
764 4 0.285349 0.138704 0.314513
633 4 0.363637 0.104891 0.26765
708 4 0.371192 0.1238 0.27007
706 2 0.396084 0.123801 0.272432
305 4 0.494937 0.116725 0.300139
707 4 0.420975 0.123803 0.274794
489 4 0.430186 0.117087 0.292302
487 2 0.454046 0.111631 0.29741
488 4 0.477907 0.106174 0.302518
428 4 0.0622155 0.172813 0.252778
2849 4 0.011119 0.173403 0.333246
513 4 0.00389139 0.193659 0.27804
427 2 0.0434539 0.181704 0.266711
429 4 0.0246923 0.190595 0.280644
531 4 0.0290312 0.170961 0.325135
300 4 0.129441 0.218609 0.267121
298 2 0.127106 0.220778 0.29192
299 4 0.124771 0.222947 0.31672
599 4 0.235683 0.224628 0.33988
497 4 0.25807 0.184861 0.287436
474 4 0.240198 0.206263 0.33256
498 4 0.281468 0.20009 0.245947
496 2 0.269769 0.192475 0.266692
274 2 0.314208 0.22752 0.310614
275 4 0.304193 0.210609 0.32607
276 4 0.324224 0.244431 0.295159
472 2 0.264915 0.2025 0.332761
473 4 0.289633 0.198737 0.332961
27 3 0.348064 0.170054 0.246167
30 3 0.359888 0.186756 0.277379
26 1 0.359619 0.188048 0.254643
247 2 0.337386 0.238245 0.257129
400 2 0.25036 0.298971 0.290803
401 4 0.245492 0.314115 0.310094
402 4 0.255229 0.283827 0.271512
278 4 0.253046 0.280497 0.252577
249 4 0.325095 0.25022 0.275315
615 4 0.390393 0.313515 0.319553
614 4 0.345414 0.334391 0.326023
613 2 0.367904 0.323953 0.322788
267 4 0.396846 0.304305 0.335944
416 4 0.0450704 0.335947 0.262923
415 2 0.0344388 0.346863 0.282747
417 4 0.0238072 0.357778 0.302571
548 4 0.0346241 0.36771 0.318017
680 4 0.0778987 0.37495 0.309421
503 4 0.159425 0.356904 0.317155
502 2 0.174728 0.373853 0.306971
679 2 0.0963455 0.361137 0.319121
681 4 0.114792 0.347324 0.328822
504 4 0.19003 0.390803 0.296787
767 4 0.181808 0.393455 0.279319
766 2 0.192 0.399759 0.257375
542 4 0.305844 0.393937 0.321236
541 2 0.282207 0.401678 0.323791
376 2 0.325466 0.358371 0.309643
378 4 0.309137 0.377141 0.312134
543 4 0.258569 0.409418 0.326345
377 4 0.341796 0.339601 0.307153
303 4 0.18337 0.471524 0.27852
301 2 0.182092 0.485599 0.257893
1707 4 0.318426 0.494568 0.262048
1437 4 0.321816 0.475358 0.25568
713 4 0.431719 0.489878 0.319164
592 2 0.468774 0.470522 0.326248
593 4 0.450564 0.487648 0.325729
594 4 0.486984 0.453395 0.326766
1647 4 0.128687 0.993848 0.384635
1645 2 0.149285 0.00755048 0.388261
1646 4 0.169883 0.0212527 0.391887
604 2 0.229893 0.0137261 0.339229
342 4 0.184525 0.0322929 0.40013
340 2 0.201007 0.038066 0.382236
605 4 0.2212 0.0243586 0.360123
341 4 0.217488 0.043839 0.364341
1517 4 0.316521 0.00474898 0.350056
468 4 0.326052 0.0898458 0.346665
1816 2 0.377633 0.993766 0.378397
478 2 0.409573 0.0469007 0.389971
479 4 0.401177 0.0676064 0.401195
1818 4 0.39972 0.00121265 0.387445
480 4 0.417969 0.0261951 0.378748
257 4 0.418271 0.0782476 0.404026
369 4 0.145256 0.131563 0.394704
367 2 0.121002 0.13337 0.400505
1182 4 0.162506 0.121702 0.397344
368 4 0.0967478 0.135178 0.406307
261 4 0.166505 0.161054 0.331847
1180 2 0.181739 0.111809 0.384798
319 2 0.230191 0.0992558 0.35591
321 4 0.209287 0.0864986 0.360954
1181 4 0.200971 0.101916 0.372251
405 4 0.30912 0.0783948 0.354865
403 2 0.287555 0.0905151 0.358502
320 4 0.251095 0.112013 0.350865
404 4 0.26599 0.102635 0.362138
256 2 0.417722 0.101741 0.412566
425 4 0.388574 0.154843 0.390296
2658 4 0.370535 0.157333 0.399559
258 4 0.417173 0.125235 0.421105
371 4 0.155347 0.217936 0.384133
370 2 0.161964 0.237519 0.370066
260 4 0.174341 0.19826 0.364328
598 2 0.214551 0.214578 0.34869
259 2 0.170423 0.179657 0.348088
600 4 0.193419 0.204527 0.357499
424 2 0.396862 0.175209 0.378391
426 4 0.40515 0.195575 0.366486
418 2 0.409382 0.229395 0.356844
420 4 0.399507 0.212429 0.372331
419 4 0.419256 0.246361 0.341357
372 4 0.168581 0.257102 0.355999
678 4 0.174959 0.270628 0.369644
676 2 0.189176 0.280341 0.387774
677 4 0.203392 0.290055 0.405905
668 4 0.203689 0.308764 0.39763
265 2 0.411211 0.284584 0.341413
583 2 0.49738 0.299558 0.411957
266 4 0.425577 0.264863 0.346883
812 4 0.467091 0.287558 0.433324
547 2 0.0398511 0.370819 0.34227
549 4 0.0450781 0.373927 0.366522
569 4 0.168529 0.347227 0.36427
568 2 0.150213 0.342134 0.348029
570 4 0.131898 0.33704 0.331788
728 4 0.200989 0.401671 0.346242
727 2 0.225898 0.403683 0.345421
667 2 0.207023 0.327801 0.413493
729 4 0.250807 0.405694 0.3446
1401 4 0.392339 0.38968 0.381192
1399 2 0.380921 0.378559 0.400456
1400 4 0.369502 0.367439 0.419721
561 4 0.394682 0.406885 0.389675
118 3 0.489984 0.4019 0.339024
1398 4 0.0731918 0.492609 0.435033
776 4 0.0747287 0.500355 0.344661
775 2 0.0691298 0.480566 0.358882
777 4 0.0635308 0.460778 0.373104
936 4 0.0769004 0.446965 0.37854
934 2 0.0839714 0.434201 0.398844
935 4 0.0910424 0.421438 0.419149
1641 4 0.198832 0.481188 0.403479
1639 2 0.220425 0.474337 0.392896
1640 4 0.242017 0.467486 0.382314
1446 4 0.282331 0.465407 0.405537
1820 4 0.267293 0.492112 0.369419
559 2 0.41271 0.421263 0.38001
560 4 0.430739 0.43564 0.370344
1472 4 0.450941 0.495352 0.382655
1473 4 0.441407 0.446263 0.38253
119 3 0.476876 0.436981 0.332553
116 1 0.49294 0.424445 0.343651
1471 2 0.446174 0.470807 0.382592
792 4 0.238406 0.0679052 0.480891
790 2 0.221389 0.0831209 0.491093
432 4 0.247356 0.0690224 0.463961
726 4 0.269105 0.00917028 0.437148
430 2 0.256919 0.0470527 0.456814
431 4 0.266481 0.025083 0.449668
3731 4 0.462109 0.0406019 0.476423
735 4 0.0897668 0.148919 0.419114
1200 4 0.108372 0.137469 0.490219
1198 2 0.113337 0.161898 0.492161
1271 4 0.0963694 0.128904 0.505489
2656 2 0.369406 0.156482 0.424522
516 4 0.357363 0.154121 0.466036
2657 4 0.368277 0.155631 0.449486
514 2 0.369707 0.15632 0.487669
346 2 0.0601931 0.218541 0.443996
347 4 0.0847546 0.213866 0.444218
348 4 0.0356316 0.223217 0.443775
1152 4 0.0662171 0.242235 0.48381
2915 4 0.0202711 0.25276 0.487027
2914 2 0.0163071 0.236906 0.505951
733 2 0.0865999 0.172922 0.425363
734 4 0.083433 0.196924 0.431612
616 2 0.134602 0.210702 0.471826
618 4 0.135935 0.18935 0.484767
1199 4 0.118302 0.186326 0.494103
617 4 0.133269 0.232055 0.458884
717 4 0.150347 0.242566 0.456054
641 4 0.471197 0.212262 0.478372
640 2 0.493642 0.204217 0.470845
1031 4 0.467791 0.198704 0.491614
1030 2 0.449074 0.182534 0.495271
1150 2 0.0855262 0.254398 0.494029
715 2 0.171636 0.25205 0.46511
803 4 0.207291 0.274952 0.475566
716 4 0.192925 0.261533 0.474166
802 2 0.225051 0.273725 0.493123
709 2 0.290286 0.322704 0.463506
711 4 0.310471 0.308327 0.460182
375 4 0.314036 0.294313 0.473098
873 4 0.368118 0.315098 0.451026
374 4 0.360795 0.295886 0.455438
373 2 0.337416 0.295099 0.464268
871 2 0.388294 0.300967 0.446735
872 4 0.40847 0.286835 0.442444
585 4 0.47385 0.300645 0.420344
811 2 0.444893 0.285993 0.444726
813 4 0.422696 0.284427 0.456127
1220 4 0.0313241 0.335071 0.491006
2801 4 0.0121525 0.343793 0.450346
1219 2 0.0439185 0.35153 0.477018
1221 4 0.0565129 0.36799 0.463031
501 4 0.06068 0.374039 0.443697
499 2 0.0684202 0.391969 0.428083
500 4 0.0761603 0.409899 0.412469
238 2 0.246412 0.357505 0.448762
669 4 0.210358 0.346839 0.429356
240 4 0.227245 0.357496 0.432707
710 4 0.270101 0.337081 0.46683
239 4 0.26558 0.357513 0.464818
1454 4 0.357924 0.368512 0.471984
1455 4 0.352052 0.359882 0.423078
336 4 0.340976 0.37295 0.483212
1453 2 0.354988 0.364197 0.447531
3671 4 0.993177 0.490267 0.443372
384 4 0.159362 0.467151 0.465356
1160 4 0.162159 0.469295 0.48465
382 2 0.180193 0.457895 0.455081
383 4 0.201024 0.448638 0.444806
2222 4 0.272092 0.489758 0.461201
1586 4 0.337813 0.474304 0.473802
880 2 0.311567 0.4579 0.482512
1445 4 0.273854 0.498073 0.44244
882 4 0.320908 0.471159 0.463483
1444 2 0.278093 0.48174 0.423989
1587 4 0.368424 0.49563 0.440503
1585 2 0.353118 0.484967 0.457153
852 4 0.0779502 0.00309799 0.563564
1082 4 0.0625018 0.995053 0.572923
850 2 0.101724 0.0107258 0.562224
851 4 0.125498 0.0183536 0.560883
1058 4 0.133642 0.0341794 0.573075
1057 2 0.154905 0.0314658 0.585947
1522 2 0.241294 0.0134825 0.555642
1524 4 0.226204 0.996413 0.545341
1782 4 0.320992 0.0124134 0.57623
1155 4 0.328673 0.0162237 0.557129
1780 2 0.297675 0.0213707 0.575105
1523 4 0.256384 0.0305516 0.565943
1781 4 0.274358 0.030328 0.57398
1153 2 0.353592 0.0155499 0.559073
1154 4 0.378511 0.0148761 0.561016
1062 4 0.392775 0.0243441 0.550362
1060 2 0.41262 0.0279724 0.53559
1061 4 0.432464 0.0316006 0.520817
841 2 0.357066 0.0724776 0.568966
1216 2 0.446378 0.0487702 0.575975
3732 4 0.433102 0.0510976 0.515782
1218 4 0.457186 0.065614 0.560987
3730 2 0.447605 0.0458498 0.496103
3419 4 0.992725 0.150125 0.538119
3267 4 0.0125171 0.152439 0.538279
1270 2 0.111884 0.114683 0.518988
1272 4 0.127399 0.100462 0.532488
858 4 0.142395 0.0869912 0.528444
856 2 0.166266 0.0910936 0.522236
1211 4 0.193419 0.159962 0.571349
791 4 0.204372 0.0983366 0.501296
857 4 0.190136 0.0951959 0.516027
842 4 0.36204 0.0782213 0.545145
906 4 0.456502 0.0806853 0.548561
904 2 0.474092 0.096204 0.539905
905 4 0.491683 0.111723 0.531249
2916 4 0.0123431 0.221052 0.524875
3266 4 0.0122617 0.202265 0.534034
3265 2 0.0123894 0.177352 0.536157
1192 2 0.40555 0.230276 0.567223
898 2 0.342239 0.220067 0.56792
1194 4 0.382821 0.222809 0.559954
900 4 0.363766 0.218436 0.555305
515 4 0.382051 0.158518 0.509301
1193 4 0.428278 0.237743 0.574491
1032 4 0.430357 0.166363 0.498927
1034 4 0.0163744 0.3385 0.502987
1179 4 0.130734 0.308422 0.528005
3354 4 0.133746 0.318829 0.511309
1177 2 0.126328 0.284862 0.520887
1178 4 0.121922 0.261302 0.513769
1151 4 0.104835 0.26656 0.504247
804 4 0.242812 0.272499 0.510679
650 4 0.436572 0.250023 0.56219
649 2 0.454723 0.259118 0.547595
651 4 0.472874 0.268213 0.533001
576 4 0.489732 0.259026 0.524845
574 2 0.502182 0.277485 0.513469
3352 2 0.139877 0.340457 0.522255
3353 4 0.146007 0.362086 0.5332
406 2 0.156468 0.378021 0.565664
408 4 0.148798 0.380158 0.541962
335 4 0.361774 0.36837 0.528458
334 2 0.351375 0.37066 0.505835
926 4 0.402031 0.390905 0.57369
925 2 0.377478 0.394192 0.570297
927 4 0.352924 0.397479 0.566905
929 4 0.34805 0.395976 0.586041
1161 4 0.150894 0.501306 0.521381
1159 2 0.156527 0.4853 0.503015
2138 4 0.149989 0.498175 0.542359
2153 4 0.240685 0.44998 0.554727
2152 2 0.238558 0.454566 0.579215
773 4 0.253385 0.458783 0.54148
772 2 0.268756 0.448132 0.524883
774 4 0.284127 0.437482 0.508285
881 4 0.302226 0.44464 0.501541
863 4 0.0105514 0.0697891 0.65683
1059 4 0.176168 0.0287521 0.598819
411 4 0.227596 0.0361228 0.614431
410 4 0.177934 0.0418529 0.613177
409 2 0.202765 0.0389879 0.613804
823 2 0.246008 0.0594131 0.646979
824 4 0.236448 0.0451009 0.628842
1025 4 0.35033 0.0566688 0.609771
843 4 0.352093 0.0667338 0.592788
1024 2 0.368883 0.068724 0.621417
1026 4 0.387436 0.0807793 0.633063
1162 2 0.429658 0.993841 0.585317
1163 4 0.435502 0.0139827 0.598931
1217 4 0.43557 0.0319265 0.590964
4226 4 0.475675 0.064759 0.613782
88 3 0.461945 0.0777524 0.6079
4225 2 0.497427 0.0556071 0.605522
862 2 0.0295588 0.0857406 0.659904
963 4 0.14179 0.143152 0.60319
961 2 0.154552 0.124098 0.613154
962 4 0.167314 0.105045 0.623119
2132 4 0.171682 0.0851888 0.626638
2131 2 0.188105 0.0912424 0.644494
840 4 0.235016 0.161776 0.663562
887 4 0.30047 0.158386 0.664256
886 2 0.275942 0.156682 0.659711
1261 2 0.329055 0.138356 0.670778
1262 4 0.349285 0.127044 0.6614
3401 4 0.397967 0.13037 0.627432
44 3 0.387628 0.136039 0.642928
3400 2 0.418267 0.143369 0.620791
45 3 0.383462 0.0989756 0.637771
41 1 0.375855 0.117085 0.649296
43 3 0.353205 0.120098 0.645255
90 3 0.450854 0.0846468 0.643214
87 3 0.430304 0.0969088 0.614574
86 1 0.451708 0.0930247 0.622055
89 3 0.463445 0.113041 0.621932
3007 2 0.48808 0.135208 0.614293
3009 4 0.4638 0.129691 0.612009
3402 4 0.438567 0.156368 0.614151
3356 4 0.453394 0.170542 0.613483
1284 4 0.132603 0.232665 0.640372
1282 2 0.117404 0.212823 0.641026
1260 4 0.149135 0.239424 0.650997
1283 4 0.102204 0.19298 0.641681
1212 4 0.186735 0.197097 0.604167
1210 2 0.190077 0.178529 0.587758
696 4 0.197755 0.21403 0.6025
694 2 0.210701 0.227624 0.619016
1136 4 0.239938 0.236848 0.645832
839 4 0.204311 0.198078 0.679057
838 2 0.219663 0.179927 0.67131
695 4 0.223648 0.241218 0.635532
798 4 0.306645 0.224211 0.594469
899 4 0.320713 0.221698 0.580535
796 2 0.290682 0.242625 0.588878
1135 2 0.262576 0.242313 0.654934
3357 4 0.486735 0.207379 0.61915
3355 2 0.470065 0.188961 0.616316
3114 4 0.49921 0.199469 0.633341
878 4 0.0433679 0.327049 0.595139
877 2 0.019592 0.32655 0.602862
3262 2 0.076428 0.317785 0.599935
3264 4 0.0564468 0.316406 0.584967
1066 2 0.113464 0.313662 0.64366
3263 4 0.0964093 0.319165 0.614902
1068 4 0.0996376 0.303003 0.625761
1258 2 0.156272 0.263366 0.649994
1259 4 0.163409 0.287308 0.64899
797 4 0.274718 0.261039 0.583286
1007 4 0.267956 0.270882 0.598822
1006 2 0.265891 0.292247 0.611647
1008 4 0.263826 0.313611 0.624471
807 4 0.280956 0.322408 0.617135
407 4 0.164138 0.375884 0.589366
1173 4 0.176476 0.382817 0.600389
1171 2 0.189035 0.395915 0.61759
805 2 0.296894 0.341295 0.620931
806 4 0.312833 0.360183 0.624726
930 4 0.315563 0.379826 0.620457
663 4 0.419642 0.395708 0.581511
928 2 0.331807 0.387901 0.603249
1019 4 0.383625 0.405496 0.665571
1009 2 0.410236 0.370265 0.654663
1010 4 0.423632 0.35034 0.647683
661 2 0.422757 0.417033 0.594188
953 4 0.440508 0.356907 0.658613
952 2 0.455379 0.339355 0.668407
1190 4 0.184886 0.415248 0.64359
1172 4 0.201594 0.409013 0.634792
2154 4 0.236432 0.459151 0.603702
1189 2 0.179661 0.437646 0.653398
2028 4 0.26701 0.467792 0.658273
2027 4 0.248239 0.448183 0.616275
2026 2 0.257624 0.457988 0.637274
2141 4 0.44227 0.446601 0.613173
662 4 0.425873 0.438359 0.606864
2142 4 0.477328 0.474867 0.591431
2140 2 0.459799 0.460734 0.602302
4374 4 0.484859 0.489394 0.601699
1256 4 0.07402 0.0355882 0.746178
944 4 0.151544 0.0471587 0.740424
943 2 0.154946 0.0286995 0.723905
945 4 0.158347 0.0102403 0.707387
909 4 0.141651 0.0618522 0.75193
4193 4 0.115171 0.998692 0.662393
2299 2 0.250254 0.0705236 0.702574
825 4 0.255568 0.0737254 0.665116
2300 4 0.255191 0.0611556 0.679924
1003 2 0.40328 0.0120249 0.704242
1143 4 0.402176 0.0517028 0.722864
1005 4 0.404181 0.0326895 0.71829
3426 4 0.396773 0.999348 0.671399
1141 2 0.413353 0.0737833 0.719297
864 4 0.0485662 0.101692 0.662978
1075 2 0.0487348 0.135252 0.681862
1076 4 0.0469828 0.160194 0.682033
1077 4 0.0504869 0.110311 0.681691
1276 2 0.124975 0.150852 0.700394
1277 4 0.137104 0.133869 0.686624
1278 4 0.112846 0.167836 0.714164
2133 4 0.204527 0.0972961 0.66235
888 4 0.251414 0.154977 0.655165
2301 4 0.245317 0.0798915 0.725225
33 3 0.259902 0.0928362 0.733498
1263 4 0.308824 0.149668 0.680156
42 3 0.378992 0.113599 0.671816
46 1 0.403897 0.127873 0.720777
50 3 0.403187 0.147773 0.709726
47 3 0.384893 0.115843 0.71595
830 4 0.400649 0.162528 0.69642
48 3 0.404829 0.131558 0.743667
49 3 0.422425 0.115684 0.713956
1142 4 0.424529 0.0958638 0.715731
3044 4 0.0653048 0.165953 0.679926
820 2 0.0807527 0.243419 0.712497
3043 2 0.0677704 0.189274 0.6886
3045 4 0.0702361 0.212595 0.697275
821 4 0.0795178 0.259255 0.731808
822 4 0.0819876 0.227583 0.693187
977 4 0.126136 0.173724 0.726909
1130 4 0.192737 0.210126 0.666268
1129 2 0.194791 0.233133 0.675842
1137 4 0.285215 0.247777 0.664035
1167 4 0.303612 0.253364 0.668711
829 2 0.393499 0.185694 0.690305
831 4 0.386348 0.20886 0.68419
801 4 0.404063 0.215814 0.687454
799 2 0.421915 0.232623 0.682562
800 4 0.439767 0.249432 0.67767
1209 4 0.0634591 0.255808 0.743107
1067 4 0.12729 0.324321 0.66156
10 3 0.17066 0.292095 0.665598
1395 4 0.216046 0.323805 0.674714
9 3 0.204072 0.309329 0.667662
1131 4 0.196844 0.256139 0.685417
815 4 0.176946 0.32596 0.7049
7 3 0.198325 0.276653 0.685323
6 1 0.188482 0.296484 0.679079
8 3 0.181424 0.307682 0.698137
1165 2 0.31199 0.258331 0.69174
1166 4 0.320369 0.263299 0.714768
918 4 0.316648 0.273515 0.731793
916 2 0.328674 0.28585 0.749915
954 4 0.470251 0.321802 0.678201
1239 4 0.4668 0.302546 0.675397
1238 4 0.458645 0.253637 0.66891
1237 2 0.462723 0.278092 0.672153
993 4 0.0568252 0.379828 0.701391
991 2 0.0509159 0.400497 0.71416
1120 2 0.1379 0.385388 0.739937
1122 4 0.136336 0.40735 0.751786
1121 4 0.139464 0.363426 0.728089
816 4 0.135549 0.35294 0.712587
814 2 0.156248 0.33945 0.708743
1393 2 0.225423 0.340151 0.691147
1394 4 0.234799 0.356498 0.70758
889 2 0.246516 0.388786 0.714631
891 4 0.252334 0.364471 0.714949
1230 4 0.329968 0.400298 0.755816
1011 4 0.396841 0.390191 0.661644
1018 2 0.369344 0.415599 0.683435
1228 2 0.34357 0.405301 0.735442
1020 4 0.355063 0.425703 0.7013
895 2 0.0276963 0.461205 0.722563
896 4 0.042383 0.441059 0.720664
897 4 0.0130096 0.481351 0.724461
992 4 0.0450065 0.421166 0.726929
1176 4 0.158609 0.459881 0.675113
1983 4 0.136794 0.474431 0.728151
890 4 0.240699 0.413102 0.714313
1174 2 0.166516 0.475162 0.693256
1191 4 0.174436 0.460044 0.663207
1904 4 0.244925 0.416145 0.733634
2175 4 0.273201 0.444097 0.707673
2173 2 0.287476 0.452805 0.726263
2174 4 0.30175 0.461514 0.744853
1229 4 0.357173 0.410304 0.715067
1257 4 0.0699663 0.0496339 0.794
1255 2 0.0719932 0.042611 0.770089
2000 4 0.0718474 0.0595292 0.813042
921 4 0.13087 0.999046 0.838161
919 2 0.109045 0.00859335 0.845757
1999 2 0.0790053 0.0669348 0.835826
907 2 0.133205 0.0521407 0.773367
908 4 0.12476 0.0424293 0.794804
1050 4 0.233466 0.0136495 0.758366
31 1 0.25212 0.0891675 0.755048
35 3 0.229427 0.0910272 0.755536
2201 4 0.224963 0.996636 0.762513
1048 2 0.245331 0.033697 0.767449
1049 4 0.257195 0.0537445 0.776533
34 3 0.258491 0.0680623 0.762285
965 4 0.312661 0.0768952 0.806001
2051 4 0.309034 0.0749921 0.824446
845 4 0.383965 0.00594613 0.785813
844 2 0.404696 0.0113175 0.798718
846 4 0.425428 0.0166889 0.811622
976 2 0.135638 0.171531 0.749933
1226 4 0.150106 0.173442 0.791391
978 4 0.14514 0.169337 0.772956
1225 2 0.169567 0.164122 0.804023
1227 4 0.189029 0.154802 0.816656
870 4 0.190832 0.136778 0.822859
1293 4 0.240487 0.106634 0.823443
964 2 0.294713 0.0886636 0.793173
966 4 0.276765 0.100432 0.780345
32 3 0.261316 0.104924 0.769059
1291 2 0.253012 0.128217 0.825031
1084 2 0.394032 0.16635 0.813351
1085 4 0.389821 0.14561 0.800035
1113 4 0.404922 0.132613 0.797299
1111 2 0.42927 0.126924 0.797248
1112 4 0.453617 0.121235 0.797197
808 2 0.492916 0.109804 0.809848
810 4 0.473729 0.119996 0.797472
1042 2 0.300299 0.237283 0.833247
1044 4 0.323833 0.245601 0.834718
1043 4 0.276766 0.228965 0.831777
1299 4 0.416526 0.190608 0.81849
1086 4 0.398243 0.18709 0.826667
1297 2 0.427088 0.211733 0.810281
1298 4 0.437649 0.232858 0.802073
1308 4 0.438743 0.251545 0.796686
3361 2 0.500529 0.251572 0.818335
1039 2 0.0702804 0.322572 0.78941
1040 4 0.0777621 0.304866 0.773419
1207 2 0.0696528 0.270489 0.762376