ITEM: TIMESTEP
5800000
ITEM: NUMBER OF ATOMS
4590
ITEM: BOX BOUNDS pp pp pp
-9.9985700000000008e+00 9.9985700000000008e+00
-9.9985700000000008e+00 9.9985700000000008e+00
-9.9985700000000008e+00 9.9985700000000008e+00
ITEM: ATOMS id type xs ys zs
1504 2 0.022409 0.0445075 0.0541676
1505 4 0.0155755 0.0586809 0.0347358
1125 4 0.0109351 0.0715127 0.0189719
1506 4 0.0292426 0.030334 0.0735994
770 4 0.204866 0.0681731 0.0662761
867 4 0.219659 0.0673571 0.0524697
865 2 0.239118 0.0719076 0.0374435
769 2 0.186027 0.0581989 0.0793446
866 4 0.258578 0.0764581 0.0224173
77 3 0.383016 0.0250384 0.0179256
76 1 0.363645 0.0144025 0.0243117
79 3 0.34836 0.0155578 0.00689178
78 3 0.355087 0.0250335 0.0430771
3835 2 0.410698 0.047465 0.017184
1497 4 0.35487 0.0102437 0.0548935
3836 4 0.39514 0.0351265 0.0323792
1495 2 0.350313 0.011581 0.0794418
1110 4 0.329518 0.0176255 0.00234632
3837 4 0.426256 0.0598034 0.00198877
624 4 0.137567 0.136452 0.040336
622 2 0.14149 0.116641 0.0550776
911 4 0.121608 0.147619 0.0449314
55 3 0.150368 0.135826 0.0237295
623 4 0.145412 0.0968299 0.0698193
910 2 0.0975472 0.154274 0.0463273
51 1 0.158046 0.156625 0.0185245
913 2 0.208515 0.133649 0.061509
915 4 0.209302 0.152685 0.0453163
914 4 0.207728 0.114613 0.0777016
381 4 0.226219 0.155238 0.0337878
53 3 0.178242 0.155008 0.00721602
379 2 0.224343 0.148369 0.00981955
462 4 0.274407 0.0868902 0.0295411
461 4 0.297119 0.110983 0.0670163
460 2 0.285763 0.0989367 0.0482787
828 4 0.33525 0.159559 0.0488236
826 2 0.326999 0.158132 0.0252637
571 2 0.408269 0.101632 0.057532
572 4 0.392339 0.102155 0.076797
746 4 0.386617 0.158575 0.0574895
1785 4 0.375445 0.108243 0.0662817
1783 2 0.354845 0.101159 0.0785559
573 4 0.424199 0.10111 0.0382671
2839 2 0.49064 0.161222 0.0687483
2840 4 0.482512 0.16213 0.0451201
912 4 0.0734859 0.160929 0.0477231
763 2 0.0484642 0.191084 0.0587763
765 4 0.0279658 0.20531 0.0571584
764 4 0.0689626 0.176858 0.0603943
1215 4 0.00698189 0.247522 0.00271658
54 3 0.160783 0.169127 0.0378796
955 2 0.133076 0.240909 0.0571924
956 4 0.146206 0.224269 0.0704549
546 4 0.165074 0.230745 0.0734146
745 2 0.392713 0.172854 0.0378903
747 4 0.39881 0.187132 0.018291
527 4 0.388462 0.204751 0.0207248
526 2 0.382417 0.22245 0.00412931
2855 4 0.481364 0.181502 0.0377302
2854 2 0.466303 0.171484 0.0204684
2828 4 0.488469 0.251958 0.0658217
363 4 0.0121484 0.257507 0.0463949
361 2 0.0346705 0.267177 0.0513377
362 4 0.0571925 0.276847 0.0562806
957 4 0.119946 0.257549 0.04393
1595 4 0.108012 0.272606 0.0397164
1594 2 0.100673 0.26206 0.0182666
27 3 0.402314 0.258289 0.0571471
28 3 0.405977 0.295692 0.056672
26 1 0.414511 0.275744 0.0484466
30 3 0.412943 0.275402 0.0257294
2827 2 0.469998 0.268741 0.0642958
29 3 0.436674 0.273355 0.0548895
2829 4 0.451527 0.285524 0.0627699
563 4 0.447554 0.329331 0.054428
562 2 0.434505 0.327334 0.0331932
2583 4 0.00980772 0.392938 0.0430312
923 4 0.159943 0.363685 0.00422186
922 2 0.13516 0.366261 0.00213725
924 4 0.110377 0.368837 5.26442e-05
1236 4 0.167536 0.380677 0.00142303
1234 2 0.17907 0.401783 0.00825303
13 3 0.279514 0.392107 0.0530595
11 1 0.279307 0.39511 0.076067
273 4 0.317906 0.393736 0.0834845
271 2 0.339802 0.382007 0.080632
272 4 0.361699 0.370278 0.0777795
564 4 0.421457 0.325337 0.0119584
2454 4 0.417771 0.345048 0.00862166
1071 4 0.459116 0.344127 0.0560623
1069 2 0.482537 0.350257 0.0623139
3882 4 0.458178 0.395869 0.0700711
3880 2 0.450946 0.398183 0.0462482
3881 4 0.443715 0.400496 0.0224253
3801 4 0.43577 0.417115 0.0133655
659 4 0.473925 0.387303 0.0798624
1777 2 0.0410424 0.481503 0.0722641
1779 4 0.0459039 0.48985 0.0492014
626 4 0.201693 0.440463 0.0158928
1235 4 0.190604 0.42289 0.015083
625 2 0.225647 0.446943 0.0128288
627 4 0.249601 0.453424 0.00976469
3212 4 0.267106 0.452681 0.999961
3211 2 0.29115 0.446432 0.00279162
14 3 0.276722 0.417614 0.0810958
2782 2 0.487018 0.48392 0.0758695
2784 4 0.49733 0.461258 0.0735809
2797 2 0.999085 0.0515119 0.121331
1403 4 0.0432249 0.0361492 0.0870216
1402 2 0.0590408 0.0490794 0.101439
1404 4 0.0748567 0.0620095 0.115855
2798 4 0.0123587 0.0720412 0.116083
1533 4 0.0704518 0.0815286 0.116274
477 4 0.150395 0.0670168 0.150898
475 2 0.158553 0.0658891 0.127289
476 4 0.166711 0.0647614 0.103681
771 4 0.167188 0.0482247 0.0924131
2724 4 0.289774 0.0285119 0.131848
654 4 0.278793 0.0243158 0.146977
2722 2 0.313545 0.0280442 0.124108
652 2 0.271595 0.00976193 0.165991
2723 4 0.337316 0.0275766 0.116368
698 4 0.327693 0.0753037 0.0984149
1496 4 0.345756 0.0129183 0.10399
628 2 0.471423 0.0317443 0.122709
630 4 0.475892 0.0362899 0.146887
629 4 0.466954 0.0271986 0.0985317
3203 4 0.4539 0.0140478 0.0901206
2505 4 0.492737 0.0466638 0.144285
1531 2 0.0589398 0.0925263 0.135554
1532 4 0.0474278 0.103524 0.154833
2476 2 0.0148291 0.162396 0.147314
691 2 0.116262 0.161436 0.153417
692 4 0.108312 0.165632 0.130086
17 3 0.14983 0.0779575 0.168587
875 4 0.222691 0.104004 0.0833599
874 2 0.243497 0.100194 0.096692
699 4 0.284996 0.0995277 0.107947
697 2 0.306345 0.0874157 0.103181
25 3 0.279149 0.117056 0.140688
876 4 0.264304 0.096384 0.110024
21 1 0.27096 0.114969 0.161836
23 3 0.251526 0.127449 0.164069
1784 4 0.334246 0.0940745 0.0908302
418 2 0.405059 0.14389 0.110902
419 4 0.384103 0.130503 0.113521
484 2 0.479594 0.145043 0.12984
485 4 0.469484 0.142083 0.152516
312 4 0.476531 0.127274 0.165016
420 4 0.426014 0.157276 0.108284
2841 4 0.498767 0.160313 0.0923766
486 4 0.489704 0.148003 0.107164
529 2 0.0694731 0.188023 0.157209
2478 4 0.0355556 0.175879 0.151029
530 4 0.052773 0.169419 0.156806
531 4 0.0861731 0.206628 0.157612
2760 4 0.10993 0.186155 0.127853
2758 2 0.119727 0.208897 0.124386
2759 4 0.129524 0.231639 0.120919
450 4 0.130458 0.251104 0.120057
545 4 0.209032 0.213165 0.0895165
544 2 0.187053 0.221955 0.0814655
556 2 0.387288 0.251596 0.138385
557 4 0.365897 0.23878 0.136547
402 4 0.361047 0.221998 0.146178
400 2 0.364475 0.199333 0.156165
547 2 0.0754903 0.306084 0.125038
549 4 0.0581114 0.319896 0.136544
548 4 0.0928691 0.292272 0.113532
449 4 0.0925804 0.27586 0.0987692
448 2 0.111519 0.263482 0.109413
558 4 0.408678 0.264412 0.140223
519 4 0.428601 0.26387 0.14595
517 2 0.434955 0.287954 0.148129
518 4 0.44131 0.312038 0.150308
3608 4 0.448738 0.326813 0.16142
2597 4 0.0594175 0.339313 0.142948
2596 2 0.0469773 0.358628 0.13308
2598 4 0.0345371 0.377942 0.123212
2842 2 0.0329872 0.409596 0.147044
2844 4 0.0310364 0.397657 0.125162
2094 4 0.152831 0.386001 0.102434
2092 2 0.160769 0.399928 0.121623
1223 4 0.179219 0.400015 0.151344
2093 4 0.168706 0.413854 0.140812
15 3 0.298704 0.387308 0.0850964
12 3 0.261586 0.383425 0.0849319
3607 2 0.456617 0.349314 0.153884
3609 4 0.464497 0.371815 0.146347
660 4 0.464318 0.379065 0.128242
658 2 0.469121 0.383184 0.104052
1778 4 0.0361809 0.473157 0.0953268
700 2 0.0673688 0.480891 0.126172
702 4 0.0482687 0.479087 0.110137
454 2 0.114078 0.503197 0.156929
455 4 0.0900714 0.496212 0.157172
701 4 0.0864689 0.482695 0.142207
4367 4 0.49646 0.444164 0.0820561
19 3 0.175805 0.0755686 0.195648
332 4 0.351856 0.0608798 0.247137
331 2 0.376804 0.0615927 0.248639
18 3 0.145408 0.0979414 0.200111
364 2 0.142501 0.138186 0.201672
365 4 0.151631 0.11603 0.20881
693 4 0.124213 0.15724 0.176749
16 1 0.160922 0.0897709 0.184914
366 4 0.133371 0.160342 0.194535
744 4 0.233822 0.125428 0.17494
468 4 0.229681 0.0895509 0.250019
20 3 0.172227 0.107047 0.175302
742 2 0.210397 0.119361 0.181236
743 4 0.186972 0.113293 0.187533
24 3 0.286795 0.12215 0.177202
22 3 0.266112 0.0928591 0.165936
1700 4 0.343878 0.129369 0.203413
422 4 0.349999 0.11724 0.218926
1699 2 0.347397 0.148385 0.187565
421 2 0.352531 0.114094 0.243601
1701 4 0.350916 0.167402 0.171717
310 2 0.478913 0.108386 0.181225
311 4 0.481294 0.0894985 0.197435
495 4 0.328111 0.208133 0.24726
401 4 0.367902 0.176668 0.166153
104 3 0.38965 0.249784 0.192864
105 3 0.382458 0.23963 0.2284
493 2 0.348097 0.222925 0.24462
494 4 0.368083 0.237716 0.24198
2837 4 0.497372 0.187318 0.245656
301 2 0.0041837 0.313334 0.228375
303 4 0.00659191 0.309724 0.203751
343 2 0.136678 0.260171 0.209291
344 4 0.16144 0.261853 0.206262
602 4 0.0963969 0.325102 0.196082
345 4 0.111915 0.258489 0.21232
756 4 0.171849 0.266034 0.224383
755 4 0.217468 0.285253 0.23147
754 2 0.194658 0.275644 0.227926
510 4 0.231171 0.300255 0.229201
508 2 0.251401 0.314887 0.230536
509 4 0.271632 0.32952 0.23187
101 1 0.392307 0.25538 0.215225
103 3 0.382885 0.276178 0.21936
102 3 0.414782 0.256308 0.220039
588 4 0.398936 0.28606 0.226102
586 2 0.397109 0.309053 0.216452
750 4 0.415181 0.274483 0.227288
587 4 0.395281 0.332047 0.206802
748 2 0.438564 0.277568 0.235586
749 4 0.461948 0.280653 0.243884
1912 2 0.0543299 0.393035 0.19682
289 2 0.00218055 0.401879 0.234879
1914 4 0.0414553 0.411057 0.185216
1913 4 0.0672045 0.375014 0.208424
603 4 0.086552 0.372318 0.209288
601 2 0.0914744 0.34871 0.202685
1222 2 0.199872 0.394818 0.164445
1224 4 0.220525 0.389622 0.177546
387 4 0.412262 0.33856 0.197988
595 2 0.341352 0.409837 0.250149
385 2 0.428373 0.356967 0.203163
386 4 0.444485 0.375374 0.208339
2651 4 0.462324 0.379629 0.21219
2650 2 0.464937 0.402482 0.202388
1530 4 0.445922 0.397482 0.243213
2843 4 0.0349381 0.421535 0.168926
621 4 0.025939 0.457559 0.225371
619 2 0.0192154 0.477007 0.239575
3716 4 0.0129642 0.445934 0.213719
3715 2 0.995024 0.445606 0.196306
1757 4 0.102401 0.454909 0.222503
1756 2 0.116406 0.469171 0.237524
597 4 0.335377 0.423958 0.230399
1863 4 0.403221 0.45278 0.240485
610 2 0.482583 0.450846 0.164018
611 4 0.465049 0.439111 0.177436
2652 4 0.46755 0.425335 0.192585
1862 4 0.437394 0.416328 0.242517
1861 2 0.420308 0.434554 0.241501
2585 4 0.0171522 0.0109682 0.297706
2584 2 0.00588562 0.0116873 0.275396
439 2 0.111085 0.044918 0.306201
440 4 0.118638 0.0492748 0.282767
441 4 0.103532 0.0405612 0.329635
354 4 0.122774 0.0587735 0.265771
352 2 0.139938 0.0756611 0.259034
631 2 0.225357 0.00888368 0.310345
466 2 0.248333 0.0766469 0.260543
632 4 0.238061 0.0261827 0.323172
497 4 0.277942 0.0613033 0.287626
496 2 0.266708 0.0437291 0.301415
498 4 0.255475 0.026155 0.315204
467 4 0.266986 0.0637428 0.271067
333 4 0.401752 0.0623055 0.250141
3891 4 0.4198 0.0546745 0.256585
3889 2 0.434243 0.0413323 0.272032
3890 4 0.448685 0.02799 0.287478
708 4 0.462024 0.0189212 0.300607
706 2 0.453212 0.00968339 0.322106
300 4 0.0101219 0.101996 0.334344
353 4 0.157101 0.0925487 0.252297
390 4 0.215331 0.0818719 0.262039
389 4 0.172093 0.105936 0.254823
388 2 0.193712 0.0939041 0.258431
423 4 0.355063 0.110949 0.268277
2895 4 0.350913 0.0982187 0.285094
2893 2 0.364152 0.0950522 0.306067
2894 4 0.377392 0.0918858 0.32704
338 4 0.19248 0.247081 0.31536
507 4 0.208436 0.237682 0.321502
505 2 0.231491 0.247211 0.319814
337 2 0.179507 0.231826 0.330331
2853 4 0.496033 0.196107 0.264611
2851 2 0.492513 0.220472 0.260232
2852 4 0.488992 0.244836 0.255854
302 4 0.00177549 0.316944 0.252999
2614 2 0.0627549 0.321813 0.281282
459 4 0.0534516 0.31654 0.324983
2615 4 0.0818135 0.305653 0.28217
4298 4 0.0906958 0.311465 0.298695
4297 2 0.111207 0.31242 0.312963
4299 4 0.131717 0.313374 0.327231
646 2 0.26938 0.286551 0.326832
2955 4 0.301237 0.28389 0.321669
2953 2 0.32514 0.285757 0.314574
647 4 0.290476 0.299843 0.324979
506 4 0.254546 0.25674 0.318127
2954 4 0.349043 0.287625 0.307479
473 4 0.36759 0.294604 0.307756
472 2 0.383317 0.277775 0.317484
474 4 0.399044 0.260946 0.327212
275 4 0.472794 0.294564 0.250657
2935 2 0.476187 0.311992 0.329884
2937 4 0.457584 0.314601 0.313383
274 2 0.471323 0.303062 0.274126
276 4 0.469851 0.31156 0.297595
2616 4 0.0436964 0.337974 0.280395
1820 4 0.0477396 0.347553 0.263808
1821 4 0.0104687 0.380822 0.265996
290 4 0.00961306 0.399341 0.258617
1819 2 0.0291041 0.364188 0.264902
457 2 0.046394 0.339845 0.330662
248 4 0.309917 0.351383 0.300682
1430 4 0.325253 0.364109 0.304516
247 2 0.299003 0.34316 0.321621
1429 2 0.343794 0.375835 0.29252
1431 4 0.362336 0.387561 0.280524
596 4 0.347327 0.395716 0.269899
1529 4 0.432492 0.379739 0.287996
1528 2 0.439207 0.38861 0.265605
812 4 0.448228 0.374897 0.299298
811 2 0.454627 0.381146 0.322647
679 2 0.00336561 0.440739 0.309383
680 4 0.0264558 0.445664 0.317615
1787 4 0.139929 0.458557 0.311399
1788 4 0.145858 0.475694 0.264796
1758 4 0.130411 0.483433 0.252544
1786 2 0.142893 0.467126 0.288097
569 4 0.150152 0.460233 0.328681
313 2 0.187884 0.488488 0.253425
315 4 0.18755 0.466461 0.265252
413 4 0.204487 0.455291 0.269995
412 2 0.226427 0.455304 0.281988
414 4 0.248367 0.455317 0.293981
3684 4 0.399879 0.464613 0.255009
3682 2 0.407727 0.476388 0.275623
3683 4 0.415575 0.488163 0.296237
1586 4 0.424615 0.504258 0.307606
1585 2 0.420109 0.488647 0.326611
1338 4 0.108646 0.0265205 0.342586
1336 2 0.124236 0.00728034 0.346043
1516 2 0.325945 0.0508201 0.41588
1199 4 0.308907 0.0809471 0.411508
430 2 0.382845 0.0447843 0.404412
431 4 0.406593 0.0508113 0.409403
432 4 0.359098 0.0387573 0.399421
1517 4 0.339745 0.0330919 0.404904
489 4 0.438592 0.999931 0.36223
257 4 0.422646 0.0614354 0.40011
298 2 0.0288338 0.117905 0.339029
299 4 0.0475458 0.133814 0.343714
347 4 0.118546 0.159754 0.350851
792 4 0.246052 0.0994093 0.407191
790 2 0.221877 0.105042 0.41019
791 4 0.197701 0.110674 0.413189
240 4 0.185979 0.126203 0.408102
1200 4 0.264429 0.10014 0.399095
1198 2 0.286668 0.0905435 0.405301
278 4 0.362856 0.0965292 0.339239
277 2 0.362265 0.104992 0.36276
279 4 0.361674 0.113454 0.386281
2657 4 0.361784 0.133463 0.383409
2656 2 0.363343 0.141141 0.407153
2533 2 0.0785362 0.219817 0.393279
2535 4 0.064145 0.237341 0.403813
1151 4 0.0480623 0.247908 0.405634
2534 4 0.0929274 0.202293 0.382744
348 4 0.101996 0.204603 0.365526
346 2 0.110271 0.182179 0.358189
339 4 0.166533 0.216571 0.345303
261 4 0.168956 0.211874 0.364444
259 2 0.179016 0.201404 0.3848
260 4 0.189076 0.190934 0.405156
1210 2 0.321277 0.236948 0.399394
599 4 0.278514 0.232368 0.410983
1211 4 0.297961 0.232195 0.407071
804 4 0.361481 0.242427 0.380633
1212 4 0.344594 0.241701 0.391716
802 2 0.378424 0.248998 0.36346
1150 2 0.0522686 0.272136 0.41016
648 4 0.248283 0.273258 0.328684
738 4 0.298697 0.324461 0.35549
249 4 0.288089 0.334937 0.342559
803 4 0.395368 0.25557 0.346288
2936 4 0.49479 0.309384 0.346385
1193 4 0.465072 0.272353 0.374043
1192 2 0.450832 0.283694 0.391183
1194 4 0.436593 0.295036 0.408323
1010 4 0.421813 0.307478 0.414832
458 4 0.0393363 0.363149 0.336342
1220 4 0.0523206 0.377982 0.333765
1219 2 0.0559647 0.402072 0.339384
1397 4 0.134978 0.329126 0.339605
1396 2 0.123548 0.346328 0.353698
1398 4 0.112118 0.36353 0.367791
678 4 0.112634 0.375348 0.383732
676 2 0.115447 0.399894 0.379885
736 2 0.293294 0.331363 0.378907
737 4 0.287892 0.338265 0.402324
871 2 0.328601 0.37977 0.408388
767 4 0.297998 0.406367 0.391805
766 2 0.277088 0.417572 0.399704
613 2 0.381358 0.389614 0.39764
615 4 0.400909 0.37628 0.40571
872 4 0.347698 0.387172 0.394045
614 4 0.361806 0.402948 0.389571
266 4 0.417257 0.37209 0.395448
813 4 0.461027 0.387396 0.345995
265 2 0.431662 0.380869 0.376992
267 4 0.446067 0.389648 0.358537
1640 4 0.02683 0.454265 0.335588
1221 4 0.0596088 0.426162 0.345003
2529 4 0.0568143 0.439598 0.360007
1639 2 0.0453309 0.47074 0.338978
2527 2 0.0572621 0.441486 0.384935
1641 4 0.0638318 0.487214 0.342367
1445 4 0.0623333 0.499131 0.358273
1752 4 0.985112 0.477291 0.368327
2528 4 0.0577099 0.443373 0.409863
1444 2 0.0788428 0.493593 0.376216
1121 4 0.074308 0.453813 0.416787
1446 4 0.0953522 0.488056 0.394159
568 2 0.134288 0.449065 0.344454
677 4 0.11826 0.424439 0.376038
936 4 0.112778 0.492006 0.40111
570 4 0.118424 0.437896 0.360227
540 4 0.236475 0.427588 0.406221
1473 4 0.308539 0.416352 0.378139
768 4 0.256178 0.428778 0.407602
1471 2 0.328749 0.430789 0.37525
560 4 0.352365 0.454758 0.35423
559 2 0.376998 0.456774 0.350444
561 4 0.401631 0.458791 0.346658
1472 4 0.348958 0.445225 0.372362
1587 4 0.415604 0.473037 0.345616
585 4 0.490563 0.464393 0.405018
3072 4 0.495157 0.467992 0.386389
2458 2 0.0466451 0.0317536 0.485175
2460 4 0.039067 0.032107 0.46135
1602 4 0.11767 0.034721 0.47103
1600 2 0.119491 0.0579831 0.462044
1601 4 0.121313 0.0812453 0.453059
1518 4 0.312146 0.0685483 0.426855
1216 2 0.312481 0.0536296 0.48501
1217 4 0.300576 0.0325805 0.478655
1218 4 0.324387 0.0746787 0.491365
256 2 0.434895 0.0665952 0.421288
258 4 0.447144 0.071755 0.442467
900 4 0.462612 0.0724623 0.45515
469 2 0.0025989 0.104896 0.456386
1033 2 0.0056724 0.152223 0.42556
1035 4 0.0169608 0.130103 0.428468
471 4 0.0133394 0.126022 0.448417
723 4 0.0836028 0.15002 0.452146
721 2 0.0669422 0.157508 0.469221
722 4 0.0502817 0.164995 0.486295
1490 4 0.0313103 0.162073 0.488966
734 4 0.101481 0.138059 0.4506
733 2 0.107957 0.115529 0.459298
735 4 0.114434 0.0929999 0.467996
716 4 0.159475 0.150464 0.464477
239 4 0.16622 0.153176 0.445287
238 2 0.1761 0.139689 0.426694
1024 2 0.379644 0.136529 0.464919
2658 4 0.364901 0.148819 0.430898
1026 4 0.363044 0.150332 0.452304
1025 4 0.396243 0.122727 0.477533
3158 4 0.41329 0.114036 0.473264
898 2 0.474044 0.0878317 0.47122
899 4 0.485476 0.103201 0.487291
3157 2 0.426756 0.107486 0.493288
715 2 0.154334 0.172001 0.476092
502 2 0.122741 0.227507 0.492202
503 4 0.112352 0.25025 0.492312
504 4 0.133129 0.204764 0.492093
717 4 0.149193 0.193538 0.487707
372 4 0.198533 0.18196 0.420201
370 2 0.220443 0.184516 0.431973
371 4 0.242353 0.187072 0.443745
600 4 0.253757 0.193155 0.429697
598 2 0.266135 0.212761 0.42034
1152 4 0.056475 0.296364 0.414687
383 4 0.110121 0.269032 0.485277
382 2 0.108939 0.288614 0.469775
384 4 0.107756 0.308197 0.454273
1178 4 0.109228 0.325762 0.461006
650 4 0.332654 0.293132 0.466018
649 2 0.32741 0.317548 0.467273
374 4 0.396843 0.283946 0.485397
373 2 0.372813 0.282785 0.478586
375 4 0.348783 0.281625 0.471775
1167 4 0.415197 0.291715 0.484749
1009 2 0.436179 0.322465 0.428766
1177 2 0.118823 0.343389 0.446094
1179 4 0.128418 0.361017 0.431181
696 4 0.145954 0.369255 0.432518
538 2 0.224386 0.409079 0.417903
694 2 0.169251 0.377948 0.42989
695 4 0.192547 0.386641 0.427261
539 4 0.212296 0.390571 0.429584
728 4 0.25127 0.388186 0.454192
873 4 0.309505 0.372369 0.42273
651 4 0.322166 0.341963 0.468528
727 2 0.271743 0.378748 0.443377
729 4 0.292216 0.36931 0.432562
1239 4 0.364362 0.400469 0.49163
1453 2 0.4279 0.416432 0.492842
1011 4 0.450546 0.337453 0.4427
2455 2 0.479985 0.354536 0.458525
2456 4 0.457326 0.344127 0.460375
3820 2 0.00612383 0.42061 0.475989
3822 4 0.0160838 0.440068 0.488128
1120 2 0.0865628 0.44239 0.435349
1122 4 0.0988176 0.430967 0.45391
935 4 0.138309 0.470913 0.43858
3354 4 0.105557 0.442233 0.469744
934 2 0.125544 0.48146 0.419845
1682 4 0.147091 0.47825 0.454238
1681 2 0.141911 0.486855 0.477136
3352 2 0.101243 0.432175 0.492225
1400 4 0.404327 0.434546 0.462238
1455 4 0.416738 0.432811 0.4776
1399 2 0.393856 0.456969 0.458668
1401 4 0.383384 0.479392 0.455098
2436 4 0.372901 0.493228 0.464058
851 4 0.0586777 0.022042 0.526088
2459 4 0.0542231 0.0314002 0.509
2132 4 0.0973953 0.0735965 0.57404
857 4 0.108421 0.0855928 0.562292
2017 2 0.22636 0.0149904 0.538264
2018 4 0.240497 0.0149083 0.51764
842 4 0.222827 0.0163627 0.575682
2019 4 0.212223 0.0150725 0.558887
1059 4 0.323217 0.0887556 0.505264
1141 2 0.44205 0.0591238 0.516367
1143 4 0.447849 0.0353427 0.511267
411 4 0.454721 0.0267031 0.527805
409 2 0.450185 0.00544749 0.515444
856 2 0.130346 0.0951258 0.554971
858 4 0.152271 0.104659 0.54765
887 4 0.163339 0.114697 0.562305
886 2 0.18246 0.112615 0.578281
1057 2 0.307906 0.0912359 0.524875
1058 4 0.292595 0.0937163 0.544486
1262 4 0.369208 0.158625 0.545444
1086 4 0.38019 0.160618 0.528637
1084 2 0.405063 0.159973 0.531113
1261 2 0.356668 0.154808 0.566736
1142 4 0.436251 0.0829049 0.521468
3159 4 0.440221 0.100935 0.513312
641 4 0.492742 0.16454 0.584479
2506 2 0.454036 0.168729 0.56282
2507 4 0.474367 0.165469 0.577004
1085 4 0.429935 0.159328 0.533589
1489 2 0.00850677 0.166231 0.498341
2654 4 0.0148482 0.19934 0.55636
3265 2 0.0475739 0.207017 0.558051
3266 4 0.0310421 0.190481 0.549194
3267 4 0.0641058 0.223552 0.566908
821 4 0.0726662 0.232347 0.581998
711 4 0.341166 0.216658 0.552001
709 2 0.340485 0.236287 0.536528
890 4 0.343889 0.215134 0.573228
2508 4 0.433704 0.171989 0.548636
2846 4 0.00573864 0.258004 0.496571
3127 2 0.0036811 0.335577 0.570579
710 4 0.339805 0.255916 0.521055
815 4 0.341184 0.307076 0.542561
814 2 0.342825 0.327926 0.556264
801 4 0.420921 0.284119 0.586141
799 2 0.419153 0.27547 0.562747
1166 4 0.430131 0.263894 0.523526
800 4 0.417385 0.266821 0.539354
1165 2 0.422664 0.277805 0.504138
3128 4 0.0191969 0.343932 0.552841
1259 4 0.149831 0.332126 0.582851
3262 2 0.120468 0.398937 0.539199
3264 4 0.135496 0.38011 0.545897
1260 4 0.145272 0.363102 0.543858
1258 2 0.147551 0.347614 0.563354
3263 4 0.10544 0.417765 0.532501
3353 4 0.0969287 0.422117 0.514706
617 4 0.230157 0.410508 0.56126
616 2 0.246634 0.396619 0.573939
1172 4 0.182924 0.39921 0.503178
1136 4 0.332103 0.363943 0.574904
816 4 0.344467 0.348776 0.569967
1237 2 0.349632 0.41337 0.507179
661 2 0.44191 0.38131 0.539088
663 4 0.452465 0.396739 0.522484
662 4 0.431354 0.365882 0.555693
3380 4 0.433716 0.367231 0.575902
1454 4 0.439062 0.400053 0.508084
983 4 0.0359175 0.463122 0.544247
982 2 0.0229084 0.457481 0.523653
3513 4 0.0300074 0.477102 0.556172
3511 2 0.0239911 0.500026 0.564139
984 4 0.00989932 0.451841 0.503058
3431 4 0.170162 0.493349 0.558223
1171 2 0.194532 0.420657 0.508697
1173 4 0.206141 0.442104 0.514215
1814 4 0.298607 0.495283 0.519469
1238 4 0.334901 0.426271 0.522727
335 4 0.332728 0.444838 0.527466
334 2 0.345734 0.466176 0.528301
336 4 0.358741 0.487514 0.529137
2131 2 0.104172 0.0551914 0.589548
2133 4 0.110949 0.0367863 0.605056
3731 4 0.12136 0.0247502 0.617091
3730 2 0.145203 0.0172237 0.616888
46 1 0.142465 0.0673139 0.669224
50 3 0.148493 0.0573349 0.649661
48 3 0.120032 0.0732028 0.668524
3732 4 0.169046 0.00969727 0.616685
843 4 0.186401 0.0153205 0.609927
841 2 0.204614 0.0158416 0.592804
2299 2 0.320812 0.000307575 0.643157
1050 4 0.328557 0.0411084 0.657584
2301 4 0.32046 0.0235796 0.652293
1048 2 0.336477 0.0555516 0.638773
1049 4 0.344397 0.0699948 0.619962
1162 2 0.477266 0.0368308 0.640635
1163 4 0.461801 0.0563497 0.638393
1164 4 0.492732 0.017312 0.642876
3467 4 0.492364 0.00801892 0.66031
726 4 0.457526 0.0743316 0.646598
864 4 0.024442 0.0983331 0.604287
862 2 0.00194085 0.0972343 0.615134
1271 4 0.0445605 0.0946447 0.601525
1270 2 0.0629129 0.111625 0.601359
1272 4 0.0812653 0.128606 0.601194
49 3 0.155495 0.0861699 0.672838
1523 4 0.0989874 0.126789 0.612543
1522 2 0.115007 0.145962 0.611565
977 4 0.161289 0.100918 0.660884
1524 4 0.131027 0.165134 0.610587
888 4 0.20158 0.110533 0.594257
831 4 0.206533 0.100047 0.610635
830 4 0.208713 0.122411 0.655309
516 4 0.206458 0.141443 0.660551
829 2 0.207623 0.111229 0.632972
514 2 0.230001 0.148581 0.665014
1395 4 0.329979 0.159086 0.600097
3425 4 0.351431 0.0878218 0.627614
3424 2 0.375294 0.0951269 0.626078
3426 4 0.399157 0.102432 0.624542
1263 4 0.344128 0.150991 0.588028
724 2 0.438226 0.0867385 0.636661
725 4 0.418926 0.0991454 0.626723
820 2 0.0688 0.233999 0.606645
1068 4 0.0655012 0.230456 0.650455
822 4 0.0649338 0.235652 0.631293
2915 4 0.145207 0.174811 0.621143
2914 2 0.148185 0.196283 0.633603
2916 4 0.151163 0.217756 0.646063
1284 4 0.137767 0.23148 0.640523
960 4 0.29155 0.202325 0.639178
1394 4 0.299399 0.188528 0.626532
1393 2 0.314689 0.173807 0.613315
958 2 0.277648 0.186601 0.652767
891 4 0.379428 0.218935 0.608203
889 2 0.361658 0.217035 0.590715
3098 4 0.482839 0.243598 0.637097
1307 4 0.498078 0.242368 0.651728
667 2 0.155087 0.308707 0.605581
669 4 0.144944 0.288412 0.616088
1283 4 0.128892 0.277183 0.62227
1282 2 0.13333 0.254331 0.631396
668 4 0.16523 0.329003 0.595073
805 2 0.323676 0.324587 0.638778
806 4 0.3272 0.306209 0.655361
798 4 0.400728 0.282911 0.586971
796 2 0.389292 0.295595 0.605233
797 4 0.377856 0.308278 0.623496
1007 4 0.374128 0.313599 0.642303
3097 2 0.466242 0.261081 0.643732
3066 4 0.444277 0.297884 0.651971
3064 2 0.433078 0.31776 0.641737
3099 4 0.449644 0.278565 0.650367
2243 4 0.156318 0.364649 0.658663
2242 2 0.141314 0.384502 0.656237
2244 4 0.12631 0.404356 0.653811
3114 4 0.175151 0.369366 0.666464
807 4 0.320152 0.342965 0.622194
618 4 0.263112 0.382729 0.586618
1229 4 0.261149 0.363041 0.588131
1228 2 0.266174 0.358708 0.612238
1230 4 0.2712 0.354375 0.636345
1135 2 0.319337 0.360472 0.596121
1137 4 0.306571 0.357001 0.617338
2309 4 0.278425 0.366786 0.649189
2308 2 0.278179 0.387009 0.663891
1006 2 0.37739 0.335776 0.65338
1008 4 0.380653 0.357954 0.664457
3065 4 0.421879 0.337635 0.631503
3381 4 0.421304 0.356168 0.623065
3379 2 0.42751 0.361699 0.599483
2173 2 0.484975 0.491695 0.590169
2028 4 0.465871 0.483793 0.658747
1782 4 0.0418939 0.0560561 0.681516
2316 4 0.0356041 0.044413 0.697463
2314 2 0.0434613 0.0216893 0.690602
2315 4 0.0513185 0.998966 0.68374
1780 2 0.0360183 0.079577 0.675399
47 3 0.145745 0.0525712 0.686575
944 4 0.156986 0.0607336 0.701312
943 2 0.167534 0.0461594 0.718676
945 4 0.178082 0.0315852 0.73604
4549 2 0.486668 0.0636777 0.69231
4550 4 0.474389 0.0798535 0.706896
1781 4 0.0301427 0.103098 0.669281
965 4 0.0324107 0.112442 0.685578
964 2 0.0233477 0.128054 0.702879
966 4 0.0142847 0.143665 0.72018
1202 4 0.0116592 0.162291 0.730343
3235 2 0.132439 0.162349 0.686066
3236 4 0.153908 0.149736 0.6838
976 2 0.165415 0.120278 0.676161
978 4 0.16954 0.139637 0.691437
1044 4 0.273241 0.154953 0.718126
1042 2 0.271889 0.139163 0.737466
515 4 0.253545 0.155719 0.669478
3356 4 0.373854 0.093146 0.729897
916 2 0.35724 0.118957 0.707175
918 4 0.362742 0.110496 0.73005
917 4 0.351738 0.127419 0.684299
4466 4 0.469055 0.09542 0.717989
4465 2 0.464686 0.117151 0.729559
1080 4 0.0613253 0.19686 0.739308
962 4 0.0720327 0.185454 0.725739
893 4 0.0119363 0.223763 0.730009
892 2 0.0281813 0.240447 0.720902
1066 2 0.0577753 0.240672 0.671929
1067 4 0.0500494 0.250888 0.693403
3237 4 0.110969 0.174962 0.688333
961 2 0.0824806 0.181376 0.703392
963 4 0.0929284 0.177298 0.681045
839 4 0.108799 0.242618 0.727692
1130 4 0.119217 0.230663 0.716182
1225 2 0.23624 0.174063 0.718193
1227 4 0.215502 0.183685 0.72832
1226 4 0.256977 0.164442 0.708066
959 4 0.263745 0.170877 0.666356
941 4 0.255563 0.245459 0.744456
894 4 0.0444264 0.257131 0.711796
838 2 0.0883647 0.250761 0.739579
1129 2 0.135403 0.248923 0.710729
1039 2 0.149337 0.309 0.718652
1040 4 0.152151 0.288402 0.704759
1131 4 0.15159 0.267183 0.705275
1041 4 0.146522 0.329597 0.732544
10 3 0.214171 0.320728 0.695286
9 3 0.198524 0.307887 0.727034
6 1 0.216386 0.319563 0.717922
8 3 0.236337 0.309054 0.723394
3113 4 0.198268 0.332968 0.691792
1245 4 0.187074 0.294606 0.738653
942 4 0.283785 0.286728 0.743433
940 2 0.269674 0.266093 0.743944
499 2 0.0127698 0.377486 0.674232
501 4 0.0289364 0.376225 0.693264
3077 4 0.0409594 0.362976 0.702095
3076 2 0.0624044 0.371794 0.711452
3078 4 0.0838494 0.380611 0.720809
948 4 0.0942415 0.373574 0.736769
946 2 0.112624 0.356645 0.7376
947 4 0.131007 0.339717 0.73843
7 3 0.216566 0.340856 0.726623
3112 2 0.186709 0.351167 0.679128
2310 4 0.277934 0.407231 0.678593
2121 4 0.39945 0.361815 0.674279
2119 2 0.396982 0.371888 0.69703
2120 4 0.394514 0.381961 0.719782
3275 4 0.991912 0.487047 0.692194
1936 2 0.0740931 0.470206 0.726642
1938 4 0.0635946 0.485151 0.709565
1937 4 0.0845915 0.455261 0.743719
991 2 0.150308 0.467551 0.742867
993 4 0.165195 0.487364 0.739554
992 4 0.13542 0.447738 0.746181
1904 4 0.204869 0.445247 0.717946
2360 4 0.182336 0.493658 0.731346
1903 2 0.202426 0.458119 0.739242
2371 2 0.298027 0.502373 0.73581
2014 2 0.275365 0.422529 0.711834
2016 4 0.280024 0.422036 0.736395
2015 4 0.270706 0.423022 0.687274
2373 4 0.274499 0.497548 0.728858
2742 4 0.422467 0.489487 0.696067
2740 2 0.405985 0.487709 0.714784
2741 4 0.389502 0.485931 0.733502
2027 4 0.43935 0.50137 0.697327
2026 2 0.452611 0.492581 0.678037
926 4 0.468376 0.459549 0.723154
925 2 0.467374 0.470709 0.745506
2265 4 0.999182 0.0389288 0.768342
2270 4 0.00573069 0.0299342 0.786311
2269 2 0.0232562 0.0184366 0.772678
2271 4 0.0407816 0.00693896 0.759046
908 4 0.164579 0.0340354 0.750842
907 2 0.170417 0.0227499 0.772376
909 4 0.176255 0.0114643 0.79391
44 3 0.394695 0.0732313 0.813745
41 1 0.413422 0.0810228 0.802475
818 4 0.388231 0.069231 0.832818
1091 4 0.428582 0.0125353 0.768313
45 3 0.428042 0.0639217 0.798947
1092 4 0.443164 0.0554169 0.789508
1090 2 0.435873 0.0339761 0.778911
1275 4 0.466387 0.0694464 0.834482
3030 4 0.0447018 0.164008 0.79929
3008 4 0.250273 0.139866 0.816053
1043 4 0.270538 0.123373 0.756805
3009 4 0.256618 0.119427 0.770857
3007 2 0.253445 0.129647 0.793455
1095 4 0.267102 0.149988 0.817643
3355 2 0.380783 0.0937241 0.753914
42 3 0.406837 0.089666 0.7822
3357 4 0.387712 0.0943023 0.777932
2051 4 0.408793 0.159607 0.818984
2050 2 0.417153 0.136985 0.812388
43 3 0.423679 0.0977923 0.814803
2052 4 0.425513 0.114362 0.805791
4467 4 0.460316 0.138881 0.741129
1063 2 0.47734 0.158614 0.770973
1064 4 0.464201 0.139699 0.761238
1298 4 0.489773 0.176246 0.82861
3028 2 0.0362878 0.18748 0.797434
2047 2 0.0405662 0.240454 0.775062
3029 4 0.0278738 0.210952 0.795579
2049 4 0.0237405 0.222784 0.780527
1078 2 0.0745596 0.198135 0.760484
2998 2 0.097101 0.188511 0.821154
3000 4 0.098452 0.189589 0.79621
1079 4 0.0877938 0.199411 0.781659
60 3 0.298362 0.243115 0.832373
903 4 0.328502 0.221028 0.837682
1093 2 0.274474 0.171474 0.828092
1094 4 0.281846 0.19296 0.838542
58 3 0.276725 0.212351 0.834131
901 2 0.352075 0.220213 0.829387
1065 4 0.490479 0.177529 0.780708
2048 4 0.0573919 0.258123 0.769598
840 4 0.0679307 0.258905 0.751467
1195 2 0.00309793 0.307245 0.795702
1197 4 0.0242745 0.309193 0.808852
780 4 0.0201491 0.310922 0.828724
1243 2 0.181852 0.300672 0.762341
1244 4 0.17663 0.306738 0.786028
1098 4 0.289241 0.293016 0.762512
1096 2 0.307157 0.310189 0.765557
1097 4 0.325073 0.327362 0.768602
3490 2 0.48275 0.2887 0.805471