ITEM: TIMESTEP
3210000
ITEM: NUMBER OF ATOMS
4590
ITEM: BOX BOUNDS pp pp pp
-9.9985700000000008e+00 9.9985700000000008e+00
-9.9985700000000008e+00 9.9985700000000008e+00
-9.9985700000000008e+00 9.9985700000000008e+00
ITEM: ATOMS id type xs ys zs
1327 2 0.0221509 0.0265434 0.0787582
1328 4 0.0441445 0.0384366 0.0786443
875 4 0.134375 0.993434 0.00137923
996 4 0.196708 0.0367815 0.0532274
994 2 0.187436 0.0245804 0.0729844
461 4 0.285345 0.0641074 0.0837362
460 2 0.283102 0.0434906 0.0697685
1564 2 0.321282 0.0119056 0.0441304
462 4 0.280859 0.0228738 0.0558009
1566 4 0.298725 0.0144294 0.0546186
484 2 0.377614 0.0147389 0.0202169
1110 4 0.371423 0.0453748 0.0627036
486 4 0.362948 0.0107751 0.0400758
1565 4 0.343839 0.00938185 0.0336423
1287 4 0.0501546 0.1519 0.0107261
1285 2 0.0733712 0.154487 0.019641
2606 4 0.0163846 0.140864 0.0606913
1286 4 0.0965879 0.157074 0.0285559
1074 4 0.136747 0.157641 0.0779004
476 4 0.231404 0.076986 0.0555362
243 4 0.177937 0.152259 0.0153907
915 4 0.188093 0.135991 0.0113401
914 4 0.228774 0.141389 0.982763
53 3 0.235606 0.168199 0.0104902
913 2 0.208433 0.13869 0.997052
475 2 0.207032 0.0825183 0.0562948
866 4 0.249234 0.08086 0.0484565
867 4 0.27153 0.123671 0.0615253
865 2 0.260382 0.102266 0.0549909
771 4 0.280023 0.131516 0.0459021
769 2 0.304339 0.134444 0.040872
770 4 0.328656 0.137373 0.0358418
2829 4 0.397307 0.095656 0.0207177
746 4 0.378842 0.101214 0.0186795
745 2 0.356542 0.109476 0.0264009
747 4 0.334242 0.117739 0.0341224
557 4 0.391945 0.14585 0.0745474
556 2 0.394995 0.161065 0.0549417
630 4 0.379442 0.130112 0.0810474
2827 2 0.417955 0.0960322 0.00662116
1072 2 0.118813 0.163158 0.0613737
1073 4 0.10088 0.168675 0.044847
241 2 0.168586 0.170383 0.0298561
242 4 0.159234 0.188507 0.0443215
3302 4 0.0950836 0.241985 0.0516816
17 3 0.155643 0.164112 0.0812348
51 1 0.229383 0.179314 0.0298843
54 3 0.207847 0.173182 0.0359662
957 4 0.157671 0.208812 0.0493016
955 2 0.17289 0.223697 0.0624152
357 4 0.225275 0.22183 0.0219101
55 3 0.230421 0.201828 0.0266107
355 2 0.247116 0.23368 0.0191264
52 3 0.243841 0.173442 0.0467856
565 2 0.302679 0.234306 0.996237
566 4 0.317409 0.219278 0.982732
356 4 0.268956 0.24553 0.0163426
567 4 0.287949 0.249334 0.00974103
558 4 0.398046 0.17628 0.0353361
2771 4 0.0055689 0.250323 0.0362757
1213 2 0.0337699 0.273777 0.0617093
394 2 0.0756849 0.323134 0.017534
1215 4 0.0212904 0.259176 0.0457007
395 4 0.0898454 0.302702 0.0202166
3303 4 0.0854456 0.286405 0.0308321
3301 2 0.0902646 0.264195 0.0412568
1241 4 0.133369 0.298444 0.0212611
702 4 0.142292 0.314389 0.025907
700 2 0.1535 0.334188 0.0362789
625 2 0.218539 0.319695 0.0668141
15 3 0.264451 0.256755 0.0329351
665 4 0.279687 0.309347 0.0232595
14 3 0.281978 0.287957 0.0212361
13 3 0.289437 0.273499 0.0555836
11 1 0.283993 0.268429 0.033605
12 3 0.3008 0.255594 0.0245527
664 2 0.261836 0.309434 0.00575257
522 4 0.471232 0.291821 0.0530569
520 2 0.487552 0.294234 0.0342682
521 4 0.503872 0.296648 0.0154796
252 4 0.0439908 0.346918 0.00491179
396 4 0.0615245 0.343566 0.0148514
250 2 0.0240577 0.345531 0.0199427
251 4 0.00412456 0.344144 0.0349735
1595 4 0.0913899 0.394218 0.0680777
455 4 0.0845934 0.406238 0.0532995
1779 4 0.183006 0.359687 0.0468138
701 4 0.164707 0.353987 0.0466508
1777 2 0.187929 0.384117 0.0447851
1778 4 0.192852 0.408547 0.0427565
627 4 0.217474 0.331668 0.0448891
562 2 0.404569 0.366935 0.0291748
564 4 0.394847 0.366601 0.0522083
563 4 0.414292 0.367269 0.0061413
597 4 0.486656 0.380398 0.0865923
454 2 0.0792258 0.415242 0.0305994
456 4 0.0738582 0.424246 0.00789929
4212 4 0.0844285 0.440769 0.00483624
4210 2 0.081715 0.462885 0.993492
788 4 0.205214 0.458614 0.0310917
787 2 0.195337 0.457641 0.0540416
789 4 0.185461 0.456669 0.0769914
1290 4 0.205767 0.447925 0.0136624
523 2 0.407715 0.482154 0.0650341
1329 4 0.000157301 0.0146503 0.0788721
3783 4 0.0108553 0.0733629 0.146847
590 4 0.0796049 0.0264937 0.0910564
589 2 0.0964133 0.0183494 0.10768
591 4 0.113222 0.0102051 0.124303
477 4 0.18266 0.0880506 0.0570534
995 4 0.178164 0.0123794 0.0927415
1108 2 0.368273 0.0571676 0.0845252
25 3 0.349044 0.0611664 0.116198
1109 4 0.365123 0.0689605 0.106347
699 4 0.359836 0.087142 0.165094
691 2 0.069598 0.166938 0.150578
938 4 0.180519 0.154027 0.121245
763 2 0.1642 0.0832438 0.160931
18 3 0.183496 0.167613 0.106227
1505 4 0.205134 0.0870702 0.161943
937 2 0.178833 0.141527 0.142834
765 4 0.187276 0.0901391 0.154212
939 4 0.177147 0.129027 0.164423
654 4 0.305358 0.0828806 0.142728
652 2 0.285867 0.0871929 0.157784
22 3 0.324211 0.0805885 0.136174
24 3 0.359473 0.0770623 0.148698
21 1 0.34626 0.0792559 0.129751
628 2 0.372626 0.109638 0.0936785
629 4 0.36581 0.0891644 0.10631
23 3 0.351933 0.0986461 0.118338
2848 2 0.0227068 0.192619 0.123202
692 4 0.0549781 0.169949 0.130518
2849 4 0.0470537 0.187063 0.124443
2850 4 0.99836 0.198175 0.12196
16 1 0.166377 0.178824 0.0952884
20 3 0.151461 0.186937 0.110465
2760 4 0.140947 0.205206 0.112387
2759 4 0.125342 0.224446 0.155827
2758 2 0.133145 0.214826 0.134107
366 4 0.12957 0.211832 0.171932
19 3 0.175102 0.196236 0.0826749
956 4 0.18811 0.238583 0.0755288
372 4 0.2008 0.207216 0.150211
380 4 0.203507 0.234191 0.0894879
379 2 0.19768 0.224642 0.11185
381 4 0.191853 0.215093 0.134211
400 2 0.31828 0.230363 0.137147
402 4 0.333288 0.231947 0.117211
401 4 0.303273 0.22878 0.157083
422 4 0.298149 0.227886 0.175711
28 3 0.359552 0.220112 0.0935058
29 3 0.349379 0.242112 0.122779
571 2 0.37673 0.209637 0.15889
573 4 0.385464 0.207198 0.135589
27 3 0.381639 0.222852 0.123793
26 1 0.367218 0.234409 0.110096
30 3 0.378248 0.251989 0.100718
333 4 0.453184 0.163308 0.158276
1214 4 0.0462494 0.288377 0.0777179
288 4 0.0596502 0.272023 0.138977
286 2 0.0414108 0.287118 0.147017
293 4 0.0741435 0.265082 0.129075
287 4 0.0231713 0.302213 0.155057
292 2 0.0900953 0.281281 0.118668
294 4 0.106047 0.297481 0.108262
450 4 0.117819 0.312242 0.104215
448 2 0.136814 0.313371 0.120434
449 4 0.15581 0.314501 0.136654
507 4 0.144458 0.309801 0.152834
626 4 0.219604 0.307723 0.0887392
446 4 0.237434 0.299382 0.088099
445 2 0.251534 0.294234 0.108096
447 4 0.265633 0.289087 0.128093
494 4 0.268192 0.30222 0.143567
493 2 0.292454 0.308256 0.143892
495 4 0.316715 0.314293 0.144218
386 4 0.334596 0.310632 0.137351
2516 4 0.391783 0.266612 0.103598
2515 2 0.396063 0.287812 0.116147
2517 4 0.400342 0.309011 0.128695
2702 4 0.416651 0.313273 0.139613
385 2 0.350181 0.329931 0.134216
519 4 0.487616 0.334145 0.131806
2853 4 0.496155 0.319107 0.122151
2852 4 0.491988 0.269411 0.125852
2851 2 0.494071 0.294259 0.124002
1594 2 0.0898543 0.405784 0.090192
836 4 0.139474 0.356345 0.0817942
835 2 0.142427 0.366822 0.104304
837 4 0.145381 0.377299 0.126814
291 4 0.146961 0.392137 0.139917
289 2 0.163017 0.411302 0.139635
754 2 0.234261 0.396895 0.162377
756 4 0.23186 0.421228 0.157148
387 4 0.365766 0.34923 0.131081
102 3 0.373636 0.357346 0.147607
2650 2 0.418776 0.399305 0.164542
517 2 0.48675 0.355613 0.119017
518 4 0.485884 0.377081 0.106228
595 2 0.483733 0.405108 0.0890465
4005 4 0.0490724 0.493377 0.124509
1766 4 0.0482055 0.471788 0.123642
1765 2 0.0643417 0.453161 0.119418
1767 4 0.0804779 0.434534 0.115195
1596 4 0.0883186 0.417351 0.112306
1223 4 0.16123 0.487414 0.132782
1224 4 0.182433 0.467098 0.0923051
290 4 0.179073 0.430467 0.139354
344 4 0.231535 0.433386 0.140945
1222 2 0.171832 0.477256 0.112544
343 2 0.213343 0.449999 0.145217
345 4 0.195151 0.466611 0.14949
314 4 0.188381 0.477293 0.165357
659 4 0.363739 0.520969 0.13133
482 4 0.422547 0.454735 0.0840968
2651 4 0.437023 0.40316 0.147888
2450 4 0.487797 0.434977 0.16063
524 4 0.410502 0.47116 0.087317
2451 4 0.455602 0.403667 0.138634
2449 2 0.471699 0.419322 0.149632
481 2 0.446789 0.450758 0.0887535
483 4 0.471031 0.446781 0.0934102
108 3 0.477847 0.465809 0.0957503
596 4 0.480809 0.429819 0.0915008
1422 4 0.120869 0.0691645 0.251963
1403 4 0.118444 0.0714498 0.232018
1402 2 0.128981 0.0725646 0.209371
1404 4 0.139519 0.0736795 0.186724
1506 4 0.224709 0.0443613 0.179075
1504 2 0.214922 0.0657157 0.170509
1785 4 0.335409 0.00922064 0.243793
653 4 0.266376 0.0915052 0.17284
1784 4 0.352068 0.0499789 0.220088
1783 2 0.343738 0.0295998 0.231941
698 4 0.353046 0.0688586 0.211141
697 2 0.356441 0.0780003 0.188117
693 4 0.0842179 0.163928 0.170637
705 4 0.0329312 0.147362 0.209711
299 4 0.0494695 0.162371 0.208732
764 4 0.141125 0.0763485 0.167651
544 2 0.207024 0.124245 0.196958
546 4 0.227278 0.123266 0.211586
545 4 0.18677 0.125225 0.18233
743 4 0.24637 0.117465 0.215836
744 4 0.272655 0.0832854 0.190507
742 2 0.259512 0.100375 0.203172
354 4 0.297363 0.154367 0.169868
332 4 0.497723 0.154577 0.179269
331 2 0.475453 0.158942 0.168773
3677 4 0.433924 0.126659 0.254871
298 2 0.0622195 0.183785 0.210745
300 4 0.0749694 0.205199 0.212758
365 4 0.0911431 0.21091 0.20392
364 2 0.110356 0.211371 0.187926
388 2 0.164186 0.211913 0.22261
389 4 0.162107 0.209154 0.247374
390 4 0.166265 0.214673 0.197847
371 4 0.161458 0.217746 0.179229
370 2 0.181129 0.212481 0.16472
353 4 0.323347 0.197062 0.171515
352 2 0.310355 0.175715 0.170692
421 2 0.277063 0.241188 0.173802
572 4 0.367997 0.212077 0.182191
312 4 0.452739 0.183107 0.162079
2894 4 0.426585 0.234013 0.172924
310 2 0.434588 0.200006 0.165266
311 4 0.416438 0.216905 0.168453
2616 4 0.0224278 0.314194 0.170621
2614 2 0.0181613 0.331902 0.18775
338 4 0.0852865 0.270279 0.213616
339 4 0.107062 0.314422 0.204787
337 2 0.0961741 0.29235 0.209201
505 2 0.146551 0.324865 0.172679
750 4 0.231522 0.308484 0.187529
748 2 0.247838 0.291152 0.179876
509 4 0.227358 0.324307 0.19836
749 4 0.264154 0.27382 0.172224
423 4 0.255978 0.25449 0.171893
737 4 0.34048 0.312669 0.242744
612 4 0.350278 0.319455 0.226508
2701 2 0.417708 0.311333 0.164519
610 2 0.35302 0.341042 0.214193
2703 4 0.418765 0.309393 0.189425
2837 4 0.428435 0.297182 0.200795
2893 2 0.429026 0.255817 0.184915
2895 4 0.431467 0.277622 0.196906
2836 2 0.42536 0.302127 0.225111
2838 4 0.422286 0.307073 0.249427
602 4 0.00718578 0.358355 0.221449
2615 4 0.0138948 0.34961 0.204879
601 2 0.999503 0.36181 0.244991
506 4 0.148645 0.33993 0.192525
648 4 0.15252 0.359018 0.198808
647 4 0.138253 0.404095 0.215093
646 2 0.145387 0.381556 0.20695
510 4 0.220391 0.370146 0.179626
508 2 0.223874 0.347226 0.188993
755 4 0.236661 0.372563 0.167607
104 3 0.393069 0.378328 0.171994
105 3 0.361452 0.391517 0.156372
101 1 0.371807 0.37291 0.164447
103 3 0.359338 0.363795 0.181763
611 4 0.355763 0.362629 0.201877
588 4 0.393547 0.400861 0.198383
2652 4 0.400529 0.395449 0.181196
362 4 0.0730744 0.405135 0.208066
361 2 0.0778389 0.420232 0.188713
621 4 0.0739601 0.430187 0.240011
363 4 0.0826033 0.43533 0.16936
619 2 0.0501939 0.429442 0.247744
548 4 0.0103063 0.431523 0.244334
620 4 0.0264277 0.428697 0.255476
2954 4 0.150645 0.418332 0.209815
2953 2 0.1541 0.443049 0.208302
2955 4 0.157555 0.467767 0.206789
313 2 0.191998 0.496858 0.1805
1557 4 0.271912 0.480402 0.232184
1555 2 0.272633 0.48716 0.208122
1556 4 0.273354 0.493918 0.18406
586 2 0.384902 0.423441 0.204753
587 4 0.376257 0.446022 0.211123
714 4 0.365747 0.4707 0.237825
414 4 0.353234 0.484377 0.245498
1420 2 0.106202 0.0493132 0.255958
1421 4 0.0915341 0.0294619 0.259954
1416 4 0.0989472 0.0147114 0.272031
466 2 0.156353 0.0375158 0.282524
467 4 0.138612 0.0199326 0.281389
468 4 0.174093 0.0550989 0.283659
1700 4 0.187358 0.062717 0.271511
3889 2 0.412475 0.0432829 0.315572
3890 4 0.402578 0.0655189 0.321298
497 4 0.360713 0.0828941 0.286508
708 4 0.422397 0.0726668 0.320846
3891 4 0.422371 0.0210468 0.309845
2744 4 0.440042 0.0188311 0.299462
2743 2 0.462142 0.0245808 0.289278
304 2 0.485697 0.065051 0.260353
305 4 0.460757 0.063623 0.259306
3678 4 0.460414 0.0842765 0.256523
2745 4 0.484242 0.0303304 0.279094
2535 4 0.0454128 0.157723 0.33744
417 4 0.156048 0.164281 0.289566
1699 2 0.189682 0.0873418 0.275172
415 2 0.173793 0.148133 0.282529
1701 4 0.192006 0.111967 0.278833
416 4 0.191539 0.131985 0.275491
498 4 0.318653 0.0874288 0.313175
632 4 0.298984 0.0879281 0.316015
631 2 0.281308 0.0951605 0.299877
633 4 0.263632 0.102393 0.283739
496 2 0.339683 0.0851614 0.299841
3676 2 0.447169 0.105468 0.255697
469 2 0.032431 0.197418 0.318012
470 4 0.0281581 0.219013 0.306157
600 4 0.147722 0.219964 0.309515
260 4 0.166769 0.217975 0.30379
261 4 0.208246 0.216064 0.27592
259 2 0.187508 0.21702 0.289855
418 2 0.396799 0.235299 0.295015
419 4 0.404475 0.217424 0.279308
420 4 0.389123 0.253174 0.310723
766 2 0.245695 0.324246 0.313201
736 2 0.328243 0.30659 0.263683
738 4 0.316005 0.30051 0.284623
247 2 0.299397 0.299191 0.310971
248 4 0.297316 0.294715 0.28646
279 4 0.383484 0.268775 0.319574
603 4 0.991821 0.365264 0.268533
768 4 0.258181 0.335127 0.294468
249 4 0.301477 0.303668 0.335483
308 4 0.25082 0.350977 0.285304
309 4 0.284429 0.386882 0.276251
307 2 0.267624 0.36893 0.280777
376 2 0.383468 0.335464 0.329131
267 4 0.415686 0.342113 0.298826
377 4 0.400217 0.33953 0.311018
265 2 0.435987 0.333911 0.310901
266 4 0.456287 0.325708 0.322976
614 4 0.469928 0.337621 0.328467
3670 2 0.0293116 0.485366 0.337016
3672 4 0.0530821 0.48308 0.329606
681 4 0.0725818 0.484158 0.33459
679 2 0.0866746 0.485417 0.313975
680 4 0.100768 0.486677 0.29336
776 4 0.107873 0.470868 0.282469
777 4 0.0891125 0.437222 0.250584
775 2 0.0984928 0.454045 0.266526
1821 4 0.155759 0.495541 0.264913
1819 2 0.171848 0.486621 0.281847
1820 4 0.187936 0.477702 0.298782
1641 4 0.18883 0.478982 0.318999
713 4 0.391713 0.445122 0.272063
712 2 0.37873 0.457911 0.254944
593 4 0.412027 0.447157 0.271064
1332 4 0.459203 0.47566 0.30518
592 2 0.428723 0.454182 0.2883
594 4 0.445418 0.461207 0.305537
2635 2 0.0100008 0.0751575 0.376183
2636 4 0.00559976 0.0799121 0.352034
2637 4 0.0144018 0.0704028 0.400333
529 2 0.0795097 0.0348279 0.334718
531 4 0.0691188 0.054491 0.323291
530 4 0.0899006 0.0151649 0.346144
1338 4 0.102518 0.00308734 0.336344
342 4 0.15853 0.0102034 0.39529
369 4 0.097945 0.0687901 0.401247
1646 4 0.156676 0.991724 0.38655
340 2 0.182628 0.0148542 0.390515
341 4 0.206727 0.0195051 0.385739
605 4 0.212868 0.00597918 0.399526
604 2 0.237254 0.00454945 0.404858
321 4 0.179429 0.0857679 0.392068
606 4 0.261641 0.00311972 0.41019
2656 2 0.394644 0.0255718 0.416522
2658 4 0.391029 0.0245356 0.391802
2533 2 0.0407979 0.13776 0.351771
2534 4 0.036183 0.117797 0.366102
733 2 0.068485 0.141733 0.402708
734 4 0.0842697 0.161096 0.401657
1182 4 0.11594 0.0749823 0.398496
1180 2 0.138678 0.082445 0.391253
1181 4 0.161416 0.0899076 0.38401
367 2 0.0832442 0.0889559 0.402798
319 2 0.203923 0.0904914 0.390353
320 4 0.228416 0.0952148 0.388638
404 4 0.241838 0.107506 0.396625
403 2 0.246993 0.127384 0.382361
1517 4 0.31765 0.157408 0.360748
1518 4 0.268427 0.158785 0.369461
405 4 0.252147 0.147263 0.368098
1516 2 0.293039 0.158096 0.365104
706 2 0.427352 0.0943917 0.332188
488 4 0.487678 0.139784 0.356214
707 4 0.432308 0.116117 0.34353
487 2 0.463969 0.132242 0.358698
489 4 0.44026 0.124701 0.361183
471 4 0.0367038 0.175822 0.329867
458 4 0.0379826 0.230667 0.40461
347 4 0.0833196 0.182007 0.408453
598 2 0.153219 0.220973 0.333886
348 4 0.124298 0.203787 0.389823
346 2 0.103809 0.192897 0.399138
599 4 0.158717 0.221982 0.358257
1199 4 0.153982 0.220549 0.377834
1198 2 0.17562 0.218949 0.39026
1200 4 0.197258 0.217348 0.402687
1212 4 0.211005 0.205153 0.409081
1210 2 0.232609 0.192623 0.407873
803 4 0.303964 0.235535 0.399105
802 2 0.29055 0.256498 0.396704
474 4 0.316387 0.220602 0.404886
1211 4 0.254213 0.180093 0.406665
274 2 0.399542 0.203675 0.411189
472 2 0.338748 0.209437 0.40419
276 4 0.421446 0.214837 0.406628
650 4 0.44134 0.21183 0.406289
649 2 0.4451 0.235783 0.412394
1151 4 0.0564087 0.291909 0.368422
1150 2 0.0467234 0.313535 0.376404
1152 4 0.0370381 0.33516 0.384386
457 2 0.0357949 0.255237 0.408697
677 4 0.0931561 0.255019 0.335137
676 2 0.104469 0.276039 0.342576
678 4 0.115783 0.29706 0.350015
569 4 0.111376 0.31455 0.360036
568 2 0.110942 0.327158 0.381623
767 4 0.23321 0.313365 0.331933
504 4 0.248259 0.308785 0.344208
502 2 0.261571 0.302485 0.364413
503 4 0.274883 0.296184 0.384619
804 4 0.277136 0.277462 0.394303
277 2 0.377777 0.26817 0.343909
542 4 0.349759 0.32347 0.352617
278 4 0.372069 0.267565 0.368245
541 2 0.332317 0.339996 0.359535
651 4 0.44886 0.259736 0.4185
872 4 0.45755 0.271974 0.405745
871 2 0.457577 0.287982 0.424953
1398 4 0.0724543 0.405325 0.393001
936 4 0.0761635 0.397527 0.411905
934 2 0.0869416 0.374965 0.411967
570 4 0.110508 0.339766 0.403211
727 2 0.332076 0.388556 0.393863
729 4 0.323596 0.372044 0.377111
543 4 0.314874 0.356521 0.366453
378 4 0.366719 0.331397 0.347245
728 4 0.340556 0.405067 0.410615
613 2 0.484854 0.357018 0.33358
813 4 0.494346 0.38856 0.354304
3671 4 0.00554121 0.487653 0.344427
1396 2 0.0809685 0.426169 0.382127
1397 4 0.0894827 0.447012 0.371254
1752 4 0.106838 0.453408 0.374807
1750 2 0.118757 0.471271 0.387615
1751 4 0.130676 0.489134 0.400422
1639 2 0.184212 0.464003 0.338481
1446 4 0.181221 0.450151 0.377316
1640 4 0.179595 0.449025 0.357962
1444 2 0.188985 0.436756 0.396949
636 4 0.175965 0.52339 0.40731
1587 4 0.31321 0.493892 0.402615
1801 2 0.394492 0.497118 0.389686
1802 4 0.414839 0.484849 0.397474
1473 4 0.431781 0.484945 0.385675
1471 2 0.446111 0.483415 0.406108
2604 4 0.0218286 0.0533421 0.404883
2602 2 0.0139731 0.0471754 0.427806
2603 4 0.00611755 0.0410088 0.450728
3462 4 0.999794 0.0446959 0.469392
1602 4 0.128391 0.0443736 0.510188
850 2 0.142835 0.0136204 0.500124
1600 2 0.130988 0.0674787 0.500991
682 2 0.203387 0.0633868 0.441115
683 4 0.182751 0.0494206 0.443181
684 4 0.224024 0.077353 0.43905
256 2 0.303919 0.0427742 0.492474
258 4 0.32678 0.0420488 0.482374
1817 4 0.347513 0.0414474 0.482809
2657 4 0.39826 0.026608 0.441241
1816 2 0.364102 0.0373661 0.464552
1818 4 0.380692 0.0332848 0.446296
480 4 0.412256 0.0171502 0.475784
478 2 0.418945 0.998441 0.460605
1026 4 0.426431 0.0273714 0.484508
368 4 0.0685434 0.109122 0.40435
735 4 0.0527003 0.12237 0.40376
431 4 0.23935 0.0866186 0.428982
432 4 0.246162 0.123147 0.462448
430 2 0.242756 0.104883 0.445715
792 4 0.229224 0.128504 0.47123
790 2 0.227145 0.125017 0.495902
2914 2 0.081699 0.242117 0.487012
473 4 0.36111 0.198272 0.403494
275 4 0.377637 0.192514 0.415749
1033 2 0.0147318 0.310235 0.429816
459 4 0.0336072 0.279807 0.412784
1035 4 0.0284193 0.289311 0.429784
2915 4 0.0876821 0.249183 0.463786
717 4 0.0998874 0.263871 0.465945
715 2 0.120511 0.27755 0.462378
716 4 0.141135 0.291229 0.458812
1178 4 0.148824 0.309981 0.461376
1177 2 0.153651 0.318774 0.484279
238 2 0.230575 0.322836 0.480078
375 4 0.307203 0.307197 0.453654
709 2 0.276879 0.331966 0.448044
711 4 0.299314 0.32205 0.44319
373 2 0.326052 0.290983 0.456298
374 4 0.344902 0.274769 0.458942
873 4 0.457604 0.303989 0.444161
1192 2 0.440672 0.330734 0.461603
1193 4 0.448974 0.321112 0.44007
499 2 0.0443765 0.336353 0.475933
501 4 0.0298287 0.345489 0.457765
1219 2 0.00645632 0.371286 0.42985
1220 4 0.016865 0.355611 0.446317
935 4 0.0977197 0.352404 0.41203
239 4 0.236978 0.340269 0.463337
710 4 0.254445 0.341882 0.452897
560 4 0.33265 0.404703 0.428768
559 2 0.340782 0.394992 0.450326
561 4 0.348914 0.385281 0.471884
1194 4 0.432369 0.340356 0.483136
900 4 0.445583 0.328022 0.4919
334 2 0.423109 0.423824 0.499472
3352 2 0.0809823 0.445861 0.494538
4297 2 0.112817 0.485388 0.464635
3353 4 0.100095 0.461766 0.491902
4298 4 0.107204 0.462595 0.473246
2221 2 0.205465 0.431232 0.452274
1445 4 0.196748 0.423361 0.416583
2222 4 0.208847 0.419887 0.43025
2223 4 0.202083 0.442577 0.474297
383 4 0.184513 0.451812 0.470506
753 4 0.293187 0.490857 0.408407
751 2 0.299669 0.47444 0.426117
752 4 0.306151 0.458022 0.443827
1400 4 0.393988 0.505459 0.482445
336 4 0.419224 0.435068 0.47748
1453 2 0.401619 0.470062 0.47665
1455 4 0.385181 0.486913 0.485077
2740 2 0.467919 0.46733 0.467394
2741 4 0.460451 0.473583 0.444366
2742 4 0.475388 0.461077 0.490422
1472 4 0.46044 0.481885 0.426541
1454 4 0.418056 0.453211 0.468223
852 4 0.145685 0.0332889 0.515296
725 4 0.227813 0.0388466 0.544712
724 2 0.249333 0.0393861 0.531994
887 4 0.240626 0.0694332 0.589268
726 4 0.270853 0.0399257 0.519275
257 4 0.281058 0.0434996 0.502574
409 2 0.286945 0.0031659 0.561552
1060 2 0.361312 0.0578451 0.554783
1062 4 0.36752 0.0465724 0.533346
1218 4 0.382161 0.0343333 0.539057
1216 2 0.387535 0.0100154 0.541278
1025 4 0.434259 0.0344418 0.53339
1024 2 0.430345 0.0309066 0.508949
4226 4 0.495759 0.0781315 0.563782
4225 2 0.501024 0.0599303 0.580096
1601 4 0.133585 0.0905838 0.491794
1283 4 0.155061 0.16814 0.560907
1282 2 0.130447 0.170032 0.564873
858 4 0.241886 0.085178 0.576752
791 4 0.225067 0.121531 0.520573
856 2 0.238112 0.100504 0.55736
1276 2 0.187766 0.169588 0.568226
857 4 0.234337 0.11583 0.537968
3731 4 0.338133 0.130517 0.575726
3730 2 0.338231 0.10552 0.576276
3732 4 0.338328 0.0805226 0.576826
515 4 0.31997 0.13453 0.584203
3267 4 0.0675893 0.265551 0.55426
3265 2 0.0679642 0.245066 0.539927
3266 4 0.068339 0.224582 0.525594
2916 4 0.075716 0.23505 0.510237
1278 4 0.170609 0.180074 0.553366
3045 4 0.0860108 0.172782 0.567481
1284 4 0.105833 0.171925 0.56884
514 2 0.31306 0.155581 0.572615
516 4 0.306151 0.176632 0.561027
2508 4 0.433712 0.25287 0.572405
3264 4 0.0697213 0.316706 0.506552
3262 2 0.0793898 0.297814 0.519773
500 4 0.0589242 0.327217 0.494101
3263 4 0.0890584 0.278923 0.532994
616 2 0.120949 0.281764 0.553069
617 4 0.136191 0.294645 0.568133
618 4 0.105707 0.268884 0.538004
695 4 0.149378 0.309295 0.565688
694 2 0.152711 0.323179 0.545163
1179 4 0.158477 0.327566 0.507183
696 4 0.156044 0.337063 0.524637
668 4 0.237541 0.295853 0.561691
667 2 0.233598 0.295091 0.537012
669 4 0.229655 0.29433 0.512333
240 4 0.224172 0.305402 0.496819
806 4 0.254758 0.307578 0.561083
805 2 0.27215 0.324121 0.568085
797 4 0.312678 0.278467 0.570601
796 2 0.325471 0.287637 0.551174
798 4 0.338265 0.296807 0.531747
899 4 0.470537 0.315183 0.53329
954 4 0.455119 0.302859 0.538064
953 4 0.430204 0.271345 0.567845
952 2 0.442662 0.287102 0.552955
898 2 0.45806 0.321602 0.512595
1122 4 0.128384 0.40576 0.537279
2027 4 0.323233 0.4124 0.534945
2026 2 0.339472 0.419743 0.552483
1238 4 0.362168 0.339633 0.519739
1237 2 0.356937 0.355225 0.538573
1007 4 0.344007 0.375628 0.576368
1239 4 0.351707 0.370816 0.557408
930 4 0.36992 0.414785 0.576704
2028 4 0.355711 0.427085 0.570021
661 2 0.438741 0.405872 0.560488
662 4 0.446808 0.409376 0.583894
663 4 0.430674 0.402369 0.537082
335 4 0.426994 0.41258 0.521464
3354 4 0.06187 0.429957 0.497174
982 2 0.0163491 0.455991 0.517255
983 4 0.0288802 0.477536 0.51527
2750 4 0.029983 0.497395 0.52134
408 4 0.0275399 0.500605 0.593624
984 4 0.00381791 0.434445 0.519241
406 2 0.0394734 0.488435 0.57533
407 4 0.0514069 0.476266 0.557036
1121 4 0.128112 0.442426 0.571283
1120 2 0.128248 0.424093 0.554281
384 4 0.168029 0.462775 0.516427
1159 2 0.165412 0.491946 0.543651
1173 4 0.111639 0.488989 0.561217
382 2 0.176271 0.457293 0.493467
1160 4 0.169888 0.468326 0.536779
880 2 0.246784 0.488215 0.527218
773 4 0.308455 0.423111 0.52787
881 4 0.25938 0.467457 0.533188
774 4 0.275115 0.458397 0.539871
772 2 0.291785 0.440754 0.533871
928 2 0.387729 0.428652 0.587462
2141 4 0.418422 0.45241 0.586625
2140 2 0.416826 0.475392 0.576908
4338 4 0.0487673 0.0116338 0.648018
4336 2 0.0710848 0.00742297 0.658476
2132 4 0.163198 0.0929254 0.659976
962 4 0.147854 0.0819697 0.666047
4337 4 0.0934022 0.00321208 0.668935
2131 2 0.17642 0.0885816 0.639204
1524 4 0.224442 0.0572127 0.650906
2133 4 0.189642 0.0842378 0.618432
888 4 0.229516 0.071195 0.637993
886 2 0.235071 0.0703141 0.61363
1059 4 0.280656 0.0329184 0.594172
1057 2 0.275819 0.017457 0.613217
1058 4 0.270981 0.00199564 0.632262
1522 2 0.235191 0.066402 0.671526
410 4 0.286232 0.0203127 0.579736
2201 4 0.256341 0.990491 0.636392
1061 4 0.355103 0.0691178 0.576221
3424 2 0.405645 0.00709548 0.673746
1032 4 0.481887 0.0625677 0.643264
3402 4 0.462707 0.0626738 0.63739
3400 2 0.439332 0.0703243 0.632893
1277 4 0.204924 0.159101 0.583086
1272 4 0.196976 0.144227 0.594936
1271 4 0.199499 0.0951839 0.604376
1270 2 0.198237 0.119706 0.599656
977 4 0.216557 0.169584 0.647911
1262 4 0.292622 0.120374 0.642208
1261 2 0.311834 0.1281 0.656222
1141 2 0.409893 0.11495 0.6435
1142 4 0.404786 0.132481 0.660581
48 3 0.343798 0.149792 0.664063
1143 4 0.415001 0.0974191 0.626419
3401 4 0.415956 0.0779747 0.628395
1030 2 0.49374 0.0843875 0.640337
3044 4 0.0718734 0.214795 0.590628
3078 4 0.0169599 0.223938 0.626799
3033 4 0.0300349 0.232964 0.640426
3031 2 0.033652 0.233908 0.665148
3043 2 0.0789421 0.193789 0.579054
1166 4 0.24277 0.209272 0.615295
1165 2 0.253406 0.231294 0.610091
840 4 0.235079 0.175237 0.652553
838 2 0.246803 0.196865 0.657019
1167 4 0.264043 0.253316 0.604888
839 4 0.258528 0.218493 0.661486
1029 4 0.4061 0.251452 0.622246
1027 2 0.393591 0.250906 0.643889
2506 2 0.414848 0.253925 0.588783
640 2 0.448746 0.209604 0.655684
642 4 0.473122 0.210448 0.650181
1068 4 0.0751778 0.298922 0.646606
822 4 0.0712528 0.302664 0.666305
1066 2 0.099156 0.305683 0.648731
816 4 0.126484 0.332109 0.64874
1067 4 0.123134 0.312444 0.650856
1137 4 0.282274 0.255112 0.613804
1136 4 0.321798 0.26812 0.586067
1135 2 0.302036 0.261616 0.599935
2507 4 0.395985 0.254981 0.605161
1010 4 0.40982 0.328478 0.642196
925 2 0.441069 0.323633 0.636776
927 4 0.456401 0.31016 0.622335
926 4 0.425736 0.337107 0.651217
1395 4 0.21663 0.345019 0.651584
1393 2 0.23648 0.345489 0.636388
807 4 0.289543 0.340663 0.575086
1006 2 0.321678 0.365158 0.580487
1008 4 0.299348 0.354689 0.584607
1394 4 0.256331 0.345959 0.621192
890 4 0.302311 0.378969 0.638654
889 2 0.285368 0.367774 0.624067
891 4 0.268425 0.356579 0.609479
801 4 0.321296 0.38425 0.635151
1009 2 0.390729 0.341585 0.651624
799 2 0.34067 0.377412 0.649401
800 4 0.360045 0.370574 0.66365
1011 4 0.371637 0.354692 0.661053
878 4 0.0116564 0.448964 0.589706
1191 4 0.0937424 0.45209 0.645747
1189 2 0.0798147 0.460673 0.664656
2154 4 0.222816 0.474609 0.622554
2152 2 0.229535 0.451134 0.627936
2153 4 0.236253 0.427659 0.633318
1176 4 0.252442 0.419369 0.636881
2174 4 0.231586 0.490787 0.613339
1229 4 0.334745 0.467476 0.652866
1228 2 0.321322 0.488547 0.653876
1174 2 0.259417 0.418425 0.660874
929 4 0.405538 0.442519 0.59822
3123 4 0.438931 0.426113 0.589376
3064 2 0.492273 0.442256 0.646042
3121 2 0.448403 0.436419 0.610094
3122 4 0.457875 0.446726 0.630812
3065 4 0.471356 0.455469 0.642423
4194 4 0.042254 0.0560322 0.751221
4192 2 0.0662407 0.0498915 0.747741
1523 4 0.24594 0.0755914 0.692147
1155 4 0.336349 0.0333328 0.660931
1781 4 0.24065 0.0693949 0.7099
1780 2 0.257854 0.0827702 0.722161
1153 2 0.355928 0.0300092 0.676124
1154 4 0.375506 0.0266855 0.691316
43 3 0.374368 0.0306876 0.712204
41 1 0.395243 0.0404526 0.714903
44 3 0.393383 0.0635555 0.713808
42 3 0.403563 0.0346321 0.735544
45 3 0.409447 0.0330256 0.698725
3425 4 0.394758 0.0195969 0.692464
1092 4 0.423355 0.0328872 0.737439
1090 2 0.425841 0.0115786 0.750282
961 2 0.127658 0.0966178 0.667708
963 4 0.107463 0.111266 0.66937
2049 4 0.103937 0.142609 0.731428
2048 4 0.113439 0.118558 0.688626
2047 2 0.108688 0.130584 0.710027
1256 4 0.0994821 0.138302 0.750394
1078 2 0.191555 0.129953 0.716044
1079 4 0.17538 0.130605 0.735099
1080 4 0.207731 0.129302 0.696989
978 4 0.200178 0.133499 0.678413
976 2 0.208368 0.151542 0.663162
1263 4 0.331046 0.135826 0.670236
1782 4 0.275057 0.0961456 0.734422
841 2 0.328444 0.110945 0.705988
842 4 0.323243 0.0933311 0.722955
965 4 0.274242 0.109748 0.748647
843 4 0.333644 0.128558 0.68902
50 3 0.379049 0.14881 0.677255
1086 4 0.397013 0.148311 0.666935
47 3 0.351366 0.133571 0.697112
46 1 0.357114 0.150833 0.683036
49 3 0.353653 0.170961 0.694049
830 4 0.339244 0.165523 0.705256
2051 4 0.353475 0.168375 0.740891
3032 4 0.0372691 0.234852 0.689871
4287 4 0.0255025 0.219249 0.693451
831 4 0.31048 0.197335 0.730972
1130 4 0.266322 0.209582 0.677868
1129 2 0.273798 0.229659 0.690761
1131 4 0.281273 0.249735 0.703654
829 2 0.324862 0.181429 0.718114
1084 2 0.40568 0.171628 0.669463
3336 4 0.370654 0.177135 0.734839
3334 2 0.393669 0.1869 0.735261
3335 4 0.416683 0.196665 0.735683
1028 4 0.381082 0.250361 0.665532
1085 4 0.414347 0.194945 0.671991
1065 4 0.38694 0.238937 0.745804
641 4 0.42437 0.208761 0.661186
1113 4 0.43673 0.192681 0.732704
3385 2 0.0131975 0.281259 0.722433
820 2 0.0513591 0.291484 0.676524
821 4 0.0314654 0.280303 0.686743
3387 4 0.0149921 0.28407 0.697653
3386 4 0.0114028 0.278447 0.747214
814 2 0.141354 0.340707 0.66691
8 3 0.254261 0.276203 0.701183
10 3 0.271104 0.279667 0.734679
6 1 0.273839 0.282024 0.712193
9 3 0.291316 0.268619 0.704895
7 3 0.278809 0.303972 0.707425
3114 4 0.360948 0.249363 0.665875
3113 4 0.358572 0.283495 0.702345
3112 2 0.35976 0.266429 0.68411
1063 2 0.39057 0.261528 0.755885
815 4 0.156224 0.349306 0.685079
1259 4 0.215936 0.334173 0.66813
1258 2 0.195172 0.337862 0.681562
1260 4 0.174408 0.341552 0.694994
1279 2 0.0269281 0.450851 0.736162
3431 4 0.0638926 0.487828 0.67958
897 4 0.0687394 0.463597 0.747035
1280 4 0.00507104 0.441012 0.729046
1281 4 0.0487852 0.46069 0.743278
1190 4 0.065887 0.469255 0.683564
3224 4 0.151443 0.43543 0.734882
1905 4 0.279774 0.419967 0.700114
1175 4 0.266392 0.417482 0.684866
1903 2 0.285392 0.433038 0.720676
1904 4 0.29101 0.446108 0.741237
1980 4 0.30032 0.517825 0.671852
4193 4 0.0902274 0.0437509 0.744261
2255 4 0.104487 0.0390677 0.75766
2254 2 0.124167 0.0265526 0.766672
2256 4 0.143848 0.0140375 0.775685
945 4 0.154773 0.0270316 0.786178
943 2 0.178703 0.0216997 0.791091
907 2 0.240056 0.0221089 0.781429
944 4 0.202632 0.0163678 0.796004
909 4 0.222359 0.0110065 0.795167
908 4 0.257753 0.0332113 0.767691
2399 4 0.27224 0.0192947 0.774241
2398 2 0.29334 0.032665 0.773146
2400 4 0.31444 0.0460352 0.772051
2003 4 0.403923 0.0239213 0.841672
2002 2 0.419575 0.0324793 0.824152
2004 4 0.435227 0.0410373 0.806632
3268 2 0.462366 0.064404 0.814821