ITEM: TIMESTEP
4030000
ITEM: NUMBER OF ATOMS
4590
ITEM: BOX BOUNDS pp pp pp
-9.9985700000000008e+00 9.9985700000000008e+00
-9.9985700000000008e+00 9.9985700000000008e+00
-9.9985700000000008e+00 9.9985700000000008e+00
ITEM: ATOMS id type xs ys zs
1038 4 0.0149405 0.0602988 0.0123349
1036 2 0.0138847 0.0821941 0.0243624
490 2 0.120609 0.0333316 0.0357616
491 4 0.123898 0.0501104 0.0175179
875 4 0.11239 0.0568794 0.0037177
492 4 0.11732 0.0165529 0.0540054
1504 2 0.133739 0.0803258 0.0738772
1506 4 0.157273 0.0729031 0.0779073
2467 2 0.48449 0.02438 0.0608207
2468 4 0.463709 0.0192211 0.0479092
1125 4 0.997295 0.116523 0.0406268
242 4 0.0668045 0.142093 0.0655526
241 2 0.0825436 0.122666 0.0653057
1073 4 0.0693543 0.161525 0.0628381
1037 4 0.0128288 0.104089 0.0363898
1505 4 0.110206 0.0877485 0.069847
770 4 0.236669 0.142788 0.0337257
769 2 0.243058 0.13796 0.0574124
572 4 0.327515 0.15087 0.0612039
771 4 0.249446 0.133132 0.081099
485 4 0.378547 0.0915315 0.00884636
484 2 0.379706 0.0959407 0.0334308
486 4 0.380865 0.10035 0.0580153
629 4 0.368366 0.113918 0.0663435
628 2 0.350425 0.12026 0.0825639
1072 2 0.0788251 0.180247 0.0764383
1254 4 0.0761986 0.168652 0.0247024
1252 2 0.0631211 0.168466 0.00339225
914 4 0.213202 0.182742 0.0130761
573 4 0.3159 0.183841 0.0254446
747 4 0.315534 0.196022 0.00974728
571 2 0.321708 0.167356 0.0433242
29 3 0.395145 0.169776 0.0338797
28 3 0.377193 0.190028 0.0605631
27 3 0.366636 0.192431 0.0245709
558 4 0.380078 0.20737 0.0719295
26 1 0.384692 0.189946 0.0386051
30 3 0.399202 0.207183 0.0352851
2516 4 0.409056 0.215048 0.0495079
2515 2 0.416995 0.238693 0.0512586
2829 4 0.407488 0.166893 0.017642
3067 2 0.475968 0.22891 0.0137518
3068 4 0.453291 0.234772 0.00500258
2827 2 0.430464 0.168888 0.00798368
3069 4 0.498645 0.223048 0.0225011
355 2 0.223133 0.332213 0.0727618
565 2 0.286467 0.31625 0.0233795
566 4 0.281912 0.311938 0.0475836
567 4 0.291023 0.320562 0.999175
2701 2 0.408709 0.28598 0.0272423
39 3 0.4011 0.310578 0.00466795
2703 4 0.398819 0.290969 0.00482624
2702 4 0.418599 0.280992 0.0496584
2517 4 0.424934 0.262338 0.0530093
527 4 0.47254 0.290251 0.0493175
526 2 0.459563 0.285033 0.070043
837 4 0.0156916 0.40399 0.00796041
835 2 0.0243986 0.396391 0.0301327
836 4 0.0331056 0.388791 0.0523051
922 2 0.152365 0.354088 0.00640909
1596 4 0.15383 0.375709 0.047034
1594 2 0.140694 0.377877 0.0681977
924 4 0.150063 0.362634 0.0297939
15 3 0.201486 0.395696 0.0561187
12 3 0.223137 0.367447 0.0673482
11 1 0.221747 0.385666 0.0533744
446 4 0.192395 0.412655 0.0519975
14 3 0.224123 0.378492 0.0314361
665 4 0.221233 0.358398 0.0299363
13 3 0.238733 0.400539 0.0587286
356 4 0.22413 0.351045 0.056344
664 2 0.228121 0.339985 0.0144861
627 4 0.252939 0.399098 0.0454242
625 2 0.271812 0.40734 0.031245
626 4 0.290685 0.415583 0.0170658
40 3 0.403096 0.346347 0.993081
1070 4 0.494904 0.337683 0.993838
550 2 0.0513194 0.461614 0.0325469
552 4 0.0753496 0.457292 0.0379369
551 4 0.0272892 0.465935 0.0271568
702 4 0.109156 0.444569 0.0205065
700 2 0.107421 0.454606 0.0433413
701 4 0.105685 0.464643 0.0661762
1241 4 0.0971129 0.444709 0.0036254
455 4 0.100887 0.468633 0.0857711
445 2 0.19228 0.424909 0.0737922
789 4 0.186264 0.455609 0.0852348
284 4 0.387427 0.496565 0.0769039
3609 4 0.491868 0.420968 0.0720426
658 2 0.429424 0.494217 0.0834207
3880 2 0.456668 0.473163 0.0363873
3882 4 0.448119 0.459461 0.0554757
3881 4 0.465217 0.486864 0.017299
1530 4 0.460337 0.480363 0.0787651
660 4 0.453975 0.498836 0.0823747
475 2 0.156991 0.00291559 0.132702
18 3 0.156071 0.0648915 0.0958917
19 3 0.165703 0.0311805 0.110561
476 4 0.163218 0.0271004 0.131478
16 1 0.170352 0.0539134 0.110518
765 4 0.172111 0.0444121 0.139194
20 3 0.167964 0.0623734 0.131527
17 3 0.192034 0.0570562 0.103503
763 2 0.173281 0.0458564 0.164128
866 4 0.268361 0.0714393 0.105538
462 4 0.277645 0.0596849 0.0906705
461 4 0.311408 0.0368391 0.119633
460 2 0.294526 0.048262 0.105152
22 3 0.304176 0.0496634 0.154606
653 4 0.285339 0.0454012 0.155129
652 2 0.274423 0.0677644 0.157561
21 1 0.322889 0.0384577 0.161916
23 3 0.3269 0.0205199 0.147754
24 3 0.340957 0.0530116 0.161578
2768 4 0.487044 0.0376561 0.16184
243 4 0.0982827 0.103239 0.0650587
867 4 0.258009 0.11709 0.0879426
865 2 0.263185 0.0942646 0.0967401
354 4 0.279484 0.145588 0.154255
352 2 0.302182 0.156017 0.153164
654 4 0.263508 0.0901276 0.159993
353 4 0.324881 0.166446 0.152074
630 4 0.332485 0.126603 0.0987843
1214 4 0.0875915 0.219306 0.0931285
1213 2 0.0765893 0.241738 0.0941066
1074 4 0.088296 0.198969 0.0900384
380 4 0.185186 0.210503 0.133414
379 2 0.178994 0.206824 0.157358
381 4 0.172802 0.203145 0.181302
400 2 0.349134 0.185576 0.148771
402 4 0.357704 0.203241 0.13329
557 4 0.370873 0.211786 0.120883
556 2 0.375475 0.209578 0.0964064
1215 4 0.0655871 0.26417 0.0950846
294 4 0.0511707 0.275686 0.102592
292 2 0.0321699 0.291679 0.105486
293 4 0.0131691 0.307672 0.108379
450 4 0.110708 0.287025 0.140811
448 2 0.102011 0.309412 0.133857
449 4 0.0933143 0.331799 0.126902
2759 4 0.0993651 0.287888 0.156489
956 4 0.206021 0.258971 0.124303
357 4 0.222137 0.313381 0.0891796
957 4 0.223608 0.294377 0.0936787
955 2 0.214815 0.276674 0.108991
528 4 0.446586 0.279815 0.0907685
2852 4 0.449504 0.275596 0.111361
2851 2 0.454912 0.284346 0.134151
2853 4 0.460319 0.293095 0.156941
603 4 0.0790029 0.394166 0.145419
363 4 0.0672087 0.404034 0.0990468
601 2 0.0602936 0.387333 0.160534
1595 4 0.127557 0.380046 0.0893615
361 2 0.0879228 0.390248 0.0965883
362 4 0.108637 0.376462 0.0941298
1431 4 0.332919 0.397191 0.161827
1429 2 0.33589 0.403003 0.137691
1430 4 0.33886 0.408815 0.113554
3607 2 0.478918 0.415189 0.0926356
519 4 0.441734 0.345981 0.105663
518 4 0.463397 0.391052 0.105742
517 2 0.452565 0.368517 0.105702
3608 4 0.465967 0.40941 0.113229
547 2 0.0261153 0.446915 0.162496
456 4 0.0871564 0.456753 0.132366
291 4 0.105375 0.449287 0.136194
454 2 0.0940216 0.462693 0.109068
289 2 0.104585 0.446774 0.161059
447 4 0.192165 0.437163 0.0955869
787 2 0.186783 0.480229 0.0895719
608 4 0.273667 0.489061 0.0845889
659 4 0.404872 0.489599 0.0844666
412 2 0.344368 0.489959 0.13793
414 4 0.34158 0.490603 0.162769
1529 4 0.504799 0.459849 0.0889118
2451 4 0.505277 0.417337 0.147122
2449 2 0.495236 0.43962 0.141847
2450 4 0.485195 0.461903 0.136572
595 2 0.448752 0.498911 0.158718
1528 2 0.482568 0.470106 0.0838385
1338 4 0.0594286 0.0307905 0.200392
1336 2 0.0569529 0.0391825 0.223815
300 4 0.0228531 0.0869683 0.235633
1403 4 0.135606 0.0420393 0.236862
1402 2 0.154539 0.0488092 0.221999
1422 4 0.137897 0.0287665 0.251496
1420 2 0.131309 0.00556637 0.244898
1404 4 0.173472 0.055579 0.207137
764 4 0.174451 0.0473008 0.189063
25 3 0.319339 0.0309685 0.183128
699 4 0.350649 0.0635326 0.17541
697 2 0.362839 0.0746202 0.194216
698 4 0.37503 0.0857077 0.213021
530 4 0.00858052 0.0921788 0.221409
365 4 0.0798328 0.138172 0.203408
364 2 0.069947 0.160632 0.208202
744 4 0.247907 0.0995925 0.169202
388 2 0.242513 0.145356 0.232396
389 4 0.225949 0.152252 0.214982
545 4 0.2058 0.14825 0.210479
743 4 0.259334 0.147025 0.158236
742 2 0.253621 0.123309 0.163719
390 4 0.259077 0.138459 0.24981
1784 4 0.388651 0.0937768 0.224887
1783 2 0.377166 0.101806 0.245595
420 4 0.394286 0.159533 0.241981
333 4 0.492511 0.122771 0.169962
312 4 0.472534 0.122571 0.165061
310 2 0.458034 0.135087 0.181132
311 4 0.443533 0.147603 0.197202
2838 4 0.438526 0.162814 0.184792
366 4 0.0600611 0.183093 0.212997
693 4 0.0642099 0.191267 0.194441
691 2 0.0769818 0.20996 0.183829
692 4 0.0897537 0.228653 0.173216
2760 4 0.0887945 0.246579 0.182615
339 4 0.104639 0.240988 0.232463
546 4 0.181856 0.187964 0.191765
544 2 0.193828 0.168107 0.201122
494 4 0.28796 0.234931 0.21821
493 2 0.301874 0.246084 0.200683
401 4 0.340563 0.16791 0.164253
2837 4 0.437032 0.208031 0.163488
2836 2 0.437779 0.185422 0.17414
287 4 0.0183001 0.32927 0.188266
2616 4 0.0125813 0.342842 0.202638
2758 2 0.0940798 0.267233 0.169552
337 2 0.122634 0.258181 0.230067
507 4 0.160096 0.279647 0.224475
338 4 0.14063 0.275374 0.227671
505 2 0.166637 0.291426 0.245538
386 4 0.311993 0.275151 0.175322
495 4 0.315788 0.257236 0.183156
509 4 0.269921 0.313353 0.239673
508 2 0.258219 0.326615 0.221999
749 4 0.310148 0.2796 0.255629
385 2 0.331159 0.291035 0.17767
387 4 0.350325 0.30692 0.180018
587 4 0.362696 0.318676 0.190815
586 2 0.386666 0.324868 0.18731
588 4 0.410636 0.331059 0.183805
602 4 0.0415843 0.3805 0.175648
2614 2 0.032207 0.357205 0.196831
2615 4 0.0518327 0.371567 0.191025
344 4 0.241286 0.412726 0.181885
756 4 0.234367 0.394055 0.180464
754 2 0.244987 0.376406 0.194637
755 4 0.255608 0.358757 0.208811
510 4 0.246518 0.339878 0.204326
105 3 0.326104 0.379566 0.166655
103 3 0.315072 0.364387 0.199297
102 3 0.35151 0.370573 0.192472
101 1 0.330241 0.37863 0.18903
2652 4 0.371626 0.370098 0.188534
2650 2 0.393476 0.380812 0.18279
104 3 0.328676 0.399859 0.198266
2651 4 0.415325 0.391526 0.177047
548 4 0.046044 0.449548 0.177365
620 4 0.0498874 0.466573 0.188747
619 2 0.0636368 0.486346 0.195468
290 4 0.103795 0.444261 0.185923
301 2 0.116858 0.457058 0.225175
302 4 0.127313 0.457472 0.247884
303 4 0.106402 0.456644 0.202466
1557 4 0.236829 0.492416 0.222741
345 4 0.21209 0.452439 0.190326
1223 4 0.22125 0.469116 0.197602
1222 2 0.21081 0.491822 0.196824
343 2 0.226688 0.432583 0.186105
314 4 0.229978 0.486046 0.241279
1555 2 0.260548 0.500318 0.22315
713 4 0.397152 0.474938 0.195926
593 4 0.398557 0.455744 0.198635
712 2 0.37838 0.485571 0.183287
714 4 0.359608 0.496203 0.170648
596 4 0.437036 0.50521 0.17989
592 2 0.421251 0.456519 0.209101
594 4 0.443945 0.457294 0.219568
1332 4 0.459726 0.467874 0.214164
1330 2 0.479405 0.474327 0.228173
1337 4 0.0544773 0.0475745 0.247238
340 2 0.0543515 0.0085422 0.316378
416 4 0.0657031 0.0342784 0.257024
341 4 0.0432842 0.00676371 0.294028
1856 4 0.0337571 0.0093006 0.276837
415 2 0.0874916 0.0285627 0.267876
417 4 0.10928 0.022847 0.278728
321 4 0.176745 0.0719533 0.29728
319 2 0.186679 0.0747305 0.320057
1323 4 0.379699 0.0136881 0.299282
1321 2 0.391908 0.0355071 0.299087
1322 4 0.404118 0.0573261 0.298893
3677 4 0.414592 0.0649277 0.313945
3676 2 0.432816 0.0743273 0.299637
305 4 0.462234 0.0779672 0.270759
304 2 0.485926 0.0834598 0.276563
3678 4 0.45104 0.0837268 0.28533
938 4 0.065926 0.138364 0.255782
298 2 0.0283399 0.0988998 0.25691
299 4 0.0338266 0.110831 0.278187
705 4 0.0340309 0.0953694 0.289791
703 2 0.046603 0.0925353 0.311217
704 4 0.0591752 0.0897011 0.332644
937 2 0.0863206 0.134677 0.26977
939 4 0.106715 0.130991 0.283757
372 4 0.0979035 0.133002 0.302038
370 2 0.117511 0.125666 0.315709
371 4 0.137118 0.118331 0.329381
467 4 0.247131 0.125671 0.309214
466 2 0.249069 0.12315 0.284413
2895 4 0.286098 0.163943 0.247919
468 4 0.251006 0.120629 0.259613
496 2 0.322683 0.0880403 0.324333
497 4 0.339969 0.0943711 0.307413
1785 4 0.365681 0.109835 0.266302
418 2 0.372306 0.165701 0.252178
419 4 0.350325 0.171868 0.262375
2657 4 0.37944 0.127926 0.331122
279 4 0.389546 0.144163 0.325648
470 4 0.999707 0.175315 0.308365
469 2 0.0229453 0.183227 0.303618
2535 4 0.0566184 0.192709 0.31635
471 4 0.0461841 0.191139 0.29887
261 4 0.105289 0.226139 0.245921
260 4 0.127275 0.195313 0.278588
259 2 0.116282 0.210726 0.262255
1699 2 0.249323 0.223311 0.313933
1701 4 0.228408 0.2255 0.327458
1199 4 0.22637 0.205086 0.330519
2893 2 0.310965 0.166403 0.248786
422 4 0.258147 0.206837 0.29039
423 4 0.277138 0.18314 0.250659
421 2 0.267642 0.194989 0.270524
1700 4 0.270239 0.221122 0.300407
2894 4 0.335832 0.168863 0.249652
506 4 0.173179 0.303204 0.266601
648 4 0.166043 0.311358 0.284641
646 2 0.175488 0.303813 0.306528
647 4 0.184932 0.296268 0.328416
2954 4 0.237395 0.325266 0.315372
750 4 0.280093 0.319565 0.255176
2953 2 0.260477 0.319075 0.322724
748 2 0.295121 0.299583 0.255402
736 2 0.312359 0.338937 0.323279
737 4 0.297592 0.31998 0.31637
1820 4 0.169129 0.416875 0.266016
1445 4 0.162275 0.413764 0.337117
568 2 0.174812 0.385879 0.27196
570 4 0.162604 0.364575 0.27668
676 2 0.23986 0.383286 0.319688
677 4 0.22058 0.380208 0.335308
569 4 0.18702 0.407184 0.267239
678 4 0.259139 0.386363 0.304067
738 4 0.327126 0.357894 0.330187
767 4 0.258897 0.405481 0.31489
248 4 0.345639 0.365064 0.326774
1587 4 0.365093 0.396181 0.298737
612 4 0.408246 0.361084 0.299179
610 2 0.421157 0.367028 0.278608
249 4 0.387338 0.362335 0.299307
247 2 0.366488 0.363699 0.313041
611 4 0.434067 0.372971 0.258037
1398 4 0.0488293 0.438199 0.309581
935 4 0.0412322 0.435721 0.291614
1756 2 0.0561028 0.480725 0.317732
934 2 0.0619889 0.438341 0.277922
1396 2 0.0356815 0.429712 0.329082
1757 4 0.0561853 0.455919 0.314593
936 4 0.0827457 0.440961 0.26423
1821 4 0.147062 0.459283 0.251341
1819 2 0.158096 0.438079 0.258678
1639 2 0.137311 0.446635 0.320433
1640 4 0.120682 0.462962 0.311373
1641 4 0.153941 0.430309 0.329492
1654 2 0.158541 0.50474 0.286014
1655 4 0.169325 0.48553 0.274186
313 2 0.208359 0.487344 0.253773
315 4 0.18674 0.488642 0.266268
766 2 0.274575 0.424828 0.312628
768 4 0.290252 0.444174 0.310366
1586 4 0.341598 0.438724 0.310517
378 4 0.397718 0.41257 0.294815
1585 2 0.353346 0.417453 0.304627
542 4 0.377104 0.444684 0.333301
376 2 0.413848 0.424489 0.309746
1331 4 0.499084 0.480781 0.242183
1771 2 0.0107895 0.0751791 0.389503
1773 4 0.00121709 0.0792967 0.366774
342 4 0.0654189 0.0103207 0.338728
1772 4 0.020362 0.0710615 0.412232
368 4 0.0652574 0.0713399 0.33741
2636 4 0.00177913 0.0650199 0.415612
1645 2 0.0846968 0.998293 0.369302
1646 4 0.081802 0.00013371 0.344535
2586 4 0.104445 0.00588121 0.398923
1180 2 0.147829 0.0742038 0.364723
367 2 0.0870185 0.0775406 0.348048
1181 4 0.168631 0.0603343 0.365044
683 4 0.207604 0.0640921 0.409926
682 2 0.214924 0.0406459 0.40525
684 4 0.222244 0.0171997 0.400573
405 4 0.203284 0.0828663 0.40268
632 4 0.285903 0.0881189 0.338995
488 4 0.401147 0.0820289 0.377336
487 2 0.420263 0.0667642 0.372162
708 4 0.496017 0.0234049 0.352616
489 4 0.439378 0.0514996 0.366988
706 2 0.472681 0.0292523 0.359429
707 4 0.449345 0.0350998 0.366242
347 4 0.0552345 0.143891 0.41189
734 4 0.063603 0.129352 0.419723
346 2 0.0587406 0.161334 0.394322
600 4 0.137339 0.134468 0.340413
1182 4 0.127027 0.0880734 0.364402
369 4 0.10878 0.0837414 0.358687
598 2 0.155358 0.150557 0.346865
320 4 0.196612 0.0775076 0.342834
403 2 0.200585 0.0883565 0.378437
404 4 0.197886 0.0938467 0.354193
633 4 0.236554 0.0931656 0.345317
498 4 0.305396 0.0817094 0.341252
631 2 0.261229 0.0906422 0.342156
430 2 0.318179 0.166713 0.407667
431 4 0.318933 0.142088 0.411935
2658 4 0.391805 0.090557 0.361966
2656 2 0.385623 0.109242 0.346544
277 2 0.406518 0.160515 0.333998
348 4 0.0622466 0.178776 0.376753
2533 2 0.0658675 0.186194 0.338648
2534 4 0.0751166 0.17968 0.360945
599 4 0.173378 0.166646 0.353317
1211 4 0.220326 0.221692 0.395225
1200 4 0.183211 0.184244 0.344788
1198 2 0.204791 0.194665 0.337654
1210 2 0.239165 0.217881 0.411217
1517 4 0.302769 0.201738 0.395309
432 4 0.317426 0.191338 0.403399
1516 2 0.297962 0.203821 0.37086
1518 4 0.293154 0.205905 0.346412
1212 4 0.258004 0.21407 0.427209
474 4 0.334373 0.244507 0.40193
278 4 0.42349 0.176868 0.342347
457 2 0.0610712 0.323096 0.405499
459 4 0.0719068 0.302234 0.396981
1150 2 0.106125 0.289619 0.404854
1151 4 0.12905 0.283463 0.396997
503 4 0.180994 0.299456 0.348052
504 4 0.198018 0.298798 0.395068
717 4 0.187905 0.305198 0.411927
502 2 0.189506 0.299127 0.37156
2955 4 0.28356 0.312884 0.330075
274 2 0.408029 0.274362 0.384821
275 4 0.383452 0.27088 0.381822
473 4 0.372617 0.276559 0.398649
472 2 0.353495 0.260533 0.400289
649 2 0.455787 0.300374 0.40573
650 4 0.449477 0.277297 0.398461
276 4 0.432607 0.277844 0.387819
651 4 0.462096 0.323451 0.412998
1219 2 0.0218974 0.365313 0.406959
1220 4 0.0347913 0.344432 0.402172
4299 4 0.0317582 0.418196 0.405851
458 4 0.0502357 0.343958 0.414016
1221 4 0.00900357 0.386194 0.411747
1446 4 0.208795 0.395936 0.341447
2221 2 0.213382 0.380297 0.398875
2222 4 0.206623 0.377478 0.374967
1444 2 0.185535 0.40485 0.339282
727 2 0.298548 0.392621 0.402746
729 4 0.283029 0.373612 0.407542
728 4 0.314067 0.41163 0.39795
265 2 0.461324 0.408723 0.339461
266 4 0.479096 0.391589 0.343427
614 4 0.497371 0.390061 0.34936
1750 2 0.0040824 0.449881 0.376916
1752 4 0.0183228 0.432753 0.365557
1397 4 0.0225336 0.421226 0.348583
4297 2 0.0518284 0.423318 0.391846
4298 4 0.0718987 0.42844 0.377842
1815 4 0.208315 0.488069 0.416389
264 4 0.194603 0.500584 0.405393
309 4 0.328462 0.426388 0.4
308 4 0.329046 0.429571 0.350098
307 2 0.328754 0.427979 0.375049
1472 4 0.371392 0.498483 0.41836
543 4 0.38002 0.489355 0.355588
541 2 0.378562 0.467019 0.344444
1471 2 0.372019 0.500227 0.393425
267 4 0.443551 0.425858 0.335494
377 4 0.429977 0.436409 0.324677
2635 2 0.998119 0.0544708 0.437984
2584 2 0.104425 0.0172678 0.421183
852 4 0.128254 0.0710829 0.487221
850 2 0.12444 0.0526545 0.470758
2585 4 0.104405 0.0286544 0.443443
851 4 0.120627 0.034226 0.454295
605 4 0.221298 0.00230965 0.412934
1818 4 0.398079 0.0586912 0.431691
1816 2 0.375416 0.06581 0.439494
1817 4 0.352753 0.0729287 0.447297
733 2 0.071794 0.126886 0.443218
735 4 0.079985 0.12442 0.466713
1602 4 0.130115 0.0907158 0.484882
1601 4 0.100593 0.128705 0.471245
1600 2 0.115354 0.109711 0.478064
791 4 0.174907 0.130765 0.483007
790 2 0.179904 0.154882 0.478695
857 4 0.187363 0.129878 0.499442
257 4 0.315575 0.127481 0.425379
256 2 0.329883 0.107726 0.430875
258 4 0.344192 0.087971 0.43637
1284 4 0.16279 0.23689 0.499992
2916 4 0.159622 0.233764 0.480802
2914 2 0.175282 0.215271 0.474639
2915 4 0.190942 0.196778 0.468477
792 4 0.184902 0.178998 0.474384
804 4 0.274369 0.22578 0.428719
802 2 0.296642 0.233735 0.420607
803 4 0.318915 0.24169 0.412494
1152 4 0.0832003 0.295776 0.412711
715 2 0.202601 0.29686 0.430357
716 4 0.217296 0.288521 0.448788
239 4 0.224504 0.306685 0.457909
238 2 0.220235 0.313965 0.481446
374 4 0.341787 0.26695 0.497294
373 2 0.354689 0.286608 0.488792
375 4 0.367591 0.306267 0.480291
1239 4 0.384059 0.307932 0.468831
1237 2 0.380056 0.332113 0.463889
1192 2 0.433917 0.332896 0.498396
3353 4 0.0787079 0.391328 0.490299
2223 4 0.22014 0.383115 0.422782
382 2 0.213245 0.39479 0.463543
383 4 0.223021 0.389182 0.441223
384 4 0.203468 0.400397 0.485862
1178 4 0.18688 0.410203 0.490041
1238 4 0.376052 0.356294 0.458948
335 4 0.374942 0.375853 0.453407
334 2 0.381281 0.387752 0.474464
336 4 0.38762 0.399652 0.495521
872 4 0.454898 0.341306 0.413792
871 2 0.445281 0.344471 0.436654
1193 4 0.427401 0.346218 0.478265
873 4 0.435664 0.347637 0.459516
1813 2 0.223533 0.473309 0.429646
1814 4 0.238751 0.458549 0.442902
1704 4 0.238327 0.463689 0.461814
752 4 0.299149 0.471486 0.486481
1702 2 0.258503 0.467702 0.476027
751 2 0.320055 0.458893 0.491914
1703 4 0.278679 0.471715 0.49024
560 4 0.354057 0.448308 0.45842
559 2 0.356796 0.46484 0.439862
561 4 0.359535 0.481371 0.421304
726 4 0.340794 0.055977 0.540018
724 2 0.343283 0.0798116 0.547153
409 2 0.349676 0.0176632 0.528721
410 4 0.349972 0.0384786 0.542571
1026 4 0.420112 0.021092 0.525708
3401 4 0.427979 0.0266779 0.508953
3400 2 0.449425 0.0391878 0.511914
3402 4 0.47087 0.0516977 0.514876
3044 4 0.0430901 0.119336 0.525254
3043 2 0.0634113 0.119872 0.539812
3045 4 0.0837326 0.120409 0.55437
887 4 0.213546 0.105323 0.558466
858 4 0.205959 0.116829 0.543991
856 2 0.196661 0.123354 0.521717
886 2 0.225208 0.106927 0.580526
725 4 0.345771 0.103646 0.554287
1062 4 0.344814 0.117869 0.569577
1032 4 0.491235 0.0880048 0.562028
1282 2 0.174353 0.248926 0.51861
668 4 0.246715 0.251308 0.564423
1166 4 0.309579 0.213125 0.520937
1165 2 0.300296 0.202819 0.54174
710 4 0.32572 0.226183 0.527334
1167 4 0.291012 0.192512 0.562543
709 2 0.340953 0.239239 0.512412
1137 4 0.300867 0.198243 0.579201
3265 2 0.00960067 0.283356 0.56193
3267 4 0.0180576 0.301701 0.547195
3266 4 0.00114376 0.265011 0.576665
3275 4 0.999268 0.310477 0.543445
669 4 0.199168 0.251972 0.548945
1283 4 0.185916 0.260961 0.537228
667 2 0.222941 0.25164 0.556684
240 4 0.215966 0.321245 0.504982
1008 4 0.267058 0.322337 0.570112
799 2 0.356987 0.315068 0.570484
800 4 0.365672 0.32251 0.54825
1011 4 0.373118 0.329464 0.530482
711 4 0.356187 0.252294 0.497491
898 2 0.480063 0.303723 0.509839
900 4 0.457929 0.315187 0.507881
1194 4 0.440433 0.319573 0.518526
3264 4 0.027586 0.386984 0.570258
500 4 0.0107647 0.382294 0.580365
3262 2 0.0478803 0.373987 0.57692
694 2 0.152072 0.394341 0.570912
696 4 0.169545 0.403878 0.555783
1177 2 0.177531 0.40821 0.513145
1179 4 0.168182 0.406217 0.536249
1007 4 0.26111 0.370333 0.557397
1006 2 0.264084 0.346335 0.563754
2027 4 0.278152 0.379218 0.564251
2026 2 0.296266 0.387801 0.579198
1009 2 0.385041 0.351267 0.52772
1454 4 0.374397 0.413364 0.495936
1010 4 0.396964 0.37307 0.524958
3354 4 0.0833279 0.433958 0.516028
1122 4 0.0699998 0.444427 0.526891
1120 2 0.0709705 0.44965 0.551324
1121 4 0.0719411 0.454872 0.575757
3352 2 0.0810179 0.412643 0.503163
753 4 0.340962 0.4463 0.497347
1400 4 0.40533 0.459103 0.521916
1455 4 0.388998 0.451562 0.524718
1453 2 0.381698 0.432463 0.510327
1399 2 0.423756 0.468653 0.535861
1401 4 0.442182 0.478204 0.549805
3066 4 0.493394 0.478671 0.582657
2741 4 0.442956 0.497869 0.553583
864 4 0.0568342 0.0341401 0.656685
1524 4 0.209265 0.029316 0.638856
1522 2 0.207519 0.0524857 0.648091
1523 4 0.205774 0.0756554 0.657327
843 4 0.319703 0.0549175 0.62428
3731 4 0.335206 0.0432036 0.62687
841 2 0.308294 0.0485286 0.645592
3730 2 0.351715 0.046909 0.608461
3732 4 0.368224 0.0506144 0.590052
1261 2 0.403971 0.0669963 0.60237
1262 4 0.386261 0.057885 0.587253
1263 4 0.421681 0.0761077 0.617487
1030 2 0.495463 0.0749503 0.58293
3054 4 0.490937 0.0588416 0.65743
4467 4 0.479415 0.0756732 0.657134
3236 4 0.0503384 0.0935915 0.668092
3235 2 0.0364072 0.111831 0.65817
3237 4 0.0224759 0.13007 0.648249
1278 4 0.0803208 0.116814 0.57462
1276 2 0.100975 0.102854 0.576542
1277 4 0.12163 0.0888943 0.578464
1270 2 0.126697 0.141233 0.659032
1271 4 0.147042 0.153806 0.651738
888 4 0.236869 0.10853 0.602585
831 4 0.256029 0.107161 0.597315
1060 2 0.331618 0.119188 0.590774
829 2 0.277194 0.115929 0.607333
830 4 0.298359 0.124696 0.617351
1061 4 0.318422 0.120506 0.61197
46 1 0.3158 0.123913 0.645657
49 3 0.294337 0.124449 0.636854
50 3 0.330696 0.11804 0.629462
47 3 0.321103 0.14484 0.653601
516 4 0.315859 0.16398 0.656452
48 3 0.316791 0.108757 0.663198
1143 4 0.415606 0.0901378 0.630822
1141 2 0.417335 0.106914 0.649282
3356 4 0.457144 0.117941 0.629736
3355 2 0.465461 0.141391 0.627268
3357 4 0.473777 0.164842 0.624801
1068 4 0.0732479 0.212597 0.623819
822 4 0.0566765 0.221468 0.633856
820 2 0.0503156 0.242741 0.645353
1066 2 0.0878075 0.192867 0.618927
1067 4 0.102367 0.173138 0.614034
1129 2 0.184195 0.229185 0.644206
1131 4 0.198596 0.249513 0.642072
1130 4 0.169793 0.208857 0.64634
839 4 0.182147 0.197091 0.656918
838 2 0.181289 0.174131 0.666784
1135 2 0.305781 0.208101 0.601647
1136 4 0.310695 0.217959 0.624094
796 2 0.321389 0.245509 0.647285
797 4 0.322445 0.221796 0.639426
514 2 0.336832 0.171331 0.66791
641 4 0.482666 0.171571 0.60825
2507 4 0.45002 0.22808 0.628222
642 4 0.461494 0.216169 0.61622
640 2 0.47208 0.19387 0.612235
2506 2 0.449452 0.247861 0.612938
821 4 0.0439548 0.264014 0.65685
1260 4 0.155164 0.31436 0.63581
1258 2 0.178863 0.306484 0.634593
9 3 0.217277 0.253122 0.647693
7 3 0.232912 0.27661 0.622864
1259 4 0.202563 0.298608 0.633376
6 1 0.22614 0.274361 0.644732
8 3 0.209986 0.290388 0.649268
10 3 0.244063 0.277287 0.658474
806 4 0.229491 0.291175 0.609619
805 2 0.246594 0.297735 0.5926
807 4 0.263697 0.304294 0.575581
3113 4 0.254334 0.289424 0.645288
798 4 0.320332 0.269221 0.655145
3112 2 0.278909 0.285263 0.647266
3114 4 0.303485 0.281102 0.649245
891 4 0.330595 0.302478 0.658049
801 4 0.348301 0.307626 0.592718
889 2 0.335922 0.30812 0.63428
890 4 0.341249 0.313762 0.610511
2508 4 0.448885 0.267641 0.597654
952 2 0.474364 0.296606 0.617921
954 4 0.493322 0.307855 0.629721
953 4 0.455406 0.285357 0.606121
3263 4 0.0681747 0.36099 0.583583
695 4 0.134598 0.384803 0.586042
815 4 0.155685 0.331406 0.645222
618 4 0.0799356 0.366083 0.598561
617 4 0.120526 0.395204 0.596308
616 2 0.100231 0.380644 0.597434
814 2 0.146633 0.354482 0.641943
816 4 0.137582 0.377558 0.638664
2028 4 0.31438 0.396383 0.594144
3380 4 0.466969 0.418092 0.658174
2243 4 0.169373 0.489507 0.648672
2016 4 0.179206 0.496359 0.664684
774 4 0.279511 0.505599 0.638056
772 2 0.29814 0.499781 0.622426
773 4 0.31677 0.493964 0.606796
930 4 0.345484 0.43232 0.647673
1395 4 0.33824 0.418353 0.660021
929 4 0.381694 0.425619 0.61384
928 2 0.363589 0.428969 0.630757
2175 4 0.362847 0.495586 0.667355
2173 2 0.374368 0.509402 0.649989
3064 2 0.482322 0.46086 0.596271
3379 2 0.465969 0.436288 0.641054
3065 4 0.47125 0.443048 0.609885
3381 4 0.46497 0.454484 0.623935
863 4 0.0650325 0.0794973 0.676081
862 2 0.0609334 0.0568187 0.666383
944 4 0.0623094 0.0209261 0.670313
943 2 0.075211 0.00581677 0.685493
2133 4 0.10087 0.0780904 0.680502
2131 2 0.125481 0.0736853 0.680803
2132 4 0.150092 0.0692801 0.681104
2254 2 0.0961405 0.0473849 0.739699
2256 4 0.104165 0.049558 0.716118
965 4 0.249751 0.0728693 0.712305
842 4 0.296885 0.0421397 0.666904
2240 4 0.290132 0.0362779 0.685366
2239 2 0.306109 0.0180739 0.691573
3425 4 0.387989 0.0228708 0.734796
3424 2 0.386576 0.0137782 0.711547
3426 4 0.385163 0.0046855 0.688298
1090 2 0.440127 0.00753099 0.732595
2049 4 0.0805039 0.166322 0.718439
2047 2 0.0873446 0.153741 0.697943
1272 4 0.106353 0.12866 0.666326
961 2 0.140158 0.106079 0.732483
2048 4 0.0941853 0.14116 0.677446
962 4 0.160151 0.100853 0.718407
966 4 0.21889 0.0894451 0.747992
964 2 0.23432 0.0811572 0.730149
978 4 0.173702 0.115063 0.713953
840 4 0.180432 0.151172 0.676649
977 4 0.180698 0.133196 0.667877
976 2 0.1772 0.124129 0.690915
1225 2 0.24297 0.141029 0.747428
1226 4 0.264669 0.135858 0.736134
1781 4 0.30432 0.102798 0.678712
1782 4 0.265803 0.0779639 0.698723
1780 2 0.285061 0.090381 0.688717
1084 2 0.388775 0.151744 0.665734
1086 4 0.409201 0.138843 0.659291
1085 4 0.368348 0.164645 0.672176
1142 4 0.419064 0.123689 0.667741
4465 2 0.472618 0.0905989 0.676007
4466 4 0.46582 0.105525 0.69488
3007 2 0.476887 0.113692 0.732834
3008 4 0.467212 0.100234 0.714113
3387 4 0.0303406 0.253271 0.666896
1256 4 0.0856615 0.166004 0.737638
515 4 0.357804 0.178681 0.679368
3336 4 0.441059 0.23538 0.746863
3385 2 0.0138083 0.262263 0.683358
3386 4 0.997276 0.271255 0.699821
893 4 0.0562294 0.259569 0.740233
1230 4 0.326285 0.321598 0.66201
918 4 0.34204 0.299305 0.708084
1064 4 0.394574 0.275047 0.717188
916 2 0.366526 0.294673 0.706049
917 4 0.391012 0.29004 0.704014
1063 2 0.414371 0.262589 0.726023
1065 4 0.434168 0.250131 0.734857
1029 4 0.488707 0.253125 0.699111
1027 2 0.481696 0.277089 0.69779
1028 4 0.474685 0.301053 0.69647
4062 4 0.468871 0.319359 0.701798
1209 4 0.0755518 0.354129 0.729298
1191 4 0.0844105 0.363469 0.714954
1207 2 0.0767225 0.335643 0.746094
1190 4 0.0933632 0.407438 0.692879
1189 2 0.0888869 0.385454 0.703916
1905 4 0.233979 0.382882 0.737754
1903 2 0.214209 0.368851 0.743875
1393 2 0.332186 0.394843 0.666006
1394 4 0.326133 0.371333 0.671991
1228 2 0.319233 0.342779 0.673269
1229 4 0.31218 0.363961 0.684528
925 2 0.473361 0.393105 0.690536
927 4 0.45213 0.38428 0.700361
4060 2 0.45871 0.342128 0.703679
4061 4 0.448549 0.364896 0.705559
926 4 0.494593 0.40193 0.680711
1938 4 0.999991 0.489512 0.666332
878 4 0.032058 0.490281 0.716458
877 2 0.0204485 0.482353 0.695781
879 4 0.00883895 0.474426 0.675104
3431 4 0.0876163 0.424306 0.7029
2172 4 0.115606 0.486408 0.712141
3432 4 0.113512 0.467012 0.705417
3430 2 0.100564 0.445659 0.704158
1174 2 0.237656 0.435964 0.701712
1170 4 0.212747 0.452896 0.721635
1175 4 0.213584 0.439183 0.70766
1168 2 0.195582 0.442802 0.736757
1188 4 0.259052 0.503138 0.674352
1176 4 0.261727 0.432745 0.695765
2310 4 0.309929 0.454532 0.681851
2309 4 0.351793 0.479688 0.671115
2308 2 0.330861 0.46711 0.676483
1978 2 0.405473 0.470706 0.699188
1979 4 0.39029 0.489406 0.705891
1980 4 0.420657 0.452005 0.692484
2312 4 0.0506305 0.0052273 0.81558
4194 4 0.0575628 0.0232009 0.819484
4192 2 0.0711997 0.0310046 0.800033
4193 4 0.0848365 0.0388084 0.780583
2255 4 0.0881163 0.0452118 0.76328
690 4 0.256956 0.0562457 0.815028
908 4 0.274745 0.0581222 0.806402
907 2 0.295986 0.0579664 0.793212
909 4 0.317227 0.0578107 0.780021
45 3 0.384354 0.03813 0.748284
1050 4 0.336394 0.0576659 0.788437
44 3 0.399407 0.0505561 0.780481
41 1 0.395755 0.0320094 0.767024
43 3 0.383734 0.0159776 0.778723
1048 2 0.355426 0.0719016 0.796202
42 3 0.41608 0.0231056 0.760958
1092 4 0.436273 0.0197165 0.754085
963 4 0.120164 0.111306 0.746558
1079 4 0.167158 0.0946911 0.779296
1080 4 0.215445 0.0945484 0.766295
1227 4 0.22127 0.1462 0.758722
1078 2 0.191301 0.0946197 0.772796
1049 4 0.374458 0.0861373 0.803967
960 4 0.389058 0.0941972 0.814057
958 2 0.403176 0.101405 0.79472
2051 4 0.39352 0.153809 0.816574
86 1 0.495066 0.136701 0.785835
3009 4 0.486562 0.12715 0.751554
959 4 0.417294 0.108613 0.775384
90 3 0.483243 0.139889 0.766633
87 3 0.482188 0.124881 0.800788
1299 4 0.465175 0.134601 0.803856
1297 2 0.460142 0.128582 0.827597
1041 4 0.0717205 0.247228 0.740145
1255 2 0.0789333 0.181723 0.755882
2000 4 0.0757084 0.19066 0.793302
1257 4 0.0722052 0.197441 0.774126
1999 2 0.0819865 0.192023 0.817467
1039 2 0.0918673 0.238252 0.751922
941 4 0.131351 0.225517 0.755891
1040 4 0.112014 0.229275 0.7637
940 2 0.153133 0.217205 0.764925
942 4 0.174916 0.208893 0.773959
1043 4 0.225833 0.165367 0.76423
1044 4 0.183168 0.19013 0.772432
1042 2 0.204501 0.177749 0.768331
1112 4 0.409363 0.16572 0.816049
1111 2 0.411947 0.180506 0.796052
1113 4 0.41453 0.195293 0.776056
3335 4 0.431036 0.202192 0.782902
3334 2 0.436048 0.218786 0.764883
2998 2 0.997177 0.292703 0.78623
892 2 0.0409449 0.275697 0.751697
894 4 0.0256604 0.291826 0.763162
2999 4 0.018128 0.304212 0.778897
946 2 0.0721395 0.28876 0.795136