ITEM: TIMESTEP
2460000
ITEM: NUMBER OF ATOMS
4590
ITEM: BOX BOUNDS pp pp pp
-9.9985700000000008e+00 9.9985700000000008e+00
-9.9985700000000008e+00 9.9985700000000008e+00
-9.9985700000000008e+00 9.9985700000000008e+00
ITEM: ATOMS id type xs ys zs
3291 4 0.0121874 0.0108684 0.00637268
492 4 0.161645 0.0159196 0.996145
996 4 0.166785 0.0272513 0.0721233
461 4 0.208683 0.038923 0.0560993
460 2 0.220455 0.0390648 0.0781581
2070 4 0.181235 0.0117258 0.992376
746 4 0.28932 0.0617759 0.0396709
3837 4 0.483717 0.996505 0.0250173
2468 4 0.491341 0.00967533 0.037147
2467 2 0.499595 0.0161923 0.0598316
18 3 0.102505 0.123246 0.0544776
16 1 0.111354 0.144593 0.0565713
20 3 0.120257 0.14731 0.077356
17 3 0.0945191 0.159959 0.0534725
19 3 0.127691 0.148012 0.040452
2760 4 0.130652 0.13086 0.0761852
913 2 0.23696 0.164283 0.0172016
867 4 0.246948 0.157549 0.0852681
745 2 0.294716 0.0856854 0.0347316
747 4 0.300112 0.109595 0.0297923
770 4 0.302287 0.114116 0.0491086
769 2 0.309686 0.134177 0.0620707
771 4 0.317086 0.154237 0.0750327
282 4 0.481236 0.161133 0.0698836
280 2 0.460947 0.16239 0.0553244
1074 4 0.0823571 0.176321 0.048422
1072 2 0.061902 0.180665 0.0347147
1073 4 0.0414469 0.18501 0.0210073
1286 4 0.0508023 0.19375 0.00552078
914 4 0.23345 0.178211 0.0376678
53 3 0.251003 0.188299 0.0446542
355 2 0.296811 0.233485 0.0687703
51 1 0.268284 0.182406 0.0589733
52 3 0.286708 0.176698 0.0464387
55 3 0.273541 0.19999 0.0724575
357 4 0.276485 0.219654 0.0733223
54 3 0.262023 0.164148 0.0718516
356 4 0.317138 0.247316 0.0642182
566 4 0.358427 0.209306 0.00490816
565 2 0.359325 0.223961 0.025147
623 4 0.338721 0.209618 0.00688773
567 4 0.360223 0.238616 0.0453858
281 4 0.440659 0.163648 0.0407652
287 4 0.082215 0.303521 0.0645393
288 4 0.126112 0.324479 0.0761392
286 2 0.104163 0.314 0.0703392
955 2 0.248781 0.269238 0.0849823
957 4 0.26172 0.274532 0.0642523
242 4 0.2696 0.274324 0.0457294
241 2 0.262828 0.262719 0.0246436
14 3 0.321704 0.255582 0.0223516
15 3 0.316103 0.266491 0.0579503
243 4 0.256055 0.251113 0.00355778
665 4 0.330133 0.295995 0.016944
11 1 0.330679 0.266982 0.0404594
13 3 0.335199 0.288956 0.0345349
12 3 0.350327 0.256766 0.0466819
527 4 0.47867 0.299653 0.0570775
526 2 0.476504 0.319553 0.0720604
522 4 0.493045 0.296229 0.044777
854 4 0.424571 0.301049 0.00216504
536 4 0.0193143 0.360896 0.0546045
535 2 0.0413216 0.369032 0.0459637
251 4 0.0223511 0.364469 0.0738707
537 4 0.0633289 0.377168 0.0373228
787 2 0.210394 0.416797 0.015536
3212 4 0.349312 0.39342 0.0217661
3211 2 0.371304 0.381637 0.0234056
3213 4 0.393297 0.369855 0.0250452
2388 4 0.410285 0.380445 0.0285496
1305 4 0.330682 0.392915 0.0167914
2386 2 0.432927 0.373056 0.0209392
2387 4 0.455569 0.365667 0.0133289
1222 2 0.192076 0.462837 0.0350228
1224 4 0.197309 0.438396 0.0356883
789 4 0.209015 0.420961 0.0401519
1223 4 0.186842 0.487277 0.0343573
1778 4 0.207248 0.47884 0.0892429
1511 4 0.199034 0.503149 0.0409295
273 4 0.315327 0.463472 0.0647708
284 4 0.308477 0.464736 0.0833874
271 2 0.337493 0.470046 0.0552492
1316 4 0.378322 0.477995 0.0537536
272 4 0.359658 0.476619 0.0457276
525 4 0.416348 0.445322 0.0733856
659 4 0.4017 0.452964 0.0836744
1157 4 0.332539 0.461904 0.000205117
523 2 0.437773 0.438945 0.062185
524 4 0.459199 0.432567 0.0509843
482 4 0.460007 0.452041 0.0433345
481 2 0.479596 0.463438 0.0327725
483 4 0.499185 0.474835 0.0222105
994 2 0.151879 0.0243347 0.0919847
995 4 0.136973 0.021418 0.111846
1329 4 0.128487 0.0285836 0.127359
1327 2 0.131668 0.0134012 0.146969
462 4 0.232226 0.0392067 0.100217
2162 4 0.228726 0.0252494 0.156424
1504 2 0.224557 0.0756717 0.123197
2420 4 0.247358 0.0165673 0.157386
2161 2 0.216603 0.00345471 0.154629
1506 4 0.225715 0.0519387 0.115413
1110 4 0.399771 0.0756046 0.118355
589 2 0.0888357 0.10961 0.158143
590 4 0.0721519 0.127501 0.163314
591 4 0.10552 0.0917192 0.152971
2759 4 0.153851 0.127997 0.120393
2758 2 0.142251 0.129429 0.098289
1505 4 0.223399 0.0994047 0.13098
476 4 0.217685 0.0938694 0.148269
865 2 0.259645 0.145916 0.103396
866 4 0.272343 0.134283 0.121524
571 2 0.293595 0.126078 0.145153
573 4 0.271144 0.136288 0.141043
572 4 0.316046 0.115868 0.149263
22 3 0.321955 0.109508 0.16807
25 3 0.355899 0.0959017 0.160615
1108 2 0.384515 0.0947086 0.113113
1109 4 0.36926 0.113813 0.10787
629 4 0.358601 0.130686 0.106747
628 2 0.367121 0.149574 0.120741
630 4 0.375641 0.168462 0.134734
381 4 0.231872 0.229571 0.14395
354 4 0.245641 0.214473 0.138689
352 2 0.270637 0.214891 0.138257
27 3 0.307586 0.231217 0.131459
353 4 0.295633 0.215309 0.137825
30 3 0.328599 0.224701 0.161608
26 1 0.318641 0.240944 0.149132
557 4 0.376263 0.186436 0.146308
558 4 0.348255 0.227193 0.153732
556 2 0.362259 0.206814 0.15002
2516 4 0.34986 0.248125 0.150855
2935 2 0.488088 0.232533 0.108324
2936 4 0.464778 0.232789 0.0992834
2614 2 0.00316774 0.280678 0.136896
2615 4 0.00915035 0.302696 0.147124
601 2 0.0429378 0.322484 0.160735
603 4 0.0673464 0.32739 0.163042
363 4 0.0738794 0.315298 0.148332
602 4 0.0185291 0.317577 0.158427
450 4 0.144459 0.247704 0.138438
293 4 0.139683 0.311999 0.0849651
448 2 0.135662 0.270952 0.135731
361 2 0.0986453 0.312637 0.146153
362 4 0.123411 0.309976 0.143973
449 4 0.126865 0.2942 0.133024
292 2 0.161153 0.301707 0.0925993
294 4 0.182623 0.291414 0.100233
507 4 0.228112 0.266885 0.124165
956 4 0.235842 0.263945 0.105712
506 4 0.180527 0.274282 0.110687
505 2 0.20432 0.270583 0.117426
625 2 0.233407 0.33069 0.113089
626 4 0.257957 0.328252 0.10902
446 4 0.270718 0.320257 0.0947922
445 2 0.295208 0.324296 0.091777
2515 2 0.371151 0.261217 0.150181
2517 4 0.392443 0.274308 0.149506
386 4 0.386376 0.319491 0.129873
385 2 0.40017 0.324066 0.15022
28 3 0.334686 0.255512 0.14084
2702 4 0.411956 0.272218 0.156549
495 4 0.366111 0.322086 0.131557
493 2 0.347395 0.330651 0.11736
528 4 0.474339 0.339452 0.0870433
2701 2 0.429307 0.282609 0.171252
250 2 0.0152612 0.371085 0.0969172
252 4 0.00817137 0.377701 0.119964
396 4 0.0195513 0.38844 0.133108
394 2 0.0317856 0.408582 0.141464
620 4 0.151133 0.397726 0.129918
755 4 0.161811 0.393455 0.147165
627 4 0.208858 0.333127 0.117157
754 2 0.1863 0.390176 0.143325
756 4 0.210788 0.386897 0.139484
290 4 0.230448 0.385669 0.138251
447 4 0.319698 0.328335 0.0887618
494 4 0.328679 0.339217 0.103163
595 2 0.402494 0.385315 0.115735
596 4 0.385897 0.385115 0.0970352
597 4 0.419091 0.385515 0.134434
519 4 0.464737 0.328053 0.100883
517 2 0.459326 0.346383 0.117004
518 4 0.453914 0.364714 0.133125
105 3 0.424566 0.377064 0.152619
395 4 0.04402 0.428723 0.149819
1595 4 0.0585719 0.443182 0.145087
1594 2 0.0588982 0.46796 0.141752
1596 4 0.0592245 0.492738 0.138418
619 2 0.13678 0.417946 0.126703
621 4 0.122427 0.438165 0.123488
314 4 0.158949 0.469694 0.166843
313 2 0.150761 0.491067 0.156778
289 2 0.234156 0.409914 0.133395
1779 4 0.229302 0.439531 0.110902
1777 2 0.218275 0.459185 0.100072
1430 4 0.253889 0.498617 0.162812
291 4 0.237864 0.43416 0.128539
283 2 0.296458 0.461534 0.105078
1431 4 0.276427 0.476696 0.123924
1429 2 0.265158 0.487656 0.143368
285 4 0.28444 0.458331 0.126768
658 2 0.404855 0.458597 0.10783
660 4 0.408009 0.46423 0.131986
1575 4 0.413706 0.471549 0.148881
731 4 0.101152 0.0849886 0.171233
730 2 0.109727 0.0619966 0.176032
732 4 0.118301 0.0390045 0.18083
1403 4 0.12986 0.0237361 0.186002
1402 2 0.150857 0.019013 0.198731
1404 4 0.171854 0.01429 0.211459
764 4 0.181278 0.027892 0.225679
763 2 0.195464 0.04575 0.21543
765 4 0.20965 0.0636079 0.205182
1496 4 0.219602 0.0772812 0.216255
1495 2 0.243919 0.0720373 0.213729
2419 2 0.269218 0.0230127 0.167671
653 4 0.311301 0.0278674 0.181489
652 2 0.327193 0.0145983 0.16747
2421 4 0.291078 0.029458 0.177956
744 4 0.282665 0.0732636 0.222282
742 2 0.299685 0.0676577 0.204844
743 4 0.316704 0.0620519 0.187406
1497 4 0.268235 0.0667934 0.211204
24 3 0.329592 0.0734701 0.175528
2745 4 0.411502 0.0181961 0.225465
699 4 0.357347 0.0574647 0.250232
3678 4 0.361155 0.077418 0.248309
692 4 0.054436 0.132441 0.171967
691 2 0.0297865 0.128324 0.172763
2848 2 0.0642617 0.145781 0.224571
2850 4 0.0526872 0.133618 0.243098
2849 4 0.0758363 0.157943 0.206043
938 4 0.130904 0.1475 0.247333
477 4 0.191785 0.106722 0.18907
475 2 0.204735 0.100296 0.16867
21 1 0.338336 0.0949585 0.175081
23 3 0.345256 0.101138 0.196349
311 4 0.3641 0.108633 0.193187
310 2 0.387454 0.11685 0.189686
312 4 0.410808 0.125066 0.186185
497 4 0.349704 0.175177 0.250417
333 4 0.429964 0.125488 0.185812
2768 4 0.48531 0.101019 0.190566
332 4 0.468121 0.093223 0.183891
331 2 0.449042 0.109356 0.184851
379 2 0.225022 0.230495 0.167979
380 4 0.218173 0.231419 0.192008
749 4 0.209802 0.242008 0.205813
421 2 0.272619 0.19399 0.244212
422 4 0.274867 0.217449 0.235859
401 4 0.285583 0.216039 0.218911
400 2 0.29119 0.230355 0.199193
402 4 0.296796 0.244671 0.179475
423 4 0.27037 0.17053 0.252564
279 4 0.369716 0.178012 0.24817
277 2 0.374869 0.195355 0.230911
278 4 0.380022 0.212697 0.213653
337 2 0.0672193 0.297605 0.222656
339 4 0.0511141 0.298617 0.241755
338 4 0.0833245 0.296593 0.203557
748 2 0.204967 0.2665 0.204421
750 4 0.200132 0.290993 0.203028
509 4 0.198811 0.30957 0.19552
508 2 0.19909 0.333974 0.190084
29 3 0.303306 0.252588 0.16208
737 4 0.415576 0.329029 0.240815
387 4 0.413963 0.32864 0.170567
2838 4 0.486665 0.253867 0.224463
2836 2 0.469815 0.26406 0.209056
2837 4 0.452966 0.274253 0.193649
2703 4 0.446657 0.292999 0.185955
309 4 0.204098 0.377459 0.186657
510 4 0.199368 0.358378 0.184648
307 2 0.224005 0.390318 0.194628
308 4 0.243912 0.403176 0.202599
588 4 0.358722 0.369484 0.165687
587 4 0.372092 0.405283 0.197943
586 2 0.365407 0.387384 0.181815
611 4 0.414238 0.376097 0.207237
612 4 0.414671 0.347558 0.248299
610 2 0.414454 0.361827 0.227768
101 1 0.431886 0.366764 0.171565
102 3 0.424364 0.345026 0.17176
104 3 0.455084 0.366678 0.172074
103 3 0.423593 0.377738 0.190252
2652 4 0.456969 0.384867 0.181986
2650 2 0.465163 0.407136 0.189869
547 2 0.0695259 0.467407 0.234468
548 4 0.0777656 0.475088 0.212145
345 4 0.166778 0.455137 0.1766
344 4 0.129269 0.43327 0.201413
343 2 0.148023 0.444203 0.189007
768 4 0.23766 0.420529 0.209342
766 2 0.242815 0.421888 0.23377
414 4 0.226138 0.481788 0.225723
1555 2 0.230669 0.498195 0.196541
1557 4 0.225488 0.500889 0.220853
1556 4 0.235851 0.4955 0.17223
434 4 0.334026 0.43493 0.239224
1573 2 0.413563 0.491852 0.163474
435 4 0.370649 0.42314 0.207279
433 2 0.352338 0.429035 0.223251
2651 4 0.473357 0.429404 0.197753
2449 2 0.458082 0.448073 0.229518
2451 4 0.457037 0.435652 0.207843
1764 4 0.0103966 0.0116408 0.338312
531 4 0.0464194 0.0612497 0.289269
529 2 0.0231272 0.0672217 0.296123
1763 4 0.0554318 0.0295842 0.326041
1762 2 0.0329142 0.0206125 0.332176
1422 4 0.0647187 0.0258948 0.307504
1420 2 0.0789136 0.0156757 0.289637
1421 4 0.0931085 0.00545662 0.271769
1416 4 0.0820939 0.00141322 0.254774
1699 2 0.234779 0.0409894 0.327102
1700 4 0.24503 0.0516493 0.306942
468 4 0.2567 0.0661148 0.300632
466 2 0.249903 0.085097 0.285845
697 2 0.353697 0.034145 0.258481
698 4 0.350048 0.0108252 0.266731
300 4 0.0716221 0.122337 0.281622
298 2 0.0859641 0.142729 0.279706
937 2 0.147515 0.12909 0.250548
299 4 0.100306 0.16312 0.27779
939 4 0.164126 0.11068 0.253763
546 4 0.2239 0.0997239 0.267478
544 2 0.198964 0.0981705 0.266513
545 4 0.174027 0.0966171 0.265547
467 4 0.243106 0.104079 0.271058
632 4 0.308657 0.140438 0.277415
631 2 0.307456 0.134271 0.301616
633 4 0.306254 0.128104 0.325818
498 4 0.315221 0.140031 0.259162
496 2 0.332463 0.157604 0.254789
3676 2 0.36525 0.0990351 0.260188
3677 4 0.369346 0.120652 0.272067
708 4 0.380818 0.120032 0.2885
706 2 0.405093 0.119453 0.294462
707 4 0.429369 0.118873 0.300424
305 4 0.487283 0.159495 0.287458
489 4 0.441262 0.117035 0.284461
487 2 0.462331 0.129468 0.289628
488 4 0.483401 0.1419 0.294795
365 4 0.0793276 0.2352 0.275261
371 4 0.117209 0.173431 0.277546
372 4 0.153088 0.20613 0.265536
370 2 0.135148 0.189781 0.271541
390 4 0.167962 0.192303 0.265957
389 4 0.216583 0.18079 0.263904
388 2 0.192272 0.186546 0.264931
261 4 0.230296 0.186465 0.277431
259 2 0.241438 0.202195 0.293356
600 4 0.254335 0.229497 0.326173
260 4 0.252581 0.217925 0.309281
598 2 0.268976 0.248677 0.319618
473 4 0.345613 0.241302 0.319565
364 2 0.0689336 0.257563 0.271132
366 4 0.0585395 0.279925 0.267002
416 4 0.0487568 0.29259 0.279984
415 2 0.0478706 0.317543 0.27867
472 2 0.323036 0.250747 0.314445
474 4 0.300458 0.260192 0.309325
599 4 0.283616 0.267857 0.313064
738 4 0.406503 0.295095 0.276408
736 2 0.411039 0.312062 0.258611
249 4 0.435752 0.258747 0.327104
247 2 0.42633 0.272938 0.3088
248 4 0.416909 0.287129 0.290497
417 4 0.0469844 0.342497 0.277355
648 4 0.0341627 0.356781 0.279076
646 2 0.0452068 0.377359 0.270146
647 4 0.0562509 0.397936 0.261215
2954 4 0.069631 0.395322 0.275397
2953 2 0.0897464 0.403708 0.287654
2955 4 0.109862 0.412093 0.299911
502 2 0.280766 0.407488 0.281015
503 4 0.295504 0.392537 0.294595
728 4 0.301363 0.394854 0.312989
679 2 0.075668 0.458558 0.328334
549 4 0.0612862 0.459726 0.25679
3672 4 0.0403574 0.459297 0.333719
777 4 0.125867 0.42216 0.306024
680 4 0.094853 0.458044 0.312307
303 4 0.139319 0.480288 0.270967
775 2 0.128354 0.442999 0.292432
776 4 0.13084 0.463837 0.27884
412 2 0.224306 0.475898 0.249953
1819 2 0.200702 0.474034 0.301264
1821 4 0.202668 0.472895 0.276363
413 4 0.222473 0.470008 0.274184
1820 4 0.198737 0.475172 0.326164
1641 4 0.20675 0.460504 0.335986
504 4 0.266028 0.42244 0.267434
767 4 0.247971 0.423246 0.258199
1435 2 0.324692 0.454972 0.274582
1437 4 0.327798 0.469054 0.295009
1707 4 0.316631 0.484435 0.303174
1436 4 0.321586 0.440891 0.254156
2450 4 0.459127 0.460494 0.251193
594 4 0.489597 0.466056 0.30285
592 2 0.469118 0.47956 0.30769
593 4 0.448639 0.493064 0.312531
713 4 0.429214 0.48486 0.31305
2636 4 0.0722984 0.0717987 0.413569
340 2 0.150396 0.0454149 0.411495
341 4 0.163179 0.0393042 0.390894
1701 4 0.224527 0.0303296 0.347263
604 2 0.187949 0.0237336 0.366559
606 4 0.211215 0.0205048 0.357988
320 4 0.226588 0.0826171 0.395103
404 4 0.238491 0.0828553 0.37936
605 4 0.164683 0.0269623 0.375129
319 2 0.203923 0.0814327 0.384613
321 4 0.181257 0.0802483 0.374122
683 4 0.274673 0.00114335 0.403084
403 2 0.257731 0.066887 0.37926
405 4 0.276971 0.0509187 0.37916
1518 4 0.280638 0.0416055 0.362353
1516 2 0.303782 0.0376663 0.370958
1818 4 0.336973 0.0212588 0.393172
1517 4 0.326925 0.0337271 0.379564
470 4 0.0703917 0.155691 0.330933
368 4 0.0931911 0.160821 0.387909
369 4 0.116095 0.124244 0.362645
367 2 0.104643 0.142533 0.375277
1182 4 0.130028 0.119172 0.375964
1180 2 0.147761 0.102125 0.380448
1181 4 0.165494 0.0850776 0.384933
425 4 0.404658 0.125824 0.391113
426 4 0.447076 0.15066 0.381915
424 2 0.425867 0.138242 0.386514
420 4 0.457143 0.158545 0.36758
469 2 0.0688837 0.177427 0.343199
471 4 0.0673757 0.199162 0.355466
2535 4 0.0616121 0.216184 0.361689
2533 2 0.0393385 0.226286 0.366887
2534 4 0.017065 0.236388 0.372085
348 4 0.074898 0.244634 0.400129
734 4 0.0834576 0.227081 0.395731
735 4 0.0888871 0.177428 0.398141
733 2 0.0861724 0.202254 0.396936
274 2 0.374503 0.231002 0.338737
276 4 0.399391 0.230244 0.34101
275 4 0.349614 0.231761 0.336465
267 4 0.410097 0.246941 0.340701
419 4 0.4449 0.206517 0.36054
266 4 0.44358 0.224373 0.370202
418 2 0.451022 0.182531 0.36406
265 2 0.426838 0.235657 0.355452
678 4 0.12934 0.330323 0.360832
676 2 0.14767 0.319995 0.374342
569 4 0.110056 0.32496 0.362101
677 4 0.166 0.309667 0.387852
716 4 0.180352 0.299193 0.398203
715 2 0.181146 0.282321 0.41664
377 4 0.383258 0.312889 0.386463
614 4 0.401341 0.319064 0.378283
376 2 0.368113 0.328961 0.398191
613 2 0.417247 0.318979 0.358991
615 4 0.433153 0.318894 0.339699
813 4 0.426173 0.293043 0.420021
934 2 0.082721 0.385293 0.403767
935 4 0.0785776 0.372208 0.382867
570 4 0.0793076 0.353411 0.38941
568 2 0.0946821 0.339185 0.375756
804 4 0.191435 0.352189 0.388273
802 2 0.208812 0.368201 0.396448
803 4 0.226189 0.384214 0.404622
727 2 0.303345 0.383637 0.335247
729 4 0.305326 0.37242 0.357506
543 4 0.308185 0.3847 0.373411
541 2 0.323798 0.369593 0.385789
378 4 0.352968 0.345032 0.409918
542 4 0.33941 0.354487 0.398167
585 4 0.446242 0.356067 0.415155
681 4 0.056483 0.459073 0.34436
3671 4 0.993962 0.456745 0.352204
3670 2 0.01716 0.458021 0.342961
1446 4 0.202473 0.479701 0.391223
1640 4 0.206838 0.490552 0.375958
1639 2 0.206794 0.475528 0.355972
1444 2 0.182906 0.473474 0.405489
751 2 0.315425 0.481321 0.409469
1802 4 0.412741 0.483666 0.380911
1471 2 0.393426 0.450351 0.361621
1472 4 0.404337 0.472018 0.367674
1473 4 0.382514 0.428684 0.355568
1491 4 0.0257865 0.0369904 0.431829
1489 2 0.0177893 0.0133622 0.433543
2637 4 0.0273332 0.0572549 0.429919
2635 2 0.0498158 0.0645268 0.421744
1647 4 0.0989202 0.00865927 0.45754
1646 4 0.118868 0.0497888 0.437263
342 4 0.137612 0.0515256 0.432097
1645 2 0.108894 0.029224 0.447402
851 4 0.133492 0.0137157 0.496301
684 4 0.245876 0.0235809 0.43726
431 4 0.242732 0.0435353 0.435351
257 4 0.292441 0.00169104 0.480455
256 2 0.314588 0.00970883 0.472067
726 4 0.276654 0.0138957 0.48729
682 2 0.260275 0.0123621 0.420172
430 2 0.255238 0.0585218 0.450977
258 4 0.336736 0.0177266 0.463678
1816 2 0.336871 0.0182851 0.417997
432 4 0.267745 0.0735082 0.466603
1817 4 0.336768 0.0153113 0.442823
480 4 0.411822 0.0568555 0.494184
478 2 0.40345 0.0348034 0.485891
479 4 0.395077 0.0127513 0.477597
857 4 0.219044 0.119647 0.503521
790 2 0.255719 0.102586 0.485185
792 4 0.274829 0.0884919 0.477354
3265 2 0.00951266 0.236788 0.463195
1211 4 0.181917 0.168146 0.442369
1210 2 0.191134 0.190066 0.450097
1200 4 0.212269 0.226993 0.457765
1198 2 0.233637 0.233898 0.446769
1212 4 0.20035 0.211987 0.457826
1199 4 0.255005 0.240803 0.435773
651 4 0.468216 0.208577 0.461838
649 2 0.458466 0.229931 0.470448
3266 4 0.021924 0.255334 0.451917
346 2 0.0867526 0.253151 0.420429
2916 4 0.0375702 0.26482 0.460828
2914 2 0.0576846 0.277519 0.468531
2915 4 0.077799 0.290218 0.476233
347 4 0.0986072 0.261669 0.440729
1152 4 0.0812908 0.299641 0.457445
1150 2 0.0906076 0.321798 0.464335
618 4 0.136617 0.274868 0.485364
616 2 0.153007 0.268298 0.467661
717 4 0.18194 0.265449 0.435076
617 4 0.169397 0.261729 0.449958
238 2 0.221754 0.309052 0.46604
239 4 0.241832 0.294361 0.468545
240 4 0.201677 0.323742 0.463535
669 4 0.190615 0.337004 0.471279
710 4 0.261023 0.299699 0.46772
375 4 0.326913 0.310771 0.472415
711 4 0.309421 0.303283 0.479783
709 2 0.285222 0.301491 0.473752
373 2 0.340586 0.29007 0.469304
374 4 0.354258 0.269368 0.466193
873 4 0.372678 0.270752 0.456657
871 2 0.389579 0.280521 0.441034
872 4 0.406481 0.29029 0.425411
1192 2 0.422411 0.274832 0.497814
811 2 0.436722 0.315072 0.414671
1193 4 0.437536 0.268219 0.479035
650 4 0.448716 0.251286 0.479057
936 4 0.0868644 0.398377 0.424667
3354 4 0.0340812 0.391973 0.485785
1220 4 0.047317 0.378161 0.489768
1398 4 0.0998724 0.412469 0.418053
1151 4 0.0999244 0.343954 0.471225
1178 4 0.0887236 0.360589 0.469431
1177 2 0.0931467 0.378127 0.486694
667 2 0.184774 0.34528 0.494139
1401 4 0.357681 0.396815 0.425976
561 4 0.338356 0.399173 0.431466
1399 2 0.378268 0.392103 0.439361
1400 4 0.398855 0.387392 0.452746
1455 4 0.413686 0.401717 0.446915
812 4 0.447272 0.3371 0.40932
1453 2 0.422338 0.407779 0.469578
584 4 0.48788 0.368343 0.439981
583 2 0.467061 0.362205 0.427568
3352 2 0.0435851 0.415033 0.487541
4298 4 0.0623575 0.454156 0.484181
3353 4 0.053089 0.438093 0.489296
1396 2 0.098892 0.436314 0.425509
1752 4 0.0978569 0.47902 0.424903
1397 4 0.0979116 0.46016 0.432965
1445 4 0.163339 0.467248 0.419756
881 4 0.240533 0.458914 0.494162
383 4 0.189186 0.438268 0.496627
2222 4 0.167681 0.45227 0.433028
2223 4 0.187662 0.447881 0.478659
2221 2 0.177672 0.450075 0.455843
882 4 0.245084 0.491948 0.456897
560 4 0.317651 0.444461 0.426888
559 2 0.328004 0.421817 0.429177
880 2 0.242809 0.475431 0.47553
752 4 0.306883 0.46062 0.42059
1454 4 0.43099 0.41384 0.49224
1058 4 0.141645 0.0227121 0.513235
850 2 0.111481 0.00997889 0.507557
1057 2 0.164216 0.0292293 0.521794
852 4 0.0894689 0.00624208 0.518813
1059 4 0.186787 0.0357465 0.530352
410 4 0.206743 0.0346668 0.533576
409 2 0.213407 0.0343993 0.557673
411 4 0.220072 0.0341318 0.581771
1060 2 0.354561 0.078361 0.562556
1062 4 0.368412 0.0609709 0.573998
1218 4 0.387823 0.0541202 0.577316
1271 4 0.142098 0.139625 0.566593
1270 2 0.15252 0.128484 0.546783
1272 4 0.162942 0.117344 0.526973
856 2 0.199245 0.112233 0.516871
858 4 0.179446 0.104818 0.53022
791 4 0.236609 0.116681 0.493016
3732 4 0.34156 0.115909 0.555151
1061 4 0.340711 0.095751 0.551114
3730 2 0.352973 0.137252 0.548872
3731 4 0.364385 0.158595 0.542594
515 4 0.383513 0.157198 0.548971
3355 2 0.466004 0.141714 0.577023
3356 4 0.464314 0.158932 0.558971
514 2 0.402319 0.172898 0.553975
516 4 0.421125 0.188597 0.55898
1030 2 0.452993 0.192392 0.561472
1032 4 0.432527 0.206726 0.562399
1031 4 0.473458 0.178058 0.560546
641 4 0.490074 0.188891 0.57357
953 4 0.485897 0.227753 0.510596
952 2 0.474099 0.243344 0.526181
500 4 0.0231362 0.312313 0.569617
499 2 0.0295622 0.326172 0.549823
1007 4 0.297394 0.329489 0.539394
796 2 0.326705 0.328433 0.521649
797 4 0.305202 0.340705 0.525139
1238 4 0.399191 0.25136 0.561655
798 4 0.348208 0.316161 0.518159
899 4 0.351889 0.298043 0.509898
900 4 0.391266 0.273876 0.529032
898 2 0.371577 0.285959 0.519465
1194 4 0.407286 0.281445 0.516594
1237 2 0.421267 0.257736 0.551796
954 4 0.462301 0.258935 0.541767
1239 4 0.443342 0.264112 0.541937
926 4 0.449134 0.325217 0.534171
1221 4 0.020248 0.34827 0.51934
1219 2 0.0337825 0.363216 0.504554
3119 4 0.0088719 0.41525 0.522462
983 4 0.0488835 0.40662 0.570353
501 4 0.0359882 0.340032 0.530029
877 2 0.0756446 0.385231 0.559737
879 4 0.0598174 0.403624 0.553707
1179 4 0.0975698 0.395665 0.503958
878 4 0.0914718 0.366838 0.565767
1008 4 0.250179 0.342772 0.54914
668 4 0.178932 0.353557 0.516998
807 4 0.247818 0.361208 0.539551
805 2 0.224344 0.359421 0.547975
806 4 0.20087 0.357635 0.556398
1006 2 0.273786 0.33613 0.544267
929 4 0.417117 0.351911 0.584316
928 2 0.39502 0.362304 0.578939
2026 2 0.345065 0.398658 0.574279
930 4 0.372924 0.372697 0.573562
2028 4 0.352943 0.37514 0.577447
925 2 0.432347 0.331934 0.55144
927 4 0.415559 0.338652 0.568709
335 4 0.417246 0.404813 0.552929
334 2 0.427923 0.412194 0.531559
663 4 0.429295 0.400585 0.568401
982 2 0.0291073 0.412043 0.556046
984 4 0.00933115 0.417466 0.54174
4297 2 0.0766907 0.45761 0.504375
408 4 0.108165 0.467604 0.531848
406 2 0.105009 0.454981 0.553199
407 4 0.101853 0.442357 0.574551
4299 4 0.0910239 0.461064 0.524569
384 4 0.180833 0.480559 0.521973
382 2 0.185009 0.459414 0.5093
1160 4 0.161187 0.480339 0.527589
774 4 0.24874 0.458894 0.511875
2027 4 0.337188 0.422175 0.571111
772 2 0.265229 0.452056 0.529383
773 4 0.281718 0.445218 0.546891
2152 2 0.310166 0.449588 0.564779
2153 4 0.286504 0.457203 0.562072
2154 4 0.333827 0.441972 0.567485
336 4 0.4386 0.419575 0.510189
4194 4 0.104433 0.999692 0.652767
1524 4 0.220594 0.0326793 0.602155
1522 2 0.245583 0.0335073 0.602349
1523 4 0.270572 0.0343354 0.602543
1781 4 0.288991 0.0347267 0.595745
1780 2 0.309919 0.0447203 0.60509
1153 2 0.327989 0.0614193 0.65755
1155 4 0.325786 0.059622 0.632708
1217 4 0.399844 0.00710181 0.589377
1216 2 0.393834 0.030611 0.583346
1782 4 0.330847 0.0547138 0.614435
1091 4 0.38347 0.00289796 0.644984
951 4 0.371743 0.0100656 0.628578
43 3 0.400077 0.072365 0.638717
45 3 0.38263 0.0399054 0.630995
44 3 0.414652 0.0394086 0.650795
41 1 0.395067 0.0510737 0.646462
42 3 0.383028 0.0529015 0.665979
4225 2 0.489637 0.0536592 0.61482
4226 4 0.473277 0.0724899 0.613107
2133 4 0.129943 0.141066 0.623093
2131 2 0.118669 0.121598 0.634004
2132 4 0.107394 0.10213 0.644915
1282 2 0.165709 0.164885 0.626163
1284 4 0.152119 0.148269 0.638986
962 4 0.0967479 0.0945965 0.660169
1277 4 0.161523 0.149041 0.65612
3400 2 0.39198 0.105674 0.631694
3402 4 0.411826 0.0995913 0.617754
3401 4 0.372134 0.111757 0.645633
1143 4 0.377629 0.123362 0.662279
1026 4 0.457082 0.0781376 0.623928
1025 4 0.417515 0.0960457 0.599139
3357 4 0.467695 0.124496 0.595075
1024 2 0.437298 0.0870916 0.611533
3009 4 0.464871 0.135601 0.635449
3007 2 0.487481 0.125249 0.632841
3077 4 0.0361075 0.237288 0.580958
3076 2 0.0279947 0.222105 0.599092
3031 2 0.0227 0.213299 0.659236
3033 4 0.0240932 0.204371 0.635923
3078 4 0.0198819 0.206921 0.617226
1283 4 0.179298 0.1815 0.61334
695 4 0.172468 0.200356 0.615867
694 2 0.184903 0.220851 0.622974
696 4 0.197338 0.241346 0.630081
840 4 0.245999 0.168554 0.658662
1167 4 0.324479 0.24299 0.650651
1165 2 0.312101 0.244409 0.672329
829 2 0.386911 0.195114 0.64333
801 4 0.3924 0.231293 0.625875
799 2 0.399117 0.237017 0.60248
831 4 0.391409 0.210968 0.624526
830 4 0.382412 0.17926 0.662134
1137 4 0.341029 0.242772 0.635721
3264 4 0.0337969 0.309775 0.587155
3043 2 0.0816556 0.281518 0.638504
3262 2 0.0468547 0.290399 0.596057
3263 4 0.0599125 0.271023 0.604959
3045 4 0.0628759 0.280788 0.622012
3044 4 0.100435 0.282249 0.654995
1067 4 0.100943 0.302159 0.654966
1260 4 0.191156 0.261506 0.630124
1258 2 0.213426 0.269457 0.638247
10 3 0.255568 0.27632 0.649174
1259 4 0.235696 0.277409 0.646371
815 4 0.171055 0.28936 0.675149
800 4 0.405834 0.24274 0.579086
1135 2 0.336528 0.263185 0.622001
1136 4 0.332027 0.283598 0.60828
1028 4 0.373675 0.291797 0.658802
3022 2 0.4907 0.314503 0.646088
3023 4 0.486154 0.295636 0.661853
1393 2 0.267731 0.338215 0.657168
1394 4 0.283039 0.356234 0.649033
891 4 0.298172 0.366674 0.657574
1010 4 0.353028 0.377616 0.638355
1009 2 0.364089 0.367057 0.658137
661 2 0.426131 0.416616 0.587326
2170 2 0.0204472 0.482251 0.65251
2171 4 0.0408405 0.492884 0.642701
2172 4 5.37903e-05 0.471617 0.662319
1173 4 0.101796 0.451779 0.593431
1190 4 0.136046 0.447779 0.652264
1172 4 0.124897 0.454581 0.637694
1171 2 0.113347 0.45318 0.615562
2175 4 0.375512 0.484966 0.657632
662 4 0.422966 0.432646 0.606252
2141 4 0.437199 0.430104 0.62055
2140 2 0.460558 0.430455 0.629461
2142 4 0.483917 0.430806 0.638373
4374 4 0.499953 0.424666 0.628036
2048 4 0.122066 0.0783468 0.714466
2255 4 0.123703 0.0128122 0.701838
2254 2 0.135888 0.0145656 0.723601
4193 4 0.104492 0.00644292 0.702316
2047 2 0.119608 0.0782429 0.739349
4192 2 0.104463 0.00306738 0.677542
945 4 0.153281 0.0294348 0.757932
963 4 0.106871 0.0899655 0.708922
2256 4 0.148073 0.0163189 0.745364
2400 4 0.24098 0.996977 0.672201
1154 4 0.330191 0.0632166 0.682391
1163 4 0.448244 0.989769 0.680712
961 2 0.10181 0.092281 0.684545
1276 2 0.17381 0.150983 0.67781
1278 4 0.186098 0.152926 0.699499
977 4 0.180895 0.162505 0.715986
1263 4 0.305405 0.118293 0.680611
887 4 0.291174 0.129776 0.687305
1261 2 0.323715 0.126498 0.695531
886 2 0.274575 0.147237 0.680614
1141 2 0.375106 0.147221 0.669318
1262 4 0.342025 0.134702 0.710452
843 4 0.360532 0.12594 0.708062
841 2 0.379546 0.130255 0.723716
842 4 0.398559 0.134571 0.739371
1112 4 0.411592 0.120528 0.732838
1085 4 0.45056 0.130608 0.702628
1084 2 0.439864 0.153117 0.700599
87 3 0.468191 0.137144 0.712806
86 1 0.477731 0.117035 0.718618
88 3 0.4743 0.101853 0.70141
90 3 0.468051 0.109397 0.737765
3032 4 0.0213067 0.222227 0.68255
1077 4 0.0259383 0.226738 0.701755
976 2 0.165247 0.173374 0.732178
978 4 0.149599 0.184244 0.74837
838 2 0.228431 0.183406 0.668457
839 4 0.210863 0.198258 0.678252
1130 4 0.211714 0.217224 0.684209
1129 2 0.222077 0.238938 0.691015
888 4 0.257975 0.164697 0.673923
1166 4 0.299723 0.245828 0.694007
1142 4 0.372583 0.17108 0.676357
50 3 0.386149 0.204117 0.686954
49 3 0.358407 0.178913 0.690529
47 3 0.351901 0.215441 0.696532
46 1 0.367453 0.198637 0.698747
48 3 0.3727 0.196187 0.721216
1086 4 0.429169 0.175626 0.698569
3113 4 0.425138 0.192268 0.709232
3114 4 0.46062 0.225271 0.696882
3182 4 0.457079 0.243042 0.687217
3112 2 0.442879 0.208769 0.703057
1075 2 0.0244839 0.251091 0.696282
1076 4 0.0230296 0.275445 0.690808
1066 2 0.107346 0.314093 0.675984
1068 4 0.11375 0.326026 0.697002
814 2 0.162509 0.312133 0.68094
822 4 0.103734 0.327759 0.714301
1395 4 0.252424 0.320196 0.665303
7 3 0.243135 0.267852 0.68333
1131 4 0.232439 0.260651 0.697821
8 3 0.251661 0.303486 0.67495
6 1 0.257417 0.281303 0.671319
9 3 0.279145 0.277478 0.678507
1027 2 0.359851 0.274436 0.670322
1029 4 0.346028 0.257076 0.681842
1018 2 0.409094 0.332355 0.698718
1019 4 0.389602 0.316758 0.697309
3181 2 0.465608 0.265772 0.681235
3183 4 0.474136 0.288503 0.675254
1307 4 0.481046 0.329881 0.701588
1306 2 0.498655 0.330672 0.719322
821 4 0.0772157 0.358067 0.743948
1209 4 0.0605298 0.361437 0.734403
1207 2 0.0386875 0.369483 0.725274
1208 4 0.0168451 0.37753 0.716144
816 4 0.153964 0.334906 0.686731
820 2 0.0904748 0.342913 0.729124
1121 4 0.143479 0.349349 0.675442
1120 2 0.142983 0.369077 0.690796
1122 4 0.142488 0.388805 0.70615
889 2 0.309254 0.363715 0.679791
890 4 0.320336 0.360756 0.702009
1011 4 0.375151 0.356498 0.677919
1230 4 0.337671 0.368863 0.707606
1228 2 0.357665 0.358931 0.718865
1229 4 0.377659 0.348999 0.730124
998 4 0.381962 0.35969 0.746552
1020 4 0.428585 0.347953 0.700126
1189 2 0.124191 0.451807 0.673906
946 2 0.109473 0.445292 0.727933
947 4 0.125324 0.454667 0.711019
1191 4 0.112336 0.455834 0.695549
948 4 0.0936234 0.435918 0.744846
1176 4 0.233836 0.470542 0.682491
1188 4 0.234932 0.491273 0.684885
1174 2 0.237084 0.454741 0.701595
1175 4 0.240333 0.43894 0.720699
1903 2 0.256561 0.424807 0.749691
1905 4 0.253125 0.423953 0.724939
2168 4 0.290318 0.489403 0.723902
2174 4 0.395846 0.490397 0.702994
2173 2 0.385679 0.487681 0.680313
1268 4 0.453886 0.474342 0.707554
1267 2 0.46892 0.493822 0.71199
2049 4 0.11715 0.078139 0.764231
943 2 0.175654 0.0313742 0.768926
909 4 0.20588 0.0287598 0.79782
944 4 0.198027 0.0333137 0.779919
907 2 0.215252 0.0428481 0.816228
908 4 0.224623 0.0569363 0.834637
1050 4 0.23227 0.0819631 0.788443
1048 2 0.257127 0.0792686 0.788515
1049 4 0.281985 0.076574 0.788588
966 4 0.299825 0.0722711 0.795882
35 3 0.377547 0.0294104 0.766386