LAMMPS data file via write_data, version 19 Nov 2024, timestep = 2000000, units = lj

400 atoms
4 atom types
300 bonds
1 bond types
350 angles
2 angle types

-4 4 xlo xhi
-4 4 ylo yhi
-4 4 zlo zhi

Masses

1 1
2 1
3 1
4 1

Bond Coeffs # harmonic/omp

1 100 0.45

Angle Coeffs # harmonic/omp

1 100 180
2 100 109.471

Atoms # full

78 16 3 0 -3.4888072370749734 -3.8026722956059076 -2.8014509963769574 0 0 1
76 16 1 0 -3.3997900003262256 -3.534248843606033 -3.115239173317464 0 0 1
80 16 3 0 -3.7298126624317476 -3.26244455343652 -3.1551642850631603 0 0 1
79 16 3 0 -3.0559395434039134 -3.318265615448771 -3.025779646541368 0 0 1
279 60 4 0 -3.821046055118026 -3.042838496195573 -3.473737596181441 0 0 0
77 16 3 0 -3.3432402829797154 -3.7577376214069473 -3.494387303863606 0 0 1
215 43 3 0 1.251214998985161 -3.098859057635239 -2.95005138191164 0 1 1
211 43 1 0 1.6246235702226501 -3.0269604711979095 -3.1781343930145796 0 1 1
213 43 3 0 1.9508275311589378 -2.845632031374285 -2.8977751314877827 0 1 1
214 43 3 0 1.5338330248643817 -2.70722836337747 -3.5240919329927203 0 1 1
212 43 3 0 1.7681913743760758 -3.39413595309347 -3.350573770725468 0 1 1
385 95 4 0 2.1521731340558246 -3.385068352999613 -3.3989937185584713 0 1 1
331 77 4 0 1.7218124277547096 -2.63741393754241 -3.850268874498627 0 0 1
383 95 2 0 2.4466960423500526 -3.7389925505811807 -3.4303272984773554 0 1 1
278 60 2 0 3.8624689791742117 -2.729330695740434 -3.4294318329060953 -1 0 0
280 60 4 0 3.560689413462055 -2.4105469155040535 -3.3909386441260945 -1 0 0
137 28 3 0 3.515486972309799 -3.695745756792668 -3.6718628841725502 0 1 0
229 46 3 0 -0.31501582018381635 -0.3180534260436333 -3.14279300520267 1 1 1
307 69 4 0 0.7079787995524398 -0.3840876546389082 -2.904021281225957 0 0 1
226 46 1 0 0.044885783622935944 -0.5224231536768417 -3.3387076471826194 1 1 1
227 46 3 0 0.40961105743042703 -0.34579043314930946 -3.172579867107196 1 1 1
228 46 3 0 0.037469978292556855 -0.9348336730298052 -3.2696297167165205 1 1 1
230 46 3 0 0.048633663569123325 -0.45023284221282733 -3.804415747846459 1 1 1
305 69 2 0 0.6979155492276835 -0.2639297327454714 -2.492797295224225 0 0 1
306 69 4 0 0.6769511485474388 -0.1489255857025005 -2.0785347414487823 0 0 1
148 30 3 0 0.3773735303655215 -0.1216693276420192 -3.9959240521348582 -1 0 0
251 51 2 0 2.2179651600938035 -0.523257596261572 -3.814266036201486 0 0 0
262 54 4 0 2.0427079589442836 -1.1727201078632308 -2.1160781273849416 0 0 0
253 51 4 0 2.5063054543495316 -0.2238039468289792 -3.6132916409452145 0 0 0
172 35 3 0 2.2764961531468986 -1.5065132172725237 -2.0392248690681067 -1 0 0
58 12 3 0 2.2571432109169205 -0.24701033049192675 -2.6937735577614585 0 0 0
265 55 4 0 3.686579191709303 -3.8858382983401407 -0.8851642628595779 -1 0 0
260 54 2 0 2.1681232342336254 -0.9119348645790877 -2.455283572884654 0 0 0
35 7 3 0 3.474567511002517 -2.012627299273844 -3.3837541079015243 -1 0 0
31 7 1 0 3.3540482539636733 -1.7380447246795376 -3.6908518501177703 -1 0 0
261 54 4 0 2.2904817082196103 -0.6502558156954878 -2.787063919887334 0 0 0
32 7 3 0 3.162668230849777 -1.3854089841020785 -3.51477157311099 -1 0 0
34 7 3 0 3.7088955470556226 -1.6022368436140497 -3.907209919489443 -1 0 0
33 7 3 0 3.080026981811841 -1.9316060124745815 -3.9678981212805007 -1 0 0
57 12 3 0 2.9241483253299414 -0.02024899473324443 -2.7258667398694865 0 0 0
49 10 3 0 -3.0065271792522936 -2.2225750707202354 -1.7102988919973365 0 0 0
272 58 2 0 -2.8027853712723236 -2.9873940771553475 -0.5884279911811774 0 0 0
274 58 4 0 -3.242219860202318 -2.8200595932633123 -0.649824888399085 0 0 0
72 15 3 0 -3.620045565201261 -2.735574059669487 -0.5130932088945651 1 0 0
47 10 3 0 -3.713874370270722 -2.2062357557017966 -1.8155741126866796 0 0 0
71 15 1 0 3.991380203722205 -2.534230733604344 -0.5083220488815535 0 0 0
285 62 4 0 -2.701852410012048 -2.101214145225537 -1.4977498818034884 1 0 0
75 15 3 0 -3.9842872531830196 -2.152606552331112 -0.7548164898166972 1 0 0
74 15 3 0 3.871067765598454 -2.428154187436373 -0.06276522425538242 0 0 0
46 10 1 0 -3.3772540173973313 -2.032855962496499 -1.5818033719590905 0 0 0
48 10 3 0 -3.441762517747376 -2.1282547139309007 -1.1380820054356566 0 0 0
273 58 4 0 -2.399231848214437 -3.1505540640229888 -0.5382684586408099 0 0 0
284 62 2 0 -2.329500004592807 -2.3893372838382203 -1.4735000318260754 1 0 0
52 11 3 0 -2.00900691877247 -3.1270400152201456 -0.6643201091646802 1 0 0
286 62 4 0 -1.985539978661206 -2.6526773435453967 -1.4643704076970305 1 0 0
55 11 3 0 -1.671730864346423 -2.773024661436328 -1.2539015449899527 1 0 0
51 11 1 0 -1.59524996994028 -3.010794020845272 -0.8658099835554377 1 0 0
54 11 3 0 -1.3560220628645407 -3.4033161960963447 -0.9677125506635248 1 0 0
53 11 3 0 -1.3577525328641054 -2.7564156760645933 -0.570233488655276 1 0 0
356 86 2 0 -0.8374788423294636 -2.2001789880350984 -0.27718510866304047 1 1 0
358 86 4 0 -1.0286592049687469 -2.5111264953089094 -0.5497951536512796 1 1 0
143 29 3 0 0.8434111304686556 -3.676509912920351 -1.5893862755415098 0 1 0
254 52 2 0 1.156244335269607 -3.9336603588211254 -0.47433343205600437 0 0 0
256 52 4 0 1.5504536405940044 -3.8200363309553396 -0.646961946685538 0 0 0
238 48 3 0 1.9464287175196764 -3.0590872365101283 -1.3065866021569361 0 1 0
240 48 3 0 1.699061327063278 -3.5277629110046123 -0.862763450835944 0 1 0
236 48 1 0 2.04664015880287 -3.36705388493683 -1.0191158542626821 0 1 0
239 48 3 0 2.2716741761889776 -3.682048703836485 -1.218867790082938 0 1 0
67 14 3 0 3.834387804443649 -3.5760424103009067 -1.9293047115389819 -1 0 0
70 14 3 0 3.8384658403846386 -3.1304129412469974 -1.3155485190193077 -1 0 0
237 48 3 0 2.2927679355877966 -3.185813023861973 -0.67532219441958 0 1 0
69 14 3 0 3.586150049765492 -3.8412365640480393 -1.271729614881904 -1 0 0
68 14 3 0 3.202385309824646 -3.331715922038986 -1.636724431546419 -1 0 0
258 53 4 0 2.6296722768601937 -2.23832578629404 -1.2376588497881098 -1 0 0
66 14 1 0 3.6085306949833424 -3.47121346732289 -1.5388156108454116 -1 0 0
259 53 4 0 3.4206508531006716 -2.5193647833454826 -0.7814839113778206 -1 0 0
257 53 2 0 3.036855828765855 -2.3850803583206317 -1.0032843090276364 -1 0 0
73 15 3 0 3.658832255918246 -2.8334889878480474 -0.7005805998708381 0 0 0
50 10 3 0 -3.353818047259944 -1.6014435067907669 -1.6423814917674806 0 0 0
310 70 4 0 -3.22537004737949 -1.9169406616439115 -0.8677981680739426 1 0 0
111 23 1 0 -2.811664392585738 -0.0740650493393224 -1.1416065779680757 0 0 0
113 23 3 0 -3.1104776426827505 -0.36426849454952204 -1.0343032479686989 0 0 0
324 75 4 0 -3.125883314681317 -0.4253516779831121 -0.6130862643479652 0 0 0
308 70 2 0 -3.0993373851692985 -1.6896333700791413 -0.5259064044400775 1 0 0
115 23 3 0 -2.569452840585655 -0.223727603439582 -1.507193145608 0 0 0
309 70 4 0 -2.9646306278490444 -1.461928230623908 -0.16735197625616052 1 0 0
323 75 2 0 -3.009900103034394 -0.6015432246668161 -0.2042050678206689 0 0 0
346 82 4 0 -1.2909153946592935 -0.2229947443752624 -0.7470082798463784 0 1 0
62 13 3 0 -1.041645056806513 -0.7710281934687533 -1.5649364273028958 0 0 0
64 13 3 0 -0.9657947758514516 -0.25532430646476256 -1.0272184189689986 0 0 0
344 82 2 0 -1.731786807533188 -0.08030875852687022 -0.7153587197830091 0 1 0
270 57 4 0 -0.31209519496899124 -0.9536387810662351 -0.6577704523647474 0 0 0
65 13 3 0 -0.5488601753556115 -0.8620524185165764 -0.994558833637614 0 0 0
269 57 2 0 -0.4691556705003673 -0.9458352480559095 -0.2288628934401279 0 0 0
61 13 1 0 -0.7360925213457378 -0.5552549355350381 -1.2690392838519784 0 0 0
63 13 3 0 -0.40718627988215045 -0.3529890235287007 -1.513940214136695 0 0 0
82 17 3 0 0.4947713581788698 -0.07171310882653527 -1.7269051902201025 0 0 0
391 97 4 0 3.6319567792282323 -0.9270164026309186 -0.9017762636445373 0 0 0
171 35 1 0 2.2246299331984054 -1.6506783265271103 -1.6097683558516667 -1 0 0
175 35 3 0 1.8096715419860423 -1.771078918749502 -1.5451019214036288 -1 0 0
174 35 3 0 2.344662604157179 -1.3001407215878649 -1.3190438274278045 -1 0 0
162 33 3 0 3.342150405565181 -0.805925396585368 -1.167838592948301 0 0 0
165 33 3 0 3.0722376698020555 -0.19089905676436958 -1.5208686943071392 0 0 0
390 97 4 0 3.82503222233365 -1.8042044093905447 -0.8521490638446313 0 0 0
161 33 1 0 3.035828735905024 -0.46639921028276077 -1.153007564393779 0 0 0
173 35 3 0 2.5007145476977675 -2.0154450771149275 -1.5413777744069124 -1 0 0
164 33 3 0 3.08968532568906 -0.22814376492784555 -0.7851160569603204 0 0 0
163 33 3 0 2.6171312387251975 -0.6525214335296381 -1.1597834507404745 0 0 0
389 97 2 0 3.726288404466209 -1.3630169428544112 -0.8799195739405881 0 0 0
112 23 3 0 -2.544684532268311 -0.004650259922896824 -0.79813202339695 0 0 0
357 86 4 0 -0.6529159902521832 -1.880052257673531 -0.00506178696443873 1 1 0
203 41 3 0 -0.22485028396764087 -3.915657806823781 -0.03180490557444979 0 1 0
126 26 1 0 -2.7802044463363265 -2.8305679325130475 1.695456909405549 0 1 0
294 65 4 0 -3.5011944617205075 -2.108526276449046 0.7591914623873499 1 0 0
130 26 3 0 -3.2167246564248377 -2.7619064822465456 1.5633927512554577 0 1 0
293 65 2 0 -3.860910604814559 -2.195716711489533 0.5235504121247133 1 0 0
129 26 3 0 -2.6846966347407437 -3.2678745474227773 1.6714994645965546 0 1 0
128 26 3 0 -2.4831768718496305 -2.5781692251612984 1.3975759943986625 0 1 0
125 25 3 0 -1.1780763063686834 -3.1432597264768387 1.4808622582943751 0 1 -1
121 25 1 0 -1.0957352982664097 -3.478835633742713 1.7561713267011656 0 1 -1
123 25 3 0 -0.9605516100493731 -3.8484771921245113 1.5322019628578274 0 1 -1
124 25 3 0 -1.4940207446662057 -3.5942401782986364 2.0084211616856624 0 1 -1
395 99 2 0 -3.5104608518894516 -0.0511173254300325 1.2635790983655573 0 0 0
97 20 3 0 -2.5033359169523584 -0.013443849383037889 0.4792451347577498 0 0 0
277 59 4 0 2.4039360815257376 -1.8421902887572947 3.0433987582468993 0 0 -1
301 67 4 0 0.8916421563203014 -2.2037341133891366 0.2966052291696331 0 0 0
319 73 4 0 1.176404646321378 -3.058297940811624 1.0675459865597674 0 0 0
104 21 3 0 1.2761976943117246 -2.1732972892675577 0.37660186157232944 0 0 0
317 73 2 0 1.1321991455626432 -3.251130107008542 1.4498500264607417 0 0 0
105 21 3 0 1.5443678490479653 -2.238156294097047 1.0463469713460176 0 0 0
102 21 3 0 1.1294851222168392 -2.7481365999756653 0.7816659232073454 0 0 0
101 21 1 0 1.4355106590176174 -2.4564619123666844 0.6847780209317955 0 0 0
103 21 3 0 1.801372647510406 -2.66354789818942 0.5151036536516665 0 0 0
318 73 4 0 1.076899255715782 -3.4506620810399427 1.8718615428261005 0 0 0
217 44 3 0 0.9530573005818841 -3.851853890962057 1.8916259265950068 0 1 0
295 65 4 0 3.7807220852806673 -2.2798367515841216 0.287739376586016 0 0 0
198 40 3 0 -3.174474669569017 -1.9492755639033938 0.6114622692834998 0 1 0
197 40 3 0 -2.682644566651049 -1.50618031267881 0.9344830740873243 0 1 0
200 40 3 0 -2.8672603165584643 -1.367926460233779 0.19549021562942448 0 1 0
196 40 1 0 -3.0263783122510155 -1.5161638829637762 0.6461205887177174 0 1 0
199 40 3 0 -3.344776013265404 -1.262547725191968 0.7767128499210255 0 1 0
292 64 4 0 -3.734574284414717 -1.242849246383395 0.9347021937161335 0 0 0
325 75 4 0 -2.9126828235768207 -0.7698809363589817 0.2046711344108809 0 0 0
100 20 3 0 -2.635359659910836 -0.7455364954435065 0.4574252289598426 0 0 0
96 20 1 0 -2.5056858798586465 -0.3953698276006037 0.7305015390635459 0 0 0
290 64 2 0 3.9122602265106794 -0.9651972462590561 1.0563664522737146 -1 0 0
99 20 3 0 -2.8037824828667675 -0.35080812081701807 1.0703081415217648 0 0 0
397 99 4 0 -3.1006908477293305 -0.27659599005603563 1.338167262405555 0 0 0
89 18 3 0 -0.8022476593359922 -1.7977323179693967 0.3502698546837788 0 0 0
98 20 3 0 -2.0996033201583972 -0.45565226862002967 0.8835316945815732 0 0 0
299 67 2 0 0.4977059985615437 -1.9677417488838247 0.3496899623871474 0 0 0
87 18 3 0 -0.7007404346763687 -1.5562515312843512 1.0481963971160277 0 0 0
86 18 1 0 -0.5140356082882898 -1.6165553929084329 0.62552812073344 0 0 0
90 18 3 0 -0.3916653090231412 -1.191560369267424 0.4631781473030876 0 0 0
271 57 4 0 -0.6354932587237394 -0.9476562980664459 0.22298409349956572 0 0 0
300 67 4 0 0.12725128755002052 -1.7273436489610294 0.39891139161019185 0 0 0
1 1 1 0 0.491437530989123 -0.8670387285691461 1.7868578864714455 0 0 -1
4 1 3 0 0.37990489777848524 -0.4432970627470886 1.8907044740583494 0 0 -1
88 18 3 0 -0.1578127336884767 -1.872159924537926 0.6497989193555018 0 0 0
3 1 3 0 0.13952199237198015 -1.0699600007737933 1.5925610450154963 0 0 -1
327 76 4 0 -0.2377613727979045 -1.1744657209267102 1.6097296452129688 0 0 0
5 1 3 0 0.8474724059949464 -0.872015417925225 1.4893972007137195 0 0 -1
326 76 2 0 -0.5986393136059078 -1.2648452539743746 1.86689122800203 0 0 0
304 68 4 0 1.5860691823165793 -1.8633268589371201 1.1903751163302445 0 0 0
303 68 4 0 1.0773733645663752 -1.138240907490433 1.310569601141728 0 0 0
302 68 2 0 1.32749352058106 -1.4939703737529293 1.248179109800004 0 0 0
207 42 3 0 3.4861003386159086 -1.3836372768977205 2.6931543779643126 0 0 0
276 59 4 0 3.2537808563251787 -1.7235227347339035 2.7587640761944234 0 0 -1
95 19 3 0 2.8436542737597983 -1.3019486805813727 1.4404979043854225 0 0 0
91 19 1 0 3.0504017159037713 -1.4409806661970581 1.8418944885943316 0 0 0
243 49 3 0 3.3434869363261206 -0.3799966266245485 1.0946494445820822 -1 0 0
291 64 4 0 3.5802245864518865 -0.6937324538044592 1.1648491134226633 -1 0 0
275 59 2 0 2.823057979718624 -1.7836562388232544 2.9032902008099355 0 0 -1
93 19 3 0 3.197140948650201 -1.8537431573706082 1.7999110740229953 0 0 0
94 19 3 0 2.7614843842658283 -1.4213467604265384 2.1871800292972043 0 0 0
209 42 3 0 3.705028430434361 -1.298147145535632 3.3920664112453687 0 0 0
92 19 3 0 3.3989782741749557 -1.1559380870794502 1.9351440069544594 0 0 0
45 9 3 0 -2.8256613987145864 -2.958615846863151 3.4603624346833097 0 0 -1
44 9 3 0 -2.8388447995913144 -2.3774330677847644 3.020083743551339 0 0 -1
41 9 1 0 -2.589085630710919 -2.622081071562773 3.329238988121757 0 0 -1
43 9 3 0 -2.4882160771547226 -2.3579511864481977 3.6886298025877404 0 0 -1
127 26 3 0 -2.713413680994308 -2.6788476571379416 2.1146487697333285 0 1 0
316 72 4 0 -3.2113885596645506 -2.204415018940139 2.9521409463415416 0 0 0
42 9 3 0 -2.2094224687438917 -2.757115390766883 3.1370354848449735 0 0 -1
298 66 4 0 -1.6700281910789154 -3.3145536695380606 2.226142826447738 0 0 0
296 66 2 0 -1.9068321600304996 -3.210212390644486 2.592904547000818 0 0 0
297 66 4 0 -2.1420441059366047 -3.109984712950596 2.9467529337810845 0 0 0
233 47 3 0 -0.9332825912921496 -2.1823866059543744 2.4731565278357204 0 1 0
188 38 3 0 0.16655731951733643 -3.807322470024032 3.6561875647049913 0 1 0
122 25 3 0 -0.7638411260554963 -3.3521149473195058 2.0536059650521037 0 1 -1
355 85 4 0 0.09303012138177401 -3.2731918487255642 2.6563451661562216 0 1 -1
187 38 3 0 0.10363201683275171 -3.3764739228046783 3.046522994402932 0 1 0
354 85 4 0 -0.7719480030595194 -3.2871399807291803 2.443302388097027 0 1 -1
353 85 2 0 -0.3396384452863747 -3.2785103578710246 2.551092892986049 0 1 -1
360 87 4 0 0.5065703607765363 -2.012697735583191 3.827147023616899 0 1 0
190 38 3 0 0.44439653637802434 -3.1088369828147253 3.6503683993655995 0 1 0
359 87 2 0 0.31817783158423524 -2.451237984525858 3.791691660265991 0 1 0
361 87 4 0 0.132698128182176 -2.858295492581027 3.7531566115472157 0 1 0
186 38 1 0 0.36961791228365465 -3.4858634816365037 3.3989924963048925 0 1 0
189 38 3 0 0.7697409282805091 -3.6467707308207773 3.2499793915232917 0 1 0
329 77 2 0 1.557400266504148 -2.290429705754934 3.951815279874617 0 0 0
314 72 2 0 -3.433309383537227 -1.862754106230124 2.765218358149918 0 0 0
315 72 4 0 -3.644946230209668 -1.5370594694339292 2.5907020783611867 0 0 0
210 42 3 0 -3.7769062825394317 -1.2446748828454146 2.838254604225591 1 0 0
232 47 3 0 -0.8509607493947704 -1.5997100173639593 2.925769049750638 0 1 0
231 47 1 0 -1.131300539664845 -1.8201287127862134 2.650904565542491 0 1 0
234 47 3 0 -1.4865423723796727 -1.955532667975919 2.881874759035138 0 1 0
235 47 3 0 -1.2637852872920075 -1.5303781101640628 2.3188677437299834 0 1 0
321 74 4 0 -0.9418788870817628 -1.2573372781124965 3.0933101259024673 0 0 0
328 76 4 0 -0.9401950564768162 -1.352258529547591 2.1159572690345607 0 0 0
320 74 2 0 -0.6899639299989957 -1.228309072532324 3.457400543873623 0 0 0
2 1 3 0 0.6040744297712113 -1.0920526908802501 2.162189313310518 0 0 -1
38 8 3 0 0.39844781135664076 -1.6263060869386465 3.8682177770865107 0 0 -1
39 8 3 0 0.33505060060352393 -1.155212055427852 3.3300119059208098 0 0 -1
322 74 4 0 -0.4121208755609084 -1.2012170622951017 3.8351169666118956 0 0 0
36 8 1 0 0.32616670497931116 -1.2230098512052936 3.7858225819105105 0 0 -1
37 8 3 0 -0.039515298652833916 -1.1239021230450768 3.928087237638301 0 0 -1
40 8 3 0 0.6243829077180647 -0.9906960952900474 3.967552247765402 0 0 -1
330 77 4 0 1.38943592106203 -1.9356299925696432 3.7464054506881292 0 0 0
372 91 4 0 0.9064987010476928 -1.2735267743154088 2.333279955762147 0 0 0
152 31 3 0 2.037450352619327 -1.239026849225856 3.88413593254436 0 0 -1
154 31 3 0 1.6266259558125042 -1.6988182166238472 3.50741628019597 0 0 -1
151 31 1 0 1.9118263674626554 -1.3660810797920464 3.473308671868217 0 0 -1
373 91 4 0 1.4427753935373413 -0.9242991190278669 2.9887713239013967 0 0 0
371 91 2 0 1.1794727116903259 -1.094696782698905 2.660507902662353 0 0 0
155 31 3 0 1.7161071289134908 -1.0157017048218098 3.27020556305108 0 0 -1
153 31 3 0 2.2893285265520666 -1.50217391751423 3.236220851666059 0 0 -1
208 42 3 0 3.6926618382638092 -0.7098680625414925 2.942357246823247 0 0 0
206 42 1 0 3.7681813700313076 -1.1579797834971737 2.9721753406461966 0 0 0
252 51 4 0 1.932380051425569 -0.8112448681965382 3.9910520362694752 0 0 -1
195 39 3 0 -3.156822057690636 1.7391564245012494 -3.1011013347974328 1 0 1
29 6 3 0 -1.559107105483023 0.6870221684966408 -2.4141681129401067 0 0 0
27 6 3 0 -1.102327200834038 0.13239887441878784 -2.262858020940496 0 0 0
26 6 1 0 -1.5046259580041201 0.23995195658326443 -2.437170197700162 0 0 0
28 6 3 0 -1.831405778101576 0.04113064703031795 -2.2046079926012876 0 0 0
30 6 3 0 -1.5189054963404853 0.11108268042292421 -2.855026788325072 0 0 0
340 80 4 0 -1.6560805048673166 1.4050927699857614 -3.9218614567333785 0 0 0
338 80 2 0 -1.368628928314412 1.7548197937987455 -3.9867970610510333 0 0 0
167 34 3 0 1.0821554342950468 1.6127414428467561 -3.143681891851611 0 0 0
166 34 1 0 1.3472251809148723 1.9630199402105515 -3.063064066321181 0 0 0
170 34 3 0 1.7066610233092883 1.8263705637193917 -2.846890890820334 0 0 0
342 81 4 0 1.9210203872598592 1.5116481364051852 -2.9688780547729334 0 0 0
341 81 2 0 2.1429766248829965 1.2563482366566852 -2.667174729513217 0 0 0
168 34 3 0 1.476954999811532 2.1531209910573845 -3.444603065920354 0 0 0
343 81 4 0 2.37651231405471 1.0114353945189256 -2.375299692083147 0 0 0
59 12 3 0 2.406142469357264 0.48877287203365044 -2.7067033093281294 0 0 0
60 12 3 0 2.524222953293162 0.0545893705822367 -3.3208283112363772 0 0 0
56 12 1 0 2.536048852010415 0.06347185361275882 -2.86030961864903 0 0 0
7 2 3 0 2.467336951060514 0.9258261213529793 -1.9866950846454754 0 0 0
193 39 3 0 -3.2492947984647746 2.235740972294949 -3.6677547129025054 1 0 1
313 71 4 0 3.1010491760430234 0.05510234025494565 -0.5110016941853497 0 0 0
194 39 3 0 -3.0740367055851223 2.4795614434039055 -2.968828950130671 1 0 1
191 39 1 0 -3.3077880484184896 2.1589399845605857 -3.2112589422904696 1 0 1
192 39 3 0 -3.764822788621822 2.187235493733395 -3.110752076511871 1 0 1
382 94 4 0 -3.921297629215439 2.56252755845922 -3.0898234801030307 1 0 1
135 27 3 0 -0.8553154409102817 3.0045960201595165 -3.078955801308025 0 0 0
85 17 3 0 -0.16716262266763263 0.04449443160627847 -1.5695386511016851 0 0 0
336 79 4 0 0.7605760405089272 2.3082148419860493 -2.970731772681159 0 0 0
398 100 2 0 -0.024455053708597758 3.8791874368083685 -3.6059029452098086 0 0 1
337 79 4 0 0.0408073185215131 2.5833320759066125 -2.526198303534926 0 0 0
131 27 1 0 -0.5146844220784541 3.1115966302942923 -2.7835974967759083 0 0 0
134 27 3 0 -0.19797770589131397 2.7923635542619967 -2.7940909923503847 0 0 0
133 27 3 0 -0.3280813016948105 3.536076483328268 -2.901985714888188 0 0 0
399 100 4 0 -0.13686824192649388 3.783481474447514 -3.174481145891706 0 0 1
335 79 2 0 0.4034031165406717 2.445869828944231 -2.7477112463190374 0 0 0
132 27 3 0 -0.6671172403254 3.145849653911858 -2.38326504683061 0 0 0
16 4 1 0 3.3151867807089856 2.5700267974966136 -0.2542761045306524 -1 -1 0
169 34 3 0 1.1281332246498843 2.270558809600298 -2.816719850531281 0 0 0
380 94 2 0 3.8801898145724865 2.969493499937657 -3.159420677960778 0 0 1
140 28 3 0 3.779792355549935 3.603300590763566 -3.533124248782888 0 0 0
381 94 4 0 3.679511232779919 3.365953622177291 -3.243551069503498 0 0 1
136 28 1 0 3.427906136116581 3.832223149729193 -3.6919291869127235 0 0 0
138 28 3 0 3.08665939115778 3.736640584593334 -3.462507994921077 0 0 0
384 95 4 0 2.7330843746416567 3.9200962035457065 -3.4770023673809 0 0 1
20 4 3 0 3.6030467881615094 2.929060124307861 -0.3631910959727767 -1 -1 0
288 63 4 0 -2.9449234917556555 0.5254227649854123 -0.9365320650538963 0 0 0
287 63 2 0 -3.056978828065488 0.9466196922121175 -0.7006123060807062 0 0 0
289 63 4 0 -3.1372531787690874 1.319656729337332 -0.5012146247525445 0 0 0
15 3 3 0 -3.299009043356812 1.5380579731038044 -0.2050149972604839 0 0 0
114 23 3 0 -3.0149816955860307 0.3051641545356084 -1.2424338742956837 0 0 0
19 4 3 0 3.113535115852686 2.431542573105907 -0.6228307499530076 -1 -1 0
345 82 4 0 -2.1521275412285004 0.05984899054129571 -0.6873215582236677 0 1 0
177 36 3 0 -2.0494446808036826 1.8193353835699762 -1.9680432525115972 0 0 0
176 36 1 0 -1.7802214501606557 1.7463895968928755 -1.609873397012613 0 0 0
178 36 3 0 -1.429869983924448 1.5027229083085905 -1.7393478415943973 0 0 0
180 36 3 0 -2.011971940012624 1.5181416573357043 -1.2665682517241295 0 0 0
387 96 4 0 -2.494528635708063 1.6967397188709703 -0.3488378864730982 0 0 0
386 96 2 0 -2.1735881351107658 1.6802159846331037 -0.6207801784638965 0 0 0
388 96 4 0 -1.8217694169582397 1.6529388383363945 -0.9219433221941885 0 0 0
83 17 3 0 0.32501802432951254 0.24180456640093298 -1.1318965901275087 0 0 0
84 17 3 0 0.24074501808147478 0.592454354377288 -1.7462714578105896 0 0 0
81 17 1 0 0.2209214370735156 0.2002385220081048 -1.5421890979577992 0 0 0
9 2 3 0 2.0782763753764653 1.0777133714217562 -1.424785922091771 0 0 0
10 2 3 0 2.73941667596103 0.8538687856092985 -1.3174936196315998 0 0 0
6 2 1 0 2.46492452758495 1.094291974829195 -1.5812428847192435 0 0 0
8 2 3 0 2.607415692324735 1.5258591651201852 -1.6022564115193025 0 0 0
311 71 2 0 3.0832473527928506 0.05269708002505212 -0.09927827571935534 0 0 0
13 3 3 0 -2.713095216292358 1.9779919201713014 -0.1643400185470214 0 0 0
179 36 3 0 -1.6299468384023132 2.1582053109016286 -1.4515037911038016 0 0 0
250 50 3 0 -1.151057234144362 3.326641239329889 -1.0057125514058816 0 0 1
246 50 1 0 -0.8302749385817162 3.444529008550524 -0.705677464162003 0 0 1
248 50 3 0 -1.021157519072972 3.634909298907848 -0.35258531536223964 0 0 1
247 50 3 0 -0.5859409891730546 3.059888898682415 -0.564568681730071 0 0 1
281 61 2 0 -0.08968502405097305 3.6907846132717563 -1.5089050378034827 0 -1 0
249 50 3 0 -0.5461226210049888 3.7399071048066173 -0.8984655668421982 0 0 1
283 61 4 0 -0.49405449588009454 3.7675420668583617 -1.2962570303340712 0 -1 0
282 61 4 0 0.30032162449141614 3.6083608274166163 -1.7041440128152372 0 -1 0
205 41 3 0 0.40866488102533305 3.789962349606907 -0.28598527701545623 0 0 0
202 41 3 0 -0.1696903159175446 3.3260421431642033 -0.1490244799469193 0 0 0
142 29 3 0 0.6996741395403804 3.6290871945614565 -1.6881111829374646 0 0 0
255 52 4 0 0.7648185048412854 3.9380469037956525 -0.287416234576119 0 -1 0
145 29 3 0 1.349917742255232 3.856945775142341 -1.8873822540297687 0 0 0
141 29 1 0 1.0048439595659224 3.9043684447763685 -1.5815073704369242 0 0 0
144 29 3 0 1.1550057687731778 3.8144940255199997 -1.1520262663669267 0 0 0
263 55 2 0 3.6862900028749075 3.7132935056044434 -0.6822810930968599 -1 -1 0
264 55 4 0 3.6843276332389303 3.3148021568045363 -0.4833409743700174 -1 -1 0
18 4 3 0 3.5597174851670514 2.2402053639190496 -0.0783465071464687 -1 -1 0
201 41 1 0 0.058581239188429404 3.724752726164059 -0.010627701236999654 0 0 0
147 30 3 0 0.15077757344223897 0.5728244524985777 -3.99316930585554 -1 0 0
220 44 3 0 1.1987865240675701 3.5290176287727957 2.2731292028782337 0 0 0
14 3 3 0 -2.8047888111932697 1.3877787988506052 0.34355640916875474 0 0 0
267 56 4 0 -2.5853134232604207 0.25239624998296967 0.7695791099477446 0 0 0
266 56 2 0 -2.753154298386365 0.6554644937187676 0.6476880311704163 0 0 0
268 56 4 0 -2.917039944256384 1.0626586565492693 0.5308946948022021 0 0 0
396 99 4 0 -3.944145054025252 0.17724718355861957 1.184349457655315 0 0 0
216 44 1 0 0.8664199672978969 3.68093542008326 2.0013926511206366 0 0 0
11 3 1 0 -3.0280301839559205 1.7365410928412603 0.07637605232510503 0 0 0
107 22 3 0 -2.4674362072480287 1.5791043232644 1.8183170504682626 0 0 0
108 22 3 0 -2.0216283465992904 1.8257428856152902 1.2713352136347202 0 0 0
106 22 1 0 -2.0704478867276754 1.5116923021583728 1.586709625087787 0 0 0
110 22 3 0 -2.0707993577500114 1.1244974890221757 1.399314316896455 0 0 0
109 22 3 0 -1.7185954827054735 1.5303702131797554 1.882174349884896 0 0 0
312 71 4 0 3.0706310973735356 0.05218942947278003 0.31941913914911996 0 0 0
12 3 3 0 -3.2649716453619813 2.0174738137446426 0.35238084568153105 0 0 0
332 78 2 0 0.48312694395757155 3.378925941644246 0.9655510858777354 0 -1 0
334 78 4 0 0.4518998675498792 3.386655083477266 0.5138943258637167 0 -1 0
204 41 3 0 0.21210503262020522 3.666136616333976 0.4029028892433681 0 0 0
367 89 4 0 0.6370279235789447 2.2082835662938094 1.7132288325655705 0 0 0
333 78 4 0 0.5060430177220093 3.369207946643412 1.4104687504238829 0 -1 0
377 93 2 0 -0.18369608792388942 3.854066488635964 1.7281893502106447 0 0 0
242 49 3 0 3.6728055956960097 0.2670302029710772 1.1741991900298474 -1 0 0
219 44 3 0 0.8581607184940755 3.4410157310916625 1.6203591042420538 0 0 0
365 89 2 0 1.043371114520357 2.411340858300885 1.6644737089783819 0 0 0
119 24 3 0 1.683468118679284 2.476159874682453 1.8913815160674858 0 0 0
116 24 1 0 2.0974377024170674 2.6184335623302237 1.882909431797414 0 0 0
366 89 4 0 1.4460278264304434 2.6187225067323787 1.6152277620844875 0 0 0
118 24 3 0 2.2679068007082757 2.5366620011486005 1.4759896384357851 0 0 0
348 83 4 0 2.2897490023573237 2.738574725485543 1.0928486320555617 0 0 0
347 83 2 0 2.5764304459175222 2.7437360801771797 0.7485912998194513 0 0 0
349 83 4 0 2.8695238816574866 2.7482365065302488 0.40766640953829 0 0 0
157 32 3 0 -3.25894836114115 0.44511164091368705 3.2569182216939 0 0 -1
158 32 3 0 -2.657659694407482 0.8705873201482406 3.400127044421078 0 0 -1
159 32 3 0 -2.910182544094646 0.8270336315579426 2.6864781618392386 0 0 -1
156 32 1 0 -3.0255233087171463 0.8372519974180355 3.1431240118676023 0 0 -1
160 32 3 0 -3.2899267953350266 1.1910842282158445 3.210022890187286 0 0 -1
362 88 2 0 -3.2765353294306276 1.7242123926338713 3.76598021720249 0 0 0
364 88 4 0 -3.4340260435967296 1.385500624239825 3.5224794180477197 0 0 0
352 84 4 0 -2.306626557085633 0.6774321684286089 3.2673780221700266 0 0 -1
350 84 2 0 -2.0265997015660253 0.893592390959363 3.539430832115251 0 0 -1
351 84 4 0 -1.7547838109579266 1.1135992968563913 3.8135724787257232 0 0 -1
149 30 3 0 0.35300154059159683 0.2657234656549451 3.3624191704810653 -1 0 -1
222 45 3 0 -0.14781618445842837 1.804093784096419 2.32401192059796 0 0 0
224 45 3 0 0.5046236081599368 1.7061621245022374 2.6447370673711705 0 0 0
221 45 1 0 0.23961080736590204 2.001746166985114 2.434714705680297 0 0 0
376 92 4 0 0.8340596763902608 1.605563644805239 2.405308145604071 0 0 0
146 30 1 0 0.42993738252990793 0.28824614970991796 3.822743031086081 -1 0 -1
244 49 3 0 2.974427700471717 0.15807720311403725 1.3938507665047104 -1 0 0
374 92 2 0 1.2719382173411145 1.5744930953641303 2.365008477105672 0 0 0
183 37 3 0 1.8990136144466223 1.1601201839037598 2.34669056362069 0 0 0
375 92 4 0 1.7069865302299656 1.5415108559155812 2.322704776394287 0 0 0
392 98 2 0 1.4618007116845695 0.8482395334137588 3.6462529086334152 0 0 0
393 98 4 0 1.7431714227030064 1.0038192812035214 3.324209538429849 0 0 0
150 30 3 0 0.8689102178156928 0.4295358439636005 3.89769282405422 -1 0 -1
394 98 4 0 1.1696314039184728 0.7002000154359572 3.9633375065521967 0 0 0
184 37 3 0 2.045473952618858 1.026359804961536 3.052561816632734 0 0 0
181 37 1 0 2.1930737525678365 0.9722692070563624 2.6305680855234184 0 0 0
182 37 3 0 2.2280658316890545 0.5354143200649806 2.534173975572428 0 0 0
185 37 3 0 2.6102378930158605 1.1664423733818579 2.58685416954213 0 0 0
21 5 1 0 -1.1502581153839526 2.7972121652552833 3.6269255424331273 0 -1 -1
24 5 3 0 -1.354626563610966 2.646204349059611 3.224492370734444 0 -1 -1
23 5 3 0 -1.4494248936997465 2.9918955847544435 3.8924987598805774 0 -1 -1
25 5 3 0 -0.9749043408595118 2.460730344099564 3.835535696274882 0 -1 -1
225 45 3 0 0.45515687893473805 2.15542803440551 2.050504203024231 0 0 0
368 90 2 0 -0.1845127725172595 2.815769430914126 3.158368986904354 0 0 0
218 44 3 0 0.455812949801247 3.647278861435546 2.2181947805925635 0 0 0
379 93 4 0 0.2317914356995667 3.7499800096737874 1.9070523892610833 0 0 0
369 90 4 0 -0.5458699343411716 3.0633848989877666 3.2779089431044572 0 0 0
22 5 3 0 -0.8477386472292677 3.0653397502987736 3.537665595207269 0 -1 -1
370 90 4 0 0.1825456172082829 2.569413485209724 3.023637619256302 0 0 0
223 45 3 0 0.1691395508329588 2.3318780409733133 2.7003674360325927 0 0 0
120 24 3 0 2.1132626253626583 3.059894958842721 1.9618376335243906 0 0 0
117 24 3 0 2.329446844984997 2.393170100856477 2.1878758827043034 0 0 0
378 93 4 0 -0.5980666493518256 3.9585981764778886 1.5456865204608852 0 0 0
245 49 3 0 3.1397032095592357 0.1587600167245547 0.6975174058628046 -1 0 0
241 49 1 0 3.276525955884094 0.053512297953291675 1.088886221014562 -1 0 0
363 88 4 0 -3.1301589782770254 2.046847537058121 3.997442329103311 0 0 0
339 80 4 0 -1.1007641492796476 2.0939426605249127 3.953901973004691 0 0 -1