LAMMPS data file via write_data, version 19 Nov 2024, timestep = 1500000, units = lj

40 atoms
4 atom types
30 bonds
1 bond types
35 angles
2 angle types

-6 6 xlo xhi
-6 6 ylo yhi
-6 6 zlo zhi

Masses

1 1
2 1
3 1
4 1

Bond Coeffs # harmonic/omp

1 100 0.45

Angle Coeffs # harmonic/omp

1 100 180
2 100 109.471

Atoms # full

32 8 2 0 1.4107203684534575 -1.5701916813013888 0.5665703323872597 0 0 0
34 8 4 0 1.8427268408280082 -1.457662784189353 0.6082680025718619 0 0 0
33 8 4 0 0.965009491316558 -1.6757441027396514 0.513465216800598 0 0 0
5 1 3 0 5.167294101926507 1.2006492516132492 -5.2166199982636146 0 0 0
3 1 3 0 4.602216691960291 1.5797259345029104 -4.88629660738734 0 0 0
26 6 2 0 5.308212502023394 2.545720478823679 -5.500119004253186 0 0 0
28 6 4 0 5.281521694951218 2.229661048934078 -5.215936464851848 0 0 0
1 1 1 0 5.051566080448949 1.5186396934937303 -4.888610332189607 0 0 0
4 1 3 0 5.2479550142260365 1.9095237889448393 -4.980722630170291 0 0 0
2 1 3 0 5.18395668716304 1.3851542066756626 -4.520768070863148 0 0 0
27 6 4 0 5.349965488119007 2.901191221453316 -5.821162990066708 0 0 0
30 7 4 0 5.357757754965876 1.6704432241861151 -4.283759814069186 0 0 0
29 7 2 0 5.651700250188053 1.6849181942381717 -3.9262985131316777 0 0 0
31 7 4 0 5.9550644626556615 1.7103278113072888 -3.5541720526461194 0 0 0
40 10 4 0 -3.0399895150505807 2.5072764662817106 2.669176675257231 0 0 0
38 10 2 0 -2.7072516546657663 2.2378685887909686 2.509368949281826 0 0 0
39 10 4 0 -2.3776546817159185 1.973573182730287 2.354037974267482 0 0 0
14 3 3 0 4.0375767672592024 1.4922759572045545 3.4479363892360886 0 0 0
17 4 3 0 4.605508874559627 1.176976024078606 4.562239468492271 0 0 0
15 3 3 0 4.442316652789978 1.6516472172540324 4.065662167655485 0 0 0
37 9 4 0 4.654894336445213 1.5639159846886326 4.403192485683917 0 0 0
10 2 3 0 -1.7693678138198508 1.6155975418188546 4.220041915392525 0 0 0
7 2 3 0 -1.2713366688633887 1.237288891979265 4.642389287166626 0 0 0
13 3 3 0 4.460789198284941 2.0915190564181887 3.4753988949587122 0 0 0
11 3 1 0 4.434886005094357 1.6762415435847922 3.6082555011247877 0 0 0
12 3 3 0 4.794447522416037 1.4420600801882324 3.4359274894627525 0 0 0
35 9 2 0 4.929496015479648 1.8607963297334091 4.6341230619945035 0 0 0
19 4 3 0 4.225147743868527 0.5681007031130467 4.4367931543716495 0 0 0
18 4 3 0 4.248553651783853 0.837264312723473 5.104362494677713 0 0 0
16 4 1 0 4.482216670056439 0.7743389769856642 4.7291056485624505 0 0 0
20 4 3 0 4.834912806299568 0.5314707751517236 4.808114845353389 0 0 0
8 2 3 0 -1.812290317680527 1.6706113734726036 4.951755212781991 0 0 0
9 2 3 0 -1.2508384762582416 2.006805846183285 4.581292914784657 0 0 0
6 2 1 0 -1.5277623622488772 1.6335376689531997 4.5946543641817765 0 0 0
36 9 4 0 5.200108949640693 2.1565968887679823 4.86510460372668 0 0 0
24 5 3 0 3.306637524911985 5.335656168266073 5.125147700763879 0 0 0
25 5 3 0 3.7531859860074155 5.359864605360116 5.715928461687184 0 0 0
22 5 3 0 3.6061295209663866 5.9767840271018295 5.333380229941426 0 0 0
23 5 3 0 3.082347384142244 5.669202594971275 5.753214686112724 0 0 0
21 5 1 0 3.436374357152539 5.586620373502694 5.479519015579599 0 0 0

Velocities

32 -0.23759157574630219 -0.03944502717507396 -0.46907749511525343
34 -0.35596927838714015 0.11770592068102556 -0.031015181231746812
33 -0.2078015092682906 -0.31399904526450095 -0.02562584054869466
5 0.11014248771123598 -0.4081983703711334 -0.061664607294701766
3 -0.3034612120486967 -0.07472139410668364 -0.23935723162701278
26 0.08792908647973928 -0.18265028481200654 -0.06906768335283485
28 0.13657645227335283 -0.19480914894521464 0.21610196292449824
1 -0.14721267179310715 -0.1265530460011913 -0.15982389712220674
4 -0.10415209560569706 0.2024710304460211 -0.1961625745252086
2 0.07803879839838525 0.2366978138850792 0.3027663441244366
27 0.2954228723430838 -0.3051020735520893 0.046160369969515946
30 -0.16311860791825936 0.07543910750843386 0.02461559059275052
29 0.19185394829989916 0.30668045672127264 -0.2234709657243035
31 0.23016942650802327 -0.331024450860181 0.1580789014032918
40 -0.1934007776482096 -0.10514020806809371 0.2508228336718483
38 -0.06855860054561289 0.1510047986179355 -0.2569660226976953
39 -0.346014011940224 -0.27967810869301774 0.18889449834162753
14 0.18230327369541918 0.3787870828073102 0.009182279160940748
17 0.22231085995059527 -0.4088468004927608 0.21075153776729852
15 0.130785452958119 0.09086112273897984 0.32206186027547584
37 0.00885404571858616 -0.02650622477843439 0.23601891037455516
10 -0.2313474696352519 -0.005977664276523668 -0.061695922787462824
7 0.2933751511822464 -0.2101885093234066 -0.05209488230802897
13 -0.09758956522459426 -0.07593139797836534 -0.0017510645322311863
11 -0.030320362855363818 0.49068914326128826 -0.56774908563225
12 -0.282625362427031 0.19051893036583611 -0.3923304359835361
35 -0.22220962793952162 -0.11846874741852054 0.352260928750299
19 0.18283597721256828 0.3219907114727048 -0.202461022924842
18 0.0955753274758112 -0.44083409655412853 -0.14197297925044985
16 -0.020494187732567247 -0.14238539143009704 0.0553096760126755
20 0.2590375865249157 -0.21164977576671537 -0.16749833486474708
8 0.1339250610817319 -0.0508645397263103 0.3097294297889375
9 -0.168857001166213 -0.5755063052149259 0.3481468329830465
6 0.04448093333819246 -0.17591607029449488 0.40562411503740864
36 0.0887397768190866 0.1572941596718611 0.554906247440288
24 -0.2581175599219045 0.27234918000708536 -0.06072386330058123
25 -0.037601850012884526 0.13649787364997104 0.14794067680910877
22 -0.0727698940753224 -0.10998068995447706 -0.05590938308531917
23 0.1231638944927352 0.16387895922446358 -0.06800096032193234
21 0.22592238519295982 0.11808600688863638 -0.049598703385172624

Bonds

1 1 32 33
2 1 32 34
3 1 26 27
4 1 26 28
5 1 1 2
6 1 1 3
7 1 1 4
8 1 1 5
9 1 29 30
10 1 29 31
11 1 38 39
12 1 38 40
13 1 11 12
14 1 11 13
15 1 11 14
16 1 11 15
17 1 35 36
18 1 35 37
19 1 16 17
20 1 16 18
21 1 16 19
22 1 16 20
23 1 6 7
24 1 6 8
25 1 6 9
26 1 6 10
27 1 21 22
28 1 21 23
29 1 21 24
30 1 21 25

Angles

1 1 33 32 34
2 1 27 26 28
3 2 2 1 3
4 2 2 1 4
5 2 2 1 5
6 2 3 1 4
7 2 3 1 5
8 2 4 1 5
9 1 30 29 31
10 1 39 38 40
11 2 12 11 13
12 2 12 11 14
13 2 12 11 15
14 2 13 11 14
15 2 13 11 15
16 2 14 11 15
17 1 36 35 37
18 2 17 16 18
19 2 17 16 19
20 2 17 16 20
21 2 18 16 19
22 2 18 16 20
23 2 19 16 20
24 2 7 6 8
25 2 7 6 9
26 2 7 6 10
27 2 8 6 9
28 2 8 6 10
29 2 9 6 10
30 2 22 21 23
31 2 22 21 24
32 2 22 21 25
33 2 23 21 24
34 2 23 21 25
35 2 24 21 25
