ITEM: TIMESTEP
5160000
ITEM: NUMBER OF ATOMS
4590
ITEM: BOX BOUNDS pp pp pp
-9.9985700000000008e+00 9.9985700000000008e+00
-9.9985700000000008e+00 9.9985700000000008e+00
-9.9985700000000008e+00 9.9985700000000008e+00
ITEM: ATOMS id type xs ys zs
2252 4 0.132012 0.0054224 0.0142845
486 4 0.218227 0.0325289 0.0493578
1842 4 0.225551 0.0504663 0.0509086
484 2 0.204216 0.0119119 0.0513138
1840 2 0.21401 0.0725012 0.0483676
355 2 0.267159 0.0654663 0.0771221
357 4 0.273953 0.044231 0.0884397
1476 4 0.315931 0.995038 0.0435298
2442 4 0.402642 0.049176 0.00285707
2440 2 0.411461 0.0704163 0.0126684
2468 4 0.445148 0.0493237 0.0486276
2467 2 0.441183 0.026475 0.057976
146 1 0.478861 0.0546349 0.023155
150 3 0.49263 0.0365453 0.0218062
148 3 0.45945 0.0489786 0.0345414
149 3 0.473629 0.0622076 0.00185516
147 3 0.489565 0.0714673 0.0346108
2469 4 0.437218 0.00362626 0.0673243
2464 2 0.494028 0.999556 0.0269178
3234 4 0.0890312 0.0962385 0.0121018
555 4 0.0993396 0.110489 0.00439334
553 2 0.12327 0.114832 0.998595
702 4 0.161836 0.122784 0.00571827
700 2 0.179304 0.118217 0.0230149
1841 4 0.202469 0.094536 0.0458267
701 4 0.196773 0.113649 0.0403114
356 4 0.260366 0.0867016 0.0658044
758 4 0.248803 0.103598 0.0649666
360 4 0.389227 0.159305 0.00744325
572 4 0.399323 0.144594 0.016528
25 3 0.411199 0.152154 0.073545
571 2 0.389667 0.129234 0.999323
2441 4 0.420279 0.0916566 0.0224797
2976 4 0.432813 0.104918 0.0272724
2974 2 0.422963 0.120082 0.0445417
2975 4 0.413114 0.135246 0.0618111
3047 4 0.507045 0.0810016 0.0275848
2967 4 0.0123217 0.222958 0.0355122
2965 2 0.0101835 0.226806 0.0108992
705 4 0.0232234 0.230248 0.0510243
703 2 0.0345744 0.24535 0.067403
914 4 0.17234 0.228823 0.0738399
913 2 0.17739 0.205379 0.0809159
449 4 0.186367 0.168003 0.0720222
353 4 0.317875 0.16955 0.0296187
295 2 0.291379 0.234061 0.0570978
297 4 0.292924 0.21589 0.0399922
354 4 0.280219 0.202032 0.034876
352 2 0.299047 0.185791 0.0322474
282 4 0.37882 0.215451 0.0349787
280 2 0.383991 0.239679 0.0383661
358 2 0.391478 0.182084 0.0175051
359 4 0.393729 0.204863 0.027567
24 3 0.424753 0.186864 0.0789455
456 4 0.0788992 0.260819 0.0294406
464 4 0.0681241 0.248813 0.0159231
454 2 0.0903239 0.282864 0.0323833
455 4 0.101749 0.304909 0.0353259
287 4 0.113835 0.317174 0.0470831
286 2 0.136569 0.31332 0.0567526
288 4 0.159303 0.309467 0.0664221
293 4 0.186002 0.2425 0.0795789
296 4 0.289834 0.252232 0.0742034
902 4 0.287509 0.269626 0.0657032
281 4 0.389162 0.263906 0.0417535
2876 4 0.379257 0.262592 0.0606717
2875 2 0.384012 0.286714 0.0652218
2877 4 0.388766 0.310836 0.069772
519 4 0.39103 0.330288 0.0778585
2839 2 0.482071 0.302068 0.0165132
2841 4 0.488493 0.313127 0.037999
309 4 0.498178 0.314153 0.0552882
2808 4 0.00229707 0.363777 0.033216
2806 2 0.0225178 0.358698 0.0194137
2807 4 0.0427385 0.353619 0.00561129
2513 4 0.184227 0.35746 0.00394051
417 4 0.169635 0.374155 0.0627821
2512 2 0.185414 0.36217 0.0284676
2514 4 0.186601 0.366881 0.0529948
597 4 0.312054 0.409684 0.0122199
672 4 0.465389 0.409495 0.0775411
670 2 0.481987 0.401152 0.0608056
671 4 0.498585 0.392808 0.0440701
3339 4 0.0368545 0.472776 0.0729275
3450 4 0.0463069 0.462781 0.0587722
3448 2 0.0293185 0.466736 0.0408577
3449 4 0.0123302 0.470691 0.0229431
1103 4 0.0861129 0.494095 0.0204328
595 2 0.327597 0.428619 0.00721266
596 4 0.34314 0.447554 0.00220539
15 3 0.379305 0.462611 0.0385447
11 1 0.382045 0.455246 0.0171696
1550 4 0.371821 0.477064 0.0663087
563 4 0.382807 0.479631 0.050581
13 3 0.39597 0.436687 0.0169143
12 3 0.361575 0.449304 0.00852047
1662 4 0.230949 0.0138604 0.0946931
2181 4 0.287087 0.0296876 0.0902705
2179 2 0.310855 0.0317069 0.0977654
27 3 0.317836 0.0784202 0.147689
2180 4 0.334623 0.0337262 0.10526
1749 4 0.346874 0.0419625 0.119424
1748 4 0.39477 0.0545121 0.126433
743 4 0.414473 0.0573048 0.121851
1747 2 0.370822 0.0482373 0.122929
742 2 0.417626 0.0693025 0.14356
1761 4 0.474782 0.0450783 0.134458
1759 2 0.471592 0.0203611 0.132443
450 4 0.180788 0.131851 0.10612
448 2 0.183577 0.149927 0.0890709
604 2 0.241653 0.121311 0.153748
605 4 0.232987 0.101555 0.141107
731 4 0.24707 0.15823 0.155472
759 4 0.247343 0.134997 0.10386
757 2 0.248073 0.119297 0.0844131
29 3 0.286658 0.0941325 0.133769
722 4 0.281372 0.128116 0.0908665
28 3 0.320895 0.107345 0.123884
26 1 0.308273 0.0982827 0.141117
30 3 0.307848 0.112618 0.158808
693 4 0.315145 0.166155 0.123437
721 2 0.293534 0.148406 0.0989645
691 2 0.335786 0.16215 0.136969
692 4 0.356426 0.158144 0.150501
1505 4 0.36454 0.139452 0.153435
23 3 0.402094 0.170863 0.104925
22 3 0.437071 0.158106 0.0997768
744 4 0.420779 0.0813002 0.16527
253 2 0.488015 0.10811 0.142646
2893 2 0.46886 0.146785 0.104629
255 4 0.473012 0.118826 0.125757
2895 4 0.48117 0.125621 0.109702
2894 4 0.45655 0.167949 0.0995561
837 4 0.0202544 0.193767 0.165446
836 4 0.0483434 0.18541 0.124925
835 2 0.0342989 0.189588 0.145185
461 4 0.0662571 0.237783 0.142172
622 2 0.1093 0.240816 0.153434
623 4 0.0849249 0.241956 0.14798
624 4 0.133675 0.239676 0.158888
506 4 0.133999 0.223514 0.16854
915 4 0.18244 0.181935 0.0879918
580 2 0.223041 0.244191 0.149122
730 2 0.24462 0.183053 0.157205
581 4 0.231277 0.223737 0.160912
732 4 0.242171 0.207876 0.158937
723 4 0.305695 0.168696 0.107062
21 1 0.418671 0.166942 0.0891697
378 4 0.387894 0.236325 0.100334
376 2 0.398338 0.219287 0.115361
377 4 0.408782 0.20225 0.130389
629 4 0.406774 0.18417 0.139784
628 2 0.410251 0.179633 0.164126
704 4 0.0459254 0.260452 0.0837816
460 2 0.0579016 0.250549 0.122363
462 4 0.0495461 0.263315 0.102554
477 4 0.0939432 0.278104 0.134473
475 2 0.0865784 0.293977 0.152333
524 4 0.163844 0.315805 0.0851626
292 2 0.197978 0.254059 0.0982374
523 2 0.167628 0.32037 0.109453
525 4 0.171412 0.324935 0.133743
294 4 0.209954 0.265618 0.116896
582 4 0.214806 0.264644 0.137331
103 3 0.214017 0.285118 0.109464
101 1 0.219431 0.295589 0.129451
105 3 0.213064 0.282569 0.147018
102 3 0.208358 0.315722 0.130537
104 3 0.242278 0.299533 0.130393
278 4 0.188556 0.315851 0.155754
901 2 0.278907 0.2814 0.0860149
903 4 0.270305 0.293173 0.106327
416 4 0.148822 0.385542 0.106803
361 2 0.150155 0.393044 0.142907
363 4 0.13805 0.396211 0.12126
415 2 0.159229 0.379849 0.0847926
362 4 0.16226 0.389878 0.164555
1122 4 0.297825 0.373323 0.152432
1069 2 0.313541 0.410134 0.153633
1121 4 0.250172 0.372449 0.167572
1120 2 0.273999 0.372886 0.160002
517 2 0.389049 0.347622 0.0957694
518 4 0.387067 0.364956 0.11368
2538 4 0.385931 0.356848 0.131632
2536 2 0.39931 0.352253 0.152249
527 4 0.450952 0.401697 0.0904933
528 4 0.423136 0.372881 0.120436
526 2 0.437044 0.387289 0.105465
3337 2 0.0479377 0.461808 0.0924736
3338 4 0.0590209 0.450841 0.11202
2770 2 0.05342 0.458754 0.149464
314 4 0.012081 0.452219 0.153663
2771 4 0.031555 0.447894 0.154863
2772 4 0.075285 0.469615 0.144066
768 4 0.135574 0.48271 0.0774554
766 2 0.152115 0.495632 0.0910412
2094 4 0.0921604 0.45913 0.13969
2092 2 0.115083 0.453948 0.148227
2093 4 0.138006 0.448766 0.156764
1861 2 0.245627 0.486682 0.14867
1863 4 0.232751 0.489487 0.127421
1070 4 0.326455 0.429774 0.145109
608 4 0.328422 0.468245 0.111813
1589 4 0.331296 0.486388 0.104305
1588 2 0.309169 0.497901 0.106052
609 4 0.345804 0.437817 0.147489
607 2 0.337113 0.453031 0.129651
739 2 0.380891 0.489609 0.143415
1549 2 0.36211 0.483674 0.088381
1551 4 0.3524 0.490285 0.110453
741 4 0.39699 0.4801 0.160016
740 4 0.364792 0.499119 0.126815
234 4 0.997506 0.0544424 0.235216
233 4 0.0220158 0.0581887 0.191788
380 4 0.0113501 0.0591861 0.174491
232 2 0.00976105 0.0563155 0.213502
1272 4 0.0886029 0.0685959 0.240876
317 4 0.120367 0.00832698 0.194864
237 4 0.124659 0.0630021 0.204827
1566 4 0.253503 0.000992457 0.181555
403 2 0.301781 0.0551635 0.228184
405 4 0.28799 0.0351528 0.234063
404 4 0.315571 0.0751742 0.222304
1270 2 0.0744432 0.0865302 0.230725
1271 4 0.0602836 0.104465 0.220574
513 4 0.0503935 0.119089 0.230109
235 2 0.134565 0.0836052 0.194699
578 4 0.161184 0.161695 0.170781
236 4 0.144471 0.104208 0.184572
579 4 0.134969 0.119799 0.178409
577 2 0.148077 0.140747 0.174595
606 4 0.25032 0.141067 0.166388
516 4 0.301728 0.0899582 0.225004
514 2 0.29286 0.109785 0.23739
1504 2 0.374064 0.120979 0.167335
1506 4 0.383588 0.102506 0.181236
2574 4 0.401479 0.10241 0.193928
2572 2 0.41772 0.113309 0.209504
699 4 0.45151 0.130534 0.232328
2573 4 0.43396 0.124209 0.22508
697 2 0.475317 0.125943 0.238436
698 4 0.499125 0.121353 0.244544
1221 4 0.0735476 0.250574 0.216548
1219 2 0.0506311 0.246405 0.225638
1220 4 0.0277146 0.242236 0.234728
507 4 0.157434 0.180307 0.177741
505 2 0.145717 0.20191 0.173141
457 2 0.108722 0.24288 0.221905
458 4 0.126215 0.23298 0.236776
750 4 0.124822 0.246475 0.251245
546 4 0.212896 0.166558 0.234432
252 4 0.246832 0.250608 0.207895
285 4 0.233139 0.248047 0.222693
283 2 0.226065 0.246313 0.246612
250 2 0.265229 0.233775 0.209733
350 4 0.298348 0.223584 0.222436
349 2 0.318937 0.220704 0.236328
251 4 0.283626 0.216942 0.21157
333 4 0.397637 0.183043 0.240286
331 2 0.410965 0.185829 0.219315
630 4 0.413727 0.175095 0.188467
332 4 0.424293 0.188614 0.198344
2591 4 0.480561 0.184227 0.241486
755 4 0.0690856 0.327018 0.165553
476 4 0.0792136 0.30985 0.170194
754 2 0.0578855 0.327064 0.187908
394 2 0.0150711 0.309827 0.231792
756 4 0.0466854 0.32711 0.210263
396 4 0.0364733 0.32145 0.226133
459 4 0.0912278 0.25278 0.207035
279 4 0.179743 0.319973 0.204806
277 2 0.18415 0.317912 0.18028
276 4 0.399964 0.32007 0.2247
386 4 0.385219 0.321442 0.239528
385 2 0.366347 0.334666 0.229825
274 2 0.423435 0.312371 0.228575
498 4 0.501353 0.298839 0.192045
275 4 0.446906 0.304672 0.232449
496 2 0.481116 0.304371 0.205647
497 4 0.460878 0.309903 0.219249
289 2 0.15875 0.385261 0.206247
290 4 0.151458 0.375172 0.227931
735 4 0.166776 0.362605 0.229982
291 4 0.166043 0.39535 0.184563
733 2 0.184623 0.350003 0.242142
1071 4 0.300627 0.390493 0.162158
1574 4 0.332354 0.404024 0.254987
1575 4 0.351981 0.362432 0.23535
1573 2 0.342168 0.383228 0.245168
387 4 0.347475 0.347891 0.220123
2537 4 0.41269 0.347658 0.172866
714 4 0.413174 0.35917 0.188404
712 2 0.417099 0.36824 0.211372
713 4 0.421024 0.37731 0.234339
728 4 0.140128 0.461658 0.172058
727 2 0.14974 0.478341 0.18801
729 4 0.159351 0.495024 0.203963
626 4 0.249039 0.448468 0.227297
1787 4 0.244979 0.475199 0.181548
625 2 0.23794 0.436959 0.246521
1862 4 0.258503 0.483878 0.169919
1788 4 0.265591 0.459379 0.224274
1786 2 0.255285 0.467289 0.202911
303 4 0.397476 0.499886 0.167101
2675 4 0.0010476 0.0580451 0.254832
2849 4 0.101989 0.0765308 0.253649
2848 2 0.107382 0.0530487 0.260333
2850 4 0.112776 0.0295666 0.267018
1869 4 0.128934 0.0206013 0.259931
1867 2 0.128626 0.00421862 0.278817
470 4 0.224688 0.0560398 0.288246
469 2 0.210854 0.0760008 0.294194
479 4 0.238371 0.0400434 0.284294
478 2 0.262817 0.0452851 0.284662
480 4 0.287262 0.0505268 0.285031
2642 4 0.298187 0.0669083 0.292029
2641 2 0.309805 0.0811066 0.309017
1516 2 0.415001 0.0475184 0.324687
1495 2 0.493681 0.00222976 0.291112
431 4 0.459831 0.996687 0.263224
1517 4 0.433763 0.0416916 0.309221
511 2 0.050941 0.134533 0.249765
512 4 0.0514885 0.149978 0.269421
708 4 0.134719 0.10916 0.291073
706 2 0.158647 0.108443 0.298294
471 4 0.197021 0.0959619 0.300141
707 4 0.182574 0.107725 0.305515
529 2 0.19729 0.154371 0.318775
531 4 0.200162 0.16117 0.294886
544 2 0.205783 0.157991 0.256819
545 4 0.198669 0.149423 0.279206
2643 4 0.321423 0.095305 0.326006
515 4 0.283992 0.129613 0.249776
2910 4 0.279517 0.141522 0.264849
2908 2 0.292163 0.146909 0.285735
2657 4 0.318088 0.144596 0.319219
2909 4 0.304809 0.152296 0.306622
2879 4 0.428779 0.145568 0.305389
631 2 0.421107 0.160381 0.268984
633 4 0.429672 0.143582 0.285404
300 4 0.0087077 0.20293 0.301416
2694 4 0.0461776 0.166893 0.277642
2693 4 0.00366401 0.192172 0.28501
2692 2 0.0249208 0.179533 0.281326
388 2 0.217952 0.231452 0.306986
390 4 0.207627 0.243354 0.287572
284 4 0.21899 0.244579 0.270531
389 4 0.228276 0.21955 0.326401
763 2 0.332524 0.219556 0.292836
510 4 0.323562 0.234907 0.323189
765 4 0.32129 0.217174 0.315046
351 4 0.339526 0.217825 0.25022
764 4 0.343759 0.221937 0.270626
632 4 0.412542 0.17718 0.252564
2592 4 0.490635 0.225264 0.268229
2590 2 0.485598 0.204746 0.254857
748 2 0.143569 0.255175 0.265317
749 4 0.162316 0.263876 0.279389
618 4 0.167425 0.282473 0.278991
616 2 0.179667 0.302641 0.287269
364 2 0.230043 0.329851 0.266401
365 4 0.245169 0.310002 0.267951
617 4 0.191909 0.32281 0.295548
612 4 0.327066 0.314098 0.284511
344 4 0.260071 0.298769 0.271693
345 4 0.306629 0.310198 0.285923
343 2 0.28335 0.304483 0.278808
508 2 0.32751 0.256834 0.334538
610 2 0.346882 0.306686 0.297836
611 4 0.366698 0.299273 0.311162
263 4 0.0183029 0.408759 0.305929
412 2 0.0279056 0.372178 0.327704
413 4 0.0181009 0.393542 0.319182
3670 2 0.155774 0.406557 0.321324
1383 4 0.111392 0.410233 0.322355
3672 4 0.132012 0.414303 0.322075
3671 4 0.179535 0.398811 0.320574
734 4 0.202469 0.337402 0.254302
366 4 0.214917 0.3497 0.26485
2655 4 0.173531 0.380156 0.316702
2653 2 0.186306 0.360705 0.307556
2654 4 0.199082 0.341255 0.29841
245 4 0.237868 0.408083 0.328096
1802 4 0.33204 0.422633 0.259717
2862 4 0.427148 0.36774 0.250467
3990 4 0.451921 0.400291 0.306463
2860 2 0.43895 0.378935 0.269455
2861 4 0.450752 0.390131 0.288443
262 2 0.0381824 0.419905 0.295645
264 4 0.058062 0.431052 0.285362
1382 4 0.0754445 0.425728 0.291237
1381 2 0.0934183 0.417981 0.306796
1386 4 0.100979 0.495877 0.287186
244 2 0.235579 0.41915 0.305791
246 4 0.23329 0.430216 0.283487
627 4 0.226841 0.42545 0.265744
644 4 0.309939 0.414653 0.329018
643 2 0.325327 0.431202 0.318316
753 4 0.327196 0.478384 0.337679
645 4 0.340714 0.447751 0.307613
1801 2 0.35249 0.433073 0.269615
1803 4 0.37294 0.443513 0.279513
542 4 0.370924 0.455773 0.29636
541 2 0.378718 0.445748 0.317899
3988 2 0.451997 0.425059 0.303035
3989 4 0.452073 0.449826 0.299608
3601 2 0.453786 0.487223 0.317779
3602 4 0.460144 0.463945 0.311227
165 3 0.0512105 0.0729817 0.393779
161 1 0.0544762 0.0862035 0.412032
393 4 0.234516 0.0112224 0.32939
1058 4 0.274144 0.00574185 0.386083
1057 2 0.281766 0.0212771 0.404131
1518 4 0.396238 0.0533452 0.340153
599 4 0.380303 0.0651551 0.336808
598 2 0.35685 0.0737825 0.33597
2516 4 0.408966 0.070367 0.383097
760 2 0.493699 0.0603655 0.382709
1062 4 0.412821 0.0521078 0.389944
1060 2 0.413936 0.0554936 0.414692
761 4 0.482262 0.082516 0.384636
2237 4 0.0740023 0.121458 0.39783
163 3 0.0670479 0.104809 0.406184
2236 2 0.0960642 0.125802 0.408765
530 4 0.194418 0.147572 0.342665
651 4 0.193167 0.136391 0.358421
371 4 0.240679 0.136713 0.400666
650 4 0.230377 0.123733 0.389339
649 2 0.211772 0.130062 0.37388
2656 2 0.322792 0.138618 0.343037
600 4 0.333397 0.0824099 0.335131
2658 4 0.327496 0.132641 0.366856
1031 4 0.345681 0.138824 0.372466
1030 2 0.352171 0.122224 0.390001
2515 2 0.416188 0.0914056 0.371678
1032 4 0.358661 0.105623 0.407536
2878 2 0.428522 0.138496 0.329371
2517 4 0.42341 0.112444 0.360259
2880 4 0.428264 0.131424 0.353352
3173 4 0.465801 0.0919537 0.380023
3172 2 0.463251 0.116171 0.3857
3174 4 0.460702 0.140387 0.391376
2901 4 0.448031 0.151141 0.401345
341 4 0.102321 0.179256 0.375206
340 2 0.111599 0.189101 0.396234
342 4 0.120877 0.198946 0.417262
2899 2 0.442565 0.164713 0.42162
709 2 0.106506 0.328233 0.4137
509 4 0.331459 0.278761 0.345887
717 4 0.338406 0.296135 0.340422
715 2 0.353164 0.297738 0.360543
716 4 0.367922 0.29934 0.380663
488 4 0.380332 0.312934 0.387598
414 4 0.0377102 0.350814 0.336226
537 4 0.0497146 0.357154 0.351893
535 2 0.0677309 0.353164 0.368765
536 4 0.0857471 0.349173 0.385637
710 4 0.0867545 0.337509 0.401493
375 4 0.23895 0.389921 0.386643
373 2 0.251178 0.404876 0.402517
487 2 0.387527 0.332941 0.400756
118 3 0.387597 0.371502 0.407676
585 4 0.418408 0.411009 0.385627
583 2 0.400628 0.415893 0.368739
489 4 0.394722 0.352948 0.413914
1953 4 0.415748 0.407785 0.406056
569 4 0.0711703 0.452762 0.407444
570 4 0.0805939 0.473271 0.36282
568 2 0.0758821 0.463016 0.385132
1450 2 0.109207 0.487206 0.343988
1557 4 0.130964 0.485726 0.407369
1451 4 0.0974817 0.467015 0.352934
435 4 0.307771 0.448785 0.357427
433 2 0.317114 0.434511 0.375706
434 4 0.326457 0.420236 0.393986
543 4 0.386511 0.435723 0.339439
4 3 0.382181 0.497442 0.332877
752 4 0.37216 0.496969 0.349234
615 4 0.344402 0.426667 0.403391
751 2 0.349678 0.487676 0.343457
584 4 0.382849 0.420777 0.351851
1484 4 0.455711 0.483673 0.401158
1485 4 0.491101 0.465727 0.370724
1483 2 0.473406 0.4747 0.385941
446 4 0.439205 0.493167 0.407626
2 3 0.418116 0.48644 0.3334
983 4 0.994498 0.0513184 0.472479
164 3 0.0653443 0.0742063 0.428656
1033 2 0.0129023 0.078544 0.450405
1059 4 0.289387 0.0368124 0.422179
1152 4 0.293115 0.0302699 0.440991
1150 2 0.285245 0.0263351 0.464395
1151 4 0.277376 0.0224002 0.4878
2316 4 0.261446 0.0340701 0.486998
2241 4 0.357039 0.0418191 0.479435
683 4 0.374136 0.0306086 0.474267
682 2 0.388129 0.048317 0.463507
684 4 0.402122 0.0660255 0.452746
2239 2 0.344343 0.0291002 0.496819
1967 4 0.445525 0.014253 0.488366
1061 4 0.415052 0.0588794 0.43944
1966 2 0.469658 0.0116933 0.482349
1968 4 0.493792 0.00913365 0.476332
843 4 0.425831 0.0180853 0.48829
162 3 0.0340895 0.0932241 0.420047
1034 4 0.0327387 0.090354 0.440802
2238 4 0.118126 0.130146 0.419701
472 2 0.244981 0.133153 0.47447
474 4 0.22571 0.137998 0.489646
370 2 0.255429 0.132249 0.420355
473 4 0.264253 0.128308 0.459294
372 4 0.27018 0.127785 0.440045
2502 4 0.367682 0.116923 0.490289
3159 4 0.367455 0.105363 0.427353
3157 2 0.36919 0.104234 0.452271
3158 4 0.370925 0.103105 0.477188
2500 2 0.364638 0.140964 0.496446
2613 4 0.0155589 0.184392 0.450172
938 4 0.0103837 0.174974 0.432547
2611 2 0.0254905 0.191645 0.471942
2847 4 0.0473169 0.214618 0.495235
2612 4 0.0354221 0.198898 0.493712
402 4 0.134794 0.20465 0.430631
825 4 0.0862909 0.231863 0.483895
400 2 0.140332 0.227042 0.440279
401 4 0.145871 0.249434 0.449928
369 4 0.100706 0.222163 0.491557
641 4 0.35084 0.234064 0.502021
900 4 0.373625 0.180405 0.496975
2900 4 0.437099 0.178285 0.441896
312 4 0.445074 0.196601 0.445823
310 2 0.445928 0.220031 0.437137
311 4 0.446782 0.243462 0.428451
1191 4 0.161694 0.260984 0.454125
711 4 0.126257 0.318956 0.425907
636 4 0.143265 0.309514 0.422447
823 2 0.0918853 0.254874 0.475872
634 2 0.160416 0.300151 0.438047
824 4 0.0974796 0.277886 0.46785
1189 2 0.181833 0.260847 0.468942
635 4 0.177568 0.290788 0.453646
668 4 0.181784 0.3087 0.459699
1190 4 0.201972 0.260709 0.48376
667 2 0.203836 0.318435 0.466338
669 4 0.225889 0.328171 0.472977
1394 4 0.217768 0.266978 0.493482
872 4 0.299655 0.305341 0.488088
871 2 0.308419 0.319758 0.469634
873 4 0.317183 0.334175 0.451181
640 2 0.344144 0.255621 0.491267
642 4 0.337449 0.277178 0.480514
320 4 0.382786 0.314221 0.4448
321 4 0.345458 0.290011 0.46763
319 2 0.364122 0.302116 0.456215
3058 2 0.500037 0.264181 0.48557
3059 4 0.48098 0.279968 0.481993
452 4 0.442548 0.263806 0.427218
453 4 0.436301 0.303873 0.45648
451 2 0.439425 0.283839 0.441849
266 4 0.438613 0.323759 0.456271
2139 4 0.0748825 0.404801 0.43606
2924 4 0.332376 0.342575 0.442528
2923 2 0.34351 0.364963 0.442605
119 3 0.402274 0.403099 0.422864
2925 4 0.354644 0.387351 0.442683
117 3 0.373826 0.385312 0.439805
116 1 0.393012 0.382329 0.427472
120 3 0.407739 0.369736 0.439438
267 4 0.410041 0.352906 0.427377
890 4 0.376875 0.376738 0.476139
265 2 0.424327 0.338333 0.441824
2138 4 0.0677765 0.453282 0.426069
2137 2 0.0713295 0.429041 0.431064
326 4 0.191986 0.490828 0.475956
1445 4 0.2186 0.486875 0.420025
1446 4 0.187114 0.496617 0.457635
1444 2 0.202857 0.491746 0.43883
325 2 0.200511 0.484087 0.498473
602 4 0.276843 0.422505 0.433794
1173 4 0.3285 0.439432 0.469486
374 4 0.263407 0.419831 0.418392
774 4 0.279444 0.423326 0.49437
603 4 0.293427 0.426378 0.480812
601 2 0.285135 0.424441 0.457303
614 4 0.331703 0.442005 0.449262
613 2 0.338052 0.434336 0.426327
1171 2 0.335415 0.429701 0.491456
2107 2 0.41941 0.482365 0.45109
1952 4 0.432248 0.450053 0.427078
2108 4 0.420268 0.462693 0.43568
1951 2 0.423998 0.428919 0.416567
943 2 0.148772 0.0538844 0.570597
944 4 0.131151 0.037153 0.57649
945 4 0.166394 0.0706157 0.564704
1181 4 0.181132 0.0739687 0.521758
2314 2 0.246283 0.0337427 0.506876
2315 4 0.231119 0.0334154 0.526754
1182 4 0.211867 0.034788 0.526334
1180 2 0.1965 0.0543784 0.524046
960 4 0.2399 0.0703427 0.579613
958 2 0.226304 0.049613 0.582867
959 4 0.212707 0.0288832 0.586121
963 4 0.31604 0.00554294 0.508635
2240 4 0.331646 0.0163813 0.514203
961 2 0.294339 0.0045303 0.521014
962 4 0.272638 0.00351766 0.533392
1143 4 0.409261 0.0394639 0.545684
1141 2 0.411846 0.064333 0.545847
842 4 0.417343 0.0237234 0.537248
841 2 0.421587 0.0209044 0.512769
2506 2 0.500443 0.0813759 0.521763
9 3 0.106044 0.137758 0.525283
6 1 0.108414 0.15819 0.536022
7 3 0.0988509 0.156773 0.556895
917 4 0.109003 0.169663 0.567953
8 3 0.130916 0.163319 0.538413
725 4 0.189721 0.0896725 0.510698
724 2 0.199377 0.112186 0.505692
726 4 0.209034 0.1347 0.500686
1142 4 0.414431 0.0892021 0.54601
2501 4 0.361594 0.165006 0.502604
576 4 0.429074 0.100891 0.54412
2507 4 0.491114 0.102302 0.511749
574 2 0.450767 0.101827 0.531723
575 4 0.472461 0.102764 0.519325
3308 4 0.476724 0.151861 0.542345
3307 2 0.465436 0.155215 0.564402
1262 4 0.49431 0.141737 0.537347
2845 2 0.0361568 0.235216 0.503974
348 4 0.12687 0.168614 0.558309
10 3 0.0979512 0.17451 0.52407
368 4 0.0922246 0.192107 0.530613
367 2 0.0964655 0.207135 0.511085
346 2 0.149315 0.177474 0.564861
409 2 0.192508 0.225648 0.56387
347 4 0.17176 0.186333 0.571412
411 4 0.178375 0.205312 0.567319
410 4 0.206641 0.245983 0.56042
1395 4 0.213456 0.251004 0.540672
899 4 0.343383 0.21762 0.511159
898 2 0.358504 0.199012 0.504067
2846 4 0.0249967 0.255813 0.512713
261 4 0.0154196 0.271823 0.507154
259 2 0.00879427 0.293925 0.516786
260 4 0.00216896 0.316027 0.526419
443 4 0.0649184 0.329498 0.501731
3043 2 0.16095 0.288919 0.582681
696 4 0.122999 0.332339 0.501722
1393 2 0.215612 0.258991 0.517077
935 4 0.193102 0.297336 0.554995
3045 4 0.179611 0.299651 0.569963
934 2 0.203198 0.319061 0.562156
813 4 0.287365 0.325341 0.549767
811 2 0.288379 0.321745 0.525044
812 4 0.289393 0.31815 0.500321
1136 4 0.0259697 0.375471 0.558281
1135 2 0.0493191 0.382887 0.553281
1041 4 0.0185713 0.372326 0.576655
1137 4 0.0726684 0.390303 0.548282
540 4 0.0700687 0.409789 0.54374
444 4 0.11101 0.348106 0.507212
442 2 0.0879641 0.338802 0.504471
694 2 0.142747 0.34305 0.5127
695 4 0.162494 0.35376 0.523677
2244 4 0.155819 0.372016 0.529593
2242 2 0.144186 0.394045 0.531736
2243 4 0.132553 0.416074 0.533879
936 4 0.213295 0.340786 0.569316
773 4 0.246442 0.39312 0.516713
772 2 0.262943 0.408223 0.505542
889 2 0.381925 0.37352 0.500415
891 4 0.386975 0.370302 0.52469
1239 4 0.396976 0.360831 0.538589
1172 4 0.34233 0.419971 0.513426
1237 2 0.402688 0.375252 0.558199
1238 4 0.4084 0.389673 0.57781
538 2 0.0931486 0.418502 0.539668
539 4 0.116229 0.427215 0.535597
327 4 0.209036 0.477345 0.520991
1454 4 0.294265 0.470368 0.551352
882 4 0.294005 0.476817 0.532253
1453 2 0.281453 0.468503 0.572743
1029 4 0.310288 0.438845 0.566809
880 2 0.315042 0.489627 0.527949
1027 2 0.317729 0.430056 0.544615
1028 4 0.32517 0.421267 0.522421
1205 4 0.316651 0.427511 0.582868
238 2 0.496083 0.455379 0.57783
239 4 0.479411 0.473629 0.581592
1153 2 0.13643 0.0626501 0.642526
1155 4 0.150555 0.0420203 0.642243
1257 4 0.159456 0.0441423 0.623927
1256 4 0.204078 0.0320617 0.604857
1255 2 0.181767 0.038102 0.614392
1130 4 0.386353 0.0580748 0.603681
1004 4 0.385572 0.0542572 0.622814
1003 2 0.386114 0.0428872 0.645077
1005 4 0.386655 0.0315173 0.667339
1129 2 0.381631 0.0825973 0.602446
1162 2 0.472527 0.0129907 0.645888
1164 4 0.496593 0.0195963 0.647426
1284 4 0.0759214 0.107636 0.664595
1154 4 0.122305 0.0832799 0.642809
1283 4 0.106094 0.0857274 0.631273
1282 2 0.0910075 0.0966815 0.647934
1211 4 0.0955258 0.16927 0.63485
857 4 0.321421 0.138473 0.605973
2318 4 0.307024 0.15142 0.597357
1131 4 0.376909 0.10712 0.601212
856 2 0.339071 0.120892 0.603845
858 4 0.356722 0.10331 0.601717
3309 4 0.454147 0.158569 0.586458
269 4 0.460203 0.139344 0.651742
268 2 0.454715 0.148279 0.629044
270 4 0.449228 0.157215 0.606346
916 2 0.102437 0.169591 0.592079
3462 4 0.121231 0.216517 0.587829
918 4 0.0958707 0.169518 0.616205
3460 2 0.13199 0.23807 0.594529
1210 2 0.0984108 0.189582 0.649142
1212 4 0.101296 0.209895 0.663433
2317 2 0.305814 0.173901 0.608235
2319 4 0.304604 0.196381 0.619114
950 4 0.310694 0.21514 0.621222
949 2 0.29223 0.229069 0.630722
951 4 0.273766 0.242998 0.640222
1281 4 0.0391776 0.294262 0.627384
3420 4 0.0280441 0.311342 0.626987
1279 2 0.0620896 0.299821 0.63571
1280 4 0.0850015 0.30538 0.644036
3461 4 0.142749 0.259623 0.601228
3044 4 0.142288 0.278187 0.595398
895 2 0.151965 0.306793 0.636568
896 4 0.135311 0.320965 0.648692
897 4 0.168619 0.29262 0.624444
1084 2 0.207167 0.284301 0.62667
1085 4 0.182812 0.27876 0.627814
1086 4 0.231522 0.289841 0.625525
978 4 0.250768 0.292013 0.627844
977 4 0.273649 0.256705 0.654872
976 2 0.262208 0.274359 0.641358
1139 4 0.321781 0.412201 0.639068
1138 2 0.31973 0.391743 0.653297
1206 4 0.310061 0.402191 0.625484
1204 2 0.313356 0.414851 0.604176
804 4 0.419084 0.378155 0.589286
802 2 0.424426 0.362093 0.607689
803 4 0.429768 0.346032 0.626092
998 4 0.434736 0.354151 0.643171
1982 4 0.0986783 0.503776 0.586938
2130 4 0.125853 0.450369 0.624494
1983 4 0.120718 0.468209 0.614323
1981 2 0.109698 0.485992 0.600631
2128 2 0.136935 0.450265 0.646908
2436 4 0.263753 0.486496 0.594482
1455 4 0.268641 0.466637 0.594133
3491 4 0.501845 0.502609 0.616727
3130 2 0.0045619 0.0151208 0.756517
3131 4 0.0181129 0.00540464 0.737885
3082 2 0.0528391 0.00467231 0.733078
3083 4 0.0308848 0.00114205 0.721645
948 4 0.0729467 0.0712719 0.74187
3084 4 0.0747934 0.00820257 0.744512
966 4 0.381147 0.0242396 0.686123
953 4 0.437078 0.0560698 0.727895
952 2 0.44576 0.0615091 0.705087
888 4 0.431772 0.0409909 0.738926
954 4 0.454442 0.0669483 0.682279
1178 4 0.0124311 0.154119 0.688107
832 2 0.0445317 0.125681 0.681984
833 4 0.0226281 0.137727 0.681435
834 4 0.0664352 0.113635 0.682534
2255 4 0.220624 0.104832 0.708096
2254 2 0.212342 0.109638 0.731194
2256 4 0.20406 0.114444 0.754291
1025 4 0.467365 0.132634 0.668222
1024 2 0.460183 0.108863 0.671144
1026 4 0.453001 0.0850914 0.674065
153 3 0.0217934 0.210705 0.733518
1259 4 0.0944817 0.214948 0.681873
1258 2 0.115165 0.227574 0.688035
1260 4 0.135847 0.240201 0.694196
1298 4 0.133102 0.299645 0.677173
1299 4 0.139997 0.257676 0.703475
1297 2 0.13655 0.278661 0.690324
1068 4 0.0903793 0.321843 0.684038
993 4 0.124963 0.33403 0.690169
1016 4 0.333896 0.31768 0.704056
805 2 0.382137 0.320467 0.669949
792 4 0.387225 0.246486 0.713155
807 4 0.392623 0.30286 0.684274
791 4 0.377289 0.289487 0.689641
790 2 0.382257 0.267986 0.701398
884 4 0.00973741 0.36583 0.734257
883 2 0.0207032 0.358665 0.712959
885 4 0.0316689 0.351499 0.691661
1067 4 0.0516622 0.350018 0.698456
1066 2 0.0710208 0.33593 0.691247
991 2 0.134932 0.35041 0.674123
992 4 0.144901 0.366791 0.658077
1098 4 0.161981 0.399152 0.722706
1097 4 0.196021 0.363841 0.732458
1096 2 0.179001 0.381496 0.727582
1278 4 0.197939 0.346148 0.722538
1276 2 0.220842 0.346788 0.712527
941 4 0.16725 0.406387 0.70409
1277 4 0.243744 0.347428 0.702515
1140 4 0.31768 0.371285 0.667526
796 2 0.268817 0.377421 0.72353
797 4 0.257815 0.357049 0.714089
1017 4 0.314565 0.354792 0.676674
798 4 0.279819 0.397792 0.732971
1015 2 0.324231 0.336236 0.690365
806 4 0.371652 0.338074 0.655624
1019 4 0.346511 0.328524 0.714891
1018 2 0.367415 0.337559 0.725215
1020 4 0.388318 0.346594 0.735539
190 3 0.405746 0.394902 0.726512
187 3 0.396007 0.363257 0.743734
84 3 0.351422 0.408499 0.732538
186 1 0.402041 0.385242 0.7468
188 3 0.384846 0.396275 0.7578
3465 4 0.476777 0.357797 0.692085
997 2 0.45211 0.349355 0.660501
999 4 0.469484 0.34456 0.67783
3463 2 0.492286 0.375482 0.700565
2129 4 0.148017 0.450161 0.669321
942 4 0.168654 0.446223 0.673894
940 2 0.167952 0.426305 0.688992
3181 2 0.387997 0.500185 0.696867
3183 4 0.381536 0.488207 0.717843
946 2 0.0921699 0.0690632 0.757706
947 4 0.111393 0.0668544 0.773541
851 4 0.126334 0.0762297 0.782801
907 2 0.177413 0.000281459 0.811754
909 4 0.179413 0.0200438 0.826941
1038 4 0.289495 0.0211639 0.813279
2322 4 0.343865 0.0029361 0.76227
818 4 0.40011 0.0084245 0.778195
886 2 0.446084 0.0250106 0.75177
887 4 0.460396 0.00903032 0.764614
845 4 0.420197 0.00898494 0.780549
844 2 0.422924 0.0176055 0.80386
846 4 0.425652 0.0262262 0.827172
534 4 0.446333 0.0301955 0.823439
864 4 0.0612136 0.165342 0.827327
863 4 0.0146241 0.148074 0.832978
862 2 0.0379188 0.156708 0.830152
850 2 0.136236 0.0981669 0.789576
31 1 0.135405 0.156248 0.806018
32 3 0.130929 0.13443 0.800265
852 4 0.146138 0.120104 0.79635
1023 4 0.154612 0.140462 0.79291
34 3 0.133909 0.158384 0.829075
35 3 0.156396 0.161685 0.799057
1022 4 0.195958 0.127389 0.768004
1021 2 0.175285 0.133926 0.780457
152 3 0.998531 0.225957 0.758795
924 4 0.0146103 0.219 0.770379
922 2 0.0380586 0.223522 0.777789
923 4 0.0615069 0.228044 0.785199
870 4 0.0730925 0.216704 0.79615
33 3 0.119836 0.170057 0.795757
869 4 0.104233 0.178741 0.786673
868 2 0.0886628 0.197723 0.791412
1092 4 0.231259 0.228921 0.793633
1090 2 0.244165 0.211106 0.805518
839 4 0.219339 0.233382 0.810195
1091 4 0.25707 0.193291 0.817403
1010 4 0.49306 0.162829 0.813586
838 2 0.216647 0.257531 0.804297
1209 4 0.197073 0.285468 0.78949
1207 2 0.192761 0.308907 0.797053
840 4 0.213954 0.281679 0.798399
1208 4 0.188449 0.332346 0.804617
3329 4 0.27768 0.318402 0.829334
1224 4 0.145454 0.395339 0.815426
1290 4 0.170594 0.338825 0.808079
1289 4 0.162918 0.388237 0.808582
1288 2 0.166756 0.363531 0.80833
1064 4 0.226858 0.404227 0.778181
57 3 0.225651 0.386106 0.787998
58 3 0.228283 0.369968 0.82184
56 1 0.240086 0.380944 0.805148
60 3 0.249132 0.400156 0.813377
1044 4 0.285486 0.390236 0.750321