ITEM: TIMESTEP
4650000
ITEM: NUMBER OF ATOMS
4590
ITEM: BOX BOUNDS pp pp pp
-9.9985700000000008e+00 9.9985700000000008e+00
-9.9985700000000008e+00 9.9985700000000008e+00
-9.9985700000000008e+00 9.9985700000000008e+00
ITEM: ATOMS id type xs ys zs
566 4 0.0901217 0.0230457 0.0691241
565 2 0.0970677 0.0156853 0.0462603
2252 4 0.119708 0.00313982 0.0142066
567 4 0.104014 0.00832495 0.0233964
701 4 0.16785 0.0796857 0.0688857
486 4 0.226149 0.0351761 0.0635721
484 2 0.230821 0.018266 0.0457563
1841 4 0.170982 0.0621511 0.0795712
1840 2 0.189606 0.0457473 0.0765352
1842 4 0.208231 0.0293435 0.0734991
2179 2 0.315662 0.99856 0.0617511
2180 4 0.302087 0.0138805 0.0761107
2976 4 0.484504 0.0589603 0.0286357
2974 2 0.477541 0.0646782 0.0519595
2441 4 0.470078 0.0589006 0.0134458
2440 2 0.446742 0.0657147 0.00759754
146 1 0.497379 0.0416839 0.00430679
2975 4 0.470577 0.0703962 0.0752832
700 2 0.150569 0.0851343 0.051656
835 2 0.0782582 0.156468 0.0459047
702 4 0.133288 0.0905828 0.0344264
837 4 0.101601 0.147564 0.0448966
554 4 0.114524 0.0943535 0.0269548
553 2 0.113926 0.107728 0.00583769
465 4 0.154678 0.161945 0.0419517
357 4 0.241417 0.10464 0.0510923
355 2 0.25166 0.100766 0.0735702
721 2 0.293801 0.166498 0.0793774
722 4 0.281878 0.159804 0.0584436
360 4 0.365748 0.164236 0.0144237
2894 4 0.486287 0.151196 0.0894628
23 3 0.467327 0.101046 0.0699966
24 3 0.474667 0.129433 0.0458165
21 1 0.480472 0.119765 0.0660951
836 4 0.0549155 0.165372 0.0469127
3259 2 0.00202386 0.185205 0.0125506
463 2 0.145342 0.184814 0.0380779
456 4 0.120835 0.218936 0.0403627
454 2 0.108701 0.235161 0.055016
455 4 0.0965674 0.251385 0.0696693
464 4 0.136006 0.207684 0.0342041
421 2 0.178066 0.242401 0.0230103
903 4 0.285021 0.238502 0.0790007
901 2 0.287459 0.222494 0.0599491
902 4 0.289897 0.206485 0.0408975
296 4 0.309795 0.202504 0.0413121
295 2 0.315248 0.196704 0.0176096
358 2 0.373772 0.186929 0.0211922
359 4 0.381796 0.209622 0.0279607
282 4 0.39347 0.213726 0.0434261
280 2 0.409727 0.232103 0.0386143
281 4 0.425984 0.250481 0.0338025
3405 4 0.0242659 0.279294 0.0511759
422 4 0.179262 0.246219 0.0476918
293 4 0.179579 0.267047 0.0500658
292 2 0.193152 0.266578 0.0710594
493 2 0.195863 0.321738 0.999451
495 4 0.194902 0.33145 0.0224712
2839 2 0.469325 0.316682 0.0146787
2841 4 0.46011 0.336785 0.0263459
416 4 0.141098 0.363647 0.0577984
2512 2 0.135204 0.386382 0.0289873
2514 4 0.148846 0.377593 0.00996526
2513 4 0.121562 0.39517 0.0480093
525 4 0.124082 0.400982 0.0680572
523 2 0.100859 0.406868 0.0752156
969 4 0.188534 0.344497 0.0355967
967 2 0.194718 0.346937 0.0597003
968 4 0.200902 0.349377 0.0838039
518 4 0.392997 0.337351 0.0713696
528 4 0.411269 0.340961 0.0648657
2006 4 0.414704 0.3951 0.00323581
789 4 0.418397 0.413695 0.0017559
527 4 0.450035 0.35499 0.0365626
526 2 0.430652 0.347976 0.0507142
672 4 0.450352 0.375209 0.0351147
670 2 0.467048 0.393017 0.0297015
671 4 0.483745 0.410824 0.0242884
1056 4 0.0241357 0.434868 0.0313706
1054 2 0.0274776 0.419321 0.0120757
15 3 0.356529 0.474108 0.0410945
11 1 0.373807 0.462373 0.0320177
12 3 0.385077 0.45132 0.0487504
596 4 0.391323 0.450368 0.0683046
14 3 0.365695 0.44678 0.0168701
13 3 0.38849 0.476854 0.0213816
3704 4 0.465992 0.490598 0.0619116
660 4 0.450232 0.501491 0.0528704
3908 4 0.0814411 0.00842248 0.0795275
3907 2 0.0851883 0.00470608 0.103968
3909 4 0.0889355 0.000989681 0.128408
1662 4 0.193845 0.0151152 0.132252
1660 2 0.217671 0.0221907 0.129525
1661 4 0.241497 0.0292663 0.126797
1475 4 0.257731 0.0178058 0.121153
1476 4 0.290788 0.0297679 0.0855879
1474 2 0.274259 0.0237868 0.10337
1565 4 0.306855 0.996397 0.163875
742 2 0.38863 0.06175 0.138063
1747 2 0.357816 0.0324862 0.10576
1748 4 0.378977 0.0397025 0.116954
743 4 0.396731 0.0406301 0.12741
1749 4 0.336654 0.0252699 0.0945666
254 4 0.463388 0.0864658 0.0828607
2467 2 0.470347 0.0090899 0.11152
2468 4 0.485705 0.0244178 0.123945
771 4 0.496126 0.0396199 0.115381
253 2 0.440321 0.0813681 0.0910535
255 4 0.417255 0.0762704 0.0992463
2469 4 0.45499 0.993762 0.0990941
705 4 0.0678299 0.147603 0.12088
703 2 0.0537323 0.165619 0.130972
579 4 0.136121 0.161156 0.155954
236 4 0.128304 0.151451 0.170902
450 4 0.187807 0.119118 0.122279
448 2 0.184443 0.141322 0.111288
449 4 0.181079 0.163527 0.100296
606 4 0.193801 0.125947 0.140119
604 2 0.21561 0.119457 0.150483
605 4 0.23742 0.112966 0.160846
759 4 0.248323 0.0981775 0.153709
758 4 0.268125 0.084474 0.109882
356 4 0.261902 0.0968925 0.0960481
757 2 0.258224 0.0913257 0.131795
744 4 0.380528 0.0828699 0.148717
1506 4 0.393191 0.0983164 0.143308
691 2 0.343294 0.160153 0.112219
692 4 0.365111 0.147974 0.113145
1504 2 0.38573 0.120778 0.135247
1505 4 0.378268 0.143239 0.127185
22 3 0.476853 0.13503 0.0829184
704 4 0.0396346 0.183635 0.141065
462 4 0.0254456 0.198048 0.138145
460 2 0.0300555 0.221167 0.146479
461 4 0.0346655 0.244285 0.154813
287 4 0.0816767 0.251154 0.0821001
915 4 0.16193 0.168254 0.0936918
578 4 0.135151 0.210531 0.163824
507 4 0.13463 0.229348 0.167624
577 2 0.135636 0.185843 0.159889
914 4 0.178807 0.215241 0.0965367
913 2 0.170368 0.191748 0.0951142
580 2 0.206436 0.231802 0.11714
581 4 0.19961 0.21015 0.127619
251 4 0.200427 0.215391 0.147654
732 4 0.231938 0.2203 0.153537
250 2 0.185294 0.224503 0.165349
723 4 0.305723 0.173193 0.100311
693 4 0.321476 0.172332 0.111294
378 4 0.388022 0.232691 0.147757
2876 4 0.390849 0.242847 0.129984
2893 2 0.487539 0.168834 0.107141
2895 4 0.488791 0.186472 0.124819
623 4 0.0384789 0.257486 0.169248
286 2 0.0886155 0.271734 0.0944889
288 4 0.0955544 0.292315 0.106878
477 4 0.106665 0.308338 0.102354
475 2 0.112154 0.310319 0.126667
476 4 0.117644 0.3123 0.150979
755 4 0.118032 0.313909 0.170989
294 4 0.206725 0.266108 0.092053
103 3 0.215007 0.284372 0.0917871
582 4 0.213261 0.253453 0.106661
101 1 0.22707 0.282697 0.111537
105 3 0.230226 0.260785 0.11688
102 3 0.215235 0.292972 0.128375
278 4 0.214374 0.312479 0.130126
104 3 0.247572 0.293314 0.109221
517 2 0.39404 0.318582 0.0878558
519 4 0.395084 0.299812 0.104342
2875 2 0.385488 0.265 0.119705
2877 4 0.380127 0.287154 0.109425
308 4 0.488455 0.320224 0.0949604
498 4 0.472349 0.333939 0.0903066
275 4 0.449768 0.332212 0.155564
417 4 0.138643 0.363803 0.107745
363 4 0.135153 0.362849 0.126936
415 2 0.139871 0.363725 0.0827717
361 2 0.14288 0.373975 0.147953
362 4 0.150607 0.3851 0.168969
2093 4 0.120851 0.402662 0.153127
277 2 0.217645 0.335045 0.140386
279 4 0.220915 0.35761 0.150646
1121 4 0.239244 0.362309 0.147904
1120 2 0.253465 0.382172 0.142573
1122 4 0.267685 0.402035 0.137242
1071 4 0.283142 0.406982 0.12465
1069 2 0.307794 0.403261 0.126549
1070 4 0.332446 0.39954 0.128449
609 4 0.339041 0.391923 0.146246
607 2 0.355264 0.40917 0.154279
608 4 0.371487 0.426418 0.162311
496 2 0.460748 0.333915 0.112456
497 4 0.449146 0.333892 0.134605
2536 2 0.474873 0.374536 0.151721
2538 4 0.49571 0.374665 0.137902
2537 4 0.454035 0.374407 0.16554
314 4 0.0123945 0.449614 0.132601
2771 4 0.0304836 0.44699 0.125157
2770 2 0.0506 0.438823 0.137558
2772 4 0.0707165 0.430655 0.149959
2094 4 0.0861988 0.436658 0.141115
524 4 0.0776363 0.412753 0.0823739
328 2 0.10225 0.497493 0.125686
330 4 0.113878 0.479448 0.112865
768 4 0.13364 0.476476 0.112521
766 2 0.156338 0.482593 0.121039
2092 2 0.103525 0.41966 0.147121
637 2 0.21802 0.478251 0.13056
767 4 0.179036 0.488711 0.129557
638 4 0.196493 0.487213 0.139586
639 4 0.239547 0.46929 0.121533
1863 4 0.249493 0.461785 0.105259
1862 4 0.298457 0.456322 0.113826
1861 2 0.273975 0.459053 0.109542
597 4 0.413814 0.43 0.108053
595 2 0.402568 0.440184 0.088179
740 4 0.387467 0.43068 0.151279
3703 2 0.466302 0.49329 0.0867679
3705 4 0.466611 0.495982 0.111624
1673 4 0.452623 0.497011 0.126473
232 2 0.00218707 0.0674681 0.198827
234 4 0.0261379 0.0719212 0.204458
405 4 0.251422 0.0506059 0.254883
1566 4 0.260761 0.00375469 0.181817
1564 2 0.283808 7.58416e-05 0.172846
403 2 0.252235 0.0719294 0.241851
249 4 0.250384 0.0117088 0.196026
2702 4 0.483302 0.0673448 0.234036
698 4 0.470279 0.0761606 0.245557
2674 2 0.0313393 0.10238 0.23379
2675 4 0.0360621 0.0832905 0.218348
237 4 0.100389 0.1184 0.195984
235 2 0.114346 0.134926 0.183443
28 3 0.235359 0.11076 0.181148
27 3 0.236187 0.0766523 0.196916
404 4 0.253048 0.0932528 0.22882
26 1 0.2482 0.0916962 0.184326
30 3 0.253257 0.0822922 0.16421
29 3 0.267708 0.0970859 0.195674
516 4 0.249057 0.113939 0.224196
514 2 0.270637 0.121851 0.234039
515 4 0.292217 0.129763 0.243882
697 2 0.469963 0.0994056 0.236351
699 4 0.469647 0.12265 0.227145
2572 2 0.463195 0.148891 0.209871
2574 4 0.445386 0.158298 0.195055
2573 4 0.481004 0.139483 0.224687
1219 2 0.0374621 0.191081 0.238125
1220 4 0.0207718 0.176569 0.226462
459 4 0.0719841 0.196807 0.247097
505 2 0.112916 0.237934 0.176566
457 2 0.0944215 0.207535 0.244519
458 4 0.116859 0.218263 0.24194
506 4 0.0912025 0.24652 0.185509
730 2 0.241344 0.211528 0.174979
252 4 0.170161 0.233616 0.183044
546 4 0.174201 0.173518 0.223599
544 2 0.192417 0.173415 0.240726
731 4 0.25075 0.202756 0.196421
285 4 0.166422 0.243434 0.200445
350 4 0.254263 0.193886 0.213246
349 2 0.277061 0.19126 0.223174
351 4 0.299858 0.188634 0.233101
764 4 0.303814 0.20671 0.238823
376 2 0.398608 0.220121 0.166601
377 4 0.409195 0.207551 0.185445
629 4 0.408677 0.206846 0.203937
628 2 0.404815 0.202433 0.228243
622 2 0.0623602 0.261558 0.175436
396 4 0.0622466 0.313448 0.197893
395 4 0.0122777 0.315151 0.196939
394 2 0.0372622 0.3143 0.197416
756 4 0.0755604 0.327493 0.193624
624 4 0.0862415 0.26563 0.181623
754 2 0.0967961 0.320701 0.182307
291 4 0.169421 0.319444 0.183106
284 4 0.165469 0.28309 0.230895
283 2 0.165945 0.263262 0.21567
611 4 0.321248 0.281953 0.237772
728 4 0.158767 0.402409 0.177196
290 4 0.150085 0.349737 0.217879
289 2 0.159753 0.33459 0.200493
735 4 0.161715 0.360638 0.230129
733 2 0.182319 0.37105 0.239734
246 4 0.27879 0.404016 0.245049
244 2 0.293734 0.385277 0.252172
385 2 0.394884 0.358014 0.222633
386 4 0.415372 0.355001 0.20862
387 4 0.374397 0.361027 0.236646
1575 4 0.376216 0.380067 0.24162
276 4 0.430835 0.346092 0.199718
274 2 0.440302 0.339152 0.177641
714 4 0.464377 0.376898 0.182393
712 2 0.468186 0.380446 0.206849
713 4 0.471996 0.383994 0.231304
2862 4 0.460475 0.400364 0.238889
262 2 0.0727055 0.430743 0.220279
263 4 0.0632649 0.411981 0.206713
727 2 0.163518 0.417219 0.196773
264 4 0.0821461 0.449504 0.233846
729 4 0.168269 0.432029 0.216351
339 4 0.171597 0.450293 0.209978
338 4 0.197821 0.492345 0.216657
337 2 0.184709 0.471319 0.213318
627 4 0.27869 0.420578 0.233666
625 2 0.274942 0.427175 0.209842
626 4 0.271193 0.433771 0.186017
739 2 0.392802 0.444927 0.171122
741 4 0.398138 0.459173 0.190964
303 4 0.387195 0.468425 0.205395
301 2 0.407849 0.480163 0.213193
1716 4 0.440769 0.496929 0.235906
302 4 0.428503 0.491901 0.22099
1272 4 0.0763285 0.0789876 0.282573
2849 4 0.0670487 0.0615882 0.287711
2850 4 0.0601797 0.0147818 0.271503
2848 2 0.0636142 0.038185 0.279607
428 4 0.21721 0.998163 0.299031
392 4 0.208771 0.00347086 0.282333
391 2 0.223469 0.0214182 0.273003
393 4 0.238167 0.0393655 0.263673
2641 2 0.312104 0.038748 0.327049
2642 4 0.29141 0.0522432 0.323198
480 4 0.278739 0.0616591 0.334597
2643 4 0.332797 0.0252529 0.3309
522 4 0.497047 0.0629212 0.323755
520 2 0.49116 0.079184 0.305699
2676 4 0.0266165 0.12147 0.249232
513 4 0.0131112 0.153582 0.302104
512 4 0.0355272 0.125789 0.267092
511 2 0.0243192 0.139685 0.284598
2484 4 0.994409 0.156604 0.30363
1270 2 0.079879 0.100758 0.270799
1271 4 0.0834295 0.122529 0.259026
469 2 0.202184 0.136916 0.327051
470 4 0.219201 0.135631 0.308777
2910 4 0.307845 0.118129 0.244961
2908 2 0.31909 0.110935 0.266103
2909 4 0.330335 0.103741 0.287244
2656 2 0.326611 0.0967392 0.320398
2657 4 0.341804 0.093607 0.300789
521 4 0.485274 0.0954468 0.287642
633 4 0.481629 0.109784 0.30109
631 2 0.466315 0.12583 0.28955
632 4 0.451001 0.141877 0.278011
333 4 0.434791 0.148952 0.288587
331 2 0.423295 0.167317 0.276107
1221 4 0.0541524 0.205593 0.249787
2692 2 0.0718654 0.221822 0.295066
2693 4 0.0508973 0.215937 0.282782
300 4 0.0413991 0.231188 0.272102
298 2 0.0164291 0.230655 0.273281
2694 4 0.0928335 0.227706 0.30735
545 4 0.210633 0.173312 0.257854
530 4 0.231412 0.151844 0.302337
529 2 0.221921 0.169404 0.287279
531 4 0.21243 0.186964 0.272221
763 2 0.309909 0.224131 0.255691
765 4 0.316004 0.241552 0.272559
510 4 0.330555 0.231869 0.282118
630 4 0.400952 0.19802 0.25255
332 4 0.411799 0.185681 0.263626
508 2 0.350284 0.236039 0.296901
509 4 0.370013 0.24021 0.311685
2592 4 0.488746 0.25036 0.310288
2591 4 0.446348 0.250963 0.283778
2590 2 0.467547 0.250662 0.297033
2831 4 0.00509613 0.251307 0.312067
413 4 0.0583122 0.324029 0.274459
748 2 0.129337 0.275483 0.282143
749 4 0.109925 0.288948 0.290333
618 4 0.110489 0.304212 0.275787
616 2 0.118008 0.328024 0.27707
750 4 0.148749 0.262019 0.273953
390 4 0.225567 0.284718 0.288966
388 2 0.211277 0.265201 0.282639
389 4 0.196987 0.245683 0.276311
345 4 0.306031 0.287802 0.2507
343 2 0.295123 0.304006 0.26631
344 4 0.284215 0.320209 0.281919
645 4 0.286389 0.326686 0.301324
610 2 0.343213 0.278477 0.249202
612 4 0.365177 0.275001 0.260632
717 4 0.369587 0.258507 0.320274
715 2 0.369781 0.279775 0.333421
536 4 0.00434851 0.393855 0.315315
535 2 0.0130244 0.388697 0.292439
537 4 0.0217002 0.383539 0.269563
412 2 0.0457789 0.345637 0.273365
414 4 0.0332456 0.367244 0.272271
617 4 0.125526 0.351836 0.278354
734 4 0.202923 0.381463 0.249338
364 2 0.234473 0.370831 0.275898
366 4 0.218623 0.384449 0.262168
2654 4 0.155556 0.360299 0.327085
245 4 0.308678 0.366539 0.259296
365 4 0.250324 0.357214 0.289628
643 2 0.302205 0.344036 0.309926
644 4 0.318021 0.361387 0.318527
1573 2 0.365907 0.397238 0.256589
2860 2 0.464246 0.413588 0.259771
1382 4 0.0851678 0.450249 0.254085
1381 2 0.0919443 0.456124 0.277425
1383 4 0.0987208 0.461999 0.300765
3672 4 0.105113 0.463634 0.318745
3670 2 0.118436 0.444442 0.327653
677 4 0.184868 0.447063 0.281168
678 4 0.20015 0.482993 0.312412
676 2 0.192509 0.465028 0.29679
752 4 0.317698 0.486183 0.298829
1803 4 0.329276 0.469469 0.303334
1574 4 0.355598 0.414409 0.271557
1801 2 0.338569 0.448047 0.294394
1802 4 0.347863 0.426626 0.285454
3989 4 0.49694 0.485667 0.297606
2861 4 0.468016 0.426813 0.280654
3990 4 0.47677 0.4436 0.279598
3988 2 0.486855 0.464634 0.288602
2238 4 0.0616867 0.0114908 0.399309
2236 2 0.0491709 0.026004 0.415368
479 4 0.233673 0.0684364 0.355186
478 2 0.256206 0.0650478 0.344892
598 2 0.345343 0.0206545 0.393522
600 4 0.360493 0.0215845 0.373653
4164 4 0.407638 0.00119214 0.380601
1518 4 0.420181 0.0175274 0.384401
1517 4 0.428283 0.0618235 0.362654
1516 2 0.424232 0.0396754 0.373528
2880 4 0.435192 0.0701724 0.345498
708 4 0.181901 0.0802465 0.370849
471 4 0.185167 0.138201 0.345325
706 2 0.179921 0.104795 0.366535
707 4 0.177942 0.129344 0.362221
371 4 0.242274 0.147793 0.393185
650 4 0.256241 0.137179 0.402903
649 2 0.263758 0.114565 0.410473
651 4 0.271275 0.0919521 0.418044
1031 4 0.311637 0.109555 0.358096
2658 4 0.311417 0.0998713 0.340008
1030 2 0.32849 0.110051 0.376559
1032 4 0.345343 0.110547 0.395023
3159 4 0.347402 0.114894 0.413771
2879 4 0.465846 0.10938 0.350371
762 4 0.462864 0.127234 0.341864
760 2 0.485318 0.133463 0.350931
2878 2 0.450519 0.0897764 0.347935
342 4 0.151793 0.197622 0.391522
340 2 0.129986 0.208241 0.38545
341 4 0.108179 0.21886 0.379378
402 4 0.169964 0.195747 0.399303
400 2 0.180922 0.189775 0.420969
370 2 0.24408 0.170453 0.403599
3174 4 0.501041 0.173271 0.415865
443 4 0.10024 0.314973 0.414119
716 4 0.369975 0.301042 0.346567
488 4 0.386123 0.309629 0.355418
487 2 0.404888 0.301964 0.370057
489 4 0.423653 0.2943 0.384697
267 4 0.424609 0.311356 0.39492
2653 2 0.148331 0.383793 0.331666
711 4 0.151039 0.388671 0.425772
709 2 0.133211 0.401772 0.414121
2655 4 0.141106 0.407288 0.336248
636 4 0.161804 0.372745 0.422021
375 4 0.22936 0.37562 0.393524
435 4 0.304547 0.373517 0.327624
433 2 0.319814 0.381603 0.345699
118 3 0.367766 0.341901 0.413324
434 4 0.335082 0.389689 0.363774
615 4 0.335849 0.391719 0.383054
583 2 0.387645 0.391522 0.379441
585 4 0.401032 0.381918 0.398249
119 3 0.389061 0.373344 0.411814
584 4 0.374258 0.401125 0.360633
568 2 0.0631337 0.493733 0.398878
569 4 0.0585574 0.469387 0.402267
2138 4 0.0628767 0.449344 0.405032
3671 4 0.131759 0.42525 0.33656
2137 2 0.084925 0.439521 0.398509
2139 4 0.106973 0.429698 0.391985
710 4 0.115384 0.414873 0.402471
2108 4 0.332522 0.457204 0.404582
2107 2 0.339898 0.480439 0.399022
614 4 0.333524 0.439542 0.397488
543 4 0.397209 0.458992 0.345179
541 2 0.387059 0.436147 0.344638
542 4 0.37691 0.413303 0.344097
613 2 0.334686 0.41563 0.390271
1485 4 0.412586 0.448633 0.353348
446 4 0.446928 0.487595 0.388516
1483 2 0.429689 0.465059 0.361277
1484 4 0.446792 0.481485 0.369205
162 3 0.994197 0.05838 0.448628
163 3 0.0185132 0.0413434 0.425581
2237 4 0.0366552 0.0405171 0.431427
599 4 0.330192 0.0197246 0.413391
1061 4 0.420576 0.0544462 0.488163
684 4 0.405699 0.0426132 0.484514
682 2 0.395822 0.0199269 0.488111
683 4 0.385944 0.997241 0.491709
1060 2 0.420435 0.0750586 0.474011
1034 4 0.0218356 0.0932592 0.499534
937 2 0.0406772 0.119892 0.495813
939 4 0.0586262 0.130149 0.481748
2613 4 0.0470146 0.158161 0.437986
726 4 0.228934 0.159998 0.503849
474 4 0.222706 0.154191 0.484557
472 2 0.20529 0.160318 0.467694
3157 2 0.3612 0.121913 0.433406
2502 4 0.361028 0.125746 0.466902
3158 4 0.374998 0.128933 0.453041
2500 2 0.370675 0.13621 0.48746
2501 4 0.380322 0.146674 0.508017
1062 4 0.420294 0.0956711 0.459859
2516 4 0.430887 0.102358 0.445188
2508 4 0.484467 0.126197 0.456597
419 4 0.477704 0.109545 0.449403
418 2 0.486748 0.0905375 0.435909
2517 4 0.433491 0.144365 0.418182
2515 2 0.432189 0.123362 0.431685
2611 2 0.0396835 0.179338 0.449075
2612 4 0.0323525 0.200515 0.460163
2847 4 0.0350317 0.207455 0.478007
2845 2 0.0450523 0.230294 0.479782
825 4 0.153419 0.2368 0.483349
369 4 0.163683 0.23576 0.50114
372 4 0.245885 0.193113 0.414014
401 4 0.191881 0.183803 0.442635
1191 4 0.24726 0.210514 0.424777
473 4 0.187875 0.166445 0.450832
1189 2 0.246378 0.219013 0.448275
1190 4 0.245496 0.227512 0.471774
1394 4 0.235088 0.239612 0.484151
319 2 0.329509 0.237353 0.434534
642 4 0.319419 0.231438 0.46734
321 4 0.314576 0.245672 0.452782
640 2 0.307294 0.226366 0.488611
320 4 0.344441 0.229033 0.416287
2901 4 0.493742 0.191772 0.41538
2899 2 0.4922 0.205599 0.436156
312 4 0.498187 0.231976 0.469373
2900 4 0.490658 0.219425 0.456931
310 2 0.475135 0.239951 0.474866
311 4 0.452082 0.247925 0.48036
2846 4 0.0550729 0.253133 0.481558
259 2 0.058468 0.289699 0.496918
1640 4 0.0679714 0.320361 0.482363
261 4 0.0468584 0.267947 0.492765
260 4 0.0700776 0.311451 0.501071
444 4 0.110399 0.279267 0.447624
442 2 0.105319 0.29712 0.430872
823 2 0.164936 0.255871 0.471998
824 4 0.176453 0.274942 0.460647
669 4 0.188138 0.287077 0.472068
667 2 0.182891 0.305764 0.456305
668 4 0.177645 0.324451 0.440543
453 4 0.437137 0.303389 0.450935
266 4 0.450545 0.308171 0.437557
451 2 0.442641 0.285072 0.467041
265 2 0.437577 0.309764 0.416238
452 4 0.448146 0.266756 0.483147
1639 2 0.0691844 0.335256 0.462317
1641 4 0.0703975 0.350151 0.442271
634 2 0.16695 0.348331 0.420383
696 4 0.120281 0.336959 0.496213
373 2 0.218782 0.369336 0.41529
635 4 0.172096 0.323918 0.418744
327 4 0.156611 0.403113 0.48371
374 4 0.208203 0.363052 0.437056
602 4 0.217164 0.37058 0.453645
601 2 0.235133 0.363441 0.469498
603 4 0.253103 0.356303 0.485351
873 4 0.264527 0.341894 0.477415
871 2 0.286151 0.340407 0.489881
117 3 0.36827 0.365917 0.442231
116 1 0.381024 0.356479 0.425576
2923 2 0.340665 0.393926 0.451648
120 3 0.398415 0.345151 0.434952
2925 4 0.363054 0.384391 0.445903
1556 4 0.142055 0.504554 0.421299
325 2 0.161691 0.424027 0.470982
326 4 0.16677 0.44494 0.458255
1444 2 0.158749 0.468971 0.436959
1446 4 0.166622 0.445349 0.439238
1173 4 0.32628 0.419883 0.466493
2924 4 0.318277 0.403461 0.457393
1171 2 0.312323 0.42308 0.48699
1035 4 0.0182093 0.0517067 0.52712
983 4 0.01909 0.0316381 0.524254
1033 2 0.0200225 0.072483 0.513327
2314 2 0.202712 0.0289441 0.537858
2315 4 0.206045 0.0533013 0.542418
2316 4 0.199379 0.00458692 0.533298
1182 4 0.20189 0.0664822 0.528951
1180 2 0.215601 0.0872014 0.526139
1143 4 0.419654 0.0374165 0.525374
842 4 0.425431 0.0174106 0.525767
1141 2 0.424453 0.0493423 0.54682
1142 4 0.429252 0.0612682 0.568266
576 4 0.434108 0.0766383 0.578747
574 2 0.458112 0.0831687 0.581267
841 2 0.440281 0.00150272 0.513454
1162 2 0.481104 0.0138247 0.582851
1164 4 0.503802 0.0219907 0.576272
938 4 0.0227282 0.109634 0.509877
943 2 0.152729 0.102768 0.569525
944 4 0.145683 0.126557 0.566423
7 3 0.132788 0.14966 0.54122
9 3 0.154078 0.152341 0.510363
6 1 0.150037 0.161279 0.531391
945 4 0.159774 0.0789785 0.572627
917 4 0.13611 0.130197 0.584888
8 3 0.168974 0.159228 0.544643
1181 4 0.229312 0.107921 0.523326
725 4 0.227092 0.122638 0.537038
724 2 0.228013 0.141318 0.520443
898 2 0.392805 0.164942 0.540056
900 4 0.379366 0.162517 0.519111
899 4 0.406243 0.167368 0.561002
575 4 0.482116 0.0896991 0.583787
3460 2 0.101904 0.200829 0.577336
368 4 0.145318 0.190021 0.509591
10 3 0.1442 0.183213 0.529521
348 4 0.169253 0.173954 0.558971
367 2 0.1545 0.212891 0.505366
3461 4 0.111597 0.222178 0.568653
346 2 0.180539 0.192928 0.57071
411 4 0.204519 0.223703 0.574854
409 2 0.223775 0.230729 0.560535
410 4 0.243031 0.237755 0.546216
1393 2 0.234662 0.245186 0.508521
347 4 0.191825 0.211902 0.582449
641 4 0.295169 0.221293 0.509881
858 4 0.385375 0.183639 0.575902
269 4 0.416731 0.180974 0.571422
268 2 0.440913 0.1873 0.570821
270 4 0.465095 0.193627 0.57022
3309 4 0.484514 0.194798 0.57351
384 4 0.992153 0.323609 0.574718
3043 2 0.119748 0.254858 0.583508
3045 4 0.130188 0.277434 0.580951
935 4 0.147473 0.283781 0.588942
934 2 0.145052 0.302701 0.572776
936 4 0.142631 0.321621 0.556609
1395 4 0.234236 0.25076 0.532892
811 2 0.308676 0.299776 0.523318
812 4 0.313736 0.320833 0.51082
813 4 0.303615 0.278719 0.535815
872 4 0.307774 0.338919 0.502347
1136 4 0.0272819 0.391996 0.562412
1041 4 0.0309858 0.375746 0.550688
1039 2 0.0156076 0.357127 0.557171
1040 4 0.000229409 0.338508 0.563654
1135 2 0.0403289 0.41024 0.551361
695 4 0.144641 0.32963 0.539266
694 2 0.132461 0.333295 0.517739
2242 2 0.144764 0.416705 0.523647
2244 4 0.15522 0.404581 0.504442
774 4 0.206429 0.363989 0.540669
772 2 0.198761 0.352127 0.520037
773 4 0.191094 0.340264 0.499406
891 4 0.392534 0.392006 0.56829
889 2 0.372998 0.38087 0.57922
1239 4 0.409506 0.400312 0.57696
1137 4 0.053376 0.428483 0.540311
540 4 0.0710908 0.437635 0.537368
2243 4 0.134308 0.42883 0.542853
539 4 0.116957 0.418664 0.543464
538 2 0.0940237 0.42815 0.540416
1982 4 0.136569 0.492479 0.575489
1027 2 0.285593 0.432433 0.545293
1028 4 0.284539 0.434112 0.520368
1029 4 0.286647 0.430754 0.570218
1172 4 0.298365 0.426278 0.507487
1818 4 0.192708 0.0369516 0.607192
959 4 0.227492 0.0632952 0.650715
1283 4 0.171106 0.0805058 0.645084
1256 4 0.218014 0.0469673 0.65192
1154 4 0.185455 0.0737616 0.634112
1153 2 0.178593 0.0801469 0.610931
958 2 0.240371 0.0758993 0.633382
1155 4 0.171731 0.0865321 0.587751
1255 2 0.214597 0.0254535 0.664195
1816 2 0.191048 0.0130865 0.614464
966 4 0.355236 0.0272068 0.66141
1005 4 0.361091 0.0157838 0.647005
1003 2 0.347073 0.0231421 0.627653
1004 4 0.333054 0.0305005 0.6083
1130 4 0.332657 0.0509244 0.608625
1129 2 0.336358 0.0756122 0.610036
1163 4 0.458406 0.00565875 0.58943
916 2 0.137585 0.146176 0.604063
1282 2 0.163549 0.0844987 0.668581
918 4 0.139061 0.162155 0.623238
1212 4 0.122202 0.173406 0.628671
960 4 0.25325 0.0885034 0.616048
950 4 0.297715 0.155295 0.658828
2319 4 0.302879 0.142805 0.64467
2317 2 0.320427 0.127564 0.635454
1131 4 0.34006 0.1003 0.611447
2318 4 0.337976 0.112322 0.626239
3462 4 0.0922098 0.179479 0.586019
3044 4 0.109308 0.232283 0.586065
1210 2 0.12521 0.183724 0.651246
1086 4 0.233213 0.231155 0.615806
1084 2 0.213399 0.244409 0.62335
978 4 0.249462 0.235469 0.626001
949 2 0.293545 0.177082 0.64729
976 2 0.268985 0.225002 0.637596
977 4 0.288509 0.214534 0.64919
951 4 0.289375 0.198868 0.635751
856 2 0.374078 0.199414 0.591672
857 4 0.362782 0.215189 0.607443
3401 4 0.48445 0.176163 0.618084
3418 2 0.030195 0.329175 0.664449
3419 4 0.00903406 0.316256 0.667691
895 2 0.157573 0.268704 0.64288
896 4 0.141856 0.278629 0.659603
1085 4 0.193585 0.257663 0.630895
897 4 0.173289 0.258779 0.626157
1281 4 0.0703155 0.339788 0.662484
940 2 0.170128 0.366419 0.618272
941 4 0.162008 0.356114 0.639557
942 4 0.178248 0.376724 0.596987
2129 4 0.1737 0.392655 0.585873
1138 2 0.307533 0.382767 0.643717
1139 4 0.28869 0.392271 0.630307
1140 4 0.326375 0.373264 0.657127
890 4 0.353461 0.369733 0.59015
1237 2 0.419785 0.395927 0.599327
1238 4 0.430063 0.391541 0.621694
804 4 0.42816 0.396237 0.640234
802 2 0.429222 0.387079 0.663476
1981 2 0.135546 0.470385 0.58715
2128 2 0.159597 0.413196 0.587953
1983 4 0.134522 0.44829 0.598811
2130 4 0.145494 0.433738 0.590033
1713 4 0.189052 0.489652 0.598957
2434 2 0.227436 0.488306 0.59733
2435 4 0.205536 0.492717 0.608559
1205 4 0.28087 0.443801 0.58495
1206 4 0.288304 0.407029 0.618014
2436 4 0.249336 0.483894 0.5861
1455 4 0.268386 0.481782 0.576644
1453 2 0.291143 0.491224 0.580905
1204 2 0.284587 0.425415 0.601482
1454 4 0.313899 0.500667 0.585167
881 4 0.369518 0.483062 0.579709
3370 2 0.397642 0.481352 0.612684
880 2 0.349408 0.495442 0.587924
3372 4 0.384619 0.485346 0.591716
3371 4 0.410664 0.477358 0.633652
3323 4 0.40531 0.494752 0.643276
3590 4 0.105908 0.00327332 0.730748
3589 2 0.115355 0.0227402 0.743277
3591 4 0.124802 0.042207 0.755806
1257 4 0.21118 0.00393962 0.676469
965 4 0.333537 0.0532275 0.698191
964 2 0.344386 0.0402172 0.679801
953 4 0.441743 0.0278117 0.72638
888 4 0.438928 0.0145049 0.711482
952 2 0.449324 0.0512653 0.73058
954 4 0.456904 0.0747188 0.734781
834 4 0.0520102 0.124888 0.685867
832 2 0.0610934 0.134505 0.707084
833 4 0.0701765 0.144122 0.728302
1178 4 0.0734681 0.16385 0.734937
1284 4 0.155992 0.0884916 0.692079
948 4 0.139609 0.0955216 0.700795
851 4 0.123429 0.15834 0.724381
947 4 0.121572 0.139457 0.716451
946 2 0.13059 0.117489 0.708623
850 2 0.131849 0.158722 0.747921
1026 4 0.465197 0.0823627 0.71813
1024 2 0.479348 0.102865 0.715987
1177 2 0.0557294 0.17242 0.750334
1211 4 0.128218 0.194042 0.673822
1258 2 0.121976 0.209382 0.714742
1259 4 0.126406 0.196826 0.693578
1260 4 0.117547 0.221938 0.735905
1299 4 0.120055 0.23159 0.752527
1297 2 0.142669 0.241789 0.755646
2255 4 0.228031 0.23393 0.71999
2254 2 0.237682 0.220018 0.738388
3420 4 0.0513559 0.342093 0.661207
992 4 0.137739 0.298536 0.661081
991 2 0.137436 0.311202 0.682637
993 4 0.137134 0.323868 0.704193
1208 4 0.196377 0.306859 0.752745
796 2 0.299025 0.329261 0.722704
798 4 0.320705 0.31685 0.721642
1044 4 0.332438 0.305743 0.73278
1042 2 0.328159 0.289986 0.751717
792 4 0.474242 0.276667 0.674931
790 2 0.463305 0.294172 0.689043
791 4 0.452368 0.311677 0.703155
807 4 0.447882 0.323802 0.718749
998 4 0.487047 0.306943 0.73544
997 2 0.49909 0.327835 0.728831
1279 2 0.0855001 0.35781 0.670838
883 2 0.066187 0.353077 0.734405
884 4 0.0422034 0.346082 0.735419
815 4 0.0280943 0.358672 0.738774
1068 4 0.137614 0.345351 0.705869
885 4 0.0901707 0.360072 0.73339
1280 4 0.100685 0.375832 0.679193
1066 2 0.122597 0.35229 0.724618
1067 4 0.10758 0.359229 0.743367
1098 4 0.163558 0.3488 0.65802
1096 2 0.177459 0.347235 0.678744
1097 4 0.191361 0.345671 0.699469
1278 4 0.209408 0.340174 0.703103
1276 2 0.23357 0.340244 0.709536
1277 4 0.257731 0.340314 0.715969
797 4 0.277346 0.341673 0.723766
1017 4 0.328801 0.382144 0.674602
1015 2 0.337814 0.378188 0.697586
1016 4 0.346827 0.374232 0.720571
1019 4 0.355295 0.36625 0.736054
806 4 0.426236 0.365533 0.7017
803 4 0.430285 0.377921 0.686718
805 2 0.437059 0.344668 0.710225
84 3 0.299058 0.465786 0.716645
83 3 0.328835 0.484745 0.730728
81 1 0.310876 0.471 0.735921
82 3 0.318856 0.451543 0.745243
2009 4 0.328915 0.498147 0.745231
2990 4 0.127087 0.0619618 0.757738
2989 2 0.143532 0.0646489 0.77638
2991 4 0.159977 0.067336 0.795022
908 4 0.157848 0.0520022 0.80818
907 2 0.176225 0.0407725 0.820883
909 4 0.194602 0.0295428 0.833586
818 4 0.45457 0.00726344 0.808
845 4 0.466679 0.0218643 0.802707
844 2 0.463949 0.0441261 0.813759
846 4 0.461218 0.0663879 0.82481
863 4 0.0680344 0.155461 0.781125
862 2 0.0859272 0.153162 0.798438
864 4 0.10382 0.150864 0.815751
870 4 0.120804 0.147608 0.823603
868 2 0.144 0.155715 0.81898
852 4 0.140269 0.159103 0.771461
869 4 0.167197 0.163823 0.814357
52 3 0.274023 0.157785 0.835566
1091 4 0.282043 0.176286 0.83169
534 4 0.465604 0.0853728 0.82933
923 4 0.030508 0.198733 0.764543
922 2 0.00902871 0.211021 0.760961
1179 4 0.0379907 0.180989 0.765732
33 3 0.168969 0.182321 0.816366
1022 4 0.238929 0.189438 0.762821
2256 4 0.247333 0.206106 0.756787
34 3 0.206551 0.18262 0.822011
1023 4 0.214577 0.189398 0.806498
32 3 0.187673 0.214878 0.818048
1021 2 0.226753 0.189418 0.78466
838 2 0.185596 0.238282 0.791938
839 4 0.205528 0.234048 0.806428
31 1 0.186571 0.193521 0.826522
801 4 0.219101 0.220199 0.815354
840 4 0.165664 0.242517 0.777449
799 2 0.23753 0.219689 0.832244
3329 4 0.29936 0.21291 0.785322
1092 4 0.309651 0.203626 0.800209
1090 2 0.295847 0.189956 0.815949
3328 2 0.304973 0.236045 0.777679
152 3 0.995744 0.241394 0.762071
1064 4 0.189525 0.31839 0.767812
1298 4 0.165284 0.251988 0.758764
1209 4 0.225201 0.274895 0.778203
1207 2 0.210789 0.290877 0.765474
3330 4 0.310586 0.259181 0.770036
1043 4 0.323881 0.27423 0.770654
1051 2 0.403556 0.263168 0.834787
1052 4 0.380625 0.259448 0.844035
1053 4 0.426486 0.266887 0.825539
865 2 0.460863 0.270382 0.818978
866 4 0.480926 0.285194 0.820785
867 4 0.4408 0.25557 0.81717
814 2 0.017048 0.358992 0.761203
4209 4 0.00246157 0.347939 0.801198
816 4 0.00600172 0.359312 0.783632
1063 2 0.187129 0.34301 0.764164
1065 4 0.184734 0.36763 0.760517
1241 4 0.203047 0.378024 0.765557
1240 2 0.208493 0.39785 0.779786