ITEM: TIMESTEP
2250000
ITEM: NUMBER OF ATOMS
4590
ITEM: BOX BOUNDS pp pp pp
-9.9985700000000008e+00 9.9985700000000008e+00
-9.9985700000000008e+00 9.9985700000000008e+00
-9.9985700000000008e+00 9.9985700000000008e+00
ITEM: ATOMS id type xs ys zs
566 4 0.219778 0.0288826 0.0477555
565 2 0.227109 0.0497243 0.059463
485 4 0.229522 0.0198522 0.0337262
567 4 0.234439 0.0705661 0.0711704
356 4 0.254507 0.073326 0.074829
746 4 0.447769 0.0432547 0.0348523
745 2 0.465052 0.0421415 0.0528871
747 4 0.482334 0.0410283 0.0709218
2469 4 0.491896 0.0115438 0.0876296
702 4 0.0678801 0.106814 0.996061
2624 4 0.032441 0.103717 0.0399084
2623 2 0.0113655 0.0923984 0.0326363
656 4 0.0463854 0.112441 0.0536803
655 2 0.0497235 0.134688 0.0645924
700 2 0.0833296 0.119369 0.0111891
701 4 0.0987791 0.131925 0.0263171
450 4 0.11282 0.123522 0.0384672
448 2 0.130091 0.141166 0.0424154
915 4 0.160701 0.164479 0.0599344
449 4 0.147361 0.15881 0.0463637
571 2 0.23617 0.142122 0.0624044
572 4 0.220002 0.159797 0.0552381
913 2 0.184032 0.155533 0.0608281
914 4 0.207364 0.146588 0.0617219
360 4 0.247782 0.162652 0.00473356
573 4 0.252339 0.124447 0.0695706
357 4 0.27004 0.120746 0.0781046
355 2 0.262274 0.0970362 0.0764668
557 4 0.405079 0.104745 0.00196763
556 2 0.407859 0.105107 0.0268136
558 4 0.410639 0.105469 0.0516595
254 4 0.392531 0.0981864 0.0568026
253 2 0.39175 0.102572 0.0814061
491 4 0.402188 0.0846797 0.998944
2638 2 0.482609 0.119185 0.0381366
2639 4 0.478887 0.107859 0.0161584
2640 4 0.486331 0.130511 0.0601148
2894 4 0.500232 0.146324 0.0578343
580 2 0.235924 0.21746 0.078809
581 4 0.232888 0.236025 0.0623369
2806 2 0.0499279 0.319069 0.0743592
2808 4 0.0506973 0.331034 0.0524177
455 4 0.127881 0.32193 0.0140471
287 4 0.120722 0.325436 0.0334079
968 4 0.189986 0.307798 0.0765017
967 2 0.185452 0.332383 0.0760343
969 4 0.180917 0.356967 0.075567
296 4 0.240601 0.240059 0.0443105
295 2 0.252874 0.248102 0.0240654
297 4 0.265148 0.256144 0.00382037
2839 2 0.457159 0.303878 0.0672249
2840 4 0.441491 0.28872 0.0794691
2841 4 0.472826 0.319037 0.0549808
329 4 0.0536778 0.350862 0.0464297
328 2 0.0499294 0.357033 0.0224913
330 4 0.046181 0.363204 0.998553
288 4 0.0958254 0.367246 0.0449308
286 2 0.108273 0.346341 0.0391693
252 4 0.161982 0.354137 0.0832406
2094 4 0.145899 0.412066 0.0665902
482 4 0.240707 0.366158 0.00998428
902 4 0.256479 0.376647 0.00430074
901 2 0.270461 0.376123 0.025023
903 4 0.284443 0.375598 0.0457452
1069 2 0.391188 0.365363 0.0169013
1071 4 0.384327 0.361176 0.993225
1070 4 0.398049 0.369549 0.0405778
14 3 0.361136 0.393944 0.0326146
2652 4 0.406036 0.367164 0.0593688
741 4 0.355062 0.407985 0.07017
15 3 0.348479 0.420812 0.0557576
672 4 0.472673 0.338452 0.0472724
670 2 0.478758 0.358155 0.0331324
323 4 0.490766 0.38878 0.00257026
671 4 0.484843 0.377858 0.0189924
322 2 0.490513 0.412235 0.0112286
2983 2 0.0596561 0.48071 0.0256402
2984 4 0.053233 0.471324 0.00337311
2985 4 0.0660792 0.490097 0.0479072
1708 2 0.0731678 0.458123 0.0758777
1710 4 0.0762449 0.476346 0.0590363
2093 4 0.138214 0.458189 0.0488596
2092 2 0.142056 0.435127 0.0577249
523 2 0.241264 0.464779 0.0783479
494 4 0.240776 0.467382 0.0393678
525 4 0.239822 0.477179 0.0566836
493 2 0.249122 0.477782 0.0182169
11 1 0.360478 0.416752 0.0368319
13 3 0.350902 0.427859 0.0188508
596 4 0.377841 0.441419 0.0499957
12 3 0.38198 0.424406 0.0397052
595 2 0.396099 0.454258 0.0612646
660 4 0.474503 0.485598 0.0727764
597 4 0.414357 0.467096 0.0725336
659 4 0.432929 0.457838 0.0714788
658 2 0.453716 0.471718 0.0721276
324 4 0.490259 0.435691 0.019887
957 4 0.473787 0.485862 0.0165271
955 2 0.45476 0.475466 0.00407365
3704 4 0.493259 0.477042 0.0703677
692 4 0.271455 0.0132018 0.164633
723 4 0.250707 0.0638296 0.174993
255 4 0.390969 0.106958 0.10601
25 3 0.491508 0.0311446 0.0866831
23 3 0.466213 0.0447915 0.111005
1448 4 0.460937 0.0373523 0.129391
1447 2 0.452892 0.0198643 0.145348
21 1 0.488807 0.0423701 0.106313
24 3 0.498896 0.0632218 0.104962
1449 4 0.444848 0.00237626 0.161305
1784 4 0.445204 0.985227 0.150756
657 4 0.0530616 0.156936 0.0755045
738 4 0.0433181 0.165248 0.0910778
2760 4 0.0425149 0.110218 0.16038
578 4 0.119961 0.15924 0.155105
577 2 0.138223 0.142163 0.155297
507 4 0.103834 0.162905 0.16737
579 4 0.156485 0.125085 0.155489
730 2 0.284126 0.155091 0.155141
732 4 0.267521 0.148079 0.137813
279 4 0.258223 0.146518 0.120446
731 4 0.300732 0.162103 0.17247
758 4 0.396783 0.106704 0.125658
757 2 0.418803 0.104931 0.13737
759 4 0.440823 0.103158 0.149082
737 4 0.0320972 0.204 0.120626
736 2 0.0377077 0.184624 0.105852
703 2 0.00794382 0.178533 0.157396
2514 4 0.00645389 0.255643 0.133624
462 4 0.133609 0.212226 0.0967146
460 2 0.158449 0.215052 0.0962966
505 2 0.0972386 0.182822 0.153768
506 4 0.0906436 0.202739 0.140167
756 4 0.0997717 0.220242 0.141413
754 2 0.103362 0.24487 0.13902
461 4 0.183289 0.217879 0.0958787
582 4 0.23896 0.198896 0.0952812
623 4 0.185881 0.233815 0.110038
283 2 0.242579 0.203211 0.156856
284 4 0.239537 0.218368 0.137204
624 4 0.221717 0.226144 0.144062
622 2 0.203799 0.22998 0.12705
278 4 0.256039 0.189859 0.0955961
277 2 0.257131 0.168189 0.108021
309 4 0.344265 0.254645 0.156689
378 4 0.446119 0.24052 0.15382
2807 4 0.0491585 0.307104 0.0963006
477 4 0.0642281 0.312464 0.107317
475 2 0.0766652 0.294427 0.119367
476 4 0.0891022 0.276391 0.131416
755 4 0.106952 0.269499 0.136628
416 4 0.108969 0.318249 0.176103
415 2 0.13006 0.329683 0.169059
519 4 0.350345 0.269393 0.141727
518 4 0.396112 0.273222 0.121945
528 4 0.415076 0.277477 0.125436
517 2 0.373228 0.271308 0.131836
526 2 0.431886 0.274642 0.107144
527 4 0.448695 0.271807 0.0888522
250 2 0.154326 0.377939 0.0834245
251 4 0.14667 0.401741 0.0836085
417 4 0.151151 0.341117 0.162016
363 4 0.147053 0.358559 0.17103
612 4 0.297976 0.343579 0.153986
609 4 0.305506 0.359079 0.144692
607 2 0.312804 0.376929 0.128777
608 4 0.320102 0.394779 0.112862
740 4 0.32081 0.413069 0.106249
610 2 0.294315 0.344877 0.178686
2650 2 0.404897 0.358597 0.0828314
739 2 0.337936 0.410527 0.0882094
2536 2 0.405225 0.369865 0.145772
2651 4 0.403759 0.35003 0.106294
2538 4 0.404857 0.358588 0.123458
1709 4 0.0700906 0.4399 0.0927192
313 2 0.0377012 0.42291 0.100443
315 4 0.0617761 0.426936 0.105863
314 4 0.0136263 0.418885 0.0950229
1787 4 0.0533369 0.454436 0.148109
2619 4 0.0171242 0.48619 0.173488
1786 2 0.0778456 0.459344 0.148749
290 4 0.119836 0.46242 0.157486
289 2 0.142751 0.458782 0.148166
1788 4 0.102354 0.464252 0.149389
291 4 0.165666 0.455144 0.138847
766 2 0.23812 0.49585 0.135712
627 4 0.179591 0.456608 0.123601
626 4 0.227379 0.441939 0.122225
768 4 0.230484 0.472075 0.134437
625 2 0.203485 0.449273 0.122913
524 4 0.242706 0.45238 0.100012
246 4 0.257431 0.443108 0.111137
244 2 0.278388 0.447238 0.124135
387 4 0.320384 0.451056 0.134201
245 4 0.299345 0.451368 0.137132
721 2 0.232757 0.0811655 0.17343
691 2 0.26172 0.0356352 0.159423
693 4 0.251985 0.0580685 0.154213
2758 2 0.0420857 0.134662 0.165624
2759 4 0.0416564 0.159105 0.170869
705 4 0.0221697 0.163945 0.171887
236 4 0.155581 0.106069 0.161711
235 2 0.178778 0.10866 0.170675
722 4 0.214807 0.0985015 0.171867
237 4 0.201975 0.111251 0.17964
546 4 0.229594 0.167348 0.23135
392 4 0.212949 0.155663 0.232895
403 2 0.286235 0.0874747 0.248813
404 4 0.307527 0.100549 0.249758
30 3 0.315402 0.118727 0.246727
605 4 0.331556 0.157462 0.231082
28 3 0.333317 0.151669 0.250119
631 2 0.389585 0.16852 0.248149
633 4 0.385277 0.179907 0.22631
530 4 0.077709 0.173757 0.233911
512 4 0.0614489 0.170427 0.223082
511 2 0.0526552 0.192514 0.215336
513 4 0.0438614 0.214602 0.207591
2693 4 0.0556651 0.226428 0.219597
2799 4 0.0118769 0.231616 0.206896
544 2 0.228885 0.178167 0.20882
545 4 0.228176 0.188987 0.186289
285 4 0.245621 0.188053 0.176507
606 4 0.318409 0.163083 0.183163
604 2 0.324983 0.160273 0.207122
307 2 0.327992 0.2496 0.17499
498 4 0.318189 0.234404 0.210461
496 2 0.317491 0.245286 0.232961
308 4 0.311719 0.244555 0.193291
376 2 0.439985 0.23925 0.178026
629 4 0.439834 0.223688 0.214157
377 4 0.43385 0.23798 0.202233
628 2 0.446376 0.219769 0.237969
630 4 0.452918 0.215851 0.261782
2694 4 0.0536783 0.265255 0.188145
396 4 0.0628699 0.282386 0.183639
2692 2 0.0546717 0.245841 0.203871
300 4 0.0440313 0.298776 0.231605
394 2 0.0766872 0.301416 0.175147
395 4 0.0905044 0.320447 0.166654
413 4 0.0463542 0.392709 0.181115
412 2 0.0426159 0.408785 0.199896
361 2 0.160809 0.373379 0.185738
362 4 0.174565 0.388198 0.200446
339 4 0.193781 0.386821 0.197254
337 2 0.214116 0.376761 0.207764
338 4 0.234451 0.366701 0.218274
345 4 0.278703 0.35641 0.213809
611 4 0.290654 0.346175 0.203386
343 2 0.295136 0.352385 0.232219
344 4 0.311569 0.34836 0.250629
2537 4 0.405593 0.381141 0.168085
714 4 0.400732 0.39657 0.180257
414 4 0.0388777 0.424862 0.218678
681 4 0.043784 0.444378 0.221138
679 2 0.0231241 0.45679 0.227792
680 4 0.00246424 0.469203 0.234445
501 4 0.997789 0.48925 0.234839
1386 4 0.116029 0.436189 0.221812
1384 2 0.12284 0.459569 0.216139
1385 4 0.12965 0.482948 0.210466
1641 4 0.125614 0.431797 0.239568
503 4 0.199687 0.479911 0.248839
385 2 0.324777 0.451498 0.158812
1573 2 0.334286 0.428631 0.2131
386 4 0.329169 0.451939 0.183422
1575 4 0.324055 0.449339 0.203526
1574 4 0.344518 0.407922 0.222674
712 2 0.394073 0.418206 0.190873
713 4 0.387414 0.439842 0.20149
2862 4 0.397352 0.447153 0.217856
2860 2 0.410541 0.466368 0.226912
231 4 0.454508 0.460781 0.197229
2861 4 0.42373 0.485583 0.235967
229 2 0.478325 0.457253 0.190484
1473 4 0.441007 0.477113 0.238669
1471 2 0.46289 0.465803 0.24296
1716 4 0.502898 0.453382 0.254427
429 4 0.162997 0.0215696 0.311971
1700 4 0.244648 0.02556 0.301164
405 4 0.264944 0.0744002 0.247868
248 4 0.273461 0.0609369 0.260304
249 4 0.254224 0.0210836 0.283593
247 2 0.263842 0.0410103 0.271949
1699 2 0.24933 0.0206443 0.325229
1748 4 0.403259 0.0505396 0.291995
1747 2 0.420602 0.0358064 0.302356
743 4 0.411288 0.0676039 0.285601
1749 4 0.437945 0.0210731 0.312716
742 2 0.424525 0.0812228 0.269337
1496 4 0.432581 0.0241483 0.330974
2716 2 0.010067 0.121561 0.313842
2718 4 0.0191815 0.112936 0.335468
391 2 0.202065 0.160746 0.254824
393 4 0.191182 0.165828 0.276754
2849 4 0.17243 0.156487 0.284278
27 3 0.299388 0.146719 0.265512
26 1 0.319333 0.136381 0.260566
516 4 0.334939 0.129983 0.299487
29 3 0.329035 0.128967 0.280297
514 2 0.344661 0.11346 0.315539
762 4 0.412795 0.11765 0.321247
744 4 0.437762 0.0948417 0.253074
698 4 0.452829 0.106736 0.260559
697 2 0.470479 0.117073 0.27494
760 2 0.424148 0.132061 0.304258
761 4 0.435501 0.146471 0.287268
522 4 0.447807 0.151897 0.272384
699 4 0.488129 0.12741 0.28932
2553 4 0.482443 0.121866 0.308383
459 4 0.0615814 0.220559 0.309802
457 2 0.0804987 0.20529 0.315647
529 2 0.0944885 0.175583 0.252358
531 4 0.111268 0.177408 0.270805
2850 4 0.128252 0.169029 0.264486
2848 2 0.150341 0.162758 0.274382
458 4 0.099416 0.19002 0.321491
349 2 0.33467 0.195782 0.332418
707 4 0.306903 0.255616 0.312074
706 2 0.312271 0.252035 0.33623
632 4 0.393893 0.157133 0.269988
332 4 0.389765 0.171928 0.283871
331 2 0.382544 0.179252 0.306661
333 4 0.375322 0.186576 0.329451
350 4 0.358436 0.194448 0.324762
312 4 0.49904 0.204583 0.320777
521 4 0.457941 0.197571 0.254723
419 4 0.498092 0.188468 0.306461
520 2 0.452874 0.174734 0.263553
298 2 0.0551919 0.310147 0.250875
299 4 0.0663526 0.321518 0.270145
735 4 0.0671691 0.304853 0.280202
733 2 0.0811089 0.308408 0.300652
617 4 0.129604 0.303986 0.250965
616 2 0.14783 0.287214 0.254385
365 4 0.128422 0.32391 0.247
734 4 0.0950486 0.311963 0.321103
618 4 0.166056 0.270441 0.257805
749 4 0.17686 0.272089 0.274196
748 2 0.191954 0.258338 0.288627
750 4 0.207048 0.244587 0.303058
389 4 0.215471 0.249919 0.320056
388 2 0.233314 0.265377 0.328294
497 4 0.316793 0.256168 0.255462
763 2 0.32876 0.291111 0.279951
765 4 0.329727 0.31067 0.295497
508 2 0.311164 0.336924 0.318836
510 4 0.32523 0.317053 0.313138
390 4 0.251156 0.280835 0.336532
764 4 0.327792 0.271552 0.264405
2802 4 0.996639 0.339397 0.337947
364 2 0.12749 0.346887 0.256817
366 4 0.126557 0.369864 0.266634
1640 4 0.105319 0.430396 0.28525
603 4 0.145988 0.368877 0.273013
601 2 0.160018 0.389542 0.274148
728 4 0.191608 0.419205 0.275641
602 4 0.174047 0.410208 0.275282
434 4 0.250005 0.392382 0.315716
509 4 0.297098 0.356795 0.324534
645 4 0.315299 0.357975 0.26672
433 2 0.273394 0.383616 0.314581
435 4 0.296783 0.37485 0.313445
643 2 0.329901 0.377758 0.271261
644 4 0.344503 0.397541 0.275801
274 2 0.371003 0.403595 0.29558
276 4 0.395996 0.404155 0.296029
614 4 0.413122 0.404158 0.30545
275 4 0.34601 0.403035 0.295131
613 2 0.423467 0.382962 0.313749
106 1 0.501052 0.382296 0.280868
108 3 0.481073 0.393538 0.277285
615 4 0.433812 0.361766 0.322048
109 3 0.502308 0.375211 0.302928
107 3 0.501801 0.363889 0.267092
3670 2 0.118317 0.488016 0.321514
1639 2 0.115467 0.431096 0.262409
3672 4 0.132873 0.469242 0.313715
677 4 0.148808 0.456716 0.314253
729 4 0.206239 0.463543 0.25773
727 2 0.198923 0.441374 0.266686
502 2 0.205989 0.503135 0.255631
375 4 0.21009 0.467161 0.315445
678 4 0.194728 0.472164 0.32664
676 2 0.171768 0.46444 0.320446
373 2 0.229521 0.466006 0.33114
1801 2 0.307125 0.491865 0.318284
1802 4 0.315398 0.476562 0.336243
1472 4 0.484773 0.454494 0.24725
1220 4 0.088482 0.0802278 0.39968
466 2 0.289643 0.997913 0.358765
468 4 0.270784 0.0142943 0.359858
1701 4 0.254013 0.0157287 0.349293
2642 4 0.316116 0.0761133 0.407332
1518 4 0.352258 0.022368 0.403786
1516 2 0.376698 0.0267115 0.406787
1517 4 0.401138 0.031055 0.409789
1497 4 0.441876 0.00689933 0.376982
1495 2 0.437228 0.0155238 0.353978
686 4 0.0603582 0.127101 0.384374
687 4 0.037971 0.114059 0.341602
685 2 0.0491646 0.12058 0.362988
342 4 0.0464045 0.117886 0.395855
824 4 0.0549564 0.164951 0.404459
469 2 0.10766 0.165558 0.346326
1272 4 0.11429 0.133232 0.367735
470 4 0.101062 0.144949 0.358853
1270 2 0.107969 0.113805 0.38215
1271 4 0.101647 0.0943774 0.396565
650 4 0.289427 0.132074 0.383632
649 2 0.282156 0.147535 0.401888
479 4 0.328523 0.0756951 0.389922
478 2 0.341822 0.0855428 0.371178
515 4 0.354382 0.0969376 0.331591
480 4 0.35512 0.0953904 0.352434
2656 2 0.383444 0.145247 0.404078
2909 4 0.382017 0.150615 0.367056
2908 2 0.388095 0.137418 0.346707
2657 4 0.378022 0.15956 0.384306
2910 4 0.394174 0.124221 0.326358
823 2 0.0777064 0.175137 0.402496
1198 2 0.023023 0.191778 0.401183
1200 4 0.0369066 0.171309 0.397512
2636 4 0.012748 0.217851 0.385177
1199 4 0.00913942 0.212246 0.404854
471 4 0.114257 0.186166 0.333798
825 4 0.100456 0.185323 0.400533
369 4 0.101674 0.192915 0.418778
367 2 0.109794 0.216546 0.417884
351 4 0.310905 0.197116 0.340073
715 2 0.309895 0.211454 0.379001
717 4 0.31824 0.208087 0.355672
716 4 0.301551 0.21482 0.402329
488 4 0.31983 0.211842 0.409121
310 2 0.500369 0.201255 0.345523
442 2 0.0922797 0.309359 0.408316
2654 4 0.113266 0.313723 0.326896
443 4 0.0984419 0.328686 0.393699
2653 2 0.108507 0.317385 0.351168
2655 4 0.103748 0.321047 0.37544
708 4 0.317639 0.248453 0.360387
400 2 0.26194 0.253623 0.414089
370 2 0.263357 0.292169 0.368979
371 4 0.255089 0.297389 0.345967
372 4 0.271626 0.286948 0.391991
401 4 0.265272 0.277882 0.40903
2800 2 0.0198156 0.348387 0.340632
2801 4 0.0429922 0.357377 0.343317
634 2 0.221397 0.349688 0.432394
635 4 0.242052 0.353868 0.418938
873 4 0.319991 0.347414 0.411876
668 4 0.25252 0.364418 0.405499
667 2 0.276847 0.358858 0.407061
669 4 0.301174 0.353297 0.408623
2924 4 0.428981 0.352301 0.338555
2925 4 0.451821 0.35567 0.382914
2923 2 0.440401 0.353985 0.360735
116 1 0.465652 0.375109 0.408582
118 3 0.47759 0.382265 0.390016
117 3 0.452793 0.35699 0.402623
2107 2 0.256587 0.460688 0.388213
374 4 0.248951 0.464852 0.346834
2109 4 0.258936 0.469478 0.364923
5 3 0.312352 0.473613 0.368814
2 3 0.318099 0.436761 0.367477
1 1 0.32617 0.457296 0.360973
4 3 0.326955 0.458049 0.337795
2108 4 0.254239 0.451897 0.411502
447 4 0.378965 0.447519 0.405685
3 3 0.347481 0.460092 0.369715
445 2 0.39294 0.467199 0.399158
446 4 0.406914 0.486879 0.392632
543 4 0.423397 0.491283 0.402927
3590 4 0.0723174 0.00819165 0.485001
1772 4 0.069764 0.00965183 0.466081
939 4 0.0556831 0.0579086 0.444281
937 2 0.0559958 0.0685032 0.466926
938 4 0.0563084 0.0790978 0.489572
1034 4 0.0383794 0.0763849 0.497491
1221 4 0.0689431 0.0489721 0.433474
1219 2 0.0787126 0.0645999 0.416577
600 4 0.232951 0.0204978 0.414564
599 4 0.234287 0.0410043 0.460154
598 2 0.233619 0.0307511 0.437359
2643 4 0.338239 0.0659787 0.451019
682 2 0.327654 0.0572034 0.492488
2641 2 0.327177 0.071046 0.429176
684 4 0.337276 0.0553181 0.469487
4239 4 0.477835 0.0505559 0.432792
2880 4 0.41452 0.040508 0.421608
2879 4 0.464515 0.0394093 0.421882
2878 2 0.439518 0.0399586 0.421745
983 4 0.993458 0.147111 0.482087
340 2 0.0459838 0.122098 0.420498
341 4 0.0455632 0.126309 0.44514
651 4 0.274885 0.162995 0.420144
2658 4 0.388866 0.130933 0.423849
2501 4 0.396668 0.113835 0.431382
2502 4 0.446245 0.111208 0.425385
2500 2 0.421457 0.112522 0.428384
982 2 0.998399 0.170383 0.474394
984 4 0.00334068 0.193655 0.466701
368 4 0.117913 0.240178 0.41699
402 4 0.258608 0.229365 0.419148
473 4 0.261092 0.167513 0.432995
474 4 0.272201 0.214929 0.421639
472 2 0.266646 0.191221 0.427317
321 4 0.288225 0.21035 0.500438
642 4 0.289759 0.203174 0.481664
640 2 0.296861 0.224485 0.470683
641 4 0.303962 0.245796 0.459701
487 2 0.336875 0.216861 0.426712
489 4 0.35392 0.22188 0.444304
265 2 0.39556 0.214711 0.430747
267 4 0.371591 0.216091 0.437731
452 4 0.468846 0.238946 0.43414
451 2 0.452232 0.220987 0.42898
453 4 0.435618 0.203027 0.42382
266 4 0.419528 0.21333 0.423763
444 4 0.0861176 0.290031 0.422933
259 2 0.0722337 0.283194 0.460464
695 4 0.0660809 0.294654 0.500643
261 4 0.0612974 0.287431 0.482546
260 4 0.0831701 0.278958 0.438381
871 2 0.331338 0.325994 0.418006
812 4 0.313125 0.261934 0.466346
811 2 0.324209 0.28078 0.454216
813 4 0.335293 0.299627 0.442086
872 4 0.342684 0.304573 0.424136
2506 2 0.493585 0.259245 0.487561
2508 4 0.472041 0.26499 0.498875
3352 2 0.0242879 0.383304 0.486555
3354 4 0.0248364 0.395412 0.464685
3353 4 0.0237394 0.371197 0.508425
636 4 0.200742 0.345507 0.445851
774 4 0.172184 0.376338 0.478746
773 4 0.195187 0.410667 0.450584
772 2 0.183685 0.393503 0.464665
1395 4 0.189486 0.366914 0.480751
711 4 0.211321 0.423399 0.444528
709 2 0.235501 0.420628 0.438798
327 4 0.274983 0.412635 0.461729
326 4 0.317589 0.435235 0.448512
325 2 0.296286 0.423935 0.455121
710 4 0.259681 0.417857 0.433067
336 4 0.410635 0.408737 0.482467
584 4 0.423492 0.402725 0.469491
119 3 0.4517 0.392079 0.41605
120 3 0.480009 0.368989 0.425167
585 4 0.447977 0.380252 0.432126
583 2 0.435735 0.391489 0.450808
384 4 0.075267 0.447543 0.467347
382 2 0.077789 0.439849 0.44369
383 4 0.080311 0.432156 0.420034
935 4 0.0791889 0.439603 0.484147
570 4 0.119721 0.480671 0.428616
592 2 0.241328 0.476847 0.441664
594 4 0.243284 0.455768 0.428359
753 4 0.322292 0.44303 0.429708
1173 4 0.270816 0.425438 0.477352
929 4 0.316804 0.484089 0.479256
751 2 0.346891 0.440801 0.425824
752 4 0.371491 0.438571 0.421939
334 2 0.39655 0.425793 0.494124
2712 4 0.482535 0.428171 0.454705
1033 2 0.0233228 0.0782396 0.517367
3589 2 0.0764337 0.00987378 0.509606
3591 4 0.08055 0.0115559 0.534211
1151 4 0.240338 0.00227902 0.536205
1182 4 0.251428 0.0183922 0.533581
1180 2 0.247553 0.0429689 0.531101
1181 4 0.243679 0.0675456 0.52862
575 4 0.286315 0.00750189 0.539825
574 2 0.30183 0.0266084 0.535421
576 4 0.317346 0.0457148 0.531017
683 4 0.318032 0.0590888 0.515489
1061 4 0.50389 0.0478334 0.531282
842 4 0.496316 0.062528 0.543938
1035 4 0.00826617 0.0800943 0.537242
725 4 0.237242 0.0746262 0.546592
724 2 0.240979 0.0993487 0.546681
726 4 0.244716 0.124071 0.546771
857 4 0.23336 0.127302 0.530025
856 2 0.239899 0.151022 0.525576
841 2 0.482615 0.0800285 0.555392
843 4 0.468913 0.0975289 0.566845
878 4 0.0974381 0.232616 0.567412
9 3 0.102871 0.245267 0.552229
346 2 0.156381 0.218875 0.566497
348 4 0.148701 0.240937 0.557584
858 4 0.246437 0.174742 0.521128
320 4 0.264869 0.168986 0.516065
319 2 0.276547 0.189668 0.508252
270 4 0.480002 0.2588 0.563494
3309 4 0.462675 0.255495 0.555178
2813 4 0.0450388 0.258873 0.543426
2812 2 0.0288873 0.277392 0.54805
2814 4 0.0127357 0.29591 0.552674
3333 4 0.0083864 0.313522 0.541618
696 4 0.095817 0.282238 0.538884
8 3 0.139233 0.248901 0.541787
10 3 0.114649 0.276597 0.534985
6 1 0.120491 0.260134 0.549596
7 3 0.125416 0.269519 0.570012
694 2 0.080949 0.288446 0.519763
1191 4 0.196461 0.29945 0.573045
897 4 0.176704 0.300982 0.576387
1189 2 0.199531 0.312982 0.552245
3307 2 0.460458 0.265342 0.532302
268 2 0.474481 0.263134 0.587492
3308 4 0.458241 0.275189 0.509426
1190 4 0.202601 0.326514 0.531445
1394 4 0.190992 0.338396 0.521802
1393 2 0.190239 0.352655 0.501276
1027 2 0.241991 0.402893 0.552721
1029 4 0.245763 0.383665 0.568253
1028 4 0.238219 0.422121 0.537189
1239 4 0.266459 0.380475 0.568281
1237 2 0.287897 0.378438 0.580986
1238 4 0.309336 0.376402 0.59369
804 4 0.325791 0.368568 0.58428
802 2 0.338283 0.347035 0.586624
934 2 0.0847162 0.436495 0.508333
936 4 0.0902434 0.433386 0.532519
1040 4 0.0882649 0.4357 0.553103
1039 2 0.106428 0.423773 0.565472
1135 2 0.156773 0.441486 0.57414
1136 4 0.140609 0.422497 0.572313
538 2 0.1577 0.493735 0.552935
540 4 0.171643 0.475848 0.563463
1454 4 0.246458 0.497429 0.536309
1137 4 0.172936 0.460475 0.575968
1172 4 0.239562 0.426106 0.516383
880 2 0.274803 0.478828 0.561009
882 4 0.260642 0.482801 0.540788
1171 2 0.255189 0.425772 0.496867
239 4 0.329927 0.443516 0.525052
238 2 0.354466 0.448207 0.524054
240 4 0.379005 0.452899 0.523055
335 4 0.382465 0.442849 0.50578
1001 4 0.470102 0.485381 0.56737
3082 2 0.0461309 0.00604371 0.631011
3083 4 0.0455053 0.0108837 0.655533
3084 4 0.0467565 0.0012037 0.606488
1130 4 0.12381 0.0723125 0.645772
1284 4 0.2371 0.0536201 0.65572
2319 4 0.222679 0.0493711 0.667221
2317 2 0.201011 0.0379693 0.66215
2318 4 0.179344 0.0265676 0.65708
1282 2 0.245416 0.0771979 0.65539
1032 4 0.337507 0.0662632 0.604018
1031 4 0.341341 0.0170382 0.596087
2241 4 0.34118 0.00114205 0.60719
1030 2 0.339424 0.0416507 0.600052
3179 4 0.0311615 0.129883 0.666362
3462 4 0.0422456 0.143895 0.677005
3178 2 0.0090209 0.133484 0.655316
1155 4 0.250281 0.120308 0.656551
1153 2 0.240696 0.136086 0.673415
1283 4 0.253732 0.100776 0.65506
1142 4 0.348503 0.0805521 0.610575
1141 2 0.356093 0.10427 0.612823
1143 4 0.363683 0.127987 0.615071
887 4 0.37323 0.142582 0.624983
886 2 0.391506 0.138665 0.641591
888 4 0.409783 0.134749 0.658199
953 4 0.409214 0.116466 0.668524
1009 2 0.477943 0.1206 0.666738
877 2 0.0863934 0.232228 0.58984
3043 2 0.0603363 0.215275 0.63673
879 4 0.0753487 0.23184 0.612269
3045 4 0.0567147 0.22351 0.613401
3044 4 0.0639579 0.207041 0.66006
347 4 0.164062 0.196812 0.575409
410 4 0.272917 0.235884 0.672879
409 2 0.295314 0.240885 0.662953
900 4 0.36601 0.196298 0.656808
898 2 0.374602 0.213585 0.640918
899 4 0.383195 0.230873 0.625028
792 4 0.401652 0.235011 0.630032
1263 4 0.422695 0.194008 0.645488
1261 2 0.427774 0.193399 0.669963
3123 4 0.436828 0.189888 0.633147
3122 4 0.444354 0.217766 0.592319
3121 2 0.440591 0.203827 0.612733
992 4 0.182226 0.277922 0.630674
991 2 0.172743 0.279154 0.653776
896 4 0.16961 0.272713 0.617023
895 2 0.173157 0.286847 0.596705
411 4 0.317712 0.245886 0.653026
790 2 0.399236 0.258948 0.62322
805 2 0.376763 0.301014 0.594498
807 4 0.400039 0.296 0.602129
791 4 0.39682 0.282884 0.616408
806 4 0.353486 0.306029 0.586866
269 4 0.46896 0.267468 0.61149
803 4 0.350774 0.325502 0.588967
3372 4 0.449351 0.349076 0.657598
1006 2 0.488053 0.337587 0.667928
3322 2 0.472334 0.354976 0.588265
3323 4 0.451147 0.355859 0.601513
1007 4 0.46306 0.337012 0.667497
3370 2 0.443351 0.346158 0.633501
3371 4 0.43735 0.343239 0.609404
2128 2 0.0806286 0.450697 0.660168
1981 2 0.0949424 0.485149 0.617444
2129 4 0.0627805 0.433789 0.664721
2130 4 0.0984767 0.467606 0.655615
1983 4 0.105907 0.475 0.637493
1041 4 0.124592 0.411845 0.577842
1953 4 0.269765 0.494374 0.64019
1951 2 0.27266 0.484001 0.617625
1952 4 0.275556 0.473627 0.59506
881 4 0.288963 0.474856 0.581229
891 4 0.285681 0.503147 0.646743
926 4 0.482972 0.472687 0.572966
925 2 0.492906 0.45989 0.592011
2990 4 0.0450213 0.0242235 0.672285
2989 2 0.0578473 0.0352623 0.690692
2991 4 0.0706733 0.0463011 0.709099
864 4 0.0658387 0.0444988 0.728184
862 2 0.080906 0.0422453 0.74801
1129 2 0.13331 0.0656878 0.667932
944 4 0.149776 0.0519614 0.709194
1131 4 0.142809 0.0590631 0.690092
943 2 0.167632 0.0566276 0.726063
945 4 0.185488 0.0612939 0.742932
950 4 0.331045 0.0480052 0.691983
949 2 0.337739 0.0258347 0.682558
1091 4 0.286655 0.0811483 0.727394
1005 4 0.346269 0.984239 0.673909
951 4 0.344433 0.00366409 0.673133
1217 4 0.424515 0.0100555 0.717491
1216 2 0.427309 0.0338737 0.724566
1218 4 0.430104 0.0576919 0.731642
4550 4 0.480225 0.0178123 0.73656
4549 2 0.489556 0.99728 0.747354
1164 4 0.443799 0.00439221 0.712764
948 4 0.152683 0.165614 0.702878
1154 4 0.231111 0.151863 0.690278
1092 4 0.299582 0.125265 0.707714
1090 2 0.293119 0.103207 0.717554
976 2 0.295869 0.148684 0.685547
977 4 0.302869 0.124807 0.688013
954 4 0.386078 0.0766498 0.688022
952 2 0.397646 0.0965577 0.678273
3425 4 0.403728 0.149347 0.728918
1010 4 0.454967 0.11705 0.67594
1024 2 0.429734 0.141522 0.701247
1026 4 0.439187 0.126954 0.683258
1025 4 0.420281 0.15609 0.719236
3461 4 0.0630872 0.188558 0.668544
3460 2 0.0526664 0.166226 0.672774
946 2 0.136071 0.174242 0.719455
947 4 0.11946 0.18287 0.736032
851 4 0.114232 0.201754 0.731562
1210 2 0.235295 0.217257 0.67646
1211 4 0.218265 0.199332 0.680183
1299 4 0.23221 0.169229 0.698586
1260 4 0.167865 0.176921 0.69971
1259 4 0.217046 0.181515 0.691912
1258 2 0.192455 0.179218 0.695811
1212 4 0.252325 0.235181 0.672738
1297 2 0.241464 0.179822 0.719258
1298 4 0.250718 0.190415 0.739931
978 4 0.288868 0.172561 0.683081
1084 2 0.306992 0.195905 0.712546
1086 4 0.303203 0.176882 0.696767
1085 4 0.31078 0.214927 0.728325
1262 4 0.432853 0.192791 0.694437
1194 4 0.451343 0.188963 0.699196
1193 4 0.463517 0.2021 0.745886
1192 2 0.45743 0.195531 0.722541
993 4 0.163259 0.280387 0.676878
1068 4 0.158908 0.299653 0.676942
3329 4 0.369911 0.270299 0.738322
3328 2 0.364029 0.289172 0.753631
3330 4 0.358148 0.308046 0.76894
3420 4 0.998929 0.347359 0.734089
1281 4 0.0160132 0.34781 0.743915
1066 2 0.154629 0.322866 0.685188
1067 4 0.15035 0.34608 0.693435
1098 4 0.153372 0.412019 0.714164
941 4 0.135744 0.421429 0.715896
1096 2 0.171147 0.397522 0.704212
1097 4 0.188922 0.383024 0.694259
1278 4 0.199121 0.375583 0.709977
1276 2 0.221784 0.370842 0.719414
1277 4 0.244448 0.366101 0.728852
797 4 0.251702 0.375585 0.744797
3181 2 0.357981 0.374429 0.715808
3182 4 0.378456 0.383307 0.727083
3183 4 0.337506 0.365551 0.704532
3464 4 0.481648 0.380655 0.699251
3463 2 0.466152 0.391911 0.715325
3465 4 0.450656 0.403167 0.731399
998 4 0.451201 0.414114 0.749259
894 4 0.0472953 0.433553 0.67816
892 2 0.0227641 0.433191 0.673336
940 2 0.129771 0.445093 0.710459
942 4 0.123799 0.468756 0.705021
2213 4 0.26444 0.449314 0.758294
889 2 0.305054 0.498651 0.661896
890 4 0.324427 0.494154 0.67705
1204 2 0.342473 0.493245 0.714745
1206 4 0.352883 0.484753 0.735833
1139 4 0.367393 0.477023 0.746177
1205 4 0.332062 0.501737 0.693657
1295 4 0.0142181 0.0549385 0.810494
1294 2 0.999341 0.0748474 0.81323
863 4 0.0959733 0.0399919 0.767836
1203 4 0.105745 0.0559724 0.771049
1201 2 0.126845 0.0499868 0.783055
1202 4 0.147945 0.0440012 0.795061
831 4 0.146172 0.0486228 0.813756
1107 4 0.0922005 0.0710575 0.773113
829 2 0.15853 0.0685784 0.822373
2255 4 0.198189 0.0454927 0.745753
2254 2 0.204157 0.0267284 0.761163
2256 4 0.210126 0.00796407 0.776573
1970 4 0.197168 0.993016 0.783063
959 4 0.306903 0.0113492 0.798207
1050 4 0.282615 0.0478689 0.79394
1048 2 0.276447 0.069578 0.804703
1256 4 0.32441 0.00740804 0.792695
958 2 0.287452 0.00983981 0.813846
960 4 0.268001 0.00833037 0.829484
2321 4 0.404794 0.0173047 0.827074
819 4 0.407605 0.0352126 0.834822
817 2 0.411358 0.0599265 0.835387
818 4 0.415111 0.0846404 0.835952
1215 4 0.0182243 0.135228 0.814549
1213 2 0.0301076 0.122064 0.796923
1214 4 0.041991 0.108899 0.779298
1106 4 0.0609155 0.110057 0.774105
1105 2 0.076558 0.0905574 0.773609
830 4 0.170887 0.0885339 0.830989
908 4 0.177126 0.128726 0.772369
907 2 0.19925 0.139906 0.775639
909 4 0.221374 0.151087 0.77891
1049 4 0.270278 0.0912871 0.815466
1021 2 0.269422 0.124391 0.799618
1023 4 0.282889 0.106347 0.810491
1022 4 0.255954 0.142435 0.788744
44 3 0.393142 0.151772 0.814847
3424 2 0.409316 0.141433 0.751968
3426 4 0.414904 0.133519 0.775019
41 1 0.413184 0.140083 0.81516
45 3 0.415835 0.128681 0.795625
1146 4 0.448548 0.166588 0.822332
42 3 0.430483 0.155047 0.817607
1179 4 0.0413477 0.181858 0.818882
1177 2 0.0574573 0.190243 0.801696
1178 4 0.0735668 0.198628 0.78451
869 4 0.0429016 0.172703 0.836707
832 2 0.996227 0.185245 0.765082
833 4 0.00812063 0.183413 0.787
850 2 0.100917 0.204976 0.752479
852 4 0.0876024 0.208197 0.773395
839 4 0.23549 0.231662 0.783463
838 2 0.24344 0.211268 0.771378
840 4 0.25139 0.190873 0.759293
3362 4 0.463452 0.22107 0.779715
1144 2 0.460973 0.180807 0.805942
1145 4 0.473398 0.195026 0.789552
2978 4 0.48536 0.194854 0.773103
3361 2 0.469944 0.239969 0.794743
154 3 0.0263673 0.257041 0.755671
778 2 0.0376278 0.256605 0.819105
780 4 0.0498258 0.266102 0.799453
153 3 0.0529367 0.269386 0.77988
151 1 0.0377726 0.275677 0.763483
155 3 0.0486968 0.285871 0.746295
152 3 0.0226212 0.290382 0.772613
1209 4 0.0644132 0.293812 0.754136
1208 4 0.107725 0.317227 0.762887
1064 4 0.125931 0.309624 0.760272
1207 2 0.086069 0.30552 0.758512
1063 2 0.138612 0.325519 0.774823
917 4 0.194455 0.310716 0.824332
916 2 0.216771 0.303385 0.815764
918 4 0.239088 0.296054 0.807197
801 4 0.257562 0.301638 0.803664
1042 2 0.316241 0.325444 0.77919
799 2 0.276358 0.302792 0.820111
1043 4 0.337294 0.312291 0.776196
3363 4 0.476437 0.258867 0.809772