ITEM: TIMESTEP
270000
ITEM: NUMBER OF ATOMS
4590
ITEM: BOX BOUNDS pp pp pp
-9.9985700000000008e+00 9.9985700000000008e+00
-9.9985700000000008e+00 9.9985700000000008e+00
-9.9985700000000008e+00 9.9985700000000008e+00
ITEM: ATOMS id type xs ys zs
1667 4 0.047359 0.0309542 0.0346397
1666 2 0.0711818 0.035628 0.0406236
931 2 0.15144 0.0532984 0.0147293
1668 4 0.0950047 0.0403018 0.0466075
702 4 0.102481 0.0536127 0.059772
933 4 0.155684 0.0727354 0.0298744
492 4 0.242325 0.0765425 0.995869
1133 4 0.172485 0.0788567 0.0348964
485 4 0.307557 0.0187985 0.0294593
2758 2 0.989414 0.115177 0.0701337
2759 4 0.994076 0.125035 0.0476334
421 2 0.0810567 0.154604 0.0116819
1134 4 0.208265 0.107648 0.0151083
1132 2 0.190375 0.0932524 0.0250024
490 2 0.25552 0.0897866 0.0124717
491 4 0.268716 0.103031 0.0290745
556 2 0.30468 0.100369 0.0448303
557 4 0.284005 0.111973 0.0368886
558 4 0.325356 0.0887659 0.0527719
2792 4 0.469769 0.107467 0.0741623
2791 2 0.484866 0.0903187 0.0640032
422 4 0.0777048 0.157424 0.0362988
704 4 0.0868836 0.253598 0.0805161
476 4 0.0701478 0.176915 0.0415494
477 4 0.104822 0.205021 0.0640985
475 2 0.0874849 0.190968 0.052824
555 4 0.097109 0.243079 0.00231238
352 2 0.21253 0.251716 0.0655076
354 4 0.200097 0.255738 0.0441903
356 4 0.255103 0.219487 0.0146672
573 4 0.274001 0.184454 0.0716466
355 2 0.260236 0.206047 0.0351172
357 4 0.265369 0.192607 0.0555672
254 4 0.370776 0.186097 0.0139028
253 2 0.366384 0.207646 0.0258003
255 4 0.361991 0.229194 0.0376977
2895 4 0.494507 0.181965 0.0962461
294 4 0.0776406 0.259279 0.0622735
2807 4 0.00907673 0.287267 0.00218105
2806 2 0.999499 0.310347 0.00304287
293 4 0.0886267 0.258342 0.013497
292 2 0.0831337 0.25881 0.0378852
914 4 0.197808 0.261562 0.024697
913 2 0.189462 0.282188 0.013292
251 4 0.224362 0.351849 0.0421306
956 4 0.353697 0.325082 0.064892
671 4 0.445845 0.333904 0.0711116
280 2 0.473363 0.30841 0.0423049
281 4 0.476015 0.32081 0.0638547
282 4 0.470712 0.29601 0.0207551
323 4 0.439096 0.313988 0.0746404
287 4 0.170767 0.353124 0.0901115
483 4 0.242884 0.359784 0.0383493
286 2 0.175767 0.374624 0.0783655
288 4 0.180766 0.396123 0.0666196
250 2 0.226437 0.356512 0.0666077
481 2 0.247627 0.359904 0.0137999
626 4 0.194679 0.404807 0.0785976
957 4 0.348683 0.374605 0.0600921
955 2 0.35119 0.349843 0.0624921
670 2 0.437405 0.356914 0.0760569
551 4 0.0191985 0.458806 0.0268726
550 2 0.028815 0.468196 0.0479565
552 4 0.0384316 0.477585 0.0690404
330 4 0.0327611 0.452301 0.0131749
1788 4 0.136358 0.481829 0.0650614
1786 2 0.121404 0.492715 0.0818849
243 4 0.174768 0.492713 0.00313376
241 2 0.19304 0.484011 0.0178161
242 4 0.211312 0.475308 0.0324985
564 4 0.411859 0.496471 0.0202249
1674 4 0.405551 0.484619 0.0347772
1672 2 0.408097 0.476351 0.0582363
562 2 0.414306 0.477814 0.00375912
19 3 0.00411611 0.0375825 0.110646
2575 2 0.011849 0.996024 0.113431
2577 4 0.000684004 0.0169807 0.105598
700 2 0.106486 0.0528149 0.0844399
701 4 0.110491 0.052017 0.109108
450 4 0.105736 0.0593002 0.127275
1474 2 0.31306 0.996667 0.107699
1476 4 0.332684 0.00508078 0.0946877
654 4 0.342053 0.0211771 0.0991505
652 2 0.339568 0.0459207 0.0965506
653 4 0.337083 0.0706643 0.0939508
297 4 0.351051 0.0764539 0.106153
746 4 0.451732 0.0155635 0.0751545
745 2 0.462102 0.0369975 0.0827852
747 4 0.472471 0.0584316 0.090416
2469 4 0.481663 0.0653796 0.105924
591 4 0.0891771 0.113595 0.0924236
589 2 0.0665396 0.110094 0.102447
590 4 0.0439022 0.106592 0.11247
380 4 0.0417784 0.0993583 0.13083
379 2 0.0202364 0.0948291 0.142688
448 2 0.123718 0.0745987 0.135507
449 4 0.141701 0.0898972 0.143739
578 4 0.147888 0.0930053 0.16227
577 2 0.158 0.11478 0.155285
237 4 0.228328 0.139898 0.135995
236 4 0.184018 0.143823 0.158842
235 2 0.206173 0.141861 0.147419
579 4 0.168113 0.136554 0.148299
295 2 0.358204 0.091142 0.125081
296 4 0.365358 0.10583 0.144009
630 4 0.387707 0.159762 0.131038
629 4 0.359285 0.140204 0.167236
628 2 0.373496 0.149983 0.149137
769 2 0.470819 0.146943 0.0837425
770 4 0.461281 0.12638 0.0731891
759 4 0.434065 0.118256 0.154836
655 2 0.0119552 0.244273 0.104611
738 4 0.189064 0.205424 0.128538
353 4 0.224963 0.247695 0.086825
736 2 0.182027 0.21989 0.109396
737 4 0.174991 0.234356 0.0902547
754 2 0.224791 0.253068 0.12829
755 4 0.232867 0.246357 0.105598
507 4 0.167618 0.25278 0.0946687
571 2 0.271082 0.201379 0.0898177
572 4 0.268162 0.218304 0.107989
461 4 0.309224 0.241958 0.147536
460 2 0.289244 0.230754 0.137514
462 4 0.269264 0.219549 0.127492
623 4 0.325702 0.24938 0.155378
771 4 0.480356 0.167506 0.0942959
518 4 0.434897 0.252318 0.155041
705 4 0.046013 0.261644 0.108185
703 2 0.0664483 0.257621 0.0943506
657 4 0.0263479 0.262715 0.113438
646 2 0.0410172 0.324442 0.147741
647 4 0.0515211 0.302561 0.153745
362 4 0.0706863 0.296771 0.149354
506 4 0.179287 0.297344 0.114127
505 2 0.173452 0.275062 0.104398
756 4 0.216716 0.25978 0.150982
278 4 0.22537 0.274567 0.161958
740 4 0.334738 0.311134 0.144316
622 2 0.324879 0.274357 0.156189
624 4 0.324056 0.299334 0.157
610 2 0.255134 0.324356 0.166862
322 2 0.426204 0.299139 0.0900831
324 4 0.413312 0.284289 0.105526
517 2 0.42918 0.259375 0.131745
519 4 0.423463 0.266432 0.108449
262 2 0.0509253 0.379504 0.142267
263 4 0.0426147 0.359296 0.130112
648 4 0.0305133 0.346323 0.141736
264 4 0.059236 0.399713 0.154421
455 4 0.154894 0.34364 0.0978085
456 4 0.119304 0.358138 0.129807
537 4 0.128693 0.352123 0.146845
454 2 0.137099 0.350889 0.113808
535 2 0.13082 0.364465 0.168486
252 4 0.228512 0.361176 0.0910847
609 4 0.242638 0.34909 0.0994689
612 4 0.25829 0.347576 0.15814
739 2 0.328069 0.33522 0.143586
607 2 0.257267 0.361724 0.115329
608 4 0.271897 0.374357 0.131189
387 4 0.339668 0.36623 0.140806
741 4 0.3214 0.359307 0.142856
385 2 0.346151 0.386879 0.128286
386 4 0.352634 0.407528 0.115765
495 4 0.368677 0.406673 0.103629
493 2 0.390434 0.397085 0.0958918
14 3 0.370273 0.343945 0.158063
494 4 0.412191 0.387496 0.0881541
672 4 0.428965 0.379925 0.0810022
315 4 0.0336588 0.485572 0.0856056
313 2 0.0172299 0.478389 0.103032
314 4 0.000801077 0.471207 0.120459
417 4 0.0921198 0.47581 0.157772
625 2 0.203451 0.420698 0.0957931
627 4 0.212224 0.436589 0.112989
291 4 0.201113 0.452982 0.118382
289 2 0.197484 0.464766 0.140134
290 4 0.193856 0.476549 0.161886
245 4 0.247547 0.446979 0.0992127
246 4 0.296766 0.452425 0.0922455
524 4 0.309831 0.43874 0.0988176
244 2 0.272157 0.449702 0.0957291
523 2 0.327826 0.455162 0.104444
525 4 0.345821 0.471584 0.110071
1559 4 0.354664 0.48727 0.115539
644 4 0.427988 0.410555 0.161753
1673 4 0.410643 0.468082 0.0816954
597 4 0.494522 0.420805 0.143677
660 4 0.424699 0.454949 0.0885668
658 2 0.440021 0.439388 0.100745
659 4 0.455343 0.423828 0.112923
1404 4 0.0459785 0.0215629 0.233205
1422 4 0.0363141 0.0402171 0.178662
1420 2 0.0327315 0.0291652 0.200803
1421 4 0.029149 0.0181133 0.222943
691 2 0.288329 0.0614449 0.236754
692 4 0.298486 0.0414159 0.225761
1505 4 0.290898 0.0249542 0.216423
1504 2 0.273967 0.0111975 0.204205
693 4 0.278172 0.0814739 0.247747
22 3 0.410478 0.0763383 0.214324
1785 4 0.364961 0.0134338 0.159063
23 3 0.403531 0.0394477 0.212461
21 1 0.41818 0.0562822 0.206103
24 3 0.419211 0.0575622 0.182958
25 3 0.438907 0.0521605 0.21459
758 4 0.427861 0.0728271 0.174796
391 2 0.131812 0.163744 0.220196
393 4 0.116065 0.162576 0.239583
546 4 0.167597 0.159518 0.205444
732 4 0.208497 0.121315 0.228615
721 2 0.246638 0.109921 0.236395
722 4 0.229317 0.124787 0.226188
730 2 0.194488 0.12007 0.249288
581 4 0.31522 0.10282 0.174933
580 2 0.330679 0.119302 0.16423
28 3 0.329069 0.137777 0.241113
582 4 0.346138 0.135783 0.153527
27 3 0.335079 0.102058 0.231078
26 1 0.33525 0.116762 0.248768
757 2 0.430963 0.0955417 0.164816
394 2 0.0122742 0.236158 0.168634
392 4 0.147559 0.164911 0.200809
544 2 0.18579 0.171555 0.217663
545 4 0.203983 0.183593 0.229882
285 4 0.21816 0.199475 0.226502
284 4 0.219377 0.248237 0.215481
283 2 0.218769 0.223856 0.220991
764 4 0.373219 0.207403 0.244083
311 4 0.472974 0.21273 0.228549
419 4 0.469022 0.227588 0.24094
395 4 0.0361495 0.242337 0.164516
748 2 0.0819365 0.305417 0.247322
337 2 0.152833 0.294786 0.171462
339 4 0.134498 0.277812 0.170541
361 2 0.0920444 0.29045 0.160714
363 4 0.113403 0.28413 0.172075
735 4 0.143344 0.312882 0.220911
749 4 0.0919717 0.322019 0.231547
279 4 0.228964 0.265849 0.211068
338 4 0.171169 0.311761 0.172384
344 4 0.171475 0.308503 0.192108
343 2 0.192037 0.314486 0.205014
277 2 0.227167 0.270208 0.186513
345 4 0.2126 0.320469 0.21792
611 4 0.251978 0.301137 0.175584
307 2 0.274592 0.296865 0.212979
309 4 0.258102 0.301195 0.194689
308 4 0.291081 0.292535 0.231269
498 4 0.297602 0.276127 0.23954
520 2 0.460539 0.271917 0.1936
522 4 0.436047 0.275541 0.197092
521 4 0.485031 0.268293 0.190109
733 2 0.135741 0.334473 0.23097
536 4 0.132947 0.376808 0.190127
734 4 0.128138 0.356065 0.241029
299 4 0.107451 0.354904 0.24331
728 4 0.314617 0.395023 0.236328
13 3 0.351308 0.370848 0.177061
11 1 0.367805 0.354597 0.178528
12 3 0.387709 0.364688 0.184108
15 3 0.362338 0.339402 0.194587
2538 4 0.49828 0.364168 0.19585
542 4 0.446584 0.391569 0.224707
645 4 0.437192 0.403822 0.210442
541 2 0.44232 0.409871 0.2412
416 4 0.113013 0.431213 0.16645
415 2 0.102566 0.453512 0.162111
768 4 0.189446 0.478575 0.181421
766 2 0.200916 0.464615 0.198705
767 4 0.212387 0.450656 0.215988
638 4 0.26496 0.498432 0.170356
301 2 0.292409 0.473667 0.193392
302 4 0.309674 0.458692 0.203533
1574 4 0.362712 0.448784 0.188354
1573 2 0.374692 0.462841 0.205208
230 4 0.385524 0.475185 0.241417
1575 4 0.386673 0.476898 0.222062
643 2 0.43259 0.407189 0.186098
446 4 0.432751 0.446283 0.250201
675 4 0.0904976 0.987153 0.254513
233 4 0.001261 0.0135155 0.329007
1402 2 0.0406908 0.0145768 0.256623
232 2 0.0201504 0.00709507 0.313936
234 4 0.0390398 0.000674591 0.298864
1403 4 0.0354032 0.00759072 0.280041
1463 4 0.0951537 0.0202801 0.313705
1462 2 0.0961669 0.00783241 0.292044
698 4 0.30874 0.074995 0.322983
1495 2 0.387629 0.0106576 0.296546
1497 4 0.376109 0.00358 0.317579
1749 4 0.413239 0.0292398 0.28585
1496 4 0.399148 0.0177352 0.275513
743 4 0.453407 0.0651731 0.328217
1747 2 0.437136 0.0269354 0.278866
480 4 0.451313 0.0454085 0.324046
1748 4 0.461034 0.024631 0.271881
531 4 0.0672833 0.160154 0.296736
513 4 0.0736426 0.154004 0.278565
529 2 0.0584391 0.16394 0.319815
369 4 0.144675 0.0918238 0.329345
605 4 0.156078 0.10742 0.326257
511 2 0.0896485 0.166084 0.26363
604 2 0.169978 0.116592 0.307606
731 4 0.180479 0.118825 0.269962
606 4 0.183878 0.125763 0.288955
404 4 0.235487 0.140936 0.270172
403 2 0.238545 0.127376 0.290955
405 4 0.241603 0.113816 0.311738
248 4 0.256223 0.111171 0.325256
600 4 0.1971 0.141306 0.287002
723 4 0.263959 0.0950558 0.246602
247 2 0.25854 0.0873695 0.332556
29 3 0.320154 0.109408 0.264781
632 4 0.315291 0.0948443 0.319057
631 2 0.329695 0.107827 0.303272
30 3 0.356208 0.117579 0.257641
633 4 0.344099 0.120809 0.287487
707 4 0.360236 0.122751 0.276731
706 2 0.36914 0.142488 0.289235
742 2 0.456027 0.0797947 0.308105
744 4 0.458647 0.0944163 0.287992
333 4 0.461454 0.111353 0.297924
331 2 0.478739 0.12823 0.30437
332 4 0.496025 0.145107 0.310817
452 4 0.434968 0.18504 0.333752
761 4 0.494306 0.161522 0.323984
512 4 0.105654 0.178164 0.248695
390 4 0.100275 0.21286 0.293973
388 2 0.116247 0.230919 0.287344
389 4 0.132219 0.248978 0.280715
371 4 0.186475 0.205004 0.287103
598 2 0.189229 0.164609 0.282504
370 2 0.187275 0.228215 0.277841
599 4 0.181359 0.187911 0.278006
351 4 0.388042 0.177877 0.29573
708 4 0.378044 0.162225 0.301739
765 4 0.367803 0.227161 0.289701
763 2 0.370511 0.217282 0.266892
349 2 0.402106 0.186096 0.314699
418 2 0.456709 0.243294 0.256003
420 4 0.444395 0.259 0.271065
350 4 0.41617 0.194316 0.333668
750 4 0.0719013 0.288815 0.263097
444 4 0.0371892 0.318944 0.317667
618 4 0.0551241 0.325288 0.310851
616 2 0.0796869 0.329927 0.311428
442 2 0.0295173 0.316308 0.341318
676 2 0.131431 0.324689 0.330699
402 4 0.152688 0.29756 0.316687
400 2 0.149031 0.280372 0.2989
401 4 0.145375 0.263185 0.281112
678 4 0.153034 0.312108 0.331165
372 4 0.188075 0.251426 0.26858
510 4 0.235352 0.307401 0.312681
508 2 0.245077 0.330204 0.315942
496 2 0.297442 0.273403 0.264394
497 4 0.297281 0.270679 0.289248
377 4 0.298614 0.280738 0.306746
376 2 0.306073 0.292783 0.327349
613 2 0.38776 0.294134 0.298746
614 4 0.386965 0.296064 0.323663
615 4 0.388555 0.292204 0.27383
365 4 0.0511592 0.362042 0.285436
366 4 0.0200613 0.348675 0.248627
364 2 0.0356102 0.355359 0.267031
603 4 0.0739091 0.38259 0.288206
601 2 0.0801739 0.397994 0.306878
300 4 0.0902483 0.387708 0.276906
298 2 0.0988494 0.371306 0.260108
617 4 0.10425 0.334565 0.312005
677 4 0.109828 0.337269 0.330232
602 4 0.0864387 0.413398 0.325551
502 2 0.243414 0.38736 0.307736
509 4 0.254803 0.353006 0.319203
504 4 0.239367 0.365908 0.319926
727 2 0.307878 0.393545 0.260361
433 2 0.317041 0.381708 0.315861
729 4 0.30114 0.392068 0.284394
434 4 0.312128 0.377097 0.291783
435 4 0.321955 0.38632 0.33994
2463 4 0.0305584 0.430562 0.329128
2461 2 0.00715351 0.439127 0.331135
777 4 0.110306 0.488754 0.298394
775 2 0.0970034 0.499695 0.280268
503 4 0.247461 0.408813 0.295546
437 4 0.263091 0.420425 0.291541
436 2 0.27154 0.443931 0.290425
1436 4 0.268058 0.481394 0.280102
438 4 0.279988 0.467437 0.289308
1435 2 0.285093 0.498662 0.28617
229 2 0.400828 0.486704 0.257489
713 4 0.418424 0.489771 0.291679
543 4 0.438055 0.428173 0.257693
231 4 0.416131 0.498222 0.273561
447 4 0.467391 0.480578 0.261367
445 2 0.450071 0.46343 0.255784
316 2 0.0290537 0.00942053 0.380897
318 4 0.0312526 0.0250662 0.361518
720 4 0.0822093 0.010977 0.407059
399 4 0.0520839 0.100363 0.353348
428 4 0.0773841 0.995512 0.39552
427 2 0.0857122 0.994969 0.371951
1700 4 0.243336 0.0559402 0.348162
249 4 0.260857 0.0635679 0.339856
1701 4 0.269837 0.0214569 0.372847
441 4 0.283395 0.0148057 0.385128
1699 2 0.256587 0.0386986 0.360505
439 2 0.278875 0.99879 0.403789
697 2 0.324504 0.0562518 0.328018
699 4 0.340268 0.0375086 0.333053
1518 4 0.33913 0.0345218 0.3543
1516 2 0.355534 0.015674 0.355219
2643 4 0.50881 0.0567417 0.402439
478 2 0.460578 0.0373285 0.345818
2641 2 0.493363 0.0391287 0.3937
2642 4 0.477917 0.0215157 0.384962
479 4 0.469843 0.0292485 0.367591
2584 2 0.0059824 0.10911 0.404562
530 4 0.0495948 0.167726 0.342894
397 2 0.0763941 0.098795 0.358981
457 2 0.0471706 0.14318 0.378185
458 4 0.0559663 0.153727 0.35729
459 4 0.0383749 0.132633 0.399079
2585 4 0.0298531 0.116544 0.404873
398 4 0.100704 0.0972272 0.364615
368 4 0.159101 0.0824932 0.376308
367 2 0.151888 0.0871585 0.352827
686 4 0.163654 0.15906 0.402988
685 2 0.140278 0.165744 0.397152
472 2 0.224305 0.162252 0.392624
342 4 0.169939 0.142646 0.411849
684 4 0.321231 0.145649 0.381354
682 2 0.300732 0.134448 0.390271
683 4 0.280233 0.123248 0.399188
467 4 0.338671 0.147944 0.391959
466 2 0.353567 0.152443 0.411531
515 4 0.459753 0.138621 0.376704
453 4 0.445981 0.152624 0.370203
451 2 0.440475 0.168832 0.351978
514 2 0.454116 0.147754 0.399287
687 4 0.116902 0.172429 0.391316
474 4 0.219977 0.181377 0.377109
276 4 0.288329 0.240798 0.35438
274 2 0.269988 0.249047 0.369238
717 4 0.331513 0.197504 0.396488
716 4 0.348906 0.243323 0.406429
715 2 0.340209 0.220414 0.401458
2516 4 0.501534 0.211593 0.361158
760 2 0.496422 0.184777 0.332922
762 4 0.498538 0.208033 0.34186
347 4 0.0447843 0.265755 0.391291
346 2 0.0301393 0.258331 0.410148
443 4 0.0218454 0.313673 0.364969
2801 4 0.0213259 0.319705 0.384128
375 4 0.163594 0.304314 0.361885
373 2 0.174332 0.286845 0.347578
374 4 0.185071 0.269376 0.333271
275 4 0.251648 0.257295 0.384096
651 4 0.244219 0.257132 0.402282
378 4 0.313532 0.304828 0.347951
489 4 0.346698 0.269916 0.42056
266 4 0.406008 0.266411 0.386327
265 2 0.384666 0.267535 0.399306
267 4 0.363324 0.268659 0.412285
2800 2 0.013178 0.343067 0.38773
2928 4 0.00437936 0.371521 0.372498
2802 4 0.00503017 0.36643 0.391333
548 4 0.063541 0.385067 0.36508
408 4 0.0683723 0.366429 0.371214
406 2 0.0699236 0.362006 0.395774
547 2 0.0508151 0.404266 0.355352
668 4 0.296964 0.369497 0.418341
667 2 0.320862 0.362158 0.418809
752 4 0.369667 0.408233 0.413486
669 4 0.34476 0.354819 0.419277
559 2 0.467989 0.35752 0.40379
561 4 0.464886 0.381525 0.397522
549 4 0.0380893 0.423465 0.345624
499 2 0.106123 0.492786 0.336149
501 4 0.10846 0.483741 0.359342
680 4 0.120046 0.472487 0.370444
679 2 0.103068 0.456971 0.380251
681 4 0.0860897 0.441455 0.390058
569 4 0.15784 0.442133 0.374667
1394 4 0.181314 0.496046 0.407923
568 2 0.16837 0.463142 0.383207
570 4 0.1789 0.48415 0.391747
5 3 0.32823 0.489635 0.362409
594 4 0.375799 0.504704 0.377005
753 4 0.403764 0.444729 0.411011
751 2 0.386715 0.426481 0.412249
1401 4 0.364428 0.499139 0.392436
718 2 0.0921858 0.999491 0.426901
2430 4 0.265492 0.0685889 0.463044
2428 2 0.263013 0.0540907 0.442825
724 2 0.315198 0.0658815 0.470101
2429 4 0.260534 0.0395925 0.422605
725 4 0.293201 0.0629106 0.481611
726 4 0.337195 0.0688523 0.458591
432 4 0.35313 0.0799319 0.463756
430 2 0.372615 0.0649919 0.468481
424 2 0.407697 0.0138896 0.489917
426 4 0.400676 0.0375066 0.48566
431 4 0.392099 0.0500518 0.473207
939 4 0.0323105 0.121634 0.485374
937 2 0.0568322 0.122205 0.480523
938 4 0.0813539 0.122777 0.475671
1034 4 0.101435 0.12459 0.479186
1033 2 0.118208 0.138179 0.491803
473 4 0.228632 0.143127 0.408138
321 4 0.230681 0.148182 0.428321
341 4 0.201307 0.137727 0.450482
340 2 0.185623 0.140187 0.431165
1181 4 0.27884 0.0772825 0.477722
1180 2 0.264994 0.0813417 0.498142
319 2 0.251696 0.148335 0.441868
320 4 0.272711 0.148488 0.455415
468 4 0.368462 0.156943 0.431102
575 4 0.387001 0.162979 0.435901
574 2 0.411546 0.15823 0.436346
516 4 0.448479 0.156887 0.42187
576 4 0.43609 0.153481 0.436791
469 2 0.0196872 0.24707 0.465836
471 4 0.00952987 0.246334 0.488672
641 4 0.345326 0.190389 0.481836
470 4 0.0298445 0.247807 0.443
348 4 0.0154942 0.250907 0.429005
260 4 0.0694299 0.287689 0.411946
259 2 0.0867945 0.280812 0.428569
261 4 0.104159 0.273934 0.445193
695 4 0.122139 0.279718 0.452478
694 2 0.137582 0.296548 0.462649
696 4 0.153025 0.313377 0.47282
10 3 0.144216 0.320659 0.489168
650 4 0.267357 0.272825 0.443744
649 2 0.255788 0.264978 0.423013
488 4 0.30285 0.291322 0.431506
487 2 0.324774 0.280619 0.426033
335 4 0.365363 0.331912 0.467144
585 4 0.442576 0.284504 0.502036
407 4 0.0714749 0.357583 0.420335
384 4 0.0773355 0.401717 0.469951
382 2 0.0765093 0.381646 0.455063
935 4 0.0619109 0.408241 0.481482
383 4 0.0756832 0.361576 0.440175
934 2 0.0652025 0.412462 0.505906
326 4 0.14147 0.373216 0.435796
325 2 0.146297 0.363728 0.45842
327 4 0.151124 0.35424 0.481044
710 4 0.183134 0.381583 0.436546
709 2 0.204382 0.375436 0.448203
711 4 0.225631 0.369289 0.45986
773 4 0.238854 0.39905 0.490742
636 4 0.258832 0.35261 0.472912
635 4 0.291564 0.360342 0.435904
634 2 0.275198 0.356476 0.454408
240 4 0.374727 0.34054 0.481768
334 2 0.36429 0.341464 0.444062
336 4 0.363218 0.351015 0.420979
2508 4 0.507354 0.398027 0.445192
3309 4 0.45884 0.398947 0.492814
560 4 0.471092 0.333514 0.410058
270 4 0.488466 0.334156 0.419931
1381 2 0.073672 0.48986 0.432883
1383 4 0.0884292 0.475247 0.446806
540 4 0.0931198 0.475674 0.467016
538 2 0.111107 0.48931 0.477773
588 4 0.414466 0.45983 0.416334
881 4 0.389375 0.480756 0.464609
880 2 0.387832 0.48797 0.4885
586 2 0.43254 0.464749 0.432895
662 4 0.461919 0.461392 0.463875
587 4 0.450615 0.469669 0.449457
661 2 0.461725 0.440408 0.477468
663 4 0.46153 0.419423 0.491062
1126 2 0.0308426 0.00206605 0.544971
1127 4 0.0392786 0.0169494 0.526736
1059 4 0.185241 0.047769 0.544521
1152 4 0.195289 0.064088 0.53988
1057 2 0.186014 0.0330567 0.564723
1150 2 0.216324 0.0679396 0.526924
1151 4 0.237359 0.0717912 0.513967
841 2 0.3909 0.0572249 0.538831
843 4 0.376015 0.0394084 0.548114
1060 2 0.47398 0.0260086 0.51749
1061 4 0.462579 0.0446543 0.529636
1062 4 0.485381 0.00736297 0.505344
1035 4 0.134981 0.151768 0.50442
1182 4 0.251149 0.0854009 0.518563
411 4 0.224809 0.146734 0.506559
409 2 0.226368 0.148191 0.531471
410 4 0.227927 0.149649 0.556383
842 4 0.405786 0.0750415 0.529549
898 2 0.366351 0.143048 0.545774
900 4 0.379227 0.129514 0.562394
899 4 0.353475 0.156581 0.529154
3159 4 0.406884 0.131347 0.532736
3158 4 0.420815 0.0846165 0.521649
3157 2 0.41385 0.107982 0.527193
1200 4 0.00314902 0.253923 0.50571
1270 2 0.145248 0.215103 0.566972
1271 4 0.133919 0.210076 0.545256
858 4 0.208589 0.193369 0.559215
856 2 0.21829 0.20384 0.538686
857 4 0.227991 0.214311 0.518157
1221 4 0.189313 0.19279 0.567937
642 4 0.367702 0.160751 0.515326
640 2 0.356514 0.17557 0.498581
879 4 0.999801 0.301185 0.55609
877 2 0.0214737 0.300381 0.543647
878 4 0.0431467 0.299577 0.531205
984 4 0.985899 0.297414 0.571493
8 3 0.171344 0.320645 0.515279
896 4 0.156554 0.31453 0.56484
812 4 0.328463 0.326752 0.519212
791 4 0.285415 0.264641 0.572762
871 2 0.37815 0.267073 0.532935
873 4 0.389376 0.256111 0.552402
872 4 0.366925 0.278035 0.513467
813 4 0.345987 0.280299 0.513233
811 2 0.337225 0.303525 0.516222
905 4 0.486175 0.277477 0.575311
583 2 0.433183 0.306825 0.508256
584 4 0.42379 0.329147 0.514477
6 1 0.153618 0.332534 0.506175
9 3 0.137742 0.336853 0.522537
1137 4 0.13535 0.350908 0.536844
1041 4 0.0951564 0.394156 0.570975
1136 4 0.112419 0.387734 0.561717
1135 2 0.123885 0.369321 0.549281
895 2 0.173162 0.332808 0.560932
7 3 0.1615 0.352538 0.497997
1191 4 0.196031 0.363519 0.57279
897 4 0.18977 0.351085 0.557024
804 4 0.260239 0.347787 0.580366
774 4 0.266018 0.369364 0.520432
772 2 0.252436 0.384207 0.505587
1173 4 0.282276 0.412789 0.573494
803 4 0.285127 0.307104 0.565326
802 2 0.272683 0.327445 0.572846
1239 4 0.320361 0.382079 0.575899
929 4 0.337816 0.383133 0.565384
928 2 0.358298 0.376171 0.552847
930 4 0.378781 0.369208 0.54031
239 4 0.378398 0.352992 0.530061
238 2 0.376562 0.346766 0.505914
1001 4 0.421195 0.423043 0.572357
926 4 0.483377 0.348685 0.580292
925 2 0.482573 0.366064 0.562333
3307 2 0.472767 0.386871 0.509707
1002 4 0.456748 0.395742 0.550191
3308 4 0.486694 0.374795 0.5266
1000 2 0.438972 0.409393 0.561274
927 4 0.48177 0.383443 0.544375
936 4 0.0684941 0.416683 0.53033
1040 4 0.0674599 0.427728 0.546346
1039 2 0.0813082 0.410942 0.558661
1171 2 0.269702 0.43174 0.583882
1172 4 0.257128 0.450692 0.59427
1455 4 0.381898 0.483594 0.5286
1453 2 0.367275 0.480417 0.548632
882 4 0.386288 0.495184 0.51239
1058 4 0.186788 0.0183444 0.584926
1031 4 0.254304 0.0608181 0.583395
962 4 0.263024 0.0459967 0.593398
961 2 0.268264 0.0260106 0.607479
963 4 0.273504 0.00602448 0.62156
949 2 0.293358 0.00215414 0.660857
1005 4 0.338516 0.0547499 0.597265
1003 2 0.356791 0.0696696 0.605548
1004 4 0.375066 0.0845893 0.613831
87 3 0.418733 0.00841183 0.641804
1081 2 0.0550595 0.125984 0.659376
1083 4 0.062194 0.106794 0.645023
3078 4 0.0112136 0.149936 0.61477
1154 4 0.155515 0.18135 0.62809
1153 2 0.167908 0.163896 0.641011
1155 4 0.180302 0.146442 0.653931
1283 4 0.198961 0.144391 0.661137
1212 4 0.237314 0.162313 0.656011
1032 4 0.261218 0.110265 0.586205
1030 2 0.257761 0.0855416 0.5848
887 4 0.293385 0.1411 0.659956
886 2 0.273903 0.155343 0.65342
1141 2 0.380175 0.11023 0.643981
1142 4 0.382813 0.101759 0.620605
3425 4 0.47786 0.167192 0.671025
809 4 0.477508 0.0860036 0.664948
1272 4 0.156576 0.220129 0.588688
1258 2 0.187382 0.228917 0.640826
1210 2 0.223152 0.174719 0.639558
1211 4 0.208989 0.187124 0.623105
1219 2 0.193435 0.197231 0.592195
1220 4 0.197557 0.201671 0.616454
1259 4 0.18197 0.211448 0.623775
888 4 0.25442 0.169586 0.646883
3424 2 0.500782 0.170614 0.661641
1025 4 0.460382 0.158899 0.665598
906 4 0.466868 0.231728 0.581222
1260 4 0.192793 0.246386 0.657876
948 4 0.199259 0.260273 0.670441
790 2 0.307999 0.255255 0.577966
798 4 0.314963 0.294914 0.634477
796 2 0.299379 0.307904 0.649091
797 4 0.283795 0.320894 0.663705
792 4 0.330582 0.245869 0.58317
1011 4 0.488199 0.335709 0.597432
904 2 0.476522 0.254602 0.578266
1010 4 0.480001 0.291145 0.618587
1009 2 0.4841 0.313427 0.608009
952 2 0.456483 0.284274 0.645673
953 4 0.462886 0.281375 0.621677
1243 2 0.994736 0.338194 0.646957
1244 4 0.000836257 0.3589 0.659576
992 4 0.138293 0.35785 0.649476
991 2 0.117268 0.364951 0.660997
1189 2 0.220775 0.361862 0.575977
1190 4 0.245519 0.360204 0.579165
1068 4 0.156495 0.432202 0.645812
1238 4 0.332005 0.372976 0.623672
1237 2 0.326183 0.377527 0.599786
806 4 0.321698 0.368749 0.640885
805 2 0.338219 0.355302 0.653978
1100 4 0.424065 0.400235 0.655239
2129 4 0.0420868 0.47401 0.643605
2128 2 0.0353496 0.489396 0.662127
2172 4 0.14305 0.495397 0.60939
1160 4 0.161917 0.50347 0.612044
1066 2 0.179903 0.433495 0.654508
1159 2 0.184184 0.498913 0.622465
1067 4 0.20331 0.434788 0.663203
1161 4 0.20645 0.494355 0.632886
1953 4 0.316996 0.48356 0.604715
891 4 0.332604 0.472212 0.611366
889 2 0.329774 0.459016 0.632415
1028 4 0.277377 0.450582 0.62552
1027 2 0.267202 0.433784 0.640995
890 4 0.326944 0.445821 0.653464
1454 4 0.352652 0.47724 0.568663
1205 4 0.342499 0.453035 0.66418
864 4 0.0426714 0.0853982 0.70689
823 2 0.227005 0.0718785 0.700461
950 4 0.301281 0.999246 0.684393
824 4 0.23687 0.0490778 0.697633
1092 4 0.315705 0.011588 0.684739
1090 2 0.318773 0.0276112 0.703687
1091 4 0.321841 0.0436344 0.722635
1049 4 0.304371 0.0334266 0.731028
43 3 0.395973 0.079351 0.749609
1113 4 0.40771 0.0637015 0.742675
1217 4 0.421728 0.0477443 0.683032
1216 2 0.41929 0.0253606 0.67216
1111 2 0.417302 0.0407224 0.740407
1112 4 0.426894 0.0177433 0.73814
1164 4 0.432563 0.062712 0.690692
1162 2 0.445659 0.0766452 0.674581
862 2 0.0663346 0.0865906 0.698902
1082 4 0.0479249 0.145174 0.67373
1076 4 0.0626803 0.158155 0.680105
863 4 0.0899977 0.0877829 0.690914
945 4 0.13738 0.102154 0.737803
944 4 0.109633 0.0887943 0.698403
943 2 0.123506 0.0954744 0.718103
909 4 0.149119 0.115896 0.729195
907 2 0.168534 0.131548 0.727386
825 4 0.217141 0.0946791 0.70329
1282 2 0.207631 0.128811 0.678667
1284 4 0.216301 0.113231 0.696197
908 4 0.187949 0.147199 0.725577
1227 4 0.193327 0.15986 0.741354
829 2 0.279021 0.109438 0.723475
831 4 0.279436 0.128258 0.707019
830 4 0.278607 0.0906173 0.739931
1298 4 0.27649 0.145446 0.717223
1149 4 0.267624 0.097545 0.754508
1143 4 0.377537 0.1187 0.667358
45 3 0.391381 0.0882305 0.713309
41 1 0.396916 0.0963565 0.733851
44 3 0.382397 0.113459 0.739775
1163 4 0.458755 0.0905784 0.658471
42 3 0.418345 0.104692 0.733179
1075 2 0.0465592 0.165358 0.697809
1077 4 0.0304382 0.17256 0.715512
1178 4 0.0826291 0.246786 0.700556
834 4 0.0149853 0.166485 0.72645
832 2 0.0101338 0.181425 0.745903
1177 2 0.0920063 0.228976 0.71539
1179 4 0.101383 0.211166 0.730224
1106 4 0.0953753 0.191805 0.732365
1105 2 0.110316 0.181376 0.749488
976 2 0.296365 0.216301 0.6884
977 4 0.316255 0.220785 0.673927
978 4 0.276476 0.211817 0.702873
1299 4 0.270636 0.194926 0.712958
1297 2 0.273563 0.170186 0.715091
1193 4 0.325736 0.203229 0.669821
1192 2 0.349575 0.206451 0.676642
1194 4 0.373413 0.209673 0.683463
1044 4 0.377899 0.20022 0.701056
1042 2 0.386943 0.21185 0.721259
1043 4 0.395987 0.223479 0.741461
1024 2 0.448317 0.176038 0.679231
1026 4 0.436253 0.193178 0.692864
851 4 0.00889168 0.252428 0.75794
1209 4 0.0788287 0.253324 0.680897
1208 4 0.0487951 0.2928 0.687249
1207 2 0.0638119 0.273062 0.684073
947 4 0.156074 0.277039 0.689274
946 2 0.177667 0.268656 0.679857
1241 4 0.225216 0.279244 0.751867
1240 2 0.215625 0.302115 0.748693
1008 4 0.322204 0.313427 0.718428
1006 2 0.337629 0.323757 0.701679
1262 4 0.415436 0.295802 0.699459
954 4 0.45008 0.287173 0.669668
1261 2 0.428671 0.275729 0.706322
1263 4 0.441906 0.255657 0.713185
3123 4 0.455289 0.241378 0.71993
3121 2 0.479859 0.245395 0.71761
993 4 0.0962435 0.372052 0.672517
1242 4 0.206034 0.324987 0.745519
1007 4 0.353055 0.334087 0.68493
807 4 0.35474 0.341856 0.667071
1099 2 0.442265 0.405539 0.671542
1101 4 0.460466 0.410844 0.687845
3329 4 0.470925 0.406737 0.703934
894 4 0.00610506 0.427246 0.733345
1281 4 0.0223115 0.431699 0.725125
1279 2 0.0471427 0.429362 0.723356
1280 4 0.0719739 0.427025 0.721588
884 4 0.0790988 0.408839 0.726604
883 2 0.0933734 0.406092 0.746948
942 4 0.217187 0.420606 0.664089
940 2 0.224878 0.426462 0.687148
941 4 0.23257 0.432319 0.710207
1236 4 0.234498 0.421578 0.725992
1234 2 0.224133 0.43602 0.743575
1029 4 0.257026 0.416987 0.65647
1204 2 0.354871 0.443272 0.683591
1206 4 0.367243 0.433508 0.703002
1139 4 0.368323 0.423868 0.720437
1138 2 0.358088 0.418754 0.742669
1987 2 0.363409 0.485074 0.720048
1988 4 0.381383 0.487557 0.702845
1230 4 0.393333 0.49613 0.688682
1989 4 0.345436 0.482591 0.737252
1228 2 0.415786 0.487428 0.681952
3328 2 0.488406 0.424606 0.703382
1269 4 0.457232 0.486622 0.678753
1229 4 0.43824 0.478725 0.675222
2988 4 0.477762 0.485614 0.735028
1251 4 0.457811 0.486127 0.737508
2986 2 0.497898 0.488959 0.749467
1295 4 0.0752348 0.0251902 0.774458
1294 2 0.07569 0.0469051 0.786844
2049 4 0.0712561 0.00659254 0.780513
1296 4 0.0761452 0.06862 0.799231
1286 4 0.0934683 0.0756381 0.792123
1202 4 0.182553 0.0874129 0.781551
1256 4 0.311453 0.0406365 0.797566
1050 4 0.302894 0.0356858 0.780962
1048 2 0.303633 0.0345562 0.755995
1255 2 0.316163 0.0200389 0.810935
846 4 0.491471 0.0684995 0.772587
2321 4 0.474776 0.00787956 0.791919
2440 2 0.462079 0.0219784 0.830583
844 2 0.47906 0.0748134 0.793354
2441 4 0.473605 0.0207845 0.808427
1203 4 0.142418 0.113549 0.795933
1287 4 0.122492 0.115777 0.798993
1285 2 0.10798 0.0957076 0.795558
32 3 0.147655 0.132929 0.798243
31 1 0.129 0.145984 0.801512
33 3 0.132356 0.159318 0.820203
35 3 0.1109 0.132536 0.80471
1201 2 0.162486 0.100481 0.788742
34 3 0.125771 0.15928 0.782772
1148 4 0.24134 0.0838991 0.794802
1147 2 0.254482 0.0907221 0.774655
840 4 0.280012 0.156209 0.812966
838 2 0.295679 0.150301 0.794397
839 4 0.311346 0.144392 0.775828
1085 4 0.329769 0.153491 0.778055
845 4 0.466649 0.0811274 0.814121
833 4 0.00528241 0.196365 0.765357
1107 4 0.125256 0.170946 0.766611
1225 2 0.199932 0.168504 0.763867
1130 4 0.195103 0.185614 0.800091