ITEM: TIMESTEP
4140000
ITEM: NUMBER OF ATOMS
4590
ITEM: BOX BOUNDS pp pp pp
-9.9985700000000008e+00 9.9985700000000008e+00
-9.9985700000000008e+00 9.9985700000000008e+00
-9.9985700000000008e+00 9.9985700000000008e+00
ITEM: ATOMS id type xs ys zs
2269 2 0.054982 0.0793182 0.00910146
567 4 0.0865606 0.00578595 0.0485624
702 4 0.100106 0.0206869 0.0527726
701 4 0.0911887 0.0686073 0.0639458
700 2 0.0956472 0.0446471 0.0583592
2251 2 0.125221 0.0327208 0.0102656
2253 4 0.124412 0.0559182 0.0195609
1840 2 0.196229 0.0393634 0.0512703
1842 4 0.191919 0.0193622 0.0368983
1841 4 0.200539 0.0593646 0.0656423
450 4 0.18967 0.0728675 0.0737299
486 4 0.19857 0.00586311 0.049847
491 4 0.381571 0.0513243 0.00665366
2180 4 0.335557 0.0164409 0.0435137
1476 4 0.340948 0.00888085 0.0602759
657 4 0.0299756 0.0959395 0.0344625
2271 4 0.0485919 0.0879751 0.0316714
655 2 0.0133225 0.1122 0.025327
2760 4 0.0145923 0.168128 0.012222
722 4 0.303343 0.0923403 0.0390076
721 2 0.304478 0.107411 0.0589268
723 4 0.305613 0.122481 0.0788461
356 4 0.312051 0.10381 0.0243372
355 2 0.321481 0.120386 0.00816647
2441 4 0.474657 0.0959762 0.00527972
2976 4 0.468248 0.102381 0.0239952
2974 2 0.482421 0.10458 0.0444762
2975 4 0.496594 0.106778 0.0649573
255 4 0.416261 0.0913161 0.0839183
253 2 0.440131 0.0986327 0.0825525
254 4 0.464001 0.105949 0.0811866
705 4 0.0425283 0.201751 0.0648817
703 2 0.052854 0.222521 0.0555457
704 4 0.0631797 0.243291 0.0462097
454 2 0.148362 0.248808 0.0215653
456 4 0.144523 0.235515 0.000739238
580 2 0.200036 0.247096 0.0783389
581 4 0.189029 0.224986 0.0822383
914 4 0.191831 0.205491 0.079654
2877 4 0.396516 0.238396 0.0774247
3407 4 0.466981 0.221102 0.0194959
3406 2 0.467013 0.245773 0.0154266
462 4 0.0663336 0.261018 0.0562553
460 2 0.077637 0.265877 0.0780224
455 4 0.152202 0.262102 0.0423914
286 2 0.161025 0.293632 0.0623472
477 4 0.140099 0.321108 0.0795113
288 4 0.156379 0.316278 0.071872
287 4 0.165671 0.270985 0.0528224
101 1 0.232979 0.288288 0.0754646
582 4 0.211042 0.269205 0.0744395
294 4 0.212318 0.269969 0.054936
103 3 0.223415 0.286707 0.0543829
292 2 0.207474 0.273406 0.0306481
293 4 0.202631 0.276843 0.00636016
104 3 0.256008 0.290409 0.073577
296 4 0.289166 0.268719 0.0469562
295 2 0.313622 0.266572 0.0516996
902 4 0.293912 0.271277 0.0281003
901 2 0.273356 0.277768 0.0154315
903 4 0.2528 0.284259 0.00276265
297 4 0.338077 0.264425 0.056443
359 4 0.381192 0.257533 0.0102603
360 4 0.357529 0.258907 0.0542931
358 2 0.369361 0.25822 0.0322767
280 2 0.37787 0.315738 0.0201029
282 4 0.391021 0.30299 0.0371243
527 4 0.41022 0.304789 0.0426099
526 2 0.413175 0.302564 0.0673382
281 4 0.364719 0.328485 0.00308143
920 4 0.40016 0.252473 0.00478716
2840 4 0.458788 0.310979 0.00465514
2839 2 0.476842 0.320372 0.0191815
3408 4 0.467044 0.270443 0.0113573
2841 4 0.494895 0.329765 0.033708
1045 2 0.422928 0.287025 0.00317506
1047 4 0.442108 0.302538 0.00725172
2807 4 0.0787555 0.395941 0.0118772
2806 2 0.0549876 0.391981 0.00520034
2514 4 0.0891153 0.386736 0.0263601
2512 2 0.0912853 0.388945 0.0511711
2513 4 0.0934553 0.391155 0.0759821
525 4 0.112869 0.394829 0.0816437
482 4 0.169479 0.369069 0.0110129
494 4 0.177638 0.381552 0.0235786
493 2 0.189226 0.381461 0.0457347
495 4 0.200814 0.38137 0.0678908
552 4 0.0840042 0.484354 0.0596822
330 4 0.0765049 0.496292 0.0754271
14 3 0.339343 0.47439 0.0461217
11 1 0.356993 0.481967 0.0331026
12 3 0.376055 0.482443 0.0459687
596 4 0.382236 0.497743 0.056805
595 2 0.401047 0.483311 0.0647442
13 3 0.360378 0.46759 0.0152075
659 4 0.439439 0.469592 0.0795413
597 4 0.419858 0.468878 0.0726834
1873 2 0.158928 0.0120778 0.127509
1874 4 0.136358 0.0211795 0.133249
1479 4 0.121601 0.015159 0.144713
1875 4 0.181497 0.00297598 0.121769
449 4 0.204003 0.0686354 0.121452
448 2 0.196837 0.0707515 0.0975909
1660 2 0.297535 0.0357019 0.12326
1662 4 0.320597 0.0271348 0.118795
1661 4 0.274474 0.044269 0.127726
1749 4 0.325822 0.00520377 0.155845
1474 2 0.338188 0.0147838 0.0844154
1475 4 0.335428 0.0206868 0.108555
2469 4 0.402983 0.0170791 0.112503
2467 2 0.417962 0.0367106 0.116427
771 4 0.438353 0.0714903 0.131206
2468 4 0.432942 0.0563421 0.120352
769 2 0.462425 0.0737013 0.137596
770 4 0.486496 0.0759123 0.143987
236 4 0.159053 0.155265 0.158826
235 2 0.177238 0.15692 0.141745
605 4 0.244568 0.162383 0.156499
237 4 0.195423 0.158575 0.124664
693 4 0.316583 0.130923 0.0932943
757 2 0.301572 0.133074 0.156375
30 3 0.260232 0.113995 0.159451
758 4 0.323539 0.145013 0.156102
759 4 0.279605 0.121134 0.156648
1506 4 0.408923 0.110294 0.0830043
1504 2 0.392348 0.12272 0.0970061
1505 4 0.375774 0.135146 0.111008
691 2 0.337842 0.128558 0.106242
692 4 0.359101 0.126193 0.11919
24 3 0.470002 0.0954311 0.0976826
21 1 0.489598 0.106536 0.103257
22 3 0.484235 0.126959 0.112382
624 4 0.0861626 0.230755 0.152308
622 2 0.0924951 0.243604 0.131815
913 2 0.192243 0.191616 0.100451
915 4 0.192655 0.177741 0.121247
604 2 0.251393 0.186244 0.159542
606 4 0.258217 0.210105 0.162586
2875 2 0.401847 0.220561 0.0941189
2876 4 0.407177 0.202727 0.110813
378 4 0.41033 0.201136 0.12995
376 2 0.428704 0.212435 0.142597
377 4 0.447078 0.223733 0.155243
396 4 0.0617155 0.283905 0.16192
754 2 0.0773919 0.314118 0.130858
756 4 0.0709445 0.296819 0.14772
252 4 0.135735 0.25203 0.115123
475 2 0.12172 0.323966 0.0962213
755 4 0.0838394 0.331417 0.113996
623 4 0.0988275 0.256454 0.111322
461 4 0.0889403 0.270735 0.0997895
250 2 0.145042 0.269702 0.130165
251 4 0.154348 0.287374 0.145207
476 4 0.103341 0.326825 0.112931
102 3 0.224635 0.306937 0.0860359
105 3 0.227858 0.269793 0.0877272
278 4 0.168327 0.313683 0.135658
277 2 0.186891 0.321108 0.120644
279 4 0.205455 0.328532 0.105629
1121 4 0.223154 0.333614 0.10206
284 4 0.181372 0.300075 0.15486
528 4 0.416131 0.300338 0.0920665
517 2 0.388609 0.286001 0.118823
309 4 0.367434 0.266223 0.151839
519 4 0.380775 0.280474 0.141915
518 4 0.396444 0.291527 0.0957302
2092 2 0.069061 0.393255 0.155057
2094 4 0.0571774 0.397362 0.133445
523 2 0.127925 0.409654 0.0950124
415 2 0.15516 0.357262 0.149788
416 4 0.163702 0.350713 0.12722
968 4 0.170753 0.359538 0.111087
969 4 0.206533 0.384758 0.086912
967 2 0.188643 0.372148 0.0989997
1120 2 0.242823 0.348434 0.0977389
1122 4 0.262492 0.363254 0.0934174
1071 4 0.276585 0.353545 0.103783
1069 2 0.294067 0.361503 0.11979
1070 4 0.31155 0.369461 0.135796
609 4 0.330229 0.374552 0.13491
607 2 0.342918 0.390773 0.12073
608 4 0.355607 0.406994 0.106551
2650 2 0.488259 0.354863 0.0995259
2651 4 0.469665 0.370846 0.104423
2538 4 0.465856 0.38665 0.116518
2536 2 0.464769 0.396195 0.139602
2537 4 0.463681 0.405741 0.162686
2770 2 0.0116657 0.448897 0.118542
328 2 0.059976 0.480133 0.0849585
329 4 0.0434471 0.463973 0.0944899
2772 4 0.0300674 0.462384 0.108312
3761 4 0.0382968 0.481556 0.164969
524 4 0.142981 0.424479 0.108381
768 4 0.140716 0.444399 0.10984
766 2 0.155106 0.458399 0.124742
767 4 0.169497 0.4724 0.139644
638 4 0.183631 0.46924 0.154675
637 2 0.19896 0.487785 0.147871
741 4 0.353946 0.468655 0.125989
740 4 0.347818 0.424826 0.102706
739 2 0.350882 0.44674 0.114347
3704 4 0.476264 0.497372 0.120814
658 2 0.449506 0.485918 0.0955817
398 4 0.126218 0.0103729 0.213861
1478 4 0.123897 0.0111331 0.194505
1477 2 0.122749 0.0131461 0.169609
249 4 0.317773 0.0175718 0.24405
1747 2 0.343587 0.0190568 0.166693
743 4 0.379811 0.0386572 0.171898
1748 4 0.361352 0.0329099 0.177541
742 2 0.377656 0.0635234 0.173384
2675 4 0.00460455 0.0975511 0.197735
2674 2 0.999997 0.122088 0.196359
512 4 0.00189084 0.152288 0.212555
27 3 0.230232 0.112964 0.181628
28 3 0.243018 0.146039 0.169171
26 1 0.24919 0.1248 0.176184
29 3 0.262754 0.126285 0.194951
516 4 0.257832 0.121958 0.214388
514 2 0.269074 0.120516 0.236675
744 4 0.375502 0.0883897 0.17487
520 2 0.483289 0.125849 0.224054
633 4 0.457844 0.147632 0.237924
631 2 0.435454 0.158487 0.240377
521 4 0.478853 0.148395 0.233911
522 4 0.487724 0.103303 0.214197
579 4 0.148209 0.169662 0.169006
577 2 0.127606 0.169641 0.183173
578 4 0.107003 0.16962 0.19734
507 4 0.105076 0.177673 0.21466
505 2 0.115033 0.187533 0.235368
544 2 0.197544 0.235144 0.199104
546 4 0.207956 0.216199 0.211668
731 4 0.243945 0.215435 0.176134
730 2 0.249218 0.239473 0.180551
349 2 0.268278 0.240086 0.243307
333 4 0.412849 0.189941 0.244744
632 4 0.413063 0.169342 0.242831
629 4 0.463423 0.231292 0.16758
332 4 0.426287 0.234292 0.225951
630 4 0.441477 0.233331 0.212468
628 2 0.45245 0.232311 0.190024
331 2 0.419568 0.212117 0.235348
298 2 0.0380245 0.302707 0.238354
299 4 0.0418871 0.313848 0.216305
395 4 0.0379218 0.308215 0.198576
394 2 0.0498186 0.29606 0.180248
545 4 0.187131 0.254089 0.18654
285 4 0.17735 0.270258 0.194803
283 2 0.179361 0.285167 0.174831
611 4 0.22094 0.297679 0.236467
345 4 0.234483 0.305017 0.248601
610 2 0.23198 0.283832 0.218816
350 4 0.248526 0.253763 0.236381
612 4 0.24302 0.269985 0.201165
732 4 0.254492 0.263512 0.184968
307 2 0.364708 0.258564 0.175484
496 2 0.385785 0.272268 0.226033
308 4 0.361982 0.250905 0.199129
498 4 0.379671 0.257005 0.207196
497 4 0.391898 0.28753 0.244871
2093 4 0.0809447 0.389148 0.17667
414 4 0.0429043 0.409102 0.219309
412 2 0.0511573 0.392348 0.235933
537 4 0.0248721 0.407102 0.211903
417 4 0.146618 0.363812 0.172356
361 2 0.148768 0.390595 0.203685
363 4 0.149943 0.381707 0.180344
362 4 0.147593 0.399482 0.227026
728 4 0.165152 0.410554 0.224135
289 2 0.231588 0.396834 0.231637
291 4 0.237687 0.39426 0.207526
627 4 0.247914 0.38266 0.195878
626 4 0.275778 0.412683 0.167191
246 4 0.287701 0.38729 0.194127
625 2 0.261846 0.397671 0.181535
244 2 0.308023 0.383004 0.208049
245 4 0.328345 0.378718 0.221971
387 4 0.346444 0.370769 0.217959
385 2 0.364883 0.363419 0.233163
386 4 0.383322 0.356069 0.248367
276 4 0.398803 0.343766 0.245273
2862 4 0.483039 0.406412 0.247418
712 2 0.477019 0.412824 0.204208
713 4 0.482063 0.414383 0.228648
714 4 0.471975 0.411265 0.179768
1774 2 0.0684204 0.490947 0.19388
1775 4 0.0565375 0.478813 0.175529
264 4 0.0812908 0.47263 0.245489
1382 4 0.101357 0.472176 0.244923
338 4 0.216314 0.497583 0.210317
727 2 0.169303 0.434915 0.22794
337 2 0.202333 0.483242 0.225286
339 4 0.188353 0.4689 0.240254
729 4 0.173455 0.459276 0.231746
1575 4 0.308133 0.43054 0.222507
1573 2 0.312367 0.440747 0.244936
302 4 0.410989 0.492036 0.192634
2849 4 0.0735179 0.0391425 0.263136
1270 2 0.0748839 0.0783208 0.258974
1272 4 0.0848979 0.056278 0.26522
2848 2 0.0893179 0.0201583 0.259245
429 4 0.149584 0.0292105 0.30847
427 2 0.168451 0.0444145 0.314639
428 4 0.187318 0.0596185 0.320808
393 4 0.197024 0.0160039 0.267483
391 2 0.2104 0.0343271 0.277996
392 4 0.223775 0.0526504 0.288509
404 4 0.237329 0.0395751 0.294772
247 2 0.302329 0.0248586 0.262314
403 2 0.261921 0.0359464 0.297458
405 4 0.286514 0.0323178 0.300144
248 4 0.286885 0.0321455 0.280578
1271 4 0.0648698 0.100364 0.252728
1220 4 0.0641263 0.12041 0.24865
1219 2 0.0666542 0.13931 0.264823
1221 4 0.0691822 0.15821 0.280996
459 4 0.0823222 0.156234 0.297677
457 2 0.103829 0.150581 0.309109
458 4 0.125335 0.144928 0.320541
469 2 0.165358 0.14069 0.299225
470 4 0.142478 0.142841 0.309077
471 4 0.188238 0.138538 0.289374
515 4 0.280316 0.119074 0.258962
2910 4 0.291421 0.104795 0.266554
2908 2 0.298869 0.105711 0.290405
2909 4 0.306317 0.106627 0.314256
2657 4 0.321241 0.1096 0.329289
760 2 0.409306 0.143889 0.320299
761 4 0.403011 0.161081 0.30327
2483 4 0.00590904 0.183647 0.313201
2830 2 0.00683113 0.226698 0.31694
2831 4 0.00635034 0.202613 0.310242
506 4 0.124991 0.197393 0.256076
389 4 0.15151 0.245285 0.33135
530 4 0.143517 0.204591 0.257113
529 2 0.150581 0.225358 0.269114
531 4 0.157644 0.246124 0.281116
351 4 0.288031 0.226409 0.250233
764 4 0.292626 0.220469 0.269916
763 2 0.31484 0.220028 0.281385
765 4 0.337054 0.219588 0.292854
508 2 0.341341 0.246546 0.326187
510 4 0.340017 0.226444 0.311376
2591 4 0.458802 0.227898 0.283748
2590 2 0.473798 0.245255 0.273796
2693 4 0.0346817 0.271882 0.257518
300 4 0.0341619 0.291567 0.260402
2692 2 0.0154257 0.256 0.256055
2832 4 0.00731192 0.250782 0.323638
618 4 0.144497 0.31876 0.319475
343 2 0.25005 0.314655 0.265629
344 4 0.265618 0.324293 0.282657
275 4 0.396265 0.296894 0.262515
274 2 0.397534 0.32033 0.253894
2592 4 0.488795 0.262611 0.263844
413 4 0.0594103 0.375594 0.252557
616 2 0.148419 0.341601 0.31009
617 4 0.152341 0.364442 0.300705
2654 4 0.145455 0.37604 0.314792
290 4 0.225489 0.399409 0.255749
735 4 0.209536 0.387969 0.256386
734 4 0.201168 0.396476 0.304949
733 2 0.205352 0.392222 0.280667
365 4 0.210994 0.378699 0.310307
364 2 0.213304 0.363518 0.33004
645 4 0.255962 0.341007 0.282613
643 2 0.264195 0.349747 0.304544
644 4 0.272429 0.358488 0.326476
262 2 0.0760095 0.493304 0.258521
1381 2 0.119676 0.457806 0.254039
3671 4 0.152192 0.435462 0.27461
1383 4 0.137994 0.443435 0.263155
676 2 0.210654 0.487563 0.3092
3670 2 0.173027 0.442159 0.286702
677 4 0.206273 0.46455 0.30046
3672 4 0.193862 0.448856 0.298794
1574 4 0.316601 0.450953 0.267366
1802 4 0.31578 0.438968 0.283332
1801 2 0.321773 0.455654 0.300963
1803 4 0.327766 0.47234 0.318594
752 4 0.339705 0.488982 0.319037
1715 4 0.437092 0.496918 0.251029
2860 2 0.497989 0.424473 0.256107
2237 4 0.00132885 0.0329339 0.392267
2236 2 0.0155416 0.0165446 0.4047
1868 4 0.134999 0.0162515 0.345426
2643 4 0.21427 0.0309419 0.334996
2641 2 0.225869 0.0323006 0.357104
2642 4 0.237469 0.0336594 0.379212
480 4 0.255134 0.0368721 0.383815
478 2 0.256947 0.0564916 0.399209
479 4 0.258759 0.0761111 0.414603
2880 4 0.422155 0.0669281 0.353694
1517 4 0.434446 0.0543375 0.363425
1516 2 0.434111 0.0373449 0.381764
1518 4 0.433775 0.0203523 0.400103
939 4 0.0918578 0.160637 0.413064
708 4 0.202192 0.164456 0.364621
2656 2 0.327354 0.119904 0.351235
2658 4 0.333466 0.130208 0.373181
1031 4 0.34636 0.142642 0.382852
762 4 0.415601 0.126696 0.337327
2879 4 0.403243 0.111643 0.34171
2878 2 0.412699 0.0892857 0.347702
1030 2 0.351209 0.16707 0.380635
2551 2 0.4998 0.116561 0.373397
2553 4 0.495397 0.130469 0.393704
420 4 0.48699 0.131419 0.411601
2613 4 0.0760353 0.172874 0.41081
388 2 0.150288 0.220858 0.336547
390 4 0.149066 0.196431 0.341744
707 4 0.169576 0.193007 0.339687
706 2 0.185884 0.178732 0.352154
371 4 0.23414 0.209251 0.395641
400 2 0.19189 0.197433 0.404059
401 4 0.21626 0.199873 0.399028
370 2 0.242692 0.23045 0.405774
402 4 0.167519 0.194993 0.40909
1032 4 0.356058 0.191499 0.378417
2585 4 0.0131199 0.258957 0.342517
750 4 0.145971 0.265081 0.334567
748 2 0.14517 0.28999 0.336588
749 4 0.144369 0.314898 0.338609
374 4 0.237161 0.308707 0.383508
373 2 0.224914 0.318984 0.364284
375 4 0.212667 0.329261 0.34506
824 4 0.171488 0.262148 0.414345
602 4 0.250297 0.317711 0.394057
372 4 0.251243 0.251648 0.415908
509 4 0.342664 0.266647 0.340998
716 4 0.380147 0.271776 0.385894
717 4 0.341537 0.281385 0.355602
488 4 0.385351 0.28839 0.397464
715 2 0.360842 0.27658 0.370748
487 2 0.400903 0.304475 0.408626
444 4 0.0472463 0.360202 0.416075
2653 2 0.150878 0.39096 0.334109
2655 4 0.1563 0.40588 0.353427
366 4 0.215614 0.348337 0.349773
435 4 0.290496 0.356765 0.333901
433 2 0.289397 0.376287 0.349485
434 4 0.288299 0.395809 0.365069
614 4 0.322162 0.411245 0.344622
118 3 0.422754 0.361349 0.409485
585 4 0.443011 0.403595 0.382992
119 3 0.436406 0.39537 0.399456
1698 4 0.301388 0.493974 0.414734
2107 2 0.319379 0.469169 0.414642
2108 4 0.326322 0.450063 0.400085
615 4 0.326698 0.431222 0.390241
613 2 0.32443 0.421234 0.367431
583 2 0.442762 0.426681 0.373392
584 4 0.442514 0.449766 0.363791
542 4 0.43387 0.461128 0.349013
541 2 0.448407 0.481445 0.350039
982 2 0.0131792 0.0731398 0.492341
599 4 0.297045 0.0330079 0.482675
598 2 0.304899 0.0143881 0.467951
3159 4 0.311311 0.0453121 0.476497
3157 2 0.323917 0.0668288 0.474679
843 4 0.342012 0.0239026 0.493269
4164 4 0.428903 0.00974808 0.416378
1061 4 0.418253 0.0633952 0.450305
1060 2 0.424763 0.0635808 0.474446
1062 4 0.431274 0.0637664 0.498586
983 4 0.032675 0.0850406 0.482169
1035 4 0.0507515 0.086755 0.488939
1033 2 0.0636804 0.102543 0.47449
1034 4 0.0766092 0.11833 0.46004
938 4 0.0816088 0.120101 0.440497
937 2 0.0867333 0.140369 0.426781
474 4 0.218648 0.10027 0.469728
472 2 0.205382 0.115556 0.48441
473 4 0.192116 0.130841 0.499092
651 4 0.259669 0.0899041 0.429414
649 2 0.27035 0.0984006 0.450364
650 4 0.281031 0.106897 0.471314
726 4 0.256134 0.0928091 0.496387
2500 2 0.345461 0.129265 0.48947
2501 4 0.349198 0.153075 0.496126
2502 4 0.341724 0.105455 0.482813
3158 4 0.336523 0.0883454 0.47286
419 4 0.460513 0.140873 0.452956
418 2 0.473752 0.136146 0.432279
2611 2 0.05788 0.187111 0.420447
2612 4 0.0397246 0.201348 0.430084
2847 4 0.0217988 0.211921 0.433793
2845 2 0.0327999 0.234152 0.436946
341 4 0.120986 0.167318 0.434474
340 2 0.144391 0.173936 0.428677
342 4 0.167795 0.180554 0.422879
367 2 0.200853 0.226147 0.484948
369 4 0.210537 0.243035 0.469258
1191 4 0.255613 0.25014 0.435914
642 4 0.32671 0.229777 0.482625
320 4 0.349154 0.174015 0.495308
319 2 0.345647 0.19672 0.485441
321 4 0.34214 0.219425 0.475573
2846 4 0.043801 0.256383 0.4401
260 4 0.0592837 0.261188 0.452839
259 2 0.0734476 0.276793 0.466295
669 4 0.15544 0.273088 0.41865
261 4 0.0876115 0.292398 0.47975
667 2 0.138055 0.288267 0.42827
668 4 0.12067 0.303446 0.43789
694 2 0.151928 0.30738 0.495546
696 4 0.155851 0.28283 0.492884
695 4 0.148004 0.33193 0.498208
635 4 0.144394 0.334042 0.4276
825 4 0.200718 0.251309 0.453445
823 2 0.186103 0.256728 0.433895
1394 4 0.229023 0.284368 0.484927
1190 4 0.231517 0.282728 0.465207
1189 2 0.243565 0.266434 0.450561
601 2 0.258815 0.324294 0.416625
813 4 0.330298 0.326925 0.472746
872 4 0.310502 0.318118 0.468013
871 2 0.288697 0.328941 0.462304
603 4 0.267333 0.330878 0.439192
640 2 0.337597 0.250427 0.473668
811 2 0.344673 0.307411 0.466602
812 4 0.359047 0.287897 0.460458
489 4 0.416455 0.32056 0.419787
641 4 0.348483 0.271078 0.464712
267 4 0.433876 0.324668 0.429884
265 2 0.444601 0.310824 0.44773
451 2 0.48989 0.281182 0.471373
453 4 0.46955 0.292621 0.480354
266 4 0.455326 0.296979 0.465576
443 4 0.0714261 0.391102 0.447079
442 2 0.0593362 0.375652 0.431577
1640 4 0.0620913 0.405041 0.438571
636 4 0.115633 0.371342 0.444399
634 2 0.130014 0.352692 0.435999
873 4 0.266892 0.339764 0.456596
2923 2 0.38482 0.410247 0.438407
2925 4 0.398154 0.392082 0.42757
238 2 0.498684 0.406608 0.470448
116 1 0.43254 0.380923 0.417197
117 3 0.418195 0.391058 0.432051
120 3 0.452148 0.376168 0.42776
1639 2 0.0696778 0.428864 0.438873
548 4 0.0201252 0.494213 0.440096
1641 4 0.0772644 0.452687 0.439175
538 2 0.12649 0.449079 0.500061
539 4 0.146615 0.462422 0.49357
2138 4 0.122 0.487934 0.443678
2139 4 0.0886368 0.452983 0.456565
2137 2 0.105318 0.470459 0.450122
326 4 0.208466 0.447495 0.484955
709 2 0.201479 0.461335 0.453737
711 4 0.216472 0.460334 0.473721
710 4 0.186485 0.462336 0.433752
2242 2 0.166059 0.49264 0.499512
2109 4 0.312437 0.488276 0.4292
2924 4 0.371486 0.428411 0.449244
240 4 0.476612 0.418303 0.471557
2316 4 0.198782 0.0310174 0.532822
2314 2 0.198431 0.0481099 0.551068
1151 4 0.178424 0.0284563 0.528602
1150 2 0.184174 0.0139505 0.509065
2315 4 0.19808 0.0652023 0.569314
945 4 0.21569 0.072743 0.574065
725 4 0.245387 0.0730315 0.541042
1181 4 0.260157 0.0625761 0.548399
724 2 0.25076 0.0829203 0.518715
1180 2 0.256265 0.0510057 0.57022
1141 2 0.393807 0.0546235 0.550522
1143 4 0.372454 0.0556285 0.537552
841 2 0.353215 0.03035 0.514672
842 4 0.364419 0.0367974 0.536075
576 4 0.415195 0.0345985 0.570502
1142 4 0.415159 0.0536185 0.563492
2516 4 0.436737 0.0805908 0.509304
918 4 0.161993 0.151671 0.574722
916 2 0.181036 0.139873 0.563618
944 4 0.214668 0.121616 0.563524
943 2 0.215179 0.0971795 0.568794
917 4 0.20008 0.128074 0.552514
2515 2 0.441532 0.105029 0.511524
2517 4 0.446328 0.129468 0.513745
3462 4 0.0626574 0.17386 0.56075
3461 4 0.0727521 0.222602 0.555956
3044 4 0.0760454 0.23655 0.542337
3460 2 0.0677048 0.198231 0.558353
7 3 0.134621 0.237106 0.533643
6 1 0.14852 0.218803 0.534634
8 3 0.154922 0.21543 0.55668
9 3 0.137035 0.200229 0.526791
10 3 0.166878 0.222617 0.521708
348 4 0.169733 0.215706 0.5705
346 2 0.193082 0.223697 0.566478
411 4 0.231096 0.243232 0.567234
347 4 0.21643 0.231687 0.562456
368 4 0.191169 0.209258 0.500639
857 4 0.316018 0.176655 0.563125
898 2 0.4132 0.187361 0.549741
899 4 0.406391 0.191861 0.526107
856 2 0.335078 0.170755 0.578194
900 4 0.420008 0.182862 0.573375
268 2 0.443981 0.232024 0.558886
270 4 0.464765 0.223564 0.547857
3309 4 0.482206 0.218235 0.538861
269 4 0.423196 0.240484 0.569914
3043 2 0.0841312 0.259998 0.545498
3045 4 0.0922169 0.283446 0.54866
935 4 0.0896016 0.290939 0.567144
934 2 0.100493 0.312209 0.574501
409 2 0.242576 0.258481 0.551083
1393 2 0.243979 0.287752 0.504677
1395 4 0.258934 0.291136 0.524427
410 4 0.254055 0.27373 0.534931
1039 2 0.0592052 0.380092 0.573258
1040 4 0.0395893 0.364627 0.574362
384 4 0.022354 0.371004 0.570582
382 2 0.0110315 0.353978 0.556191
383 4 0.999709 0.336953 0.5418
1041 4 0.0788212 0.395558 0.572155
1136 4 0.0824824 0.393921 0.553545
1135 2 0.0953006 0.407993 0.537332
936 4 0.111385 0.33348 0.581857
772 2 0.191888 0.406883 0.556344
773 4 0.200945 0.409901 0.533234
774 4 0.182831 0.403865 0.579453
1173 4 0.320317 0.364703 0.514794
1171 2 0.322011 0.389221 0.519394
1172 4 0.323705 0.413739 0.523995
891 4 0.368752 0.350968 0.581553
1137 4 0.108119 0.422064 0.521119
1981 2 0.124728 0.490946 0.56397
1983 4 0.138255 0.474716 0.577342
540 4 0.106366 0.435735 0.506553
2243 4 0.146816 0.477941 0.505743
327 4 0.196955 0.430129 0.530415
325 2 0.202711 0.438812 0.507685
1028 4 0.324121 0.430051 0.535148
1454 4 0.317151 0.497707 0.56106
1027 2 0.344859 0.436915 0.547313
1029 4 0.365598 0.443778 0.559478
1239 4 0.379644 0.433614 0.569161
1952 4 0.387157 0.499612 0.515172
1951 2 0.410897 0.494745 0.521328
1978 2 0.472132 0.497263 0.529639
1980 4 0.495697 0.49266 0.522661
1953 4 0.434637 0.489877 0.527483
718 2 0.006257 0.00219187 0.624449
1182 4 0.252374 0.0394354 0.592042
1256 4 0.26244 0.043897 0.665627
965 4 0.296293 0.000173772 0.652181
1130 4 0.338597 0.0748092 0.616362
1005 4 0.343672 0.0143337 0.614761
1003 2 0.346752 0.0385389 0.609302
1004 4 0.349833 0.0627441 0.603844
887 4 0.403042 0.0350106 0.633406
886 2 0.410043 0.0373648 0.657294
574 2 0.433507 0.0306665 0.587067
3438 4 0.464193 0.0391914 0.595232
575 4 0.451818 0.0267345 0.603632
3436 2 0.484087 0.0366544 0.610164
1212 4 0.148739 0.150942 0.590554
1210 2 0.153532 0.158982 0.613739
1155 4 0.242292 0.132775 0.646322
1283 4 0.229112 0.132311 0.631017
1282 2 0.206491 0.132069 0.641667
1284 4 0.18387 0.131828 0.652318
1129 2 0.321857 0.0892101 0.628091
1153 2 0.264552 0.121387 0.646405
1131 4 0.305117 0.103611 0.63982
1154 4 0.286812 0.11 0.646489
949 2 0.306358 0.157634 0.635718
950 4 0.330232 0.155017 0.642669
951 4 0.282483 0.160252 0.628766
2319 4 0.347018 0.147662 0.647511
2317 2 0.359973 0.126937 0.652784
2318 4 0.372928 0.106211 0.658057
1259 4 0.157441 0.186635 0.645003
1211 4 0.158324 0.167022 0.636925
1258 2 0.167268 0.209559 0.643246
1260 4 0.177094 0.232483 0.641489
897 4 0.176509 0.25102 0.650038
1086 4 0.239855 0.223714 0.664948
977 4 0.275125 0.175278 0.640524
976 2 0.266495 0.197414 0.648315
978 4 0.257865 0.21955 0.656105
858 4 0.354137 0.164855 0.593264
895 2 0.160049 0.261836 0.665441
807 4 0.437985 0.327861 0.654456
790 2 0.42867 0.298891 0.628258
791 4 0.434739 0.307453 0.650952
792 4 0.422602 0.290329 0.605563
889 2 0.358937 0.372956 0.588289
1205 4 0.356956 0.401808 0.611356
890 4 0.349122 0.394944 0.595025
1204 2 0.341384 0.414954 0.625843
803 4 0.405621 0.383428 0.657539
802 2 0.41017 0.402684 0.642251
805 2 0.430055 0.351511 0.65272
806 4 0.422125 0.37516 0.650985
3463 2 0.472838 0.415587 0.653926
2130 4 0.123786 0.467984 0.588967
2129 4 0.129386 0.445032 0.633042
942 4 0.119048 0.433894 0.64621
940 2 0.13038 0.420305 0.663877
2128 2 0.126586 0.456508 0.611004
1206 4 0.325813 0.428101 0.64033
1139 4 0.326928 0.429623 0.659265
1237 2 0.389746 0.428327 0.591413
804 4 0.414719 0.421939 0.626963
1238 4 0.399849 0.423041 0.613666
3370 2 0.397699 0.483814 0.652018
3372 4 0.375826 0.474763 0.643966
3371 4 0.419572 0.492866 0.660071
3464 4 0.477087 0.434937 0.638672
1007 4 0.447207 0.461363 0.601385
1006 2 0.464413 0.457683 0.61915
1008 4 0.481619 0.454003 0.636915
3491 4 0.49442 0.494585 0.655578
2990 4 0.128849 0.0159749 0.747305
959 4 0.260073 0.0610833 0.67353
1255 2 0.274803 0.0222751 0.667821
1257 4 0.287167 0.000653269 0.670015
958 2 0.264073 0.0817058 0.687091
952 2 0.402898 0.0710546 0.704022
953 4 0.415755 0.0589015 0.686354
954 4 0.39004 0.0832077 0.721691
888 4 0.417043 0.039719 0.681182
834 4 0.050738 0.110711 0.736849
947 4 0.145559 0.127979 0.711965
851 4 0.137203 0.145616 0.704682
850 2 0.116233 0.158321 0.709583
946 2 0.15837 0.128501 0.690499
948 4 0.171181 0.129023 0.669033
2255 4 0.234669 0.148905 0.704568
960 4 0.268073 0.102328 0.700652
2256 4 0.275411 0.120919 0.696976
2254 2 0.25504 0.134912 0.700772
1026 4 0.38664 0.0959641 0.735345
1177 2 0.0774782 0.198163 0.736905
852 4 0.0952625 0.171026 0.714483
1178 4 0.0891445 0.189038 0.71676
1299 4 0.188105 0.198124 0.692024
1084 2 0.219934 0.219073 0.679328
1085 4 0.200013 0.214431 0.693708
1297 2 0.178711 0.200567 0.715067
1298 4 0.169317 0.203011 0.73811
1193 4 0.495156 0.168278 0.749692
1010 4 0.48979 0.168851 0.730083
154 3 0.0217756 0.281159 0.708297
1067 4 0.0334292 0.297719 0.710702
1066 2 0.0544421 0.291987 0.698423
885 4 0.0241008 0.309393 0.725731
155 3 0.00437873 0.311201 0.722874
151 1 0.00125936 0.291044 0.712744
1068 4 0.0754551 0.286255 0.686144
883 2 0.0352923 0.329558 0.735391
896 4 0.143589 0.272652 0.680844
992 4 0.1286 0.275433 0.667768
991 2 0.11042 0.284523 0.68233
993 4 0.0922409 0.293614 0.696892
796 2 0.243113 0.323357 0.732716
798 4 0.257326 0.311408 0.749461
1044 4 0.257188 0.292728 0.741928
1281 4 0.00106046 0.363675 0.67811
1279 2 0.0118383 0.367486 0.700347
1280 4 0.0226162 0.371297 0.722585
884 4 0.0464837 0.349723 0.74505
815 4 0.0447214 0.369629 0.74666
941 4 0.141712 0.406716 0.681543
1098 4 0.159677 0.414323 0.675503
797 4 0.2289 0.335306 0.715971
1278 4 0.202308 0.385671 0.705894
1276 2 0.206319 0.36103 0.707267
1097 4 0.192232 0.401734 0.711313
1096 2 0.175954 0.408028 0.693408
1277 4 0.21033 0.336388 0.70864
1016 4 0.361011 0.37544 0.732337
1015 2 0.354328 0.394145 0.71715
1017 4 0.347645 0.412851 0.701964
1019 4 0.353551 0.364246 0.746837
3465 4 0.468589 0.396237 0.669181
999 4 0.463909 0.389607 0.686508
997 2 0.460218 0.380946 0.709671
998 4 0.456527 0.372286 0.732835
1138 2 0.329789 0.427576 0.68402
1140 4 0.332651 0.425529 0.708774
3368 4 0.477644 0.481787 0.713164
3367 2 0.490549 0.483293 0.691801
1296 4 0.00881878 0.0674437 0.826432
2312 4 0.00815811 0.0440603 0.797949
1215 4 0.0685963 0.0371794 0.821264
1213 2 0.0451658 0.044921 0.825296
1214 4 0.0217353 0.0526625 0.829328
2989 2 0.129976 0.0334982 0.765106
2991 4 0.131103 0.0510215 0.782906
908 4 0.131401 0.0713271 0.786054
907 2 0.13975 0.0678885 0.80937
909 4 0.148099 0.0644498 0.832686
3591 4 0.11822 0.000494599 0.753886
1969 2 0.330436 0.00436094 0.823442
1036 2 0.324543 0.0621784 0.830791
2321 4 0.359144 0.00129895 0.80138
2320 2 0.380657 0.0116622 0.793964
1025 4 0.367458 0.0629523 0.76764
2322 4 0.402169 0.0220254 0.786548
1024 2 0.377049 0.0794582 0.751493
42 3 0.486884 0.0481562 0.806538
41 1 0.494112 0.0689711 0.813145
819 4 0.420417 0.0289027 0.791938
817 2 0.427328 0.0409867 0.812708
832 2 0.0526905 0.115108 0.761386
833 4 0.0546431 0.119505 0.785922
863 4 0.0614531 0.116505 0.803981
862 2 0.0847549 0.120144 0.812285
864 4 0.108057 0.123782 0.820589
868 2 0.142816 0.138645 0.799416
870 4 0.122159 0.126599 0.806719
869 4 0.163473 0.150691 0.792113
1038 4 0.332344 0.0847648 0.82343
43 3 0.476208 0.0837129 0.812404
1179 4 0.0658118 0.207287 0.75705
922 2 0.0701148 0.235053 0.784084
923 4 0.0729112 0.211672 0.775677
840 4 0.162574 0.207355 0.756623
1022 4 0.224069 0.178877 0.776
1023 4 0.233671 0.174649 0.824894
1021 2 0.22887 0.176763 0.800447
838 2 0.174847 0.21783 0.775723
839 4 0.187119 0.228305 0.794824
801 4 0.204887 0.231723 0.802125
799 2 0.223257 0.241709 0.815835
3328 2 0.294878 0.223959 0.789785
1092 4 0.297124 0.192473 0.807761
3329 4 0.309535 0.204441 0.795209
3330 4 0.280221 0.243476 0.784362
1090 2 0.289646 0.180222 0.828234
924 4 0.0673184 0.258434 0.792491
800 4 0.241627 0.251696 0.829546
1208 4 0.17168 0.286469 0.827502
1064 4 0.185971 0.289628 0.81514
1065 4 0.231682 0.308604 0.822291
1063 2 0.208826 0.299116 0.818716
1241 4 0.234863 0.322436 0.807901
1043 4 0.270478 0.261241 0.778433
1042 2 0.263833 0.276984 0.76018
3348 4 0.366414 0.260131 0.827067
1051 2 0.388594 0.28047 0.798441
1052 4 0.368721 0.26872 0.808042
1053 4 0.408468 0.292219 0.788841
3346 2 0.342266 0.255491 0.8316
865 2 0.440152 0.309304 0.784263
866 4 0.460002 0.319885 0.795182
1166 4 0.474951 0.329829 0.8041
867 4 0.420303 0.298724 0.773343
814 2 0.038656 0.392635 0.754348
816 4 0.0325906 0.415641 0.762035
4208 4 0.00510707 0.366823 0.812466
1170 4 0.00982309 0.35953 0.830776
1240 2 0.232781 0.34726 0.80575
1242 4 0.230699 0.372083 0.803598
1020 4 0.312825 0.357648 0.775096
1018 2 0.333188 0.360947 0.760966
189 3 0.408607 0.402827 0.783575
1250 4 0.487508 0.394071 0.794614
1249 2 0.467688 0.408698 0.790326
2029 2 0.249602 0.48929 0.796971
2031 4 0.247717 0.498081 0.820303
85 3 0.291252 0.434538 0.762182
2030 4 0.251487 0.4805 0.77364
84 3 0.296159 0.4371 0.799424
83 3 0.324086 0.423942 0.777258
81 1 0.306366 0.438856 0.778661
82 3 0.314434 0.460249 0.776126
186 1 0.414731 0.425134 0.781765
188 3 0.397894 0.437142 0.771241
2213 4 0.384443 0.447266 0.780445
2214 4 0.335481 0.456784 0.776861
2212 2 0.359962 0.452025 0.778653
2288 4 0.343207 0.498758 0.791021
2287 2 0.349288 0.498546 0.815273
190 3 0.418698 0.433806 0.802446
187 3 0.433904 0.426581 0.769138
1251 4 0.447868 0.423325 0.786038
1988 4 0.438575 0.434343 0.800945
1987 2 0.443986 0.450159 0.819539
829 2 0.147957 0.0181143 0.902408