ITEM: TIMESTEP
2260000
ITEM: NUMBER OF ATOMS
4590
ITEM: BOX BOUNDS pp pp pp
-9.9985700000000008e+00 9.9985700000000008e+00
-9.9985700000000008e+00 9.9985700000000008e+00
-9.9985700000000008e+00 9.9985700000000008e+00
ITEM: ATOMS id type xs ys zs
566 4 0.217181 0.038428 0.0445567
565 2 0.232909 0.0511065 0.0592893
485 4 0.226543 0.0219238 0.0390298
567 4 0.248638 0.063785 0.0740218
356 4 0.251218 0.0727082 0.0921537
746 4 0.455793 0.0269488 0.0272189
745 2 0.463764 0.0340268 0.0498361
747 4 0.471736 0.0411047 0.0724533
2624 4 0.0363609 0.103014 0.0389541
2623 2 0.011609 0.0994859 0.038684
656 4 0.0474935 0.113799 0.0514857
655 2 0.0548437 0.131944 0.0670383
657 4 0.0621939 0.15009 0.0825909
700 2 0.0909736 0.110809 0.0149379
701 4 0.106125 0.127661 0.0255033
450 4 0.117146 0.122238 0.0420976
448 2 0.1337 0.140749 0.039176
915 4 0.163781 0.164062 0.0502198
449 4 0.150253 0.159259 0.0362543
571 2 0.25111 0.141774 0.0608934
572 4 0.231768 0.157122 0.0569584
913 2 0.188648 0.162383 0.0522191
914 4 0.213514 0.160704 0.0542184
360 4 0.238956 0.169444 0.990372
573 4 0.270452 0.126425 0.0648283
357 4 0.278815 0.108887 0.0714129
355 2 0.265016 0.0907976 0.0817833
557 4 0.410288 0.0890237 0.00425475
556 2 0.396472 0.0974746 0.0233039
558 4 0.382656 0.105925 0.0423531
254 4 0.387658 0.104149 0.0614574
253 2 0.396446 0.109112 0.0843335
2638 2 0.495618 0.110981 0.0350489
2639 4 0.496221 0.095771 0.0152125
2640 4 0.495015 0.12619 0.0548854
2894 4 0.506589 0.14175 0.053738
580 2 0.242656 0.216687 0.0771543
581 4 0.237153 0.235836 0.0620476
296 4 0.229682 0.249256 0.0490775
295 2 0.236213 0.244777 0.0253613
2806 2 0.0596811 0.320178 0.0696195
2808 4 0.0667251 0.323236 0.0458243
455 4 0.12001 0.313716 0.0239181
287 4 0.107581 0.317825 0.0378965
454 2 0.117335 0.293664 0.00922251
968 4 0.201737 0.31202 0.0757571
967 2 0.185669 0.328944 0.0847328
297 4 0.242745 0.240298 0.00164511
2839 2 0.46643 0.302052 0.0637507
2840 4 0.45611 0.283383 0.0767948
2841 4 0.476749 0.320722 0.0507065
329 4 0.0538406 0.337877 0.0417951
328 2 0.0538884 0.356178 0.0247577
288 4 0.105499 0.367781 0.0369753
286 2 0.10654 0.342803 0.0374359
2094 4 0.135606 0.413836 0.0747115
969 4 0.1696 0.345868 0.0937086
482 4 0.237249 0.366269 0.994305
902 4 0.250935 0.379827 0.998631
901 2 0.259885 0.375993 0.021661
903 4 0.268836 0.372159 0.0446907
1069 2 0.382716 0.367419 0.026194
1070 4 0.381735 0.374173 0.050248
14 3 0.362071 0.39575 0.0379462
2652 4 0.382731 0.379132 0.0698854
741 4 0.342661 0.418915 0.080934
672 4 0.485465 0.337422 0.0442193
670 2 0.485258 0.358384 0.030592
323 4 0.484593 0.389284 0.999198
671 4 0.485051 0.379347 0.0169647
322 2 0.495425 0.409441 0.00927541
2983 2 0.0538135 0.482147 0.0185112
2984 4 0.0361389 0.479515 0.00102223
2985 4 0.0714882 0.484778 0.0360001
1708 2 0.0736997 0.464541 0.0705507
1710 4 0.0703234 0.484567 0.055965
2093 4 0.131933 0.443387 0.0345374
2092 2 0.13377 0.428611 0.0546245
523 2 0.253016 0.463759 0.069358
494 4 0.256863 0.470577 0.0376422
525 4 0.25481 0.482933 0.0534112
493 2 0.249473 0.483664 0.0176595
15 3 0.348334 0.421014 0.0622492
11 1 0.362511 0.417946 0.0446922
13 3 0.356362 0.43171 0.0270524
596 4 0.384171 0.443576 0.0529414
12 3 0.383909 0.423317 0.051205
595 2 0.401818 0.452212 0.0684069
597 4 0.419465 0.460848 0.0838723
660 4 0.475637 0.465247 0.0837658
659 4 0.42777 0.479554 0.0859356
658 2 0.451703 0.4724 0.0848507
324 4 0.506258 0.429598 0.0193525
957 4 0.459993 0.498142 0.0196902
955 2 0.439018 0.487244 0.0115378
3704 4 0.495766 0.462656 0.0827006
2805 4 0.506641 0.470043 0.0664298
692 4 0.282491 0.014672 0.165192
691 2 0.274714 0.0384209 0.164362
693 4 0.266937 0.0621697 0.163533
2469 4 0.502272 0.00313984 0.106004
25 3 0.488694 0.0409836 0.0817095
23 3 0.46664 0.0490476 0.111142
1448 4 0.457279 0.032208 0.116658
1447 2 0.453866 0.0161973 0.135558
21 1 0.488341 0.049244 0.10293
24 3 0.496694 0.0708909 0.103139
1449 4 0.450454 0.000186656 0.154457
22 3 0.501514 0.0360595 0.116412
2760 4 0.0443579 0.103239 0.159889
578 4 0.111678 0.14956 0.152568
577 2 0.131446 0.13472 0.156334
579 4 0.151214 0.11988 0.160101
236 4 0.155704 0.10827 0.176429
730 2 0.302385 0.15601 0.153711
732 4 0.292312 0.14161 0.135925
279 4 0.281671 0.145271 0.118888
731 4 0.312458 0.170411 0.171497
255 4 0.405234 0.114075 0.10721
758 4 0.396847 0.110641 0.124861
757 2 0.41563 0.10764 0.141089
759 4 0.434413 0.104639 0.157318
738 4 0.0581109 0.168407 0.0876078
737 4 0.0402001 0.194272 0.126478
736 2 0.0491555 0.18134 0.107043
703 2 0.00840456 0.17388 0.163422
2512 2 0.99428 0.227558 0.114028
2513 4 0.00284207 0.205529 0.105867
462 4 0.135735 0.220071 0.086184
460 2 0.157952 0.214594 0.0962622
505 2 0.0983629 0.182458 0.162096
506 4 0.0971446 0.207208 0.158762
756 4 0.103841 0.211592 0.140957
754 2 0.09953 0.236178 0.139497
461 4 0.180169 0.209118 0.10634
582 4 0.248159 0.197538 0.092261
623 4 0.190825 0.224858 0.115104
283 2 0.244926 0.197653 0.164761
284 4 0.241535 0.214765 0.146849
624 4 0.231255 0.232868 0.143423
622 2 0.21104 0.228863 0.129263
278 4 0.248666 0.180394 0.105553
277 2 0.265168 0.162833 0.11222
378 4 0.451557 0.224384 0.159148
2514 4 0.985718 0.249586 0.12219
2807 4 0.0526371 0.31712 0.0934146
477 4 0.0646212 0.300493 0.0940112
475 2 0.0795774 0.289282 0.110619
476 4 0.0945336 0.278071 0.127226
755 4 0.0952192 0.260764 0.138038
309 4 0.335345 0.266864 0.160156
519 4 0.346813 0.279343 0.149731
518 4 0.392532 0.266716 0.133887
528 4 0.406022 0.264875 0.119178
517 2 0.369672 0.27303 0.141809
526 2 0.424916 0.26709 0.102951
527 4 0.443809 0.269305 0.0867242
252 4 0.165934 0.363694 0.10279
250 2 0.149697 0.379254 0.091862
251 4 0.13346 0.394814 0.0809336
417 4 0.136809 0.349031 0.156745
363 4 0.15337 0.354609 0.167102
612 4 0.306009 0.345534 0.154049
609 4 0.303423 0.344022 0.13461
607 2 0.315279 0.364223 0.125861
608 4 0.327136 0.384423 0.117113
740 4 0.336314 0.400214 0.126876
2650 2 0.398083 0.370025 0.0873949
739 2 0.339488 0.409565 0.103905
2536 2 0.402676 0.373751 0.14655
2651 4 0.413434 0.360918 0.104904
2538 4 0.407335 0.363533 0.124211
1709 4 0.077076 0.444515 0.0851365
313 2 0.0385531 0.4262 0.0953744
315 4 0.0608139 0.43308 0.0863024
314 4 0.0162922 0.41932 0.104446
1787 4 0.0596467 0.44893 0.169558
1786 2 0.0801611 0.455012 0.156621
2618 4 0.0158773 0.439039 0.173655
290 4 0.120625 0.464488 0.145322
289 2 0.144328 0.456585 0.146285
1788 4 0.100675 0.461093 0.143685
291 4 0.16803 0.448682 0.147249
766 2 0.243121 0.496501 0.132337
627 4 0.182511 0.446432 0.133334
626 4 0.225587 0.421562 0.128175
768 4 0.236844 0.472304 0.132871
625 2 0.204049 0.433997 0.130755
524 4 0.251221 0.444584 0.0853049
246 4 0.253834 0.446903 0.10529
244 2 0.273655 0.445227 0.120439
387 4 0.310835 0.451533 0.142681
245 4 0.293477 0.44355 0.135588
385 2 0.315984 0.441866 0.165158
721 2 0.227738 0.0781724 0.173308
723 4 0.248744 0.0646128 0.173549
2758 2 0.031724 0.124656 0.162507
2759 4 0.0190902 0.146074 0.165125
507 4 0.0995812 0.157707 0.165431
235 2 0.180241 0.108991 0.171673
722 4 0.206732 0.0917321 0.173067
237 4 0.204777 0.109713 0.166916
392 4 0.225445 0.158545 0.258572
30 3 0.315794 0.117556 0.252729
28 3 0.325672 0.153888 0.25243
606 4 0.321798 0.157913 0.185554
604 2 0.321445 0.159908 0.210475
605 4 0.321092 0.161904 0.235397
705 4 0.0142028 0.15752 0.181419
530 4 0.0696962 0.174229 0.256069
512 4 0.0726857 0.181914 0.238855
511 2 0.0611895 0.196222 0.221876
513 4 0.0496933 0.210531 0.204898
2693 4 0.0438092 0.228314 0.212118
2799 4 0.0248375 0.233358 0.211326
2692 2 0.049941 0.248344 0.198467
546 4 0.22057 0.164847 0.240802
544 2 0.231532 0.175592 0.221064
545 4 0.242494 0.186337 0.201327
285 4 0.248318 0.180542 0.182674
498 4 0.302323 0.249473 0.214745
496 2 0.306268 0.251385 0.239361
308 4 0.309904 0.245594 0.197586
631 2 0.397903 0.173242 0.248961
633 4 0.404837 0.191232 0.233042
376 2 0.443789 0.233633 0.18104
629 4 0.431051 0.244457 0.221812
377 4 0.436021 0.242881 0.202933
628 2 0.441282 0.227937 0.237547
2694 4 0.0560729 0.268375 0.184816
396 4 0.0670294 0.279131 0.197825
300 4 0.0499835 0.302096 0.211294
394 2 0.0845731 0.293729 0.187612
416 4 0.121967 0.309118 0.182964
415 2 0.129388 0.329075 0.169855
395 4 0.102117 0.308327 0.177399
365 4 0.137709 0.316315 0.264689
307 2 0.322624 0.256229 0.178871
413 4 0.0647742 0.404312 0.178642
412 2 0.0571449 0.411437 0.201362
361 2 0.164997 0.368261 0.184527
362 4 0.176624 0.381912 0.201952
339 4 0.19146 0.372069 0.20973
337 2 0.215101 0.380204 0.209999
338 4 0.238742 0.38834 0.210269
610 2 0.295859 0.349691 0.176518
345 4 0.291826 0.343422 0.214351
611 4 0.285709 0.353848 0.198987
343 2 0.302468 0.344745 0.236938
344 4 0.313109 0.346067 0.259525
2537 4 0.398016 0.38397 0.16889
714 4 0.403701 0.399724 0.179799
1574 4 0.335894 0.400648 0.225665
2619 4 0.012645 0.488874 0.17625
414 4 0.0495157 0.418561 0.224083
681 4 0.0418067 0.438181 0.221699
679 2 0.0356333 0.462126 0.225401
680 4 0.0294599 0.486071 0.229104
2617 2 0.0142611 0.463956 0.174952
1776 4 0.0154292 0.419707 0.16921
1386 4 0.11787 0.442891 0.234026
1384 2 0.120538 0.466196 0.225367
1385 4 0.123206 0.4895 0.216708
1641 4 0.111197 0.445333 0.253065
503 4 0.186408 0.47377 0.253345
1573 2 0.332032 0.422257 0.213694
1575 4 0.32817 0.443866 0.201722
386 4 0.321133 0.432199 0.187635
712 2 0.396805 0.419087 0.194036
713 4 0.389909 0.43845 0.208273
2862 4 0.395905 0.457771 0.202272
2860 2 0.416236 0.464647 0.215099
231 4 0.450314 0.474454 0.213511
2861 4 0.436568 0.471523 0.227926
229 2 0.468637 0.475852 0.196557
1473 4 0.437621 0.483463 0.244189
1471 2 0.459148 0.473103 0.251567
1472 4 0.480676 0.462744 0.258946
427 2 0.153106 0.00988847 0.303405
429 4 0.158736 0.0311474 0.315302
1700 4 0.248883 0.00822928 0.297401
1699 2 0.251275 0.0101226 0.322218
405 4 0.269676 0.0710343 0.246268
248 4 0.277439 0.0558508 0.255453
249 4 0.260029 0.0246547 0.290444
247 2 0.268734 0.0402527 0.272949
1748 4 0.409616 0.0607558 0.298788
743 4 0.422804 0.0684963 0.284435
1747 2 0.423184 0.0404407 0.304118
1749 4 0.436751 0.0201256 0.309447
742 2 0.429542 0.0901626 0.273931
2716 2 0.0109427 0.124016 0.315181
2831 4 0.0102224 0.155611 0.296163
391 2 0.205322 0.145863 0.266282
393 4 0.1852 0.133181 0.273992
2849 4 0.168205 0.143225 0.281
403 2 0.284621 0.0899985 0.252761
404 4 0.299567 0.108963 0.259254
27 3 0.29474 0.142665 0.270594
26 1 0.316246 0.136772 0.264944
516 4 0.343866 0.124839 0.294882
29 3 0.328483 0.133508 0.284386
514 2 0.349683 0.111348 0.315113
762 4 0.413397 0.133785 0.321587
632 4 0.390969 0.155251 0.264881
515 4 0.355501 0.0978562 0.335345
2910 4 0.398923 0.121567 0.331679
744 4 0.43628 0.111829 0.263426
698 4 0.453256 0.120509 0.256447
697 2 0.473284 0.127498 0.269684
760 2 0.427288 0.139783 0.301681
761 4 0.441178 0.145781 0.281775
522 4 0.442761 0.165735 0.284635
699 4 0.493311 0.134488 0.282921
2553 4 0.485661 0.12892 0.30129
459 4 0.0664682 0.229603 0.318349
457 2 0.0843031 0.21246 0.314716
2832 4 0.995001 0.202579 0.28822
2830 2 0.00261185 0.179095 0.292192
529 2 0.0928878 0.177761 0.264721
531 4 0.116079 0.181294 0.273373
2850 4 0.133951 0.176238 0.265587
2848 2 0.151078 0.159731 0.273294
458 4 0.102138 0.195317 0.311082
750 4 0.216098 0.27095 0.296627
389 4 0.225074 0.255043 0.30461
332 4 0.385916 0.160846 0.283603
331 2 0.380034 0.169719 0.306227
333 4 0.374153 0.178592 0.328851
350 4 0.359177 0.189469 0.320308
630 4 0.451512 0.211416 0.253283
521 4 0.455289 0.212697 0.272874
419 4 0.492097 0.190075 0.307323
520 2 0.449025 0.189216 0.278755
298 2 0.0513103 0.303835 0.236202
299 4 0.0526372 0.305573 0.26111
735 4 0.0653107 0.29881 0.27517
733 2 0.076266 0.310513 0.294358
617 4 0.133916 0.298883 0.254134
616 2 0.149459 0.279727 0.258212
734 4 0.0872213 0.322217 0.313546
618 4 0.165002 0.26057 0.262289
2654 4 0.0985994 0.327357 0.329391
749 4 0.1732 0.252013 0.279254
748 2 0.194649 0.261482 0.28794
388 2 0.236572 0.266628 0.323551
707 4 0.286832 0.251952 0.326541
497 4 0.310213 0.253297 0.263977
763 2 0.322522 0.286706 0.285911
765 4 0.321401 0.30332 0.304563
510 4 0.317205 0.322296 0.306272
764 4 0.323644 0.270092 0.267259
364 2 0.130844 0.340262 0.262551
366 4 0.12398 0.36421 0.260413
603 4 0.144714 0.36947 0.259051
601 2 0.164926 0.384168 0.259835
602 4 0.185139 0.398866 0.260618
434 4 0.234877 0.379592 0.310963
508 2 0.304754 0.343561 0.310505
509 4 0.292303 0.364827 0.314738
645 4 0.330308 0.355924 0.259938
433 2 0.259625 0.381311 0.31409
435 4 0.284373 0.383031 0.317216
643 2 0.331238 0.378741 0.270122
644 4 0.332167 0.401558 0.280305
274 2 0.373516 0.411184 0.298037
276 4 0.396295 0.416134 0.307082
614 4 0.414417 0.406285 0.303169
275 4 0.350738 0.406235 0.288992
613 2 0.423122 0.385607 0.314207
108 3 0.476262 0.393684 0.275246
615 4 0.431827 0.36493 0.325245
1640 4 0.117186 0.406861 0.284446
3670 2 0.121448 0.481135 0.327616
1639 2 0.114192 0.426097 0.268755
3672 4 0.138322 0.466808 0.31599
677 4 0.154789 0.457668 0.320542
728 4 0.183559 0.411761 0.275944
729 4 0.194064 0.454829 0.252803
727 2 0.188812 0.433295 0.264374
375 4 0.223501 0.458888 0.312949
678 4 0.20478 0.458155 0.319362
676 2 0.179785 0.457912 0.319952
373 2 0.233986 0.469193 0.333174
1801 2 0.303577 0.489026 0.316138
1219 2 0.0767279 0.0700555 0.41731
1220 4 0.0878692 0.0875259 0.403316
2429 4 0.221486 0.00932056 0.411831
600 4 0.240614 0.0163813 0.414281
468 4 0.264796 0.0150061 0.363686
1701 4 0.253668 0.012016 0.347035
2642 4 0.313799 0.0807441 0.409608
479 4 0.323755 0.0861757 0.391523
1518 4 0.365953 0.0393422 0.390905
1516 2 0.381965 0.0290127 0.407094
1517 4 0.397976 0.0186833 0.423284
1496 4 0.435507 0.0204715 0.328221
1497 4 0.455456 0.00098463 0.36973
1495 2 0.445481 0.0107281 0.348975
2718 4 0.0235507 0.1061 0.327234
686 4 0.0564496 0.125992 0.38433
687 4 0.0295246 0.112338 0.344463
685 2 0.0429871 0.119165 0.364397
342 4 0.0501847 0.135091 0.3996
824 4 0.055151 0.16977 0.401056
469 2 0.109137 0.16312 0.339152
1272 4 0.12389 0.131286 0.367447
470 4 0.117604 0.142653 0.350754
1270 2 0.114575 0.111159 0.378993
1271 4 0.105259 0.091032 0.390538
650 4 0.27168 0.1345 0.387183
649 2 0.278126 0.150814 0.405001
478 2 0.33323 0.0867198 0.368391
480 4 0.342705 0.0872638 0.345259
2656 2 0.38154 0.150476 0.407449
2909 4 0.378213 0.146544 0.369731
2908 2 0.388568 0.134055 0.350705
2657 4 0.36943 0.154297 0.38591
823 2 0.0764958 0.180519 0.408407
1198 2 0.0199805 0.187624 0.400674
1200 4 0.034457 0.167256 0.399799
2636 4 0.0133731 0.221471 0.389402
1199 4 0.00550407 0.207992 0.401549
471 4 0.100671 0.183587 0.32755
825 4 0.0978405 0.191268 0.415758
368 4 0.116314 0.251155 0.406979
351 4 0.323506 0.215371 0.343916
715 2 0.310349 0.218568 0.379081
717 4 0.31004 0.224426 0.354775
716 4 0.310658 0.212709 0.403386
488 4 0.329555 0.209923 0.407854
708 4 0.323806 0.265787 0.357237
402 4 0.25992 0.230673 0.420979
349 2 0.341341 0.20242 0.332112
442 2 0.102842 0.307978 0.410496
443 4 0.115841 0.3216 0.394044
2653 2 0.100704 0.323422 0.353993
2655 4 0.102809 0.319487 0.378595
706 2 0.305319 0.25887 0.341889
390 4 0.248069 0.278214 0.342492
400 2 0.263901 0.250016 0.405642
370 2 0.267942 0.29072 0.369541
371 4 0.257589 0.294672 0.347127
372 4 0.278294 0.286768 0.391955
401 4 0.267882 0.269358 0.390306
871 2 0.332144 0.325415 0.416884
2800 2 0.0201856 0.346297 0.328534
2801 4 0.0444805 0.34594 0.322634
635 4 0.24409 0.371642 0.404208
873 4 0.31253 0.334545 0.40435
668 4 0.253667 0.353388 0.400155
667 2 0.278229 0.352231 0.404691
669 4 0.30279 0.351074 0.409227
2924 4 0.440043 0.347352 0.327227
2925 4 0.459384 0.355546 0.372609
2923 2 0.449713 0.351449 0.349918
116 1 0.454524 0.374004 0.405641
118 3 0.457039 0.394135 0.394379
117 3 0.461882 0.356933 0.392091
119 3 0.432147 0.37048 0.410665
374 4 0.244472 0.479499 0.353399
1802 4 0.30949 0.468859 0.329685
2107 2 0.248034 0.458212 0.387383
2109 4 0.254648 0.467825 0.365269
5 3 0.335964 0.488608 0.373907
2 3 0.340363 0.451549 0.37343
1 1 0.340101 0.470619 0.360568
4 3 0.323428 0.468637 0.344553
2108 4 0.241419 0.448598 0.409496
447 4 0.387573 0.450037 0.404326
3 3 0.36075 0.472993 0.350253
445 2 0.396873 0.473151 0.40222
446 4 0.406174 0.496265 0.400115
543 4 0.41343 0.50965 0.386208
3590 4 0.0693455 0.0110159 0.489976
1772 4 0.0680845 0.997793 0.473964
939 4 0.0574119 0.0520854 0.449148
937 2 0.0553621 0.0672004 0.46896
938 4 0.0533123 0.0823154 0.488772
1034 4 0.0361865 0.0816597 0.499137
1221 4 0.0655866 0.0525851 0.431304
599 4 0.253146 0.0479979 0.450942
598 2 0.24688 0.0321896 0.432612
682 2 0.329317 0.0594018 0.486198
2641 2 0.329064 0.0757715 0.428777
2643 4 0.344328 0.070799 0.447946
684 4 0.334284 0.0600586 0.461702
4239 4 0.472448 0.0535853 0.416975
2880 4 0.411042 0.0308864 0.434185
2879 4 0.455752 0.0420854 0.414786
2878 2 0.433397 0.0364859 0.424485
4237 2 0.497298 0.0520492 0.414683
340 2 0.0537169 0.132122 0.424174
341 4 0.0572491 0.129154 0.448749
651 4 0.284571 0.167128 0.422819
2658 4 0.393649 0.146654 0.428988
2501 4 0.406566 0.134601 0.437853
2502 4 0.434522 0.100407 0.414403
2500 2 0.420544 0.117504 0.426128
2611 2 0.995558 0.219024 0.449222
2613 4 0.991773 0.197193 0.46081
982 2 0.997351 0.164351 0.475929
984 4 0.00697121 0.186754 0.470387
369 4 0.102223 0.207888 0.427718
367 2 0.109269 0.229522 0.417349
473 4 0.272897 0.175301 0.436577
474 4 0.247266 0.217449 0.428367
472 2 0.260082 0.196375 0.432472
642 4 0.298425 0.214009 0.48325
640 2 0.305285 0.236155 0.473885
641 4 0.312145 0.2583 0.464521
487 2 0.344023 0.214842 0.427644
489 4 0.358491 0.21976 0.447435
265 2 0.400495 0.221843 0.435877
267 4 0.377957 0.219783 0.446506
452 4 0.481547 0.21693 0.45879
451 2 0.462668 0.21925 0.442562
453 4 0.443788 0.221571 0.426333
266 4 0.423033 0.223902 0.425247
2846 4 0.984916 0.289404 0.418036
259 2 0.0812396 0.284719 0.462248
695 4 0.0676628 0.303214 0.499889
261 4 0.0710743 0.290414 0.484371
444 4 0.0898436 0.294357 0.426948
260 4 0.0914049 0.279024 0.440126
812 4 0.326257 0.270913 0.472902
811 2 0.333452 0.285779 0.454129
813 4 0.340647 0.300645 0.435356
872 4 0.351758 0.316285 0.429419
2506 2 0.492011 0.257004 0.475154
2508 4 0.4698 0.257803 0.486609
407 4 0.014345 0.393094 0.450052
3352 2 0.0338841 0.381258 0.488345
3354 4 0.0217853 0.384693 0.466735
634 2 0.225542 0.358295 0.414357
636 4 0.206994 0.344949 0.424507
774 4 0.174692 0.376214 0.479349
773 4 0.203346 0.414179 0.463911
772 2 0.189019 0.395197 0.47163
1395 4 0.173841 0.356872 0.478892
711 4 0.217515 0.402519 0.460117
327 4 0.27995 0.425097 0.464283
336 4 0.411697 0.423914 0.47127
584 4 0.418059 0.404803 0.470092
120 3 0.466846 0.374223 0.424792
585 4 0.429708 0.385598 0.425414
583 2 0.423884 0.395201 0.447753
384 4 0.0853216 0.437019 0.465436
382 2 0.0890971 0.43274 0.441092
383 4 0.0928726 0.428461 0.416748
935 4 0.0869286 0.425021 0.480673
570 4 0.109022 0.482188 0.437937
593 4 0.234084 0.49958 0.449505
594 4 0.247846 0.456737 0.427691
592 2 0.240965 0.478159 0.438598
709 2 0.238838 0.400488 0.447218
929 4 0.320443 0.479441 0.481847
1173 4 0.271131 0.422866 0.481959
753 4 0.333183 0.434987 0.444277
326 4 0.326776 0.442556 0.462507
325 2 0.303363 0.433827 0.463395
710 4 0.260161 0.398458 0.434319
1171 2 0.254763 0.424219 0.500812
334 2 0.39864 0.439835 0.485454
752 4 0.368986 0.442401 0.410162
751 2 0.351084 0.438694 0.427219
2712 4 0.472159 0.435525 0.442867
1033 2 0.0205565 0.0782978 0.518361
3589 2 0.0845162 0.00958725 0.5098
3591 4 0.0996868 0.00815857 0.529624
1035 4 0.00492651 0.0749359 0.537586
1151 4 0.244739 0.994539 0.540757
1180 2 0.242834 0.0318744 0.534474
1181 4 0.254344 0.0540585 0.533727
725 4 0.248247 0.0714458 0.541734
1182 4 0.231324 0.00969019 0.535221
575 4 0.2856 0.00540487 0.531451
574 2 0.300042 0.0235832 0.52217
576 4 0.314485 0.0417615 0.512889
683 4 0.32435 0.0587451 0.510694
842 4 0.492064 0.0469756 0.538633
841 2 0.479397 0.065935 0.548893
724 2 0.247707 0.096352 0.543871
726 4 0.247168 0.121258 0.546009
857 4 0.235799 0.12847 0.532418
856 2 0.239084 0.153223 0.531128
843 4 0.466729 0.0848944 0.559152
878 4 0.0988132 0.237095 0.571353
9 3 0.113175 0.24014 0.558682
346 2 0.160921 0.228872 0.56911
348 4 0.153797 0.245588 0.551935
8 3 0.141794 0.259198 0.542491
347 4 0.168045 0.212156 0.586286
858 4 0.24237 0.177976 0.529838
320 4 0.257154 0.18242 0.516064
319 2 0.27644 0.196787 0.509223
321 4 0.295727 0.211154 0.502382
2813 4 0.0523343 0.248922 0.537366
2812 2 0.0350662 0.2654 0.544814
2814 4 0.017798 0.281878 0.552262
3333 4 0.00155743 0.292452 0.543857
696 4 0.0889586 0.281238 0.53944
10 3 0.106889 0.273308 0.542008
6 1 0.121845 0.261185 0.554174
7 3 0.125928 0.271966 0.57408
694 2 0.0783107 0.292226 0.519665
1191 4 0.183929 0.30684 0.577009
897 4 0.169811 0.293352 0.583051
1189 2 0.192851 0.317899 0.556435
1190 4 0.201772 0.328959 0.535862
270 4 0.472331 0.249213 0.561089
3309 4 0.458389 0.256212 0.548898
3307 2 0.46693 0.261531 0.526008
3308 4 0.475471 0.266849 0.503118
3353 4 0.0459829 0.377823 0.509955
1041 4 0.138133 0.418241 0.568827
1394 4 0.192478 0.333214 0.518813
1393 2 0.183159 0.345043 0.498852
1027 2 0.243084 0.403773 0.557557
1029 4 0.243284 0.39172 0.579463
1239 4 0.260074 0.38071 0.581521
1237 2 0.284183 0.375371 0.58545
804 4 0.323782 0.373896 0.578674
3324 4 0.485305 0.366099 0.564832
934 2 0.0877046 0.431083 0.504918
936 4 0.0884806 0.437144 0.529164
1040 4 0.0998584 0.42368 0.537107
1039 2 0.118996 0.420961 0.552967
1135 2 0.170028 0.443095 0.577349
1136 4 0.154726 0.423555 0.580383
538 2 0.168094 0.495448 0.550403
1028 4 0.242884 0.415826 0.535651
540 4 0.17406 0.478483 0.567775
1454 4 0.251107 0.507336 0.526784
1137 4 0.185331 0.462635 0.574315
1172 4 0.238394 0.425572 0.519665
880 2 0.278352 0.494025 0.552793
882 4 0.268749 0.495937 0.529786
239 4 0.337423 0.460154 0.535902
881 4 0.287956 0.492114 0.575799
928 2 0.317864 0.494384 0.501728
238 2 0.360667 0.456944 0.527266
240 4 0.383911 0.453734 0.518629
335 4 0.385583 0.455757 0.499638
1001 4 0.467889 0.4752 0.568909
926 4 0.463036 0.462248 0.582103
1000 2 0.449582 0.492211 0.568092
3082 2 0.0438393 0.997971 0.626421
3083 4 0.0414707 0.00815015 0.649136
1130 4 0.132564 0.0594516 0.646351
1129 2 0.142702 0.0602308 0.669194
1284 4 0.250355 0.053625 0.661842
2317 2 0.212817 0.0321976 0.669082
2318 4 0.18954 0.0230714 0.669298
1282 2 0.249994 0.0784141 0.66509
1032 4 0.346358 0.064998 0.604604
1031 4 0.346103 0.0151386 0.600771
1030 2 0.346231 0.0400683 0.602688
1142 4 0.358925 0.0736972 0.617003
3179 4 0.0452073 0.12882 0.65123
3178 2 0.0233131 0.125819 0.639533
1283 4 0.249632 0.103203 0.668338
1155 4 0.23627 0.117117 0.669168
1141 2 0.356161 0.0985446 0.617389
1143 4 0.353398 0.123392 0.617774
887 4 0.367847 0.139027 0.618469
886 2 0.381727 0.141952 0.639059
888 4 0.395608 0.144877 0.659649
3043 2 0.0707372 0.212583 0.647768
879 4 0.0875665 0.228908 0.619386
3045 4 0.0726187 0.232721 0.633068
3044 4 0.0688556 0.192445 0.662468
3461 4 0.0665459 0.18032 0.679193
877 2 0.0931899 0.233002 0.595369
409 2 0.288758 0.246793 0.667956
411 4 0.31365 0.248723 0.66659
900 4 0.361968 0.186756 0.64411
898 2 0.36879 0.209348 0.635847
899 4 0.375611 0.231939 0.627585
792 4 0.391179 0.240444 0.634146
1263 4 0.427806 0.211173 0.64542
1261 2 0.428484 0.204378 0.669473
3123 4 0.440793 0.200105 0.635962
3122 4 0.429184 0.218878 0.59109
3121 2 0.434988 0.209492 0.613526
992 4 0.192406 0.277779 0.639658
991 2 0.181191 0.280234 0.66187
896 4 0.194977 0.270939 0.619998
895 2 0.182394 0.282146 0.601524
790 2 0.396438 0.260975 0.620879
805 2 0.364774 0.301422 0.600196
807 4 0.382225 0.283574 0.601638
791 4 0.401697 0.281506 0.607612
806 4 0.347323 0.31927 0.598754
803 4 0.351827 0.338787 0.600618
268 2 0.470245 0.258358 0.584267
269 4 0.468158 0.267503 0.607444
1238 4 0.308292 0.370032 0.589379
802 2 0.337805 0.356341 0.589646
3372 4 0.458814 0.341121 0.650924
1006 2 0.494112 0.32635 0.659617
3322 2 0.463465 0.359939 0.575331
3323 4 0.441624 0.353779 0.585829
1007 4 0.475736 0.331563 0.643483
3370 2 0.453261 0.342015 0.626562
3371 4 0.447707 0.342909 0.602199
2128 2 0.074373 0.453178 0.660814
2129 4 0.0607155 0.4375 0.674702
1982 4 0.0744576 0.491933 0.596146
1981 2 0.0881628 0.485653 0.616093
2130 4 0.0880306 0.468855 0.646926
1983 4 0.101868 0.479373 0.636041
1953 4 0.274882 0.502212 0.635583
1951 2 0.275143 0.493157 0.612278
1952 4 0.275405 0.484103 0.588973
889 2 0.30607 0.507936 0.658682
925 2 0.481738 0.455232 0.597142
2990 4 0.0462431 0.0176001 0.6659
2989 2 0.0564529 0.0266259 0.686863
2991 4 0.0666628 0.0356516 0.707827
864 4 0.0626303 0.0289136 0.726388
862 2 0.0797074 0.0405043 0.740502
944 4 0.149868 0.0696912 0.708663
1131 4 0.15284 0.0610101 0.692037
943 2 0.164195 0.0631151 0.728071
2319 4 0.236095 0.0413239 0.668866
945 4 0.178522 0.0565391 0.747479
2255 4 0.192491 0.0427217 0.747435
950 4 0.323444 0.0433656 0.671393
1091 4 0.306484 0.0888225 0.73374
949 2 0.338259 0.0241477 0.677424
951 4 0.353074 0.00492992 0.683455
954 4 0.388003 0.0805326 0.683668
1217 4 0.434841 0.0068794 0.731234
1216 2 0.425468 0.0289185 0.724051
1218 4 0.416095 0.0509575 0.716867
4550 4 0.482653 0.0287076 0.769232
1164 4 0.446793 0.990486 0.73019
3462 4 0.0405572 0.148225 0.650993
3460 2 0.0535516 0.164272 0.665093
948 4 0.16464 0.164684 0.701646
1153 2 0.239349 0.140732 0.676785
1154 4 0.242428 0.164347 0.684402
1092 4 0.286124 0.131258 0.716845
1090 2 0.296304 0.11004 0.725293
976 2 0.292147 0.160174 0.690671
977 4 0.288649 0.136165 0.696713
953 4 0.396844 0.12637 0.665738
952 2 0.392424 0.103451 0.674703
3425 4 0.403098 0.143832 0.730539
1009 2 0.47327 0.126831 0.665408
1010 4 0.449012 0.128083 0.671337
1024 2 0.424708 0.145316 0.701391
1026 4 0.432793 0.13483 0.680182
1025 4 0.416624 0.155802 0.722601
946 2 0.147677 0.16251 0.719886
947 4 0.130713 0.160337 0.738126
851 4 0.122279 0.179544 0.742989
1210 2 0.230105 0.222742 0.683015
1211 4 0.207981 0.211092 0.683013
1299 4 0.234264 0.165892 0.704099
1260 4 0.180892 0.156837 0.69376
1259 4 0.214836 0.193309 0.689481
1258 2 0.197864 0.175073 0.691621
1297 2 0.248458 0.18066 0.718438
410 4 0.263866 0.244864 0.669321
1212 4 0.252228 0.234392 0.683017
1298 4 0.262652 0.195427 0.732778
978 4 0.295645 0.184183 0.68463
1084 2 0.317063 0.203812 0.716178
1086 4 0.310802 0.191038 0.695616
1085 4 0.323323 0.216586 0.73674
1262 4 0.429162 0.197584 0.693526
1194 4 0.447767 0.206817 0.695803
1193 4 0.468056 0.186682 0.736835
1192 2 0.457911 0.196749 0.716319
155 3 0.0513765 0.280037 0.750072
993 4 0.169977 0.28269 0.684082
1068 4 0.155843 0.292395 0.69391
1066 2 0.152555 0.317061 0.691472
3329 4 0.35951 0.268579 0.750832
1281 4 0.00823849 0.354462 0.74956
1067 4 0.149267 0.341727 0.689034
1098 4 0.161435 0.421795 0.714823
1096 2 0.183471 0.410933 0.710173
1097 4 0.205507 0.400071 0.705522
1278 4 0.207898 0.380238 0.705369
1276 2 0.226191 0.370202 0.719147
1277 4 0.244485 0.360167 0.732925
797 4 0.240354 0.365225 0.752014
3181 2 0.361577 0.397741 0.707058
3182 4 0.379688 0.405797 0.722298
3183 4 0.343465 0.389684 0.691818
3464 4 0.468867 0.375014 0.690417
3463 2 0.458309 0.380817 0.712327
3465 4 0.44775 0.38662 0.734237
998 4 0.46332 0.393561 0.743321
894 4 0.0499129 0.421802 0.668521
892 2 0.0255922 0.426682 0.671662
941 4 0.144456 0.425407 0.704989
940 2 0.126991 0.443167 0.707164
942 4 0.109525 0.460927 0.709339
890 4 0.316931 0.510143 0.681095
1204 2 0.337251 0.48951 0.716158
1206 4 0.350382 0.478659 0.734461
1139 4 0.365176 0.469564 0.744532
1205 4 0.324119 0.500361 0.697855
1249 2 0.488721 0.485165 0.723003
1295 4 0.0036258 0.0579254 0.825911
863 4 0.0967845 0.052095 0.754616
1203 4 0.113561 0.0697895 0.758844
1201 2 0.12257 0.0557668 0.777482
1202 4 0.131579 0.041744 0.79612
831 4 0.142539 0.0440771 0.812897
1107 4 0.0908645 0.0776056 0.75738
829 2 0.153866 0.0629185 0.824808
2254 2 0.19075 0.0217568 0.760949
2256 4 0.189009 0.000791833 0.774463
959 4 0.3061 0.0119483 0.800792
1050 4 0.288241 0.0492339 0.809438
1048 2 0.278019 0.0716861 0.813513
1256 4 0.319607 0.998375 0.793658
958 2 0.286028 0.0144293 0.815493
960 4 0.265955 0.0169102 0.830193
2321 4 0.408498 0.0107536 0.836728
1215 4 0.0279564 0.147842 0.827869
1213 2 0.0371839 0.129626 0.813439
1214 4 0.0464113 0.111411 0.799009
1106 4 0.062865 0.109558 0.783758
1105 2 0.0768648 0.0935819 0.770569
830 4 0.165193 0.08176 0.836719
908 4 0.190848 0.137012 0.788641
907 2 0.209775 0.146845 0.775592
909 4 0.228702 0.156677 0.762544
1049 4 0.267798 0.0941384 0.817588
1021 2 0.27022 0.125918 0.798783
1023 4 0.28224 0.108905 0.812613
1022 4 0.258201 0.142932 0.784952
818 4 0.422182 0.0726329 0.824758
44 3 0.410054 0.154287 0.804523
3424 2 0.408812 0.140966 0.754712
3426 4 0.414527 0.138101 0.778884
41 1 0.42342 0.13554 0.807406
45 3 0.421763 0.121943 0.789212
42 3 0.445273 0.142293 0.809853
1179 4 0.0544997 0.176371 0.814961
1177 2 0.0633271 0.191349 0.796991
1178 4 0.0721544 0.206327 0.779021
833 4 0.00676483 0.188676 0.78854
850 2 0.106101 0.193866 0.755572
852 4 0.0899235 0.208188 0.768155
839 4 0.249947 0.223622 0.79648
838 2 0.252638 0.216281 0.77273
840 4 0.25533 0.208939 0.748981
1146 4 0.456877 0.167218 0.823221
3362 4 0.466857 0.246964 0.77215
1144 2 0.465228 0.183174 0.805875
1145 4 0.473579 0.199129 0.78853
2978 4 0.480731 0.202057 0.769011
3361 2 0.476147 0.250727 0.795057
154 3 0.0153167 0.273255 0.758518
778 2 0.029991 0.254524 0.817656
780 4 0.0476154 0.259177 0.800542
153 3 0.0430602 0.260195 0.780971
151 1 0.0364434 0.27757 0.767088
152 3 0.0356617 0.297009 0.779361
1209 4 0.0712488 0.278876 0.751679
1208 4 0.112642 0.302955 0.766084
1064 4 0.130148 0.310137 0.769771
1207 2 0.0919456 0.290916 0.758882
1063 2 0.148219 0.327349 0.771315
917 4 0.198619 0.298224 0.821927
916 2 0.222342 0.295754 0.814422
918 4 0.246064 0.293284 0.806917
801 4 0.261578 0.285423 0.798516
1042 2 0.314526 0.330399 0.776439
799 2 0.276096 0.284833 0.818865
3328 2 0.3572 0.291662 0.760162
3330 4 0.35489 0.314744 0.769492
1043 4 0.334832 0.31854 0.76794
3363 4 0.485438 0.25449 0.817963
50 3 0.498132 0.258601 0.832989
884 4 0.0502681 0.372362 0.792299
1279 2 0.994147 0.367046 0.765939
1280 4 0.980056 0.379631 0.782317
883 2 0.0731851 0.382337 0.791606
2173 2 0.995697 0.399443 0.819277