ITEM: TIMESTEP
3250000
ITEM: NUMBER OF ATOMS
4590
ITEM: BOX BOUNDS pp pp pp
-9.9985700000000008e+00 9.9985700000000008e+00
-9.9985700000000008e+00 9.9985700000000008e+00
-9.9985700000000008e+00 9.9985700000000008e+00
ITEM: ATOMS id type xs ys zs
3232 2 0.0448399 0.0024029 0.0540902
3234 4 0.069076 0.00822699 0.0560574
2625 4 0.00868968 0.0672638 0.0365809
2270 4 0.0724902 0.0183977 0.0392294
2269 2 0.0933914 0.00832244 0.0299124
702 4 0.102212 0.0156124 0.0696699
2271 4 0.114293 0.998247 0.0205954
486 4 0.170865 0.996216 0.01579
484 2 0.182169 0.0172188 0.0232918
485 4 0.193473 0.0382216 0.0307936
25 3 0.461093 0.0871162 0.0836145
655 2 0.0341243 0.151004 0.0476928
656 4 0.0300169 0.12766 0.0397327
2624 4 0.0280632 0.112425 0.0273159
2623 2 0.0183764 0.0898444 0.0319484
465 4 0.0856719 0.118551 0.0214637
553 2 0.114193 0.15067 0.0110029
554 4 0.10024 0.130302 0.0149552
355 2 0.222019 0.0944751 0.0287555
356 4 0.219706 0.0856754 0.0520448
357 4 0.224333 0.103275 0.00546613
722 4 0.230034 0.0910857 0.0698734
1607 4 0.423698 0.0893571 0.0242233
745 2 0.444532 0.093404 0.055155
746 4 0.421716 0.0898067 0.0455804
2976 4 0.483719 0.0933372 0.0513576
747 4 0.467347 0.0970012 0.0647295
149 3 0.480109 0.160615 0.999251
657 4 0.0382317 0.174348 0.055653
738 4 0.043356 0.191053 0.0448784
736 2 0.0661131 0.201338 0.0436493
555 4 0.128146 0.171038 0.00705054
737 4 0.0888702 0.211623 0.0424201
837 4 0.129491 0.190939 0.00872375
835 2 0.118117 0.205965 0.0251567
836 4 0.106742 0.22099 0.0415896
456 4 0.166705 0.200716 0.0277339
294 4 0.183102 0.207988 0.016917
454 2 0.169075 0.217952 0.045692
455 4 0.171445 0.235187 0.0636501
296 4 0.268881 0.226076 0.016982
295 2 0.286396 0.210563 0.00816328
902 4 0.262273 0.234384 0.000574885
297 4 0.30391 0.195051 0.999345
518 4 0.373508 0.250433 0.0739406
528 4 0.390788 0.251467 0.0620355
2806 2 0.0528125 0.298818 0.0131447
2807 4 0.0552326 0.312151 0.0341578
475 2 0.0607713 0.299237 0.068232
477 4 0.0534467 0.317758 0.0531149
288 4 0.159983 0.298952 0.0729389
250 2 0.127657 0.31815 0.0875209
251 4 0.102988 0.322037 0.0887487
287 4 0.171682 0.254158 0.0540361
286 2 0.165832 0.276555 0.0634875
526 2 0.39851 0.264121 0.0419003
527 4 0.406231 0.276775 0.021765
102 3 0.345069 0.328861 0.0188817
2840 4 0.425039 0.284813 0.0272367
2839 2 0.43582 0.306493 0.0209966
2841 4 0.446601 0.328172 0.0147565
2514 4 0.0249342 0.344729 0.0475716
2513 4 0.0614283 0.374184 0.0302145
2512 2 0.0431813 0.359457 0.0388931
329 4 0.0675263 0.391965 0.0352243
328 2 0.0771487 0.414074 0.0418426
493 2 0.236148 0.38491 0.0663946
494 4 0.232523 0.40263 0.0491305
525 4 0.224909 0.417964 0.0606199
1121 4 0.348498 0.344744 0.0308368
1120 2 0.358921 0.34363 0.0535371
1122 4 0.369343 0.342515 0.0762373
13 3 0.366104 0.419615 0.0345974
672 4 0.460528 0.342392 0.0122787
670 2 0.476844 0.361257 0.0140394
671 4 0.493159 0.380122 0.0158
323 4 0.488733 0.399712 0.00953104
552 4 0.0950039 0.441736 0.0307633
330 4 0.0867711 0.436182 0.0484608
550 2 0.0978861 0.458856 0.0127688
638 4 0.138961 0.491611 0.0637088
2443 2 0.210495 0.462131 0.00117952
2445 4 0.19679 0.478431 0.0142814
523 2 0.217819 0.438314 0.0732997
2336 4 0.187525 0.489374 0.997849
242 4 0.283778 0.435246 0.0486259
243 4 0.252874 0.422068 0.0115858
241 2 0.268326 0.428657 0.0301058
11 1 0.366052 0.434038 0.0527733
15 3 0.352818 0.452041 0.0483694
12 3 0.387565 0.441212 0.0566345
596 4 0.395121 0.459092 0.0602797
14 3 0.358335 0.422968 0.071649
595 2 0.414936 0.465982 0.0738836
322 2 0.493448 0.424207 0.00781128
324 4 0.498163 0.448702 0.00609152
1422 4 0.0277998 0.00307421 0.135729
381 4 0.0308913 0.0231246 0.128571
379 2 0.0305469 0.0406723 0.146379
380 4 0.0302025 0.05822 0.164188
700 2 0.111935 0.0179008 0.0925914
701 4 0.121659 0.0201891 0.115513
566 4 0.120159 0.0208859 0.13588
565 2 0.14122 0.030576 0.145245
567 4 0.162281 0.0402661 0.154611
448 2 0.197117 0.0796349 0.114552
450 4 0.179281 0.0734481 0.130945
692 4 0.322262 0.07867 0.125423
253 2 0.413753 0.0626558 0.118648
255 4 0.389771 0.0697287 0.118546
1504 2 0.360044 0.081578 0.125463
1506 4 0.382063 0.0872516 0.115063
1505 4 0.338025 0.0759043 0.135863
254 4 0.437735 0.055583 0.118749
2469 4 0.453713 0.0436275 0.123596
23 3 0.454483 0.0552485 0.102546
2467 2 0.459584 0.041982 0.147844
21 1 0.464797 0.0760247 0.103157
22 3 0.487425 0.0730128 0.105988
2758 2 0.0709118 0.150247 0.0933702
2760 4 0.0466985 0.149169 0.099513
2759 4 0.0951251 0.151325 0.0872273
705 4 0.110194 0.163885 0.0915869
577 2 0.112331 0.147108 0.163116
236 4 0.131773 0.108297 0.153585
579 4 0.122054 0.124095 0.162105
235 2 0.153781 0.100252 0.144862
449 4 0.214954 0.0858217 0.0981578
237 4 0.175789 0.0922065 0.136139
915 4 0.208171 0.120791 0.131106
913 2 0.203662 0.14008 0.115848
721 2 0.245535 0.0925401 0.0894383
914 4 0.199154 0.159369 0.100591
723 4 0.261036 0.0939946 0.109003
693 4 0.280948 0.100254 0.10731
691 2 0.301605 0.089462 0.116367
758 4 0.402333 0.0949626 0.161852
24 3 0.456592 0.0884206 0.120974
757 2 0.416835 0.114395 0.167956
703 2 0.111076 0.188768 0.0938808
704 4 0.111959 0.21365 0.0961747
578 4 0.102608 0.170121 0.164128
462 4 0.108367 0.231318 0.0872148
460 2 0.10989 0.246215 0.107239
581 4 0.195293 0.176987 0.0913753
580 2 0.209674 0.197424 0.0905345
582 4 0.224056 0.21786 0.0896936
278 4 0.226529 0.231442 0.105494
277 2 0.241426 0.239266 0.123988
279 4 0.256323 0.247089 0.142483
732 4 0.276614 0.250364 0.1429
517 2 0.36183 0.249739 0.0960389
2875 2 0.453784 0.203666 0.129426
2877 4 0.466048 0.184653 0.14007
2876 4 0.441521 0.222679 0.118782
378 4 0.429092 0.236006 0.126604
376 2 0.416058 0.24496 0.145972
756 4 0.045779 0.281835 0.148257
396 4 0.0383149 0.295498 0.162202
754 2 0.0508168 0.282529 0.123776
755 4 0.0558546 0.283224 0.0992955
476 4 0.068096 0.280717 0.083349
252 4 0.152326 0.314262 0.086293
461 4 0.111413 0.261112 0.127262
623 4 0.105581 0.279172 0.135591
622 2 0.111699 0.273193 0.159085
519 4 0.350153 0.249045 0.118137
309 4 0.36317 0.254131 0.132414
307 2 0.365622 0.272509 0.149189
377 4 0.403025 0.253913 0.16534
308 4 0.368074 0.290887 0.165964
1071 4 0.380992 0.330511 0.087693
1069 2 0.389097 0.331055 0.11134
2093 4 0.0533007 0.366138 0.136738
2092 2 0.07255 0.375592 0.149594
2094 4 0.0917994 0.385045 0.16245
362 4 0.112516 0.385175 0.16498
495 4 0.239773 0.367191 0.0836587
969 4 0.227633 0.369532 0.101502
967 2 0.237865 0.365049 0.123871
968 4 0.248097 0.360565 0.14624
612 4 0.261787 0.355686 0.160562
608 4 0.326983 0.415037 0.142801
1070 4 0.397203 0.331599 0.134987
2652 4 0.392792 0.348706 0.144833
2650 2 0.411776 0.351042 0.160936
2618 4 0.048327 0.476262 0.0989325
1709 4 0.0555811 0.483733 0.0813957
2617 2 0.0264077 0.488228 0.100178
524 4 0.21073 0.458664 0.0859796
768 4 0.225169 0.464317 0.100014
766 2 0.232037 0.466981 0.123907
626 4 0.244899 0.488864 0.15276
767 4 0.238905 0.469646 0.147801
625 2 0.227317 0.50153 0.165236
740 4 0.336004 0.432216 0.137436
607 2 0.324223 0.424367 0.165834
741 4 0.347728 0.427071 0.0890957
739 2 0.341866 0.429644 0.113266
597 4 0.434751 0.472873 0.0874876
659 4 0.436196 0.48628 0.102498
658 2 0.456547 0.496622 0.0922974
233 4 0.0134146 0.0679056 0.160475
397 2 0.0890215 0.0291277 0.255073
1477 2 0.129819 0.00610166 0.216018
398 4 0.11209 0.0304809 0.245524
1478 4 0.113587 0.0173478 0.231355
2849 4 0.20075 0.0397412 0.244726
393 4 0.194571 0.0582664 0.241564
2848 2 0.181126 0.0242518 0.244308
743 4 0.408847 0.0251424 0.210006
742 2 0.409136 0.0447181 0.225558
1748 4 0.411292 0.0260029 0.189456
744 4 0.409425 0.0642937 0.241111
1747 2 0.409055 0.00513787 0.175861
2468 4 0.465455 0.0403364 0.172093
771 4 0.466561 0.0486178 0.190621
769 2 0.477033 0.0713072 0.191465
432 4 0.424014 0.0747903 0.248384
232 2 0.00322512 0.087499 0.172199
2484 4 0.056674 0.16368 0.235957
512 4 0.0373131 0.108165 0.250856
2674 2 0.00691308 0.116282 0.223372
2675 4 0.992647 0.113773 0.202992
2676 4 0.021179 0.118791 0.243753
27 3 0.271039 0.15791 0.223248
759 4 0.431336 0.133828 0.17406
2703 4 0.48659 0.110517 0.20537
2701 2 0.496602 0.132104 0.213046
770 4 0.487504 0.0939967 0.19231
507 4 0.117355 0.177268 0.173706
530 4 0.106929 0.20751 0.217904
506 4 0.110745 0.218269 0.201561
529 2 0.103356 0.220124 0.239195
505 2 0.11405 0.197768 0.187634
545 4 0.15303 0.231996 0.218945
544 2 0.175496 0.2226 0.224617
546 4 0.197962 0.213203 0.230288
350 4 0.214579 0.220657 0.237572
349 2 0.23905 0.225701 0.238539
730 2 0.287228 0.239483 0.162752
26 1 0.282509 0.174741 0.233941
29 3 0.269424 0.193903 0.23395
731 4 0.297842 0.228601 0.182604
606 4 0.303789 0.23607 0.201182
604 2 0.309638 0.212147 0.205502
605 4 0.315488 0.188225 0.209822
28 3 0.302345 0.178699 0.222571
764 4 0.26749 0.243539 0.254758
351 4 0.26352 0.230746 0.239507
332 4 0.4026 0.229685 0.235013
630 4 0.386547 0.222304 0.224865
628 2 0.395326 0.23383 0.204487
395 4 0.0508003 0.266088 0.200671
394 2 0.0445576 0.280793 0.181436
298 2 0.0756341 0.290736 0.228419
299 4 0.0629426 0.273243 0.215846
2694 4 0.079004 0.324449 0.23564
300 4 0.0883255 0.30823 0.240992
285 4 0.157353 0.25085 0.214237
283 2 0.137997 0.264363 0.205996
284 4 0.118641 0.277876 0.197754
624 4 0.117818 0.267214 0.18258
611 4 0.280284 0.314565 0.182188
645 4 0.3019 0.318831 0.25115
343 2 0.298079 0.30293 0.212475
345 4 0.291302 0.30006 0.188579
344 4 0.304856 0.305799 0.236371
498 4 0.370064 0.306158 0.178439
629 4 0.404104 0.245356 0.184109
496 2 0.360508 0.306257 0.201544
497 4 0.350952 0.306356 0.22465
275 4 0.347015 0.316507 0.241881
2692 2 0.0772884 0.34912 0.231955
2693 4 0.0755727 0.373791 0.228271
535 2 0.0568942 0.410517 0.212984
537 4 0.0705521 0.390695 0.219744
361 2 0.133213 0.387675 0.178784
363 4 0.153911 0.390175 0.192588
417 4 0.167244 0.37807 0.18572
415 2 0.180943 0.366073 0.202855
416 4 0.194642 0.354076 0.219989
735 4 0.198397 0.354389 0.239672
610 2 0.271035 0.335126 0.171375
2651 4 0.43076 0.353379 0.17704
2538 4 0.442213 0.365819 0.18826
2536 2 0.429204 0.375846 0.207111
2537 4 0.416195 0.385874 0.225963
714 4 0.413842 0.378085 0.245121
413 4 0.0335705 0.443804 0.218114
536 4 0.0432364 0.43034 0.206224
412 2 0.00953139 0.446696 0.224354
1774 2 0.0629203 0.469868 0.216363
1776 4 0.0547743 0.493317 0.219361
1385 4 0.0515086 0.494855 0.239435
1775 4 0.0710664 0.446419 0.213365
1788 4 0.152728 0.48459 0.220764
338 4 0.160444 0.467085 0.218811
337 2 0.164092 0.442978 0.224353
339 4 0.167739 0.418871 0.229896
729 4 0.159437 0.419132 0.248159
246 4 0.315747 0.452488 0.195229
609 4 0.321463 0.433698 0.188866
244 2 0.331922 0.457833 0.213532
1714 2 0.38723 0.497863 0.212137
1716 4 0.367657 0.488573 0.199657
245 4 0.348098 0.463177 0.231834
318 4 0.0530248 0.01649 0.274669
399 4 0.065953 0.0277745 0.264623
316 2 0.0283574 0.0204909 0.273838
513 4 0.0344193 0.0780594 0.29068
317 4 0.00369001 0.0244919 0.273008
2850 4 0.161503 0.00876242 0.24389
391 2 0.205354 0.0742334 0.2575
249 4 0.301172 0.0359793 0.323135
1700 4 0.301458 0.0162593 0.319817
257 4 0.480398 0.00856339 0.289911
430 2 0.433199 0.0678796 0.270589
431 4 0.442384 0.0609689 0.292793
1496 4 0.460368 0.0655921 0.29799
1495 2 0.47224 0.0437602 0.30075
1497 4 0.484111 0.0219283 0.30351
511 2 0.0358662 0.093112 0.270768
2482 2 0.0458917 0.164864 0.258485
1270 2 0.159231 0.0925329 0.296171
1271 4 0.150599 0.0949449 0.319513
1272 4 0.167864 0.090121 0.272829
1220 4 0.146831 0.11421 0.323199
392 4 0.216137 0.0902003 0.273436
404 4 0.215588 0.0987977 0.291866
403 2 0.220788 0.0982534 0.316317
520 2 0.48797 0.142209 0.284253
521 4 0.479262 0.165556 0.286311
633 4 0.462018 0.164871 0.279935
2483 4 0.0351094 0.166048 0.281013
2831 4 0.0212281 0.172066 0.29542
2830 2 0.00353475 0.182753 0.309488
531 4 0.0997829 0.232739 0.260485
458 4 0.0985368 0.20524 0.316691
459 4 0.0926937 0.237122 0.27861
457 2 0.0956153 0.221181 0.29765
471 4 0.103471 0.187181 0.324167
389 4 0.197508 0.208584 0.294638
388 2 0.221874 0.204789 0.290507
390 4 0.24624 0.200994 0.286375
750 4 0.189799 0.227725 0.29933
748 2 0.183188 0.251774 0.297558
30 3 0.28696 0.168361 0.255345
515 4 0.291772 0.185997 0.321378
514 2 0.290973 0.182777 0.296596
516 4 0.290175 0.179556 0.271814
331 2 0.406368 0.216775 0.256091
333 4 0.410135 0.203864 0.277169
632 4 0.425391 0.196107 0.266391
631 2 0.443705 0.180489 0.273163
618 4 0.159996 0.278839 0.306733
616 2 0.143972 0.297981 0.308154
617 4 0.127949 0.317122 0.309576
749 4 0.176578 0.275823 0.295786
364 2 0.204285 0.318413 0.313325
365 4 0.218684 0.314863 0.293194
734 4 0.211908 0.324443 0.277373
763 2 0.284124 0.248449 0.272769
765 4 0.300757 0.253359 0.290781
510 4 0.318232 0.259283 0.297489
508 2 0.326765 0.268836 0.318963
274 2 0.359382 0.326141 0.261359
614 4 0.369465 0.3297 0.299111
2654 4 0.138193 0.331858 0.298323
2653 2 0.14739 0.355007 0.300489
2655 4 0.156587 0.378157 0.302656
728 4 0.151859 0.394883 0.291232
727 2 0.155648 0.407007 0.269696
733 2 0.205153 0.339416 0.258522
373 2 0.24106 0.386793 0.334434
374 4 0.218287 0.396885 0.332271
643 2 0.305752 0.341459 0.261066
644 4 0.309605 0.364087 0.270981
435 4 0.29945 0.375232 0.284563
433 2 0.291503 0.376143 0.308253
375 4 0.263834 0.3767 0.336597
434 4 0.283556 0.377055 0.331943
276 4 0.37175 0.335774 0.280838
712 2 0.407896 0.383354 0.268829
713 4 0.401949 0.388624 0.292536
615 4 0.3939 0.364432 0.325518
613 2 0.381683 0.347066 0.312314
2862 4 0.388884 0.402737 0.297449
1383 4 0.141598 0.486074 0.328562
1381 2 0.124101 0.476136 0.313721
1382 4 0.106604 0.466198 0.298879
676 2 0.240716 0.463186 0.311922
3670 2 0.18007 0.475671 0.325345
677 4 0.218008 0.463969 0.322358
3672 4 0.199436 0.465107 0.313576
678 4 0.263424 0.462404 0.301487
1575 4 0.327941 0.464506 0.302644
1574 4 0.279098 0.463173 0.313286
1573 2 0.30352 0.46384 0.307965
387 4 0.345938 0.472635 0.24906
386 4 0.345151 0.472618 0.299061
385 2 0.345544 0.472626 0.274061
1471 2 0.402325 0.471663 0.267338
2860 2 0.383861 0.427222 0.2968
2861 4 0.378838 0.451708 0.296152
1473 4 0.383491 0.460575 0.279483
1472 4 0.42116 0.482751 0.255193
247 2 0.301137 0.0520601 0.342281
248 4 0.301102 0.068141 0.361428
2642 4 0.315434 0.0783656 0.406155
480 4 0.297129 0.0731772 0.413853
2643 4 0.353959 0.0593134 0.380592
2641 2 0.334697 0.0688395 0.393373
1517 4 0.378086 0.00996734 0.393968
2878 2 0.391504 0.0509716 0.389931
2880 4 0.382383 0.0290589 0.397793
2879 4 0.400625 0.0728842 0.382068
762 4 0.414584 0.0866958 0.377484
687 4 0.0114496 0.148785 0.374838
2718 4 0.0277882 0.150632 0.386209
2716 2 0.0445164 0.155725 0.368337
938 4 0.083495 0.125905 0.40308
2717 4 0.0612445 0.160818 0.350465
937 2 0.0997365 0.125613 0.384072
1221 4 0.134272 0.132264 0.36811
1219 2 0.140551 0.123237 0.345655
939 4 0.115978 0.125321 0.365064
473 4 0.143748 0.142898 0.382849
472 2 0.161996 0.129854 0.393897
405 4 0.225987 0.097709 0.340768
474 4 0.180243 0.11681 0.404945
2908 2 0.308241 0.153767 0.341977
2909 4 0.315132 0.130007 0.345608
2657 4 0.322643 0.124585 0.362154
2656 2 0.344658 0.113646 0.357585
2658 4 0.366672 0.102708 0.353016
760 2 0.399265 0.0985667 0.361686
761 4 0.383945 0.110438 0.345888
419 4 0.499555 0.163383 0.387864
312 4 0.499445 0.149024 0.402612
470 4 0.0600912 0.180674 0.348179
2613 4 0.0612692 0.23157 0.378042
341 4 0.0772478 0.225167 0.367317
469 2 0.0817809 0.183928 0.336173
342 4 0.125891 0.226701 0.378814
340 2 0.10157 0.225934 0.373065
824 4 0.136121 0.237374 0.391759
823 2 0.139928 0.228158 0.414689
2910 4 0.301351 0.177526 0.338345
706 2 0.278569 0.226094 0.392795
708 4 0.302482 0.225084 0.385561
717 4 0.316004 0.240661 0.382751
707 4 0.254656 0.227105 0.400028
2611 2 0.0483098 0.249618 0.38951
2612 4 0.0353504 0.267665 0.400978
2847 4 0.0436302 0.278208 0.416094
444 4 0.100815 0.332954 0.371647
366 4 0.189886 0.321964 0.333456
667 2 0.215633 0.297946 0.409267
669 4 0.237653 0.294014 0.420439
668 4 0.193612 0.301879 0.398096
635 4 0.177382 0.312432 0.405169
509 4 0.335299 0.278389 0.340436
488 4 0.378993 0.257868 0.395864
715 2 0.337662 0.2515 0.388965
716 4 0.35932 0.262339 0.39518
1639 2 0.0836488 0.407217 0.367285
1640 4 0.0937386 0.384343 0.367667
442 2 0.100872 0.337817 0.396173
443 4 0.10093 0.342679 0.420699
602 4 0.190433 0.385824 0.397346
601 2 0.179608 0.407657 0.402942
2924 4 0.395344 0.372397 0.344301
116 1 0.438416 0.368562 0.412217
2923 2 0.412613 0.374322 0.362281
2925 4 0.429881 0.376247 0.380261
117 3 0.42677 0.361183 0.393803
118 3 0.460761 0.371025 0.406469
2138 4 0.0748745 0.495128 0.389413
2137 2 0.0727354 0.471337 0.382024
2139 4 0.0705963 0.447546 0.374635
1641 4 0.073559 0.430092 0.366904
569 4 0.076621 0.497683 0.408861
3671 4 0.160704 0.486236 0.337114
2108 4 0.262489 0.453716 0.389155
594 4 0.259569 0.4605 0.407528
752 4 0.309052 0.481944 0.356717
2109 4 0.304344 0.464377 0.363953
2107 2 0.283416 0.459046 0.376554
543 4 0.442237 0.486027 0.365399
584 4 0.433033 0.44307 0.401942
541 2 0.465057 0.490855 0.374407
1182 4 0.247467 0.00604954 0.494331
1180 2 0.248414 0.030696 0.490228
1181 4 0.249361 0.0553424 0.486124
725 4 0.239129 0.0688148 0.496171
479 4 0.262876 0.0792011 0.449786
478 2 0.280002 0.0761891 0.43182
600 4 0.337012 0.00888086 0.478886
598 2 0.332368 0.0199596 0.500814
682 2 0.379158 0.00266374 0.467155
683 4 0.40382 0.998558 0.467466
684 4 0.354496 0.00676963 0.466844
983 4 0.0445902 0.121592 0.480622
1033 2 0.0607864 0.129487 0.440395
1035 4 0.049669 0.1274 0.462694
1034 4 0.0719037 0.131574 0.418097
650 4 0.194675 0.119275 0.419627
649 2 0.218889 0.113609 0.422222
651 4 0.243104 0.107942 0.424816
402 4 0.211975 0.157371 0.456229
857 4 0.25586 0.122835 0.429601
856 2 0.26818 0.142295 0.439334
858 4 0.2805 0.161754 0.449066
320 4 0.296174 0.164413 0.46121
1031 4 0.380516 0.125909 0.438734
1030 2 0.371215 0.119296 0.460981
1032 4 0.361915 0.112682 0.483228
2502 4 0.401233 0.121574 0.439484
2515 2 0.484995 0.0998117 0.472567
2517 4 0.465771 0.114839 0.467108
2500 2 0.423888 0.128367 0.431372
2501 4 0.446542 0.135161 0.42326
367 2 0.161001 0.225575 0.469671
825 4 0.143736 0.218943 0.437618
368 4 0.160526 0.231602 0.493933
369 4 0.161476 0.219547 0.445409
400 2 0.224438 0.178126 0.449981
401 4 0.236901 0.198882 0.443732
371 4 0.24755 0.212845 0.453617
370 2 0.260272 0.232905 0.461423
319 2 0.307925 0.172445 0.481767
640 2 0.312968 0.22374 0.500694
487 2 0.394994 0.248025 0.412364
489 4 0.410995 0.238181 0.428864
451 2 0.495658 0.238464 0.422461
453 4 0.473985 0.226119 0.420725
266 4 0.462418 0.221064 0.435928
267 4 0.414509 0.230752 0.446494
265 2 0.438463 0.225908 0.441211
2845 2 0.0641084 0.291628 0.421167
2846 4 0.0845867 0.305048 0.426239
260 4 0.0949485 0.313149 0.441879
259 2 0.108746 0.30473 0.460956
261 4 0.122544 0.296312 0.480034
695 4 0.129487 0.292124 0.497372
634 2 0.168994 0.323102 0.426168
873 4 0.246791 0.278178 0.428404
641 4 0.311195 0.248676 0.500238
372 4 0.272993 0.252965 0.469228
871 2 0.26961 0.287253 0.433105
872 4 0.29243 0.296327 0.437806
813 4 0.306475 0.288154 0.451028
811 2 0.313046 0.276818 0.472323
812 4 0.319616 0.265481 0.493619
636 4 0.160606 0.333773 0.447167
1395 4 0.222432 0.355426 0.49725
774 4 0.215732 0.345281 0.480812
773 4 0.190337 0.384825 0.463721
710 4 0.183426 0.40073 0.472433
772 2 0.203035 0.365053 0.472266
585 4 0.418621 0.402254 0.426984
119 3 0.429669 0.388975 0.418939
120 3 0.436347 0.353314 0.429006
936 4 0.00914343 0.425081 0.474997
1040 4 0.0247627 0.437699 0.476793
1039 2 0.0319631 0.440589 0.500562
603 4 0.168783 0.42949 0.408539
2242 2 0.172181 0.483786 0.50149
325 2 0.230033 0.475062 0.484358
711 4 0.211593 0.439988 0.459541
326 4 0.211656 0.47983 0.468087
709 2 0.197509 0.420359 0.465987
592 2 0.258149 0.482393 0.419522
446 4 0.412529 0.499628 0.429301
238 2 0.453307 0.430317 0.487316
239 4 0.431085 0.427098 0.476315
583 2 0.425827 0.422662 0.414463
1184 4 0.0153832 0.0686383 0.571585
1183 2 0.0152769 0.0736777 0.547095
1185 4 0.0151707 0.078717 0.522604
3157 2 0.321747 0.0722374 0.521967
3159 4 0.302222 0.056906 0.524949
599 4 0.327724 0.0310383 0.522743
2240 4 0.33233 0.0400037 0.539117
2239 2 0.331099 0.0376155 0.563975
88 3 0.412513 0.0284792 0.576294
89 3 0.41243 0.00928023 0.543494
842 4 0.427307 0.0156572 0.531011
1061 4 0.446643 0.0234061 0.535951
841 2 0.420307 0.00973989 0.507748
1060 2 0.464994 0.0403885 0.535755
86 1 0.425231 0.0155807 0.561793
87 3 0.443082 0.0280821 0.55443
1062 4 0.483344 0.0573709 0.535559
3051 4 0.494479 0.0541083 0.519685
984 4 0.0240749 0.0956101 0.518103
982 2 0.0343326 0.108601 0.499362
726 4 0.272686 0.100569 0.51531
724 2 0.255908 0.0846917 0.50574
3158 4 0.341272 0.0875688 0.518985
576 4 0.377776 0.117189 0.566459
1142 4 0.388974 0.100932 0.569481
575 4 0.347611 0.103206 0.529106
574 2 0.362693 0.110198 0.547783
3462 4 0.0612452 0.217581 0.557373
3460 2 0.0610811 0.242188 0.561808
10 3 0.154222 0.242654 0.523326
696 4 0.148273 0.246215 0.503718
7 3 0.162537 0.210933 0.541145
6 1 0.169128 0.225483 0.524591
9 3 0.16979 0.214069 0.5044
8 3 0.190216 0.233669 0.529758
348 4 0.200499 0.241949 0.515245
642 4 0.314741 0.198803 0.50115
900 4 0.278613 0.203656 0.573773
321 4 0.319676 0.180476 0.502324
269 4 0.433338 0.203436 0.550075
268 2 0.450439 0.203335 0.531834
270 4 0.46754 0.203234 0.513593
3307 2 0.501908 0.232318 0.503627
3309 4 0.484171 0.215311 0.508249
3043 2 0.0345313 0.285285 0.536414
3044 4 0.0526142 0.279216 0.55258
3461 4 0.060917 0.266794 0.566244
3045 4 0.0164485 0.291355 0.520248
694 2 0.13888 0.26917 0.500545
346 2 0.222758 0.249364 0.523891
347 4 0.245016 0.25678 0.532538
410 4 0.237459 0.295592 0.574134
409 2 0.256102 0.27916 0.576899
1189 2 0.261008 0.289225 0.514601
1191 4 0.251176 0.266433 0.517614
1394 4 0.257099 0.32587 0.517874
1190 4 0.270839 0.312016 0.511589
1393 2 0.239765 0.340648 0.507562
1041 4 0.0391635 0.443478 0.524332
1136 4 0.0524049 0.444141 0.53852
1135 2 0.0773056 0.44246 0.540039
1137 4 0.102206 0.440779 0.541559
540 4 0.109832 0.450019 0.524702
538 2 0.134807 0.450098 0.525886
539 4 0.159783 0.450178 0.527071
2243 4 0.168534 0.46289 0.514728
1171 2 0.269195 0.463067 0.535825
1028 4 0.301814 0.442614 0.550304
1172 4 0.282989 0.450628 0.552563
1027 2 0.310926 0.425975 0.566592
1173 4 0.255401 0.475507 0.519087
327 4 0.248409 0.470294 0.500629
1951 2 0.357461 0.494389 0.57454
1953 4 0.379916 0.486635 0.582339
240 4 0.475529 0.433536 0.498316
1130 4 0.261829 0.0635322 0.594774
1129 2 0.274669 0.0714887 0.614699
1131 4 0.287509 0.0794452 0.634624
2318 4 0.273868 0.0808915 0.648915
2241 4 0.329868 0.0352273 0.588834
1005 4 0.332719 0.0102885 0.651308
1004 4 0.337924 0.0252696 0.603883
1003 2 0.335321 0.0177791 0.627596
886 2 0.42 0.0783312 0.650184
887 4 0.420407 0.0742511 0.625519
966 4 0.341836 0.0246074 0.660536
3078 4 0.00958368 0.119709 0.640961
3180 4 0.996764 0.103958 0.637367
943 2 0.16439 0.0816005 0.661087
944 4 0.158197 0.0982411 0.643483
917 4 0.150493 0.103751 0.625621
916 2 0.166719 0.120971 0.617535
918 4 0.182945 0.13819 0.609448
1212 4 0.182561 0.157663 0.613671
1284 4 0.183297 0.137575 0.67203
1155 4 0.246206 0.153201 0.665399
2317 2 0.277225 0.10246 0.66111
1141 2 0.401017 0.091297 0.589162
1143 4 0.41306 0.0816616 0.608842
1011 4 0.481276 0.158207 0.659378
1211 4 0.185342 0.190947 0.650889
1210 2 0.183951 0.174305 0.63228
1259 4 0.183639 0.211353 0.649487
1153 2 0.247326 0.174069 0.651672
899 4 0.309333 0.194866 0.61224
1154 4 0.248446 0.194938 0.637945
898 2 0.293973 0.199261 0.593006
978 4 0.287489 0.236746 0.652433
1086 4 0.277939 0.242702 0.636574
976 2 0.288415 0.214972 0.664688
906 4 0.478073 0.174674 0.648456
904 2 0.494442 0.186169 0.633453
1084 2 0.283768 0.253358 0.614719
1085 4 0.289596 0.264015 0.592864
411 4 0.274744 0.262729 0.579663
806 4 0.388445 0.311871 0.61022
805 2 0.392121 0.291927 0.624846
791 4 0.413554 0.271071 0.649952
803 4 0.389856 0.328445 0.62095
807 4 0.395798 0.271984 0.639472
3419 4 0.00411069 0.337819 0.639452
3418 2 0.0262257 0.349094 0.642451
3420 4 0.0483406 0.360368 0.645451
1281 4 0.0416711 0.377842 0.648825
1279 2 0.0547232 0.398657 0.653468
897 4 0.190378 0.337328 0.617293
895 2 0.188344 0.342479 0.641675
1239 4 0.327399 0.412623 0.6007
1029 4 0.320038 0.409336 0.582879
1237 2 0.346936 0.397256 0.597994
1238 4 0.366474 0.381889 0.595288
802 2 0.376248 0.34521 0.608342
804 4 0.36264 0.361975 0.595735
1280 4 0.0677753 0.419472 0.658111
1982 4 0.129395 0.489454 0.60276
1981 2 0.115934 0.495247 0.623019
3371 4 0.412857 0.492204 0.637279
3323 4 0.393664 0.496757 0.641054
3370 2 0.426265 0.471253 0.634736
1007 4 0.44162 0.431484 0.627821
3372 4 0.439673 0.450302 0.632194
1006 2 0.452845 0.427773 0.649852
945 4 0.170583 0.06496 0.678692
2255 4 0.18953 0.065879 0.671232
2254 2 0.203422 0.0504965 0.685217
2256 4 0.217314 0.035114 0.699202
960 4 0.235381 0.0362216 0.692006
958 2 0.250288 0.0313884 0.711489
959 4 0.265195 0.0265552 0.730973
965 4 0.320433 0.0248691 0.705731
1257 4 0.32789 0.0336566 0.721967
1255 2 0.305601 0.0272663 0.731324
1256 4 0.283312 0.020876 0.740681
964 2 0.331134 0.0247382 0.683134
954 4 0.380217 0.0430397 0.712135
952 2 0.391834 0.0571822 0.695099
1026 4 0.379973 0.0287547 0.724891
1024 2 0.391716 0.0251452 0.746668
953 4 0.403451 0.0713248 0.678063
1178 4 0.0518555 0.122248 0.69986
852 4 0.0669182 0.107422 0.700812
1177 2 0.0494895 0.143152 0.713373
1179 4 0.0471234 0.164056 0.726886
946 2 0.147576 0.14071 0.676825
850 2 0.0913237 0.11243 0.698696
947 4 0.126159 0.130834 0.685129
851 4 0.115729 0.117438 0.696581
948 4 0.168993 0.150586 0.668522
1282 2 0.208205 0.139663 0.672701
1283 4 0.233112 0.14175 0.673373
2319 4 0.280581 0.124028 0.673305
950 4 0.284045 0.130195 0.692697
949 2 0.281821 0.155038 0.69095
888 4 0.419593 0.0824113 0.67485
1009 2 0.486103 0.162504 0.683532
923 4 0.0465594 0.174462 0.744775
922 2 0.0480977 0.198665 0.750857
1258 2 0.184331 0.228455 0.667715
1299 4 0.235877 0.169194 0.74794
951 4 0.279597 0.179881 0.689203
977 4 0.289341 0.193197 0.676944
792 4 0.414854 0.242882 0.691237
1010 4 0.49093 0.1668 0.707686
1192 2 0.467521 0.171689 0.743709
1193 4 0.476612 0.168512 0.720635
151 1 0.0572731 0.291424 0.717448
154 3 0.076849 0.298382 0.72778
155 3 0.0519509 0.305664 0.700491
153 3 0.0399816 0.290704 0.732904
780 4 0.0375632 0.272821 0.741488
152 3 0.0604803 0.270314 0.708889
1067 4 0.0940086 0.308451 0.72694
1066 2 0.10618 0.329953 0.723103
1260 4 0.185024 0.245556 0.685942
790 2 0.414204 0.256977 0.670595
1068 4 0.11835 0.351455 0.719266
991 2 0.157417 0.347887 0.69556
993 4 0.136229 0.352938 0.707838
992 4 0.178604 0.342835 0.683282
896 4 0.186311 0.34763 0.666058
1276 2 0.244268 0.399807 0.692918
798 4 0.279222 0.340344 0.74095
1277 4 0.24892 0.38009 0.707574
797 4 0.261527 0.38323 0.722285
796 2 0.270374 0.361787 0.731618
1206 4 0.294093 0.418104 0.732636
1139 4 0.288197 0.407191 0.748554
3463 2 0.476852 0.407642 0.706706
999 4 0.472834 0.393342 0.737022
3465 4 0.486933 0.406801 0.729571
3464 4 0.466771 0.408483 0.68384
997 2 0.469204 0.369404 0.743265
2129 4 0.149214 0.48998 0.692355
942 4 0.152935 0.47692 0.707133
2128 2 0.134338 0.495913 0.673153
1278 4 0.239616 0.419523 0.678262
941 4 0.200886 0.491034 0.705673
1098 4 0.209422 0.472682 0.704921
1096 2 0.222723 0.452721 0.697863
1097 4 0.236024 0.43276 0.690805
940 2 0.17691 0.483977 0.706403
890 4 0.317071 0.442136 0.684206
1205 4 0.304157 0.450504 0.695899
1204 2 0.299125 0.434304 0.714268
889 2 0.331455 0.457451 0.670651
891 4 0.345839 0.472766 0.657097
187 3 0.391993 0.469021 0.723927
186 1 0.39116 0.46332 0.746197
188 3 0.371444 0.451777 0.750252
189 3 0.40939 0.449858 0.751181
1008 4 0.464071 0.424062 0.671884
1250 4 0.470423 0.455132 0.748388
1295 4 0.00159245 0.0725271 0.804106
832 2 0.0342615 0.0580266 0.781603
834 4 0.0512676 0.0568752 0.763309
833 4 0.0172553 0.0591779 0.799896
1213 2 0.0887233 0.0443077 0.815203
1215 4 0.101968 0.0552194 0.797018
864 4 0.138637 0.0178363 0.752666
862 2 0.127629 0.0321312 0.769976
863 4 0.116621 0.0464262 0.787287
911 4 0.149136 0.0889197 0.838201
1025 4 0.403459 0.0215358 0.768446
908 4 0.128735 0.0991501 0.746792
907 2 0.131094 0.121831 0.757049
909 4 0.133454 0.144512 0.767305
1050 4 0.317685 0.166497 0.81435
1048 2 0.316285 0.141915 0.818705
1049 4 0.314885 0.117334 0.82306
1022 4 0.269481 0.14646 0.796753
44 3 0.504028 0.108967 0.809401
3426 4 0.470539 0.139472 0.821908
45 3 0.477017 0.123156 0.831464
3424 2 0.466293 0.155282 0.803008
41 1 0.496709 0.111719 0.831248
924 4 0.049636 0.222869 0.756939
779 4 0.0518163 0.23633 0.772569
1297 2 0.232625 0.193594 0.752328
32 3 0.177479 0.168995 0.825151
1298 4 0.229372 0.217994 0.756716
838 2 0.226011 0.225905 0.796838
839 4 0.229792 0.222692 0.821344
840 4 0.222231 0.229118 0.772331
1092 4 0.331399 0.173125 0.751804
1023 4 0.2505 0.188187 0.816736
1091 4 0.31795 0.180983 0.799324
1021 2 0.25999 0.167323 0.806745
1090 2 0.324674 0.177054 0.775564
3329 4 0.305398 0.236812 0.811438
1052 4 0.389944 0.241967 0.8246
1051 2 0.414562 0.246322 0.824221
1194 4 0.45843 0.174866 0.766784
3425 4 0.462048 0.171093 0.784109
1053 4 0.43918 0.250678 0.823843
778 2 0.0446897 0.254575 0.757028
1208 4 0.204263 0.320532 0.817222
1064 4 0.220042 0.312591 0.825241
3328 2 0.300532 0.253918 0.793862
1042 2 0.281172 0.304788 0.760268
1043 4 0.286429 0.280392 0.761819
3330 4 0.295665 0.271024 0.776287
3347 4 0.326761 0.316546 0.825512
3346 2 0.341943 0.298159 0.817988
3348 4 0.357125 0.279773 0.810464
1166 4 0.478326 0.298739 0.786758
866 4 0.4929 0.280777 0.79203
1165 2 0.466564 0.315728 0.772679
865 2 0.474655 0.268214 0.803626
1167 4 0.454802 0.332716 0.758599
867 4 0.456411 0.25565 0.815223
3350 4 0.0047942 0.340197 0.823088
884 4 0.052953 0.36344 0.775009
885 4 0.0154465 0.395145 0.765589
883 2 0.0341998 0.379292 0.770299
1170 4 0.0199268 0.372531 0.819142
1168 2 0.0367657 0.388055 0.829172
988 2 0.154206 0.412343 0.828428
990 4 0.13024 0.414343 0.821586
1207 2 0.198154 0.334968 0.797742
1209 4 0.192045 0.349404 0.778262
1044 4 0.275916 0.329183 0.758717
1138 2 0.305174 0.398164 0.764537
1140 4 0.322152 0.389137 0.78052
1017 4 0.337277 0.378126 0.773145
1015 2 0.359007 0.383214 0.78442
1019 4 0.394776 0.37943 0.80714
1016 4 0.380736 0.388301 0.795696
1018 2 0.418779 0.379098 0.800145