ITEM: TIMESTEP
3870000
ITEM: NUMBER OF ATOMS
4590
ITEM: BOX BOUNDS pp pp pp
-9.9985700000000008e+00 9.9985700000000008e+00
-9.9985700000000008e+00 9.9985700000000008e+00
-9.9985700000000008e+00 9.9985700000000008e+00
ITEM: ATOMS id type xs ys zs
655 2 0.0110776 0.081203 0.0299566
657 4 0.0357115 0.077046 0.0309892
2271 4 0.0438697 0.0849276 0.014504
701 4 0.105345 0.0398835 0.0563758
700 2 0.103564 0.0183572 0.0689703
448 2 0.14722 0.0740109 0.0778182
702 4 0.101782 0.996831 0.0815648
693 4 0.30208 0.0902315 0.074978
490 2 0.394186 0.0392938 0.036515
491 4 0.390335 0.0147985 0.0397296
654 4 0.376915 0.00947583 0.0270445
492 4 0.398036 0.0637891 0.0333005
2441 4 0.460534 0.0655642 0.00484417
2976 4 0.47008 0.0648932 0.0222877
2440 2 0.437172 0.0666451 0.0136871
2974 2 0.486893 0.0732438 0.0388031
2442 4 0.413809 0.067726 0.0225301
450 4 0.16701 0.08704 0.0698323
837 4 0.131426 0.1563 0.000515747
356 4 0.261076 0.0867137 0.0159861
722 4 0.257297 0.0788994 0.0344885
721 2 0.269957 0.082473 0.0557518
723 4 0.282617 0.0860465 0.077015
355 2 0.277959 0.100355 0.00357341
25 3 0.499036 0.0860254 0.0736034
456 4 0.158265 0.208359 0.0338918
836 4 0.155804 0.196174 0.0183048
835 2 0.143615 0.176237 0.00941025
454 2 0.156841 0.232484 0.0403056
462 4 0.0852324 0.191613 0.0838647
581 4 0.233197 0.226297 0.072343
580 2 0.240826 0.250104 0.0718987
2877 4 0.441262 0.214261 0.0714472
455 4 0.155418 0.256609 0.0467194
286 2 0.154273 0.285176 0.0608521
287 4 0.141077 0.26966 0.0463512
288 4 0.16747 0.300693 0.075353
104 3 0.246407 0.324315 0.0556534
103 3 0.219108 0.312732 0.0794233
101 1 0.242003 0.31358 0.0757473
582 4 0.248454 0.273911 0.0714545
105 3 0.250593 0.292492 0.075337
902 4 0.275126 0.2727 0.0134165
295 2 0.315128 0.272038 0.027713
296 4 0.290274 0.274765 0.0277512
297 4 0.339982 0.26931 0.0276748
360 4 0.348291 0.2728 0.0103062
527 4 0.437719 0.29701 0.0721961
2840 4 0.450648 0.308843 0.0624277
2839 2 0.468301 0.312307 0.0450626
2841 4 0.485954 0.315771 0.0276975
672 4 0.484944 0.320078 0.00875004
2807 4 0.0365201 0.342788 0.0222444
2806 2 0.027792 0.353336 0.00132238
2770 2 0.01457 0.398605 0.0451136
2771 4 0.019793 0.383554 0.0643841
2772 4 0.00934694 0.413657 0.025843
2514 4 0.109518 0.384446 0.0476179
2512 2 0.102114 0.407707 0.053029
525 4 0.135045 0.399511 0.0808866
523 2 0.150334 0.418928 0.0846823
477 4 0.131818 0.379939 0.0794718
494 4 0.169222 0.357258 0.0765825
493 2 0.192134 0.366067 0.0813373
2005 2 0.369381 0.40247 0.0183872
2006 4 0.361544 0.416055 0.0378606
2007 4 0.377217 0.388885 0.998914
328 2 0.0588978 0.466856 0.0331454
329 4 0.0455916 0.454554 0.0159174
330 4 0.0722041 0.479157 0.0503734
552 4 0.0828646 0.491638 0.0607424
2513 4 0.0947106 0.430968 0.0584402
15 3 0.325039 0.456229 0.0367235
741 4 0.355492 0.440257 0.0751065
14 3 0.336318 0.436633 0.0668305
13 3 0.345081 0.424735 0.0318154
11 1 0.34174 0.44333 0.0452862
12 3 0.361188 0.455596 0.0459846
596 4 0.363348 0.458485 0.0667397
595 2 0.379431 0.477449 0.0693695
597 4 0.395514 0.496412 0.0719993
659 4 0.413281 0.494433 0.0813245
380 4 0.0307786 0.0369978 0.168148
379 2 0.0105735 0.0241875 0.160879
449 4 0.127429 0.0609818 0.085804
1749 4 0.331602 0.0434411 0.162051
1660 2 0.332459 0.0128432 0.131824
1661 4 0.338311 0.030776 0.148236
2469 4 0.413015 0.0318053 0.139322
2467 2 0.435906 0.0418503 0.138787
771 4 0.465897 0.0494804 0.157437
2468 4 0.458797 0.0518954 0.138251
769 2 0.490095 0.0556241 0.156049
579 4 0.140394 0.162579 0.144763
237 4 0.207193 0.161316 0.124708
691 2 0.321433 0.0996819 0.0876791
605 4 0.260399 0.159025 0.167146
692 4 0.340787 0.109132 0.10038
1505 4 0.360015 0.103238 0.103578
1504 2 0.384503 0.103635 0.0985427
1506 4 0.408991 0.104032 0.0935071
255 4 0.41989 0.0880573 0.0994343
254 4 0.465972 0.106671 0.104982
24 3 0.482279 0.0952271 0.106041
253 2 0.442931 0.0973643 0.102208
21 1 0.502533 0.093379 0.0948717
2759 4 0.0263002 0.157374 0.0751765
705 4 0.022527 0.175555 0.0818116
703 2 0.0457112 0.182848 0.0876836
704 4 0.0688954 0.190141 0.0935556
236 4 0.159098 0.166384 0.13743
577 2 0.133902 0.167072 0.168488
460 2 0.0990768 0.212179 0.0871155
461 4 0.112921 0.232744 0.0903664
623 4 0.117315 0.245495 0.105884
914 4 0.226789 0.215977 0.0870925
913 2 0.219914 0.195041 0.0989091
235 2 0.183145 0.16385 0.131069
915 4 0.213039 0.174106 0.110726
378 4 0.432721 0.203634 0.128631
2876 4 0.425866 0.19156 0.11326
2875 2 0.433564 0.20291 0.0923536
376 2 0.427505 0.21016 0.152197
396 4 0.0536756 0.326829 0.158257
756 4 0.0740093 0.327383 0.153844
754 2 0.0890736 0.332876 0.134659
622 2 0.110059 0.25799 0.126291
624 4 0.102803 0.270484 0.146697
252 4 0.15574 0.30021 0.0916032
284 4 0.171461 0.28376 0.155746
250 2 0.164987 0.29578 0.114408
755 4 0.104138 0.338369 0.115474
251 4 0.174234 0.29135 0.137212
279 4 0.243745 0.301874 0.138938
278 4 0.209762 0.277954 0.111122
277 2 0.226753 0.289914 0.12503
732 4 0.233493 0.269196 0.166807
730 2 0.24757 0.248566 0.168006
102 3 0.251843 0.325438 0.0928266
1121 4 0.254691 0.322477 0.112355
1120 2 0.270191 0.328108 0.131149
517 2 0.413075 0.281838 0.152841
518 4 0.42991 0.272675 0.136785
528 4 0.435285 0.275111 0.117087
526 2 0.436502 0.286061 0.0946417
476 4 0.123838 0.342036 0.111101
475 2 0.127828 0.360988 0.0952866
495 4 0.215046 0.374876 0.0860921
969 4 0.220245 0.362286 0.10043
967 2 0.221426 0.357664 0.124974
968 4 0.222606 0.353042 0.149518
416 4 0.205266 0.353768 0.159227
415 2 0.184931 0.360349 0.172202
625 2 0.215559 0.415741 0.162623
1122 4 0.285691 0.333739 0.149943
1071 4 0.285946 0.35336 0.150819
1069 2 0.30008 0.373437 0.14609
1070 4 0.314213 0.393513 0.141362
740 4 0.383743 0.408535 0.101494
608 4 0.372791 0.408769 0.118554
607 2 0.373786 0.406072 0.143392
2651 4 0.44251 0.380123 0.143687
2538 4 0.424199 0.382841 0.153752
2650 2 0.430836 0.364244 0.128299
2652 4 0.419163 0.348365 0.112912
3762 4 0.0238155 0.490767 0.145969
768 4 0.153329 0.442817 0.130708
766 2 0.160921 0.465879 0.136684
524 4 0.165623 0.438345 0.0884779
767 4 0.168513 0.488941 0.142659
638 4 0.179023 0.497474 0.127604
626 4 0.228638 0.412797 0.141517
739 2 0.369618 0.424396 0.0883002
658 2 0.432365 0.495669 0.0974315
660 4 0.451449 0.496904 0.113538
233 4 0.0249782 0.0547438 0.164799
399 4 0.0780771 0.00307787 0.239151
1220 4 0.0540067 0.0737578 0.236921
1271 4 0.071496 0.0755759 0.245771
232 2 0.0195581 0.0785753 0.170078
397 2 0.0906809 0.0134274 0.220198
1478 4 0.107222 0.0117917 0.184484
398 4 0.103285 0.023777 0.201245
249 4 0.304239 0.00933731 0.250444
1700 4 0.315578 0.999302 0.237062
1747 2 0.347954 0.0539995 0.177746
743 4 0.369195 0.0470696 0.202127
742 2 0.386186 0.0374642 0.217755
1748 4 0.364306 0.064558 0.19344
744 4 0.403177 0.0278587 0.233383
432 4 0.422421 0.0282674 0.238875
2676 4 0.996822 0.136336 0.225666
234 4 0.0141381 0.102407 0.175356
2675 4 0.0227627 0.113382 0.189598
2674 2 0.00979235 0.124859 0.207632
1219 2 0.0481361 0.0976065 0.241607
1221 4 0.0422655 0.121455 0.246292
27 3 0.223154 0.124638 0.193606
26 1 0.226395 0.147126 0.190012
29 3 0.209226 0.155132 0.176614
30 3 0.226355 0.158003 0.21002
516 4 0.229081 0.148803 0.227934
28 3 0.246802 0.15016 0.179392
514 2 0.244091 0.142076 0.246766
759 4 0.32677 0.161587 0.206713
522 4 0.496186 0.111936 0.248385
578 4 0.127411 0.171566 0.192212
507 4 0.114673 0.184123 0.200109
506 4 0.139005 0.223887 0.218206
530 4 0.132609 0.230251 0.235994
505 2 0.126839 0.204005 0.209158
350 4 0.203046 0.230611 0.240542
604 2 0.262051 0.18371 0.170763
606 4 0.263703 0.208395 0.174381
731 4 0.261648 0.227937 0.169205
758 4 0.369152 0.187356 0.213075
757 2 0.347961 0.174471 0.209894
332 4 0.433215 0.245208 0.239397
629 4 0.429923 0.234631 0.17649
377 4 0.422289 0.216685 0.175764
628 2 0.430894 0.244345 0.199509
394 2 0.0479318 0.327916 0.182568
395 4 0.0421879 0.329002 0.206878
298 2 0.0347349 0.306322 0.239639
299 4 0.0481391 0.321107 0.224576
283 2 0.166927 0.269354 0.175673
285 4 0.162394 0.254948 0.195601
545 4 0.160793 0.260411 0.215362
612 4 0.223735 0.284602 0.162733
610 2 0.2241 0.301497 0.181162
544 2 0.181569 0.25571 0.228456
611 4 0.224465 0.318392 0.19959
345 4 0.221223 0.31801 0.220434
343 2 0.236861 0.314562 0.239637
546 4 0.202344 0.25101 0.241551
519 4 0.396239 0.291 0.168897
496 2 0.333205 0.302512 0.232113
309 4 0.397235 0.299531 0.187049
307 2 0.375794 0.293838 0.198584
308 4 0.354353 0.288145 0.210119
498 4 0.334594 0.289559 0.210771
630 4 0.431866 0.254059 0.222528
413 4 0.0557704 0.371353 0.241833
412 2 0.0396608 0.376436 0.223399
537 4 0.00800033 0.375494 0.195208
414 4 0.0235511 0.381519 0.204965
2092 2 0.0992493 0.378606 0.238539
2094 4 0.0937045 0.363792 0.219175
363 4 0.148267 0.366468 0.174407
362 4 0.107871 0.364584 0.203823
361 2 0.128069 0.365526 0.189115
417 4 0.164595 0.36693 0.185176
289 2 0.207398 0.405306 0.218601
290 4 0.221643 0.394496 0.236077
291 4 0.193153 0.416116 0.201125
735 4 0.23268 0.382094 0.245757
627 4 0.202481 0.418685 0.183729
609 4 0.37478 0.403375 0.16823
246 4 0.366314 0.405101 0.186796
244 2 0.363342 0.398856 0.210824
245 4 0.360369 0.392612 0.234852
387 4 0.369204 0.399157 0.251148
2536 2 0.433011 0.393116 0.174775
2537 4 0.441823 0.403391 0.195798
714 4 0.450636 0.386793 0.203717
712 2 0.451923 0.375471 0.225973
713 4 0.45321 0.364149 0.248229
337 2 0.201 0.485639 0.223521
727 2 0.172718 0.441688 0.248456
339 4 0.186948 0.465596 0.218426
729 4 0.179605 0.462541 0.236502
1714 2 0.399779 0.487179 0.207933
1715 4 0.390139 0.467703 0.220299
1716 4 0.409418 0.506656 0.195567
1270 2 0.0878484 0.0596371 0.255956
2849 4 0.124854 0.0439047 0.263538
1272 4 0.104201 0.0436982 0.266141
2848 2 0.147922 0.0473848 0.272536
2850 4 0.17099 0.0508649 0.281533
429 4 0.184024 0.0375669 0.279868
427 2 0.19293 0.0142563 0.281441
404 4 0.232873 0.0381689 0.320409
247 2 0.286601 0.0231949 0.261491
403 2 0.251458 0.0321523 0.304803
405 4 0.270044 0.0261358 0.289197
248 4 0.268963 0.0370524 0.272538
1496 4 0.435741 0.0148902 0.302184
431 4 0.438826 0.0116098 0.283081
430 2 0.430623 0.0199386 0.260978
1497 4 0.482805 0.000433981 0.310942
1495 2 0.459273 0.00766211 0.306563
511 2 0.00470251 0.14177 0.263823
513 4 0.0152747 0.136109 0.285763
459 4 0.0588459 0.123289 0.258265
2484 4 0.0149924 0.136686 0.306252
457 2 0.0680232 0.145147 0.266215
2482 2 0.0056723 0.156089 0.318973
515 4 0.2591 0.135349 0.265598
2910 4 0.278662 0.143666 0.263056
2908 2 0.294082 0.138006 0.281907
2909 4 0.309502 0.132347 0.300758
2657 4 0.322223 0.139174 0.312439
2656 2 0.340978 0.144288 0.328164
521 4 0.467738 0.135868 0.281832
520 2 0.481962 0.123902 0.265108
633 4 0.475657 0.155663 0.280937
471 4 0.0640127 0.172811 0.287144
458 4 0.0772006 0.167004 0.274165
469 2 0.0648046 0.174073 0.312104
529 2 0.129796 0.226766 0.260593
531 4 0.126984 0.223281 0.285192
349 2 0.220992 0.227984 0.257753
351 4 0.238938 0.225357 0.274964
764 4 0.256608 0.219062 0.267223
763 2 0.275246 0.230307 0.279526
510 4 0.284297 0.238646 0.309904
765 4 0.293883 0.241553 0.291829
508 2 0.302375 0.23338 0.326356
631 2 0.464978 0.178176 0.278859
331 2 0.443474 0.233065 0.258696
632 4 0.4543 0.200689 0.276781
333 4 0.453734 0.220922 0.277996
300 4 0.0213307 0.291537 0.254703
2693 4 0.0107004 0.305313 0.266134
389 4 0.145541 0.250968 0.326998
750 4 0.159924 0.264893 0.324446
616 2 0.160415 0.327559 0.274178
748 2 0.169485 0.279526 0.306568
618 4 0.167955 0.31065 0.290983
344 4 0.252498 0.311115 0.25884
749 4 0.179046 0.29416 0.28869
366 4 0.236126 0.323218 0.336843
645 4 0.257331 0.319274 0.276923
497 4 0.331816 0.315464 0.253455
275 4 0.350796 0.318623 0.257184
274 2 0.349938 0.334901 0.276144
2655 4 0.159011 0.404954 0.272084
2093 4 0.104794 0.39342 0.257903
2654 4 0.160597 0.361005 0.248278
2653 2 0.159804 0.38298 0.260181
617 4 0.152875 0.344468 0.257373
734 4 0.224835 0.359677 0.289764
733 2 0.228757 0.370885 0.26776
365 4 0.215645 0.358212 0.307574
364 2 0.225885 0.340715 0.322208
643 2 0.270998 0.338529 0.285147
644 4 0.284664 0.357785 0.293372
435 4 0.279436 0.369573 0.310276
433 2 0.300859 0.367774 0.323043
434 4 0.322282 0.365974 0.33581
386 4 0.333728 0.389412 0.285018
276 4 0.34908 0.351179 0.295104
613 2 0.343222 0.412212 0.320208
385 2 0.351466 0.394285 0.268083
2860 2 0.476246 0.373725 0.278065
2862 4 0.471006 0.362526 0.256332
2861 4 0.481487 0.384923 0.299797
264 4 0.0756879 0.480685 0.288637
1381 2 0.112444 0.463354 0.273924
1382 4 0.0881547 0.468063 0.277537
3671 4 0.152498 0.467851 0.276988
1383 4 0.136733 0.458646 0.270311
728 4 0.165831 0.420835 0.26041
3670 2 0.171321 0.475279 0.291675
3672 4 0.190143 0.482708 0.306362
677 4 0.199785 0.483691 0.323533
1573 2 0.320735 0.437517 0.2752
1574 4 0.330101 0.458384 0.265098
1575 4 0.311369 0.416651 0.285301
614 4 0.339195 0.42247 0.297764
1802 4 0.340937 0.469413 0.278076
1801 2 0.341974 0.493031 0.269934
392 4 0.240959 0.0350601 0.33851
391 2 0.221914 0.0246787 0.350947
393 4 0.202868 0.0142973 0.363384
480 4 0.304508 0.022291 0.37767
478 2 0.286349 0.0393685 0.375722
2642 4 0.303415 0.0122246 0.394751
651 4 0.262188 0.0755534 0.375254
479 4 0.268191 0.056446 0.373773
2880 4 0.433363 0.0700705 0.391882
2878 2 0.430543 0.0797527 0.369002
1517 4 0.428938 0.0667485 0.411506
4162 2 0.463151 0.00051176 0.400857
1516 2 0.427515 0.0417871 0.411786
4164 4 0.442314 0.0143304 0.400923
649 2 0.266924 0.0979162 0.385386
650 4 0.27166 0.120279 0.395518
402 4 0.269902 0.139821 0.392334
400 2 0.275318 0.160992 0.404485
1031 4 0.364862 0.153364 0.364542
1030 2 0.380615 0.146239 0.382605
1032 4 0.396369 0.139114 0.400667
2658 4 0.359733 0.149402 0.343889
761 4 0.425155 0.155036 0.346078
760 2 0.422297 0.130441 0.342601
762 4 0.419439 0.105846 0.339123
2879 4 0.427722 0.0894349 0.346123
2831 4 0.00783771 0.190782 0.33672
2830 2 0.00145147 0.214957 0.336669
470 4 0.0655966 0.175335 0.337063
2612 4 0.0486141 0.224788 0.407205
2611 2 0.0690468 0.220094 0.393579
2613 4 0.0894796 0.215399 0.379954
341 4 0.0966396 0.231872 0.385794
340 2 0.119727 0.241353 0.384301
388 2 0.161352 0.236243 0.339584
390 4 0.177162 0.221519 0.352169
708 4 0.233394 0.188984 0.377809
707 4 0.194945 0.215308 0.359658
706 2 0.214169 0.202146 0.368733
509 4 0.320452 0.228114 0.342807
717 4 0.33553 0.215359 0.347089
715 2 0.353112 0.233136 0.346855
488 4 0.387423 0.242102 0.354606
342 4 0.142815 0.250835 0.382808
824 4 0.147205 0.263256 0.397913
669 4 0.133792 0.313491 0.411182
373 2 0.250888 0.333601 0.370725
602 4 0.244696 0.327326 0.411367
374 4 0.255299 0.330299 0.395114
716 4 0.370694 0.250912 0.34662
487 2 0.402376 0.248588 0.373567
489 4 0.41733 0.255075 0.392527
267 4 0.422707 0.268496 0.406207
444 4 0.057559 0.359205 0.408184
375 4 0.246477 0.336904 0.346336
615 4 0.347249 0.401953 0.342652
2924 4 0.362378 0.407967 0.354946
2925 4 0.391919 0.388816 0.39046
2923 2 0.377148 0.398391 0.372703
120 3 0.401124 0.343874 0.387665
117 3 0.407609 0.37993 0.38054
116 1 0.416658 0.358783 0.380246
118 3 0.422871 0.353585 0.358503
585 4 0.441538 0.376477 0.397893
119 3 0.435262 0.358392 0.394109
583 2 0.461788 0.390278 0.392928
584 4 0.482038 0.404079 0.387964
2108 4 0.331801 0.436431 0.402653
2107 2 0.329786 0.461311 0.40411
2109 4 0.327771 0.486191 0.405566
2 3 0.337594 0.502408 0.391926
1472 4 0.380396 0.495317 0.366846
1471 2 0.405049 0.49822 0.363855
543 4 0.447513 0.491938 0.353623
1473 4 0.429703 0.501122 0.360863
336 4 0.487556 0.460384 0.395976
541 2 0.458798 0.48051 0.372786
542 4 0.470084 0.469083 0.391949
599 4 0.300226 0.03625 0.488868
3159 4 0.310239 0.049026 0.499789
598 2 0.304833 0.0154219 0.475824
3157 2 0.317796 0.0691976 0.487093
841 2 0.406643 0.00576671 0.484751
1061 4 0.410097 0.0413899 0.482067
842 4 0.406693 0.0283442 0.495495
1518 4 0.426091 0.0168256 0.412065
1060 2 0.427505 0.0577937 0.489351
1062 4 0.444913 0.0741975 0.496635
1034 4 0.0783673 0.100187 0.505166
938 4 0.0947498 0.0932698 0.497196
939 4 0.110472 0.115644 0.455328
937 2 0.102611 0.104457 0.476262
472 2 0.189522 0.136012 0.422399
474 4 0.178413 0.158408 0.422828
473 4 0.200631 0.113616 0.421969
3158 4 0.325353 0.0893691 0.474398
858 4 0.262111 0.167727 0.490639
2502 4 0.34264 0.0984719 0.479138
2500 2 0.347542 0.122552 0.474522
2501 4 0.352445 0.146631 0.469906
320 4 0.350678 0.162076 0.482072
2516 4 0.449737 0.0930957 0.490225
2515 2 0.474594 0.0929168 0.487521
2517 4 0.49945 0.0927379 0.484817
2847 4 0.0467523 0.229164 0.427105
368 4 0.165105 0.236678 0.496103
367 2 0.175982 0.239816 0.47381
369 4 0.18686 0.242953 0.451516
401 4 0.280734 0.182163 0.416636
372 4 0.253104 0.24068 0.441862
370 2 0.26292 0.219701 0.432443
371 4 0.272736 0.198723 0.423023
642 4 0.338999 0.229547 0.464693
319 2 0.347591 0.185821 0.474872
321 4 0.344503 0.209565 0.467672
451 2 0.479271 0.236899 0.459588
453 4 0.454383 0.237786 0.461811
266 4 0.442125 0.24232 0.444134
2845 2 0.0472959 0.250516 0.440105
2846 4 0.0478395 0.271867 0.453105
260 4 0.0585124 0.267834 0.469981
259 2 0.082228 0.272493 0.476388
383 4 0.00306384 0.322135 0.490407
823 2 0.161087 0.257486 0.417892
261 4 0.105944 0.277152 0.482794
667 2 0.12895 0.315501 0.43563
695 4 0.119127 0.28637 0.493861
694 2 0.134139 0.266684 0.497363
668 4 0.124108 0.317512 0.460077
635 4 0.122376 0.323977 0.478706
825 4 0.17497 0.251716 0.437871
871 2 0.306484 0.328014 0.471613
1190 4 0.254108 0.28799 0.486429
1191 4 0.265343 0.25337 0.452136
1189 2 0.259726 0.27068 0.469282
603 4 0.287351 0.318064 0.43577
601 2 0.266023 0.322695 0.423569
872 4 0.318504 0.324338 0.493228
873 4 0.294465 0.331689 0.449998
813 4 0.334362 0.325971 0.505634
1394 4 0.250819 0.298487 0.504137
640 2 0.342218 0.253283 0.471863
811 2 0.344897 0.303863 0.500593
641 4 0.345438 0.277019 0.479034
812 4 0.355431 0.281754 0.495552
265 2 0.432416 0.255408 0.42517
442 2 0.0587659 0.348926 0.430945
443 4 0.0599728 0.338647 0.453706
1040 4 0.0541576 0.359678 0.49673
382 2 0.00602351 0.346287 0.49616
1640 4 0.0979229 0.382457 0.442885
1639 2 0.103817 0.405304 0.434611
1641 4 0.109712 0.428151 0.426337
2139 4 0.122194 0.442698 0.430722
2137 2 0.113619 0.462425 0.44347
2138 4 0.105044 0.482151 0.456218
569 4 0.0893568 0.494825 0.458337
709 2 0.214861 0.44503 0.46314
326 4 0.219284 0.41948 0.488328
711 4 0.230992 0.433796 0.478592
710 4 0.198731 0.456264 0.447687
1698 4 0.309266 0.481907 0.413806
2315 4 0.19825 0.0507302 0.560922
1182 4 0.244773 0.0187876 0.542115
2314 2 0.19076 0.0271728 0.56468
945 4 0.186745 0.0679357 0.556084
1180 2 0.250945 0.0361269 0.525191
2316 4 0.18327 0.00361544 0.568438
1181 4 0.257117 0.0534661 0.508267
725 4 0.272418 0.0657031 0.501146
576 4 0.425848 0.0860925 0.572904
574 2 0.448742 0.0816948 0.581943
983 4 0.0196926 0.085423 0.500825
1035 4 0.0299569 0.0940134 0.516077
1033 2 0.0541621 0.0971001 0.510622
943 2 0.184973 0.0873731 0.571712
944 4 0.183201 0.10681 0.587339
724 2 0.261394 0.0881328 0.501885
726 4 0.250369 0.110563 0.502625
857 4 0.265907 0.121454 0.509218
856 2 0.264009 0.144591 0.499929
3460 2 0.0318727 0.222723 0.573115
3461 4 0.0142191 0.23873 0.565544
7 3 0.143659 0.211968 0.528965
10 3 0.149084 0.248042 0.521079
6 1 0.159501 0.228197 0.525118
696 4 0.149152 0.246997 0.500865
348 4 0.189379 0.226375 0.556106
8 3 0.173055 0.230042 0.543861
346 2 0.181064 0.240216 0.575197
9 3 0.172226 0.222046 0.506715
899 4 0.367186 0.217292 0.553141
268 2 0.469423 0.215608 0.518274
270 4 0.488657 0.202442 0.509225
269 4 0.450188 0.228773 0.527323
3043 2 0.0287559 0.275207 0.547056
3044 4 0.0213066 0.25848 0.564081
3045 4 0.0362053 0.291935 0.53003
935 4 0.0414331 0.310299 0.531784
934 2 0.052308 0.330656 0.522166
636 4 0.122068 0.326788 0.528633
634 2 0.122222 0.325383 0.50367
409 2 0.222563 0.290599 0.574567
410 4 0.225273 0.291305 0.549721
1395 4 0.215497 0.282185 0.535559
1393 2 0.233158 0.290336 0.519848
936 4 0.063183 0.351013 0.512548
1039 2 0.0655343 0.381126 0.502709
384 4 0.00898318 0.370439 0.501912
1041 4 0.0769111 0.402573 0.508689
1136 4 0.0796083 0.404678 0.527713
774 4 0.221247 0.33242 0.518989
772 2 0.20618 0.351515 0.524779
773 4 0.191113 0.370611 0.530569
327 4 0.203049 0.384123 0.519745
325 2 0.211166 0.401801 0.504037
1173 4 0.248824 0.395965 0.538129
1171 2 0.272853 0.400776 0.533168
1027 2 0.32587 0.410341 0.547917
1028 4 0.301229 0.41383 0.545512
1172 4 0.296883 0.405586 0.528207
891 4 0.32585 0.374995 0.568183
1237 2 0.381388 0.395341 0.559103
1029 4 0.350512 0.406852 0.550323
1239 4 0.363985 0.395929 0.54116
1238 4 0.398792 0.394752 0.577046
1135 2 0.0823743 0.423863 0.543506
1137 4 0.0851403 0.443049 0.559299
540 4 0.0846317 0.461934 0.553557
538 2 0.0968702 0.482711 0.546946
882 4 0.33436 0.488175 0.549518
1455 4 0.26985 0.491378 0.533736
1453 2 0.292111 0.490312 0.545071
2436 4 0.254651 0.503952 0.539452
1454 4 0.314372 0.489246 0.556406
881 4 0.371744 0.480058 0.517312
1952 4 0.38857 0.48955 0.516244
880 2 0.353052 0.484116 0.533415
240 4 0.455728 0.439504 0.52374
238 2 0.480473 0.437519 0.520751
718 2 0.014054 0.00761603 0.602554
720 4 0.99715 0.0222251 0.591329
1004 4 0.316437 0.0548562 0.59565
1130 4 0.302687 0.0629944 0.582736
1003 2 0.320448 0.0329111 0.606941
1005 4 0.32446 0.0109659 0.618233
966 4 0.306392 0.0157075 0.624942
1129 2 0.284132 0.0784045 0.589325
1967 4 0.418379 0.0329766 0.622573
1142 4 0.419995 0.0911103 0.591928
1968 4 0.443384 0.995523 0.60083
575 4 0.471635 0.0772972 0.590983
3438 4 0.488279 0.07119 0.601716
1966 2 0.430882 0.0142499 0.611702
916 2 0.1493 0.126593 0.605072
918 4 0.132334 0.136314 0.620655
1212 4 0.132767 0.127493 0.637964
1210 2 0.125934 0.14808 0.650401
917 4 0.166266 0.116872 0.589489
1283 4 0.24132 0.135913 0.654674
1282 2 0.217415 0.143153 0.655823
1284 4 0.19351 0.150393 0.656973
1153 2 0.253138 0.12587 0.615557
1155 4 0.247567 0.139002 0.636092
1154 4 0.258709 0.112738 0.595022
1131 4 0.265577 0.0938146 0.595915
950 4 0.313471 0.139953 0.639161
949 2 0.301222 0.16029 0.631314
2319 4 0.329077 0.141079 0.625491
1143 4 0.371695 0.0954169 0.579712
887 4 0.394303 0.0911459 0.63513
2318 4 0.372561 0.136401 0.649738
2317 2 0.350819 0.13874 0.637614
1141 2 0.395845 0.0932636 0.58582
886 2 0.400914 0.0976785 0.658342
905 4 0.476081 0.144191 0.643271
904 2 0.487686 0.166282 0.641686
3462 4 0.0495262 0.206717 0.580686
1258 2 0.111879 0.205994 0.64363
1259 4 0.124527 0.185577 0.650584
1260 4 0.099232 0.226411 0.636676
897 4 0.0933619 0.233175 0.617478
1086 4 0.230432 0.228292 0.621133
978 4 0.247063 0.218433 0.626242
976 2 0.267507 0.206684 0.617925
977 4 0.287951 0.194935 0.609608
951 4 0.288974 0.180627 0.623467
900 4 0.384077 0.224419 0.599667
898 2 0.375632 0.220856 0.576404
906 4 0.49929 0.188372 0.6401
1011 4 0.504527 0.194995 0.658694
991 2 0.0889915 0.301272 0.656166
895 2 0.0983912 0.257616 0.619063
896 4 0.103421 0.282057 0.620649
992 4 0.0993949 0.285917 0.639397
347 4 0.172749 0.254057 0.594288
1084 2 0.222355 0.251263 0.615448
411 4 0.219852 0.289894 0.599413
1085 4 0.214278 0.274233 0.609764
889 2 0.319426 0.367393 0.591121
890 4 0.313002 0.35979 0.614058
1204 2 0.329888 0.387509 0.64553
1205 4 0.319611 0.37384 0.627289
804 4 0.401658 0.392819 0.597994
1206 4 0.340164 0.401178 0.663771
802 2 0.412118 0.370134 0.599061
807 4 0.478935 0.34198 0.628339
805 2 0.454911 0.339622 0.621823
803 4 0.422579 0.347448 0.600128
806 4 0.430887 0.337264 0.615308
791 4 0.489113 0.328926 0.638843
2128 2 0.126925 0.49022 0.653693
2129 4 0.143444 0.471482 0.654799
3372 4 0.452454 0.485158 0.668747
1007 4 0.462204 0.469921 0.660621
1006 2 0.447882 0.449459 0.659457
1008 4 0.433559 0.428998 0.658292
832 2 0.0179866 0.0751361 0.74456
833 4 0.0206079 0.072844 0.7198
1256 4 0.272623 0.0247538 0.712105
959 4 0.277865 0.0442945 0.717248
1255 2 0.269064 0.0120695 0.690854
958 2 0.267961 0.0664019 0.711054
1026 4 0.370945 0.064621 0.734941
1024 2 0.353662 0.0548504 0.75014
4467 4 0.498304 0.00330142 0.663486
1211 4 0.119101 0.168666 0.662838
851 4 0.128536 0.151281 0.703335
850 2 0.116358 0.162252 0.722217
947 4 0.147594 0.155606 0.707656
946 2 0.16577 0.15793 0.690645
948 4 0.183947 0.160254 0.673633
2255 4 0.249281 0.12823 0.670545
960 4 0.258057 0.0885092 0.70486
2256 4 0.246198 0.102132 0.713091
2254 2 0.247739 0.115181 0.691818
954 4 0.371305 0.0844621 0.736425
952 2 0.385657 0.0905834 0.716887
953 4 0.400008 0.0967047 0.697348
888 4 0.407524 0.104211 0.681554
852 4 0.104181 0.173223 0.741099
1178 4 0.0873813 0.185794 0.743165
151 1 0.0147811 0.307068 0.733572
154 3 0.0291088 0.301027 0.716349
1067 4 0.040437 0.318014 0.721554
1066 2 0.0609443 0.315951 0.707398
1068 4 0.0814517 0.313888 0.693243
885 4 0.0372963 0.326489 0.739881
153 3 0.000982861 0.289227 0.739022
993 4 0.0785881 0.316627 0.672934
796 2 0.286958 0.332189 0.753357
798 4 0.303454 0.314153 0.758625
998 4 0.485431 0.330122 0.718658
1279 2 0.0436961 0.409874 0.682696
1281 4 0.0196493 0.404194 0.678866
3420 4 0.00877357 0.386174 0.674902
1278 4 0.211038 0.374952 0.726751
1097 4 0.216448 0.378458 0.707347
1096 2 0.199717 0.393902 0.697014
1276 2 0.230515 0.36417 0.738134
1098 4 0.182987 0.409346 0.686682
1017 4 0.331063 0.397031 0.736894
1138 2 0.327564 0.396448 0.700372
1140 4 0.318061 0.40408 0.722204
1139 4 0.337068 0.388817 0.678541
3463 2 0.432763 0.395797 0.682318
3465 4 0.439442 0.373267 0.690859
999 4 0.456204 0.362706 0.694476
997 2 0.470817 0.346414 0.706567
3464 4 0.426083 0.418327 0.673776
1280 4 0.0677429 0.415554 0.686525
942 4 0.145104 0.459624 0.671749
816 4 0.101169 0.415191 0.748456
940 2 0.163245 0.442475 0.673169
941 4 0.181386 0.425327 0.67459
834 4 0.0153652 0.0774282 0.76932
907 2 0.146896 0.0686296 0.811957
909 4 0.155269 0.0451135 0.813396
911 4 0.159578 0.0378155 0.832741
1970 4 0.309023 0.0349516 0.832863
1025 4 0.336379 0.0450799 0.765339
819 4 0.390609 0.0338281 0.829402
817 2 0.406469 0.0525362 0.834264
908 4 0.138524 0.0921456 0.810517
864 4 0.124095 0.105448 0.808558
862 2 0.106653 0.113727 0.824446
1021 2 0.20069 0.145785 0.808618
1022 4 0.215381 0.134315 0.791951
1023 4 0.185998 0.157256 0.825285
869 4 0.171501 0.154614 0.83827
3426 4 0.492823 0.119356 0.806096
1177 2 0.0810305 0.208078 0.75256
923 4 0.0645899 0.237567 0.778458
922 2 0.0480836 0.232 0.796395
924 4 0.0315772 0.226433 0.814332
1179 4 0.0746796 0.230362 0.761955
1299 4 0.176735 0.205667 0.748514
1297 2 0.190848 0.207587 0.769064
840 4 0.199972 0.224956 0.801043
1298 4 0.204962 0.209506 0.789614
838 2 0.20843 0.234419 0.822586
3328 2 0.279219 0.216898 0.771537
1092 4 0.282803 0.187951 0.80377
3329 4 0.285507 0.196879 0.785134
3330 4 0.272932 0.236917 0.75794
1094 4 0.331124 0.24027 0.825783
1093 2 0.309787 0.249633 0.834853
1090 2 0.275125 0.187584 0.827563
3347 4 0.338049 0.239813 0.808178
155 3 0.0268216 0.313437 0.751823
1207 2 0.144559 0.289154 0.818341
1208 4 0.168875 0.291012 0.82386
1209 4 0.120243 0.287295 0.812822
1064 4 0.171217 0.310738 0.81955
1063 2 0.193344 0.318689 0.811044
1241 4 0.227129 0.334758 0.81701
1065 4 0.215471 0.32664 0.802537
1043 4 0.281536 0.24879 0.771336
1044 4 0.298648 0.295338 0.764918
1042 2 0.290092 0.272064 0.768127
800 4 0.278817 0.275927 0.84152
3348 4 0.374627 0.272832 0.799665
1052 4 0.387603 0.27123 0.813903
3346 2 0.356338 0.256323 0.803921
1051 2 0.406767 0.287289 0.813713
1053 4 0.425931 0.303348 0.813522
867 4 0.443091 0.294103 0.821776
866 4 0.486479 0.312164 0.804689
865 2 0.464785 0.303133 0.813232
814 2 0.0852751 0.396048 0.75093
883 2 0.0485089 0.344958 0.752464
884 4 0.0597216 0.363427 0.765048
815 4 0.0693813 0.376906 0.753405
1277 4 0.249992 0.353389 0.749518
1240 2 0.243797 0.351586 0.809
1242 4 0.260466 0.368415 0.800991
797 4 0.270462 0.350226 0.748088
1019 4 0.358928 0.39136 0.784663
1015 2 0.350182 0.398444 0.752945
1016 4 0.369301 0.399858 0.768996
189 3 0.393259 0.396926 0.805553
186 1 0.409237 0.413474 0.802506
1018 2 0.355209 0.387711 0.809118
187 3 0.424257 0.406462 0.786557
1251 4 0.441757 0.4124 0.796797
1249 2 0.463191 0.406802 0.785202
1250 4 0.484625 0.401205 0.773607
3011 4 0.503567 0.396083 0.772438
2030 4 0.210828 0.488438 0.781002
2029 2 0.228217 0.471297 0.775621
2031 4 0.245606 0.454155 0.770239
2287 2 0.333896 0.483369 0.757851
83 3 0.283046 0.45238 0.77941
82 3 0.289049 0.434582 0.811965
81 1 0.297902 0.449669 0.797026
84 3 0.301131 0.469935 0.807856
2358 4 0.315302 0.475804 0.819623
85 3 0.317795 0.44175 0.789267
1236 4 0.289405 0.423319 0.82867
2289 4 0.344263 0.460975 0.761881
2214 4 0.336738 0.449287 0.779887
188 3 0.399101 0.43302 0.795185
2213 4 0.382015 0.443022 0.800172
2212 2 0.359376 0.446155 0.790029
190 3 0.420287 0.417299 0.822049
1988 4 0.439409 0.42031 0.815841
1114 2 0.470814 0.486275 0.821777
1116 4 0.462981 0.468936 0.837999
1987 2 0.450763 0.435653 0.831992
1214 4 0.0407096 0.0740169 0.843223
1296 4 0.02336 0.0640869 0.839076
1294 2 0.00773461 0.0498157 0.852393
931 2 0.129344 0.052854 0.904628
932 4 0.131326 0.0771213 0.89894
933 4 0.127363 0.0285867 0.910315
830 4 0.136819 0.012257 0.911771
910 2 0.176146 0.0359669 0.851376
912 4 0.192714 0.0341184 0.870011
1227 4 0.189033 0.0351276 0.889557
1225 2 0.183905 0.0368467 0.913969
1969 2 0.331885 0.0274403 0.839652
1252 2 0.302249 0.0654724 0.911731
1254 4 0.322936 0.0523333 0.906772
1971 4 0.354748 0.019929 0.84644
2321 4 0.397741 0.0257179 0.845425
1037 4 0.334105 0.0618463 0.893305
1036 2 0.356107 0.0723169 0.887699
2320 2 0.400019 0.00439492 0.858283
818 4 0.422329 0.0712443 0.839126
846 4 0.462969 0.0829062 0.882
1213 2 0.0576074 0.0923709 0.844889
1215 4 0.0745052 0.110725 0.846554
868 2 0.146663 0.15253 0.84025
870 4 0.121825 0.150445 0.842229
863 4 0.0892115 0.122006 0.840334
1133 4 0.14213 0.0924311 0.907691
1132 2 0.159234 0.1101 0.912216
1231 2 0.201847 0.140188 0.899214
1232 4 0.208021 0.15436 0.879562
35 3 0.21723 0.159014 0.862462
1134 4 0.176337 0.127769 0.91674
1253 4 0.281562 0.0786115 0.916689
1048 2 0.29196 0.118637 0.912515
1049 4 0.302433 0.139905 0.904566
1013 4 0.315739 0.146101 0.892144
1050 4 0.281486 0.09737 0.920463
1038 4 0.37811 0.0827875 0.882093
1012 2 0.338241 0.155725 0.897266
1014 4 0.360743 0.165348 0.902389
2792 4 0.373455 0.153279 0.911389
845 4 0.428358 0.0882015 0.846296
43 3 0.495965 0.089371 0.846666
844 2 0.445664 0.0855539 0.864148
1111 2 0.473533 0.134655 0.870083