ITEM: TIMESTEP
1610000
ITEM: NUMBER OF ATOMS
4590
ITEM: BOX BOUNDS pp pp pp
-9.9985700000000008e+00 9.9985700000000008e+00
-9.9985700000000008e+00 9.9985700000000008e+00
-9.9985700000000008e+00 9.9985700000000008e+00
ITEM: ATOMS id type xs ys zs
3291 4 0.0073046 0.0515328 0.0448025
565 2 0.239527 0.0603254 0.0796682
566 4 0.220397 0.0451474 0.0850376
567 4 0.258658 0.0755034 0.0742989
356 4 0.251985 0.0761592 0.0544095
653 4 0.368568 0.0164613 0.0807894
1760 4 0.425659 0.00727452 0.0264658
1448 4 0.43159 0.0509932 0.0620531
1608 4 0.444241 0.0580113 0.0458992
1606 2 0.446754 0.0797449 0.0337949
702 4 0.0702106 0.103474 0.0626402
1668 4 0.0635921 0.111539 0.0442378
1666 2 0.0645621 0.113204 0.0193085
2623 2 0.0250464 0.158979 0.0343938
2625 4 0.0231478 0.138878 0.0196443
573 4 0.22872 0.117338 0.0066897
357 4 0.24244 0.112077 0.0209506
355 2 0.247213 0.0941181 0.03768
490 2 0.326757 0.108003 0.0121593
492 4 0.304434 0.108779 0.000922173
491 4 0.34908 0.107226 0.0233965
557 4 0.367016 0.108516 0.0147899
556 2 0.377717 0.130265 0.0209271
558 4 0.388417 0.152013 0.0270643
1607 4 0.449267 0.101479 0.0216907
3046 2 0.479194 0.129406 0.0107471
2640 4 0.450824 0.13348 0.0451813
3048 4 0.46519 0.112759 0.0230731
2638 2 0.445922 0.145356 0.0666316
3047 4 0.493198 0.146053 0.998421
148 3 0.487834 0.165668 0.000714107
656 4 0.0104018 0.188979 0.0477556
2624 4 0.026945 0.179079 0.0491433
655 2 0.00933533 0.205051 0.0668798
354 4 0.26524 0.217479 0.0110556
297 4 0.264555 0.209312 0.0299024
295 2 0.262602 0.207114 0.0547326
296 4 0.260649 0.204917 0.0795627
665 4 0.379756 0.16611 0.0373914
664 2 0.393001 0.185212 0.0281809
666 4 0.406247 0.204314 0.0189703
2792 4 0.414365 0.196038 0.00302262
456 4 0.138246 0.279824 0.018843
455 4 0.121666 0.286517 0.0655441
454 2 0.129956 0.28317 0.0421935
294 4 0.141386 0.27717 0.997924
287 4 0.131359 0.302213 0.0704596
286 2 0.147434 0.318121 0.0811221
670 2 0.44668 0.320772 0.066166
672 4 0.434488 0.301266 0.0759667
550 2 0.0765278 0.401092 0.0364827
330 4 0.040611 0.402584 0.0480873
552 4 0.0589143 0.411408 0.0509224
328 2 0.020563 0.41296 0.0588387
1103 4 0.0787185 0.390903 0.997202
551 4 0.0941414 0.390775 0.022043
251 4 0.193424 0.361528 0.0404392
250 2 0.186482 0.353093 0.0629303
483 4 0.202072 0.349889 0.0259101
481 2 0.204169 0.363724 0.00518866
524 4 0.309386 0.3999 0.0782952
739 2 0.30604 0.341323 0.0619086
741 4 0.327354 0.346422 0.0498715
523 2 0.318165 0.409544 0.0569622
740 4 0.284726 0.336224 0.0739456
13 3 0.361226 0.38307 0.0572685
15 3 0.347745 0.348085 0.0538115
11 1 0.366333 0.361095 0.0518453
1070 4 0.380459 0.364966 0.0119206
14 3 0.374517 0.359984 0.0301612
12 3 0.382506 0.353435 0.0662988
671 4 0.458872 0.340278 0.0563653
957 4 0.425876 0.415386 0.0510642
323 4 0.46127 0.357304 0.0473546
324 4 0.438419 0.401785 0.0475021
322 2 0.449845 0.379544 0.0474283
1045 2 0.491589 0.371656 0.00725667
525 4 0.326944 0.419189 0.0356293
494 4 0.328476 0.436132 0.0231535
955 2 0.410357 0.424352 0.0336309
493 2 0.353279 0.438991 0.0218018
956 4 0.394837 0.433319 0.0161975
495 4 0.378082 0.44185 0.0204501
486 4 0.185038 0.998939 0.0947069
485 4 0.221727 0.0323608 0.100839
484 2 0.203383 0.01565 0.0977729
654 4 0.339582 0.0205796 0.12133
652 2 0.354075 0.0185204 0.10106
1476 4 0.351665 0.023418 0.137274
1474 2 0.366942 0.010976 0.152669
1447 2 0.439363 0.0490291 0.0857366
1785 4 0.471301 0.0128313 0.163673
1449 4 0.447135 0.0470651 0.10942
1783 2 0.458103 0.0240238 0.145626
1784 4 0.444904 0.0352163 0.127578
700 2 0.0724317 0.0978689 0.0869061
701 4 0.0746527 0.0922639 0.111172
738 4 0.0242842 0.164814 0.15478
2758 2 0.00097733 0.155172 0.120362
450 4 0.093651 0.0983886 0.113404
449 4 0.137771 0.0812717 0.129564
448 2 0.115711 0.0898302 0.121484
578 4 0.15309 0.0880566 0.139942
577 2 0.168677 0.107241 0.143703
579 4 0.184265 0.126426 0.147465
236 4 0.192489 0.127011 0.16557
277 2 0.296947 0.151806 0.155681
278 4 0.29296 0.161909 0.13316
2639 4 0.44102 0.157232 0.0880819
746 4 0.445487 0.104036 0.0887466
747 4 0.471289 0.117259 0.129492
745 2 0.458388 0.110647 0.109119
25 3 0.473825 0.134988 0.13951
21 1 0.47066 0.145147 0.159645
24 3 0.450748 0.157058 0.15946
758 4 0.437081 0.145711 0.167148
22 3 0.488011 0.159726 0.163586
657 4 0.00826888 0.221123 0.086004
705 4 0.00826962 0.226787 0.105558
2807 4 0.0441888 0.243468 0.0996353
736 2 0.0489493 0.167797 0.151968
737 4 0.0736145 0.17078 0.149155
477 4 0.0583273 0.244221 0.114417
2759 4 0.0143114 0.168929 0.136428
507 4 0.0864689 0.166541 0.133735
505 2 0.0972453 0.185283 0.121173
506 4 0.108022 0.204025 0.108612
755 4 0.125781 0.228729 0.145669
754 2 0.140679 0.238036 0.127876
756 4 0.155578 0.247343 0.110083
395 4 0.0887561 0.234801 0.157265
582 4 0.276416 0.165985 0.121783
581 4 0.268236 0.209342 0.0982472
580 2 0.272326 0.187663 0.110015
254 4 0.370626 0.185943 0.100727
253 2 0.392539 0.188687 0.112452
255 4 0.414452 0.19143 0.124177
528 4 0.409884 0.228755 0.164116
2894 4 0.434178 0.188323 0.116992
2895 4 0.456 0.223043 0.0883727
2893 2 0.445089 0.205683 0.102682
475 2 0.0810314 0.254088 0.117929
2806 2 0.0305957 0.263614 0.0937578
2808 4 0.0170026 0.28376 0.0878802
476 4 0.103736 0.263955 0.121441
361 2 0.134731 0.321989 0.160505
363 4 0.113717 0.324217 0.147141
462 4 0.1634 0.261898 0.0980248
283 2 0.198138 0.24755 0.163879
460 2 0.187047 0.261439 0.106136
461 4 0.210694 0.26098 0.114247
623 4 0.22893 0.264314 0.105015
284 4 0.208732 0.268835 0.156139
622 2 0.251387 0.264284 0.116009
624 4 0.273844 0.264255 0.127002
607 2 0.294459 0.32982 0.116654
608 4 0.290623 0.328082 0.0920071
612 4 0.285697 0.329104 0.155995
526 2 0.417719 0.251973 0.159145
2841 4 0.4255 0.292841 0.0930887
2839 2 0.418659 0.286858 0.116382
2840 4 0.411818 0.280874 0.139675
527 4 0.425555 0.275191 0.154175
647 4 0.0271505 0.332568 0.142353
646 2 0.00681163 0.335852 0.156521
417 4 0.102933 0.340686 0.142401
415 2 0.0851905 0.343539 0.159786
252 4 0.17954 0.344659 0.0854214
288 4 0.16351 0.33403 0.0917846
609 4 0.298294 0.331558 0.1413
246 4 0.298312 0.398504 0.0955395
244 2 0.306779 0.411178 0.11536
2652 4 0.414939 0.396511 0.117744
596 4 0.414077 0.413061 0.129473
2650 2 0.41902 0.376869 0.132667
2651 4 0.423102 0.357227 0.147591
2538 4 0.425808 0.349755 0.166028
1710 4 0.0303668 0.486325 0.0994988
315 4 0.0342771 0.437584 0.130068
313 2 0.0311911 0.452696 0.110389
314 4 0.028105 0.467807 0.0907087
1708 2 0.0490205 0.499763 0.089667
289 2 0.14797 0.450451 0.119703
290 4 0.129256 0.465045 0.111831
1788 4 0.124331 0.477452 0.0965994
1786 2 0.105061 0.492855 0.0925267
291 4 0.166685 0.435857 0.127575
627 4 0.168791 0.418591 0.138294
625 2 0.187329 0.428108 0.152112
638 4 0.245021 0.491419 0.159108
245 4 0.315246 0.423851 0.135181
387 4 0.319244 0.439181 0.14765
385 2 0.32879 0.447791 0.169096
595 2 0.430146 0.43215 0.131081
659 4 0.45684 0.454752 0.114668
597 4 0.446215 0.451239 0.132689
658 2 0.449501 0.478313 0.110646
427 2 0.125279 0.00262881 0.239895
429 4 0.109181 0.0193202 0.249246
1504 2 0.269438 0.0284234 0.203219
691 2 0.280337 0.0816817 0.219606
1505 4 0.276068 0.0525313 0.203048
692 4 0.292669 0.0614732 0.211562
1506 4 0.262808 0.00431547 0.20339
2745 4 0.478931 0.00119354 0.177981
235 2 0.204918 0.136535 0.185064
237 4 0.217347 0.14606 0.204557
722 4 0.22901 0.140327 0.220188
721 2 0.239664 0.118839 0.227253
723 4 0.250319 0.0973507 0.234318
693 4 0.268004 0.10189 0.227649
279 4 0.300933 0.141702 0.178202
732 4 0.320211 0.140431 0.184531
730 2 0.328017 0.153717 0.204222
757 2 0.418743 0.159443 0.177164
698 4 0.416695 0.115818 0.243261
23 3 0.470228 0.129256 0.176548
699 4 0.435219 0.158636 0.225255
521 4 0.453462 0.168457 0.226851
697 2 0.425957 0.137227 0.234258
2614 2 0.00625706 0.197974 0.242524
512 4 0.0791512 0.199292 0.219391
511 2 0.086856 0.220945 0.229236
513 4 0.0945608 0.242599 0.239081
392 4 0.145304 0.191206 0.203192
393 4 0.117696 0.181501 0.243742
391 2 0.1315 0.186353 0.223467
546 4 0.162669 0.183137 0.195765
285 4 0.187544 0.226266 0.17162
544 2 0.172897 0.205804 0.193169
545 4 0.183126 0.228471 0.190573
606 4 0.339973 0.179044 0.239728
518 4 0.397429 0.214038 0.17073
731 4 0.335823 0.167002 0.223913
759 4 0.400404 0.173174 0.18718
629 4 0.385358 0.168724 0.199832
309 4 0.347735 0.249793 0.169498
517 2 0.373882 0.222103 0.173106
519 4 0.350334 0.230168 0.175482
628 2 0.392613 0.182047 0.219707
630 4 0.399868 0.19537 0.239583
377 4 0.402693 0.213546 0.247544
376 2 0.415379 0.231488 0.235615
771 4 0.497051 0.177975 0.166369
520 2 0.465616 0.177047 0.246942
378 4 0.428066 0.24943 0.223685
2692 2 0.0558355 0.270589 0.217116
2694 4 0.0762603 0.26143 0.205975
2693 4 0.0354106 0.279748 0.228257
2799 4 0.0262405 0.268654 0.243113
298 2 0.0774121 0.324029 0.208475
299 4 0.0886974 0.304465 0.219201
362 4 0.155746 0.319761 0.17387
396 4 0.095849 0.263592 0.197533
735 4 0.104596 0.305411 0.22989
394 2 0.0923026 0.249197 0.177399
497 4 0.277745 0.257686 0.236527
610 2 0.301022 0.32447 0.175201
307 2 0.325742 0.260267 0.175137
498 4 0.301751 0.279709 0.198588
308 4 0.30375 0.27074 0.180776
496 2 0.289748 0.268697 0.217557
611 4 0.316347 0.319837 0.194407
345 4 0.332933 0.331949 0.190832
537 4 0.0671312 0.404551 0.168266
416 4 0.0674481 0.346393 0.177171
300 4 0.0661268 0.343593 0.197748
339 4 0.157567 0.338215 0.18478
366 4 0.141059 0.399527 0.248959
337 2 0.153725 0.362035 0.191341
338 4 0.149883 0.385854 0.197903
343 2 0.346531 0.348852 0.203263
344 4 0.36013 0.365755 0.215695
645 4 0.375058 0.371871 0.229346
643 2 0.372928 0.396672 0.231699
2536 2 0.416257 0.359904 0.186788
2537 4 0.406706 0.370052 0.207548
714 4 0.419602 0.384405 0.204834
106 1 0.502537 0.369857 0.244001
109 3 0.484386 0.35755 0.236419
712 2 0.425772 0.407179 0.213107
535 2 0.081032 0.425161 0.17094
603 4 0.151948 0.415441 0.243349
536 4 0.0949328 0.445772 0.173613
1775 4 0.104683 0.450756 0.189358
1774 2 0.123709 0.448303 0.205393
1776 4 0.142736 0.445849 0.221429
626 4 0.205868 0.437626 0.165929
768 4 0.224989 0.436995 0.172516
766 2 0.229787 0.461503 0.17376
504 4 0.175701 0.482064 0.229339
767 4 0.234585 0.48601 0.175003
644 4 0.370798 0.421473 0.234052
386 4 0.338336 0.456402 0.190541
1574 4 0.382634 0.438587 0.231314
1575 4 0.346047 0.462964 0.207483
1573 2 0.364341 0.450775 0.219399
1659 4 0.382413 0.488829 0.197024
713 4 0.431941 0.429953 0.22138
229 2 0.451189 0.466085 0.230124
231 4 0.43285 0.449441 0.226684
230 4 0.469528 0.482728 0.233564
1479 4 0.116027 0.0561003 0.284711
1478 4 0.106195 0.0348978 0.328921
1477 2 0.111111 0.045499 0.306816
247 2 0.245797 0.0606534 0.311961
249 4 0.240742 0.045973 0.331559
248 4 0.250852 0.0753338 0.292362
30 3 0.319421 0.0764337 0.27055
405 4 0.268058 0.0763743 0.303113
27 3 0.334488 0.0440036 0.259866
29 3 0.356681 0.0737393 0.265857
26 1 0.33748 0.0627516 0.272855
28 3 0.339706 0.056246 0.295016
1747 2 0.413079 0.0178004 0.278744
1749 4 0.409757 0.998041 0.293702
1748 4 0.416402 0.0375594 0.263787
743 4 0.413966 0.0574791 0.259331
742 2 0.416166 0.0823551 0.260565
530 4 0.0409902 0.165793 0.316507
404 4 0.309908 0.0917084 0.280439
403 2 0.288983 0.0840413 0.291776
631 2 0.307969 0.161845 0.323689
744 4 0.418366 0.107231 0.261798
332 4 0.481684 0.16444 0.315759
516 4 0.431243 0.163693 0.332702
2797 2 0.0251008 0.248101 0.257306
2615 4 0.0171844 0.216619 0.2551
2798 4 0.0239612 0.227548 0.2715
529 2 0.0617954 0.17616 0.307295
531 4 0.0826005 0.186527 0.298084
2849 4 0.129337 0.192217 0.256571
2850 4 0.0966796 0.199484 0.293738
2848 2 0.113008 0.19585 0.275154
633 4 0.306559 0.167805 0.299448
604 2 0.329402 0.173715 0.261751
708 4 0.272822 0.210912 0.311449
765 4 0.271687 0.224199 0.294204
763 2 0.277402 0.238964 0.274852
605 4 0.31883 0.168385 0.283774
764 4 0.283117 0.253728 0.255499
351 4 0.392168 0.226204 0.302953
349 2 0.386237 0.224285 0.327167
418 2 0.497758 0.203099 0.294525
522 4 0.477771 0.185638 0.267033
331 2 0.461234 0.172161 0.327899
420 4 0.488158 0.201269 0.271511
2655 4 0.0461291 0.300456 0.31085
2653 2 0.0633999 0.28903 0.296837
2800 2 0.00456084 0.311542 0.320615
2801 4 0.0271095 0.302035 0.315483
2654 4 0.0806706 0.277605 0.282824
733 2 0.0999228 0.296929 0.252942
618 4 0.1297 0.307357 0.288893
734 4 0.09525 0.288447 0.275994
749 4 0.146154 0.296767 0.286229
748 2 0.163514 0.281256 0.295351
616 2 0.134056 0.330367 0.280134
389 4 0.197944 0.274809 0.311646
750 4 0.180875 0.265746 0.304473
509 4 0.267996 0.326703 0.299308
508 2 0.268475 0.3155 0.321656
364 2 0.147015 0.375521 0.252617
617 4 0.138413 0.353377 0.271374
365 4 0.15297 0.351514 0.256276
727 2 0.235447 0.40956 0.260705
729 4 0.257204 0.397709 0.257334
434 4 0.271359 0.386366 0.268263
435 4 0.26088 0.34453 0.293575
433 2 0.26612 0.365448 0.280919
275 4 0.315649 0.412306 0.295838
274 2 0.32386 0.389507 0.302003
276 4 0.33207 0.366709 0.308169
614 4 0.34626 0.353462 0.314595
3990 4 0.497495 0.409899 0.261231
110 3 0.495308 0.388936 0.254118
681 4 0.0764863 0.485015 0.250526
679 2 0.0605908 0.474195 0.266509
501 4 0.0440195 0.478363 0.295121
680 4 0.0446953 0.463376 0.282492
499 2 0.0321183 0.487759 0.315003
414 4 0.127139 0.44367 0.251812
412 2 0.133187 0.46398 0.265082
413 4 0.139235 0.48429 0.278353
375 4 0.164179 0.488428 0.32809
601 2 0.175811 0.421697 0.247424
602 4 0.199674 0.427953 0.251498
728 4 0.21369 0.421411 0.264077
2 3 0.298951 0.499842 0.331879
3 3 0.297281 0.472115 0.306559
1 1 0.308026 0.479626 0.325705
4 3 0.330651 0.482543 0.321463
1802 4 0.345981 0.494797 0.323435
542 4 0.400346 0.425018 0.260564
446 4 0.378626 0.436542 0.312862
543 4 0.382352 0.450941 0.299358
541 2 0.391349 0.43798 0.279961
3591 4 0.0177112 0.0218413 0.382529
398 4 0.0972698 0.0194738 0.339971
1700 4 0.24563 0.0498781 0.34955
1699 2 0.266272 0.0435014 0.362137
1701 4 0.286914 0.0371248 0.374724
468 4 0.287434 0.0538 0.384538
466 2 0.2995 0.0746578 0.391213
479 4 0.400672 0.0816279 0.38667
2880 4 0.496534 0.0477856 0.401984
458 4 0.0335021 0.159517 0.334092
687 4 0.0848664 0.163767 0.350552
632 4 0.309378 0.155885 0.347931
467 4 0.311565 0.0955155 0.397888
684 4 0.314184 0.10375 0.416887
478 2 0.397983 0.103166 0.374257
480 4 0.395293 0.124703 0.361845
515 4 0.396884 0.143936 0.363197
514 2 0.414063 0.153814 0.34795
2642 4 0.394771 0.0875317 0.404805
760 2 0.485803 0.147303 0.374807
761 4 0.468642 0.164463 0.380824
685 2 0.0706021 0.170161 0.370067
686 4 0.0563378 0.176555 0.389582
457 2 0.0119824 0.171059 0.339464
342 4 0.05878 0.165711 0.40689
368 4 0.15469 0.195376 0.374685
470 4 0.13756 0.195401 0.384846
469 2 0.119399 0.205514 0.398742
471 4 0.101239 0.215628 0.412637
367 2 0.17893 0.190356 0.37116
369 4 0.203169 0.185335 0.367635
474 4 0.223007 0.18046 0.373955
472 2 0.225077 0.174988 0.398264
370 2 0.214877 0.239081 0.389065
372 4 0.233845 0.23214 0.403804
401 4 0.238759 0.251401 0.408909
371 4 0.195909 0.246021 0.374326
706 2 0.265594 0.212631 0.335323
707 4 0.258365 0.214349 0.359197
715 2 0.280537 0.210232 0.396227
717 4 0.268743 0.217752 0.375502
716 4 0.292331 0.202713 0.416953
350 4 0.380305 0.222366 0.351381
333 4 0.440785 0.179882 0.340039
2515 2 0.485727 0.233097 0.387991
2517 4 0.464379 0.233725 0.400993
452 4 0.445975 0.237784 0.394336
451 2 0.429137 0.247543 0.410034
442 2 0.0573848 0.283626 0.363197
443 4 0.0380188 0.268856 0.357541
444 4 0.0767509 0.298396 0.368852
260 4 0.0855506 0.312467 0.379972
259 2 0.0883206 0.309883 0.404687
388 2 0.197912 0.264888 0.334597
390 4 0.197879 0.254967 0.357548
510 4 0.268955 0.304297 0.344004
636 4 0.287267 0.308025 0.352059
634 2 0.306264 0.31759 0.365205
635 4 0.32526 0.327155 0.378352
873 4 0.278722 0.336826 0.407512
669 4 0.315002 0.390706 0.389231
667 2 0.314444 0.365712 0.388855
594 4 0.304159 0.406725 0.396522
668 4 0.313886 0.340717 0.388479
613 2 0.360097 0.355919 0.335275
2924 4 0.392611 0.354862 0.350928
615 4 0.373934 0.358376 0.355955
2923 2 0.415705 0.357972 0.359994
119 3 0.471664 0.342062 0.377442
2925 4 0.438799 0.361082 0.369059
120 3 0.469083 0.375267 0.359881
116 1 0.467095 0.364673 0.379942
117 3 0.445572 0.367098 0.387692
118 3 0.48171 0.374053 0.395332
2508 4 0.488065 0.355932 0.4012
327 4 0.16505 0.419922 0.403951
325 2 0.16862 0.4247 0.379669
326 4 0.172191 0.429478 0.355387
373 2 0.170939 0.4681 0.340985
374 4 0.177699 0.447773 0.353879
2109 4 0.204521 0.455567 0.394942
2107 2 0.191764 0.468459 0.412155
592 2 0.295403 0.428577 0.404949
1555 2 0.290603 0.482005 0.383555
1556 4 0.292176 0.460718 0.396577
593 4 0.286647 0.450428 0.413376
5 3 0.305158 0.464639 0.342611
445 2 0.371538 0.428369 0.335404
447 4 0.36445 0.420197 0.357946
753 4 0.335516 0.422273 0.416562
752 4 0.367053 0.419848 0.377829
751 2 0.351284 0.42106 0.397195
560 4 0.475095 0.468824 0.380276
559 2 0.497414 0.463029 0.389944
598 2 0.160313 0.00387986 0.44545
599 4 0.139227 0.997917 0.457491
2429 4 0.201817 0.00937553 0.434422
600 4 0.1814 0.00984308 0.433409
1152 4 0.222478 0.0340762 0.499612
1059 4 0.224086 0.0158887 0.491045
575 4 0.323725 0.0379153 0.490232
3158 4 0.339744 0.0250979 0.48981
574 2 0.334222 0.0567097 0.477514
576 4 0.344719 0.0755042 0.464795
2641 2 0.380026 0.0766902 0.421841
2643 4 0.365281 0.0658487 0.438877
1517 4 0.413682 0.0268175 0.455802
1516 2 0.410627 0.0372644 0.478312
2878 2 0.499689 0.0296618 0.418917
340 2 0.0538664 0.146365 0.421949
341 4 0.0489529 0.127019 0.437008
1035 4 0.0523646 0.10878 0.44489
1033 2 0.0432643 0.106477 0.468064
1034 4 0.034164 0.104174 0.491239
650 4 0.24079 0.165979 0.486283
682 2 0.323641 0.0972013 0.439088
683 4 0.333099 0.0906526 0.461288
2501 4 0.492618 0.116245 0.424901
2658 4 0.480198 0.118391 0.439258
2656 2 0.470657 0.141255 0.442632
2657 4 0.461116 0.164119 0.446006
825 4 0.0575012 0.20501 0.45778
1200 4 0.0411328 0.197112 0.467327
1198 2 0.0179744 0.187689 0.467056
823 2 0.0822277 0.201346 0.458374
1270 2 0.122105 0.177036 0.489927
1272 4 0.120767 0.187061 0.467061
824 4 0.106954 0.197681 0.458967
473 4 0.227146 0.169516 0.422574
649 2 0.230124 0.167731 0.463737
651 4 0.219458 0.169484 0.44119
321 4 0.252769 0.179428 0.49504
640 2 0.289014 0.225207 0.494079
488 4 0.30439 0.220181 0.420354
899 4 0.304734 0.19661 0.490321
898 2 0.321641 0.178475 0.493556
487 2 0.322093 0.220151 0.438012
642 4 0.285339 0.200476 0.494278
489 4 0.339796 0.220121 0.455669
267 4 0.35483 0.234393 0.454976
265 2 0.375086 0.245284 0.445164
261 4 0.0910906 0.307299 0.429402
695 4 0.0812981 0.299247 0.445932
694 2 0.0861784 0.29613 0.470256
696 4 0.0910586 0.293012 0.49458
400 2 0.242757 0.262313 0.431047
402 4 0.246754 0.273225 0.453186
641 4 0.292689 0.249938 0.493879
812 4 0.286372 0.25222 0.474686
811 2 0.296678 0.269662 0.460032
813 4 0.306983 0.287104 0.445378
872 4 0.300579 0.303999 0.438257
871 2 0.28965 0.320413 0.422885
266 4 0.395341 0.256174 0.435351
453 4 0.412299 0.257302 0.425732
3307 2 0.476862 0.326404 0.487006
3308 4 0.484734 0.334089 0.464552
711 4 0.184536 0.384422 0.455581
709 2 0.18012 0.402115 0.438475
773 4 0.201761 0.376468 0.451395
772 2 0.216196 0.368651 0.470254
774 4 0.230632 0.360834 0.489114
335 4 0.390386 0.403428 0.473743
336 4 0.411345 0.362549 0.453985
334 2 0.400865 0.382989 0.463864
584 4 0.410011 0.342734 0.449992
2506 2 0.498811 0.345616 0.421281
585 4 0.456307 0.345478 0.431286
583 2 0.433159 0.344106 0.440639
383 4 0.0246724 0.444366 0.483695
407 4 0.0290623 0.433055 0.468267
406 2 0.0132247 0.435081 0.449025
2108 4 0.179008 0.48135 0.429367
2244 4 0.211379 0.492897 0.500235
1445 4 0.19082 0.481392 0.446036
710 4 0.175704 0.419809 0.421369
1444 2 0.19461 0.492848 0.467936
1979 4 0.333747 0.472842 0.46541
1399 2 0.300341 0.499557 0.476591
1400 4 0.3209 0.485528 0.474203
1978 2 0.350371 0.488554 0.455315
238 2 0.379207 0.438249 0.490928
239 4 0.371982 0.462157 0.492096
240 4 0.386433 0.41434 0.48976
1150 2 0.238541 0.0528009 0.503683
1151 4 0.254603 0.0715255 0.507754
1180 2 0.288533 0.0758 0.502578
1182 4 0.266687 0.0685094 0.492843
3157 2 0.340939 0.0133537 0.511851
425 4 0.411931 0.0298039 0.509557
424 2 0.417793 0.0147641 0.528652
3159 4 0.342133 0.00160941 0.533892
1518 4 0.407571 0.0477112 0.500822
939 4 0.0520316 0.14085 0.535112
937 2 0.0374709 0.127199 0.520052
1221 4 0.0692167 0.133097 0.528698
938 4 0.0229102 0.113547 0.504993
1184 4 0.00669358 0.091697 0.574367
1219 2 0.0915354 0.141151 0.520812
1220 4 0.113854 0.149205 0.512926
2318 4 0.240622 0.10176 0.556879
2317 2 0.231104 0.0993472 0.579874
858 4 0.250518 0.167286 0.561081
320 4 0.256172 0.165308 0.542891
1181 4 0.31038 0.0830906 0.512312
725 4 0.310181 0.100944 0.520703
724 2 0.318431 0.122798 0.511786
726 4 0.32668 0.144653 0.50287
900 4 0.338548 0.160341 0.49679
3043 2 0.0192039 0.228165 0.55083
3461 4 0.0228488 0.197209 0.575711
3044 4 0.019287 0.216576 0.572986
3045 4 0.0191207 0.239754 0.528675
879 4 0.03727 0.248275 0.526436
1271 4 0.123442 0.167011 0.512794
346 2 0.152573 0.242945 0.539886
347 4 0.164275 0.221298 0.544313
856 2 0.254596 0.181706 0.581096
319 2 0.25447 0.172368 0.518965
791 4 0.430721 0.246287 0.546205
877 2 0.0559537 0.26487 0.52728
878 4 0.0746373 0.281465 0.528125
348 4 0.14087 0.264593 0.535459
8 3 0.12651 0.277124 0.531287
9 3 0.0910998 0.290562 0.534444
6 1 0.110131 0.290082 0.521177
7 3 0.11806 0.311541 0.518769
10 3 0.105083 0.281603 0.500652
1190 4 0.189664 0.332376 0.561518
792 4 0.381815 0.256383 0.548846
790 2 0.406268 0.251335 0.547526
805 2 0.362439 0.296268 0.565539
807 4 0.37933 0.291296 0.547786
806 4 0.345549 0.30124 0.583292
269 4 0.442047 0.260545 0.535786
270 4 0.464208 0.301823 0.5183
268 2 0.453128 0.281184 0.527043
3324 4 0.481329 0.282164 0.574246
3309 4 0.46899 0.31872 0.509459
2814 4 0.0244688 0.373997 0.542438
3333 4 0.00726315 0.374131 0.55199
2812 2 0.0483078 0.366609 0.543954
2813 4 0.0721468 0.359221 0.545471
1394 4 0.202001 0.339498 0.548756
1395 4 0.22224 0.360909 0.50835
1393 2 0.212121 0.350203 0.528553
1189 2 0.169979 0.335392 0.576638
1029 4 0.281432 0.403863 0.580879
1239 4 0.288565 0.383737 0.578093
384 4 0.029582 0.470042 0.526325
935 4 0.0332338 0.483273 0.541375
934 2 0.0534654 0.471315 0.549911
936 4 0.0736971 0.459357 0.558447
382 2 0.0271272 0.457204 0.50501
1040 4 0.0924484 0.466135 0.559989
1039 2 0.103035 0.466822 0.582631
2242 2 0.21484 0.487868 0.524482
2243 4 0.218301 0.482839 0.548729
539 4 0.20152 0.495422 0.552664
538 2 0.1877 0.4981 0.573328
1027 2 0.270974 0.425173 0.573024
1028 4 0.260515 0.446483 0.56517
1172 4 0.257767 0.462348 0.577413
1171 2 0.266155 0.485775 0.57497
928 2 0.352386 0.489081 0.513391
930 4 0.37163 0.474263 0.507449
926 4 0.498127 0.490121 0.576733
2991 4 0.069691 0.0780337 0.662834
3078 4 0.0182658 0.0638438 0.633555
3076 2 0.0136774 0.0792178 0.614378
3083 4 0.00610617 0.0481324 0.633192
864 4 0.0889936 0.0789924 0.658071
1030 2 0.326459 0.0282491 0.619591
1032 4 0.305397 0.0374992 0.609794
1142 4 0.292238 0.0524881 0.614002
1141 2 0.292175 0.0771303 0.618237
1031 4 0.347522 0.0189989 0.629388
841 2 0.405543 0.0307612 0.607577
1003 2 0.364554 0.0240148 0.658538
843 4 0.386024 0.0186746 0.597671
1004 4 0.366364 0.0184308 0.634233
89 3 0.380072 0.00307394 0.610868
842 4 0.425061 0.0428479 0.617483
3077 4 0.00908897 0.0945919 0.595201
2989 2 0.0464269 0.0865157 0.659368
3179 4 0.00453178 0.157061 0.604373
3462 4 0.0259419 0.155056 0.602437
2990 4 0.0231627 0.0949977 0.655902
2319 4 0.221586 0.0969345 0.602869
1284 4 0.222246 0.103674 0.622282
1282 2 0.21001 0.109213 0.643372
1283 4 0.197774 0.114751 0.664462
1143 4 0.292111 0.101772 0.622473
887 4 0.297715 0.120668 0.618792
886 2 0.306413 0.142033 0.62844
888 4 0.31511 0.163398 0.638087
904 2 0.487941 0.1627 0.585412
906 4 0.466821 0.149918 0.581447
1011 4 0.466053 0.136391 0.595814
1009 2 0.467192 0.119853 0.614532
1026 4 0.457324 0.106989 0.649348
1010 4 0.468331 0.103314 0.63325
3460 2 0.0243954 0.176132 0.589074
410 4 0.23629 0.21678 0.648044
409 2 0.248544 0.201091 0.632916
857 4 0.258673 0.196127 0.601111
411 4 0.260798 0.185402 0.617788
953 4 0.329317 0.170519 0.652674
3123 4 0.499845 0.221528 0.659929
1263 4 0.496926 0.203214 0.667537
3121 2 0.494547 0.245851 0.657579
802 2 0.319028 0.321191 0.599961
803 4 0.342116 0.311609 0.59941
3372 4 0.500217 0.327229 0.642168
3122 4 0.489248 0.270173 0.65523
896 4 0.129242 0.336071 0.655068
895 2 0.134794 0.340073 0.63102
897 4 0.140346 0.344075 0.606971
1191 4 0.150295 0.338408 0.591757
1237 2 0.283744 0.362366 0.590145
1238 4 0.278924 0.340995 0.602196
804 4 0.29594 0.330773 0.600511
1041 4 0.113622 0.46751 0.605272
1136 4 0.123291 0.483298 0.611523
1135 2 0.148194 0.484542 0.609655
1137 4 0.173096 0.485785 0.607786
540 4 0.17388 0.500778 0.593993
1951 2 0.330061 0.49673 0.593186
891 4 0.337618 0.481701 0.619723
890 4 0.346637 0.444791 0.652235
889 2 0.342127 0.463246 0.635979
1205 4 0.359537 0.440338 0.668836
1953 4 0.339471 0.474684 0.600299
943 2 0.113296 0.0484128 0.736959
944 4 0.106303 0.0662851 0.720932
863 4 0.105783 0.0607968 0.701519
862 2 0.0973883 0.0698946 0.679795
1092 4 0.307292 0.0664205 0.727118
950 4 0.31199 0.0475382 0.718345
949 2 0.327919 0.0365109 0.702538
1005 4 0.362744 0.0295988 0.682843
951 4 0.343848 0.0254837 0.686732
1217 4 0.459774 0.0125112 0.708549
1216 2 0.447315 0.00845968 0.729845
1107 4 0.0377616 0.110034 0.706803
1105 2 0.0457424 0.122192 0.727141
1106 4 0.0537233 0.13435 0.74748
1155 4 0.215239 0.122392 0.669943
1153 2 0.223652 0.127416 0.692946
1154 4 0.232064 0.132441 0.71595
1299 4 0.242301 0.149314 0.719708
1297 2 0.26364 0.155961 0.730918
1298 4 0.284978 0.162608 0.742129
1085 4 0.294108 0.165199 0.725557
1193 4 0.414204 0.161191 0.721839
1024 2 0.462667 0.1037 0.673552
3424 2 0.467223 0.124409 0.723346
3425 4 0.472061 0.119938 0.699226
1025 4 0.468009 0.100411 0.697756
851 4 0.0581948 0.172378 0.676279
850 2 0.0356551 0.182215 0.680792
852 4 0.0131153 0.192052 0.685305
1178 4 0.0295365 0.215167 0.728018
1082 4 0.0037681 0.174153 0.689829
946 2 0.129129 0.172527 0.733022
948 4 0.127621 0.191178 0.716437
1260 4 0.142092 0.195012 0.703386
1258 2 0.162661 0.206597 0.695148
1212 4 0.240246 0.21737 0.667786
1210 2 0.217803 0.22555 0.675172
1211 4 0.19536 0.23373 0.682558
1259 4 0.183231 0.218182 0.68691
952 2 0.315308 0.179329 0.671417
1084 2 0.316257 0.174884 0.731946
954 4 0.301299 0.18814 0.690159
976 2 0.382473 0.181294 0.730606
1086 4 0.338405 0.184569 0.738335
978 4 0.358237 0.183752 0.736241
977 4 0.406709 0.178837 0.724972
1261 2 0.475017 0.19964 0.679043
1192 2 0.435341 0.170831 0.712592
1194 4 0.456477 0.18047 0.703345
1262 4 0.453108 0.196065 0.690549
1068 4 0.136514 0.322758 0.727383
1066 2 0.135169 0.297807 0.726463
993 4 0.139081 0.323716 0.706639
1067 4 0.133824 0.272857 0.725543
3329 4 0.396242 0.316885 0.744541
1281 4 0.0153933 0.40216 0.716241
1279 2 0.0364952 0.409273 0.727612
3420 4 0.0134569 0.382251 0.714846
1280 4 0.0575971 0.416386 0.738983
992 4 0.123151 0.350117 0.667269
991 2 0.131116 0.336917 0.686954
1276 2 0.240101 0.398794 0.725185
1278 4 0.220918 0.411366 0.735141
1044 4 0.3218 0.362256 0.68607
798 4 0.314063 0.375851 0.699385
1277 4 0.259284 0.386222 0.715228
797 4 0.274843 0.389593 0.727201
796 2 0.294453 0.382722 0.713293
3328 2 0.383177 0.334705 0.732839
1043 4 0.368874 0.355419 0.7015
1042 2 0.345337 0.358837 0.693785
3330 4 0.370112 0.352524 0.721136
942 4 0.139093 0.423684 0.719081
940 2 0.129663 0.441889 0.733393
941 4 0.120232 0.460094 0.747705
1204 2 0.371143 0.452691 0.687217
1206 4 0.382749 0.465044 0.705599
1139 4 0.395567 0.465179 0.72116
1138 2 0.383785 0.463622 0.743158
1101 4 0.495153 0.459023 0.667018
1286 4 0.0422984 0.0132817 0.830508
1285 2 0.0510202 0.0301245 0.814216
1287 4 0.059742 0.0469672 0.797924
1203 4 0.0804083 0.0492601 0.804883
1296 4 0.0213182 0.0119676 0.830837
945 4 0.120289 0.0305405 0.752986
2255 4 0.124229 0.0146668 0.765574
1201 2 0.0995717 0.0647971 0.800815
2254 2 0.147182 0.00485074 0.766981
1202 4 0.118735 0.0803341 0.796748
1225 2 0.173314 0.0773072 0.830537
2256 4 0.170135 0.995035 0.768387
1090 2 0.295271 0.0610246 0.748367
1091 4 0.28325 0.0556287 0.769617
1050 4 0.308401 0.0101802 0.809196
1049 4 0.297729 0.0505732 0.781715
1048 2 0.303065 0.0303767 0.795455
1256 4 0.327923 0.00975775 0.816146
2322 4 0.415864 0.046704 0.823466
1994 4 0.49945 0.0188549 0.810397
966 4 0.439132 0.0151869 0.767451
965 4 0.41701 0.0372185 0.806514
964 2 0.428071 0.0262027 0.786982
1993 2 0.484835 0.0227973 0.830297
1218 4 0.434855 0.00440812 0.751141
1214 4 0.0500102 0.14449 0.76414
1213 2 0.0329984 0.160723 0.77264
1130 4 0.0992001 0.126799 0.793228
831 4 0.134383 0.0932907 0.792603
1129 2 0.105637 0.13821 0.771932
829 2 0.151511 0.110452 0.786495
1131 4 0.112074 0.14962 0.750636
947 4 0.130636 0.153877 0.749606
830 4 0.168639 0.127613 0.780387
1149 4 0.185857 0.111407 0.816915
907 2 0.181362 0.157926 0.780726
909 4 0.183241 0.135829 0.792274
1147 2 0.210676 0.1139 0.818643
1148 4 0.235495 0.116393 0.820372
840 4 0.241446 0.136174 0.818085
1227 4 0.171492 0.101662 0.82518
839 4 0.291211 0.132172 0.815221
838 2 0.266328 0.134173 0.816653
1022 4 0.308335 0.129511 0.825068
44 3 0.412603 0.122255 0.752983
1111 2 0.407879 0.122287 0.823669
3426 4 0.462385 0.128879 0.747466
42 3 0.422282 0.15123 0.774879
45 3 0.448701 0.128354 0.761779
41 1 0.427286 0.129444 0.76945
43 3 0.424988 0.11627 0.788412
1113 4 0.419501 0.129946 0.802898
3385 2 0.0105194 0.201086 0.800856
1177 2 0.0338952 0.219106 0.752321
1179 4 0.0382539 0.223045 0.776625
1215 4 0.0159865 0.176957 0.78114
780 4 0.0386246 0.245197 0.827422
3386 4 0.0276187 0.183538 0.795871
869 4 0.0812128 0.206161 0.818864
779 4 0.0646051 0.202526 0.829649
778 2 0.0516149 0.223861 0.828536
868 2 0.103405 0.204914 0.807412
870 4 0.125597 0.203668 0.79596
908 4 0.179484 0.180024 0.769179
50 3 0.498683 0.231028 0.824077
153 3 0.0232824 0.260247 0.829932
154 3 0.0194243 0.283472 0.800098
1207 2 0.052972 0.266218 0.78348
1209 4 0.0315213 0.279036 0.784331
1208 4 0.0744227 0.253399 0.782629
151 1 0.00835501 0.26902 0.814485
1241 4 0.153588 0.321901 0.775798
1065 4 0.165965 0.31004 0.78491
1170 4 0.14283 0.299276 0.816779
1063 2 0.189085 0.307248 0.775808
1064 4 0.212205 0.304456 0.766705
917 4 0.232641 0.299704 0.772174
916 2 0.25228 0.305356 0.78658