ITEM: TIMESTEP
2010000
ITEM: NUMBER OF ATOMS
4590
ITEM: BOX BOUNDS pp pp pp
-9.9985700000000008e+00 9.9985700000000008e+00
-9.9985700000000008e+00 9.9985700000000008e+00
-9.9985700000000008e+00 9.9985700000000008e+00
ITEM: ATOMS id type xs ys zs
1668 4 0.0302962 0.0226668 0.0323634
1666 2 0.0140685 0.038574 0.0427942
484 2 0.182663 0.0161561 0.0557729
566 4 0.189469 0.0559649 0.0649121
565 2 0.212822 0.0648133 0.0661556
567 4 0.236174 0.0736617 0.067399
485 4 0.18028 0.0394366 0.0645775
356 4 0.253406 0.0729373 0.0582514
1448 4 0.444429 0.000202295 0.0722608
700 2 0.111734 0.1098 0.0117977
701 4 0.111323 0.120319 0.0344771
450 4 0.119275 0.107285 0.0470687
448 2 0.12878 0.123581 0.0634779
915 4 0.147592 0.165059 0.00928558
571 2 0.225292 0.145563 0.0463326
572 4 0.202135 0.154219 0.050077
573 4 0.248448 0.136907 0.0425882
914 4 0.188184 0.163879 0.038468
913 2 0.167888 0.164469 0.0238768
357 4 0.257694 0.119666 0.0409673
355 2 0.25555 0.0963018 0.0496094
557 4 0.387185 0.109096 0.0324527
556 2 0.371041 0.111014 0.0514499
558 4 0.354898 0.112933 0.0704471
491 4 0.379328 0.122337 0.0161727
1608 4 0.387557 0.0901405 0.99987
746 4 0.405124 0.0963877 0.0384149
745 2 0.421101 0.090149 0.0566079
747 4 0.437078 0.0839102 0.0748009
150 3 0.44796 0.107774 0.00522328
25 3 0.455953 0.0909985 0.0750568
2894 4 0.487707 0.158824 0.068976
738 4 0.0447648 0.182674 0.0685632
736 2 0.067005 0.174888 0.0769254
705 4 0.0415773 0.18985 0.0867875
462 4 0.132503 0.225843 0.0512763
554 4 0.146421 0.186086 0.00934513
460 2 0.155326 0.221078 0.0603082
553 2 0.124977 0.192623 0.998273
461 4 0.178149 0.216313 0.0693401
623 4 0.194269 0.214997 0.0818883
297 4 0.249303 0.224306 0.0286463
296 4 0.262808 0.221024 0.0766833
295 2 0.256055 0.222665 0.0526648
354 4 0.263172 0.229123 0.0157306
2640 4 0.477189 0.174073 0.0740229
2639 4 0.431666 0.171358 0.0535049
2638 2 0.454427 0.172716 0.0637639
3299 4 0.490185 0.172859 0.0186801
2806 2 0.0284177 0.31901 0.0622321
2807 4 0.0302474 0.294484 0.0667348
454 2 0.119971 0.294507 0.00748189
286 2 0.146008 0.321914 0.0508438
455 4 0.115082 0.309623 0.0267897
287 4 0.13123 0.306408 0.0379467
968 4 0.204392 0.285578 0.0463616
967 2 0.209398 0.290947 0.0224599
2841 4 0.46033 0.316738 0.0691331
2839 2 0.451589 0.293915 0.0744128
2840 4 0.442849 0.271091 0.0796924
672 4 0.46631 0.335796 0.0753329
2808 4 0.0265881 0.343537 0.0577294
328 2 0.058046 0.354045 0.0319723
329 4 0.0357268 0.348478 0.0417724
330 4 0.0803651 0.359612 0.0221722
552 4 0.0994995 0.366111 0.0200587
550 2 0.0994741 0.390912 0.0168818
251 4 0.145957 0.402098 0.0674571
250 2 0.147024 0.377132 0.0683037
252 4 0.148091 0.352166 0.0691503
551 4 0.0994487 0.415713 0.0137048
288 4 0.160787 0.337421 0.0637409
1103 4 0.0802995 0.418196 0.00564519
482 4 0.225184 0.387108 0.0123932
902 4 0.231275 0.375747 0.997489
481 2 0.202097 0.39661 0.0137717
483 4 0.17901 0.406111 0.0151502
739 2 0.324516 0.391808 0.0626151
740 4 0.309725 0.373202 0.070375
608 4 0.301486 0.354783 0.0743257
741 4 0.339307 0.410414 0.0548552
1069 2 0.377253 0.37047 0.0219002
1071 4 0.366615 0.357169 0.00359436
1070 4 0.387891 0.383771 0.0402061
14 3 0.383158 0.402041 0.0496974
15 3 0.352069 0.41196 0.0684795
11 1 0.373284 0.418229 0.0630713
670 2 0.483787 0.346052 0.0606857
322 2 0.480768 0.387199 0.0211474
671 4 0.501265 0.356307 0.0460385
324 4 0.471412 0.405206 0.00653896
596 4 0.438964 0.401803 0.0856442
957 4 0.454967 0.415219 0.00577162
2983 2 0.028527 0.461049 0.0488008
2984 4 0.0174676 0.438842 0.0456854
2985 4 0.0395864 0.483257 0.0519161
4212 4 0.00927238 0.433466 0.0279606
1710 4 0.0565462 0.483178 0.0628017
2094 4 0.161705 0.413328 0.06962
2092 2 0.169748 0.436633 0.0654532
2093 4 0.177791 0.459938 0.0612864
494 4 0.297174 0.436989 0.0235487
525 4 0.302011 0.448989 0.0386943
523 2 0.308219 0.455232 0.0620966
493 2 0.316714 0.429574 0.00982317
13 3 0.372928 0.438576 0.0519232
597 4 0.417989 0.44376 0.0683143
659 4 0.42802 0.457286 0.0581724
658 2 0.419587 0.477785 0.0697413
1158 4 0.465952 0.48522 0.0199515
595 2 0.428476 0.422782 0.0769792
3705 4 0.486035 0.480587 0.014794
1505 4 0.269879 0.0246595 0.154107
1504 2 0.276556 0.000649336 0.156134
1784 4 0.47467 0.994612 0.132421
1447 2 0.458332 0.995245 0.0924426
591 4 0.00777894 0.111493 0.12868
2758 2 0.0347301 0.140373 0.129157
2760 4 0.0206174 0.122647 0.139731
2759 4 0.0488428 0.158099 0.118584
449 4 0.138284 0.139878 0.0798871
578 4 0.145789 0.143519 0.0979179
577 2 0.158457 0.128402 0.113286
507 4 0.103311 0.16827 0.100968
579 4 0.171124 0.113284 0.128654
236 4 0.188902 0.109567 0.135892
235 2 0.188831 0.101416 0.159529
277 2 0.27763 0.152283 0.125696
279 4 0.288694 0.132386 0.136036
732 4 0.295682 0.112883 0.135348
730 2 0.300708 0.110797 0.159753
254 4 0.367769 0.124039 0.083496
253 2 0.379787 0.1417 0.0964894
255 4 0.391805 0.159361 0.109483
771 4 0.481444 0.090528 0.113042
21 1 0.456654 0.0927529 0.0977522
23 3 0.435218 0.0911235 0.106484
22 3 0.469476 0.0756646 0.10628
24 3 0.466166 0.113024 0.103836
703 2 0.0213173 0.204163 0.089929
704 4 0.00105738 0.218475 0.0930706
737 4 0.0892453 0.167102 0.0852875
505 2 0.100807 0.183293 0.120798
506 4 0.0983018 0.198315 0.140628
756 4 0.110251 0.213732 0.14355
754 2 0.101922 0.23728 0.142414
622 2 0.203659 0.20999 0.104514
624 4 0.21305 0.204983 0.12714
283 2 0.227971 0.1863 0.155807
284 4 0.23028 0.193881 0.132092
581 4 0.26237 0.227738 0.0953846
580 2 0.269755 0.208291 0.109256
582 4 0.27714 0.188843 0.123128
278 4 0.266567 0.172179 0.115355
758 4 0.393763 0.168101 0.127127
757 2 0.405971 0.179084 0.145981
759 4 0.41818 0.190068 0.164836
378 4 0.477519 0.192938 0.143284
376 2 0.460893 0.189189 0.161579
477 4 0.0396719 0.291464 0.0834785
476 4 0.0520214 0.247676 0.104234
475 2 0.0458466 0.26957 0.0938565
395 4 0.0858734 0.276652 0.148461
394 2 0.0769228 0.276526 0.171807
755 4 0.0935924 0.260828 0.141279
309 4 0.344185 0.263333 0.15885
517 2 0.354714 0.263047 0.12702
519 4 0.336513 0.271536 0.141915
528 4 0.392913 0.254421 0.113958
518 4 0.372915 0.254559 0.112126
526 2 0.416122 0.256987 0.105019
527 4 0.439332 0.259553 0.0960804
537 4 0.0468339 0.343241 0.173654
612 4 0.320904 0.356827 0.131325
609 4 0.30286 0.353665 0.124301
607 2 0.302173 0.354224 0.0993136
610 2 0.316 0.351239 0.155197
2538 4 0.385368 0.385686 0.133779
2651 4 0.403249 0.379605 0.130061
2536 2 0.388466 0.405242 0.149048
2650 2 0.421215 0.381775 0.112807
2652 4 0.43918 0.383944 0.0955526
1787 4 0.0694518 0.499329 0.124805
2771 4 0.00834444 0.420866 0.0890452
314 4 0.0247178 0.426693 0.0981999
315 4 0.0537888 0.394664 0.123295
313 2 0.0392533 0.410679 0.110747
1708 2 0.0613193 0.483825 0.0873369
1709 4 0.0660923 0.484473 0.111872
1786 2 0.085249 0.488017 0.140542
290 4 0.120982 0.475313 0.159428
289 2 0.138416 0.467331 0.14338
291 4 0.155851 0.45935 0.127332
1788 4 0.101046 0.476706 0.15628
627 4 0.169588 0.446994 0.135258
626 4 0.217424 0.457976 0.144842
768 4 0.222434 0.459495 0.164301
625 2 0.193506 0.452485 0.14005
524 4 0.314427 0.461475 0.0854988
246 4 0.313454 0.448204 0.0991505
244 2 0.315829 0.462894 0.119243
387 4 0.323515 0.493695 0.151987
245 4 0.318205 0.477585 0.139336
12 3 0.385651 0.420519 0.0823321
229 2 0.478622 0.468636 0.161311
231 4 0.488421 0.44589 0.157888
230 4 0.468822 0.491383 0.164735
723 4 0.23179 0.0593492 0.207516
721 2 0.209556 0.0682876 0.200379
722 4 0.187322 0.0772261 0.193243
693 4 0.247009 0.0670699 0.196311
691 2 0.25847 0.0481697 0.184623
692 4 0.269931 0.0292694 0.172935
30 3 0.326277 0.0759978 0.226329
404 4 0.310177 0.0639018 0.220402
403 2 0.299477 0.0495614 0.237868
405 4 0.288777 0.035221 0.255334
28 3 0.355385 0.0632223 0.246507
2849 4 0.134169 0.10936 0.238997
393 4 0.145679 0.123346 0.230579
2848 2 0.118142 0.128234 0.24247
2850 4 0.102114 0.147108 0.245943
237 4 0.188759 0.0932651 0.183167
391 2 0.170588 0.121459 0.229498
392 4 0.195496 0.119572 0.228417
546 4 0.20389 0.13606 0.22274
544 2 0.211508 0.156929 0.211267
731 4 0.305734 0.10871 0.184157
606 4 0.307938 0.120113 0.200361
604 2 0.330731 0.130387 0.200653
26 1 0.343418 0.0820266 0.240058
27 3 0.3575 0.096296 0.228779
605 4 0.353524 0.140662 0.200946
633 4 0.368454 0.149487 0.209709
2614 2 0.0133362 0.188841 0.243425
545 4 0.219126 0.177798 0.199793
285 4 0.225662 0.17872 0.179521
308 4 0.315162 0.26347 0.199573
631 2 0.368477 0.17184 0.220912
630 4 0.405526 0.20111 0.228434
521 4 0.414305 0.207216 0.245128
632 4 0.368501 0.194194 0.232114
377 4 0.444268 0.185441 0.179874
629 4 0.425132 0.191291 0.18349
628 2 0.415329 0.1962 0.205962
647 4 0.0307743 0.331377 0.170954
646 2 0.0129383 0.314262 0.167195
2692 2 0.0423812 0.279916 0.213891
2693 4 0.0280351 0.267578 0.230235
2694 4 0.0567273 0.292253 0.197546
396 4 0.0679722 0.2764 0.195153
735 4 0.0759208 0.307899 0.256054
299 4 0.0696462 0.324432 0.246674
2799 4 0.0221011 0.263525 0.24914
617 4 0.152194 0.31902 0.245631
616 2 0.160135 0.295624 0.249471
365 4 0.147646 0.334533 0.234862
496 2 0.298574 0.262131 0.239186
498 4 0.310285 0.270525 0.218751
307 2 0.329674 0.263402 0.179212
2800 2 0.00981298 0.347338 0.243295
535 2 0.03481 0.365042 0.175963
536 4 0.0227861 0.386842 0.178272
1775 4 0.00757561 0.394511 0.188062
298 2 0.0765076 0.336828 0.226073
2802 4 0.9971 0.349131 0.221839
363 4 0.142054 0.393415 0.184838
417 4 0.13218 0.376924 0.190829
415 2 0.107977 0.371785 0.194432
416 4 0.0837743 0.366646 0.198036
300 4 0.083369 0.349225 0.205471
361 2 0.159909 0.384685 0.20001
413 4 0.093876 0.423391 0.230143
339 4 0.197268 0.371341 0.213744
362 4 0.177763 0.375956 0.215182
337 2 0.21867 0.370116 0.226613
338 4 0.240073 0.368891 0.239482
345 4 0.295063 0.340127 0.190662
611 4 0.311096 0.345651 0.17907
343 2 0.291724 0.34874 0.213896
643 2 0.290778 0.399892 0.243837
344 4 0.288384 0.357354 0.23713
412 2 0.0810442 0.441733 0.241283
1386 4 0.131721 0.448185 0.229289
1641 4 0.139934 0.447248 0.248757
1384 2 0.147664 0.46084 0.214769
1385 4 0.163608 0.473495 0.200248
766 2 0.240828 0.475835 0.168754
644 4 0.287603 0.424591 0.24158
767 4 0.259222 0.492176 0.173208
1574 4 0.301556 0.426963 0.22772
1573 2 0.31275 0.445172 0.214747
385 2 0.318169 0.486568 0.175349
386 4 0.312822 0.479441 0.198711
1575 4 0.323943 0.463382 0.201773
714 4 0.408417 0.425359 0.175993
2537 4 0.391564 0.424799 0.164317
712 2 0.411533 0.449559 0.181455
713 4 0.414649 0.473759 0.186917
2862 4 0.43263 0.482623 0.188401
2860 2 0.445985 0.489948 0.208229
427 2 0.147432 0.0626129 0.317688
428 4 0.12593 0.051623 0.3112
1479 4 0.125199 0.0325812 0.315417
1477 2 0.108056 0.0182836 0.326681
429 4 0.168933 0.0736027 0.324175
249 4 0.26895 0.05356 0.306843
247 2 0.277417 0.0386339 0.288657
248 4 0.285884 0.0237079 0.270472
1700 4 0.26403 0.057003 0.325838
743 4 0.396886 0.067098 0.259103
1748 4 0.399993 0.0467517 0.257498
1747 2 0.412028 0.0297239 0.271296
1496 4 0.415264 0.0210006 0.299895
1749 4 0.424063 0.0126961 0.285094
1495 2 0.419459 0.014415 0.323648
2718 4 0.0213789 0.0967457 0.268434
529 2 0.0705464 0.163682 0.261608
471 4 0.088911 0.129594 0.317578
531 4 0.0950143 0.162038 0.256729
742 2 0.405315 0.086023 0.273103
29 3 0.335107 0.0929325 0.258777
744 4 0.413744 0.104948 0.287102
516 4 0.340538 0.0883958 0.27768
515 4 0.364696 0.103101 0.318922
514 2 0.352617 0.0957484 0.298301
698 4 0.432479 0.100413 0.291333
697 2 0.453546 0.113881 0.291262
699 4 0.474612 0.127349 0.29119
2797 2 0.029063 0.240869 0.257102
530 4 0.0460786 0.165325 0.266487
458 4 0.0515164 0.183003 0.275674
512 4 0.0831619 0.229583 0.289801
457 2 0.040235 0.197392 0.292729
2615 4 0.0288475 0.2027 0.2573
2798 4 0.036025 0.218212 0.265065
459 4 0.0289537 0.211782 0.309783
511 2 0.0925057 0.241895 0.270147
750 4 0.165322 0.244627 0.312572
748 2 0.167257 0.2494 0.288105
389 4 0.185636 0.245879 0.315988
764 4 0.26796 0.255097 0.254606
708 4 0.268377 0.26334 0.312632
706 2 0.280751 0.248753 0.328735
350 4 0.349549 0.223261 0.315881
332 4 0.363649 0.200904 0.250537
331 2 0.359335 0.20713 0.274366
333 4 0.355021 0.213356 0.298194
520 2 0.429317 0.195458 0.261301
522 4 0.444328 0.183699 0.277474
418 2 0.460063 0.188921 0.317452
420 4 0.447766 0.180123 0.297539
419 4 0.472361 0.19772 0.337365
734 4 0.0850721 0.314961 0.304707
733 2 0.0804965 0.31143 0.28038
2654 4 0.0679095 0.318563 0.3142
2653 2 0.0704598 0.302897 0.333518
513 4 0.10185 0.254207 0.250493
618 4 0.168075 0.272228 0.253311
749 4 0.169191 0.254174 0.263638
435 4 0.248508 0.327617 0.294795
508 2 0.259578 0.312895 0.33031
497 4 0.286863 0.253738 0.259621
765 4 0.252923 0.267655 0.300616
763 2 0.260441 0.261376 0.277611
509 4 0.253566 0.331134 0.314299
613 2 0.415764 0.328157 0.287684
615 4 0.435207 0.320831 0.301593
2924 4 0.446822 0.308498 0.313594
2923 2 0.452799 0.322571 0.333379
2801 4 0.0225261 0.345545 0.264751
364 2 0.145489 0.352435 0.252184
366 4 0.143333 0.370338 0.269505
434 4 0.244576 0.354037 0.252519
603 4 0.156041 0.379233 0.28313
433 2 0.246542 0.340827 0.273657
601 2 0.180698 0.383129 0.281719
727 2 0.244745 0.407048 0.279545
728 4 0.221243 0.399679 0.283849
602 4 0.205356 0.387024 0.280307
645 4 0.293953 0.375194 0.246093
729 4 0.268248 0.414416 0.275241
275 4 0.382404 0.392939 0.253844
274 2 0.381492 0.37024 0.264289
276 4 0.380581 0.347541 0.274734
614 4 0.396321 0.335482 0.273774
107 3 0.495768 0.420352 0.273447
414 4 0.0682124 0.460075 0.252424
679 2 0.0541829 0.466229 0.281301
680 4 0.047354 0.483906 0.297613
681 4 0.0610119 0.448553 0.264989
3671 4 0.10489 0.490599 0.308652
3670 2 0.118788 0.472928 0.319594
1640 4 0.169489 0.433772 0.286779
1639 2 0.154712 0.44051 0.267768
677 4 0.171644 0.446805 0.30165
676 2 0.186086 0.465492 0.30986
678 4 0.200527 0.484179 0.31807
3 3 0.280786 0.493983 0.29013
397 2 0.0474782 0.994903 0.338074
398 4 0.0712187 0.00273893 0.338484
1478 4 0.0909126 0.00398611 0.337944
1699 2 0.266264 0.0443711 0.3473
1701 4 0.268499 0.0317393 0.368762
468 4 0.280941 0.0408027 0.381131
466 2 0.29348 0.0418034 0.40274
467 4 0.306018 0.0428041 0.424349
2642 4 0.363518 0.0600543 0.38908
2641 2 0.36578 0.0461329 0.409726
479 4 0.362285 0.0608335 0.369374
478 2 0.365482 0.0730797 0.34781
2879 4 0.480973 0.0425053 0.399692
2878 2 0.456374 0.0431095 0.404131
2909 4 0.461179 0.0682702 0.348689
2880 4 0.431775 0.0437138 0.408569
687 4 0.0180053 0.125208 0.348696
685 2 0.0249762 0.124161 0.372686
686 4 0.0319471 0.123114 0.396675
342 4 0.0283656 0.117582 0.415703
469 2 0.0847507 0.123751 0.341531
470 4 0.0805904 0.117909 0.365484
1272 4 0.0915274 0.122394 0.381816
1270 2 0.101512 0.11084 0.401615
1271 4 0.111498 0.0992864 0.421414
480 4 0.368678 0.085326 0.326246
761 4 0.415175 0.158447 0.339122
760 2 0.435982 0.147825 0.348034
762 4 0.456788 0.137202 0.356947
2910 4 0.460488 0.116464 0.362017
2908 2 0.460833 0.0923669 0.355353
2637 4 0.994296 0.247301 0.360213
2586 4 0.99633 0.233466 0.344842
2636 4 0.0107252 0.228963 0.403739
2635 2 0.00251046 0.238132 0.381976
1199 4 0.00545508 0.211395 0.395695
1198 2 0.0138156 0.194294 0.411907
824 4 0.111475 0.188557 0.389666
823 2 0.117906 0.198951 0.411479
368 4 0.187602 0.202267 0.368123
367 2 0.184824 0.213078 0.390497
369 4 0.182046 0.223888 0.412871
388 2 0.201363 0.259386 0.329967
707 4 0.293125 0.234166 0.344837
715 2 0.325983 0.243659 0.366154
349 2 0.3463 0.204444 0.332023
351 4 0.343051 0.185628 0.348166
488 4 0.339788 0.242916 0.394625
2657 4 0.393279 0.200756 0.409221
716 4 0.347738 0.238624 0.377404
2656 2 0.408766 0.182655 0.416816
453 4 0.432933 0.246246 0.422566
444 4 0.107797 0.313509 0.407962
443 4 0.0866712 0.291759 0.368196
2655 4 0.0730101 0.28723 0.352837
442 2 0.0972341 0.302634 0.388079
390 4 0.21709 0.272893 0.343946
370 2 0.225782 0.28274 0.384423
371 4 0.224555 0.284373 0.359503
372 4 0.227009 0.281107 0.409343
510 4 0.265591 0.294655 0.346321
717 4 0.304229 0.248695 0.354904
873 4 0.318391 0.329229 0.41367
120 3 0.469495 0.304973 0.39947
2925 4 0.458776 0.336643 0.353163
117 3 0.462786 0.329545 0.372193
116 1 0.46587 0.326975 0.394843
547 2 0.047288 0.386483 0.41435
549 4 0.0708053 0.393536 0.41908
636 4 0.202079 0.35121 0.429999
634 2 0.224547 0.343245 0.422453
635 4 0.247015 0.33528 0.414907
667 2 0.281404 0.351786 0.403133
669 4 0.297878 0.370355 0.400136
668 4 0.264931 0.333216 0.406131
751 2 0.34287 0.405846 0.419481
752 4 0.366117 0.40469 0.41035
447 4 0.375176 0.409804 0.393941
118 3 0.484224 0.339571 0.401391
119 3 0.446847 0.334358 0.405889
585 4 0.447548 0.351985 0.414963
583 2 0.426834 0.364211 0.421792
3672 4 0.132687 0.455257 0.330537
375 4 0.214671 0.47027 0.323661
373 2 0.236927 0.462959 0.3324
374 4 0.259184 0.455647 0.341139
2109 4 0.266231 0.455302 0.360408
2107 2 0.267349 0.460616 0.384814
2108 4 0.268467 0.465931 0.409221
445 2 0.387943 0.420131 0.375086
446 4 0.40071 0.430459 0.356231
543 4 0.401873 0.450755 0.354111
541 2 0.400968 0.475029 0.34818
542 4 0.400064 0.499302 0.342249
938 4 0.0366365 0.0894476 0.48751
3589 2 0.10631 0.00320783 0.466016
3591 4 0.119714 0.0233306 0.459647
2428 2 0.223959 0.998375 0.436276
2429 4 0.222459 0.0233325 0.436044
600 4 0.213181 0.0400714 0.44574
598 2 0.215457 0.0638502 0.438353
2643 4 0.368043 0.0322114 0.430372
684 4 0.356702 0.0403428 0.444886
682 2 0.362645 0.0413358 0.469153
683 4 0.368589 0.0423289 0.49342
576 4 0.358521 0.0554443 0.504781
4239 4 0.488584 0.047858 0.417037
1518 4 0.415906 0.0198801 0.469268
1516 2 0.417646 0.0261341 0.445121
1517 4 0.419385 0.0323882 0.420975
425 4 0.421003 0.0284543 0.487846
340 2 0.0236603 0.139247 0.427264
939 4 0.0741001 0.11645 0.468325
937 2 0.0553683 0.102949 0.477918
1034 4 0.0230625 0.0922567 0.471733
341 4 0.018955 0.160913 0.438825
1221 4 0.0918049 0.119495 0.47581
1220 4 0.118793 0.0969316 0.440267
1219 2 0.105299 0.108213 0.458038
599 4 0.217732 0.087629 0.430966
649 2 0.299124 0.157149 0.439412
650 4 0.322928 0.151059 0.444044
2502 4 0.45588 0.120983 0.439597
2500 2 0.448145 0.140863 0.426554
2501 4 0.440409 0.160743 0.41351
1200 4 0.0221762 0.177192 0.428119
825 4 0.124337 0.209344 0.433292
319 2 0.233249 0.173613 0.502121
402 4 0.18493 0.23234 0.429702
474 4 0.231856 0.191379 0.452081
321 4 0.243952 0.185746 0.483058
472 2 0.244521 0.175191 0.437843
473 4 0.257187 0.159003 0.423605
642 4 0.261335 0.194296 0.489506
651 4 0.27532 0.16324 0.434779
640 2 0.276053 0.21353 0.483293
641 4 0.290771 0.232764 0.477081
812 4 0.300278 0.234251 0.459309
487 2 0.353299 0.247494 0.41516
2517 4 0.497954 0.229903 0.430374
452 4 0.478085 0.227874 0.433721
2658 4 0.424253 0.164553 0.424411
451 2 0.455509 0.23706 0.428143
3307 2 0.476923 0.249127 0.480505
3309 4 0.468441 0.232688 0.497328
260 4 0.109531 0.322872 0.424471
259 2 0.123567 0.315914 0.443959
694 2 0.123229 0.281034 0.49073
695 4 0.132872 0.29068 0.469774
261 4 0.137602 0.308956 0.463447
400 2 0.203265 0.248929 0.425983
401 4 0.2216 0.265517 0.422265
871 2 0.30837 0.307156 0.419797
872 4 0.298349 0.285083 0.425924
811 2 0.292427 0.252855 0.444563
813 4 0.284576 0.271458 0.429816
489 4 0.366811 0.252072 0.435694
267 4 0.376802 0.253926 0.452854
265 2 0.400002 0.256468 0.443881
266 4 0.423201 0.259011 0.434909
3308 4 0.485406 0.265566 0.463683
2508 4 0.48993 0.278006 0.448727
548 4 0.0237707 0.37943 0.40962
408 4 0.0366718 0.410334 0.43509
3352 2 0.0227264 0.369815 0.47665
3354 4 0.0436885 0.37306 0.463412
3353 4 0.00176425 0.366571 0.489888
772 2 0.166317 0.378696 0.465322
774 4 0.149569 0.363848 0.476467
1395 4 0.144333 0.356424 0.49308
773 4 0.183065 0.393543 0.454176
711 4 0.200791 0.389581 0.448808
709 2 0.223662 0.398869 0.444826
710 4 0.246532 0.408157 0.440844
753 4 0.319622 0.407003 0.428613
326 4 0.305039 0.398715 0.441691
327 4 0.257411 0.40132 0.456708
325 2 0.281225 0.400017 0.449199
334 2 0.409759 0.412577 0.440764
584 4 0.40612 0.376437 0.428622
336 4 0.420131 0.390459 0.435434
406 2 0.0284569 0.426084 0.452687
407 4 0.0202419 0.441834 0.470283
383 4 0.0333904 0.443447 0.486395
382 2 0.0526114 0.451945 0.499942
1445 4 0.214116 0.496506 0.432369
593 4 0.315981 0.458201 0.450085
592 2 0.300558 0.467048 0.432506
594 4 0.285135 0.475895 0.414927
930 4 0.358216 0.468012 0.493629
240 4 0.385405 0.449228 0.443981
238 2 0.379542 0.462863 0.464102
239 4 0.373679 0.476498 0.484224
335 4 0.399386 0.434694 0.446094
2712 4 0.47122 0.432875 0.433894
2710 2 0.493399 0.439853 0.424697
1151 4 0.211351 0.029138 0.539291
1150 2 0.192954 0.0146457 0.530532
1182 4 0.223222 0.0391702 0.525399
1180 2 0.243891 0.0510395 0.517844
1152 4 0.174558 0.000153437 0.521773
1181 4 0.264561 0.0629089 0.51029
725 4 0.264252 0.0757061 0.525186
2318 4 0.275595 0.0302031 0.564227
3157 2 0.320467 0.000669169 0.539225
2317 2 0.268602 0.0484803 0.579791
3158 4 0.324299 0.0252962 0.537224
575 4 0.327279 0.0443395 0.542216
574 2 0.3429 0.0498919 0.523499
89 3 0.350431 0.00430302 0.55851
842 4 0.461686 0.0520397 0.558284
1060 2 0.499158 0.0373739 0.555423
1061 4 0.477559 0.0458988 0.546152
424 2 0.426931 0.00844041 0.501611
858 4 0.239188 0.167995 0.531502
320 4 0.222546 0.16148 0.521184
856 2 0.236262 0.163948 0.556002
857 4 0.233335 0.1599 0.580501
724 2 0.269713 0.0989361 0.517721
726 4 0.275174 0.122166 0.510256
348 4 0.120185 0.251919 0.577558
268 2 0.474114 0.232101 0.540978
270 4 0.474139 0.235687 0.516232
269 4 0.474088 0.228516 0.565723
2813 4 0.992433 0.257109 0.547806
878 4 0.0950476 0.296559 0.571824
9 3 0.108509 0.283839 0.561134
7 3 0.140108 0.284302 0.540789
8 3 0.131498 0.253578 0.560653
6 1 0.122792 0.271031 0.548082
10 3 0.111561 0.262784 0.530069
696 4 0.113587 0.271388 0.511686
1189 2 0.168097 0.314063 0.562834
1191 4 0.181455 0.297716 0.576233
805 2 0.388394 0.318292 0.573411
3322 2 0.48628 0.320907 0.562518
3324 4 0.468722 0.335643 0.55253
1190 4 0.154739 0.33041 0.549435
1394 4 0.145809 0.346156 0.542
1393 2 0.145071 0.35129 0.51754
1237 2 0.312161 0.408353 0.571386
1238 4 0.324973 0.392837 0.556543
806 4 0.391477 0.343076 0.572224
804 4 0.337147 0.378385 0.54767
803 4 0.379785 0.357874 0.563858
802 2 0.358466 0.368129 0.555764
384 4 0.0718324 0.460443 0.513488
936 4 0.0879693 0.421491 0.567267
1040 4 0.091448 0.429281 0.585585
935 4 0.0825607 0.452934 0.52876
934 2 0.085265 0.437212 0.548014
540 4 0.16349 0.475514 0.546465
1135 2 0.159621 0.456232 0.581475
1137 4 0.171597 0.465038 0.56137
1028 4 0.241602 0.423027 0.548114
1172 4 0.244267 0.428104 0.528944
1171 2 0.248683 0.447471 0.513758
1027 2 0.260588 0.42423 0.564339
882 4 0.31923 0.478634 0.535351
1401 4 0.265001 0.481503 0.508433
880 2 0.311509 0.48002 0.559092
1173 4 0.253099 0.466838 0.498573
929 4 0.332831 0.493817 0.52813
881 4 0.303787 0.481406 0.582833
928 2 0.345523 0.480914 0.510879
926 4 0.469156 0.483607 0.570158
1001 4 0.47475 0.499638 0.558562
3083 4 0.0113813 0.988306 0.648962
3078 4 0.0422884 0.0680259 0.642735
3076 2 0.0346111 0.0873007 0.628781
2990 4 0.0326196 0.989542 0.654904
3082 2 0.00399946 0.00484733 0.631726
1284 4 0.248437 0.0581652 0.608603
2319 4 0.26161 0.0667575 0.595354
1032 4 0.303657 0.0601683 0.636952
1142 4 0.319103 0.0712521 0.631181
1030 2 0.312525 0.0368222 0.635727
1031 4 0.321392 0.0134761 0.634501
1282 2 0.236614 0.0785532 0.616954
2241 4 0.324485 0.995582 0.628664
88 3 0.376017 0.00476551 0.586608
841 2 0.44561 0.0604151 0.575506
843 4 0.429535 0.0687904 0.592728
3077 4 0.0269338 0.106575 0.614827
1184 4 0.0156926 0.118764 0.605323
1183 2 0.000462269 0.112093 0.58665
1283 4 0.224791 0.0989411 0.625304
1153 2 0.223032 0.1338 0.651818
1155 4 0.219377 0.113546 0.63762
1154 4 0.226688 0.154054 0.666016
1141 2 0.32938 0.092797 0.623739
887 4 0.352911 0.113641 0.629308
1143 4 0.339657 0.114342 0.616297
886 2 0.360757 0.136342 0.636257
888 4 0.368603 0.159043 0.643206
953 4 0.377239 0.170749 0.657155
1011 4 0.491134 0.115741 0.642281
1009 2 0.483813 0.119917 0.665821
3179 4 0.00942393 0.177767 0.648299
3461 4 0.040614 0.226561 0.649985
3460 2 0.0219518 0.210218 0.653118
3462 4 0.00328967 0.193875 0.656251
3044 4 0.0405634 0.234748 0.631396
3043 2 0.0601038 0.244767 0.619439
346 2 0.137214 0.239576 0.59108
347 4 0.154243 0.227234 0.604602
900 4 0.404104 0.190479 0.628909
792 4 0.390107 0.244824 0.617853
898 2 0.390857 0.211631 0.627409
899 4 0.377609 0.232784 0.625909
3121 2 0.466547 0.188115 0.619161
3122 4 0.458662 0.20008 0.59867
3123 4 0.474433 0.176151 0.639651
1263 4 0.462498 0.179412 0.655414
879 4 0.0739135 0.274198 0.611246
3045 4 0.0796442 0.254786 0.607482
877 2 0.0844805 0.285378 0.591535
895 2 0.163049 0.298773 0.615441
896 4 0.157961 0.301936 0.639716
992 4 0.143117 0.300109 0.652162
897 4 0.168137 0.29561 0.591166
410 4 0.255565 0.267158 0.666112
411 4 0.286646 0.26317 0.627141
409 2 0.271106 0.265164 0.646627
807 4 0.38531 0.293508 0.574597
791 4 0.375768 0.279777 0.58509
790 2 0.382937 0.262301 0.601471
1029 4 0.279574 0.425434 0.580564
1983 4 0.0304154 0.497811 0.6512
1039 2 0.111258 0.436226 0.599168
1041 4 0.131069 0.443172 0.61275
1136 4 0.147645 0.447426 0.601579
1239 4 0.29935 0.423868 0.586229
1951 2 0.305578 0.476152 0.626522
1953 4 0.310386 0.473224 0.650884
1952 4 0.30077 0.47908 0.60216
925 2 0.479889 0.476977 0.591745
2989 2 0.0541609 0.00145227 0.659297
863 4 0.0874825 0.0504257 0.718697
2991 4 0.0757022 0.0133625 0.66369
864 4 0.0844892 0.0262934 0.675001
1203 4 0.0958776 0.0417235 0.73559
862 2 0.0859858 0.0383595 0.696849
944 4 0.146159 0.0490185 0.702567
943 2 0.160447 0.0431346 0.722225
945 4 0.174735 0.0372507 0.741882
2255 4 0.189233 0.0234541 0.743651
1090 2 0.314669 0.0777375 0.738289
1092 4 0.334015 0.0855216 0.724492
1091 4 0.295324 0.0699534 0.752085
1004 4 0.406288 0.00961996 0.659091
950 4 0.338114 0.0664424 0.720547
1003 2 0.386849 0.0151356 0.673818
1005 4 0.36741 0.0206513 0.688545
949 2 0.355566 0.0518225 0.71021
951 4 0.373018 0.0372026 0.699872
1130 4 0.111127 0.102879 0.695954
1129 2 0.132131 0.114366 0.688737
1131 4 0.153135 0.125852 0.681521
840 4 0.242744 0.156506 0.752331
1297 2 0.236466 0.157814 0.708274
1298 4 0.244348 0.157222 0.731995
1299 4 0.228584 0.158407 0.684553
977 4 0.385838 0.165071 0.731567
976 2 0.361562 0.165135 0.737552
1024 2 0.457926 0.103907 0.716978
1026 4 0.459756 0.112141 0.69344
1010 4 0.476491 0.124093 0.689361
1025 4 0.456096 0.095673 0.740516
1179 4 0.043119 0.184464 0.736468
1177 2 0.0333849 0.206686 0.742521
1215 4 0.0389052 0.16612 0.733738
1178 4 0.0236508 0.228907 0.748573
851 4 0.101824 0.204479 0.737529
946 2 0.126761 0.209391 0.70761
1260 4 0.147833 0.218227 0.682887
947 4 0.118701 0.215049 0.730592
948 4 0.13482 0.203734 0.684627
1259 4 0.189643 0.241853 0.668944
1258 2 0.168738 0.23004 0.675915
1211 4 0.199803 0.238852 0.685591
1085 4 0.287554 0.180326 0.709817
1084 2 0.309967 0.180249 0.720899
1086 4 0.33238 0.180173 0.731982
978 4 0.337285 0.165199 0.743538
952 2 0.369609 0.167746 0.680776
954 4 0.36198 0.164743 0.704397
1193 4 0.397678 0.181111 0.730972
1192 2 0.416075 0.190895 0.717152
1261 2 0.455844 0.194631 0.674103
3356 4 0.47564 0.226073 0.754442
1194 4 0.434472 0.20068 0.703332
1262 4 0.449191 0.209849 0.692793
2979 4 0.459088 0.219273 0.746411
1209 4 0.0725968 0.270238 0.750184
3419 4 0.988085 0.324191 0.701927
991 2 0.137609 0.313536 0.672523
993 4 0.1321 0.326963 0.692883
1207 2 0.0969465 0.272651 0.745042
1208 4 0.121296 0.275065 0.7399
1210 2 0.220068 0.253104 0.682216
1212 4 0.240333 0.267356 0.678842
1042 2 0.325681 0.31243 0.733076
1044 4 0.314026 0.33395 0.727954
1043 4 0.337336 0.29091 0.738197
3330 4 0.3321 0.275789 0.750183
1281 4 0.999703 0.372814 0.724213
1279 2 0.0124882 0.390966 0.735711
3418 2 0.992295 0.348776 0.703674
1068 4 0.123756 0.336796 0.707776
1066 2 0.125296 0.361714 0.706383
1067 4 0.126836 0.386631 0.70499
1276 2 0.239069 0.397138 0.737023
1096 2 0.186591 0.413032 0.74374
798 4 0.295291 0.338655 0.727694
797 4 0.260476 0.374234 0.722918
1277 4 0.262329 0.393955 0.728419
796 2 0.277884 0.356445 0.725306
3183 4 0.390693 0.398245 0.679807
3181 2 0.405004 0.396398 0.700226
3182 4 0.419315 0.394552 0.720646
999 4 0.463798 0.383238 0.736926
2130 4 0.0406971 0.489904 0.665966
2128 2 0.0306256 0.46926 0.675843
2129 4 0.020554 0.448616 0.685721
894 4 0.00253449 0.440117 0.68482
941 4 0.161431 0.426791 0.708361
940 2 0.152185 0.44806 0.699017
942 4 0.142938 0.469329 0.689673
1098 4 0.167975 0.418352 0.727919
891 4 0.311179 0.464654 0.668093
889 2 0.324587 0.450569 0.68381
2212 2 0.299424 0.48834 0.725783
2213 4 0.305855 0.495314 0.702649
890 4 0.337995 0.436484 0.699526
1204 2 0.363215 0.476703 0.731731
1206 4 0.367881 0.457981 0.747634
1249 2 0.460218 0.47157 0.723226
1250 4 0.484823 0.475571 0.721282
1251 4 0.435613 0.467569 0.725169
1988 4 0.41897 0.476939 0.730264
3369 4 0.489584 0.465481 0.737893
1107 4 0.025439 0.0736148 0.770543
1202 4 0.107868 0.0235693 0.780616
1201 2 0.101873 0.0326464 0.758103
831 4 0.110569 0.0385206 0.793951
829 2 0.121253 0.0499288 0.813467
830 4 0.131938 0.061337 0.832983
1049 4 0.287808 0.0524482 0.759713
1048 2 0.298472 0.0330627 0.771359
1050 4 0.309137 0.0136772 0.783006
1256 4 0.307621 0.015533 0.80354
964 2 0.375814 0.00944955 0.775283
966 4 0.376385 0.0177729 0.751712
3097 2 0.494325 0.997925 0.791302
852 4 0.0742041 0.182229 0.772783
1213 2 0.0366465 0.153696 0.755318
1214 4 0.0343878 0.141272 0.776899
1106 4 0.025931 0.123575 0.772647
1105 2 0.025685 0.098595 0.771595
909 4 0.17222 0.110578 0.772547
1147 2 0.158276 0.165871 0.833484
1148 4 0.164834 0.152073 0.81369
907 2 0.17693 0.126519 0.791225
908 4 0.181641 0.142459 0.809904
838 2 0.24694 0.149823 0.776057
839 4 0.251137 0.143139 0.799782
1022 4 0.246154 0.12497 0.802384
1021 2 0.263245 0.112316 0.815536
1023 4 0.280336 0.0996632 0.828688
3425 4 0.45193 0.103049 0.757631
3424 2 0.446806 0.112884 0.780042
3426 4 0.441683 0.122718 0.802452
45 3 0.441421 0.119194 0.822311
1144 2 0.464407 0.163266 0.814106
1146 4 0.46435 0.143359 0.829236
778 2 0.0555312 0.231743 0.82252
154 3 0.0330849 0.240425 0.761194
779 4 0.0606229 0.210348 0.834417
850 2 0.0880138 0.193354 0.755156
1145 4 0.464464 0.183172 0.798977
2977 2 0.454426 0.204927 0.766352
2978 4 0.449765 0.190581 0.786293
780 4 0.0504396 0.253138 0.810624
1073 4 0.0118588 0.288282 0.826517
155 3 0.0681535 0.253851 0.758438
153 3 0.0496479 0.257085 0.791069