ITEM: TIMESTEP
2490000
ITEM: NUMBER OF ATOMS
4590
ITEM: BOX BOUNDS pp pp pp
-9.9985700000000008e+00 9.9985700000000008e+00
-9.9985700000000008e+00 9.9985700000000008e+00
-9.9985700000000008e+00 9.9985700000000008e+00
ITEM: ATOMS id type xs ys zs
465 4 0.116952 0.0715413 0.0104084
565 2 0.238427 0.0133017 0.0740546
566 4 0.228921 0.990177 0.073786
652 2 0.31322 0.00500848 0.015913
1476 4 0.333547 0.0133196 0.0491805
492 4 0.323798 0.081915 0.00314297
556 2 0.388936 0.0698569 0.0635836
1474 2 0.352548 0.00238439 0.0612032
558 4 0.40283 0.0565111 0.0795209
745 2 0.488513 0.0366514 0.0267329
747 4 0.498764 0.0451494 0.0478959
2976 4 0.50087 0.0554757 0.0651328
655 2 0.0578132 0.134273 0.0711423
656 4 0.0408421 0.117635 0.0633747
3234 4 0.0580813 0.0937294 0.0184039
2624 4 0.0245574 0.106729 0.057873
702 4 0.0686318 0.110856 0.0250833
2623 2 0.0189877 0.0831409 0.0517266
700 2 0.0897129 0.122943 0.0191952
701 4 0.110794 0.13503 0.0133071
450 4 0.106511 0.151348 0.0243479
571 2 0.230024 0.128842 0.0780199
573 4 0.218034 0.109096 0.0875855
359 4 0.324136 0.155208 0.0270969
358 2 0.303617 0.143766 0.01854
572 4 0.242014 0.148588 0.0684543
557 4 0.375041 0.0832028 0.0476462
490 2 0.340625 0.0811427 0.0216211
491 4 0.357452 0.0803704 0.0400993
2639 4 0.491242 0.107647 0.00956443
448 2 0.118263 0.171937 0.0322956
915 4 0.14937 0.196651 0.0438831
449 4 0.130015 0.192526 0.0402433
913 2 0.170602 0.207964 0.0506934
914 4 0.191835 0.219277 0.0575038
581 4 0.211435 0.211104 0.058307
296 4 0.238808 0.252426 0.0537151
580 2 0.230842 0.214781 0.073638
295 2 0.224814 0.249832 0.0331577
582 4 0.250248 0.218458 0.088969
2806 2 0.0635518 0.289644 0.0231824
2807 4 0.0740839 0.272076 0.0375224
477 4 0.074769 0.278083 0.0559022
2808 4 0.0530196 0.307211 0.00884233
329 4 0.06266 0.31941 0.0230412
2514 4 0.0183093 0.318707 0.0494092
2512 2 0.0291232 0.305909 0.0679689
455 4 0.120429 0.323559 0.0236305
287 4 0.110858 0.321784 0.0410362
286 2 0.118829 0.333395 0.0616966
475 2 0.0913204 0.28029 0.074513
454 2 0.117444 0.304608 0.00759564
297 4 0.210819 0.247238 0.0126004
902 4 0.230661 0.317858 0.0202044
901 2 0.244306 0.330786 0.036693
1121 4 0.290623 0.312138 0.0240247
1120 2 0.308925 0.325764 0.0137988
328 2 0.0698723 0.342701 0.0285795
330 4 0.0770846 0.365992 0.0341178
552 4 0.081821 0.382434 0.0233489
288 4 0.126799 0.345005 0.082357
550 2 0.0971089 0.393833 0.00717708
1618 2 0.164516 0.351772 0.00416701
967 2 0.185224 0.351932 0.0638476
968 4 0.185541 0.353665 0.0389061
1619 4 0.181642 0.344884 0.0210324
903 4 0.25795 0.343714 0.0531816
1122 4 0.327227 0.339389 0.00357297
1069 2 0.342337 0.367255 0.0227183
1070 4 0.343952 0.377281 0.0455668
14 3 0.359828 0.401002 0.0400599
2652 4 0.362852 0.374176 0.0539895
2650 2 0.381906 0.368304 0.0690776
15 3 0.352863 0.426036 0.0673081
1071 4 0.340722 0.357229 0.99987
2651 4 0.40096 0.362432 0.0841656
2841 4 0.474252 0.344944 0.0646767
672 4 0.482209 0.339705 0.04666
2839 2 0.462213 0.33788 0.0854213
282 4 0.464655 0.42335 0.990142
2983 2 0.0534562 0.472035 0.0345581
2985 4 0.0560608 0.48971 0.0520503
1710 4 0.0456397 0.481549 0.0671815
2984 4 0.0508516 0.45436 0.017066
2093 4 0.0750612 0.427551 0.0681175
2092 2 0.0951415 0.419308 0.0805277
494 4 0.22038 0.505375 0.0365786
493 2 0.220093 0.500605 0.012036
525 4 0.238107 0.502697 0.0416978
523 2 0.258602 0.497607 0.0550853
524 4 0.279097 0.492517 0.0684728
768 4 0.291194 0.480621 0.0779439
741 4 0.336627 0.42928 0.0789151
11 1 0.357174 0.423498 0.0450904
12 3 0.376597 0.434639 0.0398197
596 4 0.392517 0.435116 0.0518986
13 3 0.339782 0.432413 0.0325826
595 2 0.409508 0.443419 0.0682551
597 4 0.426499 0.451722 0.0846117
659 4 0.437317 0.463327 0.0725807
658 2 0.449144 0.481633 0.0848356
956 4 0.422326 0.502706 0.0083319
379 2 0.998295 0.0127093 0.155247
3908 4 0.0423021 0.0157345 0.11716
355 2 0.223448 0.0710812 0.0798169
567 4 0.247934 0.0364261 0.0743232
356 4 0.234642 0.0490016 0.0833333
1506 4 0.285213 0.998231 0.156686
254 4 0.419989 0.0640735 0.08915
253 2 0.418917 0.0625183 0.114082
1661 4 0.420591 0.0220678 0.0889318
255 4 0.417845 0.060963 0.139014
758 4 0.433989 0.0597575 0.149998
24 3 0.474397 0.0694907 0.133117
25 3 0.467313 0.0460773 0.104494
23 3 0.459024 0.0353473 0.139619
1448 4 0.452103 0.0234006 0.124072
1447 2 0.436343 0.00787754 0.135727
21 1 0.473773 0.0473209 0.126297
2469 4 0.458154 0.0283539 0.105098
2467 2 0.459661 0.0127796 0.0855953
22 3 0.494806 0.038269 0.128495
657 4 0.0747844 0.150911 0.07891
2758 2 0.0488352 0.1353 0.149027
2760 4 0.0434999 0.111335 0.153757
2759 4 0.0541706 0.159265 0.144297
738 4 0.0920451 0.155774 0.0889711
577 2 0.131039 0.146853 0.146291
579 4 0.146566 0.127452 0.149062
736 2 0.111981 0.168698 0.096764
236 4 0.164108 0.125588 0.158641
578 4 0.115512 0.166254 0.14352
357 4 0.212254 0.0931608 0.0763006
235 2 0.188653 0.123677 0.163012
237 4 0.213197 0.121767 0.167383
705 4 0.0522622 0.177972 0.139395
703 2 0.0391178 0.198436 0.133596
704 4 0.0259734 0.2189 0.127797
756 4 0.0982887 0.242597 0.147227
737 4 0.131916 0.181622 0.104557
462 4 0.134264 0.198745 0.0953431
460 2 0.154713 0.208358 0.106049
506 4 0.100071 0.222866 0.146928
505 2 0.10146 0.199046 0.139456
507 4 0.102848 0.175225 0.131984
461 4 0.175161 0.217972 0.116755
623 4 0.195037 0.211892 0.11716
622 2 0.201848 0.220501 0.139625
624 4 0.208659 0.22911 0.16209
278 4 0.246253 0.200707 0.0983639
732 4 0.289539 0.18738 0.137741
279 4 0.270915 0.194798 0.141463
277 2 0.258584 0.197752 0.119914
378 4 0.432524 0.211613 0.124068
376 2 0.433614 0.230637 0.140258
377 4 0.434703 0.24966 0.156448
2513 4 0.0399371 0.293112 0.0865286
476 4 0.107872 0.282497 0.0931237
755 4 0.0991462 0.264633 0.102345
754 2 0.0987175 0.253615 0.124786
519 4 0.364849 0.257664 0.153091
528 4 0.400891 0.290116 0.125629
518 4 0.381537 0.297142 0.127329
517 2 0.373193 0.277403 0.14021
526 2 0.41956 0.306487 0.12269
2840 4 0.450173 0.330816 0.106166
527 4 0.438229 0.322858 0.119751
2771 4 0.00160538 0.400162 0.0993497
413 4 0.0688609 0.406447 0.146422
314 4 0.0202158 0.408268 0.0995911
313 2 0.0403652 0.420727 0.107589
315 4 0.0605147 0.433185 0.115587
251 4 0.131244 0.402048 0.100835
250 2 0.137183 0.379015 0.09313
252 4 0.143122 0.355982 0.0854248
969 4 0.184907 0.350199 0.088789
612 4 0.312441 0.353774 0.149263
609 4 0.327677 0.367455 0.145839
610 2 0.296208 0.356876 0.168026
607 2 0.346704 0.382364 0.139447
608 4 0.365732 0.397272 0.133055
740 4 0.351526 0.406484 0.120856
739 2 0.344076 0.417882 0.0998856
2536 2 0.425005 0.361877 0.120405
2538 4 0.417546 0.363835 0.0966199
714 4 0.417637 0.361746 0.15783
2537 4 0.432463 0.359919 0.14419
1708 2 0.0499378 0.482865 0.0917777
1709 4 0.0542359 0.484181 0.116374
2617 2 0.00494956 0.473141 0.155064
412 2 0.061262 0.423916 0.162616
2094 4 0.115222 0.411065 0.0929379
290 4 0.172164 0.443069 0.163027
289 2 0.186203 0.45115 0.143981
291 4 0.200243 0.459231 0.124934
627 4 0.21359 0.461434 0.109062
625 2 0.237123 0.464079 0.117086
626 4 0.260655 0.466724 0.12511
246 4 0.275327 0.458149 0.136076
244 2 0.28407 0.466081 0.158117
767 4 0.289758 0.493787 0.126165
766 2 0.290476 0.487204 0.102055
660 4 0.460972 0.499939 0.0970904
232 2 0.000113962 0.0387509 0.203171
233 4 0.0036073 0.0271025 0.181324
380 4 0.0173623 0.0240273 0.166801
693 4 0.242929 0.0580042 0.193248
691 2 0.246146 0.0375161 0.207214
723 4 0.252874 0.0738881 0.187819
692 4 0.249364 0.017028 0.221181
1505 4 0.300711 0.0241241 0.196562
248 4 0.27736 0.995972 0.247593
403 2 0.290048 0.0857238 0.227528
405 4 0.295053 0.0615101 0.22381
1504 2 0.292962 0.0111775 0.176624
757 2 0.438719 0.0767701 0.1677
744 4 0.470661 0.0824993 0.233479
721 2 0.233877 0.0877261 0.179286
722 4 0.21488 0.101564 0.170752
392 4 0.238279 0.142781 0.25304
2849 4 0.174068 0.142326 0.242028
391 2 0.213457 0.145756 0.253484
546 4 0.247356 0.151098 0.234679
544 2 0.249067 0.166643 0.21517
404 4 0.285043 0.109938 0.231247
30 3 0.289758 0.122171 0.248468
28 3 0.295206 0.159276 0.251809
545 4 0.250777 0.182187 0.19566
27 3 0.260732 0.144671 0.255108
759 4 0.443449 0.0937826 0.185403
697 2 0.499366 0.113409 0.232394
698 4 0.478031 0.101038 0.236509
512 4 0.0604781 0.183926 0.245713
284 4 0.203029 0.223725 0.180933
283 2 0.217108 0.205804 0.191218
285 4 0.231188 0.187883 0.201504
730 2 0.305723 0.188972 0.156734
605 4 0.29629 0.172157 0.237464
731 4 0.321906 0.190564 0.175727
604 2 0.305095 0.181104 0.21584
606 4 0.313899 0.190051 0.194216
498 4 0.315357 0.247011 0.19206
308 4 0.331585 0.234768 0.191665
307 2 0.350054 0.248423 0.181784
521 4 0.440054 0.200714 0.253266
633 4 0.429903 0.217194 0.246716
2694 4 0.0174001 0.307427 0.233884
300 4 0.0364486 0.304881 0.23921
396 4 0.0721901 0.273946 0.194283
298 2 0.0611977 0.307223 0.241889
394 2 0.096819 0.278137 0.193266
416 4 0.123127 0.299648 0.20169
395 4 0.121448 0.282328 0.192249
415 2 0.13264 0.321634 0.194526
299 4 0.0859467 0.309565 0.244568
749 4 0.206773 0.258833 0.241798
748 2 0.224784 0.248207 0.255505
618 4 0.202415 0.278292 0.244647
497 4 0.287226 0.261465 0.230795
496 2 0.301291 0.254238 0.211427
764 4 0.293245 0.280549 0.237858
309 4 0.368522 0.262077 0.171903
628 2 0.446216 0.250706 0.189721
629 4 0.426201 0.252298 0.17482
630 4 0.46623 0.249113 0.204622
1775 4 0.0147007 0.400772 0.181137
536 4 0.0177371 0.38331 0.172869
535 2 0.998634 0.368284 0.17874
417 4 0.142153 0.343619 0.187362
363 4 0.134956 0.357191 0.174452
361 2 0.137027 0.380025 0.184427
362 4 0.139099 0.402859 0.194401
338 4 0.194539 0.398554 0.199671
345 4 0.273814 0.374663 0.198
611 4 0.279975 0.359978 0.186789
343 2 0.281702 0.375409 0.221715
645 4 0.305197 0.368231 0.253143
344 4 0.28959 0.376155 0.245429
712 2 0.412892 0.384061 0.168063
713 4 0.408148 0.406376 0.178296
2862 4 0.412367 0.417768 0.193811
109 3 0.500777 0.405106 0.234642
2619 4 0.0169191 0.4924 0.165599
1774 2 0.00535398 0.423576 0.185355
414 4 0.0536631 0.441385 0.178811
681 4 0.0419466 0.456882 0.18182
679 2 0.0385438 0.472392 0.201134
680 4 0.035141 0.487902 0.220448
1776 4 0.996007 0.44638 0.189573
501 4 0.0255826 0.499501 0.232551
1788 4 0.172546 0.458862 0.176581
729 4 0.167176 0.431221 0.244555
1641 4 0.0881968 0.489462 0.250768
339 4 0.182506 0.435195 0.231503
337 2 0.188522 0.416874 0.215587
1786 2 0.170625 0.48001 0.189781
1787 4 0.168703 0.501159 0.202981
245 4 0.292813 0.474013 0.180159
387 4 0.297014 0.461965 0.197865
385 2 0.292174 0.454722 0.221302
231 4 0.445918 0.46194 0.178644
229 2 0.462491 0.480651 0.179278
2860 2 0.419984 0.433637 0.211568
2861 4 0.427601 0.449506 0.229326
1473 4 0.421325 0.467196 0.235599
1568 4 0.490438 0.498486 0.196119
230 4 0.479064 0.499362 0.179913
428 4 0.164303 0.00333054 0.301417
1477 2 0.133463 0.988508 0.296423
1478 4 0.110961 0.992349 0.286222
427 2 0.179046 0.0210307 0.31114
429 4 0.193789 0.0387309 0.320862
249 4 0.26436 0.0336753 0.277762
1700 4 0.265269 0.0243418 0.295114
247 2 0.27086 0.0148234 0.262678
1699 2 0.276242 0.0320898 0.316203
761 4 0.354283 0.0729021 0.328076
1496 4 0.457753 0.0057969 0.309727
1748 4 0.461999 0.0519746 0.274754
1747 2 0.459474 0.0382635 0.29551
1749 4 0.45695 0.0245525 0.316266
743 4 0.45464 0.0421052 0.258225
742 2 0.46265 0.0623023 0.245852
2848 2 0.157828 0.137704 0.26047
2850 4 0.141589 0.133081 0.278911
393 4 0.188635 0.148731 0.253927
26 1 0.283042 0.141014 0.259353
29 3 0.286001 0.138426 0.282222
516 4 0.293398 0.143423 0.298649
514 2 0.311403 0.142387 0.315967
515 4 0.329407 0.141351 0.333286
760 2 0.362594 0.0962654 0.331279
762 4 0.370906 0.119629 0.334482
513 4 0.0166545 0.166909 0.262762
530 4 0.0783857 0.188535 0.239078
511 2 0.0385663 0.175417 0.254238
529 2 0.091104 0.19873 0.258038
531 4 0.103822 0.208924 0.276999
459 4 0.114268 0.203956 0.29357
457 2 0.117521 0.194759 0.316592
750 4 0.242796 0.237582 0.269211
388 2 0.265403 0.234141 0.289985
707 4 0.28694 0.233819 0.317236
390 4 0.268405 0.22798 0.314031
632 4 0.387435 0.209619 0.27201
332 4 0.368528 0.20554 0.279182
331 2 0.364882 0.203259 0.303813
631 2 0.408669 0.213406 0.259363
520 2 0.464012 0.20341 0.259894
522 4 0.48797 0.206105 0.266522
420 4 0.497914 0.208726 0.283019
735 4 0.0951653 0.325569 0.252568
733 2 0.102677 0.32964 0.276066
734 4 0.110188 0.333711 0.299565
2654 4 0.118934 0.34459 0.312468
389 4 0.262401 0.240301 0.265939
365 4 0.176052 0.321931 0.289674
617 4 0.176874 0.311232 0.272276
616 2 0.189644 0.294762 0.258462
364 2 0.187865 0.3256 0.311404
763 2 0.299686 0.296356 0.256129
765 4 0.306127 0.312164 0.2744
508 2 0.272398 0.328305 0.295362
510 4 0.290888 0.320852 0.280271
728 4 0.148397 0.407925 0.284622
602 4 0.166315 0.398747 0.283687
603 4 0.180293 0.378481 0.327214
601 2 0.173304 0.388614 0.30545
1574 4 0.329025 0.404913 0.267788
509 4 0.253907 0.335759 0.310453
643 2 0.324103 0.361695 0.268143
435 4 0.255766 0.350769 0.32362
275 4 0.343022 0.353794 0.303427
644 4 0.34301 0.35516 0.283143
276 4 0.387997 0.371622 0.316079
274 2 0.36551 0.362708 0.309753
614 4 0.396395 0.355924 0.306928
613 2 0.420795 0.350978 0.309249
108 3 0.487676 0.374415 0.252832
2924 4 0.461759 0.342938 0.322686
615 4 0.445194 0.346033 0.31157
1640 4 0.0842601 0.456703 0.288346
1386 4 0.104342 0.500509 0.248262
727 2 0.157786 0.419573 0.264588
1639 2 0.0862285 0.473082 0.269557
3672 4 0.174699 0.504593 0.273422
677 4 0.17663 0.484469 0.275508
375 4 0.219932 0.468194 0.307081
676 2 0.200103 0.481112 0.283442
678 4 0.223575 0.477754 0.291375
373 2 0.233159 0.465835 0.328168
1573 2 0.314215 0.424704 0.264027
386 4 0.287335 0.447478 0.244739
1575 4 0.299405 0.444495 0.260265
1715 4 0.497331 0.457813 0.296169
1471 2 0.430728 0.47199 0.258265
1714 2 0.472751 0.462396 0.296312
1716 4 0.448171 0.466978 0.296455
1472 4 0.440132 0.476783 0.280932
1219 2 0.0512 0.0552501 0.392163
1220 4 0.0547371 0.0578354 0.367546
1271 4 0.0742573 0.0656768 0.365736
2429 4 0.182475 0.996413 0.403362
599 4 0.28097 0.0457358 0.406799
467 4 0.293313 0.0534384 0.390185
466 2 0.297527 0.0422634 0.368218
1701 4 0.287216 0.0398377 0.337291
468 4 0.301742 0.0310884 0.346251
1517 4 0.415063 0.0123127 0.393451
2880 4 0.42117 0.0307532 0.387067
430 2 0.49579 0.0443753 0.360671
2878 2 0.444586 0.0377735 0.381815
2879 4 0.468002 0.0447937 0.376564
431 4 0.481917 0.0314369 0.37696
686 4 0.000513349 0.13468 0.391354
685 2 0.00171747 0.126556 0.367738
1200 4 0.00500461 0.148311 0.406335
1270 2 0.0912189 0.083633 0.361856
469 2 0.118117 0.14247 0.353125
1272 4 0.108181 0.101589 0.357976
470 4 0.120165 0.117659 0.355455
471 4 0.116069 0.16728 0.350796
478 2 0.329611 0.119114 0.370506
480 4 0.32757 0.135661 0.351872
479 4 0.331652 0.102567 0.389139
650 4 0.26559 0.130772 0.410363
2642 4 0.336695 0.101154 0.407349
2910 4 0.36187 0.136851 0.337468
2908 2 0.374568 0.150892 0.353801
2909 4 0.387267 0.164934 0.370135
2656 2 0.415729 0.144872 0.396387
2657 4 0.403807 0.15487 0.376814
1198 2 0.00785914 0.172578 0.401031
1199 4 0.0107137 0.196846 0.395728
824 4 0.0740502 0.200724 0.406331
342 4 0.0682962 0.181886 0.4125
458 4 0.120773 0.185562 0.339614
823 2 0.0952456 0.21355 0.40971
825 4 0.116441 0.226377 0.413089
369 4 0.133238 0.217206 0.417845
367 2 0.152702 0.20229 0.412964
368 4 0.172166 0.187374 0.408082
706 2 0.305602 0.236168 0.33371
708 4 0.324264 0.238518 0.350183
351 4 0.306335 0.175177 0.360753
349 2 0.327753 0.184538 0.351875
717 4 0.342096 0.242318 0.358964
333 4 0.361236 0.200978 0.328444
350 4 0.349172 0.193899 0.342998
2653 2 0.123694 0.338071 0.336133
442 2 0.121298 0.324663 0.391522
2655 4 0.128455 0.331552 0.359798
371 4 0.249099 0.24906 0.334335
370 2 0.25319 0.267097 0.351161
634 2 0.218919 0.331195 0.414299
636 4 0.218653 0.306194 0.41448
372 4 0.257281 0.285133 0.367987
715 2 0.341914 0.242558 0.383966
716 4 0.341733 0.242798 0.408968
872 4 0.326128 0.313869 0.418226
443 4 0.14015 0.331827 0.376742
366 4 0.199678 0.32927 0.333133
434 4 0.214714 0.362441 0.349682
433 2 0.23524 0.356605 0.336651
668 4 0.237679 0.361355 0.409567
635 4 0.219184 0.356197 0.414119
667 2 0.26244 0.364277 0.411451
871 2 0.308346 0.331139 0.41495
873 4 0.290564 0.348409 0.411675
669 4 0.287201 0.367199 0.413335
2925 4 0.476973 0.364566 0.36513
117 3 0.462415 0.371538 0.376724
2923 2 0.469366 0.353752 0.343908
116 1 0.446042 0.370366 0.392839
120 3 0.4256 0.371433 0.382856
118 3 0.448218 0.350308 0.4043
119 3 0.44864 0.388178 0.407482
570 4 0.0757221 0.479016 0.416838
594 4 0.232023 0.47413 0.417539
2107 2 0.241175 0.460861 0.385656
374 4 0.246386 0.463477 0.349255
2108 4 0.248071 0.466538 0.409009
2109 4 0.234279 0.455185 0.362302
3 3 0.333169 0.512171 0.379219
5 3 0.317094 0.491985 0.351801
445 2 0.425012 0.492916 0.417831
446 4 0.418029 0.482041 0.396426
542 4 0.46852 0.461895 0.361653
541 2 0.451803 0.466054 0.379775
543 4 0.435085 0.470213 0.397897
937 2 0.0165398 0.0583716 0.445697
939 4 0.0292223 0.0545418 0.424492
1221 4 0.047663 0.0526649 0.41678
1151 4 0.200541 0.0296396 0.489666
1180 2 0.219853 0.0638119 0.483032
1181 4 0.222038 0.0877025 0.475985
598 2 0.271159 0.066126 0.417437
2643 4 0.328244 0.0812722 0.452449
684 4 0.322983 0.0807154 0.471824
682 2 0.328739 0.0682372 0.492713
341 4 0.0950782 0.144526 0.432188
340 2 0.0816872 0.163206 0.422344
725 4 0.226086 0.0953842 0.493952
600 4 0.261348 0.0865163 0.428075
651 4 0.280406 0.15739 0.450021
2641 2 0.332469 0.0912133 0.429899
649 2 0.272998 0.144081 0.430192
473 4 0.263654 0.168721 0.448756
2501 4 0.434449 0.137237 0.433846
2658 4 0.42765 0.134873 0.41596
2500 2 0.435557 0.112601 0.437976
2502 4 0.436664 0.0879661 0.442105
2611 2 0.00648046 0.223806 0.463837
2612 4 0.0283847 0.235554 0.461122
2847 4 0.0469017 0.231815 0.453932
7 3 0.142541 0.222222 0.504148
6 1 0.155342 0.24133 0.503797
474 4 0.243872 0.212368 0.463051
472 2 0.253763 0.190545 0.455904
400 2 0.24245 0.247474 0.440328
9 3 0.172259 0.238739 0.488128
402 4 0.250425 0.231083 0.457443
321 4 0.291883 0.235614 0.494778
642 4 0.301305 0.24701 0.479586
319 2 0.29327 0.212558 0.504352
2517 4 0.492162 0.19777 0.440014
452 4 0.488102 0.183524 0.455468
451 2 0.465175 0.187292 0.464706
265 2 0.422151 0.228233 0.461957
453 4 0.442248 0.191061 0.473944
266 4 0.426536 0.206579 0.473665
2846 4 0.0604283 0.278153 0.440874
2845 2 0.053665 0.254984 0.447403
260 4 0.0618564 0.286522 0.46006
444 4 0.102445 0.317499 0.406302
261 4 0.0957735 0.312446 0.486103
259 2 0.0788149 0.299484 0.473082
695 4 0.116334 0.311659 0.484984
10 3 0.1422 0.259062 0.498181
401 4 0.234476 0.263864 0.423213
640 2 0.324138 0.256935 0.477288
488 4 0.361137 0.243209 0.415585
641 4 0.346972 0.26686 0.47499
489 4 0.400412 0.254988 0.44421
487 2 0.380774 0.249098 0.429897
267 4 0.417767 0.249886 0.450248
811 2 0.344448 0.300688 0.446888
812 4 0.34508 0.284231 0.465701
813 4 0.343817 0.317145 0.428074
408 4 0.013861 0.402136 0.414419
406 2 0.0212038 0.382856 0.428545
407 4 0.0285465 0.363576 0.442671
3354 4 0.0174046 0.365548 0.459588
3352 2 0.00565907 0.361591 0.481304
772 2 0.249665 0.382627 0.467307
774 4 0.226615 0.378278 0.475966
1395 4 0.223239 0.372262 0.494733
709 2 0.309226 0.384622 0.455355
773 4 0.272715 0.386976 0.458649
711 4 0.288754 0.379157 0.468629
335 4 0.387646 0.412417 0.496414
710 4 0.329698 0.390087 0.442081
240 4 0.368202 0.404815 0.495463
583 2 0.454601 0.400689 0.44136
585 4 0.462642 0.388885 0.420837
568 2 0.0809708 0.491196 0.438034
549 4 0.0046434 0.420177 0.408712
935 4 0.0538681 0.442622 0.495734
383 4 0.0440689 0.430635 0.430511
384 4 0.0592974 0.443192 0.476458
382 2 0.0516832 0.436914 0.453485
592 2 0.242403 0.484456 0.437808
593 4 0.252784 0.494782 0.458076
1400 4 0.310209 0.493918 0.473066
1399 2 0.285455 0.497317 0.474007
325 2 0.269006 0.436696 0.458148
326 4 0.258139 0.432438 0.436036
327 4 0.279873 0.440955 0.48026
1173 4 0.279268 0.440579 0.499571
334 2 0.407928 0.415644 0.482153
447 4 0.431996 0.50379 0.439235
336 4 0.428211 0.418871 0.467891
584 4 0.446559 0.412492 0.461883
1150 2 0.204652 0.00931897 0.503643
1182 4 0.217669 0.0399214 0.490078
574 2 0.330066 0.0235257 0.5441
683 4 0.334494 0.055759 0.513602
576 4 0.333569 0.043481 0.529448
575 4 0.326562 0.00357046 0.558753
1031 4 0.334034 0.0491217 0.584612
1030 2 0.335608 0.0722496 0.575242
1061 4 0.443177 0.0479908 0.532478
1060 2 0.466465 0.0392309 0.534954
842 4 0.440994 0.0677809 0.535293
1062 4 0.489753 0.0304709 0.53743
724 2 0.24329 0.110937 0.503298
726 4 0.260494 0.126489 0.512644
857 4 0.274639 0.133355 0.498301
856 2 0.278953 0.157983 0.498544
1032 4 0.337183 0.0953774 0.565871
1142 4 0.35236 0.10516 0.556506
1141 2 0.369896 0.117326 0.569531
1143 4 0.387433 0.129492 0.582555
841 2 0.430304 0.0844518 0.550557
843 4 0.419615 0.101123 0.565821
8 3 0.164493 0.244617 0.524865
348 4 0.171203 0.236973 0.542526
858 4 0.283266 0.18261 0.498787
320 4 0.294657 0.189502 0.513927
2508 4 0.483532 0.248478 0.505665
3122 4 0.455223 0.198355 0.56538
2812 2 0.00141656 0.295799 0.56134
696 4 0.148434 0.278021 0.503391
694 2 0.132384 0.29484 0.494187
346 2 0.188583 0.252938 0.550784
1189 2 0.207566 0.305192 0.542792
1191 4 0.202835 0.288241 0.560552
347 4 0.205964 0.268904 0.559043
803 4 0.375016 0.326537 0.576093
802 2 0.351811 0.335844 0.576355
3308 4 0.48454 0.253675 0.524387
3307 2 0.481384 0.267978 0.544651
3309 4 0.478228 0.282281 0.564916
270 4 0.481732 0.300824 0.571985
1040 4 0.0854697 0.400705 0.532482
936 4 0.0774439 0.42048 0.533874
1039 2 0.0951901 0.408045 0.554318
1041 4 0.10491 0.415384 0.576155
1190 4 0.212297 0.322144 0.525031
1394 4 0.218366 0.339858 0.532507
1393 2 0.220803 0.35606 0.51362
1029 4 0.262142 0.380825 0.579817
1027 2 0.252314 0.397196 0.563674
1239 4 0.277199 0.368326 0.578346
1237 2 0.300808 0.36446 0.571074
1238 4 0.324416 0.360594 0.563802
804 4 0.328605 0.345151 0.576618
3324 4 0.437247 0.395081 0.531411
3322 2 0.448932 0.388377 0.552475
3323 4 0.460617 0.381673 0.573539
934 2 0.065656 0.431551 0.514804
1136 4 0.125043 0.418899 0.574779
1135 2 0.143835 0.434981 0.571113
1137 4 0.162626 0.451062 0.567446
882 4 0.252422 0.486582 0.557324
538 2 0.178434 0.490015 0.569575
540 4 0.175479 0.465245 0.571275
1453 2 0.223944 0.506016 0.533149
1454 4 0.241907 0.489569 0.538805
1028 4 0.242486 0.413566 0.547531
880 2 0.256714 0.494346 0.580701
1172 4 0.25125 0.428762 0.539271
1171 2 0.265259 0.43467 0.519421
239 4 0.349167 0.432519 0.532489
238 2 0.358685 0.418667 0.513976
2990 4 0.0770408 0.998721 0.664237
1130 4 0.155394 0.031378 0.648637
1129 2 0.17275 0.0486437 0.643555
2318 4 0.207668 0.0591679 0.643755
1131 4 0.190107 0.0659094 0.638472
2317 2 0.22469 0.0689643 0.65923
2240 4 0.321678 0.016101 0.647696
2241 4 0.357337 0.00652611 0.61397
2239 2 0.339508 0.0113136 0.630833
89 3 0.411884 0.00422435 0.629064
88 3 0.374877 0.998609 0.622483
3076 2 0.0110123 0.0892086 0.595711
3178 2 0.0390385 0.116623 0.633386
3180 4 0.0270644 0.0963406 0.624993
3078 4 0.0338802 0.0900541 0.605787
3179 4 0.0510125 0.136904 0.641779
1284 4 0.24325 0.119441 0.648827
887 4 0.396494 0.138706 0.597216
886 2 0.406712 0.130841 0.618638
888 4 0.41693 0.122977 0.640061
953 4 0.410841 0.110155 0.654029
906 4 0.513172 0.121114 0.648598
3044 4 0.0625881 0.224581 0.658207
3043 2 0.0626926 0.239909 0.638453
3045 4 0.0627971 0.255237 0.618699
3461 4 0.0503368 0.211259 0.667795
1258 2 0.149393 0.22489 0.66439
1260 4 0.138847 0.243379 0.677509
1259 4 0.15994 0.206402 0.651271
1211 4 0.177761 0.205546 0.644055
1210 2 0.200663 0.215569 0.644512
410 4 0.238141 0.238927 0.643968
1212 4 0.223566 0.225591 0.644968
409 2 0.261439 0.237325 0.652902
411 4 0.284737 0.235724 0.661836
900 4 0.339932 0.177473 0.621004
898 2 0.361426 0.18862 0.614764
899 4 0.38292 0.199766 0.608523
792 4 0.388089 0.21891 0.611628
790 2 0.39451 0.241626 0.619871
1263 4 0.473548 0.19134 0.627512
3123 4 0.469482 0.204123 0.612963
3121 2 0.462353 0.201239 0.589172
1261 2 0.477448 0.17857 0.648652
2813 4 0.0057196 0.28986 0.585244
879 4 0.0523439 0.271624 0.622446
878 4 0.0253042 0.28661 0.58314
877 2 0.038824 0.279117 0.602793
992 4 0.164939 0.277074 0.657181
897 4 0.191961 0.285698 0.598201
896 4 0.175202 0.289792 0.645138
895 2 0.183582 0.287745 0.62167
806 4 0.385188 0.309621 0.581344
791 4 0.400931 0.264342 0.628114
805 2 0.395843 0.29307 0.596763
807 4 0.406497 0.27652 0.612182
268 2 0.500098 0.300661 0.58895
3371 4 0.478029 0.380701 0.581563
1007 4 0.493019 0.346959 0.638172
3372 4 0.480692 0.358707 0.626395
3370 2 0.47936 0.369704 0.603979
894 4 0.0471176 0.469273 0.652454
892 2 0.0271313 0.458587 0.663014
1001 4 0.453131 0.494947 0.621596
926 4 0.448623 0.475966 0.621448
925 2 0.470705 0.469457 0.631206
864 4 0.0670086 0.0102281 0.720739
2991 4 0.0684998 0.0242382 0.706388
2989 2 0.0727703 0.0114798 0.685313
943 2 0.16673 0.0360652 0.706819
944 4 0.164115 0.0542833 0.689895
2255 4 0.180689 0.00594961 0.73585
945 4 0.169344 0.0178471 0.723744
2319 4 0.241712 0.0787608 0.674705
951 4 0.286975 0.0326585 0.698605
949 2 0.270564 0.0465903 0.685887
1255 2 0.287536 0.0363309 0.740675
1257 4 0.302368 0.0240732 0.724708
950 4 0.254152 0.060522 0.673169
965 4 0.320343 0.025178 0.732592
1256 4 0.272704 0.0485887 0.756642
2019 4 0.30972 0.0173641 0.663769
966 4 0.367832 0.0199433 0.717825
964 2 0.344087 0.0225607 0.725208
1005 4 0.369501 0.00392556 0.705981
1217 4 0.447529 0.0212177 0.716468
1216 2 0.447371 0.0446207 0.725269
1218 4 0.447213 0.0680236 0.734069
3462 4 0.0552624 0.161532 0.669729
1106 4 0.061907 0.114829 0.717715
1105 2 0.0571498 0.129237 0.697842
1107 4 0.0523925 0.143645 0.677968
946 2 0.153249 0.174547 0.746968
948 4 0.174449 0.162974 0.753435
908 4 0.182227 0.146263 0.745373
1282 2 0.237154 0.137169 0.665371
1283 4 0.231057 0.154898 0.681915
1155 4 0.243212 0.154381 0.697399
1092 4 0.318584 0.130516 0.746893
977 4 0.307421 0.142448 0.734243
976 2 0.306323 0.155378 0.71287
952 2 0.4241 0.122968 0.670918
1025 4 0.405706 0.151899 0.745322
1024 2 0.419308 0.143815 0.725962
1026 4 0.43291 0.13573 0.706603
954 4 0.437358 0.135781 0.687806
1193 4 0.472221 0.153873 0.713682
1010 4 0.48275 0.143881 0.698977
1009 2 0.488192 0.131844 0.677748
3460 2 0.0527996 0.186395 0.668762
947 4 0.13205 0.18612 0.740501
851 4 0.122343 0.169976 0.748646
850 2 0.0996855 0.163984 0.757358
1153 2 0.229438 0.165743 0.714901
1154 4 0.215663 0.177106 0.732404
1085 4 0.297195 0.228741 0.675862
1084 2 0.295644 0.206398 0.686978
1086 4 0.294094 0.184055 0.698093
978 4 0.305226 0.168308 0.691498
1262 4 0.481347 0.1658 0.669792
1192 2 0.477763 0.177032 0.706057
1194 4 0.483305 0.20019 0.698432
3418 2 0.0192843 0.323475 0.708006
154 3 0.0464705 0.289272 0.749409
3420 4 0.0351924 0.331472 0.725561
152 3 0.0441587 0.326247 0.743073
3419 4 0.00337625 0.315478 0.690452
1067 4 0.0839895 0.314766 0.707813
991 2 0.158216 0.28865 0.678299
1066 2 0.108478 0.310491 0.705131
1068 4 0.132967 0.306215 0.70245
993 4 0.151493 0.300227 0.699416
1281 4 0.0408353 0.350772 0.727782
1279 2 0.0312226 0.366943 0.744252
1098 4 0.156719 0.409327 0.731026
1096 2 0.178352 0.406019 0.718932
1097 4 0.199984 0.40271 0.706837
1278 4 0.207595 0.397084 0.72461
1276 2 0.228067 0.387678 0.735455
1277 4 0.248538 0.378272 0.7463
3463 2 0.513221 0.390883 0.706875
998 4 0.483035 0.375542 0.752744
3464 4 0.493261 0.396654 0.692965
3432 4 0.999959 0.445873 0.692131
893 4 0.00714498 0.4479 0.673574
941 4 0.150527 0.427672 0.721123
2129 4 0.119547 0.475973 0.705534
2128 2 0.114413 0.486291 0.683345
940 2 0.139925 0.445352 0.706974
942 4 0.129322 0.463032 0.692826
890 4 0.302782 0.478677 0.704752
1205 4 0.317761 0.467389 0.697834
1204 2 0.322053 0.445081 0.708281
1206 4 0.326345 0.422773 0.718727
186 1 0.395439 0.485317 0.746064
3183 4 0.412361 0.479246 0.67304
1138 2 0.38244 0.425973 0.739615
3182 4 0.392482 0.457573 0.713486
1139 4 0.386379 0.435363 0.716779
3181 2 0.402422 0.46841 0.693263
187 3 0.394708 0.474598 0.725724
1988 4 0.500446 0.463353 0.762472
862 2 0.0776641 0.0223367 0.739845
863 4 0.0883195 0.0344454 0.75895
1215 4 0.08004 0.035282 0.779088
1213 2 0.0901121 0.0382194 0.801784
1214 4 0.100184 0.0411568 0.82448
831 4 0.154735 0.0294897 0.811738
1202 4 0.137295 0.0379793 0.806896
1201 2 0.141752 0.0524731 0.787015
1203 4 0.146209 0.0669669 0.767134
958 2 0.242509 0.0202434 0.769087
959 4 0.254681 0.0410184 0.762347
819 4 0.409269 0.0357734 0.828711
817 2 0.414988 0.0590296 0.835896
2321 4 0.39373 0.0230656 0.823845
1177 2 0.0514642 0.168199 0.796688
1179 4 0.0421251 0.168086 0.819882
907 2 0.198091 0.128921 0.753903
1021 2 0.233765 0.094082 0.789199
909 4 0.213955 0.111579 0.762434
1022 4 0.212481 0.104468 0.78118
1050 4 0.309983 0.083441 0.783459
1048 2 0.289209 0.0854971 0.797222
1049 4 0.268436 0.0875532 0.810985
1090 2 0.321952 0.109366 0.759796
1023 4 0.255049 0.0836959 0.797217
1091 4 0.32532 0.0882149 0.772699
3425 4 0.392696 0.162799 0.757182
3424 2 0.404306 0.153211 0.777143
3426 4 0.415917 0.143623 0.797104
43 3 0.422118 0.101279 0.833856
45 3 0.414291 0.128569 0.809125
41 1 0.430351 0.11992 0.82276
42 3 0.448475 0.11362 0.810073
1144 2 0.473554 0.161637 0.830332
1145 4 0.485669 0.164798 0.80869
852 4 0.0770277 0.157993 0.76607
1178 4 0.0608033 0.168313 0.773494
1299 4 0.227635 0.173545 0.748658
1297 2 0.237984 0.189185 0.765195
917 4 0.205163 0.228064 0.796004
916 2 0.218227 0.24911 0.792602
1298 4 0.248332 0.204825 0.781732
840 4 0.265973 0.209612 0.774172
838 2 0.271676 0.226266 0.791929
839 4 0.277378 0.24292 0.809686
2978 4 0.479983 0.17487 0.793253
3361 2 0.500831 0.251114 0.78364
2979 4 0.483977 0.219205 0.770468
2977 2 0.48198 0.197038 0.78186
3362 4 0.487867 0.237935 0.766805
155 3 0.0769609 0.311145 0.752499
780 4 0.0480649 0.30426 0.795846
153 3 0.0495566 0.313925 0.778168
151 1 0.0544539 0.310096 0.755813
778 2 0.040523 0.285238 0.810214
779 4 0.0329812 0.266215 0.824583
1209 4 0.0879792 0.297061 0.761542
1208 4 0.122786 0.304616 0.796644
1064 4 0.141118 0.308802 0.79945
1207 2 0.105382 0.300838 0.779093
918 4 0.231291 0.270156 0.789199
1042 2 0.314276 0.323512 0.777662
1043 4 0.334866 0.317572 0.764781
1044 4 0.293685 0.329453 0.790543
798 4 0.277922 0.338966 0.789477
801 4 0.280932 0.242577 0.830267
3329 4 0.388196 0.277653 0.754769
3330 4 0.353559 0.313322 0.760128
3328 2 0.370877 0.295487 0.757449