ITEM: TIMESTEP
1480000
ITEM: NUMBER OF ATOMS
4590
ITEM: BOX BOUNDS pp pp pp
-9.9985700000000008e+00 9.9985700000000008e+00
-9.9985700000000008e+00 9.9985700000000008e+00
-9.9985700000000008e+00 9.9985700000000008e+00
ITEM: ATOMS id type xs ys zs
3291 4 0.0342081 0.0478892 0.0399832
3289 2 0.0181372 0.0515136 0.0587919
785 4 0.0329925 0.043269 0.020281
700 2 0.0691957 0.077288 0.0709181
3290 4 0.00206629 0.055138 0.0776006
565 2 0.254257 0.0586902 0.0702094
567 4 0.264473 0.076183 0.0555532
1542 4 0.305059 0.00146287 0.0295636
1761 4 0.458253 0.00551172 0.030131
1759 2 0.434348 0.999288 0.0340028
1109 4 0.476189 0.0110774 0.0254943
702 4 0.0564597 0.0918221 0.0550521
1668 4 0.0655468 0.0849921 0.0386044
1666 2 0.0669617 0.101192 0.0196114
2623 2 0.996119 0.162643 0.0529265
1667 4 0.0683766 0.117392 0.000618438
573 4 0.235909 0.137713 0.0229693
357 4 0.250586 0.135298 0.0373737
571 2 0.218262 0.140838 0.00553372
355 2 0.24999 0.11222 0.0469789
356 4 0.249393 0.0891432 0.0565842
491 4 0.317839 0.114505 0.0289035
557 4 0.306561 0.12766 0.0395696
490 2 0.307104 0.111387 0.00653803
556 2 0.327087 0.135757 0.0513283
558 4 0.347614 0.143855 0.0630871
665 4 0.354429 0.161123 0.055705
1606 2 0.427496 0.0827421 0.0675629
1607 4 0.429151 0.0873567 0.0430447
3046 2 0.478122 0.135897 0.0173153
2640 4 0.477912 0.129767 0.0566672
3048 4 0.474957 0.123066 0.0385407
2638 2 0.475359 0.148607 0.0729062
746 4 0.468301 0.10074 0.0716193
3047 4 0.481288 0.148729 0.99609
148 3 0.465192 0.161378 0.999624
656 4 0.0245741 0.188136 0.065427
2624 4 0.00462417 0.184478 0.0616493
354 4 0.260047 0.217198 0.0160834
297 4 0.271567 0.229488 0.0290837
295 2 0.278885 0.216299 0.0490255
296 4 0.286204 0.20311 0.0689673
581 4 0.287983 0.184561 0.07567
664 2 0.374921 0.169289 0.0439339
666 4 0.395414 0.177456 0.0321627
2792 4 0.408661 0.18765 0.0232105
2895 4 0.41441 0.198941 0.0652532
2791 2 0.42101 0.203144 0.00795869
456 4 0.144632 0.269785 0.0212775
455 4 0.15068 0.290301 0.0664794
454 2 0.147656 0.280043 0.0438785
294 4 0.149435 0.288614 0.0149255
286 2 0.163208 0.316833 0.0866472
1071 4 0.368944 0.337102 0.00486568
670 2 0.437966 0.334359 0.0677623
551 4 0.0360516 0.40253 0.0513643
552 4 0.0801658 0.420015 0.035588
550 2 0.0581087 0.411273 0.0434762
330 4 0.0205506 0.411277 0.059727
288 4 0.178154 0.336857 0.0857316
252 4 0.187597 0.346878 0.0713748
251 4 0.209781 0.336596 0.0277526
250 2 0.198689 0.341737 0.0495637
483 4 0.218402 0.341789 0.00962181
481 2 0.232855 0.360703 0.00196898
13 3 0.309509 0.370702 0.0611319
11 1 0.325071 0.356621 0.0710297
15 3 0.314405 0.340303 0.0828021
741 4 0.300718 0.325075 0.0846817
1070 4 0.345356 0.328235 0.0480595
1069 2 0.35715 0.332669 0.0264626
14 3 0.338604 0.347092 0.054767
324 4 0.417069 0.393079 0.0192185
322 2 0.416459 0.370535 0.0300158
323 4 0.41585 0.347991 0.0408132
957 4 0.421267 0.403828 0.00276104
671 4 0.432463 0.338073 0.0436561
313 2 0.0059118 0.468872 0.0772973
1710 4 0.0416635 0.497513 0.0811462
1618 2 0.119716 0.460862 0.0243781
1620 4 0.108403 0.439927 0.0167007
2094 4 0.145408 0.490255 0.0439292
1619 4 0.131029 0.481796 0.0320556
1691 4 0.115711 0.421875 0.0100195
1787 4 0.108394 0.51781 0.0792153
524 4 0.307872 0.451382 0.0624671
523 2 0.309625 0.450186 0.0375536
246 4 0.321173 0.445149 0.0761554
525 4 0.311377 0.448991 0.0126402
494 4 0.331292 0.452522 0.00704245
955 2 0.407421 0.423953 0.00809705
493 2 0.355719 0.448668 0.00334679
495 4 0.380146 0.444814 0.999651
956 4 0.393575 0.444077 0.0134331
380 4 0.0161589 0.0589314 0.141196
590 4 0.0146307 0.0761175 0.132982
379 2 0.00731784 0.0357131 0.144011
701 4 0.0819317 0.0627539 0.0867842
450 4 0.0977969 0.0569992 0.098081
448 2 0.119388 0.065498 0.107396
449 4 0.140979 0.0739968 0.116712
566 4 0.24404 0.0411973 0.0848657
484 2 0.220691 0.0228283 0.10251
486 4 0.21586 0.000597377 0.112885
485 4 0.225522 0.0450593 0.0921359
653 4 0.354035 0.0740002 0.109581
652 2 0.352396 0.0524141 0.122092
654 4 0.350758 0.0308281 0.134604
1476 4 0.345654 0.0261619 0.152844
1449 4 0.413369 0.0219939 0.119885
1608 4 0.425842 0.0781274 0.0920812
1448 4 0.426894 0.0590665 0.0891698
1447 2 0.420132 0.0405302 0.104527
589 2 0.0170381 0.0979559 0.121046
2760 4 0.00980582 0.13571 0.102402
591 4 0.0194455 0.119794 0.10911
2758 2 0.0125181 0.155744 0.117114
578 4 0.161189 0.080131 0.118922
577 2 0.168336 0.0951999 0.13755
579 4 0.175484 0.110269 0.156179
236 4 0.184712 0.117392 0.172258
582 4 0.33185 0.168886 0.0938566
2639 4 0.472806 0.167447 0.0891452
745 2 0.470963 0.0966685 0.096145
747 4 0.473626 0.0925967 0.120671
771 4 0.490077 0.134316 0.172288
657 4 0.00691285 0.221075 0.098651
655 2 0.0157435 0.204605 0.082039
2759 4 0.0152303 0.175778 0.131826
736 2 0.0582919 0.185762 0.135262
738 4 0.0333252 0.184849 0.134258
737 4 0.0832587 0.186674 0.136266
507 4 0.102231 0.186245 0.142559
505 2 0.110062 0.194967 0.120473
506 4 0.117894 0.203689 0.0983877
755 4 0.135526 0.212633 0.0986283
754 2 0.154412 0.227362 0.105812
756 4 0.173297 0.24209 0.112995
462 4 0.1875 0.233096 0.124031
460 2 0.211906 0.237276 0.120556
580 2 0.309916 0.176724 0.0847633
278 4 0.306837 0.175974 0.142352
277 2 0.298912 0.165489 0.163622
309 4 0.315837 0.228359 0.148718
519 4 0.331852 0.234142 0.137831
518 4 0.381436 0.235488 0.144185
517 2 0.356644 0.234815 0.141008
255 4 0.409399 0.218391 0.151963
528 4 0.416823 0.23733 0.156078
253 2 0.412287 0.193555 0.151878
254 4 0.415174 0.168719 0.151793
2894 4 0.454286 0.175517 0.0842783
2893 2 0.434348 0.187229 0.0747657
2806 2 0.0394355 0.279531 0.12017
2807 4 0.0616233 0.268959 0.124764
477 4 0.0711163 0.250198 0.127431
2808 4 0.0172477 0.290103 0.115575
475 2 0.0824593 0.253035 0.149532
362 4 0.123984 0.300541 0.149284
361 2 0.132758 0.323545 0.153645
287 4 0.148263 0.296809 0.0875628
461 4 0.236311 0.241456 0.11708
623 4 0.240855 0.252964 0.0997319
609 4 0.256612 0.301759 0.161745
607 2 0.256441 0.318492 0.143166
608 4 0.256269 0.335225 0.124588
622 2 0.262551 0.264799 0.0959364
624 4 0.284247 0.276634 0.0921409
672 4 0.443468 0.330645 0.0918685
2841 4 0.451327 0.314211 0.101254
2839 2 0.454131 0.298736 0.120693
2840 4 0.456934 0.283262 0.140131
527 4 0.441397 0.280722 0.152332
526 2 0.42911 0.259026 0.154205
415 2 0.0845233 0.357418 0.139064
537 4 0.0942393 0.395041 0.149152
417 4 0.0704429 0.34043 0.127302
416 4 0.0986037 0.374406 0.150825
363 4 0.141532 0.346549 0.158006
535 2 0.100793 0.413286 0.164944
739 2 0.28132 0.335332 0.0966684
740 4 0.261922 0.34559 0.108655
12 3 0.338201 0.368941 0.0853465
596 4 0.412665 0.402902 0.152566
2652 4 0.430913 0.393645 0.152896
314 4 0.0263646 0.483103 0.0752133
1786 2 0.120882 0.499051 0.0900449
290 4 0.147351 0.47073 0.0907972
1788 4 0.133371 0.480291 0.100874
1775 4 0.117703 0.441043 0.166402
289 2 0.157586 0.45032 0.100988
536 4 0.107346 0.43153 0.180735
291 4 0.16782 0.429909 0.11118
627 4 0.17329 0.420006 0.128247
625 2 0.189695 0.431219 0.143423
626 4 0.2061 0.442431 0.1586
768 4 0.219819 0.447459 0.172602
244 2 0.33682 0.44662 0.0956026
245 4 0.352466 0.44809 0.11505
387 4 0.351559 0.433851 0.127835
385 2 0.35787 0.423733 0.149812
659 4 0.43786 0.465017 0.131698
597 4 0.428451 0.448649 0.139969
658 2 0.445835 0.487647 0.138731
595 2 0.420558 0.425776 0.146268
3800 4 0.510878 0.492304 0.136306
3608 4 0.508193 0.474132 0.128042
428 4 0.129344 0.0124024 0.207761
427 2 0.130281 0.0189924 0.231862
1504 2 0.286 4.32871e-05 0.207471
691 2 0.298466 0.0548904 0.208023
1505 4 0.300774 0.0192968 0.201454
692 4 0.312855 0.0351849 0.202562
693 4 0.284077 0.0745959 0.213484
721 2 0.254317 0.0960921 0.222388
235 2 0.199699 0.114842 0.192109
237 4 0.214687 0.112293 0.21196
722 4 0.234245 0.109494 0.215854
723 4 0.274389 0.0826896 0.228921
730 2 0.277069 0.159378 0.216459
732 4 0.272174 0.160115 0.19195
279 4 0.290986 0.155003 0.184892
731 4 0.281964 0.15864 0.240968
759 4 0.396542 0.159733 0.201752
757 2 0.417297 0.145791 0.201929
629 4 0.377624 0.160632 0.208506
25 3 0.445065 0.106064 0.165053
22 3 0.480234 0.117028 0.171042
758 4 0.438052 0.131849 0.202106
21 1 0.459261 0.115234 0.180319
23 3 0.460506 0.101682 0.199112
24 3 0.451866 0.1364 0.186292
521 4 0.450085 0.151828 0.243705
511 2 0.0573999 0.226299 0.198
512 4 0.063681 0.202145 0.196486
393 4 0.0692467 0.182935 0.201663
391 2 0.0940282 0.185095 0.199135
392 4 0.11881 0.187254 0.196607
546 4 0.138157 0.187029 0.196293
544 2 0.155252 0.205037 0.193355
545 4 0.172347 0.223046 0.190418
285 4 0.189021 0.235656 0.19383
307 2 0.305213 0.233187 0.170832
308 4 0.29459 0.238016 0.192945
628 2 0.378975 0.185598 0.208238
630 4 0.380326 0.210564 0.207971
377 4 0.396271 0.21326 0.194401
376 2 0.413022 0.23021 0.201972
378 4 0.429772 0.247159 0.209542
513 4 0.0511188 0.250453 0.199515
646 2 0.0516593 0.327361 0.202139
648 4 0.0293407 0.333208 0.192502
647 4 0.0739779 0.321514 0.211776
620 4 0.0164475 0.344566 0.181972
2799 4 0.012634 0.27188 0.230219
2692 2 0.0416482 0.292613 0.243374
2694 4 0.0651677 0.300909 0.241586
735 4 0.0772428 0.285294 0.244333
476 4 0.0938023 0.255872 0.171633
396 4 0.0894537 0.309851 0.211401
339 4 0.148611 0.323886 0.215
395 4 0.100347 0.267963 0.186353
394 2 0.0949003 0.288907 0.198877
337 2 0.167197 0.317946 0.199365
283 2 0.192559 0.258492 0.18428
284 4 0.196097 0.281327 0.17473
338 4 0.185784 0.312006 0.183731
612 4 0.275779 0.292109 0.15996
498 4 0.308818 0.249852 0.199669
496 2 0.313373 0.260108 0.222013
610 2 0.297846 0.293341 0.171651
345 4 0.331411 0.30691 0.192692
611 4 0.319914 0.294573 0.183343
497 4 0.317928 0.270364 0.244357
343 2 0.35415 0.317299 0.193114
344 4 0.376889 0.327688 0.193536
300 4 0.0960435 0.362322 0.201554
299 4 0.139704 0.337974 0.202829
298 2 0.117874 0.350148 0.202192
617 4 0.121767 0.356351 0.248735
645 4 0.353957 0.369958 0.225421
643 2 0.355186 0.385502 0.205874
644 4 0.356415 0.401045 0.186328
386 4 0.36418 0.413614 0.171789
107 3 0.500131 0.399298 0.249944
2650 2 0.428658 0.375721 0.170182
2651 4 0.426403 0.357797 0.187469
2538 4 0.426028 0.369949 0.203505
2536 2 0.437797 0.37866 0.223773
2537 4 0.449565 0.387372 0.244041
412 2 0.152862 0.473087 0.23043
414 4 0.152694 0.465149 0.20672
1774 2 0.137184 0.452866 0.176694
1776 4 0.156664 0.464689 0.186986
766 2 0.226196 0.471172 0.177316
767 4 0.232572 0.494885 0.18203
504 4 0.209281 0.485014 0.223165
1659 4 0.321196 0.489174 0.192373
1574 4 0.319077 0.443549 0.182225
1573 2 0.328585 0.43719 0.204458
1575 4 0.338094 0.43083 0.226691
229 2 0.376281 0.476821 0.244549
230 4 0.352919 0.467948 0.243734
714 4 0.439166 0.432513 0.258319
1403 4 0.0736412 0.00674058 0.287805
1477 2 0.135171 0.0162214 0.289113
429 4 0.131219 0.0255824 0.255963
1479 4 0.138527 0.0343272 0.272199
30 3 0.316478 0.0625293 0.250337
27 3 0.285753 0.0829751 0.244786
26 1 0.30039 0.0749486 0.260612
29 3 0.288655 0.0617864 0.275693
248 4 0.278793 0.0709012 0.317943
28 3 0.310094 0.0929059 0.271648
1747 2 0.404481 0.0206862 0.300909
1749 4 0.396578 0.0125227 0.323182
743 4 0.404653 0.0471713 0.278904
1748 4 0.412384 0.0288497 0.278636
742 2 0.411227 0.0711815 0.276564
530 4 0.0327326 0.17598 0.3038
458 4 0.0320015 0.16357 0.319368
405 4 0.272168 0.086544 0.327819
606 4 0.290222 0.161792 0.259225
404 4 0.283594 0.12304 0.295597
403 2 0.277881 0.104792 0.311708
604 2 0.312258 0.156477 0.269777
605 4 0.334294 0.151162 0.280328
633 4 0.325559 0.148089 0.298531
631 2 0.346543 0.151269 0.311749
632 4 0.367528 0.15445 0.324968
699 4 0.457077 0.135724 0.25336
744 4 0.417801 0.0951916 0.274225
698 4 0.436627 0.0984296 0.279659
697 2 0.446852 0.117077 0.26651
331 2 0.424465 0.158702 0.309209
332 4 0.442162 0.142165 0.303001
529 2 0.0568593 0.177401 0.297392
531 4 0.080986 0.178822 0.290984
2850 4 0.107113 0.200444 0.285005
2848 2 0.131655 0.197329 0.288633
2849 4 0.156197 0.194214 0.292261
763 2 0.309941 0.247782 0.281013
706 2 0.315936 0.222295 0.329483
708 4 0.315602 0.237849 0.309909
765 4 0.299622 0.233582 0.29882
333 4 0.406769 0.175239 0.315418
351 4 0.407489 0.191009 0.32663
520 2 0.454558 0.174182 0.253977
522 4 0.459031 0.196535 0.264249
420 4 0.466311 0.188313 0.282008
418 2 0.461342 0.204419 0.300476
419 4 0.456372 0.220525 0.318944
2693 4 0.0181287 0.284318 0.245161
2653 2 0.0995242 0.252774 0.312469
733 2 0.093999 0.277608 0.261225
734 4 0.110755 0.269923 0.278117
2654 4 0.0964903 0.264241 0.290458
618 4 0.151301 0.326837 0.276255
749 4 0.144491 0.308776 0.270771
748 2 0.164121 0.295333 0.278462
389 4 0.190497 0.279396 0.304996
750 4 0.18375 0.281889 0.286152
388 2 0.197247 0.271851 0.327858
764 4 0.320259 0.261983 0.263207
365 4 0.120538 0.374592 0.257571
616 2 0.136534 0.341594 0.262495
364 2 0.125738 0.397868 0.26508
727 2 0.216764 0.407898 0.276461
729 4 0.236282 0.396596 0.287256
434 4 0.255023 0.390316 0.291418
509 4 0.243424 0.336118 0.324275
433 2 0.251502 0.366723 0.298913
435 4 0.24798 0.343131 0.306408
275 4 0.349335 0.384549 0.28539
274 2 0.355346 0.366812 0.301956
276 4 0.361357 0.349074 0.318522
614 4 0.375575 0.335239 0.318257
613 2 0.400405 0.336475 0.320928
446 4 0.367571 0.411108 0.305214
543 4 0.355504 0.403546 0.290155
109 3 0.483026 0.366473 0.256468
108 3 0.462842 0.398621 0.254602
3990 4 0.500539 0.405614 0.286474
106 1 0.482923 0.389156 0.261353
110 3 0.485867 0.392303 0.283715
615 4 0.425235 0.337711 0.323599
679 2 0.0552438 0.443882 0.299774
501 4 0.0216109 0.470184 0.298903
680 4 0.0320264 0.451837 0.294992
681 4 0.0784611 0.435928 0.304555
499 2 0.0208796 0.489717 0.314495
366 4 0.130937 0.421143 0.272589
413 4 0.15303 0.481026 0.254139
677 4 0.109208 0.474734 0.256928
676 2 0.117511 0.463411 0.277617
678 4 0.125814 0.452087 0.298305
603 4 0.140755 0.440011 0.274496
375 4 0.116421 0.457151 0.31549
601 2 0.165487 0.437048 0.276673
728 4 0.197247 0.4192 0.265667
602 4 0.190219 0.434086 0.278849
2 3 0.313638 0.490783 0.320823
1437 4 0.295113 0.491232 0.329433
541 2 0.350275 0.425313 0.279017
4 3 0.346839 0.47587 0.330202
713 4 0.416017 0.47624 0.25105
542 4 0.345047 0.44708 0.26788
231 4 0.399644 0.485693 0.245365
1802 4 0.354738 0.489605 0.318955
712 2 0.427592 0.454376 0.254685
2861 4 0.48643 0.48871 0.271714
2428 2 0.231297 0.0080621 0.421505
247 2 0.28588 0.0527446 0.333605
249 4 0.292966 0.034588 0.349267
1700 4 0.28401 0.0440405 0.364409
1699 2 0.29358 0.035399 0.385832
1701 4 0.303149 0.0267574 0.407255
479 4 0.418154 0.0687913 0.408782
478 2 0.414105 0.0816667 0.387734
2642 4 0.422634 0.0499594 0.404937
340 2 0.0302823 0.1315 0.412629
342 4 0.0278718 0.153008 0.400109
686 4 0.0435342 0.155951 0.386768
367 2 0.15047 0.161588 0.374078
368 4 0.126315 0.15513 0.373998
369 4 0.174625 0.168046 0.374158
468 4 0.321135 0.0782364 0.355587
466 2 0.315253 0.0846953 0.379015
684 4 0.327159 0.0861358 0.409762
467 4 0.309371 0.0911542 0.402443
516 4 0.37941 0.144733 0.33605
514 2 0.392733 0.129618 0.350857
515 4 0.406056 0.114504 0.365664
480 4 0.410055 0.0945421 0.366687
761 4 0.511176 0.148282 0.354119
457 2 0.0213414 0.174753 0.339028
459 4 0.0106813 0.185936 0.358687
685 2 0.0609953 0.173831 0.387536
687 4 0.0784565 0.191711 0.388304
470 4 0.0934511 0.202198 0.397471
2655 4 0.102558 0.241307 0.334479
474 4 0.180378 0.182422 0.38653
472 2 0.197157 0.179644 0.404858
401 4 0.220811 0.241119 0.419767
707 4 0.31627 0.206741 0.349057
715 2 0.312159 0.208221 0.382975
716 4 0.321849 0.202535 0.405312
717 4 0.302468 0.213908 0.360638
349 2 0.388101 0.199857 0.339708
350 4 0.368714 0.208704 0.352786
760 2 0.505342 0.171655 0.347425
311 4 0.495127 0.241286 0.35176
762 4 0.499508 0.195029 0.340731
2516 4 0.476363 0.234727 0.357038
2515 2 0.469035 0.222169 0.377379
2517 4 0.461707 0.209611 0.397721
452 4 0.444393 0.221385 0.400707
442 2 0.0678272 0.318402 0.364408
260 4 0.0826412 0.322451 0.393181
2801 4 0.026747 0.309258 0.34801
443 4 0.0461217 0.311105 0.354369
2800 2 0.00697836 0.316664 0.334611
444 4 0.0895327 0.3257 0.374448
259 2 0.0994867 0.317779 0.411058
371 4 0.188079 0.261543 0.361622
390 4 0.203998 0.264306 0.35072
370 2 0.200189 0.252199 0.381402
372 4 0.212298 0.242855 0.401182
508 2 0.258575 0.326016 0.341409
636 4 0.290841 0.306678 0.352145
510 4 0.273725 0.315914 0.358543
634 2 0.308473 0.319842 0.36402
117 3 0.495876 0.322297 0.361549
2925 4 0.483616 0.318585 0.347348
2923 2 0.461492 0.328984 0.342097
325 2 0.125579 0.410689 0.393975
669 4 0.308464 0.394811 0.391512
667 2 0.319465 0.372825 0.386952
635 4 0.326104 0.333006 0.375895
668 4 0.330466 0.35084 0.382391
2508 4 0.496413 0.350169 0.40156
118 3 0.507523 0.348834 0.385483
2924 4 0.439369 0.339384 0.336846
373 2 0.116491 0.448368 0.3389
374 4 0.11656 0.439586 0.36231
326 4 0.125091 0.425075 0.37353
1557 4 0.321978 0.490875 0.398536
1555 2 0.310376 0.468727 0.398628
1 1 0.324255 0.476582 0.335479
1556 4 0.298774 0.446578 0.39872
593 4 0.281141 0.441288 0.407191
592 2 0.288976 0.417546 0.40752
5 3 0.321479 0.484288 0.356729
3 3 0.314977 0.45541 0.333459
445 2 0.374085 0.417599 0.328465
751 2 0.373253 0.424594 0.390819
752 4 0.371221 0.432202 0.367088
447 4 0.380599 0.42409 0.351716
560 4 0.469838 0.462699 0.372426
559 2 0.49246 0.462256 0.383067
1773 4 0.0400742 0.00236953 0.444742
2238 4 0.0259152 0.0182628 0.443399
2236 2 0.00315753 0.00854502 0.446982
599 4 0.156847 0.996132 0.441038
2429 4 0.215514 0.0251756 0.430627
598 2 0.175947 0.0112666 0.435443
600 4 0.195047 0.0264017 0.429848
575 4 0.333109 0.0157411 0.480477
3158 4 0.341632 0.0118939 0.497615
574 2 0.34301 0.0365614 0.470798
576 4 0.35291 0.0573816 0.46112
683 4 0.351567 0.0555862 0.440934
682 2 0.339363 0.070861 0.425348
1516 2 0.414357 0.0108633 0.492603
2641 2 0.432998 0.0428579 0.426555
4239 4 0.489797 0.0223021 0.480457
2643 4 0.443361 0.0357565 0.448173
1517 4 0.423015 0.0201256 0.471052
2878 2 0.461803 0.0125676 0.46228
2880 4 0.437998 0.0182358 0.457146
2879 4 0.485609 0.00689941 0.467414
341 4 0.0326928 0.109991 0.425148
1035 4 0.0281111 0.116697 0.443589
1034 4 0.0184295 0.102684 0.490606
1033 2 0.0232703 0.109691 0.467098
900 4 0.321328 0.151775 0.482876
825 4 0.0505353 0.179872 0.481673
1200 4 0.0313196 0.190141 0.479022
1198 2 0.022839 0.206722 0.495705
471 4 0.0835954 0.214817 0.444846
823 2 0.0742579 0.173896 0.48684
469 2 0.0885232 0.208507 0.421159
473 4 0.213936 0.176865 0.423187
651 4 0.229843 0.186501 0.430349
649 2 0.240682 0.168928 0.444451
650 4 0.251522 0.151354 0.458552
321 4 0.258392 0.163524 0.472903
640 2 0.312105 0.227726 0.484866
898 2 0.331164 0.174508 0.486289
642 4 0.324437 0.205985 0.484207
488 4 0.333487 0.209073 0.420218
487 2 0.341613 0.232588 0.4227
899 4 0.341 0.19724 0.489702
451 2 0.428265 0.236926 0.411821
261 4 0.116332 0.313107 0.428935
695 4 0.121442 0.304372 0.445418
694 2 0.121559 0.307081 0.470275
402 4 0.244272 0.272538 0.450802
400 2 0.232542 0.256828 0.435284
811 2 0.287257 0.27734 0.463658
812 4 0.293759 0.253468 0.467271
813 4 0.280754 0.301211 0.460045
872 4 0.296786 0.312018 0.45701
641 4 0.299773 0.249467 0.485526
489 4 0.349739 0.256104 0.425182
266 4 0.410808 0.268463 0.434392
267 4 0.360892 0.26865 0.43741
265 2 0.38585 0.268557 0.435901
584 4 0.417904 0.305937 0.443903
453 4 0.412136 0.252468 0.422934
583 2 0.425654 0.31709 0.464896
585 4 0.433405 0.328243 0.485889
3308 4 0.48767 0.32181 0.477337
3307 2 0.473064 0.308766 0.492885
327 4 0.126067 0.396304 0.41442
711 4 0.141159 0.369882 0.47597
709 2 0.138491 0.380617 0.453546
773 4 0.158263 0.372958 0.485058
710 4 0.135823 0.391352 0.431122
594 4 0.296812 0.393804 0.40785
871 2 0.283566 0.33324 0.456925
873 4 0.270346 0.354463 0.456839
335 4 0.377625 0.413479 0.483784
336 4 0.346621 0.388543 0.453491
334 2 0.362123 0.401011 0.468637
2507 4 0.496478 0.375625 0.444603
2506 2 0.496445 0.362897 0.423082
408 4 0.00902117 0.414478 0.424387
406 2 0.011714 0.42749 0.445567
382 2 0.0439291 0.463659 0.488282
407 4 0.0144068 0.440503 0.466747
383 4 0.0288834 0.454976 0.470298
384 4 0.0589748 0.472341 0.506265
935 4 0.0701304 0.480203 0.492775
2108 4 0.19925 0.459874 0.45026
2109 4 0.164315 0.428664 0.432761
2107 2 0.181783 0.444269 0.441511
1445 4 0.192749 0.459058 0.469036
1444 2 0.186121 0.474109 0.48787
1399 2 0.293011 0.495727 0.453036
1401 4 0.279633 0.479358 0.466388
239 4 0.382459 0.471603 0.498728
240 4 0.394053 0.424881 0.48519
238 2 0.388256 0.448242 0.491959
753 4 0.375286 0.416986 0.414551
720 4 0.0116328 0.0161501 0.528199
1152 4 0.204408 0.0255399 0.533661
1150 2 0.214256 0.0483105 0.530548
1059 4 0.212698 0.0112953 0.521245
1151 4 0.224104 0.0710812 0.527436
3157 2 0.330502 0.012887 0.519983
962 4 0.304883 0.000587932 0.541027
1031 4 0.269158 0.0408562 0.575678
3159 4 0.319372 0.0138802 0.542351
939 4 0.050093 0.125619 0.535827
937 2 0.032651 0.112798 0.523314
1221 4 0.0577311 0.113802 0.55045
1184 4 0.0113926 0.0947224 0.575938
938 4 0.015209 0.0999762 0.510802
1219 2 0.0813241 0.121715 0.548015
1220 4 0.104917 0.129628 0.545579
1271 4 0.116623 0.146757 0.546592
1270 2 0.116195 0.156468 0.523555
1182 4 0.236007 0.0856499 0.524015
1180 2 0.254475 0.101881 0.52856
1181 4 0.272943 0.118111 0.533106
725 4 0.286224 0.131623 0.534458
726 4 0.321237 0.14349 0.500784
724 2 0.30373 0.137557 0.517621
856 2 0.26173 0.165226 0.563747
906 4 0.476712 0.163814 0.576235
1011 4 0.470975 0.145188 0.577417
3045 4 0.0105431 0.240267 0.523803
3043 2 0.997879 0.232198 0.543796
1199 4 0.0143584 0.223303 0.512388
879 4 0.0366077 0.254873 0.539826
1272 4 0.115766 0.16618 0.500519
346 2 0.128098 0.241445 0.555151
347 4 0.147018 0.227904 0.564308
824 4 0.0979804 0.167919 0.492008
858 4 0.267863 0.171026 0.540211
320 4 0.256737 0.170822 0.522347
319 2 0.257565 0.167173 0.497625
792 4 0.410581 0.229224 0.544373
3323 4 0.501509 0.233565 0.571745
877 2 0.0547758 0.271941 0.537887
878 4 0.0729439 0.28901 0.535948
348 4 0.109178 0.254986 0.545995
8 3 0.119741 0.266612 0.532581
9 3 0.0931136 0.292908 0.539207
6 1 0.114593 0.289198 0.531252
7 3 0.129473 0.300993 0.544237
10 3 0.116217 0.296282 0.509669
696 4 0.121676 0.309789 0.495131
1190 4 0.225871 0.323115 0.574945
1394 4 0.235389 0.324544 0.557775
790 2 0.416064 0.252751 0.550821
791 4 0.421547 0.276279 0.557269
269 4 0.426218 0.295367 0.562645
3309 4 0.458459 0.295722 0.508432
270 4 0.453048 0.30853 0.52255
268 2 0.439633 0.301949 0.542598
2814 4 0.0446546 0.404187 0.547281
3333 4 0.02611 0.398021 0.543109
3331 2 0.0127132 0.388624 0.524204
2812 2 0.0683019 0.397222 0.543101
2813 4 0.0919492 0.390257 0.538921
1395 4 0.213467 0.35201 0.522198
1393 2 0.224428 0.338277 0.539987
772 2 0.17709 0.364442 0.499135
774 4 0.195918 0.355925 0.513213
1029 4 0.260169 0.41509 0.550466
1239 4 0.277445 0.420304 0.56068
1237 2 0.290428 0.401159 0.570172
804 4 0.312418 0.364646 0.578932
934 2 0.091785 0.486718 0.503443
936 4 0.11344 0.493233 0.514112
1040 4 0.115903 0.475121 0.523429
1039 2 0.12659 0.479654 0.545575
1041 4 0.137278 0.484187 0.56772
1136 4 0.143488 0.471684 0.581495
1446 4 0.179493 0.489159 0.506705
1028 4 0.244391 0.457769 0.529723
1172 4 0.246789 0.476055 0.537722
1027 2 0.25228 0.43643 0.540094
1171 2 0.26396 0.492394 0.545682
928 2 0.361945 0.497087 0.517
930 4 0.381324 0.491751 0.502128
3076 2 0.0159019 0.0593158 0.601521
3078 4 0.0164468 0.0426857 0.620184
2990 4 0.0209246 0.0689256 0.661008
2989 2 0.038313 0.0868878 0.661435
2318 4 0.199253 0.0442849 0.598641
1284 4 0.214858 0.0743908 0.654205
2319 4 0.217776 0.0737462 0.634553
2317 2 0.208514 0.0590155 0.616597
1030 2 0.277272 0.0536249 0.595585
1032 4 0.285386 0.0663935 0.615492
1142 4 0.304971 0.0678947 0.610389
1141 2 0.310162 0.0815143 0.630705
841 2 0.395579 0.0315228 0.61033
842 4 0.405259 0.0535288 0.603459
1003 2 0.367692 0.0139181 0.653889
843 4 0.385898 0.00951678 0.6172
1004 4 0.378927 0.000676748 0.6359
4467 4 0.493052 0.00848676 0.6385
1061 4 0.50554 0.00933006 0.624116
3077 4 0.015357 0.0759459 0.582857
2991 4 0.0557014 0.10485 0.661862
1282 2 0.227247 0.085506 0.672864
1143 4 0.315352 0.0951339 0.651021
857 4 0.255596 0.159425 0.587282
887 4 0.330438 0.108535 0.655799
1009 2 0.480667 0.123065 0.583884
1026 4 0.479212 0.146385 0.646578
1024 2 0.471948 0.12408 0.655235
1025 4 0.464685 0.101776 0.663891
1262 4 0.466135 0.160513 0.639771
1010 4 0.490359 0.100943 0.590351
850 2 0.0343211 0.202351 0.653543
851 4 0.0431283 0.184285 0.638669
1212 4 0.246125 0.205686 0.6543
1210 2 0.22517 0.197638 0.665314
953 4 0.323772 0.165995 0.653248
411 4 0.256129 0.179753 0.592133
410 4 0.242439 0.192909 0.638396
409 2 0.249284 0.186331 0.615264
954 4 0.303953 0.207205 0.633007
952 2 0.313863 0.1866 0.643127
3123 4 0.477094 0.219099 0.655714
1261 2 0.46395 0.185201 0.643073
1263 4 0.461765 0.209889 0.646376
1189 2 0.206541 0.32316 0.590805
1191 4 0.187211 0.323206 0.606665
806 4 0.339604 0.326301 0.616007
805 2 0.343997 0.301918 0.619376
807 4 0.34839 0.277535 0.622746
3322 2 0.498757 0.253608 0.586437
3371 4 0.495769 0.278384 0.652845
1007 4 0.50263 0.331132 0.641551
895 2 0.167045 0.355898 0.619938
896 4 0.148551 0.369388 0.629997
992 4 0.132602 0.358015 0.629318
991 2 0.118126 0.351464 0.648624
897 4 0.185538 0.342408 0.609879
1238 4 0.303411 0.382014 0.579664
802 2 0.320918 0.35335 0.599555
798 4 0.315415 0.354676 0.66679
803 4 0.329419 0.342053 0.620178
1006 2 0.494153 0.348956 0.626202
1008 4 0.485676 0.366781 0.610852
1983 4 0.0497706 0.497422 0.653573
2130 4 0.0340505 0.502027 0.666116
1135 2 0.165099 0.472911 0.594012
1137 4 0.186709 0.474138 0.606528
540 4 0.205831 0.480857 0.610644
538 2 0.215336 0.491422 0.590071
890 4 0.321094 0.479037 0.669302
889 2 0.33108 0.485777 0.647392
1952 4 0.402113 0.486601 0.590118
1951 2 0.380662 0.487545 0.60293
1953 4 0.359211 0.48849 0.615743
891 4 0.341067 0.492516 0.625483
2254 2 0.152018 0.0023521 0.740703
943 2 0.124442 0.0592567 0.714629
944 4 0.120665 0.0831039 0.70813
2255 4 0.134757 0.0163017 0.729186
945 4 0.128219 0.0354095 0.721127
1092 4 0.300506 0.0609867 0.728695
950 4 0.303857 0.0475246 0.71463
949 2 0.323305 0.0395541 0.701086
951 4 0.342752 0.0315836 0.687542
1005 4 0.356457 0.0271594 0.671879
864 4 0.0711675 0.0922617 0.66908
863 4 0.107242 0.0977665 0.703271
862 2 0.0892049 0.0950141 0.686176
829 2 0.148555 0.126672 0.731436
831 4 0.141094 0.105687 0.720071
830 4 0.156015 0.147657 0.742801
1283 4 0.239636 0.0966213 0.691522
908 4 0.170085 0.16064 0.747204
1155 4 0.25843 0.102823 0.687847
1153 2 0.268951 0.124719 0.681926
1154 4 0.279473 0.146615 0.676006
1299 4 0.284748 0.162012 0.68817
886 2 0.339763 0.12991 0.664816
888 4 0.349089 0.151285 0.673834
3426 4 0.464878 0.101528 0.731711
45 3 0.438595 0.12632 0.72864
3425 4 0.468244 0.10926 0.68242
3424 2 0.466561 0.105394 0.707065
42 3 0.444223 0.154154 0.752857
1081 2 0.998031 0.197264 0.695773
1082 4 0.010553 0.210512 0.678659
852 4 0.025514 0.220417 0.668417
1179 4 0.0307739 0.237864 0.709122
1177 2 0.0340754 0.24094 0.733715
946 2 0.129745 0.189377 0.725752
948 4 0.147911 0.195748 0.709796
1260 4 0.165169 0.187736 0.716422
947 4 0.111579 0.183005 0.741708
1258 2 0.178722 0.196089 0.697142
1211 4 0.204215 0.189591 0.676328
1259 4 0.192276 0.204443 0.677862
1297 2 0.287506 0.172846 0.710535
1298 4 0.290264 0.18368 0.7329
1085 4 0.296333 0.201707 0.738764
1084 2 0.318271 0.197208 0.749885
1194 4 0.353697 0.16954 0.680669
1192 2 0.367962 0.174594 0.700572
1193 4 0.382227 0.179649 0.720476
977 4 0.387685 0.175237 0.740061
976 2 0.369411 0.178992 0.756709
3121 2 0.483717 0.24244 0.661756
1067 4 0.109415 0.297224 0.719659
1066 2 0.108247 0.314302 0.701434
1068 4 0.107079 0.331381 0.68321
993 4 0.103651 0.344913 0.66793
3329 4 0.402157 0.331287 0.734975
3122 4 0.490341 0.265781 0.667798
1281 4 0.00826654 0.363568 0.688238
1280 4 0.0395048 0.400344 0.701369
1279 2 0.0238856 0.381956 0.694804
3420 4 0.0045236 0.344159 0.69293
884 4 0.0522721 0.415349 0.708777
1278 4 0.235198 0.39881 0.742164
1277 4 0.269608 0.383116 0.709447
797 4 0.282194 0.371994 0.699915
1276 2 0.252403 0.390963 0.725806
796 2 0.298804 0.363335 0.683353
1043 4 0.376738 0.368919 0.696172
1042 2 0.354732 0.364423 0.685186
1044 4 0.332726 0.359928 0.674199
3330 4 0.380456 0.37185 0.715368
3328 2 0.391306 0.351568 0.725172
1140 4 0.347526 0.40699 0.753655
3182 4 0.43776 0.360333 0.746278
883 2 0.0488518 0.43536 0.723373
885 4 0.0454316 0.455371 0.737969
2128 2 0.0191919 0.48736 0.679874
942 4 0.135923 0.455635 0.71932
940 2 0.134022 0.448769 0.743287
1205 4 0.315953 0.480298 0.688289
1204 2 0.330554 0.465488 0.702169
2214 4 0.2643 0.460524 0.744658
1206 4 0.345155 0.450678 0.716049
1139 4 0.346465 0.453307 0.734831
1138 2 0.346996 0.430148 0.744243
1294 2 0.0251088 0.0400866 0.826451
1296 4 0.044191 0.0270929 0.816848
1286 4 0.0619357 0.0242972 0.808609
1285 2 0.0808811 0.0353806 0.796634
1287 4 0.0998265 0.046464 0.784659
1203 4 0.102821 0.0629664 0.774602
1090 2 0.298638 0.0459105 0.748555
1091 4 0.29677 0.0308343 0.768414
1049 4 0.287909 0.0158388 0.780981
1048 2 0.304193 0.00343829 0.795343
964 2 0.42251 0.035238 0.792536
965 4 0.41168 0.0474237 0.811494
1216 2 0.455611 0.0102295 0.748012
966 4 0.433341 0.0230523 0.773579
2322 4 0.422686 0.0346113 0.822478
1218 4 0.444686 0.0299522 0.758821
845 4 0.482551 0.0696797 0.80078
1107 4 0.0636961 0.132658 0.755305
1105 2 0.050046 0.14164 0.77423
1106 4 0.0363959 0.150622 0.793156
1201 2 0.113875 0.084538 0.768465
1202 4 0.124929 0.10611 0.762328
1130 4 0.119479 0.119353 0.775498
1129 2 0.120638 0.138275 0.791802
1131 4 0.121798 0.157196 0.808106
33 3 0.100187 0.106063 0.828201
907 2 0.169541 0.159415 0.772172
1149 4 0.219783 0.125522 0.842797
1147 2 0.243692 0.131985 0.839369
839 4 0.327559 0.125483 0.824153
1148 4 0.267602 0.138448 0.835942
840 4 0.280057 0.140588 0.820129
838 2 0.303808 0.133036 0.822141
1022 4 0.343572 0.11606 0.813826
44 3 0.40964 0.140142 0.748344
1021 2 0.359911 0.113694 0.832604
1146 4 0.493207 0.128689 0.822151
1112 4 0.425906 0.113297 0.826279
1111 2 0.435121 0.111202 0.80313
41 1 0.432252 0.134948 0.748739
43 3 0.436571 0.119648 0.765641
1113 4 0.444336 0.109107 0.779981
1214 4 0.0337031 0.170597 0.791732
1178 4 0.0373769 0.244015 0.758308
1213 2 0.0203311 0.190705 0.785247
779 4 0.0712945 0.214885 0.822394
869 4 0.0698699 0.196085 0.813514
868 2 0.0925959 0.18568 0.814172
870 4 0.115322 0.175274 0.81483