ITEM: TIMESTEP
60000
ITEM: NUMBER OF ATOMS
4590
ITEM: BOX BOUNDS pp pp pp
-9.9985700000000008e+00 9.9985700000000008e+00
-9.9985700000000008e+00 9.9985700000000008e+00
-9.9985700000000008e+00 9.9985700000000008e+00
ITEM: ATOMS id type xs ys zs
1667 4 0.0443541 0.0159645 0.0557721
702 4 0.087176 0.0776071 0.0650847
465 4 0.0644501 0.0684186 0.023974
463 2 0.0502902 0.0681378 0.00336824
1666 2 0.0389256 0.00041442 0.0745845
700 2 0.100474 0.0649119 0.082031
534 4 0.18283 0.0467208 0.00795132
532 2 0.205093 0.0535048 0.998812
490 2 0.290579 0.0669489 0.0357767
491 4 0.287792 0.0773802 0.0583288
492 4 0.293366 0.0565176 0.0132246
296 4 0.353161 0.072315 0.0907617
484 2 0.347012 0.01281 0.079654
1608 4 0.416426 0.00706096 0.0505551
745 2 0.467018 0.0334758 0.0678267
746 4 0.453146 0.0269176 0.0480845
747 4 0.480889 0.040034 0.087569
2975 4 0.493644 0.0296918 0.0103851
2974 2 0.500947 0.0522205 0.0184039
591 4 0.0722413 0.0872695 0.0732318
3234 4 0.024957 0.125019 0.0123837
476 4 0.0875892 0.143656 0.0629088
589 2 0.0614361 0.10842 0.0810483
590 4 0.0506308 0.12957 0.0888647
422 4 0.127955 0.149748 0.990188
565 2 0.192762 0.146407 0.0486623
566 4 0.200071 0.138043 0.0262613
359 4 0.241603 0.16138 0.0256275
567 4 0.185453 0.154771 0.0710632
556 2 0.320896 0.12542 0.0551215
558 4 0.299151 0.119899 0.0661601
557 4 0.342641 0.130941 0.0440829
254 4 0.388125 0.175338 0.0591203
555 4 0.0809635 0.211847 0.0331014
477 4 0.0814413 0.193141 0.0666682
475 2 0.0845152 0.168398 0.0647885
553 2 0.088734 0.224063 0.0127161
1134 4 0.191695 0.194515 0.012236
1132 2 0.181015 0.177246 0.997644
358 2 0.266038 0.166492 0.0242216
360 4 0.290473 0.171604 0.0228158
571 2 0.312882 0.225891 0.0588784
573 4 0.292322 0.21844 0.0467566
357 4 0.281577 0.265114 0.0580175
354 4 0.260649 0.22936 0.068908
572 4 0.333442 0.233342 0.0710002
666 4 0.328943 0.194883 0.0410708
253 2 0.399925 0.18303 0.0797788
664 2 0.342185 0.196595 0.0199309
1071 4 0.382285 0.22918 0.00355057
771 4 0.48154 0.160239 0.0537775
292 2 0.107866 0.279785 0.0729068
293 4 0.103434 0.256496 0.0649592
294 4 0.112298 0.303073 0.0808544
915 4 0.141055 0.280321 0.0374835
913 2 0.141216 0.270264 0.0145921
505 2 0.184949 0.278777 0.0930587
506 4 0.183378 0.300772 0.0812711
355 2 0.2694 0.271595 0.0371635
356 4 0.257223 0.278077 0.0163094
957 4 0.33796 0.310351 0.00118918
323 4 0.425932 0.297688 0.0248472
322 2 0.420494 0.278723 0.0402072
671 4 0.430786 0.332892 0.0677992
324 4 0.415057 0.259757 0.0555671
281 4 0.485493 0.321653 0.0547908
280 2 0.487967 0.328765 0.030948
330 4 0.036 0.431767 0.00698745
454 2 0.139817 0.351257 0.0777475
455 4 0.159699 0.346344 0.0634041
1169 4 0.0859728 0.387511 0.0269763
1168 2 0.095324 0.395335 0.00514676
287 4 0.167346 0.336475 0.0485625
286 2 0.180304 0.35437 0.0368568
483 4 0.234718 0.348607 0.018778
288 4 0.193263 0.372265 0.025151
626 4 0.204011 0.374638 0.0859189
481 2 0.252082 0.335424 0.0310207
482 4 0.269445 0.32224 0.0432635
955 2 0.333735 0.332508 0.011978
252 4 0.2693 0.404382 0.0332475
250 2 0.265433 0.400231 0.0575991
956 4 0.329511 0.354665 0.0227668
551 4 0.0373151 0.436518 0.0263621
550 2 0.0449282 0.446278 0.0480866
552 4 0.0525413 0.456038 0.0698111
328 2 0.0122064 0.424194 0.00568549
241 2 0.16488 0.492193 0.0555032
242 4 0.144776 0.500914 0.0675434
243 4 0.184983 0.483472 0.0434631
245 4 0.261748 0.431419 0.0603118
244 2 0.251615 0.452465 0.069231
272 4 0.293072 0.469289 0.0179551
271 2 0.296735 0.483867 0.997974
246 4 0.241481 0.473511 0.0781503
564 4 0.422247 0.436017 0.038792
562 2 0.440311 0.432174 0.0219362
228 4 0.473759 0.476624 0.0332775
226 2 0.497164 0.469112 0.0378544
563 4 0.458374 0.428331 0.00508048
16 1 0.0541601 0.0694461 0.141729
19 3 0.069332 0.0692145 0.159283
17 3 0.0540604 0.0487382 0.131712
18 3 0.0328623 0.0740131 0.149726
701 4 0.113772 0.0522168 0.0989773
448 2 0.137149 0.0612684 0.125067
450 4 0.133463 0.0569187 0.100722
449 4 0.140835 0.0656181 0.149412
652 2 0.320856 0.038769 0.142087
654 4 0.299512 0.0462047 0.152781
653 4 0.342199 0.0313333 0.131393
485 4 0.356255 0.0359126 0.0821086
295 2 0.361079 0.0645972 0.113188
297 4 0.368996 0.0568795 0.135614
758 4 0.409679 0.0666144 0.151641
20 3 0.0602428 0.0851599 0.126408
380 4 0.0486576 0.149168 0.0919906
236 4 0.149623 0.145454 0.123217
235 2 0.171306 0.136693 0.132063
237 4 0.192989 0.127932 0.14091
581 4 0.273622 0.137182 0.133772
580 2 0.275029 0.114349 0.143863
582 4 0.276436 0.0915157 0.153955
461 4 0.32734 0.146136 0.122775
460 2 0.322017 0.166837 0.109801
629 4 0.365059 0.122764 0.127973
628 2 0.367975 0.145316 0.138369
381 4 0.0369122 0.185725 0.124027
379 2 0.0427849 0.167447 0.108009
338 4 0.152229 0.247489 0.133405
736 2 0.191818 0.20673 0.110418
737 4 0.210225 0.222569 0.10446
738 4 0.173411 0.190892 0.116376
352 2 0.261233 0.237882 0.0924072
462 4 0.316693 0.187537 0.0968269
255 4 0.411725 0.190722 0.100437
624 4 0.363814 0.248765 0.137487
630 4 0.370892 0.167868 0.148766
517 2 0.44285 0.233938 0.133518
518 4 0.456618 0.221267 0.116933
519 4 0.429081 0.246609 0.150103
657 4 0.018886 0.245552 0.125002
647 4 0.091128 0.330774 0.156439
703 2 0.998988 0.326658 0.149959
337 2 0.131909 0.257126 0.144333
339 4 0.111588 0.266763 0.15526
363 4 0.101484 0.275578 0.169624
507 4 0.186519 0.256782 0.104846
353 4 0.261816 0.246405 0.115906
754 2 0.276995 0.286629 0.123711
755 4 0.262921 0.266164 0.120832
756 4 0.291069 0.307094 0.126589
740 4 0.337995 0.308593 0.101421
13 3 0.400221 0.316835 0.158788
15 3 0.431854 0.32079 0.138755
704 4 0.00695482 0.340832 0.130964
620 4 0.0192798 0.347863 0.116772
619 2 0.0254605 0.37209 0.11673
621 4 0.0316412 0.396318 0.116689
648 4 0.0596704 0.368533 0.165678
646 2 0.0753992 0.349653 0.161059
456 4 0.119934 0.356169 0.092091
537 4 0.145737 0.357333 0.114739
535 2 0.164546 0.372581 0.120976
536 4 0.183355 0.38783 0.127212
625 2 0.221119 0.385898 0.100262
627 4 0.238226 0.397159 0.114605
251 4 0.261566 0.39608 0.0819506
612 4 0.252982 0.322802 0.160513
610 2 0.268998 0.33993 0.169191
607 2 0.273442 0.414859 0.10972
609 4 0.256655 0.399318 0.119813
741 4 0.350663 0.356736 0.106168
739 2 0.344329 0.332665 0.103794
387 4 0.342431 0.365027 0.122137
385 2 0.35569 0.38602 0.125083
11 1 0.415822 0.331889 0.15052
386 4 0.368949 0.407013 0.128029
14 3 0.405345 0.347462 0.136877
670 2 0.434184 0.356189 0.0762189
672 4 0.437582 0.379486 0.0846386
595 2 0.483572 0.395102 0.151523
494 4 0.445854 0.380331 0.103095
493 2 0.430789 0.395827 0.115669
596 4 0.492762 0.394879 0.128271
495 4 0.415723 0.411323 0.128243
12 3 0.425633 0.342885 0.168183
2652 4 0.483458 0.380437 0.117027
524 4 0.302053 0.445682 0.107505
639 4 0.269057 0.494813 0.138475
608 4 0.290228 0.4304 0.0996266
637 2 0.255077 0.488627 0.158261
523 2 0.30489 0.47 0.112583
525 4 0.307727 0.494317 0.11766
658 2 0.387644 0.487092 0.154554
659 4 0.364274 0.492677 0.147638
660 4 0.411014 0.481507 0.161469
673 2 0.124457 0.0242062 0.218446
674 4 0.113327 0.0419798 0.20483
578 4 0.143683 0.0850872 0.188121
1505 4 0.242444 0.0423487 0.194038
691 2 0.227201 0.0816486 0.206814
689 4 0.219421 0.0340047 0.237115
692 4 0.23934 0.0613831 0.198621
1504 2 0.253975 0.0224203 0.184287
1506 4 0.265506 0.00249187 0.174537
21 1 0.359156 0.0519713 0.212086
22 3 0.338452 0.0619003 0.210706
23 3 0.373761 0.0665258 0.222728
24 3 0.357256 0.0323267 0.224287
25 3 0.366687 0.0473796 0.191089
757 2 0.419153 0.0820261 0.168901
743 4 0.449436 0.0617125 0.220836
511 2 0.0506639 0.140533 0.241659
512 4 0.0579233 0.141617 0.217757
577 2 0.129618 0.095843 0.205775
579 4 0.115552 0.106599 0.223428
723 4 0.222319 0.111584 0.231169
693 4 0.215062 0.101914 0.215007
545 4 0.211295 0.172799 0.226856
27 3 0.335201 0.128486 0.25555
312 4 0.431626 0.140298 0.214841
759 4 0.428627 0.0974377 0.186161
742 2 0.454688 0.0859006 0.224374
744 4 0.45994 0.110089 0.227913
310 2 0.437909 0.164476 0.215904
394 2 0.0118611 0.237561 0.185994
395 4 0.0292537 0.254087 0.178955
391 2 0.128145 0.179543 0.207611
392 4 0.151342 0.183587 0.21602
393 4 0.104948 0.175499 0.199202
546 4 0.163127 0.167544 0.214489
544 2 0.187211 0.170172 0.220672
370 2 0.171743 0.241706 0.248948
279 4 0.244625 0.234368 0.175438
284 4 0.242902 0.219973 0.187857
283 2 0.238144 0.195949 0.192894
285 4 0.233386 0.171924 0.197932
371 4 0.181273 0.253591 0.229121
765 4 0.375493 0.25104 0.245758
764 4 0.363346 0.205548 0.228916
763 2 0.369419 0.228294 0.237337
622 2 0.351578 0.258034 0.157224
311 4 0.444192 0.188654 0.216967
520 2 0.471672 0.220713 0.242097
521 4 0.485028 0.216001 0.221491
528 4 0.492569 0.233915 0.216281
362 4 0.0590154 0.28893 0.192403
748 2 0.0699803 0.285004 0.24936
750 4 0.0562368 0.266916 0.238914
361 2 0.0802495 0.282254 0.181013
300 4 0.0922408 0.311691 0.243264
277 2 0.240364 0.25228 0.192355
344 4 0.222977 0.272492 0.223811
278 4 0.236102 0.270192 0.209272
307 2 0.298284 0.273333 0.237079
309 4 0.313552 0.258296 0.224196
623 4 0.339342 0.267303 0.176961
526 2 0.49658 0.253097 0.200751
527 4 0.500591 0.272278 0.185222
262 2 0.047818 0.39734 0.191406
263 4 0.0437238 0.406447 0.214329
264 4 0.0519123 0.388233 0.168482
365 4 0.0137732 0.398923 0.276367
611 4 0.285014 0.357058 0.177869
597 4 0.474383 0.395324 0.174776
643 2 0.441182 0.372355 0.181919
644 4 0.462264 0.384852 0.186874
645 4 0.4201 0.359857 0.176964
2618 4 0.0230367 0.483859 0.221779
2617 2 0.0120986 0.499713 0.205836
416 4 0.095222 0.446439 0.1956
415 2 0.101974 0.467888 0.184667
417 4 0.108725 0.489337 0.173734
291 4 0.197939 0.426921 0.186548
289 2 0.208259 0.449181 0.191361
290 4 0.218579 0.471441 0.196173
768 4 0.245602 0.463392 0.205244
303 4 0.276231 0.442277 0.194394
301 2 0.300042 0.449771 0.195837
638 4 0.241096 0.482441 0.178046
302 4 0.323852 0.457264 0.197279
767 4 0.251699 0.451486 0.253429
766 2 0.24865 0.457439 0.229337
229 2 0.405831 0.474135 0.209574
231 4 0.417914 0.456361 0.222351
230 4 0.393748 0.491909 0.196797
1568 4 0.506501 0.483821 0.219947
232 2 0.0122833 0.0483441 0.318303
234 4 0.0218077 0.0255041 0.314725
233 4 0.00275903 0.0711841 0.321881
688 2 0.223515 0.0196476 0.257172
606 4 0.166787 0.0948238 0.321774
1699 2 0.234351 0.0256519 0.317552
1700 4 0.252741 0.0339465 0.302782
249 4 0.252959 0.0518731 0.311925
247 2 0.272886 0.0660173 0.317217
248 4 0.292814 0.0801615 0.322509
632 4 0.338889 0.0819694 0.332292
479 4 0.499142 0.0577575 0.331528
529 2 0.0536451 0.156276 0.296977
530 4 0.0712822 0.168357 0.309945
531 4 0.036008 0.144196 0.284009
513 4 0.0434044 0.139449 0.265561
730 2 0.156441 0.0871477 0.285579
732 4 0.1418 0.0905038 0.26559
721 2 0.221003 0.1137 0.256048
731 4 0.171082 0.0837915 0.305568
722 4 0.219688 0.115815 0.280927
404 4 0.225001 0.134216 0.280834
403 2 0.229693 0.151403 0.298378
28 3 0.308915 0.154247 0.247933
26 1 0.314092 0.135804 0.261027
29 3 0.298938 0.118706 0.256972
30 3 0.313623 0.14154 0.283061
707 4 0.303897 0.153597 0.297925
631 2 0.337881 0.102998 0.318802
633 4 0.336872 0.124026 0.305312
333 4 0.490159 0.128474 0.249338
331 2 0.473205 0.12468 0.267319
332 4 0.456251 0.120885 0.285301
349 2 0.445148 0.111872 0.326113
350 4 0.452688 0.111893 0.302273
444 4 0.0433588 0.246445 0.306552
372 4 0.162214 0.22982 0.268774
389 4 0.121353 0.220192 0.269701
388 2 0.124861 0.240833 0.28337
600 4 0.149262 0.164818 0.315833
405 4 0.234386 0.16859 0.315921
598 2 0.173169 0.169574 0.321406
706 2 0.321971 0.168452 0.306749
708 4 0.340045 0.183306 0.315574
420 4 0.416778 0.219932 0.302846
418 2 0.431049 0.2302 0.285068
419 4 0.445321 0.240469 0.26729
522 4 0.458316 0.225425 0.262703
762 4 0.468914 0.194477 0.297272
760 2 0.490735 0.185535 0.305581
749 4 0.0837238 0.303092 0.259807
443 4 0.00633671 0.269507 0.331011
442 2 0.0248477 0.257976 0.318781
298 2 0.115296 0.315905 0.251974
299 4 0.138352 0.320119 0.260684
390 4 0.128368 0.261474 0.297038
734 4 0.153517 0.332555 0.25944
343 2 0.219356 0.28781 0.243238
345 4 0.215735 0.303129 0.262665
400 2 0.221439 0.270072 0.30483
402 4 0.208363 0.288689 0.294458
401 4 0.234515 0.251455 0.315203
733 2 0.170325 0.329814 0.277748
308 4 0.283017 0.288369 0.249963
496 2 0.291968 0.297515 0.288118
497 4 0.289996 0.295142 0.31293
498 4 0.29394 0.299888 0.263305
542 4 0.433213 0.306732 0.286854
366 4 0.0200484 0.356158 0.251217
364 2 0.0169108 0.377541 0.263792
601 2 0.0762492 0.414514 0.31462
603 4 0.0755763 0.411511 0.289806
617 4 0.101429 0.33737 0.321257
735 4 0.187133 0.327073 0.296055
510 4 0.209033 0.330738 0.325842
433 2 0.275181 0.38269 0.313723
729 4 0.312273 0.402983 0.297447
434 4 0.297591 0.392081 0.307821
727 2 0.322559 0.408427 0.275316
435 4 0.252772 0.3733 0.319624
728 4 0.332844 0.413871 0.253186
541 2 0.436301 0.330823 0.280916
543 4 0.43939 0.354914 0.274979
445 2 0.442942 0.398699 0.266655
446 4 0.441786 0.374517 0.272905
775 2 0.0915125 0.484681 0.292751
777 4 0.0890658 0.460096 0.296592
414 4 0.154599 0.455455 0.28329
412 2 0.16738 0.450319 0.304157
413 4 0.180161 0.445182 0.325024
438 4 0.242833 0.44272 0.309721
1435 2 0.28373 0.481497 0.267171
436 2 0.237952 0.446833 0.285546
437 4 0.23307 0.450946 0.261371
1802 4 0.320392 0.502303 0.33069
1436 4 0.308727 0.482029 0.267404
1437 4 0.258733 0.480965 0.266938
447 4 0.444098 0.422882 0.260405
118 3 0.491909 0.425246 0.313083
713 4 0.427685 0.456859 0.269157
712 2 0.431779 0.481312 0.272398
316 2 0.0362033 0.0404566 0.377937
317 4 0.0262945 0.0219804 0.391562
318 4 0.0461122 0.0589327 0.364313
1772 4 0.0155392 0.0272077 0.409247
427 2 0.12361 0.0124881 0.384017
428 4 0.112714 0.0344379 0.388984
369 4 0.103386 0.0735739 0.394558
605 4 0.181292 0.0704147 0.362939
604 2 0.17404 0.0826193 0.342357
439 2 0.261478 0.00803227 0.378425
440 4 0.269353 0.0128257 0.401667
698 4 0.350309 0.0643708 0.329355
697 2 0.346857 0.0417091 0.33934
699 4 0.343404 0.0190473 0.349325
258 4 0.412283 0.0426748 0.377112
478 2 0.478673 0.0434848 0.329955
480 4 0.458203 0.0292121 0.328382
257 4 0.450176 0.0362317 0.345122
256 2 0.431229 0.0394533 0.361117
397 2 0.0453127 0.100627 0.363503
399 4 0.0251094 0.112625 0.354956
398 4 0.065516 0.0886288 0.37205
457 2 0.0124973 0.161518 0.41172
367 2 0.127 0.0814405 0.392178
368 4 0.150614 0.0893071 0.389798
321 4 0.228593 0.151426 0.405916
473 4 0.212533 0.159603 0.39589
472 2 0.214853 0.165963 0.371821
682 2 0.294369 0.132287 0.373868
683 4 0.284164 0.145105 0.35498
467 4 0.325684 0.138866 0.41247
684 4 0.304573 0.119469 0.392755
351 4 0.437608 0.111851 0.349953
515 4 0.44174 0.138351 0.406595
451 2 0.484664 0.135197 0.36403
453 4 0.481329 0.115461 0.379015
458 4 0.012597 0.173059 0.38954
599 4 0.197075 0.174329 0.326979
474 4 0.217173 0.172324 0.347751
487 2 0.312332 0.255861 0.404723
717 4 0.321922 0.23712 0.357377
715 2 0.337491 0.219305 0.365464
716 4 0.353059 0.201489 0.37355
489 4 0.335676 0.261612 0.397854
267 4 0.344808 0.247665 0.40911
452 4 0.487999 0.154932 0.349045
346 2 0.0666109 0.273837 0.423463
348 4 0.0788555 0.295227 0.427671
676 2 0.127301 0.313592 0.334532
678 4 0.145439 0.29699 0.329997
677 4 0.109162 0.330194 0.339066
509 4 0.234755 0.351636 0.36329
375 4 0.175912 0.312282 0.401006
373 2 0.198929 0.308765 0.410118
275 4 0.249327 0.25832 0.362706
508 2 0.221894 0.341187 0.344566
488 4 0.288989 0.250111 0.411592
276 4 0.271719 0.2582 0.407419
377 4 0.293912 0.301932 0.331216
274 2 0.260523 0.25826 0.385063
376 2 0.283511 0.311132 0.35201
378 4 0.27311 0.320332 0.372803
615 4 0.369788 0.273341 0.351072
613 2 0.36545 0.297421 0.356224
614 4 0.361112 0.3215 0.361376
265 2 0.368432 0.241596 0.41461
268 2 0.464103 0.285108 0.413812
270 4 0.452032 0.28079 0.392345
618 4 0.054777 0.338971 0.339196
616 2 0.0781028 0.338171 0.330226
2926 2 0.0105455 0.40707 0.383743
2927 4 0.0298256 0.406955 0.399663
408 4 0.0907258 0.383931 0.423274
406 2 0.108383 0.398427 0.413113
407 4 0.126041 0.412924 0.402951
502 2 0.229904 0.39249 0.365768
503 4 0.231114 0.416538 0.359028
504 4 0.228695 0.368443 0.372507
668 4 0.258053 0.424184 0.415491
667 2 0.27912 0.416174 0.404665
669 4 0.300187 0.408165 0.393839
336 4 0.345322 0.383457 0.407161
753 4 0.445063 0.426673 0.403143
559 2 0.449916 0.346313 0.397018
751 2 0.435121 0.417334 0.382187
752 4 0.425179 0.407995 0.361232
561 4 0.433926 0.363322 0.405974
560 4 0.465905 0.329304 0.388061
602 4 0.0769222 0.417517 0.339433
548 4 0.0710576 0.427055 0.356208
2463 4 0.0158164 0.468995 0.359451
547 2 0.0526768 0.443963 0.357402
549 4 0.034296 0.460872 0.358595
501 4 0.116498 0.479165 0.373073
499 2 0.116267 0.467905 0.35075
500 4 0.116036 0.456644 0.328427
2 3 0.327598 0.494272 0.347342
1 1 0.313755 0.481596 0.36064
5 3 0.315772 0.459672 0.354817
4 3 0.291863 0.488631 0.357533
3 3 0.319936 0.484498 0.382816
594 4 0.422869 0.464735 0.375867
592 2 0.420614 0.488582 0.383037
1771 2 0.0211287 0.00443588 0.417929
718 2 0.0553155 0.0521496 0.446811
720 4 0.0602918 0.0573949 0.422876
719 4 0.0503392 0.0469043 0.470747
342 4 0.188052 0.0736351 0.446378
340 2 0.188276 0.0496701 0.43925
341 4 0.188499 0.025705 0.432122
424 2 0.40086 0.0238693 0.464649
425 4 0.405604 0.99934 0.465648
426 4 0.396116 0.0483983 0.463649
430 2 0.332747 0.0786735 0.476031
431 4 0.338586 0.0632405 0.494816
459 4 0.0123975 0.149977 0.433901
938 4 0.12841 0.134417 0.508655
686 4 0.194632 0.109392 0.451519
319 2 0.239206 0.131023 0.415728
685 2 0.197503 0.133943 0.455284
687 4 0.200373 0.158495 0.459049
320 4 0.24982 0.11062 0.425539
1182 4 0.211835 0.104997 0.482416
725 4 0.266189 0.100701 0.433143
724 2 0.289903 0.0952065 0.438858
726 4 0.313616 0.089712 0.444574
432 4 0.326908 0.0941064 0.457245
468 4 0.356808 0.132233 0.451045
466 2 0.341246 0.13555 0.431757
574 2 0.388149 0.16314 0.44995
575 4 0.373607 0.143019 0.452929
514 2 0.442107 0.153243 0.426676
260 4 0.0696923 0.200958 0.484206
261 4 0.110085 0.22831 0.473203
259 2 0.0898885 0.214634 0.478705
695 4 0.118433 0.232221 0.490644
410 4 0.283868 0.177435 0.484147
409 2 0.263271 0.190511 0.489621
576 4 0.402691 0.18326 0.446971
3064 2 0.500634 0.252258 0.487267
516 4 0.442474 0.168135 0.446758
347 4 0.0543662 0.252447 0.419255
325 2 0.128764 0.313231 0.44918
327 4 0.127732 0.294425 0.465625
326 4 0.129796 0.332037 0.432735
6 1 0.170169 0.322423 0.50934
9 3 0.150831 0.334549 0.505168
651 4 0.230378 0.288998 0.427601
374 4 0.221946 0.305248 0.41923
649 2 0.250487 0.276611 0.435809
10 3 0.167481 0.30089 0.502431
650 4 0.270596 0.264223 0.444016
266 4 0.392056 0.235528 0.42011
269 4 0.476174 0.289426 0.435278
583 2 0.442842 0.315726 0.465439
584 4 0.429265 0.335634 0.458768
585 4 0.456419 0.295818 0.472111
7 3 0.187587 0.331982 0.497747
709 2 0.219721 0.373849 0.476029
710 4 0.200089 0.387594 0.483159
711 4 0.239353 0.360103 0.468899
773 4 0.25328 0.374201 0.472416
772 2 0.273802 0.367762 0.485165
774 4 0.294325 0.361322 0.497914
335 4 0.35867 0.372945 0.454193
240 4 0.37823 0.373249 0.462188
238 2 0.375941 0.364634 0.485548
334 2 0.351996 0.378201 0.430677
588 4 0.438168 0.412474 0.416665
679 2 0.0756673 0.451379 0.412773
936 4 0.0290768 0.443075 0.466259
681 4 0.0580014 0.439715 0.426079
934 2 0.040225 0.429705 0.484207
540 4 0.123287 0.478561 0.474532
382 2 0.0996654 0.446611 0.471315
384 4 0.09248 0.437352 0.493401
680 4 0.0933331 0.463043 0.399467
383 4 0.106851 0.45587 0.449228
634 2 0.23211 0.448946 0.437029
635 4 0.242855 0.427858 0.428965
636 4 0.221364 0.470034 0.445092
568 2 0.16577 0.49068 0.412374
569 4 0.173757 0.467189 0.409283
662 4 0.456254 0.455872 0.485033
587 4 0.442343 0.435902 0.460647
586 2 0.440256 0.424188 0.438656
1126 2 0.0685134 0.0357152 0.552664
1127 4 0.0555504 0.0202599 0.53789
2237 4 0.0612778 0.00363069 0.528994
1128 4 0.0814765 0.0511705 0.567438
1057 2 0.165924 0.035524 0.54543
1059 4 0.146563 0.0489542 0.553793
1152 4 0.173248 0.0593867 0.517841
1523 4 0.118745 0.0077497 0.518033
1058 4 0.185286 0.0220939 0.537066
1150 2 0.185028 0.0776842 0.505528
1032 4 0.235869 0.0762493 0.587636
961 2 0.302643 0.039289 0.575651
962 4 0.307997 0.0328177 0.5521
842 4 0.387112 0.0789249 0.557203
2196 4 0.32555 0.988317 0.571049
1217 4 0.437382 0.0426113 0.59712
1061 4 0.489635 0.00696284 0.554103
937 2 0.104769 0.130192 0.515616
939 4 0.0811281 0.125968 0.522576
1034 4 0.141983 0.139432 0.495394
1151 4 0.196808 0.0959817 0.493215
1180 2 0.230273 0.114693 0.496243
1031 4 0.26417 0.0917034 0.549414
1030 2 0.25002 0.0839764 0.568525
1181 4 0.248711 0.12439 0.51007
900 4 0.319198 0.144965 0.558322
841 2 0.409804 0.0894225 0.557456
898 2 0.339869 0.151029 0.54563
899 4 0.360541 0.157094 0.532938
843 4 0.432495 0.0999202 0.557708
3159 4 0.486939 0.0996735 0.574505
3157 2 0.483692 0.121149 0.562118
640 2 0.424883 0.151224 0.502083
3158 4 0.480445 0.142625 0.549732
642 4 0.425949 0.12663 0.497706
1200 4 0.0387266 0.216909 0.561418
1198 2 0.0155344 0.209222 0.556106
1199 4 0.992342 0.201535 0.550794
470 4 0.0122964 0.209252 0.511266
1035 4 0.153017 0.188198 0.494483
1272 4 0.099543 0.198272 0.5846
1220 4 0.151982 0.176498 0.575044
1033 2 0.1475 0.163815 0.494938
1270 2 0.121779 0.18762 0.588755
856 2 0.215528 0.21429 0.545924
857 4 0.23369 0.230981 0.550008
858 4 0.197365 0.197598 0.54184
1221 4 0.197261 0.183284 0.554932
1219 2 0.174622 0.179891 0.564988
411 4 0.242674 0.203587 0.495095
790 2 0.29426 0.246954 0.561009
791 4 0.301403 0.234466 0.581459
871 2 0.388155 0.243673 0.521868
873 4 0.398541 0.230263 0.503497
641 4 0.423817 0.175819 0.50646
904 2 0.498724 0.229884 0.582068
3065 4 0.484527 0.250514 0.506312
879 4 0.0471968 0.234395 0.563581
877 2 0.0572008 0.256616 0.569175
878 4 0.0672048 0.278838 0.57477
1258 2 0.168951 0.269425 0.582014
696 4 0.141024 0.266637 0.519033
694 2 0.129728 0.249429 0.504839
1259 4 0.165244 0.262093 0.558399
792 4 0.287117 0.259442 0.540559
813 4 0.351736 0.306786 0.515297
811 2 0.3432 0.309151 0.538679
812 4 0.334665 0.311516 0.562061
872 4 0.377769 0.257082 0.540239
1040 4 0.0777897 0.387497 0.555406
1039 2 0.0799295 0.41026 0.565529
8 3 0.175086 0.322908 0.532012
802 2 0.280233 0.360081 0.55101
803 4 0.281487 0.335775 0.54528
804 4 0.278979 0.384387 0.556739
928 2 0.370003 0.364971 0.55579
929 4 0.357372 0.379822 0.571445
930 4 0.382634 0.350119 0.540135
239 4 0.373652 0.356018 0.508909
927 4 0.458532 0.397371 0.510655
925 2 0.469733 0.37509 0.512455
3308 4 0.496685 0.397516 0.531083
926 4 0.480934 0.352808 0.514256
935 4 0.0513732 0.416334 0.502155
1938 4 0.0610656 0.509201 0.55585
1041 4 0.0820694 0.433022 0.575652
1446 4 0.207123 0.512746 0.490089
891 4 0.344181 0.435787 0.587287
880 2 0.367989 0.477819 0.533842
881 4 0.377842 0.459858 0.548178
882 4 0.358135 0.495779 0.519506
663 4 0.460135 0.433302 0.529488
661 2 0.458195 0.444587 0.50726
1001 4 0.448987 0.433475 0.579795
1083 4 0.0713742 0.0767296 0.636588
825 4 0.185966 0.0671838 0.63717
823 2 0.192812 0.043261 0.63472
824 4 0.199659 0.0193381 0.63227
963 4 0.29729 0.0457604 0.599202
949 2 0.281914 0.0331073 0.632126
951 4 0.286623 0.0504299 0.614721
950 4 0.277205 0.0157847 0.649531
1092 4 0.311484 0.0338642 0.654287
1090 2 0.324334 0.022538 0.672501
1218 4 0.394761 0.0306582 0.620386
1216 2 0.416071 0.0366347 0.608753
1163 4 0.451464 0.0702733 0.668
809 4 0.442902 0.0765064 0.649957
1082 4 0.033723 0.10825 0.646053
1081 2 0.0525486 0.0924897 0.641321
1076 4 0.01863 0.119783 0.649587
1075 2 0.00588104 0.126381 0.670059
1154 4 0.130858 0.124893 0.598424
1153 2 0.150318 0.121298 0.613707
1155 4 0.169779 0.117703 0.628989
1283 4 0.169113 0.106258 0.645679
1282 2 0.193373 0.10515 0.65163
887 4 0.308626 0.143591 0.631419
886 2 0.288914 0.155835 0.622108
1005 4 0.341328 0.0905394 0.647626
1003 2 0.352061 0.0975944 0.669078
808 2 0.45243 0.0894531 0.630805
810 4 0.461958 0.1024 0.611654
1271 4 0.144015 0.176967 0.592909
909 4 0.150797 0.158199 0.649675
1211 4 0.234712 0.21315 0.651611
1210 2 0.245808 0.194848 0.638683
797 4 0.252995 0.265363 0.630102
1212 4 0.256903 0.176547 0.625756
888 4 0.269202 0.168079 0.612797
1193 4 0.327166 0.19199 0.633361
1192 2 0.328428 0.205772 0.654184
1194 4 0.32969 0.219554 0.675008
906 4 0.476153 0.236628 0.590448
1026 4 0.445475 0.192645 0.612312
1024 2 0.450003 0.190155 0.636776
1025 4 0.454531 0.187665 0.66124
1209 4 0.0489861 0.272993 0.657867
1207 2 0.0721512 0.265272 0.652487
1243 2 0.0128539 0.300906 0.64512
1244 4 0.0181687 0.291663 0.622504
1208 4 0.0953163 0.257551 0.647107
1260 4 0.172659 0.276758 0.605629
948 4 0.167704 0.284495 0.62356
946 2 0.173684 0.291187 0.646897
947 4 0.179664 0.297878 0.670235
796 2 0.275411 0.259234 0.639331
798 4 0.297826 0.253105 0.648559
805 2 0.363365 0.312735 0.662852
806 4 0.350735 0.324082 0.644497
1010 4 0.477623 0.314958 0.583006
952 2 0.448677 0.301934 0.612182
953 4 0.430705 0.312192 0.598148
954 4 0.466649 0.291675 0.626216
896 4 0.156565 0.362742 0.593024
1137 4 0.138668 0.35464 0.589337
1136 4 0.101505 0.36985 0.619142
1135 2 0.120087 0.362245 0.604239
895 2 0.180065 0.35809 0.600186
1191 4 0.215464 0.361537 0.593139
897 4 0.203564 0.353437 0.607348
1189 2 0.240265 0.362709 0.590182
1190 4 0.265065 0.363881 0.587226
1029 4 0.269091 0.419587 0.645939
890 4 0.306814 0.403954 0.596835
1238 4 0.338452 0.330641 0.629589
1239 4 0.327143 0.373701 0.606814
1237 2 0.332798 0.352171 0.618202
1204 2 0.382063 0.400906 0.659905
1205 4 0.3625 0.385349 0.660571
2172 4 0.127863 0.486954 0.618203
2170 2 0.112882 0.505795 0.624969
1160 4 0.165939 0.453901 0.599094
1171 2 0.246601 0.42864 0.601604
1173 4 0.222398 0.422537 0.603067
1159 2 0.188022 0.443206 0.594282
1161 4 0.210105 0.432512 0.58947
1188 4 0.227189 0.472284 0.626763
1186 2 0.247379 0.482546 0.61617
889 2 0.325497 0.41987 0.592061
1187 4 0.267569 0.492808 0.605576
1172 4 0.270804 0.434743 0.60014
1951 2 0.340428 0.479956 0.601361
1206 4 0.401626 0.416463 0.659239
1952 4 0.358531 0.465222 0.610325
1002 4 0.436309 0.481829 0.581185
1000 2 0.442648 0.457652 0.58049
2990 4 0.999062 0.025473 0.707306
944 4 0.0768344 0.0853296 0.709651
945 4 0.116445 0.075633 0.680708
943 2 0.0966396 0.0804813 0.695179
1147 2 0.199071 0.0785955 0.727975
1149 4 0.187334 0.0759483 0.749893
1049 4 0.308045 0.0142117 0.750301
1048 2 0.330393 0.025414 0.749805
1091 4 0.337185 0.0112118 0.690715
42 3 0.389155 0.0696873 0.708737
41 1 0.400911 0.0885001 0.714822
43 3 0.399019 0.0914346 0.737762
1050 4 0.352741 0.0366162 0.749308
44 3 0.423192 0.0856272 0.709015
1162 2 0.464615 0.0642881 0.688406
1164 4 0.477766 0.0583028 0.708812
4227 4 0.495177 0.000135719 0.668647
862 2 0.0626243 0.125339 0.715255
864 4 0.0597735 0.149934 0.718741
863 4 0.0654752 0.100744 0.711769
1284 4 0.217633 0.104041 0.65758
908 4 0.171946 0.149323 0.694112
1148 4 0.210809 0.0812427 0.706057
907 2 0.161372 0.153761 0.671894
1225 2 0.184947 0.145673 0.723665
1227 4 0.165909 0.156589 0.711682
1226 4 0.203985 0.134756 0.735648
829 2 0.303454 0.142472 0.711861
831 4 0.308667 0.154074 0.733387
830 4 0.29824 0.13087 0.690334
1004 4 0.362794 0.104649 0.69053
1141 2 0.364078 0.137079 0.709116
1142 4 0.354822 0.121871 0.69156
1143 4 0.373334 0.152288 0.726671
45 3 0.392312 0.106565 0.703942
852 4 0.0780119 0.199517 0.67745
851 4 0.0307602 0.195877 0.693411
850 2 0.0543861 0.197697 0.68543
1179 4 0.0354678 0.236469 0.715083
1107 4 0.0830282 0.222198 0.737906
1105 2 0.1066 0.222641 0.729578
1106 4 0.130171 0.223084 0.721249
1276 2 0.224039 0.24751 0.743033
1277 4 0.226575 0.242786 0.718611
976 2 0.273248 0.225967 0.706904
977 4 0.260509 0.243509 0.694448
978 4 0.285987 0.208425 0.719361
1299 4 0.293572 0.208937 0.738224
1146 4 0.480664 0.176404 0.735682
1178 4 0.0437499 0.266844 0.676231
1177 2 0.0396089 0.251657 0.695657
821 4 0.139097 0.304117 0.710835
820 2 0.152943 0.322115 0.721302
1065 4 0.206429 0.26235 0.691153
1063 2 0.227746 0.274564 0.695794
822 4 0.166789 0.340112 0.731769
1064 4 0.249064 0.286778 0.700436
807 4 0.375996 0.301389 0.681207
1006 2 0.339978 0.308288 0.737899
1007 4 0.341374 0.32021 0.715965
1261 2 0.448847 0.275108 0.721866
1262 4 0.430684 0.265637 0.736203
1263 4 0.467011 0.284579 0.707528
3123 4 0.485881 0.282708 0.703558
893 4 0.0358585 0.332884 0.72294
892 2 0.054337 0.349461 0.725932
894 4 0.0728154 0.366037 0.728923
1067 4 0.17739 0.401178 0.688814
942 4 0.179237 0.387756 0.705084
1066 2 0.189052 0.415283 0.671778
940 2 0.193849 0.386797 0.725351
1068 4 0.200713 0.429388 0.654742
1100 4 0.448202 0.412625 0.710437
1281 4 0.0148176 0.480719 0.683719
1280 4 0.0329553 0.441226 0.70846
1279 2 0.0238864 0.460973 0.696089
993 4 0.102024 0.420395 0.686522
991 2 0.12577 0.422584 0.679003
992 4 0.149516 0.424772 0.671485
1175 4 0.236889 0.515216 0.667996
1027 2 0.261074 0.438703 0.65992
1028 4 0.253057 0.457819 0.673901
1138 2 0.317193 0.445945 0.719489
1139 4 0.296548 0.431842 0.719714
1988 4 0.361185 0.506731 0.707103
1140 4 0.337838 0.460049 0.719265
1228 2 0.37321 0.469599 0.722673
1229 4 0.38798 0.450327 0.728642
1230 4 0.35844 0.488871 0.716704
1099 2 0.453989 0.432324 0.696167
1251 4 0.415825 0.504091 0.745179
1267 2 0.491272 0.469355 0.665736
1101 4 0.459776 0.452023 0.681896
1250 4 0.457252 0.476083 0.745182
1269 4 0.467844 0.460621 0.665774
1249 2 0.436539 0.490087 0.745181
1295 4 0.0615702 0.0159495 0.790775
1294 2 0.0431067 0.0320288 0.785703
1296 4 0.0246431 0.0481082 0.78063
2049 4 0.0777705 0.0240411 0.781038
2048 4 0.105072 0.00549685 0.743469
2047 2 0.0914213 0.014769 0.762254
1202 4 0.165681 0.0606541 0.816184
1201 2 0.14657 0.074353 0.807682
875 4 0.212067 0.0682288 0.830818
1255 2 0.283483 0.0428191 0.793252
1257 4 0.276567 0.0190868 0.797011
1256 4 0.290398 0.0665514 0.789493
1113 4 0.392202 0.0511575 0.76834
1111 2 0.406096 0.0559413 0.78857
2321 4 0.468122 0.00413013 0.748461
981 4 0.422378 0.00124322 0.837391
1112 4 0.41999 0.0607251 0.8088
832 2 0.00793649 0.154239 0.79236
833 4 0.0158397 0.160041 0.769359
834 4 3.33114e-05 0.148436 0.815361
1203 4 0.127459 0.0880519 0.79918
34 3 0.142439 0.13158 0.777231
1287 4 0.110851 0.0965985 0.808838
31 1 0.139155 0.15084 0.789749
35 3 0.131182 0.14543 0.810384
32 3 0.159277 0.161752 0.792022
1285 2 0.109076 0.115691 0.824886
1129 2 0.199524 0.171052 0.793174
1130 4 0.220898 0.183892 0.791322
1131 4 0.178149 0.158212 0.795027
839 4 0.255342 0.101928 0.816635
1298 4 0.302588 0.161415 0.750917
1084 2 0.365363 0.106614 0.801339