ITEM: TIMESTEP
3820000
ITEM: NUMBER OF ATOMS
4590
ITEM: BOX BOUNDS pp pp pp
-9.9985700000000008e+00 9.9985700000000008e+00
-9.9985700000000008e+00 9.9985700000000008e+00
-9.9985700000000008e+00 9.9985700000000008e+00
ITEM: ATOMS id type xs ys zs
701 4 0.0813167 0.0503241 0.0368562
700 2 0.0898294 0.0281586 0.0446922
448 2 0.141025 0.0487466 0.0697387
450 4 0.155378 0.029167 0.0757236
484 2 0.187963 0.0188037 0.0239701
485 4 0.188268 0.0379817 0.00792983
486 4 0.187658 0.999626 0.0400103
2252 4 0.192088 0.0291939 0.989819
356 4 0.244304 0.0843584 0.0251344
722 4 0.260864 0.0731078 0.0311133
723 4 0.280328 0.0680441 0.076898
721 2 0.270596 0.0705759 0.0540056
492 4 0.407005 0.0751036 0.0080051
490 2 0.400402 0.051914 0.0146251
491 4 0.3938 0.0287243 0.0212451
654 4 0.383784 0.0124784 0.0174283
2975 4 0.499781 0.0631133 0.0601911
25 3 0.493755 0.0733941 0.0775195
2974 2 0.495395 0.0711503 0.0369242
2976 4 0.491009 0.0791873 0.0136572
555 4 0.131832 0.150227 0.990404
355 2 0.255674 0.095794 0.00602587
2441 4 0.474112 0.0862502 0.999547
2440 2 0.450219 0.0829378 0.00612938
705 4 0.0346133 0.179655 0.086079
703 2 0.0559091 0.186832 0.0751175
704 4 0.077205 0.194009 0.064156
456 4 0.133788 0.229623 0.018138
462 4 0.0904287 0.189109 0.0784406
836 4 0.144867 0.214701 0.0128615
454 2 0.138118 0.252161 0.0280595
835 2 0.137005 0.192641 0.00410228
914 4 0.233335 0.220521 0.0666667
581 4 0.233329 0.239866 0.0639416
913 2 0.220565 0.204256 0.0807221
2808 4 0.000543414 0.325496 0.999367
455 4 0.142448 0.2747 0.0379809
286 2 0.141392 0.303344 0.0610237
287 4 0.140828 0.295119 0.0374182
482 4 0.131637 0.330897 0.0204154
481 2 0.128263 0.312248 0.00410627
580 2 0.234107 0.258949 0.080079
902 4 0.270913 0.281285 0.999434
105 3 0.260295 0.308127 0.0771781
295 2 0.309874 0.266063 0.014711
296 4 0.287354 0.27201 0.00561784
297 4 0.332393 0.260116 0.0238042
360 4 0.346628 0.254338 0.0119948
527 4 0.433171 0.312952 0.0613015
2840 4 0.450654 0.320338 0.0647192
2839 2 0.471379 0.316462 0.0512785
2841 4 0.492103 0.312585 0.0378379
672 4 0.504143 0.317771 0.0219351
2807 4 0.0397398 0.34588 0.0227944
2806 2 0.0201416 0.335688 0.0110805
2770 2 0.0133736 0.412094 0.0437035
2772 4 0.020066 0.411839 0.0196136
2514 4 0.10407 0.368313 0.054696
2512 2 0.105096 0.393295 0.0544619
2513 4 0.106122 0.418276 0.0542277
494 4 0.204686 0.388479 0.0611061
493 2 0.217134 0.371818 0.0749849
495 4 0.229583 0.355157 0.0888638
525 4 0.19378 0.405631 0.0645312
2005 2 0.368103 0.405597 0.00184105
670 2 0.502657 0.338781 0.00846155
328 2 0.0705082 0.459851 0.0211393
329 4 0.0493647 0.446624 0.0193541
330 4 0.0916517 0.473078 0.0229246
2445 4 0.113868 0.446402 0.999132
1104 4 0.184361 0.511602 0.00154122
741 4 0.3797 0.434619 0.0645057
14 3 0.36732 0.424969 0.0494074
13 3 0.371204 0.446951 0.0186484
11 1 0.363984 0.446211 0.0406876
15 3 0.34191 0.451698 0.0418212
12 3 0.376189 0.461313 0.0530217
596 4 0.387269 0.454079 0.0683856
595 2 0.40211 0.47389 0.0719113
2006 4 0.365715 0.429763 0.00779667
1156 2 0.48957 0.497489 0.0152908
233 4 0.0322638 0.0500215 0.162414
380 4 0.0232646 0.0324102 0.156489
449 4 0.126673 0.0683262 0.0637537
1479 4 0.136227 0.00981746 0.141373
693 4 0.300035 0.0699152 0.0731867
691 2 0.317255 0.0796927 0.0884527
1749 4 0.333343 0.034011 0.1425
1661 4 0.346117 0.0251278 0.129976
1660 2 0.348875 0.00199626 0.120893
2467 2 0.427986 0.0613186 0.146936
2469 4 0.41099 0.0769461 0.156533
23 3 0.485737 0.0731964 0.114307
771 4 0.459137 0.0583254 0.145
769 2 0.482334 0.0569848 0.154236
2468 4 0.444982 0.045691 0.137339
577 2 0.144205 0.165644 0.161054
579 4 0.152607 0.161044 0.137959
692 4 0.334475 0.0894703 0.103719
605 4 0.255839 0.164525 0.154298
1505 4 0.339405 0.0947485 0.123441
1504 2 0.363171 0.0937297 0.115739
1506 4 0.386937 0.0927108 0.108038
255 4 0.407668 0.0913663 0.108919
254 4 0.453978 0.0979668 0.0912393
21 1 0.490574 0.0864643 0.0958961
24 3 0.473208 0.101376 0.0920955
253 2 0.430823 0.0946665 0.100079
2759 4 0.0157644 0.18813 0.0835209
236 4 0.154666 0.177621 0.12813
460 2 0.105879 0.204168 0.0910786
461 4 0.121329 0.219226 0.103717
623 4 0.114343 0.23105 0.118709
622 2 0.123446 0.24453 0.137698
624 4 0.132549 0.25801 0.156687
235 2 0.176096 0.18724 0.119563
915 4 0.207795 0.187991 0.0947775
237 4 0.197526 0.196859 0.110995
730 2 0.258588 0.244583 0.158395
604 2 0.266224 0.186659 0.159531
731 4 0.277822 0.229635 0.164035
376 2 0.422797 0.207405 0.161063
378 4 0.423862 0.20722 0.136083
2876 4 0.43486 0.219986 0.125359
2875 2 0.45369 0.218191 0.109008
2877 4 0.472521 0.216397 0.0926563
396 4 0.0383384 0.300351 0.144639
756 4 0.0429612 0.314015 0.130118
754 2 0.0669273 0.313026 0.123059
755 4 0.0908934 0.312037 0.116
288 4 0.141956 0.311568 0.0846291
476 4 0.0962656 0.330908 0.115475
252 4 0.150063 0.300012 0.0989389
284 4 0.166142 0.260254 0.147971
250 2 0.161032 0.285674 0.116239
279 4 0.227661 0.274627 0.15594
251 4 0.172 0.271336 0.133539
582 4 0.234884 0.278032 0.0962164
278 4 0.218497 0.280628 0.107147
277 2 0.223079 0.277627 0.131544
103 3 0.237339 0.296527 0.104675
612 4 0.213671 0.32313 0.147502
101 1 0.249166 0.314504 0.0959963
102 3 0.264351 0.321697 0.111708
1121 4 0.278974 0.311175 0.120177
1120 2 0.289343 0.32747 0.136056
517 2 0.40362 0.285414 0.137707
528 4 0.414654 0.284312 0.0978749
526 2 0.423913 0.298632 0.0795882
518 4 0.405614 0.293238 0.114042
413 4 0.0441039 0.387195 0.162148
477 4 0.114913 0.376655 0.123238
475 2 0.105589 0.353782 0.119357
104 3 0.234637 0.331916 0.0910844
523 2 0.182014 0.418153 0.0826952
969 4 0.235305 0.351423 0.106203
967 2 0.221643 0.357254 0.126316
968 4 0.20798 0.363085 0.146429
416 4 0.200613 0.377196 0.158532
626 4 0.207916 0.422422 0.133076
625 2 0.212385 0.414467 0.156355
1122 4 0.299712 0.343766 0.151934
1071 4 0.299029 0.363292 0.158599
1069 2 0.323899 0.365161 0.160369
740 4 0.389859 0.396688 0.0954687
608 4 0.378964 0.403373 0.112117
2538 4 0.407131 0.385927 0.144987
2651 4 0.411549 0.370866 0.130937
2650 2 0.430576 0.355263 0.1265
2652 4 0.449603 0.33966 0.122063
2618 4 0.0396062 0.486934 0.12592
768 4 0.147835 0.4593 0.123575
524 4 0.170247 0.430674 0.100859
767 4 0.180502 0.496297 0.131627
766 2 0.164169 0.477798 0.127601
638 4 0.184849 0.506018 0.114353
607 2 0.371041 0.416254 0.132028
609 4 0.363117 0.429135 0.15194
739 2 0.38478 0.415653 0.0799872
659 4 0.428744 0.49168 0.0910498
597 4 0.416951 0.493702 0.075437
660 4 0.453561 0.495659 0.134282
3704 4 0.46596 0.495699 0.150032
3703 2 0.488149 0.50057 0.139587
658 2 0.441153 0.49367 0.112666
232 2 0.020636 0.0651419 0.17858
1271 4 0.0748542 0.0577453 0.2425
1477 2 0.135479 0.0108598 0.166343
397 2 0.106627 0.00627485 0.218285
1478 4 0.134732 0.0119021 0.191314
398 4 0.130076 0.0120347 0.211794
1270 2 0.094169 0.0599399 0.258226
249 4 0.303087 0.997257 0.254063
1747 2 0.339212 0.0344298 0.166802
743 4 0.365088 0.0289179 0.192797
742 2 0.380022 0.0283542 0.212843
1748 4 0.34508 0.0348485 0.191103
744 4 0.394956 0.0277905 0.232889
770 4 0.50553 0.0556443 0.163473
234 4 0.0090082 0.0802624 0.194746
2675 4 0.0114433 0.09767 0.186715
2674 2 0.0101554 0.111915 0.207224
2676 4 0.00886751 0.12616 0.227732
1220 4 0.0662998 0.0762172 0.243664
1219 2 0.0555392 0.0982738 0.248448
459 4 0.0582982 0.134184 0.247284
1221 4 0.0447785 0.12033 0.253233
27 3 0.23359 0.127024 0.169793
26 1 0.230577 0.147204 0.180416
29 3 0.207935 0.152275 0.180604
30 3 0.238378 0.145684 0.201758
516 4 0.25082 0.153949 0.215762
514 2 0.25697 0.154034 0.239997
28 3 0.242267 0.163582 0.168861
699 4 0.485914 0.0818044 0.231518
578 4 0.135802 0.170243 0.18415
507 4 0.124238 0.184288 0.191013
506 4 0.143254 0.2133 0.227033
530 4 0.136818 0.214139 0.24615
505 2 0.133746 0.198794 0.209023
529 2 0.146084 0.230424 0.262707
350 4 0.213343 0.234717 0.242829
546 4 0.197799 0.229556 0.231104
606 4 0.276609 0.208794 0.164763
377 4 0.421732 0.20759 0.186044
629 4 0.408019 0.215766 0.197084
759 4 0.38022 0.158483 0.222301
758 4 0.403982 0.200808 0.234331
757 2 0.392101 0.179646 0.228316
628 2 0.413913 0.229855 0.216881
630 4 0.419808 0.243944 0.236678
394 2 0.0361891 0.303712 0.169322
395 4 0.0340399 0.307072 0.194005
298 2 0.0371725 0.298309 0.237391
299 4 0.039896 0.300162 0.212606
283 2 0.162845 0.264734 0.172348
732 4 0.239354 0.25953 0.152755
610 2 0.22194 0.318198 0.170578
544 2 0.186545 0.248601 0.21945
285 4 0.159547 0.269214 0.196725
545 4 0.175291 0.267646 0.207796
611 4 0.230209 0.313266 0.193654
343 2 0.261439 0.318733 0.215673
344 4 0.273222 0.319746 0.237702
645 4 0.283865 0.3097 0.252295
497 4 0.324174 0.324142 0.255257
519 4 0.401625 0.277591 0.161371
309 4 0.386296 0.284781 0.171339
307 2 0.37048 0.283479 0.190662
308 4 0.354665 0.282178 0.209984
498 4 0.340192 0.290348 0.222059
496 2 0.332183 0.307245 0.238658
412 2 0.0401909 0.377941 0.185044
537 4 0.0167473 0.36457 0.214644
535 2 0.994325 0.375489 0.21643
414 4 0.036278 0.368686 0.207939
2093 4 0.0801035 0.396462 0.252254
417 4 0.160774 0.365632 0.186457
2092 2 0.086281 0.376657 0.238298
2094 4 0.0924586 0.356852 0.224342
363 4 0.145408 0.355448 0.177931
362 4 0.111275 0.358999 0.214305
361 2 0.128342 0.357224 0.196118
415 2 0.180694 0.371414 0.172494
289 2 0.220377 0.406562 0.222209
627 4 0.216854 0.406511 0.179634
290 4 0.21499 0.407629 0.246602
345 4 0.249656 0.317719 0.193643
246 4 0.316406 0.419172 0.179204
1070 4 0.34877 0.367029 0.162138
244 2 0.330642 0.412222 0.198548
2536 2 0.406799 0.388579 0.169847
2537 4 0.406467 0.391231 0.194707
245 4 0.344878 0.405271 0.217893
714 4 0.419776 0.377566 0.200984
712 2 0.433069 0.383081 0.221431
713 4 0.446363 0.388595 0.241877
728 4 0.175617 0.427728 0.2449
727 2 0.171816 0.446566 0.228904
291 4 0.225764 0.405494 0.197816
337 2 0.194232 0.498141 0.22603
339 4 0.178968 0.478755 0.221981
729 4 0.168014 0.465403 0.212908
387 4 0.354569 0.403423 0.234594
1714 2 0.400121 0.489266 0.219404
1715 4 0.413138 0.468692 0.225098
318 4 0.0758204 0.000396921 0.2431
2849 4 0.12109 0.0434351 0.271674
1272 4 0.113484 0.0621344 0.273952
2848 2 0.142709 0.0310284 0.273642
2850 4 0.164328 0.0186217 0.275611
429 4 0.185007 0.0179047 0.271269
392 4 0.249882 0.0374754 0.337991
427 2 0.199117 0.99727 0.270721
404 4 0.267719 0.0366809 0.328935
403 2 0.271764 0.044889 0.305666
405 4 0.275808 0.0530971 0.282397
248 4 0.292443 0.0420412 0.273603
247 2 0.297765 0.0196492 0.263833
432 4 0.393722 0.0134812 0.246752
430 2 0.409875 0.00663065 0.264567
1497 4 0.488186 0.997145 0.303731
1495 2 0.466547 0.999655 0.291456
431 4 0.426027 0.99978 0.282381
257 4 0.500317 0.0127547 0.301583
457 2 0.0623388 0.151392 0.264968
471 4 0.0709686 0.153815 0.294925
469 2 0.0794977 0.16237 0.316817
515 4 0.263121 0.154119 0.264232
2910 4 0.283576 0.150607 0.266732
2908 2 0.285611 0.140065 0.289314
2909 4 0.287646 0.129524 0.311895
2657 4 0.294947 0.139295 0.327303
761 4 0.397678 0.1594 0.324746
760 2 0.388773 0.136238 0.327812
762 4 0.379868 0.113076 0.330878
522 4 0.479907 0.101716 0.235542
521 4 0.473352 0.121483 0.281006
520 2 0.476629 0.111599 0.258274
633 4 0.470957 0.141314 0.282113
631 2 0.471515 0.166312 0.282147
2482 2 0.00416563 0.165913 0.303081
458 4 0.0663793 0.1686 0.282652
2483 4 0.0144545 0.186716 0.312383
2831 4 0.0113828 0.181626 0.330908
2830 2 0.0141034 0.205266 0.338584
531 4 0.15535 0.246708 0.279265
349 2 0.237562 0.236217 0.248856
351 4 0.261782 0.237718 0.254883
764 4 0.264065 0.223069 0.267347
763 2 0.279241 0.233965 0.283965
332 4 0.429444 0.237083 0.253879
331 2 0.446562 0.222647 0.265003
632 4 0.472073 0.191309 0.282182
333 4 0.463681 0.208211 0.276127
2694 4 0.00187882 0.299564 0.311026
300 4 0.0344489 0.296456 0.262177
2693 4 0.0389476 0.308116 0.278569
2692 2 0.0204132 0.30384 0.294797
618 4 0.144258 0.331822 0.305039
749 4 0.161139 0.325233 0.309988
748 2 0.164276 0.300434 0.309402
750 4 0.167412 0.275634 0.308816
389 4 0.1595 0.261937 0.32196
510 4 0.284645 0.248385 0.318261
765 4 0.294417 0.24486 0.300583
643 2 0.281884 0.330622 0.265842
2653 2 0.151667 0.402125 0.256906
2654 4 0.144606 0.378183 0.258357
616 2 0.139824 0.346217 0.285082
617 4 0.135389 0.360612 0.265125
734 4 0.23017 0.383852 0.293812
733 2 0.230969 0.399437 0.274277
735 4 0.231769 0.415023 0.254741
365 4 0.219949 0.380349 0.311878
275 4 0.333104 0.33727 0.266441
644 4 0.279902 0.351543 0.27939
435 4 0.267301 0.356879 0.294348
433 2 0.281182 0.377497 0.297071
434 4 0.295062 0.398115 0.299795
614 4 0.325452 0.378607 0.303992
274 2 0.329025 0.360207 0.27552
276 4 0.324947 0.383144 0.2846
613 2 0.341148 0.388773 0.320589
2861 4 0.488433 0.423877 0.279587
2860 2 0.470871 0.408762 0.270191
2862 4 0.453308 0.393648 0.260795
1381 2 0.12607 0.48811 0.272791
264 4 0.0981073 0.497393 0.300692
1383 4 0.14882 0.482445 0.264101
2655 4 0.158728 0.426067 0.255454
1382 4 0.10332 0.493775 0.281481
3671 4 0.163108 0.491272 0.274144
1802 4 0.302481 0.490122 0.269192
1573 2 0.319533 0.457659 0.285189
1574 4 0.307304 0.479465 0.284792
1575 4 0.331762 0.435854 0.285586
385 2 0.350577 0.419519 0.253307
386 4 0.346585 0.435615 0.272019
391 2 0.23268 0.0391763 0.356056
393 4 0.215477 0.0408772 0.374121
480 4 0.261152 0.0265544 0.406981
478 2 0.269514 0.049614 0.411829
2642 4 0.257854 0.00728058 0.401618
1517 4 0.41077 0.0770699 0.391899
1516 2 0.423694 0.0567284 0.39856
1518 4 0.436618 0.0363869 0.405221
470 4 0.0880267 0.170925 0.338709
2656 2 0.313674 0.150007 0.339942
2880 4 0.410546 0.0730018 0.371889
2658 4 0.3324 0.160719 0.352581
2878 2 0.39586 0.08999 0.360894
1031 4 0.351412 0.160129 0.358353
1030 2 0.360488 0.154354 0.380924
2879 4 0.381173 0.106978 0.349899
1032 4 0.369564 0.14858 0.403495
2832 4 0.0168241 0.228906 0.34626
2585 4 0.0185839 0.243647 0.36033
2612 4 0.0534661 0.227087 0.397283
2847 4 0.046836 0.244821 0.401586
2611 2 0.0728695 0.218812 0.383859
2613 4 0.0922728 0.210537 0.370434
341 4 0.108764 0.219882 0.362703
340 2 0.130949 0.227173 0.371639
342 4 0.153133 0.234464 0.380576
388 2 0.177853 0.2489 0.332841
390 4 0.196207 0.235864 0.343721
708 4 0.211947 0.18376 0.364463
707 4 0.208297 0.233183 0.357774
706 2 0.210122 0.208471 0.361118
508 2 0.295987 0.24047 0.339091
509 4 0.30733 0.232556 0.359921
717 4 0.325318 0.240157 0.363054
824 4 0.144191 0.247146 0.391891
373 2 0.241634 0.325832 0.385472
375 4 0.237007 0.337872 0.364053
374 4 0.246262 0.313792 0.406892
823 2 0.1546 0.252847 0.413898
715 2 0.347067 0.252475 0.363713
716 4 0.368816 0.264793 0.364373
488 4 0.382906 0.250645 0.36498
487 2 0.397792 0.255284 0.384527
489 4 0.412677 0.259924 0.404073
366 4 0.230573 0.346072 0.346705
364 2 0.225261 0.36321 0.329292
615 4 0.356844 0.398939 0.337186
2924 4 0.353443 0.392859 0.356518
2925 4 0.402019 0.400814 0.365335
2923 2 0.377731 0.396837 0.360926
117 3 0.410851 0.382362 0.370373
120 3 0.400744 0.376662 0.405845
116 1 0.416303 0.371652 0.389987
118 3 0.41665 0.348764 0.386189
585 4 0.44478 0.39561 0.405211
119 3 0.437251 0.378854 0.396894
583 2 0.467976 0.389246 0.398382
584 4 0.491172 0.382882 0.391553
710 4 0.202997 0.476293 0.422786
3 3 0.354301 0.506077 0.366527
1472 4 0.370294 0.495791 0.360726
2107 2 0.354161 0.459888 0.419187
2108 4 0.368289 0.440223 0.412951
1473 4 0.413749 0.477841 0.343691
1471 2 0.392022 0.486816 0.352208
2 3 0.33647 0.491663 0.396308
543 4 0.427988 0.4897 0.350234
334 2 0.495526 0.481523 0.394198
336 4 0.471156 0.478853 0.389284
542 4 0.469226 0.494924 0.378035
541 2 0.448607 0.492312 0.364135
1034 4 0.0642961 0.0856893 0.473749
479 4 0.277877 0.0726736 0.416676
651 4 0.285717 0.0830665 0.431211
599 4 0.284159 0.0332832 0.492027
3159 4 0.297611 0.0472776 0.500538
598 2 0.293472 0.0173569 0.475152
3157 2 0.310422 0.068669 0.502402
841 2 0.401837 0.015093 0.472869
1061 4 0.416363 0.0523625 0.456964
842 4 0.413961 0.0367503 0.469848
4164 4 0.444619 0.0179666 0.401857
1060 2 0.431899 0.0645487 0.472304
1033 2 0.0427931 0.0860436 0.486503
1035 4 0.02129 0.086398 0.499257
938 4 0.0740013 0.103341 0.470842
939 4 0.104071 0.107676 0.431121
937 2 0.0890363 0.105508 0.450982
474 4 0.177248 0.149476 0.419385
472 2 0.198435 0.146164 0.432243
473 4 0.219622 0.142852 0.4451
649 2 0.284584 0.106582 0.42279
650 4 0.283452 0.130097 0.414369
402 4 0.280373 0.138658 0.432023
400 2 0.282057 0.163573 0.433275
3158 4 0.323233 0.0900603 0.504265
2502 4 0.329937 0.105008 0.493511
2500 2 0.340283 0.127519 0.490135
2501 4 0.350629 0.150029 0.486758
1062 4 0.447435 0.0767349 0.487643
2516 4 0.44757 0.0896967 0.502739
2517 4 0.477405 0.127737 0.489951
2515 2 0.462487 0.108717 0.496345
2846 4 0.0371527 0.235386 0.449731
2845 2 0.0419944 0.240103 0.425658
260 4 0.0448777 0.245943 0.464638
9 3 0.169586 0.233069 0.495421
372 4 0.273481 0.249342 0.439104
370 2 0.28015 0.22642 0.43167
371 4 0.28682 0.203498 0.424235
401 4 0.283742 0.188488 0.434527
320 4 0.348014 0.169804 0.48272
642 4 0.334989 0.230963 0.468146
319 2 0.348854 0.193535 0.474888
321 4 0.349693 0.217265 0.467056
452 4 0.505658 0.227684 0.446629
451 2 0.485584 0.236401 0.458721
453 4 0.46551 0.245117 0.470814
266 4 0.447917 0.245007 0.461764
259 2 0.0615632 0.259657 0.477236
261 4 0.0782487 0.273371 0.489834
368 4 0.159224 0.24653 0.486767
669 4 0.118609 0.32211 0.419309
667 2 0.124946 0.313673 0.441977
668 4 0.131284 0.305235 0.464645
635 4 0.128845 0.323805 0.474325
695 4 0.0981288 0.274745 0.483789
694 2 0.11893 0.261031 0.48589
634 2 0.134411 0.31539 0.497202
367 2 0.171006 0.249423 0.464904
825 4 0.165009 0.258548 0.435905
369 4 0.182788 0.252317 0.443041
601 2 0.250445 0.33261 0.438748
602 4 0.244919 0.311993 0.425727
1394 4 0.2559 0.286017 0.489134
1190 4 0.258887 0.299813 0.474476
1191 4 0.257214 0.260312 0.443856
1189 2 0.258051 0.280063 0.459166
640 2 0.337664 0.253307 0.479045
267 4 0.422177 0.258044 0.420921
265 2 0.435047 0.251525 0.441342
444 4 0.0781734 0.381669 0.434472
443 4 0.0641453 0.340512 0.459171
442 2 0.0711594 0.36109 0.446821
1640 4 0.0889842 0.390003 0.420219
1639 2 0.101039 0.409652 0.429903
325 2 0.210796 0.407979 0.484607
327 4 0.209296 0.388115 0.499718
872 4 0.309097 0.349207 0.494627
871 2 0.291255 0.349457 0.477112
873 4 0.273413 0.349708 0.459597
603 4 0.255971 0.353228 0.451769
548 4 0.00929427 0.498211 0.413288
1641 4 0.113093 0.429301 0.439588
569 4 0.124639 0.496813 0.49275
2139 4 0.109545 0.445688 0.448284
2138 4 0.123474 0.480413 0.481464
2137 2 0.116509 0.463051 0.464874
709 2 0.207795 0.461829 0.442608
711 4 0.212592 0.447364 0.462431
326 4 0.212295 0.427844 0.469497
2109 4 0.340033 0.479553 0.425423
1698 4 0.325489 0.488869 0.413471
1978 2 0.503377 0.495954 0.483885
943 2 0.167185 0.0811192 0.571582
1182 4 0.217041 0.0301952 0.545676
1180 2 0.234451 0.0480728 0.547252
1181 4 0.25186 0.0659503 0.548828
2314 2 0.184442 0.0251909 0.575924
2315 4 0.165817 0.0418444 0.57496
2316 4 0.203068 0.00853742 0.576887
945 4 0.175571 0.0580947 0.566608
1151 4 0.203514 0.0248762 0.531388
725 4 0.261878 0.0828836 0.54744
3438 4 0.47358 0.0674717 0.576842
3436 2 0.496435 0.0575025 0.574979
2195 4 0.43472 0.016116 0.57418
2194 2 0.452012 0.000852246 0.564525
983 4 0.0182635 0.106041 0.500245
982 2 0.993711 0.10644 0.504955
944 4 0.1588 0.104144 0.576555
1154 4 0.250322 0.123014 0.591607
724 2 0.267227 0.101228 0.531314
726 4 0.272576 0.119573 0.515188
857 4 0.268116 0.13117 0.498917
856 2 0.273766 0.155396 0.501434
3460 2 0.0352585 0.222785 0.547807
3462 4 0.0426719 0.200559 0.55654
3461 4 0.0278452 0.24501 0.539075
6 1 0.154405 0.231984 0.512936
7 3 0.150557 0.209897 0.518084
10 3 0.13478 0.241792 0.506828
348 4 0.163795 0.236767 0.55128
696 4 0.139731 0.247317 0.487991
8 3 0.163099 0.242638 0.531626
346 2 0.169511 0.234482 0.575514
858 4 0.279417 0.179622 0.503952
899 4 0.331584 0.198995 0.598143
268 2 0.475583 0.218423 0.536772
270 4 0.487265 0.198142 0.527975
3309 4 0.501929 0.185097 0.530597
269 4 0.463901 0.238704 0.54557
3043 2 0.0117535 0.281941 0.547148
3044 4 0.0135801 0.258484 0.538686
3045 4 0.00992694 0.305398 0.55561
935 4 0.0792675 0.334835 0.488613
636 4 0.139978 0.306975 0.52008
409 2 0.222554 0.284046 0.561204
410 4 0.231092 0.30266 0.546858
411 4 0.214016 0.265432 0.57555
1395 4 0.248339 0.303444 0.535392
1393 2 0.25212 0.294731 0.512263
812 4 0.342018 0.293206 0.499036
811 2 0.330777 0.315249 0.502629
641 4 0.34034 0.275651 0.489943
1040 4 0.0508521 0.382361 0.522993
936 4 0.0630637 0.367656 0.522686
1039 2 0.0537942 0.407056 0.525577
934 2 0.0711656 0.351245 0.505649
382 2 0.0078605 0.347234 0.50975
384 4 0.00736092 0.359475 0.531546
774 4 0.224969 0.343674 0.531046
772 2 0.210136 0.361929 0.522564
773 4 0.195304 0.380184 0.514082
1173 4 0.25194 0.379914 0.523252
1171 2 0.266274 0.398323 0.532242
1172 4 0.280608 0.416732 0.541233
1028 4 0.299445 0.418687 0.549354
1027 2 0.323126 0.412861 0.543836
813 4 0.319535 0.337292 0.506221
1237 2 0.367656 0.399766 0.575067
1029 4 0.346807 0.407034 0.538318
1238 4 0.384822 0.400263 0.59324
1239 4 0.35049 0.399269 0.556894
1041 4 0.0567363 0.431751 0.528161
1136 4 0.0733933 0.442473 0.523057
1135 2 0.081062 0.460629 0.538443
1137 4 0.0887308 0.478786 0.553829
540 4 0.0855593 0.498248 0.555403
238 2 0.46058 0.440974 0.500766
239 4 0.462761 0.42467 0.481934
240 4 0.458398 0.457278 0.519597
1332 4 0.461048 0.489335 0.522896
718 2 0.027037 0.0409413 0.614234
720 4 0.017955 0.0631983 0.607355
719 4 0.0361191 0.0186843 0.621113
3132 4 0.0214032 0.00390982 0.624005
1004 4 0.306441 0.0683334 0.581846
1130 4 0.294476 0.080034 0.592638
1003 2 0.313874 0.0484178 0.59501
1005 4 0.321307 0.0285021 0.608174
966 4 0.310632 0.0329513 0.62338
965 4 0.279963 0.00629428 0.652527
964 2 0.295297 0.0196228 0.637954
1142 4 0.399694 0.0728924 0.595974
576 4 0.416863 0.067402 0.60661
575 4 0.454487 0.0666237 0.573677
1967 4 0.425722 0.0200023 0.641839
1966 2 0.432255 0.0195577 0.617708
574 2 0.435675 0.0670128 0.590143
1968 4 0.438789 0.0191132 0.593577
3179 4 0.0123828 0.0707168 0.58869
917 4 0.144684 0.103278 0.589755
916 2 0.143316 0.113203 0.612664
918 4 0.141948 0.123128 0.635572
1212 4 0.125718 0.133493 0.643322
1210 2 0.129138 0.158196 0.641525
1153 2 0.230418 0.13208 0.603723
1283 4 0.221185 0.141147 0.631491
1282 2 0.207621 0.147536 0.651501
1155 4 0.210514 0.141147 0.615839
1284 4 0.194058 0.153926 0.67151
2255 4 0.243352 0.115125 0.664195
1131 4 0.255111 0.108386 0.604776
1129 2 0.274794 0.0942098 0.598707
950 4 0.319686 0.144338 0.644391
2319 4 0.332992 0.136476 0.632665
1143 4 0.373064 0.114172 0.586615
887 4 0.390845 0.10182 0.65036
2318 4 0.375283 0.111026 0.640697
2317 2 0.354138 0.123751 0.636681
1141 2 0.386379 0.0935321 0.591295
1258 2 0.125616 0.222943 0.635524
1259 4 0.119777 0.198836 0.638677
1211 4 0.132558 0.182899 0.639728
1260 4 0.131455 0.24705 0.632372
347 4 0.175227 0.232197 0.599748
1084 2 0.237594 0.24356 0.594298
1086 4 0.24245 0.22786 0.613142
949 2 0.311227 0.164818 0.632807
978 4 0.250972 0.216239 0.626525
976 2 0.270781 0.202092 0.63224
977 4 0.290589 0.187945 0.637954
951 4 0.302767 0.185298 0.621223
898 2 0.354612 0.207903 0.5942
900 4 0.37764 0.216811 0.590258
895 2 0.110606 0.279555 0.629832
896 4 0.100554 0.300309 0.639497
992 4 0.0937362 0.297742 0.658473
897 4 0.120658 0.258802 0.620166
1085 4 0.232737 0.25926 0.575454
807 4 0.467152 0.334605 0.648119
791 4 0.484774 0.328561 0.657321
1281 4 0.0326059 0.371314 0.661118
3420 4 0.0154034 0.376439 0.669649
1279 2 0.053948 0.384266 0.659728
1280 4 0.0752902 0.397218 0.658338
891 4 0.302731 0.386661 0.578366
1205 4 0.338169 0.404577 0.630321
889 2 0.312226 0.397321 0.598894
1204 2 0.331578 0.410865 0.653606
890 4 0.321721 0.407981 0.619422
804 4 0.399852 0.39708 0.605837
802 2 0.423464 0.389285 0.60846
805 2 0.455486 0.347911 0.630454
803 4 0.447077 0.38149 0.611082
806 4 0.44382 0.361216 0.612789
1008 4 0.426612 0.413175 0.656422
1007 4 0.422408 0.462038 0.646651
1006 2 0.42451 0.437606 0.651536
3372 4 0.419794 0.480321 0.639183
3370 2 0.422783 0.495121 0.659114
3589 2 0.0659665 0.99741 0.74
834 4 0.0224262 0.0719981 0.765529
959 4 0.259966 0.0334164 0.716483
1256 4 0.250506 0.0204908 0.702392
960 4 0.267614 0.0813707 0.704541
958 2 0.26379 0.0573936 0.710512
952 2 0.391378 0.0670719 0.725267
953 4 0.40704 0.0823902 0.713215
954 4 0.375716 0.0517535 0.737318
1026 4 0.365801 0.0562722 0.753899
4467 4 0.482564 0.000752205 0.677686
1163 4 0.485352 0.985196 0.68984
851 4 0.13088 0.130265 0.719212
850 2 0.11486 0.148303 0.725779
947 4 0.147988 0.137692 0.71388
948 4 0.174771 0.147184 0.67273
946 2 0.161379 0.142438 0.693305
2256 4 0.263986 0.100286 0.707261
2254 2 0.253669 0.107705 0.685728
888 4 0.407633 0.0811074 0.692667
886 2 0.399239 0.0914636 0.671513
1010 4 0.500966 0.158152 0.713464
1193 4 0.513975 0.147905 0.725055
1177 2 0.0814112 0.192351 0.741579
852 4 0.0988389 0.166342 0.732345
1178 4 0.0935594 0.182419 0.722113
151 1 0.00667336 0.315331 0.737081
154 3 0.0235143 0.307712 0.723054
1067 4 0.0377066 0.316203 0.734014
1066 2 0.0584604 0.307589 0.723048
1068 4 0.0792142 0.298974 0.712082
991 2 0.0960074 0.295696 0.683289
993 4 0.0982787 0.29365 0.708105
155 3 0.0119648 0.335992 0.745067
885 4 0.029445 0.334283 0.736288
883 2 0.0411031 0.355931 0.74083
884 4 0.0527612 0.377579 0.745373
1278 4 0.220402 0.390327 0.728639
1097 4 0.214727 0.383146 0.710515
1096 2 0.203234 0.398949 0.694916
1276 2 0.239281 0.374269 0.73194
1098 4 0.19174 0.414752 0.679317
1277 4 0.258159 0.35821 0.735242
797 4 0.257494 0.341072 0.745895
1017 4 0.328056 0.399889 0.745333
3464 4 0.445772 0.413637 0.660879
3463 2 0.463008 0.405156 0.676885
3465 4 0.480243 0.396675 0.692891
999 4 0.469238 0.380316 0.693939
997 2 0.477598 0.362674 0.709562
998 4 0.485958 0.345033 0.725184
942 4 0.156805 0.467053 0.683404
2129 4 0.138879 0.463353 0.676592
940 2 0.167076 0.444664 0.687697
2128 2 0.133381 0.486815 0.669923
941 4 0.177346 0.422275 0.69199
1139 4 0.325719 0.40264 0.690045
1138 2 0.328813 0.410172 0.713685
1140 4 0.331907 0.417704 0.737326
1206 4 0.324987 0.417153 0.676892
3591 4 0.0855004 0.00663195 0.752592
1296 4 0.0346969 0.0621377 0.831391
907 2 0.14485 0.0677588 0.81121
909 4 0.155914 0.0456459 0.814923
2990 4 0.0876903 0.995988 0.768929
1025 4 0.31822 0.0573307 0.769248
1024 2 0.342011 0.0568015 0.761573
2321 4 0.405266 0.019098 0.825013
819 4 0.416137 0.0336015 0.816215
1213 2 0.0454303 0.0941897 0.824568
1215 4 0.0654081 0.108634 0.820393
863 4 0.0844142 0.109731 0.814182
908 4 0.133786 0.0898716 0.807497
864 4 0.128256 0.0994134 0.792452
862 2 0.106335 0.104572 0.803317
870 4 0.136431 0.153397 0.814949
868 2 0.161347 0.152115 0.816611
1021 2 0.219426 0.145097 0.810583
1022 4 0.235688 0.132116 0.796719
1023 4 0.203163 0.158078 0.824448
869 4 0.186262 0.150833 0.818273
3425 4 0.492999 0.128198 0.787456
3424 2 0.490755 0.114726 0.8084
1194 4 0.492942 0.137268 0.769159
1192 2 0.503458 0.142587 0.747107
1179 4 0.069263 0.202284 0.761046
923 4 0.0654087 0.222721 0.758721
922 2 0.0694691 0.232229 0.781487
1299 4 0.186626 0.204084 0.760842
1297 2 0.207753 0.217308 0.76284
840 4 0.241413 0.235792 0.780213
1298 4 0.228879 0.230532 0.764839
838 2 0.236689 0.243931 0.803378
3328 2 0.293622 0.205677 0.790147
1092 4 0.275099 0.181605 0.815201
3329 4 0.288275 0.197346 0.813108
3330 4 0.298969 0.214007 0.767186
1043 4 0.296379 0.232786 0.767824
1094 4 0.327163 0.235399 0.815788
924 4 0.0735294 0.241737 0.804253
1209 4 0.132221 0.242695 0.839717
1207 2 0.138967 0.263247 0.827177
1208 4 0.145714 0.2838 0.814637
1064 4 0.14857 0.303769 0.812576
839 4 0.231964 0.25207 0.826543
1063 2 0.167035 0.319996 0.81715
796 2 0.265386 0.320009 0.756815
798 4 0.273278 0.298945 0.767734
1044 4 0.279186 0.279744 0.76769
1042 2 0.287783 0.256265 0.767757
3347 4 0.339435 0.248075 0.804771
3348 4 0.376694 0.274399 0.78429
1052 4 0.395341 0.267264 0.784178
3346 2 0.358064 0.261237 0.794531
1051 2 0.411073 0.276039 0.801518
1053 4 0.426804 0.284814 0.818859
867 4 0.446174 0.289308 0.822493
866 4 0.480739 0.309749 0.792691
865 2 0.463456 0.299529 0.807592
1166 4 0.494994 0.31521 0.805778
815 4 0.0421028 0.390448 0.756191
1170 4 0.0127283 0.366976 0.814795
814 2 0.0564457 0.408751 0.765381
1290 4 0.112185 0.391904 0.827471
1065 4 0.185501 0.336222 0.821724
1241 4 0.19486 0.353348 0.82319
1234 2 0.277458 0.412086 0.829818
1015 2 0.339746 0.397794 0.767336
1016 4 0.351437 0.395699 0.789339
189 3 0.397206 0.392571 0.808956
1019 4 0.342842 0.410838 0.799739
187 3 0.425794 0.39453 0.784634
186 1 0.412449 0.406808 0.798788
1018 2 0.343085 0.41056 0.82474
1251 4 0.441558 0.3827 0.782157
1249 2 0.466277 0.381846 0.785822
1250 4 0.490995 0.380993 0.789487
816 4 0.0707886 0.427054 0.774571
2030 4 0.228579 0.47558 0.824197
2029 2 0.240534 0.495964 0.816027
2287 2 0.333656 0.482018 0.756516
1236 4 0.293354 0.412261 0.810518
83 3 0.294682 0.456088 0.78186
82 3 0.304325 0.43028 0.807427
81 1 0.310282 0.450438 0.798081
84 3 0.310623 0.46661 0.814717
2358 4 0.329801 0.469888 0.82125
85 3 0.330933 0.448532 0.788672
2289 4 0.343851 0.460355 0.763724
2214 4 0.345027 0.462068 0.784943
188 3 0.401218 0.422912 0.786422
2213 4 0.389076 0.438396 0.784871
2212 2 0.367051 0.450232 0.784907
190 3 0.425465 0.416811 0.814574
1988 4 0.424758 0.431144 0.828882
1987 2 0.446748 0.44304 0.828506
1116 4 0.479933 0.472757 0.834329
1114 2 0.480513 0.491523 0.817816
1295 4 0.995931 0.0435104 0.856904
1294 2 0.015314 0.052824 0.844148
3410 4 0.0483397 0.0378168 0.909728
911 4 0.166407 0.0492773 0.832933
910 2 0.17331 0.0439847 0.856375
912 4 0.180213 0.0386922 0.879816
1227 4 0.191165 0.0366499 0.894951
1225 2 0.187747 0.0490378 0.916399
1970 4 0.24932 0.0228617 0.848308
1971 4 0.298407 0.0313681 0.843969
1969 2 0.273864 0.0271149 0.846138
1252 2 0.293898 0.0603937 0.910422
1037 4 0.325155 0.0441745 0.903667
1253 4 0.28093 0.0815815 0.907579
1038 4 0.358554 0.0496696 0.866856
1036 2 0.341854 0.0469221 0.885262
817 2 0.409443 0.0499713 0.83389
818 4 0.40275 0.0663412 0.851565
844 2 0.438449 0.0786551 0.87485
845 4 0.418249 0.0688065 0.863889
1214 4 0.0254526 0.0797452 0.828742
1134 4 0.162558 0.120683 0.911987
1233 4 0.160256 0.12653 0.892757
1132 2 0.14595 0.102014 0.91107
1231 2 0.181778 0.137384 0.886112
1232 4 0.203301 0.148238 0.879467
35 3 0.221772 0.154323 0.870889
1048 2 0.294493 0.114669 0.897943