ITEM: TIMESTEP
5800000
ITEM: NUMBER OF ATOMS
4590
ITEM: BOX BOUNDS pp pp pp
-9.9985700000000008e+00 9.9985700000000008e+00
-9.9985700000000008e+00 9.9985700000000008e+00
-9.9985700000000008e+00 9.9985700000000008e+00
ITEM: ATOMS id type xs ys zs
567 4 0.0496744 0.03491 0.0310782
565 2 0.0459001 0.0134058 0.0432645
566 4 0.0421259 0.991902 0.0554507
2252 4 0.044631 0.0405657 0.012275
484 2 0.137222 0.0298204 0.00864554
485 4 0.144305 0.0165711 0.0286323
876 4 0.150272 0.00157591 0.0176535
1748 4 0.355174 0.0519989 0.0709976
743 4 0.358189 0.0712085 0.0669241
492 4 0.402789 0.0800524 0.0133677
2468 4 0.485074 0.0194394 0.0224311
2467 2 0.467218 0.0109845 0.0377565
253 2 0.431611 0.0737835 0.0673084
148 3 0.480942 0.0385283 0.0171132
254 4 0.440311 0.0689737 0.0443662
653 4 0.446385 0.0268814 0.0736062
1666 2 0.00613025 0.149733 0.0204262
700 2 0.128308 0.0953864 0.0275883
1842 4 0.158543 0.115939 0.0474451
701 4 0.151018 0.103507 0.0341815
1840 2 0.170839 0.130684 0.0634636
357 4 0.218625 0.110503 0.00604241
355 2 0.222588 0.107732 0.0305739
356 4 0.226551 0.10496 0.0551054
450 4 0.198055 0.156223 0.0890497
1841 4 0.183134 0.145428 0.0794822
758 4 0.241647 0.0920733 0.0583939
1254 4 0.304213 0.0880317 0.994781
757 2 0.263308 0.090563 0.0707916
759 4 0.284969 0.0890527 0.0831894
722 4 0.296746 0.0983441 0.0697292
2442 4 0.413997 0.096529 0.0166282
2440 2 0.410283 0.121108 0.0193246
2441 4 0.40657 0.145687 0.022021
742 2 0.366306 0.0926449 0.0569359
744 4 0.374424 0.114081 0.0469478
2976 4 0.425329 0.147825 0.0311683
2974 2 0.442608 0.16197 0.0424174
2894 4 0.46149 0.161526 0.0839521
2893 2 0.475992 0.141279 0.0861771
1668 4 0.028235 0.138698 0.0165807
703 2 0.0631951 0.227517 0.0153568
704 4 0.0864104 0.230946 0.0239861
623 4 0.0960816 0.208249 0.0525496
622 2 0.108765 0.205636 0.0739383
297 4 0.287851 0.244235 0.0773595
354 4 0.279698 0.226264 0.0791556
359 4 0.378811 0.19367 0.0294049
282 4 0.37147 0.206283 0.0434084
280 2 0.353038 0.211751 0.0593934
358 2 0.372793 0.195895 0.00523853
281 4 0.334606 0.21722 0.0753785
2975 4 0.459886 0.176116 0.0536665
24 3 0.479688 0.170157 0.0504483
25 3 0.494163 0.183778 0.0184703
462 4 0.0820377 0.250887 0.0312074
460 2 0.0987238 0.256754 0.0488803
461 4 0.11541 0.262621 0.0665532
293 4 0.134176 0.259832 0.0680589
292 2 0.141559 0.276808 0.0848668
901 2 0.235015 0.3068 0.0632758
902 4 0.255265 0.295821 0.0535517
903 4 0.214764 0.317779 0.0729999
295 2 0.28072 0.266283 0.0679672
296 4 0.273589 0.288331 0.0585749
2841 4 0.428268 0.34281 0.0493228
2839 2 0.436609 0.328752 0.0304021
309 4 0.424917 0.330166 0.0652927
967 2 0.0518697 0.363445 0.0210609
969 4 0.0601041 0.351915 0.041663
968 4 0.0436354 0.374974 0.000458792
2540 4 0.997224 0.362121 0.0682978
287 4 0.078545 0.343647 0.0407178
286 2 0.0917318 0.336514 0.0607279
1078 2 0.203221 0.412163 0.0276559
2514 4 0.200653 0.375931 0.106353
1070 4 0.306508 0.409182 0.0724257
1863 4 0.317102 0.416747 0.0889902
1069 2 0.291742 0.389261 0.0692155
1071 4 0.276975 0.369341 0.0660054
1303 2 0.339271 0.336218 0.0192897
607 2 0.359493 0.378221 0.0592779
608 4 0.355741 0.401385 0.067913
609 4 0.363245 0.355058 0.0506428
1305 4 0.353725 0.349186 0.0350408
2005 2 0.392125 0.379217 0.00903773
2006 4 0.392669 0.404202 0.0082258
789 4 0.406308 0.409293 0.993741
2007 4 0.39158 0.354233 0.00984966
1466 4 0.998758 0.41656 0.0742014
3337 2 0.0424473 0.435933 0.0294697
3339 4 0.0461809 0.427 0.0525229
2771 4 0.0560222 0.494036 0.0438574
2770 2 0.0385652 0.483304 0.058184
3450 4 0.0417545 0.431835 0.0713834
2772 4 0.0211083 0.472572 0.0725106
3338 4 0.0387137 0.444865 0.00641649
1080 4 0.203764 0.43474 0.0383882
2377 2 0.201788 0.464964 0.046532
2378 4 0.213617 0.44403 0.0533902
2379 4 0.18996 0.485898 0.0396738
243 4 0.202333 0.500328 0.0442826
15 3 0.341151 0.466068 0.000458159
2387 4 0.30841 0.498936 0.0318192
14 3 0.313735 0.487559 0.0147482
1551 4 0.333402 0.425849 0.0555899
1549 2 0.338483 0.438545 0.0346571
1550 4 0.343563 0.45124 0.0137243
563 4 0.399084 0.474474 0.0100007
2179 2 0.29759 0.0318282 0.123458
2181 4 0.276358 0.0381633 0.135046
2180 4 0.318821 0.0254931 0.11187
1749 4 0.331901 0.0402625 0.113675
1747 2 0.343538 0.0461307 0.0923361
556 2 0.389807 0.047206 0.118692
557 4 0.377349 0.0645147 0.131745
558 4 0.402265 0.0298974 0.105639
652 2 0.432324 0.022897 0.0938936
654 4 0.418262 0.0189127 0.114181
578 4 0.138359 0.111032 0.155426
577 2 0.114596 0.115757 0.161602
579 4 0.0908322 0.120482 0.167778
721 2 0.313654 0.115703 0.0758901
723 4 0.330562 0.133063 0.0820509
693 4 0.3323 0.146331 0.0974018
691 2 0.352779 0.15501 0.108824
1506 4 0.438621 0.0874532 0.142964
255 4 0.42291 0.0785932 0.0902507
1505 4 0.416111 0.095189 0.0989851
1504 2 0.427366 0.0913211 0.120975
2574 4 0.445444 0.0946351 0.161635
2895 4 0.490493 0.121032 0.0884021
624 4 0.121449 0.203023 0.0953269
506 4 0.133654 0.202515 0.110005
505 2 0.139428 0.214429 0.131216
507 4 0.145201 0.226343 0.152427
448 2 0.204303 0.179421 0.0959756
449 4 0.21055 0.20262 0.102902
915 4 0.212417 0.220848 0.095431
913 2 0.213462 0.236241 0.115107
352 2 0.271746 0.222407 0.102545
353 4 0.263794 0.218549 0.125934
692 4 0.373258 0.163689 0.120245
2876 4 0.342587 0.228529 0.089885
2799 4 0.0245075 0.290346 0.167157
2797 2 0.0147405 0.312916 0.162646
102 3 0.168388 0.316644 0.120176
294 4 0.148941 0.293783 0.101675
525 4 0.150833 0.312705 0.112366
523 2 0.13056 0.325683 0.105601
104 3 0.160527 0.280991 0.111248
288 4 0.104919 0.329381 0.080738
914 4 0.214508 0.251633 0.134784
103 3 0.181124 0.288961 0.142178
101 1 0.176547 0.295137 0.120285
105 3 0.19559 0.294275 0.107825
279 4 0.18955 0.286652 0.160112
2513 4 0.21351 0.337089 0.0776006
519 4 0.343342 0.28132 0.125018
2875 2 0.338003 0.245865 0.10731
2877 4 0.333419 0.263202 0.124734
517 2 0.345247 0.30235 0.138409
518 4 0.347153 0.32338 0.151799
2538 4 0.366645 0.327777 0.153346
307 2 0.431423 0.313904 0.0831361
308 4 0.437929 0.297642 0.100979
527 4 0.449939 0.340547 0.131002
2539 2 0.00772621 0.384458 0.0722892
2541 4 0.0182285 0.406795 0.0762806
524 4 0.110287 0.338661 0.0988369
363 4 0.126433 0.389564 0.168027
416 4 0.131903 0.385108 0.149181
415 2 0.144473 0.391271 0.128464
417 4 0.157042 0.397434 0.107746
2445 4 0.206063 0.390366 0.093064
2512 2 0.207081 0.35651 0.0919766
2443 2 0.218503 0.409191 0.103837
1121 4 0.260791 0.338765 0.124445
1122 4 0.275845 0.368125 0.0868671
1120 2 0.268318 0.353445 0.105656
528 4 0.415678 0.356767 0.163618
2651 4 0.451313 0.36025 0.125061
526 2 0.432809 0.348657 0.14731
2650 2 0.471639 0.359118 0.110544
3448 2 0.0573777 0.441176 0.0885251
314 4 0.037617 0.468188 0.138558
3449 4 0.0730009 0.450517 0.105667
2094 4 0.085692 0.455572 0.120785
768 4 0.17456 0.463761 0.141853
2092 2 0.110583 0.457436 0.122254
2093 4 0.135473 0.4593 0.123724
728 4 0.13933 0.477217 0.16868
637 2 0.216752 0.50622 0.0952203
2444 4 0.230942 0.428015 0.114611
766 2 0.175422 0.475157 0.119614
767 4 0.176285 0.486553 0.0973752
638 4 0.194516 0.4948 0.0957783
1786 2 0.320235 0.478811 0.133377
1861 2 0.320852 0.441076 0.0933729
1787 4 0.330073 0.462749 0.116933
1788 4 0.310396 0.494872 0.149821
1862 4 0.324602 0.465405 0.0977557
739 2 0.376717 0.50557 0.148984
741 4 0.365543 0.484858 0.157429
2849 4 0.0581083 0.0514445 0.26701
403 2 0.262299 0.0199527 0.185383
404 4 0.267782 0.0426908 0.194221
516 4 0.275463 0.0531794 0.210295
514 2 0.285906 0.0485101 0.232529
515 4 0.296349 0.0438408 0.254762
236 4 0.0734769 0.127046 0.163309
237 4 0.0525176 0.122613 0.208495
235 2 0.0629973 0.124829 0.185902
513 4 0.984397 0.0687026 0.242826
606 4 0.23159 0.164228 0.205497
604 2 0.249664 0.153023 0.218647
605 4 0.267738 0.141817 0.231798
29 3 0.280397 0.126957 0.229369
26 1 0.284804 0.120327 0.251164
27 3 0.300436 0.103455 0.250787
2515 2 0.386471 0.161035 0.250696
2516 4 0.406733 0.150913 0.240104
2573 4 0.468735 0.116889 0.199884
331 2 0.449183 0.162568 0.236444
699 4 0.48596 0.105687 0.199692
2572 2 0.45709 0.105762 0.180759
333 4 0.426429 0.152979 0.240377
332 4 0.471938 0.172157 0.232511
630 4 0.472059 0.175439 0.212137
475 2 0.0657952 0.231076 0.233119
755 4 0.0519184 0.248917 0.200385
754 2 0.034846 0.260491 0.186252
476 4 0.064962 0.24832 0.215033
731 4 0.229992 0.181584 0.195453
732 4 0.235383 0.231264 0.197343
581 4 0.233452 0.239869 0.214299
730 2 0.232687 0.206424 0.196398
250 2 0.275995 0.228163 0.234648
251 4 0.281653 0.226105 0.21038
350 4 0.29225 0.243105 0.213121
628 2 0.492571 0.179923 0.19856
756 4 0.0177735 0.272065 0.172118
2798 4 0.00497354 0.335487 0.158135
580 2 0.213772 0.252102 0.223691
750 4 0.181781 0.248578 0.230156
582 4 0.194092 0.264335 0.233083
277 2 0.197964 0.307176 0.171652
278 4 0.206378 0.3277 0.183191
734 4 0.226632 0.330817 0.185063
349 2 0.309664 0.258191 0.203409
366 4 0.24721 0.302861 0.220104
364 2 0.269953 0.297292 0.228874
365 4 0.292696 0.291722 0.237644
344 4 0.289581 0.278469 0.252184
351 4 0.327079 0.273278 0.193698
2536 2 0.373235 0.331861 0.177117
497 4 0.469327 0.328169 0.222829
496 2 0.488168 0.327691 0.206398
275 4 0.476649 0.312734 0.232873
361 2 0.139059 0.391463 0.189525
362 4 0.151684 0.393362 0.211023
291 4 0.171227 0.399555 0.216463
289 2 0.192828 0.387099 0.218322
290 4 0.214428 0.374643 0.220181
735 4 0.23331 0.369683 0.215813
733 2 0.229971 0.35025 0.200438
2537 4 0.379824 0.335944 0.200889
714 4 0.376867 0.357046 0.202348
712 2 0.38712 0.356969 0.225153
587 4 0.435104 0.419934 0.208132
313 2 0.0304137 0.46438 0.162197
315 4 0.0232105 0.460573 0.185836
680 4 0.0333941 0.427159 0.234993
681 4 0.0309764 0.466215 0.203856
679 2 0.0321853 0.446687 0.219425
727 2 0.143717 0.465189 0.190157
729 4 0.148104 0.453162 0.211634
339 4 0.158449 0.460912 0.227396
337 2 0.182779 0.459205 0.232903
338 4 0.207109 0.457499 0.238409
626 4 0.300865 0.486989 0.165833
625 2 0.286347 0.476523 0.183294
627 4 0.271829 0.466058 0.200755
302 4 0.354895 0.471743 0.216361
301 2 0.352539 0.478319 0.192353
303 4 0.350183 0.484895 0.168345
586 2 0.458281 0.429113 0.21006
588 4 0.481459 0.438292 0.211987
3819 4 0.478346 0.458834 0.213487
3817 2 0.480812 0.482619 0.220791
1272 4 0.0416739 0.0453061 0.258625
1270 2 0.0223806 0.0598598 0.25221
2848 2 0.0750556 0.033073 0.266333
2850 4 0.0920029 0.0147016 0.265656
2910 4 0.315315 0.0493781 0.259336
2908 2 0.338111 0.0589078 0.263168
2909 4 0.360908 0.0684376 0.267001
598 2 0.375174 0.0733546 0.305095
599 4 0.382357 0.0676219 0.328348
1518 4 0.39878 0.0781891 0.330073
431 4 0.460001 0.0275738 0.325742
1449 4 0.423992 0.00654229 0.277948
432 4 0.430487 0.0248735 0.285463
430 2 0.445244 0.0262236 0.305603
1271 4 0.00308739 0.0744134 0.245796
707 4 0.156456 0.10303 0.329079
706 2 0.140619 0.120373 0.337658
531 4 0.233757 0.12112 0.329808
545 4 0.248992 0.108659 0.326317
544 2 0.253589 0.104411 0.30211
546 4 0.258186 0.100162 0.277902
30 3 0.265728 0.112661 0.260962
28 3 0.293321 0.138173 0.263304
2656 2 0.291676 0.164209 0.29412
2657 4 0.311763 0.165526 0.279289
600 4 0.36799 0.0790873 0.281842
2517 4 0.366209 0.171156 0.261289
1516 2 0.417012 0.0950237 0.333137
477 4 0.0666285 0.213831 0.251205
1221 4 0.0503723 0.22189 0.262524
1219 2 0.047608 0.201425 0.276621
1220 4 0.0448436 0.18096 0.290718
300 4 0.997455 0.235435 0.297599
458 4 0.130905 0.175259 0.254039
459 4 0.133602 0.224944 0.259019
457 2 0.132254 0.200102 0.256529
749 4 0.150959 0.231631 0.265702
618 4 0.111587 0.199667 0.341582
748 2 0.16637 0.240105 0.247929
390 4 0.240522 0.234752 0.313832
388 2 0.2164 0.232442 0.319995
389 4 0.192278 0.230132 0.326158
252 4 0.270338 0.230222 0.258916
2658 4 0.271589 0.162892 0.308951
284 4 0.254858 0.248597 0.31892
283 2 0.266841 0.241021 0.298324
285 4 0.278824 0.233445 0.277728
764 4 0.427815 0.199612 0.341048
2653 2 0.149317 0.310411 0.281743
2655 4 0.14713 0.302478 0.258132
2654 4 0.151504 0.318344 0.305353
345 4 0.319457 0.272042 0.291767
343 2 0.304519 0.275255 0.271975
612 4 0.320254 0.264384 0.309423
610 2 0.330392 0.284954 0.319385
387 4 0.388087 0.279144 0.240353
385 2 0.412155 0.276077 0.246393
1575 4 0.337076 0.324801 0.325592
611 4 0.340531 0.305525 0.329347
276 4 0.446377 0.287273 0.263467
274 2 0.461513 0.300004 0.24817
386 4 0.436223 0.27301 0.252433
3671 4 0.131592 0.376969 0.254038
3670 2 0.133688 0.399209 0.265272
667 2 0.143529 0.417376 0.324354
668 4 0.121466 0.427901 0.329609
669 4 0.165592 0.406851 0.319098
3672 4 0.135784 0.421448 0.276506
1574 4 0.356717 0.370193 0.332974
713 4 0.397372 0.356892 0.247958
1573 2 0.346896 0.347497 0.329283
1802 4 0.356893 0.387889 0.321709
1801 2 0.362764 0.406591 0.306186
1803 4 0.368634 0.425293 0.290663
2862 4 0.414919 0.347676 0.245433
2860 2 0.435185 0.348907 0.260026
2861 4 0.455451 0.350139 0.274618
3990 4 0.473507 0.351578 0.283642
3988 2 0.472741 0.376035 0.288785
3989 4 0.471974 0.400492 0.293928
3884 4 0.0359503 0.421539 0.253963
3883 2 0.0253197 0.414246 0.275387
1451 4 0.0898154 0.497681 0.337272
262 2 0.0874443 0.505271 0.255749
1383 4 0.129292 0.438942 0.282174
1382 4 0.0966361 0.470994 0.262
264 4 0.104669 0.488204 0.261852
1381 2 0.112964 0.454968 0.272087
678 4 0.225968 0.495605 0.280076
1425 4 0.218478 0.498132 0.29836
677 4 0.226163 0.463571 0.241677
246 4 0.228392 0.425668 0.326719
676 2 0.226066 0.479588 0.260877
244 2 0.252429 0.427354 0.320045
542 4 0.288592 0.429558 0.297936
245 4 0.276466 0.42904 0.31337
644 4 0.306904 0.484786 0.29529
541 2 0.309858 0.426233 0.310659
643 2 0.290469 0.503105 0.290877
543 4 0.331124 0.422908 0.323382
1472 4 0.331276 0.499688 0.271303
1471 2 0.343328 0.492722 0.250534
3 3 0.363241 0.494778 0.310038
751 2 0.367295 0.460178 0.29891
752 4 0.359426 0.47732 0.315324
753 4 0.375163 0.443037 0.282496
3602 4 0.465303 0.418841 0.297754
3694 2 0.423105 0.48355 0.274364
3696 4 0.413981 0.460498 0.277607
3603 4 0.42967 0.452197 0.286873
3601 2 0.447487 0.435519 0.292314
479 4 0.201911 0.0556831 0.33969
478 2 0.222317 0.0412405 0.340137
480 4 0.242723 0.0267979 0.340584
2642 4 0.239181 0.0109835 0.353424
2641 2 0.261327 0.00122895 0.359716
1060 2 0.418795 0.0314716 0.372751
1062 4 0.428648 0.0535607 0.366414
1496 4 0.467638 0.00913936 0.325924
633 4 0.491941 0.07443 0.329216
684 4 0.40852 0.997301 0.395489
1495 2 0.489211 0.0136965 0.337714
1061 4 0.408942 0.00938247 0.379089
2880 4 0.470095 0.0822554 0.393961
2878 2 0.475717 0.0818331 0.369602
3173 4 0.427129 0.0843682 0.42257
2484 4 0.0404872 0.150684 0.355073
2482 2 0.0265242 0.166717 0.368232
2238 4 0.0699405 0.141249 0.398696
341 4 0.0720145 0.156382 0.411649
2236 2 0.0556452 0.124125 0.409991
471 4 0.155229 0.0826387 0.330701
708 4 0.124782 0.137716 0.346237
617 4 0.114745 0.151998 0.356359
470 4 0.202258 0.0755746 0.346162
469 2 0.178743 0.0791066 0.338432
529 2 0.235768 0.145969 0.33172
1031 4 0.275914 0.173974 0.367173
1030 2 0.295151 0.159557 0.3603
1032 4 0.314388 0.145139 0.353427
3159 4 0.329889 0.132675 0.353638
3158 4 0.325631 0.0865144 0.334882
3157 2 0.32776 0.109595 0.34426
3174 4 0.413697 0.129114 0.404735
1517 4 0.435243 0.111858 0.336202
2879 4 0.481338 0.0814108 0.345242
2901 4 0.404499 0.146687 0.400545
3172 2 0.420413 0.106741 0.413653
2483 4 0.0125612 0.182749 0.381392
340 2 0.077639 0.176892 0.398501
342 4 0.0832636 0.197402 0.385353
402 4 0.080307 0.213137 0.397569
616 2 0.113166 0.175833 0.348971
400 2 0.0851526 0.236466 0.405148
530 4 0.237779 0.170818 0.333632
651 4 0.227409 0.187975 0.338774
649 2 0.237666 0.194948 0.360485
650 4 0.247924 0.20192 0.382196
1191 4 0.248101 0.210075 0.400542
763 2 0.409024 0.213655 0.349703
765 4 0.390234 0.227697 0.358358
510 4 0.377855 0.213172 0.365365
508 2 0.36056 0.2311 0.36752
2899 2 0.414487 0.166142 0.412666
536 4 0.0114812 0.290881 0.362381
710 4 0.0227173 0.282898 0.347533
709 2 0.0442401 0.271669 0.353521
711 4 0.065763 0.260441 0.35951
636 4 0.0799588 0.272955 0.366073
634 2 0.100588 0.282779 0.376228
635 4 0.121217 0.292602 0.386384
401 4 0.0899982 0.259796 0.412727
509 4 0.343264 0.249028 0.369674
717 4 0.352952 0.263244 0.377552
715 2 0.363881 0.28323 0.387861
716 4 0.37481 0.303217 0.39817
488 4 0.369822 0.321011 0.391477
487 2 0.378491 0.334905 0.41037
375 4 0.256131 0.399975 0.369933
373 2 0.244336 0.379915 0.360787
374 4 0.232542 0.359855 0.35164
2924 4 0.297695 0.347094 0.3992
2923 2 0.306193 0.370557 0.397637
585 4 0.324341 0.410761 0.391253
2925 4 0.314691 0.39402 0.396073
583 2 0.326567 0.416537 0.367028
584 4 0.328793 0.422312 0.342803
1433 4 0.979694 0.472034 0.359581
570 4 0.0866249 0.498698 0.358032
2138 4 0.0424349 0.463049 0.39019
569 4 0.0500917 0.466986 0.370697
568 2 0.0683583 0.482842 0.364365
3935 4 0.992721 0.480427 0.395975
2137 2 0.0516826 0.454595 0.411828
435 4 0.242028 0.414388 0.373176
615 4 0.290145 0.452053 0.399664
434 4 0.271432 0.447927 0.395787
433 2 0.25673 0.431158 0.384482
1484 4 0.446348 0.466103 0.415604
445 2 0.423203 0.500322 0.400462
446 4 0.438357 0.481531 0.406976
164 3 0.042722 0.0681218 0.456534
162 3 0.0215183 0.0747186 0.42621
2314 2 0.244441 0.0116585 0.484804
1181 4 0.185325 0.072386 0.469632
1182 4 0.21026 0.031388 0.483708
1180 2 0.197792 0.051887 0.47667
2315 4 0.227056 0.0276678 0.492967
683 4 0.427063 0.988735 0.441134
761 4 0.423928 0.0652186 0.426492
682 2 0.417792 0.993018 0.418311
760 2 0.441147 0.060561 0.444014
2551 2 0.493035 0.0386776 0.476168
762 4 0.458365 0.0559033 0.461536
2552 4 0.476393 0.0488745 0.460539
2553 4 0.509676 0.0284807 0.491797
1034 4 0.00688086 0.0878017 0.42673
2237 4 0.0413499 0.107 0.421285
161 1 0.035142 0.0845025 0.441952
163 3 0.0229221 0.100428 0.45359
2613 4 0.0120197 0.155378 0.464332
165 3 0.0528019 0.0943731 0.431495
2611 2 0.0101413 0.130469 0.46542
2612 4 0.00826296 0.10556 0.466508
370 2 0.229404 0.128796 0.431876
473 4 0.204357 0.123781 0.460804
472 2 0.199299 0.12072 0.485099
372 4 0.20657 0.122862 0.440159
371 4 0.252237 0.13473 0.423593
1189 2 0.250352 0.210015 0.425444
1393 2 0.236633 0.221812 0.482166
1395 4 0.21635 0.230617 0.493838
1394 4 0.256916 0.213007 0.470493
1190 4 0.252603 0.209955 0.450346
898 2 0.381586 0.207018 0.502217
641 4 0.348127 0.235711 0.501299
899 4 0.363327 0.224002 0.504039
2900 4 0.424475 0.185597 0.424787
312 4 0.443854 0.191656 0.423799
310 2 0.442518 0.214238 0.434451
311 4 0.441182 0.23682 0.445103
3059 4 0.483392 0.230139 0.45644
2636 4 0.00728342 0.325901 0.417699
260 4 0.0597137 0.312668 0.45218
259 2 0.0576236 0.31528 0.476959
2637 4 0.053736 0.323649 0.436079
2635 2 0.0305097 0.324775 0.426889
824 4 0.100744 0.271478 0.425389
823 2 0.117867 0.285265 0.437302
825 4 0.13499 0.299052 0.449214
3461 4 0.159948 0.262849 0.513476
812 4 0.23639 0.339718 0.443342
872 4 0.240186 0.329411 0.426356
321 4 0.343521 0.295085 0.468439
642 4 0.340959 0.281194 0.48179
640 2 0.344543 0.258452 0.491545
319 2 0.359757 0.300161 0.450114
320 4 0.375993 0.305238 0.431789
452 4 0.443466 0.250569 0.432013
451 2 0.441736 0.275156 0.436216
265 2 0.436734 0.327972 0.458143
453 4 0.440007 0.299743 0.440419
266 4 0.451111 0.307784 0.454835
695 4 0.0978934 0.382312 0.493721
694 2 0.120715 0.373221 0.489063
696 4 0.143537 0.36413 0.484405
444 4 0.152032 0.362506 0.503471
602 4 0.201328 0.371767 0.483758
813 4 0.21031 0.354058 0.483528
811 2 0.22335 0.346888 0.463435
601 2 0.21018 0.385156 0.50293
871 2 0.262449 0.339117 0.42041
873 4 0.284711 0.348823 0.414464
1171 2 0.285721 0.402227 0.464808
1172 4 0.275304 0.382205 0.475569
1028 4 0.276118 0.375415 0.494403
489 4 0.387161 0.348799 0.429264
118 3 0.381534 0.366774 0.437788
119 3 0.401628 0.394907 0.453574
116 1 0.398276 0.371954 0.452996
890 4 0.408723 0.353902 0.476211
117 3 0.391793 0.364857 0.473895
1953 4 0.402451 0.396513 0.47312
120 3 0.417606 0.361422 0.447159
267 4 0.422358 0.348159 0.461451
1445 4 0.0788078 0.437691 0.431013
2139 4 0.0609303 0.44614 0.433465
1446 4 0.119585 0.440821 0.45979
326 4 0.119562 0.45871 0.467675
325 2 0.127211 0.474434 0.485548
1444 2 0.0991966 0.439256 0.445401
613 2 0.294976 0.446014 0.423441
1697 4 0.310299 0.488604 0.449039
594 4 0.298723 0.485445 0.464579
614 4 0.299807 0.439974 0.447219
1173 4 0.296137 0.422248 0.454047
1952 4 0.40513 0.446208 0.478015
2109 4 0.374795 0.48366 0.450771
2107 2 0.393685 0.474288 0.464208
2108 4 0.412574 0.464916 0.477644
1698 4 0.358532 0.488251 0.462236
1696 2 0.334416 0.488427 0.455637
1951 2 0.403791 0.42136 0.475567
1485 4 0.493162 0.455425 0.429574
1483 2 0.469755 0.460764 0.422589
945 4 0.0715524 0.0468985 0.523817
944 4 0.120012 0.0346276 0.525181
943 2 0.095782 0.040763 0.524499
725 4 0.173757 0.0743235 0.534166
959 4 0.229002 0.058963 0.585912
2240 4 0.289365 0.0634723 0.562855
2239 2 0.307646 0.0752212 0.550487
958 2 0.252084 0.0665064 0.579955
960 4 0.275166 0.0740498 0.573999
576 4 0.415328 0.0469284 0.49151
574 2 0.428519 0.0588147 0.509114
575 4 0.44171 0.070701 0.526718
2507 4 0.458376 0.0816359 0.530972
1163 4 0.466418 0.0266459 0.571892
1968 4 0.457622 0.02995 0.553038
1966 2 0.459653 0.0128967 0.534866
9 3 0.0764214 0.157024 0.565978
8 3 0.070179 0.127291 0.543144
6 1 0.0863831 0.141149 0.552298
7 3 0.100777 0.128417 0.564942
917 4 0.111452 0.114638 0.573174
10 3 0.0980861 0.151443 0.535693
368 4 0.111918 0.16622 0.5355
724 2 0.185489 0.0962779 0.531812
726 4 0.197221 0.118232 0.529457
474 4 0.194241 0.11766 0.509394
2241 4 0.325926 0.08697 0.53812
2318 4 0.290763 0.155773 0.579392
1143 4 0.338586 0.096032 0.548405
857 4 0.295261 0.142629 0.564668
1142 4 0.364918 0.126975 0.519252
1141 2 0.351752 0.111503 0.533829
2500 2 0.389793 0.149751 0.499287
2502 4 0.378635 0.128136 0.505072
2506 2 0.477803 0.0971474 0.528296
2508 4 0.49723 0.112659 0.52562
3308 4 0.505008 0.167127 0.571959
367 2 0.118492 0.185569 0.521093
3460 2 0.144018 0.243873 0.51011
369 4 0.125066 0.204918 0.506686
3462 4 0.128087 0.224898 0.506744
409 2 0.197999 0.227557 0.554625
410 4 0.203275 0.205718 0.543652
347 4 0.176034 0.248442 0.576703
411 4 0.192723 0.249396 0.565598
2501 4 0.400951 0.171365 0.493501
900 4 0.399845 0.190034 0.500396
2847 4 0.0107645 0.288513 0.535141
2845 2 0.0305681 0.293447 0.520696
2846 4 0.0503716 0.298381 0.506251
261 4 0.0555336 0.317891 0.501738
3236 4 0.00149027 0.286043 0.551874
3044 4 0.17454 0.266246 0.527465
3043 2 0.181247 0.29021 0.525029
3045 4 0.187955 0.314173 0.522592
935 4 0.201418 0.31348 0.536281
934 2 0.217816 0.318186 0.55456
1639 2 0.0299207 0.357426 0.55872
1640 4 0.0280167 0.346535 0.581146
540 4 0.0429822 0.413882 0.579233
1135 2 0.00421065 0.406452 0.568744
1641 4 0.0318247 0.368317 0.536293
1137 4 0.0292036 0.405995 0.568176
2242 2 0.0888428 0.414925 0.516769
443 4 0.176119 0.327581 0.529944
442 2 0.164075 0.345043 0.516708
2244 4 0.0962571 0.402211 0.496556
936 4 0.234215 0.322892 0.57284
772 2 0.221153 0.381552 0.557602
603 4 0.219033 0.398544 0.522102
774 4 0.210555 0.386175 0.535433
1029 4 0.257253 0.373945 0.540691
1027 2 0.266685 0.37468 0.517547
1239 4 0.412683 0.329463 0.535824
889 2 0.40537 0.347761 0.500216
1238 4 0.459126 0.330579 0.554332
891 4 0.402018 0.341621 0.52422
804 4 0.476492 0.335363 0.562059
1237 2 0.435904 0.330021 0.545078
802 2 0.491459 0.341265 0.581198
538 2 0.0598214 0.42664 0.56586
539 4 0.0766607 0.439399 0.552487
2243 4 0.0814284 0.427639 0.536982
327 4 0.134861 0.490157 0.50342
3182 4 0.376776 0.482946 0.564898
1153 2 0.167384 0.0438027 0.647847
1155 4 0.171727 0.0405855 0.623434
1255 2 0.199629 0.0520157 0.600205
1257 4 0.185877 0.034062 0.610869
1256 4 0.213381 0.0699694 0.589541
1004 4 0.365618 0.0734801 0.657984
1003 2 0.351994 0.0525177 0.657622
966 4 0.322896 0.0279245 0.668597
1162 2 0.465076 0.0319278 0.596295
1164 4 0.463733 0.0372097 0.620697
1024 2 0.422972 0.0801499 0.643689
1026 4 0.425913 0.0620361 0.626706
954 4 0.458743 0.0327597 0.638675
952 2 0.444606 0.0243042 0.657486
4073 4 0.505169 0.0881086 0.670925
916 2 0.11821 0.125685 0.594563
1211 4 0.142776 0.145824 0.614429
1210 2 0.157313 0.162028 0.626728
918 4 0.124967 0.136732 0.615952
2255 4 0.240867 0.153752 0.658056
856 2 0.310506 0.130184 0.580092
858 4 0.325752 0.11774 0.595516
1131 4 0.3325 0.116442 0.614069
1130 4 0.355901 0.0824943 0.642364
1129 2 0.3442 0.0994683 0.628217
3307 2 0.494033 0.158706 0.592787
1025 4 0.420032 0.0982638 0.660672
269 4 0.432524 0.113246 0.662384
268 2 0.453976 0.125815 0.665027
270 4 0.475429 0.138384 0.66767
3309 4 0.483058 0.150284 0.613615
1212 4 0.171851 0.178231 0.639027
1259 4 0.158172 0.191727 0.643157
1258 2 0.142445 0.203639 0.658517
949 2 0.278512 0.239666 0.61694
950 4 0.276929 0.215225 0.611911
2319 4 0.280162 0.200166 0.599827
2317 2 0.285463 0.17797 0.589609
3418 2 0.0818777 0.323119 0.657274
3039 4 0.0160787 0.279085 0.664327
1281 4 0.0834998 0.337572 0.623063
3386 4 0.0198633 0.268426 0.64779
348 4 0.1916 0.27412 0.616691
346 2 0.183817 0.261281 0.596697
976 2 0.253612 0.286292 0.636744
978 4 0.230085 0.290631 0.644013
1086 4 0.224577 0.307886 0.636839
1084 2 0.201261 0.315049 0.642337
951 4 0.280095 0.264108 0.621969
977 4 0.27714 0.281953 0.629476
1206 4 0.272698 0.341186 0.626799
1139 4 0.283768 0.328011 0.636011
805 2 0.385605 0.310539 0.627672
807 4 0.391705 0.303755 0.604393
806 4 0.379506 0.317324 0.650952
791 4 0.424214 0.333667 0.647507
1280 4 0.0437701 0.338869 0.592722
1279 2 0.063635 0.33822 0.607893
3420 4 0.0948821 0.326721 0.636224
895 2 0.163645 0.358698 0.63463
991 2 0.121245 0.39013 0.626229
993 4 0.143029 0.37845 0.630002
896 4 0.160353 0.378742 0.620049
942 4 0.0998364 0.404673 0.677326
992 4 0.099461 0.401809 0.622456
1205 4 0.246862 0.328444 0.585923
1085 4 0.177945 0.322213 0.647835
773 4 0.231751 0.376929 0.579771
897 4 0.166937 0.338654 0.649211
1204 2 0.25978 0.334815 0.606361
1138 2 0.292242 0.342907 0.654217
82 3 0.370084 0.351819 0.587323
81 1 0.367419 0.365948 0.605279
83 3 0.387296 0.366727 0.617226
84 3 0.362057 0.387117 0.597436
85 3 0.350667 0.358112 0.618569
2214 4 0.365362 0.386484 0.652706
1017 4 0.380591 0.375146 0.657973
2212 2 0.365102 0.410262 0.660433
792 4 0.438882 0.356327 0.605411
790 2 0.431548 0.344997 0.626459
803 4 0.506427 0.347168 0.600337
998 4 0.505628 0.357653 0.61823
2130 4 0.111419 0.470841 0.655815
2128 2 0.109004 0.446764 0.662112
1983 4 0.106713 0.480274 0.638936
1981 2 0.0980984 0.495587 0.621146
1455 4 0.277073 0.48606 0.631907
2436 4 0.258047 0.487858 0.63651
3183 4 0.344202 0.471576 0.601097
2213 4 0.364842 0.43404 0.668159
3181 2 0.360489 0.477261 0.582997
3082 2 0.0251561 0.027891 0.722852
3084 4 0.0419984 0.0441863 0.714135
3591 4 0.0483834 0.061083 0.705982
3589 2 0.0588197 0.0757093 0.723369
3083 4 0.00831388 0.0115958 0.731569
1154 4 0.163042 0.0470198 0.67226
1283 4 0.151248 0.0635726 0.669084
1284 4 0.1062 0.0772584 0.685939
1282 2 0.128724 0.0704155 0.677512
1005 4 0.338369 0.0315553 0.657259
888 4 0.43126 0.996473 0.670104
953 4 0.43047 0.0158487 0.676296
3590 4 0.069256 0.0903355 0.740757
948 4 0.0781936 0.109873 0.740863
1023 4 0.166523 0.111607 0.707866
2254 2 0.233254 0.148634 0.681316
1022 4 0.213657 0.12829 0.708701
2256 4 0.225642 0.143517 0.704576
1021 2 0.19009 0.119948 0.708284
2997 4 0.487752 0.151441 0.658225
834 4 0.999308 0.199634 0.720877
154 3 0.00637906 0.205346 0.738392
1299 4 0.129904 0.219652 0.693086
1260 4 0.126718 0.215551 0.673878
1297 2 0.130751 0.242473 0.703266
3402 4 0.426495 0.206935 0.692681
1011 4 0.433857 0.192584 0.704895
3400 2 0.425814 0.230361 0.701395
1009 2 0.432729 0.177681 0.72494
3037 2 0.033925 0.293955 0.673576
922 2 0.0535314 0.259862 0.747115
883 2 0.0597275 0.309998 0.72311
3038 4 0.0517713 0.308826 0.682826
923 4 0.0625244 0.280356 0.735965
3419 4 0.0688733 0.319516 0.678324
884 4 0.0491668 0.332056 0.728319
885 4 0.0702883 0.287941 0.717901
1298 4 0.131599 0.265295 0.713446
1068 4 0.118852 0.279175 0.70585
1066 2 0.123441 0.301157 0.716846
1067 4 0.128029 0.323139 0.727843
3401 4 0.425134 0.253787 0.710108
815 4 0.0353021 0.345555 0.735812
3275 4 0.992975 0.393487 0.72163
941 4 0.143731 0.390423 0.696585
940 2 0.121784 0.397548 0.686956
1098 4 0.156538 0.398289 0.709612
1096 2 0.172954 0.408735 0.725315
1278 4 0.217176 0.413893 0.747275
1276 2 0.231101 0.415243 0.726552
1140 4 0.300715 0.357804 0.672423
798 4 0.284803 0.368761 0.678463
797 4 0.254008 0.40647 0.689883
796 2 0.269405 0.387615 0.684173
1016 4 0.393137 0.349343 0.698931
1015 2 0.386864 0.362244 0.678452
1019 4 0.406264 0.357584 0.712389
1018 2 0.397775 0.352371 0.735322
2129 4 0.10659 0.422687 0.668409
1097 4 0.18937 0.419181 0.741017
1277 4 0.245027 0.416594 0.705829
2009 4 0.344313 0.477123 0.690034
3131 4 0.000609117 0.0210626 0.746809
3053 4 0.424503 0.013787 0.828003
4080 4 0.429855 0.0121025 0.808974
946 2 0.0872142 0.104683 0.763598
851 4 0.100417 0.104589 0.805065
947 4 0.0962347 0.0994932 0.786333
850 2 0.11576 0.1204 0.816888
852 4 0.131104 0.13621 0.828711
35 3 0.135589 0.151434 0.81474
31 1 0.135464 0.169061 0.829159
1010 4 0.431602 0.162778 0.744985
1192 2 0.469792 0.149882 0.825648
1193 4 0.451087 0.140648 0.811862
153 3 0.00618533 0.207636 0.776328
151 1 0.0194448 0.204489 0.757548
924 4 0.0445385 0.239368 0.758264
152 3 0.035124 0.221295 0.756614
155 3 0.0300659 0.184383 0.758816
862 2 0.0555087 0.232366 0.826049
870 4 0.0816058 0.213372 0.789102
34 3 0.15698 0.177371 0.831691
869 4 0.120995 0.185302 0.801801
33 3 0.121426 0.185722 0.821175
868 2 0.1013 0.199337 0.795452
52 3 0.222979 0.229187 0.825032
1091 4 0.206917 0.240276 0.829211
1093 2 0.270865 0.253669 0.809759
1094 4 0.284639 0.251868 0.788969
1095 4 0.257092 0.25547 0.830549
3348 4 0.344058 0.244359 0.816039
864 4 0.064836 0.255091 0.830715
1692 4 0.0602264 0.27397 0.825276
838 2 0.162109 0.302468 0.824212
1090 2 0.192811 0.255257 0.815006
1092 4 0.178705 0.270239 0.800801
839 4 0.168745 0.280873 0.813497
3347 4 0.303536 0.242067 0.786826
3346 2 0.323797 0.243213 0.801432
3330 4 0.33219 0.330623 0.782258
1043 4 0.32773 0.336387 0.763981
1044 4 0.376081 0.335293 0.751266
1042 2 0.351905 0.33584 0.757623
1051 2 0.364083 0.279602 0.825151
1052 4 0.347577 0.261057 0.828121
188 3 0.457815 0.326198 0.805934
814 2 0.0396705 0.346009 0.760427
4209 4 0.0441602 0.366359 0.789262
4207 2 0.0513116 0.365519 0.813206
816 4 0.0440388 0.346462 0.785042
1207 2 0.113713 0.349659 0.822074