ITEM: TIMESTEP
5690000
ITEM: NUMBER OF ATOMS
4590
ITEM: BOX BOUNDS pp pp pp
-9.9985700000000008e+00 9.9985700000000008e+00
-9.9985700000000008e+00 9.9985700000000008e+00
-9.9985700000000008e+00 9.9985700000000008e+00
ITEM: ATOMS id type xs ys zs
566 4 0.057448 0.0210933 0.0585566
565 2 0.058032 0.0344944 0.0374557
567 4 0.0586159 0.0478956 0.0163548
381 4 0.0278122 0.075645 0.0689793
3908 4 0.0445226 0.00481711 0.0592725
484 2 0.127279 0.0205955 0.0456092
486 4 0.125735 0.0455129 0.0442233
702 4 0.142153 0.054229 0.0387572
700 2 0.147705 0.0771759 0.0469909
554 4 0.0965166 0.0722355 0.00528648
1749 4 0.320173 0.0283732 0.0612125
1748 4 0.350503 0.068132 0.0609889
743 4 0.365902 0.0774399 0.0706939
1747 2 0.335338 0.0482526 0.0611007
492 4 0.393415 0.0586074 0.00815239
2442 4 0.408617 0.0663327 0.0197925
490 2 0.370958 0.0591311 0.997171
2468 4 0.483722 0.0201427 0.00601903
2467 2 0.474724 0.0168614 0.0291157
2469 4 0.465727 0.0135801 0.0522124
254 4 0.47043 0.0561733 0.0693029
653 4 0.447906 0.0192541 0.0585111
1668 4 0.0243529 0.122143 0.0345049
1666 2 0.000189003 0.123967 0.0283441
701 4 0.153257 0.100123 0.0552246
1842 4 0.161949 0.117063 0.0565266
357 4 0.215824 0.120704 0.0461603
355 2 0.239085 0.111822 0.0484439
1840 2 0.183174 0.128973 0.0622559
1841 4 0.2044 0.140882 0.0679851
450 4 0.212862 0.159315 0.0697484
356 4 0.262346 0.10294 0.0507276
758 4 0.275888 0.0886296 0.057488
757 2 0.283789 0.0978018 0.0793657
2440 2 0.410085 0.0910154 0.0235061
2441 4 0.411552 0.115698 0.0272197
2976 4 0.430931 0.112449 0.0256353
2974 2 0.448094 0.12849 0.0341959
2975 4 0.465258 0.144531 0.0427565
2894 4 0.480801 0.133425 0.0502226
2893 2 0.500299 0.117928 0.0480227
24 3 0.460756 0.16403 0.0455317
21 1 0.476986 0.16622 0.0619693
23 3 0.489572 0.146774 0.0633142
22 3 0.466643 0.169798 0.0822023
2967 4 0.0310547 0.229194 0.021703
462 4 0.0927828 0.248994 0.0327725
623 4 0.0881801 0.192326 0.0763755
915 4 0.229547 0.219236 0.0855773
448 2 0.225358 0.179797 0.0767846
449 4 0.237854 0.20028 0.0838208
353 4 0.300722 0.215184 0.0766545
352 2 0.290363 0.235339 0.0660889
359 4 0.368848 0.227849 0.0104927
282 4 0.365432 0.216818 0.0263646
280 2 0.364732 0.229044 0.0481641
281 4 0.364031 0.24127 0.0699637
25 3 0.490511 0.183918 0.0572259
703 2 0.059545 0.253996 0.0260871
705 4 0.0397721 0.24487 0.013802
704 4 0.079318 0.263122 0.0383722
460 2 0.109578 0.263892 0.04378
461 4 0.126373 0.278789 0.0547875
293 4 0.142597 0.283237 0.0656488
286 2 0.101703 0.337349 0.0458712
524 4 0.120234 0.3239 0.0747164
287 4 0.0995744 0.338952 0.02101
902 4 0.244734 0.296528 0.0805851
354 4 0.280004 0.255494 0.0555233
297 4 0.291323 0.27189 0.0573663
295 2 0.271927 0.28732 0.0606584
296 4 0.25253 0.302751 0.0639505
2840 4 0.427338 0.27309 0.998608
2841 4 0.426599 0.295818 0.0431453
309 4 0.432728 0.303156 0.0609844
307 2 0.454409 0.301168 0.0732786
2839 2 0.426969 0.284454 0.0208765
308 4 0.47609 0.29918 0.0855728
2541 4 0.00413089 0.397935 0.0798594
967 2 0.0719615 0.364602 0.00283495
2807 4 0.0508191 0.40227 0.00742097
288 4 0.103833 0.335747 0.0707324
1080 4 0.166181 0.398817 0.00301856
417 4 0.15867 0.4055 0.0798798
969 4 0.0881042 0.345728 0.00572912
2514 4 0.211401 0.379045 0.0586167
2445 4 0.22997 0.388452 0.057191
2512 2 0.209166 0.358936 0.0733073
2443 2 0.228793 0.410521 0.045497
1070 4 0.286865 0.401522 0.0699219
1069 2 0.272965 0.384075 0.081218
1863 4 0.303074 0.407383 0.0806175
607 2 0.368468 0.3867 0.0464613
608 4 0.367887 0.411657 0.047885
609 4 0.369049 0.361744 0.0450376
1305 4 0.381859 0.346774 0.00731469
2007 4 0.396393 0.358947 0.00133893
3337 2 0.0355998 0.472867 0.074792
3338 4 0.0294095 0.49698 0.0724605
3339 4 0.0417902 0.448754 0.0771235
2444 4 0.227616 0.43259 0.0338029
2377 2 0.220023 0.470221 0.0322597
2378 4 0.233536 0.450923 0.0406359
2379 4 0.20651 0.489519 0.0238834
2387 4 0.31036 0.472349 0.0255803
14 3 0.318831 0.470145 0.00820854
1551 4 0.365056 0.430726 0.0454123
1549 2 0.363184 0.440423 0.0224421
324 4 0.499352 0.465474 0.0424187
379 2 0.00774789 0.0713237 0.0832596
2180 4 0.314869 0.0316857 0.0808106
2179 2 0.308911 0.0144442 0.0979106
742 2 0.375611 0.0838149 0.0928364
557 4 0.393223 0.0487903 0.146594
556 2 0.403158 0.0330251 0.129923
558 4 0.413094 0.01726 0.113251
253 2 0.453628 0.0690949 0.0825667
652 2 0.438797 0.0153833 0.0814725
654 4 0.429688 0.0115125 0.104434
255 4 0.436827 0.0820166 0.0958305
236 4 0.072285 0.13427 0.159151
578 4 0.124736 0.0938066 0.142094
577 2 0.10766 0.11065 0.149158
579 4 0.0905837 0.127493 0.156221
759 4 0.291689 0.106974 0.101243
722 4 0.30171 0.116833 0.115094
721 2 0.324691 0.120803 0.106077
744 4 0.385319 0.09019 0.114979
723 4 0.347671 0.124773 0.0970591
693 4 0.358562 0.142664 0.0941791
691 2 0.36466 0.159396 0.111729
1505 4 0.421182 0.0843049 0.107083
1504 2 0.42709 0.0941902 0.129277
1506 4 0.432998 0.104076 0.15147
2599 2 0.491503 0.120429 0.130236
2600 4 0.483334 0.0969013 0.13245
2574 4 0.42526 0.0905165 0.163876
622 2 0.0991234 0.205514 0.094582
624 4 0.110067 0.218703 0.112789
506 4 0.11378 0.222696 0.132334
505 2 0.122132 0.203397 0.14586
507 4 0.130484 0.184097 0.159386
913 2 0.209971 0.234783 0.0860818
914 4 0.190396 0.250331 0.0865862
692 4 0.370758 0.176129 0.129279
376 2 0.483684 0.173022 0.146914
377 4 0.464908 0.189137 0.150512
629 4 0.454544 0.19022 0.167601
2798 4 0.998429 0.319541 0.152817
836 4 0.0209541 0.241638 0.123266
2797 2 0.0170059 0.302807 0.153042
2799 4 0.0355831 0.286073 0.153268
523 2 0.121916 0.330643 0.0987347
102 3 0.134686 0.323868 0.133522
294 4 0.16311 0.284388 0.111241
292 2 0.152854 0.283813 0.0884447
101 1 0.154819 0.313682 0.137999
104 3 0.154876 0.292597 0.128315
103 3 0.157348 0.311846 0.160992
901 2 0.226005 0.309686 0.0906496
903 4 0.207276 0.322843 0.100714
105 3 0.171691 0.326271 0.129308
519 4 0.331674 0.299291 0.126936
2877 4 0.343287 0.292721 0.112002
2876 4 0.363785 0.257535 0.0829763
2875 2 0.353536 0.275128 0.0974893
517 2 0.343284 0.302908 0.148783
2539 2 0.00537724 0.395689 0.104731
3449 4 0.068734 0.409969 0.112038
2540 4 0.00662358 0.393443 0.129602
525 4 0.123598 0.337387 0.122753
363 4 0.14957 0.400393 0.141534
416 4 0.15494 0.387587 0.126419
415 2 0.156805 0.396544 0.10315
361 2 0.141882 0.388658 0.162231
2513 4 0.206932 0.338827 0.087998
1071 4 0.259066 0.366629 0.0925141
1121 4 0.268785 0.37437 0.160669
1122 4 0.255539 0.366728 0.113057
1120 2 0.262162 0.370549 0.136863
528 4 0.397438 0.337454 0.147262
526 2 0.422093 0.333786 0.145299
527 4 0.446748 0.330118 0.143335
2651 4 0.464712 0.338302 0.137143
2650 2 0.484466 0.349232 0.126396
3448 2 0.056834 0.430614 0.104464
3450 4 0.0449341 0.451259 0.0968897
314 4 0.0407992 0.493968 0.148582
313 2 0.0331123 0.47394 0.161426
2094 4 0.0676144 0.46705 0.129726
330 4 0.129874 0.496179 0.111046
768 4 0.133016 0.479941 0.0995543
766 2 0.155685 0.474556 0.108627
2092 2 0.0911055 0.466611 0.138279
728 4 0.128865 0.467632 0.160208
2093 4 0.114597 0.466173 0.146832
767 4 0.178353 0.469171 0.117699
638 4 0.195059 0.477479 0.109386
637 2 0.213612 0.491636 0.100411
1861 2 0.305802 0.424432 0.098702
1862 4 0.308531 0.441482 0.116786
1787 4 0.317059 0.450657 0.131273
1786 2 0.3042 0.456555 0.151889
516 4 0.270975 0.00600298 0.226889
514 2 0.29409 0.00420372 0.23625
515 4 0.317205 0.00240446 0.245611
2745 4 0.502552 0.00703571 0.178973
1447 2 0.4197 0.0117042 0.22813
1449 4 0.441439 0.022269 0.234532
2702 4 0.495251 0.00653463 0.198703
237 4 0.0428586 0.151941 0.195518
235 2 0.0575718 0.143106 0.177334
604 2 0.230539 0.136765 0.19786
605 4 0.239426 0.1238 0.217305
606 4 0.221653 0.149729 0.178414
29 3 0.259049 0.116672 0.214837
26 1 0.277921 0.109344 0.226175
27 3 0.291031 0.0971774 0.211709
28 3 0.290111 0.127534 0.233852
30 3 0.271821 0.0961286 0.24369
331 2 0.4126 0.154266 0.234743
699 4 0.463775 0.0851834 0.214834
697 2 0.488578 0.0856303 0.211707
2573 4 0.448377 0.0961835 0.207856
2572 2 0.436818 0.09335 0.185866
630 4 0.440239 0.16186 0.206225
459 4 0.112126 0.218968 0.231763
580 2 0.191477 0.230318 0.216821
731 4 0.229953 0.168199 0.176047
732 4 0.202399 0.209114 0.184253
581 4 0.207198 0.219246 0.200838
730 2 0.216176 0.188657 0.18015
582 4 0.175756 0.241389 0.232803
250 2 0.277209 0.232269 0.241191
252 4 0.254262 0.234865 0.250776
251 4 0.300156 0.229673 0.231606
350 4 0.314466 0.242682 0.224278
332 4 0.424203 0.167761 0.21718
628 2 0.447391 0.17604 0.186913
476 4 0.0346312 0.261004 0.241005
755 4 0.0306282 0.281105 0.236797
754 2 0.0179389 0.300772 0.228001
756 4 0.00524957 0.320439 0.219205
279 4 0.174637 0.301627 0.168041
277 2 0.197915 0.299632 0.176949
278 4 0.221192 0.297636 0.185856
349 2 0.329113 0.26266 0.220885
518 4 0.354894 0.306526 0.17063
2538 4 0.371612 0.314571 0.167472
351 4 0.343761 0.282637 0.217491
276 4 0.42653 0.317601 0.238429
496 2 0.491975 0.328844 0.190978
274 2 0.447359 0.3238 0.226064
275 4 0.468188 0.329999 0.213698
497 4 0.467537 0.32567 0.195206
395 4 0.0136714 0.336291 0.226752
3884 4 0.00838606 0.413713 0.233479
680 4 0.0195406 0.421906 0.218749
362 4 0.134195 0.376924 0.182928
291 4 0.151678 0.373402 0.194017
289 2 0.174012 0.363661 0.199627
290 4 0.196346 0.353919 0.205238
735 4 0.197925 0.346281 0.224213
733 2 0.211103 0.342444 0.245112
2536 2 0.374237 0.331809 0.185392
714 4 0.378754 0.36961 0.203092
2537 4 0.376863 0.349048 0.203313
712 2 0.395588 0.376725 0.220156
713 4 0.412422 0.38384 0.237219
315 4 0.0254255 0.453912 0.17427
263 4 0.0684584 0.490981 0.243676
681 4 0.0141599 0.461049 0.188097
679 2 0.0168503 0.441477 0.203423
727 2 0.144072 0.465166 0.179902
729 4 0.15928 0.4627 0.199595
339 4 0.174921 0.453141 0.20426
337 2 0.17547 0.467185 0.22494
625 2 0.262924 0.475857 0.189024
626 4 0.274238 0.469747 0.16758
1788 4 0.29134 0.462452 0.172505
1473 4 0.324914 0.500675 0.238645
301 2 0.327903 0.498876 0.203707
627 4 0.251609 0.481967 0.210467
231 4 0.406268 0.491347 0.226901
303 4 0.342876 0.493575 0.184397
3695 4 0.414662 0.489147 0.244209
3818 4 0.478361 0.496259 0.20989
586 2 0.497616 0.424232 0.215878
3817 2 0.482743 0.475976 0.223839
3819 4 0.487125 0.455692 0.237787
588 4 0.487389 0.446586 0.220447
1272 4 0.0697299 0.0492875 0.2791
1270 2 0.0538422 0.0656478 0.268848
1271 4 0.0379545 0.0820081 0.258597
2849 4 0.0809671 0.0387587 0.267755
2850 4 0.120052 0.00798089 0.272836
2848 2 0.10051 0.0233698 0.270295
1869 4 0.130347 0.00965232 0.289539
2910 4 0.330531 0.00113562 0.26029
2908 2 0.338184 0.0247303 0.263437
2909 4 0.345837 0.048325 0.266584
600 4 0.352127 0.0661973 0.258908
598 2 0.364668 0.0696179 0.280267
599 4 0.377208 0.0730385 0.301626
1517 4 0.3776 0.0684876 0.321834
1496 4 0.477159 0.0302698 0.307366
1495 2 0.498021 0.0228683 0.318993
432 4 0.452664 0.0284729 0.249705
431 4 0.460413 0.0216771 0.298638
430 2 0.456538 0.025075 0.274171
511 2 0.00328653 0.100156 0.24994
513 4 0.0211698 0.0901892 0.264293
2483 4 0.0568964 0.153164 0.303049
2482 2 0.0404225 0.140985 0.317383
2484 4 0.0239486 0.128806 0.331717
707 4 0.137394 0.101582 0.32394
471 4 0.157153 0.102829 0.328941
546 4 0.245812 0.107254 0.258581
544 2 0.230589 0.12414 0.268987
531 4 0.216279 0.137364 0.299444
545 4 0.215366 0.141026 0.279394
529 2 0.219056 0.13765 0.324291
2656 2 0.293768 0.13014 0.29553
2658 4 0.304597 0.130866 0.318056
2657 4 0.28294 0.129414 0.273005
333 4 0.400997 0.140771 0.252305
2516 4 0.39941 0.125027 0.265792
2515 2 0.408204 0.118388 0.288236
2517 4 0.416998 0.111748 0.310681
631 2 0.483976 0.108011 0.296775
633 4 0.491252 0.101185 0.319701
632 4 0.4767 0.114838 0.273848
475 2 0.0486671 0.241383 0.247578
477 4 0.062703 0.221762 0.254151
1221 4 0.0575541 0.204583 0.260571
1219 2 0.0447395 0.196067 0.28028
1220 4 0.0319249 0.18755 0.299988
300 4 0.0138485 0.197416 0.296034
457 2 0.123086 0.208653 0.251729
458 4 0.134045 0.198338 0.271696
750 4 0.182409 0.245769 0.251178
283 2 0.245486 0.249211 0.280718
390 4 0.228383 0.241362 0.319862
284 4 0.231115 0.246538 0.301003
285 4 0.259858 0.251885 0.260433
510 4 0.359555 0.231604 0.317091
765 4 0.378403 0.23479 0.310935
3572 4 0.0287183 0.258412 0.29493
3571 2 0.00702822 0.26397 0.283802
2653 2 0.113119 0.315913 0.308889
2655 4 0.10651 0.309006 0.285785
617 4 0.117969 0.274633 0.335948
749 4 0.180143 0.280078 0.287489
748 2 0.181276 0.262923 0.269334
366 4 0.240214 0.327179 0.261459
388 2 0.217378 0.260139 0.332171
364 2 0.254747 0.30685 0.260631
365 4 0.269281 0.286521 0.259803
344 4 0.27495 0.273277 0.274773
345 4 0.320471 0.267825 0.294742
343 2 0.29771 0.270551 0.284757
612 4 0.323385 0.287474 0.292474
763 2 0.378746 0.247622 0.289478
764 4 0.379089 0.260454 0.268021
610 2 0.339961 0.306181 0.293157
611 4 0.356537 0.324888 0.29384
385 2 0.408307 0.301613 0.271179
387 4 0.394402 0.284688 0.283237
386 4 0.422211 0.318538 0.259121
2654 4 0.119728 0.32282 0.331993
3671 4 0.14346 0.369585 0.255521
3670 2 0.148037 0.392238 0.265065
669 4 0.131183 0.399414 0.319276
667 2 0.118177 0.380359 0.328914
3672 4 0.152613 0.41489 0.27461
734 4 0.224281 0.338607 0.266012
1575 4 0.344941 0.340432 0.298717
1573 2 0.34819 0.365219 0.298229
1574 4 0.351438 0.390006 0.29774
1802 4 0.342198 0.400675 0.283695
2862 4 0.422453 0.370219 0.248916
2860 2 0.443364 0.379926 0.258595
2861 4 0.464275 0.389632 0.268273
3990 4 0.483433 0.382776 0.266785
3988 2 0.488676 0.40052 0.283603
3989 4 0.493919 0.418264 0.300421
1386 4 0.0546937 0.492737 0.256843
262 2 0.0912586 0.485997 0.252648
1451 4 0.0827096 0.481346 0.331314
1383 4 0.136451 0.419251 0.262946
1382 4 0.129247 0.468716 0.264356
264 4 0.114059 0.481013 0.261619
1381 2 0.132849 0.443983 0.263651
338 4 0.176018 0.481228 0.24562
246 4 0.205158 0.44621 0.290392
244 2 0.229839 0.450187 0.290868
245 4 0.254519 0.454163 0.291344
644 4 0.261474 0.470365 0.300656
643 2 0.275107 0.483075 0.28399
541 2 0.301724 0.426083 0.309465
645 4 0.28874 0.495785 0.267323
542 4 0.294294 0.417316 0.287259
1801 2 0.350223 0.420945 0.27145
1471 2 0.340395 0.503462 0.258081
1803 4 0.358247 0.441215 0.259206
751 2 0.36323 0.47026 0.30061
752 4 0.364598 0.493785 0.292251
753 4 0.361862 0.446735 0.308969
3694 2 0.424459 0.48072 0.265614
3696 4 0.434256 0.472294 0.287019
3603 4 0.448563 0.464052 0.297979
3601 2 0.470318 0.451732 0.297653
3602 4 0.492073 0.439412 0.297327
708 4 0.106508 0.0885794 0.361058
479 4 0.211813 0.0726923 0.333802
478 2 0.224887 0.0624171 0.352475
480 4 0.23796 0.052142 0.371148
2643 4 0.25154 0.0116156 0.417169
470 4 0.199787 0.083769 0.346824
2641 2 0.253216 0.0266289 0.397245
2642 4 0.254892 0.0416421 0.377321
1061 4 0.39516 0.0163318 0.402807
1516 2 0.392756 0.0563425 0.337581
1060 2 0.407925 0.0298644 0.386101
1062 4 0.420691 0.0433971 0.369395
1518 4 0.407913 0.0441974 0.353327
3173 4 0.42449 0.078403 0.409645
2238 4 0.065169 0.14686 0.410042
341 4 0.0824526 0.153158 0.400301
706 2 0.121951 0.0950808 0.342499
469 2 0.17847 0.0932993 0.337882
530 4 0.221833 0.137935 0.349138
649 2 0.227684 0.159494 0.389704
651 4 0.226522 0.150061 0.366577
371 4 0.231182 0.121463 0.406916
1031 4 0.307491 0.134005 0.385078
1030 2 0.330049 0.123455 0.387315
3174 4 0.408423 0.12316 0.394173
3172 2 0.416457 0.100781 0.401909
1032 4 0.352608 0.112905 0.389552
2901 4 0.391251 0.126645 0.403638
2899 2 0.388948 0.148221 0.416062
2879 4 0.495556 0.0991458 0.338742
2878 2 0.483564 0.0983367 0.360668
2880 4 0.471572 0.0975276 0.382593
340 2 0.0875946 0.177462 0.397469
342 4 0.0927366 0.201767 0.394636
402 4 0.104093 0.21528 0.385993
400 2 0.120129 0.222825 0.403631
618 4 0.138092 0.229159 0.341229
650 4 0.228846 0.168928 0.41283
508 2 0.361219 0.22983 0.341976
717 4 0.36614 0.247696 0.367475
509 4 0.362883 0.228055 0.366861
710 4 0.039906 0.285837 0.355152
709 2 0.0643342 0.287454 0.360234
536 4 0.0285025 0.29958 0.346408
535 2 0.00932582 0.313734 0.338851
616 2 0.12803 0.251896 0.338589
711 4 0.0887623 0.28907 0.365317
636 4 0.102407 0.298452 0.376542
634 2 0.111665 0.319126 0.365955
389 4 0.206374 0.278915 0.34448
715 2 0.367716 0.265628 0.384828
716 4 0.369292 0.28356 0.402181
488 4 0.381751 0.298588 0.394666
487 2 0.380329 0.323259 0.398471
2636 4 0.0046913 0.346406 0.413407
635 4 0.120922 0.339799 0.355368
668 4 0.10517 0.361303 0.338553
435 4 0.248523 0.405077 0.393241
873 4 0.296443 0.332891 0.411485
2924 4 0.306703 0.350474 0.407541
375 4 0.259158 0.388148 0.396247
374 4 0.258982 0.352699 0.360977
2923 2 0.312816 0.371411 0.395316
373 2 0.25907 0.370424 0.378612
585 4 0.309023 0.408152 0.390417
2925 4 0.318928 0.392348 0.383091
489 4 0.378906 0.347931 0.402276
2138 4 0.0593127 0.459665 0.387809
569 4 0.0518926 0.464013 0.370281
568 2 0.070753 0.462715 0.353917
2137 2 0.0554619 0.462487 0.412352
570 4 0.0896134 0.461418 0.337553
434 4 0.277907 0.445196 0.398508
543 4 0.309153 0.434851 0.331671
583 2 0.314761 0.419318 0.368793
433 2 0.263215 0.425136 0.395874
584 4 0.320499 0.430485 0.34717
1483 2 0.479175 0.450284 0.397469
445 2 0.438749 0.494014 0.375866
446 4 0.446963 0.470449 0.377405
1484 4 0.458186 0.456702 0.385493
1034 4 0.0101793 0.0598194 0.418465
164 3 0.040329 0.0753219 0.456827
162 3 0.0172717 0.076353 0.427163
161 1 0.0387748 0.0804278 0.434246
165 3 0.053187 0.0674294 0.42233
945 4 0.10785 0.0398242 0.493308
761 4 0.436018 0.0833813 0.425651
760 2 0.444112 0.0642392 0.439552
2551 2 0.484271 0.0295684 0.47475
762 4 0.452206 0.0450972 0.453453
2552 4 0.466856 0.0321555 0.456997
2611 2 0.00489542 0.137266 0.455693
2236 2 0.0491638 0.133033 0.423376
2237 4 0.0331587 0.119205 0.436711
163 3 0.0436721 0.102851 0.430839
2612 4 0.0213035 0.118667 0.452525
370 2 0.222156 0.120625 0.430218
473 4 0.229378 0.122636 0.463868
472 2 0.218285 0.118268 0.485846
372 4 0.213129 0.119786 0.45352
3159 4 0.362677 0.133005 0.443286
3157 2 0.354159 0.109949 0.438698
3158 4 0.345642 0.0868929 0.434109
823 2 0.130581 0.248934 0.453986
401 4 0.136166 0.230369 0.421269
824 4 0.138323 0.229139 0.440818
1191 4 0.215449 0.18521 0.411525
1189 2 0.220426 0.19544 0.43379
1190 4 0.225404 0.20567 0.456055
1394 4 0.209455 0.218283 0.45848
1393 2 0.201262 0.235697 0.474444
2900 4 0.386644 0.169796 0.428487
312 4 0.404745 0.169748 0.435797
310 2 0.409693 0.192552 0.44478
311 4 0.414641 0.215356 0.453763
452 4 0.432122 0.22607 0.454719
3059 4 0.46574 0.235692 0.499084
451 2 0.42091 0.247557 0.44857
3058 2 0.489121 0.24426 0.49683
260 4 0.0340479 0.316623 0.452538
259 2 0.0389061 0.305098 0.474188
2637 4 0.041386 0.32009 0.434894
261 4 0.0437643 0.293572 0.495839
825 4 0.122839 0.268729 0.467154
1395 4 0.19307 0.253111 0.490407
871 2 0.275095 0.32995 0.424165
872 4 0.253747 0.327008 0.436846
640 2 0.357007 0.276245 0.486532
642 4 0.360053 0.296045 0.471571
321 4 0.345486 0.305128 0.481211
319 2 0.339489 0.32697 0.470622
265 2 0.415198 0.307408 0.451519
453 4 0.409698 0.269043 0.442422
267 4 0.408052 0.330504 0.457897
266 4 0.422344 0.284312 0.445141
2635 2 0.0230386 0.333248 0.424151
695 4 0.113129 0.396058 0.495401
2244 4 0.0941714 0.395715 0.500179
602 4 0.24446 0.377915 0.490255
813 4 0.251275 0.383733 0.472834
811 2 0.248447 0.364663 0.456911
812 4 0.245619 0.345593 0.440988
1028 4 0.301795 0.382134 0.492794
1171 2 0.3189 0.393516 0.464857
1172 4 0.314135 0.373785 0.479457
320 4 0.333492 0.348813 0.460034
1173 4 0.323664 0.413247 0.450257
119 3 0.401693 0.377903 0.436227
116 1 0.394202 0.356232 0.439781
118 3 0.380367 0.349673 0.422346
889 2 0.392813 0.340971 0.492024
890 4 0.393857 0.341033 0.467042
117 3 0.382223 0.35563 0.45941
1953 4 0.411611 0.395414 0.433542
120 3 0.411943 0.342042 0.441383
2139 4 0.0516112 0.465309 0.436896
1445 4 0.0957722 0.43599 0.456616
1444 2 0.119008 0.439425 0.465189
1446 4 0.142243 0.44286 0.473761
326 4 0.144322 0.45893 0.484552
325 2 0.147534 0.48334 0.488911
613 2 0.304636 0.434834 0.430373
615 4 0.283905 0.43894 0.417011
614 4 0.325367 0.430728 0.443735
1951 2 0.409555 0.418744 0.442297
2109 4 0.378562 0.498899 0.460073
1952 4 0.407498 0.442074 0.451052
2108 4 0.394441 0.451607 0.463529
2107 2 0.386502 0.475253 0.461801
944 4 0.141512 0.0675569 0.517771
943 2 0.124681 0.0536906 0.50554
1182 4 0.200011 0.0301218 0.52878
1180 2 0.192621 0.0494095 0.54287
1181 4 0.185231 0.0686972 0.556961
2315 4 0.217621 0.033579 0.516117
2314 2 0.233829 0.015426 0.510376
2239 2 0.316614 0.0797746 0.573325
963 4 0.295432 0.0198158 0.573965
960 4 0.287138 0.0625543 0.580943
2241 4 0.333548 0.0862542 0.556108
576 4 0.414338 0.0371086 0.554135
574 2 0.422916 0.0584227 0.54427
575 4 0.431493 0.0797369 0.534405
1968 4 0.469654 0.997885 0.547764
2507 4 0.444271 0.0811137 0.517129
1164 4 0.492548 0.0547703 0.577593
1163 4 0.501757 0.00763879 0.563646
1162 2 0.497153 0.0312045 0.570619
725 4 0.152675 0.0851999 0.516994
9 3 0.100973 0.115301 0.556016
6 1 0.113721 0.129633 0.542959
10 3 0.101539 0.148087 0.537511
8 3 0.120639 0.118737 0.523676
7 3 0.132281 0.136068 0.554929
368 4 0.095352 0.164501 0.528117
917 4 0.132396 0.129338 0.573166
724 2 0.172515 0.100147 0.519846
726 4 0.192355 0.115095 0.522698
474 4 0.207192 0.1139 0.507824
1143 4 0.35315 0.0879376 0.550089
1142 4 0.364676 0.113332 0.50858
2502 4 0.356946 0.131111 0.503124
1141 2 0.358913 0.100635 0.529334
2500 2 0.358401 0.155832 0.506576
2506 2 0.463164 0.0961465 0.52363
2508 4 0.482056 0.111179 0.530132
1261 2 0.495284 0.13268 0.552484
1263 4 0.487728 0.10921 0.548336
1262 4 0.502841 0.156151 0.556633
367 2 0.103921 0.183342 0.51409
3462 4 0.111179 0.213875 0.517378
369 4 0.112491 0.202184 0.500063
3460 2 0.126373 0.233728 0.517819
409 2 0.208126 0.229115 0.556904
410 4 0.205709 0.230267 0.532044
411 4 0.210543 0.227963 0.581763
900 4 0.369746 0.197686 0.507295
2501 4 0.359855 0.180553 0.510028
899 4 0.346972 0.241821 0.513143
898 2 0.358359 0.219754 0.510219
2847 4 0.0161855 0.289074 0.556923
2845 2 0.0290666 0.287725 0.535535
2846 4 0.0419476 0.286376 0.514147
3461 4 0.141567 0.25358 0.51826
443 4 0.117028 0.312001 0.561351
442 2 0.121441 0.328902 0.543461
3044 4 0.161067 0.256165 0.520693
3043 2 0.175652 0.273741 0.530869
3045 4 0.190237 0.291317 0.541045
935 4 0.190443 0.305637 0.555242
934 2 0.208908 0.30935 0.571687
936 4 0.227373 0.313062 0.588132
1205 4 0.235219 0.32777 0.576384
641 4 0.353961 0.256444 0.501493
1639 2 0.015258 0.339467 0.568463
1640 4 0.0340613 0.355909 0.569593
1280 4 0.0508865 0.345252 0.571478
444 4 0.125854 0.345803 0.525571
694 2 0.123017 0.373835 0.501194
696 4 0.132904 0.351612 0.506988
2242 2 0.0897418 0.414712 0.515821
772 2 0.2236 0.404335 0.571483
603 4 0.221332 0.383044 0.534295
774 4 0.22496 0.39735 0.547513
601 2 0.232896 0.38048 0.512275
1029 4 0.289452 0.364688 0.538005
1027 2 0.295624 0.373411 0.5154
891 4 0.391769 0.340909 0.517006
1239 4 0.394235 0.33227 0.536273
1238 4 0.44208 0.33735 0.549901
804 4 0.456731 0.347305 0.557684
1237 2 0.418158 0.33481 0.543087
802 2 0.4706 0.362616 0.57177
538 2 0.0658109 0.425423 0.564786
539 4 0.0857218 0.425336 0.549662
2243 4 0.0853122 0.433709 0.531463
1502 4 0.0280892 0.00418156 0.583453
1153 2 0.166669 0.0638914 0.658832
1256 4 0.23354 0.0421629 0.621174
1255 2 0.211275 0.0532255 0.62384
1257 4 0.189011 0.0642881 0.626506
1155 4 0.183708 0.0721887 0.642522
2240 4 0.299679 0.0732949 0.590542
959 4 0.250113 0.0473664 0.610929
958 2 0.268625 0.0549603 0.595936
1004 4 0.375612 0.0768676 0.669926
1026 4 0.461411 0.0556724 0.647471
1024 2 0.45365 0.079417 0.646406
954 4 0.448646 0.0465899 0.659089
916 2 0.149552 0.13898 0.588589
1211 4 0.16663 0.146177 0.624095
1210 2 0.152719 0.154253 0.643238
1212 4 0.138807 0.162328 0.66238
918 4 0.166709 0.148621 0.604012
857 4 0.306244 0.160777 0.608547
2318 4 0.291407 0.159554 0.595692
856 2 0.323507 0.146584 0.61976
858 4 0.340769 0.132391 0.630973
1131 4 0.343378 0.113624 0.623696
1129 2 0.359619 0.101667 0.638475
1130 4 0.375861 0.0897095 0.653254
269 4 0.452477 0.121337 0.650513
1025 4 0.445889 0.103162 0.645341
268 2 0.457511 0.140083 0.634751
270 4 0.462544 0.158828 0.618989
3307 2 0.491198 0.163 0.598487
348 4 0.162771 0.21536 0.612892
347 4 0.210291 0.226864 0.602392
346 2 0.186531 0.221112 0.607642
977 4 0.216558 0.233342 0.664423
951 4 0.232221 0.227218 0.652017
949 2 0.24581 0.213515 0.636119
2319 4 0.251464 0.185542 0.610853
2317 2 0.271436 0.172548 0.603272
950 4 0.259399 0.199811 0.620221
3309 4 0.480417 0.168694 0.620317
3385 2 0.00350397 0.286993 0.649351
1084 2 0.18177 0.304017 0.653012
976 2 0.205292 0.253477 0.654787
1086 4 0.201918 0.292345 0.643903
978 4 0.194027 0.273612 0.645152
1085 4 0.161622 0.315689 0.662121
805 2 0.390839 0.314109 0.656003
806 4 0.399975 0.291579 0.661845
540 4 0.0459 0.425511 0.57991
1279 2 0.0629071 0.340596 0.592903
3418 2 0.0607687 0.346937 0.652869
3420 4 0.0669219 0.346721 0.628635
1281 4 0.0749278 0.335941 0.614327
992 4 0.0715142 0.399988 0.628936
895 2 0.143743 0.353396 0.656849
991 2 0.0946786 0.390929 0.631489
993 4 0.117843 0.381869 0.634042
896 4 0.131368 0.372575 0.646641
773 4 0.222241 0.41132 0.595452
1204 2 0.251928 0.337617 0.592164
1206 4 0.268637 0.347465 0.607944
1138 2 0.291408 0.351145 0.631262
1139 4 0.287585 0.348027 0.60675
1140 4 0.295232 0.354262 0.655774
807 4 0.381704 0.336639 0.650161
792 4 0.400471 0.351773 0.590066
790 2 0.388119 0.348104 0.611494
791 4 0.375767 0.344434 0.632921
81 1 0.359316 0.361503 0.655374
83 3 0.367845 0.363913 0.63393
84 3 0.33672 0.356323 0.654377
803 4 0.484469 0.377927 0.585855
1137 4 0.0322507 0.434391 0.590591
1135 2 0.01058 0.430377 0.6024
2130 4 0.126753 0.488359 0.665137
2434 2 0.240436 0.49072 0.637249
2436 4 0.259306 0.474485 0.634893
1455 4 0.277142 0.47997 0.626993
1453 2 0.293439 0.488064 0.609845
1454 4 0.309737 0.496158 0.592697
2213 4 0.359622 0.447449 0.657311
3181 2 0.380173 0.489005 0.604958
3183 4 0.377263 0.476219 0.626247
2212 2 0.361751 0.42547 0.669038
3082 2 0.031039 0.00771402 0.733724
3084 4 0.0471194 0.0250462 0.725588
3591 4 0.041594 0.0433528 0.729621
3589 2 0.0469168 0.0651953 0.740565
1154 4 0.14963 0.0555941 0.675142
1283 4 0.145366 0.0362443 0.671608
1284 4 0.114551 0.0221316 0.708378
1282 2 0.129959 0.0291879 0.689993
964 2 0.327303 0.0135385 0.697872
2322 4 0.300046 0.00630333 0.723614
966 4 0.343718 0.0285548 0.68646
1003 2 0.366132 0.0537589 0.671063
1005 4 0.356651 0.0306503 0.6722
953 4 0.427436 0.0107808 0.686812
952 2 0.438041 0.0286854 0.67295
2254 2 0.235794 0.128867 0.686934
1022 4 0.218044 0.165991 0.691541
2256 4 0.218227 0.146642 0.686134
1021 2 0.201572 0.166469 0.710347
1023 4 0.185101 0.166946 0.729152
2255 4 0.253361 0.111092 0.687735
832 2 0.0100565 0.174713 0.717431
834 4 0.0245254 0.188509 0.732448
154 3 0.0107171 0.201119 0.741273
1259 4 0.154133 0.171962 0.669599
1258 2 0.15319 0.191488 0.685188
1260 4 0.152247 0.211014 0.700777
1299 4 0.157915 0.227469 0.690016
1297 2 0.163036 0.241863 0.709809
3401 4 0.452814 0.234836 0.732835
3400 2 0.465878 0.21352 0.733151
3402 4 0.478943 0.192203 0.733467
1011 4 0.47804 0.172439 0.732927
3386 4 0.0169174 0.295012 0.668869
3039 4 0.0138457 0.301341 0.688253
884 4 0.0624135 0.311708 0.745217
3037 2 0.03191 0.318484 0.690485
815 4 0.0492832 0.326144 0.740461
883 2 0.0799546 0.294812 0.750874
1068 4 0.161751 0.270766 0.742887
1298 4 0.168157 0.256257 0.729602
1044 4 0.300454 0.327484 0.729587
1042 2 0.309985 0.315748 0.749503
3419 4 0.0546155 0.347154 0.677103
3038 4 0.0499744 0.335627 0.692717
897 4 0.156118 0.334217 0.667058
1098 4 0.154776 0.40836 0.725863
941 4 0.136979 0.404331 0.717562
1096 2 0.177049 0.39776 0.729957
1097 4 0.199321 0.387161 0.73405
1278 4 0.202962 0.372991 0.7206
1276 2 0.226691 0.365118 0.720271
1277 4 0.250421 0.357245 0.719943
798 4 0.301268 0.355562 0.675332
797 4 0.264474 0.348838 0.708524
796 2 0.282871 0.3522 0.691928
85 3 0.362363 0.380752 0.667157
2214 4 0.36388 0.40349 0.680766
82 3 0.370424 0.344333 0.665909
1016 4 0.37522 0.363376 0.716028
1017 4 0.38111 0.406434 0.691288
1015 2 0.378165 0.384905 0.703658
1019 4 0.382308 0.359364 0.733367
1983 4 0.143272 0.502675 0.665918
940 2 0.133225 0.417388 0.696572
942 4 0.129471 0.430445 0.675581
2128 2 0.119593 0.465192 0.671237
2129 4 0.112433 0.442025 0.677337
2009 4 0.354483 0.501797 0.695615
2049 4 0.0252567 0.0160174 0.829706
2047 2 0.037294 0.00710822 0.809683
2313 4 0.0113407 0.00193992 0.83272
909 4 0.191437 0.999799 0.777372
911 4 0.190788 0.00692225 0.796547
3053 4 0.460059 0.0012369 0.81432
4080 4 0.449563 0.998616 0.797557
3590 4 0.0522396 0.0870377 0.751508
948 4 0.0510763 0.0884233 0.770628
946 2 0.0686812 0.101907 0.78218
851 4 0.0888497 0.118506 0.812599
947 4 0.0862861 0.11539 0.793732
850 2 0.108619 0.128981 0.823764
852 4 0.128387 0.139456 0.834929
35 3 0.141605 0.146717 0.819815
31 1 0.149996 0.164491 0.831318
870 4 0.102194 0.163045 0.770658
34 3 0.173065 0.162653 0.833005
3147 4 0.48442 0.120132 0.776759
1192 2 0.476729 0.137844 0.821919
1193 4 0.467777 0.143524 0.799275
1010 4 0.448073 0.148828 0.765256
1009 2 0.463057 0.160633 0.749091
151 1 0.003383 0.207142 0.762447
924 4 0.0224027 0.239332 0.77945
152 3 0.0190043 0.221025 0.772057
922 2 0.0446379 0.246116 0.770244
869 4 0.131425 0.183662 0.805604
33 3 0.144393 0.184259 0.820536
868 2 0.116809 0.173353 0.788131
1090 2 0.192472 0.230571 0.815132
52 3 0.21917 0.219831 0.831152
1092 4 0.185181 0.242749 0.794547
1093 2 0.276248 0.249815 0.825671
923 4 0.0668732 0.252899 0.761037
885 4 0.0974957 0.277916 0.756532
1067 4 0.116519 0.279771 0.76222
1066 2 0.139135 0.275268 0.752553
840 4 0.151968 0.302304 0.804333
1209 4 0.160275 0.313205 0.788973
838 2 0.16767 0.283108 0.801149
839 4 0.183372 0.263913 0.797965
3347 4 0.299895 0.258052 0.788975
1094 4 0.28996 0.251763 0.804853
3328 2 0.290963 0.306964 0.802751
3330 4 0.305412 0.301354 0.783131
3329 4 0.276515 0.312574 0.822371
1043 4 0.319515 0.304012 0.769418
3346 2 0.323574 0.265431 0.785807
3348 4 0.347252 0.27281 0.782639
1051 2 0.362476 0.290936 0.816115
1052 4 0.36052 0.273244 0.798556
188 3 0.459491 0.313393 0.774281
4209 4 0.0618156 0.34007 0.788736
4207 2 0.0636708 0.335377 0.813225
814 2 0.0520266 0.341358 0.760113
816 4 0.0547699 0.356572 0.779764
1207 2 0.161519 0.337194 0.795911
1208 4 0.162764 0.361184 0.802848
1064 4 0.215704 0.393672 0.791165
57 3 0.218257 0.374725 0.786131
56 1 0.240391 0.368487 0.785557