LAMMPS data file via write_data, version 19 Nov 2024, timestep = 10000, units = lj

32 atoms
4 atom types
22 bonds
1 bond types
15 angles
2 angle types

-2.068243 2.068243 xlo xhi
-2.068243 2.068243 ylo yhi
-2.068243 2.068243 zlo zhi

Masses

1 1
2 1
3 0.1
4 0.1

Bond Coeffs # harmonic/omp

1 100 0.45

Angle Coeffs # harmonic/omp

1 100 180
2 100 109.471

Atoms # full

11 3 4 0 -1.1559576644184009 -1.1733695535347342 0.18433450786646846 0 0 0
9 3 2 0 -1.1695137733777967 -1.036196049072557 0.6238335552603109 0 0 0
10 3 4 0 -1.1799835150686733 -0.8869445071898835 1.0750875623333531 0 0 0
1 1 1 0 -0.679613778330943 -0.045663651480661926 1.4896855800731648 0 0 0
5 1 3 0 -1.0226699721236454 -0.3454945405179346 1.543397901090209 0 0 0
3 1 3 0 -0.28699960991399914 -0.22680096768281877 1.6712764675091047 0 0 0
13 4 4 0 -0.741885033196812 0.2230267412164239 -1.4349049802805447 0 0 0
12 4 2 0 -1.054739588322705 0.4960978198347292 -1.5631451852879685 0 0 0
14 4 4 0 -1.3694044682843889 0.7714515896908674 -1.7049884183251256 0 0 0
16 5 4 0 -1.7465915295573642 1.1033811115192538 1.4192745058986382 0 0 0
15 5 2 0 -1.418992993302442 1.3647255872523296 1.1864437593435864 0 0 0
17 5 4 0 -1.1008579231782114 1.6156381522600511 0.9454490693005837 0 0 0
4 1 3 0 -0.7798781145388997 0.3427914366983068 1.6926566000268004 0 0 0
2 1 3 0 -0.618625879708326 0.03354701680590201 1.0641973853300626 0 0 0
8 2 4 0 2.020511800719441 -1.066728770610829 -1.3694290861428051 -1 0 0
25 8 4 0 0.16422718413479845 -1.8533242177751696 -1.7369501474802311 0 0 1
20 6 4 0 0.26256373083384243 -0.38469415787958083 -0.5028520380338335 0 0 0
24 8 2 0 0.36375039119070685 -1.5197323624986958 -1.4673392344853995 0 0 1
22 7 4 0 0.42561864341259137 -0.7644320115018822 -0.4894643271656024 0 0 0
6 2 2 0 1.6171857510178709 -1.1202470148639623 -1.5665925391072235 -1 0 0
7 2 4 0 1.2188616799865633 -1.171685610264048 -1.77677705269434 -1 0 0
26 8 4 0 0.5555383817440378 -1.1925603747613522 -1.2065566634487386 0 0 1
21 7 2 0 0.29766571492249216 -1.0387175637917339 -0.15773161450196171 0 0 0
18 6 2 0 0.16731692656858274 -0.04124093562094989 -0.7598805090942299 0 0 0
23 7 4 0 0.17601236779430907 -1.2960804966501607 0.15939475664411187 0 0 0
29 9 4 0 0.1698204335466257 1.8921645131902007 -1.7694529683177804 0 0 0
19 6 4 0 0.06344211217064233 0.3230950464631168 -1.0295815553698733 0 0 0
30 10 2 0 0.2109630992437519 0.8593866666336816 1.110678970752611 0 0 0
31 10 4 0 0.2156450322750333 0.6878309995224645 0.6911895166966696 0 0 0
27 9 2 0 0.12076333505121792 1.6350539935198316 1.9951809739046127 0 0 -1
28 9 4 0 0.07103224593965267 1.392310393466569 1.6553714357869616 0 0 -1
32 10 4 0 0.20067133379744675 1.0202265902337153 1.5230669491399624 0 0 0

Velocities

11 0.24175411149280787 -1.0399883037740627 0.7646492802872231
9 0.2941502925733937 0.15897866405918581 0.12576467991277657
10 0.31546231835627103 -0.36672203696719197 -0.5918343137243981
1 -0.035496613642285825 0.021219360740169998 0.3786369592666428
5 1.516258604613297 -0.428234243511026 0.1545041464211252
3 -0.536610810583877 -0.7733691270573304 0.756982245475917
13 -0.4671157241791751 0.22347509303408686 1.3277776444566718
12 0.11699004732873683 0.5435677540615295 -0.2586665429413023
14 -1.3140666965184296 0.5202963888991528 -0.1620305867155168
16 0.9147971946795106 -1.1344572080650577 0.052093087205066335
15 -0.17122076000754088 -0.4269821376201003 0.254245337869435
17 -0.035885654129231115 0.47595205715546185 0.35708424221851764
4 1.7262928012773402 -0.06322512626677143 0.1365694025421563
2 -0.8457396439802052 0.3672828557000156 0.6815526804170977
8 0.41884052614766254 1.1328196198909302 -0.6143608874710391
25 -0.22577821098165407 -0.8900155998835214 -0.9096008772114026
20 -0.7767323699934193 -0.6052811067064403 -0.7614440903645611
24 -0.21509646920910913 0.09902218468216675 0.020519068074463267
22 0.2216719423534374 -0.5837294746775189 0.5307440556073765
6 -0.5222691029763354 0.17642517588370726 -0.037461205684755486
7 0.3590878322124128 0.1026948247507927 0.4516928260649978
26 0.5902615971502728 -0.6629252577001111 0.21622050776155993
21 0.2626824797783215 -0.07641515185395979 0.13574547933337286
18 -0.03279571782984125 0.13591589077679175 0.17799883634574407
23 -0.436385170082345 0.7546442384676946 -0.08505481890234325
29 -0.8215391896121944 -0.9180470014965878 0.3445462217519415
19 1.5321330503858985 0.36468153009440774 -0.008883457782379225
30 0.134266253790409 0.07375042006691111 0.014203038759807097
31 -0.7199823047567594 -1.62510350474408 0.44754027401211866
27 0.06675347291240814 -0.19097999332991267 0.30132458663476247
28 0.1891158249968206 -0.793935780590865 -0.3245780214908308
32 0.32420974400849906 -0.5609605095605468 -0.8998230832014467

Bonds

1 1 9 10
2 1 9 11
3 1 1 2
4 1 1 3
5 1 1 4
6 1 1 5
7 1 12 13
8 1 12 14
9 1 15 16
10 1 15 17
11 1 24 25
12 1 24 26
13 1 6 7
14 1 6 8
15 1 21 22
16 1 21 23
17 1 18 19
18 1 18 20
19 1 30 31
20 1 30 32
21 1 27 28
22 1 27 29

Angles

1 1 10 9 11
2 2 2 1 3
3 2 2 1 4
4 2 2 1 5
5 2 3 1 4
6 2 3 1 5
7 2 4 1 5
8 1 13 12 14
9 1 16 15 17
10 1 25 24 26
11 1 7 6 8
12 1 22 21 23
13 1 19 18 20
14 1 31 30 32
15 1 28 27 29
