LAMMPS data file via write_data, version 19 Nov 2024, timestep = 200000, units = lj

160 atoms
4 atom types
110 bonds
1 bond types
75 angles
2 angle types

-3.758247 3.758247 xlo xhi
-3.758247 3.758247 ylo yhi
-3.758247 3.758247 zlo zhi
7.487344078072056e-12 0 0 xy xz yz

Masses

1 1
2 1
3 0.1
4 0.1

Bond Coeffs # harmonic/omp

1 100 0.45

Angle Coeffs # harmonic/omp

1 100 180
2 100 109.471

Atoms # full

14 3 3 0 -1.9361351322639433 -3.0113906823960495 -3.6174692155009405 1 1 1
114 35 4 0 -2.3159354177929226 -3.003958214685039 -3.7225309770861057 1 0 0
15 3 3 0 -1.2131471287347972 -3.1687608928902105 -3.654743195964403 1 1 1
11 3 1 0 -1.5024476436615846 -2.84404985570021 -3.698923467048981 1 1 1
13 3 3 0 -1.4131933620317687 -2.5026914944520677 -3.3919205282176703 1 1 1
99 30 4 0 -1.1112938006849578 -2.4222245682705577 -3.144200751818781 1 0 0
98 30 2 0 -0.8289706753301282 -2.071331938399704 -3.2590826066435006 1 0 0
100 30 4 0 -0.5479294807479609 -1.7322934711873845 -3.3700111309912124 1 0 0
70 20 4 0 -0.20758183339207115 -1.5792731483258033 -3.5008563804667197 1 0 1
81 24 4 0 -3.045051169642612 -0.3722059291488531 -3.0032959369196655 1 0 1
80 24 2 0 -3.3941421577174276 -0.5862110544941803 -2.8307505381569498 1 0 1
123 38 4 0 -2.661807170134483 -0.4909233806453708 -3.0365856389838233 2 0 1
124 38 4 0 -1.9463369180599015 -0.6125101359939542 -3.5772608811891837 2 0 1
122 38 2 0 -2.293341842187628 -0.5511913029733075 -3.316614278226431 2 0 1
42 11 4 0 -1.5722608396424547 -0.5911780377245854 -3.716398149063883 1 0 1
82 24 4 0 -3.7426855772372845 -0.8068702757275807 -2.65456552191874 1 0 1
146 46 2 0 -0.2252187513102073 -3.3725712781633885 0.5768624793483639 2 1 1
147 46 4 0 -0.5797590906143606 -3.670609994087703 0.5537758731309532 3 1 1
145 45 4 0 -3.1096112289139435 -0.5967852626985284 0.9023728878970756 1 0 1
143 45 2 0 -2.6472055659281217 -0.4872457139429942 0.9105298258345833 1 0 1
144 45 4 0 -2.2078184084778085 -0.38928871626067707 0.921038930526402 1 0 1
152 48 2 0 -1.3641777200541494 -0.2753119700299158 0.9044789536766693 1 0 1
154 48 4 0 -0.9224931319165148 -0.20698304329610862 0.8187201659419294 1 0 1
29 7 2 0 -0.5854350102752393 -2.139070957034208 1.6421635902350094 1 0 -1
31 7 4 0 -0.5723251843816586 -1.8850438302607695 1.2684906547508676 1 0 -1
109 33 4 0 -0.2399895346779397 -1.7031363417936376 1.1666964760713237 1 0 0
127 39 4 0 -3.474677584650391 -0.6615843462072806 1.0258555651438446 1 0 0
153 48 4 0 -1.8135812149907566 -0.3485290726442756 0.9918551588643876 1 0 1
97 29 4 0 -3.2231002815879184 -3.5038619779615305 2.6489618758393183 1 0 0
95 29 2 0 -2.978995375093853 -3.165362735088482 2.4627556412568916 1 0 0
37 9 4 0 -3.534351061539126 -3.737903261875161 2.624705133556536 0 0 -1
96 29 4 0 -2.7519480806317076 -2.8409548594421983 2.2825741507450816 1 0 0
61 17 4 0 -2.471515436409824 -2.59247999039117 2.123448636797238 1 0 1
59 17 2 0 -2.144574052117898 -2.295781476838961 2.2857174058031235 1 0 1
60 17 4 0 -1.821567219620481 -2.0158091871226373 2.4457172907245903 1 0 1
53 15 2 0 -0.9889069872448406 -2.471669075001535 2.746961837450854 0 1 0
54 15 4 0 -0.6912321173337053 -2.4063211998552063 2.4179779460816357 0 1 0
30 7 4 0 -0.5921627768269269 -2.3958826659444528 2.0208588489526687 1 0 -1
111 34 4 0 -1.7222025054109906 -1.6351773429151075 2.3357578270493713 1 0 0
110 34 2 0 -1.459895082476693 -1.330727118354861 2.56124074580928 1 0 0
112 34 4 0 -1.181296476666557 -1.0190916253527864 2.787976841837305 1 0 0
24 5 3 0 -0.8634720125778528 -0.7567296425685193 2.7344410549375393 2 1 0
23 5 3 0 -0.6884602744669359 -0.4521311649838 2.1003190760001518 2 1 0
21 5 1 0 -0.6504531144207042 -0.4181955705307434 2.5469520732980966 2 1 0
22 5 3 0 -0.2302427605717119 -0.42547164303808405 2.6576625293862994 2 1 0
25 5 3 0 -0.8270424139459012 -0.05046848635143242 2.6800453897033423 2 1 0
115 35 4 0 -2.7396525849997113 -3.6220651974186606 3.310966608491931 1 0 -1
113 35 2 0 -2.528795364741306 -3.321711916578182 3.5487758396240787 1 0 -1
12 3 3 0 -1.4794379892864509 -2.6848434328462565 3.4024739452222654 1 1 0
55 15 4 0 -1.2853975439945833 -2.537358688760973 3.082510961965381 0 1 0
41 11 2 0 -1.334726817831327 -0.663521472554804 3.4223064081468033 1 0 0
43 11 4 0 -1.0984965644102846 -0.7253315030261778 3.067522028597348 1 0 0
128 40 2 0 -3.360958850994458 0.5912345099538845 -3.336399860996455 2 0 1
130 40 4 0 -3.065498745904503 0.8175978317812875 -3.1118542988158526 2 0 1
129 40 4 0 -3.668154621429144 0.3532299472625384 -3.5737663298136773 2 0 1
65 19 2 0 -1.1091362654450183 0.3886092639771963 -3.2177226068484184 1 1 0
66 19 4 0 -1.0576543241016818 0.558220098227312 -3.6412987378577855 1 1 0
121 37 4 0 -2.764885462088777 1.0695698444054198 -3.2174254404106954 2 0 1
119 37 2 0 -2.3701046922443325 1.3065884799744145 -3.1835300674527143 2 0 1
120 37 4 0 -1.9713890853831169 1.5381800489792132 -3.142198003808218 2 0 1
93 28 4 0 -1.5934924584983072 1.5644694408339275 -3.180937236526753 2 0 1
92 28 2 0 -1.15106926228894 1.667779865240818 -3.2301845170185066 2 0 1
94 28 4 0 -0.7011063218673326 1.7736294619912876 -3.2793167036178517 2 0 1
78 23 4 0 -0.4672288979519825 1.7690124778575615 -2.958471894827659 2 0 1
77 23 2 0 -0.041260408776176316 1.5994408087689562 -2.9294856394904536 2 0 1
67 19 4 0 -1.1505992765649244 0.22293089394207755 -2.8138307716831528 1 1 0
19 4 3 0 -0.15138850177539975 0.4609814630120823 0.5304645492878084 1 0 1
16 4 1 0 -0.2855257226643748 0.2870049250085698 0.9087204890805083 1 0 1
17 4 3 0 -0.6715559603624746 0.10939938745334699 0.8565853725172436 1 0 1
141 44 4 0 -3.6092089709969573 1.925255071604358 0.18842960757966098 2 0 0
140 44 2 0 -3.2210268968708684 2.001379765178126 0.3974356759881337 2 0 0
142 44 4 0 -2.843733829954191 2.077575497744486 0.5985416736027451 2 0 0
137 43 2 0 -2.176073191052396 2.5807375088514792 0.7340595236406573 2 0 0
139 43 4 0 -2.5433635529651246 2.3384494506968885 0.6494263011264509 2 0 0
138 43 4 0 -1.8018055207009374 2.8230498206530017 0.8275333745595344 2 0 0
155 49 2 0 -1.1098315102958587 3.2782254341071786 0.7949086923386286 3 1 1
156 49 4 0 -1.4463925460350784 2.9880964575182327 0.8170501359585076 3 1 1
157 49 4 0 -0.7617919046155923 3.568464760450925 0.778285745810205 3 1 1
74 22 2 0 -1.2167798257220235 0.6973206050642773 1.872941764510391 1 1 0
75 22 4 0 -1.542006673054412 0.5478230426060771 1.5895992731065034 1 1 0
20 4 3 0 -0.309455071121592 0.6218051110974372 1.2255092961091636 1 0 1
76 22 4 0 -0.8994119494990396 0.8438428887456304 2.1543357889703874 1 1 0
64 18 4 0 -0.8793498757156173 0.3396500443536459 2.726524712227037 1 1 -1
33 8 4 0 -0.5752820899451581 1.0886254156122028 2.092625019493788 1 0 0
32 8 2 0 -0.13636358977098295 1.1739862902306468 2.0173065590429244 1 0 0
62 18 2 0 -0.8536394141425689 0.5261894527802591 3.1304340458334314 1 1 -1
63 18 4 0 -0.8269617017974875 0.7176295062787847 3.5472371879570312 1 1 -1
160 50 4 0 1.4866035402951407 -0.27243458340326043 -3.47186008295223 1 1 1
158 50 2 0 1.909806754977736 -0.3159325514319722 -3.598924335662457 1 1 1
159 50 4 0 2.345519945598827 -0.3582386917563243 -3.7195815673127193 1 1 1
103 31 4 0 2.7097861400524117 -0.20102809181973003 -3.7517877736243164 1 0 0
87 26 4 0 2.7122483341403383 -0.815112979808712 -2.0201564502962857 0 0 1
88 26 4 0 3.551761818565253 -0.8859024285415753 -2.3111367174565096 0 0 1
86 26 2 0 3.1428060621360814 -0.8491913609079851 -2.1692217154266222 0 0 1
135 42 4 0 2.668845186432905 -0.9271859773542959 -1.6527446061075888 1 0 0
134 42 2 0 2.395557242736831 -0.8365568874017568 -1.2823016619670957 1 0 0
4 1 3 0 1.3476770011044987 -0.5182040198481705 -0.24544420298601466 0 0 0
1 1 1 0 1.7907305741321444 -0.48242741914021225 -0.23202527458271804 0 0 0
117 36 4 0 0.9729553214687225 -0.4834094836796412 -0.09228683479300415 1 0 1
3 1 3 0 1.959069194416399 -0.5435848047032481 -0.652237545810038 0 0 0
5 1 3 0 1.8948059431107245 -0.07179147264878694 -0.08869420383603455 0 0 0
136 42 4 0 2.1395352415078523 -0.754827689161806 -0.9255990971792518 1 0 0
148 46 4 0 0.12215967826794971 -3.0829120412212045 0.5962637922497587 2 1 1
51 14 4 0 0.3987071470175554 -2.807648734582064 0.6902401160026788 1 1 1
50 14 2 0 0.793114031334559 -2.6256377888874067 0.6236071762957742 0 1 1
44 12 2 0 1.7139002031524502 -1.983016306475289 0.6715726494524326 0 1 1
52 14 4 0 1.2094416618127193 -2.435686099771231 0.5479155949631958 0 1 1
45 12 4 0 1.5215234763350933 -2.2585395216248347 0.37991842098770245 0 1 1
108 33 4 0 0.3720053351957322 -1.3258041813549117 0.6447492556895558 1 0 0
118 36 4 0 0.5264337724563815 -0.9738647842016461 0.5062872784958206 1 0 1
107 33 2 0 0.06389204744831734 -1.514668727474365 0.9007317184880224 1 0 0
56 16 2 0 2.5610302437034234 -1.1821275275642513 0.8594550008508914 0 1 0
57 16 4 0 2.2551553258523036 -1.5063497497069815 0.9033561862885229 0 1 0
116 36 2 0 0.7463234473142615 -0.7336846745036425 0.20782876296015518 1 0 1
2 1 3 0 1.9601825741605161 -0.7897172969812409 0.0585196591529491 0 0 0
58 16 4 0 2.8642072659064732 -0.8468544237950377 0.8180481064207212 0 1 0
46 12 4 0 1.9148109247701814 -1.693869000170567 0.9749646454252225 0 1 1
90 27 4 0 0.38375045937712127 -0.06387249254671756 1.2108288736857702 1 1 0
18 4 3 0 0.01778867685404517 -0.03444986491858426 1.051651555584388 1 0 1
126 39 4 0 3.181985876197669 -0.8907765775319154 1.0573664580585724 0 0 0
125 39 2 0 3.6073657816750115 -0.7774200825698014 1.037913783254548 0 0 0
68 20 2 0 0.007574537145572435 -1.250537504963042 3.7405982792555017 1 0 0
69 20 4 0 0.2037049899637764 -0.9454703205377788 3.48571871862696 1 0 0
39 10 4 0 0.10643105122732877 -0.28261708795128415 2.8342648157131576 1 0 0
71 21 2 0 0.8222278521427286 -0.46988522425029533 3.742856080067404 1 1 -1
72 21 4 0 0.4395148545681469 -0.7051343406124797 3.730556898060743 1 1 -1
73 21 4 0 1.214120432914453 -0.2347850989186293 3.751758623342184 1 1 -1
79 23 4 0 0.3702359504391861 1.4382570973270346 -2.9036358326290355 2 0 1
151 47 4 0 1.8744944764967508 1.753597859710493 -3.019139871016807 1 0 1
105 32 4 0 1.5818365400072532 1.4772152532941805 -2.96982247178128 1 -1 1
104 32 2 0 1.152922749715172 1.4713005437179545 -2.8632131984673492 2 -1 1
149 47 2 0 2.2175971063780615 1.6516766655034667 -3.274523705694379 2 0 1
150 47 4 0 2.5612054895532648 1.5540699561548141 -3.537068555706434 2 0 1
106 32 4 0 0.7345407134642317 1.466965769909776 -2.765886528106662 2 -1 1
26 6 2 0 2.5934890365321728 0.4419134825051678 -0.19966561158536988 0 0 0
28 6 4 0 2.2238314229759704 0.1679240997706546 -0.10404269018693268 0 0 0
27 6 4 0 2.9629521900776252 0.7159664028953694 -0.30122850416967983 0 0 0
132 41 4 0 3.1991643247446566 1.0384374019844547 -0.3804580451556916 1 0 0
131 41 2 0 3.40422190682121 1.3777951328509888 -0.19605938048151916 1 0 0
133 41 4 0 3.623734062062847 1.73150912397183 -0.009737643420055786 1 0 0
89 27 2 0 0.6271466164877824 0.17168823341725714 1.5228090531445977 1 1 0
91 27 4 0 0.8595950928157245 0.3875962864000053 1.8207532613434179 1 1 0
7 2 3 0 0.9298401349915597 0.7404997086062375 2.7199567986931212 1 0 0
40 10 4 0 0.6904078191716811 0.4253954970221523 2.7636452401971807 1 0 0
38 10 2 0 0.39585662604178573 0.07424775469673062 2.7972293190159414 1 0 0
10 2 3 0 1.0808674023859037 0.664032691760716 2.0049521899392966 1 0 0
6 2 1 0 0.9235029814699054 0.9456312099809532 2.3142139204640557 1 0 0
8 2 3 0 0.5086375037968436 1.052414717334849 2.2080928099139765 1 0 0
34 8 4 0 0.2955783320487857 1.2676433804689982 1.9496266680825896 1 0 0
9 2 3 0 1.163434998529052 1.3004092315421207 2.332268094786979 1 0 0
84 25 4 0 1.4548731546527263 1.2923672704116225 2.6067728073116516 1 0 0
83 25 2 0 1.7697607168525842 1.6341446175546812 2.604455306668954 1 0 0
85 25 4 0 2.0888396300764356 1.9728851471703424 2.600720065111668 1 0 0
47 13 2 0 2.6413286161992966 2.652269503547746 2.5288465043443136 1 -1 0
49 13 4 0 2.324735297214687 2.3067706545165167 2.605133372012001 1 -1 0
48 13 4 0 2.9416796251645225 2.984199391672349 2.466187179087062 1 -1 0
35 9 2 0 3.6178064732715383 3.503307133320983 2.5737697768409324 -1 -1 -1
36 9 4 0 3.2528665335766176 3.2319480480978013 2.522327969036164 1 -1 -1
102 31 4 0 3.511936371960476 0.24860308969781197 3.728281381441609 1 0 -1
101 31 2 0 3.1197211574736885 0.030952823652792727 3.74839398224863 1 0 -1

Velocities

14 -0.16162011013147556 0.650336850024975 0.12554717979111463
114 -1.026687913147176 0.4116152758939458 1.0867470253035483
15 0.5311555861336267 -0.5703226390932227 -0.035973942757213745
11 0.10602588609814889 -0.38171379411683515 -0.020551623317692613
13 0.22166221996354574 -0.35142598322417223 0.6878410803608872
99 0.016515539383647616 -0.8450179219218937 0.22314084362233072
98 0.09145808324029117 -0.16639873352863058 0.12189049289539393
100 -0.35721748066145403 -0.8415537226451052 -0.5011893278000897
70 0.23072941721544935 0.48933459209072716 0.40950397183589893
81 -0.5475244503916767 0.9636641151160088 0.3492747525920213
80 0.28008751928899145 0.01107888438471533 -0.00821249056195994
123 -0.269052241645764 -0.15020698429685306 0.04812878854931191
124 -0.1015523076377329 -0.05384301489936906 0.39664765475356967
122 0.11026526530619082 -0.06274404029676067 -0.04263814586413896
42 0.18445629249629153 -0.019994644510969734 0.02200074304166414
82 -0.007144220398175735 0.4462359461353983 -0.28762066033447176
146 -0.24694667899140862 0.04451967326704504 0.12869639631389726
147 -0.01675628150706782 0.9704434925002785 0.7116744795378354
145 0.6457621612285285 -0.6941140404690495 -0.8981216916250172
143 -0.3672261038561364 -0.05899684399124348 0.10659175884692171
144 -0.2861746858409744 -0.3169690694295221 0.13952903439960362
152 -0.2020379068401376 0.1436639786223853 0.0406893310565372
154 1.208455905457832 0.5060294918625926 -0.17958845507061585
29 0.24823801977873058 -0.2499663184571574 0.22747256183078504
31 -0.6035700338092385 0.38252115748985754 -0.9669313967451852
109 -0.4459614249637461 -0.5971592305540561 -0.6031169003762828
127 0.35258373038805235 -0.32813359099922595 0.24515342260163708
153 -0.80207009274596 -0.09671333590302308 -0.04825569536195047
97 0.8067863190372919 1.2941078789210856 0.2837211427544585
95 0.03006621882439305 0.06570278688269028 -0.12458916661484716
37 0.7798831128712364 0.47758062563590253 0.4456432640625677
96 -0.4280439150400947 -0.2863255766160935 0.6747371032946226
61 -0.36590701389077396 0.564286093183659 -0.33975089175272766
59 0.17488825153429646 -0.36573361956347555 0.31889978237811983
60 -0.7072577295639119 0.36340671525407103 -1.1698542481509806
53 -0.23169584221147027 -0.2666424947754477 -0.11899064998506023
54 0.25693119405605347 0.27451864623358224 0.3035590312646289
30 -0.6825962698548524 0.07097753633087779 0.2679855246369008
111 -0.19537856145604182 0.24301174139661938 -0.13238165020307668
110 -0.18577633605613914 0.08259552350732625 -0.10261625588992301
112 -0.1903686858132318 1.1723522192947207 0.6932558244658064
24 -0.9542843722496086 0.5154371011253099 0.8259748567869029
23 -0.37266731427396566 -0.15577001883657648 -0.15241844927168788
21 -0.2103052835285125 -0.07330609000995193 -0.013290971749061683
22 0.10327193917450311 -0.4650281107997217 -0.7532920013028138
25 1.1543191489953608 0.584838383285126 0.10450882744618709
115 0.8230009447016492 0.6650117285868127 0.293496501177067
113 0.32282036789152324 0.10839440602203564 0.2289980199911945
12 -1.0128786332693507 -0.4231399779696885 0.5268204789385119
55 -0.5418076392879903 0.5632027479654514 0.43569633571462546
41 0.38557926653021407 0.19520986511728627 0.11798581710906986
43 -0.6164549853524998 1.0439529591093528 0.4155025053522342
128 0.049204408656981 0.07003082207052472 0.08488365394271216
130 -0.7061136380260996 -0.6309911367120802 -0.12191011633250204
129 -0.39642351566758166 -0.8930416641920548 -0.6070499167021552
65 -0.1104434964271654 0.06542207748443835 -0.18190318559220472
66 0.08402363637579108 1.0288173989031932 0.39074757570285434
121 0.7030112795729879 0.3087852063038874 -0.3002463021009961
119 -0.06223922526565577 0.21737222257587027 -0.1917673504499791
120 0.21243802104416945 0.45600518025076225 0.7097206823756028
93 -0.44259587762449565 -1.9436093936413128 0.7382802014111879
92 0.18230495328208654 0.22244221450175244 0.2527323025123295
94 0.2885021532748933 0.20196292633286947 -0.01513854862012973
78 -0.6113501238718384 0.213678093184888 -0.4996431575275141
77 0.08920898612107715 -0.22320700148265024 -0.34619461441542676
67 -0.010141926934338415 0.21918839383990363 -0.030282612191068918
19 -0.4086468849359577 0.43691836718117 -0.02024812742215701
16 0.05426669732321559 0.07520646362790973 0.034269350087566944
17 0.2301441233831386 -0.3703985085778166 -0.7108306611341266
141 -0.13724202285139808 -0.5912212802340613 0.367807328451623
140 0.31178819607895725 -0.16975333677530371 0.05570992718524268
142 -0.5051559890649793 0.16617188761890753 0.44022966816255277
137 -0.040658218913454204 0.023482721095790852 0.06937442419408332
139 -0.5388408985127298 0.23409912551238615 0.3036095701395179
138 0.27312263658831615 0.156357116722658 0.46279986581917687
155 -0.00908137594914247 0.2245771390323284 0.1724313264856793
156 0.4006827420795028 -0.6892738404418275 -0.8272262938016921
157 0.5289869065590704 -0.1996999081469314 -0.09575856333965554
74 0.10091981218981196 0.019346671223908034 0.1358630056452448
75 -0.024247035507543098 -0.2270022030925218 -0.43020136308961987
20 0.07285629702358759 0.90123546690053 0.5646733198026708
76 -0.07863610369139573 -0.19795995862323382 -0.7708059704934022
64 0.30686984416492286 -0.5362962007806128 -0.40055860904896656
33 0.6118687193546164 -0.4743635476031255 -0.0030442574354211695
32 0.12187603799629292 -0.12724918120284304 -0.3221985178710718
62 -0.3426665865289727 -0.004249032145415069 0.04218081114658829
63 0.9319448346445175 -0.07676435234056608 -1.262013174554503
160 0.0316305734993219 -0.11986686210767757 -0.424042070776767
158 0.09707795768519004 -0.1300979730340958 -0.14644554237924778
159 0.6607394183497279 -0.26864711036148087 -0.6917590725989966
103 -1.017132436516568 0.6512219078494298 -0.6001492635182709
87 0.4142597480951412 0.3437108631100434 0.4918794747358891
88 0.6543130192702888 0.381642432740746 -0.6608992952308196
86 0.16965701048011245 0.22476297409929186 -0.200693780981837
135 -0.314536522210062 0.14324757589790643 -0.37310032527593073
134 -0.04617390416899734 -0.10435408655468978 0.14115264007957334
4 -1.728030103174315 -0.6537635936420483 -0.7068372738485541
1 -0.20723266882710897 0.14859058880350126 0.20517222329736465
117 -0.14896088369708346 0.2845129107984017 0.0951200692190287
3 -0.4093616512807942 0.37399472546413753 0.44583092914188716
5 -0.15107338719499364 0.33698090950373005 -0.3398119529224697
136 -0.28758889560006223 -0.21004324737524388 -0.31864887243655915
148 0.10976131830935137 -0.3457783211407762 -0.3974642474445556
51 0.1670343832961726 0.4830886449630394 0.4151572283807669
50 0.03343437538096012 -0.11252407629065028 0.11824643906034499
44 0.036700391014725 0.04095899822290394 0.11371979317992223
52 -0.15321220392787682 0.5142525885590068 -0.45948128742457006
45 0.32869691318951066 0.3467122482794366 -0.33244663091763665
108 0.3600866536872298 -0.4321345430515268 0.6053553314597746
118 0.11100031054948759 -0.5725018423355289 -0.07667000188905934
107 0.23942429389259084 -0.11738725857446658 0.03599833763417978
56 -0.2538768764235781 0.10911710258068386 0.09232617998272363
57 0.1322287987903864 0.23889429918640237 0.24299397453618948
116 -0.10854639814905537 0.05839676703762954 0.055078954816235114
2 -0.017473025149114953 0.3780392939332954 0.776661447435053
58 -0.1643000129239956 0.1936147667285702 0.0046362962028674015
46 0.6525551588841082 0.6324186771029514 -0.5142460652439936
90 0.14941076402493345 0.9054016219399555 -0.6474598928903506
18 -0.7562412096276773 -0.0831308216287379 0.3384350691318819
126 -0.8074979227348672 -0.8622943184740927 0.09502771771554946
125 -0.13896625176611394 -0.17972376036011958 0.08685271250701503
68 0.15485955367585244 -0.18134676908682887 0.08396063328182242
69 0.028300264126142744 0.2325033374365573 0.4036489452631681
39 -0.04470793732176882 -0.5087712351044519 0.1556445900264917
71 0.1786922398487625 0.017878907471684594 0.03151833327643041
72 -0.7226388664187645 -0.31236931715382404 0.6838532004964487
73 -0.05058166360487033 0.6147842769475115 0.002623836578376039
79 0.8607291675541441 0.181310788419669 0.21445086824584894
151 -0.0055638053337775245 -0.7646674695217226 0.12318586490387937
105 0.13181918138101154 0.557033642292181 -0.1312796438417792
104 -0.158549170219535 0.16742391082126723 -0.15724564029048188
149 0.1288870157930173 -0.15786274996421876 -0.002415830564887554
150 -0.4390636341294488 -0.1789571368231468 -0.6442286833573234
106 0.7710324711569897 -0.31410883204736745 -0.729728974058006
26 -0.24103705156562577 -0.062213927263794044 -0.10517318078690308
28 0.2908115449475397 0.7315591701054586 -0.1620694970758338
27 -0.5723863433093855 0.6739757772155253 -0.3501830676941328
132 -0.8884091722591677 0.8010669417140143 -0.21027143210711471
131 0.03406988349747912 -0.19371845999528498 -0.18015457904192694
133 -0.4122034695602642 0.7419972109364806 -0.34347158034812264
89 0.014012460101349638 0.033271383678009706 -0.4777011796605981
91 -0.46232395304101365 0.6916615672728953 0.5834576921221517
7 0.1671158448585845 0.12406744156905755 -0.4634355821421985
40 0.20686956418546618 0.7558817231937282 -0.5233871702512318
38 0.07497267238796981 0.43919171875191265 0.3050072427175858
10 -1.1325231265339595 0.0666577556081224 0.10396237140970022
6 0.15320857466050442 -0.02670420429860705 0.11062899260524658
8 -0.9058927424855284 -0.3184464339461794 -0.1635335461279651
34 0.1918052408651518 -0.8255987031099178 0.3114054753931125
9 0.25867391990798116 0.28565826271600053 -0.7248365195872286
84 -0.9695552803744363 0.3576224498366326 -0.4258893037398389
83 0.3374857168766509 -0.2176137327728594 -0.16815909635293813
85 -0.24418469650336916 0.3019918987007256 0.6776751220624814
47 -0.07616189568461387 0.10162350054697286 -0.3627139060074751
49 -0.09351985147314712 0.12927555468430868 -0.17397885395772095
48 -0.3635451081374714 0.2084478257184303 -0.11448452703887846
35 0.05216960998225088 0.13699931759297457 0.05707258176067088
36 0.5388013345121332 0.39613583689557763 -0.4805381145931209
102 -0.5539302940692997 -0.40378701100518016 -0.25062679464662774
101 0.16652713608890501 -0.09844153338822029 0.37160712540962515

Bonds

1 1 11 12
2 1 11 13
3 1 11 14
4 1 11 15
5 1 98 99
6 1 98 100
7 1 80 81
8 1 80 82
9 1 122 123
10 1 122 124
11 1 146 147
12 1 146 148
13 1 143 144
14 1 143 145
15 1 152 153
16 1 152 154
17 1 29 30
18 1 29 31
19 1 95 96
20 1 95 97
21 1 59 60
22 1 59 61
23 1 53 54
24 1 53 55
25 1 110 111
26 1 110 112
27 1 21 22
28 1 21 23
29 1 21 24
30 1 21 25
31 1 113 114
32 1 113 115
33 1 41 42
34 1 41 43
35 1 128 129
36 1 128 130
37 1 65 66
38 1 65 67
39 1 119 120
40 1 119 121
41 1 92 93
42 1 92 94
43 1 77 78
44 1 77 79
45 1 16 17
46 1 16 18
47 1 16 19
48 1 16 20
49 1 140 141
50 1 140 142
51 1 137 138
52 1 137 139
53 1 155 156
54 1 155 157
55 1 74 75
56 1 74 76
57 1 32 33
58 1 32 34
59 1 62 63
60 1 62 64
61 1 158 159
62 1 158 160
63 1 86 87
64 1 86 88
65 1 134 135
66 1 134 136
67 1 1 2
68 1 1 3
69 1 1 4
70 1 1 5
71 1 50 51
72 1 50 52
73 1 44 45
74 1 44 46
75 1 107 108
76 1 107 109
77 1 56 57
78 1 56 58
79 1 116 117
80 1 116 118
81 1 125 126
82 1 125 127
83 1 68 69
84 1 68 70
85 1 71 72
86 1 71 73
87 1 104 105
88 1 104 106
89 1 149 150
90 1 149 151
91 1 26 27
92 1 26 28
93 1 131 132
94 1 131 133
95 1 89 90
96 1 89 91
97 1 38 39
98 1 38 40
99 1 6 7
100 1 6 8
101 1 6 9
102 1 6 10
103 1 83 84
104 1 83 85
105 1 47 48
106 1 47 49
107 1 35 36
108 1 35 37
109 1 101 102
110 1 101 103

Angles

1 2 12 11 13
2 2 12 11 14
3 2 12 11 15
4 2 13 11 14
5 2 13 11 15
6 2 14 11 15
7 1 99 98 100
8 1 81 80 82
9 1 123 122 124
10 1 147 146 148
11 1 144 143 145
12 1 153 152 154
13 1 30 29 31
14 1 96 95 97
15 1 60 59 61
16 1 54 53 55
17 1 111 110 112
18 2 22 21 23
19 2 22 21 24
20 2 22 21 25
21 2 23 21 24
22 2 23 21 25
23 2 24 21 25
24 1 114 113 115
25 1 42 41 43
26 1 129 128 130
27 1 66 65 67
28 1 120 119 121
29 1 93 92 94
30 1 78 77 79
31 2 17 16 18
32 2 17 16 19
33 2 17 16 20
34 2 18 16 19
35 2 18 16 20
36 2 19 16 20
37 1 141 140 142
38 1 138 137 139
39 1 156 155 157
40 1 75 74 76
41 1 33 32 34
42 1 63 62 64
43 1 159 158 160
44 1 87 86 88
45 1 135 134 136
46 2 2 1 3
47 2 2 1 4
48 2 2 1 5
49 2 3 1 4
50 2 3 1 5
51 2 4 1 5
52 1 51 50 52
53 1 45 44 46
54 1 108 107 109
55 1 57 56 58
56 1 117 116 118
57 1 126 125 127
58 1 69 68 70
59 1 72 71 73
60 1 105 104 106
61 1 150 149 151
62 1 27 26 28
63 1 132 131 133
64 1 90 89 91
65 1 39 38 40
66 2 7 6 8
67 2 7 6 9
68 2 7 6 10
69 2 8 6 9
70 2 8 6 10
71 2 9 6 10
72 1 84 83 85
73 1 48 47 49
74 1 36 35 37
75 1 102 101 103
