LAMMPS data file via write_data, version 19 Nov 2024, timestep = 1000000, units = lj

160 atoms
4 atom types
110 bonds
1 bond types
75 angles
2 angle types

-3.758247 3.758247 xlo xhi
-3.758247 3.758247 ylo yhi
-3.758247 3.758247 zlo zhi

Masses

1 1
2 1
3 0.1
4 0.1

Bond Coeffs # harmonic/omp

1 100 0.45

Angle Coeffs # harmonic/omp

1 100 180
2 100 109.471

Atoms # full

88 26 4 0 -2.7443493914652386 -2.194262188277978 -2.379461718525882 0 0 1
82 24 4 0 -2.701009569701165 -2.1722024277005243 -2.7728008021333244 0 0 1
86 26 2 0 -2.7819660779179656 -2.4207148523443425 -1.9878718075317998 0 0 1
80 24 2 0 -2.6068734712871047 -1.8374705443377275 -3.0422372528567188 0 0 1
81 24 4 0 -2.512983595833922 -1.5055080934007459 -3.305993372806586 0 0 1
102 31 4 0 -3.362044155544355 -0.6897671363148355 -1.940584897214127 1 0 0
123 38 4 0 -2.415265539514925 -1.1580758200450267 -3.1216941052294946 1 0 1
122 38 2 0 -2.530161584454931 -0.7316834641759115 -3.262009164447509 1 0 1
124 38 4 0 -2.6561463597667343 -0.3021579515814443 -3.413341536173046 1 0 1
28 6 4 0 -3.648042087288769 -0.7395559800112216 -0.5464322701509156 0 0 0
101 31 2 0 -3.7522382288302785 -0.8701243064868239 -1.8742060207566973 1 0 0
23 5 3 0 -0.43702333370572166 -0.5198522834419221 -3.5167023351973286 1 1 1
87 26 4 0 -2.8031943956329357 -2.6615899325116805 -1.5752650865919589 0 0 1
135 42 4 0 -2.9624473062802053 -2.3696347663551953 -1.325025588980394 1 0 0
134 42 2 0 -3.1927051814827103 -2.216507790562685 -0.982674413154181 1 0 0
136 42 4 0 -3.428847810895137 -2.0389505904783403 -0.621755040860458 1 0 0
25 5 3 0 -0.0006888391661693288 -0.30696053770494 -2.9835295805846607 1 1 1
129 40 4 0 -3.1352471943543736 -0.35642485192348683 -1.9453756181595405 1 0 1
64 18 4 0 -0.142420560313976 -0.27915831493960297 -2.602837478436549 0 1 0
1 1 1 0 -3.331699818851923 -1.386350568244242 -0.17512516548392534 0 0 0
2 1 3 0 -2.906455815933711 -1.4499902753259135 -0.06881411616356724 0 0 0
5 1 3 0 -3.389786324259596 -0.9725161119848408 -0.3157416347924597 0 0 0
3 1 3 0 -3.45702247158419 -1.66850439131333 -0.48944280350374225 0 0 0
21 5 1 0 -0.21018713122801932 -0.18424835820347502 -3.3641943425608343 1 1 1
117 36 4 0 -3.74342758468503 -1.2306358810029887 0.4821555869206117 1 0 1
4 1 3 0 -3.5841072885361336 -1.4638149489307717 0.2044558926856639 0 0 0
96 29 4 0 -0.7066487466939535 -0.011945641453805124 1.3804327672919885 0 0 0
61 17 4 0 -0.5524869360092781 -0.1791356901696746 1.7001056088080488 0 0 1
59 17 2 0 -0.2211755313252792 -0.21091547480929362 2.0159578692993954 0 0 1
97 29 4 0 -1.112451467861947 -0.6021204103858326 0.8227861601096036 0 0 0
95 29 2 0 -0.9113667245105622 -0.3133970831229133 1.099625528872845 0 0 0
92 28 2 0 -2.661047297316894 2.1037835153682507 -2.445229828255635 1 0 1
93 28 4 0 -2.4318980079692456 1.7159834578927535 -2.467893296107193 1 0 1
120 37 4 0 -2.427097605133248 1.3298359897309824 -2.3530350169193066 1 0 1
119 37 2 0 -2.5372484955128423 1.0351408634489343 -2.0309116981544815 1 0 1
22 5 3 0 -0.49374650481632765 0.15947231912525134 -3.2749339234395327 1 1 1
157 49 4 0 -0.4993153927157789 1.8889813097978314 -2.2654615061547148 1 1 1
155 49 2 0 -0.05769158443226049 1.764322680446934 -2.361185441328855 1 1 1
94 28 4 0 -2.907619165175744 2.5119812921355886 -2.415033379611377 1 0 1
78 23 4 0 -3.28447873185706 2.4648553382810015 -2.259729131992287 1 0 1
77 23 2 0 -3.5584968295968094 2.8002129047744506 -2.418140054884246 1 0 1
50 14 2 0 -0.539971521834936 3.14502848518665 -0.7894897233199436 0 0 1
147 46 4 0 -0.503412536271916 2.136479183368424 -1.9444134614210211 1 0 1
83 25 2 0 -0.745599355045724 2.8902311655480624 -3.6810140694195774 0 0 1
85 25 4 0 -0.6392017870215473 2.606750448492661 -3.3687990632218447 0 0 1
121 37 4 0 -2.6353280276026156 0.7263609583291942 -1.7165152650509963 1 0 1
51 14 4 0 -0.8592621709997906 2.8590902099656406 -1.0045682600755657 0 0 1
148 46 4 0 -0.8034767365141614 2.5049905864951154 -1.1925540827420436 1 0 1
52 14 4 0 -0.24176257455805406 3.4145309800447334 -0.5978426285526658 0 0 1
146 46 2 0 -0.6438495596639972 2.3231735635811286 -1.5757721361163564 1 0 1
42 11 4 0 -2.8572366662423305 0.03746126462996669 -3.4423802995072323 0 0 1
130 40 4 0 -2.9691607722291775 0.5188861584335807 -1.7868599892720403 1 0 1
128 40 2 0 -3.060001680413005 0.0547525751118091 -1.8783190162966228 1 0 1
41 11 2 0 -2.8466668078866295 0.41650894720713844 -3.6902705957016244 0 0 1
39 10 4 0 -0.5783867398490498 0.46341193095425387 -3.513330879314098 0 0 1
19 4 3 0 -0.016699570467749093 2.1187649164484927 1.718894557002614 0 0 1
105 32 4 0 -3.698384341530315 3.4258380686470637 3.6732657110220543 1 -1 0
20 4 3 0 -0.7266840628313621 2.100984002015197 1.5642724209795846 0 0 1
16 4 1 0 -0.35353582553656443 1.852717522777338 1.6561515058601473 0 0 1
76 22 4 0 -2.0249549462874805 1.5550841121351884 3.188581867428105 0 1 0
43 11 4 0 -2.8312921784103287 0.7948758563814128 3.5825709777305255 0 0 0
33 8 4 0 -2.2899586832040595 1.867065459772859 3.215528379663003 0 0 0
74 22 2 0 -2.220341286561277 1.189295221040653 3.3804663308957927 0 1 0
17 4 3 0 -0.2626232656384273 1.5675622893381052 1.30332475840911 0 0 1
75 22 4 0 -2.418466894920729 0.8076504953947167 3.5735288700391528 0 1 0
18 4 3 0 -0.4293826884290726 1.6033697316400786 2.0213103310690212 0 0 1
90 27 4 0 -0.40316249679084804 1.2088274041426457 2.1000813005750323 0 1 0
40 10 4 0 -0.803556317202883 0.7492154109231683 3.194559121779105 0 0 0
89 27 2 0 -0.6127206047188071 1.085494274686143 2.4966812818733835 0 1 0
91 27 4 0 -0.812880571480226 0.9577254869539898 2.872451120876732 0 1 0
38 10 2 0 -0.6990983276373289 0.6163048557281527 3.5900664239610394 0 0 0
84 25 4 0 -0.8716878767250131 3.198475360848334 3.5083069093951806 0 0 0
32 8 2 0 -2.0436725002772094 2.253074737459196 3.114719560884649 0 0 0
8 2 3 0 -1.698425848844914 3.040295422946546 2.9842939929464087 0 0 0
34 8 4 0 -1.8007701000980878 2.64762041854883 3.008783471945195 0 0 0
7 2 3 0 -1.108378773694807 3.169140801335392 2.5523435532415744 0 0 0
6 2 1 0 -1.3757348960773284 3.3289131218228176 2.8888534126644876 0 0 0
10 2 3 0 -1.5724980651909377 3.7406748283801656 2.741275356970545 0 0 0
9 2 3 0 -1.1166752153802848 3.395777323209878 3.2655268234167045 0 0 0
98 30 2 0 1.6634238636058638 -3.4909726052068764 -3.3658258291723087 0 0 0
99 30 4 0 1.5885285923639683 -3.2269074746975233 -3.7469181676024825 0 0 0
13 3 3 0 1.43463843714514 -2.8865059678132328 -3.6360568333875234 0 1 1
12 3 3 0 1.1327966832794945 -2.2029092704881523 -3.6277439036620605 0 1 1
70 20 4 0 1.9401827145886674 -3.7326903246068928 -2.6518640341075677 0 0 1
72 21 4 0 2.9343635985054703 -3.2041772601749683 -2.097282154191835 0 1 0
159 50 4 0 3.2545374602730353 -1.435260286809857 -1.7807628542959268 0 1 1
69 20 4 0 2.601071882456186 -3.405522626760242 -2.1448235884211657 0 0 1
68 20 2 0 2.281926780802802 -3.55923894698112 -2.396444287176128 0 0 1
55 15 4 0 1.1852361271367304 -1.8260324883235535 -3.5426434181109743 -1 1 1
29 7 2 0 1.2311968591436242 -0.25384102262871555 -3.4728834601470298 0 0 0
30 7 4 0 1.1960459292710623 -0.6667414921013796 -3.561341870085985 0 0 0
62 18 2 0 0.1704957945236371 -0.17112539035443564 -2.2693852328204067 0 1 0
54 15 4 0 1.3163283321173855 -0.9610377370569986 -3.3149465058297203 -1 1 1
53 15 2 0 1.2470343960734978 -1.3882615451197002 -3.429017935786467 -1 1 1
27 6 4 0 3.062039442577039 -0.6812804056266218 -0.9466190064704587 -1 0 0
131 41 2 0 2.5134042097103158 -0.140099023906135 -1.2894956295682618 0 0 0
132 41 4 0 2.777595687888857 -0.500724224991055 -1.1559719605419838 0 0 0
103 31 4 0 3.381199112774478 -1.043784036693753 -1.812269728298235 0 0 0
44 12 2 0 0.04706323844129749 -3.471767842818454 -0.20263724039782033 0 1 1
71 21 2 0 2.9700354322257163 -2.876143283201747 -1.7757196348295412 0 1 0
73 21 4 0 3.0213932062772035 -2.549267630416032 -1.4595684509615117 0 1 0
158 50 2 0 3.2350985230156897 -1.8237475184734941 -1.5545972570086364 0 1 1
160 50 4 0 3.2111254617040483 -2.229836989848249 -1.3245769298036776 0 1 1
63 18 4 0 0.45644262846978784 -0.07671339211747605 -1.9521489130557352 0 1 0
26 6 2 0 3.4612771953222543 -0.7095770540967126 -0.7480127465300601 -1 0 0
46 12 4 0 0.09179127738276285 -3.0668569346653016 -0.07310166950436915 0 1 1
24 5 3 0 0.10200947277115854 -0.06005610214203177 -3.66948311008372 1 1 1
125 39 2 0 1.0714099093955476 -2.1646414703604893 1.0849025820199956 0 0 0
126 39 4 0 0.6601122390720987 -2.264503201276209 1.1861651969989349 0 0 0
127 39 4 0 1.4765279944007477 -2.060665248711295 0.9877485971941217 0 0 0
56 16 2 0 0.2618832485945788 -2.748151444435624 0.6020431148624824 0 1 0
58 16 4 0 0.39063166899728985 -2.4201191699723337 0.8868816854517773 0 1 0
57 16 4 0 0.13301464400693008 -3.0595464278878377 0.32509740560236394 0 1 0
111 34 4 0 0.27811976020112034 -0.24689615749698718 2.7327317298415648 0 0 0
109 33 4 0 1.8521368082824288 -2.121378880049542 1.1075033743554061 0 0 0
107 33 2 0 2.25167031059981 -1.9810456874969338 1.0261069200843236 0 0 0
112 34 4 0 0.27946202120019425 -0.3582264042444638 3.6519338992162145 0 0 0
116 36 2 0 3.41156544207825 -1.4578938991365429 0.714932280510982 0 0 1
118 36 4 0 3.0595679972231515 -1.6865968143988204 0.9374715548754705 0 0 1
108 33 4 0 2.6725283129043844 -1.8428580446268754 0.9313265528156318 0 0 0
115 35 4 0 1.2861053127894315 -3.1912031090403854 2.2611207106177074 0 0 -1
113 35 2 0 1.1519477384279042 -2.9375033484929984 2.650197359670498 0 0 -1
11 3 1 0 1.417210209680641 -2.467231807151244 3.6714224077488997 0 1 0
14 3 3 0 1.2580142344421534 -2.5188501231213807 3.2473503600928986 0 1 0
114 35 4 0 1.0405900984998109 -2.723421311683204 2.9782160001699394 0 0 -1
15 3 3 0 1.8154805956522724 -2.2824662764286225 3.6620270262279435 0 1 0
37 9 4 0 1.666076679674826 -3.298457035861585 2.2398391937940763 -1 0 -1
35 9 2 0 1.9881864525918675 -3.586522664802961 2.1843174848738003 -1 0 -1
110 34 2 0 0.27866400396076635 -0.297479593007155 3.190751061345039 0 0 0
60 17 4 0 0.1117625881335926 -0.23755696317396546 2.3416595966579044 0 0 1
139 43 4 0 1.3567508276563387 0.9503031388542764 -2.0823337955627705 0 0 0
156 49 4 0 0.3322443567468655 1.6458824183324576 -2.447627067375515 1 1 1
137 43 2 0 1.0076257064460974 1.2254117071128774 -2.2114185763853986 0 0 0
138 43 4 0 0.6864873603206645 1.4749632271104909 -2.3287817525772865 0 0 0
31 7 4 0 1.2677638533787463 0.18370326391917477 -3.376995361912309 0 0 0
104 32 2 0 3.72952078286903 3.323930270107732 -3.4231089064416764 0 -1 1
106 32 4 0 3.634301322721423 3.2164563390727503 -2.9835347239466254 0 -1 1
142 44 4 0 1.6763189901879676 1.1756453689333026 -1.9480710110352086 0 0 0
66 19 4 0 0.5134655894137142 0.15567812157656064 -1.6171388902223267 0 1 0
143 45 2 0 0.41716552427658177 0.8416450821961088 -0.14024489676651847 0 0 1
65 19 2 0 0.46224900252826023 0.27726150120626136 -1.1675785165996346 0 1 0
67 19 4 0 0.4058814088693715 0.39620009277752366 -0.751373244188127 0 1 0
145 45 4 0 0.3090174926354568 0.45225919695400646 -0.3644456611496574 0 0 1
133 41 4 0 2.270419793195845 0.19872200622404682 -1.4089386378512923 0 0 0
141 44 4 0 2.2118757808198164 0.526453690773311 -1.6140953567493745 0 0 0
140 44 2 0 1.9475136084923517 0.8538829930819221 -1.773237077371757 0 0 0
79 23 4 0 3.6755697720478104 3.1419328040036456 -2.5836192032812275 0 0 1
100 30 4 0 1.7327238481376777 3.7546079221971596 -2.993271659618835 0 -1 0
45 12 4 0 0.00961468218862561 3.606540964273511 -0.35555706169293566 0 0 1
153 48 4 0 0.6149564577946018 1.526616196052147 0.3234906403611169 0 0 1
144 45 4 0 0.5217510034212186 1.2202801438743371 0.06744894755491451 0 0 1
152 48 2 0 0.3559964621627678 1.568996009133806 0.7080210283616483 0 0 1
49 13 4 0 3.2260781992797902 2.881090983260205 2.3864720628884952 -1 -1 0
154 48 4 0 0.10420880603088595 1.6136162950403123 1.0904607459558324 0 0 1
149 47 2 0 3.6076038134723203 2.9820406472442573 3.0769614267275167 0 0 0
47 13 2 0 2.8703344233680332 3.069625574905583 2.238107192811503 -1 -1 0
151 47 4 0 3.696741231576443 3.11108130069307 3.4887036627399133 0 0 0
36 9 4 0 2.321977913238768 3.6205802740022923 2.131634867135607 -1 -1 -1
48 13 4 0 2.5017035804358603 3.270440240629958 2.0947521871089365 -1 -1 0
150 47 4 0 3.5137755723251316 2.8455006853731684 2.6612248172883497 0 0 0

Velocities

88 0.5347512621579531 -0.4128664940799055 1.6853034374816682
82 -0.24813210951372716 -1.5242690960681742 0.9463407361069094
86 -0.2881820405301695 -0.1127930019885997 0.22408891086712773
80 -0.07177554049435521 -0.00518248471899747 0.24629991708019022
81 1.3992813172995737 -0.26521453441893883 -0.7695399398440689
102 1.16978467150903 0.9382013667097593 -1.8185847548119152
123 0.4071699082324638 -0.30495103349992814 -0.37016689284034504
122 -0.2645580616892337 0.32739951115934285 -0.0721467085069759
124 -0.18706369703207515 -0.97013131486075 -0.1932139874861145
28 0.3321604318044094 0.4031708071611284 1.2954905400378114
101 0.3116654244648575 -0.15809205694326167 0.06207718207488538
23 -0.8282022139097113 0.35598444107615823 -0.22917100652855787
87 -0.7697203109052458 0.05345320353606651 0.8681901586313334
135 -0.039555984884887554 -0.7109416455209059 0.6418760681502045
134 -0.2616203762958437 0.02789918920759782 0.022387225720659598
136 -0.1480485769779269 -0.3523885477535848 0.9283227159375116
25 -0.8996729533402614 0.27645191392951435 -0.20969503754521973
129 -0.19074728456841136 0.31555524336034607 0.24018532115687058
64 -0.19506769931910692 0.4599175344137449 0.012360120497439387
1 -0.37044555651099026 0.03414291957964643 0.20592308575043475
2 -1.3911054865349484 -0.15764806445347665 -0.46495207798798155
5 -0.8468360504755441 -0.6079071861171903 -0.8475860641386721
3 -1.4061831740735689 0.3021126086960162 -0.6084550734892753
21 -0.29407758303742304 -0.01049613443345316 0.5672699008798984
117 1.0995231291884766 0.514636668227094 -0.1082168093529453
4 0.8617417740082883 -0.6191907587612964 -0.39173711143123985
96 -0.5627271102616327 1.1896912751671196 0.09527127675405872
61 -0.7419946678337314 0.3327040679127733 -0.5715131192329764
59 -0.25872806913031265 -0.06283565744681813 -0.02942052393329613
97 0.5244407052990068 -1.0592657326423085 -0.05452226290199111
95 -0.4118368369183621 0.1574147220939655 -0.1572216520672383
92 -0.3585894530488056 0.2311574749289099 -0.1363755682165498
93 1.2375950063145176 0.7508904318409039 -0.8381183569647688
120 0.560652497016232 1.2028273260831548 1.3388684927993375
119 -0.10766332333901572 0.2839433964445403 -0.2547635300198354
22 0.33705605578900644 1.6275593690291097 -0.3700519348345962
157 0.2763694199086146 0.5550965688535087 0.4901074555556265
155 -0.07895054102931376 0.18964907942223505 0.004219778004555957
94 -0.48864009744590964 -0.3997294442287741 1.1670491165133894
78 0.3009724447604911 -0.710034087040911 -0.23040525386184876
77 -0.12085269941593958 0.19839191092529826 0.06130710840138482
50 0.04329247461605588 0.11615716587761825 0.0785249193445485
147 0.8331278834380081 0.23283443241858032 -0.05284196765949072
83 0.2547968691005064 -0.006966211063109533 0.11656080286078571
85 -0.17740267844969335 0.1613938842158713 -0.5694566983668748
121 -1.255290726754661 -0.7090003422894459 -1.2601377522577553
51 0.20278559870966875 -1.4361764574157454 0.27608820382353644
148 0.1863985115173516 -0.6135133354753162 1.006036388020068
52 0.9736286924090446 -1.0131293270224724 1.1671620158936604
146 -0.1715203478711868 -0.008478188867219166 0.30809186538402644
42 0.6872282790513776 0.028021942902259733 -0.6403539858472935
130 -0.0405605261871504 0.6216914324080907 -1.0626904874902654
128 -0.030757824333139578 0.31767148317057475 -0.2553797755851263
41 0.45075530018827537 0.07856292004359727 0.3488550684637114
39 -0.634823363284017 -1.1996673364724864 0.7909251823137838
19 -0.13005976773534647 -0.4957517896061632 -0.1041616134580185
105 0.9886477895152913 0.789025385336686 -1.5725585267508917
20 -0.4329799114122469 0.7366864669188871 1.8385493173910108
16 -0.11635613703462942 -0.19281493119471113 -0.08617708948885155
76 -0.22350527545773016 -0.6037518426970692 -0.09833297842509442
43 -0.5499825569809771 -0.15354768291927665 0.9412634536092964
33 0.3004253928489554 0.009597717357402183 0.48900598486286573
74 0.006079941993193019 0.21971399636492778 -0.15748113157835472
17 -0.954680139154565 -0.4664173303728234 0.10346309646090618
75 0.4539738123283804 -0.925106722063178 -0.2560019560479302
18 0.8096258060038333 -0.9939445113349737 0.1171515545618545
90 0.7832144991524961 -1.7539297845622268 -0.08452323571510434
40 0.018583102295934614 0.5451376638770405 0.002216886101734289
89 0.29955635725822516 0.3189269063273557 -0.1233094412422456
91 0.6470878181682154 0.37663060681550997 -0.4206753310751619
38 -0.24673127489364857 -0.17347542952303968 0.26447778841570174
84 1.0569924364025103 -0.5602324689277258 0.3769682504636695
32 -0.15068418418705518 -0.18963499618154028 -0.3718608835808982
8 -0.29592495942459757 0.17125361960185326 0.7927406742099475
34 1.0305183888082916 -0.4297575721984315 0.051213164176694914
7 -0.3726416792033829 0.9393843748998273 0.036530627968965626
6 -0.19041374707862635 0.050488781078960585 -0.21227984225846874
10 -0.05746952266429421 0.5650519901568137 -1.452880031645105
9 0.04928029724170919 -0.19929773872566936 0.11811476218577155
98 -0.12003249626353149 0.010655104850611347 0.5606969351694189
99 0.023123638870109653 -0.021278788229823643 -0.416612259713261
13 -0.8154295547699639 0.7729847820859402 0.36103041561677274
12 0.5414877392742246 1.2777533334804905 0.4929468296061258
70 -0.6647123546892881 0.315325423096925 0.4054982736389671
72 -0.2872412522253267 -1.3462466731688827 -0.6517725454900738
159 0.07644515997213955 0.4607805077316484 0.4176726316062452
69 -1.0324463910220447 -0.10654335721923706 0.7982352585675947
68 -0.12552423703286886 -0.1125536262604102 -0.039727164890618526
55 -0.019448055618042998 -0.4025099102277055 -0.9362693132394913
29 -0.2544436900007113 0.14316083560772702 -0.17527614164519534
30 0.45967344883188954 -1.3052651989485478 -0.5719814212056382
62 -0.38741218395925997 0.4083823898834141 0.06751886645984102
54 0.5079078313412778 -0.07703677778324133 0.2331666647642056
53 0.10450282310040217 -0.4041985186269182 -0.1873760177944905
27 1.003081354492742 -0.3862644178972208 -1.4523536829882708
131 -0.026543074790005276 -0.030016439913569833 -0.11347138732692537
132 0.810345541570775 -0.7642759955258066 0.023439205134763955
103 -0.8430355897538244 -0.3649094506781928 -0.1940514132402047
44 -0.19787785987009482 -0.1119325691935661 -0.1333961087745374
71 -0.23309830060958942 0.12903953139991278 0.0191285600824192
73 -0.497870162012498 0.7134519930599535 0.23009981348149686
158 0.42808370916577815 0.07424989864061783 0.04074390616277447
160 0.12880417073445485 -0.42471972511297507 -0.256255542068785
63 -0.1811392119953582 -0.17728265834997564 -1.2991061280271894
26 -0.08124874070280477 -0.09296420944611661 0.3208528147956119
46 -0.8358688312313449 -0.7498092922984319 0.12202697199347572
24 -1.4000818194508597 -0.06438174537431329 1.4497456098558281
125 -0.4665637848406696 -0.008479947509931 -0.0045799581145790445
126 -0.6987438849672821 0.4397909737204163 -0.5823710576510364
127 0.7000790116209291 -0.10123628020169789 0.2510011087540293
56 -0.13982075683755807 0.12019768941224253 0.20217472143376286
58 1.3151929617144913 0.6355497574547457 -0.10457328798992091
57 0.12443054174375251 0.04116535301520637 0.18493895269794342
111 0.35048871711922824 -0.8368060644273364 -0.798146231042576
109 0.15244857745817186 -0.5942124819646252 -0.8091288886528586
107 0.2281836794404993 0.1705853789793108 -0.008775137067894852
112 0.26531288552946675 0.8226952979190294 -0.3435826676472773
116 -0.22981139423179878 0.07329098607870287 0.7530312927171893
118 -0.6748019080082542 -0.8862482169411173 -0.4326483894059684
108 0.8935761101714705 -0.32848346592163197 -0.8907293236614376
115 -0.31032339402649 0.7640627820403056 -0.5520579956745164
113 0.4349461135602788 -0.00459490005912196 -0.1841221227221704
11 0.19624293494678993 0.829808975440468 -0.43264090902906116
14 0.5446076182712158 -0.0270092459304695 -0.5896669979836685
114 -0.2622421561653406 0.349801680095916 -0.08196847294889578
15 0.3512832098345138 -0.5057693275950472 -0.04460601308147645
37 0.7397511595496443 -0.1778784702660349 -1.1959693404838394
35 -0.3288919186180126 0.29597844239918464 -0.35342388192149454
110 -0.042837934849474825 -0.06267902579220128 0.10944245179475318
60 0.25101892220274785 -0.48136685851170535 -0.8106729380124967
139 -0.802352925256081 0.44355068282827365 0.2717074823020547
156 -0.8037189487237756 -0.6363523373090056 -0.4509854954421808
137 -0.11147153011771185 0.26138210350126395 0.047531031548891316
138 1.05776687535683 -1.473428741496655 -1.3725240072307374
31 -0.3586840515223495 -0.6684972171518574 0.08450859666401672
104 0.22012404197602767 0.4645532018398462 0.21789458921888707
106 0.998482404095741 -0.7845646795509817 0.7751080975871278
142 0.2575465559291016 0.49431675783542917 1.1376267565521438
66 0.6413127956754596 -0.6482381568338821 0.3669574182360225
143 -0.18372702203285926 -0.28645386358690966 0.2991893266094993
65 -0.02786228539496171 -0.04651818642897011 -0.18640204337700547
67 0.2280713107787321 1.5054401381913671 -0.14667916218251867
145 -0.6385123039314681 -0.24271552459381 0.37587442117592146
133 0.08107119716385376 0.43708839221884 1.6430259701393775
141 0.8651682064934604 0.9386798012142639 -0.22181612367985212
140 -0.14312555144859979 -0.09682231745280694 -0.13105618846998976
79 0.370722711725031 -0.41643594567861236 -0.7431358944413042
100 1.5980443174299768 -1.3343318672038598 -0.09341696406807486
45 0.07197925741397222 -0.11115762888736133 -0.022943182503355863
153 -0.0470964117908525 0.7120860281587674 -0.17656772798636144
144 -1.2629787725705328 -0.2569808770457469 0.6253339870654333
152 -0.34343551301064495 -0.5989890241017549 -0.03631510640572041
49 1.8535473861599296 0.03558724500774598 0.09768434887114283
154 0.5494437335560876 0.716289496649643 0.2857318815694644
149 -0.19416282840144108 -0.4798187205218288 -0.0882141264836982
47 0.0389557052509448 0.047023191615686605 -0.2088370666282202
151 -0.08689665774603991 -0.456253694947645 -0.20180775938257423
36 -0.05927917714943122 -1.4998248374109602 0.09204350403543404
48 -0.5471292227805656 0.3565307088175143 0.41009828378684926
150 0.5049326433403986 0.02782378274384023 -0.5520176330030818

Bonds

1 1 86 87
2 1 86 88
3 1 80 81
4 1 80 82
5 1 122 123
6 1 122 124
7 1 101 102
8 1 101 103
9 1 134 135
10 1 134 136
11 1 1 2
12 1 1 3
13 1 1 4
14 1 1 5
15 1 21 22
16 1 21 23
17 1 21 24
18 1 21 25
19 1 59 60
20 1 59 61
21 1 95 96
22 1 95 97
23 1 92 93
24 1 92 94
25 1 119 120
26 1 119 121
27 1 155 156
28 1 155 157
29 1 77 78
30 1 77 79
31 1 50 51
32 1 50 52
33 1 83 84
34 1 83 85
35 1 146 147
36 1 146 148
37 1 128 129
38 1 128 130
39 1 41 42
40 1 41 43
41 1 16 17
42 1 16 18
43 1 16 19
44 1 16 20
45 1 74 75
46 1 74 76
47 1 89 90
48 1 89 91
49 1 38 39
50 1 38 40
51 1 32 33
52 1 32 34
53 1 6 7
54 1 6 8
55 1 6 9
56 1 6 10
57 1 98 99
58 1 98 100
59 1 68 69
60 1 68 70
61 1 29 30
62 1 29 31
63 1 62 63
64 1 62 64
65 1 53 54
66 1 53 55
67 1 131 132
68 1 131 133
69 1 44 45
70 1 44 46
71 1 71 72
72 1 71 73
73 1 158 159
74 1 158 160
75 1 26 27
76 1 26 28
77 1 125 126
78 1 125 127
79 1 56 57
80 1 56 58
81 1 107 108
82 1 107 109
83 1 116 117
84 1 116 118
85 1 113 114
86 1 113 115
87 1 11 12
88 1 11 13
89 1 11 14
90 1 11 15
91 1 35 36
92 1 35 37
93 1 110 111
94 1 110 112
95 1 137 138
96 1 137 139
97 1 104 105
98 1 104 106
99 1 143 144
100 1 143 145
101 1 65 66
102 1 65 67
103 1 140 141
104 1 140 142
105 1 152 153
106 1 152 154
107 1 149 150
108 1 149 151
109 1 47 48
110 1 47 49

Angles

1 1 87 86 88
2 1 81 80 82
3 1 123 122 124
4 1 102 101 103
5 1 135 134 136
6 2 2 1 3
7 2 2 1 4
8 2 2 1 5
9 2 3 1 4
10 2 3 1 5
11 2 4 1 5
12 2 22 21 23
13 2 22 21 24
14 2 22 21 25
15 2 23 21 24
16 2 23 21 25
17 2 24 21 25
18 1 60 59 61
19 1 96 95 97
20 1 93 92 94
21 1 120 119 121
22 1 156 155 157
23 1 78 77 79
24 1 51 50 52
25 1 84 83 85
26 1 147 146 148
27 1 129 128 130
28 1 42 41 43
29 2 17 16 18
30 2 17 16 19
31 2 17 16 20
32 2 18 16 19
33 2 18 16 20
34 2 19 16 20
35 1 75 74 76
36 1 90 89 91
37 1 39 38 40
38 1 33 32 34
39 2 7 6 8
40 2 7 6 9
41 2 7 6 10
42 2 8 6 9
43 2 8 6 10
44 2 9 6 10
45 1 99 98 100
46 1 69 68 70
47 1 30 29 31
48 1 63 62 64
49 1 54 53 55
50 1 132 131 133
51 1 45 44 46
52 1 72 71 73
53 1 159 158 160
54 1 27 26 28
55 1 126 125 127
56 1 57 56 58
57 1 108 107 109
58 1 117 116 118
59 1 114 113 115
60 2 12 11 13
61 2 12 11 14
62 2 12 11 15
63 2 13 11 14
64 2 13 11 15
65 2 14 11 15
66 1 36 35 37
67 1 111 110 112
68 1 138 137 139
69 1 105 104 106
70 1 144 143 145
71 1 66 65 67
72 1 141 140 142
73 1 153 152 154
74 1 150 149 151
75 1 48 47 49
