LAMMPS data file via write_data, version 19 Nov 2024, timestep = 1000000, units = lj

79 atoms
4 atom types
54 bonds
1 bond types
35 angles
2 angle types

-3.045986 3.045986 xlo xhi
-3.045986 3.045986 ylo yhi
-3.045986 3.045986 zlo zhi

Masses

1 1
2 1
3 0.1
4 0.1

Bond Coeffs # harmonic/omp

1 100 0.45

Angle Coeffs # harmonic/omp

1 100 180
2 100 109.471

Atoms # full

73 23 4 0 -0.20675159860416326 -0.427301409160659 -2.9244592100740214 0 0 1
74 24 2 0 -1.395141613873623 -2.7924531794404497 1.1380457769525079 0 1 0
76 24 4 0 -1.6566440402490987 -2.601510641973551 1.436329342990805 0 1 0
67 21 4 0 -2.0686053344030553 -2.596460789904508 1.488519290355047 1 1 0
75 24 4 0 -1.1229898172115131 -2.9714313143228335 0.825304394378886 0 1 0
26 8 2 0 -0.20134300309706285 -0.17878097248128136 0.6606053231618805 0 0 0
27 8 4 0 -0.04225770585427786 -0.43813479135692157 0.9932319841126532 0 0 0
37 11 4 0 -0.1159476397791414 -0.5172522653848844 1.370798358543277 0 0 0
65 21 2 0 -2.4698484121480093 -2.7952295255017914 1.6579063271913865 1 1 0
66 21 4 0 -2.830630925933733 -2.979405250778649 1.8193987446307447 1 1 0
71 23 2 0 -0.08581546832721688 -0.8249763348524511 2.9839208811020383 0 0 0
29 9 2 0 -2.3288288430807818 1.417434257632216 -2.2771438923357086 0 -1 1
31 9 4 0 -2.5571334959187495 1.045023511108715 -2.301059636311079 0 -1 1
25 7 4 0 -2.8524796736909286 1.0306813487063993 -2.0188884084253216 0 0 1
30 9 4 0 -2.092344256676167 1.7963811468410968 -2.268225277989431 0 -1 1
57 18 4 0 -1.8241437212768374 1.9760571144894294 -2.503722444587866 1 -1 1
56 18 2 0 -1.5456235938970542 1.9978018557338943 -2.8706010544341853 1 -1 1
68 22 2 0 -0.25329011492791054 0.5291384532377157 -0.23395112883040087 0 0 0
69 22 4 0 -0.5019441647595839 0.3045270160471895 0.055061009856003755 0 0 0
28 8 4 0 -0.35885645753584167 0.07039152996741221 0.3460700651350633 0 0 0
19 5 4 0 -1.0967177108428967 2.575516956031785 1.7992663950647891 0 -1 0
18 5 4 0 -1.093860496993255 2.2671956362474526 2.634195012332959 0 -1 0
58 18 4 0 -1.2670589656580111 2.0208875783506555 2.864054024366847 1 -1 0
17 5 2 0 -1.094346265355162 2.42596952340361 2.2148376584648775 0 -1 0
42 13 4 0 2.633452038577124 -1.946772179252396 -2.523843902317257 0 0 1
78 25 4 0 2.787352673889048 -1.7903544840320669 -2.842061974645524 0 1 1
41 13 2 0 2.5171889039680244 -1.6142148747901484 -2.205555502733189 0 0 1
38 12 2 0 2.4043399836840327 -0.4758758920644396 -1.9577982453516152 -1 1 1
39 12 4 0 2.2969867479198016 -0.8861064504387577 -1.918492490856462 -1 1 1
43 13 4 0 2.400862122258289 -1.295530675816927 -1.8951758232657845 0 0 1
40 12 4 0 2.5076340345942536 -0.03909312750201394 -2.0070018632365136 -1 1 1
63 20 4 0 0.6143179454220702 -1.5482659608796066 -0.7381189967069037 1 1 0
22 6 4 0 0.8260773475700514 -1.5093378490796179 -0.3712381986704608 0 0 1
62 20 2 0 0.6482260522224874 -1.1337929037435337 -0.9643302841876177 1 1 0
14 4 2 0 0.7698314452941001 -0.005304787593933348 -0.7934837708042454 0 0 0
15 4 4 0 0.7356207483848555 -0.4005608646953656 -0.9952186750414573 0 0 0
64 20 4 0 0.6678241963467109 -0.7409026363893695 -1.1860537009854737 1 1 0
48 15 4 0 0.10284782323457825 -0.15132387274642686 -2.802772111480831 0 0 0
21 6 4 0 0.7937603653452537 -1.8103654241171758 0.441471499780885 0 0 1
53 17 2 0 0.964601682032787 -2.43059122579669 0.8964192005262501 0 0 1
55 17 4 0 0.8624829523078281 -2.213821757882261 0.5404843515614182 0 0 1
54 17 4 0 1.0685557580314342 -2.6550842819202414 1.277222312153822 0 0 1
46 14 4 0 1.2276339808585977 -2.9232669896572556 1.5261317985377698 0 0 0
20 6 2 0 0.8142519964021976 -1.6634620384072678 0.04088227155619777 0 0 1
51 16 4 0 0.4950083216605069 -1.5488078602236799 1.3502059606635863 1 0 1
50 16 2 0 0.2478485245218426 -1.336930452430771 1.0072449781906982 1 0 1
52 16 4 0 0.010497250442202115 -1.1324307206023363 0.6801655005728313 1 0 1
59 19 2 0 0.20782457873692203 -1.4860062302285137 2.118593904138597 0 0 -1
1 1 1 0 2.6002001774278583 -2.986471807838969 2.320159131822891 0 1 0
3 1 3 0 2.62740145194574 -2.5129031350271265 2.3753922318410474 0 1 0
79 25 4 0 2.6179013345762225 -2.1230209484404434 2.406177752354761 0 1 0
77 25 2 0 2.7030824011935097 -1.958154112827863 2.832003266489379 0 1 0
36 11 4 0 0.4139981410559324 -0.36077513301905384 2.0652283347961644 0 0 0
35 11 2 0 0.1418408667460593 -0.4407784793864121 1.7093467263405575 0 0 0
60 19 4 0 0.12281271022824652 -1.5017788683418258 2.5474202444508096 0 0 -1
33 10 4 0 0.5772655229125806 -0.010301244755535637 2.1897867656286802 1 -1 0
61 19 4 0 0.2957532229872385 -1.4804978283500068 1.676995459936651 0 0 -1
72 23 4 0 0.02731030284221844 -1.2162241983047437 2.7979664267393307 0 0 0
12 3 4 0 0.3672364354118592 0.7055158388920342 -2.010188232989859 0 0 0
49 15 4 0 0.1997108082969418 0.33398768379923643 -2.0213793258139034 0 0 0
47 15 2 0 0.15231859368663678 0.0850151575801829 -2.4191594662514895 0 0 0
11 3 2 0 0.5148735053676283 0.7750076067921986 -1.570391886109924 0 0 0
23 7 2 0 3.023225295470448 0.6746169571623915 -1.9864927956326235 -1 0 1
24 7 4 0 2.7718279556655308 0.2819986131959624 -1.944623281333482 -1 0 1
9 2 3 0 0.9129700548288899 0.7080629287275395 -0.33454908949378825 0 0 0
13 3 4 0 0.6654254477691917 0.8432319762542939 -1.1546574776170933 0 0 0
10 2 3 0 0.8361104277791106 1.4301194638363648 -0.2396846273177566 0 0 0
6 2 1 0 0.6707939653274526 1.0644705020850813 -0.44654945532169793 0 0 0
7 2 3 0 0.6910124326822441 1.1269121538083264 -0.8846485965267279 0 0 0
8 2 3 0 0.2398889453178612 1.003390989388637 -0.3190041669077985 0 0 0
16 4 4 0 0.7946915988304353 0.4027427131731685 -0.5721932619097105 0 0 0
70 22 4 0 0.006608095107883772 0.758554334533667 -0.5327069672603889 0 0 0
44 14 2 0 1.5688776038091707 2.9844299339284857 1.7442140658839969 0 -1 0
32 10 2 0 0.6968750810373329 0.19143313535637693 2.5752850194738235 1 -1 0
34 10 4 0 0.8073416154159552 0.40178833619192317 2.9804849592979226 1 -1 0
4 1 3 0 2.71844199275952 2.8950019216066574 2.716071429853824 0 0 0
5 1 3 0 2.902126798478404 2.972481374685774 1.9812150827442827 0 0 0
45 14 4 0 1.9075930062830988 2.796021435857927 1.9678992778870497 0 -1 0
2 1 3 0 2.159350235134101 2.992286122418022 2.2069799313188243 0 0 0

Velocities

73 0.18174929875967621 -1.1919613340783277 0.4088143537879383
74 0.16051395012147562 0.011552415191898499 0.28713046434539974
76 0.4228410154209488 0.05474506446980934 -0.7511117592085175
67 0.17554611596243294 0.4280740820110782 0.14445127908319766
75 0.4797841518424981 -0.13356979184643475 0.8376767990260229
26 -0.09854985180243556 0.18566492351212205 -0.377502364830952
27 0.47668304109653326 0.1331905853174102 -0.3436477508071889
37 -0.2241202048989823 0.3281019846743623 0.3231973284006147
65 0.09652663736799129 0.0753753376697745 0.06821839990869485
66 0.5565708620310473 -0.6447625830991454 -0.623320967397296
71 0.1994298058895872 -0.13019581984301917 0.266823261200084
29 0.24877930585704552 0.33695719552200126 0.2667753744994155
31 -0.5427542524282404 0.24980706423985327 -1.143259971696593
25 0.5228422712882288 -0.5955024222527601 -0.7502218784308397
30 0.8407489229586091 -0.7143514756794129 -0.1341998900124667
57 0.17312862335990511 0.19967751624281946 0.03465501267112317
56 0.12498682704753844 -0.04244629221841904 -0.12747277627985115
68 0.09800984495051315 -0.5479363459394976 -0.07992125353848929
69 -0.041448686249415785 0.3063449307125286 -0.3800555103208842
28 0.7646087090239689 0.09177808196575568 1.9903885286968674
19 -0.3029056426303085 0.288875174768277 0.12489223139064444
18 -0.17776785027104694 1.2670579201417789 -0.6029581144620773
58 0.3307332000190518 1.2092003463343448 -0.6411850324580186
17 -0.023329815972899168 -0.054615144351466145 -0.2096755536698113
42 -0.4255725691524032 0.49374740149207413 -0.6341091678663567
78 0.5476708530729054 -0.7187076939215364 1.809459096453487
41 0.0034846591046627006 -0.010158306107729768 0.445686980010943
38 -0.14213471112608572 -0.23252432333286546 -0.26352009114962527
39 -0.49184267608592824 0.05865307459439936 0.19092850830970587
43 -0.3879944863567956 0.8573949399175053 -0.8321456054037432
40 -0.25591433865915775 -0.4191452204752979 1.2515691680929224
63 0.30009649826147416 1.3771070798004745 -0.08816275999697729
22 0.4167675646528535 -0.022856237063892042 0.38132767078610813
62 -0.24097660399414228 -0.25025866222723886 0.07451334601472034
14 0.0112583432505469 -0.1510188429541598 -0.3514513346663424
15 -0.5147713734756855 0.8760500010705786 0.98302417942589
64 0.5950188879319718 -1.1055128794145053 -0.38338757127906997
48 -0.4825741331938372 -0.2906779839101703 0.7627511391950058
21 -0.6666051215046536 -0.32309277303535633 0.7955516202627393
53 -0.12635487055293257 -0.04297297370837417 0.22607562408295928
55 -0.061006770768570834 0.5147628117262859 0.1022795650935987
54 1.9191758780334138 -0.02259868803397471 -0.6845641710702475
46 0.5830535219148345 -0.4985016038010051 -0.2580777667020231
20 0.0804181691471713 0.002265054464140455 -0.37021239744162243
51 -0.5658123563006733 1.1622771995402776 -0.3123251890992671
50 -0.17618598339746858 -0.03362209063805201 0.17798833775559383
52 0.49631665652325185 -0.491111452402067 -0.2831773930204127
59 0.04733343073866927 -0.06655501375114992 -0.7561857056690875
1 0.10390932278352724 -0.21515217902316391 0.19633029255125276
3 -0.8890125913706094 0.8844642054074076 0.938413547220281
79 -0.4345825084820486 -0.5457492286848857 0.4335935246621698
77 0.11943162610716343 0.41755461144735245 0.3173252959414169
36 0.15522373522658608 0.8073843276386509 1.3624652187186832
35 0.005506510437247619 0.1901599530352751 -0.04469600753747661
60 0.4138412688255225 0.8414666434480574 0.5143656835547041
33 -0.42960059610449924 -0.44055100827376026 -1.5890355325445567
61 1.4833267994154775 1.7285530714164872 -0.7598760864138782
72 -1.0586330575187834 0.8675046460636066 0.08974980706826172
12 1.0774975264481303 0.1411612996056552 -0.7443794142881413
49 0.16581099195298452 0.34904937199147845 1.0710996276648952
47 -0.07572190867893043 -0.12197156204364647 0.18898535692882418
11 -0.021954008371221245 -0.267165572175135 -0.013146968975300202
23 0.3576935791356517 0.12680989473564086 -0.01329611652614311
24 0.6050917409158412 -0.23501653487643132 0.8085129674916648
9 0.3147461242370643 0.31407872833839545 -0.2019148014185607
13 0.1923070392451986 0.47904775243700726 -0.05769179531386228
10 0.5059394154867285 0.36317706880333817 -0.2203823895560034
6 0.05507645060038192 -0.16472060840616046 -0.15897867977958535
7 0.15721136718162187 -0.47690440943630885 0.814652986734409
8 -0.8890284215671292 0.1577530634459094 0.7098531848659725
16 -0.03895476693153996 0.06329614352472192 -0.13634153282630518
70 0.6776720683185886 0.3547224207991666 0.5481608523071236
44 0.14481974149501303 0.10003891363672017 0.23859721459507752
32 -0.09396110177744822 -0.1516999435416072 0.23750270513882393
34 -0.736287454808401 0.5315699278875672 -0.6970205807782781
4 -0.20237334574200752 0.547149585411994 0.3287238830211314
5 -0.13975392718930674 -1.0387832521262097 0.6859616892756737
45 -0.827482885761282 0.5090714211921257 -0.4020163774748619
2 0.24071608539233547 -0.013133313390227216 -0.2641771089590081

Bonds

1 1 74 75
2 1 74 76
3 1 26 27
4 1 26 28
5 1 65 66
6 1 65 67
7 1 71 72
8 1 71 73
9 1 29 30
10 1 29 31
11 1 56 57
12 1 56 58
13 1 68 69
14 1 68 70
15 1 17 18
16 1 17 19
17 1 41 42
18 1 41 43
19 1 38 39
20 1 38 40
21 1 62 63
22 1 62 64
23 1 14 15
24 1 14 16
25 1 53 54
26 1 53 55
27 1 20 21
28 1 20 22
29 1 50 51
30 1 50 52
31 1 59 60
32 1 59 61
33 1 1 2
34 1 1 3
35 1 1 4
36 1 1 5
37 1 77 78
38 1 77 79
39 1 35 36
40 1 35 37
41 1 47 48
42 1 47 49
43 1 11 12
44 1 11 13
45 1 23 24
46 1 23 25
47 1 6 7
48 1 6 8
49 1 6 9
50 1 6 10
51 1 44 45
52 1 44 46
53 1 32 33
54 1 32 34

Angles

1 1 75 74 76
2 1 27 26 28
3 1 66 65 67
4 1 72 71 73
5 1 30 29 31
6 1 57 56 58
7 1 69 68 70
8 1 18 17 19
9 1 42 41 43
10 1 39 38 40
11 1 63 62 64
12 1 15 14 16
13 1 54 53 55
14 1 21 20 22
15 1 51 50 52
16 1 60 59 61
17 2 2 1 3
18 2 2 1 4
19 2 2 1 5
20 2 3 1 4
21 2 3 1 5
22 2 4 1 5
23 1 78 77 79
24 1 36 35 37
25 1 48 47 49
26 1 12 11 13
27 1 24 23 25
28 2 7 6 8
29 2 7 6 9
30 2 7 6 10
31 2 8 6 9
32 2 8 6 10
33 2 9 6 10
34 1 45 44 46
35 1 33 32 34
