LAMMPS data file via write_data, version 27 Jun 2024, timestep = 1500000, units = lj

1600 atoms
4 atom types
1100 bonds
1 bond types

-7 7 xlo xhi
-7 7 ylo yhi
-7 7 zlo zhi

Masses

1 1
2 1
3 0.5
4 0.5

Bond Coeffs # zero

1 0

Atoms # bond

337 79 4 -3.060916363763814 -6.862563185913442 -3.778031524324266 0 0 0
1537 479 4 -4.153072985768517 -6.569308602696336 -6.552257808487046 0 1 0
1281 394 4 -4.317586444044774 -6.439320813670547 -6.20594506846584 0 1 0
76 16 1 -0.0242568748465437 -3.7556652298304067 -3.7735780617548214 0 0 0
1280 394 2 -4.3790797581619785 -6.642873727812831 -5.753413540875599 0 1 0
789 230 4 -3.185844685024629 -0.05911844388850385 -2.3922576604013654 -1 1 0
1500 467 4 -2.565915394962976 -6.37926094446764 -6.492812161393692 1 1 1
1499 467 2 -2.0981606628057916 -6.521945669086797 -6.388665246389681 1 1 1
852 251 4 -2.882575697089066 -6.12901088605664 -6.5017104276507744 0 1 0
851 251 2 -2.961762432759421 -5.7577650935392795 -6.8271424826668055 0 1 0
1501 467 4 -1.630405930648607 -6.664630393705955 -6.284518331385669 1 1 1
556 152 4 -0.42627881162832476 -6.6125291325705655 -5.967212575306704 0 0 1
112 23 3 -0.8038604606763039 -6.758275891484018 -5.996550439061597 0 1 1
554 152 2 -0.14173151788395788 -6.203525597423686 -5.92539217526178 0 0 1
1118 340 2 -6.921467498395007 -6.240286876197966 -1.868297510573592 0 0 0
839 247 2 -1.1619147241004062 -3.9607602233359915 -0.05343758416243942 0 1 0
1550 484 2 -5.756370548992952 -4.207361721059058 -5.594058771324431 1 1 0
1552 484 4 -5.825632838739466 -4.6277927257477645 -5.3324474078183615 1 1 0
406 102 4 -6.162600533876364 -4.781724102038684 -5.12099282750442 0 0 0
1551 484 4 -5.687108259246438 -3.7869307163703523 -5.855670134830501 1 1 0
1351 417 4 -5.493299817695217 -3.6249371311157517 -6.195101825492671 0 1 0
1456 452 4 -4.585599049018125 -0.037719914698429946 -2.9921072329559366 1 0 0
1516 472 4 -2.3542528045998505 -3.9016744257568905 -6.573482728311989 0 1 1
340 80 4 -2.3744069795908738 -4.059897903527731 -6.200893991061947 -1 0 -1
338 80 2 -2.353272636464632 -4.414755115010435 -5.8492838390481054 -1 0 -1
339 80 4 -2.3321382933383905 -4.76961232649314 -5.497673687034264 -1 0 -1
743 215 2 -1.5297116138430882 -6.783453874561326 -3.7314949287988806 0 1 0
1349 417 2 -5.144923719865752 -3.2673601136758768 -6.22290058553563 0 1 0
34 7 3 -4.773373847009041 -2.5147192643259966 -6.08099585492323 0 0 0
1350 417 4 -4.796547622036288 -2.909783096236002 -6.250699345578589 0 1 0
31 7 1 -4.580731369154135 -2.0954168462432694 -6.032268471288334 0 0 0
35 7 3 -4.12985135671681 -2.136345924013627 -5.982952906023515 0 0 0
32 7 3 -4.6699944698917 -1.846134317169195 -6.408420461240735 0 0 0
319 73 4 -4.671696424627839 -2.0111623502096476 -6.762465375494726 0 0 0
1388 430 2 -3.381807464958791 -2.1223045995651195 -5.915107717831571 1 1 0
1390 430 4 -2.9256431712922364 -2.1970559780754777 -6.1057024937162065 1 1 0
478 126 4 -2.8265888228603435 -2.5253517632535547 -6.321838963808319 0 0 1
476 126 2 -2.5534403573181987 -2.73015561818046 -6.687140615569131 0 0 1
791 231 2 -6.964737189499567 -2.9548683586129783 -4.975713480517979 0 0 0
1543 481 4 -6.689021115709928 -0.3013186034093436 -5.700743443795841 0 0 1
1542 481 4 -6.987736749677578 -0.6158819169759248 -6.601753372587781 0 0 1
1541 481 2 -6.838378932693753 -0.45860026019263417 -6.151248408191811 0 0 1
354 85 4 -6.717581820770517 -0.549561232467729 -6.874391354768268 1 0 1
1389 430 4 -3.8379717586253452 -2.0475532210547613 -5.724512941946935 1 1 0
33 7 3 -4.761454967504938 -1.8799872685484296 -5.6631762361311 0 0 0
601 167 4 -5.31999157237386 -1.4389603282295746 -4.804621854012341 0 0 0
1332 411 4 -5.182450237454733 -1.1746741055591854 -4.543160454148817 0 0 0
288 63 4 -1.6234165682403499 -0.42038519824493337 -5.335199654992027 0 0 0
287 63 2 -1.6659236452225499 -0.5947000346622386 -4.868501158946555 0 0 0
1491 464 4 -1.411788635130609 -0.18701613805372064 -5.570233433397938 0 1 0
1490 464 2 -0.9751785982720653 -0.02622313068199042 -5.7533106971270085 0 1 0
615 172 4 -0.33070310943400527 -1.7932649481572978 -3.929285931883488 0 0 0
1343 415 2 -2.7756357998531778 -3.6622315587047547 -0.043975701174155404 1 0 0
918 273 4 -5.901182407915094 -5.950452362107123 -4.603519562540339 0 1 1
405 102 4 -6.039393011969481 -5.561739897147088 -4.507482219668972 0 0 0
917 273 2 -6.300842777004511 -6.187488694714156 -4.418897336349795 0 1 1
103 21 3 -1.1652181097430485 -5.607364510439088 -4.719881043425858 0 1 0
745 215 4 -1.4982628972578291 -6.408982353058167 -4.061316180097584 0 1 0
104 21 3 -1.5446461006822827 -6.173882584770954 -4.38418524192215 0 1 0
674 192 2 -0.028632156018566345 -6.016517109812338 -4.836356524071728 0 1 0
676 192 4 -0.4276735250966325 -6.192482315168515 -4.591811574689431 0 1 0
101 21 1 -1.1383379891904768 -5.951233824178664 -4.40950811582523 0 1 0
102 21 3 -0.8141172567220004 -6.248340946236702 -4.5444461559029845 0 1 0
105 21 3 -1.0273617566458881 -5.783454854866489 -4.000931937779098 0 1 0
846 249 4 -0.9898252147115285 -5.969764782118278 -3.6312720459717704 0 1 1
607 169 4 -1.517015827117287 -5.476539296699868 -4.758946353268857 -1 1 0
404 102 2 -6.100996772922922 -5.171731999592886 -4.814237523586696 0 0 0
487 129 4 -2.0931695103484214 -5.322232978843663 -2.774349119112863 0 1 0
348 83 4 -2.0890406340647445 -4.961487605079454 -2.909871268284128 0 1 0
606 169 4 -2.1955406801543784 -4.836657575376621 -5.119716926526217 -1 1 0
1446 449 4 -0.30460131113131456 -3.3319199767826504 -4.460960103997073 1 1 1
605 169 2 -1.8562782536358329 -5.156598436038244 -4.939331639897537 -1 1 0
1336 412 4 -1.5778935522472737 -4.0983112294437465 -3.746631425388755 1 1 -1
1334 412 2 -1.1160161460543454 -4.047027723150425 -3.5621340984950334 1 1 -1
1335 412 4 -0.6541387398614171 -3.9957442168571036 -3.377636771601312 1 1 -1
792 231 4 -6.489117202550828 -2.90669259230163 -4.829205038593211 0 0 0
584 162 2 -5.869850426492955 -3.0093903312297154 -4.664211709887269 0 0 0
586 162 4 -6.312184367299732 -3.240232638153817 -4.696654184276007 0 0 0
585 162 4 -5.427516485686178 -2.7785480243056138 -4.631769235498531 0 0 0
1452 451 4 -1.5410078290854061 -1.6691579956567442 -4.540646942510854 -1 0 0
1451 451 2 -1.2954140829870708 -2.10460881046203 -4.548789409122447 -1 0 0
1453 451 4 -1.0498203368887356 -2.5400596252673164 -4.5569318757340405 -1 0 0
1445 449 2 -0.6966520753233707 -3.0800847551652755 -4.642275352802481 1 1 1
1447 449 4 -1.088702839515427 -2.8282495335479005 -4.823590601607889 1 1 1
600 167 4 -5.459180146181299 -2.3961399103946874 -4.550783739444632 0 0 0
599 167 2 -5.38958585927758 -1.917550119312131 -4.677702796728487 0 0 0
1333 411 4 -5.006669500390696 -0.36467072669668765 -5.102620603496993 0 0 0
1331 411 2 -5.0945598689227145 -0.7696724161279366 -4.822890528822905 0 0 0
865 255 4 -5.9709977872404805 -3.465641695829879 -0.2959032935542371 0 1 0
289 63 4 -1.70843072220475 -0.7690148710795439 -4.4018026629010825 0 0 0
1312 404 4 -1.7755366845476381 -0.44753139651875257 -4.196769889751477 0 0 0
1311 404 4 -1.9593212450342816 -0.5764183632878352 -3.222289830887658 0 0 0
1310 404 2 -1.8674289647909599 -0.5119748799032939 -3.7095298603195674 0 0 0
1300 400 4 -1.1109079764975345 -1.3532594251944599 -0.5269788264707362 0 0 0
1370 424 2 -0.3550312441709084 -0.8801291218920448 -0.40611339789449213 0 0 0
1298 400 2 -1.5134251593845935 -1.145163647396071 -0.7383459590698118 0 0 0
1372 424 4 -0.7796790593898205 -1.139435652616862 -0.45545259279718586 0 0 0
749 217 2 -4.158182508046155 -6.406568982015638 -3.0961578294980705 0 1 0
750 217 4 -3.990407766757736 -5.939214956631841 -3.0375758259208587 0 1 0
1266 389 4 -3.720332880001703 -5.922994736612102 -2.7335123605931595 1 1 0
1265 389 2 -3.5909150772471228 -5.647025124811348 -2.33716427406707 1 1 0
751 217 4 -4.325957249334575 -6.873923007399434 -3.1547398330752823 0 1 0
336 79 4 -3.041850250080565 -6.152440741602612 -3.0742115207756555 0 0 0
485 129 2 -2.522149011410144 -5.543883810071811 -2.9041470262023643 0 1 0
486 129 4 -2.9511285124718674 -5.7655346412999595 -3.0339449332918655 0 1 0
335 79 2 -3.0513833069221894 -6.507501963758027 -3.426121522549961 0 0 0
886 262 4 -3.3833599140674524 -5.14983913313569 -1.6301191245638953 -1 0 0
845 249 2 -0.7783707260433328 -6.066087078113467 -3.1885429928068025 0 1 1
847 249 4 -0.566916237375137 -6.162409374108656 -2.745813939641834 0 1 1
664 188 4 -0.36143755847296133 -6.263618941158146 -2.3856000264871318 0 1 0
662 188 2 -0.611917028105047 -5.982932615003282 -2.0562442589615086 0 1 0
347 83 2 -1.9937294322420454 -4.586017027813239 -3.2260003881301116 0 1 0
395 99 2 -2.35563801727523 -4.1428017517028985 -2.172885399560777 -1 0 0
1177 359 4 -1.9330659810132735 -3.448121823467075 -1.9796942672173334 0 0 0
397 99 4 -2.0924896382875278 -3.723156686387211 -2.2410832719065787 -1 0 0
349 83 4 -1.898418230419346 -4.210546450547024 -3.542129507976095 0 1 0
396 99 4 -2.6187863962629323 -4.562446817018587 -2.104687527214975 -1 0 0
78 16 3 -0.3745088100778341 -4.038318351557396 -3.660747238639773 0 0 0
1175 359 2 -1.832779614483303 -3.1171179210109172 -1.6186138589327 0 0 0
1176 359 4 -1.7324932479533326 -2.7861140185547595 -1.2575334506480664 0 0 0
1386 429 4 -0.544160273309974 -1.985127777841638 -3.632310597699494 0 0 0
1344 415 4 -2.2842320846446955 -3.575780219444908 -0.011594308070197415 1 0 0
358 86 4 -4.405993288055158 -0.38518160465657136 -3.041531307235063 0 0 -1
356 86 2 -4.2837112597189 -0.6897815347048377 -2.664349669080835 0 0 -1
357 86 4 -4.161429231382642 -0.9943814647531041 -2.2871680309266065 0 0 -1
1293 398 4 -4.108006630215966 -1.0953542733040322 -1.8821107797638872 1 0 0
761 221 2 -3.056079031074265 -0.7198296329326017 -2.189264051439997 -1 1 0
762 221 4 -2.709633468300052 -1.0781251184049185 -2.1492663374535956 -1 1 0
274 58 4 -0.10436106105387197 -3.4782278278954935 -6.574330095578871 0 0 0
1377 426 4 -2.824352369266278 -1.236280837132575 -1.8234780519544822 1 1 0
1374 425 4 -2.018468258170531 -0.21041396885884847 -3.0781401623374802 1 0 1
763 221 4 -3.402524593848478 -0.36153414746028484 -2.229261765426398 -1 1 0
1385 429 2 -0.5937757250566414 -1.5804268696318566 -3.3429052041038347 0 0 0
1563 488 4 -0.9149245402249535 -1.0389897368212138 -2.7871994430828466 0 0 1
1387 429 4 -0.6433911768033089 -1.1757259614220752 -3.0534998105081756 0 0 0
1562 488 2 -0.7319516554051738 -0.5747396929045582 -2.818708491689724 0 0 1
1564 488 4 -0.5489787705853941 -0.11048964898790248 -2.8502175402966015 0 0 1
1282 394 4 -4.440573072279183 -6.846426641955115 -5.300882013285357 0 1 0
1120 340 4 -6.518310905163712 -6.474257424781615 -2.0491912465894084 0 0 0
727 209 4 -6.200972814130416 -6.229470584601936 -1.9868516684382955 0 1 0
725 209 2 -5.819384896971685 -6.09636638749627 -1.6924472965423278 0 1 0
810 237 4 -5.252093462564884 -6.310965878858247 -1.3657109887358665 0 1 0
726 209 4 -5.437796979812954 -5.963262190390605 -1.3980429246463602 0 1 0
809 237 2 -5.190221721635224 -6.4745601811930715 -0.897300066662202 0 1 0
442 114 4 -3.4007725767878143 -5.766379367898655 -0.7781645844362453 0 0 0
441 114 4 -3.141127231628913 -6.496966511782401 -1.4096918759517447 0 0 0
440 114 2 -3.2709499042083636 -6.131672939840528 -1.093928230193995 0 0 0
811 237 4 -5.128349980705564 -6.638154483527896 -0.42888914458853766 0 1 0
1582 494 4 -5.3504806834863885 -6.920113189289761 -0.27656851807627303 0 0 0
1267 389 4 -3.461497274492542 -5.371055513010594 -1.9408161875409804 1 1 0
540 147 4 -3.259419829321986 -6.835243934048736 -1.5742077334034867 0 0 0
1036 312 4 -3.471416505230109 -5.96522877622447 -0.4245457755095103 0 0 0
663 188 4 -0.8623964977371327 -5.702246288848418 -1.7268884914358853 0 1 0
401 101 2 -6.513401318653349 -4.175320875604165 -0.32675378945119704 1 0 0
403 101 4 -6.238930100004093 -3.758345808812006 -0.298516512550087 1 0 0
402 101 4 -6.787872537302605 -4.5922959423963245 -0.3549910663523071 1 0 0
549 150 4 -3.509560568957909 -4.75907765851725 -0.5735504757703411 0 0 0
548 150 2 -3.553980655405262 -4.34283216680241 -0.3001157549556159 0 0 0
884 262 2 -3.601242705892138 -4.962662440334169 -1.2208612905534841 -1 0 0
550 150 4 -3.5984007418526156 -3.926586675087569 -0.026681034140890625 0 0 0
1345 415 4 -3.26703951506166 -3.7486828979646014 -0.0763570942781134 1 0 0
885 262 4 -3.819125497716824 -4.775485747532648 -0.8116034565430731 -1 0 0
850 250 4 -0.5414933669529491 -5.491312857797071 -1.612876783825484 0 1 0
532 144 4 -0.6867043932646524 -3.559864586450405 -0.4462596157929692 0 0 0
841 247 4 -0.8473850804690026 -3.9206501525153667 -0.4400411091024913 0 1 0
530 144 2 -0.55192181719134 -3.594240175621731 -0.9265220191269886 0 0 0
848 250 2 -0.2456544965159092 -5.216722611085355 -1.3177843251801458 0 1 0
332 78 2 -1.7526330981445257 -2.1968671352056903 -1.0823172415700815 0 0 0
334 78 4 -1.8426745410432706 -2.648132936798871 -0.8867367853041551 0 0 0
531 144 4 -0.4171392411180277 -3.6286157647930573 -1.4067844224610082 0 0 0
966 289 4 -0.13654090524574844 -3.364671184850901 -1.5067250378253059 1 0 0
350 84 2 -4.5503877479373145 -1.1060396462115696 -0.2871957005856923 0 0 0
352 84 4 -4.376969133619052 -1.4349463694678706 -0.6214805366234692 0 0 0
1294 398 4 -4.505340428402959 -1.2980547580879223 -0.9871033125961235 1 0 0
1292 398 2 -4.306673529309462 -1.1967045156959772 -1.4346070461800053 1 0 0
333 78 4 -1.6625916552457807 -1.74560133361251 -1.2778976978360077 0 0 0
1376 426 2 -2.4074577229999186 -1.3704496061009779 -1.5822362741710292 1 1 0
1378 426 4 -1.9905630767335591 -1.5046183750693807 -1.3409944963875762 1 1 0
381 94 4 -1.7511519791980787 -0.5958838942782853 -1.0956096377301703 0 0 0
380 94 2 -1.599286332798353 -0.17535107825450008 -1.3194153036335672 0 0 0
1299 400 4 -1.9159423422716526 -0.9370678695976822 -0.9497130916688874 0 0 0
919 273 4 -6.7005031460939275 -6.424525027321188 -4.234275110159252 0 1 1
77 16 3 -0.11916594239712631 -3.5547161446203908 -4.1763332405545865 0 0 0
1034 312 2 -3.297719195633797 -5.62053009985471 -0.10672181928871242 0 0 0
1514 472 2 -2.10628584243239 -3.996007277010888 -6.997291292226961 0 1 1
1524 475 4 -3.1345684252454857 -5.065493621261676 0.5536443913568299 0 1 1
1035 312 4 -3.1240218860374847 -5.2758314234849495 0.21110213693208546 0 0 0
116 24 1 -0.0039391414950747635 -3.578342085460652 2.9883537937859916 0 1 0
1255 385 4 -4.492103664062874 -3.8155735935496597 1.2745194173351877 1 0 1
128 26 3 -5.457412013870062 -3.1613194283526314 2.1683213754926856 0 0 0
574 158 4 -0.05818407361310873 -3.783324624596586 2.3890255150687056 0 0 0
1523 475 2 -2.8638701691546373 -5.133043658106331 0.9685654039263719 0 1 1
1525 475 4 -2.5931719130637885 -5.200593694950986 1.383486416495914 0 1 1
628 176 4 -2.6074214087959886 -4.786123136828639 1.4233337324310047 0 0 0
626 176 2 -2.2814801438530563 -4.56864884042784 1.7339254615744792 0 0 0
1498 466 4 -5.639570996674806 -6.836776067555805 6.539358200776783 1 1 0
840 247 4 -1.47644436773181 -4.000870294156616 0.3331659407776128 0 1 0
1424 442 2 -1.2452973858728478 -4.029311549016042 1.0410807523512267 0 1 0
1426 442 4 -1.6204801547419145 -4.052700633717897 0.7113978127554623 0 1 0
1425 442 4 -0.870114617003781 -4.005922464314188 1.370763691946991 0 1 0
573 158 4 -0.540403950381217 -3.8433631724454824 1.5150350327281206 0 0 0
611 171 2 -0.013330999005270634 -4.374472992211175 6.351887774791007 0 0 -1
863 255 2 -6.007677281197913 -3.3586902278556443 0.191144956849578 0 1 0
1546 482 4 -6.179565960285154 -3.199958967975445 1.0475654464550164 1 1 0
864 255 4 -6.044356775155346 -3.25173875988141 0.6781932072533932 0 1 0
1544 482 2 -5.975528203850851 -3.2305344568625833 1.5030143825921647 1 1 0
1253 385 2 -4.6285086293084365 -3.359411288163064 1.4271943550317583 1 0 1
1254 385 4 -4.764913594553999 -2.903248982776468 1.5798692927283289 1 0 1
129 26 3 -4.850157706102047 -2.760382885294556 1.9490222780532687 0 0 0
425 109 2 -2.0829253088619577 -2.8796072263599433 1.7136559299767373 0 0 0
37 8 3 -1.699735395746969 -2.2703163959863444 1.9294066640929464 0 0 0
426 109 4 -2.23595539428758 -3.352161833313895 1.7708742522285694 0 0 0
427 109 4 -1.9298952234363353 -2.4070526194059916 1.6564376077249052 0 0 0
812 238 2 -0.5827701107393028 -2.316340961642295 1.0937607189502485 0 0 0
814 238 4 -0.20357629389760817 -2.522675830582935 0.8414950432664194 0 0 0
813 238 4 -0.9619639275809975 -2.110006092701655 1.3460263946340776 0 0 0
39 8 3 -1.0130637371174136 -2.3751127658689133 1.6423530905318855 0 0 0
741 214 4 -0.27065122843858747 -2.43508567304488 0.46945351678606906 0 0 0
36 8 1 -1.2650709566707414 -2.1199413937206777 1.9367676488147816 0 0 0
1496 466 2 -5.919155229728929 -6.9777570228663635 6.149541542760337 1 1 0
1486 462 4 -3.674267011679084 -0.2767541631359248 1.372740459234704 0 0 0
1317 406 4 -3.895131059359549 -0.46484963827770154 1.0784375605536274 0 0 0
1316 406 2 -4.190697120212235 -0.655974395658234 0.7233150031340017 0 0 0
1318 406 4 -4.4862631810649205 -0.8470991530387665 0.368192445714376 0 0 0
239 48 3 -2.0856122556565633 -0.38184789734107116 1.5531759585416132 0 0 0
399 100 4 -1.7223564452669682 -0.527491760046044 1.7319994489437893 0 0 0
398 100 2 -1.6661571293687822 -1.0185072097402632 1.8077982949379492 0 0 0
400 100 4 -1.6099578134705963 -1.5095226594344824 1.883597140932109 0 0 0
1236 379 4 -0.5179887851224634 -0.37596825972202097 1.6568609144809838 0 0 0
1235 379 2 -0.9680501594774894 -0.19794270949138407 1.5313552860069246 0 0 0
40 8 3 -1.2555452836128074 -1.6824485682823178 1.8106356178207383 0 0 0
1536 479 4 -4.035110539953271 -6.551383626777862 6.454885929702663 0 1 -1
1065 322 4 -0.0633945829699713 -5.1104311483016005 3.625133241539462 0 0 -1
365 89 2 -6.841405720428547 -5.337341854422218 3.163426069139429 0 0 -1
366 89 4 -6.656252716113669 -4.886650136637557 3.051197104457266 0 0 -1
1484 462 2 -3.2310706532657716 -0.07925879926713637 1.4934573558965962 0 0 0
1480 460 4 -4.466219717964243 -6.0645983765020235 2.7913225677572506 0 1 0
1478 460 2 -4.096250076918013 -5.77258551262203 2.9582086128078906 0 1 0
1479 460 4 -3.7262804358717814 -5.4805726487420365 3.125094657858531 0 1 0
1365 422 4 -3.3762666131156513 -5.619480781720114 2.9633272358522915 0 1 0
1364 422 2 -2.987594424048623 -5.420560414810057 3.2069757882270533 0 1 0
383 95 2 -0.13410094247105472 -5.823074677586116 2.3757155132453494 -1 0 -1
207 42 3 -0.6220365561404392 -5.309264544007725 2.6762881978684643 0 1 0
385 95 4 -0.5329192583807703 -5.522049235910206 2.357614840374339 -1 0 -1
1041 314 4 -1.267930081082262 -5.258875036985424 3.616425712481782 0 0 -1
772 224 4 -6.41978420447011 -4.579334832959678 3.2020203126113085 0 0 0
770 224 2 -6.306768462575404 -4.094654937894242 3.2501123223787727 0 0 0
771 224 4 -6.193752720680697 -3.6099750428288053 3.298204332146237 0 0 0
130 26 3 -4.871093771687876 -3.075016834594986 2.6327379785496925 0 0 0
627 176 4 -1.955538878910124 -4.351174544027041 2.044517190717954 0 0 0
283 61 4 -1.5689775728343844 -4.424245729674927 2.1345593253905824 0 0 -1
206 42 1 -0.7199123797019193 -5.068010318512024 3.0555199500236045 0 1 0
210 42 3 -0.3512802933881427 -5.052056946141988 3.3224579106998666 0 1 0
208 42 3 -0.8446621441284152 -4.638491429224626 2.9320249297965497 0 1 0
282 61 4 -0.8812197173551997 -4.225851588980767 2.8328636266558225 0 0 -1
777 226 4 -0.7458837294978584 -5.592125518792815 6.718130226173738 0 1 -1
281 61 2 -1.225098645094792 -4.325048659327846 2.4837114760232026 0 0 -1
572 158 2 -0.2992940119971629 -3.813343898521034 1.9520302738984132 0 0 0
407 103 2 -0.05617742214187321 -2.1525502132097443 4.928116788087624 0 0 -1
1545 482 4 -5.7714904474165465 -3.2611099457497215 1.9584633187293132 1 1 0
292 64 4 -0.8711272950211968 -0.6455398565346028 6.171021919067266 0 0 -1
879 260 4 -2.446158929237979 -0.19356095701036774 4.954981576064814 0 0 -1
278 60 2 -5.987417902003622 -2.2305265540861288 2.434629858694519 0 0 0
1407 436 4 -6.663850680069472 -2.3788375796461976 2.609928858283826 1 0 0
279 60 4 -6.459965794936303 -2.3055041550380553 2.2894511817473995 0 0 0
126 26 1 -5.120390528567986 -2.8748163282894765 2.308437370650099 0 0 0
127 26 3 -5.311400098227199 -2.4924780685749535 2.4785338122855447 0 0 0
280 60 4 -5.514870009070941 -2.1555489531342023 2.579808535641639 0 0 0
119 24 3 -0.41417585058246714 -3.4261105177684326 2.8339795980302336 0 1 0
820 240 4 -1.0422473645137995 -2.555617285378182 2.437612429102693 0 1 0
38 8 3 -1.0983139224680598 -2.1641907618500893 2.3675043258739774 0 0 0
818 240 2 -0.8391854908387985 -2.878984703966277 2.7604117290635624 0 1 0
819 240 4 -0.6361236171637974 -3.2023521225543723 3.0832110290244317 0 1 0
506 136 2 -3.375048902846986 -0.8452417414412602 3.569001864488295 0 0 0
507 136 4 -3.081692382039136 -0.7299360711397045 3.1808697296476867 0 0 0
523 141 4 -3.0083355155444242 -0.6931055770337154 2.7856568722280257 0 0 0
521 141 2 -2.995281462097076 -0.20619139528038832 2.6727667872064718 0 0 0
1581 494 4 -6.145170513565091 -6.913315918943065 0.33040913479539447 0 0 0
1366 422 4 -2.5989222349815946 -5.221640047899999 3.450624340601815 0 1 0
719 207 2 -2.361357490911144 -6.640780145976503 3.9672348553169083 0 1 -1
721 207 4 -1.9738107202733657 -6.359381665154122 4.110839853694535 0 1 -1
209 42 3 -1.0688578623148424 -5.276014488871381 3.2797326063951338 0 1 0
1040 314 2 -1.5317275246550413 -5.655288172521255 3.7689627071390435 0 0 -1
1042 314 4 -1.7955249682278203 -6.051701308057085 3.921499701796305 0 0 -1
593 165 2 -3.779344303621428 -4.202214860371435 4.599918150079307 0 1 -1
594 165 4 -4.073548990305162 -4.581837158826595 4.7389523647494345 0 1 -1
373 91 4 -3.9564882274935953 -4.935820550589101 4.883262843330371 0 0 -1
595 165 4 -3.485139616937694 -3.8225925619162755 4.46088393540918 0 1 -1
1147 349 4 -2.3755719903192936 -5.092534542988367 3.773296386498326 0 0 0
1145 349 2 -2.4351567690963 -4.665343567976634 4.026194636802176 0 0 0
1146 349 4 -2.4947415478733066 -4.238152592964901 4.279092887106025 0 0 0
1182 361 4 -2.1627817858124847 -4.008690090674357 4.23805646835915 0 0 0
1181 361 2 -1.9892533918383044 -3.5418531986775528 4.193883934408797 0 0 0
1588 496 4 -1.4396240921073749 -4.071049615748076 4.764376429922315 0 1 0
1586 496 2 -1.0520274748548728 -4.386902614070209 4.766773458308617 0 1 0
1110 337 4 -0.49350382452750746 -4.821766208368506 5.094519457868674 0 0 0
1587 496 4 -0.6644308576023708 -4.702755612392342 4.76917048669492 0 1 0
305 69 2 -6.6819974441213725 -2.6477028851680524 5.105696229717972 0 0 -1
1269 390 4 -3.209674837799755 -3.574420603120062 4.602721655614713 1 1 -1
1183 361 4 -1.8157249978641241 -3.0750163066807485 4.149711400458444 0 0 0
949 283 4 -2.2482350228207046 -1.5554756210703566 4.696082439156898 1 0 0
429 110 4 -2.1399062316140594 -1.9485615430786267 4.8010425061056266 0 0 0
428 110 2 -1.9236654087461256 -2.3375197517044977 4.5731139680326365 0 0 0
430 110 4 -1.7074245858781916 -2.7264779603303686 4.345185429959646 0 0 0
325 75 4 -3.9066399461814587 -1.3496494911844694 5.159931861752864 0 0 -1
53 11 3 -4.013143570766422 -1.001934254299493 4.985756434320136 0 0 0
502 134 4 -3.62104463157185 -0.16218177299709002 4.361450383040968 0 -1 0
55 11 3 -3.6055227634597125 -0.4696222504547608 4.643135349134398 0 0 0
51 11 1 -3.642681471216542 -0.9170318006810436 4.719580916725408 0 0 0
52 11 3 -3.6947848223700226 -1.1355157960887858 4.318146009736238 0 0 0
508 136 4 -3.668405423654836 -0.9605474117428157 3.957133999328903 0 0 0
54 11 3 -3.25887644434135 -1.0745525718416133 4.927381080340533 0 0 0
947 283 2 -2.5874203113663348 -1.252098176225004 4.90324292282425 1 0 0
948 283 4 -2.926605599911965 -0.9487207313796515 5.110403406491601 1 0 0
735 212 4 -4.074905120290343 -6.841315354752359 6.196497415619259 0 1 -1
776 226 2 -0.39863118359366917 -5.665330558368466 6.365913401555956 0 1 -1
778 226 4 -0.05137863768947998 -5.738535597944117 6.013696576938175 0 1 -1
1440 447 4 -4.039531934842261 -4.952874928972292 6.263728575629758 0 0 -1
372 91 4 -3.9273747338881146 -4.953878034955114 5.8826758369165635 0 0 -1
371 91 2 -3.941931480690855 -4.9448492927721075 5.382969340123467 0 0 -1
1439 447 2 -3.7064934771757456 -5.063689633409826 6.619826156351225 0 0 -1
1515 472 4 -1.858318880264929 -4.090340128264886 6.578900143858068 0 1 0
1111 337 4 -0.037234227965593336 -5.4963877114936475 5.674781366643114 0 0 0
1109 337 2 -0.2653690262465504 -5.159076959931077 5.384650412255894 0 0 0
1264 388 4 -1.6582189624904533 -4.111698660100083 6.256375089543841 0 1 -1
1262 388 2 -1.217117642844501 -4.302426869639722 6.118344745443386 0 1 -1
1263 388 4 -0.7760163231985487 -4.493155079179361 5.98031440134293 0 1 -1
612 171 4 -0.37615203111248136 -4.487439181084438 6.026926948179031 0 0 -1
728 210 2 -6.96417560158713 -2.306696413128873 6.241429594331756 0 0 -1
306 69 4 -6.27638221444425 -2.5054731019453387 5.361131102470918 0 0 -1
730 210 4 -6.6574272384536055 -1.9166294340825123 6.302692907763694 0 0 -1
433 111 4 -6.036097453584885 -2.221134011716832 5.241191948448139 0 0 0
431 111 2 -5.5876820015172655 -2.0187531545220883 5.330441996000431 0 0 0
177 36 3 -1.1912252404540606 -0.6224953524394015 6.420106672751398 0 0 0
317 73 2 -4.4078503665252935 -1.9957069298402792 6.81309807140798 0 0 -1
324 75 4 -4.772890679935493 -1.8435253490499872 5.235405720059403 0 0 -1
323 75 2 -4.339765313058476 -1.5965874201172283 5.197668790906134 0 0 -1
432 111 4 -5.139266549449646 -1.8163722973273444 5.419692043552723 0 0 0
318 73 4 -4.1440043084227485 -1.980251509470911 6.388661518310686 0 0 -1
72 15 3 -3.7826107892072374 -1.784974935974488 6.44278739700424 0 0 -1
1268 390 2 -3.0811174608647 -3.360490118200089 5.0359730242882925 1 1 -1
1270 390 4 -2.952560083929645 -3.146559633280116 5.4692243929618725 1 1 -1
394 98 4 -2.854484676722431 -2.984365834646361 5.823964846610333 0 0 0
392 98 2 -2.5570630955756934 -3.0609030020680295 6.218531019857922 0 0 0
393 98 4 -2.259641514428956 -3.137440169489698 6.613097193105511 0 0 0
477 126 4 -2.280291891776054 -2.9349594731073654 6.947557732670057 0 0 0
273 58 4 -0.3859493816416747 -3.2626432167639225 6.490666539105554 0 0 -1
1580 494 2 -5.74782559852574 -6.916714554116413 0.02692030835956073 0 0 0
1239 380 4 -0.10215150209609233 -2.956445274958382 6.430662086339188 0 0 0
1237 379 4 -1.4181115338325154 -0.01991715926074719 1.4058496575328654 0 0 0
355 85 4 -6.256652361678775 -0.051028873555406806 6.391435967410724 1 0 0
353 85 2 -6.487117091224646 -0.30029505301156795 6.758522306321228 1 0 0
1173 358 4 -3.809557524686246 -1.162963639819485 5.865662663032444 0 0 0
1172 358 2 -3.8327749206964747 -0.6815077347111209 5.99855797505983 0 0 0
73 15 3 -3.5060111699427305 -1.4569652618279532 5.8256955851243175 0 0 -1
1174 358 4 -3.855992316706703 -0.20005182960275703 6.131453287087216 0 0 0
180 36 3 -1.8799918041606127 -0.6337182627507179 6.132922642896085 0 0 0
74 15 3 -3.04678944782594 -1.8356789634591644 6.298232718197595 0 0 -1
672 191 4 -2.1537641500448954 -0.8718839351138128 5.940786955309843 0 1 -1
71 15 1 -3.4697390837950746 -1.823578452276263 6.107793270963633 0 0 -1
179 36 3 -1.3548850348334098 -0.1876198449415864 5.829345498771463 0 0 0
369 90 4 -1.2669988393652125 -0.2446527865701703 5.441960749362627 0 -1 0
75 15 3 -3.5461957873490113 -2.207226148113929 5.874622050697924 0 0 -1
673 191 4 -2.729648878382128 -1.577308389096342 6.3539855992954735 0 1 -1
671 191 2 -2.4417065142135117 -1.2245961621050774 6.147386277302658 0 1 -1
178 36 3 -1.6431518182796332 -0.0294124676973056 6.514526268603029 0 0 0
290 64 2 -0.4089563713567732 -0.6674413259840134 5.9815005140623 0 0 -1
176 36 1 -1.5205686665780702 -0.36895354545573955 6.223004009704117 0 0 0
408 103 4 -0.269719923488135 -2.123928445963924 4.4769179466014295 0 0 -1
118 24 3 -0.06706715281637793 -3.924197773237002 3.2911717216229794 0 1 0
1338 413 4 -6.034702503846387 -0.2893381161207839 6.160932825972576 1 0 0
1129 343 4 -6.493774707668128 -6.777049235704231 0.17061713980915008 0 0 0
1535 479 2 -4.094091762860894 -6.560346114737099 6.9513140606078085 0 1 -1
768 223 4 -1.7306223134995111 -0.13970814219162803 6.890827079251259 0 0 0
720 207 4 -2.7489042615489225 -6.9221786267988845 3.8236298569392813 0 1 -1
853 251 4 -3.040949168429776 -5.386519301021919 6.8474254623171635 0 1 -1
351 84 4 -4.723806362255577 -0.7771329229552685 0.047089135452084596 0 0 0
1441 447 4 -3.37345501950923 -5.17450433784736 6.9759237370726925 0 0 -1
272 58 2 -0.24515522134777334 -3.370435522329708 6.958168221763342 0 0 -1
1319 407 2 -3.6404862602471115 1.9057166616978398 -6.442527746495913 1 0 0
1399 433 4 -3.4001093153616817 1.2000793722978773 -6.343992696533926 1 0 0
1397 433 2 -2.9472590508524537 0.9995649416398835 -6.412699326721597 1 0 0
769 223 4 -2.2463608879385775 0.49315234798387747 -6.531677186729582 0 0 1
1398 433 4 -2.4944087863432256 0.7990505109818897 -6.481405956909269 1 0 0
1321 407 4 -3.3033045164557007 1.5465383608061356 -6.527964388649156 1 0 0
1187 363 2 -0.07269713328255999 0.48297231686035824 -6.611270662240913 0 0 0
541 147 4 -3.075017326324216 6.223381832497631 -1.2917006193725267 0 -1 0
1320 407 4 -3.9776680040385224 2.264894962589544 -6.357091104342671 1 0 0
1422 441 4 -3.724490824472403 2.547388940947556 -6.3089950410548115 1 0 0
1421 441 2 -3.6854212186495428 2.8544492756137814 -5.916327857837975 1 0 0
193 39 3 -3.5872429711512073 3.1809507387689138 -5.107403725075894 0 0 0
1423 441 4 -3.6463516128266824 3.1615096102800067 -5.523660674621138 1 0 0
1278 393 4 -3.5332866969047623 4.289719116405799 -5.042168528336121 0 0 0
1527 476 4 -3.0398336771404146 3.2448348130410882 -6.984651286376674 1 0 1
1030 310 4 -2.752391898436446 3.8113935313673535 -5.502816334994896 0 -1 0
1028 310 2 -2.439651197177265 3.961410833918179 -5.8629386235458325 0 -1 0
194 39 3 -3.0232019250384634 3.5019538543596123 -5.502896706152953 0 0 0
1029 310 4 -2.126910495918084 4.111428136469004 -6.223060912096769 0 -1 0
472 124 4 -1.9108628253256414 4.451123117675609 -6.194700258519891 0 -1 1
815 239 2 -3.186415891432425 5.149613139879943 -6.980167347658346 0 0 1