LAMMPS data file via write_data, version 27 Jun 2024, timestep = 1500000, units = lj

1600 atoms
4 atom types
1100 bonds
1 bond types

-8 8 xlo xhi
-8 8 ylo yhi
-8 8 zlo zhi

Masses

1 1
2 1
3 0.5
4 0.5

Bond Coeffs # zero

1 0

Atoms # bond

458 120 2 -7.844649562023803 -7.238914321238968 -7.816942212278367 0 0 1
459 120 4 -7.714093979938793 -6.7731945302707395 -7.690212909087659 0 0 1
1451 451 2 -2.611168848612436 -7.7085381663862425 -7.092048855939577 0 1 1
1317 406 4 -7.848084295415977 -0.7915441247585405 -0.9196927312457069 0 0 0
1452 451 4 -3.0883941070075585 -7.740503879744078 -6.946329104638846 0 1 1
294 65 4 -7.880198921443354 -0.8795303055031337 -0.5310247249677567 0 0 0
638 180 2 -7.576841509310259 -5.991666239518429 -7.433199889591045 0 1 0
501 134 4 -7.709696824454079 -5.220157751178686 -7.163965171615673 0 0 0
639 180 4 -7.568922847365416 -5.491735299328432 -7.430680001956569 0 1 0
500 134 2 -7.4485596336335025 -4.894815006239688 -6.88835772272163 0 0 0
502 134 4 -7.187422442812926 -4.569472261300691 -6.612750273827587 0 0 0
19 4 3 -7.08962196194169 -4.351311669161351 -6.278104682616557 0 0 0
1375 425 4 -0.9716214998679535 -4.640383212738408 -7.803197885938289 0 0 0
397 99 4 -5.342263288570911 -3.974638318369876 -6.777354623492124 0 0 0
395 99 2 -5.7025240798459045 -4.161848516269667 -6.485525042962177 0 0 0
671 191 2 -4.647128821700997 -3.5547553512655075 -7.0638550702413765 0 1 0
1051 317 4 -3.8846259270058674 -3.589254830664655 -7.240255638352919 1 0 0
672 191 4 -4.196386584965174 -3.348777997207054 -7.130223478670782 0 1 0
1049 317 2 -3.599474288867143 -3.9951170141186094 -7.177291908248032 1 0 0
689 197 2 -2.6414084338647386 -4.768286184936515 -7.591061153456514 0 1 0
690 197 4 -3.0499172483144568 -4.6058396541973226 -7.352877037345269 0 1 0
1050 317 4 -3.3143226507284185 -4.400979197572564 -7.114328178143144 1 0 0
691 197 4 -2.2328996194150204 -4.930732715675707 -7.829245269567759 0 1 0
1374 425 4 -1.8807607060299687 -5.021891703582436 -7.6361135502495925 0 0 0
1373 425 2 -1.4261911029489611 -4.831137458160422 -7.719655718093941 0 0 0
1376 426 2 -7.065409428876258 -2.4354857269520527 -6.196892073237313 1 0 0
1377 426 4 -7.535264234039994 -2.3091737701310433 -6.081645591171587 1 0 0
1399 433 4 -7.727128479057434 -2.2842741399212874 -6.427153217654644 1 0 0
1016 306 2 -4.056295041112708 -6.665725535258442 -5.535575594288481 1 0 0
1599 500 4 -3.8362804027168944 -7.286157941599655 -6.1065214953664935 0 1 1
1018 306 4 -3.9577119315546154 -6.942287992755199 -5.940291022229262 1 0 0
1598 500 2 -3.4478758349467515 -7.528101872539569 -6.308028383627395 0 1 1
1600 500 4 -3.0594712671766087 -7.770045803479483 -6.509535271888296 0 1 1
1559 487 2 -6.509886915601975 -5.185248589313573 -5.218080876111768 1 1 0
1561 487 4 -6.508694758321971 -4.771846779566272 -5.499323693724022 1 1 0
18 4 3 -6.748692489872861 -4.870668737580868 -5.840342954552552 0 0 0
1028 310 2 -1.5380123846237994 -5.05151947739145 -6.193528674441613 0 0 0
1035 312 4 -1.9533709782042585 -5.003200356216778 -5.5958537112371936 0 0 0
1034 312 2 -1.9081935499774496 -5.2904841372973594 -5.189126494165441 0 0 0
921 274 4 -0.18954853442177055 -5.780584250710349 -6.187750702727405 0 0 0
920 274 2 -0.5295347434941203 -5.528294752060514 -6.45375706827438 0 0 0
1029 310 4 -1.1206909813317174 -5.225623160055651 -6.406908040916495 0 0 0
922 274 4 -0.8695209525664701 -5.27600525341068 -6.719763433821356 0 0 0
907 269 4 -2.7739499749292498 -0.9320340793393878 -0.32950165588994934 0 0 0
16 4 1 -6.690499677147615 -4.475684601251599 -6.0767771496161185 0 0 0
17 4 3 -6.562091487513067 -4.144771504651947 -5.784188941833205 0 0 0
396 99 4 -6.062784871120898 -4.349058714169458 -6.19369546243223 0 0 0
20 4 3 -6.367291528379903 -4.530038146896132 -6.3929767458303255 0 0 0
673 191 4 -5.097871058436821 -3.760732705323961 -6.997486661811971 0 1 0
1030 310 4 -1.9553337879158814 -4.877415794727248 -5.980149307966732 0 0 0
838 246 4 -1.827592843337269 -4.499413284001966 -4.375292507943401 0 0 1
460 120 4 -7.975205144108812 -7.704634112207196 -7.943671515469076 0 0 1
287 63 2 -1.5963418756447527 -0.7783201411782315 -1.2618629731517166 0 0 0
1378 426 4 -6.595554623712522 -2.5617976837730625 -6.312138555303039 1 0 0
98 20 3 -7.09889285917459 -3.0912754425167215 -4.8769855250335485 0 1 0
935 279 2 -4.666174512813308 -6.24628886704102 -4.7450373488047335 1 0 0
937 279 4 -4.254907122122178 -6.530030455195838 -4.763741479506624 1 0 0
1017 306 4 -4.154878150670801 -6.389163077761685 -5.1308601663477 1 0 0
388 96 4 -1.9430369152486615 -6.387374586303307 -3.431625566561317 -1 0 0
386 96 2 -2.3319466659691686 -6.5057329795153205 -3.140523356760851 -1 0 0
1560 487 4 -6.51107907288198 -5.598650399060873 -4.9368380584995135 1 1 0
1572 491 4 -6.439622130981247 -5.930433890588903 -4.7668438440351775 1 1 0
1573 491 4 -5.456746177057633 -5.9342537074825135 -4.582614996680863 1 1 0
1571 491 2 -5.94818415401944 -5.932343799035708 -4.6747294203580205 1 1 0
936 279 4 -5.077441903504438 -5.962547278886202 -4.726333218102843 1 0 0
1213 371 4 -1.959615190984512 -6.29260092857999 -3.8331599713672775 0 1 1
1212 371 4 -2.078100376399493 -5.902606465137545 -4.746322377142762 0 1 1
1036 312 4 -1.8630161217506407 -5.5777679183779405 -4.782399277093688 0 0 0
1211 371 2 -2.0188577836920025 -6.0976036968587675 -4.2897411742550196 0 1 1
1045 315 4 -6.325573164114261 -3.9396071771464567 -3.4202444562818815 1 0 0
1345 415 4 -6.664547656067041 -4.00182491923801 -3.6313156966184286 1 1 0
1081 327 4 -2.07920149286554 -3.2043798398294565 -4.150220256955891 0 0 0
837 246 4 -2.15073015091607 -3.554962309276481 -4.315337218015582 0 0 1
836 246 2 -1.9891614971266696 -4.0271877966392235 -4.3453148629794915 0 0 1
1079 327 2 -1.852389498978597 -3.0659678009651796 -3.7266657422513796 0 0 0
96 20 1 -7.460457944759111 -3.2639390459334936 -4.642981317931772 0 1 0
99 20 3 -7.697948413480788 -2.919763378754916 -4.441880876886816 0 1 0
100 20 3 -7.314986588974885 -3.5577411476223517 -4.326882583847866 0 1 0
1343 415 2 -7.027478517697821 -3.988928536394984 -3.9749941407860963 1 1 0
1344 415 4 -7.3904093793286005 -3.9760321535519583 -4.318672584953764 1 1 0
564 155 4 -6.414150175836961 -0.26341512673966705 -3.597579925010957 0 0 0
97 20 3 -7.737305953098587 -3.4832480835844435 -4.937699363329433 0 1 0
1278 393 4 -4.3705123248988444 -7.59632572833712 -0.9625179199702911 0 1 0
444 115 4 -4.109950769105024 -7.3055994006169005 -0.8637011308530373 0 0 0
443 115 2 -4.314862915793568 -6.895058326390899 -1.062364259070341 0 0 0
387 96 4 -2.7208564166896756 -6.624091372727335 -2.8494211469603856 -1 0 0
1446 449 4 -2.680928946801589 -6.9371768944844625 -2.627245472345493 0 1 0
1445 449 2 -2.501996458475836 -7.163854463296426 -2.219078295297658 0 1 0
1447 449 4 -2.3230639701500833 -7.390532032108389 -1.810911118249823 0 1 0
765 222 4 -2.075515268834611 -7.274224631086133 -1.5307791955336651 0 1 0
7 2 3 -6.610733420945507 -4.600536599453813 -1.4700155181262275 0 0 0
967 289 4 -6.487022918272861 -4.99296182718343 -1.467855922462784 1 0 -1
1043 315 2 -6.473783846008837 -4.158884245416728 -2.996037948666549 1 0 0
1044 315 4 -6.621994527903413 -4.378161313687 -2.571831441051217 1 0 0
6 2 1 -6.301097811331775 -4.421818893464699 -1.7594732366706873 0 0 0
10 2 3 -6.4757663175402005 -4.414196277995984 -2.1799881694283463 0 0 0
8 2 3 -6.199247205382252 -3.990350366178868 -1.622501108011783 0 0 0
9 2 3 -5.9189653559503395 -4.684899476882938 -1.7515112537321158 0 0 0
840 247 4 -5.869302448113012 -3.915398187258701 -1.8125842226829143 0 0 0
610 170 4 -1.1751270882998983 -3.034927389128358 -1.9906852468128888 0 0 0
28 6 3 -1.0265081112085637 -3.3266106032290783 -1.744212724096423 0 0 0
608 170 2 -1.2723449210384374 -3.000246726928136 -2.4799151975181246 0 0 0
1080 327 4 -1.625577505091654 -2.927555762100903 -3.303111227546868 0 0 0
609 170 4 -1.3695627537769766 -2.965566064727914 -2.9691451482233604 0 0 0
300 67 4 -1.1398210087801468 -0.31246722228062607 -1.8647528862814313 0 0 -1
289 63 4 -1.3650754052619802 -0.49351872574546196 -1.6015745764926386 0 0 0
487 129 4 -0.24347476675647764 -4.849431825645135 -5.808941604670608 0 1 0
3 1 3 -2.826388032324018 -1.2174556199720057 -0.04050062393341358 0 0 0
1453 451 4 -2.1339435902173136 -7.676572453028407 -7.237768607240309 0 1 1
495 132 4 -5.879907348137413 -6.859110828861737 -0.6228670484077632 0 0 0
494 132 2 -5.555685778497175 -6.481966868143262 -0.6742752838694682 0 0 0
994 298 4 -0.15628331244125712 -3.8152926863480054 -1.511606268883484 0 0 0
1396 432 4 -1.9209071052567148 -7.897227408600335 -7.011453518733894 0 1 0
736 212 4 -2.3703283931044825 -7.688952332513942 -1.1856736847505551 0 1 0
1401 434 4 -2.6032388880119406 -7.371361067995524 -1.1699502726007733 0 1 0
1400 434 2 -2.773853813607339 -7.14230363619196 -0.7595562666754518 0 1 0
1486 462 4 -2.1420583099493897 -0.19696748745961254 -7.546140474753038 0 0 1
764 222 2 -1.7427990081376152 -6.971283744642339 -1.3127729818873368 0 1 0
766 222 4 -1.4100827474406197 -6.668342858198544 -1.0947667682410085 0 1 0
276 59 4 -1.0950191848725466 -6.6760391046143726 -0.838700324066428 0 0 0
966 289 4 -6.357867538051422 -5.555877927346781 -0.6514954922988453 1 0 -1
965 289 2 -6.422445228162141 -5.274419877265106 -1.0596757073808147 1 0 -1
796 232 4 -7.639875095311039 -7.918827727549669 -7.877805856584906 0 0 1
496 132 4 -5.231464208856936 -6.104822907424787 -0.7256835193311733 0 0 0
153 31 3 -5.024641606086279 -5.815692618241635 -0.9286494631166631 0 0 0
1086 329 4 -6.528496719105376 -5.275198469665562 -0.3929041273552837 1 0 -1
445 115 4 -4.519775062482112 -6.484517252164897 -1.2610273872876447 0 0 0
155 31 3 -4.380228692035052 -6.189877466164379 -1.0364348785944737 0 0 0
151 31 1 -4.580520588229762 -5.855845415418821 -0.800414232477031 0 0 0
154 31 3 -4.3578716240756865 -5.455258776823889 -0.8729248092268461 0 0 0
427 109 4 -4.2988890950121545 -5.1934068560781625 -0.5927644026646159 0 0 0
425 109 2 -4.11760030651422 -4.894591424498271 -0.23521201067902367 0 0 0
152 31 3 -4.563761139857796 -5.956205278623046 -0.3518085941395797 0 0 0
927 276 4 -4.488036946606143 -5.616953300058302 -0.10495351649555279 0 0 0
1402 434 4 -2.9444687392027378 -6.913246204388395 -0.3491622607501304 0 1 0
275 59 2 -0.8074770061433788 -6.291960271434146 -0.6979773857993102 0 0 0
277 59 4 -0.5199348274142113 -5.907881438253919 -0.5572544475321927 0 0 0
299 67 2 -1.4413137383206036 -0.08179246813341172 -2.190162308138607 0 0 -1
839 247 2 -5.509387903103699 -3.5685260665696092 -1.8244691786966194 0 0 0
27 6 3 -0.545808897707439 -3.8908404375740475 -1.6198223700735672 0 0 0
408 103 4 -0.4328060582725982 -3.5741890045744382 -0.8268948361526709 0 0 0
407 103 2 -0.15147514749089416 -3.7149167911494825 -0.4382451111761448 0 0 0
29 6 3 -1.2248688915642347 -3.9091245578425102 -1.2981964760776101 0 0 0
26 6 1 -0.8760176505217429 -3.6329789602420632 -1.4299022866890165 0 0 0
30 6 3 -0.7061605269878062 -3.4140811031870397 -1.0684714001265851 0 0 0
841 247 4 -5.149473358094385 -3.2216539458805173 -1.8363541347103243 0 0 0
834 245 4 -4.809630516854425 -2.2179924831044273 -1.1948347737197373 1 1 0
1224 375 4 -4.561186405926901 -2.0290865224202568 -0.9581727449483571 1 0 1
835 245 4 -5.3267165211864365 -2.8922822129215646 -1.722049553850415 1 1 0
833 245 2 -5.068173519020431 -2.555137348012996 -1.4584421637850762 1 1 0
1223 375 2 -4.1830750082030645 -2.2444422610742394 -0.7118930731520906 1 0 1
723 208 4 -3.423631073170805 -2.4502145715797847 -0.3618779420985111 0 1 -1
1225 375 4 -3.804963610479229 -2.459797999728222 -0.46561340135582396 1 0 1
288 63 4 -1.8276083460275252 -1.063121556611001 -0.9221513698107946 0 0 0
906 269 4 -2.160076476989292 -1.265671035139142 -1.0449355873273658 0 0 0
905 269 2 -2.467013225959271 -1.098852557239265 -0.6872186216086575 0 0 0
640 180 4 -7.584760171255103 -6.4915971797084255 -7.435719777225522 0 1 0
1339 413 4 -0.06522421631039717 -5.351505981809271 -5.002499445955431 0 0 0
485 129 2 -0.010938504912885331 -4.4079634900422295 -5.776807579282685 0 1 0
349 83 4 -6.896064687940301 -7.940394513405552 -1.7009413067452146 0 0 0
722 208 2 -3.327122266551973 -2.0941640537752417 -0.024366343755665956 0 1 -1
698 200 2 -0.4141182934148885 -5.2442452085704705 -0.0688252333721841 0 1 0
700 200 4 -0.44845981828014714 -5.721197691859277 -0.21489709361357975 0 1 0
1468 456 4 -5.530084603789114 -6.564522482326355 1.1774913769983795 1 1 0
1384 428 4 -7.993829196826493 -4.20267858727582 6.234971145474918 1 0 -1
1179 360 4 -5.1987839776654345 -7.813097091401894 0.35338368205596077 0 0 0
886 262 4 -7.119046465636631 -7.75018668001723 2.6696114249499465 0 1 0
270 57 4 -3.640678006757121 -7.556588752619817 0.7167870003353091 0 1 -1
269 57 2 -3.878126017670631 -7.116720423555558 0.7283755808988432 0 1 -1
271 57 4 -4.115574028584141 -6.676852094491299 0.7399641614623774 0 1 -1
297 66 4 -3.6291153189916194 -7.921255076406615 0.6243008738806506 0 1 -1
1073 325 2 -5.614224533884696 -5.717927556052677 0.9272186796103216 0 0 0
1075 325 4 -5.695837369164894 -5.268316240132524 0.7242679227403024 0 0 0
1074 325 4 -5.532611698604497 -6.16753887197283 1.1301694364803407 0 0 0
928 276 4 -4.883146155155328 -5.941882866440475 0.7542958595356224 0 0 0
1087 329 4 -5.990708567706016 -5.269574729258349 0.4501571265035112 1 0 -1
426 109 4 -3.936311518016285 -4.59577599291838 0.12234038130656863 0 0 0
926 276 2 -4.685591550880735 -5.779418083249388 0.32467117152003483 0 0 0
25 5 3 -4.553646933196042 -6.019581287375938 1.0387681499194743 0 0 0
1301 401 2 -3.4161490168079944 -4.801445462933356 0.7451808326353027 1 1 0
23 5 3 -3.8080113723377886 -5.922212243032876 1.076806020352945 0 0 0
849 250 4 -3.1629267652592326 -5.177041254929529 1.368858352847669 0 1 0
24 5 3 -4.106506378227636 -6.619734378680646 1.1211185664317547 0 0 0
21 5 1 -4.168479770658749 -6.1724064788686315 1.227688021156244 0 0 0
1302 401 4 -3.075487796014746 -5.043877624216327 1.0193643110279227 1 1 0
848 250 2 -2.8453811923555565 -5.418337276241028 1.670422673065682 0 1 0
94 19 3 -7.950326098575971 -1.32257059433497 1.7828932360809662 0 0 0
251 51 2 -1.2728923673477226 -0.006632797496556175 5.538085177793398 0 0 -1
1303 401 4 -3.756810237601243 -4.559013301650385 0.4709973542426826 1 1 0
244 49 3 -0.45007846575034893 -4.6444020015272685 0.44850802328121414 0 1 0
241 49 1 -0.15215561193320337 -4.333170362195678 0.620777695169364 0 1 0
810 237 4 -0.48232221259141234 -4.08169479357413 1.2770957014087183 0 0 0
809 237 2 -0.9173340716543432 -4.006847181283168 1.511962722101128 0 0 0
245 49 3 -0.36865084475578486 -4.052577954981257 0.9067806937178835 0 1 0
811 237 4 -1.352345930717274 -3.9319995689922056 1.7468297427935378 0 0 0
1385 429 2 -7.088125644835167 -1.5278462915406832 1.8492305568868992 1 0 0
1387 429 4 -6.606901623857899 -1.663236904819858 1.8588650506693525 1 0 0
731 211 2 -6.122735968616449 -1.535921893908494 1.2986013449534248 0 0 0
733 211 4 -5.782139533604505 -1.2391361201625395 1.0843298513775896 0 0 0
420 107 4 -5.515186870360935 -0.9858620290243691 0.9125751200282881 0 0 0
419 107 2 -5.24161973215943 -0.5680061602620703 0.9361864274300872 0 0 0
255 52 4 -6.7884387311216585 -7.964510032615517 2.6548183216930132 1 0 0
497 133 2 -3.891446222631668 -0.7458712302859594 1.0573592934100435 0 0 0
499 133 4 -3.5914289956842094 -0.9665838535672849 0.7237793158046976 0 0 0
4 1 3 -3.372530673173576 -0.9244215240836673 0.3993393861753876 0 0 0
724 208 4 -3.2306134599331413 -1.7381135359706985 0.31314525458717923 0 1 -1
2 1 3 -3.0216799559623437 -1.5579479001347245 0.600456528855271 0 0 0
1 1 1 -2.9666808288451505 -1.1493167826865107 0.39650627543725153 0 0 0
5 1 3 -2.6541708790223484 -0.9088195111162036 0.6243189037722333 0 0 0
1506 469 4 -2.3381827397428228 -0.8922839606657462 0.8612631802083055 0 1 0
889 263 4 -5.9293895586163545 -1.369723348213793 6.671722848314806 0 0 0
885 262 4 -7.655747858768329 -7.402084696062494 3.438231372243064 0 1 0
1042 314 4 -7.559705038853319 -7.033114164163489 3.456223185548995 0 0 -1
884 262 2 -7.38739716220248 -7.576135688039862 3.0539213985965055 0 1 0
893 265 2 -5.530738204194583 -6.8747565481127175 2.7867416444618462 1 1 0
894 265 4 -5.388181054022383 -6.924230675940481 2.3100554063443424 1 1 0
1467 456 4 -5.2442098659601255 -6.5728046681748395 2.135722580658373 1 1 0
1466 456 2 -5.38714723487462 -6.568663575250597 1.6566069788283762 1 1 0
726 209 4 -4.399369513111103 -7.224538284339738 2.544581401411957 0 1 -1
725 209 2 -4.311837426859535 -6.816373332648573 2.2693732872739867 0 1 -1
50 10 3 -4.269263101110581 -7.604402174635608 2.498909453418917 0 0 0
46 10 1 -4.017441236352797 -7.723585050793577 2.8591610189402155 0 0 0
49 10 3 -3.5771592122246916 -7.591868380323095 2.7951105860787067 0 0 0
48 10 3 -4.187440707837526 -7.526547589488396 3.2433177819123635 0 0 0
727 209 4 -4.224305340607966 -6.408208380957407 1.9941651731360164 0 1 -1
1261 387 4 -5.593430291392502 -7.868738849726094 0.3936731248438397 1 0 0
984 295 4 -3.410709727188931 -7.444149570319552 2.462867758985958 0 0 -1
983 295 2 -3.0064428685114186 -7.690258289427002 2.3016263085017323 0 0 -1
754 218 4 -2.205997075862103 -7.923670663628643 2.2606265469606464 0 1 0
985 295 4 -2.602176009833906 -7.936367008534453 2.1403848580175064 0 0 -1
1259 387 2 -6.016970234988584 -7.937926155834514 0.13710533097236371 1 0 0
307 69 4 -0.19300886538012835 -5.981397815289861 1.3754026253748435 0 0 -1
1485 462 4 -1.8768673224097285 -0.4433979015336187 7.521686906496864 0 0 0
1545 482 4 -4.0913591524267465 -1.4726221770674424 6.940582218524752 1 0 0
421 107 4 -4.968052593957925 -0.15015029149977144 0.9597977348318862 0 0 0
536 146 2 -4.437831259650449 -0.7290086232889437 7.283788600563628 0 -1 -1
22 5 3 -4.197203629700861 -6.131066889246156 1.684925353677877 0 0 0
850 250 4 -2.5278356194518805 -5.659633297552526 1.9719869932836949 0 1 0
655 185 4 -2.248648386250345 -5.380126922802571 2.0223785228475086 0 0 0
653 185 2 -1.9227285520797395 -5.0323814426454545 2.1735385133363994 0 0 0
857 253 2 -5.128111255496414 -3.7621590609883615 2.4368618360447205 0 1 0
859 253 4 -4.887255182854579 -4.14093129735013 2.6571342701642786 0 1 0
858 253 4 -5.368967328138249 -3.383386824626593 2.2165894019251624 0 1 0
87 18 3 -2.279312945715217 -3.9131315686371786 2.3792639513439577 0 0 0
654 185 4 -1.5968087179091341 -4.684635962488338 2.32469850382529 0 0 0
89 18 3 -1.7174655077524765 -4.376504728062244 2.5650400843088494 0 0 0
90 18 3 -1.619182889624887 -3.8487690178051364 2.0370859697366974 0 0 0
86 18 1 -1.8235066713283334 -3.9446180785271427 2.4326422233709994 0 0 0
88 18 3 -1.6892693208057852 -3.6418503335354027 2.757622263246372 0 0 0
1198 366 4 -1.3594346162428228 -3.519600631368469 2.9843854111537724 0 0 0
511 137 4 -5.6846641955497486 -3.1582497711711834 2.3509227635826395 0 0 0
510 137 4 -5.377474251103443 -2.209547166956405 2.4257405875781597 0 0 0
509 137 2 -5.531069223326596 -2.683898469063794 2.3883316755803996 0 0 0
970 290 4 -5.510952143525991 -1.9105168903937426 2.64513927887898 1 0 0
1196 366 2 -1.257069286249713 -3.055280667882058 3.139073195815141 0 0 0
1197 366 4 -1.1547039562566033 -2.5909607043956466 3.29376098047651 0 0 0
147 30 3 -1.3876785674335999 -2.3258846521787655 3.117539068985345 0 0 0
599 167 2 -0.31551861919273816 -2.106583370710407 2.989204600365539 0 0 -1
1386 429 4 -7.569349665812435 -1.3924556782615083 1.839596063104446 1 0 0
888 263 4 -6.127203729925635 -0.8033144990706594 7.471754453465884 0 0 0
732 211 4 -6.463332403628392 -1.8327076676544485 1.51287283852926 0 0 0
968 290 2 -5.082424490287866 -1.6688708559394483 2.555857452941138 1 0 0
969 290 4 -4.653896837049741 -1.427224821485154 2.466575627003296 1 0 0
45 9 3 -4.653214664648098 -1.2094129762216745 2.1463310025572353 0 0 0
498 133 4 -4.1914634495791265 -0.5251586070046338 1.3909392710153896 0 0 0
43 9 3 -4.300342637432994 -0.7059400995084413 1.7117088737797412 0 0 0
42 9 3 -4.248397406989028 -0.6668002764439577 2.4604877244990186 0 0 0
41 9 1 -4.278297394433892 -0.954565279786184 2.102860413458321 0 0 0
44 9 3 -3.9020926067451676 -1.2261075576028078 2.096965578584038 0 0 0
1505 469 2 -2.2717490715347575 -1.2440885822519883 1.2102905085926918 0 1 0
1507 469 4 -2.205315403326692 -1.5958932038382303 1.5593178369770782 0 1 0
1094 332 2 -1.907654053143722 -1.4707793132978906 2.3783079373774894 0 0 0
1096 332 4 -2.014608799237827 -1.4704708199983358 1.8898812928135655 0 0 0
1095 332 4 -1.8006993070496171 -1.4710878065974453 2.8667345819414134 0 0 0
702 201 4 -0.7821742790503952 -1.4243114222486764 6.6823101555045925 0 0 0
267 56 4 -6.372823327452008 -7.913700087561649 4.027565260887767 0 1 -1
1040 314 2 -7.988725728207831 -6.842946129518235 3.628784382534207 0 0 -1
895 265 4 -5.6732953543667834 -6.825282420284954 3.26342788257935 1 1 0
57 12 3 -5.832308349720299 -7.1802028818150765 3.3846755965834086 0 0 0
59 12 3 -5.9582174427511525 -7.008898867244698 4.105579081721632 0 0 0
1014 305 4 -5.5936870830195495 -7.0215154614527195 4.198727809054456 1 0 -1
60 12 3 -6.490479651368464 -6.89169110677788 3.5860992628986166 0 0 0
56 12 1 -6.152083755237286 -7.167812758610338 3.715114962993494 0 0 0
58 12 3 -6.314933256291985 -7.597055003393399 3.7824286711064588 0 0 0
594 165 4 -3.9890612486033463 -7.289574065278226 3.4686614921772287 0 1 -1
1013 305 2 -5.129067932926647 -7.144733432898119 4.336373647639598 1 0 -1
1015 305 4 -4.664448782833745 -7.267951404343518 4.47401948622474 1 0 -1
595 165 4 -4.2733760426619165 -7.3351849931043445 4.426306907319133 0 1 -1
593 165 2 -4.131218645632631 -7.312379529191285 3.947484199748181 0 1 -1
413 105 2 -7.4585530983460435 -4.70694019629368 4.854847546511114 1 0 0
414 105 4 -7.043569430963042 -4.727677889624924 5.1329815140174055 1 0 0
1250 384 2 -5.015515347491494 -4.674600725066496 3.3344321131366472 0 0 0
1121 341 2 -5.4842564600437465 -4.904570231288684 4.3343782365749535 0 0 0
1251 384 4 -5.183567090929147 -5.026820226560806 3.647002160157301 0 0 0
1123 341 4 -5.524362049355844 -4.994913333824656 3.8442459426685662 0 0 0
415 105 4 -7.873536765729045 -4.686202502962437 4.576713579004823 1 0 0
1252 384 4 -4.847463604053841 -4.322381223572185 3.0218620661159936 0 0 0
601 167 4 -0.7612190797763585 -1.8878126317156216 3.048284742504266 0 0 -1
148 30 3 -0.9135126864736822 -1.8273287695018636 3.4200431998357894 0 0 0
146 30 1 -1.3589852547230483 -1.952068796263519 3.384069366835288 0 0 0
149 30 3 -1.6041090055123124 -1.609693527967743 3.1891500951910245 0 0 0
150 30 3 -1.5271364410622306 -2.0484191592026835 3.796188022193368 0 0 0
777 226 4 -1.5280402050940194 -2.049176336793235 4.209708051601354 0 1 0
776 226 2 -1.7407701576988501 -2.1039487184444425 4.65886944071784 0 1 0
260 54 2 -0.7138630770693326 -7.532024614398485 5.7899747275473965 0 0 -1
262 54 4 -0.9329486181097503 -7.189672403898829 5.4987763592946886 0 0 -1
1282 394 4 -0.7442303742775758 -6.852568799521844 5.574457645577486 0 1 -1
1280 394 2 -0.790829816897704 -6.3692864174107315 5.693900649091886 0 1 -1
261 54 4 -0.49477753602891494 -7.874376824898141 6.0811730958001045 0 0 -1
1209 370 4 -6.7024004149038365 -4.883124375129291 5.262842370218546 1 0 0
1208 370 2 -6.227322192929293 -5.037288377119486 5.239730825571312 1 0 0
1122 341 4 -5.444150870731649 -4.814227128752711 4.824510530481341 0 0 0
738 213 4 -4.836121819101536 -5.765600891387053 5.548841924677366 0 1 0
175 35 3 -4.7607982413368175 -5.3671863865214835 5.485186442538962 0 0 0
171 35 1 -5.112904153876849 -5.0929892409726065 5.394426585072529 0 0 0
737 213 2 -4.5867110311110215 -6.130424218771655 5.782718384865533 0 1 0
1210 370 4 -5.7522439709547495 -5.191452379109681 5.216619280924079 1 0 0
173 35 3 -5.510078899984821 -5.299851236391386 5.515918707885329 0 0 0
1281 394 4 -0.8374292595178323 -5.886004035299619 5.813343652606286 0 1 -1
481 127 4 -1.0289363772760953 -5.804060124736076 6.117144274470637 0 0 -1
479 127 2 -0.8138599944931065 -5.400957463391778 6.320246204511046 0 0 -1
1382 428 2 -7.644957436804491 -3.9875439102157055 6.521337284858449 1 0 -1
1383 428 4 -7.296085676782489 -3.772409233155591 6.807703424241979 1 0 -1
916 272 4 -7.064617311340324 -3.427196941585546 6.756263616579473 1 -1 -1
174 35 3 -5.120249694688424 -4.989143263398146 4.942251778198105 0 0 0
172 35 3 -5.068043251032827 -4.703891443081842 5.635653455617057 0 0 0
555 152 4 -5.054276683970138 -4.502274998902146 5.984213224017802 0 0 0
556 152 4 -4.588237311948114 -3.6183091384870094 5.946641142025408 0 0 0
554 152 2 -4.821256997959126 -4.060292068694578 5.965427183021605 0 0 0
676 192 4 -4.478578523540833 -3.251283904263408 6.116219980140566 0 0 -1
675 192 4 -4.317559971999767 -2.852881194425229 7.019186373121362 0 0 -1
674 192 2 -4.3980692477703 -3.0520825493443184 6.567703176630964 0 0 -1
478 126 4 -2.1391777219856767 -2.0483431783731576 5.454847956675106 0 0 0
778 226 4 -1.9535001103036809 -2.15872110009565 5.108030829834326 0 1 0
476 126 2 -1.84085498564618 -2.0888172462620225 5.8540539120557655 0 0 0
477 126 4 -1.5425322493066833 -2.1292913141508873 6.253259867436425 0 0 0
253 51 4 -1.2228164857967097 -0.48641523318704516 5.406551073889392 0 0 -1
532 144 4 -1.1633930402946455 -0.5516108958569512 5.802151258865401 0 0 0
530 144 2 -0.9109373433131585 -0.8717120047349175 6.091635975485926 0 0 0
531 144 4 -0.6584816463316713 -1.1918131136128838 6.3811206921064505 0 0 0
1440 447 4 -1.7592932455433725 -0.4012555857782068 7.145746908529876 0 0 0
537 146 4 -4.597773896283816 -0.26195484710876255 7.363029518923916 0 -1 -1
871 257 4 -4.4521286654617676 -7.527721627360679 6.73142056636589 0 1 0
538 146 4 -4.277888623017081 -1.1960623994691248 7.204547682203339 0 -1 -1
869 257 2 -4.340575606751031 -7.069206832703645 6.566132641299815 0 1 0
939 280 4 -4.819210693468582 -7.715899826100167 6.647460373725447 0 0 -1
739 213 4 -4.337300243120507 -6.495247546156256 6.0165948450537 0 1 0
870 257 4 -4.2290225480402945 -6.610692038046611 6.400844716233739 0 1 0
480 127 4 -0.5987836117101178 -4.99785480204748 6.523348134551456 0 0 -1
441 114 4 -0.6982976771878959 -4.744502151137527 6.810290995903424 0 0 -1
440 114 2 -0.8033485015950192 -4.71040529138395 7.297940181739054 0 0 -1
442 114 4 -0.9083993260021426 -4.676308431630372 7.7855893675746835 0 0 -1
914 272 2 -6.831104428733374 -3.038831213744201 6.544972833309525 1 -1 -1
915 272 4 -6.597591546126424 -2.6504654859028562 6.3336820500395765 1 -1 -1
650 184 2 -6.429418719205059 -2.0209252242410045 6.677734610898525 0 0 -1
651 184 4 -6.7583749470503784 -2.3593359080935503 6.512610387309144 0 0 -1
652 184 4 -6.10046249135974 -1.6825145403884585 6.842858834487905 0 0 -1
1544 482 2 -4.145275727497196 -1.967811112199619 6.983951809891325 1 0 0
1546 482 4 -4.199192302567646 -2.4630000473317955 7.027321401257898 1 0 0
703 201 4 -1.4914376014691466 -2.12873718990273 6.655293913422677 0 0 0
701 201 2 -1.1368059402597708 -1.7765243060757032 6.668802034463635 0 0 0
887 263 2 -6.028296644270995 -1.0865189236422261 7.071738650890345 0 0 0
1484 462 2 -2.009462816179559 -0.3201826944966156 7.987773215871913 0 0 0
1085 329 2 -6.259602643405696 -5.272386599461956 0.02862649957411354 1 0 -1
699 200 4 -0.37977676854962983 -4.767292725281664 0.07724662686921155 0 1 0
730 210 4 -2.9715135694797787 1.6853720530740903 -6.713798161439248 0 -1 1
1001 301 2 -1.7130532053277574 0.5501420340932374 -7.249668661323971 0 -1 0
1002 301 4 -1.8766068067736448 0.10857086248299158 -7.417790997308528 0 -1 0
219 44 3 -7.8777988612469585 2.6719847361431275 -0.46550208922863445 1 0 0
785 229 2 -7.831007517561453 2.831901676559691 -1.177424270877372 0 0 0
1003 301 4 -1.54949960388187 0.9917132057034836 -7.081546325339414 0 -1 0
225 45 3 -1.7473353214201315 1.3218904004650172 -6.99899441762757 0 0 1
624 175 4 -0.8488268496302722 1.6822583675445184 -6.633402959634752 -1 0 1
623 175 2 -0.43000150231458095 1.7661099281713568 -6.373490966401984 -1 0 1
452 118 2 -6.4385145295290656 2.2694652084946934 -7.501877444287547 0 -1 1
454 118 4 -6.108378109959142 2.0676581491819337 -7.1852011817019 0 -1 1
793 231 4 -5.892297647283711 2.3030624929127357 -6.966372308825936 0 0 1
791 231 2 -5.6839280085191985 2.716032442247078 -6.776535761796993 0 0 1
792 231 4 -5.475558369754686 3.12900239158142 -6.586699214768049 0 0 1
728 210 2 -2.9956265584532837 1.9732724179713006 -7.121881417227349 0 -1 1
372 91 4 -1.6528132358753054 3.203227682306394 -7.800367643913608 0 -1 0
729 210 4 -3.0197395474267887 2.261172782868511 -7.529964673015449 0 -1 1
371 91 2 -1.59763342470612 2.7754425065660597 -7.547474322814895 0 -1 0
373 91 4 -1.5424536135369344 2.3476573308257254 -7.294581001716182 0 -1 0
221 45 1 -1.6288852120090163 1.7488590649010063 -6.89379303374827 0 0 1
223 45 3 -1.7838316711048288 2.040924517202394 -7.219353114817077 0 0 1
224 45 3 -1.1673228546199632 1.7810588499968374 -6.858816411825691 0 0 1
222 45 3 -1.8169586609197488 1.8631092891301042 -6.489843452639072 0 0 1
1516 472 4 -5.175532471202132 3.3952832622160636 -6.48900288380736 1 0 1
1072 324 4 -7.707735766446466 7.624596332331732 -0.9134943614257639 1 -1 -1
1127 343 2 -3.262617734863747 4.882573821047617 -6.69925194017203 0 0 1
1128 343 4 -3.6743468069432166 5.110001992895651 -6.868826696118832 0 0 1
1234 378 4 -2.0267119862802683 3.3577935575420357 -7.892098505341423 0 -1 1
1260 387 4 -6.440510178584666 7.992886538057066 -0.11946246289911228 1 -1 0
1583 495 2 -2.4172110394857023 3.9274551692162203 -6.444889029972071 0 0 1
799 233 4 -1.889366332334133 3.585780849683155 -6.799971054614207 -1 0 1
1584 495 4 -2.7668519279932724 4.284878143727369 -6.445146664131257 0 0 1
1585 495 4 -2.0675701509781317 3.570032194705071 -6.444631395812885 0 0 1
797 233 2 -1.3921213882083836 3.6259499134947344 -6.766297446940441 -1 0 1
798 233 4 -0.8948764440826333 3.6661189773063136 -6.732623839266675 -1 0 1
955 285 4 -7.58057529738829 5.005974039267486 -6.7368061491062035 1 0 0
953 285 2 -7.113282778951376 5.179589700857254 -6.698136984856391 1 0 0
954 285 4 -6.645990260514463 5.353205362447022 -6.6594678206065785 1 0 0