LAMMPS data file via write_data, version 27 Jun 2024, timestep = 1500000, units = lj

1600 atoms
4 atom types
1100 bonds
1 bond types

-8 8 xlo xhi
-8 8 ylo yhi
-8 8 zlo zhi

Masses

1 1
2 1
3 0.5
4 0.5

Bond Coeffs # zero

1 0

Atoms # bond

292 64 4 -6.963053661666219 -6.990815397456899 -7.179716242176218 0 0 0
290 64 2 -7.296580116394925 -7.2054324047552205 -6.875570770344648 0 0 0
351 84 4 -6.55183768480548 -6.934271559895533 -7.192220807115752 0 0 0
291 64 4 -7.630312982226594 -7.420215380332205 -6.571334299037125 0 0 0
20 4 3 -7.830622962289638 -7.391395843995561 -6.202252117789664 0 0 0
350 84 2 -6.112456255385557 -6.703463679230501 -7.255258295175402 0 0 0
1223 375 2 -4.801400061570603 -6.6856528592119995 -7.3323558052985 1 0 1
1224 375 4 -5.271286034299454 -6.530952798694943 -7.405124197110184 1 0 1
1225 375 4 -4.331493764346817 -6.8399425336743045 -7.2596122368885325 1 0 1
182 37 3 -3.785515461387694 -7.795664215870616 -7.202402484596762 0 1 0
183 37 3 -4.2720585914214215 -7.225421416402944 -7.256617223817247 0 1 0
181 37 1 -4.105133003324143 -7.601728544895312 -7.4703958952389975 0 1 0
664 188 4 -0.3089108440699592 -2.0962561605244114 -0.9222132189084972 0 0 0
430 110 4 -3.4616277928452894 -0.43544900526581193 -7.967433884643872 0 0 1
184 37 3 -3.909248646593632 -7.48081224339967 -7.873614326628519 0 1 0
185 37 3 -4.4405000372919465 -7.900558345415058 -7.544017064210723 0 1 0
662 188 2 -0.3781286731799653 -2.5847417614089734 -1.0046639370062929 0 0 0
352 84 4 -5.673345095508366 -6.47288715993959 -7.318765841027025 0 0 0
638 180 2 -3.874164125125362 -1.8769838042863216 -6.417637521050169 0 1 0
640 180 4 -3.496268594007476 -1.5885457374384735 -6.572668598569597 0 1 0
639 180 4 -4.251964639516133 -2.1657152874609533 -6.262672172044885 0 1 0
119 24 3 -3.2719286906867437 -1.5401277077597089 -6.911745380404163 0 0 0
118 24 3 -2.5668464869326844 -1.3955201253973173 -6.667048767697959 0 0 0
985 295 4 -2.2617477382196673 -1.6452171097931692 -6.558492535917996 0 0 0
983 295 2 -1.8424342850277255 -1.7288115938823365 -6.29917329593703 0 0 0
573 158 4 -7.819139202561024 -0.40859839115873836 -6.450217263383336 0 1 0
27 6 3 -7.530493146319175 -0.6116754895778581 -6.301695937343237 0 0 0
583 161 4 -3.0280054837477883 -0.7090598673354824 -6.2433392246287305 0 1 0
117 24 3 -3.1081107164750126 -0.8787407135600235 -6.59452570427583 0 0 0
415 105 4 -3.250071026507243 -0.4636676739307398 -0.3277215283269554 0 0 0
788 230 2 -4.962466313742081 -0.29790111774544004 -7.5450436176519675 0 0 1
116 24 1 -2.945462514185582 -1.2137949149888123 -6.864858057703856 0 0 0
120 24 3 -2.8396806317990295 -1.0398597523560233 -7.2720631855626925 0 0 0
270 57 4 -3.4310793117732756 -0.23462449140035274 -7.619210487158544 0 0 0
402 101 4 -6.918131732835665 -4.522762215196216 -5.363348485085918 0 0 0
295 65 4 -6.928774226292324 -4.558470230848355 -5.7606168112631835 0 0 0
403 101 4 -7.912467409366441 -4.562168123515503 -5.262322502778525 0 0 0
401 101 2 -7.415060013559609 -4.542395074832068 -5.312738031590064 0 0 0
293 65 2 -6.496843916226502 -4.527885551068032 -6.010546993435612 0 0 0
260 54 2 -5.580351480810281 -3.878061017449042 -6.334097105859605 0 0 0
294 65 4 -6.064772842172365 -4.497680952416998 -6.26071456618703 0 0 0
261 54 4 -5.687449815954022 -4.364698302335536 -6.377945691036318 0 0 0
262 54 4 -5.473213873299634 -3.3914364821366507 -6.2901154710929275 0 0 0
519 140 4 -5.183027359423094 -3.1703998984360173 -6.442765745172834 0 0 1
285 62 4 -3.758421557476359 -3.8271029997819057 -4.826129228595232 0 0 0
470 124 2 -6.652904513284409 -2.723960644223599 -4.611657860674912 0 0 0
491 131 2 -5.527769716244917 -2.362669450947677 -4.514025935136744 0 0 0
472 124 4 -6.231298739455509 -2.619836794041425 -4.859309083142519 0 0 0
492 131 4 -5.855917314515087 -2.6948887482964863 -4.692911881432589 0 0 0
518 140 2 -4.802477635719476 -2.8488037917951923 -6.399551522328724 0 0 1
520 140 4 -4.422037068102098 -2.5269491531416977 -6.356080110505712 0 0 1
984 295 4 -1.4230982894908337 -1.8123468269955085 -6.039716050400602 0 0 0
855 252 4 -7.7581470817500575 -0.48808900674205286 -1.2362609712585977 0 0 0
930 277 4 -1.4085057569257071 -2.1505448842589443 -5.819760686603588 0 0 0
929 277 2 -1.0052719695796672 -2.1022141004030046 -5.52862666210585 0 0 0
1347 416 4 -0.33742110763162086 -2.3552199803250455 -5.2777849432283706 0 0 0
931 277 4 -0.6015658775697427 -2.054074920638443 -5.237059209380422 0 0 0
26 6 1 -7.2125624032118525 -0.3779590214342278 -6.065625124737103 0 0 0
28 6 3 -6.958097932141121 -0.6781563703365352 -5.81945380439763 0 0 0
636 179 4 -6.816163534738265 -0.5454930678645158 -5.4752934687084425 0 0 0
635 179 2 -6.381014515678819 -0.781569651817624 -5.406661057936661 0 0 0
30 6 3 -7.418948910799618 -0.08358935279185677 -5.78648512500078 0 0 0
637 179 4 -5.9453300108817215 -1.0176827889884323 -5.337530690048944 0 0 0
382 94 4 -5.812175548539639 -0.6445981142190523 -5.293585271294759 0 0 0
380 94 2 -5.36061738659657 -0.6489652291228613 -5.078836330189163 0 0 0
381 94 4 -4.909310313396569 -0.6529813751333505 -4.864212062955983 0 0 0
581 161 2 -3.3668466600380325 -0.8671701893492961 -5.9113132807747215 0 1 0
582 161 4 -3.7056359914176022 -1.0253958709231423 -5.579494715959119 0 1 0
932 278 2 -4.265368984901997 -1.032777115446541 -5.2787496105081635 1 0 0
933 278 4 -4.622551421886642 -0.7162863879482477 -5.128888195911425 1 0 0
934 278 4 -3.9082548987661707 -1.3491755549863977 -5.428340947782599 1 0 0
571 157 4 -0.9210869037661213 -0.9812613545607715 -4.74413124727273 -1 0 0
569 157 2 -1.1240473955270351 -0.8738437937671537 -5.188203255055974 -1 0 0
570 157 4 -1.327164295356703 -0.7664716251205436 -5.632359791898136 -1 0 0
480 127 4 -5.0208142686348385 -4.673252527044999 -3.5151799549445495 0 0 0
479 127 2 -4.9313782341902765 -4.449105391141459 -3.953345891042098 0 0 0
481 127 4 -4.842103705403112 -4.22489279725453 -4.39114663038982 0 0 0
445 115 4 -3.6148812880220698 -3.5192977468706426 -5.0370842850780155 0 0 0
286 62 4 -4.502778370696296 -4.389947671690897 -4.467786662736096 0 0 0
284 62 2 -4.130816909422277 -4.1082819991363975 -4.646947396616356 0 0 0
441 114 4 -7.201535167324436 -2.4510110547645265 -4.400614694535165 0 0 0
440 114 2 -7.663728345674453 -2.260612197662338 -4.4124123952886105 0 0 0
471 124 4 -7.074456617656174 -2.8283750683819977 -4.363954709105793 0 0 0
493 131 4 -5.199357267292065 -2.0304975976526958 -4.3349914499072275 0 0 0
417 106 4 -4.86784983228952 -2.1083646724677076 -4.59449668404253 0 0 0
443 115 2 -3.6037071294704326 -3.0826054886454193 -4.793578119878638 0 0 0
418 106 4 -3.927026779235443 -2.442138065518816 -4.6566804433679705 0 0 0
444 115 4 -3.592576854772245 -2.646101435063933 -4.550042435906831 0 0 0
416 106 2 -4.397263750928895 -2.275199853975727 -4.625662795285571 0 0 0
1452 451 4 -4.727326805436043 -7.8683039237761125 -7.2615887229497655 0 1 1
695 199 2 -0.4141936424076977 -2.485778554737996 -3.6409173000725437 -1 0 0
696 199 4 -0.8360263777397945 -2.3194023199105236 -3.8509468023554603 -1 0 0
567 156 4 -0.805027616288887 -1.9186493757811334 -3.885379254328048 -1 0 0
566 156 2 -0.8237438892396612 -1.6418746955140484 -4.301572708593082 -1 0 0
29 6 3 -6.941621564629421 -0.1493245039469461 -6.365019839512556 0 0 0
568 156 4 -0.8420969257411659 -1.3651303184774732 -4.7175585983865895 -1 0 0
949 283 4 -0.7721340910128485 -1.8068740909493695 -1.5118344223237314 0 0 0
641 181 2 -4.843850351543327 -5.007059187257033 -2.814532868723943 0 1 0
642 181 4 -4.66785195184685 -5.361284836849917 -2.5085973670768817 0 1 0
706 202 4 -4.836060512159198 -5.226687962797187 -2.1736998766452063 0 1 0
704 202 2 -4.686099065860843 -5.562401322813062 -1.8348721433646775 0 1 0
622 174 4 -7.809075712267696 -3.762902898708584 -1.2673842784324056 0 1 0
643 181 4 -5.019926651470475 -4.652704987448368 -3.120389659299636 0 1 0
715 205 4 -3.6580001869623477 -2.264529095703606 -2.460017785328392 0 0 0
676 192 4 -3.555504908803876 -2.641453889939327 -2.595651740877403 0 0 0
674 192 2 -3.285726249042456 -2.773240672805472 -2.195997402371947 0 0 0
675 192 4 -3.0161455323607083 -2.905020216402137 -1.7961298130530305 0 0 0
254 52 2 -2.3625966822411444 -3.1680631009912843 -1.5409430248045555 0 0 0
255 52 4 -2.641257232018227 -2.7909045844013556 -1.7137147764483185 0 0 0
1030 310 4 -2.0881515079283672 -1.9222834064821006 -1.8448886095679706 0 0 0
1028 310 2 -1.6109244537978185 -1.9541457401214746 -1.699389323841624 0 0 0
256 52 4 -2.0837956174149044 -3.545712121703765 -1.3682200453011926 0 0 0
975 292 4 -3.5548313491312884 -0.6305120254278558 -0.12475788301293578 0 0 0
947 283 2 -0.3077558600806769 -1.6565394214857847 -1.6196526722746167 0 0 0
1029 310 4 -1.1334631651671214 -1.9854209152442368 -1.5537805140745622 0 0 0
854 252 2 -7.751602161873631 -0.3462986540348043 -1.715481167741599 0 0 0
713 205 2 -3.766897317226474 -1.8103358478793488 -2.638819826638856 0 0 0
714 205 4 -3.8759927960947875 -1.3561784008693076 -2.8176463122249804 0 0 0
730 210 4 -3.8381812432965656 -0.9436427811832784 -2.7712233658626695 0 0 0
728 210 2 -3.8453359520697608 -0.4807606697013201 -2.582257295628195 0 0 0
1396 432 4 -1.9293041269529927 -7.066888393147284 -0.3554070065844233 0 1 -1
850 250 4 -1.9428365535488243 -7.369834810745437 -0.6212820154935377 0 1 0
849 250 4 -1.1879169672582217 -7.989592575604456 -0.8363981389219358 0 1 0
848 250 2 -1.5652887625230887 -7.679740324418205 -0.7290498895440564 0 1 0
705 202 4 -4.536200332233291 -5.8983038620514945 -1.496156366026084 0 1 0
413 105 2 -3.1449811042853275 -0.03865143111181809 -0.5690692696066937 0 0 0
1079 327 2 -1.2414865790081226 -3.310312629321406 -1.2841352111891524 0 0 0
620 174 2 -7.3205878922044105 -3.8314890535141295 -1.1866359207310584 0 1 0
621 174 4 -6.832006701101257 -3.8999798892225344 -1.1056976702007701 0 1 0
507 136 4 -6.730366709201941 -4.263655782191763 -0.9627554817130751 0 0 0
506 136 2 -6.44282984717752 -4.557800520764533 -0.678382063438789 0 0 0
537 146 4 -5.795365439797338 -4.650665250671053 -0.3786104918699075 0 0 0
508 136 4 -6.155441051286718 -4.852223777838635 -0.39442905698766806 0 0 0
1081 327 4 -0.7437891118901365 -3.278173654150422 -1.2479827672797816 0 0 0
663 188 4 -0.4475404188730305 -3.072901862547918 -1.0868547027189612 0 0 0
483 128 4 -1.0220421732803664 -3.7495198130595613 -0.20437543382517495 0 0 0
482 128 2 -0.7808222533849701 -4.170250118925491 -0.08202030004508677 0 0 0
505 135 4 -1.0801714191842067 -3.4075016165529326 -0.3920168348869804 0 0 0
655 185 4 -7.847699508410323 -7.923274506507541 -2.3300158182027175 0 1 0
1080 327 4 -1.7389822604114997 -3.3426861675496786 -1.3205476301559431 0 0 0
1299 400 4 -0.21393751428477317 -1.9638249116308852 -0.5460796012409147 0 0 0
1327 409 4 -7.610725285350601 -0.16525810983022343 -5.431144084827141 1 0 0
856 252 4 -7.745132644819726 -0.2043354342710604 -2.194831774963593 0 0 0
536 146 2 -5.488189077539156 -4.877438025291514 -0.055590670061401316 0 0 0
503 135 2 -1.0491016277037837 -3.079683279753163 -0.015562184154353075 0 0 0
428 110 2 -3.9519728768925213 -0.5315325439832199 -7.947978553175544 0 0 1
429 110 4 -4.442196548819928 -0.627540356988326 -7.928516919802855 0 0 1
501 134 4 -0.2860724524875196 -4.784601536525845 -0.2196654943212101 0 0 0
789 230 4 -4.836660349569699 -0.644635974556596 -7.882752320143006 0 0 1
729 210 4 -3.852339269401327 -0.017895736255162005 -2.393142789636148 0 0 0
1394 432 2 -2.0780577642925864 -6.8179247965638865 0.051861080423800325 0 1 -1
1395 432 4 -2.2265042122822654 -6.569418898118852 0.45931605537819736 0 1 -1
498 133 4 -2.329439925646761 -6.754291109946764 0.8072537311721347 0 0 0
497 133 2 -2.0736035150092715 -6.66198157476596 1.2266275263894866 0 0 0
499 133 4 -1.817456632436466 -6.569838779282371 1.645966012233426 0 0 0
773 225 2 -5.696160829445102 -7.968647805424575 2.7468829899989164 0 1 0
475 125 4 -5.273566933518978 -5.004849819120211 0.6478634132273701 0 0 0
538 146 4 -5.181020007690634 -5.103878328114688 0.26733690800695514 0 0 0
473 125 2 -4.965049967812431 -5.010962696087452 1.0412418046953564 0 0 0
457 119 4 -0.687494071420807 -2.7011395822029263 0.5742183214426688 0 0 0
1216 372 4 -0.06263849769875808 -0.2671198978738825 3.0939490122497517 0 0 0
455 119 2 -0.3652977181106424 -2.4332569255194714 0.8470896666538464 0 0 0
504 135 4 -1.0180583685707243 -2.751709470385967 0.36043679690895924 0 0 0
725 209 2 -0.8054493276112809 -0.1793476511397434 6.450900638663509 0 1 0
786 229 4 -6.443976033654267 -0.9425259512752034 0.38541290476218976 0 0 0
1209 370 4 -7.720743927700269 -0.615917603408336 0.3723129780812258 1 0 0
1208 370 2 -7.222267403344562 -0.642463297664837 0.343245219365138 1 0 0
1210 370 4 -6.723762716690921 -0.6691609179521558 0.31412555845969564 1 0 0
426 109 4 -7.836267224324787 -0.2315628681859831 0.30675564733488553 0 0 0
785 229 2 -6.039508885404031 -0.8972456356238961 0.6762972077507954 0 0 0
7 2 3 -4.721306296676549 -0.2512815984016613 1.2648738906963017 0 0 0
8 2 3 -5.291031599725004 -0.6590236064589672 0.9933015449132306 0 0 0
6 2 1 -4.926565529979918 -0.39537673414138286 0.8792519183966886 0 0 0
787 229 4 -5.635199906403036 -0.8521333330379268 0.9666491716189609 0 0 0
456 119 4 -0.04302972741656338 -2.1651642645332925 1.1196438466644563 0 0 0
9 2 3 -5.068274260369129 -0.025538864750156744 0.6373797509595444 0 0 0
10 2 3 -4.630066053474437 -0.6376756872087601 0.6329733721439974 0 0 0
976 292 4 -4.358316679171091 -0.42256267696497907 0.43320048819836876 0 0 0
974 292 2 -3.9566669440711677 -0.5265893604183112 0.1542944151071622 0 0 0
1236 379 4 -6.129182534317983 -7.929529712079135 2.1439056289114977 1 0 0
317 73 2 -3.673513730105188 -7.348570748065203 2.072982533097062 0 0 0
318 73 4 -3.9147479731485544 -7.196135284068684 1.6624916051269973 0 0 0
432 111 4 -4.022401249177221 -6.8383130007930815 1.5249255725710429 0 0 0
319 73 4 -3.432016175870271 -7.500755996255285 2.483513746853718 0 0 0
980 294 2 -0.9229144323004476 -7.2580234232288525 2.485095764426617 0 0 0
981 294 4 -1.1144562763807642 -6.796923951422924 2.462011012195447 0 0 0
208 42 3 -0.348463922541176 -7.837813824663014 2.454172743424148 0 1 0
982 294 4 -0.7315645543876929 -7.719291082105396 2.5083843439317213 0 0 0
143 29 3 -1.2042208837597512 -6.6656788084988 2.1006420486236665 0 0 0
1392 431 4 -6.850361863043383 -5.998486219331225 3.4997123952137112 1 0 0
1048 316 4 -7.186116386171112 -5.9933228970135115 3.2804669166619487 1 0 0
1181 361 2 -5.69076225310537 -5.178807316751187 2.7327634199419535 1 0 0
1182 361 4 -6.170820634107116 -5.245865488275147 2.8555590457463356 1 0 0
1183 361 4 -5.210861126242132 -5.111377159122636 2.6104787729473515 1 0 0
39 8 3 -4.926626740707221 -5.212435527229388 2.3519843458741203 0 0 0
431 111 2 -4.2616585442120405 -6.436950836761167 1.702829217643793 0 0 0
433 111 4 -4.500905852012135 -6.035662711622841 1.88046978275472 0 0 0
38 8 3 -4.478348190118561 -5.195021171183242 1.7386837646920583 0 0 0
36 8 1 -4.514588946951246 -5.3371730574796485 2.1789775960860047 0 0 0
37 8 3 -4.481549599424767 -5.795978341013825 2.190076045421546 0 0 0
40 8 3 -4.179749712316032 -5.156526950702522 2.428892426872505 0 0 0
763 221 4 -3.847397488948191 -4.959491404929582 2.518868673916428 0 1 0
1025 309 2 -1.9660254133659922 -5.850147927501604 3.0675433500940614 0 0 -1
142 29 3 -1.6661895228710077 -6.207558283704396 1.7242089029216652 0 0 0
141 29 1 -1.4369642186936715 -6.2648787947030495 2.1190387691242627 0 0 0
144 29 3 -1.1407501711714563 -5.911851149671735 2.1729200220618297 0 0 0
145 29 3 -1.7336053236790223 -6.273535855148856 2.464479149285836 0 0 0
1027 309 4 -1.7937659422047159 -5.918059928181919 2.603351429349257 0 0 -1
517 139 4 -0.23039268342970873 -6.257014948805028 3.1709633255813157 0 0 0
726 209 4 -0.32866686745124546 -0.21300505723563745 6.598534382614762 0 1 0
474 125 4 -4.656288670679698 -5.01705158825117 1.4345243571730282 0 0 0
1328 410 2 -0.19921245706253 -3.716978253175907 3.040336672998396 0 0 -1
727 209 4 -1.2818872942043396 -0.14565709775059615 6.303471421609704 0 1 0
1330 410 4 -0.26138414688691514 -4.204869459844203 2.9516847714891323 0 0 -1
956 286 2 -6.813741798207837 -2.5062954950609746 2.6305032416659437 0 0 -1
958 286 4 -6.62327513986672 -2.252360406592596 2.2439750077673577 0 0 -1
486 129 4 -6.569707952640185 -1.9397761479970055 2.0003600086209765 0 0 0
957 286 4 -7.004090121420302 -2.760164101141227 3.016774437931829 0 0 -1
1129 343 4 -7.325333306832762 -2.594335315956688 3.1698109697702357 1 0 -1
1329 410 4 -0.13689406916461658 -3.2287281646363613 3.1292305710373376 0 0 -1
1583 495 2 -7.910824530387841 -0.8195174018169685 2.034354427294581 1 0 0
487 129 4 -7.338632949344125 -1.3010681902920636 2.0180350084713004 0 0 0
485 129 2 -6.954145731234861 -1.6202953229198935 2.009149760244046 0 0 0
1585 495 4 -7.421876869241443 -0.9196801980236583 2.001253948245663 1 0 0
549 150 4 -0.021394237098197037 -4.473433935784402 3.1380792966884563 0 0 0
107 22 3 -3.9026223119324612 -6.535507198955518 4.724317913208544 0 1 0
495 132 4 -4.233395959923806 -6.353470698740543 4.859489229182979 0 0 0
155 31 3 -0.3998937609436479 -7.15493088685356 4.865732712435581 0 0 0
516 139 4 -0.28543440599430486 -6.2553047232422045 4.169567528454845 0 0 0
152 31 3 -0.25750526220527437 -6.552390571781677 4.449009027255452 0 0 0
1391 431 2 -6.705424082268968 -5.631378249792076 3.1930195220093562 1 0 0
1046 316 2 -7.557631069108883 -6.324545361868708 3.2335818254580637 1 0 0
1095 332 4 -7.397706127230731 -4.869410563916821 3.7853266070149307 1 0 0
1094 332 2 -7.888707701610155 -4.873058733006018 3.880883119880398 1 0 0
535 145 4 -7.034707539050076 -4.7227844146227405 3.761321699502879 0 0 0
1393 431 4 -6.560370837810442 -5.263919990323728 2.886385639935421 1 0 0
761 221 2 -3.818256311851646 -4.799442884133153 2.9917094556385297 0 1 0
110 22 3 -3.393568855280294 -6.43600508316465 4.188003525115033 0 1 0
106 22 1 -3.4955420427172563 -6.347137553463712 4.6226533428900005 0 1 0
762 221 4 -3.7890779519209823 -4.639507007407154 3.4643502806696636 0 1 0
804 235 4 -3.0816043766583134 -6.197486797490129 4.069705075888131 0 1 0
803 235 2 -2.6192283858833507 -6.021946118439116 3.9947613191584184 0 1 0
805 235 4 -2.157146107342101 -5.846794468358162 3.9200431093407944 0 1 0
1026 309 4 -2.138425590565671 -5.782404569835934 3.532033441000088 0 0 -1
515 139 2 -0.2580145076678209 -6.25609152265367 3.670247376265014 0 0 0
561 154 4 -0.9211182911693576 -5.374621980912048 4.895298791739385 0 0 0
560 154 2 -0.6930798942978683 -5.295500904977109 4.45748370209861 0 0 0
533 145 2 -6.734963397099591 -4.326660270930816 3.8177474173896684 0 0 0
460 120 4 -6.167089562201244 -4.080720848899331 4.148429000478021 0 0 0
458 120 2 -5.680074272776337 -4.1061937921343 4.03725728082994 0 0 0
534 145 4 -6.434837770228984 -3.9306433886648278 3.873949763258468 0 0 0
459 120 4 -5.193424305396789 -4.131476180420693 3.92611397119912 0 0 0
526 142 4 -4.158237763881494 -4.506747708892246 3.588450199479577 0 0 0
525 142 4 -4.85544602740328 -4.014919465744066 4.110756006175339 0 0 0
524 142 2 -4.506752351490841 -4.260703211659551 3.849776046183159 0 0 0
548 150 2 -0.17641836262663302 -4.868709284619646 3.402227179852372 0 0 0
1127 343 2 -7.703426360089889 -2.408292087368653 3.439025547388353 1 0 -1
1491 464 4 -0.035971089780340776 -3.1193587242858802 3.490877257163582 0 0 0
1163 355 2 -5.694838498795035 -6.604750272628206 5.913080803895764 1 0 0
1164 355 4 -5.321571615784697 -6.516385310898298 5.5923829507130876 1 0 0
496 132 4 -5.154280641167452 -6.370642437574774 5.2491467082665055 0 0 0
109 22 3 -3.172073107088743 -6.528820252186099 4.901387978319076 0 1 0
494 132 2 -4.693906632417325 -6.361994670590036 5.054424375378794 0 0 0
1144 348 4 -3.594171691477762 -6.5674822431587145 6.0253703370693295 0 0 0
1142 348 2 -3.593294647150654 -6.815124364126586 6.459827755722819 0 0 0
469 123 4 -3.002976279593662 -6.861292529704061 4.7675314044437735 0 0 0
468 123 4 -2.1750262898244284 -6.803088857154199 5.32551392902451 0 0 0
467 123 2 -2.589221819150593 -6.8320847799175874 5.046502859736062 0 0 0
1483 461 4 -1.9577964468855868 -6.613976550201037 5.607553596861846 0 1 0
559 153 4 -1.4960281197887775 -7.846864387083593 4.591339804344091 0 0 0
558 153 4 -0.6725045179302482 -7.420832879318974 4.965362502608841 0 0 0
557 153 2 -1.0843107907015381 -7.633908731793063 4.778286145676617 0 0 0
1165 355 4 -6.06791954317034 -6.6931705988940955 6.233689263973647 1 0 0
108 22 3 -3.5217284060872602 -5.888699395041702 4.688624104803649 0 1 0
334 78 4 -3.3945929319807537 -5.708466685390496 5.011769327826595 0 0 -1
339 80 4 -3.8144385466256763 -6.215417072351765 5.988962833655492 0 0 -1
332 78 2 -3.3667888799042847 -5.223197495139607 5.128923953016725 0 0 -1
338 80 2 -3.8686389208443157 -5.746852067311918 6.1555658518431375 0 0 -1
64 13 3 -3.676075009981805 -4.9586823414714 6.323205173328685 0 0 0
340 80 4 -3.9225435781277374 -5.278376854008593 6.32203085633023 0 0 -1
1481 461 2 -1.7456408858206862 -6.235543077821777 5.856294551363001 0 1 0
1482 461 4 -1.5334977035250152 -5.857351642144401 6.105156767471184 0 1 0
314 72 2 -1.306938435829479 -5.104825205743347 6.014567503395462 0 0 -1
315 72 4 -1.2651461142509794 -5.600010245442661 5.961801247806329 0 0 -1
316 72 4 -1.3489118622775476 -4.6091186573724565 6.0670733856466255 0 0 -1
1249 383 4 -6.546930899087282 -4.2941411919342105 6.224795452374754 0 0 0
449 117 2 -5.874800628328029 -4.4034312201561905 6.009813824015187 0 0 0
450 117 4 -6.34147765074025 -4.58099803431994 6.039457992644265 0 0 0
451 117 4 -5.408400297803166 -4.225961406892614 5.980097607107366 0 0 0
297 66 4 -5.030339897767978 -4.202360414417348 5.878108805239741 0 0 -1
333 78 4 -3.3392118383238203 -4.738008597910468 5.2460691164593545 0 0 -1
65 13 3 -3.396491471431956 -4.855241519581553 5.631815112944742 0 0 0
61 13 1 -3.5043615280228697 -4.648863399661076 6.02309018679121 0 0 0
296 66 2 -4.567489748372362 -4.281954698864906 6.048856531492828 0 0 -1
298 66 4 -4.104539761196106 -4.361385083886555 6.219878190980843 0 0 -1
62 13 3 -3.823639254226792 -4.327742808023858 5.941921874688022 0 0 0
384 95 4 -1.754603555166822 -4.607839150855989 6.114801049532281 0 0 -1
63 13 3 -3.1288455083072533 -4.44498871151766 6.203382209782252 0 0 0
385 95 4 -2.7508828770850866 -4.564164277584208 6.191762416893068 0 0 -1
383 95 2 -2.2528359439515464 -4.5858865023957245 6.153136953532547 0 0 -1
858 253 4 -1.2574325111253881 -0.064070801390075 4.989669962565815 0 0 0
724 208 4 -4.104802033359131 -7.407781532845541 7.788776619659478 0 1 -1
722 208 2 -3.878045874481209 -7.431641834252186 7.343998277459502 0 1 -1
723 208 4 -3.651372798353909 -7.455062115153292 6.898879570606638 0 1 -1
1143 348 4 -3.5925852533977456 -7.0628038292371365 6.89399706720633 0 0 0
1248 383 4 -7.007390052853258 -4.6173394823309515 7.0512521879805234 0 0 0
1247 383 2 -6.777043815561329 -4.455447300361811 6.637955571214581 0 0 0
374 92 2 -7.614873280106412 -4.104226668416125 7.398600593908977 0 0 -1
376 92 4 -7.335863481369376 -4.391764407140014 7.099325431663653 0 0 -1
151 31 1 -0.07179057417375548 -6.874924267577959 4.719232213171006 0 0 0
550 150 4 -0.33117068838242886 -5.264042628310259 3.6660955261345625 0 0 0
562 154 4 -0.46549550539128937 -5.21658957113354 4.019363214056065 0 0 0
1047 316 4 -7.928968998777971 -6.6557053182585895 3.18660906111656 1 0 0
775 225 4 -5.797490147888175 -7.758891491066571 2.3046637527174134 0 1 0
846 249 4 -3.164677284678684 -7.79581194592519 2.3853016890803964 0 1 0
375 92 4 -7.893943142959253 -3.8168950089227116 7.697865290415725 0 0 -1
484 128 4 -0.5395549062814897 -4.590983181228903 0.040070928765893 0 0 0
14 3 3 -6.732422821473397 1.0737007773331502 -7.355536173694965 0 0 0
11 3 1 -6.543552258194921 1.309678272138893 -7.0038136652838245 0 0 0
13 3 3 -6.834760741681207 1.31623364646998 -6.642777471737123 0 0 0
611 171 2 -7.22472309578859 0.7844086265895832 -7.700036100190632 1 0 0
613 171 4 -6.72765442683332 0.830962196987928 -7.675557982076789 1 0 0
276 59 4 -0.5037933680762527 7.445350770290246 -0.11226940104724788 0 -1 0
15 3 3 -6.1492392082693526 1.1171446958650444 -6.881665270836337 0 0 0
842 248 2 -5.506105742625475 0.8011549118026398 -7.141972435367604 0 0 1
843 248 4 -5.76777826437345 1.1808450774761008 -6.948781850547527 0 0 1
844 248 4 -5.244033436974338 0.4213283359612673 -7.335143004868991 0 0 1
790 230 4 -5.088523547677667 0.04892311001117086 -7.207756739754886 0 0 1
650 184 2 -2.663305612394394 0.49350011063912963 -6.437347417644502 0 0 0
652 184 4 -2.6522042956791014 0.3059567550396616 -6.900753008897448 0 0 0
271 57 4 -2.767221075639356 0.42413305899299975 -7.266055041754382 0 0 0
889 263 4 -1.201072009111674 3.5883079022864806 -7.933044146605539 0 0 1
12 3 3 -6.46518279979716 1.7418536134215512 -7.139829816315244 0 0 0
1314 405 4 -6.582720439772197 2.0916199075073294 -6.999299027273371 1 0 0
1313 405 2 -6.1707810287547735 2.3627049780349028 -7.082667134483511 1 0 0
1315 405 4 -5.7590015669455505 2.6337851555863785 -7.165949868884302 1 0 0
1305 402 4 -5.659534412255879 2.9069832148273163 -6.898910777674281 1 0 0
389 97 2 -2.018880236799488 2.8444849769757132 -7.039791362300857 0 0 0
391 97 4 -2.166713135051399 3.2034669030585863 -7.35517570941796 0 0 0
390 97 4 -1.8710182642122724 2.4854023709831834 -6.72482025859146 0 0 0
904 268 4 -1.5293851224461952 2.2554938707917276 -6.728611287611205 0 0 0
1317 406 4 -2.088252225666705 5.477969701316107 -0.042739806610255844 0 0 0
1256 386 2 -6.860954962362553 3.9374057293582396 -7.397253196102958 1 -1 1
239 48 3 -6.192228267283181 4.247634323259389 -7.033244629855546 1 0 1
751 217 4 -6.746905130480533 4.655348846881205 -6.4643271082641744 0 0 1
269 57 2 -3.0990657468648757 0.09471878611410105 -7.442649512533289 0 0 0
953 285 2 -7.770276172855591 3.4459691633718155 -7.856999363618034 1 -1 0
1258 386 4 -6.5143183704953636 4.027868939673038 -7.048573702559654 1 -1 1
236 48 1 -6.006170724274823 4.436301009316985 -6.652452886158925 1 0 1
1304 402 2 -5.58113171210768 3.373102307013226 -6.7357322368536074 1 0 0
1306 402 4 -5.503120841471268 3.8391825319668946 -6.5724019126390925 1 0 0
240 48 3 -5.754946176504609 4.126882161734684 -6.432419894438518 1 0 1
204 41 3 -2.1819649568588937 4.117403687714557 -7.780071009612213 0 0 1
392 98 2 -2.063954439531304 4.701803260718642 -7.418106424237786 0 -1 0
394 98 4 -2.2045014199439144 5.176253918432641 -7.347439018344044 0 -1 0
393 98 4 -1.9236870617801547 4.22694461595679 -7.48901036420813 0 -1 0
203 41 3 -2.2317273569388596 3.3597299051852993 -7.743073948581907 0 0 1
201 41 1 -2.0252244304115172 3.717234351085984 -7.955524187211011 0 0 1
749 217 2 -7.118362201207713 4.947371553341123 -6.300993771027338 0 0 1
750 217 4 -7.489928995478545 5.239514800082775 -6.1375712303901215 0 0 1
268 56 4 -7.67770231442583 5.486444127236928 -7.669357272441849 0 0 0
275 59 2 -0.6502443439810769 7.701698173818059 -0.5158322606381496 0 -1 0
277 59 4 -0.7969672650606829 7.958009885517403 -0.9196272546191686 0 -1 0
237 48 3 -5.737828773089002 4.7887210822025414 -6.77688553333893 1 0 1
1032 311 4 -5.955442676638818 5.09405780749427 -6.9397162607765 1 -1 0
1031 311 2 -5.668405828782181 5.5026896276475465 -6.915630964357234 1 -1 0
59 12 3 -5.407741785553339 6.290493422719024 -7.0071575892936275 0 -1 1
1033 311 4 -5.381482991279805 5.911347435970348 -6.891634352706965 1 -1 0
609 170 4 -2.088855148615027 5.146200268921736 -6.960251122523499 0 0 0
56 12 1 -5.1848417997437295 6.552220820527131 -6.695476789161427 0 -1 1
57 12 3 -5.100196216483902 6.9645676944064405 -6.88131600240204 0 -1 1
1453 451 4 -5.227925009787339 7.343133829243045 -6.904621327209287 0 0 1
1451 451 2 -4.9774735386422515 7.737334172728615 -7.082990231501029 0 0 1
1512 471 4 -7.87160605807047 2.2506322146095585 -2.395936772754963 1 0 0
699 200 4 -2.9684306224990196 7.73685422080328 -6.175795503501113 0 0 0
363 88 4 -6.842198946690156 1.6289460236292383 -6.3855069621658025 0 0 0
1325 409 2 -7.638659240319515 0.08857243682345513 -5.001242109420449 1 0 0
1011 304 4 -1.9062722196270607 7.783949212784496 -5.404731875713808 0 0 0
564 155 4 -7.906201097513036 2.3861638563287655 -5.044047140074176 0 0 0
1170 357 4 -2.5447955641203133 0.9427790477379717 -5.684126557380736 0 0 1
651 184 4 -2.674495780001379 0.6811466241004454 -5.973884235644006 0 0 0
88 18 3 -7.6023271218789095 2.3223049686479507 -5.956461108797167 0 0 0
86 18 1 -7.670404549148421 2.626897815858645 -5.612999007181458 0 0 0
362 88 2 -7.260182659440883 1.90236530016166 -6.359591032133031 0 0 0
364 88 4 -7.677872086031688 2.1756050643601164 -6.333726142905437 0 0 0
87 18 3 -7.69703291287397 3.0498740218112372 -5.792237312819339 0 0 0
89 18 3 -7.314453384536452 2.612420175684455 -5.315459052797318 0 0 0
1278 393 4 -7.694872640786854 3.4465742979588314 -5.849275198502032 1 0 0
387 96 4 -7.137102917131612 2.735895919213013 -4.965757758835758 0 -1 0
386 96 2 -6.656188256980158 2.621631562182048 -4.889281365229606 0 -1 0
1311 404 4 -5.097908605341248 1.9282885776921446 -5.326865343175233 1 0 0
1276 392 4 -4.727048764771052 2.0566113956902226 -5.4541657798219205 0 0 0
1274 392 2 -4.72354385914754 2.37378573086256 -5.840672825390513 0 0 0
1310 404 2 -5.547639935506496 2.103442893688646 -5.196516942437817 1 0 0
1275 392 4 -4.7201037192088995 2.6909117375691607 -6.227250986064424 0 0 0
918 273 4 -4.548334905310209 2.9885963265781874 -6.0276633996692395 0 0 0
917 273 2 -4.493201200048207 3.470588371652605 -5.906841624823387 0 0 0
1169 357 2 -2.1691358747355753 1.2715350001620207 -5.654582004912093 0 0 1
1171 357 4 -1.7936547051149956 1.600437113682988 -5.624850244893448 0 0 1
903 268 4 -1.6726688784155945 1.5770151649640463 -6.007909649979079 0 0 0
902 268 2 -1.6009665800633568 1.9163614282183166 -6.368454011704387 0 0 0
238 48 3 -6.34222334664133 4.59470166880467 -6.3740498996971 1 0 1
990 297 4 -4.80769408209557 4.985581517042887 -5.77618515228451 0 0 0
991 297 4 -4.405862929286003 4.133721164466815 -5.43955334495342 0 0 0
919 273 4 -4.438446826937136 3.952830783696925 -5.7860647472850015 0 0 0