LAMMPS data file via write_data, version 4 Feb 2025, timestep = 80000, units = lj

7750 atoms
4 atom types
5250 bonds
1 bond types
3125 angles
2 angle types

-14.12933 14.12933 xlo xhi
-14.12933 14.12933 ylo yhi
-14.12933 14.12933 zlo zhi
3.552713678800501e-14 0 0 xy xz yz

Masses

1 1
2 1
3 0.1
4 0.1

Bond Coeffs # harmonic/omp

1 100 0.45

Angle Coeffs # harmonic/omp

1 100 180
2 100 109.471

Atoms # full

6388 2046 4 0 -7.872623914482456 -13.472934412261898 -13.908780630106897 10 1 0
3675 1142 4 0 -7.842671562817914 -13.232758989287088 -13.58416796626291 9 1 1
3818 1190 2 0 -13.046764856860355 -12.286384113378247 -14.078971606307478 9 1 1
3819 1190 4 0 -12.754782775299995 -12.23116844020455 -13.788668164762562 9 1 1
883 211 4 0 -12.615332273028862 -12.261478437563559 -13.38508845799699 1 0 0
2325 692 4 0 -6.794465687751462 -11.400374992722156 -14.050777148769498 1 0 1
6659 2137 2 0 -13.629134403899062 -10.380869438700243 -13.552176513330426 11 1 0
6660 2137 4 0 -14.069730341073605 -10.341019413242556 -13.560913101454263 11 1 0
6661 2137 4 0 -13.149979014079534 -10.429445764077615 -13.548139816814173 11 1 0
5745 1832 4 0 -12.853451607434678 -10.136435584744692 -13.516861825725204 3 0 1
868 206 4 0 -7.439131247254019 -7.67992373888192 -14.090704126429486 4 0 0
2345 699 2 0 -6.612640979289039 -7.4598910216153556 -13.795616685887452 4 0 1
2347 699 4 0 -7.051025537169029 -7.597104953974665 -13.928979180570025 4 0 1
2346 699 4 0 -6.199473162783565 -7.323565874841598 -13.66275247457795 4 0 1
7155 2302 4 0 -5.914068098411493 -7.160377694195955 -13.439797908109314 12 1 1
5456 1736 2 0 -12.020597339516765 -6.700328333874985 -13.629137749326688 5 0 1
5458 1736 4 0 -12.251433663253763 -6.97627636897433 -13.87977494191373 5 0 1
5457 1736 4 0 -11.779025575886388 -6.431479899244406 -13.371761173709709 5 0 1
6089 1947 2 0 -7.244754018453706 -6.484639470104747 -13.588235335384786 5 0 0
6090 1947 4 0 -7.368243728171837 -6.651300533130577 -13.977430168348848 5 0 0
5488 1746 4 0 -11.06194334429462 -5.386809445892162 -13.263017902868095 5 0 1
1852 534 4 0 -0.5007790145040829 -5.803567624553246 -13.384849975219252 5 0 1
1850 534 2 0 -0.27986688483846045 -5.82285758376592 -13.765897972225424 5 0 1
5486 1746 2 0 -10.741821610522734 -5.292175266055144 -13.564179723589943 5 0 1
5487 1746 4 0 -10.39531145523797 -5.1869101021403345 -13.889437023940895 5 0 1
4335 1362 4 0 -9.996963313022132 -5.192071505293047 -14.02433231396136 6 0 0
4334 1362 2 0 -9.555249849695318 -5.11513063520586 -14.063318662411826 6 0 0
4336 1362 4 0 -9.101823312180887 -5.032742993110238 -14.116483597836439 6 0 0
1978 576 4 0 -1.3269081219004626 -0.9092885844078715 -13.507684510547037 8 0 1
1976 576 2 0 -0.9497413060988986 -1.1144486687827975 -13.37154074114486 8 0 1
2749 833 4 0 -3.793198710581489 -0.06472277778426694 -13.391097524467714 8 0 0
3133 961 4 0 -1.901945374051163 -0.013979787961405421 -13.585150461738948 8 0 0
3131 961 2 0 -1.7549787211063919 -0.402795807861974 -13.41360529719923 8 0 0
5129 1627 2 0 -11.117438637838596 -12.654810827666408 -12.752394318593494 1 0 1
4449 1400 4 0 -10.709318875902206 -13.144500990768108 -12.380292353000135 1 0 0
5130 1627 4 0 -11.38678597399859 -12.519942251164368 -13.098806513154866 1 0 1
5131 1627 4 0 -10.836634787067931 -12.797088931436642 -12.384256666042885 1 0 1
3674 1142 2 0 -8.004147004825292 -13.056340992518809 -13.226721165535965 9 1 1
3676 1142 4 0 -8.168149259632909 -12.870653113020975 -12.857998462274974 9 1 1
881 211 2 0 -12.387492043692683 -12.181276658350313 -12.994389830068023 1 0 0
882 211 4 0 -12.161323975843258 -12.107068883030895 -12.606691028151541 1 0 0
5744 1832 2 0 -12.625638573136623 -10.055425503419753 -13.148273384850071 3 0 1
6730 2160 4 0 -12.404575525712731 -9.943860397855168 -12.368100983282911 11 1 0
5746 1832 4 0 -12.389139838250568 -9.973665738468252 -12.777241351175046 3 0 1
4417 1389 4 0 -8.832625691089234 -8.45889725168144 -12.767990152126139 4 0 0
4415 1389 2 0 -8.401400088259464 -8.433263364996018 -12.618554717941157 4 0 0
4416 1389 4 0 -7.9735824275181475 -8.417368055831856 -12.461584251431903 4 0 0
7154 2302 2 0 -5.532547873030339 -7.10881082336708 -13.194621598816815 12 1 1
7156 2302 4 0 -5.1546617256187375 -7.0706405572469615 -12.951351083191561 12 1 1
2305 685 4 0 -4.926683557899233 -7.07735368278626 -12.608454844528199 4 0 1
6091 1947 4 0 -7.118301636916243 -6.320522998199826 -13.205320868432434 5 0 0
1675 475 4 0 -6.833098642222174 -6.512751697740443 -13.00621477921735 4 0 1
1673 475 2 0 -6.681033585238675 -6.728997673479262 -12.6430825507288 4 0 1
1341 364 4 0 -13.376682134032663 -5.56500998654545 -12.723543608446123 5 0 0
2361 704 4 0 -13.78688501645253 -5.528966491796497 -12.688608324924965 5 0 1
1342 364 4 0 -12.442837203326581 -5.6651793712531635 -12.717030874576663 5 0 0
1340 364 2 0 -12.90645977942336 -5.615724675507964 -12.721379050655667 5 0 0
414 83 3 0 -12.056553869412054 -5.686129526171349 -12.67584326616709 5 0 0
411 83 1 0 -11.633406665380114 -5.837971235358168 -12.826741115474087 5 0 0
415 83 3 0 -11.691039569560049 -6.125372905410202 -13.138666698810127 5 0 0
412 83 3 0 -11.377656331761145 -5.462866719063673 -12.991432947171157 5 0 0
1894 548 4 0 -10.998947290377767 -5.938746665520576 -12.49537094899092 5 0 1
413 83 3 0 -11.404219120008822 -6.034594212903999 -12.470166839397336 5 0 0
1892 548 2 0 -10.564685772309916 -5.8188865714086475 -12.39190141686173 5 0 1
1147 299 4 0 -5.515532893584307 -5.12957173778144 -12.402362746982599 5 0 0
2560 770 4 0 -11.381800340509425 -4.101881372215615 -12.74666733728382 6 0 0
2558 770 2 0 -10.950379983807565 -4.059490801965961 -12.612345180493534 6 0 0
2559 770 4 0 -10.524565824968313 -4.020684653827043 -12.480793309529613 6 0 0
5735 1829 2 0 -10.611003487445787 -2.7154369743573845 -12.41931739104963 7 0 1
5737 1829 4 0 -10.18089827152463 -2.6775553139065114 -12.476465423588417 7 0 1
839 197 2 0 -13.292238372002394 -2.48496352375129 -12.477731419936708 7 0 0
840 197 4 0 -13.653714979309035 -2.4716989033330723 -12.774444119884482 7 0 0
2007 586 4 0 -9.887391705699494 -2.440547843238015 -12.619743102169167 6 0 1
2006 586 2 0 -9.451561594480015 -2.5121452867432748 -12.53644637171519 6 0 1
2008 586 4 0 -9.015056558040168 -2.5862634313629336 -12.450973972282032 6 0 1
1977 576 4 0 -0.5633000676018582 -1.3232063934455187 -13.234044099139464 8 0 1
6658 2136 4 0 -0.3022384603683843 -1.1043355180118368 -13.03157624423115 8 0 0
3132 961 4 0 -1.6021688995822316 -0.7843188294320456 -13.243188217718389 8 0 0
4448 1400 2 0 -10.706781279494594 -13.348699309671488 -11.964229973275836 1 0 0
4450 1400 4 0 -10.703341090569849 -13.54759552833638 -11.593158032538398 1 0 0
1149 300 4 0 -12.754279089891243 -13.173816142070173 -11.615185791123212 1 0 0
5118 1623 4 0 -12.464205304907088 -12.892572547546584 -11.619165004806202 2 0 1
5117 1623 2 0 -12.326247491977277 -12.619123116158415 -11.944476901843545 2 0 1
5119 1623 4 0 -12.179360264419588 -12.341921611286324 -12.279636253701003 2 0 1
1196 316 2 0 -13.726562800090509 -10.296599183642305 -11.903277123580581 2 0 0
1197 316 4 0 -13.332495140864927 -10.126127806953864 -11.823196260402044 2 0 0
6729 2160 4 0 -12.974582183285143 -9.949337522724788 -11.693656184255675 11 1 0
6728 2160 2 0 -12.688163091343622 -9.947048089608403 -12.039477520865413 11 1 0
3210 987 4 0 -5.712780284965373 -10.286646799157428 -11.52248397445805 10 1 0
7543 2431 4 0 -4.471602909219646 -10.326092300619417 -11.720189517891288 11 1 1
3211 987 4 0 -4.841846666775787 -10.215339461138663 -11.642505648489287 10 1 0
3209 987 2 0 -5.284731201124057 -10.251251292550908 -11.576073232632492 10 1 0
7542 2431 4 0 -3.6700483440979124 -10.152024208356337 -12.073864977788926 11 1 1
7541 2431 2 0 -4.082138586820296 -10.240738815105654 -11.898835901936563 11 1 1
1423 391 4 0 -3.3623848310182485 -9.903765270459232 -11.97689146134648 2 0 0
1421 391 2 0 -2.928394144764315 -9.843246684640462 -11.885721840058773 2 0 0
1422 391 4 0 -2.4684279640864197 -9.795688500329744 -11.779776914255429 2 0 0
973 241 4 0 -2.176638130589712 -9.844671647681775 -12.060975700341844 2 0 0
971 241 2 0 -1.7556183745671987 -9.792322827770443 -11.967494773998657 2 0 0
972 241 4 0 -1.3088899345956033 -9.739601516654535 -11.873103698637127 2 0 0
6123 1958 4 0 -3.48349292276259 -8.93262051561659 -11.492287943457882 4 0 0
2037 596 4 0 -0.9872617713792113 -9.531513147045189 -11.991855145894037 2 0 1
2036 596 2 0 -0.7148234984606869 -9.346581345843996 -11.654358867846208 2 0 1
5856 1869 4 0 -7.730462972814485 -8.444703765199144 -12.143546716914868 4 0 1
5855 1869 2 0 -7.420507509941701 -8.217394559103985 -11.921159088981893 4 0 1
5857 1869 4 0 -7.101819889338311 -7.977861266261276 -11.6972883522881 4 0 1
3771 1174 4 0 -3.4198406075081316 -8.786634197656117 -11.85606381078957 3 0 1
3770 1174 2 0 -3.0100548713917696 -8.656920480428338 -12.032213617441055 3 0 1
4436 1396 2 0 -1.8832667570569193 -8.324539950067535 -12.171279219284438 4 0 0
3772 1174 4 0 -2.61813987233338 -8.53970172017033 -12.197913707319538 3 0 1
4437 1396 4 0 -2.3120437893860437 -8.315464479667462 -12.095509570856468 4 0 0
4438 1396 4 0 -1.4451962934976041 -8.32774859933238 -12.250777411285963 4 0 0
7345 2365 4 0 -1.0367029170240212 -8.23571929454773 -12.311325602042924 12 1 1
7343 2365 2 0 -0.6434580506252772 -8.199068316911983 -12.120576158679985 12 1 1
7344 2365 4 0 -0.23110972762664517 -8.155820261212545 -11.923830828253076 12 1 1
1674 475 4 0 -6.539049610537584 -6.945705192342371 -12.284041542979047 4 0 1
990 247 4 0 -6.288726978954215 -7.023398994407376 -12.003184625983883 4 0 0
989 247 2 0 -5.922340269235036 -6.91233820079284 -11.72782683039185 4 0 0
2303 685 2 0 -4.664511111469427 -6.828342240780423 -12.338325761590728 4 0 1
1003 251 4 0 -4.115268742050489 -6.746850272248349 -11.848408963255073 4 0 0
2304 685 4 0 -4.4049364834279405 -6.571739684735177 -12.070695269752852 4 0 1
1001 251 2 0 -3.8700741448245086 -6.618004476316279 -11.499621160480261 4 0 0
1893 548 4 0 -10.149826496339696 -5.703847078723101 -12.28717399936714 5 0 1
5808 1853 4 0 -9.803871576502473 -5.49948738110194 -12.23022595196385 5 0 1
5807 1853 2 0 -9.3654869066924 -5.385861062263734 -12.205488344318008 5 0 1
5809 1853 4 0 -8.892865304107612 -5.262702359585882 -12.178010726355202 5 0 1
4203 1318 4 0 -8.501484050873213 -5.150350976931595 -12.188302715466259 5 0 0
4202 1318 2 0 -8.072576854499506 -5.04177145390087 -12.15391050574036 5 0 0
4204 1318 4 0 -7.636060478582627 -4.920829420252618 -12.1247021191322 5 0 0
5628 1793 4 0 -7.274467383638988 -4.847339296488695 -12.207177174716971 5 0 1
5627 1793 2 0 -6.876028933459539 -4.6677962303368545 -12.073686910787396 5 0 1
5629 1793 4 0 -6.483921163759266 -4.494538617992088 -11.951205323405524 5 0 1
1146 299 4 0 -6.129163118929734 -4.676734375320397 -11.884956255794602 5 0 0
1145 299 2 0 -5.83098548614409 -4.8928573703533225 -12.135682776144773 5 0 0
4193 1315 2 0 -13.053036204593756 -3.540222821923548 -12.041655026266538 7 0 0
4195 1315 4 0 -12.561381179151827 -3.5506523941800427 -12.14855537038294 7 0 0
1777 509 4 0 -10.17644116347937 -3.8792487664874002 -12.293284212052304 6 0 1
1775 509 2 0 -10.038160651970827 -3.6478735965670133 -11.971273604457775 6 0 1
4194 1315 4 0 -13.476807533269806 -3.531936165221314 -11.95591207399457 7 0 0
699 150 4 0 -13.753802845221875 -3.396478368904969 -11.682872230357326 7 0 0
984 245 4 0 -12.168413612797865 -3.472223474083812 -12.215021874772843 7 0 0
983 245 2 0 -11.79595707730861 -3.2232402636029 -12.267990981821143 7 0 0
985 245 4 0 -11.421862487240436 -2.965357168385685 -12.324342681984582 7 0 0
5736 1829 4 0 -11.050631673253559 -2.7563883470973156 -12.359451723458493 7 0 1
1776 509 4 0 -9.876735386703182 -3.385147837896726 -11.608381823509966 6 0 1
5335 1695 4 0 -8.38939736630191 -2.9447517612974075 -11.51322692180926 6 0 1
4910 1554 2 0 -12.64929739326022 -2.1486867401313674 -11.627186211366228 7 0 0
4912 1554 4 0 -13.039386403706391 -2.327615852148611 -11.83584770544313 7 0 0
841 197 4 0 -12.94674611259598 -2.5054475935711196 -12.181768148068993 7 0 0
886 212 4 0 -8.88232799075653 -2.1416079189773125 -11.554481347301975 7 0 0
884 212 2 0 -9.290844005723859 -1.9786677499777685 -11.488599606543938 7 0 0
2593 781 4 0 -8.588135764815238 -1.8374508127388172 -11.51368353008256 7 0 0
2591 781 2 0 -8.149813988177455 -1.8013336469189483 -11.56388439144092 7 0 0
4723 1491 4 0 -12.617667587327492 -1.1115377247479312 -11.697142128422328 7 0 0
2592 781 4 0 -7.700027764055651 -1.7640883384179205 -11.610938675794337 7 0 0
1148 300 2 0 -12.724829739578663 -13.455059502992036 -11.218065840566412 1 0 0
1150 300 4 0 -12.699408754838757 -13.708757807701483 -10.851588327286674 1 0 0
691 147 4 0 -12.405986345301727 -13.934147462384713 -10.661266078255704 1 0 0
5268 1673 4 0 -11.342834345504047 -13.833694789342578 -10.731460869939012 1 0 1
5269 1673 4 0 -10.61949174575124 -13.58763197200797 -11.195267560160051 1 0 1
5267 1673 2 0 -10.971736253296564 -13.712266390165038 -10.967643051103956 1 0 1
2778 843 4 0 -9.410480247246948 -11.501085652950763 -10.706449995557719 9 1 0
2777 843 2 0 -9.00351103621114 -11.29958419801778 -10.694727155987568 9 1 0
2779 843 4 0 -8.56772181277563 -11.084594726903944 -10.681948052958813 9 1 0
2837 863 2 0 -6.201861173336831 -9.76565703929799 -11.147863315241878 10 1 0
2839 863 4 0 -5.875932207305258 -9.949600790708217 -11.380810709205011 10 1 0
2838 863 4 0 -6.521733834619754 -9.576666131422284 -10.9233006733936 10 1 0
1010 254 2 0 -4.886005131915871 -9.335587371224685 -10.915595634293735 3 0 0
1011 254 4 0 -4.7343870855125445 -9.013086847868177 -11.24323417834188 3 0 0
6124 1958 4 0 -4.3481256374346025 -8.968604115851566 -11.163305518778117 4 0 0
6122 1958 2 0 -3.910502791446957 -8.950348937402085 -11.332172850047716 4 0 0
2038 596 4 0 -0.46087766065009284 -9.165071433369812 -11.33917718472506 2 0 1
4426 1392 4 0 -0.059031596790692475 -9.253238897632297 -11.37505318901974 3 0 0
5985 1912 4 0 -7.016794015183982 -8.031609484584015 -11.306714013454178 4 0 1
5984 1912 2 0 -6.667839972848303 -7.975258178108613 -11.040221670759088 4 0 1
5986 1912 4 0 -6.285895920767254 -7.9157327445634005 -10.75170517918849 4 0 1
991 247 4 0 -5.575854246945369 -6.804234990582467 -11.462398431893948 4 0 0
5287 1679 4 0 -5.393148620216991 -6.811942213385767 -11.081779909604967 5 0 0
5285 1679 2 0 -5.414449730139523 -6.599243347386163 -10.680101387971142 5 0 0
1002 251 4 0 -3.619638768216129 -6.47511665035856 -11.138295592742047 4 0 0
1050 267 4 0 -3.3154309182579826 -6.303535484004294 -10.934768733341752 4 0 0
5280 1677 4 0 -9.544229340635834 -3.407890105546201 -11.333885932804003 6 0 1
5279 1677 2 0 -9.159976052965163 -3.2253026595083103 -11.349493074955378 6 0 1
5281 1677 4 0 -8.775080080599412 -3.037102506746262 -11.359709309929826 6 0 1
5333 1695 2 0 -8.035542241354875 -2.8801799597958944 -11.273729449561863 6 0 1
5334 1695 4 0 -7.675245523679852 -2.8052137724564137 -11.005688104449474 6 0 1
4911 1554 4 0 -12.276016443394761 -1.987378817868338 -11.423803893898887 7 0 0
1069 273 4 0 -11.941039727925283 -1.8459842366385129 -11.214538563339296 7 0 0
1067 273 2 0 -11.519466092045011 -1.788668853575091 -11.141841118393932 7 0 0
69 14 3 0 -10.707149057922885 -1.8204701221224155 -11.035166293457095 7 0 0
66 14 1 0 -10.312175971412575 -1.880901027265212 -10.834305784401508 7 0 0
68 14 3 0 -9.972899181751952 -1.9584470477913136 -11.158408372055103 7 0 0
885 212 4 0 -9.701330027727813 -1.8051260302079246 -11.423073786406693 7 0 0
4721 1491 2 0 -12.402156191019497 -0.9314393993744794 -11.328749899575673 7 0 0
1068 273 4 0 -11.0932437140332 -1.7364562489915247 -11.066390158788018 7 0 0
70 14 3 0 -10.206318226879889 -1.5299758498900395 -10.608795210210568 7 0 0
3444 1065 4 0 -7.507646050312232 -1.7195390298126974 -11.271249051483327 7 0 1
3443 1065 2 0 -7.344907529074334 -1.5850082383308557 -10.85557361789413 7 0 1
4722 1491 4 0 -12.197200642429252 -0.7573162031922855 -10.970562588469846 7 0 0
1785 512 4 0 -11.81959024416887 -0.7280288575681517 -10.863775025544884 7 0 1
1784 512 2 0 -11.42957331607977 -0.5232659744343309 -10.796704604537716 7 0 1
1786 512 4 0 -11.016037414997633 -0.315153963538231 -10.72736614742152 7 0 1
639 130 4 0 -3.3144402452576536 -0.8106635149590691 -10.890836203818207 8 0 0
689 147 2 0 -11.96811336340153 -13.941177660039807 -10.525079379528384 1 0 0
690 147 4 0 -11.522721118806158 -13.947468838181074 -10.396514226254494 1 0 0
2442 731 4 0 -13.965369994329984 -12.032536230249598 -10.289856898411196 10 1 0
661 137 4 0 -8.262688172739876 -11.233556895892706 -10.440759025672056 9 1 0
659 137 2 0 -7.893998477340713 -11.22247036652205 -10.185677574471438 9 1 0
660 137 4 0 -7.536787369970111 -11.211805677787156 -9.930138689249578 9 1 0
963 238 4 0 -7.1158805358978 -9.419189131126164 -9.893127498493097 3 0 0
962 238 2 0 -6.69360396128475 -9.298537819626132 -9.791862140750418 3 0 0
735 162 4 0 -5.878909092069799 -9.129731168627513 -9.771548737903528 3 0 0
734 162 2 0 -5.58664423009116 -9.313493402543747 -10.036524261539263 3 0 0
1012 254 4 0 -5.032159020209894 -9.65951117538094 -10.587881861885567 3 0 0
736 162 4 0 -5.264559138294086 -9.510848294643555 -10.308513137226862 3 0 0
4657 1469 4 0 -4.3160861222244815 -8.75561741415195 -10.015448521736042 4 0 0
4702 1484 4 0 -3.9952014182117175 -8.538200030623944 -10.091311465891303 4 0 0
4700 1484 2 0 -3.6779998664254716 -8.265205287493782 -9.94557943219801 4 0 0
4701 1484 4 0 -3.35988828289684 -7.9795565572927725 -9.790542519170051 4 0 0
1308 353 4 0 -12.503231234518855 -7.1213549762839214 -9.821563579176313 4 0 0
7372 2374 4 0 -6.060321147919794 -7.701039028042354 -10.494048197083785 12 1 1
7370 2374 2 0 -5.617485372250686 -7.609088375255859 -10.309112623774878 12 1 1
7371 2374 4 0 -5.20628160584757 -7.521140780398561 -10.132019364654466 12 1 1
4927 1559 4 0 -4.847115057699288 -7.4900662538226035 -9.938828230550111 4 0 0
6672 2141 4 0 -3.158150371644627 -7.627888794710296 -9.774008470953534 12 1 0
4209 1320 4 0 -12.920985977595215 -7.030155958931578 -9.786171346968631 5 0 0
1307 353 2 0 -12.014835153660577 -7.052890478599132 -9.885351609701582 4 0 0
1309 353 4 0 -11.547216881615721 -6.987920877961124 -9.9313666224737 4 0 0
4613 1455 2 0 -10.680168069312987 -6.900601265669345 -9.798818556240457 5 0 0
4615 1455 4 0 -11.127760538437448 -6.945113523763832 -9.834114166996487 5 0 0
4614 1455 4 0 -10.197373196437576 -6.8520687462673955 -9.76758544378366 5 0 0
33 7 3 0 -5.480466167527018 -6.445604457088215 -9.88901267714778 4 0 0
5286 1679 4 0 -5.4271141364546125 -6.386826826030345 -10.287765156409304 5 0 0
424 85 3 0 -3.040300223268149 -6.201056141246656 -9.790755821096665 4 0 1
1049 267 2 0 -3.2644942902378045 -6.124926986276293 -10.480837333049994 4 0 0
1051 267 4 0 -3.2224746654067324 -5.973535615284375 -10.078012763887306 4 0 0
995 249 2 0 -10.152216757718598 -3.5330059096985504 -10.065689553236478 6 0 0
996 249 4 0 -9.783425623024732 -3.8251676171184172 -10.115144224451713 6 0 0
997 249 4 0 -10.508359307492503 -3.249731814219455 -10.008212060161654 6 0 0
67 14 3 0 -10.340772422291172 -2.217191529697427 -10.572892417763455 7 0 0
1077 276 4 0 -10.234554915248491 -2.228236299913405 -10.182333175020045 7 0 0
1076 276 2 0 -10.192229494333738 -2.2635045009626715 -9.761576156987523 7 0 0
1864 538 4 0 -10.120176269201792 -1.1207468466949493 -10.475724847332849 7 0 1
1088 280 2 0 -7.771105705551807 -1.2373950669749725 -9.917847515110195 7 0 0
1090 280 4 0 -7.473674316310239 -1.4394858358939615 -10.19920291450917 7 0 0
3445 1065 4 0 -7.188431325684002 -1.4562727520028869 -10.465453908889609 7 0 1
2735 829 2 0 -2.1083678477689 -1.6024959994375578 -9.917970775793213 7 0 0
2736 829 4 0 -2.0529701250142143 -1.4027077502538283 -10.31836676392626 7 0 0
1863 538 4 0 -10.6786068235086 -0.4312326775738029 -10.492730267303417 7 0 1
1862 538 2 0 -10.402050661527186 -0.785520304650877 -10.485922090741015 7 0 1
638 130 2 0 -3.2127425360746713 -0.6935708208513187 -10.468800478442448 8 0 0
640 130 4 0 -3.0969618020172476 -0.5786530497323632 -10.069800306955415 8 0 0
1456 402 4 0 -2.774700736038943 -0.3326414464124685 -10.030660713108233 8 0 0
1454 402 2 0 -2.376009702390874 -0.30268172465742005 -9.79758033105997 8 0 0
2081 611 2 0 -0.00359430426822982 -0.12262262504665422 -9.76419945590166 8 0 1
6816 2189 4 0 -1.2305377224655594 -12.835140161369983 -9.037011454439657 9 1 0
4213 1321 4 0 -0.025034547207802405 -12.823697922669385 -9.282790138592004 1 0 0
6815 2189 2 0 -0.8082451147610978 -12.800397745325238 -9.066220653676266 9 1 0
6817 2189 4 0 -0.3613004374563804 -12.764361236980324 -9.080948670618728 9 1 0
2594 782 2 0 -5.833189876349117 -11.947127423017475 -9.345812547080358 11 1 0
2596 782 4 0 -6.1138365774861345 -11.684055973468592 -9.615243047867802 11 1 0
2595 782 4 0 -5.567755852543934 -12.18967603564987 -9.097501356083018 11 1 0
964 238 4 0 -6.257700709216465 -9.162327370644839 -9.698731241033572 3 0 0
4655 1469 2 0 -4.587597431955453 -8.751192539200183 -9.626548778301455 4 0 0
4656 1469 4 0 -4.853706174336164 -8.755463694180559 -9.246002714872697 4 0 0
4626 1459 4 0 -4.82187945219934 -8.767780436485733 -8.846410887315525 4 0 0
4208 1320 2 0 -13.350676947980423 -7.095168310168414 -9.624996963228831 5 0 0
4210 1320 4 0 -13.815076254736994 -7.159486925487256 -9.456466716380495 5 0 0
850 200 4 0 -6.612524030444004 -7.427037753357853 -8.871590968702948 4 0 0
848 200 2 0 -6.272691492049085 -7.341886119478246 -9.135030995416562 4 0 0
849 200 4 0 -5.9065962633575655 -7.250813759175031 -9.421205284604188 4 0 0
4925 1559 2 0 -4.669105731023052 -7.409818063325709 -9.528769363337267 4 0 0
4926 1559 4 0 -4.5093375268120806 -7.330680910742969 -9.135448033035425 4 0 0
354 71 3 0 -4.31824150587375 -7.1224073346314745 -8.86324959158452 4 0 0
6671 2141 2 0 -3.229256202729754 -7.517740306242161 -9.336666676329605 12 1 0
6673 2141 4 0 -3.308424094274871 -7.413635432919662 -8.929334777316107 12 1 0
4359 1370 4 0 -1.7740091752211224 -7.8936050894441205 -8.844130609284353 4 0 0
4358 1370 2 0 -1.3749275963262981 -7.78030531768594 -9.080084761564539 4 0 0
4360 1370 4 0 -0.9779375217621116 -7.66317102649838 -9.31991840160472 4 0 0
6523 2091 4 0 -0.5793683216209153 -7.5564371674921675 -9.422304577132802 12 1 0
6521 2091 2 0 -0.17107537226793568 -7.457415457059007 -9.599224106223883 12 1 0
1638 463 4 0 -9.784464176066905 -6.796380842720253 -9.693196885605118 4 0 0
1637 463 2 0 -9.285389579514518 -6.7283107317950135 -9.656088093991036 4 0 0
1175 309 2 0 -7.961265966263641 -6.5243429486452325 -9.664863355186377 4 0 0
1639 463 4 0 -8.80825465735061 -6.663042074168344 -9.627502735851028 4 0 0
1177 309 4 0 -8.405784541541394 -6.609240254500485 -9.667860494257734 4 0 0
1176 309 4 0 -7.506198264000719 -6.434158579200445 -9.657688759446847 4 0 0
943 231 4 0 -7.135602098658267 -6.303353617187546 -9.644403626633288 4 0 0
941 231 2 0 -6.711944065565011 -6.229846818840513 -9.5727541987383 4 0 0
34 7 3 0 -5.915487013837479 -6.250761116215089 -9.349759743712871 4 0 0
32 7 3 0 -5.635336986045669 -6.923982776136765 -9.352057432397094 4 0 0
31 7 1 0 -5.5595482882386555 -6.48950823308898 -9.455365087571968 4 0 0
35 7 3 0 -5.189094026710842 -6.34183432677992 -9.208519736945071 4 0 0
5632 1794 4 0 -4.800002097417618 -6.276882420254655 -9.187037586613437 4 0 1
5630 1794 2 0 -4.327555174124589 -6.2428820991159295 -9.15849128005276 4 0 1
5631 1794 4 0 -3.8511409272508423 -6.203469106176691 -9.129884989476771 4 0 1
425 85 3 0 -3.4341268886807175 -6.194887917107023 -9.15077489565898 4 0 1
422 85 3 0 -2.6448097866593603 -6.197463896722613 -9.129068407861865 4 0 1
1224 325 4 0 -2.229268646418401 -6.284814204790241 -9.113933408977541 4 0 0
1223 325 2 0 -1.7982716527593627 -6.288391444718127 -9.023342141357473 4 0 0
1225 325 4 0 -1.3278900986168338 -6.29618468463819 -8.92754199001736 4 0 0
1435 395 4 0 -0.9146264076182486 -6.249088168292593 -8.969158455654515 4 0 0
1433 395 2 0 -0.4729560863150706 -6.198815498560604 -8.844899405135884 4 0 0
942 231 4 0 -6.26177149154728 -6.160145599970276 -9.486856663381985 4 0 0
421 85 1 0 -3.045814227457562 -6.040689849470393 -9.370491445699809 4 0 1
423 85 3 0 -3.0454482262159264 -5.576143802436317 -9.386532908442994 4 0 1
4262 1338 2 0 -9.525562322790638 -4.818232069227058 -8.878399282725761 6 0 0
4263 1338 4 0 -9.11240409687283 -4.697152705022507 -8.99967604156599 6 0 0
5587 1779 4 0 -8.747819800455833 -4.506556662077173 -9.097000095622857 6 0 1
5585 1779 2 0 -8.403798792832848 -4.1941508531657234 -9.062544818403387 6 0 1
5586 1779 4 0 -8.098282820105286 -3.9169666843819737 -9.015477635521249 6 0 1
4812 1521 4 0 -7.782806520463923 -3.7048496010357503 -9.194541227668529 6 0 0
4811 1521 2 0 -7.350324030748089 -3.5771748123757767 -9.088400689307791 6 0 0
4813 1521 4 0 -6.949010188854905 -3.460825167946279 -8.992979268471993 6 0 0
1155 302 4 0 -6.712597574208827 -3.12674907603183 -8.982980142785832 5 0 0
1368 373 4 0 -9.874311665498537 -2.386015445091866 -9.089596958916461 7 0 0
1078 276 4 0 -10.157094915416337 -2.2930609171822827 -9.335509050482068 7 0 0
6276 2009 4 0 -2.0150334467354725 -1.8781258594028127 -9.126587664237091 8 0 0
2737 829 4 0 -2.144994359466276 -1.8096123401029978 -9.484970760798406 7 0 0
6275 2009 2 0 -1.6793996125533432 -1.771786672159788 -8.84987269441649 8 0 0
1812 521 4 0 -13.730431836328805 -1.4712044775369826 -9.022366827519624 7 0 1
1811 521 2 0 -13.352964367629541 -1.20507433291281 -9.016653703325368 7 0 1
2335 695 4 0 -14.089286758910486 -1.3575715358384208 -8.892400473900622 7 0 1
2085 612 4 0 -12.640227127850027 -1.1027322511695559 -8.990542432475031 7 0 1
1813 521 4 0 -12.989102239980701 -0.9441538754588255 -9.018249192254604 7 0 1
2084 612 2 0 -12.226269147467772 -1.2441682387097117 -8.989722505283943 7 0 1
2086 612 4 0 -11.800007950434866 -1.3731201820371854 -8.987360689243436 7 0 1
1691 481 2 0 -11.033406420500961 -1.2954547826224534 -8.842107760371249 7 0 1
1692 481 4 0 -10.608737283052756 -1.109582728593729 -8.871902563602692 7 0 1
7538 2430 2 0 -9.850397394034108 -1.0243633972872974 -9.119859068105722 8 0 1
7539 2430 4 0 -10.228503181410211 -1.1701905494273408 -8.96320869059303 8 0 1
5308 1686 4 0 -9.07627617489807 -0.9814717688497314 -9.26737507471281 0 -1 1
1089 280 4 0 -8.084658920294231 -1.019776010870718 -9.621410297177581 7 0 0
7540 2430 4 0 -9.45855698593476 -0.8664504823095154 -9.280975151460327 8 0 1
5307 1686 4 0 -8.329401495962088 -0.7177571399450233 -9.579286035443152 0 -1 1
5306 1686 2 0 -8.700755678601453 -0.8506626705556837 -9.422188874721265 0 -1 1
1455 402 4 0 -2.030969458999385 -0.2747743958034121 -9.598827377290206 8 0 0
212 43 3 0 -1.619403806597509 -0.21464330026057432 -9.53056688423416 8 0 0
215 43 3 0 -0.8434135609134508 -0.30581365761414325 -9.6237154005545 8 0 0
2082 611 4 0 -0.4358663552404849 -0.29988693310358805 -9.693053598540548 8 0 1
4765 1505 4 0 -1.908477440512259 -13.274458576422965 -8.174459025903875 1 0 0
2417 723 2 0 -5.266635080639002 -12.571973465143355 -8.504330642383316 11 1 0
2419 723 4 0 -4.954587815364478 -12.793104021919875 -8.299944134195272 11 1 0
4763 1505 2 0 -1.7017808116579403 -12.99017123842636 -8.449245856847286 1 0 0
4764 1505 4 0 -1.4897972013548912 -12.710441438033373 -8.725234693880523 1 0 0
2418 723 4 0 -5.6042064814635655 -12.333221515128384 -8.724525120125298 11 1 0
876 209 4 0 -13.742306511142996 -10.106989937073187 -8.556961158830074 2 0 0
906 219 4 0 -13.5137934469385 -9.78795732123134 -8.39363876772779 2 0 0
875 209 2 0 -14.049274963455877 -10.392437451390144 -8.692950711522945 2 0 0
905 219 2 0 -13.706311057693991 -9.56211638736958 -8.0154001766379 2 0 0
2580 777 4 0 -1.952550580928575 -9.036804099956946 -8.100963490699021 11 1 0
4625 1459 2 0 -4.666173242726618 -8.415900385897297 -8.599343981197103 4 0 0
4627 1459 4 0 -4.502916651435315 -8.048570478846203 -8.344170575845109 4 0 0
5398 1716 4 0 -2.930187599561684 -8.186782187977636 -8.287849262928189 4 0 1
4843 1531 4 0 -3.1626354856442074 -8.371592551784438 -8.01048408545982 4 0 0
5396 1716 2 0 -2.510897272382504 -8.032923804594493 -8.44496517080353 4 0 1
352 71 3 0 -4.269415042159899 -7.7541982060638865 -8.465179496720951 4 0 0
351 71 1 0 -4.051658171100772 -7.370184784055681 -8.592787824714522 4 0 0
355 71 3 0 -3.9443658351301636 -7.134258958299362 -8.229727120496076 4 0 0
353 71 3 0 -3.6702012131883137 -7.485122009854659 -8.821159558377115 4 0 0
5397 1716 4 0 -2.1045245979402516 -7.873735562806035 -8.600856337751361 4 0 1
806 186 2 0 -13.275697874564413 -5.6792581147023125 -8.060961579823722 5 0 0
808 186 4 0 -12.871790840181875 -5.593501334161539 -8.245939006048848 5 0 0
7465 2405 4 0 -12.479057258487437 -5.612067628589191 -8.28381305332472 6 0 1
7463 2405 2 0 -12.061473302873207 -5.513215359687557 -8.443963963267494 6 0 1
7464 2405 4 0 -11.624465789305017 -5.406185865187442 -8.600095387348338 6 0 1
1434 395 4 0 -0.02774280485594538 -6.144925009541774 -8.70152593855045 4 0 0
5468 1740 2 0 -10.796317513128633 -5.143449717625863 -8.722402543493752 6 0 1
5469 1740 4 0 -11.255057572350669 -5.259644233781181 -8.673701917614977 6 0 1
4264 1338 4 0 -9.937510242865663 -4.9450040189768885 -8.750340775894239 6 0 0
5470 1740 4 0 -10.342508007237102 -5.0301387911163715 -8.766161895454259 6 0 1
1154 302 2 0 -6.327512878091309 -3.1698060565928365 -8.748177409083558 5 0 0
1156 302 4 0 -5.922225553550744 -3.223029017416021 -8.504241076634042 5 0 0
789 180 4 0 -13.565115365514277 -2.2706342836416553 -8.105851845542688 7 0 0
1231 327 4 0 -13.9390450187153 -2.1757262231261727 -8.016344040378375 6 0 0
788 180 2 0 -13.096544548002365 -2.2507720055444214 -8.020998583651764 7 0 0
978 243 4 0 -12.21490883218087 -2.196247138859208 -7.99104927126638 7 0 0
1367 373 2 0 -9.59789743200836 -2.2104754846395647 -8.80250483824274 7 0 0
1369 373 4 0 -9.293607664997294 -2.0127499723564366 -8.480938455382802 7 0 0
77 16 3 0 -9.427884035002837 -1.8526248067067304 -8.112294244670322 7 0 0
502 101 3 0 -3.897628954771003 -2.258975250730394 -8.065457650123273 8 0 0
501 101 1 0 -3.6862105551125435 -1.9787797632438426 -8.283512723523764 8 0 0