LAMMPS data file via write_data, version 4 Feb 2025, timestep = 1000000, units = lj

1550 atoms
4 atom types
1050 bonds
1 bond types
625 angles
2 angle types

-8.262893 8.262893 xlo xhi
-8.262893 8.262893 ylo yhi
-8.262893 8.262893 zlo zhi
7.105427357601002e-15 0 0 xy xz yz

Masses

1 1
2 1
3 0.1
4 0.1

Bond Coeffs # harmonic/omp

1 100 0.45

Angle Coeffs # harmonic/omp

1 100 180
2 100 109.471

Atoms # full

379 110 4 0 -4.388890894807865 -7.27232586888982 -8.173467375506807 3 0 1
907 286 4 0 -7.519141136937262 -5.690572963463686 -7.4999747643809895 3 0 0
290 80 4 0 -0.14367199230827232 -6.181685260743385 -7.966049593025856 3 0 0
896 282 4 0 -0.11794926306412634 -6.179126602490204 -7.5650520115849 2 0 0
906 286 2 0 -7.440394285026619 -5.32348264938681 -7.799445733334532 3 0 0
908 286 4 0 -7.364721282414595 -4.978819067261213 -8.090089379021029 3 0 0
1186 379 4 0 -2.8362170377895124 -4.8545537284207505 -8.23345239822487 4 0 0
1248 400 2 0 -1.2715895548149074 -5.338900829625831 -8.247938824878043 7 1 0
1249 400 4 0 -1.7230545806224864 -5.371125024063818 -8.239771831205566 7 1 0
733 228 4 0 -0.5167872768992252 -5.017231167182245 -8.224431572166603 7 1 0
732 228 2 0 -0.12869233021775983 -4.921281274488862 -8.015466246704626 7 1 0
1250 400 4 0 -0.805195509769213 -5.297106514241702 -8.261640847829328 7 1 0
117 24 3 0 -7.546726365198632 -4.084049712382528 -7.7605656166022206 4 0 1
986 312 4 0 -7.715853821844435 -4.262508271986732 -7.447859321911414 4 0 0
984 312 2 0 -8.087491050894453 -4.443147385033699 -7.603424005836603 4 0 0
119 24 3 0 -6.856991173267657 -3.864395181435544 -8.035013246911953 4 0 1
608 186 4 0 -6.535488454052432 -4.069593636301602 -7.962685672636352 3 0 1
116 24 1 0 -7.198326063722461 -3.740902669092808 -7.743762171572812 4 0 1
606 186 2 0 -6.151347633805932 -4.050302794179228 -8.203809738208784 3 0 1
120 24 3 0 -7.396853118509544 -3.3248024087923644 -7.878752641456395 4 0 1
1508 486 4 0 -7.305041269667411 -2.9413938260503354 -8.062186566992395 4 0 0
1045 332 4 0 -6.838323023343984 -0.6089921858398268 -7.667288603699498 4 0 0
82 17 3 0 -6.779901421392462 -0.7940340397265544 -8.03331212182751 4 0 1
84 17 3 0 -6.1299642042380675 -0.5666830169442783 -8.261834551514546 4 0 1
1040 330 4 0 -0.17909949546558757 -0.06546067194964955 -7.495182550862507 4 0 1
1282 411 4 0 -4.356896700763844 -6.5227216975674995 -6.583861147246398 8 1 1
1501 484 4 0 -4.204532481639545 -6.906884639156686 -6.596738352843488 3 0 1
1268 406 4 0 -7.281772760773668 -5.620038815611915 -7.188445374082727 9 1 0
1266 406 2 0 -7.060310024615987 -5.530726995633836 -6.773283635676525 9 1 0
1281 411 2 0 -4.197395866422651 -6.184516833545652 -6.8274678249562335 8 1 1
1283 411 4 0 -4.034697370469816 -5.842650566815067 -7.0771720424084075 8 1 1
118 24 3 0 -7.033348757583584 -3.7060102478050583 -7.324847741652133 4 0 1
145 32 4 0 -7.550180636325362 -2.7626293722279263 -6.6180474054615885 -2 -1 0
146 32 4 0 -7.0706997716916 -3.392181026847407 -7.035029863886102 -2 -1 0
144 32 2 0 -7.308917663113312 -3.0762845677229684 -6.824521147392418 -2 -1 0
616 189 4 0 -3.584267805703056 -1.93305801325028 -7.178315313927908 6 0 0
615 189 2 0 -3.690186426378463 -1.5309200839590735 -6.995277621929279 6 0 0
617 189 4 0 -3.8090779827141272 -1.1088238421888512 -6.79868609484275 6 0 0
1044 332 2 0 -7.0411450684586425 -0.6745464455046912 -7.276024717204522 4 0 0
1046 332 4 0 -7.254190266708049 -0.7474775996944398 -6.86306052352117 4 0 0
773 241 4 0 -7.300515579968002 -0.6082379159006059 -6.486053195097372 9 1 0
361 104 4 0 -4.035541016191905 -0.7757908288314743 -6.798689229660851 1 -1 0
360 104 2 0 -4.361173471155505 -0.5845810594869594 -6.592629235122629 1 -1 0
880 277 4 0 -2.192091488681232 -0.10124405348551946 -6.734336114457245 6 0 0
1358 436 4 0 -1.1076291696388303 -0.4373406971262712 -6.672624920031456 4 0 1
1357 436 4 0 -0.5305468288130584 -0.16870767859588476 -7.341273158729416 4 0 1
1356 436 2 0 -0.8095195060922409 -0.2997957230455075 -7.011932364599535 4 0 1
1417 456 4 0 -3.997048888724037 -7.929552826867157 -5.933466271257995 3 0 1
1502 484 4 0 -3.998429904811899 -7.544686478252222 -6.056946482283513 3 0 1
882 278 2 0 -1.3512804995367915 -7.577308101391193 -5.6304833265992364 3 0 0
883 278 4 0 -1.0697261401421745 -7.854168549160764 -5.869909287952293 3 0 0
1450 467 4 0 -0.8516917512581932 -8.166187098287994 -6.008870971090388 7 1 0
1500 484 2 0 -4.106476105466692 -7.213709814079936 -6.338950830918065 3 0 1
796 249 4 0 -0.11232291553477047 -5.723584420759759 -6.063965672676856 5 0 0
1267 406 4 0 -6.856791552486867 -5.431317918470141 -6.3580664344960365 9 1 0
147 33 2 0 -0.4132154985796701 -4.991655617694987 -5.908785308193529 3 0 -1
149 33 4 0 -0.37312367467161156 -5.430685347070425 -5.958873995852669 3 0 -1
148 33 4 0 -0.4438713994729584 -4.545788936971808 -5.8554947329905636 3 0 -1
519 157 2 0 -0.17962392098322155 -3.8926579481044348 -5.536939975751854 3 0 0
521 157 4 0 -0.3054853342466597 -4.165813268645798 -5.852408002990881 3 0 0
365 105 4 0 -7.581656230537478 -2.4550066012742295 -6.368989458953488 3 0 1
363 105 2 0 -7.5590694765004836 -2.044651851148325 -6.160589839342354 3 0 1
371 107 4 0 -5.974417441229092 -2.138738346091822 -6.201270372456077 3 0 1
369 107 2 0 -6.029208835009 -1.9065634112571885 -5.8054742321808686 3 0 1
364 105 4 0 -7.538479594778922 -1.6530410300766576 -5.962037323804417 3 0 1
772 241 4 0 -7.492583047572645 -1.2420067256244751 -5.924748447319786 9 1 0
771 241 2 0 -7.391106283463603 -0.913227499897082 -6.225592148949682 9 1 0
362 104 4 0 -4.700499219470844 -0.37153367259687364 -6.368874636343092 1 -1 0
1052 334 4 0 -4.6515232501887755 -0.32605323802211306 -5.979583005680069 8 0 0
1050 334 2 0 -4.492276378957525 -0.24480698282480517 -5.578856059848485 8 0 0
20 4 3 0 -1.2746369688291619 -0.18125357070297987 -6.38090930574083 0 -1 0
1130 360 4 0 -1.6183195580671779 -6.878165594282496 -5.349011500864207 2 0 0
884 278 4 0 -1.6393037480104917 -7.282210748446152 -5.380046422264714 3 0 0
1128 360 2 0 -1.5732468958719181 -6.452711746246163 -5.214106327416154 2 0 0
1129 360 4 0 -1.5356097997057052 -6.029846532528708 -5.085381722938795 2 0 0
496 149 4 0 -1.7725350289431416 -5.759221902717293 -4.939568025612253 8 1 0
495 149 2 0 -1.5007115602151675 -5.408727312442615 -4.807894228579396 8 1 0
497 149 4 0 -1.2341496924427249 -5.075407009540708 -4.6872827904701655 8 1 0
520 157 4 0 -0.03132339073195567 -3.5870398039995486 -5.181855553618361 3 0 0
1116 356 2 0 -6.475775380157397 -1.1214776573170795 -4.9922449544841685 4 0 1
370 107 4 0 -6.09083379189177 -1.667730917494409 -5.429396686739768 3 0 1
1118 356 4 0 -6.161402599935791 -1.4218495802754294 -5.1175327974624185 4 0 1
156 36 2 0 -0.8497507634216666 -1.1204604285444697 -4.676146910448554 -1 -1 0
1117 356 4 0 -6.80858389184138 -0.8079628559097536 -4.873816675294931 4 0 1
1201 384 4 0 -7.203153571567037 -0.7540410090179819 -4.788896032225107 5 0 0
1025 325 4 0 -4.519018951526675 -0.10588959080079796 -4.8454272014858635 8 0 0
1051 334 4 0 -4.325700179482144 -0.1696564718794722 -5.162826749259392 8 0 0
157 36 4 0 -1.011924707829304 -0.7306585677799191 -4.799294937686985 -1 -1 0
216 56 2 0 -5.580472446686116 -8.257763291166153 -3.951271441592934 3 0 0
218 56 4 0 -5.811801077218252 -7.962927599494942 -3.705226972958944 3 0 0
1325 425 4 0 -6.297749384053404 -6.682061125267327 -3.7781960280319993 8 1 0
1323 425 2 0 -6.606593268991794 -6.349373319646591 -3.887272599312878 8 1 0
1324 425 4 0 -6.884277184569527 -6.042736350999064 -3.9895153677950566 8 1 0
352 101 4 0 -1.04409816627199 -5.083423021291885 -4.342203446960088 8 1 1
351 101 2 0 -0.7389091699767851 -4.9541743772675195 -4.045105140420656 8 1 1
353 101 4 0 -0.42579493584316364 -4.8176211429296085 -3.747577812792322 8 1 1
600 184 2 0 -1.1312805804463322 -2.0412651055666853 -4.003259846821877 9 1 0
602 184 4 0 -1.414338356217276 -2.26568201407167 -3.7364811113991943 9 1 0
601 184 4 0 -0.8336897227990612 -1.8116462584360278 -4.281640427510833 9 1 0
158 36 4 0 -0.6691935152356745 -1.5475483752645358 -4.535486584774307 -1 -1 0
1202 384 4 0 -7.663429641510265 -0.24506044662324378 -4.2150354912562555 5 0 0
1200 384 2 0 -7.437417697911309 -0.5015251933950289 -4.5020686157620124 5 0 0
337 96 4 0 -4.739040193543982 -0.12745168305053767 -3.6777945032855097 7 0 0
844 265 4 0 -2.079325067857126 -0.4297362391848152 -3.7666588131681706 4 0 0
746 232 4 0 -1.7438514533799347 -0.21787473575790273 -3.8621540942005606 9 1 1
744 232 2 0 -1.4700222667529843 -0.3735139872982831 -4.140946616468252 9 1 1
745 232 4 0 -1.1652736231591136 -0.543068212174048 -4.446637428264534 9 1 1
1534 495 4 0 -5.684350953756507 -7.65492276300899 -3.439333418667802 8 1 0
1533 495 2 0 -5.956749355360718 -7.292153973914042 -3.4372386298335096 8 1 0
1535 495 4 0 -6.237125022153343 -6.927843191147377 -3.4403064764682814 8 1 0
1049 333 4 0 -0.15238158473478336 -4.607419191388796 -3.505137027146013 2 0 0
1133 361 4 0 -6.038194371364767 -2.9517388466954735 -3.490525290010355 1 -1 1
1131 361 2 0 -6.041495694154101 -2.5469092686507846 -3.297679543144441 1 -1 1
1132 361 4 0 -6.045078286720669 -2.1462359566291287 -3.109214747197953 1 -1 1
339 97 2 0 -4.142555944581769 -2.1779949341345475 -2.8482176292259123 -2 -1 0
341 97 4 0 -3.7498349691502835 -2.303545383112775 -3.06323672072085 -2 -1 0
556 169 4 0 -3.4662422683689798 -2.016214989563183 -3.0916064813013993 7 1 0
555 169 2 0 -3.1153028407263594 -2.1236183143755003 -3.330748211391546 7 1 0
557 169 4 0 -2.748964527824361 -2.240432036858909 -3.5714977730787183 7 1 0
1165 372 4 0 -2.440971193056244 -2.2963624361369863 -3.3480883586900863 3 0 0
1164 372 2 0 -2.0380086778122957 -2.4155946013370553 -3.4609643552600042 3 0 0
1166 372 4 0 -1.6402168380273316 -2.540580085290843 -3.567238333432676 3 0 0
871 274 4 0 -6.1820690973105545 -1.77294415206266 -2.949387793665113 1 -1 0
845 265 4 0 -2.356859773445544 -0.4821687683751783 -2.911276716290244 4 0 0
843 265 2 0 -2.224246286026009 -0.4613817682015222 -3.33850107906812 4 0 0
652 201 4 0 -2.680206513888547 -0.2945868634971154 -2.87848119857402 10 1 0
536 162 4 0 -4.782407483767864 -2.156521715142695 -2.362206717353361 3 0 1
534 162 2 0 -4.77526373343208 -1.9852596852728537 -1.9388521447119897 3 0 1
340 97 4 0 -4.513859527776916 -2.0540541395415293 -2.6511195267241803 -2 -1 0
870 274 2 0 -5.935993052915735 -1.5310082010612511 -2.668287363680901 1 -1 0
178 43 4 0 -5.682515412093625 -1.0370891441175871 -2.051620228263837 4 0 0
872 274 4 0 -5.690963330310979 -1.2678996599871253 -2.3778503674430382 1 -1 0
177 43 2 0 -5.324737684579462 -0.7679283313933887 -2.165731411436311 4 0 0
179 43 4 0 -4.96418184340227 -0.5017723471913671 -2.2749439475584516 4 0 0
470 140 4 0 -4.606977238531748 -0.6569698141208438 -2.2883072283927905 4 0 0
468 140 2 0 -4.187727501949466 -0.5983962726598548 -2.4316546386584648 4 0 0
469 140 4 0 -3.756233397109214 -0.5433541516804246 -2.59021158660169 4 0 0
651 201 2 0 -3.0542684910505846 -0.411299623862007 -2.6272578784592024 10 1 0
653 201 4 0 -3.4114452268395477 -0.5127698698739884 -2.394906775995972 10 1 0
783 245 2 0 -1.0155605844931133 -6.804783469960677 -1.5144483548957712 7 1 0
785 245 4 0 -1.2980886175864432 -6.536484740834158 -1.2769928653894773 7 1 0
784 245 4 0 -0.7603422548536312 -7.04907213390325 -1.7282319804736428 7 1 0
7 2 3 0 -1.9245434352403308 -5.752647021373589 -0.9410635255159097 2 0 0
8 2 3 0 -1.9512439930280179 -5.761453580902059 -1.692773587940418 2 0 0
6 2 1 0 -1.7023008470609744 -5.860546307147365 -1.3044492235386587 2 0 0
10 2 3 0 -1.6142547924663573 -6.291472711528078 -1.2894600992252618 2 0 0
9 2 3 0 -1.316926518018012 -5.6488805768144585 -1.3197892032850511 2 0 0
1327 426 4 0 -1.0945060009412604 -5.391550461881885 -1.1245256123978562 8 1 0
535 162 4 0 -4.7696722858252 -1.8214782120178254 -1.5193251113751618 3 0 1
1546 499 4 0 -4.746031584489723 -1.4840200546265452 -1.3196095602066018 8 1 0
1545 499 2 0 -4.451330291052333 -1.5664814484637022 -0.9693683378779729 8 1 0
1084 345 4 0 -4.096189496650027 -0.14542616166753142 -1.303074254799096 2 -1 0
1329 427 2 0 -8.191332904137198 -7.378469524874636 -0.4634779241636 7 1 0
1331 427 4 0 -7.960993746692485 -7.669524217642654 -0.16898083237744999 7 1 0
824 258 4 0 -4.995274229588121 -7.604054989393116 -0.4816490934465092 8 1 0
674 208 4 0 -3.9247432536294733 -8.022319241254008 -0.4976591120195968 12 2 0
822 258 2 0 -4.5662169819259475 -7.668821312993558 -0.39893450966425537 8 1 0
823 258 4 0 -4.123760195823979 -7.725372622671338 -0.30938945792801853 8 1 0
24 5 3 0 -2.817268945090513 -8.065946848837811 -0.11128924462024159 8 1 0
672 208 2 0 -3.4663555726455106 -8.107010690063618 -0.46975756668226865 12 2 0
673 208 4 0 -3.0488999600985602 -8.188158937409174 -0.43590325677844444 12 2 0
25 5 3 0 -2.0658104181135384 -8.107695670060178 -0.16727516827149636 8 1 0
1536 496 2 0 -1.8422943002849017 -8.222326092277605 -0.8764105865631411 8 1 1
1537 496 4 0 -1.803166892913425 -8.133315261836904 -0.4532805818119128 8 1 1
248 66 4 0 -1.9190180972683502 -5.647004527694858 -0.5596798670650704 -3 -1 -1
246 66 2 0 -1.7533933280078768 -5.5835013889886005 -0.17731129320293704 -3 -1 -1
878 276 4 0 -0.2608247320450978 -5.5439965316709925 -0.18023496664605965 3 0 0
1326 426 2 0 -0.7487473876822852 -5.379969458178824 -0.8238881001524012 8 1 0
1328 426 4 0 -0.41656585715471284 -5.358841168624522 -0.522292550724357 8 1 0
1462 471 4 0 -4.061502924689901 -1.305434040845034 -0.49433432244583564 3 0 1
1461 471 2 0 -3.7883142984043587 -0.9641115134819422 -0.3512062614964506 3 0 1
1547 499 4 0 -4.178295591662001 -1.647926737624962 -0.6444206647447412 8 1 0
1253 401 4 0 -0.38509986055646017 -1.5828186776748403 -0.1369173526682559 4 0 0
962 304 4 0 -3.292278582739687 -0.2663459473059717 -0.121127593031078 9 1 -1
1463 471 4 0 -3.500694615579823 -0.6083536434544312 -0.20488916547568792 3 0 1
1419 457 2 0 -7.4062223251226245 -7.808731330006301 0.33340750403955255 8 1 0
1421 457 4 0 -7.834565827288547 -7.76083593420813 0.2352235663259492 8 1 0
1420 457 4 0 -6.962934137822472 -7.843998442434555 0.4389805787120551 8 1 0
1498 483 4 0 -6.5266294887206255 -7.986418641906912 0.3687808006817601 7 1 0
22 5 3 0 -2.3972582538202776 -8.104351294481653 0.5145497490684523 8 1 0
21 5 1 0 -2.428633381742298 -8.248650505946589 0.0803654391546118 8 1 0
834 262 2 0 -0.2492525139571402 -6.521920244941654 0.8221556187723937 2 0 0
264 72 2 0 -0.9048517589295377 -5.6576104845364386 0.6688764811314858 2 0 0
266 72 4 0 -0.5781732713919885 -5.830151253627488 0.8763658222524793 2 0 0
835 262 4 0 -0.5923694832197608 -6.228152583776996 0.8244209167790117 2 0 0
247 66 4 0 -1.559359637940081 -5.508155653737817 0.2648214190617608 -3 -1 -1
265 72 4 0 -1.2267516348706886 -5.487564621150611 0.46045511729537836 2 0 0
1371 441 2 0 -7.570109897276459 -3.0497040842493544 0.15614616393660796 3 0 0
1373 441 4 0 -7.982134372934976 -2.8536365175017018 0.055381517779913736 3 0 0
842 264 4 0 -6.803723502006691 -3.247446159565106 0.1144077651072255 3 0 0
1372 441 4 0 -7.180055344239241 -3.231692672598462 0.24968393714145698 3 0 0
841 264 4 0 -5.9720720828501594 -2.974605207030404 0.20674801327140102 3 0 0
840 264 2 0 -6.397212595108197 -3.110712112415518 0.16064102061955587 3 0 0
1251 401 2 0 -0.28097482911600213 -1.8897960292241383 0.15937478301238528 4 0 0
1252 401 4 0 -0.15713629219061964 -2.2002066190853906 0.453087902244798 4 0 0
1447 466 4 0 -4.901292335590572 -3.772254274714843 2.7365303556710536 8 1 0
1446 466 2 0 -4.536603720021242 -3.906081680655264 2.484707471357405 8 1 0
1448 466 4 0 -4.149071786041488 -4.048695683859814 2.215317661243315 8 1 0
286 79 4 0 -3.8316817373220395 -4.14343860733561 2.470798333918962 2 0 -1
285 79 2 0 -3.4588055176117107 -3.933794435279097 2.4723706956692784 2 0 -1
287 79 4 0 -3.0340624226501562 -3.7107394052190976 2.488520725357276 2 0 -1
833 261 4 0 -2.7133661895763845 -3.5639610989951205 2.608435293577598 7 1 -1
1063 338 4 0 -5.652845200814575 -3.132656902183932 3.2147715670121126 8 1 0
1222 391 4 0 -5.987319360015299 -3.0263751683373243 3.411968516401201 3 0 0
1064 338 4 0 -4.880116419196028 -3.3834036068112887 2.8469585176988144 8 1 0
1062 338 2 0 -5.253255671510367 -3.2604792530676274 3.026234106230591 8 1 0
831 261 2 0 -2.3603320199254725 -3.5758870307692696 2.886297853808154 7 1 -1
832 261 4 0 -2.0017601930972537 -3.5901718655445976 3.165645136134957 7 1 -1
15 3 3 0 -1.71251695761618 -3.4584618726646115 3.395506621632917 2 0 -1
11 3 1 0 -1.7021764163226631 -3.021145784832493 3.5138616207348807 2 0 -1
12 3 3 0 -1.7865993456375273 -2.7747605903451724 3.1581034355697923 2 0 -1
13 3 3 0 -1.289491482774257 -2.9185079151235866 3.6672715501362116 2 0 -1
356 102 4 0 -1.8491944745605595 -2.3907424429205566 3.1102051312491117 2 0 0
354 102 2 0 -2.0948727746072313 -2.0230183406582123 3.2942579697880188 2 0 0
77 16 3 0 -0.11141739064125034 -1.8987030645649137 3.546231946081642 3 0 0
355 102 4 0 -2.328288953552466 -1.6576998272453132 3.4757810589893143 2 0 0
194 48 4 0 -6.7013050235731315 -7.868412592908743 4.312973948426675 2 0 -1
192 48 2 0 -6.556744863749908 -7.452747469225988 4.412354243738019 2 0 -1
457 136 4 0 -5.269208383813697 -8.055576705229537 4.311038397984563 2 0 1
1231 394 4 0 -5.229477015592609 -7.7002326547931705 4.481976941804442 2 0 0
193 48 4 0 -6.418097363273813 -7.053823917078033 4.507281166983772 2 0 -1
107 22 3 0 -6.496467886621849 -5.51395561286571 4.495793911917644 8 1 0
110 22 3 0 -6.214662305808206 -4.80795829821145 4.430070278292684 8 1 0
1226 392 4 0 -6.230363935259884 -4.40180776122058 4.513183142863944 3 0 0
1224 392 2 0 -5.832849170133913 -4.208917531036687 4.4487454501778885 3 0 0
1225 392 4 0 -5.439093651892458 -3.9993665178872844 4.389397327136853 3 0 0
532 161 4 0 -5.234492595230252 -3.6905022125308378 4.544983527064682 7 1 -1
610 187 4 0 -6.5220661533443804 -2.9940855996352234 4.452103714358961 3 0 -1
1223 391 4 0 -6.606080096736385 -3.0345147451731584 4.0541652440213785 3 0 0
1221 391 2 0 -6.298738226505516 -3.028395334614025 3.736916332523526 3 0 0
531 161 2 0 -5.183686520769557 -3.3127121603269405 4.380985478532461 7 1 -1
533 161 4 0 -5.122020921769403 -2.9105217304720234 4.202756163981407 7 1 -1
703 218 4 0 -3.1085983532501427 -3.0512698368341296 4.360813909606033 7 1 -1
235 62 4 0 -3.3109053549656986 -3.342461388935602 4.550489309635244 3 0 -1
702 218 2 0 -2.6839580268288676 -3.0688226188789898 4.248785083783057 7 1 -1
704 218 4 0 -2.256553804508771 -3.100771229570932 4.150946348932111 7 1 -1
14 3 3 0 -2.016538669625409 -2.9446813464366057 3.8408295466217073 2 0 -1
1274 408 4 0 -1.0181254505940256 -2.633358600743474 3.7500014595387103 3 0 0
1273 408 4 0 -0.42788355791937516 -1.9422451119386128 3.786919262697884 3 0 0
1272 408 2 0 -0.719306772541664 -2.2922813646575833 3.7664753220983247 3 0 0
284 78 4 0 -5.376126283009391 -0.9253494238816096 4.175864230252019 5 0 1
630 194 2 0 -2.7590222831125715 -1.5961035869954339 4.19376987857264 3 0 0
631 194 4 0 -2.5810507517861403 -1.7237106207894346 3.793534128512773 3 0 0
283 78 4 0 -5.73135073831868 -0.07482352341860299 4.051917550029549 5 0 1
282 78 2 0 -5.552994191828576 -0.514526875723087 4.110384503494892 5 0 1
1230 394 2 0 -4.99978202621862 -7.357111232491053 4.688525127491074 2 0 0
331 94 4 0 -6.389132464309892 -6.698805370345316 4.70256997578406 8 1 0
1232 394 4 0 -4.772150530200426 -7.008234945919353 4.893703036759357 2 0 0
1148 366 4 0 -4.577122709590913 -6.810107795575121 5.155954768940559 2 0 1
1146 366 2 0 -4.2772190514765125 -6.525751247289742 5.163459706810652 2 0 1
332 94 4 0 -6.681281848046759 -5.861172947704869 4.638872280251819 8 1 0
330 94 2 0 -6.535919552506376 -6.2715164465945445 4.670678181595518 8 1 0
307 86 4 0 -3.7110278757414275 -5.857279047886639 5.152015356782645 1 0 0
1147 366 4 0 -3.9407921234915486 -6.200051183676149 5.163274774542698 2 0 1
306 86 2 0 -3.306235032821051 -5.686005619323037 5.144506666733644 1 0 0
904 285 4 0 -2.4832846237680846 -5.569298743394464 5.182861487176083 1 0 0
436 129 4 0 -0.02808947843907461 -5.866787613420391 5.434753759989961 2 0 0
727 226 4 0 -8.02007907425252 -5.185812535328234 4.937670330103517 8 1 0
726 226 2 0 -7.574365241130362 -5.1435972349008825 4.821587063645767 8 1 0
108 22 3 0 -6.8120842456545825 -4.955660005216009 4.866013907414279 8 1 0
728 226 4 0 -7.135829406632213 -5.092056010922311 4.7066545796380606 8 1 0
106 22 1 0 -6.4212106873514845 -5.118558924076463 4.720246497505025 8 1 0
109 22 3 0 -6.141471100021036 -5.193662282533687 5.084816989313202 8 1 0
1408 453 4 0 -5.756917528615453 -5.242538433852456 5.139913752322682 9 1 0
1407 453 2 0 -5.386012349387384 -5.028303784758921 5.257062375454058 9 1 0
1409 453 4 0 -4.992859535048566 -4.787751161748249 5.362426971236662 9 1 0
440 130 4 0 -4.579594881341904 -4.812957506994604 5.292070208410792 2 0 0
308 86 4 0 -2.8652675347978684 -5.4935285919545676 5.1376040001553935 1 0 0
903 285 2 0 -2.096244442284415 -5.376157168498178 5.007410858335723 1 0 0
905 285 4 0 -1.720600719850908 -5.195804538996069 4.834612407535211 1 0 0
305 85 4 0 -1.4427138426261523 -5.200407550701824 5.125210760917625 1 0 0
303 85 2 0 -1.1708075117795547 -4.871869637372805 5.264257930801728 1 0 0
438 130 2 0 -4.27686649832863 -4.469598634226397 5.288767870578049 2 0 0
439 130 4 0 -3.9840120277065845 -4.137553862497918 5.292814332552421 2 0 0
236 62 4 0 -3.923817314278452 -3.763258909637388 5.135700485439244 3 0 -1
304 85 4 0 -0.8968287771933445 -4.548374414001424 5.407516824596614 1 0 0
1398 450 2 0 -0.40033843918865397 -4.00800644520618 5.431884283064614 8 1 -1
1400 450 4 0 -0.05823857807549082 -3.7215048481049973 5.210465621443703 8 1 -1
609 187 2 0 -6.791204961077587 -3.107793914745252 4.794155136989946 3 0 -1
611 187 4 0 -7.075713577303873 -3.23046551063824 5.1590280733568346 3 0 -1
829 260 4 0 -6.886886100795582 -3.406523360183593 5.480332769684612 3 0 0
234 62 2 0 -3.62599588068335 -3.55260401185872 4.842190789363931 3 0 -1
1436 462 4 0 -6.393446380268335 -2.2101461593044736 5.412555548830875 -1 -1 0
1434 462 2 0 -6.002388742115686 -2.0161815588754806 5.3684182738931465 -1 -1 0
1435 462 4 0 -5.594064978559562 -1.8144023866542431 5.32361141233566 -1 -1 0
867 273 2 0 -4.90586268689108 -1.3849859504764686 5.2687633388038915 0 -1 0
868 273 4 0 -5.296413055015572 -1.5381423559580671 5.372125705848132 0 -1 0
869 273 4 0 -4.496946051330413 -1.212111181751542 5.173137779316688 0 -1 0
813 255 2 0 -3.6983160039974567 -1.3856106374884503 4.945179766561882 9 1 0
815 255 4 0 -4.1043967681075815 -1.3750084046795141 5.085732394030707 9 1 0
814 255 4 0 -3.2764333704753694 -1.3882398531540536 4.802822954765292 9 1 0
632 194 4 0 -2.9416485596332516 -1.4649391537765997 4.594026234035814 3 0 0
1414 455 4 0 -0.2106011487467203 -5.664176040340039 5.722528126244596 7 1 -1
1413 455 2 0 -0.4944430242175395 -5.790215152407121 6.045876455747125 7 1 -1
1415 455 4 0 -0.7825673431665763 -5.923634038787433 6.372556434347585 7 1 -1
830 260 4 0 -7.390965148241776 -4.098108570342598 5.873968918591185 3 0 0
317 89 4 0 -7.418120040091313 -4.403085922958652 6.183847855290653 -2 -1 0
828 260 2 0 -7.139943556640976 -3.763365528182371 5.6822328253986445 3 0 0
1399 450 4 0 -0.7072694071399628 -4.26978418829532 5.628982665009694 8 1 -1
645 199 2 0 -8.189415467990438 -2.5826037070712706 5.685089460626294 8 1 0
646 199 4 0 -7.755878352568503 -2.507471688085788 5.70689686741094 8 1 0
971 307 4 0 -7.642671482877397 -2.178693597054828 5.513936752177541 4 0 -1
969 307 2 0 -7.180911059420062 -2.233715737826568 5.553991343116218 4 0 -1
970 307 4 0 -6.740020600975839 -2.285878355267636 5.601536594061013 4 0 -1
899 283 4 0 -6.766685762701718 -8.117162638361247 6.8056468615311285 2 0 -2
897 283 2 0 -6.340993740163597 -7.97767139380282 6.797320669939021 2 0 -2
898 283 4 0 -5.907223577695793 -7.828510728868905 6.801724560864557 2 0 -2
433 128 4 0 -0.6517544960296888 -6.119707244334375 6.719808102684045 7 1 -1
432 128 2 0 -0.5947555850090334 -6.37818251381759 7.0567098024313335 7 1 -1
1138 363 4 0 -7.880044148340122 -4.757144408787568 7.297510586484561 4 0 0
316 89 4 0 -7.8626254178356625 -4.700524687225227 6.881865659431343 -2 -1 0
315 89 2 0 -7.634415941577894 -4.553241214029026 6.5402783361363195 -2 -1 0
1332 428 2 0 -7.129103774492904 -0.15178463086371607 7.321403742503078 5 0 -1
380 110 4 0 -4.213600342849603 -8.113016644505846 8.025586611712553 3 0 0
378 110 2 0 -4.304872727265618 -7.694401551061611 8.18100624369025 3 0 0
289 80 4 0 -0.5883315535819316 -6.5069695492838076 7.795980333331142 3 0 -1
434 128 4 0 -0.5324389813550354 -6.659190938370769 7.418941463192047 7 1 -1
288 80 2 0 -0.3709151955276484 -6.349427708759218 8.169871264944119 3 0 -1
1139 363 4 0 -7.494580899954296 -4.88957707943929 8.096925698419389 4 0 0
1137 363 2 0 -7.69546934299152 -4.8243722196485965 7.69939129003958 4 0 0
1185 379 2 0 -2.467503608807834 -5.137101116695914 8.221476848386198 4 0 -1
1187 379 4 0 -2.1163887772914016 -5.412814741607611 8.150931440690462 4 0 -1
607 186 4 0 -5.776664533289676 -4.0286873085448365 8.076746061127976 3 0 0
430 127 4 0 -5.564882763697801 -3.702315213441228 7.930624370455428 3 0 1
396 116 2 0 -3.125739279868367 -4.203275130464433 7.866859025741176 -2 -1 1
397 116 4 0 -3.353438691762145 -3.8514180445292805 7.682307799134987 -2 -1 1
398 116 4 0 -2.9159088888059257 -4.544830316532844 8.024577212702836 -2 -1 1
1506 486 2 0 -7.648636785263341 -2.8286527934594856 8.147303040958866 4 0 -1
431 127 4 0 -4.781715098375958 -3.284802716371825 7.838650000924725 3 0 1
429 127 2 0 -5.175063821730742 -3.5020017824718295 7.886939316094425 3 0 1
553 168 4 0 -4.39556661875605 -3.2833846410556884 7.841834824954942 3 0 0
552 168 2 0 -3.984294408143384 -3.3970160499248587 7.735042207296505 3 0 0
554 168 4 0 -3.556544218666625 -3.5144669964592374 7.632415649896382 3 0 0
1507 486 4 0 -7.963592796377431 -2.7340143230762113 7.854608952462483 4 0 -1
1459 470 4 0 -6.590997870460713 -2.1964267670108724 7.354584321536629 4 0 0
85 17 3 0 -6.472729485856881 -1.1337177683228745 7.933053798229066 4 0 0
1458 470 2 0 -6.432934376818733 -1.8219867429450751 7.560012053385805 4 0 0
1460 470 4 0 -6.288808864582208 -1.464837839275332 7.759445474513482 4 0 0
1333 428 4 0 -6.825938919482711 -0.45388669722257724 7.4638454007255 5 0 -1
83 17 3 0 -6.7284095341319965 -0.44415586578191046 7.857905946942621 4 0 0
81 17 1 0 -6.5334827822173205 -0.7348171682766349 8.132893196313494 4 0 0
965 305 4 0 -5.754059622405831 -0.6023741933500846 8.131553334285696 0 -1 -1
963 305 2 0 -5.518495463520447 -0.1954977489203671 8.166602745083429 0 -1 -1
1095 349 2 0 -8.073704467587804 0.42426324300721063 -7.5568439316988885 6 0 0
1453 468 4 0 -7.448481941022323 0.6002173358494591 -7.395691381507669 10 1 1
888 280 2 0 -4.425622037484655 0.49395081682967046 -8.090220536605306 4 0 0
890 280 4 0 -4.190453938059112 0.17316185148315277 -7.821842035096152 4 0 0
578 176 4 0 -3.850124938386556 0.2753784711388949 -7.617724410476355 5 0 0
502 151 4 0 -5.58546943361114 1.0857113388734287 -7.626411086085609 10 1 1
5 1 3 0 -5.558319187257499 1.1641922615159999 -8.033194927018885 5 0 0
295 82 4 0 -0.09215369329110779 1.2485963933034974 -8.17966597942475 5 0 0
409 120 4 0 -4.931503950907075 4.352504708551459 -7.485779201633014 3 -1 0
661 204 4 0 -4.669329162057112 4.573320802267363 -7.692919333304544 3 -1 0
314 88 4 0 -1.3124992477900568 4.544046767610718 -7.446287560415728 7 0 0
660 204 2 0 -4.365246615070662 4.794780307279758 -7.936800621241333 3 -1 0
662 204 4 0 -4.068532220465454 5.017516766389324 -8.177419327886598 3 -1 0
312 88 2 0 -0.8783602704805729 4.634724780198129 -7.346082468498317 7 0 0
1217 389 4 0 -3.0541805643750113 5.694034422234095 -8.168863676513688 8 0 0
349 100 4 0 -2.7185389687756407 5.817830940695066 -7.996857677684476 7 0 0
348 100 2 0 -2.2867523389861466 5.7518352082093624 -8.09275178466568 7 0 0
350 100 4 0 -1.8745683160885545 5.680305613032518 -8.193369810953678 7 0 0
1393 448 4 0 -1.6364494632677555 5.936192599014516 -7.990871824212124 8 0 0
1392 448 2 0 -1.2464876821248865 5.778388265703347 -7.80228944370324 8 0 0
1394 448 4 0 -0.8396805092097956 5.617666720498841 -7.609581196671209 8 0 0
750 234 2 0 -1.238162987065409 8.117715685325871 -7.602497383164158 8 0 1
752 234 4 0 -0.9210246797711736 8.261380421224247 -7.9043970391491705 8 0 1
441 131 2 0 -0.1649506145987285 8.027026387961675 -8.140861289398092 8 0 1
443 131 4 0 -0.5245845705304069 8.246511153663084 -7.902352459903531 8 0 1
1096 349 4 0 -7.771745498492531 0.43457010391686346 -7.262132512871831 6 0 0
1452 468 2 0 -7.06222416809372 0.7708259900519003 -7.183809119467267 10 1 1
576 176 2 0 -3.534122993247019 0.2560684179589252 -7.311180160434025 5 0 0
577 176 4 0 -3.2090716823833434 0.23578596439464583 -7.007941060865864 5 0 0
881 277 4 0 -3.0055056069891553 0.24041617095230805 -6.661199728920356 6 0 0
18 4 3 0 -1.945221697296037 0.11590076919943648 -6.4845707271327955 0 -1 0
879 277 2 0 -2.609025772665011 0.07624594107651106 -6.6974068072173685 6 0 0
1016 322 4 0 -1.4673103420226559 0.8554391495124101 -6.782877927773181 0 -1 0
19 4 3 0 -1.3621206407850597 0.5523021980374718 -6.48858012082725 0 -1 0
1454 468 4 0 -6.686712106178367 0.9251583126677012 -6.969559028144765 10 1 1
501 151 2 0 -5.928236543057521 1.019522411031506 -7.3427428473662175 10 1 1
503 151 4 0 -6.292775594520074 0.9465562201401703 -7.033672672038692 10 1 1
1014 322 2 0 -1.1331405659188833 1.145259831796027 -6.782142755765961 0 -1 0
140 30 4 0 -0.9413469824008001 1.8069483823132284 -6.845144708363394 0 -1 0
1015 322 4 0 -0.7969934034409283 1.4331859554119415 -6.7735092937343495 0 -1 0
697 216 4 0 -8.217443263467977 1.9706975541424043 -7.1087854514649305 6 0 1
696 216 2 0 -7.880388818150116 2.282128789434889 -7.197871995485006 6 0 1
698 216 4 0 -7.541630457636764 2.5998813706927155 -7.285030146981411 6 0 1
953 301 4 0 -7.130489969687885 2.6687563792439235 -7.268931810597052 3 -1 0
139 30 4 0 -0.9673639131221856 2.6317206639573794 -6.491065929858301 0 -1 0
138 30 2 0 -0.9533620406624923 2.2283172427019426 -6.667374616478257 0 -1 0