LAMMPS data file via write_data, version 19 Nov 2024, timestep = 100000, units = lj

676 atoms
4 atom types
484 bonds
1 bond types
442 angles
2 angle types

-4.496439 4.496439 xlo xhi
-4.496439 4.496439 ylo yhi
-4.496439 4.496439 zlo zhi

Masses

1 1
2 1
3 0.1
4 0.1

Bond Coeffs # harmonic/omp

1 100 0.45

Angle Coeffs # harmonic/omp

1 100 180
2 100 109.471

Atoms # full

3 1 3 0 -3.20845446942469 -4.3141286947170325 -3.2878231663846966 0 0 0
2 1 3 0 -2.631603616833944 -3.897484973506448 -3.0802993045873013 0 0 0
305 69 2 0 -1.5205142280789552 -3.576962641132572 -3.590534548284415 0 0 0
307 69 4 0 -1.5673144324581718 -3.684271935449117 -4.009943564649673 0 0 0
325 75 4 0 -1.7778001989234475 -3.862097219183633 -4.311563490475552 0 0 1
306 69 4 0 -1.4678418003493259 -3.4626790858683285 -3.1321470918004075 0 0 0
323 75 2 0 -2.2017435618299896 -4.099177223635283 -4.340413654224538 0 0 1
262 54 4 0 -0.44229741583881865 -4.183426057263239 -3.3909301961624765 0 0 0
260 54 2 0 -0.6726323245743667 -4.462913115039846 -3.1658924609188683 0 0 0
390 97 4 0 -0.09081750647138885 -4.201520069039631 -3.603076861437257 0 1 0
449 117 2 0 -4.2491040908111195 -1.9323831385077697 -3.902574140540546 0 1 1
450 117 4 0 -4.36885152351004 -2.289637350674802 -3.693453614832701 0 1 1
284 62 2 0 -1.7500463846766798 -1.6438459235046723 -3.368946863174275 0 0 0
225 45 3 0 -1.0761478288618114 -1.5692924903470278 -4.439854625059238 0 0 1
273 58 4 0 -0.5979421579952962 -2.395520761302238 -3.604525296835961 0 0 0
13 3 3 0 -0.8698079399297791 -2.6146310843660254 -3.3581661397649785 0 0 0
272 58 2 0 -0.5045871159001666 -2.5576616374702876 -4.038764157485894 0 0 0
11 3 1 0 -1.18200741811447 -2.650951479717922 -3.0261370831062666 0 0 0
12 3 3 0 -1.5098172035854536 -2.3640741986056226 -3.0869239587753947 0 0 0
286 62 4 0 -1.5119135279368754 -2.0007624630753766 -3.24153868875552 0 0 0
25 5 3 0 -4.251278571852293 -1.2617356842404757 -4.376070044120262 0 0 0
257 53 2 0 -0.908662409473645 -1.0310635281581846 -1.218532633622651 0 0 0
269 57 2 0 -2.462260394338682 -4.495081720306879 -0.5134895804710025 0 0 0
451 117 4 0 -4.108983383783458 -1.5351057278143827 -4.125676970672323 0 1 1
7 2 3 0 -2.946336446576091 -0.8913183815824682 -3.4836979491675484 0 0 0
285 62 4 0 -1.96937153611726 -1.3008784875930108 -3.4923765924757055 0 0 0
9 2 3 0 -2.3175343825591894 -1.1824954477283147 -3.291370502681191 0 0 0
6 2 1 0 -2.61419112204906 -0.8872624452572865 -3.179340470926401 0 0 0
287 63 2 0 -1.5857193766839113 -0.3980888864238964 -3.2286239508485313 0 0 0
223 45 3 0 -1.297075723120932 -1.2806051382352817 -3.8118007326237073 0 0 1
200 40 3 0 -0.7614518341465449 -0.21752866758978573 -3.35314627784239 0 0 0
221 45 1 0 -1.1212729013980156 -1.1860121056753945 -4.184515745554267 0 0 1
222 45 3 0 -0.7263591459597076 -1.0114415111587192 -4.125954125692649 0 0 1
490 130 4 0 -0.41515228387597974 -1.265768045011698 -4.270924697019063 0 0 0
289 63 4 0 -1.1386986134204078 -0.30153883005985976 -3.2328801911266796 0 0 0
259 53 4 0 -1.0238995269654436 -0.621198145845435 -1.2603863189074047 0 0 0
196 40 1 0 -0.3960167751027892 -0.02974259230303794 -3.192486567047378 0 0 0
199 40 3 0 -0.15013923252089698 -0.35185284993033134 -2.9803443407788857 0 0 0
1 1 1 0 -2.964999076751872 -4.192721200262606 -2.9427049901821456 0 0 0
5 1 3 0 -3.2198964863952537 -4.0022588063577 -2.6550573358635754 0 0 0
303 68 4 0 -3.4436751255062656 -3.89766299701048 -2.3224352819644953 0 0 0
302 68 2 0 -3.6871182276720713 -3.8064732683135682 -1.9811656375239988 0 0 0
304 68 4 0 -3.956132896716347 -3.6963409879873645 -1.6109377976401056 0 0 0
528 143 4 0 -3.937326494931504 -3.4015354650445544 -1.329949970652918 1 0 0
20 4 3 0 -1.2175044447418721 -0.28748670309013985 -1.3687529590072272 0 0 0
378 93 4 0 -2.665194264704482 -3.5056543821329886 -3.0633960949351984 0 1 0
15 3 3 0 -1.3443134311567566 -3.075429446861983 -3.033088781486993 0 0 0
268 56 4 0 -3.1593990750426832 -2.172994630410471 -1.6440600932224863 0 0 0
267 56 4 0 -3.9244246249036254 -1.8021182253696337 -1.9566445245065804 0 0 0
266 56 2 0 -3.5381625779732437 -1.999567031878014 -1.7972505062849564 0 0 0
252 51 4 0 -4.174052299369286 -1.8016932823974883 -1.6496192416543267 0 0 0
377 93 2 0 -2.7038721934824648 -3.1110703440564187 -2.8819563558332613 0 1 0
379 93 4 0 -2.732002003622928 -2.684325621209868 -2.6832521347117773 0 1 0
281 61 2 0 -2.7632280896312142 -1.8711981613221402 -2.7367851411382773 0 0 0
282 61 4 0 -2.708028318024568 -2.2915793410606464 -2.7057430594486873 0 0 0
14 3 3 0 -0.9818089686209365 -2.560732406044407 -2.6275528025859844 0 0 0
298 66 4 0 -0.7990460767300612 -2.2668875359298957 -2.4610644766060457 0 0 0
296 66 2 0 -0.4979250053515311 -2.3346357148759154 -2.076850216017314 0 0 0
297 66 4 0 -0.21517914037648203 -2.40030848562424 -1.715709075245202 0 0 0
288 63 4 0 -2.024969782702652 -0.5007998543887126 -3.2201911176006734 0 0 0
283 61 4 0 -2.8369951069803956 -1.4260838697455422 -2.7772752748773835 0 0 0
10 2 3 0 -2.425906974145285 -0.4853559271210723 -3.170420570792159 0 0 0
8 2 3 0 -2.78929484734546 -1.0015468385632853 -2.76004747772936 0 0 0
527 143 2 0 -4.26526640226081 -3.435089454146862 -1.026088753712108 1 0 0
270 57 4 0 -2.062492545202317 -4.337091626264502 -0.3631748168986279 0 0 0
294 65 4 0 -2.5734422816744744 -0.951016674615365 -1.7373301169049504 0 0 0
293 65 2 0 -2.8209781272473546 -0.7897374119204474 -1.4160313261414144 0 0 0
263 55 2 0 -1.2092490605134076 -3.1170852497560535 -0.6244816801183092 0 0 0
65 13 3 0 -0.7675596239462338 -4.275802039686573 -0.2799033439568036 0 0 0
384 95 4 0 -0.16593350196509188 -3.970271820652746 -1.0483122414765829 0 1 0
61 13 1 0 -0.49675679462766514 -3.940068960822717 -0.3789457578146914 0 0 0
64 13 3 0 -0.17014886751966374 -4.0804526265633045 -0.6716334225450677 0 0 0
63 13 3 0 -0.726471125632755 -3.631102595071694 -0.5656937408003054 0 0 0
264 55 4 0 -1.122628135594051 -3.563746555351254 -0.6164566345914759 0 0 0
336 79 4 0 -3.482991755651909 -1.4788504239820817 -0.2580643032597911 0 0 0
335 79 2 0 -3.382652143040914 -1.1955625646914891 -0.5690845611289947 0 0 0
280 60 4 0 -3.230410309258944 -2.2302266346538047 -1.2356646033116294 0 0 0
265 55 4 0 -1.290631445663648 -2.6844320537499824 -0.6220741697804026 0 0 0
27 6 3 0 -1.6809766354536326 -2.5619367439031966 -0.6368365209371639 0 0 0
28 6 3 0 -2.343827400610878 -2.2337906885053265 -0.6495184569099036 0 0 0
279 60 4 0 -2.7041013181986178 -2.105907212696761 -0.4862233085348662 0 0 0
278 60 2 0 -2.9553699928247466 -2.1654440402330466 -0.8520070950213288 0 0 0
26 6 1 0 -2.0025082072670695 -2.3757570413577795 -0.3856964352950644 0 0 0
30 6 3 0 -1.8401402997387366 -2.0236810818447344 -0.14655424944415954 0 0 0
258 53 4 0 -0.7897116862862249 -1.4337695444795522 -1.1755945904316967 0 0 0
142 29 3 0 -0.1858624279748831 -2.381947809196935 -1.3188563782361817 0 0 0
141 29 1 0 -0.2936601427503983 -2.0101441298522356 -1.0566148575634786 0 0 0
544 148 4 0 -0.6963104955898858 -2.01483337164911 -0.4170604844723508 0 0 0
143 29 3 0 -0.4087015587020329 -2.136256590358811 -0.6401490074404733 0 0 0
145 29 3 0 -0.6579855570725288 -1.796081756243475 -1.2555922514491868 0 0 0
295 65 4 0 -3.0714996627723217 -0.6282827162328347 -1.0920840900094577 0 0 0
337 79 4 0 -3.2754321061618388 -0.9059756735871811 -0.8911749141138268 0 0 0
29 6 3 0 -2.1481023569154356 -2.65825794926818 -0.12043863361678252 0 0 0
542 148 2 0 -0.6466451569833905 -1.8119971415959633 -0.017927016998481385 0 0 0
324 75 4 0 -2.55811914210335 -4.306337313856991 -4.362850555472454 0 0 1
274 58 4 0 -0.42070529298731474 -2.714936707372081 -4.45574972581737 0 0 0
224 45 3 0 -1.3955739763064066 -0.87949290943703 -4.414449882298209 0 0 1
650 184 2 0 -4.17061035500785 -4.3054439245137575 0.2111853087933217 1 1 0
328 76 4 0 -1.1734350627427055 -3.613741267363211 1.0919025569371994 0 0 0
354 85 4 0 -1.1425071880187534 -3.2661689365345623 1.2822085174264573 0 0 0
312 71 4 0 -3.233082010176349 -1.9877012256078328 1.0659314207418793 0 0 0
47 10 3 0 -3.4365368541719916 -1.7915360054772163 0.7803867230684884 0 0 0
46 10 1 0 -3.186247735169933 -1.7153290881339613 0.4618842512862036 0 0 0
50 10 3 0 -2.9657121329343337 -2.0719074850598855 0.3770665283738795 0 0 0
48 10 3 0 -3.425784635889148 -1.5980649452492033 0.11003677187976955 0 0 0
49 10 3 0 -2.9151707665876505 -1.3862058611202606 0.5582083162889665 0 0 0
37 8 3 0 -1.474112407776768 -1.431942821818438 0.8143172030981184 0 0 0
670 190 4 0 -0.09487561514683823 -3.468402916045383 0.17876743144415472 0 1 0
353 85 2 0 -1.0940580852011323 -2.832989209923291 1.11434470494445 0 0 0
355 85 4 0 -1.038502136633095 -2.4093992170413134 0.9505657399003222 0 0 0
39 8 3 0 -1.297804237078433 -2.118223908639207 0.9263989188340799 0 0 0
36 8 1 0 -1.164621896950564 -1.6911623727335146 0.9715546786784428 0 0 0
543 148 4 0 -0.6064735896092811 -1.6015789724773137 0.39134576467321497 0 0 0
40 8 3 0 -0.7823509459350395 -1.621083250471041 0.7514213697752666 0 0 0
126 26 1 0 -0.5460688536661488 -0.22059801629398418 4.153423671500597 0 0 0
104 21 3 0 -3.282851731712912 -0.9080161502943365 0.5205024490876339 0 0 0
105 21 3 0 -3.432324778194314 -0.1930555450758242 0.4390722930135195 0 0 0
103 21 3 0 -3.8597360491209667 -0.6164138220527594 0.8152270023952228 0 0 0
101 21 1 0 -3.6137397543657883 -0.6013671750712168 0.4738139934865932 0 0 0
102 21 3 0 -3.8579173993925377 -0.6910770603664246 0.12322996839375648 0 0 0
442 114 4 0 -3.8247858289951315 -0.8585556990920982 1.1247824212585886 0 0 0
321 74 4 0 -2.520929878773745 -1.4483074813804115 0.5077641567760971 0 0 0
320 74 2 0 -2.1111870333008245 -1.2900885322547306 0.6004292983597536 0 0 0
322 74 4 0 -1.7011552542955335 -1.1206915566018103 0.700539360428942 0 0 0
38 8 3 0 -1.0984717735543155 -1.5945340928646623 1.3965086418591313 0 0 0
334 78 4 0 -0.7875680132287861 -0.13568085075672448 0.4092772369774568 0 0 0
535 145 4 0 -0.4000691612109991 -0.25831987474128354 0.4684063449798146 0 0 0
129 26 3 0 -0.16393897515865477 -0.40746019439316866 3.9168189071153967 0 0 0
130 26 3 0 -0.6847649574535388 -0.5066959689420412 4.4858014434500015 0 0 0
674 192 2 0 -4.465590078855291 -4.33429041757056 2.716508145212081 1 1 0
58 12 3 0 -2.8715384745421124 -3.12639088860716 2.6243884581424446 0 0 0
56 12 1 0 -2.950214483456306 -3.2906806553392998 3.0311138809858442 0 0 0
326 76 2 0 -1.5300128243183089 -3.8207122677388035 1.330450480994483 0 0 0
122 25 3 0 -2.053048163170785 -4.373847199643619 1.720539966764636 0 1 0
549 150 4 0 -0.08104810908461234 -2.681481673190351 3.497911675324216 0 0 0
168 34 3 0 -4.460965849281078 -3.1945973363515017 2.3727719931647155 1 0 0
327 76 4 0 -1.8651707660216066 -4.010830954909015 1.5622755617415198 0 0 0
124 25 3 0 -1.9409277057781344 -4.245979806124243 2.4354819625897917 0 1 0
424 108 4 0 -2.0356022882839366 -4.200491091884365 2.8622535296101392 0 1 0
57 12 3 0 -2.544770256137189 -3.3411702787355946 3.2607899215855802 0 0 0
311 71 2 0 -3.232603992574228 -2.0594521888103463 1.5244621711263657 0 0 0
44 9 3 0 -3.6006249703673316 -1.6848183724244166 2.8585958997336225 0 0 0
42 9 3 0 -3.235717774031566 -1.8175992893848407 2.274879811479092 0 0 0
313 71 4 0 -3.257085505919818 -2.1206676597336065 1.9839536830859825 0 0 0
60 12 3 0 -3.2325700811096585 -3.0060938243945565 3.2625890820844985 0 0 0
128 26 3 0 -0.8655779030545934 -0.16129662752982993 3.86959690508718 0 0 0
338 80 2 0 -0.3019423762336198 -1.7224991839093102 2.558950571746278 0 0 0
340 80 4 0 -0.6706564267357578 -1.6496110132836215 2.30489576317553 0 0 0
41 9 1 0 -3.384823703510798 -1.5099554802984243 2.5245325563164256 0 0 0
43 9 3 0 -3.658848626337502 -1.2457298298493775 2.286315511963322 0 0 0
440 114 2 0 -3.7935334767094573 -0.9331865235531683 1.5643438132013996 0 0 0
441 114 4 0 -3.756674926594864 -1.0031225184105368 1.9971325485072122 0 0 0
45 9 3 0 -3.0429068575255007 -1.2556544291000338 2.6751261642941326 0 0 0
350 84 2 0 -2.420785329662912 -1.125752264875814 3.0325210883789966 0 0 0
351 84 4 0 -2.661211224370953 -1.3702974574552547 2.763496483142095 0 0 0
563 155 2 0 -0.311051784997181 -0.26530372571976635 2.2831866333500077 0 0 0
565 155 4 0 -0.6141643877479815 -0.5707362346315005 2.1043767789840144 0 0 0
34 7 3 0 -1.1889677486413348 -0.9293949469997292 2.891162214785986 0 0 0
32 7 3 0 -0.959558514293182 -0.674851555089026 2.302933328188968 0 0 0
35 7 3 0 -1.6311530394474238 -0.9975870398534312 2.313166920621937 0 0 0
33 7 3 0 -0.972381195291609 -1.3761877744528588 2.3908441270730334 0 0 0
31 7 1 0 -1.1768239612039981 -0.9881472260825229 2.478891959052136 0 0 0
59 12 3 0 -3.1376032235115807 -3.680238293141243 2.9946733239377186 0 0 0
422 108 2 0 -1.8340109686798156 -4.471290646653022 3.204971739828276 0 1 0
317 73 2 0 -1.7142749635146446 -0.8526232909943412 3.889592206700036 0 0 0
348 83 4 0 -3.557731190142502 -2.794997580180919 3.3770286484127094 0 0 0
349 83 4 0 -3.8294048681688997 -1.9901748573003188 2.9924442338548336 0 0 0
347 83 2 0 -3.695381647665518 -2.3810864382568973 3.1740067401895664 0 0 0
342 81 4 0 -2.2368731763296537 -3.097732401322623 3.1206812883575425 0 0 0
341 81 2 0 -2.0026126307699923 -2.7390404843650886 3.3061542771696195 0 0 0
343 81 4 0 -1.7691494882287075 -2.3804979401816047 3.491255346094168 0 0 0
344 82 2 0 -1.5137335535674552 -2.064333548558344 4.073049258771843 0 0 0
345 82 4 0 -1.810950588202436 -2.3449167011921093 3.862890450670865 0 0 0
550 150 4 0 -0.633689000290766 -2.7933011574682576 4.168899951359839 0 0 0
548 150 2 0 -0.35686946591294977 -2.7383447023148793 3.83434839593516 0 0 0
346 82 4 0 -1.232216208241324 -1.799237444923403 4.269892544612345 0 0 0
319 73 4 0 -1.9307396863745538 -0.6640363597857311 3.533025933602452 0 0 0
459 120 4 0 -3.8389092137115823 -0.014396294196128168 3.472495084877768 0 0 0
458 120 2 0 -3.8812934335558 -0.2894478534110197 3.856943105114862 0 0 0
460 120 4 0 -3.915579419595423 -0.5433672984271231 4.2204947990059205 0 0 0
318 73 4 0 -1.4986156042287415 -1.0562346389904567 4.254761701469327 0 0 0
352 84 4 0 -2.1719719664877064 -0.8731194896654637 3.300029166171275 0 0 0
22 5 3 0 -4.268766345834026 -0.5634645324443117 4.4141663408955765 0 0 -1
652 184 4 0 -4.02873274591462 -3.897176732755784 0.2213191826707224 1 1 0
62 13 3 0 -0.2978267259044579 -3.7783288214293784 0.021442114719573184 0 0 0
591 164 4 0 -0.2003604168567394 0.5414664237613517 -3.6394691517288025 0 0 0
590 164 2 0 -0.17379597683508222 0.49293358571067925 -4.090918441874422 0 0 0
198 40 3 0 -0.16877642054797712 0.1589805222667616 -3.5466488903893456 0 0 0
418 106 4 0 -0.9526373380646626 4.364228337514249 -0.3115790591438084 0 0 0
416 106 2 0 -1.3947380319847875 4.39499734544692 -0.22646114715935745 0 0 0
358 86 4 0 -3.0170591133088798 2.846581234615915 -4.453333994468579 0 0 0
362 88 2 0 -0.9179385562963205 2.2131387603878676 -4.059188341123634 0 0 0
364 88 4 0 -0.566170561699039 2.0564628667864726 -3.814707441239105 0 0 0
255 52 4 0 -0.18927867485108038 2.1223917441745495 -3.734262658348758 0 0 0
254 52 2 0 -0.09101322770259027 2.238919340027843 -3.321852825421108 0 0 0
363 88 4 0 -1.2619343095200408 2.360873155449723 -4.303537799560782 0 0 0
356 86 2 0 -2.9707660900053336 3.0780472010614557 -4.078756976850008 0 0 0
357 86 4 0 -2.9361436322169103 3.322538935636111 -3.69983981029207 0 0 0
405 102 4 0 -2.7220050096283495 3.7055600923946916 -3.7087131478399424 0 0 0
404 102 2 0 -2.527426126792525 3.711263041237307 -3.296797248374668 0 0 0
386 96 2 0 -0.7615603289615048 3.453321505714631 -3.0184364293232737 0 0 0
387 96 4 0 -0.5743202372783978 3.0350667415584787 -2.938670774451632 0 0 0
187 38 3 0 -0.17494194499019255 2.369925711380423 -2.545176952359418 0 0 0
411 104 4 0 -4.229628010712274 0.3751579351475759 -1.86023000688627 0 0 0
74 15 3 0 -3.9237696616360087 0.5771362620767032 -2.010213752424744 0 0 0
71 15 1 0 -3.7765649627520057 0.8771574808371218 -1.719819004971604 0 0 0
72 15 3 0 -3.9588283601996994 1.260347164913796 -1.8193701629191186 0 0 0
75 15 3 0 -3.3421256668055594 0.914334009833568 -1.7474717964895627 0 0 0
396 99 4 0 -3.9943735694303664 1.4382083570495472 -1.4722383015105414 0 0 0
399 100 4 0 -3.117763810395338 1.2410879404032684 -1.729022402200862 0 0 0
19 4 3 0 -0.9378257292350556 0.3463627059165918 -1.6584224086335826 0 0 0
197 40 3 0 -0.5198522618500592 0.2883262067024764 -2.892928353924708 0 0 0
420 107 4 0 -0.7687616965837798 0.6156686613332835 -2.852916401010802 0 0 0
419 107 2 0 -0.8751861218464353 0.6210464978672914 -2.4356632272029497 0 0 0
421 107 4 0 -0.9856483679985375 0.627170659022249 -1.9915127086318436 0 0 0
380 94 2 0 -4.231972348877142 2.482151690421 -2.3544644664708416 0 0 0
382 94 4 0 -3.8626253085980937 2.7085034472184772 -2.2495254062248944 0 0 0
402 101 4 0 -1.9325703760330029 3.256042322561091 -1.8926460530766402 0 0 0
189 38 3 0 -0.05795181764775455 2.6364167090066433 -1.857572933195519 0 0 0
360 87 4 0 -3.8684709697134934 3.046869423389789 -2.021989713825084 0 0 0
359 87 2 0 -3.4956435102025543 3.125279951367641 -1.8250398180505834 0 0 0
361 87 4 0 -3.0617749778359618 3.2252661076879177 -1.607993899251267 0 0 0
406 102 4 0 -2.3408081553170215 3.713116113484314 -2.889573614250639 0 0 0
79 16 3 0 -1.9403393588420714 3.095641272008206 -1.5312412574228078 0 0 0
403 101 4 0 -2.070590867125745 3.459317596821819 -2.7168407481411143 0 0 0
401 101 2 0 -1.998556005889378 3.355228391371732 -2.297521430399516 0 0 0
388 96 4 0 -0.9427377828727581 3.868970290782466 -3.1036582942729987 0 0 0
261 54 4 0 -0.9176110064982977 4.232686849697237 -2.9212562165178024 0 -1 0
557 153 2 0 -4.247406762291672 0.2642306113509547 -0.890143200000866 1 0 0
559 153 4 0 -3.9148212417478505 0.5665093765651346 -0.9267337901251136 1 0 0
73 15 3 0 -3.8930592776826938 0.7556529763113555 -1.300254706803432 0 0 0
277 59 4 0 -1.8716525949984104 0.5766730521730085 -1.0898121007642574 0 0 0
398 100 2 0 -2.7244945165333565 1.3948381525194287 -1.565091071168637 0 0 0
275 59 2 0 -1.9396760650548133 0.6051578194462265 -0.6542013686443625 0 0 0
276 59 4 0 -2.0120656903716636 0.6315390353149622 -0.19747300327260536 0 0 0
18 4 3 0 -1.5243188633713545 0.3701304837185291 -1.1709654390251631 0 0 0
16 4 1 0 -1.1288483205350517 0.14718543638983367 -1.2804903958675282 0 0 0
453 118 4 0 -0.802043438864615 0.5284179743185132 -0.7486273893396772 0 0 0
452 118 2 0 -0.7059363723458977 0.9799254356007645 -0.6604925966387656 0 0 0
17 4 3 0 -0.8450956632628737 0.17308107843018095 -0.940546520829686 0 0 0
454 118 4 0 -0.6132970644443255 1.4496345454836752 -0.5646504835664223 0 0 0
395 99 2 0 -4.029454120396601 1.8585904901475907 -1.2880030012298487 0 0 0
83 17 3 0 -3.9594379177239176 2.4780999928567065 -0.7779923193590386 0 0 0
81 17 1 0 -3.73475359750425 2.7755555136171757 -0.5367822858184303 0 0 0
84 17 3 0 -3.311260042517496 2.6436520529607463 -0.47038070011774774 0 0 0
85 17 3 0 -3.955772234845564 2.8253982895885215 -0.11613914381973292 0 0 0
397 99 4 0 -4.060840612127946 2.264024189703619 -1.1186628766997764 0 0 0
400 100 4 0 -2.3217390859797047 1.567373849875294 -1.392481290913319 0 0 0
77 16 3 0 -2.3171907818105275 2.829320294795036 -0.935337521235902 0 0 0
427 109 4 0 -2.1723365913317885 1.8549965056980025 -1.1692006010969702 0 0 1
368 90 2 0 -2.477629595951512 2.9028539648358085 -0.12369753161079104 0 0 0
370 90 4 0 -2.371576631909486 2.6599023018255012 -0.4992219337163626 0 0 0
425 109 2 0 -2.205585535385919 2.0188183395724604 -0.7316204998877636 0 0 1
426 109 4 0 -2.241622650444747 2.1756429657660386 -0.3215366899111976 0 0 1
202 41 3 0 -0.3359299269463877 1.730890037887512 -0.618195958096235 0 0 0
201 41 1 0 -0.28281058032813683 1.9608597369917298 -0.20385822448456026 0 0 0
204 41 3 0 -0.2717491143294182 2.392690211713079 -0.27269982157546707 0 0 0
271 57 4 0 -2.872055162270892 4.336013887077734 -0.6762937269652033 0 -1 0
374 92 2 0 -3.456853992484041 3.919139241500525 -0.6754640981388287 0 0 0
376 92 4 0 -3.6461235695668366 3.5480654940997374 -0.8247835230801521 0 0 0
82 17 3 0 -3.7236891370865632 3.171216351308642 -0.7365617953090341 0 0 0
375 92 4 0 -3.251338872478305 4.313111474744163 -0.5155453711702563 0 0 0
76 16 1 0 -2.281137113329039 3.1794829064900547 -1.2513327719540819 0 0 0
80 16 3 0 -2.66613915351462 3.210051049376953 -1.484011987340512 0 0 0
78 16 3 0 -2.2056012871071227 3.5655323582793996 -1.0385276688838103 0 0 0
4 1 3 0 -2.7941425007662763 4.450742420176176 -2.7618092179462854 0 -1 0
466 122 4 0 -0.3770632849258824 2.7452725198844097 -0.1112773980364168 0 0 0
417 106 4 0 -1.844419600537276 4.419964668215862 -0.12723825506229033 0 0 0
108 22 3 0 -4.027323289200932 2.3137092777639054 -4.4787986704981435 0 0 1
409 103 4 0 -1.482708243699651 2.7128033123351614 -4.3970184730875035 0 0 0
443 115 2 0 -3.34761888339207 1.3724314272529559 0.9070575559567943 0 0 0
444 115 4 0 -3.226759436343235 1.2115491147789357 0.5237433453644962 0 0 0
366 89 4 0 -2.9333717533976724 1.0418364032042184 0.2760259345674946 0 0 0
365 89 2 0 -2.529072850389673 0.8471652220971441 0.23301515661504993 0 0 0
96 20 1 0 -1.3190600516681414 0.8130337468857995 1.4700190723592583 0 0 0
367 89 4 0 -2.115784925213421 0.6414489629658019 0.19034850457374158 0 0 0
99 20 3 0 -0.9878292089906854 1.0111510054210395 1.1995912051481186 0 0 0
333 78 4 0 -1.2785199273481913 0.37639513610918185 0.9411456071347152 0 0 0
98 20 3 0 -1.4252154007648454 0.394997093779615 1.3068412861710674 0 0 0
658 186 4 0 -1.178282724221652 0.9685338839592864 0.8228656558700248 0 0 0
656 186 2 0 -1.0063205271871276 1.2772486478136502 0.5322741573500902 0 0 0
657 186 4 0 -0.828119988190475 1.5791635662388541 0.24809342449551278 0 0 0
332 78 2 0 -1.045746762431102 0.13133775719566526 0.6900073720281075 0 0 0
445 115 4 0 -3.474031819417327 1.5338680024256681 1.3223742422681506 0 0 0
112 23 3 0 -1.5835137367532546 3.104791557006784 0.4150951570110663 0 0 0
464 122 2 0 -0.27132597659869095 2.969334690051824 0.2382266204320844 0 0 0
456 119 4 0 -0.5721465106366266 4.106035974068537 3.74677829666423 0 0 0
123 25 3 0 -1.8679582650467965 4.0617353307906034 2.13863071507278 0 0 0
134 27 3 0 -1.4941531578593639 3.740011034801715 4.185620749674057 0 0 0
651 184 4 0 -4.309994023759501 4.261813839191704 0.20168618983975972 1 0 0
468 123 4 0 -4.098927518632292 3.952720836044218 0.2608596237084024 0 0 0
467 123 2 0 -4.051296313728326 3.5218485358563916 0.23236323843760137 0 0 0
469 123 4 0 -4.012351229143561 3.0805320387977226 0.21566118719597574 0 0 0
369 90 4 0 -2.5807878364246344 3.1487565551897583 0.24408116450141631 0 0 0
115 23 3 0 -2.288090432091338 3.242828704845176 0.5384225737273006 0 0 0
113 23 3 0 -1.8168907398536533 3.2474760003804852 1.1005800561948262 0 0 0
111 23 1 0 -1.879902874836502 3.350725407736496 0.6600429015229983 0 0 0
114 23 3 0 -1.8036561916177904 3.808577083249871 0.5773268628900708 0 0 0
121 25 1 0 -2.10655215273613 4.449602908582839 2.1110934698586528 0 0 0
465 122 4 0 -0.15169187621799587 3.203559872758306 0.6131861314945061 0 0 0
92 19 3 0 -0.07906832039003601 3.584851955509279 0.7208223500503566 0 0 0
97 20 3 0 -1.6879252322792702 1.0746909242190434 1.4663661445060432 0 0 0
100 20 3 0 -1.1624801873425685 0.7673275850668962 1.9051959309334947 0 0 0
471 124 4 0 -3.35319404068974 1.5525784161507954 1.7143532146190021 0 0 0
472 124 4 0 -3.7718108262611474 1.9092400444121456 2.458411380766103 0 0 0
470 124 2 0 -3.5582605476483287 1.7302602955569961 2.0725722565157936 0 0 0
89 18 3 0 -3.9045816770697694 1.849157579230803 2.8278452205310463 0 0 0
131 27 1 0 -1.2551100918883928 3.7491937699662157 3.820970436850929 0 0 0
434 112 2 0 -3.3290661652537397 4.275853675128039 2.448491251399628 0 0 0
435 112 4 0 -3.7324366887866836 4.243124572721679 2.623294473627669 0 0 0
675 192 4 0 -4.0632693851665564 4.439838173985424 2.7575162417886863 1 0 0
436 112 4 0 -2.9130522267861476 4.294421619157428 2.256266114693892 0 0 0
429 110 4 0 -1.8253349499406382 3.055286230322466 1.4790347359914755 0 0 0
430 110 4 0 -1.764835719543754 3.6938191620464744 2.0929717970188264 0 0 0
428 110 2 0 -1.7858288833090719 3.3922371348943408 1.8050211910323357 0 0 0
125 25 3 0 -2.5443406487440763 4.367912881949137 2.1907174118954567 0 0 0
461 121 2 0 -0.1557111287386776 3.3175075113563146 2.186889350480562 0 0 0
462 121 4 0 -0.32904206521764656 3.436595639397797 1.7806809824305652 0 0 0
439 113 4 0 -3.5985030317324136 1.1331067958346204 3.042999011609496 0 0 0
437 113 2 0 -3.6029362452708975 0.6637324353194977 3.141218036217743 0 0 0
438 113 4 0 -3.614084642201836 0.19316206119020432 3.2341864880179503 0 0 0
87 18 3 0 -3.389190837452905 1.4404507164947757 3.1535165766777453 0 0 0
127 26 3 0 -0.4371295133974527 0.17056553060881618 4.3384551787507375 0 0 0
592 164 4 0 -0.15229158278361393 0.4434800156132523 4.458645380702783 0 0 -1
90 18 3 0 -3.9036970800438016 1.7601209130968714 3.548520927570764 0 0 0
640 180 4 0 -4.189286247553102 1.474911588499831 3.5683243150192903 1 0 0
88 18 3 0 -3.4094577847441347 2.149417393342512 3.232764115738268 0 0 0
86 18 1 0 -3.651734829258362 1.8057520786933614 3.1957303233478376 0 0 0
109 22 3 0 -3.7001710708104847 2.3676867514963096 3.8623699114520376 0 0 0
110 22 3 0 -3.4129516990274564 1.9451224915163108 4.384971077353605 0 0 0
106 22 1 0 -3.629872166838533 2.324440307769277 4.304194991020473 0 0 0
93 19 3 0 -0.09216350261121412 3.3929350577206097 1.4731638208129814 0 0 0
447 116 4 0 -3.1523655912325985 2.2588675795279225 3.5407603281424147 0 0 0
446 116 2 0 -2.7119131657593836 2.358566361213383 3.580904033829152 0 0 0
448 116 4 0 -2.2618228732466314 2.458537077190372 3.620272019957962 0 0 0
408 103 4 0 -1.922067855314085 2.5289928966214905 3.8242458511601587 0 0 -1
407 103 2 0 -1.6969024221516145 2.6220305946659734 4.214371200571895 0 0 -1
564 155 4 0 -0.014133335195035908 0.034408849970726386 2.46527479212338 0 0 0
423 108 4 0 -1.6374821564338624 4.2524819433608325 3.5494633886026192 0 0 0
132 27 3 0 -1.5267788174688777 3.869899937298492 3.4774611396563997 0 0 0
133 27 3 0 -0.9341279704827399 4.031382511520738 3.852753821444309 0 0 0
455 119 2 0 -0.13394616085985728 4.057799934140199 3.6797718557472807 0 0 0
135 27 3 0 -1.0847384634534911 3.3353451020554403 3.750789507291545 0 0 0
615 172 4 0 -4.363257637581724 2.337886764657667 4.318419340767481 1 0 -1
107 22 3 0 -3.3822840056794927 2.6732578671063867 4.455820220791169 0 0 0
205 41 3 0 -0.6252148975359448 1.8612769932571576 0.07045996114032582 0 0 0
389 97 2 0 0.23610305707959145 -4.3922466126341595 -3.8208582053406346 0 1 0
480 127 4 0 3.3824167549548 -3.876481636853252 -3.277041823763301 0 0 0
479 127 2 0 3.7150458369060626 -3.737854234159686 -3.5156912743429234 0 0 0
481 127 4 0 4.059856382216728 -3.5994006890366146 -3.768488836036578 0 0 0
519 140 4 0 3.0714117654501725 -4.134693244085554 -3.1536671884385115 0 0 0
67 14 3 0 4.140513367541639 -3.2183569657980224 -3.9194395915561118 -1 0 1
513 138 4 0 1.171242428565276 -1.5019170093756307 -3.1313525669570663 0 0 0
526 142 4 0 2.858370326678731 -1.8089846953409918 -4.186252506417471 0 0 0
558 153 4 0 4.414197484443495 -0.0399758753060079 -0.8464720957719 0 0 0
524 142 2 0 3.0528032190751846 -2.1835080378251406 -4.020046905763718 0 0 0
525 142 4 0 3.2503816521767623 -2.562254361762639 -3.8581310559558126 0 0 0
68 14 3 0 3.6531990140664603 -2.657723607863155 -3.8615521915483413 -1 0 1
66 14 1 0 4.033139116932053 -2.789797987512711 -4.06433392708834 -1 0 1
69 14 3 0 4.382219112594203 -2.4894029158671214 -3.9546016065284517 -1 0 1
194 39 3 0 3.5144185242130823 -0.0885300248263951 -2.9021140744244716 0 0 0
512 138 2 0 0.9846435758328971 -1.4150359318276917 -3.5190916030322947 0 0 0
514 138 4 0 0.7922352178384964 -1.3270252099698105 -3.9099270684370557 0 0 0
489 130 4 0 0.4871920793927307 -1.3775408921455368 -4.160124893886534 0 0 0
478 126 4 0 1.119416595998932 -0.11153869353269492 -3.5422876933084497 0 0 0
476 126 2 0 1.2442327148597736 -0.33290271176469327 -3.1619165337046606 0 0 0
291 64 4 0 4.0231327851518905 -0.9497627083918125 -3.8124798735441963 -1 0 0
23 5 3 0 4.200614897806265 -0.8166271791573129 -4.1140991920959085 -1 0 0
290 64 2 0 3.8417250089006805 -0.8911242858583925 -3.3884514326780293 -1 0 0
140 28 3 0 0.3091174619248905 -3.973696495841829 -2.8388397505061276 0 0 0
138 28 3 0 0.8854569091796214 -3.955399725118705 -2.434971995282333 0 0 0
136 28 1 0 0.49396686904963677 -4.126986623569037 -2.474411972799909 0 0 0
137 28 3 0 0.2537955933734302 -4.009624824915762 -2.1442635063660638 0 0 0
488 130 2 0 0.026410304225810012 -1.323085245978469 -4.2151769096531 0 0 0
504 135 4 0 1.2754209283503561 -4.02629352265172 -2.5239317620157844 0 0 0
385 95 4 0 0.27090028669912075 -3.801354663116649 -1.7929729777378223 0 1 0
505 135 4 0 2.0749010834816253 -3.923347492891436 -2.926156927692117 0 0 0
503 135 2 0 1.6645689255838272 -3.969196690960252 -2.7246901518961844 0 0 0
494 132 2 0 3.4440533549903387 -4.2335481667580135 -1.7467301711760783 0 0 0
496 132 4 0 3.8544055273724 -4.421273166393466 -1.8080486173232058 0 0 0
165 33 3 0 1.3331237200183441 -1.356753571109511 -2.802462064620261 0 0 0
164 33 3 0 2.061207218813549 -1.2112725930632595 -2.735056711340611 0 0 0
523 141 4 0 1.547064185685405 -1.4654673248998014 -1.750103528768369 0 0 0
162 33 3 0 1.673246612948692 -1.3697141647359683 -2.1225024794559815 0 0 0
477 126 4 0 1.3639097502731605 -0.5515665400316763 -2.7735539710764017 0 0 0
161 33 1 0 1.6553146569614674 -1.165183668652847 -2.5291615558543246 0 0 0
163 33 3 0 1.5549439611165046 -0.7310896033409845 -2.4709453500421596 0 0 0
665 189 2 0 2.380401658236622 -0.09262802421234095 -2.0534576562537556 0 0 1
667 189 4 0 2.7160512526179987 -0.28301074437625456 -2.2488696626749625 0 0 1
498 133 4 0 2.881177518946673 -0.9439888659131027 -1.926664476737079 0 0 0
497 133 2 0 3.116748360663305 -1.113867416826673 -1.5860634908523166 0 0 0
192 39 3 0 3.1137294946897067 -0.32849696347802465 -2.322586821748024 0 0 0
292 64 4 0 3.662900158497981 -0.8390399200119942 -2.9759693224517445 -1 0 0
193 39 3 0 3.672686502311101 -0.7532826636503566 -2.5864646942540337 0 0 0