LAMMPS data file via write_data, version 4 Feb 2025, timestep = 1000, units = lj

8 atoms
4 atom types
6 bonds
1 bond types
7 angles
2 angle types

-1.5 1.5 xlo xhi
-1.5 1.5 ylo yhi
-1.5 1.5 zlo zhi
0 0 0 xy xz yz

Masses

1 1
2 1
3 0.1
4 0.1

Bond Coeffs # harmonic/omp

1 100 0.45

Angle Coeffs # harmonic/omp

1 100 180
2 100 109.471

Atoms # full

1 1 1 0 0.33231956251222816 -0.6350498952071164 -1.1777092250085184 0 0 0
3 1 3 0 0.44342746087513696 -0.9441378343475237 -0.8756238713040472 0 0 0
4 1 3 0 -0.1335860084214513 -0.5654280809179366 -1.1561509555887783 0 0 0
2 1 3 0 0.5614198818751026 -0.22615462361031202 -1.0835207140758465 0 0 0
8 2 4 0 0.1806558108145464 -0.5033616500381455 0.5304757752215945 0 0 0
5 1 3 0 0.43923598223474647 -0.7814696427845742 1.4189382008883253 0 0 -1
6 2 2 0 0.6033992735116351 -0.4031006237521899 0.5003391456237187 0 0 0
7 2 4 0 1.063521764957199 -0.30262736205077445 0.4516614307405633 0 0 0

Velocities

1 0.19986925710340442 -0.29522639575472853 -0.3310950775356163
3 1.7195320451768632 0.9370724430187497 1.0720863833168859
4 1.0556069258461678 1.4146095543368005 -0.569145850738859
2 -0.5294548314025698 -1.4517845074648972 0.43390415354618234
8 2.623306547643642 0.9282078933885657 0.9115008262406042
5 1.4787684825712366 0.09117934796304958 -0.4947205107740816
6 0.8880594152199918 0.1402052516614375 0.13505046509250482
7 -0.7912966660625322 -0.5743711452022499 0.8796944277231673

Bonds

1 1 1 2
2 1 1 3
3 1 1 4
4 1 1 5
5 1 6 7
6 1 6 8

Angles

1 2 2 1 3
2 2 2 1 4
3 2 2 1 5
4 2 3 1 4
5 2 3 1 5
6 2 4 1 5
7 1 7 6 8
