LAMMPS data file via write_data, version 4 Feb 2025, timestep = 10000, units = lj

40 atoms
4 atom types
30 bonds
1 bond types
35 angles
2 angle types

-2.265589 2.265589 xlo xhi
-2.265589 2.265589 ylo yhi
-2.265589 2.265589 zlo zhi
0 0 0 xy xz yz

Masses

1 1
2 1
3 0.1
4 0.1

Bond Coeffs # harmonic/omp

1 100 0.45

Angle Coeffs # harmonic/omp

1 100 180
2 100 109.471

Atoms # full

27 6 4 0 -0.7350443167454526 -2.0132003312852986 -0.07974513572088293 0 0 0
26 6 2 0 -0.6179546429000082 -1.9090621837340567 0.3432803901453845 0 0 0
28 6 4 0 -0.5084363256174484 -1.8094850072208946 0.7633978705962448 0 0 0
10 2 3 0 -0.39698847438565554 -1.689904731657816 1.1255874603481852 0 0 0
20 4 3 0 -2.078992469177104 -2.2511325485378357 2.115708167730111 1 0 0
6 2 1 0 -0.5248796253912709 -1.4644670193598817 1.4932969517649632 0 0 0
9 2 3 0 -0.7277333993201238 -1.7623194602864602 1.7944687742943013 0 0 0
8 2 3 0 -0.16709713240208313 -1.2735355562783937 1.6850444044076878 0 0 0
7 2 3 0 -0.8361533286301206 -1.144478861680705 1.3645533672012533 0 0 0
39 10 4 0 -1.9127740444699763 1.0424647711005561 -1.2816482062982697 2 0 0
19 4 3 0 -1.823081467230846 2.1673400717101985 -1.7283029085145671 1 -1 1
16 4 1 0 -1.9875526576541582 1.9663635511716122 -2.106217382787408 1 -1 1
38 10 2 0 -1.5462760533709194 1.013526895475981 -1.0542017032132431 2 0 0
40 10 4 0 -1.1800781358357242 0.9593226716342214 -0.8128234272753505 2 0 0
22 5 3 0 -0.1949893528208344 0.9547509330860224 -0.30194780930139764 2 0 0
24 5 3 0 -0.22514616296375234 1.1164540530488467 -1.031509711664995 2 0 0
25 5 3 0 -0.8494008547796479 1.0958673520820863 -0.6186669417570447 2 0 0
21 5 1 0 -0.4049620208803708 1.199959216326536 -0.615497203507269 2 0 0
23 5 3 0 -0.35356353831938425 1.6522305429469575 -0.5165965287581129 2 0 0
17 4 3 0 -1.6678040980578022 1.6652776958569429 2.249167105845958 1 -1 0
3 1 3 0 1.2329147119242636 -1.1615437530696509 -1.8763774588447062 0 0 0
1 1 1 0 1.5230406723398642 -1.143756778856098 -2.2007127045442667 0 0 0
2 1 3 0 1.920088476764478 -1.0046770777229523 -2.045334439105222 0 0 0
13 3 3 0 0.04313934404371533 -1.1426212567605922 -0.7727780857436928 1 0 0
15 3 3 0 0.10060289418073642 -0.7515516103210884 -0.1664492791430101 1 0 0
14 3 3 0 0.6965132402165111 -1.1009089329904294 -0.41055647972097176 1 0 0
11 3 1 0 0.3116729585559055 -0.8704369482795793 -0.519605516876696 1 0 0
12 3 3 0 0.413560804588716 -0.5079486845077794 -0.7619061099300954 1 0 0
5 1 3 0 1.5763516674139626 -1.557106546841196 2.156473190025658 0 0 -1
4 1 3 0 1.3718514992608335 -0.8571769742753208 2.00336240636959 0 0 -1
29 7 2 0 1.5465949054825354 1.23870636286278 -1.3300357522529453 1 0 0
31 7 4 0 1.7766424027287786 1.457808868554967 -1.6168334470203773 1 0 0
18 4 3 0 2.1654698870649702 1.742361368703707 -2.0069986397187933 0 -1 1
34 8 4 0 1.0010480929314056 0.9603665372648482 -0.7620960206819831 1 0 0
32 8 2 0 0.8514467481022963 1.0674619399517637 -0.37559297132543557 1 0 0
30 7 4 0 1.3001991906587191 1.01191580437164 -1.023263360533506 1 0 0
33 8 4 0 0.6935353459713607 1.1888330379191845 0.04503346490106708 1 0 0
35 9 2 0 1.0918380576482734 1.5081467535407285 0.6608994221428857 1 0 0
36 9 4 0 0.8121798270438014 1.2969245366562672 0.40086208345279983 1 0 0
37 9 4 0 1.3746895848691736 1.710748615417939 0.9301612401496535 1 0 0

Velocities

27 1.7222118445397794 0.8818166193262483 -0.6824834800794036
26 0.1844870317308747 0.13085858793918714 0.10582976735282351
28 0.44234628594771586 -0.8507177207194356 0.959720501741826
10 1.473949804338509 0.210222576697283 -0.48721420812171223
20 -0.054284736173080786 0.20049730291047596 0.09251818239933947
6 -0.14824725988407284 0.3893301660382801 0.029851299296062807
9 0.6322701530949733 -0.06212113290104177 -0.043840161588320596
8 0.10636448161401266 0.11145873800974049 0.8391721632129017
7 0.1717606689726242 -0.5553986398258453 -1.1258857173490562
39 -0.2764088070518392 0.5076595533211017 0.7286151580075748
19 0.8461790469393546 0.5998742461196634 -0.5933164620724646
16 0.08109092373909643 0.10920806571419311 0.16869515476241262
38 0.35170526974123784 0.013954950411111423 -0.3682130220760985
40 -1.2446296719545709 -0.07902356048686768 0.32226934912292343
22 0.9512953884158792 -0.5077838951776407 0.2537031613823601
24 1.089316860231027 0.644725985301531 0.1910276818477405
25 -0.1051464974855898 -0.5841101453131928 -0.8769636897574663
21 -0.20068742297256664 -0.022436953134430962 -0.1105838412419188
23 0.3694413197647821 -0.1976039372410935 0.3625152833887663
17 0.012541334300365303 -0.5825675453618884 -0.09694096518185752
3 1.0166381114861693 -0.5453648653403365 0.9420229347344742
1 0.018863885846089515 -0.13054924260764977 0.07258774922348613
2 0.7762176527441926 0.07120930651391223 0.04384353705811866
13 1.0840620233510163 0.2976710291627489 0.52619178790169
15 -0.32469753824177683 1.6175591705923216 -0.39879185264317285
14 -0.16222129035080696 -0.1612616495234154 0.5335319518040037
11 0.645409469882752 -0.09693303358989609 0.01654037152695856
12 0.7907927241185242 -0.3997604858554376 -0.22306989928571597
5 -0.6024416481235575 -0.18682739517636557 1.9744806303939608
4 0.2241588730231584 1.205270028477156 0.049795780088590064
29 0.16264976562707684 -0.04015954492259073 0.009282466049130566
31 -0.6081272026011388 -0.6022594376230168 0.11755715137152736
18 0.9871298073766027 -0.11977741254115354 -0.8426484828415942
34 0.8569707397635731 -0.483087969834362 0.03548826398723279
32 0.4717842023681134 -0.07952049382689806 0.1476029198387836
30 1.1764022836386603 0.012026351139089269 -0.9919460318880431
33 -1.0375048946448373 -0.20314819580666924 -0.07647972719475288
35 0.4511806822158438 -0.2781381949134197 -0.3091901698033549
36 0.037936336531988524 0.7431076590423762 0.8072229778447165
37 1.4614104225352134 -0.9672812158965466 -0.10601756884995023

Bonds

1 1 26 27
2 1 26 28
3 1 6 7
4 1 6 8
5 1 6 9
6 1 6 10
7 1 16 17
8 1 16 18
9 1 16 19
10 1 16 20
11 1 38 39
12 1 38 40
13 1 21 22
14 1 21 23
15 1 21 24
16 1 21 25
17 1 1 2
18 1 1 3
19 1 1 4
20 1 1 5
21 1 11 12
22 1 11 13
23 1 11 14
24 1 11 15
25 1 29 30
26 1 29 31
27 1 32 33
28 1 32 34
29 1 35 36
30 1 35 37

Angles

1 1 27 26 28
2 2 7 6 8
3 2 7 6 9
4 2 7 6 10
5 2 8 6 9
6 2 8 6 10
7 2 9 6 10
8 2 17 16 18
9 2 17 16 19
10 2 17 16 20
11 2 18 16 19
12 2 18 16 20
13 2 19 16 20
14 1 39 38 40
15 2 22 21 23
16 2 22 21 24
17 2 22 21 25
18 2 23 21 24
19 2 23 21 25
20 2 24 21 25
21 2 2 1 3
22 2 2 1 4
23 2 2 1 5
24 2 3 1 4
25 2 3 1 5
26 2 4 1 5
27 2 12 11 13
28 2 12 11 14
29 2 12 11 15
30 2 13 11 14
31 2 13 11 15
32 2 14 11 15
33 1 30 29 31
34 1 33 32 34
35 1 36 35 37
