LAMMPS data file via write_data, version 4 Feb 2025, timestep = 4000000, units = lj

2000 atoms
4 atom types
1500 bonds
1 bond types
1750 angles
2 angle types

-8.346487 8.346487 xlo xhi
-8.346487 8.346487 ylo yhi
-8.346487 8.346487 zlo zhi
8.526512829121202e-14 0 0 xy xz yz

Masses

1 1
2 1
3 0.1
4 0.1

Bond Coeffs # harmonic/omp

1 100 0.45

Angle Coeffs # harmonic/omp

1 100 180
2 100 109.471

Atoms # full

103 21 3 0 -5.731646714980579 -8.10595848461424 -7.453867814102007 15 0 0
642 129 3 0 -0.34619114606928925 -7.8879822202702154 -8.276409413971717 27 1 0
644 129 3 0 0.207567630083906 -7.372096188268716 -8.306140456564146 27 1 0
1937 479 4 0 0.4816281738583683 -7.119599539555395 -8.12707262767032 27 1 1
1935 479 2 0 0.5767247053795064 -6.708363862502702 -8.312665922031208 27 1 1
390 78 3 0 2.939304470173253 -6.937982201547164 -8.24444198062418 10 0 0
389 78 3 0 3.644311851863012 -6.708210349916493 -8.139363205121686 10 0 0
1286 262 4 0 3.847440680275465 -6.880976609583403 -7.820822861646607 9 0 0
1284 262 2 0 4.222388692987945 -7.030018949015002 -7.680324296416787 9 0 0
1285 262 4 0 4.617251374087653 -7.181086604081133 -7.53158140225659 9 0 0
522 105 3 0 5.309483667741867 -7.286736270907122 -7.885109230440961 9 0 1
521 105 1 0 5.308113411683124 -7.001116526016419 -7.523704897391842 9 0 1
524 105 3 0 5.4282929879866355 -6.609250324507975 -7.6538898738653405 9 0 1
614 123 3 0 8.0713476841733 -5.6138143516793315 -7.79573566609919 8 0 1
1289 263 4 0 8.129633850367735 -5.8076204155407 -7.472528254765608 11 0 0
1663 388 4 0 -7.703635804619267 -5.0514561304145476 -7.792752483894791 10 0 0
613 123 3 0 -8.03230708882035 -5.170645687144512 -7.949452885229878 9 0 1
1662 388 2 0 -7.411797238838518 -4.725391695366971 -7.835719729160467 10 0 0
430 86 3 0 -6.252380374912372 -5.021707456399292 -7.70969740614004 13 0 1
1986 496 2 0 1.658981237652407 -5.339684240720068 -8.032889255615283 28 1 1
1987 496 4 0 1.8820523358428627 -5.304796498482906 -7.6301033272840195 28 1 1
1163 233 3 0 2.2320763571684683 -5.199732552207804 -7.48234070658077 29 1 1
1161 233 1 0 2.559797466792368 -4.923431189348698 -7.465108840584361 29 1 1
1164 233 3 0 2.7446629118133536 -4.903653174019558 -7.8445322677917915 29 1 1
612 123 3 0 7.981935418500438 -4.913018100055657 -8.056105225616491 8 0 1
611 123 1 0 8.252516262354447 -5.27993426906103 -8.08459094699998 8 0 1
428 86 3 0 -6.762128015680758 -4.534487589397273 -7.8545587246623185 13 0 1
1664 388 4 0 -7.118123507837511 -4.394382649608136 -7.880591263705053 10 0 0
426 86 1 0 -6.336199150398036 -4.626867060695613 -7.891160288393772 13 0 1
429 86 3 0 -6.2234497193813265 -4.635699896283345 -8.313140367882088 13 0 1
427 86 3 0 -6.104858501355882 -4.3250365721245165 -7.677909798082236 13 0 1
1535 345 4 0 -5.689730853566708 -4.291097892178982 -7.567909008994412 10 0 1
1533 345 2 0 -5.300084723929029 -4.1206119479806 -7.422298116215575 10 0 1
1789 430 4 0 -4.017322374616047 -4.307327773684877 -7.871768282986008 31 1 1
377 76 3 0 -4.100124210264412 -4.576966092635406 -7.607751838981419 8 0 1
1788 430 2 0 -3.797746301624443 -3.9869184927743406 -8.092376796080119 31 1 1
1428 310 2 0 -0.47335937589896826 -4.110453172887819 -7.633261178669332 10 0 1
1430 310 4 0 -0.4007983880174901 -4.297888597824096 -8.04246643650314 10 0 1
1388 296 4 0 -4.129638321346328 -2.887253689790672 -7.666273346064264 17 0 0
1790 430 4 0 -3.567724354423725 -3.643747899056799 -8.317990155133693 31 1 1
1257 253 2 0 -0.5621884105728823 -2.979828187375288 -8.091721792209778 12 0 0
1258 253 4 0 -0.7997370542471591 -2.807206007944318 -7.745767377332008 12 0 0
1386 296 2 0 -3.951547700851327 -2.780825524738626 -8.06882787116972 17 0 0
768 154 3 0 2.854449890186684 -0.9838267980924131 -7.633355908028418 10 0 0
1057 212 3 0 6.980523747575939 -0.9420007579146139 -7.6333004077885525 19 0 1
1338 280 2 0 8.289121543037357 -0.9352908171017988 -8.225154383068524 12 0 0
1060 212 3 0 7.469282940666641 -1.2392418607898286 -8.127368358849331 19 0 1
1340 280 4 0 7.874349579735064 -1.1738351607961786 -8.170305322783516 12 0 0
866 174 1 0 -7.621867146246203 -0.32005508923329273 -7.781857431722026 17 0 1
869 174 3 0 -7.744419011304312 -0.6935233464546702 -7.951420370666858 17 0 1
870 174 3 0 -7.996063675875337 -0.09333810563723155 -7.607733164624423 17 0 1
1339 280 4 0 -7.995768572358207 -0.706250859825551 -8.270835766307087 13 0 0
868 174 3 0 -7.422752828593889 -0.06969951254104956 -8.079551118328073 17 0 1
867 174 3 0 -7.336658424912673 -0.40240255120358537 -7.455838330531956 17 0 1
1492 331 4 0 0.971808219062698 -0.4047555998763812 -8.327965867750175 21 0 1
1491 331 2 0 1.3655790442562221 -0.3342985705053003 -8.086750184718468 21 0 1
1493 331 4 0 1.738868586133698 -0.25449938952325013 -7.846054090400714 21 0 1
552 111 3 0 2.0765740951308373 -0.07141174917885706 -7.92928736183032 19 0 1
415 83 3 0 6.322290670512931 -0.1553707720959867 -7.849933625073607 11 0 1
1056 212 1 0 7.191900546604547 -0.8782553579034813 -8.042356094323061 19 0 1
1059 212 3 0 7.444771838189778 -0.4706761003999409 -8.017238049792406 19 0 1
1324 275 4 0 7.621545176016255 -0.33482798854272566 -7.672880507150342 19 0 0
1323 275 2 0 7.9992387215340806 -0.09544366583435604 -7.590016249084894 19 0 0
1090 218 3 0 -3.7041944465100087 -7.7994623634555325 -6.573098296484078 29 1 1
525 105 3 0 4.881490808124468 -6.974572043316104 -7.343050358631898 9 0 1
523 105 3 0 5.605471494774719 -7.155183715849477 -7.21833664176842 9 0 1
1459 320 4 0 5.811963866182527 -7.224101632417693 -6.892066571789961 12 0 0
935 187 3 0 4.03679370460563 -6.460007985809272 -6.545443119260811 29 1 1
933 187 3 0 3.993703688166125 -5.722715916525671 -6.675891311956106 29 1 1
1287 263 2 0 8.232835668705256 -5.90097807576389 -7.0456064971814 11 0 0
1288 263 4 0 8.34021166895015 -5.995636298892943 -6.634927650024076 11 0 0
379 76 3 0 -4.340644495946803 -5.151113575426571 -7.17405010254914 8 0 1
376 76 1 0 -4.157506727806258 -4.723671533542611 -7.178645563306265 8 0 1
380 76 3 0 -3.7681350476284443 -4.731360483891265 -6.965957043035066 8 0 1
1165 233 3 0 2.847128510986444 -5.038910497383856 -7.16095699358573 29 1 1
1394 298 4 0 3.244619580562402 -4.9601337975066055 -7.0764611495027 9 0 0
1392 298 2 0 3.64180892608543 -5.165702443182527 -6.976811364083067 9 0 0
1393 298 4 0 4.021109181559321 -5.372137201641611 -6.860577032607113 9 0 0
1534 345 4 0 -4.919820248678906 -3.9672173560913713 -7.2818769655598246 10 0 1
378 76 3 0 -4.443130107676026 -4.446366267538117 -6.967106557045682 8 0 1
1429 310 4 0 -0.5508244034711947 -3.9318233002865677 -7.219507235754821 10 0 1
1162 233 3 0 2.4063197027596246 -4.539059974594935 -7.36412885068991 29 1 1
469 94 3 0 -4.6785239154844085 -3.6470440510565734 -7.283357166251006 11 0 1
470 94 3 0 -4.369128220924558 -2.9966587754659235 -7.376917112289677 11 0 1
466 94 1 0 -4.361313876000889 -3.3850047509665533 -7.135777402263245 11 0 1
467 94 3 0 -4.421330155860968 -3.281990624804539 -6.703179806373686 11 0 1
468 94 3 0 -3.972843546046283 -3.5838639984162732 -7.1977771632704215 11 0 1
1574 358 4 0 -3.694132264175103 -3.3536138999033334 -6.999691486812576 11 0 1
1572 358 2 0 -3.2764393131059553 -3.2006188004463603 -6.849725664191108 11 0 1
1573 358 4 0 -2.867321784282166 -3.0534355085267473 -6.704228637048076 11 0 1
14 3 3 0 -2.4927632083534226 -3.074117895355582 -6.50689914125867 9 0 0
459 92 3 0 -0.7633263208350742 -3.5984721287912027 -7.240519888685951 10 0 1
458 92 3 0 -1.1250644128361715 -3.1587220219722623 -6.805412556987839 10 0 1
457 92 3 0 -0.6884670539355788 -2.849650563826783 -7.355745200014514 10 0 1
456 92 1 0 -0.748847987409313 -3.2116251720064053 -7.033470558407125 10 0 1
460 92 3 0 -0.4083716051611175 -3.205156521333568 -6.742909390039499 10 0 1
1334 278 4 0 -0.01680749938822501 -3.286563024824673 -6.767606497694419 12 0 0
1505 335 4 0 3.4364540734952786 -2.4281926886730014 -6.893647656796098 10 0 1
264 53 3 0 3.5053409452065196 -2.6433512957606444 -6.528329682843867 12 0 0
1503 335 2 0 3.4230926282268506 -1.9701138241681662 -6.866821317850515 10 0 1
769 154 3 0 2.5452638909122722 -1.4415934642101904 -7.16159516765126 10 0 0
766 154 1 0 2.8573348864378296 -1.1240105712203983 -7.2254929007292885 10 0 0
767 154 3 0 3.2385819470045547 -1.2887994958278428 -7.136825069559866 10 0 0
1504 335 4 0 3.4153814484847356 -1.5117079499406305 -6.840705760971815 10 0 1
1344 282 2 0 -6.781260777717486 -0.3869575145942079 -6.872347674825408 21 0 0
1345 282 4 0 -7.032872435452708 -0.24921253715751135 -7.226451374812647 21 0 0
1346 282 4 0 -6.519021468011418 -0.5138655483465673 -6.5160019392889446 21 0 0
770 154 3 0 2.774191951698759 -0.7609787543841922 -6.93373729337479 10 0 0
1361 287 4 0 2.7555486729030356 -0.6074202475557433 -6.570253815909463 10 0 0
26 6 1 0 4.66258520295162 -0.2885659729763699 -6.674282330597456 9 0 0
28 6 3 0 4.47574842235457 -0.5924663135397479 -6.922309043128046 9 0 0
29 6 3 0 5.126405535487297 -0.35740236513431967 -6.679811192070875 9 0 0
53 11 3 0 -6.882543863182083 -8.318260877198476 -6.141765937048212 13 0 0
1088 218 3 0 -4.0986721325066355 -8.02298698467525 -5.9803493295982495 29 1 1
1086 218 1 0 -3.7489953377144536 -7.760904693515049 -6.123258531731498 29 1 1
1087 218 3 0 -3.3926874507298264 -7.890776729788048 -5.934773972253893 29 1 1
678 136 3 0 -7.508156255106583 -6.596134444793804 -6.251667812060326 29 1 0
1089 218 3 0 -3.820492932497374 -7.338060102881166 -6.013388359371385 29 1 1
1458 320 2 0 5.631817170681954 -7.175579030456825 -6.446999104810146 12 0 0
1460 320 4 0 5.46370939341756 -7.13248435421986 -6.040080623289892 12 0 0
677 136 3 0 -8.032190307157736 -6.102506247481708 -6.433372390128011 29 1 0
676 136 1 0 -7.689563006686084 -6.176384011809206 -6.160165233600402 29 1 0
680 136 3 0 -7.837218142227669 -6.1650993901400675 -5.731138780804438 29 1 0
679 136 3 0 -7.381873361107086 -5.861594051317776 -6.222118397917569 29 1 0
932 187 3 0 3.686293521895493 -6.010045461145129 -6.089864567757318 29 1 1
934 187 3 0 4.401976707247316 -5.966429017070433 -6.109976092222821 29 1 1
931 187 1 0 4.025562909055088 -6.040615713405762 -6.353358496493338 29 1 1
764 153 3 0 6.8493301962149165 -4.762174707805073 -5.940900394032351 9 0 0
1600 367 4 0 -4.0414461943525515 -3.7154951447808546 -5.605760884190198 10 0 1
761 153 1 0 7.132818313082053 -4.615712142166025 -5.6487664080476065 9 0 0
763 153 3 0 7.453206989113381 -4.3746845484007535 -5.859066541993503 9 0 0
1706 402 4 0 -6.195479693000005 -2.841381185883857 -5.842391820793684 31 1 0
1601 367 4 0 -4.169945182917242 -3.506837237505744 -6.481378057700325 10 0 1
1599 367 2 0 -4.103115001836183 -3.615123339984363 -6.0335230596301574 10 0 1
11 3 1 0 -2.2560072571305767 -2.9699551309851664 -6.117180835315601 9 0 0
12 3 3 0 -2.19688461667542 -3.3518970774334846 -5.872718397139979 9 0 0
13 3 3 0 -1.8328635102719524 -2.794011032362194 -6.234873293898049 9 0 0
1332 278 2 0 0.1404745530079996 -3.2709177844188773 -6.365705569718481 12 0 0
1333 278 4 0 0.2988599706429014 -3.2490012635888057 -5.957576053804934 12 0 0
307 62 3 0 0.12600943025742417 -3.0940056018030475 -5.607279224579389 12 0 0
1414 305 4 0 2.2246881728304206 -3.307934314239743 -5.893717266706617 11 0 0
1413 305 2 0 2.6626702669085365 -3.1932248607662697 -5.874921837606191 11 0 0
1415 305 4 0 3.091307165619673 -3.0817841365986895 -5.855886064055422 11 0 0
263 53 3 0 3.473287389128071 -3.1645260354342497 -6.000945429135827 12 0 0
265 53 3 0 4.101063327718018 -2.806260170848679 -6.106512715756949 12 0 0
532 107 3 0 -6.9395247251324275 -2.048085211316205 -5.927428403715609 11 0 0
535 107 3 0 -6.464098813902682 -2.2737826784807353 -6.463877503860388 11 0 0
531 107 1 0 -6.504835596159141 -2.165446769572407 -6.002304667009726 11 0 0
534 107 3 0 -6.404884936198631 -2.5230653821003095 -5.758179437198415 11 0 0
15 3 3 0 -2.4846656554793443 -2.6683057639483936 -5.871671139465242 9 0 0
1622 374 4 0 -1.4913884261542654 -2.664421973746393 -6.052430423543595 13 0 0
1621 374 4 0 -0.6763059013067219 -2.694272529455011 -5.760889216958484 13 0 0
1620 374 2 0 -1.0922929960002952 -2.6799333769104807 -5.907798620406165 13 0 0
261 53 1 0 3.6525534920590026 -2.7720404143418325 -6.109155457505861 12 0 0
262 53 3 0 3.537606848402593 -2.4687734798255203 -5.809903076868591 12 0 0
1961 487 4 0 4.39867436807919 -2.5589582310108954 -6.077291729120438 30 1 1
1959 487 2 0 4.608589422355141 -2.188767211625861 -6.009324811732733 30 1 1
172 35 3 0 -6.863634614100255 -1.1353479969210483 -5.663947873330683 13 0 0
533 107 3 0 -6.235396567885841 -1.8372147700381127 -5.8986052023620035 11 0 0
794 159 3 0 -4.108145944659961 -1.6056131515765522 -5.847700545960752 27 0 0
791 159 1 0 -4.057173897537291 -1.1711206513410772 -6.0362661743591 27 0 0
795 159 3 0 -4.14515025988248 -1.1884184549533119 -6.462922230768552 27 0 0
793 159 3 0 -3.628162222288788 -1.037654386417012 -5.961411895803751 27 0 0
1960 487 4 0 4.831896534121686 -1.7954884388763013 -5.933679200189868 30 1 1
180 36 3 0 4.936348732013537 -1.4092832486403912 -5.9319750908789945 3 -1 0
171 35 1 0 -6.650372033487429 -0.7612158762590138 -5.753636822937501 13 0 0
175 35 3 0 -6.902294030025065 -0.4093176049394911 -5.628486939897135 13 0 0
174 35 3 0 -6.555559698098126 -0.7387130345003943 -6.189959817970277 13 0 0
792 159 3 0 -4.328120852871629 -0.8965288783409893 -5.852633760385718 27 0 0
1360 287 4 0 2.608745591408665 -0.8797150803635931 -5.70292671963793 10 0 0
1359 287 2 0 2.684420628636193 -0.7409147527378961 -6.1396963635323605 10 0 0
30 6 3 0 4.518623249882628 -0.3237150156794151 -6.250876024467105 9 0 0
1266 256 2 0 4.069604931118157 -0.6374916865871985 -5.786228680897987 10 0 0
1267 256 4 0 4.395653704190256 -0.6731061412143138 -6.090506552392942 10 0 0
1155 231 3 0 -5.540515644748133 -8.15121954384199 -5.1813921652584165 32 1 1
773 155 3 0 -8.18186152632844 -4.9637523914242365 -4.781889750390112 28 1 0
762 153 3 0 7.321061060296817 -4.983807970570677 -5.441417847123767 9 0 0
1375 292 4 0 7.347480341346445 -5.301245698316834 -5.228886276189685 7 0 0
1374 292 2 0 7.767910170037453 -5.2425491056379245 -5.034701105201424 7 0 0
1376 292 4 0 8.18674449836189 -5.1777738724578075 -4.832031919282106 7 0 0
772 155 3 0 -7.8324155896178445 -4.534191991368385 -5.242581536453756 28 1 0
771 155 1 0 -8.034686084998576 -4.56426280001896 -4.848472288304949 28 1 0
1381 294 4 0 -1.7654132226427262 -3.7730570403598334 -4.704263914580275 12 0 0
765 153 3 0 6.920093693345278 -4.3529991615715975 -5.338655526030245 9 0 0
775 155 3 0 8.309663783309546 -4.27013754014389 -4.8304729140080465 27 1 0
1705 402 4 0 -6.057919791826004 -3.2390441967107115 -5.046237667224028 31 1 0
1704 402 2 0 -6.124744978287291 -3.051446025098336 -5.43078733463479 31 1 0
278 56 3 0 -5.854220534942527 -3.0856192117851835 -4.7291335894580335 11 0 0
1382 294 4 0 -2.039840775782496 -3.436944830618202 -5.500560369942275 12 0 0
1380 294 2 0 -1.9058080704492184 -3.5952937565149607 -5.123852474176858 12 0 0
309 62 3 0 -0.26064843584947894 -3.1804674087590614 -5.000225324419157 12 0 0
306 62 1 0 -0.05848926294037149 -2.879692059040014 -5.317998218731456 12 0 0
93 19 3 0 2.0185097233194593 -3.234192057708519 -5.542158020733539 12 0 0
92 19 3 0 1.6048989975423975 -3.5526369831522304 -4.996726504920455 12 0 0
91 19 1 0 1.9219807217990397 -3.2221280548634894 -5.089800898678574 12 0 0
94 19 3 0 1.7537345232310084 -2.847079713557868 -4.980108899584046 12 0 0
95 19 3 0 2.325301696639558 -3.312089057938074 -4.8459690072881365 12 0 0
1639 380 4 0 2.719695367683464 -3.3362395940107348 -4.7499303319087876 11 0 0
1638 380 2 0 3.175324077260452 -3.375233554018525 -4.884738687727914 11 0 0
1640 380 4 0 3.6233250840502134 -3.4227631142815165 -5.0030841432640605 11 0 0
1175 235 3 0 4.031166634627587 -3.4976000252037043 -4.957083553621329 33 1 0
1172 235 3 0 4.667214800428546 -3.259081655495941 -4.664844158346812 33 1 0
1972 491 4 0 4.767446479000446 -2.855129622159378 -4.67421985282888 16 0 0
308 62 3 0 -0.38389803564574354 -2.6208366931774796 -5.507289884430047 12 0 0
310 62 3 0 0.24521785787843875 -2.5936261184810956 -5.1001357180908204 12 0 0
1294 265 4 0 0.5691040845229978 -2.432734899842405 -5.2717109980085715 12 0 0
1293 265 2 0 1.0000272179738072 -2.5283197036732012 -5.180019291785709 12 0 0
1295 265 4 0 1.4369669620801861 -2.6156714912509234 -5.081603331836975 12 0 0
1510 337 4 0 1.789713757317024 -2.4727997131745445 -5.110076074889123 11 0 1
1509 337 2 0 2.1152100919547614 -2.1194344892155206 -5.038069517840001 11 0 1
131 27 1 0 3.262981942101044 -1.919932009966292 -4.904419063625692 8 0 0
133 27 3 0 3.3250952418243465 -2.3614206526121952 -4.859809122543298 8 0 0
1384 295 4 0 -6.008458359723615 -1.760037541340906 -5.557977020412602 10 0 0
1385 295 4 0 -6.1313286561032125 -1.4566535103797618 -4.710540684407128 10 0 0
1383 295 2 0 -6.064214852230759 -1.616886114522214 -5.1527350756783425 10 0 0
50 10 3 0 -0.6910749292081242 -1.8247605447852662 -4.7344693421269675 11 0 0
47 10 3 0 -1.1890030600955273 -1.4295678146288697 -5.096232516310222 11 0 0
46 10 1 0 -0.7490346886733636 -1.48011505058175 -5.019965480585763 11 0 0
48 10 3 0 -0.5284451146717597 -1.5633005934034703 -5.421111233793485 11 0 0
49 10 3 0 -0.5895045838707915 -1.120320992488975 -4.838160504263786 11 0 0
132 27 3 0 2.8188540254553747 -1.8229750191681706 -4.889050154821899 8 0 0
1511 337 4 0 2.4285146392515387 -1.7752472468582443 -4.975299654491431 11 0 1
134 27 3 0 3.4316964395726117 -1.7847641556522618 -5.295881815705459 8 0 0
1135 227 3 0 3.4320892358360027 -1.0859842794287982 -4.962832296624297 30 1 1
1337 279 4 0 3.804021342913476 -1.0445274498861155 -4.804461786664369 10 0 0
1335 279 2 0 4.2181051881634435 -1.2291871918867905 -4.8232551341205285 10 0 0
1336 279 4 0 4.631434627366831 -1.4096375872775306 -4.839014324322485 10 0 0
177 36 3 0 4.818370459628417 -1.4445514270099604 -5.196847808307369 3 -1 0
176 36 1 0 5.0883855833626335 -1.2952297248280722 -5.503720787227515 3 -1 0
179 36 3 0 5.505421223060861 -1.475049506439432 -5.432751428046236 3 -1 0
173 35 3 0 -6.272022741693304 -0.7497910439339721 -5.519978948511145 13 0 0
1133 227 3 0 2.8201322797834045 -0.8967528662475299 -5.3504212624382355 30 1 1
1132 227 3 0 3.0018447219119135 -0.5549124617011412 -4.726068830706225 30 1 1
1268 256 4 0 3.737168697082918 -0.5959989322934529 -5.496976038396439 10 0 0
1131 227 1 0 3.1641069824347774 -0.7341139159061125 -5.084251719562871 30 1 1
1134 227 3 0 3.4185853108340627 -0.4210483014163673 -5.3272700829167 30 1 1
178 36 3 0 5.116165001047536 -0.8554558654871851 -5.468339027524699 3 -1 0
116 24 1 0 -7.631863747215614 -7.722657352166956 -3.7809204829261347 12 0 0
119 24 3 0 -7.90432526300155 -7.664878606203522 -4.127522241260338 12 0 0
117 24 3 0 -7.315591723333835 -8.03806453448449 -3.8902992774522165 12 0 0
1855 452 4 0 -7.09856621885875 -8.0707967302615 -4.238611642694088 8 0 0
1854 452 2 0 -6.702950522547908 -8.22225324103539 -4.372348857877883 8 0 0
1152 231 3 0 -5.922551775347538 -8.33994521319654 -4.581919061193554 32 1 1
810 162 3 0 5.021089756878322 -8.036797146618824 -4.188695983200819 26 1 0
806 162 1 0 5.147072730117415 -7.821184697799141 -3.814223478119981 26 1 0
808 162 3 0 5.29852790943092 -7.38905617454171 -3.931441846054751 26 1 0
1427 309 4 0 -7.871045477804807 -5.722026117979311 -3.845022974232271 8 0 0
1007 202 3 0 -6.896334039792249 -5.9777541466076345 -4.008032997228506 9 0 0
1425 309 2 0 -8.068351068198524 -5.493159088227845 -4.179408441556389 8 0 0
1426 309 4 0 -8.281639836263384 -5.256805127268694 -4.516343229314565 8 0 0
369 74 3 0 1.900881508529885 -5.474127472613359 -3.7177921174896165 9 0 0
1313 271 4 0 -7.685771853940256 -4.358977196720005 -4.14092050091549 12 0 0
774 155 3 0 -7.740596842002055 -4.459782464719282 -4.539883296980129 28 1 0
1311 271 2 0 -7.4392156871764055 -4.280780150816897 -3.7862757329255725 12 0 0
1750 417 4 0 -1.6213546546531 -4.095215283082242 -3.7237337681616474 12 0 0
609 122 3 0 -1.4394119668134122 -3.8034139277768375 -3.9294715953597485 10 0 1
1678 393 4 0 4.2587224812463855 -3.7216409807867112 -3.8870158004056687 11 0 0
1173 235 3 0 4.270940407587682 -3.76154768597511 -4.336621386484549 33 1 0
1604 368 4 0 -7.528240946292629 -3.2277725096751144 -3.721304864075168 12 0 1
1603 368 4 0 -6.727086644436187 -3.1511255053657887 -4.108360759702823 12 0 1
1602 368 2 0 -7.120853139768064 -3.1911287531199193 -3.9197166954589004 12 0 1
280 56 3 0 -6.336924550280894 -3.0819059775582076 -4.212702457813778 11 0 0
276 56 1 0 -5.959964421445173 -2.9350334860164287 -4.32148618320502 11 0 0
279 56 3 0 -5.6356070411581936 -3.0837611809883043 -4.009423977808443 11 0 0
1479 327 2 0 -4.846043807765875 -2.8489501937078687 -4.035395269140822 11 0 0
1480 327 4 0 -5.2760726200112895 -2.9208349021936595 -4.16224694140891 11 0 0
1481 327 4 0 -4.440043357646614 -2.7940006474838253 -3.9158665841843154 11 0 0
723 145 3 0 -3.609650593209456 -3.07193567648266 -3.936332288990654 34 1 0
608 122 3 0 -1.8413511848639814 -3.461680380804287 -4.4560717511386425 10 0 1
606 122 1 0 -1.6224552242896868 -3.397215809630688 -4.07097450769966 10 0 1
610 122 3 0 -1.9104581998840358 -3.2371298564022712 -3.7639162226594802 10 0 1
607 122 3 0 -1.293558081181171 -3.0938952652060667 -4.140925798635962 10 0 1
1735 412 4 0 -0.9438445171770589 -2.859626763127565 -4.162453715582343 31 1 0
1813 438 4 0 2.466779861358912 -3.5235683615670705 -4.526122415076697 13 0 0
1812 438 2 0 2.4424114556222687 -3.3596301445333916 -4.1038394178937985 13 0 0
1171 235 1 0 4.249818611693682 -3.415020778657629 -4.567600934243553 33 1 0
1174 235 3 0 4.024834737900202 -3.0874439241909446 -4.327636168476683 33 1 0
748 150 3 0 -7.995701885278367 -2.1137204823111597 -3.957919522322152 15 0 0
1279 260 4 0 -7.718868998452188 -1.8779813731109023 -4.11302935305522 24 0 0
277 56 3 0 -5.97007783838858 -2.4772539942457206 -4.337040963382188 11 0 0
724 145 3 0 -4.142303348000199 -2.5741402383706085 -3.8063674196049275 34 1 0
721 145 1 0 -3.71839893058411 -2.6859430804694444 -3.7298507736505258 34 1 0
725 145 3 0 -3.464081020451748 -2.376403186583234 -3.869592632159672 34 1 0
1736 412 4 0 -0.9482646061913895 -2.0619543973579164 -4.579052495217956 31 1 0
1734 412 2 0 -0.9422321058151404 -2.4696136446172723 -4.3635207623688235 31 1 0
1709 403 4 0 3.9872981129368803 -2.774441378816636 -4.089286646876153 10 0 0
1971 491 2 0 5.161491590265749 -2.6823600046408007 -4.547693957416607 16 0 0
1973 491 4 0 5.557509395219816 -2.5017059594085804 -4.410243499656991 16 0 0
579 116 3 0 5.94408781747725 -2.4488984516699857 -4.381973250891047 14 0 0
576 116 1 0 6.129437667280042 -2.305172995005978 -3.9685382230319943 14 0 0
580 116 3 0 6.545717387449033 -2.504887217365349 -3.915361421514846 14 0 0
1926 476 2 0 7.219259767078974 -2.343436849123635 -3.768957349588616 15 0 0
750 150 3 0 7.990784330719816 -2.2389844802101804 -3.889288983693773 14 0 0
1927 476 4 0 7.607689111648073 -2.2559500189872326 -3.9489213560335203 15 0 0
1280 260 4 0 -7.109768637147008 -1.3037018762976746 -3.7567670743166532 24 0 0
1278 260 2 0 -7.41728996364711 -1.5869611468654057 -3.937738236130783 24 0 0
434 87 3 0 -6.769609697889248 -1.1417775865973274 -3.905949417778297 4 -1 1
435 87 3 0 -6.350373593713565 -1.7378945887760535 -3.744910424586303 4 -1 1
432 87 3 0 -6.2231773267809825 -1.3335453036335858 -4.349955923457091 4 -1 1
431 87 1 0 -6.350385208029371 -1.31495510331637 -3.9278213682424408 4 -1 1
1657 386 4 0 -5.711838393036313 -1.2379705302349349 -3.817234236701971 23 0 0
1658 386 4 0 -4.833786527897027 -1.0911550998925472 -3.7386595097518196 23 0 0
1656 386 2 0 -5.280912212280722 -1.1657232700211928 -3.7776155028976417 23 0 0
135 27 3 0 3.486721284903183 -1.6976035135965368 -4.558546592688163 8 0 0
577 116 3 0 6.18234733470028 -1.8492969074822128 -3.9716052863756186 14 0 0
19 4 3 0 4.761166115140723 -0.47981799011963666 -3.888375714030164 10 0 0
120 24 3 0 -7.8638590921293146 -7.870212267093821 -3.4251464755363497 12 0 0
1575 359 2 0 -5.745171045790968 -7.518823752563963 -2.9235493387113625 9 0 1
1577 359 4 0 -5.708964180141464 -7.850070918078482 -3.253733827137242 9 0 1
215 43 3 0 -5.449155276351998 -8.100399943011363 -3.0682650965173757 10 0 0
807 162 3 0 4.806218596811535 -7.7896592830287235 -3.5445884520282114 26 1 0
809 162 3 0 5.47172143058182 -8.04120060274006 -3.6222742469818447 26 1 0
118 24 3 0 -7.418683319674807 -7.3305923877799 -3.6745626035767467 12 0 0
1010 202 3 0 -7.532467855630928 -5.808847591762243 -3.6179504989620845 9 0 0
1008 202 3 0 -7.037789352329927 -6.230349819892359 -3.3148615103526895 9 0 0
1006 202 1 0 -7.09261019137946 -5.888292677904251 -3.5753391371116674 9 0 0
367 74 3 0 1.9841730536526327 -6.160432818332399 -3.537218066097921 9 0 0
366 74 1 0 2.0498629842619707 -5.75152664617184 -3.403420939737938 9 0 0
370 74 3 0 1.8128631743227643 -5.6770554737041685 -3.0161121506415656 9 0 0
368 74 3 0 2.5147453515905287 -5.673851197541456 -3.3275047726211024 9 0 0
570 114 3 0 7.745534457542167 -5.8175533752241 -3.0514164440360876 7 0 0
1301 267 4 0 -7.590282643772549 -4.817709947263593 -2.881494891469048 9 0 0
1299 267 2 0 -7.940305010582024 -5.060970175537452 -2.810365994094873 9 0 0
1009 202 3 0 -6.885269284804126 -5.508773077561097 -3.376177411995637 9 0 0
249 50 3 0 -7.19405324705666 -4.870489174306283 -2.8002975848024345 10 0 0
1642 381 4 0 -6.53990889236088 -5.326678052717011 -3.3634764752227877 30 1 0
1641 381 2 0 -6.154348622633793 -5.183107184945582 -3.1397378531359763 30 1 0
1643 381 4 0 -5.774809364553047 -5.045821710420792 -2.9164599148064028 30 1 0
995 199 3 0 -5.3893155321114445 -5.0917716003937965 -2.816623070830044 12 0 0
899 180 3 0 -2.611788748932386 -4.841138680884322 -3.292245581984332 17 0 0
1751 417 4 0 -2.2540614045500735 -4.7013753064550805 -3.404834905248455 12 0 0
1348 283 4 0 2.875770658365127 -5.456203162052688 -3.371120449386856 12 0 0
1347 283 2 0 3.329415556814853 -5.441768220831678 -3.1560201566862656 12 0 0
1349 283 4 0 3.729929990022111 -5.416538269089541 -2.958942943599272 12 0 0
997 200 3 0 4.695883801223934 -5.067441218122848 -2.850210308150568 11 0 0
998 200 3 0 4.082271551395042 -5.368172438650565 -3.1221088191621655 11 0 0
1000 200 3 0 4.66630158149114 -5.3041855785850505 -3.5330014211911127 11 0 0
996 200 1 0 4.4317745160619175 -5.111968115468713 -3.221298504339689 11 0 0
999 200 3 0 4.286026728707478 -4.688370711519944 -3.3781872640366686 11 0 0
1570 357 4 0 5.1006943502398485 -5.048587147738511 -2.865854955727835 16 0 0
618 124 3 0 -7.8402532299677326 -3.817977920812865 -3.068095962815786 17 0 0
1312 271 4 0 -7.171964457523357 -4.1856648248419 -3.395729075227214 12 0 0
247 50 3 0 -6.879688519565091 -4.277252149316419 -3.1135397324939333 10 0 0
1873 458 4 0 -4.621971337675798 -4.274347514065767 -2.8479404877245056 9 0 0
900 180 3 0 -3.11850127803487 -4.334471528477023 -3.162498883748552 17 0 0
557 112 3 0 -3.110948485041164 -3.8248005869513264 -2.9208805882453337 9 0 0
896 180 1 0 -2.8398770598440217 -4.629578498410686 -2.9727416629938963 17 0 0
1749 417 2 0 -1.9335181900344427 -4.39820084832207 -3.562695376622856 12 0 0
1677 393 2 0 4.420147458744589 -4.0684673906138356 -3.660151290167269 11 0 0
1679 393 4 0 4.577444426754363 -4.400572801262274 -3.4436515617786414 11 0 0
833 167 3 0 6.029397179293332 -3.7845316859368427 -2.8872182824173613 30 1 0
834 167 3 0 6.722461714192935 -3.962620010262028 -2.9558511410602772 30 1 0
1363 288 4 0 7.087307521057911 -3.7600509604313572 -2.85601057475468 10 0 0
617 124 3 0 -7.769900946840965 -3.1672393663501452 -2.813854099941989 17 0 0
620 124 3 0 -7.865121687292634 -3.2569948895237273 -3.541769517214984 17 0 0
616 124 1 0 -7.969607130048333 -3.4035126738151416 -3.1149957869025062 17 0 0
1262 254 4 0 -2.8279389987193992 -3.6206353336127677 -3.136493764582166 11 0 0
1260 254 2 0 -2.4990007978035553 -3.343626420626083 -3.3332610028138046 11 0 0
1261 254 4 0 -2.1912208800448214 -3.0844879761719612 -3.5138781401667867 11 0 0
1814 438 4 0 2.41121336255382 -3.1977778865858024 -3.676349379685665 13 0 0
268 54 3 0 2.677391130110511 -3.3346212010227276 -3.4235029293702706 10 0 0
266 54 1 0 2.8941128436218353 -3.2829863956191794 -3.0175794862769942 10 0 0
270 54 3 0 2.719162340278487 -2.928616122122664 -2.8025023220576815 10 0 0
267 54 3 0 3.3304591764770137 -3.2151555094523596 -3.08340392148928 10 0 0
1708 403 4 0 3.6424007686452846 -3.0323263488662944 -3.2852453476841905 10 0 0
1707 403 2 0 3.8178116349441353 -2.8997822061762815 -3.691136277807469 10 0 0
1860 454 2 0 5.852404573657784 -3.1350153192467287 -3.265582945774983 20 0 0
1862 454 4 0 5.808196351640305 -3.4614052891341913 -2.960455932727583 20 0 0
1861 454 4 0 5.894220621617139 -2.808139660866729 -3.5610678901534705 20 0 0
1362 288 2 0 7.48472355861983 -3.597669937873894 -2.992239595080793 10 0 0
1364 288 4 0 7.870142065985156 -3.430471006094063 -3.1195943950664766 10 0 0
619 124 3 0 8.274061481706166 -3.37513150235109 -3.056086461287075 16 0 0
749 150 3 0 -8.202624413752691 -2.6027750775891665 -3.4941487836508047 15 0 0
746 150 1 0 -8.299739994236361 -2.2192896554379518 -3.678094038691392 15 0 0
747 150 3 0 -8.320469498521234 -1.9186881649986978 -3.3843419073122396 15 0 0
722 145 3 0 -3.6478699090768476 -2.733186902026006 -3.274646146392671 34 1 0
578 116 3 0 5.851316324231178 -2.4166053220236936 -3.6397943355054556 14 0 0
1928 476 4 0 6.792217725938219 -2.4384524813261255 -3.582772953569825 15 0 0
433 87 3 0 -6.056134706747185 -1.050851465822448 -3.6831730509059835 4 -1 1
962 193 3 0 -4.268347432480203 -1.274410487907904 -3.1342876589550492 23 0 0
157 32 3 0 0.6780839088942638 -1.3318258124213296 -3.1237876433948344 17 0 0
965 193 3 0 -4.568631547767458 -0.803556816423316 -3.6477440396775282 23 0 0
964 193 3 0 -3.966598832439624 -0.5633132733022368 -3.239742389224336 23 0 0
963 193 3 0 -4.664285121935686 -0.6503097125362123 -2.937150663392014 23 0 0
961 193 1 0 -4.376664534965979 -0.8196477062961023 -3.248488501381516 23 0 0
20 4 3 0 4.4735700841912305 -0.4129005947579474 -3.213592657301163 10 0 0
17 4 3 0 5.028335641074396 -0.8356269209525395 -3.327210031468719 10 0 0