LAMMPS data file via write_data, version 19 Nov 2024, timestep = 1000000, units = lj

79 atoms
4 atom types
54 bonds
1 bond types

-3.045986 3.045986 xlo xhi
-3.045986 3.045986 ylo yhi
-3.045986 3.045986 zlo zhi

Masses

1 1
2 1
3 0.1
4 0.1

Bond Coeffs # zero

1 0

Atoms # bond

19 5 4 -1.187103767991663 -1.2428937061269134 -1.5260606976344062 0 0 1
70 22 4 -0.7589610380875254 -1.865069139382446 -2.8092666060046896 0 0 1
3 1 3 -1.8603717778500912 -0.690581857886284 -3.029728937393705 0 0 1
18 5 4 -1.2148009425619453 -0.687635065721381 -2.357277100730183 0 0 1
2 1 3 -1.3667696908703661 -0.36115229224689743 -2.568498906919183 0 0 1
17 5 2 -1.2009523552768042 -0.9652643859241472 -1.9416688991822946 0 0 1
1 1 1 -1.4473185626232015 -0.48059847301571074 -3.005356422774122 0 0 1
68 22 2 -0.7758751730181257 -1.3706306963338273 -2.8816857890663043 0 0 1
66 21 4 -2.044237874694972 -1.2460769260276272 -0.5136657972007792 1 -1 1
21 6 4 -2.1047743267721697 -0.8756650040350119 -0.3948202029997533 0 -1 1
65 21 2 -1.7572729599750205 -1.1477139597040695 -0.9111275747035955 1 -1 1
67 21 4 -1.4703080452550692 -1.0493509933805116 -1.3085893522064123 1 -1 1
69 22 4 -0.792789307948726 -0.8761922532852089 -2.954104972127919 0 0 1
22 6 4 -1.966134852902792 -0.6690032737246462 0.5737199487288035 0 -1 1
58 18 4 -2.0598728239770816 -0.686729799022571 0.9539523640824018 1 -1 1
56 18 2 -1.8298485150890655 -0.3128533440924338 1.1933374383233188 1 -1 1
20 6 2 -2.035454589837481 -0.772334138879829 0.08944987286452527 0 -1 1
62 20 2 -0.20517176178042573 -2.273059864095767 2.837925092972168 0 -1 0
4 1 3 -1.4484452240831387 -0.09790086561870448 2.824239374176863 0 0 0
36 11 4 -0.37377243744322614 -0.35369654673697465 2.958855492329941 0 0 0
35 11 2 -0.0018259153186020742 -0.40088857773755887 2.628055406342392 0 0 0
5 1 3 -1.1201557680735401 -0.7644664496246387 2.9459618260555995 0 0 0
63 20 4 -0.6630439363021602 -2.1126266286618645 2.958814500146061 0 -1 0
27 8 4 -0.04573683849755625 0.32058821605554244 -0.28951007491936953 -1 -1 0
57 18 4 -1.59982420620105 0.06102311083770312 1.432722512564236 1 -1 1
78 25 4 -0.29364753500265217 0.885949269630046 0.8973495335281005 0 0 1
77 25 2 -0.12533021353664248 0.7550095105565574 0.44510617117958445 0 0 1
45 14 4 -0.6548554684459339 0.7820154220441793 0.8363861681329458 0 0 1
44 14 2 -1.0196834050029333 0.5856559906102441 1.116285347114629 0 0 1
46 14 4 -1.3845113415599326 0.38929655917630884 1.3961845260963122 0 0 1
33 10 4 -1.8738329426169478 1.1531970923104273 2.623711161605944 0 0 0
32 10 2 -1.6969348973469303 0.6859025091083681 2.6051948420573816 0 0 0
73 23 4 -2.2408812211246865 1.1729399154735403 2.7849010523527866 0 0 0
34 10 4 -1.520036852076913 0.21860792590630906 2.58667852250882 0 0 0
71 23 2 -2.469677342343695 1.593195758400942 2.6398584330975163 0 0 0
72 23 4 -2.6984734635627037 2.0134516013283434 2.494815813842246 0 0 0
55 17 4 -2.8592537417015693 2.0500744054788558 2.118810607265823 0 0 0
13 3 4 0.4513435937908482 -2.1799417806967343 -2.673588183474461 -1 0 0
11 3 2 0.5231453905978304 -2.3307055305863447 -2.2022976216184147 -1 0 0
12 3 4 0.5949471874048126 -2.481469280475955 -1.731007059762368 -1 0 0
43 13 4 0.5327852490643687 -1.8687822469643092 -2.8937971639604934 -1 0 1
24 7 4 0.8182693885795549 -2.8122665132471196 -1.6575956948476112 -1 0 1
64 20 4 0.2527004127413087 -2.4334930995296697 2.7170356857982747 0 -1 0
41 13 2 0.8334608754675765 -1.8262559328641068 2.8009523791011475 -1 0 0
42 13 4 1.1341365018707843 -1.7837296187639038 2.4037299221627877 -1 0 0
16 4 4 0.42240976917560763 -2.7525682276371133 2.533657715684991 -1 0 0
49 15 4 1.4127148788255985 -1.519144716175149 2.2884741323527313 -1 0 0
47 15 2 1.4549015840285369 -1.074037073825878 2.0646450265010134 -1 0 0
61 19 4 1.5213946402044105 -0.4180952296397975 2.1906176268891286 0 0 -1
37 11 4 0.37012060680602243 -0.44808060873814337 2.2972553203548425 0 0 0
48 15 4 1.4970882892314754 -0.6289294314766072 1.8408159206492951 -1 0 0
59 19 2 1.5738127953840693 -0.030814305846452755 1.8787429355892007 0 0 -1
31 9 4 0.5639940295203039 0.8491779627056782 -2.7197951462475007 0 -1 1
40 12 4 0.31062002678441736 0.7341936843915189 -2.402175900558505 0 0 1
38 12 2 0.24426120727847586 0.7989231861117598 -1.910844445549974 0 0 1
39 12 4 0.17790238777253425 0.8636526878320008 -1.419512990541443 0 0 1
26 8 2 0.025585757607194743 0.42081109836383035 -0.7741423697023948 -1 -1 0
28 8 4 0.09690835371194577 0.5210339806721183 -1.2587746644854203 -1 -1 0
25 7 4 0.40483879808943013 2.4205113386058748 -1.35616483604791 -1 -1 1
23 7 2 0.6115540933344925 2.8501084126793774 -1.5068802654477604 -1 -1 1
79 25 4 0.04298710792936741 0.6240697514830691 -0.007137191168931634 0 0 1
52 16 4 2.0572097249735117 2.3861339032541764 2.0708109018893675 0 0 0
74 24 2 1.230980006654483 1.0857707765899742 1.804791979794429 0 0 -1
75 24 4 1.0108599009072585 1.5343369883185691 1.8231084407364473 0 0 -1
76 24 4 1.451100112401707 0.6372045648613796 1.7864755188524106 0 0 -1
30 9 4 0.26979314245829566 1.0678790615881457 2.441792165895047 0 -1 0
8 2 3 0.2982433284451691 1.4744520010393563 2.4442411006626386 0 0 -1
29 9 2 0.41689358598929976 0.9585285121469119 2.9069845098237734 0 -1 0
60 19 4 1.6262309505637282 0.35646661794689205 1.5668682442892723 0 0 -1
10 2 3 0.6225273236307264 1.6855121109756976 1.7983359060244641 0 0 -1
15 4 4 0.13564304423311635 2.5204921137757395 2.0365173523115883 -1 -1 0
9 2 3 0.17000232740959798 2.167156799592026 2.1590844635034556 0 0 -1
6 2 1 0.4831647250200694 1.828242899435657 2.2077330092558363 0 0 -1
7 2 3 0.8437492610768366 1.9914807550056792 2.442109191633196 0 0 -1
51 16 4 1.2205327399417962 2.0175471393018243 2.475922516332382 0 0 0
14 4 2 0.279026406704362 2.929947943069313 2.28508753399829 -1 -1 0
50 16 2 1.638871232457654 2.201840521278 2.2733667091108747 0 0 0
54 17 4 2.284249199147501 2.26091930191185 2.3553499771007824 -1 0 0
53 17 2 2.758483728722966 2.155496853695353 2.2370802921833026 -1 0 0

Velocities

19 -0.033190907276951925 -0.32191617297250574 -0.10238113982288571
70 -0.2984626735836583 0.14213947881628922 -0.44253544438465897
3 0.6089981257341077 -0.21560125322363577 -0.3759563493437199
18 -0.33667051001256165 0.13098752983126988 0.2102741696982364
2 0.11874434198600134 0.15775789366676718 -0.11796198350038839
17 -0.18493070864475677 -0.09546432157061796 0.053946514937675376
1 0.3601383805607733 0.2521410139564249 -0.18827717687090004
68 -0.08270331070136538 0.23602466688225426 0.14806861144874003
66 -0.6295998708216003 0.33548131348170945 -0.5486578682899593
21 0.860094321918944 -0.3074705778005749 -0.10261754117205776
65 -0.04882817001613425 0.16146525874902362 -0.1724094471171523
67 0.5319435307893324 -0.012550795983662266 0.20383897405565474
69 0.13305605218092745 0.3299098549482192 0.7386726672821389
22 -0.6945414824110047 0.1041977832011605 0.03207774630706378
58 1.2294986225852578 -0.9598606126838467 -0.3753377744418769
56 -0.05516165559155957 -0.4694343620963779 0.09313029953806123
20 0.08277641975396942 -0.10163639729970719 -0.0352698974324972
62 -0.089369062834857 0.013657093467300735 -0.3090439086733414
4 -0.02100305709195882 0.36353198069463905 -0.02416750028983214
36 0.6814292513876176 -0.8392434210251647 1.173711732443925
35 0.14470891440694827 -0.0951080663092722 0.4640730976137788
5 0.7219820381423216 0.6913257752404195 -0.23298773230499709
63 -0.4782739150064411 -0.31795957852196394 -1.3419414772351765
27 0.2899127836114483 0.6056999821211343 0.08704055097660697
57 -1.3398219337683768 0.020991888491089683 0.5615983735179984
78 -1.1538042201674017 -1.1913159095177477 -0.10568966697796316
77 -0.1894291672672549 -0.10941208836035182 -0.06001337445597559
45 0.3717296975097072 -0.48593785457579275 -0.12532126464781312
44 0.08294409456056442 0.007320671210990113 -0.15569324354678382
46 -0.20584150838857837 0.500579196997773 -0.18606522244575452
33 0.2115144516868635 -0.20766209589286183 -0.40523388881939404
32 0.027111920982366304 -0.2761860925493288 -0.4376136911864074
73 -0.5492829636013057 -0.4670683706324681 0.45729805918514
34 -0.1572906097221309 -0.3447100892057957 -0.4699934935534208
71 0.11001723680257143 -0.17010384760199312 0.27773530198079693
72 0.7693174372064486 0.12686067542848214 0.09817254477645376
55 0.05174718992856875 -0.8466634679649093 -0.5339717175921694
13 -0.14163312523825083 0.3264500576540754 -0.013432916363571357
11 0.15378520929290912 -0.003243391889916381 -0.16390779054112414
12 0.4492035438240692 -0.33293684143390834 -0.31438266471867693
43 -0.7639043960304385 0.795000341126094 -0.5519030764601712
24 -0.425008505882957 0.23857671406709616 -0.568156137012738
64 0.299535789336727 0.3452737654565655 0.723853659888494
41 0.012289736960682375 0.3950575055846901 -0.007184220006349204
42 0.7884838699518039 -0.004885329956713869 0.5375346364474725
16 0.21176197656759949 -0.4341109855521989 -0.08490660442928227
49 0.3383179520056731 -0.46839152637408055 -0.6114909578729602
47 -0.009253898575108215 -0.1596162731920699 -0.06296839957936286
61 0.06077048596571091 0.12237069728257532 -0.2318946711223796
37 -0.3920114225737211 0.6490272884066212 -0.2455655372163686
48 -0.3568257491558894 0.14915897998994085 0.4855541587142339
59 0.13541896266765743 0.15738661616332625 -0.1758659732679159
31 0.49793901696279363 -0.7905049294486842 -0.25943719770302426
40 0.1479021411230092 1.223467485869662 -0.17709100228259642
38 0.22405706135330414 0.15981770237186257 -0.02667712109637555
39 0.3002119815835991 -0.9038320811259374 0.12373676008984552
26 -0.09307643113264938 0.13037195629703868 -0.06762212972490522
28 -0.4760656458767471 -0.34495606952705704 -0.22228481042641746
25 1.0122939887210434 -0.2662609783584469 -0.035791174115463065
23 0.29364274141904356 -0.01384213214567536 -0.30197365556410044
79 0.7749458856328917 0.9724917327970443 -0.014337081933987347
52 -0.15658527023481328 0.19466481296957747 -0.6489413250240976
74 -0.03960840038660937 -0.04308825838693099 0.0324782172291673
75 0.06315760088500258 -0.025136631276823508 0.8278485535675163
76 -0.14237440165822132 -0.06103988549703851 -0.7628921191091819
30 0.19881987137673746 1.209417452852515 0.3052607681109386
8 0.03701331747557343 -0.1756010543587787 -0.021834780232116296
29 0.3483794441697655 0.20945626170191547 0.022911785203957147
60 0.21006743936960398 0.1924025350440772 -0.11983727541345215
10 0.4313569885899722 0.04606156616845147 0.24858180667924162
15 0.22944031856939476 -0.12381498612060804 -0.6062373811682498
9 0.04722131171597162 -0.1519334182170065 0.031068080020892536
6 0.10582109630432701 -0.07634473251576522 0.18044165584251923
7 -0.10283146038649589 -0.026040590779518397 0.4664150190411247
51 0.35070228606274073 0.6031089209391851 0.7703784245456772
14 0.2206011475684971 -0.2789629858364036 -0.345571992798766
50 0.09705850791396389 0.3988868669543814 0.0607185497607899
54 0.5658972321701466 0.856168959193217 0.00979349227595655
53 0.3088222110493577 0.0047527456141538095 -0.2620891126581064

Bonds

1 1 17 18
2 1 17 19
3 1 1 2
4 1 1 3
5 1 1 4
6 1 1 5
7 1 68 69
8 1 68 70
9 1 65 66
10 1 65 67
11 1 56 57
12 1 56 58
13 1 20 21
14 1 20 22
15 1 62 63
16 1 62 64
17 1 35 36
18 1 35 37
19 1 77 78
20 1 77 79
21 1 44 45
22 1 44 46
23 1 32 33
24 1 32 34
25 1 71 72
26 1 71 73
27 1 11 12
28 1 11 13
29 1 41 42
30 1 41 43
31 1 47 48
32 1 47 49
33 1 59 60
34 1 59 61
35 1 38 39
36 1 38 40
37 1 26 27
38 1 26 28
39 1 23 24
40 1 23 25
41 1 74 75
42 1 74 76
43 1 29 30
44 1 29 31
45 1 6 7
46 1 6 8
47 1 6 9
48 1 6 10
49 1 14 15
50 1 14 16
51 1 50 51
52 1 50 52
53 1 53 54
54 1 53 55
