LAMMPS data file via write_data, version 27 Jun 2024, timestep = 1500000, units = lj

6400 atoms
4 atom types
4400 bonds
1 bond types

-10.69 10.69 xlo xhi
-10.69 10.69 ylo yhi
-10.69 10.69 zlo zhi

Masses

1 1
2 1
3 0.5
4 0.5

Bond Coeffs # zero

1 0

Atoms # bond

2511 704 4 -7.1100403204187 -10.684194653511979 -9.707780016687924 0 1 0
2510 704 2 -6.658313904379603 -10.472451762134222 -9.741069549630788 0 1 0
1506 369 4 -7.147044556905093 -10.59742156724516 -9.33710980517928 0 0 0
2512 704 4 -6.206587488340506 -10.260708870756465 -9.774359082573653 0 1 0
425 85 3 -5.927783556074298 -10.522782876503054 -9.709713038680805 0 1 1
1710 437 4 -5.105603792707373 -10.279435217657506 -9.878841300434981 0 0 1
423 85 3 -5.2340175020440585 -10.632803564502721 -9.980792566655664 0 1 1
925 185 3 -10.566609986122153 -2.904735557163169 -1.351831980030919 1 0 0
1709 437 2 -4.888675442885316 -9.832324244268218 -9.823760736547388 0 0 1
1711 437 4 -4.671747093063259 -9.38521327087893 -9.768680172659796 0 0 1
2266 622 4 -4.592580791221772 -9.020796912598298 -9.637698934553864 0 0 1
3222 941 4 -2.1021449938536456 -10.251496269130346 -9.73168168836544 0 1 0
3221 941 2 -2.1035666437280813 -9.76971221869355 -9.597957690308005 0 1 0
3223 941 4 -2.1049882936025175 -9.287928168256755 -9.464233692250572 0 1 0
4438 1346 4 -2.2076698980186187 -10.520266679537482 -10.002875175504556 0 0 1
3348 983 4 -9.483612918904637 -9.165329588253378 -10.095574147009374 0 0 0
3347 983 2 -9.882821841988198 -9.373549352709748 -10.313006355801567 0 0 0
2775 792 4 -9.345352466757534 -9.20143577387893 -9.71555867918925 0 0 0
2774 792 2 -8.969020457218459 -9.062754028917807 -9.416992786611601 0 0 0
2212 604 4 -9.352650033379724 -8.458998070675129 -10.434402771345693 0 0 0
2776 792 4 -8.592688447679382 -8.924072283956683 -9.118426894033952 0 0 0
1143 248 4 -8.374670321270244 -8.573715948146319 -9.139295393808252 0 0 0
1142 248 2 -8.000372377235879 -8.24602534118513 -9.089096636839168 0 0 0
6323 1975 2 -9.249595782020185 -7.884754534842594 -9.765157536433035 1 1 0
6324 1975 4 -9.216679431064614 -7.612113152071407 -9.347326003108424 1 1 0
6325 1975 4 -9.282512132975755 -8.157395917613782 -10.182989069757646 1 1 0
1144 248 4 -7.626074433201512 -7.918334734223941 -9.038897879870083 0 0 0
1324 308 4 -7.744043298700544 -7.748828448745861 -9.390241172845771 0 0 0
1322 308 2 -7.422279540580866 -7.473055014144666 -9.655603371979641 0 0 0
3981 1194 4 -4.7841172963915355 -7.1434844564876245 -9.687465816255653 0 0 0
2264 622 2 -4.208539850047848 -8.873121178648455 -9.353613677800825 0 0 1
2265 622 4 -3.8244989088739243 -8.725445444698613 -9.069528421047785 0 0 1
3980 1194 2 -4.359805204580349 -7.352513486994444 -9.525397580169901 0 0 0
3982 1194 4 -3.935493112769162 -7.561542517501263 -9.36332934408415 0 0 0
281 57 1 -3.542191776648754 -8.040953705274559 -9.076208799604455 0 0 0
284 57 3 -3.218983212621525 -8.044974773122828 -9.409105262716762 0 0 0
155 31 3 -1.9982256047971898 -8.719245010967748 -10.239006412066121 0 0 1
2923 841 4 -2.2157675935564596 -8.933811380893506 -9.57671402766164 0 1 0
2922 841 4 -2.9526271177083028 -8.318933744224191 -9.295709519529217 0 1 0
2921 841 2 -2.584197355632381 -8.62637256255885 -9.436211773595428 0 1 0
153 31 3 -1.6188242776698745 -8.088151221564122 -10.081922797548462 0 0 1
152 31 3 -1.2795209152419451 -8.757585563217846 -10.041538512740205 0 0 1
151 31 1 -1.5940709776284452 -8.511634072590024 -10.26993755501162 0 0 1
5140 1580 4 -1.5264420861152994 -7.7013379127141945 -10.14295999505272 0 1 0
6143 1915 2 -3.5112305141727456 -10.604930044893845 -2.510681280539999 0 1 0
308 62 3 -6.17702052407496 -10.542733026000606 -4.704414100119276 0 1 0
5713 1771 4 -9.604803627582953 -7.610689929744113 -9.261043384903365 1 1 0
4065 1222 4 -6.084240920985709 -6.5544273691250705 -9.22709411784214 1 0 0
359 72 3 -5.016804751481293 -7.314079331014432 -9.975994841367879 0 1 0
360 72 3 -5.59300658330779 -7.681236572998051 -10.292360150241299 0 1 0
282 57 3 -3.9474393081192964 -7.930447048332367 -9.263726044167086 0 0 0
5138 1580 2 -1.1146910230159381 -7.4882612532160975 -10.330201548169752 0 1 0
5139 1580 4 -0.7029399599165771 -7.275184593718 -10.517443101286784 0 1 0
6168 1923 4 -10.25446249732733 -4.70930131276886 -10.525406087163105 1 1 1
5619 1740 4 -10.5252719654822 -6.1817581163109665 -5.971162584228532 1 0 0
331 67 1 -4.8261375807605615 -10.404198171829698 -7.4674953043465395 0 1 0
1172 258 2 -4.738513727669816 -4.9483332349781675 -9.585960547695695 0 0 0
1174 258 4 -4.960476375860456 -4.582110088209458 -9.327865236658766 0 0 0
1173 258 4 -4.516551079479176 -5.314556381746877 -9.844055858732624 0 0 0
3009 870 4 -4.393148656095675 -5.456475227327052 -10.20812747944075 0 0 1
4375 1325 4 -3.48000116691281 -5.6653135618607795 -10.161388033223131 0 0 0
3008 870 2 -4.563240351878758 -5.65315533755309 -10.635193925403437 0 0 1
4373 1325 2 -3.2654332047641486 -5.6341192101533935 -9.710846689902866 0 0 0
4374 1325 4 -3.050865242615487 -5.602924858446007 -9.2603053465826 0 0 0
1680 427 4 -0.7437366139524275 -5.166145408073621 -9.882914998750527 0 0 0
1679 427 2 -1.2228869286480109 -5.029554059313911 -9.924840878240788 0 0 0
1681 427 4 -1.7020372433435942 -4.892962710554201 -9.96676675773105 0 0 0
3588 1063 4 -1.9628743260409622 -5.062376884668889 -9.71533197508022 0 0 1
750 150 3 -0.3581019907339788 -5.145768206401412 -9.915950899801558 0 0 0
2649 750 4 -5.243488853699132 -3.173493881980052 -9.091064210396315 0 0 0
3060 887 4 -5.147292949899695 -4.476398709123284 -9.001980647963595 0 0 1
3059 887 2 -5.548243499702069 -4.431836229442264 -8.706594727483946 0 0 1
2258 620 2 -4.87992494859325 -3.7208851868321307 -9.535142361416 0 0 1
4720 1440 4 -4.261751335662103 -3.6380488782857645 -9.845552312960617 0 0 1
2259 620 4 -4.5018591827437 -3.9335241719424086 -9.783840850964886 0 0 1
4718 1440 2 -3.8138288989038207 -3.7796105716627673 -10.016800021315623 0 0 1
4719 1440 4 -3.3659064621455386 -3.92117226503977 -10.188047729670629 0 0 1
1852 484 4 -3.165506278447004 -3.6110577282618244 -10.346679820934616 0 -1 1
3589 1063 4 -2.8055455329513395 -4.712772148314772 -10.124821615197094 0 0 1
3587 1063 2 -2.384209929496151 -4.8875745164918305 -9.920076795138657 0 0 1
4422 1341 4 -0.3700916322053203 -7.122235956009664 -10.68124302896403 0 0 0
3773 1125 2 -9.972796340958094 -1.127929044613716 -9.656710686863127 1 0 0
3774 1125 4 -10.19619582678773 -0.935659243767533 -10.060598039244606 1 0 0
5905 1835 4 -8.161358541801492 -1.484330872846498 -9.277424578718282 1 0 0
5903 1835 2 -7.975095250357735 -1.3079712985822343 -8.848235474912272 1 0 0
2650 750 4 -4.912064429750272 -2.230176505336965 -9.073452335562596 0 0 0
2648 750 2 -5.077776641724702 -2.7018351936585083 -9.082258272979455 0 0 0
1194 265 4 -7.433798865764052 -0.08599429493811822 -5.934103409302931 0 0 0
2014 538 4 -10.500596018743492 -2.658505696327395 -1.055856428165587 0 0 0
3270 957 4 -4.805588801774763 -10.685610610749777 -8.166157380697577 0 1 0
6072 1891 4 -3.299608050507294 -1.9651554057876872 -10.35499403249334 0 0 1
3609 1070 4 -1.535579707189896 -3.141362529391154 -10.266372700171887 0 0 1
2476 692 4 -1.9251356188261015 -3.188976726612455 -10.272174209046517 0 0 0
140 28 3 -3.072495298257128 -1.9107764623529648 -10.01997101714749 0 0 1
136 28 1 -2.84373964305801 -1.5538494530717106 -9.85361609458744 0 0 1
138 28 3 -2.8397800931906 -1.5704989366242736 -9.389927495781864 0 0 1
137 28 3 -2.4101283837987517 -1.5671322369327834 -10.006602510639645 0 0 1
3610 1070 4 -0.7157322251366571 -2.962919947113299 -9.722306205153794 0 0 1
3608 1070 2 -1.1256559661632766 -3.0521412382522266 -9.99433945266284 0 0 1
1052 218 2 -0.2921925225159984 -2.4008771650240814 -9.184093221734578 0 0 0
1054 218 4 -0.5674665257858782 -2.7283684301769093 -9.44288598510398 0 0 0
3058 886 4 -1.0830311034718645 -1.5999985709024902 -10.172309572283675 0 0 1
3139 913 4 -9.279669932352187 -0.471044879794701 -9.479042640942549 0 0 1
2037 546 4 -8.115746284097787 -0.29712599497091174 -10.505152276862562 0 0 1
2340 647 4 -8.15036547867238 -1.384849482640506 -9.678935233274677 0 0 0
2339 647 2 -8.196514635431008 -0.9801605691973448 -9.96893029989955 0 0 0
2341 647 4 -8.242663792189635 -0.5754716557541841 -10.258925366524425 0 0 0
3137 913 2 -9.115605546943678 -0.11327623336744123 -9.170684937821619 0 0 1
3974 1192 2 -5.2070490057097745 -0.24373035696512904 -10.453648969015397 1 0 0
3975 1192 4 -4.936853472052121 -0.6615508411982247 -10.502846698097642 1 0 0
2465 689 2 -3.1214640013333446 -0.4409107691575698 -9.79460061956086 0 0 0
2466 689 4 -2.8914865660729494 -0.8799100648714226 -9.728343562323838 0 0 0
2467 689 4 -3.3514414365937397 -0.001911473443716949 -9.860857676797883 0 0 0
139 28 3 -3.0410968215566343 -1.1588775755280705 -9.996260267425704 0 0 1
3056 886 2 -1.5585591744022602 -1.588983634222272 -10.01819362590846 0 0 1
3057 886 4 -2.034087245332656 -1.577968697542054 -9.864077679533244 0 0 1
1822 474 4 -1.0128690607071649 -1.3114142272714482 -9.928328757950183 0 0 1
1820 474 2 -0.5884925023403673 -1.134149775745067 -9.732160842801216 0 0 1
1685 429 2 -1.3935564350304859 -0.9779279707901805 -1.5551238441420987 0 0 0
4022 1208 2 -9.232520040794478 -10.658342485490648 -8.90352564186706 1 0 0
1063 221 4 -8.77778765691461 -10.287270367016006 -8.298734186247298 0 0 0
4024 1208 4 -9.070415017972113 -10.476993320418508 -8.466679625628602 1 0 0
1507 369 4 -7.653857781341064 -10.305269047138697 -8.526068955077553 0 0 0
1061 221 2 -8.780024087304877 -10.14974468600485 -7.818024621705945 0 0 0
1505 369 2 -7.4004511691230785 -10.451345307191929 -8.931589380128417 0 0 0
1612 404 4 -7.3633627375079485 -10.294503020484663 -8.227869540893028 0 0 0
1610 404 2 -7.313155592597511 -10.320006400268639 -7.731050841346261 0 0 0
3308 970 2 -1.3373478199204432 -8.986769145497586 -8.24403057651743 0 1 1
3576 1059 4 -0.6644682300626207 -9.308405949361998 -8.390708517529161 0 1 1
3309 970 4 -0.9893221098047216 -9.187195857476587 -8.541868180294472 0 1 1
3575 1059 2 -0.17589805758780855 -9.318197055891806 -8.284862776940393 0 1 1
283 57 3 -3.5759558892264818 -8.46152123389547 -8.883120895862646 0 0 0
285 57 3 -3.4346267759568354 -7.732481243427344 -8.758916330566914 0 0 0
3310 970 4 -1.6853735300361647 -8.786342433518586 -7.946192972740387 0 1 1
5712 1771 4 -10.086446419846645 -6.790517594752485 -8.952275573151494 1 1 0
1416 339 4 -9.862445183637218 -6.529306282138727 -8.730638631066492 0 0 0
5711 1771 2 -9.845625023714799 -7.200603762248298 -9.10665947902743 1 1 0
1323 308 4 -7.100515782461187 -7.197281579543471 -9.920965571113511 0 0 0
4066 1222 4 -6.754951076728113 -7.078687495879752 -9.751783746554393 1 0 0
4064 1222 2 -6.419595998856911 -6.816557432502411 -9.489438932198267 1 0 0
3510 1037 4 -6.130498597971896 -6.16271869490636 -9.2219930363296 0 0 1
4884 1495 4 -4.977398862159465 -6.127729292506431 -8.513481885197034 0 0 1
3828 1143 4 -3.279626129585464 -7.32158946167584 -8.74085916606258 0 0 0
3827 1143 2 -3.3978466018515454 -6.994677124668263 -8.381481587672337 0 0 0
4554 1385 4 -3.87441839405875 -6.559126459181569 -7.971118786975801 0 0 1
3829 1143 4 -3.5160670741176268 -6.667764787660685 -8.022104009282094 0 0 0
4553 1385 2 -4.239798152694792 -6.317537951585577 -8.21222586894672 0 0 1
1415 339 2 -10.04310945530277 -6.073950296409779 -8.830695351003776 0 0 0
1417 339 4 -10.223773726968323 -5.618594310680832 -8.93075207094106 0 0 0
3819 1140 4 -10.057687962691666 -5.4040896906695775 -8.61208969549787 1 0 0
2814 805 4 -8.896636409788888 -5.8569530661074936 -7.735238526069583 0 0 0
158 32 3 -6.340728017531479 -5.0377259951358715 -8.495920728412266 0 0 1
3509 1037 2 -6.17654560999899 -5.716182512150721 -9.00179968907944 0 0 1
3885 1162 4 -6.521500312342975 -4.926413791342692 -7.511045363053192 1 0 0
156 32 1 -6.574979046731853 -4.692802925398994 -8.292316869701816 0 0 1
160 32 3 -6.6534451890808555 -4.794913076893408 -7.855491296427328 0 0 1
157 32 3 -6.976687484160327 -4.637386473301671 -8.509478901686347 0 0 1
1245 282 4 -7.349555803977158 -4.7060095069596315 -8.351697766660166 0 0 0
3511 1037 4 -6.222592622026084 -5.269646329395082 -8.781606341829281 0 0 1
4883 1495 2 -5.259742329243589 -5.94558999512601 -8.143201663007252 0 0 1
1024 208 4 -5.549866573736195 -5.357286794636399 -7.742456073963607 0 0 0
4885 1495 4 -5.542085796327713 -5.763450697745589 -7.772921440817471 0 0 1
4555 1385 4 -4.605177911330835 -6.075949443989585 -8.453332950917638 0 0 1
3823 1141 4 -2.926385848792987 -5.982161610237027 -9.210076665798175 0 0 0
3821 1141 2 -2.7446470162580034 -5.928986421165015 -8.747320362744384 0 0 0
3822 1141 4 -2.56290818372302 -5.875811232093004 -8.284564059690593 0 0 0
1926 509 4 -2.5971462958290945 -6.138073908689265 -7.981510559902133 0 0 1
5035 1545 4 -9.175765379321586 -3.218928580411822 -8.205057357303644 1 0 1
1246 282 4 -8.276344747357243 -4.3315470774580795 -8.32271254077278 0 0 0
6346 1982 4 -8.203736975170697 -3.991174919899506 -8.145013368213508 1 0 1
6345 1982 4 -9.113645850434482 -3.5843396252286484 -8.064075850796762 1 0 1
6344 1982 2 -8.65869141280259 -3.787757272564077 -8.104544609505135 1 0 1
1244 282 2 -7.812950275667201 -4.5187782922088555 -8.337205153716473 0 0 0
159 32 3 -6.332917171432781 -4.29802704219654 -8.321609369908321 0 0 1
3061 887 4 -5.9491940495044435 -4.387273749761244 -8.411208807004297 0 0 1
2260 620 4 -5.2579907144428 -3.5082462017218528 -9.286443871867114 0 0 1
3775 1125 4 -9.74939685512846 -1.3201988454598985 -9.252823334481647 1 0 0
5033 1545 2 -9.255567236504318 -2.7348997062089775 -8.301740926372766 1 0 1
5034 1545 4 -9.33536909368705 -2.250870832006133 -8.398424495441887 1 0 1
845 169 3 -9.866485609734285 -1.6604899682470284 -9.079225816777337 1 0 1
844 169 3 -9.50578233614341 -1.9130808424720704 -8.4684959266628 1 0 1
841 169 1 -9.734001376129164 -1.5554216670704608 -8.65636818123787 1 0 1
842 169 3 -10.104691078831284 -1.4642184683168356 -8.399714482944201 1 0 1
1410 337 4 -10.43879274519827 -1.2950868258392705 -8.229425237276624 1 0 0
5904 1835 4 -7.788831958913977 -1.1316117243179706 -8.419046371106262 1 0 0
843 169 3 -9.461212828103847 -1.1801628940895772 -8.664569484013533 1 0 1
3324 975 4 -9.310396864675269 -1.0804429058171376 -8.306366718661057 0 0 1
3323 975 2 -9.087652974169897 -1.1681609988676915 -7.867401235514325 0 0 1
4812 1471 4 -7.485465778905099 -1.0297293112527186 -8.170729938037391 1 0 1
4811 1471 2 -7.122436702768535 -1.0134114653927861 -7.827300734582302 1 0 1
4813 1471 4 -6.759407626631971 -0.9970936195328536 -7.483871531127213 1 0 1
3756 1119 4 -4.852102242108935 -1.9753073494017332 -8.773001559638463 1 0 0
3755 1119 2 -5.005219627210249 -1.6350659262474596 -8.440148979131955 1 0 0
3641 1081 2 -2.287223550136675 -1.941145944292128 -8.873797374727944 0 0 1
3643 1081 4 -1.892914488333734 -2.197252985275912 -8.703710492991888 0 0 1
454 91 3 -1.8650676794366854 -2.5341910148459674 -8.509322203267276 0 0 1
3642 1081 4 -2.6815326119396157 -1.6850389033083435 -9.043884256464 0 0 1
452 91 3 -1.7348322716127873 -2.6316382748345926 -7.775535606177131 0 0 1
451 91 1 -1.5727283915558734 -2.715305910799476 -8.1978175721221 0 0 1
453 91 3 -1.5413079331271637 -3.1742884105832534 -8.258214754872354 0 0 1
455 91 3 -1.161562378330954 -2.5243621211528633 -8.241210875337282 0 0 1
1929 510 4 -0.8429977059679518 -2.2988875934501984 -8.175963444116826 0 0 1
1928 510 2 -0.3877635706010797 -2.321274751209962 -7.970389376772617 0 0 1
2442 681 4 -4.437376515170172 -1.7398106098886528 -10.332754038930728 0 0 0
1409 337 2 -10.443685842314729 -0.8636602790738492 -7.976745217594967 1 0 0
4286 1296 2 -10.37303309934384 -8.65034451736245 -0.5740558283091389 1 0 0
1471 357 4 -0.036997562275218054 -4.723340675875784 -2.129867564945146 0 0 0
4186 1262 4 -6.417927655404579 -1.0338969679574053 -7.685731588153993 1 0 0
4184 1262 2 -5.927664592953549 -1.1008895946260395 -7.757523771351194 1 0 0
3757 1119 4 -5.158337012311564 -1.2948245030931858 -8.107296398625447 1 0 0
4185 1262 4 -5.43740153050252 -1.1678822212946738 -7.829315954548396 1 0 0
334 67 3 -5.2525650315292625 -10.265962517066184 -7.587289014461774 0 1 0
4287 1296 4 -10.25603353210512 -8.179036195666853 -0.6931338160583121 1 0 0
1437 346 4 -2.854718071013183 -0.39903671972603694 -8.512280077016886 0 0 0
4288 1296 4 -10.49003266658256 -9.121652839058047 -0.45497784055996576 1 0 0
1512 371 4 -2.57784219644831 -0.45683789674107256 -8.236435212631354 0 0 0
1511 371 2 -2.5162269185812405 -0.9498755102370792 -8.180600911242914 0 0 0
1513 371 4 -2.4546116407141714 -1.4429131237330848 -8.124766609854474 0 0 0
2745 782 4 -2.0985328180967437 -1.6207366886960928 -8.051768992996497 0 0 0
2744 782 2 -1.6038007175124458 -1.5763289126467155 -7.994601711463048 0 0 0
2599 733 4 -1.3962060918948722 -1.2817213201413775 -0.7339589667626845 0 0 0
391 79 1 -0.6310169691482028 -0.8655609916393552 -7.7917567156149055 0 0 0
2746 782 4 -1.109068616928148 -1.5319211365973382 -7.937434429929599 0 0 0
395 79 3 -0.7985742444572757 -1.2832698195681185 -7.8613548087031 0 0 0
2947 849 4 -10.334170619796192 -8.948292302778697 -6.286096479255807 0 1 0
1599 400 4 -8.965601911882496 -9.76603529598593 -7.065328597673484 0 0 0
1598 400 2 -9.119920652063444 -9.574377538490415 -6.630066572657704 0 0 0
1600 400 4 -9.274239392244391 -9.3827197809949 -6.194804547641923 0 0 0
1062 221 4 -8.782260517695144 -10.012219004993693 -7.337315057164592 0 0 0
2693 765 2 -7.382560359452676 -10.552468302771844 -6.627075317451436 0 1 0
2695 765 4 -7.295448128766809 -10.14964278031841 -6.910170809689043 0 1 0
1611 404 4 -7.262948447687073 -10.345509780052614 -7.2342321417994935 0 0 0
1150 250 4 -4.942540838768023 -9.040243974134977 -7.102358930806203 0 0 0
1148 250 2 -4.4479343488947345 -9.103101331559326 -7.139953781420243 0 0 0
77 16 3 -5.226573919374967 -8.799279494893813 -6.965484797634031 0 0 0
2561 721 2 -6.164385471717137 -10.502045790573149 -6.6164879645183055 0 1 0
333 67 3 -4.572962056999784 -10.039054504536404 -7.333808145635527 0 1 0
2441 681 2 -4.781356628023861 -1.3818764390401266 -10.392426572814458 0 0 0
1149 250 4 -3.9533278590214462 -9.165958688983675 -7.177548632034283 0 0 0
1504 368 4 -2.182735916279977 -10.306776102878864 -6.316204293368413 0 0 0
2322 641 4 -2.500368219961929 -10.081309710163467 -6.221703842025077 0 1 0
357 72 3 -5.2160764714877175 -7.171823410629599 -10.686596019752034 0 1 0
2945 849 2 -10.46590239211103 -8.479877011911869 -6.401134974747644 0 1 0
2354 652 2 -10.302702092306243 -7.330223646365241 -6.6476232103231325 0 1 0
2946 849 4 -10.597634164425868 -8.011461721045041 -6.516173470239481 0 1 0
2468 690 2 -6.502447710368222 -8.384405252482527 -6.250029300321071 0 0 0
2470 690 4 -6.2925852680152 -8.74596844719916 -6.524309834657702 0 0 0
78 16 3 -5.921816505716463 -8.807590019380855 -6.68005760670783 0 0 0
76 16 1 -5.497467194110326 -8.624867741653425 -6.637159693454044 0 0 0
80 16 3 -5.517677656897268 -8.172329704915086 -6.684073044421305 0 0 0
2116 572 4 -5.299414627395353 -7.873449951721404 -6.562375141536551 0 0 1
79 16 3 -5.319495996282338 -8.733264810508222 -6.222579992784329 0 0 0
2114 572 2 -4.958253936435439 -7.528213124697041 -6.682462260786839 0 0 1
584 117 3 -3.2128179573405182 -9.175733353794726 -6.407303130301396 0 0 0
585 117 3 -3.850200842474068 -9.081990617773874 -6.796989359442212 0 0 0
583 117 3 -3.5782819063979887 -8.509587427147196 -6.390400279948576 0 0 0
581 117 1 -3.628735143004563 -8.970179605780773 -6.4150846048822565 0 0 0
582 117 3 -3.871932127376363 -9.11282603013543 -6.051619029605544 0 0 0
2355 652 4 -9.934327634121576 -7.059317912666798 -6.849886261833641 0 1 0
4381 1327 4 -9.87864782969501 -7.381999210748699 -7.080719431200641 1 0 0
4379 1327 2 -9.443168896050691 -7.269281026538025 -7.299014436411623 1 0 0
4380 1327 4 -9.007689962406372 -7.156562842327352 -7.517309441622605 1 0 0
2815 805 4 -8.896054317308048 -6.788631780620028 -7.371955669204068 0 0 0
5799 1800 4 -6.5547834682817365 -6.309627538299435 -6.095320081822276 0 1 1
3541 1047 4 -6.525788121466643 -6.681064116939515 -6.178466736723722 0 0 0
3539 1047 2 -6.59475086811852 -7.152698691347214 -6.027453598892464 0 0 0
2115 572 4 -4.617093245475526 -7.1829762976726785 -6.802549380037128 0 0 1
4377 1326 4 -4.297906830414717 -7.17772611347519 -7.031881449144604 0 0 0
4376 1326 2 -4.1895144249487535 -6.727172836545988 -6.844124076225044 0 0 0
5391 1664 4 -1.3301267857581176 -7.276471774426972 -7.872832998326354 0 1 0
1925 509 2 -2.656263704563849 -5.969626720822284 -7.514465940102079 0 0 1
1629 410 4 -2.8300056350063083 -5.955853797973973 -6.6972925057862795 0 0 0
1628 410 2 -2.7717894161031538 -6.069833871129248 -6.213950582526833 0 0 0
5390 1664 2 -1.5088560380922638 -7.302648541502237 -7.406602764187095 0 1 0
5392 1664 4 -1.68758529042641 -7.328825308577502 -6.940372530047837 0 1 0
4027 1209 4 -1.6740936877077954 -7.01451698812011 -6.706001255079465 0 0 0
1927 509 4 -2.7153811132986037 -5.801179532955304 -7.047421320302026 0 0 1
1465 355 4 -1.0886127706596858 -7.15013050209991 -6.095317816894967 0 0 0
4252 1284 4 -1.0252431613527424 -6.312149316392648 -7.1389455721066195 0 0 0
519 104 3 -0.8481475382705866 -6.657891725801318 -6.966503972992794 0 0 0
516 104 1 -0.6566636730385317 -6.700887021859579 -6.546045492435377 0 0 0
520 104 3 -0.7710004146218272 -7.102153043880819 -6.363527851930789 0 0 0
517 104 3 -0.199134329549932 -6.678384905573658 -6.588004455834673 0 0 0
518 104 3 -0.7992367617185993 -6.3554681107320725 -6.2709842443110535 0 0 0
358 72 3 -4.890905942237094 -7.8288352751143275 -10.52076617674128 0 1 0
2813 805 2 -8.896345363548468 -6.322792423363761 -7.553597097636826 0 0 0
3884 1162 2 -6.789776149491825 -5.0845520923666125 -7.119867202937474 1 0 0
5798 1800 2 -6.677907030320162 -5.85775886221018 -6.270406597694286 0 1 1
5800 1800 4 -6.801030592358587 -5.405890186120925 -6.445493113566297 0 1 1
3886 1162 4 -7.058051986640675 -5.242690393390533 -6.728689042821756 1 0 0
1022 208 2 -5.690680675169444 -4.954630104252727 -7.481613250549247 0 0 0
1023 208 4 -5.831494776602694 -4.551973413869055 -7.220770427134887 0 0 0
1267 289 4 -4.726216587098283 -5.13440999724451 -6.363979576652593 0 0 0
4250 1284 2 -1.0158584687933359 -5.934862689581777 -7.46691924296361 0 0 0
4077 1226 4 -1.1863260726506737 -5.216374188333704 -7.649239081214206 0 0 0
4251 1284 4 -1.0064737762339293 -5.557576062770907 -7.7948929138206005 0 0 0
4076 1226 2 -1.325098029369245 -4.782687768168545 -7.442699900929743 0 0 0
3813 1138 4 -0.4803438177275603 -4.944264339439748 -6.310641416644308 0 0 0
2597 733 2 -1.2167123851705886 -1.123167165153189 -0.29504828201899425 0 0 0
2443 681 4 -5.12533674087755 -1.0239422681916004 -10.452099106698187 0 0 0
1108 236 4 -5.5108526881925854 -4.316359589597691 -7.104095338863869 0 0 0
1106 236 2 -5.388283412992854 -4.341392977184542 -6.619998135522498 0 0 0
1107 236 4 -5.265714137793122 -4.366426364771393 -6.135900932181126 0 0 0
5956 1852 4 -1.5753670181353998 -3.1608467099699475 -7.003518479913257 0 0 1
34 7 3 -1.7059346575142942 -3.5096551936359384 -6.808643769180724 0 0 0
31 7 1 -1.6148439359837425 -3.9085304239657677 -6.589780727347798 0 0 0
4078 1226 4 -1.4638699860878157 -4.349001348003386 -7.236160720645281 0 0 0
35 7 3 -1.6374367881061125 -4.255698714646738 -6.883657812161538 0 0 0
5954 1852 2 -1.8984496603600387 -2.783003009067586 -7.056920202560327 0 0 1
32 7 3 -1.1908996817607607 -3.887430799887348 -6.412506715786427 0 0 0
4996 1532 4 -0.7948428483213034 -3.9830767003873726 -6.371289263276474 0 0 0
4994 1532 2 -0.4780481725701287 -3.7842985561563123 -6.0394332963396 0 0 0
4995 1532 4 -0.16125349681895407 -3.585520411925252 -5.707577329402725 0 0 0
3469 1023 4 -9.217792191161914 -2.7301007970313065 -5.592414717597079 0 0 0
4283 1295 2 -3.6489492474135354 -1.4482273049728656 -6.871775143410657 0 0 0
5236 1612 4 -2.78539309196757 -1.4555074531706014 -6.953474433156833 0 0 0
4284 1295 4 -3.1637321627459296 -1.5397728680912315 -6.950412225121787 0 0 0
5955 1852 4 -2.2215323025846776 -2.4051593081652247 -7.110321925207396 0 0 1
5234 1612 2 -2.625555864305188 -1.868933940932095 -7.184841241213915 0 0 0
5235 1612 4 -2.4657186366428063 -2.2823604286935892 -7.416208049270997 0 0 0
1381 327 4 -2.4384737402783467 -3.1311910253235413 -6.258109715370247 0 0 0
3325 975 4 -8.864909083664525 -1.2558790919182454 -7.428435752367593 0 0 1
3535 1045 4 -9.022256584147826 -1.2814256929134324 -7.047877778790748 0 0 1
3534 1045 4 -8.463341078766787 -0.796870864147601 -6.374958708051599 0 0 1
3533 1045 2 -8.742798831457307 -1.039148278530517 -6.711418243421173 0 0 1
4285 1295 4 -4.134166332081141 -1.3566817418544996 -6.793138061699527 0 0 0
1072 224 4 -4.123790739649376 -1.0926081275750708 -6.482329167218442 0 0 0
1070 224 2 -4.283765146770294 -1.1827751138807232 -6.017272070028525 0 0 0
393 79 3 -0.9563908894392914 -0.5473629183815661 -7.882210008366352 0 0 0
392 79 3 -0.5019263001874297 -0.8254167807603829 -7.352070416624021 0 0 0
6089 1897 2 -0.2851683733306529 -1.0284479001390483 -6.7273081426588925 0 0 0
6091 1897 4 -0.3823408677893988 -1.3113296879996066 -6.326639451072526 0 0 0
6090 1897 4 -0.1879958788719071 -0.7455661122784899 -7.127976834245259 0 0 0
3423 1008 4 -8.011850508969443 -10.228970201259669 -5.121905311272665 0 1 1
394 79 3 -0.2614523912473795 -0.7959120191368709 -8.063548995473026 0 0 0
4502 1368 2 -0.025786783268955782 -9.530799297625935 -0.5913105392352098 0 0 0
2896 832 4 -7.918189431018516 -10.069155790283645 -5.463430334363693 0 1 0
3422 1008 2 -7.6475393066673885 -10.452677038004035 -4.862612814136515 0 1 1
3272 958 2 -4.724920401043918 -8.537361749524708 -10.392819523277135 0 1 1
307 62 3 -6.586506252198539 -9.937290989612244 -4.879518009374728 0 1 0
2894 832 2 -8.069295228113695 -9.593093995376845 -5.486499914210023 0 1 0
2562 721 4 -6.172154329181965 -10.307047689993379 -6.156145281700513 0 1 0
3040 880 4 -6.07130768210692 -10.025395517982258 -5.899171422438382 0 1 1
3038 880 2 -5.901089788158681 -9.875280772361082 -5.453647650090499 0 1 1
2323 641 4 -2.84154757453959 -9.143154679202187 -6.280540785292562 0 1 0
1271 291 2 -4.206884718649143 -10.642119766913174 -4.669436422683007 0 0 0
1273 291 4 -4.110501708975766 -10.34162694195694 -4.281603497835176 0 0 0
2321 641 2 -2.6709578972507595 -9.612232194682827 -6.251122313658819 0 1 0
5228 1610 2 -1.3474010415218438 -10.036251875357914 -5.16479842447093 0 1 0
5230 1610 4 -1.818574167897024 -9.933566027189704 -5.032694292939552 0 1 0
39 8 3 -2.193566257992878 -9.79934463310846 -4.942089993157648 0 0 0
2728 776 4 -0.5208134826259307 -10.041456415882237 -5.1535650702683355 0 1 0
3818 1140 2 -10.11821399380055 -4.992484069105251 -8.334749810420115 1 0 0
2726 776 2 -0.34114647641920265 -10.460525047546339 -5.3587509587597975 0 1 0
5229 1610 4 -0.8762279151466636 -10.138937723526125 -5.296902556002307 0 1 0
3201 934 4 -8.090669621508136 -8.831056259711392 -5.2434613661733795 0 1 0
3200 934 2 -7.92026647975256 -8.383736291658032 -5.099005090919176 0 1 0
3202 934 4 -7.749863337996984 -7.936416323604671 -4.954548815664973 0 1 0
4534 1378 4 -7.743957922435163 -7.563470639985993 -4.7965755461975075 1 0 0
2469 690 4 -6.712310152721244 -8.022842057765892 -5.97574876598444 0 0 0
2895 832 4 -8.220401025208876 -9.117032200470046 -5.509569494056352 0 1 0
3039 880 4 -5.730871894210442 -9.725166026739906 -5.008123877742616 0 1 1
1458 353 4 -5.071705901823842 -9.010424208276012 -6.106703247746377 0 0 0
1457 353 2 -4.6086705821775436 -9.114984069877462 -5.949650619300561 0 0 0
1459 353 4 -4.145635262531244 -9.219543931478912 -5.792597990854746 0 0 0
2272 624 4 -1.5804359396484804 -8.189578189279489 -5.119555402283763 0 0 1
2270 624 2 -1.8246256195194777 -7.937611451177664 -5.475763435790933 0 0 1
1464 355 4 -0.6766426445662428 -7.929038854760866 -5.622472817597881 0 0 0
1463 355 2 -0.8826277076129643 -7.539584678430388 -5.858895317246424 0 0 0
2575 725 4 -1.5909931423431924 -8.585236851147165 -5.204158698662879 0 1 0
2167 589 4 -0.45581784055979735 -8.19416393661454 -5.437194591025743 0 0 1
2573 725 2 -1.3327009616192513 -8.868062962218948 -4.88276401875519 0 1 0
3540 1047 4 -6.663713614770396 -7.624333265754913 -5.876440461061206 0 0 0
4378 1326 4 -4.08112201948279 -6.276619559616787 -6.656366703305484 0 0 0
1266 289 4 -4.158886722034448 -5.891983829859506 -6.686808807584686 0 0 0
1630 410 4 -2.7135731971999997 -6.183813944284522 -5.730608659267386 0 0 0
1006 202 4 -2.969796440050106 -6.485727353730025 -5.708990604523429 0 0 0
1004 202 2 -3.079970038436155 -6.764495137743969 -5.308802772606048 0 0 0
1005 202 4 -3.1901436368222043 -7.043262921757914 -4.9086149406886666 0 0 0
4025 1209 2 -1.9454443352631996 -7.170493427744197 -6.316077959605378 0 0 0
4026 1209 4 -2.2167949828186035 -7.326469867368284 -5.926154664131292 0 0 0
2271 624 4 -2.068815299390475 -7.685644713075838 -5.831971469298103 0 0 1
1749 450 4 -0.7914233182241999 -6.120915003665898 -5.921186958195655 0 0 1
5618 1740 2 -10.189425182975379 -5.971641385254085 -5.666108657832005 1 0 0
5620 1740 4 -9.853578400468558 -5.761524654197203 -5.361054731435479 1 0 0
1291 297 4 -9.464095450204713 -5.796673636374935 -5.537021387309118 0 0 0
1289 297 2 -9.079629787470882 -5.851454658073156 -5.222084578027511 0 0 0
4292 1298 2 -9.937176283071722 -5.01727707680139 -5.016201423596593 1 0 0
1687 429 4 -1.5136017750804531 -1.2023285577714975 -1.1247362364034106 0 0 0
4294 1298 4 -9.983116654506182 -5.33764762658183 -4.6350817663948645 1 0 0
669 134 3 -7.619344561384441 -5.535581733241919 -4.73172243182847 1 0 1
1290 297 4 -8.695164124737051 -5.9062356797713775 -4.9071477687459035 0 0 0
667 134 3 -8.165204128563524 -5.445140126487185 -4.2230401649000315 1 0 1
3111 904 4 -6.048635228165331 -4.6351821828331055 -5.204175622531768 0 1 1
1265 289 2 -4.4425516545663655 -5.513196913552008 -6.52539419211864 0 0 0
313 63 3 -4.466909318036057 -4.875207820725601 -6.220047275252956 0 0 0
3110 904 2 -5.5960212661778606 -4.839014596585771 -5.264116831376281 0 1 1
312 63 3 -4.965578062403777 -4.901811573179249 -5.658334071076476 0 0 0