LAMMPS data file via write_data, version 19 Nov 2024, timestep = 100000, units = lj

1342 atoms
4 atom types
928 bonds
1 bond types
664 angles
2 angle types

-5.848029 5.848029 xlo xhi
-5.848029 5.848029 ylo yhi
-5.848029 5.848029 zlo zhi
0 0 0 xy xz yz

Masses

1 1
2 1
3 0.1
4 0.1

Bond Coeffs # harmonic/omp

1 100 0.45

Angle Coeffs # harmonic/omp

1 100 180
2 100 109.471

Atoms # full

988 296 4 0 -5.374301671813468 -5.576107002946014 -5.6142725142624474 1 0 1
986 296 2 0 -4.983600495830513 -5.63193650676883 -5.442822259481266 1 0 1
1315 405 4 0 -1.161112840756429 -5.106280515170453 -5.564606956443402 2 1 1
1313 405 2 0 -1.325836858725105 -5.530081427601994 -5.406447277548585 2 1 1
42 9 3 0 -1.2141722958945076 -4.733329985634941 -5.651176013540018 0 0 1
552 151 4 0 -0.8328992455349278 -4.882335072210125 -5.63299849505025 1 1 0
816 239 4 0 -4.669740675202371 -4.08615969386578 -5.448790772360543 1 0 0
815 239 2 0 -4.390550320992148 -4.301729954265133 -5.166303787608721 1 0 0
817 239 4 0 -4.1016790808557655 -4.523009020675896 -4.885729071539804 1 0 0
429 110 4 0 -2.2646570488274493 -4.599838379241617 -5.525523353969612 0 0 1
44 9 3 0 -1.8744625359700788 -4.550643840503448 -5.488553041858273 0 0 1
41 9 1 0 -1.4408877716606954 -4.456703973251984 -5.443391843192153 0 0 1
43 9 3 0 -1.3539806290561662 -4.021378675967272 -5.622577535308814 0 0 1
45 9 3 0 -1.3347186790489847 -4.465516785549324 -5.024991165287246 0 0 1
119 24 3 0 -4.9970501007653745 -3.1828136596224064 -5.048517186350103 1 0 0
870 257 4 0 -5.1852399543865095 -3.122151836255379 -4.664178454573204 1 0 0
116 24 1 0 -4.88554760277448 -3.260410355085558 -5.489857043209282 1 0 0
120 24 3 0 -4.769003998797794 -3.6934528463769785 -5.547764198791773 1 0 0
118 24 3 0 -4.526748049107213 -2.998800370927416 -5.605525575978517 1 0 0
145 29 3 0 -0.07147923797851696 -5.357670178009598 -4.019913715511832 1 0 0
921 274 4 0 -3.3540523491763783 -3.417904063671861 -5.423584317122652 1 0 0
158 32 3 0 -2.9998991841532843 -3.5255783664217115 -5.277194133248234 1 0 1
920 274 2 0 -3.7614241790539613 -3.3295535419822606 -5.509348467143228 1 0 0
160 32 3 0 -2.259722259189494 -3.4240742378552143 -5.187833610936184 1 0 1
245 49 3 0 -3.970757645716251 -0.04962456541114868 -1.230299196253168 2 0 0
156 32 1 0 -2.636975192059377 -3.2733740006392122 -5.3992764838604375 1 0 1
420 107 4 0 -1.1939947111281386 -3.662278256084763 -5.5821881277608725 0 0 1
951 284 4 0 -1.939621455970833 -3.29149941983838 -4.978772824504406 1 0 1
157 32 3 0 -2.7100810829562603 -2.850711920275687 -5.294630084970206 1 0 1
77 16 3 0 -5.236644964341695 -1.1842452777505272 -5.2879676083533695 1 0 0
337 79 4 0 -5.385159354599917 -1.3523224285218554 -5.631857507408658 1 0 0
256 52 4 0 -5.5263210912627105 -1.938633857408393 -5.1196138876020365 1 0 0
1029 310 4 0 -0.7336257844398881 -0.28357319966243466 -0.37569681260239474 1 0 0
767 223 2 0 -4.054034871569934 -1.6223984035641807 -5.171578875684728 1 0 1
769 223 4 0 -4.496930277874718 -1.507038954761077 -5.080034013085161 1 0 1
768 223 4 0 -3.6377789503569957 -1.731668233223882 -5.2560944818699795 1 0 1
507 136 4 0 -3.2731034935024477 -1.6251198533822322 -5.247883971166205 1 0 1
506 136 2 0 -2.941731837686769 -1.3568607977385936 -5.247410082408822 1 0 1
508 136 4 0 -2.57573209497484 -1.0726462662850142 -5.2541693601203185 1 0 1
954 285 4 0 -0.41450640143069784 -1.0445175546807866 -4.922530697588053 1 0 1
334 78 4 0 -5.428285153381733 -0.21184536950307997 -5.024969432308925 1 0 0
332 78 2 0 -5.028054819695673 -0.0007604458022134608 -4.943942308866426 1 0 0
24 5 3 0 -5.784149131827218 -0.41910734438476993 -5.013738734991809 1 0 0
414 105 4 0 -2.34855088804891 -0.7403363636036264 -5.1092906547833135 1 0 1
413 105 2 0 -1.8837901002380004 -0.7352902611458196 -5.086871017287064 1 0 1
415 105 4 0 -1.443553737137857 -0.7301403104477693 -5.059848890447451 1 0 1
185 37 3 0 -1.2757539522520727 -0.41848662542359083 -5.235649906150995 1 0 1
182 37 3 0 -0.8471547373612793 -0.6500217861443573 -5.807140669984866 1 0 1
181 37 1 0 -0.8567398662647747 -0.4659989948146315 -5.364299549740763 1 0 1
184 37 3 0 -0.6622905008345601 -0.0658288227609427 -5.3564620868696196 1 0 1
183 37 3 0 -0.6402794291318195 -0.7469853842497409 -5.081972541617879 1 0 1
808 236 4 0 -3.81024289785892 -4.471141940240917 -4.632295579092898 1 0 0
806 236 2 0 -3.6089327519859458 -4.143171458153127 -4.398094803754232 1 0 0
903 268 4 0 -3.218181357599492 -3.8395825026440282 -3.7877281427919773 1 0 0
388 96 4 0 -1.3356907046088562 -4.267673153666827 -4.674339602523361 0 0 0
386 96 2 0 -0.9324383109009462 -4.136062478291771 -4.510769009472631 0 0 0
387 96 4 0 -0.5180582171200703 -4.01188338300351 -4.349723012504774 0 0 0
871 257 4 0 -5.2719226326423065 -3.330290570364938 -3.7883387410042966 1 0 0
869 257 2 0 -5.226049566930172 -3.2248360714612705 -4.240608695943709 1 0 0
950 284 2 0 -1.4946388686795578 -3.0851748587264494 -4.990696266745818 1 0 1
952 284 4 0 -1.0634242915301035 -2.884292190039855 -4.990006662077259 1 0 1
259 53 4 0 -0.23403974147900986 -3.8436304733485573 -4.117570413731705 0 0 0
1009 303 4 0 -0.6613840833615692 -2.8953419660108115 -4.959173134868382 1 0 1
1007 303 2 0 -0.24968126616058584 -2.852612178904023 -4.827736770560378 1 0 1
80 16 3 0 -5.199971492267644 -1.806808396602353 -4.903761963735257 1 0 0
76 16 1 0 -5.1365013681386555 -1.3603096892375515 -4.884997356537543 1 0 0
79 16 3 0 -5.410945385554858 -1.1916948474630438 -4.5697443844326395 1 0 0
330 77 4 0 -5.796292322236446 -1.3677749049784342 -4.574565574508524 1 0 0
78 16 3 0 -4.690644201742652 -1.2734206390768152 -4.772130728476578 1 0 0
926 276 2 0 -3.792454260668289 -1.2545739373953726 -3.7929530511593064 1 0 0
928 276 4 0 -3.3464578491997354 -1.3546675312491283 -3.7721682714684057 1 0 0
955 285 4 0 -0.5129485302943655 -1.1875451000879576 -4.036355568502602 1 0 1
953 285 2 0 -0.4575941021997032 -1.1199290970571036 -4.482123148692744 1 0 1
541 147 4 0 -4.756443114713711 -0.09729034837540596 -0.9632714126538131 1 0 0
377 93 2 0 -2.1452523990470964 -0.2181185231210776 -4.143304383951367 1 0 0
378 93 4 0 -2.0261660121561875 -0.5630912301304303 -3.8680692416886884 1 0 0
807 236 4 0 -3.404627173166189 -3.8023915368883996 -4.15004990477252 1 0 0
873 258 4 0 -1.3898744003243708 -4.039989267535739 -2.707580865550648 1 0 0
906 269 4 0 -5.0653847935507015 -3.639460686338298 -3.6143318630230787 1 0 0
907 269 4 0 -4.360744833233907 -3.8401620112603885 -3.066058980371846 1 0 0
905 269 2 0 -4.703806471240972 -3.742650393267974 -3.3287189020006065 1 0 0
825 242 4 0 -4.2734941365395445 -3.6614411612948254 -2.7185429779630716 1 0 0
902 268 2 0 -2.7807742733727063 -3.801484817762059 -3.6514211403744214 1 0 0
874 258 4 0 -1.9283015379770303 -3.773910598621385 -3.37915729770167 1 0 0
904 268 4 0 -2.33912645920967 -3.7629410077964005 -3.5022820281523392 1 0 0
872 258 2 0 -1.6689487959704472 -3.9064275326247744 -3.0513009822946855 1 0 0
810 237 4 0 -5.2304513169614575 -1.700490632452662 -3.27763333032723 1 0 0
855 252 4 0 -5.489564886065703 -2.0278199542317523 -3.321463821930482 1 0 0
809 237 2 0 -4.84150920728425 -1.56722620926468 -3.4538041216900166 1 0 0
811 237 4 0 -4.462934241155731 -1.4324176198283771 -3.6420187222883746 1 0 0
927 276 4 0 -4.243956393071242 -1.152987517987203 -3.8139940901443916 1 0 0
717 206 4 0 -3.0973654788624105 -1.2048062660118415 -3.5256610160378994 1 0 1
716 206 2 0 -2.712072306923141 -1.0274843257432726 -3.6423596142421792 1 0 1
1067 323 2 0 -0.3830576351174173 -1.006714142618761 -3.3199534915014763 1 0 0
1068 323 4 0 -0.34482633789654926 -0.9745487032876392 -3.7451984448964253 1 0 0
718 206 4 0 -2.301887991799885 -0.8431451052936936 -3.779349122558954 1 0 1
863 255 2 0 -5.715296406317631 -5.3030586544041505 -2.7150846525110923 1 0 0
865 255 4 0 -5.250330744420824 -5.383710686046473 -2.6802082532250404 1 0 0
133 27 3 0 -4.898122752410382 -5.528629591660201 -2.525365798691451 1 0 0
132 27 3 0 -4.2131696185707534 -5.261920897834029 -2.4081863700245125 1 0 0
131 27 1 0 -4.641395143597428 -5.277496674855216 -2.242758361469984 1 0 0
916 272 4 0 -3.819596164085168 -5.350214479046416 -2.387747750550132 1 0 0
914 272 2 0 -3.4267318430496982 -5.477169997455389 -2.2287613335691643 1 0 0
915 272 4 0 -3.0313450108274607 -5.610536858063343 -2.057528014695426 1 0 0
924 275 4 0 -2.6428681748743554 -5.607850218650579 -2.1333828607862713 1 0 0
923 275 2 0 -2.3197250235128806 -5.677215738829543 -1.844182705079728 1 0 0
135 27 3 0 -4.818254204825256 -4.844444753518954 -2.216280800371676 1 0 0
588 163 4 0 -1.0293363371954456 -4.114176166213275 -2.7831568538071068 1 1 0
310 70 4 0 -5.833970099360686 -0.6269384631708297 -1.1652381165874015 1 0 0
587 163 2 0 -0.6106148903868318 -4.139198277892149 -2.6259997770908257 1 1 0
589 163 4 0 -0.20839037533990545 -4.166549593413802 -2.472834906369851 1 1 0
824 242 2 0 -3.905642892919597 -3.4531113374083158 -2.586735630023371 1 0 0
826 242 4 0 -3.524091878460231 -3.225278013255617 -2.4431480013585487 1 0 0
795 232 4 0 -3.3190574099731793 -2.9223445513085244 -2.2886269170973157 1 0 0
794 232 2 0 -3.0585673213806714 -2.6869698758011524 -1.992310939876142 1 0 0
913 271 4 0 -1.7572568400091022 -3.7615395030710754 -2.2273497815943135 1 0 0
1097 333 2 0 -0.8601365015817617 -1.2444796070058572 -2.2919522406373134 1 0 0
1069 323 4 0 -0.4171046994501211 -1.0446469719694038 -2.89582315647439 1 0 0
1098 333 4 0 -0.5980022196632282 -1.3160842343323882 -2.651722777601218 1 0 0
134 27 3 0 -4.635371125816525 -5.456103802522756 -1.8300539371428979 1 0 0
925 275 4 0 -1.9870591349126419 -5.75607381685478 -1.539361742276661 1 0 0
1165 355 4 0 -1.6130989168027856 -5.8094824436993076 -1.6939391716303156 2 1 0
574 158 4 0 -5.585816019665906 -4.571931409363622 -1.5106588211163388 1 1 0
572 158 2 0 -5.410610804287271 -4.150067220051824 -1.5759289921310495 1 1 0
1326 409 4 0 -5.513601954590788 -4.762240779017818 -1.1341894093697444 2 1 0
573 158 4 0 -5.234841775844004 -3.7517872691538963 -1.6423395903161504 1 1 0
1062 321 4 0 -4.9172105496437375 -3.8477059091353825 -1.3850248005104593 2 1 0
1061 321 2 0 -4.549470899577614 -3.68305586325596 -1.141817976594873 2 1 0
1063 321 4 0 -4.1784800902746895 -3.5196264797841583 -0.9022658784679587 2 1 0
912 271 4 0 -1.7566753179436336 -3.6103064424555478 -1.3286301578200677 1 0 0
911 271 2 0 -1.755270913577756 -3.6864639872804927 -1.7741090218277895 1 0 0
796 232 4 0 -2.798871929548472 -2.467345433365976 -1.700230900311789 1 0 0
867 256 4 0 -2.4434771441789027 -2.3580191121459135 -1.5858153800079595 1 0 0
866 256 2 0 -2.2732887051149415 -2.1438121137691506 -1.246664051688712 1 0 0
117 24 3 0 -5.255347191233751 -3.1640689123477013 -5.781970108602385 1 0 0
533 145 2 0 -3.0674764719060676 -1.0215436117232297 -1.4254042937061868 1 0 0
534 145 4 0 -3.490210712557461 -1.050768112342893 -1.4163849857596098 1 0 0
1111 337 4 0 -2.4064939463767847 -0.9231428886409283 -1.717789055876013 1 0 0
535 145 4 0 -2.674604758295237 -0.9995524135848326 -1.4386680851973237 1 0 0
1099 333 4 0 -1.1325255884636656 -1.167725685941578 -1.933760796793853 1 0 0
1109 337 2 0 -1.9358895847530553 -0.9477028483531225 -1.79186773944188 1 0 0
1110 337 4 0 -1.509569298917711 -0.9733904003662905 -1.8556289065225213 1 0 0
901 267 4 0 -0.9164997911678636 -1.345523382684127 -1.0353012279109137 1 0 0
900 267 4 0 -0.10462963011294768 -0.9767743753205123 -1.0703955308050643 1 0 0
899 267 2 0 -0.5019885126657426 -1.15298436000867 -1.0527737081327828 1 0 0
551 151 2 0 -0.384511090315093 -4.942490305414264 -5.553930147813306 1 1 0
254 52 2 0 -5.728283333603572 -2.341223793405236 -5.189915053643002 1 0 0
1119 340 4 0 -3.602991071209369 -0.04408632181460259 -1.065219661978463 2 0 0
358 86 4 0 -5.039673778142374 -5.23694502783158 -0.05552870102424112 1 0 0
1327 409 4 0 -5.344186919622585 -5.148680377999781 -0.31854691451075023 2 1 0
1325 409 2 0 -5.424963106724184 -4.959689065349534 -0.7108547109130798 2 1 0
1237 379 4 0 -4.075999606397272 -4.829386238326442 -0.308064142578619 2 1 0
1235 379 2 0 -3.6127012841897663 -4.813604400170781 -0.3133662013718892 2 1 0
1224 375 4 0 -2.9862368342687593 -4.445356790925034 -0.29065865943635316 2 1 0
1236 379 4 0 -3.1385714591710085 -4.801571968745861 -0.32829769976408674 2 1 0
932 278 2 0 -5.3316154017567365 -2.944792794767985 -0.6054486032903581 1 0 0
933 278 4 0 -5.203661590888811 -3.342230203047874 -0.7891273362028421 1 0 0
345 82 4 0 -4.120561284656848 -3.1574012535013174 -1.0238037414828707 1 0 0
829 243 4 0 -1.7565304493841616 -3.4608527406998033 -0.9304549561464608 1 0 0
827 243 2 0 -1.5505488973273627 -3.2875157896575433 -0.5698641295853699 1 0 0
934 278 4 0 -5.455133408883976 -2.5535888680352916 -0.4259598109095517 1 0 0
344 82 2 0 -3.821184953162382 -2.864065055328109 -0.8340408476169898 1 0 0
346 82 4 0 -3.524930210758056 -2.580188975860102 -0.64220330789842 1 0 0
868 256 4 0 -2.0925951861530874 -1.9123238984064757 -0.9020827217720795 1 0 0
828 243 4 0 -1.332186169909546 -3.0953051276389147 -0.21065959085331798 1 0 0
1010 304 2 0 -1.101168942139954 -2.3191326994476382 -0.16935625313802394 1 0 0
1012 304 4 0 -1.1007675506798629 -2.79586636026964 -0.07762949931878893 1 0 0
858 253 4 0 -3.165730104294424 -1.3725567258578213 -0.5155875837360488 1 0 0
859 253 4 0 -3.402613768636986 -2.1924968778699183 -0.5846791130974198 1 0 0
857 253 2 0 -3.287786606980605 -1.7821637268505572 -0.5505793514364221 1 0 0
526 142 4 0 -2.9670958207915095 -1.1133628768751427 -0.2894948879633805 1 0 0
1011 304 4 0 -1.088339495670895 -1.8701644132075055 -0.2590414702835959 1 0 0
150 30 3 0 -1.7250998916089033 -1.7151968709614263 -0.8944907150305985 1 0 0
149 30 3 0 -1.8463692187600413 -1.0486031814072563 -0.5476400620479192 1 0 0
148 30 3 0 -1.2557872834154864 -1.4960685502770872 -0.3795481168556618 1 0 0
146 30 1 0 -1.5171516677962407 -1.359351487159807 -0.7162679394876772 1 0 0
147 30 3 0 -1.2680750811848247 -1.154549792047466 -1.0266842380845862 1 0 0
539 147 2 0 -5.208774510619239 -0.2112135281415819 -0.9397553301428205 1 0 0
540 147 4 0 -5.642874484701947 -0.323052628076705 -0.935383340688098 1 0 0
1120 340 4 0 -2.9684365815716753 -0.2483213805803688 -0.41900543626196196 2 0 0
1118 340 2 0 -3.283527511075368 -0.1461355245557039 -0.7365540007632507 2 0 0
525 142 4 0 -2.101229586036659 -0.9043587132519759 -0.299043080681761 1 0 0
524 142 2 0 -2.5214544611335157 -1.009079197169549 -0.29460803019830983 1 0 0
922 274 4 0 -4.215061515494198 -3.2291615495981305 -5.60775457262274 1 0 0
1223 375 2 0 -2.7799081684452034 -4.129633336408652 -0.0581438589186849 2 1 0
987 296 4 0 -4.584178487900293 -5.6912070203970035 -5.278233359944382 1 0 1
511 137 4 0 -0.03949609087074091 -2.360902404190832 -1.409936240370465 0 0 0
854 252 2 0 -5.834407385609421 -2.3147070721206178 -3.409831118127474 1 0 0
356 86 2 0 -4.938007121675218 -5.1312813101213814 0.3891419242226233 1 0 0
357 86 4 0 -4.83511258462527 -5.0253290183613535 0.8270001563184115 1 0 0
352 84 4 0 -4.626570433199169 -4.83865190260438 1.1069264518278494 1 0 0
1217 373 2 0 -0.6978424969288071 -5.5419666466322735 0.7404636990889397 2 1 0
1219 373 4 0 -0.46015163042303886 -5.631598990330515 0.3740015461903923 2 1 0
1225 375 4 0 -2.5568338006068823 -3.7814515088072302 0.17759165955252953 2 1 0
1281 394 4 0 -0.698995793203574 -5.800636570550262 4.4277079653783655 2 1 0
442 114 4 0 -5.380371354648324 -2.9679302822994935 0.8186067585063466 1 0 0
975 292 4 0 -5.565677621271889 -3.302820041837562 0.7399958473678812 1 0 0
1204 368 4 0 -2.7576512319449145 -3.45596068758038 0.3229553332529491 2 1 0
1202 368 2 0 -2.6016767789129305 -3.370263122370168 0.7241766710217714 2 1 0
440 114 2 0 -5.074038592215896 -2.718335182917415 0.9869245215469604 1 0 0
711 204 4 0 -3.472228229637541 -0.1127416623253854 1.8562398697595937 1 0 0
444 115 4 0 -0.8784992043548616 -0.48038682211277717 1.1359192537675185 1 0 0
443 115 2 0 -1.2507274662716457 -0.26196711115108773 1.0882488536336403 1 0 0
265 55 4 0 -0.5052307608356426 -0.3443101796340766 1.1044805679229803 1 0 0
263 55 2 0 -0.12273732658433634 -0.13602203124764767 0.9666756352740951 1 0 0
350 84 2 0 -4.197872272860858 -4.704410114180804 1.0747345407293674 1 0 0
1197 366 4 0 -2.0025179491502643 -5.089584183040546 1.7982375802014943 2 1 0
194 39 3 0 -1.101279635683074 -5.104054876391325 1.2485135228023037 1 0 0
193 39 3 0 -1.740597081405105 -5.301594205111844 1.568773848000168 1 0 0
191 39 1 0 -1.32530625662491 -5.266900044931868 1.6427592667503177 1 0 0
1218 373 4 0 -0.9354615580516281 -5.449540212095477 1.0982144470959687 2 1 0
351 84 4 0 -3.799528564721623 -4.57148346318715 1.049228106128603 1 0 0
958 286 4 0 -3.5670024670876113 -4.50907794734407 1.3476950715210316 1 0 0
956 286 2 0 -3.1539451414909294 -4.302882084298788 1.3103793367690866 1 0 0
957 286 4 0 -2.7318773998629635 -4.097813675080304 1.273213999974705 1 0 0
192 39 3 0 -1.25726918803523 -4.9905507484200164 1.964390196818064 1 0 0
840 247 4 0 -3.8626824914852875 -3.3448746778528244 2.0124350406929077 1 0 0
839 247 2 0 -3.646306560881481 -2.9953096821914214 1.8812756756114144 1 0 0
188 38 3 0 -2.533647144687847 -3.904116234768483 1.5455697587368524 1 0 0
1203 368 4 0 -2.443300167645104 -3.273374944357846 1.1271493116069609 2 1 0
186 38 1 0 -2.229926407306137 -3.6463507297806768 1.712712240170207 1 0 0
190 38 3 0 -2.156912423177541 -3.2826569793193503 1.4249179605116913 1 0 0
187 38 3 0 -1.8287059920758963 -3.889924664588259 1.7572951603617923 1 0 0
463 121 4 0 -1.5486007314149086 -3.6193586179492376 1.6742545336321113 0 0 0
461 121 2 0 -1.105615682599078 -3.5159290403801626 1.7333376625367034 0 0 0
462 121 4 0 -0.6809272134465356 -3.4330802407774494 1.7897572631376093 0 0 0
38 8 3 0 -0.3020642016098529 -3.4128499732390996 1.8847167508915517 0 0 0
441 114 4 0 -4.749113700479096 -2.4583939077025545 1.163683148456097 1 0 0
486 129 4 0 -4.349569089347762 -2.3495530579102626 1.107941693315313 1 0 0
841 247 4 0 -3.4012833230105617 -2.6266638208473156 1.7425387975354747 1 0 0
1006 302 4 0 -3.011305749321892 -2.6941995784048 1.836565207812911 1 0 0
1004 302 2 0 -2.7429950030994648 -2.3485383991658737 1.804016981238063 1 0 0
1005 302 4 0 -2.4601293199866268 -1.9767277414544968 1.7658371846359202 1 0 0
485 129 2 0 -4.113476987231287 -2.032267361072671 1.316704638313924 1 0 0
487 129 4 0 -3.8740689695712875 -1.726938892674231 1.5433210293158766 1 0 0
520 140 4 0 -3.5241577423260906 -1.541816481458449 1.4684006715997837 1 0 0
518 140 2 0 -3.1288393002426815 -1.3653510904248956 1.6177396748839277 1 0 0
519 140 4 0 -2.747152667147411 -1.2047297814495472 1.760143880470448 1 0 0
172 35 3 0 -2.354086386278653 -1.1783747117850751 1.667123699431178 1 0 0
175 35 3 0 -2.058223578581963 -1.8689774512062653 1.7341815990820448 1 0 0
171 35 1 0 -1.9581819218529342 -1.4406441689058278 1.664944627275493 1 0 0
173 35 3 0 -1.7440261890619384 -1.3954970812534713 1.2502278355712093 1 0 0
323 75 2 0 -5.268813045177327 -0.7401388718823574 1.5837313434948346 1 0 0
324 75 4 0 -4.875881122338874 -0.5090951306843223 1.4569968983376889 1 0 0
325 75 4 0 -5.657426708033661 -0.9541469714334827 1.7094631101165065 1 0 0
479 127 2 0 -4.1577210764533 -0.37976642539080085 1.761394246709445 1 0 0
480 127 4 0 -4.511224363153145 -0.5938365658703244 1.52965534808928 1 0 0
1196 366 2 0 -2.395418632844621 -5.093942515889321 2.0263512971516677 2 1 0
1198 366 4 0 -2.7671905170838444 -5.097868939413784 2.243399104003837 2 1 0
195 39 3 0 -1.1452752790714227 -5.69702045835932 1.7632927315468967 1 0 0
1190 364 2 0 -5.055237370362786 -4.374204201390736 2.937202409478921 2 1 0
1191 364 4 0 -4.994832161328044 -4.008683499150746 2.6407764903523674 2 1 0
169 34 3 0 -4.733849693166775 -4.00760801888832 2.2893125856216905 1 0 0
1214 372 2 0 -3.188443059314227 -4.527567453479234 2.642008456516404 2 1 0
1215 372 4 0 -3.415415706913462 -4.304831664266664 2.953268173116424 2 1 0
1216 372 4 0 -2.975651366340486 -4.755873132296616 2.3343110096290296 2 1 0
170 34 3 0 -4.8485960597555575 -3.325329670236379 2.0397497272077834 1 0 0
483 128 4 0 -5.167993681150984 -3.0772247272604196 2.06807588270748 1 0 0
168 34 3 0 -4.163246720741502 -3.6146805170130345 2.0526747706985855 1 0 0
166 34 1 0 -4.566242245151333 -3.595267164008148 2.2674735709807052 1 0 0
167 34 3 0 -4.505141817374561 -3.4317874729825752 2.6885323816854747 1 0 0
189 38 3 0 -2.3653104556297615 -3.4922672268680106 2.138371276591519 1 0 0
990 297 4 0 -2.4755889297195433 -3.497233358511101 2.5421212788269862 1 0 0
989 297 2 0 -2.758744819925875 -3.148111669335387 2.575742041564954 1 0 0
445 115 4 0 -1.671748641905734 -0.01234376790713032 1.0396704023218497 1 0 0
1242 381 4 0 -0.15150334775697516 -5.544985345213938 0.14395095791882095 2 1 0
482 128 2 0 -5.153987610477212 -2.7076892107363233 2.332004035883232 1 0 0
484 128 4 0 -5.144342176700753 -2.3434540733237412 2.582386090070731 1 0 0
991 297 4 0 -3.0574000963880867 -2.800663682562042 2.604842487730636 1 0 0
1001 301 2 0 -3.498242004260475 -2.3261328053544963 3.005837760277748 1 0 0
1003 301 4 0 -3.1043209470948305 -2.549177294583976 2.9028579626508453 1 0 0
1002 301 4 0 -3.8674106643902926 -2.1204373896405806 3.111096406464954 1 0 0
174 35 3 0 -1.667249152043917 -1.2873649440350254 2.0063973560232906 1 0 0
985 295 4 0 -1.2817894357331046 -1.1266899954851644 2.0604059812491053 1 0 0
481 127 4 0 -3.8269719380025364 -0.1789337351560869 1.9981715828167648 1 0 0
522 141 4 0 -4.002222914838676 -0.20967829609799526 5.447704625471998 1 0 0
948 283 4 0 -5.542534650985172 -2.9144933906420447 4.9598342767507155 1 0 0
983 295 2 0 -0.9746332856689461 -0.7744501704531102 2.091147194377588 1 0 0
984 295 4 0 -0.6742895117504846 -0.4337019960032453 2.116432069578515 1 0 0
1291 397 4 0 -0.4657251430421825 -0.08338861156950106 2.1810375206029953 1 0 0
1333 411 4 0 -0.9410994837014153 -0.6176088844083472 5.488257638117698 1 0 0
1025 309 2 0 -4.731107600598718 -5.264926238560835 3.7180360953103957 1 0 0
1027 309 4 0 -5.032624210545491 -4.970984447998764 3.547360098518247 1 0 0
1192 364 4 0 -5.120192340182505 -4.739986576814227 3.2413562314206814 2 1 0
177 36 3 0 -3.3316317968614224 -4.324281520756991 3.34750655719545 1 0 0
176 36 1 0 -3.104786132291979 -4.037104415902714 3.5927434083077134 1 0 0
178 36 3 0 -2.663542782868701 -4.0904730815711305 3.534630147798161 1 0 0
503 135 2 0 -2.0610311698102928 -4.598004453302126 3.46857080263754 0 0 0
504 135 4 0 -2.461833978860667 -4.44300023486061 3.4617238362676446 0 0 0
505 135 4 0 -1.6542459492443378 -4.751534469324465 3.4751533441240845 0 0 0
448 116 4 0 -1.3751715860777702 -4.949214029481106 3.6825989786216926 0 0 0
1035 312 4 0 -4.166165653640903 -3.622752669297129 2.791381551187456 1 0 0
1034 312 2 0 -4.043957586903028 -3.57365940760667 3.243487693732323 1 0 0
1036 312 4 0 -3.9330679951985292 -3.510701569613611 3.6819961809446244 1 0 0
179 36 3 0 -3.2199291779609243 -3.5988122788023373 3.4705655321817286 1 0 0
945 282 4 0 -3.0610411545662144 -3.3348406043402314 3.741912896067097 1 0 0
944 282 2 0 -2.963425776592213 -3.0158820249277505 4.058313515811285 1 0 0
968 290 2 0 -0.2781902053588663 -2.908938949350119 3.166100185036399 1 0 0
499 133 4 0 -5.0032447283846535 -2.2506630997170487 2.9400294038616135 1 0 0
497 133 2 0 -4.593946527649345 -2.0526667934498746 2.9828596308355966 1 0 0
498 133 4 0 -4.161065169872558 -1.8455129311571987 3.0224890302408216 1 0 0
154 31 3 0 -0.8527016021786853 -2.573206094513406 3.427368366286114 1 0 0
970 290 4 0 -0.7361620873473793 -2.780891052478764 3.0833410895910713 1 0 0
1303 401 4 0 -5.520575610426038 -0.12332109880610798 3.641197257784576 2 0 0
1200 367 4 0 -5.116586701280949 -0.10755234174419837 3.6131475651988225 2 0 0
974 292 2 0 -5.740269270538312 -3.6859557721696437 0.4885922185799627 1 0 0
973 291 4 0 -1.8353858149936624 -2.5367361618069 5.058889617815897 1 0 0
1026 309 4 0 -4.439692428916952 -5.543357888182515 3.88104248931319 1 0 0
936 279 4 0 -4.062418700728525 -5.643151623239162 3.780295276153705 1 0 0
935 279 2 0 -3.7549072458138206 -5.691333975231644 4.063258800622673 1 0 0
335 79 2 0 -5.180861901839375 -1.1549002756318156 5.7140849247295975 1 0 -1
336 79 4 0 -4.968778844408023 -0.9359254894504287 5.338414930491195 1 0 -1
1316 406 2 0 -1.4393268532269463 -2.0306541296519134 4.973428115202081 1 0 0
1318 406 4 0 -1.4622307704487332 -2.4931331317367214 4.988809901759215 1 0 0
1332 411 4 0 -1.2217841565015668 -1.4688653304241805 5.257282313481536 1 0 0
180 36 3 0 -3.2091125311803625 -4.0930540260702575 4.044694541878188 1 0 0
1032 311 4 0 -3.1565605174991873 -4.178126909708551 4.397025144975883 1 0 0
1031 311 2 0 -3.0523135448392735 -4.294811900941747 4.823861892106979 1 0 0
446 116 2 0 -1.0550192561595413 -4.7152196230390855 3.919000468497007 0 0 0
447 116 4 0 -0.7148607295204723 -4.475636050020271 4.159164487940364 0 0 0
949 283 4 0 -4.778586893430972 -3.3505271642552783 4.796174940933893 1 0 0
947 283 2 0 -5.156978308052622 -3.1327148330758585 4.87455091234971 1 0 0
931 277 4 0 -4.006264622820158 -3.60744209930878 4.06391231210409 1 0 0
929 277 2 0 -4.233058002855866 -3.377093423461156 4.374117494844597 1 0 0
517 139 4 0 -0.7765471376478432 -3.267669440869276 4.248043520987345 0 0 0
515 139 2 0 -0.7711529261467538 -3.3528584632761103 4.6980190229039565 0 0 0
930 277 4 0 -4.457406258681626 -3.1391540931889836 4.700490040967349 1 0 0
946 282 4 0 -2.862547666460406 -2.6890528045091813 4.377270181004837 1 0 0
155 31 3 0 -1.2336422500846354 -2.2470258300187314 3.9933497950802845 1 0 0
151 31 1 0 -0.8508779978312182 -2.4513662202639503 3.8964650406402956 1 0 0
152 31 3 0 -0.8020980033235716 -2.8599113736045725 4.161612399893562 1 0 0
153 31 3 0 -0.5079724961872776 -2.180251568220053 3.9961553862762287 1 0 0
964 288 4 0 -0.21858609596186618 -1.9215761058403134 4.079994903042335 1 0 0
962 288 2 0 -0.12912119433159308 -1.5728119996453724 4.302883331087603 1 0 0
1331 411 2 0 -1.0838619657805708 -1.021169161403968 5.368520440590718 1 0 0
1317 406 4 0 -1.4199984766619558 -1.6093083378199289 4.954713369218574 1 0 0
1019 307 2 0 -5.697563891956534 -5.268993189046984 5.478611646568165 1 0 0
1020 307 4 0 -5.37605856225625 -5.520339551362491 5.674282329727605 1 0 0
523 141 4 0 -4.772617925258286 -0.6481197376559882 5.154771458155524 1 0 0
1033 311 4 0 -2.950582255971029 -4.404498986332988 5.2502395556293795 1 0 0
428 110 2 0 -2.452816800286396 -4.620955335717017 5.778817543072828 0 0 0
430 110 4 0 -2.658054700561322 -4.6348394566051425 5.360652530316029 0 0 0
521 141 2 0 -4.377622178427847 -0.4316450280401156 5.299516022706754 1 0 0
972 291 4 0 -2.394223893698511 -3.1080064006882937 5.54844496241213 1 0 0
971 291 2 0 -2.1125819386632134 -2.818893693093395 5.309352129750293 1 0 0
419 107 2 0 -0.9537456027490636 -3.4667912877609943 5.814631395442223 0 0 0
516 139 4 0 -0.7707286867696688 -3.4287180406693007 5.108072125119092 0 0 0
421 107 4 0 -0.6989315165805614 -3.2651988338944236 5.473303414154271 0 0 0
937 279 4 0 -3.4545544625933577 -5.7495335449439136 4.370821392729848 1 0 0
349 83 4 0 -5.669906840382133 -1.7711825888469832 0.09304080426382733 1 0 0
963 288 4 0 -0.03264669553644861 -1.184020646437193 4.543706441781573 1 0 0
159 32 3 0 -2.579110558129078 -3.319256783403093 5.820283528151052 1 0 0
1269 390 4 0 -0.6349869797729104 0.21047072792520627 -5.090058363161448 1 0 1
648 183 4 0 -3.56605342515358 1.8476100426722706 -5.423601158844899 1 0 0
647 183 2 0 -3.524021792713656 1.4594553158232042 -5.633191691232085 1 0 0
612 171 4 0 -3.9462986403887035 1.9625093412403505 -5.312250865424136 1 0 0
611 171 2 0 -4.414067062030719 1.9837245897704907 -5.208731561735529 1 0 0
613 171 4 0 -4.8768458531221786 1.998396628127903 -5.097408519950312 1 0 0
706 202 4 0 -1.8803102282446997 1.9002802771628247 -5.544746915667463 1 0 1
704 202 2 0 -1.8795306566081034 2.2793305105020103 -5.269884308358265 1 0 1
1125 342 4 0 -5.8116359996638725 3.6978032129144225 -1.0021894767701172 2 0 0
1149 350 4 0 -3.4399127711122053 3.4476362520661663 -5.3731883717603885 2 0 0
1273 391 4 0 -3.5970400220145997 3.1091760412669025 -5.552318946805368 2 0 1
1254 385 4 0 -1.7641188012862807 3.6875239287566792 -5.571005638815892 2 0 1
1148 350 2 0 -3.635303002939922 3.7225494421710685 -5.055332966453644 2 0 0
1030 310 4 0 -0.10031044935197642 0.34793613903921905 -0.1896038395882691 1 0 0
1314 405 4 0 -1.4768461844010146 5.7769642818802875 -5.257740497991627 2 0 1
1341 414 4 0 -1.2526637686328383 5.618230057429384 -4.95888077640745 2 0 1
81 17 1 0 -4.156847757581843 0.5040705767836471 -4.462789641212965 1 0 0
82 17 3 0 -4.450827167697594 0.8284358211350531 -4.551705422304958 1 0 0
84 17 3 0 -4.316978236399653 0.10328856528752883 -4.630243118733397 1 0 0
83 17 3 0 -4.0989944009314465 0.47778385855322814 -4.009000476236515 1 0 0
550 150 4 0 -3.3837941224283274 0.472131505065172 -4.590330481891011 1 0 0
85 17 3 0 -3.7528472696453363 0.60343993839696 -4.667995450550328 1 0 0
548 150 2 0 -2.936306740057348 0.46278726896754296 -4.523603938557736 1 0 0
549 150 4 0 -2.4548969001777934 0.4466797745952338 -4.441838771207679 1 0 0
379 93 4 0 -2.2532300963182434 0.11592485000901132 -4.411418016093417 1 0 0
1268 390 2 0 -0.5819325005312068 0.34456122656481813 -4.664027951284654 1 0 1
1270 390 4 0 -0.5264373420324882 0.48162302958606595 -4.213187090774992 1 0 1
885 262 4 0 -0.4350278371156042 0.47838684193270264 -3.833424500317794 1 0 0
650 184 2 0 -5.111845886710119 2.4445637877432915 -4.449937255855569 1 0 0
651 184 4 0 -5.2757107449211 2.537289330631003 -4.010857544586313 1 0 0
652 184 4 0 -4.951823907589557 2.3554123740809434 -4.8732104456885414 1 0 0
1093 331 4 0 -3.026338166658956 3.105034199576494 -3.6844697544511673 2 0 0
705 202 4 0 -1.8830507146810174 2.656190074298607 -4.998697373796388 1 0 1
1065 322 4 0 -1.877689110849221 2.7814912208453926 -4.602462630415059 2 0 0
1054 318 4 0 -4.0183572043452225 4.172591438994752 -4.48653991298702 2 0 0
1052 318 2 0 -4.343156683324421 3.9094961815487714 -4.288075186082952 2 0 0
1064 322 2 0 -1.652163783427743 3.190280722755535 -4.489224896400718 2 0 0