LAMMPS data file via write_data, version 19 Nov 2024, timestep = 100000, units = lj

1342 atoms
4 atom types
928 bonds
1 bond types
664 angles
2 angle types

-5.848029 5.848029 xlo xhi
-5.848029 5.848029 ylo yhi
-5.848029 5.848029 zlo zhi

Masses

1 1
2 1
3 0.1
4 0.1

Bond Coeffs # harmonic/omp

1 100 0.45

Angle Coeffs # harmonic/omp

1 100 180
2 100 109.471

Atoms # full

42 9 3 0 -3.7481895614455643 -4.475797464233679 -5.740309340924273 0 0 1
552 151 4 0 -3.4073926025487644 -4.701944657945288 -5.714179752959244 0 1 0
846 249 4 0 -1.7290781501247023 -5.689694686659919 -5.366296147656015 0 0 0
845 249 2 0 -2.1754558863729327 -5.611638412053265 -5.448266612296986 0 0 0
847 249 4 0 -2.6291034903413135 -5.5211503634857255 -5.540550300656654 0 0 0
267 56 4 0 -2.856956035866253 -5.8025706216541995 -5.353859862370121 0 0 0
819 240 4 0 -1.332018357497321 -5.582096284545551 -5.366194907312974 0 0 0
818 240 2 0 -1.099519461019727 -5.398593075156446 -5.040526586733844 0 0 0
820 240 4 0 -0.8548719105763566 -5.209762618014458 -4.702826195609626 0 0 0
452 118 2 0 -5.193997596945778 -3.1086101699647437 -5.763276320433069 0 0 1
540 147 4 0 -5.824770229851009 -0.009936219747045583 -1.3040762304914897 0 0 0
45 9 3 0 -3.731826083910475 -3.785154185622119 -5.41724011053094 0 0 1
276 59 4 0 -3.446911205407988 -3.5501720183368173 -5.269864527923419 0 0 0
275 59 2 0 -3.308664641703779 -3.7349935381429242 -4.8890990990173115 0 0 0
277 59 4 0 -3.147549687405799 -3.941915177403048 -4.473641791054119 0 0 0
41 9 1 0 -3.8625773059035353 -4.043311106176052 -5.80129632275869 0 0 1
381 94 4 0 -2.4881067070060623 -2.9608629209230233 -5.804939922520171 0 0 0
453 118 4 0 -5.200550931974226 -2.6951336443565226 -5.622702813630244 0 0 1
198 40 3 0 -5.100911302536726 -2.319107865201245 -5.760232167405849 1 0 1
197 40 3 0 -4.9873467117066905 -2.2003360944435966 -5.068698294955801 1 0 1
196 40 1 0 -5.1927628615535 -2.0524286594292906 -5.42671789622133 1 0 1
200 40 3 0 -5.061598612270576 -1.6436462326295855 -5.525822721986971 1 0 1
199 40 3 0 -5.645607144818147 -2.0455030093165036 -5.357466621514711 1 0 1
384 95 4 0 -4.966084607411535 -2.0504181817843357 -4.69102797593834 0 0 0
337 79 4 0 -3.1088228802067803 -1.9804999996814172 -5.264165135185262 0 0 0
335 79 2 0 -3.184230000018999 -1.584563452066482 -5.4643331321638815 0 0 0
380 94 2 0 -2.601911720600809 -2.8478450114285394 -5.379722273845802 0 0 0
382 94 4 0 -2.713827318650737 -2.743175425965325 -4.970941773829826 0 0 0
298 66 4 0 -2.468394588816595 -2.8269016658512953 -4.682736033935567 0 0 0
256 52 4 0 -1.6371132434568925 -1.9524106736720341 -4.829204231147887 0 0 0
80 16 3 0 -1.7579521843368957 -1.583971860899678 -4.7814155799914255 0 0 0
255 52 4 0 -0.9375334636263809 -2.2243108776861433 -5.358186386490267 0 0 0
393 98 4 0 -0.5629894229553912 -2.3642537669742696 -5.365051259061091 0 0 1
392 98 2 0 -0.26152113625662465 -2.040548075902895 -5.526270876374985 0 0 1
254 52 2 0 -1.2994560060929088 -2.0880889481584806 -5.087796164091007 0 0 0
360 87 4 0 -4.964333723364322 -0.6615015583205379 -5.700402372608372 0 0 0
22 5 3 0 -4.8127310405721415 -0.4374555881446704 -5.418013596156862 0 0 0
23 5 3 0 -4.797335659136659 -0.40731571853191884 -4.691619124561648 0 0 0
21 5 1 0 -4.880440205968325 -0.17677077627839263 -5.0737918933574475 0 0 0
25 5 3 0 -5.317325328294286 -0.03353015695863462 -5.0596459749301195 0 0 0
336 79 4 0 -3.2678611051912 -1.1951848065609816 -5.667384266730096 0 0 0
85 17 3 0 -3.4520136565721806 -0.5020289665179392 -4.6297712835733815 0 0 0
550 150 4 0 -3.1221567303889013 -0.2530207661525653 -4.802286425801497 0 0 0
77 16 3 0 -2.4564851281282483 -1.3985547358344126 -4.82033193966055 0 0 0
76 16 1 0 -2.0449856720176247 -1.2798399627215167 -4.936932867015648 0 0 0
78 16 3 0 -2.010463678531102 -1.2607006177421474 -5.383138556388058 0 0 0
79 16 3 0 -1.936050226348069 -0.8671532385978047 -4.76604064272424 0 0 0
330 77 4 0 -2.650717556705758 -1.4778907607012488 -4.482473765659409 0 0 0
548 150 2 0 -2.7217083969387112 -0.04297126981704535 -4.819665371353932 0 0 0
769 223 4 0 -1.7204547380900355 -1.4208562549035804 -5.609150859971509 0 0 1
717 206 4 0 -0.411955839020982 -0.11113863461598619 -4.658078792223586 0 0 1
928 276 4 0 -0.16777264209331516 -0.4555415181076747 -4.728741355899689 0 0 0
15 3 3 0 -4.790648749067769 -5.428062271095399 -2.9830647532395185 0 0 0
873 258 4 0 -5.23356779498071 -4.709782786016354 -3.8441269521324775 1 0 0
587 163 2 0 -4.565679635924929 -4.98734713077395 -3.9939258401412534 0 1 0
588 163 4 0 -4.872406894161252 -4.696911687815905 -3.9753750750594095 0 1 0
872 258 2 0 -5.581146263502539 -4.414219437393093 -3.8585362727648382 1 0 0
4 1 3 0 -4.0309739258845 -5.593769180592888 -4.239857693336933 0 0 0
589 163 4 0 -4.22378863131085 -5.317562140023007 -4.003692963636742 0 1 0
557 153 2 0 -1.6219131474705921 -5.746533346746959 -3.159403768397523 0 1 0
354 85 4 0 -2.065390393896158 -4.547145554231423 -4.099062460986364 0 0 0
321 74 4 0 -0.7217243878961246 -5.150170282676816 -4.327187739552145 0 0 0
320 74 2 0 -0.9568197000233328 -5.1504393350538376 -3.9410721207897152 0 0 0
322 74 4 0 -1.1892873027192195 -5.157261159274674 -3.5469492865996 0 0 0
558 153 4 0 -1.2755585432878618 -5.495726189787101 -3.3286810382742242 0 1 0
258 53 4 0 -5.832055674426729 -3.308610172954511 -3.8260073392679583 0 0 0
259 53 4 0 -4.97789702304067 -3.3451034453215613 -4.05306298705724 0 0 0
387 96 4 0 -4.8314289533664185 -3.3842265226540333 -3.6704875170655753 0 0 0
257 53 2 0 -5.414506728248025 -3.3212220848707896 -3.9380896340561202 0 0 0
386 96 2 0 -4.453043860837116 -3.5196585743755087 -3.449677870639936 0 0 0
388 96 4 0 -4.100051776532583 -3.65699017144542 -3.229165726252283 0 0 0
376 92 4 0 -3.7143724371795015 -3.694633868116747 -3.2571829884172816 0 0 0
374 92 2 0 -3.2749779784135606 -3.6778066321818437 -3.0974396495241825 0 0 0
355 85 4 0 -2.7465556544863303 -3.992961183905782 -4.357575177514151 0 0 0
353 85 2 0 -2.420332944780659 -4.261307127082584 -4.228996029588344 0 0 0
314 72 2 0 -1.8428514598628718 -3.218767824831308 -3.328823491450452 0 0 0
316 72 4 0 -1.6792848000898526 -3.5163558680642515 -3.0531459300965382 0 0 0
315 72 4 0 -2.01295886317669 -2.89826278294611 -3.6108037684450163 0 0 0
349 83 4 0 -0.9807434087734458 -4.419448306812375 -3.048638067550845 0 0 0
347 83 2 0 -1.2318374740349953 -4.062454469228642 -2.909507055929468 0 0 0
383 95 2 0 -4.779246305598825 -2.0778987337627974 -4.286882135196939 0 0 0
125 25 3 0 -4.552317688549437 -1.9843136164875232 -3.507056161660066 1 0 0
385 95 4 0 -4.5969761475154645 -2.103209335430423 -3.87766439900888 0 0 0
121 25 1 0 -4.7802875302076755 -1.7899690190889084 -3.1746959027592645 1 0 0
123 25 3 0 -5.176776652890553 -1.6073493083595283 -3.339074654076424 1 0 0
124 25 3 0 -4.534074147396203 -1.4706941323052398 -2.9933483099057687 1 0 0
373 91 4 0 -3.1598637895126918 -1.8322987687223236 -3.526571500566922 0 0 0
371 91 2 0 -3.2558915377723703 -2.041876313344903 -3.1440978474611887 0 0 0
331 77 4 0 -2.9750216492816897 -1.4999844546184962 -3.6549728120749934 0 0 0
296 66 2 0 -2.3353233241005333 -2.7173174546160883 -4.247851209095308 0 0 0
297 66 4 0 -2.197904931904625 -2.6283296407074173 -3.855788217377796 0 0 0
329 77 2 0 -2.811250957536501 -1.487411995309864 -4.075461153105802 0 0 0
344 82 2 0 -1.4100091337891842 -1.9783465884857336 -3.1320709024783615 0 0 0
346 82 4 0 -1.3061985726800804 -1.5980498168657025 -3.366020857753668 0 0 0
73 15 3 0 -5.550066466761737 -0.15970879792077153 -3.762022057578703 0 0 0
1104 335 4 0 -5.555821221705557 -0.5239234693813156 -3.9488269400863563 1 0 0
1105 335 4 0 -5.278026291418343 -1.3293420866971197 -3.613980638183579 1 0 0
1103 335 2 0 -5.418040114817005 -0.9054324859610249 -3.787724026757504 1 0 0
311 71 2 0 -4.630900809327572 -0.04074772289115862 -4.008226450798244 0 0 0
83 17 3 0 -3.413391041571342 -0.21581234524429455 -3.9460109254060747 0 0 0
313 71 4 0 -4.238229229770896 -0.27192111809240455 -3.9547961745303026 0 0 0
334 78 4 0 -4.205314988388865 -1.3176431176611707 -3.1224472722955476 0 0 0
82 17 3 0 -4.050128522615538 -0.31052078519102877 -4.286440673679948 0 0 0
333 78 4 0 -3.583840261253715 -1.0072987048414246 -3.6723651802916586 0 0 0
84 17 3 0 -3.683785033345334 -0.9032730189178294 -4.066164549750249 0 0 0
332 78 2 0 -3.888419555953072 -1.1587183926456008 -3.405389976671843 0 0 0
81 17 1 0 -3.6518523774452705 -0.47759306285996506 -4.2390206204425525 0 0 0
886 262 4 0 -0.970718275735836 -0.10368816666187919 -3.6974766242951635 0 0 0
630 177 4 0 -5.4433704822146805 -4.7856933799050365 -1.7294472329688022 0 1 0
282 61 4 0 -3.2140496045347753 -5.502299706595241 -1.8340304453728506 0 0 0
634 178 4 0 -3.4777700932779947 -5.602505191754071 -1.5267456084783568 0 1 0
281 61 2 0 -2.850894581808679 -5.743722661546246 -1.758285283301919 0 0 0
564 155 4 0 -0.14414763014056844 -5.446961314993234 -1.513703070203762 0 1 0
95 19 3 0 -0.25209037753695934 -5.817555936089876 -1.5517194466986572 0 1 0
629 177 2 0 -5.334973328470502 -4.357205955727584 -1.8167823801803085 0 1 0
293 65 2 0 -4.698492253116222 -3.450698252463134 -2.3311565004958794 0 0 0
631 177 4 0 -5.215829166487489 -3.93223602156269 -1.9039864573132506 0 1 0
295 65 4 0 -5.0315502725619154 -3.7556363882980905 -2.214472813010564 0 0 0
294 65 4 0 -4.383508015241029 -3.159451243612108 -2.432724801618277 0 0 0
304 68 4 0 -4.126439368922386 -2.9726013847801944 -2.2162182776731747 0 0 0
375 92 4 0 -2.8325647073078257 -3.6566733182480946 -2.943787241853863 0 0 0
348 83 4 0 -1.4619827057241992 -3.7317826471651814 -2.7838195144644966 0 0 0
270 57 4 0 -2.780230065665279 -3.3719845790810203 -2.6434705834356613 0 0 0
513 138 4 0 -1.9527502010279039 -3.719508737757701 -1.7298162550139784 0 0 0
269 57 2 0 -2.5022174851036247 -3.4491113678604903 -2.3065506333355223 0 0 0
271 57 4 0 -2.22625567426426 -3.537888106300652 -1.9660870334128744 0 0 0
122 25 3 0 -4.879609684830859 -2.102813313993961 -2.8449859246077263 1 0 0
372 91 4 0 -3.3629615617168542 -2.2652190977909927 -2.725485374224828 0 0 0
303 68 4 0 -3.7530337431093166 -2.37694413726845 -2.8097574376989383 0 0 0
302 68 2 0 -3.9426608121682047 -2.6764233841013136 -2.505717277644222 0 0 0
889 263 4 0 -1.8387546009107678 -1.9323743351186793 -1.7170596651916905 0 0 0
345 82 4 0 -1.5213028478708857 -2.3910611028910442 -2.8733543736721416 0 0 0
888 263 4 0 -1.6242800720703 -2.420830634678935 -2.4707867717391965 0 0 0
887 263 2 0 -1.7324202349216544 -2.1688184549824556 -2.0764956787207662 0 0 0
310 70 4 0 -5.179014026164783 -0.9175868174669415 -1.739715804268249 0 0 0
9 2 3 0 -1.7434717316988484 -0.1031906825942961 -1.6762513670656374 0 0 0
1206 369 4 0 -5.735464609781603 -5.47090716315872 -0.6977930919198754 1 1 0
1207 369 4 0 -5.403753998007134 -5.061395708029758 -1.4473761834316368 1 1 0
509 137 2 0 -4.5724819338993274 -5.121465203410814 -0.3119610375809355 0 0 0
1205 369 2 0 -5.569791190256664 -5.277654001513252 -1.059902673803295 1 1 0
510 137 4 0 -4.2768268519071135 -5.132459873844769 -0.658328138600208 0 0 0
632 178 2 0 -3.7405372324261297 -5.376150314920304 -1.2102441587880797 0 1 0
633 178 4 0 -3.9868650293260877 -5.161231672624761 -0.9026816217785714 0 1 0
735 212 4 0 -2.6580873256933555 -4.765840944490624 -0.8439151400339904 0 1 0
17 4 3 0 -1.594497333067751 -4.861616241064736 -0.6994132252489286 0 0 0
734 212 2 0 -2.2984061472507222 -4.8713552578353845 -0.656445266493343 0 1 0
736 212 4 0 -1.9216161276170831 -4.975724100608435 -0.45450876965661685 0 1 0
563 155 2 0 -0.4159244555604331 -5.086784599572655 -1.3686050514977086 0 1 0
565 155 4 0 -0.6700132181803061 -4.745610074109861 -1.231765040432583 0 1 0
19 4 3 0 -0.9797754999648123 -4.618809810820575 -1.0108475003641284 0 0 0
16 4 1 0 -1.2650743108829656 -4.538514724681945 -0.6976800075285949 0 0 0
18 4 3 0 -1.0527469692801499 -4.525508433687454 -0.28879429848046895 0 0 0
279 60 4 0 -5.504205015848927 -3.1583694726873404 -0.9129445076751638 0 0 0
803 235 2 0 -5.533644190699745 -3.4637396878998206 -0.13582922716092788 1 0 0
805 235 4 0 -5.606558256790692 -3.3586971889660346 -0.5729593952876602 1 0 0
514 138 4 0 -1.6722725911253924 -3.8186636077562555 -0.8901693415732393 0 0 0
512 138 2 0 -1.816732761610776 -3.7632728214352693 -1.3166658443871049 0 0 0
20 4 3 0 -1.4630194620032742 -4.134771665635105 -0.7707952411868538 0 0 0
137 28 3 0 -5.806887697240732 -1.8043827128580603 -0.31535639965104784 1 0 0
278 60 2 0 -5.4292917360642186 -2.7249642306812376 -1.0102404922568535 0 0 0
139 28 3 0 -5.360142432435758 -1.973251279007483 -0.8750262389493638 1 0 0
280 60 4 0 -5.3456690828720035 -2.2712782420810287 -1.1259634767094537 0 0 0
136 28 1 0 -5.39448745051448 -1.733471996966895 -0.5102553651915027 1 0 0
138 28 3 0 -5.081582345553534 -1.8421283314475954 -0.22720461539165135 1 0 0
480 127 4 0 -3.4063379968777623 -2.281320248205624 -0.10487572815975063 0 0 0
479 127 2 0 -3.0137308757713943 -2.025950800324773 -0.053685464741156555 0 0 0
481 127 4 0 -2.6274589443736986 -1.7721646858587912 -0.008787380573471287 0 0 0
341 81 2 0 -1.6858454729684276 -2.1452901802416178 -0.9414981740971425 0 0 0
343 81 4 0 -1.8146891360473234 -1.8772563250111585 -1.3115592362636745 0 0 0
342 81 4 0 -1.5518252726263864 -2.4062622209770774 -0.5791666247734643 0 0 0
459 120 4 0 -0.07733263328865028 -2.7383448736212292 -0.28290016252005346 0 0 0
290 64 2 0 -0.9154258353159311 -2.6990645511570346 -0.311609015146169 0 0 0
291 64 4 0 -0.4437240184067217 -2.666704216070953 -0.20815807224602367 0 0 0
292 64 4 0 -1.375176950581973 -2.718048866006398 -0.42076932707760606 0 0 0
308 70 2 0 -5.178415332907063 -0.9929898971647421 -1.2913573521844084 0 0 0
140 28 3 0 -5.356493014457958 -1.2885532453636213 -0.6229302174362145 1 0 0
309 70 4 0 -5.174185401072856 -1.0729395242620838 -0.864467088428729 0 0 0
525 142 4 0 -2.536975925243971 -0.47565954919956954 -0.11854420710148227 0 0 0
524 142 2 0 -2.5732221213969355 -0.9204460915517014 -0.09640033312502765 0 0 0
367 89 4 0 -2.6363544416678586 -0.12135424238727224 -0.281154126555583 0 0 0
526 142 4 0 -2.6195389695138402 -1.3869343831214336 -0.07466981402402094 0 0 0
855 252 4 0 -0.02302349028621812 -2.1289984186756197 -3.329784873422807 0 0 0
462 121 4 0 -4.8287158889388255 -4.711524406175272 0.1495420070058709 0 0 0
461 121 2 0 -4.907343139076037 -4.485092247914935 0.5170510715440853 0 0 0
511 137 4 0 -4.84472641512367 -5.108883910199243 0.028742615987998387 0 0 0
423 108 4 0 -2.4323986603881997 -5.675204390272906 0.6107866267304334 0 0 0
424 108 4 0 -2.5545836278356213 -4.827267868965466 0.7535318270363488 0 0 0
422 108 2 0 -2.4871842907141932 -5.23517577983679 0.6896742063803714 0 0 0
529 143 4 0 -2.6889399313810487 -4.610839447791892 0.43016723762829084 0 0 0
467 123 2 0 -1.0727865594167934 -4.5496337320511 0.5319711141131664 0 0 0
469 123 4 0 -1.0804279046082823 -4.448903233703223 0.9923535595978925 0 0 0
468 123 4 0 -1.0551586649751064 -4.636539531189409 0.08516929307024192 0 0 0
463 121 4 0 -4.9964275414075585 -4.231834256659332 0.9160408493901108 0 0 0
38 8 3 0 -5.075818506832018 -4.009096199081734 1.260609766502447 0 0 0
47 10 3 0 -5.383555840774499 -3.6378930534072773 0.6674529445244832 0 0 0
50 10 3 0 -5.189830413195901 -3.318919361519487 1.3250829769753445 0 0 0
46 10 1 0 -5.550751680336639 -3.467154889893367 1.0360922598687787 0 0 0
370 90 4 0 -4.865322734902471 -3.1243178752734773 1.1704266800888552 0 0 0
49 10 3 0 -5.816833823608351 -3.8051993923170198 1.2705999416206961 0 0 0
804 235 4 0 -5.459383903661715 -3.545495806714604 0.28009605755450256 1 0 0
48 10 3 0 -5.823463550339585 -3.126805737302555 0.9304010905756909 0 0 0
433 111 4 0 -3.5167422852409578 -3.8380427184853336 0.8306410919970958 0 0 0
431 111 2 0 -3.75979920132065 -4.003913535877696 1.1851229723442933 0 0 0
528 143 4 0 -3.1711715033548042 -3.8530685030675933 0.6100003521093499 0 0 0
527 143 2 0 -2.9396690932907643 -4.219894546222318 0.5191281859213827 0 0 0
974 292 2 0 -1.526062158560706 -3.9497118095339907 1.4863967093812323 0 0 0
976 292 4 0 -1.3902669674980308 -4.337347544924273 1.2543075839762707 0 0 0
478 126 4 0 -2.986027834689252 -2.765122552177997 1.4199953067776074 0 0 0
476 126 2 0 -2.6280025470008965 -2.668889684751866 1.1528541540049024 0 0 0
477 126 4 0 -2.2600309838075305 -2.563233718988001 0.8747191698547826 0 0 0
323 75 2 0 -1.4941327766811359 -2.353013316994426 0.9377550588357351 0 0 0
325 75 4 0 -1.916228905996829 -2.4976649930144768 0.9710337300565433 0 0 0
324 75 4 0 -1.0678130692184378 -2.1939916043725853 0.902212910956889 0 0 0
472 124 4 0 -5.483887657747379 -1.3789722130648978 0.7215236793217638 0 0 0
1339 413 4 0 -5.341454249295001 -1.2879107113348234 1.0960343245281459 1 0 0
447 116 4 0 -4.819992460069962 -4.646620470236184 2.1623370781869022 0 0 0
446 116 2 0 -4.5727573018711745 -4.57614533310154 2.57779991277116 0 0 0
39 8 3 0 -4.911752029294389 -4.491343429228349 1.8126092549954391 0 0 0
418 106 4 0 -3.1190606041491673 -5.146498138949713 2.436700443576777 0 0 0
416 106 2 0 -2.946768825650961 -5.492477314494941 2.2285060496416214 0 0 0
505 135 4 0 -2.913827055907921 -4.97625236762682 2.748144327039599 0 0 0
933 278 4 0 -1.0130224226565232 -5.201441100332495 2.2471708087843507 0 0 0
932 278 2 0 -0.6942695320191367 -5.479035034777427 2.3540293469393125 0 0 0
934 278 4 0 -0.36950771812614813 -5.756825686679822 2.4717432383467175 0 0 0
368 90 2 0 -4.586184916548768 -2.9923822602579624 1.4549752700620346 0 0 0
40 8 3 0 -5.000658966180693 -3.7904165155169927 1.9885733986392593 0 0 0
36 8 1 0 -4.840894461308363 -4.084081470751468 1.6702121565568242 0 0 0
493 131 4 0 -5.1418781908446 -3.4529380530301226 2.1452958515108445 0 0 0
491 131 2 0 -5.092887643981906 -3.1184763043825217 2.468118438908741 0 0 0
37 8 3 0 -4.363652085394083 -4.004629863207361 1.5939924191735058 0 0 0
432 111 4 0 -3.984670027566142 -4.159550670648757 1.5221363701579562 0 0 0
975 292 4 0 -1.6389047177002638 -3.5780632819654183 1.6873227012477559 0 0 0
487 129 4 0 -0.5140479749151988 -3.14516899943723 2.527293487657009 0 0 0
520 140 4 0 -0.2427918513960477 -3.1368935460662475 2.829302825474561 0 0 0
492 131 4 0 -5.038775573823344 -2.7855093987242245 2.781506091190589 0 0 0
426 109 4 0 -5.016428217847543 -2.392595648655028 2.866507638431793 0 0 0
369 90 4 0 -4.293458398418696 -2.858318016090634 1.7563902700262253 0 0 0
391 97 4 0 -3.2859554344994266 -2.5100660847109744 2.5506524876247427 0 0 0
33 7 3 0 -3.3134834256699666 -2.8037735182336787 2.2494224727802057 0 0 0
35 7 3 0 -3.298300116073403 -2.5216979231342846 1.5917974577916103 0 0 0
34 7 3 0 -3.9198725928261733 -2.891789630558019 1.8784131774733084 0 0 0
32 7 3 0 -3.6875043475817737 -2.241311053126146 2.176716184521379 0 0 0
31 7 1 0 -3.549955393328686 -2.6152670254802137 1.9896509778725766 0 0 0
399 100 4 0 -3.5165945532330714 -1.875106479491545 2.196212887604222 0 0 0
398 100 2 0 -3.6125541675988986 -1.4617292926356424 2.350036161192732 0 0 0
440 114 2 0 -0.686673471746195 -1.9111147026044786 1.6912691088947602 0 0 0
441 114 4 0 -0.2793859692557363 -2.1555734054701157 1.6979659057811654 0 0 0
486 129 4 0 -0.40752657094322964 -2.4642024448402085 1.9558343845196147 0 0 0
485 129 2 0 -0.4641265836298173 -2.8124512233860766 2.2546973265450045 0 0 0
442 114 4 0 -1.0708576623769963 -1.6837166991601458 1.6852141019165208 0 0 0
1338 413 4 0 -4.8060850427126 -1.1597355203976643 1.8655660727273953 1 0 0
1337 413 2 0 -5.082114500396946 -1.226337907472235 1.474065257272525 1 0 0
400 100 4 0 -3.698393803447241 -1.04072634956982 2.498461071457556 0 0 0
29 6 3 0 -3.886551023726546 -0.9383316973564894 2.8235562864477277 0 0 0
712 204 4 0 -1.7413949344221138 -0.6887589759872824 1.6737397296006649 0 0 0
114 23 3 0 -1.7901286133141028 -0.32327610622233854 1.849949085109883 0 0 0
710 204 2 0 -1.437193090230608 -0.9868079355444659 1.6172148683671306 0 0 0
711 204 4 0 -1.109735566848964 -1.3117037703866545 1.5572067777927754 0 0 0
496 132 4 0 -0.3041941796868278 -0.4116651337214174 2.5799306404511317 0 0 0
727 209 4 0 -0.1015310264321363 -0.24736046143996118 2.885665458566145 0 0 0
494 132 2 0 -0.655707238340701 -0.19076469445356148 2.3974692234598782 0 0 0
448 116 4 0 -4.359024317801693 -4.512290487059842 2.962928123859448 0 0 0
517 139 4 0 -4.144151354662585 -4.709156941635732 3.2402944397636833 0 0 0
515 139 2 0 -4.024975619196847 -4.593005783175555 3.677413902415938 0 0 0
516 139 4 0 -3.895064572176022 -4.474214784272206 4.093186674672092 0 0 0
421 107 4 0 -3.630856358894659 -4.585141117261082 4.355922222565666 0 0 0
396 99 4 0 -1.9459845291654185 -5.539656132779436 3.69635835607014 0 0 0
503 135 2 0 -2.6075373371801076 -4.721620019975464 2.9331460303803216 0 0 0
54 11 3 0 -1.7511107595982194 -5.201935215902243 3.640843377280241 0 0 0
55 11 3 0 -1.9436559872237877 -4.57915331655124 3.2607561999578976 0 0 0
504 135 4 0 -2.2865393594487133 -4.454027540881691 3.119110746375816 0 0 0
51 11 1 0 -1.6673306147586422 -4.740316619865576 3.591491585809698 0 0 0
52 11 3 0 -1.7480065935209066 -4.522509624542749 3.988306667230248 0 0 0
395 99 2 0 -2.058855186324442 -5.681832393958616 4.098504676796165 0 0 0
832 244 4 0 -1.7191122628030735 -4.674253264729737 4.342060285853741 0 0 -1
53 11 3 0 -1.2371034002249721 -4.674175801749499 3.4594183484538856 0 0 0
405 102 4 0 -0.6947395258537886 -4.390336986744951 4.2290949863054275 0 0 0
408 103 4 0 -5.421436243395751 -3.098038015261151 3.7174748460857736 0 0 0
407 103 2 0 -5.259352088201807 -3.430230330367795 3.985263922185218 0 0 0
409 103 4 0 -5.087035468667949 -3.756328172865493 4.240033318170306 0 0 0
993 298 4 0 -5.657454430744141 -2.987530471506233 3.404345419557439 1 0 0
425 109 2 0 -4.816852099827477 -2.056103634769607 3.034648257050582 0 0 0
427 109 4 0 -4.608136851023839 -1.6929402839908319 3.223612024583176 0 0 0
389 97 2 0 -3.111882551658311 -2.393466881556375 2.9718547283001078 0 0 0
390 97 4 0 -2.9462822372341075 -2.2773150930261377 3.404668100544815 0 0 0
502 134 4 0 -3.157561852458086 -2.0883376741018687 3.731178183697203 0 0 0
500 134 2 0 -3.477956723234373 -2.0512729790131874 4.092477327448856 0 0 0
483 128 4 0 -1.9866230937730653 -1.7717462839526594 3.4753962226698922 0 0 0
482 128 2 0 -2.1612815090439184 -1.9713870814762344 3.8363598542572057 0 0 0
484 128 4 0 -2.336061362963309 -2.1700753791070597 4.2059479270554085 0 0 0
402 101 4 0 -4.687176934579647 -0.49306913420113657 3.5176001589307764 0 0 0
403 101 4 0 -5.498672689158209 -0.26753439120746425 3.6909895342322554 0 0 0
401 101 2 0 -5.098367645752181 -0.3743267498480179 3.6109768101236064 0 0 0
28 6 3 0 -4.459623547695854 -0.6950767415377093 3.273452974647571 0 0 0
30 6 3 0 -4.319753063662215 -1.4152601831076304 3.170309640277022 0 0 0
26 6 1 0 -4.132449923143524 -1.02310697943512 3.211017113696186 0 0 0
27 6 3 0 -3.8642098711652335 -1.025839546608995 3.5576085669284705 0 0 0
435 112 4 0 -3.923764397066864 -0.8619133196802189 3.8963647897738665 0 0 0
434 112 2 0 -3.986780828370411 -0.9357788758231222 4.33902615913822 0 0 0
1031 311 2 0 -5.720502326744107 -5.363772367912615 5.667877449536292 1 0 0
1033 311 4 0 -5.291941082074515 -5.28499152129474 5.834279704665437 1 0 0
428 110 2 0 -4.773128799732176 -4.682344387687388 5.77896752014939 0 0 0
430 110 4 0 -4.943510152181037 -5.080948482292066 5.7358445384259875 0 0 0
551 151 2 0 -3.10242107932399 -5.002519116530713 5.7884030944607225 0 1 -1
397 99 4 0 -2.167177057214249 -5.840192219794217 4.519130428384141 0 0 0
766 222 4 0 -2.6781772768814727 -5.6316288286258 5.480052839204491 0 1 0
765 222 4 0 -2.0008609805434117 -5.61570694332771 4.826176012331187 0 1 0
553 151 4 0 -2.828119364296442 -5.266070823532397 5.61650316915261 0 1 -1
764 222 2 0 -2.331467632243736 -5.625338923612266 5.157129473513171 0 1 0
830 244 2 0 -1.8242572370397427 -4.459926106551518 4.70768290431111 0 0 -1
998 300 2 0 -0.2396249626278848 -5.750127381277479 5.057455566102963 0 0 0
999 300 4 0 -0.19910322451561624 -5.63841194513063 5.496972842728101 0 0 0
490 130 4 0 -4.957412508164155 -3.973010286607603 4.574166823265016 0 0 0
488 130 2 0 -5.057698373057827 -3.8746019241370666 5.022205291495398 0 0 0
489 130 4 0 -5.162435982851139 -3.7748160318030664 5.464510062932249 0 0 0
454 118 4 0 -5.186223740088783 -3.5318141820666056 5.789424200151224 0 0 0
419 107 2 0 -3.614194098959687 -4.354983999455749 4.760981181816991 0 0 0
420 107 4 0 -3.5926963993155847 -4.107733162092732 5.170760693870963 0 0 0
43 9 3 0 -3.6519609278762544 -3.880786529838077 5.517056473906526 0 0 0
44 9 3 0 -4.312578374112539 -4.020188006294956 5.837372288911756 0 0 0
831 244 4 0 -1.9216091336629102 -4.2293990622584134 5.087999206481342 0 0 -1
306 69 4 0 -2.096429328464177 -3.916229858955417 5.240997879204994 0 0 -1
305 69 2 0 -2.1295226154420175 -3.535504421452919 5.446365900500368 0 0 -1
307 69 4 0 -2.166751427473378 -3.1243986342457353 5.683273454863687 0 0 -1
404 102 2 0 -0.3852375833468719 -4.331667372920458 4.5585305662518065 0 0 0
406 102 4 0 -0.07311996701052366 -4.274394206922876 4.873314574701355 0 0 0
881 261 2 0 -4.466834024227978 -2.2209664665781954 4.701151872797216 1 0 -1
882 261 4 0 -4.912242103987684 -2.23872868421666 4.7059207746478275 1 0 -1
318 73 4 0 -5.280107289689215 -2.3127919788465343 4.8828732578699805 0 0 -1
317 73 2 0 -5.6383652370015955 -2.195830566171803 5.116685276035895 0 0 -1
883 261 4 0 -4.014839664977345 -2.1946064270243393 4.692153035070296 1 0 -1
501 134 4 0 -3.760244839637756 -2.0249768833291317 4.426949063017266 0 0 0
499 133 4 0 -2.428540680097024 -2.069541478248584 4.579529867034652 0 0 0
497 133 2 0 -2.3946509296247496 -2.0467072581594437 5.038070043655213 0 0 0
498 133 4 0 -2.3604954473372084 -2.0281662683421913 5.503852858966685 0 0 0
359 87 2 0 -4.674648756795125 -0.952051240025576 5.796741249728963 0 0 -1
361 87 4 0 -4.37752050474374 -1.2513008910621335 5.581663580244369 0 0 -1
523 141 4 0 -3.3899611790638184 -1.0558893524917963 5.671084304099555 0 0 0
522 141 4 0 -3.517752638476917 -0.18454316436905283 5.43188768830714 0 0 0
521 141 2 0 -3.451622375626971 -0.6116727143083804 5.551146005469917 0 0 0
436 112 4 0 -4.047171179502966 -1.008439186130809 4.785793390934102 0 0 0
507 136 4 0 -1.507083881214217 -0.9606742697372784 4.825657469609451 0 0 0
767 223 2 0 -1.63531622708612 -1.2734566741652742 5.666467732209812 0 0 0
768 223 4 0 -1.555029659710718 -1.1128630640486659 5.209957285231713 0 0 0
413 105 2 0 -0.1922269901923007 -0.32271922611088016 5.014269125183305 0 0 0
508 136 4 0 -0.7453340104326885 -0.5107331231142365 4.709754591770201 0 0 0
506 136 2 0 -1.1455116167831516 -0.7428698576977646 4.769177131653662 0 0 0
414 105 4 0 -0.5585849843318048 -0.15936267365208823 4.731395504243474 0 0 0
1194 365 4 0 -0.0025076569335499258 -5.830470995878449 5.820156213657663 0 1 0
429 110 4 0 -4.606557587197722 -4.284256288964315 5.828387573178018 0 0 0
24 5 3 0 -4.6049636490420545 0.19161553180019988 -5.094331749027914 0 0 0
615 172 4 0 -3.324135923747337 1.10706040695551 -5.461932003424293 0 0 0
614 172 2 0 -3.3334377764531826 1.2367831591318001 -5.018217056777613 0 0 0
616 172 4 0 -3.345690166116947 1.3689168284185802 -4.587856084632135 0 0 0
465 122 4 0 -3.143634933193341 0.8876257459637042 -5.724293855104534 0 0 1
377 93 2 0 -1.7284258582152068 0.5936113756562639 -4.842453183598835 0 0 0
379 93 4 0 -2.1715941100818674 0.529486722982236 -4.889088611173299 0 0 0
549 150 4 0 -2.3374350172455167 0.15833555113645886 -4.831064607378078 0 0 0
718 206 4 0 -1.078421483656622 0.480921759945822 -4.512807183873395 0 0 1
378 93 4 0 -1.2937430643283698 0.6606362077509931 -4.788972656281792 0 0 0
716 206 2 0 -0.7391671832287058 0.18079607114485624 -4.583928525046788 0 0 1
617 173 2 0 -0.23900939925561226 1.9960441679923926 -4.451356154617737 0 0 0
601 167 4 0 -4.2166188331071455 3.2581551969871096 -5.562409100973467 0 0 0
599 167 2 0 -4.305023886413701 3.3866526935676164 -5.128789718733189 0 0 0
600 167 4 0 -4.401212201978164 3.5193436558534708 -4.694057201714711 0 0 0
571 157 4 0 -4.150920560311804 3.694208148763674 -4.401753790026626 0 0 0
577 159 4 0 -3.1444733565765435 3.282787490114074 -4.831572219975514 0 0 0
575 159 2 0 -3.1653094673119266 3.316325253315842 -5.258355582936982 0 0 0
655 185 4 0 -2.938638336306748 3.3246271149953777 -4.483817589937272 0 0 0
576 159 4 0 -3.1895086565104687 3.354738922778908 -5.713011020122329 0 0 0
684 195 4 0 -0.9840887015299475 3.8848969714596566 -5.483023116820937 0 0 1
778 226 4 0 -1.0200405890610869 4.239009558549541 -5.323268398155666 0 0 1
683 195 2 0 -1.0635538997915563 3.5030384141907693 -5.715396212187734 0 0 1
262 54 4 0 -5.168911038554553 4.662184739174009 -4.645840033244261 0 -1 0
260 54 2 0 -4.8534657358468705 4.878801219769475 -4.380897841049792 0 -1 0
5 1 3 0 -3.6048400214083856 5.526396884459915 -4.418907592501071 0 -1 0
268 56 4 0 -3.3537510381755147 5.473538281783653 -4.748001409761153 0 -1 0
266 56 2 0 -3.108534223701527 5.681518670928315 -5.052003697677303 0 -1 0
776 226 2 0 -1.1016616769999972 4.6044038912185 -5.595389208560502 0 0 1
312 71 4 0 -5.017495307852531 0.19121859403438463 -4.065478480998673 0 0 0
75 15 3 0 -5.336095214365687 0.4676480710665696 -4.092558869464571 0 0 0
71 15 1 0 -5.68634276533485 0.24928073137686177 -3.8883840776002785 0 0 0
72 15 3 0 -5.832264410327198 0.4867048835621042 -3.5249061963826516 0 0 0
339 80 4 0 -3.5634656082465486 0.13180596972184577 -3.8068552631499175 0 0 0
338 80 2 0 -3.540246401603857 0.1944997360644461 -3.355216398778034 0 0 0
706 202 4 0 -3.364993023476489 1.3605584470098726 -4.16452549368223 0 0 1
704 202 2 0 -3.601296721202881 1.299451144644366 -3.805951593619871 0 0 1
1051 317 4 0 -3.905780700703111 1.3548772463684187 -3.040268855121813 1 0 0
705 202 4 0 -3.8492064517673557 1.2432475295521361 -3.4292874066632337 0 0 1
340 80 4 0 -3.5203576198987476 0.2491045230068712 -2.92257110748584 0 0 0
1042 314 4 0 -0.8497526625752483 1.1139930031461578 -3.9921614573131765 0 0 0
884 262 2 0 -0.7443527763739254 0.05041224348847115 -3.3321656003202302 0 0 0
1040 314 2 0 -1.1463198709345555 1.4431962394908084 -3.9252155871053236 0 0 0