LAMMPS data file via write_data, version 19 Nov 2024, timestep = 1500000, units = lj

80 atoms
4 atom types
60 bonds
1 bond types
70 angles
2 angle types

-6 6 xlo xhi
-6 6 ylo yhi
-6 6 zlo zhi

Masses

1 1
2 1
3 1
4 1

Bond Coeffs # harmonic/omp

1 100 0.45

Angle Coeffs # harmonic/omp

1 100 180
2 100 109.471

Atoms # full

65 15 4 0 -4.795794858127977 -5.303062703779816 -5.415191852431211 0 0 1
63 15 2 0 -4.5264662786616165 -4.971454261385826 -5.350904298094221 0 0 1
64 15 4 0 -4.248962358202067 -4.623316048570586 -5.2739103358261925 0 0 1
74 18 4 0 -3.9887051980677417 -4.341219991239426 -5.414181551044844 0 0 1
72 18 2 0 -4.0567090518623 -3.9941203311666404 -5.73923809574392 0 0 1
30 6 3 0 -4.348362694095642 -2.6356048602871427 -5.927070175713086 1 1 1
14 3 3 0 -0.029406573294305335 -0.03236603042623318 -4.316930659007786 0 0 0
60 14 2 0 -0.09637640652205114 -5.631998705850878 1.5900592548519057 0 0 0
49 10 3 0 1.1801540126065149 -5.018502654076421 1.7038111071003936 0 1 0
62 14 4 0 0.1004485271526202 -5.253089748588902 1.7105438476959065 0 0 0
48 10 3 0 0.9162993732271835 -4.915127000484738 2.3173075507911443 0 1 0
46 10 1 0 0.8359658600643742 -4.914914840029309 1.9243624975669662 0 1 0
47 10 3 0 0.48854681713473347 -5.21818042732154 1.839590624376502 0 1 0
50 10 3 0 0.7020768747243585 -4.499971281464126 1.8073498588189625 0 1 0
3 1 3 0 1.3832261203386476 -3.25596369530315 4.149182904007342 0 0 -1
24 5 3 0 -4.8971545686402 -3.806902577331204 5.162583861218256 1 0 0
23 5 3 0 -4.474661550795619 -3.7627342125156518 5.757755635426811 1 0 0
21 5 1 0 -4.896042571568392 -3.7690456579704295 5.604581971292 1 0 0
25 5 3 0 -5.102900237828281 -3.3717358492201854 5.724073782743993 1 0 0
22 5 3 0 -5.107616816279639 -4.1102774488364515 5.789181755268723 1 0 0
79 20 4 0 -5.0886094480751085 -3.0190030938844035 5.57645583651612 1 0 0
29 6 3 0 -4.120687467295715 -3.2731406868983766 5.819372253111479 1 1 0
73 18 4 0 -4.127468528875541 -3.646737845446751 5.950593170443481 0 0 0
2 1 3 0 0.8009714130670759 -3.1568218661424257 4.618158261785601 0 0 -1
5 1 3 0 1.3817605754657245 -3.6055024483326488 4.797788550996728 0 0 -1
1 1 1 0 1.2632936268555353 -3.223205551290827 4.588265496329777 0 0 -1
28 6 3 0 -4.687835355544259 -2.9142353801136314 5.52798432816024 1 1 0
78 20 2 0 -5.356977199173376 -2.7816412472646608 5.320760140729296 1 0 0
80 20 4 0 -5.628022534229012 -2.541381104917791 5.055293872572895 1 0 0
43 9 3 0 -5.995849567726537 -2.357801912677594 4.982808253419826 1 0 0
27 6 3 0 -4.0139462455940915 -2.634155142674911 5.414540716744355 1 1 0
26 6 1 0 -4.2975020822666625 -2.863757452511166 5.71136697411911 1 1 0
4 1 3 0 1.4703932844023657 -2.8814836594069257 4.783268520273128 0 0 -1
41 9 1 0 5.64489371836394 -2.120395696625927 5.065441997720425 0 0 0
42 9 3 0 5.571378693443456 -1.8709618362750244 4.729184283143609 0 0 0
44 9 3 0 5.70043617707983 -1.8812469899088 5.426860050122563 0 0 0
45 9 3 0 5.268374797165179 -2.4075398198121785 5.116495832523495 0 0 0
15 3 3 0 -0.34084010121714803 0.5552233685164516 -4.629923259347721 0 0 0
13 3 3 0 0.22707624653524788 0.20933443775850213 -4.974451077029726 0 0 0
11 3 1 0 0.04366251180016626 0.33697487879036575 -4.567115077369583 0 0 0
19 4 3 0 -5.555088646414415 2.1220779818550555 -5.1567260775576145 1 0 1
40 8 3 0 4.180343417701067 2.7554308423804232 -5.374201162229582 0 0 1
39 8 3 0 4.128465055769111 2.942825575753818 -4.6393276501394 0 0 1
17 4 3 0 5.8207026392859085 1.820747703795265 -4.924875719075595 0 0 1
20 4 3 0 -5.958708318777726 1.7208041661644289 -5.622170254674638 1 0 1
16 4 1 0 -5.967017175829793 2.009536003525209 -5.273502251294397 1 0 1
18 4 3 0 5.805143835655565 2.379114157138617 -5.402285509577529 0 0 1
55 12 4 0 5.6216670407232465 2.6412646212413438 -5.187301071006958 0 0 0
54 12 2 0 5.317973614921457 2.940484215096621 -5.204054880219149 0 0 0
77 19 4 0 -2.411100878846975 3.995603241082179 -5.581188006710766 0 0 0
35 7 3 0 -1.991617436243192 3.2810670997911195 -5.564315597496157 0 0 1
33 7 3 0 -2.2534696638009306 3.894187009638582 -5.913913540942025 0 0 1
31 7 1 0 -2.0784948618155856 3.4632767620811036 -5.9662206839246 0 0 1
75 19 2 0 -2.3560570717106994 4.310831665684581 -5.227028107230733 0 0 0
36 8 1 0 4.211352321045645 3.1027017946866873 -5.0650341189949835 0 0 1
37 8 3 0 3.9057274512215905 3.420043430516325 -5.16070577205006 0 0 1
38 8 3 0 4.637338942308384 3.2843806313499337 -5.080329959035951 0 0 1
56 12 4 0 5.022769859319423 3.240616415923077 -5.22090450814704 0 0 0
76 19 4 0 -2.3000387612075968 4.604479918501526 -4.884603667264511 0 0 0
12 3 3 0 0.3400361778762006 0.612417791905828 -4.343923037529614 0 0 0
59 13 4 0 2.941854249178689 1.7099822600360186 -2.6273303149690923 0 0 0
10 2 3 0 2.0762719155037535 2.3454867326979594 -4.321518958837027 0 0 0
7 2 3 0 2.30777273955259 1.664090580391617 -4.394182356324228 0 0 0
8 2 3 0 2.327527613465027 1.9748335081395587 -3.7500782765049094 0 0 0
6 2 1 0 2.3777273511364796 2.038554627550194 -4.18984207412786 0 0 0
58 13 4 0 2.4586593693927266 1.9223447008898227 -3.37045836287283 0 0 0
9 2 3 0 2.8012209993108876 2.191770392029118 -4.273914032661813 0 0 0
71 17 4 0 2.968346909710903 2.5624598543137522 -4.242936558421385 0 -1 1
70 17 4 0 3.814426967787454 2.8653763006589776 -4.417167111055291 0 -1 1
69 17 2 0 3.3922199876294568 2.711931384894882 -4.32935830708717 0 -1 1
57 13 2 0 2.7061948539927982 1.811174551776113 -2.989418450743381 0 0 0
61 14 4 0 -0.29177479515622745 5.989318437255356 1.4707908151708613 0 -1 0
68 16 4 0 -3.4125013889105498 2.8190247688571834 5.364694201993952 0 0 0
66 16 2 0 -3.0675656994349274 2.9264635169390503 5.631199955135537 0 0 0
34 7 3 0 -2.3891839999377043 3.1954429562391846 5.793777627634473 0 0 0
32 7 3 0 -1.7022823297049483 3.489556927197663 5.803624642796299 0 0 0
67 16 4 0 -2.7163826214549673 3.032482988745393 5.890795926417051 0 0 0
53 11 4 0 -1.355821840825374 3.2731021174962183 5.84101164843451 0 0 -1
52 11 4 0 -0.6947678443943602 3.911376536382608 5.836640285026861 0 0 -1
51 11 2 0 -1.0185531977809157 3.5976378505432285 5.833925442911804 0 0 -1

Velocities

65 0.27622343783910075 0.0028247911323695724 0.1576178233025835
63 -0.09471167857074107 0.0789703671443795 -0.32590100001793604
64 0.1994546225233018 0.4552654999040476 0.4533958330909858
74 -0.42241353499633677 0.012203965100881124 0.12778767308213132
72 0.4171690962409098 0.23123353383410805 0.30756726525510286
30 -0.04059571706788864 -0.2393805133724058 0.19798073361150204
14 -0.49677845363669426 0.13505323878568345 -0.3351305615182177
60 0.10758212126526395 0.04315530808189132 -0.1415366926391405
49 0.09809052399123398 -0.05402898075782465 0.05120820479772677
62 -0.09252403945231782 0.42678249753275205 -0.09984702823092625
48 0.37643051284609924 0.07097936854801497 -0.3762086760789549
46 0.07216795303500745 0.011779215286469457 0.32786163425174064
47 0.07252070751566467 -0.13967593607968043 0.2812432294883604
50 0.03464900431471132 0.1380728772032533 -0.3466425222307822
3 -0.3179789532898546 0.1914375613536802 0.04556127419669694
24 0.12933176238918587 0.19692409162631982 0.18559882649744716
23 -0.08506612917475187 -0.03926391784029377 0.0091927780410192
21 0.0980432667732849 0.023806805012392695 -0.41606884075252504
25 -0.07754759725929933 -0.1518895207313681 0.039608814315791156
22 0.042643116522500614 -0.23392670317163444 0.26604971355369994
79 -0.5242223270352769 -0.08481758281126349 -0.04320388080668237
29 0.09829674403559427 -0.04943780972851095 0.18913181734417725
73 0.07472944995800958 0.0598747644524699 -0.550312188701572
2 0.055244344669405435 0.23055378465285678 -0.014653691888871502
5 -0.2512212493345095 0.24995300628545808 -0.05145315359848982
1 -0.0751876132144003 -0.10814373175311989 -0.12388651505408178
28 -0.4994953259515354 0.165667736735094 0.1216576131156052
78 0.06421003121438726 -0.010185565124588356 0.08542119674523896
80 -0.18622491185155665 -0.2810036815000072 0.07385113857249669
43 -0.003408904570490265 -0.4907588735570925 -0.15084247511888096
27 0.2733785106701051 -0.05223300477394617 0.1701601626638354
26 -0.12252577671194077 -0.2287653177878078 -0.10837883004923776
4 -0.04304903124484749 -0.22810939895200089 0.17349158555921657
41 -0.06877136889441332 -0.1335066725343129 -0.1396373121023509
42 0.05559662919582446 0.019687455916159672 0.29457157135336376
44 -0.2394399915053305 0.06714405737487085 0.18026148530803873
45 -0.05866761305448953 0.39171981906961917 0.1515527795041074
15 -0.2721110129811652 -0.3144998795282324 -0.29888282895119156
13 0.18045153692580343 -0.25960844797210125 0.3870518476435741
11 -0.34316267831917946 -0.017642400912842113 -0.1715212446705571
19 0.12482292087999232 0.5139042805004412 0.23499929665342517
40 0.07973060476189144 0.04710725418851899 -0.45740487079572123
39 0.3046026498077032 0.2646982599497959 0.06721068237010515
17 -0.06194828941239735 0.11386854899585623 -0.2971749986453283
20 0.24939833457521762 -0.059931619908010776 0.1206117296918012
16 0.13512727015344694 0.003069507085317132 -0.31132066822581356
18 0.2888131271906466 -0.3773590882953181 0.3963004031452723
55 -0.266389237273452 -0.44100651562184906 -0.5217016654327447
54 0.10314898919689608 -0.024545691027072686 0.21391429731627756
77 -0.43507604252623266 -0.5040976679361955 -0.10786510970808943
35 0.01727882886890278 0.00165289177757625 -0.07582826075210272
33 0.2075409963225241 -0.5482730442979158 -0.013143284792954589
31 0.00837648576002673 -0.5446288807384554 0.13839369403230842
75 -0.05916204240807155 0.15491835809774518 -0.19585977028315812
36 -0.526165957306085 -0.07687287431249407 -0.13355700463858808
37 -0.26825049784121524 0.16333391761122323 0.28305582031686055
38 -0.36466339270434905 0.32880909150626686 -0.03914665321855171
56 0.1373864416860727 0.12604382966405323 -0.14563039322848415
76 0.006397322370232685 -0.36269596124162246 0.08603193969372672
12 0.024233759480926393 -0.1655779485525884 0.01982851331866784
59 -0.12540088365350827 0.2963308963857385 0.045898689059684215
10 0.35224374283694637 0.16368267859533803 0.11001878638647485
7 -0.16030957900655404 0.3873934443689735 0.31038407387733424
8 -0.28644588677155924 0.022887522583962004 0.003595298347542303
6 0.05198250109670531 0.02925410326627404 0.12551000702417117
58 -0.19002118029248485 -0.05907315701345184 -0.29274502435191735
9 -0.14918220854576472 -0.13100889676000013 0.033237183126583275
71 0.07422609458479003 0.060281512214448066 0.18396866277533203
70 0.030783058757049127 0.054759569118403816 0.04111948578151885
69 0.2777060563474566 0.20559892292210416 -0.0120142343711797
57 0.331113302538325 0.29741443908533066 0.0503479356972805
61 0.1529602086234865 0.009321134229255118 0.10479883317649757
68 -0.15524758563623028 -0.2459924428200295 -0.3007573346200348
66 0.20987080137108768 -0.3338966035880486 -0.05424286693135538
34 -0.037012510812124845 0.15124808133449225 0.07412622218663811
32 0.15506138844454373 -0.010422935115546443 -0.11994183764721482
67 0.11527789521374701 -0.10938439492606937 0.09255818662909131
53 0.30360769088130424 -0.19239891680634047 0.23940110752081886
52 -0.008771739684164526 0.4448263039236104 0.2558349517474187
51 0.56415202844002 0.105438860086551 -0.07706160747306713

Bonds

1 1 63 64
2 1 63 65
3 1 72 73
4 1 72 74
5 1 60 61
6 1 60 62
7 1 46 47
8 1 46 48
9 1 46 49
10 1 46 50
11 1 21 22
12 1 21 23
13 1 21 24
14 1 21 25
15 1 1 2
16 1 1 3
17 1 1 4
18 1 1 5
19 1 78 79
20 1 78 80
21 1 26 27
22 1 26 28
23 1 26 29
24 1 26 30
25 1 41 42
26 1 41 43
27 1 41 44
28 1 41 45
29 1 11 12
30 1 11 13
31 1 11 14
32 1 11 15
33 1 16 17
34 1 16 18
35 1 16 19
36 1 16 20
37 1 54 55
38 1 54 56
39 1 31 32
40 1 31 33
41 1 31 34
42 1 31 35
43 1 75 76
44 1 75 77
45 1 36 37
46 1 36 38
47 1 36 39
48 1 36 40
49 1 6 7
50 1 6 8
51 1 6 9
52 1 6 10
53 1 69 70
54 1 69 71
55 1 57 58
56 1 57 59
57 1 66 67
58 1 66 68
59 1 51 52
60 1 51 53

Angles

1 1 64 63 65
2 1 73 72 74
3 1 61 60 62
4 2 47 46 48
5 2 47 46 49
6 2 47 46 50
7 2 48 46 49
8 2 48 46 50
9 2 49 46 50
10 2 22 21 23
11 2 22 21 24
12 2 22 21 25
13 2 23 21 24
14 2 23 21 25
15 2 24 21 25
16 2 2 1 3
17 2 2 1 4
18 2 2 1 5
19 2 3 1 4
20 2 3 1 5
21 2 4 1 5
22 1 79 78 80
23 2 27 26 28
24 2 27 26 29
25 2 27 26 30
26 2 28 26 29
27 2 28 26 30
28 2 29 26 30
29 2 42 41 43
30 2 42 41 44
31 2 42 41 45
32 2 43 41 44
33 2 43 41 45
34 2 44 41 45
35 2 12 11 13
36 2 12 11 14
37 2 12 11 15
38 2 13 11 14
39 2 13 11 15
40 2 14 11 15
41 2 17 16 18
42 2 17 16 19
43 2 17 16 20
44 2 18 16 19
45 2 18 16 20
46 2 19 16 20
47 1 55 54 56
48 2 32 31 33
49 2 32 31 34
50 2 32 31 35
51 2 33 31 34
52 2 33 31 35
53 2 34 31 35
54 1 76 75 77
55 2 37 36 38
56 2 37 36 39
57 2 37 36 40
58 2 38 36 39
59 2 38 36 40
60 2 39 36 40
61 2 7 6 8
62 2 7 6 9
63 2 7 6 10
64 2 8 6 9
65 2 8 6 10
66 2 9 6 10
67 1 70 69 71
68 1 58 57 59
69 1 67 66 68
70 1 52 51 53
