LAMMPS data file via write_data, version 19 Nov 2024, timestep = 1000000, units = lj

79 atoms
4 atom types
54 bonds
1 bond types
35 angles
2 angle types

-3.045986 3.045986 xlo xhi
-3.045986 3.045986 ylo yhi
-3.045986 3.045986 zlo zhi

Masses

1 1
2 1
3 0.1
4 0.1

Bond Coeffs # harmonic/omp

1 100 0.45

Angle Coeffs # harmonic/omp

1 100 180
2 100 109.471

Atoms # full

17 5 2 0 -0.4992167518780757 -1.800558322751355 -2.8965543732746246 0 0 0
19 5 4 0 -0.5069681257780886 -2.211832400597673 -2.6575936244163607 0 0 0
59 19 2 0 -0.5727135901807653 -2.920259787519314 -2.3648027327383248 1 1 0
60 19 4 0 -0.7107983764378961 -2.5066695559788204 -2.4282096184939017 1 1 0
9 2 3 0 -2.9116356379188204 -2.937907991114526 -0.48580222401781886 1 1 1
53 17 2 0 -2.5510332432465437 -2.4024173934559223 -0.4847929248041949 1 0 1
54 17 4 0 -2.1463440536336758 -2.2635536660484568 -0.3581583570319935 1 0 1
55 17 4 0 -2.9692701623617093 -2.549513031303806 -0.6154062574315932 1 0 1
78 25 4 0 -1.793939709719284 -2.40647195688044 -0.5317201481133151 1 1 1
79 25 4 0 -1.1076459236571887 -2.983289329348673 -0.5120427282045539 1 1 1
77 25 2 0 -1.4637555346752844 -2.6850506025224217 -0.5228429086322505 1 1 1
68 22 2 0 -2.2310175620100163 -0.14371719264056623 -0.5808626583808185 1 0 1
70 22 4 0 -2.1284239468158717 -0.5201178308938591 -0.8092329340365455 1 0 1
15 4 4 0 -0.5431008917645632 -1.0229879659375871 -3.000812172530707 0 0 0
14 4 2 0 -0.23675903427227166 -0.7429216012907874 2.927658774085559 0 0 -1
18 5 4 0 -0.48628079893437964 -1.4132351799315408 2.96472380586573 0 0 -1
64 20 4 0 -0.23826000544733714 2.4701392303921015 -2.5118227020912753 1 0 0
61 19 4 0 -0.42603426405477446 2.7440637207126386 -2.293338957714166 1 0 0
69 22 4 0 -2.3302702272413507 0.22724872097223048 -0.3675184401889671 1 0 1
65 21 2 0 -2.5628703019599115 0.8373706162596345 -0.12771515935974634 1 0 1
67 21 4 0 -2.8905858776530704 1.1388428465442877 -0.12192738804224487 1 0 1
32 10 2 0 -0.6053397972911414 2.6215573512615236 -0.12705122323562854 0 0 1
34 10 4 0 -0.27502773086189386 2.338394335249652 -0.04558442741927623 0 0 1
33 10 4 0 -0.9289095465517093 2.8977948272986285 -0.2014997375398038 0 0 1
76 24 4 0 -2.8097355156500488 1.4986591286032571 -0.29124633484174084 1 0 1
66 21 4 0 -2.2083935322645294 0.5222782470302435 -0.12918592407603446 1 0 1
26 8 2 0 1.39441016969374 -2.6970531368140613 -2.7527977180972996 -1 0 1
28 8 4 0 1.1415000892429166 -2.383165920502413 -2.923903827757931 -1 0 1
27 8 4 0 1.6673249363932168 -3.0375349771303726 -2.5628575150226207 -1 0 1
40 12 4 0 2.6564961056623226 -2.9842745531024604 -1.3805634863717149 0 0 0
49 15 4 0 0.3301250874128292 -0.37864749588696295 -3.03849437222413 0 0 0
20 6 2 0 0.7078379149526297 -0.1762665414088892 0.9022190223586473 0 1 1
22 6 4 0 0.7413987356111122 -0.5545164654478184 1.12025483339355 0 1 1
12 3 4 0 1.474605480472363 -1.5688337505040422 2.2179899226357955 -1 0 -1
11 3 2 0 1.4478405423287986 -1.867702336286349 2.587104244793827 -1 0 -1
13 3 4 0 1.4134355276628976 -2.1590227517251255 2.9425501459215324 -1 0 -1
16 4 4 0 0.07845605591053388 -0.46721444305563603 2.765740103424152 0 0 -1
52 16 4 0 1.3516901874516025 -1.2376465209473342 1.9970487391887017 0 1 1
51 16 4 0 0.8291924766689027 -0.6020375944944403 1.534557236410534 0 1 1
50 16 2 0 1.0852521165797464 -0.9065896911543803 1.7581039409393113 0 1 1
63 20 4 0 0.6357216778027018 2.1627955302457047 -2.6262287756300506 1 0 0
75 24 4 0 2.723943848566078 2.107438093476941 -0.5911267390680611 0 0 1
4 1 3 0 1.4716740108428379 2.7346367982852553 -2.5172766625641474 0 0 1
62 20 2 0 0.18566615325146346 2.316713395337117 -2.569251341374494 1 0 0
38 12 2 0 2.51392496982799 2.7651919717615803 -1.6620911973812778 0 -1 0
3 1 3 0 1.3029772885442814 2.3199539800592937 -1.9027505847363695 0 0 1
1 1 1 0 1.6043533224074382 2.373869358680726 -2.232662889485694 0 0 1
2 1 3 0 1.999587048749908 2.445850007535747 -2.0664700829507385 0 0 1
5 1 3 0 1.6123598244067778 1.9945094456027994 -2.4775692735462993 0 0 1
39 12 4 0 2.3783800320122443 2.44290702197014 -1.9390562104301257 0 -1 0
6 2 1 0 2.8098576774468875 2.857429582347386 -0.5681050863327728 0 0 1
36 11 4 0 1.2772836549107214 2.247801937352527 -1.5169095108809756 0 0 1
10 2 3 0 2.4487209023085037 2.979031237686294 -0.3148477890077096 0 0 1
23 7 2 0 1.4251785485892723 1.57737483199699 -0.09470723291699497 0 -1 1
25 7 4 0 1.5302354772533944 1.9462819527124227 -0.37286481695404156 0 -1 1
8 2 3 0 2.93397265482892 2.444299895732381 -0.4537353255347474 0 0 1
74 24 2 0 3.007814145390926 1.793423014039833 -0.4345520605380895 0 0 1
35 11 2 0 1.4423181663472875 2.2266873731115373 -1.1171639374927382 0 0 1
37 11 4 0 1.607274700371309 2.1995955899191646 -0.7053565697339579 0 0 1
7 2 3 0 2.694813188625778 2.863611355298173 -1.0355043355716473 0 0 1
43 13 4 0 0.09970236099549996 2.320641224139646 -0.1705580348017054 0 0 0
29 9 2 0 0.7205526788167232 0.7766767104506412 0.2982898166338592 0 1 1
21 6 4 0 0.6668775154988399 0.20928152219080765 0.6734836059448059 0 1 1
30 9 4 0 0.9778836991058207 1.105502692656485 0.13619362287702877 0 1 1
31 9 4 0 0.476800120067389 0.47531373113811565 0.4525013882052356 0 1 1
24 7 4 0 1.3379766020213288 1.2540734057894234 0.1462974318338248 0 -1 1
56 18 2 0 1.189714531161717 2.524056229231337 1.0045692779058923 0 0 1
58 18 4 0 1.0253742050242531 2.729958212677859 0.660207398895927 0 0 1
42 13 4 0 0.7041107012789511 2.5082314382593514 0.4735117809182176 0 0 0
41 13 2 0 0.40496668622142035 2.414957091661961 0.15522144987662917 0 0 0
47 15 2 0 0.5516028320030115 0.03172048570597289 3.045479014427266 0 0 -1
48 15 4 0 0.7588176311292447 0.40979222060933934 3.0318420992737236 0 0 -1
45 14 4 0 1.3755599071415598 1.2598739458760804 2.670827928270704 0 0 -1
44 14 2 0 1.118251685191532 0.8782652988718014 2.6569638679877836 0 0 -1
46 14 4 0 0.8737258470559777 0.5023426373990415 2.6478657743856457 0 0 -1
71 23 2 0 1.2517012451293035 1.8052012939301783 2.0264693648243957 0 0 0
73 23 4 0 1.2578178045121648 1.4991680280339859 2.3673091712997785 0 0 0
57 18 4 0 1.3696822811557108 2.310646184058187 1.3608883774908478 0 0 1
72 23 4 0 1.2483565954722695 2.1119447580747144 1.6938789309555222 0 0 0

Velocities

17 -0.37904370509916907 0.03866866110143733 -0.26990390346648807
19 1.0455738917615596 0.33259859214918447 -0.8930748823648232
59 0.11165781724042183 -0.23446174705238423 -0.18726512234481554
60 -0.42404258111174287 -0.9064892811663513 1.398417501290151
9 -0.14331966519740497 -0.28735960459672744 0.6988489003953928
53 0.35154044409851826 -0.1496767131621141 -0.11399266089028093
54 -0.39025594931204305 -0.2964020978336276 0.7514098230804767
55 -0.8439825617298542 -1.825479440769664 -1.4308456638494738
78 0.69162664440328 0.06618354754750523 0.24386134268539705
79 -0.6381521706680842 0.4985288168484283 -0.9697182490377325
77 -0.06915177789157373 -0.4663752868271885 -0.04236185173240163
68 0.38592224912978756 -0.1794070650386566 0.04772062882534091
70 0.013370869967158756 0.26810593333689064 -0.21378041287901098
15 1.7339031862502199 0.6663780617060546 -0.12457892873668014
14 0.15119663338418868 -0.17655246901638302 0.5388814141967586
18 0.1603529481339388 1.0682495723935348 -0.10128587704758758
64 0.10189726218027512 0.2310250536695082 1.0219902734416553
61 0.762842478259666 0.5187843506495542 -0.7273530631163642
69 -0.5052331478593484 0.12224852320569311 0.03529709473573947
65 -0.07825856253853529 -0.004060517926028446 -0.07608387584747191
67 -0.4511682376597987 -0.20068246250502264 0.07280714376262716
32 -0.0028219903962093265 0.09077801993162371 0.3328211200918796
34 0.38797995186947853 -0.44531555252164795 0.44668951025803194
33 -0.7285937555812587 0.02006163586576499 -0.6920857895459361
76 0.8730786921319711 -0.9165802105837314 1.4652657161166533
66 0.010252352801682282 0.622327218280807 0.3166241437900665
26 0.024561124285517235 0.4434351690428378 -0.19778402931569822
28 0.24124162034990704 0.8586087325897942 0.19240855401167073
27 -0.3451241312961584 -1.6567863717612121 -1.1529243476838509
40 0.9561175132323982 1.800871302011665 0.5194452669001918
49 1.4251344834285478 -0.2707475934663074 -0.29913829877934095
20 -0.23874674567377327 -0.1751862659331448 -0.36493008369415786
22 -1.4108671073784886 0.27396774423742937 -0.4233969526089771
12 1.716312370872407 1.2846743805473178 0.35232291909289165
11 0.4222540301076498 -0.29266005858825955 0.215367106667266
13 0.42686108571381365 0.4053652183837057 -0.0005381421216772847
16 -0.06748921818073012 -0.3059221426629487 -0.9833167596156642
52 0.9999185707543201 1.2669601963648356 -0.5520194649220229
51 -0.49220588516870123 -0.22577336953361998 0.7775593036641484
50 -0.1839898571384841 0.21893883850033272 0.09720026905176693
63 -1.32473464060775 -0.5157301046440896 0.319044383573421
75 -0.05152953761129759 0.28874070192699386 0.08102487921166074
4 0.11886161886007157 -0.40906088136212304 0.42461176242329207
62 0.1987820238524913 -0.10757655071802197 -0.322771055324413
38 0.6509243638333472 -0.15607330978741227 -0.13381241652519504
3 -0.8016352438657697 -0.7357396401666081 0.024059687386360495
1 -0.036081086979357684 0.5783786827780371 -0.10845410443056959
2 0.5040341448010554 0.44618945888356126 0.002566998164893564
5 0.4072291221748435 0.2583238392172673 -1.0225122579236223
39 0.014387101504630856 0.35280880022419453 -0.771489094836931
6 0.21004735764957935 0.14425273567936436 -0.21693136381319889
36 0.004121938156088651 -0.5939752649992204 0.4633363790860348
10 0.0491066155650437 0.3989110904280861 -0.10566665994160805
23 -0.5047556659259034 0.2792767314144881 -0.23521378400060175
25 -1.1993562113548448 -1.1937842200745283 1.465785475734645
8 -0.03213421878095285 -0.6811349592189729 -0.9403202770283131
74 0.14772816396029423 -0.16931364324464562 0.1389365231206655
35 0.1301750091338951 0.031248044371065868 -0.5088868606429094
37 0.4774515140810347 -0.101579017360346 0.4534065698248544
7 0.19941619723445775 -0.028552258031290405 0.35907493481123437
43 0.04120950003953762 0.48021153386870696 -0.7482997727759506
29 -0.14167110472159836 -0.1284271248393403 -0.24788744872773996
21 0.22249111480834735 -0.6562905339456414 0.2910318525568861
30 1.0594022313009008 -0.4335788559371788 -0.957470933669046
31 0.6329085476704186 0.7840835860107316 0.6209251636614656
24 -0.1732348049799747 -0.27446250160196 0.9963968981160144
56 0.014566805904005786 -0.2329011561852644 -0.0905240282393058
58 -1.1839817332479459 -1.381861462528029 -0.664492026895622
42 1.0782659296968091 0.33720461403754715 0.5566258883540498
41 -0.22536144591141113 0.188389065732747 -0.471737970447957
47 -0.006979263701290821 -0.024856821482251327 0.25716823681657536
48 -0.547210728601062 1.1666689175876817 1.3496829480690202
45 0.3471666457815719 -0.2300647735694295 -0.0555048810581608
44 -0.20349650598654556 -0.29900063978831964 -0.12521790584145037
46 0.528686811265593 0.6380582333051792 -1.513892197484273
71 0.048120073545219036 -0.2669009801197365 -0.15639995321881606
73 0.7096327361015452 -0.39804615229542273 0.1582625487512773
57 -0.9229699880845901 0.28876959109754063 0.13910522062174804
72 1.0559373389525268 0.9111269106639731 0.03434412528251292

Bonds

1 1 17 18
2 1 17 19
3 1 59 60
4 1 59 61
5 1 53 54
6 1 53 55
7 1 77 78
8 1 77 79
9 1 68 69
10 1 68 70
11 1 14 15
12 1 14 16
13 1 65 66
14 1 65 67
15 1 32 33
16 1 32 34
17 1 26 27
18 1 26 28
19 1 20 21
20 1 20 22
21 1 11 12
22 1 11 13
23 1 50 51
24 1 50 52
25 1 62 63
26 1 62 64
27 1 38 39
28 1 38 40
29 1 1 2
30 1 1 3
31 1 1 4
32 1 1 5
33 1 6 7
34 1 6 8
35 1 6 9
36 1 6 10
37 1 23 24
38 1 23 25
39 1 74 75
40 1 74 76
41 1 35 36
42 1 35 37
43 1 29 30
44 1 29 31
45 1 56 57
46 1 56 58
47 1 41 42
48 1 41 43
49 1 47 48
50 1 47 49
51 1 44 45
52 1 44 46
53 1 71 72
54 1 71 73

Angles

1 1 18 17 19
2 1 60 59 61
3 1 54 53 55
4 1 78 77 79
5 1 69 68 70
6 1 15 14 16
7 1 66 65 67
8 1 33 32 34
9 1 27 26 28
10 1 21 20 22
11 1 12 11 13
12 1 51 50 52
13 1 63 62 64
14 1 39 38 40
15 2 2 1 3
16 2 2 1 4
17 2 2 1 5
18 2 3 1 4
19 2 3 1 5
20 2 4 1 5
21 2 7 6 8
22 2 7 6 9
23 2 7 6 10
24 2 8 6 9
25 2 8 6 10
26 2 9 6 10
27 1 24 23 25
28 1 75 74 76
29 1 36 35 37
30 1 30 29 31
31 1 57 56 58
32 1 42 41 43
33 1 48 47 49
34 1 45 44 46
35 1 72 71 73
