LAMMPS data file via write_data, version 4 Feb 2025, timestep = 20000000, units = lj

2000 atoms
4 atom types
1500 bonds
1 bond types
1750 angles
2 angle types

-8.346487 8.346487 xlo xhi
-8.346487 8.346487 ylo yhi
-8.346487 8.346487 zlo zhi
8.526512829121202e-14 0 0 xy xz yz

Masses

1 1
2 1
3 0.1
4 0.1

Bond Coeffs # harmonic/omp

1 100 0.45

Angle Coeffs # harmonic/omp

1 100 180
2 100 109.471

Atoms # full

1397 299 4 0 -3.3421275589168795 -7.8531857144029855 -7.769869052001165 5 -1 0
2 1 3 0 -3.2740958903516875 -8.21619487155322 -7.938448010147426 24 0 -1
1395 299 2 0 -3.6539850943380934 -7.506712950587707 -7.7759247220338255 5 -1 0
1379 293 4 0 4.631183081490546 -7.636618514664556 -7.753075310782513 36 2 1
1377 293 2 0 4.74247650568622 -7.813395824354886 -8.17641503088535 36 2 1
1396 299 4 0 -3.9551047398145753 -7.149831518790665 -7.789778392476582 5 -1 0
518 104 3 0 -3.841472102645496 -6.939335500585103 -8.100694136015585 24 1 1
454 91 3 0 4.648470936607497 -7.338085785319291 -7.484054930351271 -4 -1 1
1255 252 4 0 -3.7682732914870423 -5.862292261217048 -8.206944669840516 13 0 0
519 104 3 0 -3.8556638367597182 -6.24660857380242 -8.313427846706452 24 1 1
249 50 3 0 2.980995306407719 -5.830741520030511 -8.200261180155094 12 0 0
944 189 3 0 3.5840172332376063 -5.992191036273134 -7.5246389342052415 41 2 1
247 50 3 0 3.348605000009954 -6.339746299188357 -7.93965888157592 12 0 0
250 50 3 0 3.662621408702064 -5.71877358642462 -8.136611741117633 12 0 0
246 50 1 0 3.331808015900263 -6.006119030148592 -8.226884718829583 12 0 0
1172 235 3 0 4.7663681079074465 -5.655930747821234 -8.051336048245798 43 1 3
1171 235 1 0 5.192217553284566 -5.736896259959313 -8.143028547735517 43 1 3
1173 235 3 0 5.366742266937818 -5.958238573510282 -7.806096586163701 43 1 3
1254 252 2 0 -3.611737088761883 -5.5100982281326685 -7.979603210623228 13 0 0
1256 252 4 0 -3.458562783924447 -5.16083898642619 -7.760958938914351 13 0 0
1878 460 2 0 2.5595491141774716 -5.132113893659968 -8.09294187213729 38 2 -1
1879 460 4 0 2.747855062592871 -5.530358950017595 -8.280570948203131 38 2 -1
1880 460 4 0 2.377273368621859 -4.752201856981118 -7.919894242275437 38 2 -1
1709 403 4 0 5.441965804949778 -4.944535015016546 -8.181594549389994 15 0 -1
1175 235 3 0 5.399247494511055 -5.361143144241381 -8.201579117834424 43 1 3
565 113 3 0 2.2471931634185527 -4.514685346945729 -7.644097235223573 14 0 3
904 181 3 0 3.1210637364896403 -3.8020504973162037 -8.343177423272339 21 0 2
1707 403 2 0 5.376336039433252 -4.47224629101038 -8.20102214954614 15 0 -1
1708 403 4 0 5.304962512079431 -4.031417207356771 -8.227101529649095 15 0 -1
1387 296 4 0 -5.594849119786955 -2.868805011301239 -7.477109530446987 37 1 2
952 191 3 0 -4.385604604915683 -2.7965871215910365 -7.86769038229309 -4 -2 1
951 191 1 0 -3.9250671446746797 -2.8610591432837094 -7.742653557058995 -4 -2 1
955 191 3 0 -3.6678928922027776 -2.888187960245845 -8.125129221790266 -4 -2 1
954 191 3 0 -3.895705260513517 -3.242638713167721 -7.503884333315999 -4 -2 1
902 181 3 0 3.066772068586909 -3.072645987482894 -8.201337590417882 21 0 2
1681 394 4 0 2.6692762611292036 -3.030266065227634 -8.248765435302612 34 1 0
1680 394 2 0 2.320024682670722 -2.820239951134198 -8.338756406787953 34 1 0
903 181 3 0 3.2684410163430186 -3.560598321605897 -7.656873209510009 21 0 2
901 181 1 0 3.295221051582539 -3.4679283285449927 -8.116211359557052 21 0 2
905 181 3 0 3.7450842557390445 -3.4120804600393893 -8.24713142269239 21 0 2
894 179 3 0 5.505028957385479 -3.408267419578869 -7.943652553981912 33 2 1
1343 281 4 0 5.33926198668337 -3.1694970206752693 -7.664349240914858 10 0 -1
1386 296 2 0 -5.164827070862657 -2.770517403843077 -7.622079550707146 37 1 2
1388 296 4 0 -4.737119867236805 -2.6710622018981374 -7.760256234876034 37 1 2
953 191 3 0 -3.7900713090433014 -2.514005711813601 -7.48842701268278 -4 -2 1
1955 485 4 0 -3.5113461268697757 -2.5045092286451194 -8.168093764021267 22 0 2
1551 351 2 0 0.5991558712607006 -1.968017997320656 -7.431025661447973 33 1 0
1553 351 4 0 0.9851387863370658 -2.1336389241286557 -7.60200853217198 33 1 0
164 33 3 0 1.2171704254203206 -2.39291437046177 -7.791004370904142 62 3 1
161 33 1 0 1.1661172549216978 -2.4540981462948928 -8.239591457812459 62 3 1
163 33 3 0 0.8003754655412365 -2.712231711097715 -8.323861177233727 62 3 1
328 66 3 0 -7.070311030501975 -0.9818019071066981 -7.573216512750819 -13 -2 1
1243 249 3 0 -1.3548977423672914 -1.6965332217231248 -7.58542915296056 14 0 2
1241 249 1 0 -1.549638941282483 -1.2857864324141337 -7.607704963374211 14 0 2
1244 249 3 0 -1.8613132718651206 -1.2722351372764766 -7.949916972829319 14 0 2
1245 249 3 0 -1.2247290966741025 -0.96891065813137 -7.6782690376752925 14 0 2
125 25 3 0 4.1443676836829635 -1.2099819135790986 -7.988234110177985 31 2 0
121 25 1 0 4.488426884616439 -1.1684495617101458 -7.716756447405072 31 2 0
124 25 3 0 4.82376486860665 -0.9460266722763544 -7.9301684778744805 31 2 0
122 25 3 0 4.6354655798421085 -1.5850056858810282 -7.592372359522768 31 2 0
330 66 3 0 -7.418893025098336 -0.37412053196992545 -7.8237589981963005 -13 -2 1
327 66 3 0 -6.738599115165254 -0.33735375372778265 -7.583484519990067 -13 -2 1
326 66 1 0 -7.127977776518871 -0.5330593475524417 -7.524677092489136 -13 -2 1
1796 432 4 0 -1.2040128012875613 -0.7771829568817727 -8.029470199575131 31 1 0
378 76 3 0 -0.42384595321505714 -0.38048620268851696 -7.449411069410819 -14 -2 -2
1663 388 4 0 4.653214013523222 -8.085042038775274 -6.763671017857565 -22 -3 1
452 91 3 0 4.481022502154161 -7.9716687533281965 -7.112171118955867 -4 -1 1
451 91 1 0 4.466791708615389 -7.500796011190512 -7.108226863787376 -4 -1 1
112 23 3 0 0.5717274043635658 -7.227999148126811 -6.671781162359897 -16 -2 0
113 23 3 0 1.2075511244121842 -6.787467238876999 -6.645456204268447 -16 -2 0
1866 456 2 0 3.7527413035446884 -6.630129072272956 -6.8921930615060285 10 0 2
453 91 3 0 4.688425945457167 -7.341822767759823 -6.7560900706360245 -4 -1 1
455 91 3 0 4.01835881511197 -7.367023001938972 -7.078617124025106 -4 -1 1
1867 456 4 0 4.022054190777201 -6.999257757280305 -6.977043624433952 10 0 2
922 185 3 0 -6.271405089515108 -5.612451936176258 -6.8335049385427835 -13 -2 1
1351 284 4 0 -6.458253315937865 -5.840233247640255 -6.56123265288648 43 1 -1
941 189 1 0 3.4958353975329057 -5.64883838195315 -7.185447554452744 41 2 1
943 189 3 0 3.512468587283175 -5.846981023844835 -6.771235075750369 41 2 1
1868 456 4 0 3.4853061506943153 -6.258330772102634 -6.805255515866559 10 0 2
362 73 3 0 -7.718206547162493 -4.78741685935871 -6.984766023236334 32 1 -1
923 185 3 0 -6.148047411100459 -4.91193576469551 -7.047799075865516 -13 -2 1
921 185 1 0 -5.966417517043252 -5.249344437230643 -6.836509446150176 -13 -2 1
925 185 3 0 -5.555836118781772 -5.375855659459253 -7.07404145119263 -13 -2 1
1482 328 2 0 1.4935034482035885 -5.360271075993546 -6.657479970214325 30 1 0
1484 328 4 0 1.8340422682005304 -5.278618543619794 -6.978465622533273 30 1 0
562 113 3 0 2.0703730771432696 -4.98676007343386 -7.074645162233085 14 0 3
942 189 3 0 3.069876381664473 -5.468543340361052 -7.255078676838656 41 2 1
945 189 3 0 3.8139997120983242 -5.311626299653158 -7.214197764302935 41 2 1
361 73 1 0 -7.650662667400252 -4.612685342426914 -6.57541729979392 32 1 -1
363 73 3 0 -7.2618632925570195 -4.393059449133887 -6.567990365255073 32 1 -1
1439 313 4 0 -6.084188293895327 -4.534799671875788 -7.027878889402136 32 1 -1
1437 313 2 0 -6.076401142383976 -4.1270490983352195 -6.837483884613697 32 1 -1
1438 313 4 0 -6.071680064118999 -3.722763774644477 -6.656399879644312 32 1 -1
561 113 1 0 2.1492837623677357 -4.543832511023813 -7.1801012801488655 14 0 3
563 113 3 0 1.805258257152781 -4.319122705274564 -7.089329990150295 14 0 3
1933 478 4 0 1.638865969142861 -4.036086969883149 -6.87204158831014 8 0 0
1932 478 2 0 1.355606628206088 -4.164758711649108 -6.509326223605789 8 0 0
1637 379 4 0 2.9235221936803395 -4.434065320945008 -6.886522883579732 27 1 0
564 113 3 0 2.5199337492499847 -4.377344710250469 -6.932256781417169 14 0 3
1635 379 2 0 3.14593570934883 -4.127648464193952 -7.112853118684574 27 1 0
1636 379 4 0 3.3884633442097982 -3.7994557721779945 -7.361392725233856 27 1 0
1540 347 4 0 8.316478144430981 -4.434673890956266 -6.511939743573618 -10 -1 0
1539 347 2 0 8.07740067617367 -4.04333954490633 -6.581503507087683 -10 -1 0
789 158 3 0 -6.180304278599333 -3.3433377804378512 -6.657860074519369 24 0 0
786 158 1 0 -6.016857375454106 -2.9212573902418137 -6.75488986603128 24 0 0
788 158 3 0 -5.833970111835679 -2.923613822128237 -7.148245803858216 24 0 0
1342 281 4 0 4.725547734087842 -2.856102643737783 -7.0717532731529955 10 0 -1
1341 281 2 0 5.033995809504379 -3.0086137892854365 -7.3662018778994796 10 0 -1
1493 331 4 0 6.455082339887504 -3.391042299723752 -6.601565853183331 11 0 1
844 169 3 0 6.847106632281886 -3.3117805984821667 -6.54288462787282 25 0 1
841 169 1 0 7.268973289173367 -3.2737983054526243 -6.666047247314422 25 0 1
843 169 3 0 7.297230939990012 -3.3486075226864784 -7.105930604740969 25 0 1
845 169 3 0 7.406521248515684 -2.8855968485022707 -6.587281546195781 25 0 1
1541 347 4 0 7.855254438446014 -3.6805228909155865 -6.652788997701205 -10 -1 0
1400 300 4 0 -6.6256887579921075 -2.3448264422610228 -6.809384531524531 20 0 0
790 158 3 0 -6.354166151853555 -2.621552612216644 -6.749339647901736 24 0 0
1398 300 2 0 -6.51050594164079 -1.9020118102919703 -6.678160915263405 20 0 0
1345 282 4 0 -3.5659933444405993 -2.172515804851578 -7.38175956788846 18 0 0
1344 282 2 0 -3.71452920949773 -1.9901277375931246 -6.972649753622499 18 0 0
1957 486 4 0 2.8903091379691386 -2.312371695492766 -6.493919839486088 44 2 1
1309 270 4 0 3.2055218305776805 -2.132195043998985 -6.6696673793979215 5 0 1
859 172 3 0 4.5809504432395975 -2.7350391561464624 -6.722926022767624 38 1 2
1399 300 4 0 -6.403927069146183 -1.5040783216387519 -6.562535496575554 20 0 0
1346 282 4 0 -3.866922680614742 -1.8120319684884834 -6.585409501174674 18 0 0
1641 381 2 0 -2.1988420586766457 -1.0225590644006157 -6.572508788713636 34 1 -2
1643 381 4 0 -1.9609865934432111 -0.9977742876681148 -6.931790067636943 34 1 -2
1242 249 3 0 -1.7582653997140625 -1.1954578544011634 -7.210125290846109 14 0 2
1035 207 3 0 0.12727303465931783 -1.7595407589663976 -6.867557663058189 55 2 2
1552 351 4 0 0.22374929161548174 -1.7958375806296356 -7.260450127570476 33 1 0
1525 342 4 0 0.9628769577326324 -1.4629560218239943 -6.5971919786334485 33 2 0
329 66 3 0 -7.284328119121072 -0.4413227841663909 -7.086928430461278 -13 -2 1
377 76 3 0 -0.503816464311245 -0.0330519703597556 -6.758639015852546 -14 -2 -2
376 76 1 0 -0.21783845572202054 -0.3143085356802917 -7.046076507183628 -14 -2 -2
380 76 3 0 -0.15646491714791821 -0.7262165588289671 -6.836725921898517 -14 -2 -2
379 76 3 0 0.18552164111965475 -0.1110220433337119 -7.111045445283093 -14 -2 -2
123 25 3 0 4.361157204107251 -0.9125002201326264 -7.3220069367077105 31 2 0
1503 335 2 0 -7.809002811089682 -7.498641257567325 -5.967375769921377 21 0 1
1505 335 4 0 -8.123900316639968 -7.785482740590063 -6.073201913339307 21 0 1
37 8 3 0 -4.63464951128514 -7.838810067737445 -5.641504155730212 28 1 1
115 23 3 0 1.248348948785992 -7.466253450542059 -6.372634558394963 -16 -2 0
1731 411 2 0 1.7889654888005104 -7.761068508794044 -5.831068129361533 11 0 -1
1732 411 4 0 1.5829481188962227 -7.563810542418327 -6.182610473641371 11 0 -1
359 72 3 0 7.566604687020092 -7.923897376011024 -6.248869296818867 16 0 2
360 72 3 0 7.708885192454574 -8.324625763032435 -5.6427135302420695 16 0 2
356 72 1 0 7.802076467779823 -7.93243653188734 -5.853274937953974 16 0 2
357 72 3 0 8.241755715434355 -7.909497800704024 -5.942979175450198 16 0 2
358 72 3 0 7.663639797142313 -7.572313022979405 -5.586934312563157 16 0 2
1504 335 4 0 -7.4684888200204895 -7.2078666605543145 -5.852936777921405 21 0 1
573 115 3 0 -7.591945387055123 -6.837770409445399 -5.722514936639854 7 0 1
111 23 1 0 0.9833016877016139 -7.107270867490694 -6.419800627088416 -16 -2 0
1823 441 4 0 0.7899614329094788 -7.189284634007681 -5.70658245460125 13 0 0
114 23 3 0 0.8706582572584036 -6.960197166893881 -6.018592203164591 -16 -2 0
575 115 3 0 -7.2371089545018865 -6.199778470181055 -5.7627172358297045 7 0 1
1350 284 2 0 -6.681166535473112 -5.938071899494519 -6.18907373139122 43 1 -1
1352 284 4 0 -6.890718869074339 -6.021040143576069 -5.84912517862362 43 1 -1
365 73 3 0 -7.641881280056757 -4.942532467185095 -6.264580655816814 32 1 -1
924 185 3 0 -5.8651486770239885 -5.118725767929678 -6.416646597646263 -13 -2 1
1139 228 3 0 0.3162016970806629 -4.840362104375817 -5.913060714258192 44 2 0
1483 328 4 0 1.1543227682249846 -5.453928276837884 -6.348599160217394 30 1 0
1137 228 3 0 0.9286017258830288 -5.186404896006422 -6.1232408649933125 44 2 0
1136 228 1 0 0.7559165656898408 -4.899557329649351 -5.828227422616379 44 2 0
999 200 3 0 5.602858790901934 -4.699959205154307 -6.129740675298473 13 0 0
364 73 3 0 -7.99138407517668 -4.327971357588482 -6.468054806234817 32 1 -1
1934 478 4 0 1.0817609770743744 -4.284861554523692 -6.1763139506393765 8 0 0
1138 228 3 0 0.9723081091177495 -4.488466149714622 -5.864193264473001 44 2 0
998 200 3 0 5.023443807135644 -4.454243373956471 -5.7352385992266965 13 0 0
996 200 1 0 5.338063799662628 -4.335480293157496 -6.0349952378949085 13 0 0
997 200 3 0 5.142482836603756 -4.19410727419905 -6.409791398793933 13 0 0
1000 200 3 0 5.588418695343265 -4.026259407318387 -5.870582382781988 13 0 0
1492 331 4 0 5.931215375456125 -3.811397747095633 -5.947338883884763 11 0 1
1763 421 4 0 -7.066326697747665 -2.8038082291677586 -5.888811160779997 42 2 2
1761 421 2 0 -6.720463084670297 -3.0530243157915393 -5.797577949242284 42 2 2
787 158 3 0 -5.717376042296241 -2.803135558613379 -6.442835915055795 24 0 0
1762 421 4 0 -6.368284172687067 -3.303040879443328 -5.69955906059683 42 2 2
1958 486 4 0 2.2685097127598812 -2.8554967032723066 -6.17975218342819 44 2 1
688 138 3 0 2.3000050324849663 -2.8685592575487053 -5.775082390088351 24 1 0
1340 280 4 0 4.264221829342263 -3.0997696369841945 -5.720597974796915 7 -1 0
860 172 3 0 4.312617705072082 -2.9532363054431583 -6.066719922495485 38 1 2
1491 331 2 0 6.201803914260621 -3.592639883118501 -6.283823690098304 11 0 1
842 169 3 0 7.531241303210887 -3.5788402063140303 -6.425433911324491 25 0 1
1548 350 2 0 -7.492822433386053 -2.268694201935703 -6.048984350829755 8 -1 -1
1550 350 4 0 -7.383630664437582 -2.6878411306335863 -6.118029558913124 8 -1 -1
1275 259 2 0 -5.596662590767519 -2.2853781298657694 -5.579293722271085 22 0 0
1033 207 3 0 0.031235049016347105 -1.9179115552145047 -6.167506262089054 55 2 2
1956 486 2 0 2.5865571226111417 -2.5792300207855217 -6.331671199839079 44 2 1
1308 270 2 0 3.5577404702551885 -2.063069348152302 -6.4409433393738675 5 0 1
1310 270 4 0 3.957688228333293 -1.972009624300096 -6.18618378835064 5 0 1
856 172 1 0 4.512152171135696 -2.6138949056477436 -6.283197322922995 38 1 2
858 172 3 0 4.236817275736994 -2.25042114885753 -6.262672250431929 38 1 2
857 172 3 0 4.896345297237996 -2.519562697839066 -6.092432945836922 38 1 2
1556 352 4 0 4.892663447145404 -2.3447493213204 -5.73147894790665 13 0 0
1549 350 4 0 -7.625385801460563 -1.8253876745446043 -5.96678213917077 8 -1 -1
680 136 3 0 -7.653808514108732 -1.4581424510037087 -6.1722660693425615 16 0 -1
676 136 1 0 -7.833564654612247 -1.1974847420069352 -5.855556675674478 16 0 -1
678 136 3 0 -8.1609875812351 -1.41444760661052 -5.671948530879116 16 0 -1
1725 409 2 0 -6.788619665028052 -0.9343131103578868 -5.722313068868104 6 -1 1
985 197 3 0 -6.038120955099245 -1.5859696499278826 -6.408353997543818 29 0 0
981 197 1 0 -5.744384391739439 -1.3133700305121678 -6.181235100810465 29 0 0
984 197 3 0 -5.978012800786632 -1.0668955914718605 -5.901779425221694 29 0 0
1727 409 4 0 -6.373830846885646 -1.019552710088746 -5.824443650045219 6 -1 1
983 197 3 0 -5.449359200634769 -1.5471042686125145 -5.955633571391614 29 0 0
1276 259 4 0 -5.551338416570104 -1.8513373476812012 -5.713088916897375 22 0 0
982 197 3 0 -5.516107564651307 -1.032228583658779 -6.481733189496864 29 0 0
1239 248 3 0 -4.094901652726341 -1.8395131990392546 -6.231662967838127 -16 -2 0
1236 248 1 0 -4.3208539403648745 -1.5269718473824767 -6.007369961670921 -16 -2 0
1237 248 3 0 -4.740759575221208 -1.5023141448410877 -6.1666218803636585 -16 -2 0
1240 248 3 0 -4.106562833460175 -1.1057437207323062 -6.054047200902102 -16 -2 0
585 117 3 0 -3.315141424833312 -1.2979168473165554 -5.861389788989767 38 0 1
583 117 3 0 -2.6487381196899644 -0.9682050673535825 -5.856149258809191 38 0 1
1642 381 4 0 -2.4549768979043156 -1.0548030353001465 -6.193911755877448 34 1 -2
1034 207 3 0 -0.003836283914148808 -1.2574920047537823 -6.38444123986994 55 2 2
1487 329 4 0 -0.06550354259042024 -1.8344850736120248 -5.784921850109512 -7 -1 1
1031 207 1 0 0.1909309380452644 -1.6158397924781767 -6.4438385072823126 55 2 2
1032 207 3 0 0.6373662673510694 -1.5610142951652044 -6.366976648342901 55 2 2
1524 342 2 0 1.3017002495382552 -1.5349285063996607 -6.327511008568023 33 2 0
1526 342 4 0 1.6515655504453086 -1.605969092887232 -6.051973772778538 33 2 0
152 31 3 0 1.7146649825806026 -1.6022994042692575 -5.657962712581727 -29 -2 -2
679 136 3 0 -7.986609686341491 -0.8187097573413569 -6.032729437137865 16 0 -1
1726 409 4 0 -7.21382104548043 -0.8498214990157678 -5.625914644802334 6 -1 1
582 117 3 0 -3.2553646420541806 -0.5866519276474351 -6.047146956892656 38 0 1
994 199 3 0 -3.852090118993945 -0.145221867582638 -5.6094325741974895 16 0 -1
581 117 1 0 -3.0933739215474043 -0.9093779950394758 -5.780912062693238 38 0 1
1843 448 4 0 -5.213059299849986 -7.837399623181908 -5.223845564499733 4 -1 0
40 8 3 0 -5.165633367371779 -8.244750468805934 -5.319508079477371 28 1 1
1842 448 2 0 -5.5231223557330855 -7.504949655380644 -5.207276611542799 4 -1 0
36 8 1 0 -4.760463226339569 -8.266646383334937 -5.521128404940742 28 1 1
1733 411 4 0 1.9779466486946014 -7.961425032518605 -5.487355522025055 11 0 -1
66 14 1 0 1.9056943422357868 -7.823718926019852 -4.674172638452137 68 3 -2
68 14 3 0 1.9335914832615675 -7.970528303639066 -5.087276458129111 68 3 -2
571 115 1 0 -7.470151932920278 -6.495275455882954 -5.4968508616603815 7 0 1
372 75 3 0 -6.6984332657997605 -7.2739706531013235 -5.501159733210558 12 0 0
374 75 3 0 -6.821867442032179 -6.7472229099364185 -4.942913357170603 12 0 0
572 115 3 0 -7.239345268224619 -6.612751865025763 -5.191440003526566 7 0 1
371 75 1 0 -6.4830131107711555 -6.9758223112079465 -5.248525216093635 12 0 0
1844 448 4 0 -5.811435531197905 -7.189465420202037 -5.1835510628151145 4 -1 0
375 75 3 0 -6.159169153282566 -7.202425979033111 -4.986249354044229 12 0 0
373 75 3 0 -6.296785714658872 -6.681450060992181 -5.51491099143885 12 0 0
1822 441 4 0 0.13786738776035712 -7.144176361071573 -5.032525107256168 13 0 0
177 36 3 0 -0.14569116895305712 -6.892360338469552 -4.834200012238351 30 1 2
1821 441 2 0 0.45785907298716566 -7.169197800344613 -5.355106314444579 13 0 0
1306 269 4 0 7.556783271049461 -7.218533117132202 -5.405441898221637 -2 -1 0
1305 269 2 0 7.593334066820159 -6.909305792640663 -5.069050791333479 -2 -1 0
1307 269 4 0 7.629284654132034 -6.614397504034392 -4.739056552582813 -2 -1 0
574 115 3 0 -7.844210255644594 -6.2843362462896275 -5.32723582969767 7 0 1
180 36 3 0 -0.21484798027144514 -6.163180818514765 -4.7159937792884215 30 1 2
1591 364 4 0 0.07420789447997223 -6.072451748145782 -4.962202632233474 9 0 0
1590 364 2 0 0.3100650282355506 -5.695204796454432 -5.1436381811683916 9 0 0
344 69 3 0 -5.879392872519016 -4.958539487779736 -4.97844329254131 23 1 1
313 63 3 0 -1.1640684890141229 -4.71745751510857 -4.860092595754788 22 0 0
1140 228 3 0 0.8094682571606384 -5.064011875241122 -5.4043020111807785 44 2 0
1592 364 4 0 0.5397370712432554 -5.333058269397049 -5.332151149363092 9 0 0
341 69 1 0 -5.999021096692205 -4.5214156842763185 -4.952975535775763 23 1 1
345 69 3 0 -6.3622330485916185 -4.495355882677275 -4.707753410945786 23 1 1
343 69 3 0 -6.080196461909318 -4.3694043591028855 -5.346323701983895 23 1 1
342 69 3 0 -5.640988358633145 -4.271807844785061 -4.741286673080706 23 1 1
725 145 3 0 -6.292405537388106 -3.180724349829034 -5.29958744804476 50 1 1
721 145 1 0 -6.03150239526501 -3.11154356321513 -4.949411679689968 50 1 1
724 145 3 0 -5.9022853720788575 -3.52063366831562 -4.78964216659415 50 1 1
723 145 3 0 -5.666518841614774 -2.862498976031956 -5.0670503039441925 50 1 1
686 138 1 0 2.0473843253356065 -2.8724271916197726 -5.376880496372232 24 1 0
687 138 3 0 1.8439924314145308 -3.2749408408795233 -5.323876959439882 24 1 0
690 138 3 0 2.3244973864997416 -2.787821613731289 -5.023233144821175 24 1 0
1339 280 4 0 3.7574045871345696 -3.0799464527085085 -4.991598865327061 7 -1 0
1338 280 2 0 4.014500004342967 -3.0949410629052725 -5.363402774135036 7 -1 0
1277 259 4 0 -5.6365259086581005 -2.708370373203657 -5.44553658976468 22 0 0
1984 495 4 0 -4.442519435720657 -1.8644397851690844 -5.252017773938195 22 0 0
1150 230 3 0 -2.198815351057946 -2.1042243598576853 -5.343792036304489 19 0 1
1149 230 3 0 -1.9389374800526804 -2.258701007372986 -4.664971080003667 19 0 1
1146 230 1 0 -2.0200762779894026 -1.919221919824146 -4.987508276578805 19 0 1
979 196 3 0 -0.13903889957445337 -2.42138776540304 -4.735129355539046 31 1 0
1485 329 2 0 -0.13875139025410022 -1.9403528612246541 -5.32918706930808 -7 -1 1
1486 329 4 0 -0.1969849658623044 -2.042687060915876 -4.90788187533869 -7 -1 1
689 138 3 0 1.7148105934904176 -2.5365659451718727 -5.396202356802066 24 1 0
1090 218 3 0 3.175378060243272 -2.3534312741205285 -4.726798325873664 22 1 1
1089 218 3 0 3.8000006011349843 -2.677804128079554 -4.874564823650951 22 1 1
1554 352 2 0 4.9207375011874515 -2.085259549147567 -5.357517720811543 13 0 0
738 148 3 0 6.749843125001465 -1.956364601085169 -4.774657713607461 -7 -1 0
677 136 3 0 -7.527758031573061 -1.1029472394863182 -5.543769839297335 16 0 -1
1238 248 3 0 -4.330484031141795 -1.6413862383033573 -5.558787035223872 -16 -2 0
1983 495 2 0 -4.640633357599446 -1.6654758277338786 -4.916684215345122 22 0 0
1147 230 3 0 -2.2997124791837704 -1.6075196274707118 -4.810029979998931 19 0 1
1148 230 3 0 -1.615824226534956 -1.7341826072982025 -5.097474796406411 19 0 1
1393 298 4 0 -1.2891977990619576 -1.7864509244899738 -4.8814295930401155 31 1 0
1570 357 4 0 1.125609098562892 -1.1967891300514921 -4.857929895952708 11 0 3
155 31 3 0 1.4342998462165024 -1.4291398392416035 -5.006799135025683 -29 -2 -2
153 31 3 0 2.153238186681085 -1.610432333493363 -5.052357525495382 -29 -2 -2
151 31 1 0 1.7952992664161957 -1.4040383115981694 -5.260141733011691 -29 -2 -2
154 31 3 0 1.8871970183109426 -0.9594472489535715 -5.328507128223681 -29 -2 -2
297 60 3 0 5.017583252540387 -1.4881968879189413 -4.729245095791371 17 -1 0
1555 352 4 0 4.963713875211544 -1.803768015671638 -4.966947142643013 13 0 0
1766 422 4 0 6.463900839886122 -1.1403926501088675 -4.676879444423571 42 1 0
739 148 3 0 6.723226811414049 -1.8197876337989722 -5.475875562116839 -7 -1 0
740 148 3 0 7.300250113463386 -1.6237779890761965 -5.107363586225123 -7 -1 0
737 148 3 0 6.651810409824485 -1.2551917421716476 -5.015360699007402 -7 -1 0
736 148 1 0 6.8531740530006555 -1.669303248312061 -5.099216607128921 -7 -1 0
584 117 3 0 -3.163451379596099 -0.7756498711660216 -5.3362381159195245 38 0 1
1998 500 2 0 2.2920523623334432 -0.36176396487368123 -5.204041760873108 31 0 0
1999 500 4 0 2.207695814218278 -0.7993458303374874 -5.1606779481839125 31 0 0
299 60 3 0 4.767895893747685 -0.7954026364570099 -4.996815341378966 17 -1 0
67 14 3 0 1.993310161065434 -8.140780748248778 -4.391683170005945 68 3 -2
70 14 3 0 2.1933734875657045 -7.478059261738877 -4.618574196334551 68 3 -2
69 14 3 0 1.481795511386581 -7.671949492249052 -4.601731771779939 68 3 -2
1800 434 2 0 -8.12567547915454 -7.138137795232932 -3.7288120657367863 16 1 0
1989 497 2 0 -6.975794996409951 -6.649683654970706 -4.323609606946045 30 1 1
1991 497 4 0 -6.785335050759969 -6.959189494003035 -4.576988811124906 30 1 1
178 36 3 0 -0.5780505538366212 -6.661750231949276 -4.2769765574833905 30 1 2
176 36 1 0 -0.19051043242875565 -6.583400342567538 -4.520845318557563 30 1 2
179 36 3 0 0.17139754603569202 -6.594945719002409 -4.246403698707409 30 1 2
1220 244 3 0 7.191652889223489 -6.818888104124939 -3.9611590372443057 19 0 -3
1216 244 1 0 7.589845896051644 -6.655105516894103 -3.957991385525368 19 0 -3
1802 434 4 0 8.23101269405392 -7.201821388030105 -4.037942850293966 15 1 0
1219 244 3 0 7.887180592306418 -6.996760270416268 -3.907879909130841 19 0 -3
1990 497 4 0 -7.1725551244777614 -6.32341817725907 -4.072407049760343 30 1 1
846 170 1 0 -6.823766833973787 -5.764212277806595 -3.750168159779438 -3 -1 0
850 170 3 0 -6.971536499947725 -6.183585222423154 -3.759088428347823 -3 -1 0
848 170 3 0 -6.549231674888022 -5.701854640623633 -4.1029429632703875 -3 -1 0
1218 244 3 0 7.674242994540744 -6.437675404751547 -4.350270921994668 19 0 -3
847 170 3 0 -7.172610985682775 -5.468582722753226 -3.7691528636004685 -3 -1 0
784 157 3 0 -4.295674964934481 -5.0684936651940085 -3.8972404083004992 9 -1 0
1583 361 4 0 -5.270211240267969 -4.207505018629928 -4.635417759728659 14 0 0
1581 361 2 0 -5.313191363152004 -3.83040420378293 -4.348446605567473 14 0 0
312 63 3 0 -1.4843653290713856 -4.095638406432945 -4.577916896978888 22 0 0
315 63 3 0 -1.1928937691038737 -4.610124289418662 -4.102035768136013 22 0 0
311 63 1 0 -1.1468303000001576 -4.392677084745314 -4.517982582786075 22 0 0
314 63 3 0 -0.7594304714202504 -4.176859184625405 -4.527535699744714 22 0 0
1918 473 4 0 -0.3853884445985667 -4.089404179951736 -4.388503999708374 30 0 -1
1917 473 2 0 -0.13742840257515887 -3.7303671067219923 -4.287555975494798 30 0 -1
1058 212 3 0 8.009263508349832 -3.86466761338594 -3.7318332712128592 41 2 0
1057 212 3 0 7.714144740729854 -3.742865651562388 -4.373976457304189 41 2 0
722 145 3 0 -6.270468922567238 -2.8751797963555568 -4.619944577605938 50 1 1
1582 361 4 0 -5.348780971674984 -3.4522697345640783 -4.074831966100857 14 0 0
839 168 3 0 -5.162763419330192 -3.1171781210981298 -4.23061633855194 36 1 0
836 168 1 0 -4.808676313611015 -2.942298293332545 -3.967748674725949 36 1 0
840 168 3 0 -4.4694889346453675 -3.2035834919199973 -4.009642018642717 36 1 0
978 196 3 0 0.0672585577979774 -3.0110862777376077 -4.311671051688587 31 1 0
1919 473 4 0 0.10213361978935076 -3.390824426755275 -4.199302872388452 30 0 -1
875 175 3 0 4.371389845079943 -2.8982366258504104 -3.8607949514901385 2 -1 1
1059 212 3 0 8.186717104554827 -3.2522468509089935 -4.150147178665724 41 2 0
1060 212 3 0 7.487733646147465 -3.3057984787070636 -3.8244587549930387 41 2 0
1056 212 1 0 7.848458510159983 -3.546893640118336 -4.029533590373069 41 2 0
837 168 3 0 -4.6972118589645895 -2.5155531072122708 -4.1147523024063934 36 1 0
977 196 3 0 -0.46399285783323574 -2.534283342466731 -4.047093455079045 31 1 0
1279 260 4 0 -0.7669799560009061 -2.384815901465001 -3.8104449963348657 9 -1 0
976 196 1 0 -0.0595100407453657 -2.575252616000424 -4.298676221353065 31 1 0
980 196 3 0 0.27351693345468675 -2.319390231608935 -4.098520911575649 31 1 0
1087 218 3 0 3.517997191698093 -2.7469251568402395 -4.218049917874456 22 1 1
1088 218 3 0 3.801804552936556 -2.117248206588479 -4.437148107908078 22 1 1
1086 218 1 0 3.5794909110676585 -2.4801510643505598 -4.565633180454131 22 1 1
1985 495 4 0 -4.8656994613881155 -1.4509696439916313 -4.554529687742738 22 0 0
252 51 3 0 -4.707259457339465 -1.1669693986414114 -4.297897422816352 -16 -2 0
254 51 3 0 -4.272527671266725 -1.3408001948019548 -3.7280835373376213 -16 -2 0
251 51 1 0 -4.613077070402493 -1.0741962300147572 -3.87666538326015 -16 -2 0
1392 298 2 0 -0.9968993267621915 -1.8088731587471782 -4.529913529832898 31 1 0
1394 298 4 0 -0.7036636399694682 -1.8242012390628828 -4.155356402218503 31 1 0
74 15 3 0 -0.5493633255841459 -1.5266201675856648 -3.933073563118054 3 -1 -1
72 15 3 0 0.12794721650343455 -1.3105383678345728 -4.08965572314857 3 -1 -1
71 15 1 0 -0.20479129193525658 -1.2624582034955614 -3.8070952011872476 3 -1 -1
1571 357 4 0 0.4226169437161147 -1.254337016227165 -4.359190647661263 11 0 3
1569 357 2 0 0.7807440578599234 -1.2273157497921208 -4.617539203302613 11 0 3
1872 458 2 0 3.8861275875799937 -1.4727270712949796 -4.101954392439696 20 1 -1
1873 458 4 0 3.7400787203351697 -1.123518388670214 -3.8243432937258337 20 1 -1
1874 458 4 0 4.030667685692878 -1.814275130877932 -4.370982091642967 20 1 -1
300 60 3 0 4.579451841577761 -1.0605658184252995 -4.291075658714385 17 -1 0
296 60 1 0 4.91379989162313 -1.0460174078962652 -4.611084401595184 17 -1 0
1764 422 2 0 6.086461295559696 -0.94100367925141 -4.566278759472485 42 1 0
1260 254 2 0 -4.032995221443457 -0.07100508814401252 -4.244408792778747 -15 -2 0
1261 254 4 0 -4.262637345122115 -0.3007861114463175 -3.906086195029422 -15 -2 0
255 51 3 0 -4.489888201269459 -0.6328488877366691 -3.8393037637471794 -16 -2 0
73 15 3 0 -0.3492379808619894 -0.8017952233198988 -3.8051467370511833 3 -1 -1
298 60 3 0 5.2814758202730765 -0.852398293758279 -4.434120983046223 17 -1 0
1765 422 4 0 5.689604297256073 -0.73741420937258 -4.450414242289584 42 1 0
1248 250 3 0 -7.035427796196451 -7.776242687545268 -3.0810794273862143 2 -1 3
1888 463 4 0 -6.657784758769444 -7.813015597293365 -3.0793430648161886 11 -1 1
1246 250 1 0 -7.267533159277691 -7.475863477541886 -2.8593919640326337 2 -1 3
1887 463 2 0 -6.26420493272094 -7.866601721849837 -2.805695261713984 11 -1 1
173 35 3 0 7.836307569171989 -7.4518483716317006 -2.842855368388623 66 4 2
1801 434 4 0 -7.797193991728397 -7.071396475758633 -3.421517516986164 16 1 0
1250 250 3 0 -7.569552258664916 -7.2724730075218895 -3.1424022045618676 2 -1 3
175 35 3 0 7.298350084753272 -6.937677960649124 -2.8540922222944873 66 4 2
849 170 3 0 -6.584750934515548 -5.6939084729563065 -3.3621193886082477 -3 -1 0
783 157 3 0 -4.238230717054912 -5.710757244842691 -3.6080839455306135 9 -1 0
1217 244 3 0 7.626587731190291 -6.35610449992428 -3.6025679049589687 19 0 -3
1834 445 4 0 -6.281307418639834 -5.474629398982682 -3.2352986353478927 32 1 -1
1833 445 2 0 -6.368865330682865 -5.114564387773727 -2.975521166241087 32 1 -1