LAMMPS data file via write_data, version 4 Feb 2025, timestep = 8000000, units = lj

3435 atoms
4 atom types
2576 bonds
1 bond types
3004 angles
2 angle types

-10 10 xlo xhi
-10 10 ylo yhi
-10 10 zlo zhi
0 0 0 xy xz yz

Masses

1 1
2 1
3 0.1
4 0.1

Bond Coeffs # harmonic/omp

1 100 0.45

Angle Coeffs # harmonic/omp

1 100 180
2 100 109.471

Atoms # full

420 84 3 0 -5.862774877223822 -9.374297424914149 -9.650317079471582 13 2 0
418 84 3 0 -5.319650689978314 -9.703359646676239 -9.290355711661702 13 2 0
416 84 1 0 -5.465057395886403 -9.526547678798227 -9.69200407656866 13 2 0
419 84 3 0 -5.176185508054108 -9.188917131637586 -9.821247818576724 13 2 0
417 84 3 0 -5.462009188186696 -9.828129301109248 -9.981559842775898 13 2 0
3260 801 4 0 -2.7347836366731046 -9.628472393680202 -9.15395320809043 15 2 1
3259 801 2 0 -2.546326039121002 -9.991073490842842 -9.339084243261658 15 2 1
2065 413 3 0 9.970855202603445 -9.560257379157532 -9.36725374970591 9 1 0
1128 226 3 0 9.322926948662385 -9.382590325489291 -9.90650880277898 26 3 1
1151 231 1 0 -4.037455582476155 -8.28809868132711 -9.328471739072569 8 1 0
1154 231 3 0 -4.408463532961059 -8.414252344806462 -9.093349958944422 8 1 0
1155 231 3 0 -4.128437373286107 -8.31071371047948 -9.763102472659218 8 1 0
1153 231 3 0 -3.70458667063414 -8.548696623645544 -9.236873583672718 8 1 0
774 155 3 0 2.1067157852776592 -8.653085159632166 -9.694857262901607 13 1 0
771 155 1 0 1.6488085755079709 -8.603603447556376 -9.746946690488265 13 1 0
772 155 3 0 1.4386007958210012 -8.704816741686384 -9.345524746660306 13 1 0
773 155 3 0 1.555191772683493 -8.202363028168634 -9.85642747621354 13 1 0
2808 650 4 0 2.349581845095921 -8.410937494941301 -9.488693600873624 11 1 0
1152 231 3 0 -3.9227294928209915 -7.882875767313006 -9.232677075326201 8 1 0
1652 331 3 0 2.9285498330904165 -6.808112843913394 -9.820578316280661 13 1 2
1653 331 3 0 3.0426408342675604 -7.188402520527653 -9.182591803251546 13 1 2
1651 331 1 0 3.2410257169590633 -6.958267575024646 -9.543569471061941 13 1 2
1654 331 3 0 3.5261195184371807 -7.233773512198169 -9.766340123890146 13 1 2
1655 331 3 0 3.4691118822536673 -6.603912975441547 -9.38423324756834 13 1 2
828 166 3 0 -9.894387875850214 -5.605610047918851 -9.773233250266644 3 -1 0
3016 720 2 0 5.8561893877156574 -5.500618552935262 -9.372560770947995 9 0 1
3017 720 4 0 6.063265071810445 -5.763429868414953 -9.682164498943568 9 0 1
3354 832 4 0 7.2550321577033685 -5.53742184742172 -9.721402427561294 3 0 1
2591 578 4 0 8.917292723356208 -5.470606750915969 -9.143952650726941 4 0 0
2592 578 4 0 9.736964032395427 -5.522068913091928 -9.601153417622683 4 0 0
2590 578 2 0 9.321643773936245 -5.487448449620993 -9.36902775305011 4 0 0
1158 232 3 0 -5.412081637042034 -5.334574370632206 -9.355952895785471 12 1 0
1160 232 3 0 -4.761840575270075 -5.056313939985043 -9.202954610915231 12 1 0
564 113 3 0 4.948588262129265 -4.976152680098417 -9.561515208751173 0 -1 1
561 113 1 0 4.974158228334542 -4.845153406060648 -9.129770378585649 0 -1 1
1684 337 3 0 6.9097803355777145 -5.424465620876865 -9.887562339016348 14 1 1
3352 832 2 0 7.630374231004286 -5.4232667805241395 -9.53120583285777 3 0 1
3353 832 4 0 8.011001709757789 -5.3082359659188425 -9.338887128946986 3 0 1
639 128 3 0 8.201513120158907 -5.015122202872493 -9.154396434605923 10 1 0
1873 375 3 0 -2.3604341616423063 -4.057811726943564 -9.198699197469592 13 1 1
562 113 3 0 4.8906842406700175 -4.3971574091994805 -9.103275011802832 0 -1 1
2799 647 4 0 5.147357742031726 -4.13553337634681 -9.22071978060664 5 0 1
2797 647 2 0 5.05282732031816 -3.68894230559526 -9.299638893778987 5 0 1
1168 234 3 0 7.018934949323558 -3.656761597954741 -9.921817707155524 16 1 0
2336 493 4 0 8.11217722433241 -3.682978069445073 -9.633268271675867 9 0 -1
2335 493 2 0 8.39823417656148 -3.934568936482661 -9.405634144258476 9 0 -1
2337 493 4 0 8.68845323329317 -4.200163754471897 -9.175977997803328 9 0 -1
1874 375 3 0 -2.7383707786141986 -3.4511384837548587 -9.415633962519516 13 1 1
1433 287 3 0 0.8758880755830845 -2.7722533582544706 -9.948565982769093 13 1 0
2798 647 4 0 4.948543612369791 -3.248249733377131 -9.374578712971932 5 0 1
857 172 3 0 5.1562999464428945 -2.9679556052389966 -9.610029262264698 9 0 0
1167 234 3 0 7.223167174451845 -3.111765254172232 -9.460492058999948 16 1 0
1166 234 1 0 7.357410820405526 -3.3712172725810046 -9.8104677440689 16 1 0
1170 234 3 0 7.724366466118575 -3.609047840821095 -9.68789601913848 16 1 0
2897 680 4 0 -9.297793982368093 -2.2367422332699727 -9.991441378269698 4 0 -1
609 122 3 0 -9.101286117927062 -1.9013592199644016 -9.842169148192754 -1 -1 -1
1431 287 1 0 1.031196212642227 -2.3707846727257014 -9.982868273618386 13 1 0
1435 287 3 0 1.1349204863560658 -2.216206192322442 -9.573176842678976 13 1 0
858 172 3 0 5.202603123917468 -2.266794039804534 -9.778396191977198 9 0 0
856 172 1 0 5.434239134446699 -2.6497127976026658 -9.674670229122713 9 0 0
859 172 3 0 5.667352854456759 -2.5849218204042295 -9.306146972168813 9 0 0
1975 395 3 0 8.532596591871467 -2.51833863814935 -9.179540426534919 10 0 0
1972 395 3 0 9.264410775352225 -2.327553796346966 -9.157586869510965 10 0 0
608 122 3 0 -8.937271281197887 -1.206033535789338 -9.87546154337664 -1 -1 -1
610 122 3 0 -9.091209621673503 -1.5200653919053924 -9.240038342225787 -1 -1 -1
606 122 1 0 -8.902484226258814 -1.576971667980434 -9.63548609173609 -1 -1 -1
607 122 3 0 -8.470282213211833 -1.6774927374793673 -9.59240438714151 -1 -1 -1
1044 209 3 0 -5.264625736290592 -1.0538134298715711 -9.67596691494859 11 0 1
824 165 3 0 0.4667418184835004 -1.0745153198612503 -9.999418280610506 10 0 1
2584 576 2 0 1.8793267548746009 -1.046792743103941 -9.989726154473328 4 0 0
1974 395 3 0 8.760924183404814 -1.8091302762386956 -9.129460763355254 10 0 0
3183 775 4 0 8.824298719921522 -1.5394632257787393 -9.436180362958181 16 1 0
3181 775 2 0 8.775430143483213 -1.23533566548587 -9.745126208079832 16 1 0
1041 209 1 0 -5.068876242985079 -0.6814868800600671 -9.785324518955418 11 0 1
1042 209 3 0 -5.373160932083062 -0.3568121574956358 -9.836643818139898 11 0 1
1043 209 3 0 -4.762577977246404 -0.5645028331750996 -9.442378002290937 11 0 1
2963 702 4 0 -4.379087499444933 -0.4715031468065014 -9.515160869405834 18 1 0
2962 702 2 0 -3.939201190704347 -0.6038867551593246 -9.549732917543674 18 1 0
1165 233 3 0 -3.27539595047749 -0.519628673835463 -9.331289993285944 9 0 1
2964 702 4 0 -3.503684554183436 -0.7411649725621654 -9.588679072141339 18 1 0
1162 233 3 0 -2.58047650918284 -0.5501511857224841 -9.246671628357488 9 0 1
2167 437 2 0 0.08640544986674215 -0.3544018343864117 -9.865585356236556 19 1 0
2169 437 4 0 0.3208737071731864 -0.7330941103269701 -9.821291525018458 19 1 0
2585 576 4 0 2.2746679532957295 -0.8979568839658469 -9.877274543890099 4 0 0
548 110 3 0 2.3621386432771896 -0.6251793063704483 -9.574559953957856 -1 -1 0
546 110 1 0 2.5437617084124415 -0.503232626091874 -9.168638922322224 -1 -1 0
549 110 3 0 2.7161792910638844 -0.08744581917577499 -9.200053801781724 -1 -1 0
2063 413 3 0 -9.798950283463729 -9.721233400212146 -8.663481455804341 10 1 0
572 115 3 0 -2.7712724138086635 -9.262711711269125 -9.072368874583178 11 1 0
1025 205 3 0 -2.000386004009135 -9.799308544474846 -8.187393352868437 11 1 0
1024 205 3 0 -1.6835374754689418 -9.964315568592664 -8.848609105496251 11 1 0
2061 413 1 0 9.895590103389978 -9.473607070186306 -8.919901606362169 9 1 0
2064 413 3 0 9.473706461137425 -9.58453373411995 -8.812308191201101 9 1 0
2593 579 2 0 -9.69281817067454 -8.396534509914337 -8.96464039055404 6 0 0
575 115 3 0 -2.7684017062204003 -8.532296802419772 -9.005001386795382 11 1 0
571 115 1 0 -2.6034474118495163 -8.927619990797734 -8.847380461734557 11 1 0
573 115 3 0 -2.7021061362715306 -8.979701069505065 -8.407590176528227 11 1 0
574 115 3 0 -2.181962882502 -8.92466122651624 -8.89616211079193 11 1 0
2806 650 2 0 2.5679747536646182 -8.393818033799878 -9.071138970250171 11 1 0
2807 650 4 0 2.759745061025516 -8.360402707101917 -8.690885950796071 11 1 0
4 1 3 0 2.6163895673883193 -8.52629788125139 -8.292563311707799 10 1 1
2062 413 3 0 9.949933049163779 -9.064090853792631 -8.848572140184991 9 1 0
2595 579 4 0 9.993218061023818 -8.709549387550776 -9.030838935849053 5 0 0
2594 579 4 0 -9.393835535018715 -8.079322046053457 -8.902748194202838 6 0 0
34 7 3 0 -9.22562306630217 -8.050124678159355 -8.550560116637484 12 1 -1
701 141 1 0 -4.930792655879194 -7.49076423199031 -8.296120665646354 10 1 1
702 141 3 0 -5.332770844427762 -7.592877597238696 -8.223658219607346 10 1 1
705 141 3 0 -4.7236096108396195 -7.829627862377623 -8.531250316060717 10 1 1
2473 539 2 0 3.1104455230621664 -7.433873136775168 -8.514684178690588 -4 -1 0
2474 539 4 0 3.352644979919271 -7.665417209781401 -8.200403468576464 -4 -1 0
2460 534 4 0 8.25394510735375 -7.707702234850911 -8.190113428817664 5 0 0
2389 511 2 0 -4.931901984223344 -6.396233110391431 -8.722376657140552 4 0 -1
703 141 3 0 -4.919680456948219 -7.102957289994688 -8.548533566466636 10 1 1
2390 511 4 0 -4.709619197732008 -6.76278706509528 -8.58182380616226 4 0 -1
2475 539 4 0 2.85427519875196 -7.200966679072804 -8.82715819591821 -4 -1 0
3306 816 4 0 3.6251228751177162 -6.493611489681676 -9.065228549334224 13 1 0
3304 816 2 0 3.806289599448295 -6.496343801504291 -8.66791212682475 13 1 0
3305 816 4 0 3.997670820091276 -6.491277635932709 -8.245864602323572 13 1 0
2391 511 4 0 -5.178790123893261 -6.02726285652037 -8.859979699054438 4 0 -1
1157 232 3 0 -4.922754793743188 -5.736021849346926 -9.02395227830684 12 1 0
765 153 3 0 -0.6526117196136418 -6.338987754477552 -8.401400439644037 1 0 1
762 153 3 0 -1.2914014313503266 -5.956857254740281 -8.449313457128326 1 0 1
1156 232 1 0 -5.088469754005241 -5.333177551884032 -9.060255049416373 12 1 0
1159 232 3 0 -5.2441133229354335 -5.178886591537017 -8.645770321433858 12 1 0
563 113 3 0 4.67489768883029 -5.066247881413113 -8.895326769729612 0 -1 1
3018 720 4 0 5.650905677292503 -5.24867588158627 -9.073154210950173 9 0 1
565 113 3 0 5.390672621947488 -4.931605845935324 -8.965445953092194 0 -1 1
638 128 3 0 8.890000922612579 -5.195283188489245 -8.850819082486279 10 1 0
636 128 1 0 8.528506409431774 -4.909426085569816 -8.8143673791679 10 1 0
637 128 3 0 8.343920550886722 -4.957623820158702 -8.428393651637538 10 1 0
1872 375 3 0 -3.0672357094340708 -3.9552655079813404 -9.000111826937324 13 1 1
1871 375 1 0 -2.686066556051613 -3.7450911127622977 -9.07696161410051 13 1 1
640 128 3 0 8.66089820434269 -4.48367521381008 -8.858562720490674 10 1 0
1875 375 3 0 -2.5664866856346062 -3.531826571046355 -8.72281734222844 13 1 1
2530 558 2 0 6.010113401011413 -2.8097211731538296 -8.60017422928003 13 1 0
1585 317 3 0 -6.582148999542069 -2.5390161278107826 -8.347658502094282 14 1 -1
1583 317 3 0 -6.796636065418538 -1.8422964359113525 -8.356046946229048 14 1 -1
2532 558 4 0 5.9581722168318265 -2.699744300678887 -9.054928047947717 13 1 0
1971 395 1 0 8.859949781607323 -2.2193032627067435 -9.001676016723952 10 0 0
1973 395 3 0 8.857779806792706 -2.242833857932718 -8.554113407216255 10 0 0
644 129 3 0 4.866640227078671 -1.6234938361347275 -8.610181978294378 3 -1 0
645 129 3 0 5.310805419344373 -1.155484836553546 -8.234418037030528 3 -1 0
641 129 1 0 5.086439256883795 -1.538696623064304 -8.200627960940462 3 -1 0
1571 315 1 0 9.079287708891243 -1.0243617092898187 -8.633122975729583 9 0 1
1573 315 3 0 8.847266292786575 -1.1613031407442111 -8.997307116056835 9 0 1
1574 315 3 0 8.797930112095493 -0.9836607433374152 -8.276744521579362 9 0 1
1572 315 3 0 9.391096112163705 -1.320047590444382 -8.54535026852787 9 0 1
2571 571 4 0 -9.341693337180336 -0.12574505456948515 -8.49644205580089 4 0 0
1125 225 3 0 -9.962444678085957 -0.4035646104548327 -8.94839698983823 19 1 2
2569 571 2 0 -8.970953503828955 -0.2556946113005498 -8.314526003222793 4 0 0
2604 582 4 0 -3.1404198923642817 -0.7117030778590223 -8.3486400959919 8 0 1
1161 233 1 0 -2.959196988669044 -0.4519167971790061 -9.059965629573476 9 0 1
1163 233 3 0 -3.0094607591623292 -0.7103212109560832 -8.708486134239433 9 0 1
1164 233 3 0 -2.9671075667635005 -0.01525762841274414 -8.935694809834564 9 0 1
547 110 3 0 2.2471725487338556 -0.5016042008261614 -8.88213799882509 -1 -1 0
550 110 3 0 2.8738833442239287 -0.7991366102691 -9.047397597218012 -1 -1 0
1575 315 3 0 9.274855119132738 -0.6239781518893235 -8.719940142832218 9 0 1
32 7 3 0 -8.91842294274548 -8.417312534737686 -7.989070881889517 12 1 -1
1 1 1 0 2.8814518888990914 -8.351606492802802 -7.972300229456164 10 1 1
5 1 3 0 2.6211893212299593 -8.239206629089995 -7.6062083262821 10 1 1
2688 610 4 0 3.2599691231499968 -8.906715707554556 -7.56729886194943 10 1 1
2 1 3 0 3.1752216176371117 -8.641782332324508 -7.857447065528833 10 1 1
1665 333 3 0 8.675746810645219 -8.815728706673454 -7.655320003692818 12 1 0
1661 333 1 0 9.120007099865674 -8.796310845112963 -7.549466118901702 12 1 0
2459 534 4 0 8.502037965001463 -8.43700658925614 -7.690857742114393 5 0 0
1663 333 3 0 9.35297965415289 -8.983278786510809 -7.871807352686391 12 1 0
1662 333 3 0 9.249483294478573 -8.365705422580232 -7.4906014349280525 12 1 0
2982 708 4 0 -9.527557614546577 -8.02179288922229 -7.504288483484642 15 1 0
35 7 3 0 -9.43554236598506 -7.897966032403505 -7.8708178831408215 12 1 -1
2980 708 2 0 -9.99196322738202 -8.077793887486628 -7.452158416427281 15 1 0
31 7 1 0 -9.089812105604183 -8.006547631899346 -8.127115697896855 12 1 -1
33 7 3 0 -8.760602696144264 -7.687816191058049 -8.105511263511774 12 1 -1
3153 765 4 0 -8.370270039939845 -7.697086137304889 -8.02752934171114 6 0 0
3151 765 2 0 -8.055298040786296 -7.857151689535423 -7.7164534644797165 6 0 0
3152 765 4 0 -7.748399514241972 -8.017439265496916 -7.425230442182071 6 0 0
704 141 3 0 -4.7210504372388 -7.416897289285437 -7.906836141528623 10 1 1
3 1 3 0 3.098281597857346 -7.972385748262672 -8.141100014603097 10 1 1
2458 534 2 0 8.370151071698324 -8.057714006752906 -7.951193243390503 5 0 0
2981 708 4 0 9.559444578618923 -8.120680186906874 -7.418045454922996 14 1 0
455 91 3 0 2.9621413235164518 -6.566916479853042 -7.47398393884251 8 1 0
2225 456 4 0 4.024831333276067 -6.871357816914798 -8.108286707803904 3 0 0
2224 456 2 0 4.282729846638915 -7.056381985218266 -7.813966662672957 3 0 0
2226 456 4 0 4.548015555138571 -7.244175228097246 -7.487395986909688 3 0 0
255 51 3 0 -3.514997593018121 -6.231218509834573 -7.617884486791831 10 0 -1
253 51 3 0 -2.8788490519353216 -6.292125041359876 -7.313751224102407 10 0 -1
761 153 1 0 -0.9489354864374384 -6.064808203608289 -8.172602700966008 1 0 1
763 153 3 0 -0.7393759455143325 -5.686729265282688 -8.056324925740668 1 0 1
764 153 3 0 -1.1067346919905816 -6.2765798466228535 -7.80188426900457 1 0 1
454 91 3 0 3.096649267183249 -5.859467651069252 -7.307941994093202 8 1 0
2528 557 4 0 8.137609882333635 -5.146353534230935 -8.15124511623314 11 1 0
2529 557 4 0 7.851369781741621 -5.328981503816324 -7.2888311048381915 11 1 0
2527 557 2 0 7.989680930636457 -5.239127804363651 -7.7184237569930945 11 1 0
1412 283 3 0 5.133797667056541 -2.9299135147408606 -7.553500034960337 5 0 0
1411 283 1 0 5.556397211538915 -3.068924053080309 -7.551288459677253 5 0 0
1415 283 3 0 5.571652920036476 -3.517155239566181 -7.437146681823126 5 0 0
2531 558 4 0 6.066975473902517 -2.9262799023631025 -8.162859842045503 13 1 0
1413 283 3 0 5.72346864731186 -3.0147803172236465 -7.956187689158237 5 0 0
2291 478 4 0 -7.410042522013968 -2.0972023843287646 -7.750895100055978 4 0 1
1582 317 3 0 -7.152218883640444 -2.361858071551735 -7.940605212336962 14 1 -1
1581 317 1 0 -6.748222754134352 -2.22962238854214 -8.094973417979737 14 1 -1
1584 317 3 0 -6.4876334869541274 -2.155359162588635 -7.755847758960521 14 1 -1
643 129 3 0 5.365229547368921 -1.8637444065584567 -8.106978350670484 3 -1 0
119 24 3 0 8.908112301414622 -2.0528942368105145 -7.5774888121552975 3 -1 0
2290 478 2 0 -7.702867990807377 -1.788056614398318 -7.656169386769122 4 0 1
2292 478 4 0 -8.016651678948516 -1.4786579681828478 -7.548143321772409 4 0 1
1387 278 3 0 -8.202262784616318 -1.2059879865777337 -7.772433837586949 7 0 0
633 127 3 0 0.6758481461557135 -1.18279475153685 -8.081226770496489 10 0 -1
642 129 3 0 4.782483952692829 -1.5046757272112554 -7.869745629990425 3 -1 0
3212 785 4 0 5.501270056313681 -0.9617742473049713 -7.943945282996628 12 1 0
117 24 3 0 9.193924727326138 -1.4205381562125492 -7.316733861335211 3 -1 0
2570 571 4 0 -8.575307090084124 -0.40048120805455945 -8.12164024053947 4 0 0
1389 278 3 0 -8.674904684827698 -0.7014732532672809 -7.891123915360959 7 0 0
1386 278 1 0 -8.412756681360333 -0.8688377546240673 -7.597708666218742 7 0 0
1388 278 3 0 -8.119104045505058 -0.5516235761437116 -7.451709235860781 7 0 0
2603 582 4 0 -3.1440736916082637 -0.6444347036774989 -7.429568427097935 8 0 1
2602 582 2 0 -3.1393731910423917 -0.6780731872642534 -7.863835387210459 8 0 1
1900 380 3 0 -0.4715639147097548 -0.002147633688673878 -7.612253134818318 6 0 -1
1897 380 3 0 -0.9747425752470988 -0.46974322421812076 -7.2775115209755015 6 0 -1
632 127 3 0 0.38925052333309296 -0.8591027509049525 -7.4811921890622015 10 0 -1
634 127 3 0 0.25906319766339614 -0.5775851879772826 -8.161118542126738 10 0 -1
631 127 1 0 0.5672928813783802 -0.7857245286756189 -7.893071213993062 10 0 -1
635 127 3 0 0.9336429110697644 -0.5458383470365504 -7.8460397922061125 10 0 -1
2159 434 4 0 1.1855833534240272 -0.5430948449821944 -7.533746730484766 12 1 -1
3211 785 2 0 5.7296149932969875 -0.6187820143127976 -7.830206500674127 12 1 0
3213 785 4 0 5.98194092760629 -0.23190203674103316 -7.699385068273829 12 1 0
1977 396 3 0 6.170963854382528 -0.0653039855623927 -8.001225418820527 10 1 0
3096 746 4 0 7.850447492540184 -0.3939712257119421 -7.347155125741825 8 0 0
1394 279 3 0 8.005734419828894 -0.04413615428788731 -7.440422914817198 10 1 0
2421 521 4 0 9.07914214474322 -0.24169080856029623 -7.4568722951691 4 0 0
1393 279 3 0 8.73008274011282 -0.05774800360128296 -7.512713233180008 10 1 0
2419 521 2 0 9.196553273617162 -0.6592804560114622 -7.295461101700579 4 0 0
3230 791 4 0 9.053824035193298 -9.212350050309153 -6.8406868555321765 1 -1 0
3229 791 2 0 9.334202725762776 -9.31830918234319 -6.519948375814799 1 -1 0
494 99 3 0 -7.227244750659936 -8.224057333727778 -6.556816208424281 5 0 0
2686 610 2 0 3.271821185313579 -8.961616183238728 -7.106034654212516 10 1 1
2115 423 3 0 3.333225541361431 -8.745198421294916 -6.3886718803231375 14 1 1
2687 610 4 0 3.275426226563475 -9.008352956661238 -6.644710290338811 10 1 1
1664 333 3 0 9.18618498710519 -9.020077719843828 -7.165709752771848 12 1 0
495 99 3 0 -7.730654515418494 -8.026521420909683 -7.021625471564326 5 0 0
491 99 1 0 -7.507961410876308 -7.906576645252765 -6.6539747884939064 5 0 0
493 99 3 0 -7.290696885240267 -7.535940395904597 -6.72148416221563 5 0 0
2113 423 3 0 3.1548345565855147 -8.027233363176018 -6.4055560206052 14 1 1
254 51 3 0 -3.4245734684049056 -6.689958276349102 -7.039393521338098 10 0 -1
452 91 3 0 3.177305011484499 -6.387931315322017 -6.780800270048361 8 1 0
1855 371 3 0 4.700812778881049 -7.018397240512004 -7.168720900006142 5 0 0
1853 371 3 0 4.766127920977755 -6.579248269770778 -6.580465057337117 5 0 0
1851 371 1 0 4.7569492856709985 -6.992124261367167 -6.704585226507122 5 0 0
1852 371 3 0 4.412284203697077 -7.2069322971666985 -6.499642174093189 5 0 0
1854 371 3 0 5.147607011199611 -7.193718235260899 -6.587673797696834 5 0 0
1730 346 3 0 -5.150500815783215 -5.530969722708016 -6.389952248398682 17 1 0
252 51 3 0 -3.393438188900765 -5.927886722955332 -6.936675552820612 10 0 -1
251 51 1 0 -3.2930291905517253 -6.2844271150351085 -7.2351675330602 10 0 -1
366 74 1 0 0.8084086946779507 -5.468521958763541 -6.468853181009218 -1 -1 0
369 74 3 0 0.6430084765644235 -5.642252563421938 -6.862013892758929 -1 -1 0
2683 609 2 0 1.9114873726293418 -5.742113602054718 -6.858310913535989 11 1 1
2685 609 4 0 1.5395125450570113 -5.6322849853712 -6.6411109451111106 11 1 1
451 91 1 0 2.9314281344372635 -6.251631467702921 -7.151807151025539 8 1 0
2684 609 4 0 2.2936292595350984 -5.852740801723956 -7.081644132204747 11 1 1
453 91 3 0 2.50783523221733 -6.202570421352798 -7.036330509521281 8 1 0
2949 697 4 0 3.5600258527849995 -6.277503579330396 -6.861574848072082 12 1 0
2947 697 2 0 3.7889514021006914 -6.231518906053188 -6.4356154207346545 12 1 0
2244 462 4 0 4.765978740642884 -6.168779551333915 -6.597381801978999 6 0 0
2242 462 2 0 4.892358437463189 -5.729441635400602 -6.664460345740341 6 0 0
245 49 3 0 7.8362765368776195 -5.528955480477469 -6.939501231886154 6 0 0
241 49 1 0 8.179445001290556 -5.573159086985886 -6.646688991070482 6 0 0
242 49 3 0 8.494483929946401 -5.823888353628218 -6.842596056741375 6 0 0
3407 850 4 0 0.16554710437870668 -5.03882729765871 -6.4533429117896715 5 0 0
370 74 3 0 1.264216964479374 -5.341336938670166 -6.537410349007479 -1 -1 0
2243 462 4 0 5.019489054255626 -5.281318955977624 -6.71456826234194 6 0 0
699 140 3 0 5.155290396629656 -4.985129869772821 -6.506953036224859 -2 -1 2
244 49 3 0 8.360496716169429 -5.135518522526754 -6.545851837528273 6 0 0
203 41 3 0 -1.1799567181474195 -3.8859638296570553 -6.6501532193839985 2 -1 0
2598 580 4 0 5.6035791351389115 -4.321710873150898 -6.548167017647682 -1 -1 0
2596 580 2 0 5.54771226984804 -3.934418853104437 -6.788035056577807 -1 -1 0
3023 722 4 0 8.653934317589243 -4.22827832645784 -6.439391935279966 10 1 1
1208 242 3 0 8.656266523935873 -3.844274774534382 -6.469216972249349 18 1 -1
1209 242 3 0 9.374063587090124 -3.883793705228367 -6.404762494859748 18 1 -1
2597 580 4 0 5.484138073309595 -3.533479501332728 -7.042559920533668 -1 -1 0
1414 283 3 0 5.802429374771803 -2.8183048826681123 -7.2555424062416956 5 0 0
1206 242 1 0 9.02532856610383 -3.634220430190938 -6.5539039736755615 18 1 -1
1207 242 3 0 9.064646984655027 -3.5858813426515725 -6.998196144845098 18 1 -1
1969 394 3 0 -0.7596041125856807 -2.6751982782121253 -6.635976928825572 12 0 0
1344 269 3 0 3.7939127233649046 -2.381644356598107 -6.706017357066638 11 1 1
1345 269 3 0 4.218727267955462 -2.4341472933248633 -7.271842159704805 11 1 1
1343 269 3 0 4.470905193604757 -2.1788131598653893 -6.65564316990211 11 1 1
1341 269 1 0 4.124905909331849 -2.1935957105009054 -6.912315111272182 11 1 1
120 24 3 0 9.045438211685951 -1.9529372051515317 -6.855209128801265 3 -1 0
2891 678 4 0 9.347065047545698 -2.092356699978315 -6.6500778969141905 3 -1 0
2890 678 2 0 9.300963779786368 -2.505326374038227 -6.473064206921936 3 -1 0
1390 278 3 0 -8.649609980172706 -1.0152862089251435 -7.254022751760997 7 0 0
2235 459 4 0 -8.836778549350708 -0.9755228082830243 -6.900080153375536 4 0 1
2124 425 3 0 -5.083981836941317 -1.7626386190678804 -6.694002640629483 15 1 2
3431 858 4 0 -4.79112401044956 -1.6072986622666647 -6.941066231912984 5 0 1
3430 858 2 0 -4.400529382776503 -1.4311523378507953 -6.976452414467199 5 0 1
3432 858 4 0 -3.986904367193638 -1.2506584765102922 -7.016712940067125 5 0 1
445 89 3 0 -3.719406101387949 -1.1015428382788865 -6.749886093027817 8 0 0
2170 438 2 0 0.11471775563144426 -0.9862973929495045 -6.6249099855585225 12 1 -1
3077 740 4 0 3.6227180411242887 -1.71333297005304 -7.111885219917706 13 1 -1
3078 740 4 0 3.118583328660538 -0.9678646435875535 -7.204058146289652 13 1 -1
3076 740 2 0 3.3747885232866555 -1.3486885165450087 -7.160894582063735 13 1 -1
1342 269 3 0 4.01261420834372 -1.7707606181471682 -7.037757100979387 11 1 1
118 24 3 0 8.485428443656772 -1.5706897808722502 -7.154461508470213 3 -1 0
116 24 1 0 8.912188069460136 -1.7445255919728702 -7.2157859478777935 3 -1 0
2420 521 4 0 9.30614962665291 -1.0528061807336524 -7.145790169911511 4 0 0
2233 459 2 0 -9.181847520234653 -0.7716421610561603 -6.669933510419927 4 0 1
2234 459 4 0 -9.502764371979284 -0.5857948182625652 -6.464582381694146 4 0 1
2936 693 4 0 -8.106574857243046 -0.3094872743085464 -7.15860167101952 9 0 -1
444 89 3 0 -3.081545557728113 -0.8770272051216423 -7.095709448373677 8 0 0
441 89 1 0 -3.3499129389610216 -0.8354225696200448 -6.705880571298586 8 0 0
443 89 3 0 -3.48063311589621 -0.4012261295672559 -6.665389740670639 8 0 0
3399 847 4 0 -3.426752496616098 -0.10524548987927496 -6.936656300576887 19 1 2
1898 380 3 0 -0.5198501694350277 -0.03330486281347689 -6.8455775812928685 6 0 -1
1896 380 1 0 -0.5569486654694948 -0.28801563015833764 -7.247451038107199 6 0 -1
1899 380 3 0 -0.24978292058343143 -0.6106860266672367 -7.250833321200201 6 0 -1
2171 438 4 0 -0.18465979442080283 -0.7693261108892742 -6.912247369572404 12 1 -1
2158 434 2 0 1.3392135134422407 -0.21878063802793513 -7.24881303245386 12 1 -1
342 69 3 0 2.885930745092244 -0.7619715599968337 -6.9383707446912375 -5 -1 0
344 69 3 0 2.222764883116408 -0.5501159741413879 -6.764505222968928 -5 -1 0
341 69 1 0 2.656711873133908 -0.582411418528622 -6.630108038947899 -5 -1 0
343 69 3 0 2.8159811508104955 -0.15132957493210775 -6.538183236129475 -5 -1 0
566 114 1 0 6.492712508669154 -0.3693333613460599 -6.627125183129802 8 0 0
568 114 3 0 6.230754950314562 -0.019238786666171848 -6.833029854623544 8 0 0
567 114 3 0 6.658837179548634 -0.6162815193228717 -6.9448615678285375 8 0 0
3095 746 4 0 7.010187876343213 -0.661275548834455 -7.142884476917633 8 0 0
570 114 3 0 6.834516881597182 -0.1895552720112743 -6.379833218150914 8 0 0
3094 746 2 0 7.4203870653942126 -0.5276582486069792 -7.242514541974304 8 0 0
1469 294 3 0 -9.943840584299345 -9.879264241113727 -5.717894264352472 3 0 -1
1468 294 3 0 9.527800244313479 -9.401170360738442 -5.801023201680438 2 0 -1
1466 294 1 0 9.75648268834949 -9.632797767631255 -5.509396714832016 2 0 -1
3231 791 4 0 9.612469789623049 -9.433627736318954 -6.199305543378758 1 -1 0
2111 423 1 0 3.372528769176135 -8.352279409024963 -6.172771347267721 14 1 1
2112 423 3 0 3.1904445338885985 -8.38438091026255 -5.77749341609476 14 1 1
2114 423 3 0 3.792549586503071 -8.245362660627354 -6.130723794847891 14 1 1
2874 672 4 0 -8.044001741996892 -7.851353688602058 -6.039136351159726 13 1 1
492 99 3 0 -7.779860265921984 -7.8575399621427 -6.325744156236601 5 0 0
2872 672 2 0 -8.208510581818189 -8.013292044565718 -5.646429914463315 13 1 1
1727 346 3 0 -4.666032245654592 -5.550055583172179 -5.889649322895114 17 1 0
2198 447 4 0 -4.6858680660517305 -5.804911347048549 -5.590417940000773 1 -1 -1
368 74 3 0 0.7944189975042537 -5.767573802532784 -6.151707788574989 -1 -1 0
2948 697 4 0 3.987689285563958 -6.183915927341738 -6.059287071905253 12 1 0
2477 540 4 0 4.153084681808609 -6.0532185909862 -5.706299843211108 9 1 0
243 49 3 0 8.037811283214566 -5.762120265568988 -6.29242151860235 6 0 0
1359 272 3 0 7.583745974339241 -5.502313051524277 -6.0392820709499695 11 1 0
1728 346 3 0 -5.321606389690425 -5.263370305718867 -5.748876898568482 17 1 0
1726 346 1 0 -4.998725332009415 -5.324024775981974 -6.066865523624103 17 1 0
1729 346 3 0 -4.8601177679573295 -4.928561279127694 -6.216118366177575 17 1 0
3408 850 4 0 -0.7162663367743178 -4.699180051538386 -6.244685743375437 5 0 0
3406 850 2 0 -0.26088698157639634 -4.872662481374404 -6.354208413728538 5 0 0
367 74 3 0 0.5666754268981329 -5.111795449555581 -6.346757463832203 -1 -1 0
698 140 3 0 5.0759056802635545 -4.869346453109955 -5.797401590033951 -2 -1 2
696 140 1 0 5.349676301218233 -4.832323371012226 -6.144558145681134 -2 -1 2
2655 599 4 0 5.182146895327801 -5.138711399728244 -5.511193130676059 5 0 1
700 140 3 0 5.732544865873042 -5.07423108463253 -6.073512171120291 -2 -1 2
1358 272 3 0 6.9481672513776935 -5.370044580449238 -5.672069760549851 11 1 0
1356 272 1 0 7.352267484901496 -5.192246963349842 -5.843802959797152 11 1 0
1357 272 3 0 7.247532778356053 -4.84436011722214 -6.164811431731109 11 1 0
1360 272 3 0 7.5831686727439696 -5.010547564207881 -5.495391020282828 11 1 0
3024 722 4 0 8.451928083578942 -5.026519006029525 -6.156126892069875 10 1 1
3022 722 2 0 8.558641698928682 -4.604175554361168 -6.306464377593891 10 1 1
3047 730 4 0 -9.591253527977884 -4.232941955302559 -6.149189999607674 12 1 0
3046 730 2 0 -9.930098057147386 -3.977874300774955 -6.211320720787263 12 1 0
863 173 3 0 -7.644814506054976 -3.955812843163148 -5.630074807340936 14 1 0
3122 755 4 0 -8.011370555288792 -4.071916861561614 -5.593502332366467 14 1 0
202 41 3 0 -1.563167264251014 -4.221269742083865 -6.167467339974679 2 -1 0
205 41 3 0 -0.8395408507490103 -4.3292686484006095 -6.159216099625626 2 -1 0
204 41 3 0 -1.1491629616440022 -3.6778451467263853 -5.963201488296341 2 -1 0
201 41 1 0 -1.1920659763438302 -4.023895491374082 -6.23985101820794 2 -1 0
1399 280 3 0 1.1193787483350448 -3.774995590404071 -5.806808086977268 5 0 0
697 140 3 0 5.444449767936312 -4.416980117308636 -6.197495240454902 -2 -1 2
3048 730 4 0 9.713983421898412 -3.7150613696645856 -6.273290311394663 11 1 0
1967 394 3 0 -1.0923164645757133 -3.1028440134733994 -6.119229995153042 12 0 0
1397 280 3 0 1.4781710111995174 -3.216042822160836 -5.510919237983258 5 0 0
1210 242 3 0 9.024949947209922 -3.237439957044419 -6.36029334304955 18 1 -1
2892 678 4 0 9.249524811885763 -2.9142370976726673 -6.288787832079562 3 -1 0
2746 630 2 0 -7.193124945012101 -1.8841681579345977 -5.597773430457904 10 0 1
3107 750 4 0 -6.547701181518573 -2.0668818522113668 -5.735960946527704 3 -1 -1
3106 750 2 0 -6.126103368703837 -2.0020402131519504 -5.90268000722675 3 -1 -1
3108 750 4 0 -5.714524086291143 -1.9456773663973053 -6.0587425922723925 3 -1 -1
2121 425 1 0 -5.035617010318393 -1.9448079105277323 -6.265873730922554 15 1 2
2122 425 3 0 -5.397996047438433 -2.1864545442497274 -6.161130601784118 15 1 2
2123 425 3 0 -4.676985619151845 -2.1978903330022828 -6.250901597405169 15 1 2
2792 645 4 0 -3.1185154298749573 -1.837832407732817 -5.646578392100548 12 1 0
2952 698 4 0 -1.4171264893419728 -2.131690639988042 -5.908108807612035 9 0 0
2950 698 2 0 -1.391918873555909 -1.874240926526074 -5.589718332010161 9 0 0
1970 394 3 0 -1.2703534212749688 -2.3694177236063663 -6.173176341974235 12 0 0
1968 394 3 0 -0.5782946521989949 -2.5777846015754946 -5.91572296972801 12 0 0
1966 394 1 0 -0.9303637896267141 -2.6874223343244408 -6.209433583620747 12 0 0
2551 565 2 0 1.139341149142048 -2.493245133872777 -5.551439144208503 5 0 0