LAMMPS data file via write_data, version 4 Feb 2025, timestep = 1000, units = lj

8 atoms
4 atom types
6 bonds
1 bond types
7 angles
2 angle types

-1.5 1.5 xlo xhi
-1.5 1.5 ylo yhi
-1.5 1.5 zlo zhi
0 0 0 xy xz yz

Masses

1 1
2 1
3 0.1
4 0.1

Bond Coeffs # harmonic/omp

1 100 0.45

Angle Coeffs # harmonic/omp

1 100 180
2 100 109.471

Atoms # full

3 1 3 0 0.32099795445376467 -0.7305159009152297 -1.0657809336078026 0 0 0
4 1 3 0 0.4316215090808875 -0.02919553183818402 -1.30369354623841 0 0 0
1 1 1 0 0.6080126223891487 -0.4638073994591534 -1.296424385042751 0 0 0
2 1 3 0 1.0021413278730131 -0.46357530509791967 -1.1006648041138511 0 0 0
6 2 2 0 0.28269943370481276 -0.601129052668588 0.63545795359894 0 0 0
8 2 4 0 0.06512876501734022 -0.3667147692116144 0.317401936662973 0 0 0
7 2 4 0 0.5305192393894402 -0.8462121604560726 0.9893549953389749 0 0 0
5 1 3 0 0.654333895819776 -0.6191061945459796 1.2851257384306924 0 0 -1

Velocities

3 1.443190018625728 -0.18269568806062586 0.28030049919053746
4 0.6672258298169834 -0.45636656017953126 0.6603993643103864
1 0.4927027312423511 0.423515847615114 0.32651588386236663
2 0.7745765766439625 -0.21367352302466958 0.11017576991119624
6 0.4619738185612326 -0.1874269685292705 -0.36517678053146674
8 1.1369374566117665 0.8740971098733012 1.9738879160600933
7 1.501650331088994 -1.7602908834637612 0.32767835544285207
5 1.3654035161834581 -0.8272571008960229 -2.692959633341278

Bonds

1 1 1 2
2 1 1 3
3 1 1 4
4 1 1 5
5 1 6 7
6 1 6 8

Angles

1 2 2 1 3
2 2 2 1 4
3 2 2 1 5
4 2 3 1 4
5 2 3 1 5
6 2 4 1 5
7 1 7 6 8
