LAMMPS data file via write_data, version 4 Feb 2025, timestep = 8000000, units = lj

4000 atoms
4 atom types
3000 bonds
1 bond types
3500 angles
2 angle types

-10.515914 10.515914 xlo xhi
-10.515914 10.515914 ylo yhi
-10.515914 10.515914 zlo zhi
-7.105427357601002e-15 0 0 xy xz yz

Masses

1 1
2 1
3 0.1
4 0.1

Bond Coeffs # harmonic/omp

1 100 0.45

Angle Coeffs # harmonic/omp

1 100 180
2 100 109.471

Atoms # full

3994 998 4 0 -8.003446458787145 -10.024066780294083 -10.064592332186413 5 0 2
3992 998 2 0 -8.120618156357004 -10.34007863488771 -9.763598154767275 5 0 2
602 121 3 0 -8.305584102908718 -9.76268046129425 -10.122342716632867 9 1 1
3716 906 2 0 -5.960162852272265 -9.72592183004888 -9.74321667811553 10 1 1
1849 370 3 0 -5.707771970860618 -10.350466046158695 -9.788306800374855 11 1 1
1913 383 3 0 -0.1335097988064291 -10.249772979403843 -10.247528362562921 13 1 0
604 121 3 0 -8.70381886853274 -9.211987558844745 -10.404135830891464 9 1 1
601 121 1 0 -8.413239137959113 -9.31981379138953 -10.077226141953862 9 1 1
603 121 3 0 -8.034542572310471 -9.061548913588943 -10.122499542048551 9 1 1
605 121 3 0 -8.596127487420896 -9.243259312019731 -9.681617722869492 9 1 1
3718 906 4 0 -6.2691682475898745 -9.441620336031635 -9.957468211996494 10 1 1
1680 336 3 0 -6.34873647051557 -9.403086177661512 -10.335549117137402 13 1 0
1745 349 3 0 -4.571312396733063 -8.934692969951112 -10.086477945136696 1 -1 0
421 85 1 0 -0.4562570240744144 -8.899796451139352 -10.04253039520964 4 0 1
422 85 3 0 -0.6975089544219681 -9.182791099716423 -9.792491447560973 4 0 1
425 85 3 0 -0.0745936982905242 -8.780474349162557 -9.819472056077082 4 0 1
423 85 3 0 -0.34362448887338815 -9.104356432978964 -10.446343429905227 4 0 1
1117 224 3 0 -8.738112893955044 -8.3790013873938 -10.229988768627585 11 1 0
1116 224 1 0 -8.677172571081336 -7.9408979543503415 -10.172226185881994 11 1 0
1741 349 1 0 -4.650789138792728 -8.64818857937724 -9.744729886820375 1 -1 0
1742 349 3 0 -4.73944233406321 -8.226632390934808 -9.91807493620226 1 -1 0
3816 939 4 0 -4.539635267077062 -7.921052846688875 -9.728930941831912 8 0 1
424 85 3 0 -0.7189920768059039 -8.517858276162892 -10.136985049443194 4 0 1
2788 596 4 0 -0.7667052440549469 -8.253722019518584 -10.426724766647048 4 0 1
1119 224 3 0 -9.001822740748104 -7.721166861500274 -10.37741807515201 11 1 0
1120 224 3 0 -8.687403739847134 -7.841633342479485 -9.745514411883779 11 1 0
1118 224 3 0 -8.260809210701929 -7.819073154892284 -10.349854512172476 11 1 0
3815 939 2 0 -4.490062155147418 -7.609611778160746 -10.101207747370147 8 0 1
3817 939 4 0 -4.435496809242788 -7.327859478361191 -10.429580420515649 8 0 1
1433 287 3 0 -9.17902153255336 -7.002172260363708 -10.381960733156253 2 -1 0
3145 715 4 0 -6.283532357438707 -2.8671773987417435 -9.937772605216976 4 0 1
3143 715 2 0 -6.434798502707379 -3.2372794636961544 -9.660380988414234 4 0 1
457 92 3 0 -2.882223183201133 -3.0158959367342044 -9.786067298848856 7 0 1
458 92 3 0 -2.5632994854528883 -2.7225590165627587 -10.400907406755294 7 0 1
456 92 1 0 -2.529829066306588 -2.768250076298874 -9.936819554118138 7 0 1
460 92 3 0 -2.1531064916220117 -2.97735948173064 -9.832784422481394 7 0 1
1734 347 3 0 -7.220628205711636 -2.3533937840535177 -10.108877930469427 -1 -1 0
1733 347 3 0 -6.500464690461709 -2.5679940613650025 -10.066843285818768 -1 -1 0
1731 347 1 0 -6.845183500439493 -2.4200207066203543 -10.351432265112061 -1 -1 0
459 92 3 0 -2.533444037283897 -2.353332227985147 -9.74795388315663 7 0 1
3079 693 4 0 -4.940862102779816 -0.998106389950232 -10.21740359278615 8 0 0
1397 280 3 0 -5.025847551692508 -1.1142936086356698 -9.849528402927195 -1 -1 0
3321 774 4 0 -2.4850254206733133 -1.0707067199133 -9.663560905424193 4 0 0
928 186 3 0 -2.328621383034756 -0.8224031721713416 -9.954771270555257 4 0 0
926 186 1 0 -2.0596470054677276 -0.4807090098860609 -9.787794724223184 4 0 0
929 186 3 0 -2.298871014955118 -0.12886754353541718 -9.697117051861092 4 0 0
930 186 3 0 -1.7506583050984421 -0.38905203734824667 -10.089837386562722 4 0 0
124 25 3 0 -7.037440894463907 -10.41788750298883 -8.793605624364996 -4 -1 1
3717 906 4 0 -5.650999420294115 -10.016173591487595 -9.538568776311164 10 1 1
2618 540 2 0 -8.934501535514276 -9.172679349841284 -9.089752506097359 4 0 0
2619 540 4 0 -9.258865787386021 -9.335213777906914 -8.83260687868969 4 0 0
2620 540 4 0 -8.626235735107157 -9.001314652730843 -9.346747400532102 4 0 0
1744 349 3 0 -5.029723632400553 -8.804230130064983 -9.493544002425288 1 -1 0
1743 349 3 0 -4.303715596832474 -8.636546695802599 -9.494626270067437 1 -1 0
279 56 3 0 -1.9704211030023195 -8.499323588500555 -8.77363618676609 0 -1 -1
105 21 3 0 -0.977492730086496 -5.4505458653293255 -9.287229242277558 5 0 1
101 21 1 0 -0.7166461432246365 -5.593363471313511 -8.989385953969744 5 0 1
104 21 3 0 -0.31977110486653615 -5.357386661250984 -8.991745856770697 5 0 1
102 21 3 0 -0.6142048499921415 -6.063658284134083 -9.077282936242591 5 0 1
3304 768 4 0 -0.17434799981921145 -5.063009030866902 -9.217530018169455 5 0 0
3038 680 2 0 -6.290476349011735 -4.068288523040782 -8.832341250971352 5 0 0
3040 680 4 0 -6.524400334850551 -3.7966928173818966 -9.087210859463612 5 0 0
3144 715 4 0 -6.5782588332195076 -3.5800224764837107 -9.405113783877008 4 0 1
3322 774 4 0 -2.6443343859149113 -1.9752757727930828 -9.602505565203987 4 0 0
1398 280 3 0 -5.318331942386533 -1.1946889682468314 -9.173666368310323 -1 -1 0
2506 502 4 0 -5.643358125829785 -1.3280143644500502 -9.027623278111134 7 0 1
2504 502 2 0 -5.864462992746344 -0.9776516689834533 -8.857494887327112 7 0 1
1399 280 3 0 -4.86629449493669 -1.7237278515139725 -9.451345265835373 -1 -1 0
1396 280 1 0 -4.951451466612975 -1.2779902869551591 -9.433302383617661 -1 -1 0
1400 280 3 0 -4.598168989962081 -1.0716101868507035 -9.255455662054855 -1 -1 0
3320 774 2 0 -2.572547370690474 -1.5280976002863724 -9.633655491842898 4 0 0
2596 532 4 0 -4.281715364418774 -0.8262767643791964 -9.278419944404389 9 0 0
2594 532 2 0 -4.026177987139834 -0.4664344451343485 -9.37768233242971 9 0 0
2595 532 4 0 -3.7932925395439128 -0.15223981236285944 -9.468204693710627 9 0 0
914 183 3 0 -3.0561107522661892 -0.19003779678816457 -9.30797965534225 6 0 0
927 186 3 0 -1.8659349795053082 -0.6116787780924042 -9.424494925864426 4 0 0
1401 281 1 0 -9.25957249130137 -9.840103394032724 -8.236998310009357 12 1 2
1402 281 3 0 -9.24469036848046 -10.273043255787162 -8.361165069979577 12 1 2
1403 281 3 0 -8.82288279234056 -9.68876113588666 -8.114022819715082 12 1 2
123 25 3 0 -7.072634455496791 -10.408745303083304 -8.051150252219134 -4 -1 1
122 25 3 0 -6.9918358884395975 -9.778520027163681 -8.417050576229242 -4 -1 1
121 25 1 0 -6.889387770218901 -10.213558551885413 -8.41718720578525 -4 -1 1
125 25 3 0 -6.410874718267942 -10.262781492002976 -8.399586421766497 -4 -1 1
3574 858 4 0 -6.2476323363978485 -10.448206452700397 -8.715519509883416 4 0 2
1404 281 3 0 -9.428340139369386 -9.580707655710329 -8.593030308233875 12 1 2
276 56 1 0 -1.9739886577430887 -8.439481906453997 -8.339537821155206 0 -1 -1
277 56 3 0 -2.2819307878230095 -8.699335354454954 -8.153079364752003 0 -1 -1
280 56 3 0 -2.0657395651478847 -8.003336554271652 -8.260996822435759 0 -1 -1
278 56 3 0 -1.5467129469883485 -8.542799468704713 -8.176675719561919 0 -1 -1
2283 457 3 0 -6.665778221051417 -5.869504679972914 -7.999957145638384 12 1 1
103 21 3 0 -0.9166741007272048 -5.555336375169375 -8.587555275887716 5 0 1
895 179 3 0 -5.97435899735905 -4.626810890477365 -8.32420376497424 12 1 1
891 179 1 0 -5.886193637194062 -4.4970965773262215 -7.918531587592454 12 1 1
3039 680 4 0 -6.044050668998274 -4.339450896532639 -8.56256771688637 5 0 0
893 179 3 0 -5.478571185818736 -4.282821366780072 -7.909404920493755 12 1 1
1942 389 3 0 -8.132606135674799 -2.8564122526090117 -8.110003511541603 14 1 0
2505 502 4 0 -6.075307251585581 -0.6195604383945685 -8.686386864425808 7 0 1
508 102 3 0 -6.092066615166133 -0.31725371229364185 -8.463943012384746 9 0 1
506 102 1 0 -6.111638698167305 -0.0426205038348666 -8.102889711433898 9 0 1
438 88 3 0 -0.07854923896378452 -0.26374713867543065 -7.974267139182056 8 0 0
439 88 3 0 -0.5628165682032549 -0.377555033186713 -8.48301552443436 8 0 0
437 88 3 0 -0.7829732947780901 -0.028655923591644594 -7.899893048523807 8 0 0
436 88 1 0 -0.44322627737637 -0.10259532930999704 -8.192747672825696 8 0 0
1405 281 3 0 -9.542662576191985 -9.798383943255637 -7.877608827124385 12 1 2
3805 935 4 0 -8.811262969772685 -9.743971407989095 -7.7302361725480875 12 1 1
3803 935 2 0 -8.61663800462833 -9.6784178022918 -7.3358436902748 12 1 1
3437 813 2 0 -1.3895084550264798 -8.871325562341985 -7.49819702378796 4 0 1
3438 813 4 0 -1.3269969162074418 -9.187100102144615 -7.194702926575543 4 0 1
3439 813 4 0 -1.4496180998190837 -8.569492341048242 -7.799430513396607 4 0 1
3291 764 4 0 -6.535478083129487 -6.7605184421564735 -7.409473748332269 4 0 0
3290 764 2 0 -6.202476141890638 -6.960924127362382 -7.191605885994125 4 0 0
2282 457 3 0 -6.540046462911633 -6.3619600721063625 -7.50548292890386 12 1 1
1724 345 3 0 -1.0775335957685659 -7.004452767167424 -7.046623362718631 5 0 0
1725 345 3 0 -1.4444626076897844 -6.88447043334883 -7.665659951004125 5 0 0
1721 345 1 0 -1.3267760357714184 -6.7069546023901 -7.285954059355192 5 0 0
1722 345 3 0 -1.7046887622169873 -6.597657785341362 -7.043817446459595 5 0 0
1723 345 3 0 -1.0695442068905887 -6.337553710208285 -7.380474763110954 5 0 0
2284 457 3 0 -7.0117875695462715 -5.855504858598098 -7.347605893990689 12 1 1
3819 940 4 0 -7.304482211982707 -5.917322070868691 -7.091833116307412 11 1 1
2281 457 1 0 -6.6238321306640175 -5.960426601695645 -7.561567396560003 12 1 1
2285 457 3 0 -6.270576027242071 -5.710416925003715 -7.395342481697568 12 1 1
2608 536 4 0 -5.884396903747098 -5.596136565630653 -7.349623109829998 4 0 0
2606 536 2 0 -5.580417521034342 -5.3354703606266485 -7.139921875285518 4 0 0
894 179 3 0 -5.870048014579637 -4.858102148708593 -7.637085964010812 12 1 1
3971 991 2 0 -8.690074982218146 -3.7507553947319705 -7.195825148349537 14 1 1
2708 570 2 0 -6.886110845211398 -3.618397621290703 -7.751990040310919 4 0 1
892 179 3 0 -6.232646282188836 -4.198772355424237 -7.76988735772407 12 1 1
2710 570 4 0 -6.54555084882433 -3.934588767292232 -7.783677717381222 4 0 1
1933 387 3 0 -3.726951893093786 -3.714868306849908 -7.110842503306143 12 1 0
1934 387 3 0 -3.4447950317443814 -3.701890272172979 -7.827786157788687 12 1 0
1931 387 1 0 -3.343864121601947 -3.6568994063970326 -7.351109700263672 12 1 0
1935 387 3 0 -3.048699065099462 -3.9616365063538312 -7.226732276668629 12 1 0
3522 841 4 0 -2.692626685183334 -4.029626323887008 -7.029299324529984 11 0 0
3972 991 4 0 -8.364303474474355 -3.4884061790212435 -7.430077357967667 14 1 1
1945 389 3 0 -8.058258617939222 -3.3039057780900203 -7.5501996648114 14 1 0
1941 389 1 0 -7.889923865272304 -2.95514268118933 -7.749682480418229 14 1 0
2709 570 4 0 -7.211327338969308 -3.3165108146631717 -7.715111178370324 4 0 1
1943 389 3 0 -7.462200581020673 -3.0407387253172846 -7.864819215966518 14 1 0
1932 387 3 0 -3.168351953855205 -3.240070026937312 -7.267830725505264 12 1 0
1944 389 3 0 -7.8977210453894 -2.6033401008312786 -7.466629561524841 14 1 0
3153 718 4 0 -8.074542510817817 -2.2850447937617755 -7.55784125468448 11 0 1
3152 718 2 0 -8.356358968240382 -1.9913046861428931 -7.408280941569876 11 0 1
188 38 3 0 -1.5942942505147926 -1.9127777328251536 -7.862944975690371 2 -1 1
190 38 3 0 -1.1749253332172653 -2.0572182543420308 -7.298701515452604 2 -1 1
186 38 1 0 -1.4646736270544238 -1.7710892427207359 -7.470070493733707 2 -1 1
670 134 3 0 -9.654907059032388 -1.3314851901072284 -7.4048338288865905 10 0 0
666 134 1 0 -9.229558781700964 -1.240559343522639 -7.39659813156187 10 0 0
669 134 3 0 -9.018162915341154 -1.538015550460651 -7.133452629068782 10 0 0
668 134 3 0 -9.072808456599075 -1.260766341243377 -7.803623909546948 10 0 0
3154 718 4 0 -8.657540921860202 -1.6974295792802945 -7.246505662941978 11 0 1
187 38 3 0 -1.8394417727508667 -1.7355300128678852 -7.180513052743592 2 -1 1
189 38 3 0 -1.2594832261329802 -1.327459290885967 -7.515061310441973 2 -1 1
3570 857 4 0 -1.4818418860762943 -1.0191237517084524 -7.384630635565079 1 -1 1
667 134 3 0 -9.169481482907615 -0.817503498896361 -7.23044607427454 10 0 0
2698 566 4 0 -9.19817852693278 -0.43495154805390257 -7.153440751249458 8 0 1
3543 848 4 0 -6.257639266609189 -0.4057186326575959 -7.382286594959558 6 0 0
3542 848 2 0 -6.604254523483238 -0.2921977509229823 -7.1054964821254964 6 0 0
507 102 3 0 -6.033404833778787 -0.2854787728557806 -7.706013070681047 9 0 1
3571 857 4 0 -1.0220446260518674 -0.35486680087444 -7.824343578066465 1 -1 1
3569 857 2 0 -1.2562748587412411 -0.692914919042682 -7.600790550997555 1 -1 1
3985 995 4 0 -0.06283444961545115 -0.04737883506127005 -7.627320545687455 3 -1 0
1238 248 3 0 -3.7726502497706234 -9.776710482785452 -6.651305861543326 12 1 1
1239 248 3 0 -4.053596712971601 -10.419993224189922 -6.5687895713471 12 1 1
1236 248 1 0 -3.761610689451987 -10.124182944000868 -6.411204640075798 12 1 1
1237 248 3 0 -3.318559548027795 -10.319831550577085 -6.436421416751006 12 1 1
3804 935 4 0 -8.403883355018907 -9.616424917629281 -6.919479760679717 12 1 1
1079 216 3 0 -8.526677495811859 -9.24879978581799 -6.789288972199375 11 1 2
1076 216 1 0 -8.495544745201668 -9.110235923304051 -6.396336585399631 11 1 2
1077 216 3 0 -8.05915331288303 -9.142436864295524 -6.260239662050284 11 1 2
328 66 3 0 -4.026164159090098 -9.144324910456685 -6.4087533232141185 6 0 -1
1445 289 3 0 -1.9248810020798857 -8.764059860770475 -6.439539287964154 7 0 -1
1443 289 3 0 -1.4621205984332182 -9.201491913589873 -6.831603398696669 7 0 -1
1441 289 1 0 -1.534421397295091 -8.987056625990807 -6.421681669244036 7 0 -1
1078 216 3 0 -8.633526592547156 -8.672683650075538 -6.3761165706968335 11 1 2
2646 549 4 0 -8.613430923918068 -8.309431437203868 -6.203788651969557 6 0 0
3555 852 4 0 -4.566064641684089 -8.551350027035525 -6.411159286518967 6 0 1
3554 852 2 0 -4.891171136855746 -8.23741455209334 -6.4822666358506185 6 0 1
3556 852 4 0 -5.229126392036739 -7.917091993619599 -6.563278963320274 6 0 1
326 66 1 0 -3.9031461963745206 -8.743478485068193 -6.253292603595378 6 0 -1
329 66 3 0 -4.189361609669473 -8.418113162978631 -6.433634035956672 6 0 -1
330 66 3 0 -3.4848002993018277 -8.66350761603186 -6.372340053230527 6 0 -1
3789 930 4 0 -3.1280332538827436 -8.595816836561484 -6.216150335870369 6 0 0
3788 930 2 0 -2.690606907738177 -8.56746040825918 -6.259112013501758 6 0 0
3790 930 4 0 -2.220325765523949 -8.547604678286486 -6.306170032329134 6 0 0
1442 289 3 0 -1.1780388882285298 -8.67238388339358 -6.33498977724138 7 0 -1
3292 764 4 0 -5.864264318702768 -7.154919661241025 -6.971194790676536 4 0 0
1146 230 1 0 -5.492673467505959 -7.207676532161404 -6.409436563769985 13 1 1
1150 230 3 0 -5.375241959927847 -7.577878681725677 -6.657891166380436 13 1 1
1147 230 3 0 -5.781028361699554 -6.956709290650934 -6.644541201576891 13 1 1
1148 230 3 0 -5.115139424325658 -6.954884643513237 -6.2962826437879835 13 1 1
3853 951 4 0 -4.766420107774655 -6.748304194988973 -6.191665517645998 6 0 0
3818 940 2 0 -7.527245907517592 -5.612069836408844 -6.833967539887864 11 1 1
3820 940 4 0 -7.751846706860185 -5.2764290176211075 -6.565366262061548 11 1 1
1822 365 3 0 -4.953318261757539 -5.511006523084214 -6.146987125980932 4 0 0
82 17 3 0 -9.435503653086592 -4.474049698366343 -6.379478511976571 4 -1 0
1675 335 3 0 -8.062108943548163 -5.118441849789529 -6.3405796334775015 -3 -1 0
1674 335 3 0 -7.852060602401564 -4.42805040394472 -6.285764156344938 -3 -1 0
2607 536 4 0 -5.303132057292582 -5.0911763933868 -6.9441666544247305 4 0 0
1821 365 1 0 -4.87135068464666 -5.089419070740525 -6.3159398830609295 4 0 0
1823 365 3 0 -5.2347658032793305 -4.9382870587970995 -6.565218749522344 4 0 0
1825 365 3 0 -4.507069859425391 -5.11433029689797 -6.605283194591063 4 0 0
85 17 3 0 -9.740929262850761 -3.8250375593317987 -6.4415474091285025 4 -1 0
81 17 1 0 -9.373418066394242 -4.034098969149805 -6.322617929544182 4 -1 0
84 17 3 0 -9.030674106016875 -3.901433048234635 -6.571818957740233 4 -1 0
3973 991 4 0 -9.011872146211083 -4.007234904761112 -6.957863811770675 14 1 1
3521 841 2 0 -2.4962213020205084 -3.8488018114058145 -6.680064413437239 11 0 0
3523 841 4 0 -2.306011376272732 -3.655635262557806 -6.319714933643603 11 0 0
302 61 3 0 -1.4629091850360432 -2.044396707697274 -6.161369970850713 7 0 0
304 61 3 0 -1.2358150196158686 -1.3559953073671647 -6.330277727036149 7 0 0
2696 566 2 0 -9.16472446666933 -0.3433929054857696 -6.7206171170624955 8 0 1
2697 566 4 0 -9.123315623274884 -0.2382692913066755 -6.273384625696453 8 0 1
427 86 3 0 -7.981315173932099 -0.04899573572792981 -6.739748148286732 1 -1 0
428 86 3 0 -7.286974080881426 -0.11658331554919954 -6.656390669187939 1 -1 0
3544 848 4 0 -6.948788637128278 -0.18422211148264722 -6.838672621652828 6 0 0
3724 908 4 0 -9.077890828471238 -10.515570039356223 -5.494260851256038 13 1 0
1240 248 3 0 -3.871235968291386 -10.01477191050571 -5.965358894475256 12 1 1
1080 216 3 0 -8.777001332331853 -9.387285979803302 -6.106330967347188 11 1 2
3930 977 4 0 -1.5582719527123956 -9.407799578625912 -5.677954187205953 5 0 0
1444 289 3 0 -1.5552554070621643 -9.307603271564155 -6.088783548968063 7 0 -1
3929 977 2 0 -1.6063087874295139 -9.273538114052737 -5.261727486033885 5 0 0
1339 268 3 0 -9.97375782519166 -8.218441516622006 -5.563274359330602 5 0 0
1336 268 1 0 -10.34617189744922 -8.255218862578339 -5.369897892192975 5 0 0
2645 549 2 0 -8.516100106530335 -8.230195662791505 -5.778354889157649 6 0 0
2647 549 4 0 -8.412278743740437 -8.160959415076599 -5.378951269182978 6 0 0
327 66 3 0 -3.9240626045665934 -8.743984909058272 -5.815359361107517 6 0 -1
2099 420 3 0 -8.14869190020935 -7.863924743115166 -5.391723242575483 13 1 1
2100 420 3 0 -7.7548407545224105 -7.232009013845715 -5.555133937591382 13 1 1
1149 230 3 0 -5.684159796000904 -7.340671494641436 -6.0387549204974755 13 1 1
3207 736 4 0 -5.903119980697767 -7.523633027301438 -5.758144956061093 4 0 1
3206 736 2 0 -5.841635510957782 -7.45177554067117 -5.323179310594157 4 0 1
3851 951 2 0 -4.789244585829254 -6.294784027524247 -6.109125028397182 6 0 0
567 114 3 0 -9.354611005735258 -6.041588658304235 -5.804948738130222 -1 -1 2
566 114 1 0 -9.436558032419661 -5.887486879075687 -5.364380934173701 -1 -1 2
568 114 3 0 -9.459364122755552 -5.419695932297357 -5.369294218872794 -1 -1 2
3852 951 4 0 -4.818107006970583 -5.848366012245535 -6.033890307822082 6 0 0
3989 997 2 0 -8.909033151605048 -4.846302881608651 -5.433253260535327 10 0 0
3991 997 4 0 -9.310297816634527 -5.051185519465325 -5.352907929005646 10 0 0
1673 335 3 0 -8.376497884138619 -4.667963953098616 -5.849289184595482 -3 -1 0
3990 997 4 0 -8.537111426627435 -4.655085664457608 -5.504420838874555 10 0 0
1671 335 1 0 -7.99667690021837 -4.772955888715496 -6.053957643552733 -3 -1 0
1672 335 3 0 -7.678969491765183 -4.895854792783396 -5.745435177231771 -3 -1 0
2520 507 4 0 -7.358499687344415 -4.63315199316052 -5.732625724585767 5 0 0
2519 507 2 0 -6.915653227664597 -4.620401705679787 -5.584375528821739 5 0 0
2521 507 4 0 -6.476639746288079 -4.605312106187545 -5.433562335189449 5 0 0
1824 365 3 0 -4.778199246261472 -4.8087065755781815 -5.98247447721649 4 0 0
2961 654 4 0 -4.807278247313595 -4.465899083115024 -5.791320355640038 6 0 1
2960 654 2 0 -5.1492863798009 -4.43101710228967 -5.423375362001379 6 0 1
2660 554 2 0 -9.680712241389786 -3.862462014250145 -5.261356054893817 6 0 1
2661 554 4 0 -9.596852118327234 -3.8500065768330547 -5.683091161111121 6 0 1
83 17 3 0 -9.274127092301864 -3.948510688935479 -5.880045900269577 4 -1 0
2085 417 3 0 -2.9969479031558484 -3.6127895802696184 -5.471744316812755 6 0 0
1019 204 3 0 -9.127791939823046 -2.6944226930520996 -5.371077398783316 8 0 1
1882 377 3 0 -5.237189244151324 -2.8508539542773654 -5.5091202320493435 11 0 -1
2677 559 4 0 -3.541494333031091 -3.190816197208097 -6.046894786880046 2 -1 1
2675 559 2 0 -3.8989871540168037 -3.002296098182418 -5.871184642225441 2 -1 1
2676 559 4 0 -4.2606973983098655 -2.814088308062943 -5.671753902582347 2 -1 1
2084 417 3 0 -3.135831702145408 -3.1310683075915495 -6.0477054540978 6 0 0
2081 417 1 0 -2.804283045175625 -3.302137928016233 -5.752360658221066 6 0 0
2082 417 3 0 -2.4852205917278365 -3.504436939754168 -5.9914064503521045 6 0 0
2083 417 3 0 -2.6234109263564607 -2.9719052171978504 -5.506680865584404 6 0 0
3784 928 4 0 -2.357442557427431 -2.695194004934164 -5.566202429415546 8 0 0
1885 377 3 0 -5.248777230763249 -2.3305756524862513 -6.0364624970172684 11 0 -1
1884 377 3 0 -4.594063895273334 -2.6069555752285645 -5.8095426122800005 11 0 -1
1883 377 3 0 -4.985544080853373 -2.1624547412385375 -5.372989443725313 11 0 -1
1881 377 1 0 -5.0206959778480496 -2.486692570411959 -5.685304677119319 11 0 -1
3782 928 2 0 -2.0103476582388122 -2.5009202503664856 -5.7516856371423755 8 0 0
3783 928 4 0 -1.6508165702916813 -2.303883822901863 -5.947366277596111 8 0 0
303 61 3 0 -0.8368939899619736 -1.7912645056667227 -5.887816260281741 7 0 0
2772 591 4 0 -0.4740248180216007 -1.7826469182963915 -5.7572605480131225 3 -1 1
3370 790 4 0 -9.38592189942523 -1.024071401430776 -5.3602753333229485 -1 -1 0
301 61 1 0 -1.2548452204988312 -1.6742576142013181 -6.004747012493617 7 0 0
305 61 3 0 -1.4892372380643355 -1.510456294929769 -5.6498712872343235 7 0 0
2771 591 2 0 -0.18663563001107697 -1.4202244325703663 -5.724151061808748 3 -1 1
882 177 3 0 -9.752471562907067 -0.06970611226290657 -5.7042254635805305 5 -1 0
884 177 3 0 -9.30969144421128 -0.5371371349911929 -6.044682516692719 5 -1 0
881 177 1 0 -9.424500297054978 -0.36662376658223117 -5.638288326624986 5 -1 0
883 177 3 0 -9.56865270169575 -0.6846430257461176 -5.380386580252754 5 -1 0
885 177 3 0 -9.026089198776841 -0.15151072251926045 -5.436712247540143 5 -1 0
978 196 3 0 -0.10850813830148454 -0.06057772477509005 -5.887124867744634 9 0 1
1173 235 3 0 -9.473077976410666 -10.374516736044487 -4.730006371457095 12 1 1
787 158 3 0 -2.6322090487905205 -8.995138495371025 -4.685235005217924 10 1 0
790 158 3 0 -1.9194387632205903 -8.838909702569145 -4.754717943581471 10 1 0
3931 977 4 0 -1.6496481553981237 -9.119767126177642 -4.837167005411439 5 0 0
3730 910 4 0 -10.353454235358049 -8.158088685290538 -4.649089251091352 5 0 0
1340 268 3 0 -10.285690825292832 -8.414912869836956 -4.9557526818606625 5 0 0
786 158 1 0 -2.294845833712138 -8.702436226278811 -4.564447810030009 10 1 0
3471 824 4 0 -2.5324651381739534 -7.92258652027788 -4.628208493334493 6 0 0
788 158 3 0 -2.391850270126046 -8.284883868980703 -4.708583638407858 10 1 0
2097 420 3 0 -8.293590376832515 -7.208910690582845 -5.081170990046647 13 1 1
2096 420 1 0 -7.9734233353489685 -7.448523446135068 -5.222820108349893 13 1 1
2098 420 3 0 -7.69232514928539 -7.528421660890055 -4.894317505186309 13 1 1
2355 471 3 0 -5.684940435785837 -7.497038772130411 -4.511375246960587 10 0 -1
3208 736 4 0 -5.776694830560825 -7.3845573593272675 -4.887838962544929 4 0 1
3470 824 2 0 -2.9846469698517835 -7.827829117477593 -4.558307834701617 6 0 0
3472 824 4 0 -3.4444879859249236 -7.72832238045908 -4.4833563404434935 6 0 0
3328 776 4 0 -10.024799167026528 -6.802921452031068 -4.412166114094332 12 1 1
3326 776 2 0 -10.052951055210563 -6.594899642877124 -4.832226691167129 12 1 1
3327 776 4 0 -10.085517162288612 -6.373413705930984 -5.255278780127433 12 1 1
3885 962 4 0 -9.054613521199494 -6.200402044390536 -4.756814880574913 11 1 0
3884 962 2 0 -8.791864348367469 -6.5633518816879715 -4.813172471064521 11 1 0
3886 962 4 0 -8.518605234686362 -6.941948504672955 -4.875328066053444 11 1 0
569 114 3 0 -9.84936940977531 -6.056868827325183 -5.208360587436902 -1 -1 2
570 114 3 0 -9.112298755317873 -6.023116596730377 -5.089797478660662 -1 -1 2
117 24 3 0 -6.288380166240003 -4.689516361246023 -5.056917122839693 7 0 0
116 24 1 0 -6.033535000811828 -4.509769065954016 -4.721760711099238 7 0 0
120 24 3 0 -5.816374572525644 -4.828191784539773 -4.5135974497505815 7 0 0
2962 654 4 0 -5.449457207746204 -4.398887161623827 -5.079748717679433 6 0 1
870 174 3 0 -10.096285118658232 -3.8919654831702957 -4.551693271855108 0 -1 0
2662 554 4 0 -9.768646408249397 -3.868167854064909 -4.814550958292369 6 0 1
119 24 3 0 -6.2959590701730646 -4.304395824991264 -4.433407965892089 7 0 0
118 24 3 0 -5.74759426735102 -4.223176178012308 -4.897984256522848 7 0 0
3026 676 2 0 -3.1578949693547305 -3.7211306230920425 -4.7515441075184075 10 0 -1
3028 676 4 0 -2.874622277609477 -3.780647701300661 -5.130947717469892 10 0 -1
1018 204 3 0 -9.026410782290517 -2.681844363963193 -4.666060044089615 8 0 1
1303 261 3 0 -7.916394529444403 -3.457927933288861 -4.790379531634481 6 0 0
1301 261 1 0 -7.937138726087858 -3.3007138060042163 -4.394507630651091 6 0 0
1304 261 3 0 -7.912635320507821 -2.8928102721653524 -4.412443530557087 6 0 0
2612 538 2 0 -10.206154862726033 -2.2518188110032487 -4.636316304249293 8 0 -1
2613 538 4 0 -9.800668722505215 -2.1141025189966616 -4.665305296159776 8 0 -1
1020 204 3 0 -8.923594773895323 -2.0639090411669034 -5.050376276450689 8 0 1
1017 204 3 0 -9.616618633472912 -2.335917275379904 -4.942414852250445 8 0 1
1016 204 1 0 -9.171845775916987 -2.451871263583236 -5.002467135191084 8 0 1
3369 790 4 0 -9.15434994392342 -1.7768599270126852 -4.9300527195877875 -1 -1 0
2719 573 4 0 -5.103368503479168 -1.9367378592092308 -5.039220617731895 7 0 1
1343 269 3 0 -2.3879539915613943 -2.5815907564230978 -4.614233694253661 4 -1 1
1345 269 3 0 -2.0749510893243848 -1.9357056251767872 -4.739627526635005 4 -1 1
1341 269 1 0 -2.234877050529388 -2.220558849812191 -4.43030686425813 4 -1 1
3368 790 2 0 -9.267296864553895 -1.4087251024855192 -5.1392603161153305 -1 -1 0
2717 573 2 0 -5.004930802532556 -1.5131827989715543 -4.97554288551219 7 0 1
2718 573 4 0 -4.900662660401143 -1.08919829990967 -4.894621396050521 7 0 1
215 43 3 0 -4.563568810361475 -1.0126954887840416 -4.610182807770675 13 1 1
3780 927 4 0 -2.167384819105541 -1.5977781118822616 -4.901072148805033 11 0 0
3779 927 2 0 -1.9385361289928245 -1.2258111490921966 -4.816514887389526 11 0 0
212 43 3 0 -3.932439457824162 -0.7370845562043602 -4.402680323760078 13 1 1
3781 927 4 0 -1.7067653964902352 -0.8455518813772827 -4.721001695925471 11 0 0
192 39 3 0 -1.4449568841374099 -0.6017312466443521 -4.5953006357017605 -5 -2 -1
191 39 1 0 -1.254410878384416 -0.20824378438725688 -4.659066979850434 -5 -2 -1
195 39 3 0 -1.0267804825334075 -0.21465418431508 -5.040171172291928 -5 -2 -1
3566 856 2 0 -5.989552231054284 -8.80146551071763 -3.844081243718115 11 1 0
3728 910 2 0 -10.333336682369625 -7.937125550520131 -4.280936908750964 5 0 0
2354 471 3 0 -5.820990659542899 -8.188141569984532 -4.346886382919887 10 0 -1
3568 856 4 0 -5.96858557211748 -8.533107367834626 -4.2112993869384505 11 1 0
96 20 1 0 -3.9252002665154775 -8.071637409843266 -3.833697459270316 11 1 -1
98 20 3 0 -4.0326772867646445 -8.479173744235322 -3.9718650448428914 11 1 -1
789 158 3 0 -2.241153243364929 -8.709699533362762 -4.093341829791992 10 1 0
3729 910 4 0 -10.307535642270983 -7.710922682457729 -3.90184872573995 5 0 0
1605 321 3 0 -10.208084957744889 -7.376777362227291 -3.7210191662661867 2 -1 1
1601 321 1 0 -9.860158547361783 -7.103401787391843 -3.7276322225090652 2 -1 1
1602 321 3 0 -9.477397541246468 -7.332553968172865 -3.8455054411379894 2 -1 1
2352 471 3 0 -6.304239077650443 -7.657736429657348 -4.177624781429114 10 0 -1
2351 471 1 0 -5.862531453368681 -7.756511573693788 -4.219592570540723 10 0 -1
2353 471 3 0 -5.645697556835779 -7.695190249381507 -3.8008150732443386 10 0 -1
2581 527 4 0 -5.338177951566503 -7.4798429896353325 -3.728827679801113 12 1 0
2579 527 2 0 -4.969170338140999 -7.725751125037243 -3.583288773232576 12 1 0
99 20 3 0 -4.310085298299135 -7.853964759584163 -3.715444636355649 11 1 -1
100 20 3 0 -3.708978379021011 -7.8489442096743165 -4.176028411945148 11 1 -1
1604 321 3 0 -9.939277464188775 -6.77639113160874 -4.015848941421234 2 -1 1
3538 846 4 0 -10.001256602680336 -4.694101380808083 -3.752924540953053 5 0 1
869 174 3 0 -10.106665139713472 -4.4405356578737845 -4.034366134786362 0 -1 0
3536 846 2 0 -10.330174911406022 -4.964151413661928 -3.619184651112409 5 0 1
1440 288 3 0 -3.5123607646374486 -4.498591550746473 -3.6299374394649675 10 0 -1
866 174 1 0 -10.025814191336814 -4.009056140506052 -4.101044329828217 0 -1 0
867 174 3 0 -10.314770829816817 -3.7649146467025316 -3.841345644899868 0 -1 0
868 174 3 0 -9.590526523149244 -3.9162182194279227 -3.9879375926366487 0 -1 0
3266 756 2 0 -8.968027577893128 -3.6174232448924393 -4.2279799441482195 6 0 0
3268 756 4 0 -9.219837051846506 -3.9720494533901203 -4.172537080866098 6 0 0
3520 840 4 0 -7.362757302693451 -3.7529014964098995 -4.254830705902308 4 0 0
3519 840 4 0 -6.575023114268703 -4.119822312983815 -4.246609117710513 4 0 0
3518 840 2 0 -6.965829647174136 -3.939992716852676 -4.256072659087792 4 0 0
1439 288 3 0 -3.528031528477018 -3.9939735578844076 -4.164946027201791 10 0 -1
3027 676 4 0 -3.440226082105548 -3.6658615164139086 -4.370839062642891 10 0 -1
1436 288 1 0 -3.4537576874147593 -4.0691528014576255 -3.7282429584729577 10 0 -1
1437 288 3 0 -3.019875513228823 -3.936331553656373 -3.623070725419975 10 0 -1
1302 261 3 0 -8.320662822575729 -3.4110421250680094 -4.2148751575572865 6 0 0
3267 756 4 0 -8.700824324940701 -3.264352116043656 -4.280729605597351 6 0 0
1305 261 3 0 -7.606157182997938 -3.4602375309886018 -4.1540521944323325 6 0 0
1344 269 3 0 -2.5803471814333694 -2.0078015195845644 -4.192067330550981 4 -1 1
1342 269 3 0 -1.9144664100439268 -2.328481446355516 -4.152777637910772 4 -1 1
2611 537 4 0 -1.538503813091216 -2.2892576096136636 -3.991595308153566 9 0 0
2609 537 2 0 -1.2059424860864318 -2.288079140979036 -3.7023692228408933 9 0 0
214 43 3 0 -4.430771054244461 -0.8895334984663172 -3.8792467939009594 13 1 1
211 43 1 0 -4.251978870327918 -1.0179117898094656 -4.286221478130732 13 1 1
213 43 3 0 -4.0923601993390415 -1.4238031828942805 -4.251924261618576 13 1 1
194 39 3 0 -0.9920234924994968 -0.11703526120515484 -4.324998626977696 -5 -2 -1