LAMMPS data file via write_data, version 19 Nov 2024, timestep = 1000000, units = lj

79 atoms
4 atom types
54 bonds
1 bond types
35 angles
2 angle types

-3.045986 3.045986 xlo xhi
-3.045986 3.045986 ylo yhi
-3.045986 3.045986 zlo zhi

Masses

1 1
2 1
3 0.1
4 0.1

Bond Coeffs # harmonic/omp

1 100 0.45

Angle Coeffs # harmonic/omp

1 100 180
2 100 109.471

Atoms # full

30 9 4 0 -1.461173044692084 -2.310910654361445 -2.870535913815165 0 0 1
64 20 4 0 -1.834296128994101 -2.359612696388573 -3.0039741274354603 0 0 1
31 9 4 0 -0.6842674250353639 -1.8416705520371532 -2.712529763175274 0 0 1
58 18 4 0 -0.4338700244768822 -1.8608119465760142 -3.0310082594722108 0 0 1
29 9 2 0 -1.0595572655193644 -2.067984108370182 -2.790873797086878 0 0 1
65 21 2 0 -2.8330075036646076 -1.0063639358419174 -1.7159734990036666 1 0 1
66 21 4 0 -2.500982649185649 -0.8081523725287012 -1.528604528665109 1 0 1
14 4 2 0 -2.1938372145779077 -0.1491512928905076 -1.1426605009725046 0 -1 1
16 4 4 0 -2.2810436560478298 -0.4804035813362689 -1.485978147444872 0 -1 1
60 19 4 0 -1.2011240271524026 -2.7549501204218863 1.3045427507991136 1 1 0
37 11 4 0 -1.1898445415882182 -2.587094981840152 0.9455564165629472 0 1 0
35 11 2 0 -0.9527521416508873 -2.392297913444227 0.620463771183086 0 1 0
79 25 4 0 -0.38574298366466153 -2.0558645590545277 0.08612151684034088 0 1 0
36 11 4 0 -0.7133889558371534 -2.1913062324718715 0.29953854320529016 0 1 0
22 6 4 0 -3.0067237908865136 -0.16478384336140764 0.9058174822437195 1 0 0
63 20 4 0 -1.7652474046364663 -2.906414112096848 2.3722079291736615 0 0 0
62 20 2 0 -1.7992831629197237 -2.6203158103538473 2.7379752300669673 0 0 0
61 19 4 0 -1.403637335805679 -2.826744537533558 2.1946814550565654 1 1 0
59 19 2 0 -1.2957777255612153 -2.7912705957133954 1.71437281990083 1 1 0
32 10 2 0 -2.1992064110541474 0.4918725117356299 -0.15858317744366485 1 -1 0
33 10 4 0 -2.01144029954291 0.42419179635279675 -0.5475103596343548 1 -1 0
15 4 4 0 -2.1093183681654475 0.16596815363617018 -0.8157456504036527 0 -1 1
74 24 2 0 -0.045653197133236435 1.1948114197510462 -0.09974696166977015 0 1 1
19 5 4 0 -1.126617394830007 0.10476140247479136 -0.16175985361810125 0 0 0
17 5 2 0 -0.9110942313436315 0.4676584804791347 -0.01857698671058317 0 0 0
21 6 4 0 -2.7467623072224585 0.5698720104488859 0.46597922329217667 1 0 0
20 6 2 0 -2.8790414635069785 0.1955074240364913 0.6977387355465698 1 0 0
34 10 4 0 -2.395950898577297 0.5613358938213864 0.2503168786492757 1 -1 0
75 24 4 0 -0.46836778968463416 1.1470326559397666 0.00042628623741457184 0 1 1
18 5 4 0 -0.7027036926925994 0.8372648600705719 0.12550477417010203 0 0 0
55 17 4 0 1.2111624719746943 -1.5577618384508967 -0.1104423131846983 0 0 1
38 12 2 0 0.7871255916993841 -2.795368140355861 -2.864565602783044 0 1 1
56 18 2 0 0.012161083524449015 -1.9790531198752173 -3.044641490209734 0 0 1
13 3 4 0 2.8054594750221984 -0.9776760288041024 -2.2004031125899863 -1 0 0
11 3 2 0 2.436907212804936 -1.0529865787303467 -2.45583554392436 -1 0 0
12 3 4 0 2.0614681284968412 -1.1319040861914822 -2.718128828046395 -1 0 0
67 21 4 0 2.9126741202047617 -1.2069181367347135 -1.895034663429208 0 0 1
24 7 4 0 1.1632583400681105 -0.6595182820019593 -1.0134394968147757 -1 0 0
54 17 4 0 1.0436691144393329 -0.8134430055792242 -0.6568895231917473 0 0 1
23 7 2 0 1.041084154828074 -0.2089975277434622 -0.9361372448373525 -1 0 0
53 17 2 0 1.1244623628145105 -1.179571637780281 -0.38275281184881654 0 0 1
10 2 3 0 1.4877327287652182 -1.7993176710948962 -0.01094943026490426 0 0 0
6 2 1 0 1.3004236843039247 -2.0866963274047134 0.31275557031877077 0 0 0
8 2 3 0 0.8633023604792379 -2.1964033037565924 0.19630911986807978 0 0 0
78 25 4 0 0.4918277931434124 -2.0632920031277493 0.20022895891175824 0 1 0
77 25 2 0 0.020198499238765034 -2.0546370165744987 0.1374503164426381 0 1 0
9 2 3 0 1.29719584776915 -1.8675276323594399 0.7252567402020667 0 0 0
52 16 4 0 1.3485774742307246 -1.9829728350334568 1.1504871115688045 0 0 0
28 8 4 0 1.9289271859154482 -1.0762110054937155 3.007824466279569 -1 0 0
49 15 4 0 1.4768578338246183 -2.7781310846748886 0.600295195890248 0 1 0
7 2 3 0 1.5569045278763116 -2.454569513780084 0.33817109827249997 0 0 0
43 13 4 0 2.91111599680854 -0.4775341214004414 1.085561518295516 0 0 0
41 13 2 0 2.9469996672786536 -0.5082929537359241 1.5195585170857018 0 0 0
57 18 4 0 0.4543648667115301 -2.1004137215333403 3.0315172908976735 0 0 0
50 16 2 0 1.548893441266702 -1.8172714558176166 1.5003925869428 0 0 0
51 16 4 0 1.7450393716421055 -1.6532029330110598 1.859942160206178 0 0 0
27 8 4 0 1.8495428268888345 -1.414395847493812 2.1636050088844585 -1 0 0
42 13 4 0 2.9753723467201993 -0.5455632163764916 1.9602180593360439 0 0 0
26 8 2 0 1.8887942911530688 -1.2496047011700921 2.5701338144841386 -1 0 0
40 12 4 0 0.7332455615431593 -2.396043263260499 3.017228688160862 0 1 0
73 23 4 0 0.4754043255358869 0.9057988380452516 -1.698217865103615 0 0 1
71 23 2 0 0.3271474208716595 1.2125791660877903 -2.0107802548759204 0 0 1
72 23 4 0 0.18012430060637175 1.5210067289541462 -2.325860911099682 0 0 1
68 22 2 0 0.32550467422367846 2.332042501616701 -2.5087194305683913 0 0 1
69 22 4 0 0.19105013517034475 1.9244146838673668 -2.391102345212694 0 0 1
70 22 4 0 0.46815220893268095 2.760294085534663 -2.625187418855431 0 0 1
39 12 4 0 0.8462363284455262 2.8932358684502733 -2.6441991432193124 0 0 1
5 1 3 0 0.6027557255723991 1.0925110149490933 -1.3492664753327865 0 0 1
1 1 1 0 0.7986598677408466 1.0244718775894384 -0.9256629496450222 0 0 1
2 1 3 0 0.4868509549138017 1.1034816985583618 -0.5899132067806396 0 0 1
76 24 4 0 0.3856255283409904 1.2552043367587702 -0.20126089752871337 0 1 1
4 1 3 0 0.9531360391446375 0.6089078355603319 -0.8946763008392165 0 0 1
25 7 4 0 0.9349578439035366 0.2131972940302623 -0.8652379711788405 -1 0 0
3 1 3 0 1.127745832685791 1.2978514621896982 -0.8726534319457093 0 0 1
46 14 4 0 0.9868433012330877 1.5682021793611354 -0.63928349054741 0 0 1
44 14 2 0 0.9764044074473966 1.9206868485331823 -0.33093317181165455 0 0 1
45 14 4 0 0.9718578551126098 2.2728869040500754 -0.036916139340389204 0 0 1
47 15 2 0 1.300840681414664 2.9167675562049835 0.4099111541616842 0 0 0
48 15 4 0 1.1439590602794183 2.5486185917531885 0.2311200826329632 0 0 0

Velocities

30 0.417085456651799 -0.6238093702959212 0.3491122447510937
64 0.8279461361579941 -0.7359261421548046 -1.0055869947729725
31 0.6618032492404976 -0.13846443544420847 0.11880258886253645
58 0.15452529440631613 -0.6619471902705895 0.5540902500827012
29 0.41825051420159287 0.36306223570434326 -0.08182363939651185
65 -0.05861998448151976 0.09857737123683423 -0.10037579674215677
66 -1.382833156437949 0.21171268661136688 0.22498312244078816
14 0.0772519288678443 0.010371345072537775 -0.21714838652355914
16 0.49317187161471876 0.9814792522665987 -0.9581055878372152
60 -0.35424129885030375 -0.22234413909620027 -0.3674639881413295
37 0.41264625785316517 -0.7481856478326354 -0.05476873397281585
35 -0.11729582849556687 0.07742475617051517 0.15349094766640925
79 -0.7886610099541238 -1.2609460541787 0.33218350648103956
36 0.2508629084595841 1.0022504478479586 -0.9777344932951896
22 -0.33486341683171156 0.6109345052732265 0.1830033532096352
63 0.5288136449678997 -0.2646613157642873 -0.8000575038596487
62 0.016332303333168922 0.09954428600113947 0.16700404149890788
61 0.21808342634577507 0.2111593682706971 -0.5557620829118183
59 0.3135943183060385 -0.49320591200894875 0.40488813541956126
32 0.3204421920902539 -0.3087543528979218 0.1438006214708563
33 0.058083436137365024 -0.6193880081783955 0.6166242414205682
15 -0.134823810092624 0.4008182683476463 -0.65576404718318
74 -0.30594459112466493 -0.31557699261036753 0.0837949061142042
19 -1.420812052380416 0.09017886991838193 -0.13420869662888557
17 -0.14806698794747963 0.21998125405680477 -0.04116141885309495
21 0.7177099679222085 0.3121439104047235 -0.20547788213169216
20 -0.02409626712118635 0.00437761794901057 -0.40700810518421715
34 -1.1204011241590182 -0.023477687377403578 0.5690620493739731
75 -0.05733118999871068 -0.736155804113259 -1.8529199732284691
18 -0.5860245649597039 -0.7665548078306632 0.7341873053244612
55 0.4463768555574315 -1.0091878043656761 -1.093285474001331
38 0.3807668508973971 0.16280073509565884 -0.06159431182025384
56 -0.131925813340911 -0.22318592165681786 -0.13763056259082943
13 -0.4576871177577238 -0.3901533342348107 1.3838392735615284
11 0.26714397056976935 -0.3390300945763272 0.22425349055611288
12 -0.18991297147309125 0.7466952790280769 -0.3131376550208951
67 -0.4899772274002348 -0.4622844027928066 -0.0418305307119666
24 -0.23951062853982705 -0.19997624343937584 -0.3753578766018898
54 -0.025966738521414744 0.8881149864196607 0.928611403051754
23 -0.15052273597325286 -0.03706542786743732 0.03870204875038736
53 0.15009916718685842 -0.01317951276338659 0.29222768103669
10 -0.8391411368841969 -0.13802177743926142 1.0891369546006449
6 0.32436524455089794 0.03173884711702647 -0.052686096106808994
8 -0.7901945718026687 0.10475259956641723 -0.20554310185983848
78 0.4856757847736643 0.6148620066082917 0.413323844356939
77 0.07049418999114992 0.25999665088588564 -0.2667505957619857
9 0.4759677440007856 -0.5621477358137055 -1.0906774719955925
52 -0.42651240219719433 -1.0654352913262986 -1.7753597368661718
28 1.274247911308792 -0.45822587690465383 0.12406471357839519
49 -0.2513706059755279 -1.1570888411840248 2.339630414079639
7 -0.5460719009876275 0.3346680454497271 -0.16542625397342764
43 0.648577732301417 -0.8384373337439505 1.521493115995449
41 0.3461647710053885 0.5009512673913596 -0.1987150556760898
57 0.6239492683153123 -0.4994621090354609 -0.31053732217338875
50 0.24189189765798472 0.2788307526597223 0.09189905461351396
51 -1.8245151511850592 -0.41602219927471534 -1.0647757553053325
27 -0.5583671881028013 0.8460961693788159 -0.07553986812526652
42 1.467328624374211 0.2638413334440234 -1.008207031397098
26 0.15237244732164576 0.04041637658991491 0.19835383702150206
40 -0.09563191925874065 -0.4176916296135536 -0.43906323931132124
73 0.20462106403270663 -0.08975255645203228 0.5718071978472152
71 0.10257481853616442 -0.2429120623976711 -0.15788415622094507
72 -0.8168302973235428 0.24220779959644506 1.8473576219554073
68 0.18150984544087526 0.02780784033628504 -0.22461649641268333
69 0.6765066758150258 0.5441802668120452 0.0015909633910334703
70 0.08524735689662358 0.8287790904728589 1.2006864906455263
39 0.7468936877348545 -0.5451716820946075 0.014902603904795766
5 0.11641262102199189 -1.2204165104526268 0.4054640817530903
1 -0.0019143896239604006 0.0034638229909368674 0.28729279153703274
2 -0.27524785962095216 -0.1525493421051411 0.3908640255884726
76 0.4291351212831905 0.8529434578137903 0.2635562774527994
4 0.12956590596531922 0.9907636517040674 -0.4276638853412521
25 -0.24057971487427268 -0.008251556853657235 0.42278632804081445
3 0.10395597840533413 0.16791282960975626 -0.7523322127706006
46 0.5557177585709329 1.2657910726279311 0.5616364605943465
44 -0.6175327202231586 0.29389093140419836 0.04481704258183765
45 0.3755948620729875 -0.34101525970007945 0.0019090334959222521
47 -0.2528387164974091 0.09514446297423597 0.28831465061531386
48 0.06859039982489122 -0.36516041082941125 -0.11354056043226426

Bonds

1 1 29 30
2 1 29 31
3 1 65 66
4 1 65 67
5 1 14 15
6 1 14 16
7 1 35 36
8 1 35 37
9 1 62 63
10 1 62 64
11 1 59 60
12 1 59 61
13 1 32 33
14 1 32 34
15 1 74 75
16 1 74 76
17 1 17 18
18 1 17 19
19 1 20 21
20 1 20 22
21 1 38 39
22 1 38 40
23 1 56 57
24 1 56 58
25 1 11 12
26 1 11 13
27 1 23 24
28 1 23 25
29 1 53 54
30 1 53 55
31 1 6 7
32 1 6 8
33 1 6 9
34 1 6 10
35 1 77 78
36 1 77 79
37 1 41 42
38 1 41 43
39 1 50 51
40 1 50 52
41 1 26 27
42 1 26 28
43 1 71 72
44 1 71 73
45 1 68 69
46 1 68 70
47 1 1 2
48 1 1 3
49 1 1 4
50 1 1 5
51 1 44 45
52 1 44 46
53 1 47 48
54 1 47 49

Angles

1 1 30 29 31
2 1 66 65 67
3 1 15 14 16
4 1 36 35 37
5 1 63 62 64
6 1 60 59 61
7 1 33 32 34
8 1 75 74 76
9 1 18 17 19
10 1 21 20 22
11 1 39 38 40
12 1 57 56 58
13 1 12 11 13
14 1 24 23 25
15 1 54 53 55
16 2 7 6 8
17 2 7 6 9
18 2 7 6 10
19 2 8 6 9
20 2 8 6 10
21 2 9 6 10
22 1 78 77 79
23 1 42 41 43
24 1 51 50 52
25 1 27 26 28
26 1 72 71 73
27 1 69 68 70
28 2 2 1 3
29 2 2 1 4
30 2 2 1 5
31 2 3 1 4
32 2 3 1 5
33 2 4 1 5
34 1 45 44 46
35 1 48 47 49
