LAMMPS data file via write_data, version 4 Feb 2025, timestep = 160000, units = lj

3100 atoms
4 atom types
2100 bonds
1 bond types
1250 angles
2 angle types

-10.410592 10.410592 xlo xhi
-10.410592 10.410592 ylo yhi
-10.410592 10.410592 zlo zhi
-7.105427357601002e-15 0 0 xy xz yz

Masses

1 1
2 1
3 0.1
4 0.1

Bond Coeffs # harmonic/omp

1 100 0.45

Angle Coeffs # harmonic/omp

1 100 180
2 100 109.471

Atoms # full

1806 569 4 0 -6.236092137790271 -9.241343562138148 -9.85664664235787 2 0 0
1805 569 2 0 -6.027536347859901 -9.012848780944589 -10.176568311199244 2 0 0
2008 636 4 0 -1.934828643699964 -7.242208034641018 -9.872440022875027 3 0 0
2256 719 4 0 -7.433693960589464 -6.68585009549641 -10.399316270253898 5 0 1
2255 719 2 0 -6.970805592676598 -6.663723312323951 -10.393093917016952 5 0 1
2257 719 4 0 -6.529424764306285 -6.652541321074395 -10.397363041294659 5 0 1
2491 797 4 0 -6.353199747359191 -5.6165561178792425 -9.714188059440843 4 0 0
137 28 3 0 -7.899310305806634 -2.93649567641906 -10.127849656465173 7 0 0
541 147 4 0 -5.117870096162924 -3.435553174676559 -9.720169960260504 6 0 0
539 147 2 0 -4.688290464622902 -3.401982468323898 -9.62611660976979 6 0 0
2422 774 4 0 -3.9730588703295 -3.0971820920353323 -9.633060596823633 13 1 0
2420 774 2 0 -3.5657609463106645 -3.261917320407158 -9.554935150956918 13 1 0
1960 620 4 0 -2.82741727928095 -3.2686064624355033 -9.64361052704966 5 0 0
1887 596 4 0 -1.6319524317593004 -3.3360481990516417 -9.56877620400371 6 0 0
868 256 4 0 -9.733933760152444 -2.4628266901618385 -10.228542467337736 6 0 1
866 256 2 0 -10.187798117898607 -2.4459262052957627 -10.29526469747474 6 0 1
1287 396 4 0 -9.353574420063872 -2.2874828426307676 -10.221298664190769 6 0 0
1286 396 2 0 -8.902110898876552 -2.212624459240878 -10.218092225263442 6 0 0
1288 396 4 0 -8.453575009801744 -2.137609169405126 -10.21514008983602 6 0 0
139 28 3 0 -8.076097144751088 -2.238515825078032 -10.341799697041525 7 0 0
140 28 3 0 -7.428760626607803 -2.3675053951972522 -9.935552617497258 7 0 0
136 28 1 0 -7.739825664215738 -2.540442462612247 -10.267758162245624 7 0 0
2370 757 4 0 -7.057247259630143 -2.4637590013801542 -10.041386093154111 7 0 1
2369 757 2 0 -6.667608832542674 -2.489573321510682 -9.783940215766812 7 0 1
2371 757 4 0 -6.303105445149762 -2.517710346879209 -9.543725646363114 7 0 1
70 14 3 0 -5.398190198167207 -2.21216986064557 -9.883508004901316 6 0 0
2109 670 4 0 -5.107277411201798 -1.9836951274223953 -10.021793067672677 7 0 1
258 53 4 0 -1.2565940850621686 -2.0716997426983728 -10.150701156674751 6 0 0
720 207 4 0 -1.6460858998608163 -2.0921110718062312 -10.188803868148009 6 0 1
257 53 2 0 -0.8385226798629066 -2.0800425178324407 -10.020436178476613 6 0 0
259 53 4 0 -0.40451087124219853 -2.0940306323400595 -9.886171726035185 6 0 0
1752 551 4 0 -4.265572287612457 -0.8849989604197344 -9.878046553858173 7 0 0
2674 858 4 0 -5.418004876312984 -0.6765782915939695 -9.579628840559602 8 0 1
1753 551 4 0 -5.12054471728354 -0.8293637524062909 -9.810055487267961 7 0 0
1751 551 2 0 -4.689160365486361 -0.8565437698279457 -9.846581013752612 7 0 0
2425 775 4 0 -3.883059395349833 -0.7897141851234508 -9.81992860018059 15 1 0
2423 775 2 0 -3.460988967780116 -0.6996661790344341 -9.802819017064223 15 1 0
2424 775 4 0 -3.0219798968251776 -0.598319697517498 -9.78178021676614 15 1 0
724 208 4 0 -2.6737239393573793 -0.6108363352739357 -9.989376518205674 7 0 1
722 208 2 0 -2.223326901441599 -0.504307421766061 -9.974902719836017 7 0 1
723 208 4 0 -1.750686578520531 -0.40079537802796494 -9.971597137025265 7 0 1
1372 424 4 0 -1.379295985783994 -0.32823880670458117 -9.9275313623481 7 0 1
1370 424 2 0 -0.9446682151185932 -0.3894544444619932 -10.036415977994816 7 0 1
1371 424 4 0 -0.4822921545060943 -0.4439475492714031 -10.166310241049379 7 0 1
514 138 4 0 -0.1149975478320453 -0.23709358654493862 -10.076291174183158 8 0 0
2224 708 4 0 -6.454209809849241 -9.576757645768279 -8.675524313738054 2 0 1
2222 708 2 0 -6.374946356029585 -9.396188504483483 -9.069248422673384 2 0 1
2223 708 4 0 -6.295916356983341 -9.231123227614596 -9.47694708911578 2 0 1
2365 755 4 0 -5.126767608273237 -7.131645580152163 -8.685842156058925 4 0 0
2007 636 4 0 -1.5574647965394615 -7.034224524787158 -9.05539975781245 3 0 0
2006 636 2 0 -1.7347120522543609 -7.138728513691321 -9.451637036226035 3 0 0
2490 797 4 0 -6.515580974649367 -6.194118341686966 -9.052494961197294 4 0 0
112 23 3 0 -6.510072341186877 -6.553692285309592 -8.880707370060442 4 0 0
2018 640 2 0 -4.450550590733036 -6.72095336708036 -8.873028449954127 4 0 0
2020 640 4 0 -4.833052379508098 -6.848671394106783 -8.784728004574756 4 0 0
2019 640 4 0 -4.006933176123451 -6.589817629898935 -8.966366678482725 4 0 0
3088 996 4 0 -3.70435216111511 -6.35386311847634 -8.834482981354187 4 0 0
3086 996 2 0 -3.265712806294882 -6.209890588426379 -8.877887745925698 4 0 0
558 153 4 0 -1.835408799579989 -6.916808945781581 -8.776845668639622 2 0 0
1025 309 2 0 -10.317613709793285 -5.262445810022874 -9.07613268995538 12 1 0
2322 741 4 0 -8.271268353036094 -5.381771397476918 -9.446604356357897 4 0 1
2321 741 2 0 -7.9051698609924115 -5.573750621205076 -9.260666309926489 4 0 1
2323 741 4 0 -7.532816035468953 -5.771004308813054 -9.076360891406706 4 0 1
2489 797 2 0 -6.4379343193108145 -5.89836662397555 -9.379739396862776 4 0 0
3087 996 4 0 -2.8278913183856496 -6.062408864938458 -8.918657720965552 4 0 0
522 141 4 0 -2.427565070303017 -6.060148163491597 -9.045365122367219 4 0 0
521 141 2 0 -2.087185817473511 -5.779564862538189 -9.068922000285488 4 0 0
523 141 4 0 -1.7329625326238975 -5.496635496945433 -9.08616285848899 4 0 0
2118 673 4 0 -0.13810517637951492 -5.952972083243366 -8.852499517873692 3 0 1
1026 309 4 0 -9.905563896699766 -5.126133374460145 -9.14670939850089 12 1 0
2960 954 2 0 -9.05331519347059 -5.177999626776134 -9.298607218450623 12 1 1
2961 954 4 0 -9.479047746450664 -5.194123119020826 -9.095968530119452 12 1 1
2962 954 4 0 -8.617587245439735 -5.170380557616924 -9.502199254524108 12 1 1
67 14 3 0 -5.258633320680142 -2.8591352474185854 -9.541366017770713 6 0 0
540 147 4 0 -4.240534540598663 -3.363502793231703 -9.528801009260626 6 0 0
2421 774 4 0 -3.1518397924832264 -3.418286441219009 -9.476356215800235 13 1 0
1959 620 4 0 -1.9732040517168539 -3.4070676295443763 -9.39387891253248 5 0 0
1958 620 2 0 -2.423545083885598 -3.331499691869638 -9.525883046996203 5 0 0
1886 596 2 0 -1.2291664036818535 -3.244219606049218 -9.449191603832894 6 0 0
2271 724 4 0 -0.4168942536638749 -3.252107802800812 -9.397856490160146 7 0 0
1888 596 4 0 -0.8025318849201089 -3.1532376948063074 -9.323817757348214 6 0 0
68 14 3 0 -5.9039528572479645 -2.526659308522044 -9.415122789985475 6 0 0
66 14 1 0 -5.455549669379275 -2.462878659965935 -9.493518937501811 6 0 0
69 14 3 0 -5.270564763057797 -2.2522841049614257 -9.15609032823798 6 0 0
279 60 4 0 -4.899780659826765 -2.0936767394236266 -9.27672498532104 6 0 0
278 60 2 0 -4.4796704744366975 -1.8958800751759064 -9.270373200961595 6 0 0
744 215 4 0 -0.20598733064489494 -2.0251562645866965 -9.53802699774869 6 0 0
1055 319 2 0 -9.602198447751467 -1.1824181386645893 -8.779402772897464 7 0 0
2727 876 4 0 -10.375605370614057 -1.0810806045184744 -8.839575355427387 7 0 0
1056 319 4 0 -9.177747128651966 -1.2447919547020234 -8.89303133904127 7 0 0
2023 641 4 0 -8.765725513430786 -1.2001038963403374 -8.918353257932745 7 0 0
2021 641 2 0 -8.290805696524364 -1.2303527292268814 -9.012060897726371 7 0 0
2022 641 4 0 -7.865734793013738 -1.2571535153323143 -9.099598430434467 7 0 0
1051 317 4 0 -7.46575519878218 -1.2396652398230916 -9.214872109162224 7 0 0
1049 317 2 0 -7.042116004472792 -1.152854410091395 -9.344427356909646 7 0 0
1050 317 4 0 -6.599518899883068 -1.0534373492858489 -9.477088988345502 7 0 0
2673 858 4 0 -6.228429404106038 -0.9202371393291369 -9.395384809666092 8 0 1
280 60 4 0 -4.069805572977891 -1.708539107286617 -9.265395819285313 6 0 0
655 185 4 0 -3.717291592142109 -1.502018201911092 -9.22367611317731 6 0 1
653 185 2 0 -3.3686739110185036 -1.526209172590752 -8.955220925896404 6 0 1
1737 546 4 0 -2.654398712124494 -1.7270888994411138 -8.802544732708869 6 0 0
2672 858 2 0 -5.837069959717676 -0.7968844512850222 -9.487095308576574 8 0 1
2101 667 4 0 -6.530140088431548 -9.766215082924019 -8.307939152988029 2 0 1
2099 667 2 0 -6.133492399459306 -9.971569182684581 -8.158703831503841 2 0 1
637 179 4 0 -5.428315707288068 -10.212434654018455 -7.819719594766109 2 0 1
2100 667 4 0 -5.744790032274231 -10.171359682864784 -8.00943594539732 2 0 1
115 23 3 0 -6.650563053352131 -7.177284725593324 -8.493258355560663 4 0 0
559 153 4 0 -1.5722352131369703 -6.948206795240102 -7.906909821212098 2 0 0
1989 630 4 0 -8.460893646354288 -6.748700355690628 -7.855312252327159 4 0 0
2318 740 2 0 -7.722369385813707 -6.524101650316083 -7.977281850950461 4 0 0
2319 740 4 0 -7.302527196187754 -6.488122000037871 -8.17184466999485 4 0 0
114 23 3 0 -6.907181280340755 -6.505372733697975 -8.24089667784888 4 0 0
111 23 1 0 -6.5575027301982285 -6.723336267503907 -8.464129391661285 4 0 0
113 23 3 0 -6.175018230393744 -6.658165829182175 -8.232407173174796 4 0 0
2364 755 4 0 -5.7907394303835105 -6.640327138903199 -8.356010387095365 4 0 0
2363 755 2 0 -5.462261476296421 -6.884063214015716 -8.522095916416383 4 0 0
557 153 2 0 -1.704240944999972 -6.9320724501080155 -8.338297690976297 2 0 0
2119 673 4 0 -0.8149425848770839 -5.671694113685336 -8.285370035183051 3 0 1
2117 673 2 0 -0.4873314070842536 -5.8110886448438945 -8.564613097785292 3 0 1
1736 546 2 0 -2.3092476824999686 -1.7729384903031882 -8.492175607844887 6 0 0
1738 546 4 0 -1.9863899598061376 -1.8254329801069424 -8.182910782861317 6 0 0
1749 550 4 0 -1.7881306857671326 -1.7785274530301454 -7.836213806501002 6 0 0
1057 319 4 0 -10.016350850528935 -1.1096734896995404 -8.664536482581452 7 0 0
654 185 4 0 -3.0065085879251345 -1.563142858982177 -8.67335144804635 6 0 1
1748 550 2 0 -1.3507930426818398 -1.6831939967136886 -7.940937869943518 6 0 0
1750 550 4 0 -0.9035000933784865 -1.5783639104796752 -8.047398011181942 6 0 0
635 179 2 0 -5.044329529006581 -9.981438184760195 -7.793861910578695 2 0 1
636 179 4 0 -4.652598207860173 -9.75991919957464 -7.759372522304706 2 0 1
1092 331 4 0 -6.996232183407313 -7.896302914228711 -7.647332081619746 12 1 0
1091 331 2 0 -6.569828444540553 -7.885570489212025 -7.525541306916562 12 1 0
1093 331 4 0 -6.124588072145489 -7.8760050001223565 -7.400496890774552 12 1 0
2732 878 2 0 -9.950312582796458 -7.094531955802173 -7.602151441050587 4 0 0
2734 878 4 0 -10.398664141403781 -7.141148902432715 -7.675032390041619 4 0 0
2733 878 4 0 -9.510200762859576 -7.034916516863706 -7.529494787240557 4 0 0
1506 469 4 0 -5.868018801405088 -7.602939968175846 -7.234788721756161 12 1 1
1505 469 2 0 -5.450005547099018 -7.526911417299429 -7.083247359889006 12 1 1
3082 994 4 0 -1.7857283260111991 -7.140753736344795 -7.618620878079513 10 1 1
3081 994 4 0 -1.4380126704086678 -7.760051627975286 -7.079742677321881 10 1 1
3080 994 2 0 -1.6224456380042582 -7.4359508909044205 -7.360176923055047 10 1 1
1990 630 4 0 -9.326267747997784 -6.773058726134782 -7.746702666633669 4 0 0
1988 630 2 0 -8.887739168936534 -6.75682107558912 -7.804426424091593 4 0 0
2320 740 4 0 -8.114540557917708 -6.570448010076676 -7.7922895082262915 4 0 0
422 108 2 0 -7.415253774051253 -10.187416863069243 -6.257760594256891 2 0 0
423 108 4 0 -7.10398784730117 -9.938084891526847 -6.433404834331428 2 0 0
2401 767 4 0 -5.710086426254613 -8.847335924135503 -6.614150306124801 11 1 0
2399 767 2 0 -6.008216004273561 -8.818799454566964 -6.253156978430938 11 1 0
351 84 4 0 -7.908500993257443 -7.307380048640397 -6.142123688191976 3 0 0
2710 870 4 0 -7.596484757879822 -7.16497830143615 -6.332516120894589 11 1 0
1998 633 4 0 -4.733351942638925 -7.721795380868867 -6.927260202917653 4 0 0
1507 469 4 0 -5.025106253046227 -7.445365639990625 -6.924300819916981 12 1 1
1997 633 2 0 -4.261680353852993 -7.737128984641787 -6.873970456363217 4 0 0
1999 633 4 0 -3.7976018240714797 -7.756394939684105 -6.823847297758578 4 0 0
1222 374 4 0 -3.457998878017756 -7.556499537020761 -6.748797376632283 11 1 0
1220 374 2 0 -3.0430501716049623 -7.456143114401375 -6.6100223660745865 11 1 0
1221 374 4 0 -2.621516208207238 -7.348912158449596 -6.461564814613411 11 1 0
1963 621 4 0 -2.2746626011865825 -7.165213491118019 -6.419769349396308 4 0 0
1961 621 2 0 -1.8696577057739194 -7.013875627330815 -6.2335338654455 4 0 0
2035 645 4 0 -9.692585042312038 -6.354437951777904 -6.159255138753927 5 0 0
2033 645 2 0 -10.140106476071436 -6.33421200765312 -6.151578156905669 5 0 0
2708 870 2 0 -7.304123145715014 -6.8918321718882005 -6.155151707759692 11 1 0
2730 877 4 0 -8.59316077942658 -5.842052902380187 -6.135711414761504 5 0 0
2282 728 2 0 -7.852432889363308 -5.480759148041424 -6.110716748354791 5 0 1
2283 728 4 0 -8.315471301345568 -5.573594368977436 -6.204592964880472 5 0 1
3043 981 4 0 -7.009519790993302 -5.4135919238514365 -6.102112933328439 5 0 0
3041 981 2 0 -6.58954431259779 -5.406723923108172 -6.136462226418137 5 0 0
3042 981 4 0 -6.147745342922127 -5.396784247043873 -6.17248321461893 5 0 0
2921 941 2 0 -5.358039287718903 -5.222473264648678 -6.4873437678569745 5 0 0
2922 941 4 0 -5.756877296266393 -5.380195591358532 -6.330610999345297 5 0 0
1514 472 2 0 -0.6664811633672567 -5.546616331163612 -6.078838680418793 11 1 0
1516 472 4 0 -0.46612430152463347 -5.435222985403467 -6.458427519223186 11 1 0
2923 941 4 0 -4.939914418483899 -5.0523611407055515 -6.64817497516777 5 0 0
2076 659 4 0 -4.62995779799529 -4.871868441383815 -6.520876694665281 -3 -1 0
2075 659 2 0 -4.235044472141134 -4.9308193307792685 -6.3680757444210245 -3 -1 0
2077 659 4 0 -3.8228765320592935 -5.002368056094716 -6.212677150925656 -3 -1 0
2955 952 4 0 -3.435438504459774 -4.969671212723938 -6.253286367355169 5 0 0
2954 952 2 0 -2.9849907705622334 -4.935254722955459 -6.38703230969877 5 0 0
2956 952 4 0 -2.561793860880556 -4.902501211998501 -6.5186200019942175 5 0 0
666 189 4 0 -3.4937995228013037 -3.9698049138907567 -6.225951626915064 5 0 0
2894 932 2 0 -1.529309731467979 -2.0518145411715736 -6.291837560444057 7 0 0
2896 932 4 0 -1.1472729639058628 -2.1086013320644383 -6.541895791770843 7 0 0
2759 887 2 0 -0.3624211561079793 -2.2754291435318432 -6.479623342725665 6 0 0
2760 887 4 0 -0.7668195924304335 -2.191154987908389 -6.684705479994509 6 0 0
967 289 4 0 -7.246361129561229 -9.075094988389818 -5.455563874896831 10 1 0
1809 570 4 0 -7.631301033554342 -8.994484993030222 -5.429476076380698 3 0 0
966 289 4 0 -6.346024937619474 -8.951933161971603 -5.52664687909863 10 1 0
965 289 2 0 -6.78639563370207 -9.015305824925111 -5.48989549079213 10 1 0
2400 767 4 0 -6.2974133106881105 -8.790245079398838 -5.899484179044236 11 1 0
352 84 4 0 -8.326965000929414 -7.991345792912431 -5.6820163426797645 3 0 0
1810 570 4 0 -8.049371392186252 -8.221737727375785 -5.579916086027169 3 0 0
1808 570 2 0 -7.83932966612098 -8.608833550452884 -5.497001801768397 3 0 0
350 84 2 0 -8.122974625854784 -7.650644051983539 -5.910348542220174 3 0 0
2731 877 4 0 -9.398798124736487 -6.210948883090731 -5.910880726794577 5 0 0
2709 870 4 0 -7.018155688150744 -6.632761371952363 -5.978809555213811 11 1 0
1962 621 4 0 -1.4919003306362093 -6.870517260950787 -6.048870953720211 4 0 0
165 33 3 0 -1.2029237209905954 -6.630068948499517 -5.851982107945689 4 0 0
161 33 1 0 -0.998349078117462 -6.423829026659367 -5.479246656393425 4 0 0
164 33 3 0 -0.531355112239428 -6.477970081600217 -5.490640027409605 4 0 0
367 89 4 0 -0.12960206563635168 -6.381691254471977 -5.637930081886525 3 0 0
2729 877 2 0 -9.00951646807576 -6.033742849166799 -6.023601772634698 5 0 0
2284 728 4 0 -7.425523231488641 -5.396346296776051 -6.02462576428911 5 0 1
163 33 3 0 -1.0940422256101492 -5.963470741547041 -5.480986840669802 4 0 0
1515 472 4 0 -0.8723857499721053 -5.6681515069307755 -5.682640331442724 11 1 0
665 189 2 0 -3.247032635132032 -3.657685900587346 -6.02015683006177 5 0 0
2121 674 4 0 -5.31171989630735 -3.0262423086229244 -5.663135828699049 6 0 1
2120 674 2 0 -4.8692009571549155 -2.9092465183270564 -5.640436471137318 6 0 1
2122 674 4 0 -4.427968244135789 -2.8003515454032897 -5.622292107984713 6 0 1
667 189 4 0 -2.9993673310778535 -3.3605610836602757 -5.810938106380601 5 0 0
1282 394 4 0 -2.8190730182394805 -3.0886605944790206 -5.565933121790602 5 0 0
1280 394 2 0 -2.429686507267326 -3.20613402514487 -5.342417951934024 5 0 0
273 58 4 0 -4.2660826502402704 -2.4585997521096425 -5.778305503062019 6 0 0
272 58 2 0 -3.8229330530691676 -2.3095615384276797 -5.823080661843484 6 0 0
274 58 4 0 -3.390518674736514 -2.1643802686798566 -5.861175264931365 6 0 0
2737 879 4 0 -3.066268800274618 -2.217031061679638 -5.6344532098801725 6 0 0
2735 879 2 0 -2.6576139939405463 -2.241222474564289 -5.837036767522787 6 0 0
2895 932 4 0 -1.892302608347137 -2.003649971284183 -6.050035765553474 7 0 0
2736 879 4 0 -2.2278245090671103 -2.2636699761119683 -6.042743145831995 6 0 0
1021 307 4 0 -0.1069851852281225 -1.0459173981767211 -5.236290145316256 15 1 0
985 295 4 0 -2.694184455185252 -0.6455568400507854 -5.210204149269142 15 1 0
983 295 2 0 -2.3621877579273054 -0.5737584723327007 -5.494795918842856 15 1 0
984 295 4 0 -2.0213593611038068 -0.502586590937085 -5.782358441093407 15 1 0
2137 679 4 0 -1.6894225088932995 -0.58461364618673 -5.985531239972466 8 0 0
2135 679 2 0 -1.2936133123118267 -0.3866291745185979 -5.987965008922905 8 0 0
2136 679 4 0 -0.8825892498064398 -0.19204808847206678 -5.973576772481058 8 0 0
1234 378 4 0 -0.5535468033274622 -0.23280697371256664 -5.732291820909468 15 1 0
1232 378 2 0 -0.23611039631841457 -0.5189574980884313 -5.638558497214464 15 1 0
2662 854 4 0 -7.882184710503939 -9.216751435518193 -4.365150366822707 11 1 0
2592 831 4 0 -10.13630913289034 -8.010184565167773 -4.605195213501401 11 1 0
2802 901 4 0 -9.810750918056376 -7.803763407948361 -4.539685196963118 11 1 0
580 160 4 0 -2.759528179136761 -6.7780804670757835 -4.464897026105795 2 0 0
434 112 2 0 -1.929045984729143 -6.78749668052898 -4.786852310214032 2 0 0
436 112 4 0 -2.3582922966303315 -6.888536997183685 -4.598866109478191 2 0 0
435 112 4 0 -1.5240707031114091 -6.692737001625803 -4.950641538253228 2 0 0
162 33 3 0 -1.1547457247619075 -6.5947014949486995 -5.108640056972016 4 0 0
915 272 4 0 -8.03743124635304 -2.841431764719836 -4.435706407605601 5 0 0
2328 743 4 0 -7.00477923737212 -2.7055594230948437 -4.719255312187505 5 0 0
2327 743 2 0 -7.441474475468093 -2.6465771011268444 -4.707331745225731 5 0 0
1281 394 4 0 -2.0687771379478583 -3.320252021248457 -5.12952701591934 5 0 0
1006 302 4 0 -1.7358577926333698 -3.3255132441384383 -4.924430930778916 13 1 0
1004 302 2 0 -1.3598420709214505 -3.124368674340136 -4.7412997216834265 13 1 0
1005 302 4 0 -0.985701900100663 -2.9395028077565666 -4.571079786999659 13 1 0
2329 743 4 0 -7.872638968448269 -2.5992637854022274 -4.694387694624488 5 0 0
1019 307 2 0 -0.029677568789836073 -1.4586381018238477 -5.011054447141203 15 1 0
2358 753 4 0 -4.848303180949971 -0.20900143879565292 -4.9935460925621955 8 0 0
2357 753 2 0 -4.432407964636806 -0.37083914743476853 -4.941261420081115 8 0 0
2359 753 4 0 -4.007080250379936 -0.5548571566542808 -4.884920014649421 8 0 0
1066 322 4 0 -3.7692250245573735 -0.7332025373033879 -4.622634848873205 15 1 0
1064 322 2 0 -3.339443277302257 -0.6691452681519898 -4.748605729433574 15 1 0
1065 322 4 0 -2.910077016357895 -0.60476947256039 -4.875418040989428 15 1 0
1823 575 2 0 -8.90465260447786 -9.915437473263129 -3.5522592906867168 3 0 0
1824 575 4 0 -8.582953111467873 -10.055044316256332 -3.8419843456119978 3 0 0
2661 854 4 0 -8.258083111017498 -9.989961596334915 -4.056515255888622 11 1 0
2660 854 2 0 -8.067606832885987 -9.594832484410858 -4.209067680649534 11 1 0
198 40 3 0 -7.748062723055843 -8.830148077309513 -4.329249813360725 11 1 0
1867 589 4 0 -7.47916883250754 -9.182150037260227 -3.5262758075016345 3 0 0
199 40 3 0 -7.520917196573907 -8.805087011996793 -3.635310374743657 11 1 0
2801 901 2 0 -9.42887459528332 -7.84529488157487 -4.288219264001363 11 1 0
2803 901 4 0 -9.0696791828846 -7.88327963726083 -4.047680042810849 11 1 0
859 253 4 0 -7.954707329821002 -7.855059190906764 -4.12935025367981 3 0 0
200 40 3 0 -7.915893311191629 -8.205900740655585 -3.9212018314852726 11 1 0
196 40 1 0 -7.588860905442786 -8.560893221777782 -4.0056889464803955 11 1 0
197 40 3 0 -7.190407961313348 -8.374350308590559 -4.139818127614664 11 1 0
2419 773 4 0 -6.991302335724118 -8.086904454272366 -3.9635324727131227 11 1 0
2417 773 2 0 -6.546699475204893 -7.998111463284737 -3.7818551462896277 11 1 0
2418 773 4 0 -6.126114881529424 -7.929542761553562 -3.6078807838218907 11 1 0
2574 825 4 0 -5.836563228997136 -8.015042401102846 -3.8778337302116057 11 1 0
2573 825 2 0 -5.487335961784588 -8.348252667328966 -3.9288675634680157 11 1 0
2575 825 4 0 -5.164465140765228 -8.672425375956154 -3.9726816560778655 11 1 0
858 253 4 0 -8.801201369369837 -7.588120416849913 -4.050784550156071 3 0 0
857 253 2 0 -8.38498791762772 -7.717870968124179 -4.08854782046709 3 0 0
509 137 2 0 -4.294068644587605 -6.894890414645813 -3.6409526110898955 2 0 0
511 137 4 0 -3.951557709219399 -6.815426011235915 -3.95040828725344 2 0 0
579 160 4 0 -3.5813543613920826 -6.840646550675457 -4.136327767379386 2 0 0
578 160 2 0 -3.1553768000162385 -6.810561935074086 -4.303932380637497 2 0 0
405 102 4 0 -10.374386886531042 -5.261932762397824 -3.8846460578400563 4 0 0
404 102 2 0 -9.931475131518027 -5.300402748124679 -3.7955019512420636 4 0 0
406 102 4 0 -9.495518149128783 -5.339010635692703 -3.717975821176709 4 0 0
1089 330 4 0 -9.166379470097175 -5.259751246421724 -3.4879828110181768 4 0 0
2994 965 4 0 -5.664351843899624 -5.225986093438305 -3.519062245758205 12 1 0
2993 965 2 0 -5.27171203594321 -5.129451102997675 -3.722018408433005 12 1 0
2995 965 4 0 -4.862925565861796 -5.026280556085393 -3.93742082594793 12 1 0
288 63 4 0 -9.984473940559397 -3.7392543798832616 -3.931253413692085 5 0 0
148 30 3 0 -9.66851836440249 -3.9753020372406924 -4.038472958377523 6 0 0
287 63 2 0 -10.398506984660902 -3.7956774336295833 -3.76912330891982 5 0 0
146 30 1 0 -9.304613128114502 -3.8082155219364386 -3.8131804856027323 6 0 0
147 30 3 0 -9.06157983426968 -4.131131583353489 -3.6843635102423047 6 0 0
963 288 4 0 -8.68482074318268 -4.057342188351681 -3.717062616464329 5 0 0
150 30 3 0 -9.06417174945933 -3.5351177163899496 -4.090202947717399 6 0 0
962 288 2 0 -8.279718150537944 -4.08375184523698 -3.5412256009120515 5 0 0
3003 968 4 0 -7.569694083876506 -4.213735680306449 -3.5960982786009605 6 0 0
3002 968 2 0 -7.115461923273614 -4.133443830751095 -3.5197568505906096 6 0 0
916 272 4 0 -8.762735258228995 -3.3360062552651266 -4.237372196843064 5 0 0
914 272 2 0 -8.405023114353991 -3.091860455798356 -4.33764383297635 5 0 0
1693 531 4 0 -0.7142364418155953 -2.943000856234951 -4.249336112961046 6 0 0
1691 531 2 0 -0.23450389976180652 -2.9979672219131395 -4.234485776694777 6 0 0
1169 357 2 0 -9.601311891720803 -1.8646368959313868 -3.9307840838143164 7 0 0
1170 357 4 0 -9.40038307012374 -2.2617782448378225 -3.889990017269124 7 0 0
2691 864 4 0 -9.056582704263569 -2.156753961495026 -3.6923122160952815 8 0 0
2690 864 2 0 -8.618651817089612 -2.1248204431296553 -3.560537295963881 8 0 0
227 46 3 0 -7.807596316489349 -2.1649985472415594 -3.5729540217255913 8 0 0
230 46 3 0 -7.146052762921629 -1.9399041092084506 -3.4811115578618512 8 0 0
2259 720 4 0 -9.635694522383359 -1.0885835417688856 -4.008677233459049 8 0 1
1171 357 4 0 -9.811678647119034 -1.4451638546290209 -3.9615322814322944 7 0 0
394 98 4 0 -7.044016758913672 -1.5776818917872806 -3.626562517543883 7 0 0
392 98 2 0 -6.585043222880675 -1.4481579882679014 -3.66023202661518 7 0 0
393 98 4 0 -6.148351959651248 -1.333166983321476 -3.687717171071003 7 0 0
2241 714 4 0 -5.81738263216293 -1.3950668482333661 -3.905549482721538 8 0 1
2240 714 2 0 -5.46576358535284 -1.2542047080534715 -3.629274850746701 8 0 1
2258 720 2 0 -9.307070698839425 -0.807253299536125 -3.829656298651768 8 0 1
2260 720 4 0 -9.01198757078658 -0.5410831332200132 -3.6590581185558753 8 0 1
1825 575 4 0 -9.20415737616769 -9.782091740813605 -3.2892807018202452 3 0 0
918 273 4 0 -9.391586819127674 -9.81459126201345 -2.931576404588375 3 0 0
1865 589 2 0 -7.189694856908787 -9.190331222869263 -3.141822274313375 3 0 0
1866 589 4 0 -6.891104398059756 -9.20111044167044 -2.7642620842507277 3 0 0
549 150 4 0 -7.143623249920688 -7.983741939247794 -2.626262577442815 2 0 0
10 2 3 0 -6.806183440696234 -7.757226251960107 -2.663600358267196 2 0 0
2554 818 4 0 -5.752151605608546 -7.479889281709534 -2.8199013437795806 11 1 0
2552 818 2 0 -5.400047091432044 -7.311337328752625 -3.046251731203844 11 1 0
510 137 4 0 -4.641734849284612 -6.973249832842422 -3.3251122319302455 2 0 0
2553 818 4 0 -5.027275319336636 -7.1294177307130955 -3.2758262836201313 11 1 0
746 216 2 0 -8.047073223506034 -6.535793057704021 -2.6548512193711478 2 0 0
748 216 4 0 -7.867429689701105 -6.263888331059227 -2.9418203216833785 2 0 0
1088 330 2 0 -8.956110762165295 -5.454000813979887 -3.1300992369298317 4 0 0
1090 330 4 0 -8.751304670300629 -5.639133020573758 -2.777999307778371 4 0 0
1513 471 4 0 -7.746382232749612 -5.861549461464285 -2.9563503325438605 12 1 0
1511 471 2 0 -7.499372880793176 -5.546623167454399 -3.1779664911248924 12 1 0
1512 471 4 0 -7.248940034872577 -5.235453460139862 -3.4017614600644315 12 1 0
2013 638 4 0 -6.84894022679417 -5.25172714836884 -3.402834004651062 4 0 0
2012 638 2 0 -6.437989304642766 -5.130576228931292 -3.407551455809963 4 0 0
2014 638 4 0 -5.988948954371911 -5.003471193604048 -3.42532549510136 4 0 0
149 30 3 0 -9.430872522382842 -3.5769990954350277 -3.4437733209295915 6 0 0
964 288 4 0 -7.878973273218804 -4.107697374510168 -3.3685621415820446 5 0 0
3004 968 4 0 -6.675561114818905 -4.0505331900354005 -3.4445047884930293 6 0 0
2562 821 4 0 -6.301305377420022 -3.9494008487328784 -3.4087176602467135 6 0 0
2561 821 2 0 -6.106475202792994 -3.8846523745692183 -3.0050281013624875 6 0 0
2307 736 4 0 -9.926002820465156 -2.9892174114061287 -2.668281799458832 6 0 1
2306 736 2 0 -9.708398055735527 -3.063538680952062 -3.041577840979289 6 0 1
2308 736 4 0 -9.480523648152975 -3.1397095084901654 -3.4331082063573133 6 0 1
229 46 3 0 -7.312922808098035 -2.6367663290675374 -3.3971615851694423 8 0 0
1110 337 4 0 -7.340646834564897 -3.011514675113781 -3.208084094362637 8 0 0
1109 337 2 0 -6.958502414693923 -3.138785544037013 -2.9658005760719606 8 0 0
1111 337 4 0 -6.58591754023397 -3.259979969143929 -2.7287110582795933 8 0 0
1104 335 4 0 -5.442240345504466 -2.761711983550496 -2.6246629523528 7 0 0
2692 864 4 0 -8.182826072455065 -2.1025390176511305 -3.4247167119835478 8 0 0
226 46 1 0 -7.4615317332670745 -2.217946584852074 -3.340433744928765 8 0 0
228 46 3 0 -7.550877179772156 -2.1513333313570246 -2.9282362406820504 8 0 0
2242 714 4 0 -5.134796731239471 -1.1233042487324774 -3.3591574627406295 8 0 1
1665 522 4 0 -5.170827289172866 -0.8771939930547905 -3.0667922435270407 7 0 1
1422 441 4 0 -8.667346557152065 -0.5671207192325944 -3.45801262719582 7 0 0
1421 441 2 0 -8.343408206855003 -0.538552372745972 -3.146345630240928 7 0 0
1423 441 4 0 -8.007723396227423 -0.5125312140690159 -2.8288287633851983 7 0 0
1664 522 2 0 -5.339487284982168 -0.585889559804313 -2.763902869290712 7 0 1
2182 694 4 0 -10.075388731404882 -9.816837031424807 -1.9180730705283668 3 0 0
919 273 4 0 -9.714657068084536 -9.850657659249752 -2.1010703868719407 3 0 0
917 273 2 0 -9.553728891960041 -9.831691632770067 -2.511893102572169 3 0 0
1150 350 4 0 -6.907292185850256 -9.012225941533005 -2.4057045810631497 10 1 0
888 263 4 0 -9.040905521814395 -8.20764813803616 -1.86240192730547 2 0 0
887 263 2 0 -8.625013590226388 -8.247943303287464 -2.0360301550191053 2 0 0
889 263 4 0 -8.19075791363398 -8.28923741755063 -2.2065519896868686 2 0 0
550 150 4 0 -8.005972335117068 -8.206053427956139 -2.552305909256803 2 0 0
548 150 2 0 -7.571882673476193 -8.08890128196627 -2.584165270820618 2 0 0
1149 350 4 0 -6.5815800311564345 -8.28195325403241 -1.9613814433722254 10 1 0
1148 350 2 0 -6.744846011742611 -8.646522026849668 -2.1759619445282645 10 1 0
9 2 3 0 -6.384960674359614 -7.953445415573548 -2.0474625985323005 2 0 0
14 3 3 0 -8.645183252117615 -7.457379136135899 -1.9333786512661622 2 0 0
11 3 1 0 -8.589462479249715 -7.033691848039734 -1.7487506163167161 2 0 0
353 85 2 0 -7.464270725797006 -7.129937842561861 -1.7815160389346172 2 0 0
355 85 4 0 -7.034632640468919 -7.210334197880517 -1.9343905958118874 2 0 0
7 2 3 0 -6.651597546813388 -7.256327544089457 -2.0775892598300327 2 0 0
6 2 1 0 -6.480392551256694 -7.612355399567388 -2.3254918946495824 2 0 0
8 2 3 0 -6.066672532442139 -7.465893551807468 -2.550734916065414 2 0 0
747 216 4 0 -8.23699909625476 -6.816022129304032 -2.365130354410546 2 0 0
15 3 3 0 -8.533331486716477 -6.733704447255558 -2.0760725849629953 2 0 0
2563 821 4 0 -5.9038364947980995 -3.8226368102495654 -2.5992312438963356 6 0 0
2550 817 4 0 -5.867444028028724 -3.833701223598033 -2.191484958932877 6 0 0
2549 817 2 0 -5.97479005526321 -4.1793256587828065 -1.9139857507490206 6 0 0
2376 759 4 0 -10.139487647011062 -3.1073282302215492 -2.366994556001469 6 0 0
2375 759 2 0 -10.005142281711892 -2.9038615441866016 -1.9808269260538491 6 0 0
1105 335 4 0 -6.33143606647934 -3.0598731763644658 -2.482927681407981 7 0 0
1103 335 2 0 -5.880682380011605 -2.902022938715832 -2.5584055982057867 7 0 0
307 69 4 0 -7.4735055543475895 -2.2983639201746744 -2.552197731064213 -1 -1 0
305 69 2 0 -7.379177200252801 -2.0159442179384293 -2.2271737914925236 -1 -1 0
306 69 4 0 -7.283536091506205 -1.743349452859766 -1.9106443052049826 -1 -1 0
2089 663 4 0 -5.310545232669925 -2.4819372690413237 -2.3605719550791093 7 0 1
2087 663 2 0 -4.871065186855315 -2.421679542020959 -2.454302406357673 7 0 1
2088 663 4 0 -4.446680841872931 -2.368863104103834 -2.5449152575657195 7 0 1
1523 475 2 0 -10.282241055160627 -1.5553910139299507 -1.817172228699219 7 0 1
1524 475 4 0 -9.88920879658837 -1.5080522911259369 -2.03982478529751 7 0 1