LAMMPS data file via write_data, version 4 Feb 2025, timestep = 8500000, units = lj

3100 atoms
4 atom types
2100 bonds
1 bond types
1250 angles
2 angle types

-10.410592 10.410592 xlo xhi
-10.410592 10.410592 ylo yhi
-10.410592 10.410592 zlo zhi

Masses

1 1
2 1
3 0.1
4 0.1

Bond Coeffs # harmonic/omp

1 100 0.45

Angle Coeffs # harmonic/omp

1 100 180
2 100 109.471

Atoms # full

2684 862 2 0 -2.5577889145682358 -0.01615801542985321 -6.125659479058907 0 0 0
2898 933 4 0 -4.505877907286401 -10.332602621754312 -10.130168620714441 1 1 1
1362 421 4 0 -0.06528677779503825 -2.0528174324000847 -1.4592458526623855 0 0 0
288 63 4 0 -10.1952799871326 -2.280961065700209 -1.1962330212408059 0 0 0
148 30 3 0 -10.38258764109098 -2.5928153256320217 -1.378675997722106 1 0 0
2800 900 4 0 -0.13050371015995918 -1.0781937680548874 -2.062811780445214 1 0 0
2321 741 2 0 -5.931015493359719 -6.015283296972468 -10.258554877775635 0 0 1
2904 935 4 0 -1.6955107023386118 -6.836991174282191 -9.944033999176295 1 1 1
5 1 3 0 -1.723342782174763 -6.962862775175815 -9.555242000645734 0 0 0
2903 935 2 0 -1.9709862896215966 -6.752956340260569 -10.257871517114058 1 1 1
1 1 1 0 -1.5241719665961857 -6.822071033029412 -9.174474368217622 0 0 0
814 238 4 0 -1.1537751184367373 -6.1700530869520245 -9.511534915626433 0 0 1
3 1 3 0 -1.2543935317500159 -6.48798384756686 -9.269513834626403 0 0 0
4 1 3 0 -1.2783905847904904 -7.177052087719974 -8.994287258903043 0 0 0
2421 774 4 0 -6.499788047393572 -4.91012613778561 -9.290445484697864 0 1 0
2420 774 2 0 -6.232961574561001 -5.203745544208683 -9.472784112098855 0 1 0
390 97 4 0 -6.825717528846504 -4.934333835163359 -9.05823350558629 0 0 0
2323 741 4 0 -6.092342828092614 -5.6498723996755835 -10.01914790814578 0 0 1
2422 774 4 0 -5.965383934726919 -5.507423656825012 -9.656088106131817 0 1 0
2003 635 2 0 -3.324877676382487 -4.9328550867783845 -9.651107049980494 0 0 0
2005 635 4 0 -3.16982452438815 -5.351259479428034 -9.58746061015792 0 0 0
812 238 2 0 -1.2599107115577999 -5.863708851629714 -9.821330812947838 0 0 1
813 238 4 0 -1.3609396687155897 -5.557112893767496 -10.138171503536997 0 0 1
1951 617 4 0 -9.265679237430254 -4.064781677358441 -9.09357861577587 1 0 0
2004 635 4 0 -3.461885768668678 -4.524408833724976 -9.715994133227536 0 0 0
634 178 4 0 -3.4279799233757315 -4.125166291887393 -9.790475178462394 0 0 1
632 178 2 0 -3.2196219100530263 -3.7138024457344985 -9.681333773301235 0 0 1
633 178 4 0 -3.020503922281043 -3.3155322078810414 -9.573428172747057 0 0 1
1329 410 4 0 -2.802418752561407 -2.98938558059391 -9.474031675028098 0 1 1
2108 670 2 0 -9.73128021354186 -1.7981737219335565 -9.781232325002577 1 0 1
2110 670 4 0 -9.699233442888378 -1.5190718336510316 -9.42142673191994 1 0 1
655 185 4 0 -8.107737218873757 -2.4573796744825604 -9.396351166507433 0 0 1
280 60 4 0 -8.383251242562432 -2.3672602683339483 -9.699963094856706 0 0 0
653 185 2 0 -8.213645075759832 -2.4259435620019385 -8.948472592584826 0 0 1
278 60 2 0 -8.70443255824677 -2.3860024734724137 -10.022851714392642 0 0 0
1328 410 2 0 -2.3900087755478405 -2.956890960445596 -9.650555094711043 0 1 1
2794 898 4 0 -1.6987360111144292 -3.002976303578995 -10.082350402894992 0 0 1
1330 410 4 0 -1.9763809593686164 -2.917518490540396 -9.829667523230158 0 1 1
1869 590 4 0 -0.9662422935153215 -1.5085193953149372 -9.846115194497097 0 0 0
1868 590 2 0 -0.9991469791935548 -1.6097628010316092 -9.404915323431615 0 0 0
827 243 2 0 -10.169712124084 -0.7597294218188286 -9.700590656515722 0 0 1
2487 796 4 0 -9.402795191434922 -1.0335809194792867 -9.442237111354547 1 0 0
828 243 4 0 -9.71388080131058 -0.8447599748750589 -9.61185573581727 0 0 1
2486 796 2 0 -9.019428916400859 -0.8456940069470477 -9.308929596187925 1 0 0
2488 796 4 0 -8.621083482491137 -0.6464608468486439 -9.17764722826619 1 0 0
721 207 4 0 -8.483718788323976 -0.31865796024112697 -9.023034335103615 0 0 1
2196 699 4 0 -0.9591917461646857 -1.5557495318186174 -10.250424956762041 0 0 1
2312 738 2 0 -0.13999167689068573 -8.580814134115286 -8.677160380895451 0 0 1
686 196 2 0 -0.7863783943584496 -7.630053753536272 -8.748751534636645 0 0 1
2313 738 4 0 -0.48957817971122 -8.323782193570654 -8.617523425286313 0 0 1
687 196 4 0 -0.672041584136315 -7.980794583520172 -8.549192150989263 0 0 1
2 1 3 0 -1.803650624040345 -6.694844409728571 -8.90081991365062 0 0 0
668 190 2 0 -2.314842157352024 -6.123464975993194 -8.734962227188195 0 0 1
669 190 4 0 -2.151619241303789 -6.534345857838198 -8.782094102387054 0 0 1
688 196 4 0 -0.8980784617290749 -7.2511179445157525 -8.969840773664348 0 0 1
424 108 4 0 -10.230257288873055 -4.866108770559769 -7.673397972897971 0 0 0
422 108 2 0 -10.360837558543045 -4.429202174852751 -7.6184809987278514 0 0 0
1252 384 4 0 -7.71352476509966 -4.8566773856768135 -8.387885453402077 0 1 0
1250 384 2 0 -8.111424438460546 -4.687337995697525 -8.250952645964192 0 1 0
391 97 4 0 -7.415076638895072 -5.127144425452777 -8.423438264255982 0 0 0
389 97 2 0 -7.1276273139176265 -5.0316053102283504 -8.726939908494092 0 0 0
1301 401 2 0 -4.901432370844616 -5.368163852883551 -7.715860484751119 0 1 0
1302 401 4 0 -4.537031841350592 -5.172043955102104 -7.909296813639774 0 1 0
1303 401 4 0 -5.250622030055067 -5.566670900009983 -7.5166507655516694 0 1 0
128 26 3 0 -4.1540392799104335 -5.130916501454342 -7.920539804290074 0 0 0
126 26 1 0 -3.7434157440394786 -5.113058963257532 -7.709388515631776 0 0 0
127 26 3 0 -3.4341876140641774 -5.060957695768539 -8.003773236267682 0 0 0
588 163 4 0 -3.2913767187081677 -4.989933881725339 -8.37541135572436 0 0 1
670 190 4 0 -2.478265728108206 -5.713313287104408 -8.692308980905441 0 0 1
587 163 2 0 -2.894607607057813 -5.192417058238979 -8.430848246239112 0 0 1
589 163 4 0 -2.5134134155338974 -5.387924394791377 -8.481760530497628 0 0 1
1949 617 2 0 -8.955888931315114 -4.215771861365859 -8.796493638375628 1 0 0
1950 617 4 0 -8.63395697816361 -4.374596334819786 -8.48942304760919 1 0 0
1251 384 4 0 -8.509716078782674 -4.523767406350504 -8.121025001029809 0 1 0
523 141 4 0 -0.6206005352336955 -3.625873220991033 -7.5067979602603065 0 0 0
654 185 4 0 -8.316234504167937 -2.4055805986688226 -8.512701844921418 0 0 1
1737 546 4 0 -8.106078295026375 -2.113880698194941 -8.307333695455764 0 0 0
1736 546 2 0 -7.810524687770385 -1.8921301102535546 -8.047820545374691 0 0 0
1738 546 4 0 -7.51883297351548 -1.683367695652871 -7.7897887763037055 0 0 0
1749 550 4 0 -7.178253970414583 -1.5496780778931538 -7.611548069626506 0 0 0
2736 879 4 0 -4.340779791581929 -2.027007259464182 -7.4495806513258085 0 0 0
2735 879 2 0 -4.023905013558714 -2.324529695029456 -7.50589960255089 0 0 0
1870 590 4 0 -1.0373693929097592 -1.7091235762525827 -8.952511311410747 0 0 0
2521 807 4 0 -0.8172655012852238 -1.5705686022352923 -8.66412929835326 0 0 1
2519 807 2 0 -0.6751002910272424 -1.8651278737268453 -8.340166024284903 0 0 1
2520 807 4 0 -0.5396354795519764 -2.1605021614180613 -8.023492063428206 0 0 1
1755 552 4 0 -0.1983140799628879 -2.2540189627794 -7.839529781135589 1 0 0
719 207 2 0 -8.305736880654354 -0.11587623379622647 -8.677985504646378 0 0 1
2008 636 4 0 -9.966438369012169 -6.740275399982235 -6.126941775263711 1 0 0
3082 994 4 0 -10.037804560647524 -6.778323533841784 -5.716018020886352 0 1 1
2006 636 2 0 -9.903966457200251 -6.482746792326706 -6.4831561789385574 1 0 0
2007 636 4 0 -9.853230536720647 -6.215286314993885 -6.857039148915755 1 0 0
558 153 4 0 -10.090774547152398 -5.893003466838252 -6.899322738313311 0 0 0
2917 939 4 0 -8.951362409083744 -6.273253098987086 -6.247632460329598 1 1 0
852 251 4 0 -5.3253030552259455 -5.872465919310056 -7.277525558569734 0 0 1
499 133 4 0 -3.2908307184020686 -6.183892118415592 -6.61762633162399 0 0 0
2816 906 2 0 -3.1799482377256902 -6.749953761305988 -6.125516528989257 0 1 1
2817 906 4 0 -3.114377183925858 -6.536954427388909 -6.534879786257306 0 1 1
559 153 4 0 -10.214903253293153 -5.159057777967814 -7.425861090220315 0 0 0
557 153 2 0 -10.149533783402214 -5.521606274612453 -7.166799909080333 0 0 0
2915 939 2 0 -8.818578789540727 -5.867349855800651 -6.094895492349335 1 1 0
2033 645 2 0 -9.014742481646003 -4.716645019406483 -6.124360249722302 1 0 0
2034 645 4 0 -8.895048500919364 -5.145687825733105 -6.034676223123194 1 0 0
2916 939 4 0 -8.681844032319411 -5.463052758112178 -5.952325686859907 1 1 0
853 251 4 0 -5.510987682843066 -5.965873741543755 -6.392248778316596 0 0 1
851 251 2 0 -5.422160587523699 -5.917287515703855 -6.8409503768307935 0 0 1
497 133 2 0 -3.4476648591594845 -5.861071329639796 -6.86224924644073 0 0 0
129 26 3 0 -3.6814674544002313 -5.481598393395307 -7.480215798667123 0 0 0
130 26 3 0 -3.7211373197770574 -4.756287835319896 -7.420378846229502 0 0 0
2121 674 4 0 -3.7489640573473166 -4.673597630841561 -7.054431537738867 0 0 1
498 133 4 0 -3.6002434746639307 -5.518792596725608 -7.108854172422753 0 0 0
3087 996 4 0 -0.25531693864112337 -4.455264445010384 -6.759927583869861 0 0 0
522 141 4 0 -0.3358450092884903 -4.383285854443119 -7.134348782325723 0 0 0
2730 877 4 0 -9.512676126045069 -3.187711096538459 -6.011849508070159 1 0 0
2283 728 4 0 -9.362058529003688 -2.8548367086156063 -6.186871528008549 1 0 1
2035 645 4 0 -9.12951593430846 -4.307085149769453 -6.217759818406255 1 0 0
2120 674 2 0 -3.6452206703735737 -4.251104144146685 -6.878863779644765 0 0 1
272 58 2 0 -3.5349210622701297 -3.129105714703482 -6.8980565606048785 0 0 0
273 58 4 0 -3.437286821973176 -3.480408896047226 -6.649627415402229 0 0 0
2122 674 4 0 -3.5450620443759204 -3.8530935895844904 -6.717947284080731 0 0 1
521 141 2 0 -0.4780804810841715 -4.012093539884933 -7.314763397399916 0 0 0
2282 728 2 0 -9.750050920803563 -2.5902016783098603 -6.22842461967221 1 0 1
2284 728 4 0 -10.098582077800598 -2.3590576143468067 -6.262054719505494 1 0 1
1748 550 2 0 -7.067066455454351 -1.598048866479282 -7.157339650614202 0 0 0
1750 550 4 0 -6.971770076506465 -1.6495857390847186 -6.725541966768054 0 0 0
841 247 4 0 -6.849563565297036 -1.952419802839774 -6.4744114046770225 0 0 1
839 247 2 0 -6.515713894036789 -2.208271025094982 -6.372794354779312 0 0 1
840 247 4 0 -6.157067709286503 -2.484869823565996 -6.261614710486553 0 0 1
445 115 4 0 -5.870505643055736 -2.710577543372071 -6.084867320890417 0 0 0
2895 932 4 0 -4.629363645172591 -2.0833640917622094 -7.209363437189291 1 0 0
2894 932 2 0 -4.929074207404839 -1.9750979104143747 -6.87105518617004 1 0 0
2896 932 4 0 -5.216854062742543 -1.8775437470599496 -6.5408591666188025 1 0 0
2760 887 4 0 -5.403043873115918 -1.84238286661572 -6.197112602121844 0 0 0
2737 879 4 0 -3.696474042929063 -2.6461768172353377 -7.561027106205068 0 0 0
274 58 4 0 -3.642430737737785 -2.7452006398726563 -7.168594014854596 0 0 0
1732 544 4 0 -1.1321926668739022 -0.3409565917271248 -0.051680100928429736 0 -1 0
1754 552 2 0 -0.04728225733029784 -2.4508138542131706 -7.460884228889112 1 0 0
1730 544 2 0 -1.1153328394380948 -0.6018928863314531 -0.4096549319013242 0 -1 0
2642 848 2 0 -3.7207247241741706 -0.0180597781279917 -6.08291807083179 0 0 0
2643 848 4 0 -4.14758462452861 -0.12347437257026182 -6.114107779596194 0 0 0
2686 862 4 0 -2.215250124332365 -0.14199187272157257 -6.345346456005645 0 0 0
1186 362 4 0 -2.059935233884525 -0.42632181330255925 -6.139280720345481 0 0 0
1184 362 2 0 -1.6847569210249624 -0.671063842096128 -6.235099236878201 0 0 0
1044 315 4 0 -1.187478805475464 -1.1992689539405412 -6.0855002909600495 0 0 0
1185 362 4 0 -1.3119692054459182 -0.9179188057196 -6.330392741834392 0 0 0
1120 340 4 0 -10.270799146940664 -9.105013942282659 -4.7858316124625295 0 1 0
2964 955 4 0 -10.319166319739447 -9.43345490946339 -5.01465860995134 1 1 0
1310 404 2 0 -9.25830717512486 -8.000880965522072 -5.213720395218328 1 1 0
1312 404 4 0 -9.387739291457248 -8.332247468444795 -4.923504656536325 1 1 0
1119 340 4 0 -9.737825903404666 -8.384911340356167 -4.756739243767744 0 1 0
1311 404 4 0 -9.113189417437185 -7.65308775985383 -5.50672167737897 1 1 0
1118 340 2 0 -10.002853866405072 -8.745045915547573 -4.773359791925457 0 1 0
2859 920 4 0 -9.07156375223635 -7.342328208805164 -5.744079055601743 1 1 1
1631 511 2 0 -4.206007618577784 -8.117140520680378 -4.711363517612723 0 1 1
1632 511 4 0 -3.936764874711958 -7.904264075048313 -4.955479933252648 0 1 1
1974 625 4 0 -3.802745683979343 -7.92298412134189 -5.312958887559844 0 0 0
1973 625 2 0 -3.6983215991395615 -7.523373293680321 -5.478881326856583 0 0 0
2858 920 2 0 -8.971853486611126 -6.908282069148475 -5.85474767362132 1 1 1
2860 920 4 0 -8.875781876855479 -6.5051597352982915 -5.952663839180558 1 1 1
2818 906 4 0 -3.250793623963507 -6.956047900975103 -5.721355756616773 0 1 1
1975 625 4 0 -3.5821703795480238 -7.127250994142255 -5.652169833624806 0 0 0
1183 361 4 0 -3.5428629066335335 -6.323675709953527 -4.998016956539125 0 1 0
1181 361 2 0 -3.9172026056272373 -6.068086640806387 -4.96067755747408 0 1 0
1182 361 4 0 -4.281677919126063 -5.828376581666613 -4.925531645292301 0 1 0
373 91 4 0 -10.24827150869308 -4.93058498762132 -4.585593135197541 0 0 0
2137 679 4 0 -7.928423037535329 -4.453022405033663 -5.290782682140093 1 0 0
984 295 4 0 -7.602335294888801 -4.595698281509576 -5.071444983336474 0 1 0
1065 322 4 0 -6.764804891726967 -5.369892304317638 -5.132209392813599 0 1 0
985 295 4 0 -6.835362195524005 -4.984392310929311 -5.034538415478944 0 1 0
983 295 2 0 -7.221890203826589 -4.793557477736432 -5.054304333867956 0 1 0
1064 322 2 0 -6.339401634066967 -5.4654464729157075 -5.194910057773519 0 1 0
2357 753 2 0 -5.060969435297082 -5.629898339670991 -5.115949755765613 1 0 0
2358 753 4 0 -4.632363613916516 -5.659026529341677 -5.00092374045455 1 0 0
1066 322 4 0 -5.8898953684020245 -5.576851084948004 -5.2466125473073175 0 1 0
2359 753 4 0 -5.497753653533994 -5.595273141054692 -5.237375473455156 1 0 0
2993 965 2 0 -3.725349727752561 -4.610133330111255 -4.61175275099655 0 1 0
2731 877 4 0 -9.307117860750683 -4.08778630551949 -5.935314740511151 1 0 0
2729 877 2 0 -9.401018389756253 -3.643968062157514 -5.969009877252858 1 0 0
1234 378 4 0 -8.386121834881772 -3.2989287970601686 -5.234227146466513 0 1 0
2135 679 2 0 -8.111568169350777 -4.049435681300979 -5.370734547781305 1 0 0
2136 679 4 0 -8.309528287098699 -3.641281630583203 -5.460260558005628 1 0 0
1512 471 4 0 -3.474683339107836 -3.1432918764784685 -5.519835235538017 0 1 0
2013 638 4 0 -3.247705302295103 -3.3423940732913597 -5.235958723235459 0 0 0
2012 638 2 0 -3.56535061997603 -3.683375991699046 -5.1748009310780105 0 0 0
2014 638 4 0 -3.860517605367329 -4.0176040287162165 -5.108603696974225 0 0 0
2994 965 4 0 -3.910816336141961 -4.378908732200887 -4.9405928111712685 0 1 0
1470 457 4 0 -0.12881637042326688 -3.0067254262654757 -4.407999840581853 0 0 0
3043 981 4 0 -10.388268117449943 -2.0698298642626765 -6.20994285338313 1 0 0
1021 307 4 0 -8.969261808372208 -2.5546561685680027 -4.764261835689634 0 1 0
1232 378 2 0 -8.487759852659105 -2.992506354530349 -4.941985216551932 0 1 0
1233 378 4 0 -8.602488239560156 -2.6564139404429046 -4.617607787577169 0 1 0
2759 887 2 0 -5.185492007177906 -1.578974628242366 -5.868784236242693 0 0 0
1173 358 4 0 -5.254731962281666 -2.3113798106668377 -5.181147679380179 0 0 0
1172 358 2 0 -5.2948493901893094 -2.024797338215194 -4.819726449127409 0 0 0
443 115 2 0 -5.654021862554287 -2.6674211963104906 -5.688665780365307 0 0 0
444 115 4 0 -5.446442852521901 -2.6230278978131545 -5.288630406012368 0 0 0
1511 471 2 0 -3.3519132815053796 -2.7235434916515397 -5.652039874862628 0 1 0
1513 471 4 0 -3.222430881862341 -2.3082492972084236 -5.784617186693521 0 1 0
1090 330 4 0 -2.897343992382531 -2.070023315381182 -5.802344856562222 0 0 0
1088 330 2 0 -2.706853140855653 -1.6649365410090826 -5.67350432573375 0 0 0
1089 330 4 0 -2.5077637296103656 -1.2601868630637842 -5.551830236246016 0 0 0
2495 799 2 0 -9.307265156290335 -0.0715014610082426 -5.801448528606588 1 0 0
2497 799 4 0 -9.54852628584736 -0.20219806956306666 -5.428386502731001 1 0 0
304 68 4 0 -10.107700316362786 -0.3702551721389869 -4.617368710665716 0 0 0
1259 387 2 0 -4.639080225412446 -0.6296481061633206 -5.865989904240422 0 0 0
2761 887 4 0 -4.957952202325224 -1.3088142939419363 -5.531039726259335 0 0 0
1260 387 4 0 -4.7845172530132904 -1.0506702676821875 -5.78308834017579 0 0 0
1261 387 4 0 -4.506630808356381 -0.20952103568624314 -5.93935530456321 0 0 0
406 102 4 0 -2.119046989888417 -1.2661842768978986 -5.397587864836904 0 0 0
404 102 2 0 -1.9578422394911081 -1.185339390920971 -4.983859528432202 0 0 0
405 102 4 0 -1.7900747451250891 -1.1113588512803871 -4.549148761925401 0 0 0
1045 315 4 0 -0.41193565684797423 -1.2827649078468335 -5.599618597397696 0 0 0
1043 315 2 0 -0.8112593462989255 -1.2387740385882744 -5.841744949347358 0 0 0
1081 327 4 0 -0.09581275454241762 -1.5226581176560388 -5.418160155997189 0 0 0
2316 739 4 0 -10.015555973107162 -10.209412383874755 -3.0876396734422795 1 0 0
2315 739 2 0 -10.010369892252344 -10.126775822954926 -3.533149110897038 1 0 0
928 276 4 0 -4.072642679736151 -9.073614358378157 -3.5277979898061966 0 1 0
937 279 4 0 -3.6645200834780574 -9.157453222821804 -3.5684138434128956 0 1 0
935 279 2 0 -3.187072420856946 -9.128991180982334 -3.5951959097732757 0 1 0
936 279 4 0 -2.737412032742247 -9.108176297639528 -3.634715930841539 0 1 0
1115 339 2 0 -1.7456118452956293 -10.29391515217907 -3.2715444538365452 0 1 0
2781 894 4 0 -2.390529285575739 -9.062420513914823 -3.8091517940935216 0 1 1
2780 894 2 0 -2.105895935011251 -9.308232797551081 -3.5887854115724798 0 1 1
2782 894 4 0 -1.8232712103275137 -9.560288289695304 -3.3700981160530032 0 1 1
1117 339 4 0 -1.7934776796614516 -9.9288263304561 -3.5399172757290516 0 1 0
927 276 4 0 -4.441006332625269 -8.64555278501054 -4.200502784095282 0 1 0
1633 511 4 0 -4.492358109948041 -8.349754799288085 -4.447775937901589 0 1 1
926 276 2 0 -4.250587855791685 -8.866017324762606 -3.8593487798925117 0 1 0
496 132 4 0 -5.067565261756721 -6.118518062708394 -3.2765144991338 0 0 0
2263 721 4 0 -3.356440393734949 -5.917763382918864 -3.0108280906816973 1 -1 0
643 181 4 0 -10.071415203052982 -5.4108404082553285 -3.550702862523886 0 0 0
372 91 4 0 -9.946888871210668 -5.055162213017281 -3.742480766850747 0 0 0
641 181 2 0 -9.947142544681652 -5.745624496566108 -3.2922599620214967 0 0 0
371 91 2 0 -10.095881906447433 -4.991984995316198 -4.168984582073753 0 0 0
642 181 4 0 -9.820631260886154 -6.0940794070717805 -3.027773323446138 0 0 0
1324 408 4 0 -6.472138237964108 -4.577127900658902 -4.059552545731201 0 1 0
1322 408 2 0 -6.328386916850691 -4.965605345720805 -3.8634048220697745 0 1 0
1192 364 4 0 -5.0269873153083005 -5.749126082858529 -3.4295251761929126 0 1 0
1323 408 4 0 -6.200283527119585 -5.336346924363288 -3.6835350430881864 0 1 0
1190 364 2 0 -5.443383846459303 -5.516638809126972 -3.471519765346123 0 1 0
1191 364 4 0 -5.819921372706558 -5.313505750660981 -3.509048220908836 0 1 0
2995 965 4 0 -3.532238976437654 -4.855909112685134 -4.267770163868366 0 1 0
1333 411 4 0 -3.6359488573393635 -5.081665031219238 -3.9591291868513325 0 0 0
1331 411 2 0 -3.547378863402105 -5.43898726778648 -3.6566446004450213 0 0 0
1332 411 4 0 -3.4627104048684996 -5.767275739508695 -3.374395950689808 0 0 0
1731 544 4 0 -1.0923497178739463 -0.887544708988405 -0.7774871726275111 0 -1 0
1525 475 4 0 -6.502757730024797 -4.174244384377309 -4.026703060015854 0 0 1
1523 475 2 0 -6.294575408244229 -3.7769055742300033 -4.052136616376844 0 0 1
1524 475 4 0 -6.081908379589451 -3.3744178563717284 -4.079599829992686 0 0 1
2763 888 4 0 -5.925893309839055 -3.112640229957163 -3.8357502959163243 1 0 0
2270 724 2 0 -0.8158707731240974 -3.9846319117380165 -3.2828876672062175 1 0 0
2272 724 4 0 -0.8467437208197994 -3.7362972862266326 -3.6276890491536955 1 0 0
1471 457 4 0 -0.7846085714869022 -3.423942337523736 -3.8577064850082676 0 0 0
1469 457 2 0 -0.44907048328058946 -3.210414707601474 -4.135862772326464 0 0 0
2271 724 4 0 -0.7789250479810593 -4.25798123956639 -2.925580134776593 1 0 0
1019 307 2 0 -9.12891642045922 -2.124395024841294 -4.7086545239937045 0 1 0
1020 307 4 0 -9.28494300690419 -1.7182902295895055 -4.659772681683582 0 1 0
1098 333 4 0 -6.350153970490965 -1.7076236843153438 -3.721732652825298 0 0 0
1097 333 2 0 -6.779452712411265 -1.5487210393923094 -3.6902588549923685 0 0 0
1099 333 4 0 -7.19212756177495 -1.3943436416794077 -3.6640433937120136 0 0 0
74 15 3 0 -6.060306621627742 -1.4458697229128659 -3.6664883556810968 0 0 0
1174 358 4 0 -5.332241457449579 -1.7497271372114451 -4.459204487179718 0 0 0
2762 888 2 0 -5.672571363846312 -2.7202732614351506 -3.810426341491282 1 0 0
72 15 3 0 -5.635540243089557 -1.6366406445751316 -4.239835904188365 0 0 0
2764 888 4 0 -5.417778429868953 -2.3389946813260765 -3.796152390478312 1 0 0
71 15 1 0 -5.652917332290688 -1.6027385146042128 -3.788904676564692 0 0 0
75 15 3 0 -5.5807106945097145 -2.0126106530308174 -3.599500327681489 0 0 0
2480 794 2 0 -0.9228493489558818 -1.9939115708508257 -3.1137713390192094 1 0 0
2481 794 4 0 -0.8658794454112706 -1.5994999182954621 -3.312215496910345 1 0 0
2482 794 4 0 -0.9748118361055756 -2.390194014062075 -2.9144192715410373 1 0 0
474 125 4 0 -9.72254876327456 -0.5268674227302967 -4.536947662999982 0 0 0
475 125 4 0 -9.456469348135839 -1.389346452855009 -4.4779574891273 0 0 0
473 125 2 0 -9.583125390858807 -0.9754972590519705 -4.506385259317419 0 0 0
1666 522 4 0 -7.587110842957491 -0.17595629055142795 -2.8946843766043195 0 0 1
982 294 4 0 -7.757409649465898 -0.29993625053750445 -3.2370352397594413 1 0 0
980 294 2 0 -7.539241927705815 -0.668375340904823 -3.382643112253937 1 0 0
981 294 4 0 -7.322392236722516 -1.0316595898052576 -3.5341340031499495 1 0 0
73 15 3 0 -5.325253591081949 -1.315252299678108 -3.6482766994412934 0 0 0
1423 441 4 0 -4.975919411031425 -1.1118600957249267 -3.602465054225737 0 0 0
1421 441 2 0 -5.040264665797347 -0.6656086798798744 -3.6958260609988605 0 0 0
2260 720 4 0 -5.358004765165869 -0.005560958144055434 -3.6158219143017805 1 0 1
1422 441 4 0 -5.0991738781519365 -0.24561733466315325 -3.786901872025484 0 0 0
2428 776 4 0 -1.6632276320430794 -1.167943005190664 -4.169879178922361 1 0 0
2426 776 2 0 -1.3362884616276378 -1.3178953424278026 -3.913108491569491 1 0 0
2427 776 4 0 -1.005523192859124 -1.4686702337650341 -3.6550668195959184 1 0 0
2870 924 2 0 -10.215080684848719 -9.334894111293714 -1.9869272153018362 1 0 0
2871 924 4 0 -9.806609669225654 -9.31890484206668 -1.7572459275610794 1 0 0
845 249 2 0 -9.131476121749571 -9.379115022760725 -1.5610748696788888 0 0 0
846 249 4 0 -9.462118342937105 -9.433012516586343 -1.8446092422227203 0 0 0
1816 572 4 0 -5.891697717144039 -10.032445158900131 -1.7030513958147122 1 0 0
954 285 4 0 -0.10960408627280516 -0.6809273374703709 -2.002764918751791 0 1 0
1814 572 2 0 -5.576582484017467 -9.697011317315301 -1.723374711878968 1 0 0
1557 486 4 0 -4.9055318221963 -9.235675122550383 -1.5871401190764243 0 1 0
2664 855 4 0 -2.6370127703793367 -8.304353276375503 -2.1437507190199563 0 1 0
2298 733 4 0 -2.9049039105418215 -7.554972337128129 -1.7802943664096929 0 0 0
2663 855 2 0 -2.292191699682889 -8.400020591019404 -2.3473197235125514 0 1 0
123 25 3 0 -1.5540686926089844 -8.374492935385936 -2.585504547623923 0 0 0
2665 855 4 0 -1.9351467189785958 -8.500283940340966 -2.5623045866706393 0 1 0
125 25 3 0 -1.184442674517952 -7.731638254224624 -2.4749688948292 0 0 0
124 25 3 0 -1.2904992952482477 -8.224009022153854 -1.8986283525562344 0 0 0
121 25 1 0 -1.2158199209211773 -8.183087711368733 -2.3601102112317958 0 0 0
1784 562 2 0 -0.1283794388827532 -8.44264803846364 -2.225715969834502 0 0 0
1785 562 4 0 -0.558075275165878 -8.266590701845606 -2.1857872191054843 0 0 0
122 25 3 0 -0.8281286913268326 -8.39800193658311 -2.4577709226470215 0 0 0
2998 966 4 0 -0.9773239645459861 -7.432809856720737 -2.282666045087531 0 0 1
1429 443 4 0 -1.382653102530216 -8.363673983083212 -1.5483263089141512 0 0 0
1850 584 2 0 -10.408389567437741 -6.025798128108639 -2.3663802065936963 1 0 0
494 132 2 0 -4.971800934175577 -6.31516352313747 -2.8614649034710706 0 0 0
495 132 4 0 -4.8853739958829365 -6.501536692556983 -2.4748104675272495 0 0 0
527 143 2 0 -4.890665717439129 -6.585871899931224 -1.698968880016152 0 0 0
529 143 4 0 -4.75375481240997 -6.599082956388798 -2.1302059571458236 0 0 0
2261 721 2 0 -3.129242405974888 -6.226054153717916 -2.7404690661887616 1 -1 0
2262 721 4 0 -2.910256012372578 -6.511277349238128 -2.4924379304361657 1 -1 0
2328 743 4 0 -2.7701821993657685 -6.5798411487986765 -2.1248418828324853 0 0 0
2327 743 2 0 -2.692324165518926 -7.014095771421598 -2.0647768704706193 0 0 0
1819 573 4 0 -1.7406007867697373 -6.457364433536874 -2.1184086184184734 0 0 0
1817 573 2 0 -1.6763585860149521 -6.01312492077741 -2.1231218944275767 0 0 0
2329 743 4 0 -2.6082297759519397 -7.461500903883782 -2.0120663463748483 0 0 0
2997 966 4 0 -1.4242395966646548 -6.677448701353874 -2.0768281608538244 0 0 1
2996 966 2 0 -1.2098073113071806 -7.043204541002549 -2.1816182341143135 0 0 1
1852 584 4 0 -10.091285600872904 -6.042557321470162 -2.705095792584236 1 0 0
1767 556 4 0 -1.7584948845646204 -5.2078607521473295 -2.0843858073353254 0 0 0
1818 573 4 0 -1.6140983879628028 -5.566384087507499 -2.1321823010282475 0 0 0
1959 620 4 0 -0.16533211872548054 -5.701574904789851 -2.887390989593536 -1 0 0
1766 556 2 0 -1.4122097103618998 -4.926546918887298 -1.9826133474083687 0 0 0
1768 556 4 0 -1.0660551527176723 -4.654737808056775 -1.8797255702410982 0 0 0
1886 596 2 0 -0.5746236747412841 -4.986069459684269 -2.845132142853983 0 0 0
1888 596 4 0 -0.8887457174145198 -4.644714460526951 -2.796096013305478 0 0 0
1887 596 4 0 -0.2737167234513518 -5.320796407407393 -2.893762964141819 0 0 0
2291 731 2 0 -0.8855440312958868 -2.247292894575702 -0.1084880756341464 0 0 0
962 288 2 0 -10.250685870452921 -3.0746444511111735 -2.7299811837650205 0 0 0
150 30 3 0 -9.846657306876637 -3.1051982138400094 -1.4439388092213914 1 0 0
1386 429 4 0 -0.9740278707359964 -4.315244119341375 -2.0287658429828443 0 0 0
1387 429 4 0 -0.6324869395491024 -3.4980191367071485 -1.9358012292281936 0 0 0
1385 429 2 0 -0.8097774492421932 -3.9156828563402484 -1.9837382601993991 0 0 0
685 195 4 0 -0.5750676283571736 -3.198674730634992 -2.2019303340844125 0 0 0
146 30 1 0 -10.203271673772033 -2.94779229512244 -1.6395346068446628 1 0 0
147 30 3 0 -10.099949005604794 -2.7976906134864636 -2.0372542057964087 1 0 0
963 288 4 0 -10.014723346913149 -2.8385116543275655 -2.413624418249339 0 0 0
1363 421 4 0 -0.30687315802444315 -2.3281404183086183 -0.6269477637993071 0 0 0
683 195 2 0 -0.7079401065363459 -2.972875982568812 -2.5618493204944257 0 0 0
684 195 4 0 -0.8411376468517835 -2.7662515860954393 -2.915147941544052 0 0 0
1361 421 2 0 -0.18321954817173491 -2.189458381511751 -1.0441116239618928 0 0 0
953 285 2 0 -0.1651391392661371 -0.2546645502602191 -1.8075147795503914 0 1 0
448 116 4 0 -8.630362591432146 -9.569112554966688 -0.9892863847773682 0 0 0
847 249 4 0 -8.778341824539465 -9.33162828333646 -1.2721411705699586 0 0 0
446 116 2 0 -8.300937681699635 -9.393228355183389 -0.7936261762128851 0 0 0
447 116 4 0 -7.958993822926126 -9.21824947974158 -0.5774734728936463 0 0 0
33 7 3 0 -7.610937327254779 -8.998590075122673 -0.5969539810670974 0 0 0
1083 328 4 0 -6.637068172597973 -9.160907481689804 -0.3474080804657034 0 1 0
1082 328 2 0 -6.505405201367663 -9.541585088521648 -0.18309961984615913 0 1 0
32 7 3 0 -6.894998867285693 -8.867188752261063 -0.45636723441025107 0 0 0
1815 572 4 0 -5.2582636138820105 -9.358243886238768 -1.7321710725493495 1 0 0
2351 751 2 0 -3.3193081299987113 -9.23437600687395 -0.12829320245323894 0 0 0
2352 751 4 0 -3.6255705299621988 -8.913169596979747 -0.26994228537586407 0 0 0
1187 363 2 0 -1.2708750731497247 -9.37724448218254 -0.37472940877115035 0 0 0
31 7 1 0 -7.301846674351992 -8.681601280213362 -0.5990729379131859 0 0 0
34 7 3 0 -7.418428088654473 -8.348205834347466 -0.3259738205369817 0 0 0
35 7 3 0 -7.251040512197252 -8.519058001599992 -1.0206045663284016 0 0 0
1556 486 2 0 -4.801679587659678 -8.861344669311118 -1.3531752760787394 0 1 0
1558 486 4 0 -4.697117644502762 -8.500392786308874 -1.1301255642431483 0 1 0
17 4 3 0 -3.8401736991825537 -8.802288820512588 -0.5757833512240904 0 0 0
20 4 3 0 -4.3039198585432406 -8.481149085661787 -1.0550361794800518 0 0 0
2299 733 4 0 -3.438512318901183 -8.097748096706324 -1.3512936352314933 0 0 0
19 4 3 0 -3.5746063543916966 -8.46462541894446 -1.1892939910153597 0 0 0
16 4 1 0 -3.8980097020534665 -8.448356673621724 -0.8672111698562711 0 0 0
18 4 3 0 -3.865003750141163 -8.080551690233072 -0.6602069206974678 0 0 0
337 79 4 0 -3.970921819241239 -7.829529298228627 -0.3996364025091731 0 0 0
335 79 2 0 -3.755233042289096 -7.463950442741355 -0.26176622283593876 0 0 0
2297 733 2 0 -3.16250440065584 -7.813532720804937 -1.5749216901278458 0 0 0
1189 363 4 0 -0.9949296298477577 -9.32709460209438 -0.7223179798897945 0 0 0
1428 443 4 0 -1.136688894542539 -8.950026619097716 -0.8799416155019032 0 0 0
1427 443 2 0 -1.2555420025729642 -8.66071099138887 -1.2096446174980047 0 0 0
2292 731 4 0 -0.6849200067596349 -2.2735243362209387 -0.46516209149465093 0 0 0
1076 326 2 0 -9.985199138205196 -6.22167925330535 -0.3271623793129504 0 0 0
584 162 2 0 -5.275792613354467 -6.282711885470233 -0.7300700069856276 0 0 0
586 162 4 0 -5.343093894190285 -6.561199557160117 -1.0726070843723445 0 0 0
528 143 4 0 -5.012287513416992 -6.573439888025515 -1.3018354418065365 0 0 0
2380 760 4 0 -3.1520039611808897 -6.9873200554088255 -0.25053848472929124 0 0 0
336 79 4 0 -3.520924696242288 -7.07807227534053 -0.11456299038801637 0 0 0
2378 760 2 0 -2.8512886178927572 -6.829988272829554 -0.5783831787990926 0 0 0
1789 563 4 0 -2.1781344354162044 -6.761852064547691 -0.9208495854375324 0 0 0
1787 563 2 0 -1.7243774560794993 -6.702479819483963 -0.8726400620181285 0 0 0
2379 760 4 0 -2.554213542995805 -6.670726929610422 -0.9270552259172552 0 0 0
1788 563 4 0 -1.279416402279096 -6.654680591610944 -0.8305437889752773 0 0 0
1608 503 4 0 -1.1054499032843403 -6.759577535847778 -0.49062843534204215 0 1 0
1607 503 2 0 -0.6819856702273939 -6.694756414057179 -0.5261299727593558 0 1 0