LAMMPS data file via write_data, version 4 Feb 2025, timestep = 4000000, units = lj

2000 atoms
4 atom types
1500 bonds
1 bond types
1750 angles
2 angle types

-8.346487 8.346487 xlo xhi
-8.346487 8.346487 ylo yhi
-8.346487 8.346487 zlo zhi
8.526512829121202e-14 0 0 xy xz yz

Masses

1 1
2 1
3 0.1
4 0.1

Bond Coeffs # harmonic/omp

1 100 0.45

Angle Coeffs # harmonic/omp

1 100 180
2 100 109.471

Atoms # full

2 1 3 0 -1.2082758441659927 -7.925778728585993 -7.738585511719845 12 0 0
1 1 1 0 -1.0037563060554922 -7.734107637359029 -8.099216413240805 12 0 0
4 1 3 0 -0.5579622786377127 -7.834961833128835 -8.076875216436056 12 0 0
1736 412 4 0 -0.167456552221239 -7.9559784706359 -8.143499090677807 28 1 0
950 190 3 0 0.9273224007179053 -8.123346390206395 -8.33714299453064 29 1 1
946 190 1 0 1.3008061117277556 -8.155298123753493 -8.069272419236258 29 1 1
948 190 3 0 1.1829954268923633 -8.29051923082569 -7.657903281466682 29 1 1
949 190 3 0 1.5070370982041155 -7.734864882459556 -8.044093809147249 29 1 1
1277 259 4 0 1.8025025254385305 -7.4700635190277795 -8.043304737367524 8 0 0
1629 377 2 0 -1.5358945305656935 -6.7275072590666065 -8.204162659311612 10 0 0
1631 377 4 0 -1.2399616424891695 -6.951247344523293 -7.961623384349291 10 0 0
3 1 3 0 -1.061072387339843 -7.284046854253814 -8.084283255408268 12 0 0
255 51 3 0 1.285027114336975 -7.061155624657727 -7.627864095034446 9 0 0
254 51 3 0 1.7939343743643246 -6.537635510180587 -7.568050336568567 9 0 0
251 51 1 0 1.3803323494361397 -6.697502271530748 -7.424433566234204 9 0 0
1377 293 2 0 -7.354380919607856 -5.755875761039357 -8.019250785126603 8 0 0
1601 367 4 0 -5.776260513129417 -5.847540105014856 -7.748900354686374 7 0 1
1134 227 3 0 -6.062556057072443 -5.5748724276269 -7.67416648848703 27 1 1
1599 367 2 0 -5.4557218206927 -5.946255377108007 -8.027425493271757 7 0 1
1600 367 4 0 -5.123783363581684 -6.0431164576612995 -8.333330259251849 7 0 1
443 89 3 0 -4.784180658172112 -6.233226669011238 -8.266548270848363 8 0 1
944 189 3 0 -2.4756097670584696 -5.783934298923717 -7.8750429166673825 9 0 1
941 189 1 0 -2.288697919252167 -5.931033030064757 -8.262234756969205 9 0 1
942 189 3 0 -1.9957171070408712 -6.2688963899412125 -8.17597221843762 9 0 1
253 51 3 0 1.077933771961364 -6.3934414280541345 -7.51533791602039 9 0 0
1329 277 2 0 1.824262411012958 -5.949468535668779 -8.097792234962503 7 0 0
1331 277 4 0 1.9357883138212912 -6.206900824217145 -7.759406870568299 7 0 0
732 147 3 0 5.636091770070806 -5.82755341067752 -8.081929853716463 8 0 0
1750 417 4 0 5.949110893466692 -5.881911598570174 -7.841266521308836 14 0 0
1749 417 2 0 6.4073416044967875 -5.900702587717203 -7.7636078399417245 14 0 0
1751 417 4 0 6.8372778844048 -5.912199983354908 -7.690662075537511 14 0 0
215 43 3 0 6.991045466610434 -5.602426231845865 -7.5201112056764945 14 0 0
214 43 3 0 7.65742447379316 -5.903487995825847 -7.616854424326263 14 0 0
1378 293 4 0 -7.180827003724086 -5.519999263976688 -7.664557246952891 8 0 0
1133 227 3 0 -6.774925735181078 -5.4419798751256705 -7.69837206153936 27 1 1
1131 227 1 0 -6.425301161554465 -5.504823936740045 -7.419559693024827 27 1 1
160 32 3 0 0.31383933999720703 -5.142222851900582 -8.060893826418761 10 0 0
156 32 1 0 0.1962850118807804 -5.241218673445694 -7.645831928489412 10 0 0
157 32 3 0 -0.2410181608455204 -5.403574784647217 -7.646859804905139 10 0 0
1304 268 4 0 -0.010745720047328433 -5.251123147440751 -8.241441540429228 10 0 0
159 32 3 0 0.47683280355837177 -5.547864466303338 -7.490632924593492 10 0 0
731 147 1 0 5.4744410176928575 -5.397646763664328 -8.100374961376403 8 0 0
735 147 3 0 5.296976412347659 -5.291436226974961 -7.699698551578131 8 0 0
733 147 3 0 5.806095164545502 -5.125686144845009 -8.204573645328841 8 0 0
1375 292 4 0 6.1070568203680455 -4.889019979880311 -8.241600331530837 7 0 0
1575 359 2 0 8.124902171945891 -4.810971462072694 -7.582786176094238 10 0 1
1535 345 4 0 -6.320557760095819 -3.8962880626391483 -7.884727165948141 8 0 1
870 174 3 0 -6.108125725480779 -4.0523315975679095 -7.597541660875454 10 0 1
869 174 3 0 -5.388270572655154 -3.969705531909728 -7.716277964828748 10 0 1
1976 492 4 0 -2.5324950569439784 -4.3708343238669185 -7.908218832416556 30 1 1
858 172 3 0 -2.3658480910666038 -4.352448721673653 -7.5364836417141525 12 0 0
1974 492 2 0 -2.355250325901671 -4.346455966316062 -8.312101168639122 30 1 1
1005 201 3 0 1.8071092577425087 -4.307020843090209 -8.270363886950395 30 1 1
1374 292 2 0 6.360032263781079 -4.57818099323157 -8.039863747395362 7 0 0
1376 292 4 0 6.601562737719773 -4.268022131538564 -7.8443154023018336 7 0 0
1057 212 3 0 6.938614543021192 -4.033263584988782 -7.849141852999652 11 0 1
1060 212 3 0 7.593367016630129 -3.739937366968725 -8.132389562686544 11 0 1
1577 359 4 0 8.307685331910932 -4.459978854001705 -7.817306211755837 10 0 1
1534 345 4 0 -7.096165958686754 -3.4949757093753044 -8.223345342797417 8 0 1
1533 345 2 0 -6.707822044189516 -3.6938251477384325 -8.048004199686927 8 0 1
27 6 3 0 3.9524038160160835 -3.573286987289954 -8.229083678030696 11 0 0
250 50 3 0 5.899448349947891 -3.1800918389427313 -7.647607903109015 12 0 0
246 50 1 0 5.879026645846842 -2.9182323742885004 -8.003117120588943 12 0 0
249 50 3 0 5.887875095463338 -3.166657796928975 -8.345085920440047 12 0 0
1058 212 3 0 6.932219856214452 -3.4570400761973445 -8.33021288956079 11 0 1
1056 212 1 0 7.169873672915333 -3.6328752464327154 -7.994215465556545 11 0 1
1059 212 3 0 7.194791074417722 -3.3208238999503266 -7.64902006183298 11 0 1
1879 460 4 0 7.419712158929727 -2.99742860035785 -7.7655655954560805 27 1 1
907 182 3 0 -7.874363205950167 -2.2601109729940907 -7.7948997845306565 28 1 1
906 182 1 0 -8.175643743505464 -1.9236239276890714 -7.7447503368580835 28 1 1
1461 321 2 0 4.884510559847342 -2.6206614702504973 -8.30114721674062 12 0 0
1462 321 4 0 5.174334206805511 -2.3987351256075398 -8.01911450859047 12 0 0
248 50 3 0 5.490358102072362 -2.666918867707073 -7.997730987109556 12 0 0
1351 284 4 0 6.300736592543592 -2.3411432657533195 -8.291253179938709 13 0 0
247 50 3 0 6.255020327248186 -2.620394579837935 -8.008991675064959 12 0 0
1878 460 2 0 7.57959892422055 -2.522073786269895 -7.775197826764091 27 1 1
909 182 3 0 8.115413003032575 -2.110221895507199 -7.630475721477363 27 1 1
1880 460 4 0 7.734896827749683 -2.077085176251699 -7.792034735059608 27 1 1
908 182 3 0 -8.220724771983786 -1.7002136045592362 -8.138526664746541 28 1 1
910 182 3 0 -8.039662270324353 -1.6601374230393482 -7.450411594803001 28 1 1
1524 342 2 0 -1.3486937786984683 -8.136459117740252 -6.987628990807186 9 0 1
1526 342 4 0 -1.4287149438881528 -8.11611690316914 -6.543598124471071 9 0 1
1525 342 4 0 -1.2672562702409644 -8.157054749367648 -7.418929245005738 9 0 1
678 136 3 0 -0.25816105853576055 -7.739191653971081 -7.129990922463633 28 1 0
710 142 3 0 2.2836380820716293 -8.141833499911078 -6.608971196159955 49 2 0
680 136 3 0 -0.6715041684320706 -7.124239570612255 -7.208242387372395 28 1 0
679 136 3 0 -0.3187289008509637 -7.251944300736805 -6.568887273824108 28 1 0
676 136 1 0 -0.291696049075334 -7.298506400572948 -7.01976403748157 28 1 0
677 136 3 0 0.07152569214227178 -7.0796220910465095 -7.166832041031524 28 1 0
1505 335 4 0 0.16483229509305986 -6.697490217369636 -7.250065506620908 9 0 1
252 51 3 0 1.3927629964889388 -6.7677588684221615 -6.988126672197772 9 0 0
1135 227 3 0 -6.4912978270652975 -5.856532641883314 -7.164964496840499 27 1 1
1503 335 2 0 0.33995664684275795 -6.269928061340005 -7.230622595008889 9 0 1
1504 335 4 0 0.5031151090923522 -5.847063018597589 -7.2171268600092 9 0 1
1813 438 4 0 0.8414027192500875 -5.658693520317294 -7.324056513876673 12 0 0
1812 438 2 0 1.131135128091211 -5.5922465504485315 -6.971895657333248 12 0 0
211 43 1 0 7.394050017601794 -5.654702603881896 -7.332387767174259 14 0 0
212 43 3 0 7.34800357125296 -5.877060302302728 -6.926432678253634 14 0 0
1132 227 3 0 -6.3615634001773795 -5.1418069449708845 -7.153108686407201 27 1 1
158 32 3 0 0.2245855928234235 -4.890613383494002 -7.410001176352052 10 0 0
1814 438 4 0 1.4245630007275167 -5.544930552232021 -6.600541659053762 12 0 0
519 104 3 0 1.8166522668702196 -5.458958253050827 -6.6730697116699265 7 0 1
517 104 3 0 2.117768197438153 -4.809200615681485 -6.6161377015655045 7 0 1
520 104 3 0 2.5362340218343817 -5.418381670617899 -6.543001639533454 7 0 1
1688 396 4 0 5.454066317733945 -5.335537235348111 -7.312040608220213 27 1 0
1686 396 2 0 5.6954906118728825 -5.0419426155796625 -6.99573914125719 27 1 0
1687 396 4 0 5.908098381742361 -4.8012054847408745 -6.735018989570711 27 1 0
39 8 3 0 6.269346869118207 -4.8754735448212045 -6.587369173440975 8 0 0
40 8 3 0 6.888154509970555 -5.068534583803546 -6.932794496580069 8 0 0
36 8 1 0 6.686797962481577 -4.956480393044757 -6.522024772773702 8 0 0
213 43 3 0 7.584411385474608 -5.250316936368096 -7.263990567717467 14 0 0
1576 359 4 0 7.944653838678825 -5.143451975919264 -7.3620210218327795 10 0 1
866 174 1 0 -5.721695123264331 -3.9391819614089236 -7.414449347091119 10 0 1
867 174 3 0 -5.62680779839517 -4.2074793994040975 -7.0687657311173915 10 0 1
857 172 3 0 -2.228134507030946 -4.533916233870802 -6.8446999868839855 12 0 0
856 172 1 0 -2.3131637649322103 -4.198742069816135 -7.1340559326823545 12 0 0
859 172 3 0 -2.7011311067062787 -3.983211784036577 -6.999941614361023 12 0 0
1291 264 4 0 -2.9755462211054375 -3.71272089506866 -6.92653630995546 13 0 0
860 172 3 0 -1.984170016425919 -3.921258876422531 -7.129845655483224 12 0 0
1165 233 3 0 -1.5628336540362842 -4.287652984428334 -6.637795383751207 26 1 1
1162 233 3 0 -1.2879007892660868 -4.117770807729586 -7.340815368424823 26 1 1
1163 233 3 0 -0.8790074789236257 -4.557402428123072 -6.869790190896808 26 1 1
1161 233 1 0 -1.1725744101990028 -4.200332541470029 -6.892608510018592 26 1 1
1164 233 3 0 -0.9633699225054793 -3.8148449749211357 -6.724977822513103 26 1 1
740 148 3 0 -8.098565513695107 -3.2313501237467133 -6.558295135230686 16 0 0
868 174 3 0 -5.752508536789085 -3.5379870898168484 -7.281510645758181 10 0 1
1290 264 2 0 -3.3085546141670195 -3.551731657141647 -6.654385570015918 13 0 0
1324 275 4 0 5.766837401542883 -3.5279381801644387 -6.554739304758188 14 0 0
1323 275 2 0 5.937666382399707 -3.4201264718836413 -6.9483544287834675 14 0 0
1325 275 4 0 6.118227594666484 -3.294500847222567 -7.326265658603524 14 0 0
48 10 3 0 -6.559778575582574 -2.2616884082445816 -6.9393111614664145 9 0 0
1109 222 3 0 -3.458087127321514 -2.5077592590063107 -7.16232806612589 27 0 1
1106 222 1 0 -3.4294905079257143 -2.36135101525322 -6.747068638301059 27 0 1
1107 222 3 0 -3.7366003989312384 -1.9832119634426872 -6.688663811015681 27 0 1
1110 222 3 0 -3.014806510365797 -2.2352367821965267 -6.660607629302353 27 0 1
494 99 3 0 -1.2714419273288504 -7.913264950410562 -6.224584296869958 31 1 1
492 99 3 0 -0.7996708596643902 -7.855428072286371 -5.653768709088481 31 1 1
491 99 1 0 -1.1802736730532155 -7.694104380307544 -5.838241698451975 31 1 1
1373 291 4 0 -0.3826340284693961 -7.827320496411966 -5.667627896995919 9 0 0
1371 291 2 0 -0.07749679724496517 -8.124397524428726 -5.789583150496252 9 0 0
707 142 3 0 2.029060211351114 -8.019755785280678 -5.935369100604493 49 2 0
708 142 3 0 1.93795503796356 -7.496100550092243 -6.416664635830022 49 2 0
706 142 1 0 2.2140530917101984 -7.8298381945548705 -6.2618854487625235 49 2 0
709 142 3 0 2.6379223948857966 -7.643242670440549 -6.121333091683186 49 2 0
493 99 3 0 -1.1401639895077906 -7.2508475513773645 -5.915032141501321 31 1 1
1988 496 4 0 0.03198464361549824 -7.07335454323579 -6.431001735681034 31 1 1
1986 496 2 0 0.22475957412768288 -6.947433375623197 -6.047689931056459 31 1 1
1987 496 4 0 0.42050279635741994 -6.823415050674093 -5.668452691594165 31 1 1
1849 450 4 0 1.4448722561458158 -6.511095187879688 -5.840109430547025 29 1 0
1848 450 2 0 1.654768766664695 -6.816264271554824 -6.119781223441262 29 1 0
1850 450 4 0 1.8421668082494183 -7.09092013458899 -6.375635261314795 29 1 0
1138 228 3 0 0.5431557933804569 -5.873936960418743 -5.8464144358013685 31 1 0
1139 228 3 0 1.2061520156909342 -6.198171650616228 -5.743667837405356 31 1 0
999 200 3 0 -7.838634417152563 -4.954481280874083 -5.728414902375855 10 0 0
997 200 3 0 -8.306440427671552 -4.647546818956711 -6.16296734087644 10 0 0
1307 269 4 0 -7.464413448646015 -4.951864626864495 -5.85516745235699 13 0 0
1305 269 2 0 -7.090218094679746 -4.807071557131724 -6.0275964847332535 13 0 0
1306 269 4 0 -6.704632823419707 -4.658310429588703 -6.222470738711342 13 0 0
1501 334 4 0 -5.272193712264446 -4.787860034107444 -6.00836124357328 10 0 1
516 104 1 0 2.1149376785192775 -5.2254426143650505 -6.465389324986023 7 0 1
518 104 3 0 2.024467902100554 -5.21912144480657 -6.000132693290858 7 0 1
1466 322 4 0 2.8466584356962787 -5.274199214542033 -6.3075210879122325 9 0 0
1464 322 2 0 3.23710342769691 -5.116266260630564 -6.188540189256736 9 0 0
1465 322 4 0 3.6333114324955584 -4.959223286120938 -6.060603148624713 9 0 0
755 151 3 0 3.985163645391868 -4.745510897514581 -6.064765159792279 9 0 0
753 151 3 0 4.679450526415756 -4.75065082775216 -5.8705236080823 9 0 0
1640 380 4 0 4.895261964546709 -4.977829784719345 -5.646206542530331 11 0 0
38 8 3 0 6.741038018603252 -5.312167146888326 -6.223919434370583 8 0 0
996 200 1 0 -8.111109387716397 -4.618025891228375 -5.777070710986882 10 0 0
1000 200 3 0 -7.861281456586633 -4.211631163443248 -5.745017094266549 10 0 0
1481 327 4 0 -7.579939323604824 -3.972299515245629 -5.8769570332993455 11 0 0
1479 327 2 0 -7.279175960127459 -3.8319606635078705 -5.569705161410886 11 0 0
578 116 3 0 -6.3618835619093055 -4.608088840117735 -6.029409892912865 13 0 0
576 116 1 0 -5.973679009373999 -4.493274645407995 -5.850508587261831 13 0 0
579 116 3 0 -5.9578382322747325 -4.042945466563093 -5.809523755561341 13 0 0
1268 256 4 0 -5.752034871677205 -3.72118850222523 -5.705761374911104 8 0 0
580 116 3 0 -5.6425127531167 -4.629703812621127 -6.106293193494364 13 0 0
1500 334 2 0 -4.916287911125725 -4.5238756943047065 -6.1783298101533894 10 0 1
1502 334 4 0 -4.588265161670224 -4.270614748006556 -6.345369659613051 10 0 1
683 137 3 0 -4.502149690121839 -3.93776904402468 -6.11510174491076 30 1 0
751 151 1 0 4.278134892850739 -4.57253342243635 -5.783696711194433 9 0 0
752 151 3 0 4.2922999591426265 -4.182374598581555 -5.833319704668768 9 0 0
408 82 3 0 5.346774386572838 -4.220327107760658 -5.889313509547037 10 0 0
406 82 1 0 5.505902702488282 -3.7776912982590893 -5.904750475863752 10 0 0
407 82 3 0 5.932645556387783 -3.7561308608556407 -5.761880564227234 10 0 0
37 8 3 0 6.8974410604213645 -4.580147294804535 -6.341570237458219 8 0 0
1393 298 4 0 7.22714756772648 -4.375401168786467 -6.38584698132662 13 0 0
1392 298 2 0 7.492783647993054 -4.051041070599975 -6.241108431043433 13 0 0
1394 298 4 0 7.7655814873787605 -3.731964394939598 -6.092891564476917 13 0 0
1604 368 4 0 -7.624005995449306 -3.144203855018178 -5.971649582163686 14 0 1
737 148 3 0 -7.970354443686892 -3.261190773853359 -5.840319258836133 16 0 0
736 148 1 0 -8.288481154982348 -3.2550117612467524 -6.166106015507074 16 0 0
1602 368 2 0 -7.320035316194865 -2.7855881189475413 -5.989349957750378 14 0 1
1266 256 2 0 -5.361171535535092 -3.528841370109376 -5.804966591225611 8 0 0
1267 256 4 0 -4.967802723045514 -3.3411931964891224 -5.896098829112546 8 0 0
681 137 1 0 -4.296468177287958 -3.6007614727742707 -5.910183982442965 30 1 0
685 137 3 0 -4.5843845063349065 -3.267841194312374 -5.863075581144329 30 1 0
682 137 3 0 -3.9631624611395537 -3.4691875923808517 -6.158357120881709 30 1 0
1292 264 4 0 -3.6517197493741467 -3.387499191445709 -6.371395614576262 13 0 0
410 82 3 0 5.47864998520525 -3.632370703336923 -6.319786466156832 10 0 0
409 82 3 0 5.240036998958608 -3.5055235881796385 -5.630731752553612 10 0 0
738 148 3 0 8.139954042161683 -3.658536518120984 -6.143057768943136 15 0 0
739 148 3 0 8.119349212822467 -2.893273172125607 -6.103973758164193 15 0 0
1603 368 4 0 -7.04855208093592 -2.4419202673139324 -6.00174573386113 14 0 1
50 10 3 0 -6.990092646899826 -2.24853720203724 -6.340864255251299 9 0 0
46 10 1 0 -6.58269257747429 -2.163855585230272 -6.489335502121408 9 0 0
49 10 3 0 -6.297693656631336 -2.3964395470339364 -6.276841997399958 9 0 0
1108 222 3 0 -3.537924696635957 -2.7039594174840005 -6.452245374453445 27 0 1
47 10 3 0 -6.507505989001473 -1.7689218073602575 -6.425472184471959 9 0 0
1111 223 1 0 -5.836566473847885 -7.576916463843968 -4.6904599898077795 29 1 0
1113 223 3 0 -5.8850140541696785 -7.989017546912269 -4.883799999481522 29 1 0
495 99 3 0 -1.523521723703185 -7.753965014699747 -5.5617564699109465 31 1 1
1436 312 4 0 -1.6494284527159806 -7.918300682576345 -5.196866633946945 8 0 0
1434 312 2 0 -1.7880887392512221 -7.80347597804561 -4.809165718711806 8 0 0
1448 316 4 0 1.8695250055862846 -7.903692030809145 -5.554571517806097 9 0 0
1446 316 2 0 1.5786666045849849 -8.233310277646382 -5.405908822650135 9 0 0
1112 223 3 0 -5.640172099205197 -7.292045661306767 -4.984002533914795 29 1 0
1747 416 4 0 -0.9173359844556392 -7.17877892774941 -5.553325421596455 30 1 0
1746 416 2 0 -0.7083118639260952 -6.85739631134497 -5.269808427016827 30 1 0
1748 416 4 0 -0.5145149267721392 -6.5520250584645545 -5.014300451566857 30 1 0
440 88 3 0 -0.12454643545547484 -6.548847312415456 -4.852731973605571 10 0 0
1140 228 3 0 0.6077060941060761 -6.549105897287564 -5.504728547702467 31 1 0
1136 228 1 0 0.8094087564020125 -6.140517131353207 -5.558591769364345 31 1 0
1137 228 3 0 0.8558140162979537 -5.934128901910311 -5.14528818951133 31 1 0
54 11 3 0 6.2671757864981235 -5.610284016195295 -4.967692985471981 13 0 0
318 64 3 0 -6.768028939515602 -4.991241591302574 -4.781990348668197 10 0 0
577 116 3 0 -5.933615876548123 -4.682333754002572 -5.450545264318091 13 0 0
1842 448 2 0 3.9322372009574895 -4.7551283028887825 -4.703981577449204 8 0 0
754 151 3 0 4.159697898556308 -4.677295927313615 -5.353881048738984 9 0 0
1638 380 2 0 5.309928259637115 -4.959961142995603 -5.407664554428593 11 0 0
1639 380 4 0 5.669002787005329 -4.94239147187845 -5.1883618975420935 11 0 0
52 11 3 0 5.969045333045745 -4.9232587987557475 -4.925156179662123 13 0 0
51 11 1 0 6.351270627050447 -5.161481640146327 -4.907106747525065 13 0 0
55 11 3 0 6.628351247072418 -5.0127619672033 -5.221799774120867 13 0 0
1415 305 4 0 7.03922504904066 -4.963210750548113 -5.33295541031071 8 0 0
1413 305 2 0 7.467034938400738 -4.8707089568616295 -5.431345025616936 8 0 0
1414 305 4 0 7.901674834114182 -4.76708565356393 -5.5217400713017195 8 0 0
684 137 3 0 -4.1409034996121 -3.738159428441552 -5.492968414102238 30 1 0
1844 448 4 0 3.8229342513247886 -4.561320366663022 -5.102738163354208 8 0 0
1511 337 4 0 6.1760985747374715 -3.817168367689158 -5.448363132968245 9 0 1
998 200 3 0 8.278793543384886 -4.625284322383035 -5.448071540418463 9 0 0
1779 427 2 0 -8.082633136341792 -3.1466407300331465 -4.834398593173654 11 0 0
1781 427 4 0 -7.681569820974068 -3.078799435579941 -4.6753152713467605 11 0 0
1480 327 4 0 -6.981362529442357 -3.702661480613896 -5.2729881385774915 11 0 0
562 113 3 0 -6.888669839901543 -3.394973945527978 -5.026536973109352 16 0 1
561 113 1 0 -6.972776226157242 -2.9975539255211885 -4.831773488567917 16 0 1
1142 229 3 0 0.9236915923856426 -3.516057679735397 -4.850579850749664 27 1 1
1144 229 3 0 1.1591144798572248 -3.2700121930826143 -5.525836413182342 27 1 1
1141 229 1 0 1.1153270111132638 -3.159691208785503 -5.073743112897539 27 1 1
1145 229 3 0 0.847379480145646 -2.793903806948528 -5.034280338832139 27 1 1
1143 229 3 0 1.5443576960387464 -3.056280909831603 -4.890989134658043 27 1 1
1509 337 2 0 6.5271917951130956 -3.5139686996324215 -5.444340752321944 9 0 1
1510 337 4 0 6.854597625500281 -3.2241090529113574 -5.437095071305469 9 0 1
1020 204 3 0 7.141884006470564 -3.021072668308639 -5.240884119782788 8 0 0
1016 204 1 0 7.589111573945534 -2.8581464161962584 -5.2127470261267375 8 0 0
1018 204 3 0 7.877162110653636 -3.211206125622004 -5.2392917887286306 8 0 0
1780 427 4 0 8.200961342276688 -3.220560922314996 -4.9856668274825 10 0 0
563 113 3 0 -7.055288524123448 -2.6889153139096695 -5.161809789240186 16 0 1
1230 246 3 0 -4.679049340879993 -2.4193919955140943 -4.716132879646058 15 0 1
1017 204 3 0 7.669780210651627 -2.57724588582051 -5.5593301354717655 8 0 0
1019 204 3 0 7.647756496779461 -2.6402126266057095 -4.827063598983942 8 0 0
1114 223 3 0 -5.573977541276895 -7.616715781288407 -4.325508533940213 29 1 0
446 90 1 0 -2.2863241545669695 -7.835676168605405 -3.7589759760736356 9 0 1
448 90 3 0 -2.5144718760919726 -7.430404682175769 -3.7279515436414794 9 0 1
450 90 3 0 -2.1664598618217887 -7.901630567000295 -4.199716480020947 9 0 1
1435 312 4 0 -1.937367712842164 -7.674467298571365 -4.402218157761886 8 0 0
560 112 3 0 1.4973668675497027 -7.917874391249688 -3.8367254543510887 8 0 0
556 112 1 0 1.7261874649303426 -7.538905991180019 -3.8404336253574662 8 0 0
559 112 3 0 1.8711448650178557 -7.450725264173162 -4.2507527243067 8 0 0
153 31 3 0 3.601163628197826 -7.9276986085838494 -3.7437435005927098 8 0 0
1993 498 4 0 3.28034113267376 -7.6685372598745465 -3.7754234319849855 29 1 0
1642 381 4 0 4.758006782478393 -7.789312527596678 -3.7545091308184464 32 1 0
1641 381 2 0 5.140379529807433 -7.992938131315655 -3.7236427756353185 32 1 0
725 145 3 0 6.483522763170832 -8.25669569497536 -4.165718070273839 30 1 0
1115 223 3 0 -6.2500604236664286 -7.417120360173265 -4.567564910999659 29 1 0
1489 330 4 0 0.3192713565603924 -6.855030027526888 -3.986999121605553 8 0 0
437 88 3 0 -0.02791630175907933 -6.745109868713965 -4.103164556582763 10 0 0
1488 330 2 0 0.7024805226747599 -7.050790920239513 -3.9377735985762747 8 0 0
1490 330 4 0 1.1067389940873316 -7.2470440423533935 -3.886463444055483 8 0 0
1409 303 4 0 2.123230942296372 -7.371615122499663 -4.567665638542798 9 0 0
1407 303 2 0 2.4142436744095868 -6.999503963260297 -4.500753435206895 9 0 0
1408 303 4 0 2.6760510693985413 -6.67387940427064 -4.445044563152252 9 0 0
261 53 1 0 -2.275605622595714 -5.585112643731843 -3.921506590764526 11 0 0
1363 288 4 0 -2.4294408946707797 -6.3622066927016 -3.7872270965995316 10 0 0
264 53 3 0 -2.0832231662570218 -5.676873776092431 -4.3319700332250735 11 0 0
438 88 3 0 -0.4265627382361199 -6.097404520279157 -4.314577269755765 10 0 0
436 88 1 0 -0.06205481321709172 -6.375895821228518 -4.426924717664914 10 0 0
439 88 3 0 0.30150421400251126 -6.1364581951478705 -4.419469815120449 10 0 0
1583 361 4 0 0.5861115509326051 -5.920836687812733 -4.279055816336306 13 0 0
1581 361 2 0 0.8695823901332904 -5.642032605136005 -3.992741340523035 13 0 0
750 150 3 0 2.838203113026072 -6.333344131654756 -4.305110564885708 13 0 0
746 150 1 0 2.946371803238364 -6.15904181275547 -3.928297384122108 13 0 0
747 150 3 0 3.158387775935333 -5.752132890395467 -3.9970995166566876 13 0 0
838 168 3 0 4.239019557545108 -5.938566930373598 -4.121077029362216 13 0 0
317 64 3 0 -6.940668524110409 -4.729832675808174 -4.133839934451305 10 0 0
316 64 1 0 -6.604190705168939 -4.873152598352078 -4.388114304509414 10 0 0
320 64 3 0 -6.393775987633999 -5.232403244497877 -4.188213628244976 10 0 0
265 53 3 0 -2.6594226484765935 -5.3851778909173245 -3.987451005608726 11 0 0
1265 255 4 0 -3.002908271566681 -5.185401489513163 -3.9475600584835604 8 0 0
1286 262 4 0 -1.642767331037394 -5.247118523235429 -3.897112740217093 9 0 0
1284 262 2 0 -1.2594611958475515 -5.006051286220462 -3.8516942128583445 9 0 0
1285 262 4 0 -0.8776258879435579 -4.767994230744181 -3.8036903178098767 9 0 0
120 24 3 0 -0.021092667457386582 -4.822867083640686 -3.855527602435199 10 0 0
1582 361 4 0 1.1460020102188917 -5.381748320474697 -3.728688678662894 13 0 0
1843 448 4 0 4.04990142221817 -4.956951957713485 -4.296672834051472 8 0 0
836 168 1 0 4.181379339137738 -5.555151839052872 -3.811544021316955 13 0 0
840 168 3 0 4.296169226831971 -5.152469260618138 -4.033141320182693 13 0 0
53 11 3 0 6.533738947673173 -5.115248973642929 -4.512892189928177 13 0 0
1332 278 2 0 6.826530317853694 -4.763302474808315 -3.964554494664691 12 0 0
1334 278 4 0 6.88521586709153 -5.10380933513331 -4.323050306962094 12 0 0
1253 251 4 0 -8.184559548482763 -3.735733655534858 -4.096370364008416 14 0 0
319 64 3 0 -6.306259645466746 -4.5466218265892575 -4.44233352554243 10 0 0
119 24 3 0 -0.6710241717756107 -4.447910486861268 -3.8224931757216885 10 0 0
117 24 3 0 -0.1349702126813579 -4.233973971118773 -4.293417366144002 10 0 0
116 24 1 0 -0.22286434204191075 -4.40817441716781 -3.8852695609047903 10 0 0
1251 251 2 0 8.169910582173674 -3.8366699531162674 -3.840838530287712 13 0 0
564 113 3 0 -7.319237548164093 -3.0363572658689257 -4.562820436930935 16 0 1
565 113 3 0 -6.608714756298617 -2.867737645811804 -4.588236203144561 16 0 1
1228 246 3 0 -4.558786398568076 -3.028111377009263 -4.3201756738950055 15 0 1
1295 265 4 0 -6.266930321781795 -2.702897064259412 -4.443408175909672 16 0 0
1293 265 2 0 -5.83263715174969 -2.5823393555182133 -4.359390764699271 16 0 0
1294 265 4 0 -5.387721618196959 -2.4607524733748756 -4.257087345155783 16 0 0
1229 246 3 0 -5.01092483288833 -2.5096591761296816 -4.084978330828416 15 0 1
1226 246 1 0 -4.636724972398062 -2.579478013928604 -4.30566010135969 15 0 1
1227 246 3 0 -4.291758565457733 -2.3616351810715006 -4.080658341638302 15 0 1
1634 378 4 0 -3.9667210135853974 -2.202712932158815 -4.238308131167964 14 0 0
1632 378 2 0 -3.6694691647092066 -2.1048364570307 -3.8862378410991063 14 0 0
1456 319 4 0 -1.2849066836812044 -2.416283965752376 -3.8078495966740498 13 0 0
1104 221 3 0 -0.9715990388745572 -2.2206965362800286 -3.994503409308047 13 0 0
1101 221 1 0 -0.6437731148902115 -1.876330723412445 -3.9311592236852633 13 0 0
1105 221 3 0 -0.29692991027542526 -1.9439350310315282 -4.22871179412729 13 0 0
278 56 3 0 -2.3749577604294014 -1.5819378253784508 -3.8200432603673384 13 0 0
1102 221 3 0 -0.8334670940215085 -1.4641171750994886 -4.005351786582838 13 0 0
447 90 3 0 -2.5433178502909124 -8.14918965256536 -3.6292130152935673 9 0 1
449 90 3 0 -1.925966318862276 -7.829074084298584 -3.4974315697912726 9 0 1
1438 313 4 0 -1.527049770179688 -7.847830965754791 -3.542926515514579 8 0 0
1437 313 2 0 -1.0776721170600077 -8.003971941548832 -3.5059547853380684 8 0 0
1439 313 4 0 -0.6674102690053578 -8.147788002628976 -3.4673922813697526 8 0 0
1422 308 2 0 1.0085079660867393 -8.306149813467385 -3.369331859775931 8 0 0
1424 308 4 0 1.3292417228170823 -8.056576615662074 -3.5003581606016105 8 0 0
557 112 3 0 2.1115426894350815 -7.583259702665271 -3.5466358901446426 8 0 0
1992 498 2 0 2.872746531334535 -7.7125796260637465 -3.591933074767664 29 1 0
1994 498 4 0 2.4542479258758707 -7.752537799171471 -3.400326111610827 29 1 0
155 31 3 0 4.347144943378062 -7.7384636216122065 -3.6915758519872615 8 0 0
154 31 3 0 4.048112799990877 -8.339589813426647 -3.2946669732823874 8 0 0
151 31 1 0 4.013200796247068 -8.099282802837083 -3.6963582003306605 8 0 0
1643 381 4 0 5.568631694675997 -8.205347582319076 -3.6989824082498934 32 1 0
723 145 3 0 5.968867533700367 -8.300939256718742 -3.6383983152601864 30 1 0
724 145 3 0 6.6896989984552935 -8.262717026532833 -3.433837731182331 30 1 0
1362 288 2 0 -2.4100629465874484 -6.754881669343727 -3.612067926917793 10 0 0
1364 288 4 0 -2.3895158183125753 -7.170725433121958 -3.4280834681462107 10 0 0
1366 289 4 0 -0.7510269779315291 -6.817284782018124 -3.217896390046702 29 1 0
697 140 3 0 -0.7533093995023492 -6.692148946977254 -2.8168267108315934 8 0 0
1367 289 4 0 0.027100428771543505 -6.850091502168355 -3.7084821621653905 29 1 0
1365 289 2 0 -0.3744527650478524 -6.830322456933454 -3.4558913124539554 29 1 0
558 112 3 0 1.4563341103484397 -7.194169449994826 -3.6898744912150105 8 0 0
1704 402 2 0 3.715602627206925 -6.59066262606212 -3.292475675582927 31 1 0
1705 402 4 0 4.1907355655734 -6.709598081078509 -3.306120276845726 31 1 0
453 91 3 0 4.382441650119883 -6.796154878560662 -2.9461289039635696 12 0 1
262 53 3 0 -2.3358328845223104 -5.958720523851302 -3.708664776606292 11 0 0
1406 302 4 0 1.982949257031482 -5.6195041439374105 -2.8280453276059143 9 0 0
749 150 3 0 2.5928260018815106 -6.09605842612174 -3.689465540466416 13 0 0
1404 302 2 0 2.227399015493919 -5.920643172791467 -3.076025695654746 9 0 0
1405 302 4 0 2.4483750351452613 -6.2140109880489725 -3.307054450138893 9 0 0
748 150 3 0 3.230559225234261 -6.440604522844909 -3.707222675088432 13 0 0
1706 402 4 0 3.2707687871588256 -6.485511970815976 -3.297989232183477 31 1 0
1765 422 4 0 3.5608379043140346 -5.77847589008205 -3.4080064176398466 9 0 0
1764 422 2 0 3.4211963524994253 -5.622718910751045 -2.981016576625697 9 0 0
837 168 3 0 4.424889246926913 -5.604762138843647 -3.472531633125101 13 0 0
365 73 3 0 -3.274062259064582 -4.917372520877368 -2.8768574353280068 9 0 0
1263 255 2 0 -3.234457283899885 -5.180371414237352 -3.526895643613206 8 0 0
1264 255 4 0 -3.451176740464965 -5.181710849642867 -3.150925879341859 8 0 0
263 53 3 0 -1.9964590841752123 -5.323303476781252 -3.677096830912241 11 0 0
369 74 3 0 1.3444007175768409 -5.122634393790966 -3.5167275898258747 10 0 0
367 74 3 0 1.4874734517004615 -4.654699329591067 -2.9685293098378125 10 0 0
366 74 1 0 1.6733706420368577 -4.936701014551208 -3.2451519832348 10 0 0
368 74 3 0 1.8874928998797298 -5.269489802415172 -2.998187150260753 10 0 0
370 74 3 0 1.969512357792853 -4.728412004684944 -3.4777960693011307 10 0 0
839 168 3 0 3.7142094417634013 -5.532111908815971 -3.6694428380813235 13 0 0
65 13 3 0 4.983608014104815 -4.853576732754849 -3.442262736391072 10 0 -1
118 24 3 0 -0.05487499905211379 -4.134675380676259 -3.5563168559627147 10 0 0
1609 370 4 0 2.214238740190881 -4.412979694747129 -3.472376870699607 9 0 0
1608 370 2 0 2.6297051633235853 -4.404460987137824 -3.3302269984689055 9 0 0
402 81 3 0 3.2728043847221837 -4.424934818885956 -2.8372424857197496 9 0 0
1610 370 4 0 3.078441847839228 -4.395480895490183 -3.1775985597591276 9 0 0
1336 279 4 0 3.433478935741457 -4.205417892883098 -3.1121614777712905 8 0 0
1335 279 2 0 3.784524406290654 -4.181606830067687 -3.356323800800965 8 0 0
1337 279 4 0 4.127561018248031 -4.164067638988147 -3.5892733948639606 8 0 0
64 13 3 0 4.470690137978318 -4.30531877299538 -3.438228599104315 10 0 -1