LAMMPS data file via write_data, version 19 Nov 2024, timestep = 1000000, units = lj

79 atoms
4 atom types
54 bonds
1 bond types
35 angles
2 angle types

-3.045986 3.045986 xlo xhi
-3.045986 3.045986 ylo yhi
-3.045986 3.045986 zlo zhi

Masses

1 1
2 1
3 0.1
4 0.1

Bond Coeffs # harmonic/omp

1 100 0.45

Angle Coeffs # harmonic/omp

1 100 180
2 100 109.471

Atoms # full

6 2 1 0 -2.89474198689697 -2.6179256288087185 -2.4112955545495476 0 1 0
35 11 2 0 -1.8879774953055066 -2.6541099836419577 -1.7909720898408752 0 1 1
10 2 3 0 -2.5779571013587788 -2.6726424651665677 -2.098603419231839 0 1 0
37 11 4 0 -2.3502408597463424 -2.55975111884745 -1.7874580373298987 0 1 1
26 8 2 0 -1.9411472501112408 -2.1540625572488663 -2.9434244565008285 0 0 1
28 8 4 0 -2.3559232891923867 -2.2366867396613683 -2.7895387534825495 0 0 1
8 2 3 0 -2.7108549006543354 -2.3969342893269125 -2.772558163028684 0 1 0
49 15 4 0 -0.42403454087771525 -2.759219882682445 -0.4701527486777337 0 0 0
36 11 4 0 -1.4490865398501498 -2.751875078461164 -1.7975112210722015 0 1 1
61 19 4 0 -0.31754346467601213 -1.7147555423487746 -2.8409157888277643 0 0 1
74 24 2 0 -0.776673132679995 -2.949686521004209 -1.8269553938067131 1 1 1
76 24 4 0 -0.3678888983305122 -2.9513209013289097 -2.0774072666457055 1 1 1
75 24 4 0 -1.1577875446806052 -2.945121872477261 -1.5885146859391466 1 1 1
59 19 2 0 -0.7299651253640841 -1.8465027229105773 -2.9279401749003235 0 0 1
2 1 3 0 -0.08348921717252045 -2.7669566350742025 -1.804010338989188 0 0 1
38 12 2 0 -2.964289677445788 -1.5485982361990984 -2.7549328558706594 1 0 1
60 19 4 0 -1.1367104270742177 -1.9689443311689634 -3.0067928035069773 0 0 1
20 6 2 0 -2.739391731074115 -0.4448047055119788 -2.1434441788833793 1 -1 0
21 6 4 0 -2.66907778357706 -0.09647305389514775 -1.9214567195553487 1 -1 0
39 12 4 0 -2.8490415487560434 -1.2145779103734426 -2.479673828781842 1 0 1
22 6 4 0 -2.810189590460042 -0.8301079585241511 -2.3846879281472253 1 -1 0
47 15 2 0 -0.04920205113048287 -2.814819213503361 -0.7126752971970661 0 0 0
30 9 4 0 -0.795504840892977 -2.8554686150423207 -0.5112280706378646 0 0 1
29 9 2 0 -1.1028670558562321 -2.720218893803837 -0.1581881853007653 0 0 1
31 9 4 0 -1.3795447732182868 -2.5892877202920954 0.17046372099953633 0 0 1
50 16 2 0 -2.165789790344831 -2.732758849584744 0.24839405064699926 0 0 1
51 16 4 0 -2.5711316177827657 -2.757047015975094 0.4066331507629937 0 0 1
42 13 4 0 -2.993733327601519 -2.0261236908782516 2.7179931915029942 0 0 0
27 8 4 0 -1.5186119064487837 -2.0589429573010745 2.9777904031787545 0 0 0
52 16 4 0 -1.776832925628518 -2.710573959280585 0.0910984075424722 0 0 1
56 18 2 0 -1.919888357756772 0.28664035837066554 -1.9357183056792597 1 0 0
58 18 4 0 -2.347949965078802 0.12595736171497351 -1.9241656287398543 1 0 0
57 18 4 0 -1.5041600136593025 0.44562265062613043 -1.9481551459544189 1 0 0
72 23 4 0 -0.35304418161188433 0.6487590510636912 -1.8068252094995054 1 0 0
73 23 4 0 -1.1425753663698028 0.4267503621196757 -2.113431758575111 1 0 0
71 23 2 0 -0.7459786044559528 0.5381545902186461 -1.9576470287262142 1 0 0
63 20 4 0 -0.039430530427125965 0.8563045126736071 -1.9815085734413358 1 0 0
79 25 4 0 -2.9695226569794215 1.406852142318812 1.601086471597719 1 0 0
78 25 4 0 -2.9810300564556766 0.6239805323769473 1.1102040805325681 1 0 0
77 25 2 0 -2.9723612775777597 1.0074767384527201 1.34877028427693 1 0 0
4 1 3 0 0.5662371121314701 -2.4355107927180404 -1.9816539414817649 0 0 1
13 3 4 0 0.43921349594370235 -2.0701386157585953 -1.9584162280632644 -1 0 1
11 3 2 0 0.2200561187453064 -1.846523255870345 -2.28826717057226 -1 0 1
1 1 1 0 0.3880644631143533 -2.7509548119894984 -1.72952633989976 0 0 1
19 5 4 0 1.4990616224263595 -1.8725983786796274 -2.2927181341466802 -1 0 1
23 7 2 0 2.1403827514723197 -2.3980534371082785 -2.217119352751671 -1 0 1
24 7 4 0 1.7581404596046983 -2.1965263260533106 -2.183538085379019 -1 0 1
25 7 4 0 2.529525145121235 -2.5973035671909908 -2.2533814651151585 -1 0 1
9 2 3 0 2.863506674188902 -2.361595684681902 -2.2513781709342497 -1 1 0
48 15 4 0 0.3279501876737129 -2.8667699695753064 -0.9617593862041689 0 0 0
40 12 4 0 3.01002085922121 -1.8889670588981822 -3.0269938449600358 0 0 1
18 5 4 0 1.3480181561891253 -1.0218540137783274 -2.3586955026408196 -1 0 1
46 14 4 0 1.1395906286838144 -0.7110236009521561 -2.2031879443438203 0 0 1
17 5 2 0 1.4215402405040487 -1.4314278598883103 -2.331838480638602 -1 0 1
44 14 2 0 0.8866964683052411 -0.5277736552338852 -1.8819984689533584 0 0 1
45 14 4 0 0.6512759141621284 -0.3569347005619948 -1.5815177441744181 0 0 1
5 1 3 0 0.46559245813509964 -2.6447083315158095 -1.2900461022452314 0 0 1
7 2 3 0 3.0358236013819315 -3.019570729737178 -2.5376755366333703 -1 1 0
12 3 4 0 0.006325625859065508 -1.619863369613889 -2.620631310521719 -1 0 1
15 4 4 0 2.549438171588766 -0.9615941924813914 0.9919641542667671 -1 0 0
34 10 4 0 2.680390757097609 -0.5840381478656765 1.0353520607848983 -1 0 0
32 10 2 0 2.8432921747093083 -0.16375105546015647 1.0643958509240055 -1 0 0
14 4 2 0 2.7157754808158794 -1.2072483948220627 1.314200921785075 -1 0 0
43 13 4 0 2.9654153265630736 -1.755949526612803 1.8547876496005404 -1 0 0
16 4 4 0 2.86934629284765 -1.4474347043369444 1.625737245667911 -1 0 0
41 13 2 0 3.0305202352018537 -1.887338398189044 2.2808248826838486 -1 0 0
62 20 2 0 0.30075876330571666 1.1554075426139088 -2.032013981963412 1 0 0
64 20 4 0 0.6375790358785219 1.4446272012552102 -2.0742998564036657 1 0 0
54 17 4 0 2.9107274224127915 2.7692094735323365 -2.758819898769068 0 0 1
65 21 2 0 0.5377991229045849 2.2668450014313137 -2.104810400436386 1 0 0
66 21 4 0 0.45043002583460934 1.8306031152753917 -2.0532499780564737 1 0 0
67 21 4 0 0.6240363625939783 2.692126502599873 -2.1490997834009407 1 0 0
3 1 3 0 0.5721502052962497 2.9390954629517547 -1.827650403880606 0 -1 1
68 22 2 0 2.7088103670100443 1.8206834818370095 2.1568028691828407 0 0 0
55 17 4 0 2.5580361554082076 2.288190892085226 2.641093521413277 0 0 0
69 22 4 0 3.0095432760974683 1.5086661045991145 1.9832161359319251 0 0 0
70 22 4 0 2.427810237685436 2.1107731864884562 2.305154032527104 0 0 0
33 10 4 0 2.997236823097776 0.2530903859798342 1.0835898447986305 -1 0 0
53 17 2 0 2.7329876437173195 2.5347618371640994 2.9868346978421223 0 0 0

Velocities

6 -0.18275288940350262 -0.19600557727892554 -0.4707773678417666
35 0.1388799684848109 0.05025085958024692 -0.03149458687358287
10 -0.8192538171558829 -1.2315794286609105 -0.3269021451153571
37 0.8893917985848786 1.0337157600756783 0.13211067007823268
26 -0.036084891245903125 0.20789681152928044 0.18886758447884588
28 1.027316198397282 -0.46419892257970535 -0.05708626937400037
8 0.13664830361786645 -0.28803131841867047 0.4467855813510205
49 -0.39644651397686115 0.539062120301568 -1.0150943922122788
36 0.05119023006217786 -0.3232001582049233 0.44365652401035127
61 0.5853150884514403 0.8707464488235184 0.2554294505469944
74 0.3685216543297572 -0.1737239860194231 -0.30745910582358665
76 0.056521608414501996 -0.3381567657576818 0.23185648897402508
75 1.8175814523365883 -0.4323040223114976 -0.1925526191298283
59 0.09847171882717462 0.002399319969564065 0.09418474256923456
2 -0.3064887977035338 -0.8690668670916867 0.25495319776540987
38 0.3387748966675763 -0.24474016947526941 0.539742361762451
60 0.20423380775810884 0.5554502730558571 -0.9687333050978859
20 -0.13359123227153322 -0.19046278042737808 0.37577818400898516
21 0.19797675939696704 -1.0325141739540307 -0.610230888591141
39 0.2184230673614148 -0.324570071391922 -0.40368522583807354
22 0.1422703479195544 0.03139565739950638 0.4277624757892374
47 0.19679068350000545 -0.024944603536829424 -0.12215888738023295
30 -1.9031820556722179 0.04411907870875274 -0.12854982350995875
29 0.2732057299278388 0.22288451984424915 -0.29160863740050547
31 -0.2819394754250567 -0.08626026635847077 -0.2699028639986467
50 0.20527302958655716 0.2856486629874512 -0.453239104421563
51 0.3479443591610049 0.11045129352183011 -0.09190593333715033
42 0.8047766652936638 0.4932831170115712 -0.0462732771636197
27 -0.009943052700923136 0.21026928657876853 -0.6980164510793045
52 -0.40729554050465766 0.44868409938979875 1.7749060208512157
56 0.16067214380996928 -0.1857819563257924 0.11127153069312477
58 -1.757425554909388 0.31368508406781764 0.46872378049390007
57 -0.8019212724509341 -0.39825326816456336 -0.6708649700694392
72 -0.15974769180793308 1.1736066873867443 1.7410035984931986
73 0.1870785083876344 0.5040574360246665 -1.1980257435638373
71 -0.32537916820056956 -0.13984436729292593 0.20989409123546984
63 0.049983077248555274 -0.6834556355291737 0.33477892434207107
79 0.5122693821521999 -0.3972390007005088 0.4663484729053172
78 0.1625306090462306 0.28732229201464576 -0.4428017058137558
77 -0.13801534926527664 0.10029677833566383 -0.14184207087802037
4 0.29426260049383873 1.2537816607223524 1.3230831270415688
13 -0.3604324185486032 -0.49647658089913704 0.5109747705297236
11 -0.06556231272465515 -0.20707242988146338 0.321711134437642
1 -0.12161964733811523 -0.16358617352280713 -0.07936889222893183
19 -0.2378615977080224 -1.0178240813563106 1.5266342613285648
23 -0.17760792779063608 0.34082499597673976 0.087535541956948
24 0.6303105451335244 -1.0038964150419365 0.07423809535582598
25 -0.054999501057385616 -1.48577722415254 -1.0339700147930109
9 0.7370715545417654 -0.41913708522823784 -1.2403017663942206
48 0.06727937202448922 -1.3131063609989302 -0.39634421894835603
40 0.83273802384491 0.8761301487812674 0.2769430154228661
18 0.3353047095121914 -0.9053111921333344 0.7796154918876168
46 -0.21412791922098598 -0.3719829423935048 0.12791089374450443
17 0.3554140432076204 0.1623432545321196 -0.3695302945116846
44 0.19161656013483833 0.11712509528164375 0.07032888329137922
45 -0.312554333758706 -0.4334258763872751 0.6260302024764508
5 -0.0637004564650398 -0.02502499467459067 0.654113026842807
7 0.44361317506359166 -0.095171763762161 0.7059640215503333
12 -0.8700313059711907 0.35972983800586417 -0.1886642337422098
15 1.6813365798434847 0.08454689510840115 0.7362073576227403
34 0.6156463432963153 0.03380137814620164 -0.05591794449770729
32 0.0036730384875544708 -0.06862654342457236 0.4886786208368378
14 -0.04191932441700429 0.265862927111185 -0.12833140645666416
43 -0.23114982547277327 0.455264452046974 0.5968438938575378
16 -0.6976987049781621 1.3606841147507018 1.1148170797981678
41 0.40512395516831723 0.21152960691594164 -0.11594275823537115
62 0.029724526124473835 -0.17964577072048993 -0.09683368826293771
64 0.7604250080661865 -0.77763218711271 1.0551543043767084
54 -0.44783164973653466 0.8519462078949859 0.20042177102173567
65 0.05342204541831794 0.35457277204357684 -0.011356567225593178
66 -0.04212555410140236 0.14808894335291825 0.8197772793858685
67 -0.07460723166065286 -0.5979826437809225 -0.9669979365033028
3 0.3801228929747321 0.41532640408402616 -1.1253476953979817
68 0.1517861744361369 0.024269651053906098 0.13944095064354775
55 0.13897076330675767 0.6416604619903501 -0.6435516313332948
69 -1.2013802439248746 1.4791854813650427 0.4690825085034949
70 -0.04922099230566911 1.7475943275278414 0.45057348239925815
33 -0.979154022475373 -1.1199163794381106 -0.7174853077404488
53 0.28571796970368785 0.1496160930976934 -0.22640763164595024

Bonds

1 1 6 7
2 1 6 8
3 1 6 9
4 1 6 10
5 1 35 36
6 1 35 37
7 1 26 27
8 1 26 28
9 1 74 75
10 1 74 76
11 1 59 60
12 1 59 61
13 1 38 39
14 1 38 40
15 1 20 21
16 1 20 22
17 1 47 48
18 1 47 49
19 1 29 30
20 1 29 31
21 1 50 51
22 1 50 52
23 1 56 57
24 1 56 58
25 1 71 72
26 1 71 73
27 1 77 78
28 1 77 79
29 1 11 12
30 1 11 13
31 1 1 2
32 1 1 3
33 1 1 4
34 1 1 5
35 1 23 24
36 1 23 25
37 1 17 18
38 1 17 19
39 1 44 45
40 1 44 46
41 1 32 33
42 1 32 34
43 1 14 15
44 1 14 16
45 1 41 42
46 1 41 43
47 1 62 63
48 1 62 64
49 1 65 66
50 1 65 67
51 1 68 69
52 1 68 70
53 1 53 54
54 1 53 55

Angles

1 2 7 6 8
2 2 7 6 9
3 2 7 6 10
4 2 8 6 9
5 2 8 6 10
6 2 9 6 10
7 1 36 35 37
8 1 27 26 28
9 1 75 74 76
10 1 60 59 61
11 1 39 38 40
12 1 21 20 22
13 1 48 47 49
14 1 30 29 31
15 1 51 50 52
16 1 57 56 58
17 1 72 71 73
18 1 78 77 79
19 1 12 11 13
20 2 2 1 3
21 2 2 1 4
22 2 2 1 5
23 2 3 1 4
24 2 3 1 5
25 2 4 1 5
26 1 24 23 25
27 1 18 17 19
28 1 45 44 46
29 1 33 32 34
30 1 15 14 16
31 1 42 41 43
32 1 63 62 64
33 1 66 65 67
34 1 69 68 70
35 1 54 53 55
