LAMMPS data file via write_data, version 4 Feb 2025, timestep = 2000000, units = lj

4650 atoms
4 atom types
3150 bonds
1 bond types
1875 angles
2 angle types

-11.917153 11.917153 xlo xhi
-11.917153 11.917153 ylo yhi
-11.917153 11.917153 zlo zhi
2.1316282072803006e-14 0 0 xy xz yz

Masses

1 1
2 1
3 0.1
4 0.1

Bond Coeffs # harmonic/omp

1 100 0.45

Angle Coeffs # harmonic/omp

1 100 180
2 100 109.471

Atoms # full

1473 441 4 0 -1.9399165156301237 -11.331035574633653 -11.098986781416144 13 1 0
2900 917 4 0 -0.9127406678498637 -11.047235773263864 -11.612560607724598 4 0 0
2901 917 4 0 -0.23081666999600792 -11.663306576276957 -11.897995785675102 4 0 0
2899 917 2 0 -0.5784371876164922 -11.3519758854407 -11.749604804899672 4 0 0
762 204 4 0 -11.305056384038808 -10.529381321606845 -11.50190341929529 3 0 0
760 204 2 0 -11.5493151270286 -10.313187377137053 -11.816581545356366 3 0 0
2805 885 4 0 -10.955990539403073 -10.54498621798476 -11.342746306105889 4 0 0
2803 885 2 0 -10.773246660867906 -10.23949493581209 -11.06162054616932 4 0 0
4540 1464 2 0 -5.750958990064592 -10.586027868220441 -11.542086809302813 13 1 1
4541 1464 4 0 -5.501877201192976 -10.317492985674727 -11.287280714545567 13 1 1
4542 1464 4 0 -6.00531148959243 -10.850835111338098 -11.797850650625215 13 1 1
3031 961 2 0 -1.2730225608662735 -10.508595952196714 -11.33659574191717 3 0 0
3033 961 4 0 -1.2796015785246215 -10.104512193667949 -11.137625661829231 3 0 0
3032 961 4 0 -1.2694920459240837 -10.926735077063563 -11.540941963210706 3 0 0
50 10 3 0 -5.526508898896606 -9.943697948658256 -11.204250312369282 3 0 1
47 10 3 0 -4.87229777161813 -9.701237668181296 -11.375575567171907 3 0 1
531 127 4 0 -4.592790897342601 -9.427616848587498 -11.447747260102009 3 0 0
46 10 1 0 -5.11391493320182 -9.863277317750457 -11.05393316984934 3 0 1
529 127 2 0 -4.127957423558009 -9.37495522958616 -11.430688635222056 3 0 0
530 127 4 0 -3.672061870008921 -9.319959082915354 -11.399692551966076 3 0 0
584 145 4 0 -3.2760166321724444 -9.339891423020996 -11.407258781646762 3 0 0
583 145 2 0 -2.837793326068317 -9.382998069290286 -11.396596751831899 3 0 0
585 145 4 0 -2.391097070143058 -9.435953975532405 -11.394995815774298 3 0 0
84 17 3 0 -2.0176738321238634 -9.501258925466024 -11.270378974929496 3 0 1
81 17 1 0 -1.6225692979924116 -9.417175643198103 -11.438345302636591 3 0 1
83 17 3 0 -1.3497821522224385 -9.77593371798523 -11.36188060221417 3 0 1
85 17 3 0 -1.6461797450039022 -9.355589877044142 -11.8530035008678 3 0 1
2909 920 4 0 -0.2988663785593335 -9.701844850186223 -11.23906864973363 4 0 0
1550 467 4 0 -0.0214714443973385 -9.550434300886907 -11.48476021761112 13 1 0
2398 750 2 0 -9.408192145477159 -8.500955187868927 -11.162796312447337 5 0 1
2400 750 4 0 -9.829140000011517 -8.616324896909827 -11.136717749016734 5 0 1
2399 750 4 0 -8.980864608228064 -8.37146088274317 -11.18454503322045 5 0 1
82 17 3 0 -1.4563833519971556 -9.051950146313368 -11.245173456187201 3 0 1
3309 1053 4 0 -1.494334664595753 -8.685372935032607 -11.058817514116523 4 0 1
810 220 4 0 -8.814259977910059 -7.994904519841356 -11.11544233805013 4 0 0
808 220 2 0 -8.42461162558606 -7.7766054247769025 -11.108591893222906 4 0 0
809 220 4 0 -8.023596266245683 -7.558305579642696 -11.108572744068614 4 0 0
3617 1156 4 0 -7.778948557922188 -7.524712912315502 -11.422525315432347 14 1 0
3616 1156 2 0 -7.364805210712188 -7.4708273919343355 -11.643674089914319 14 1 0
3618 1156 4 0 -6.982812999352596 -7.427335147735305 -11.85162597612377 14 1 0
3376 1076 2 0 -0.1148381056747656 -7.578990182213125 -11.697452614408874 4 0 1
651 167 4 0 -5.508381057716314 -5.073679409076423 -11.539049546030792 8 0 0
516 122 4 0 -5.806089314895027 -5.1143067633156205 -11.78262164207363 8 0 0
649 167 2 0 -5.144261725929412 -4.8118661444953235 -11.384001092715035 8 0 0
650 167 4 0 -4.794480913744094 -4.564091235868827 -11.239445083188102 8 0 0
1605 485 4 0 -4.816725024811918 -4.183318860690915 -11.3121055915833 8 0 0
1603 485 2 0 -4.523742444124421 -3.8634253581560962 -11.196659651932757 8 0 0
4370 1407 4 0 -5.1027992905225155 -2.974069032394789 -11.878204398871528 8 0 1
1604 485 4 0 -4.234346252186112 -3.519121577342533 -11.0835371906191 8 0 0
1299 383 4 0 -3.843403970573963 -3.591828809130856 -11.029395282722566 9 0 0
1298 383 4 0 -2.896597456633037 -3.4842585235762353 -11.090660934353902 9 0 0
1297 383 2 0 -3.3756586134260935 -3.539132613706178 -11.06227743341538 9 0 0
857 236 4 0 -2.6672265711246137 -3.6367232492070247 -11.40534366124501 9 0 0
856 236 2 0 -2.3518324936733723 -3.6467160296108485 -11.74078729907963 9 0 0
4408 1420 2 0 -0.09230486977024199 -3.637275044936514 -11.308629464436628 8 0 1
4410 1420 4 0 -0.45207263023628386 -3.475882786442126 -11.091478614920456 8 0 1
1446 432 4 0 -10.357853450834824 -2.341962433644797 -11.412388285658878 10 0 0
3798 1216 4 0 -10.59036647571644 -2.0430022312570273 -11.538640967282445 11 0 0
2124 658 4 0 -11.286378682647856 -1.131546876712541 -11.759732540756552 11 0 1
3797 1216 4 0 -11.221768448314474 -1.5045159437823266 -11.901178847405582 11 0 0
3796 1216 2 0 -10.900361531540526 -1.778387484120472 -11.714390666886967 11 0 0
2122 658 2 0 -11.554675433879689 -0.8565850454043922 -11.557525332711782 11 0 1
2123 658 4 0 -11.83201808354862 -0.5748404053222345 -11.346286199116596 11 0 1
1716 522 4 0 -11.809890196248604 -0.1916956234450531 -11.509474074170095 11 0 0
807 219 4 0 -8.498079157329794 -0.613998082936094 -11.149307802780243 11 0 0
3342 1064 4 0 -8.361919719484991 -0.5113399994712484 -11.538379179226133 11 0 1
1472 441 4 0 -2.772889223110525 -11.181588578345416 -10.797203157083057 13 1 0
1471 441 2 0 -2.328568988305845 -11.263492589225297 -10.956490601027207 13 1 0
2431 761 2 0 -1.3046602457657421 -11.666510422999115 -10.800940000141257 13 1 1
2432 761 4 0 -1.7402011338774646 -11.62600729670035 -10.922284277613757 13 1 1
2433 761 4 0 -0.8609610707350157 -11.7087963645993 -10.681120252330594 13 1 1
3539 1130 4 0 -0.6466510686139664 -11.478921979805886 -10.452102743588894 4 0 1
3538 1130 2 0 -0.1855272536842243 -11.460212176473561 -10.558310935192981 4 0 1
48 10 3 0 -4.924543586402385 -10.262544050097288 -10.902394263872294 3 0 1
3857 1236 4 0 -2.9607594749935444 -10.862975870263035 -10.975739270967356 14 1 1
3858 1236 4 0 -3.3451310922605373 -10.337025855732374 -10.424549882299656 14 1 1
3856 1236 2 0 -3.148920662624576 -10.602295034406419 -10.710384595376537 14 1 1
2804 885 4 0 -10.590040644165951 -9.917933808168986 -10.76926236979322 4 0 0
1178 343 4 0 -10.298825111073194 -9.665151409386095 -10.690806765931514 5 0 1
1177 343 2 0 -10.191768162946518 -9.261990316674662 -10.793323677950415 5 0 1
49 10 3 0 -5.134228128619155 -9.561038522607417 -10.707211991179639 3 0 1
4601 1484 4 0 -5.051851882179139 -9.20041451397668 -10.81816775110035 14 1 1
2908 920 2 0 -0.5468455735574747 -9.588465915801812 -10.85528542630196 4 0 0
2910 920 4 0 -0.7850462082565652 -9.464901187942147 -10.490828932541424 4 0 0
4304 1385 4 0 -0.8826214947823239 -9.344217032328325 -10.110768777501342 15 1 1
1179 343 4 0 -10.07863100528812 -8.828266784958197 -10.906149106742221 5 0 1
4600 1484 2 0 -5.016906531636018 -8.94128402433266 -10.437570458086045 14 1 1
4602 1484 4 0 -4.992440139800978 -8.692095879471532 -10.085190159713415 14 1 1
3307 1053 2 0 -1.128067212416937 -8.502348463210248 -10.790478728248377 4 0 1
3308 1053 4 0 -0.7774223850033621 -8.3248174511332 -10.541776397774031 4 0 1
669 173 4 0 -0.615572569181932 -8.00498319304896 -10.32912129467285 7 0 0
667 173 2 0 -0.28704167986722773 -7.688005104743419 -10.33219770646196 7 0 0
1284 378 4 0 -0.7967586674613454 -3.5963982864537236 -10.89492397368031 7 0 1
1282 378 2 0 -0.8671689948282033 -3.5336148852274096 -10.462136027971374 7 0 1
1444 432 2 0 -10.304384732273856 -2.4291229694885423 -10.95989664003283 10 0 0
1445 432 4 0 -10.24725926751239 -2.501744137603252 -10.538545013162771 10 0 0
1517 456 4 0 -10.595272564959261 -2.4580781427866185 -10.36008818028747 8 0 0
806 219 4 0 -8.03308586475319 -1.1408986922223558 -10.53851861134004 11 0 0
497 116 4 0 -7.720420560521238 -1.3285878264342301 -10.35146157113342 10 0 0
805 219 2 0 -8.272904447696046 -0.8705113472097796 -10.838948523098566 11 0 0
979 277 2 0 -9.373715329213367 -11.899127956851935 -10.002666731861131 5 0 1
981 277 4 0 -8.964467448212691 -11.73567562711561 -10.014044901338455 5 0 1
2424 758 4 0 -3.47049927787425 -10.34119872662214 -10.04690000671172 13 1 1
2213 688 4 0 -2.752888212230955 -10.09392630474848 -9.189519550504736 13 1 1
2422 758 2 0 -3.246217753412987 -10.122369503165542 -9.716674809001121 13 1 1
2423 758 4 0 -3.0252110092560365 -9.919895352951976 -9.414007074233997 13 1 1
4305 1385 4 0 -1.7034120818772607 -9.390310978046754 -9.78093323122676 15 1 1
4303 1385 2 0 -1.3039498571969226 -9.363970060459016 -9.946860898862221 15 1 1
3587 1146 4 0 -4.764498816141407 -8.55140309625194 -9.752656889218931 4 0 1
3586 1146 2 0 -4.346292826582405 -8.473616018735457 -9.690279244027888 4 0 1
3588 1146 4 0 -3.9310127023497996 -8.39801131213229 -9.621885036282888 4 0 1
2440 764 2 0 -2.272224311854986 -9.018000984111614 -9.309440026894691 14 1 1
2442 764 4 0 -1.9482426390177796 -9.105346425584445 -9.63202838652417 14 1 1
2795 882 4 0 -3.5630669702788396 -8.249044838304382 -9.627921298723246 4 0 0
2794 882 2 0 -3.3464355880389647 -7.924595943607542 -9.36949307565134 4 0 0
2849 900 4 0 -1.4943058140207839 -6.672667615997338 -9.54290359894155 4 0 0
2848 900 2 0 -1.4208081468412193 -6.266176623523423 -9.77647979797262 4 0 0
2850 900 4 0 -1.343331631791287 -5.8765072086643215 -9.996266652577084 4 0 0
447 99 4 0 -1.1330386001723127 -5.575545164822856 -9.911814733743777 3 0 0
446 99 4 0 -0.4583731512371827 -4.935533336588237 -9.963898235159318 3 0 0
549 133 4 0 -0.0803914072200822 -4.839888979508291 -9.891966175910596 3 0 0
445 99 2 0 -0.7847444597819333 -5.246055735185246 -9.935299824177783 3 0 0
1518 456 4 0 -10.664080512348878 -2.78097851229138 -9.512489973457702 8 0 0
3551 1134 4 0 -10.992815201536342 -2.968954499161635 -9.357749357209187 8 0 1
1283 378 4 0 -0.9366179788989406 -3.4654815229209905 -10.00553820153396 7 0 1
2949 933 4 0 -0.9408659940772441 -3.583233090023352 -9.60994434342634 7 0 0
2947 933 2 0 -0.6697061125405774 -3.321226153319781 -9.364619805163679 7 0 0
1395 415 4 0 -0.031251132763754796 -3.1889298279661418 -9.185464595712586 6 0 0
1516 456 2 0 -10.625044788347283 -2.6173306837709855 -9.93124272882183 8 0 0
496 116 2 0 -7.3665055275788305 -1.2576144504121025 -10.08214188254472 10 0 0
498 116 4 0 -7.0108965110837 -1.1912960087042332 -9.80295039396823 10 0 0
1184 345 4 0 -6.739562796098917 -0.9065335614000158 -9.897766756744009 11 0 1
1183 345 2 0 -6.2908026922400895 -0.7889006475820679 -9.908939030979473 11 0 1
1185 345 4 0 -5.876502547598759 -0.6846470261460826 -9.928572346285423 11 0 1
1475 442 4 0 -5.569535998697419 -0.43801900539511607 -9.844790181729747 11 0 0
1474 442 2 0 -5.339817319044403 -0.4309185726703877 -9.47067960601059 11 0 0
4180 1344 2 0 -3.7766562807576616 -11.396608801528268 -8.654403151854616 14 1 1
4182 1344 4 0 -4.050369607536841 -11.044931795438124 -8.632374632432777 14 1 1
4181 1344 4 0 -3.499266087033618 -11.76402806468197 -8.690639910401456 14 1 1
800 217 4 0 -4.110876793497948 -10.640380270763616 -8.643751674987966 3 0 0
799 217 2 0 -3.9955815251059974 -10.20611784284892 -8.740182865355186 3 0 0
2212 688 2 0 -2.6206245079459727 -10.259685793390526 -8.783266971726198 13 1 1
2214 688 4 0 -2.478168735050504 -10.414635349977107 -8.394243403493743 13 1 1
801 217 4 0 -3.8853325719514054 -9.760479345514444 -8.833328570698017 3 0 0
989 280 4 0 -3.7009461682353173 -9.445790664432545 -8.67014139891177 3 0 1
988 280 2 0 -3.350713855979661 -9.176107615256708 -8.797908613886417 3 0 1
990 280 4 0 -3.0073784690824557 -8.913053980080026 -8.916016290266514 3 0 1
2441 764 4 0 -2.5929067655718825 -8.939679542603848 -9.00936352348522 14 1 1
2796 882 4 0 -3.130733215655633 -7.612206627838628 -9.12692056361044 4 0 0
3002 951 4 0 -3.1075639627899907 -7.4404128354994405 -8.785692640261981 4 0 0
3001 951 2 0 -2.690324512344736 -7.393815122421152 -8.66395449213713 4 0 0
3003 951 4 0 -2.2476478260937416 -7.355501264502163 -8.54354974217291 4 0 0
2535 795 4 0 -1.9062485422328592 -7.150186181130962 -8.475483350645746 4 0 0
2534 795 4 0 -1.3808342538614138 -6.726356412020181 -9.146130867777028 4 0 0
2533 795 2 0 -1.6489658031951642 -6.94278600692257 -8.807235240645898 4 0 0
2571 807 4 0 -10.89470694545335 -3.7719543982169537 -8.427076585464842 8 0 0
3550 1134 2 0 -10.949608295490036 -3.1990067640562376 -8.96703403764412 8 0 1
3552 1134 4 0 -10.912961477065155 -3.410842854088793 -8.593252310025846 8 0 1
2948 933 4 0 -0.4114393388212818 -3.0615099347429844 -9.118827820752655 7 0 0
1476 442 4 0 -5.11744978104031 -0.4275860834700982 -9.10442143851121 11 0 0
557 136 4 0 -4.7593538493984315 -0.3142404469555782 -9.070123962657698 11 0 0
556 136 2 0 -4.467306715905527 -0.09536524215857334 -8.764364865259488 11 0 0
1930 594 2 0 -2.144114081684009 -11.057208119877746 -8.088196995772948 13 1 0
1932 594 4 0 -2.0344969433570164 -11.510064963825862 -8.029304887947198 13 1 0
173 35 3 0 -1.7228340279323593 -11.747773304199642 -8.056896822597702 13 1 1
1931 594 4 0 -2.245262289723751 -10.631664484897597 -8.142205385800924 13 1 0
1875 575 4 0 -3.7015963906928118 -9.374365643868828 -7.661253447198693 14 1 0
2929 927 2 0 -4.034885820713616 -8.587787298987022 -7.4385272111946055 5 0 0
2930 927 4 0 -4.448880614751831 -8.728987438580328 -7.347497633317163 5 0 0
2931 927 4 0 -3.596967936033151 -8.423485132928707 -7.528413707923566 5 0 0
3865 1239 2 0 -9.51671558267816 -4.587976840128805 -7.417277204171912 10 0 0
2570 807 4 0 -11.501015889443224 -4.058493165570741 -7.782145503816516 8 0 0
2569 807 2 0 -11.187527215369276 -3.9101566120939637 -8.114359227957962 8 0 0
3054 968 4 0 -11.427951023783535 -4.412395802381022 -7.57876828040018 8 0 0
3867 1239 4 0 -9.340945004825873 -4.419771970818322 -7.792887478035451 10 0 0
4274 1375 4 0 -9.127310284329734 -4.112893773983207 -7.9023875788143565 10 0 0
4273 1375 2 0 -8.837862658687245 -3.8025134923134285 -7.740310594438558 10 0 0
4275 1375 4 0 -8.529219371331084 -3.4602853157422153 -7.564225174464735 10 0 0
1303 385 2 0 -4.61413491999041 -2.7501644325285 -7.411898992928727 10 0 0
695 182 4 0 -4.244363518367872 -2.1690815971983124 -7.506760005213293 10 0 0
1305 385 4 0 -4.292573646173368 -2.533596279084959 -7.636495530137236 10 0 0
694 182 2 0 -4.028827351331441 -1.7704121089504365 -7.620876468682098 10 0 0
696 182 4 0 -3.816191311014622 -1.3698091618544979 -7.755621494930948 10 0 0
797 216 4 0 -8.844509721249114 -0.0169978344206978 -7.788022833897371 3 -1 0
2935 929 2 0 -3.152978860314578 -10.469708074626809 -6.713519647578036 3 0 0
2936 929 4 0 -3.5168995958643574 -10.216184344017353 -6.714841975181894 3 0 0
2937 929 4 0 -2.767406072543542 -10.742531859686864 -6.710585463687851 3 0 0
1873 575 2 0 -3.6135042014257053 -9.618449747511695 -7.2818727078078425 14 1 0
1874 575 4 0 -3.5274653368068662 -9.858347189958929 -6.908756745742052 14 1 0
1838 563 4 0 -4.786064103189117 -8.791437638745547 -7.125482329235812 14 1 0
1837 563 2 0 -5.063594014251557 -8.652670501995201 -6.772721200624509 14 1 0
4554 1468 4 0 -3.5531309821964747 -8.317935945310293 -7.141609834994739 15 1 0
4552 1468 2 0 -3.212552375674184 -8.087642363476894 -6.908103824461005 15 1 0
4553 1468 4 0 -2.894610686633923 -7.871186274728244 -6.700423462338478 15 1 0
2007 619 4 0 -3.0353884841610093 -7.519348762277355 -6.52257273441418 14 1 0
449 100 4 0 -11.888077284323424 -5.1150382739634 -6.561692967826269 10 0 0
3053 968 4 0 -11.675102838028787 -4.950210057832596 -6.88946564551684 8 0 0
3052 968 2 0 -11.544354875380447 -4.666051337874988 -7.251168466695176 8 0 0
3866 1239 4 0 -9.699973327802923 -4.76744283916455 -7.033020587277926 10 0 0
3444 1098 4 0 -8.249637177810808 -3.582741451160489 -7.317088502016251 10 0 0
3442 1098 2 0 -7.934475310933949 -3.4183636061670395 -7.011244199235833 10 0 0
3443 1098 4 0 -7.620119260909411 -3.2440948472795963 -6.701227843586233 10 0 0
4144 1332 2 0 -6.800985192583892 -3.137792264085162 -6.642646142185939 10 0 0
4146 1332 4 0 -7.248790196613502 -3.070960824122727 -6.711786614931776 10 0 0
4145 1332 4 0 -6.367428069909647 -3.2178441527979924 -6.568952462822408 10 0 0
769 207 2 0 -5.6501579590861235 -3.088968377877828 -6.903130827778885 10 0 0
770 207 4 0 -6.099972977510678 -3.1643337868399666 -6.83795386436674 10 0 0
771 207 4 0 -5.240693884358637 -3.0102560154054405 -6.954144116184298 10 0 0
1304 385 4 0 -4.936219044396808 -2.9677694616831296 -7.18590426653677 10 0 0
428 93 4 0 -5.796027505217462 -0.705149713318244 -6.725564458466423 11 0 0
427 93 2 0 -5.364990217753953 -0.4992184658491361 -6.5569385034662035 11 0 0
3094 982 2 0 -2.483182392331912 -11.312980722253574 -6.151460314407829 3 0 0
3096 982 4 0 -2.2933475810648822 -11.6214435198305 -5.923109967737444 3 0 0
3095 982 4 0 -2.6851315972444834 -10.997019156464413 -6.3909380864302126 3 0 0
2202 684 4 0 -2.8756304165290487 -9.182204756348902 -5.555244420561136 14 1 1
699 183 4 0 -5.509722406248615 -8.561736745605792 -6.019737010740461 5 0 0
1839 563 4 0 -5.352260957530623 -8.514194797520588 -6.402214013502864 14 1 0
697 183 2 0 -5.46601312166574 -8.405553102502974 -5.583405653897414 5 0 0
2005 619 2 0 -2.805814486279287 -7.271430112235984 -6.210473640509595 14 1 0
2006 619 4 0 -2.580712413778178 -7.025519654294272 -5.913747764274634 14 1 0
4070 1307 4 0 -2.2151725087433345 -7.05000714898829 -5.794555107972386 15 1 0
4069 1307 2 0 -1.7747343087012837 -6.891279242348032 -5.695901837775061 15 1 0
3707 1186 4 0 -1.0307389654061918 -6.942906469326801 -5.667623796638337 16 1 0
4071 1307 4 0 -1.3708492163279757 -6.7416312484641985 -5.598804077576435 15 1 0
3706 1186 2 0 -0.7340206863337411 -6.624104937509799 -5.789512231043322 16 1 0
1286 379 4 0 -0.07672975211224475 -6.127712097113102 -5.81869290771831 5 0 0
3708 1186 4 0 -0.43529475424946007 -6.283163696962836 -5.92342393411524 16 1 0
505 119 2 0 -11.79770360287319 -1.34752647595921 -6.194755598009398 9 0 0
506 119 4 0 -11.419628661037526 -1.5075536992796668 -6.026761778016105 9 0 0
1752 534 4 0 -11.016416103771103 -1.4355370369407439 -5.975046944662631 9 0 0
1750 534 2 0 -10.562184378665128 -1.440980545862022 -6.001264097265027 9 0 0
1751 534 4 0 -10.121272298314583 -1.4367430789178073 -6.0197193625160965 9 0 0
1439 430 4 0 -9.785480268962022 -1.5099312798730065 -5.826824133376772 9 0 0
429 93 4 0 -4.9945660360311015 -0.3246850540282793 -6.4018328541931995 11 0 0
423 91 4 0 -4.685421684621128 -0.19886475954574045 -6.1689753177226 11 0 0
421 91 2 0 -4.315772353083337 -0.030836022725992507 -6.333378642646048 11 0 0
1638 496 4 0 -4.00136732282739 -9.275297010712375 -4.896676087959015 14 1 0
3879 1243 4 0 -4.246495824369237 -9.570356062975737 -4.816448049680643 15 1 0
3877 1243 2 0 -4.473385258338375 -9.88404050303265 -4.6398975537206795 15 1 0
1636 496 2 0 -3.6130467856433732 -9.234100140147076 -5.133794188460729 14 1 0
1637 496 4 0 -3.229324330976665 -9.204559947014419 -5.373726287774397 14 1 0
2285 712 4 0 -1.6557231594557535 -9.306653047243824 -5.392052197807251 4 0 1
698 183 4 0 -5.419477284075511 -8.259265437556527 -5.1466899378742745 5 0 0
2200 684 2 0 -2.424707933001182 -9.136211845057888 -5.48717305404425 14 1 1
2201 684 4 0 -1.980147848927455 -9.086701040069824 -5.4247579088528735 14 1 1
2284 712 2 0 -1.3366788798988232 -8.973798095311624 -5.350469819384751 4 0 1
2286 712 4 0 -1.0301997536161576 -8.65885628800595 -5.319261958817766 4 0 1
2109 653 4 0 -0.6703618934360822 -8.605572837041985 -5.417419517197232 14 1 1
2107 653 2 0 -0.2625679440097368 -8.405295379416337 -5.4173013259888565 14 1 1
3296 1049 4 0 -5.455018809511686 -8.178794057228844 -4.756037619880971 5 0 0
3295 1049 2 0 -5.1180907726995 -7.8651057152277986 -4.609194246934426 5 0 0
2775 875 4 0 -9.895183177599206 -4.6050087677865115 -4.6055943597229945 6 0 0
2599 817 2 0 -4.735974400367852 -4.726726511676328 -4.956926588992931 6 0 0
2553 801 4 0 -5.489244434453628 -4.681593854280618 -4.616657130516711 6 0 0
2600 817 4 0 -5.145436340923497 -4.603422264947365 -4.7968773689348705 6 0 0
2601 817 4 0 -4.325612040742024 -4.856291155854677 -5.1131908139893145 6 0 0
2856 902 4 0 -3.930010229287052 -4.852434353138493 -4.984450944467103 6 0 0
617 156 4 0 -2.7915479252844744 -4.62308795882919 -5.391163859684941 5 0 0
2854 902 2 0 -3.566135274163713 -4.7998767196734144 -5.219454061208074 6 0 0
2855 902 4 0 -3.192411354187467 -4.73981205548867 -5.4472572032661795 6 0 0
2861 904 4 0 -7.488282118220209 -4.571472936222477 -4.725080366516699 6 0 0
2860 904 2 0 -7.056428405516888 -4.3968003565844 -4.74108259613895 6 0 0
2862 904 4 0 -6.658548849032189 -4.239285651161607 -4.75259063013988 6 0 0
2552 801 4 0 -6.27446665481088 -4.22526331018615 -4.6370487070913295 6 0 0
2551 801 2 0 -5.884491460884165 -4.445598482300967 -4.623766320415549 6 0 0
616 156 2 0 -2.3844978544077406 -4.503758879683645 -5.192225207031585 5 0 0
618 156 4 0 -1.9981885556957586 -4.38856111026564 -5.007807870744949 5 0 0
872 241 4 0 -1.6227340054366852 -4.470137133207858 -5.104162918860858 5 0 0
871 241 2 0 -1.2950394238954246 -4.248557033366741 -4.880698329360932 5 0 0
873 241 4 0 -0.9830992712674664 -4.034116191327894 -4.6606406067470765 5 0 0
3235 1029 2 0 -8.615349318122487 -1.9048422788445691 -4.647024987931924 9 0 0
1438 430 2 0 -9.472960507042554 -1.5701654211590519 -5.489766021096777 9 0 0
1440 430 4 0 -9.181440936561092 -1.6357401074559625 -5.173362203653198 9 0 0
3236 1029 4 0 -8.876259367365572 -1.599565504709398 -4.9099437348983255 9 0 0
3709 1187 2 0 -9.238158128715147 -0.47225159996354726 -5.218278479984526 10 0 0
3710 1187 4 0 -9.338333337116367 -0.07502827157581926 -5.024517805671889 10 0 0
3711 1187 4 0 -9.147409957251005 -0.8566328993540999 -5.405034595335468 10 0 0
1662 504 4 0 -3.920830790894363 -11.396312591007844 -3.926888498471884 14 1 0
1707 519 4 0 -4.287587499656867 -11.250873154018995 -3.966772177037008 14 1 0
1661 504 4 0 -3.119732779300442 -11.784321753370426 -3.969099458224578 14 1 0
1660 504 2 0 -3.539030170993332 -11.58552367985754 -3.943914170256588 14 1 0
1706 519 4 0 -4.620147236331188 -10.397745347848275 -4.05766399459597 14 1 0
3878 1243 4 0 -4.714990509461489 -10.21145160497674 -4.446880367201247 15 1 0
1705 519 2 0 -4.454075599858069 -10.81616687249088 -4.006966008301894 14 1 0
2641 831 2 0 -0.20431959685982015 -9.179691932639104 -3.721309007952174 6 0 0
2643 831 4 0 -0.33916463237097183 -9.593428519335808 -3.7883980806330886 6 0 0
4124 1325 4 0 -0.11337906878156367 -8.380580032910174 -3.84094507926239 6 0 0
3297 1049 4 0 -4.786971005924768 -7.551767082570206 -4.471142707779373 5 0 0
3102 984 4 0 -4.6788173414241125 -7.4156981325695455 -4.1350626690949 5 0 1
3100 984 2 0 -4.218885966302869 -7.3462437391119995 -4.082960158717548 5 0 1
3101 984 4 0 -3.8010634090034294 -7.292410715430629 -4.035622401808238 5 0 1
713 188 4 0 -3.4289515810085742 -7.317171044473091 -3.9486881397346885 5 0 0
712 188 2 0 -3.0825459824174395 -7.028792011396175 -3.9337568884918683 5 0 0
714 188 4 0 -2.7302481135716548 -6.741528761988967 -3.927976052274344 5 0 0
662 171 4 0 -2.4143878264192953 -6.709891634733695 -3.71065138681006 4 0 0
661 171 2 0 -1.9895505591704197 -6.670905459612327 -3.7998814914994288 4 0 0
663 171 4 0 -1.5937975167789595 -6.639309371157135 -3.8920013084732243 4 0 0
4488 1446 4 0 -1.2698550354208997 -6.380688192250905 -3.8818149606988452 14 1 1
2831 894 4 0 -11.115762478457981 -4.95592924827704 -4.575056637248913 6 0 0
3795 1215 4 0 -11.41842516885656 -5.19599619941183 -4.550168151056121 15 1 0
3793 1215 2 0 -11.848142689943643 -5.303967188835809 -4.427830586207227 15 1 0
2830 894 2 0 -10.659465513442536 -4.8905543640059 -4.577998611685019 6 0 0
2832 894 4 0 -10.241776973054073 -4.8279877231817405 -4.582342194116048 6 0 0
2773 875 2 0 -9.466103923328431 -4.716527754210149 -4.5133884714608605 6 0 0
2774 875 4 0 -9.041332872127859 -4.834324851491483 -4.414868960738788 6 0 0
2216 689 4 0 -8.629852350820098 -4.740421817875695 -4.404936092058405 5 0 1
2215 689 2 0 -8.188563010426266 -4.62890537921166 -4.434444867678504 5 0 1
2655 835 4 0 -10.208170742920514 -3.671130595311551 -3.8280990360827616 6 0 0
2653 835 2 0 -10.421225375364738 -4.060552697150001 -3.6754344006168864 6 0 0
2217 689 4 0 -7.746343380897024 -4.50476874877951 -4.471749709062902 5 0 1
755 202 4 0 -0.6254962919816105 -4.078013268235414 -4.494775230946632 5 0 0
754 202 2 0 -0.16247163207262538 -4.159440360138238 -4.456856371636279 5 0 0
2595 815 4 0 -10.216037364812243 -3.2374001356934485 -3.8341965919288956 6 0 0
2593 815 2 0 -9.789538574950209 -3.1206278232715317 -3.711986850663731 6 0 0
2766 872 4 0 -8.014228510127596 -3.215462840480937 -4.125327626821222 9 0 0
2764 872 2 0 -8.05715813639887 -2.8311902439912373 -4.307418105014801 9 0 0
3237 1029 4 0 -8.37266390989449 -2.172784259082336 -4.399479008691826 9 0 0
2765 872 4 0 -8.097293957779456 -2.4320323366148013 -4.5113279665260375 9 0 0
2631 827 4 0 -0.32942149014990996 -11.852129384512635 -3.610635617763151 6 0 0
1622 491 4 0 -10.257274211026086 -9.669665879246718 -3.0037851278201853 5 0 -1
1621 491 2 0 -10.58983786706718 -9.331323431214118 -2.930110338126706 5 0 -1
2457 769 4 0 -9.867837131091257 -9.72314734470418 -2.898914642415601 5 0 0
1623 491 4 0 -10.907476031049908 -9.017104426628421 -2.862671867599948 5 0 -1
2642 831 4 0 -0.057013234766081666 -8.743381793194386 -3.657835945183452 6 0 0
691 181 2 0 -7.561108850576824 -7.420412396362486 -2.7576384573929484 5 0 0
692 181 4 0 -7.1933781227029785 -7.554788389012843 -2.9842719238155073 5 0 0
842 231 4 0 -6.810295208121065 -7.436087959200741 -2.9404137180529712 5 0 0
841 231 2 0 -6.398666869024559 -7.529164305337675 -2.7583814395858095 5 0 0
3989 1280 4 0 -11.76309014658383 -6.5367467120800775 -3.0491534048959767 15 1 0
1708 520 2 0 -5.367472260928245 -7.146423019089722 -2.786251254424805 15 1 0
1710 520 4 0 -4.986779603263096 -6.966595922297917 -2.932006986163122 15 1 0
2676 842 4 0 -11.800799935039144 -6.138175250845355 -3.1142840610687053 7 0 0
2674 842 2 0 -11.88998922041768 -5.737554484141427 -3.2884891206765836 7 0 0
1599 483 4 0 -3.2684642439480953 -5.568793236166201 -2.934776292122333 15 1 0
4486 1446 2 0 -1.0180142879393674 -6.163779052897583 -3.5622272628071325 14 1 1
4487 1446 4 0 -0.7664603327889434 -5.95566714541951 -3.2697842260178405 14 1 1
2628 826 4 0 -0.36181607308308195 -5.896684259657444 -3.2534159535101868 5 0 0
4121 1324 4 0 -11.776880353625804 -5.020902229843953 -3.5400271893917665 7 0 0
4120 1324 2 0 -11.36899185361486 -4.773734962776674 -3.452455914051537 7 0 0
2194 682 2 0 -9.254130750838572 -4.882437769873879 -3.0728761101815607 5 0 0
3029 960 4 0 -9.928880358089756 -5.08493926542033 -2.9336102979092598 5 0 0
2195 682 4 0 -9.562422925195298 -5.021028642529836 -2.7679495451262834 5 0 0
2196 682 4 0 -8.92626720508435 -4.729491050891762 -3.3699216595654367 5 0 0
378 76 4 0 -3.197823365069361 -5.2201737462729625 -3.1636839814217144 5 0 0
376 76 2 0 -2.776780105512943 -5.309229606869076 -3.3080891832010746 5 0 0
792 214 4 0 -1.9591078562836142 -5.349444041266126 -3.4656794285906596 5 0 0
377 76 4 0 -2.352482062312708 -5.402685306498261 -3.4536153570136 5 0 0
790 214 2 0 -1.559027808333001 -5.096826647680704 -3.475685468236085 5 0 0
791 214 4 0 -1.1810249727565179 -4.842997316654769 -3.4883092131528564 5 0 0
2677 843 2 0 -0.4841406631084286 -4.62836185724923 -3.5316420196200617 5 0 0
2679 843 4 0 -0.05880159307437438 -4.699921356200862 -3.467863921788707 5 0 0
4122 1324 4 0 -11.00105674284858 -4.556022008721771 -3.36561631165754 7 0 0
2654 835 4 0 -10.621617453185412 -4.457698210241289 -3.515010931177649 6 0 0
2678 843 4 0 -0.9535980204708014 -4.5534846817485946 -3.5987138553350473 5 0 0
2594 815 4 0 -9.398226026226578 -3.008136264294558 -3.5815975885639837 6 0 0
1130 327 4 0 -9.082808044230726 -3.0344563498875363 -3.3153829480088355 6 0 0
1129 327 2 0 -8.82054117563294 -2.8359629335144287 -3.022919957365671 6 0 0
1140 330 4 0 -9.186707529568217 -0.22693151569234793 -2.79540236080431 10 0 0
4562 1471 4 0 -8.962295962905394 -0.2895838536901447 -3.1256625728122085 10 0 0
4561 1471 2 0 -8.544613224405504 -0.28460127203100605 -3.322933270226475 10 0 0
4563 1471 4 0 -8.159291648023286 -0.2748333419098117 -3.510054730919519 10 0 0
2522 791 4 0 -7.832860922504853 -0.43015405921113725 -3.6348560597578548 11 0 0
2521 791 2 0 -7.443713366707081 -0.5149625019676538 -3.429031746428482 11 0 0
2523 791 4 0 -7.061195094219325 -0.5892416339971103 -3.2216877907182493 11 0 0
2611 821 2 0 -6.4951919068424315 -0.055697206737852056 -3.09612763052189 11 0 0
2613 821 4 0 -6.846473618971018 -0.3072212025442287 -3.056678458409799 11 0 0
1529 460 4 0 -1.0143907041503262 -11.915621202251135 -1.9670800607248555 15 1 0
2455 769 2 0 -9.499699085971057 -9.595415329045705 -2.6243796901811134 5 0 0
2456 769 4 0 -9.14053302827826 -9.472835862725487 -2.3789052489924067 5 0 0
707 186 4 0 -8.758169422878176 -9.53956943502077 -2.3122630921073544 5 0 0
1099 317 2 0 -6.519326238219477 -9.660243961741292 -1.8682622117440761 4 0 0
1101 317 4 0 -6.22243312693227 -9.417216779497876 -2.051396467853669 4 0 0
2111 654 4 0 -5.850252177999589 -9.215581229471901 -2.100346265728403 14 1 0
971 274 4 0 -10.986996082816036 -8.731504655529326 -2.5930423532822466 5 0 0
970 274 2 0 -10.802742586557914 -8.385199059933527 -2.3861236640926062 5 0 0
706 186 2 0 -8.643703972680598 -9.14779148972148 -2.117610231534824 5 0 0
708 186 4 0 -8.536079172465529 -8.753110662036969 -1.9228490451833977 5 0 0
2034 628 4 0 -8.202879896581997 -8.580246724538751 -2.0059243378952107 5 0 0
2032 628 2 0 -7.760034513084196 -8.496402371383722 -1.8962195122649401 5 0 0
2110 654 2 0 -5.449178650099939 -9.009685476088718 -2.078443952355391 14 1 0
2112 654 4 0 -5.051276210662791 -8.799276440186725 -2.055501546736494 14 1 0
1403 418 4 0 -4.681449946981496 -8.778826508532878 -1.8928863714635042 14 1 0