LAMMPS data file via write_data, version 19 Nov 2024, timestep = 100000, units = lj

79 atoms
4 atom types
54 bonds
1 bond types
35 angles
2 angle types

-2.982675 2.982675 xlo xhi
-2.982675 2.982675 ylo yhi
-2.982675 2.982675 zlo zhi
-6.850520151147066e-12 0 0 xy xz yz

Masses

1 1
2 1
3 0.1
4 0.1

Bond Coeffs # harmonic/omp

1 100 0.45

Angle Coeffs # harmonic/omp

1 100 180
2 100 109.471

Atoms # full

26 8 2 0 -1.666062358683092 -2.9078275775630527 -2.1019697355643747 1 0 1
52 16 4 0 -1.048634071512836 -2.9483281160502277 -2.593911116290881 2 0 1
58 18 4 0 -1.7922853571611317 -2.3935434215448637 -1.6459839938582035 2 1 1
28 8 4 0 -1.9392741299233294 -2.751230384776218 -1.7639307934052528 1 0 1
56 18 2 0 -1.6683918088404837 -1.956807008237705 -1.5307339602272534 1 1 1
57 18 4 0 -1.5544728359714295 -1.5348566869875142 -1.420532326817054 1 1 1
12 3 4 0 -1.3245977317843256 -1.2192798772768336 -1.462121107634628 0 0 1
11 3 2 0 -0.977819228966351 -1.1111161862395773 -1.1776606874129334 0 0 1
13 3 4 0 -0.627791319911255 -1.0044299769304803 -0.8834304357145002 0 0 1
41 13 2 0 -0.38855638172138374 -1.4735508537538762 -0.3055960429507194 0 1 1
43 13 4 0 -0.40403068089475713 -1.1409827287647432 -0.5781991910547695 0 1 1
42 13 4 0 -0.3716176132592195 -1.8197253105605167 -0.01769230148077794 0 1 1
68 22 2 0 -2.3996799672375886 -0.21798134042468265 -0.16330750013764694 2 0 0
70 22 4 0 -2.799508758061769 -0.3893266622089757 -0.2380504140500035 2 0 0
69 22 4 0 -2.0013644967658757 -0.04871464648921453 -0.09940727972640584 2 0 0
9 2 3 0 -1.0423876724302332 -0.26632529686249384 -0.327420369385619 2 0 1
10 2 3 0 -1.749821842331776 -0.35884887868149695 -0.14948770977389225 2 0 1
6 2 1 0 -1.3148613411001921 -0.4019543000260497 -0.009053682302916144 2 0 1
48 15 4 0 -0.6499383122537066 -0.30135815544052047 -0.4583347835357938 1 1 1
47 15 2 0 -0.3093961622954491 -0.03701140264602465 -0.3725981526471345 1 1 1
30 9 4 0 -0.4902311317496104 -2.150561570307441 0.15513515421952917 0 1 1
29 9 2 0 -0.5582817727365517 -2.603369644811662 0.11332976273629836 0 1 1
8 2 3 0 -1.2540733564517759 -0.15407168280486339 0.35757903862120255 2 0 1
7 2 3 0 -1.2368985607095715 -0.8114455643804295 0.07547765531788553 2 0 1
27 8 4 0 -1.403295384454897 2.906549446506356 -2.4331589244745544 1 -1 1
50 16 2 0 -0.8369167733471423 2.9147297557972167 -2.9700719663069606 2 -1 1
79 25 4 0 -0.40751714929269456 2.291456187971795 -1.3191548842194265 1 0 1
77 25 2 0 -0.07659203450772711 2.3866682312331524 -1.6059896582930326 1 0 1
76 24 4 0 -0.7119851194947087 2.29736957028423 -1.048134003733797 1 0 1
74 24 2 0 -0.6262862059064664 2.476645460564171 -0.6259868343152317 1 0 1
75 24 4 0 -0.5456463712383415 2.6474034593409352 -0.21837784544264993 1 0 1
37 11 4 0 -1.3698918842275503 0.09422448001716432 0.6214136677986284 1 0 0
35 11 2 0 -1.24082942769871 0.504230726122302 0.721140693222428 1 0 0
36 11 4 0 -1.1069941234056904 0.9288783285226532 0.833890036211244 1 0 0
31 9 4 0 -0.6315924951815775 2.9166568461713447 0.06694252972118608 1 0 1
38 12 2 0 -1.1388845940677579 1.5825734996710827 1.2058107865072958 1 0 1
39 12 4 0 -1.3184171929912918 1.914751399988487 1.419869854404157 1 0 1
40 12 4 0 -0.9545275315406565 1.2515427207633043 1.0029130505585035 1 0 1
21 6 4 0 -1.2265788955665613 2.159340463143707 1.725748230141774 1 -1 1
20 6 2 0 -1.00858728938579 2.382073707810209 2.020082151470065 1 -1 1
22 6 4 0 -0.7798627492417256 2.605607655068916 2.326918343954923 1 -1 1
51 16 4 0 -0.6292157924241302 2.810610717624106 2.625641923496516 2 -1 0
33 10 4 0 0.06324681474142624 -1.348713442768726 -2.839024925820198 0 0 1
64 20 4 0 0.1406562291900677 -0.9988079045500693 -2.699135196148061 1 0 1
62 20 2 0 0.33235263601283194 -0.6056636990949626 -2.5209441169410898 1 0 1
63 20 4 0 0.5099752581604551 -0.23425509410328837 -2.353622759595122 1 0 1
19 5 4 0 0.8283171898202859 -0.004188920887771008 -2.44006094787359 0 0 1
60 19 4 0 1.249512078406172 -1.6950258711439983 -0.5565120401716284 0 0 0
59 19 2 0 1.5098999868315617 -1.7256173784887652 -0.1962371500014375 0 0 0
14 4 2 0 2.519518776683268 -0.25303396078365736 -0.6270268194735458 0 0 0
16 4 4 0 2.8351216881826615 -0.5002287362725135 -0.45549258675301596 0 0 0
15 4 4 0 2.195365938697853 -0.006610612836156271 -0.8102999385776006 0 0 0
44 14 2 0 1.4963708371171038 -1.3747663059181214 0.8559901628901483 0 1 0
45 14 4 0 1.6486202088778952 -1.6032092342866189 0.4954553052591488 0 1 0
61 19 4 0 1.7635778177951456 -1.7556854350783775 0.16293776844083574 0 0 0
23 7 2 0 0.8780260433459182 -1.4981759506943495 1.7947661377803645 0 0 1
24 7 4 0 1.2243711921185345 -1.420299817921052 1.5129169401135116 0 0 1
46 14 4 0 1.3513999649363186 -1.1503695108901364 1.2197372941633398 0 1 0
25 7 4 0 0.5298934547204137 -1.5780613255515772 2.071735453761217 0 0 1
34 10 4 0 0.19148553597196516 -1.4459571234567918 2.2222753056862783 0 0 0
32 10 2 0 0.1288358574862416 -1.396654999032997 2.668059239899574 0 0 0
17 5 2 0 1.1530299268751727 0.20411054073245838 -2.22290373523357 0 0 1
18 5 4 0 1.4894183490616517 0.4164567636222647 -1.9997574825342088 0 0 1
67 21 4 0 0.604993538270473 2.4977559514000336 -2.069616226612293 1 0 1
4 1 3 0 1.4946435816452568 0.4356219536011072 -1.6002462686734353 0 0 0
1 1 1 0 1.6395766793114555 0.5368928817198353 -1.1697509664107 0 0 0
3 1 3 0 1.8150928820877117 0.9692473055420834 -1.1600888802847136 0 0 0
2 1 3 0 1.96395293537616 0.23116707843620476 -1.042160594544069 0 0 0
53 17 2 0 1.8505209029311538 1.7620999411952654 -1.4127385987339285 1 0 0
54 17 4 0 1.9070679526224388 1.3642648882662303 -1.2049611759084948 1 0 0
78 25 4 0 0.23792543884397066 2.4721057540571727 -1.8884993972564896 1 0 1
65 21 2 0 1.0065495242197167 2.356862151180762 -1.9223381151643157 1 0 1
55 17 4 0 1.785442446731604 2.149471976347527 -1.6201703764807054 1 0 0
66 21 4 0 1.4133375003883075 2.20575484896132 -1.7611466093325876 1 0 1
71 23 2 0 0.6945388520600506 0.45787419683321495 -0.47341850300745314 0 0 0
72 23 4 0 0.412349909548555 0.2328399358370392 -0.19690990288125532 0 0 0
49 15 4 0 0.03517880311990007 0.22915716391166674 -0.29154468256847377 1 1 1
73 23 4 0 0.9534065601711377 0.67144681992239 -0.7386705115752012 0 0 0
5 1 3 0 1.293544747984582 0.5049401490817664 -0.8852734303430889 0 0 0

Velocities

26 -0.18031700412696414 0.12063768286319346 0.30333569670613614
52 0.32783265906411435 -0.3883578002890197 -0.6137940710423533
58 -0.20243335990048594 1.4112961976274323 -0.33321164096237077
28 0.4759800716971696 -0.06787846988751872 -0.8904353655273965
56 0.17241770410443816 -0.10455506392014738 0.10051056237833034
57 -0.3084245763958868 -0.1316099522389642 0.4350029900214955
12 0.2369069389277998 -0.09654062224657602 -0.48822203392378544
11 -0.1149650661455231 0.09846454099675452 0.07485675003206504
13 -0.033867343774901144 -0.0877344544363956 0.9243400483399575
41 -0.0982698676319203 -0.009296803368877943 0.1551076327080756
43 0.007396453525933558 0.5119895423424904 0.08293515915650561
42 0.4551154223064263 0.21257479862770237 0.1407610947672652
68 0.03456090030875235 0.01663777377207319 0.07574490983426971
70 -0.5716247534521071 -0.28541279086749427 -0.2151325467887839
69 0.1869511589092741 -1.1629510415316313 0.04177178987164698
9 -0.06445258391827344 0.597861257607188 -0.03558945474739274
10 -0.0669253327560548 -0.17291466590829477 0.3311714633473273
6 0.03025206765298433 -0.07879375791009789 0.3268001567163706
48 -0.36085691856773483 0.6321322206360731 0.2596922207762854
47 0.0481915809966184 0.0009241712479831422 -0.12530062470881867
30 -0.10599126982498323 -0.1618551275064294 -0.6010436038248389
29 -0.15945493855179224 0.22854014878295295 -0.16262466554981134
8 0.3446954971805808 0.35079726310381004 -0.2162540622341611
7 0.0980918321765485 1.0112182049067242 0.48116727229427614
27 0.49096338833878256 -0.33665213115358006 0.09994357989016005
50 -0.10936608699154689 -0.04599718474641412 0.02957276200896491
79 -0.8474112175779458 0.9777239570665847 0.2519844598205625
77 -0.041153916489524475 -0.01136618507341474 0.23877655323394625
76 -0.030172994495503706 -0.3424966279101814 -0.07973259653262067
74 0.11788907394382528 0.0618288958055024 -0.02610642672207456
75 -0.005283317170907126 0.14581736507591525 0.3472256896413023
37 -0.7223585265276531 -0.1427220943335336 0.05344090961603824
35 -0.13357898374597366 0.04680669842640343 -0.03473906479396296
36 -0.05722588769625041 -0.7162202846381056 -0.18188065975374845
31 0.6747700999804975 0.6377955910839889 -0.33880206558632725
38 0.16887177653521415 0.025283884913892007 0.0077686374840427695
39 -0.45939385457685117 -0.6994014905208744 0.00031461517886684914
40 -0.06783947628828309 -0.20170551803253317 0.4622841853554096
21 0.22579337279077932 0.35095766711979226 -0.4395855270907141
20 -0.35902004694152007 -0.4460391655498135 0.05493783740672442
22 0.8832297057008522 -0.20433310133755306 -0.6050562243458188
51 -1.312273393074271 -0.705437537996281 0.10215531366328662
33 -0.2984530017038075 -0.575856865532643 0.19166353981768558
64 -0.06693247576799724 0.2887160206035114 -1.3761014357846038
62 -0.03560659977669895 0.1475425442836381 -0.12328322581344736
63 -0.14979485697620515 0.2595674849931048 0.020446656965777646
19 0.23860075152831567 0.03426896657939926 0.7351566362639745
60 0.4860352056930058 -0.12035918459233245 0.614107946406652
59 0.14402803084654028 0.16590382040073776 0.10967922792522572
14 0.13458909726416043 -0.12736832578685423 0.1579222993002493
16 0.0919916710433823 1.0008767626020971 0.019109631337317662
15 0.17658679913216882 -0.21812836103516034 -0.4329630102586675
44 -0.005603839166732214 0.053233202388307976 -0.1570350560260553
45 -0.1970156517399087 -0.20275676782803634 0.12419328372762181
61 0.3330550619501527 0.5247299750233693 0.4550859720366504
23 0.25054043958926797 -0.042042462486190674 0.03651369429168848
24 -0.4213434173556722 -0.8342266353579343 -0.2069911284515444
46 0.3797988877949873 0.7859242356295147 -0.362314301639061
25 -0.2882326238248109 -0.1713533350863299 0.44220453945447996
34 0.36668755646578194 0.37741845245340727 -0.687530174259563
32 -0.1465654158612981 0.21192232558220808 0.1798979097621933
17 -0.06170874404825774 0.05122313729404662 0.03364172260594237
18 0.6501582063180602 0.48331122509646623 0.3704623791981307
67 -0.21111308905047216 -0.8281506518442682 -0.402805088107298
4 -0.3524378049010742 -0.45237050028171605 0.20731915079277358
1 0.07613114031469086 -0.14398044695927847 -0.061226440148208605
3 0.25102730213342517 0.46109796349234167 0.15576471282861526
2 0.17565937192646786 0.6313456590765962 -0.32272607556843164
53 0.1092015915724226 0.10761349054961647 -0.2362342814928136
54 0.4085094062596012 -0.15818756704051345 -0.8768338442828618
78 0.5099044651157769 -0.003919766853630123 -0.3521358389068074
65 -0.014597263071391399 -0.10170413229918122 -0.017376690749675516
55 0.3409338817739488 0.40559329076363515 0.18731926542276667
66 -0.28891778862166123 0.3939203744038957 -0.6966624966912215
71 -0.044620954491833245 -0.08068374486447093 -0.1819877110942879
72 0.28426243704432064 0.18605269329758453 -0.1454837153700591
49 -0.36004574214873775 0.17201779127079964 1.0945089595711417
73 0.09657827111074765 0.1003877249335329 0.6215658928577186
5 -0.14114276098108758 -0.47891775239482953 0.8873169428549059

Bonds

1 1 26 27
2 1 26 28
3 1 56 57
4 1 56 58
5 1 11 12
6 1 11 13
7 1 41 42
8 1 41 43
9 1 68 69
10 1 68 70
11 1 6 7
12 1 6 8
13 1 6 9
14 1 6 10
15 1 47 48
16 1 47 49
17 1 29 30
18 1 29 31
19 1 50 51
20 1 50 52
21 1 77 78
22 1 77 79
23 1 74 75
24 1 74 76
25 1 35 36
26 1 35 37
27 1 38 39
28 1 38 40
29 1 20 21
30 1 20 22
31 1 62 63
32 1 62 64
33 1 59 60
34 1 59 61
35 1 14 15
36 1 14 16
37 1 44 45
38 1 44 46
39 1 23 24
40 1 23 25
41 1 32 33
42 1 32 34
43 1 17 18
44 1 17 19
45 1 1 2
46 1 1 3
47 1 1 4
48 1 1 5
49 1 53 54
50 1 53 55
51 1 65 66
52 1 65 67
53 1 71 72
54 1 71 73

Angles

1 1 27 26 28
2 1 57 56 58
3 1 12 11 13
4 1 42 41 43
5 1 69 68 70
6 2 7 6 8
7 2 7 6 9
8 2 7 6 10
9 2 8 6 9
10 2 8 6 10
11 2 9 6 10
12 1 48 47 49
13 1 30 29 31
14 1 51 50 52
15 1 78 77 79
16 1 75 74 76
17 1 36 35 37
18 1 39 38 40
19 1 21 20 22
20 1 63 62 64
21 1 60 59 61
22 1 15 14 16
23 1 45 44 46
24 1 24 23 25
25 1 33 32 34
26 1 18 17 19
27 2 2 1 3
28 2 2 1 4
29 2 2 1 5
30 2 3 1 4
31 2 3 1 5
32 2 4 1 5
33 1 54 53 55
34 1 66 65 67
35 1 72 71 73
