LAMMPS data file via write_data, version 19 Nov 2024, timestep = 1000000, units = lj

79 atoms
4 atom types
54 bonds
1 bond types
35 angles
2 angle types

-2.982675 2.982675 xlo xhi
-2.982675 2.982675 ylo yhi
-2.982675 2.982675 zlo zhi

Masses

1 1
2 1
3 0.1
4 0.1

Bond Coeffs # harmonic/omp

1 100 0.45

Angle Coeffs # harmonic/omp

1 100 180
2 100 109.471

Atoms # full

12 3 4 0 -2.0590866603328832 -2.5647701799664886 -1.4324353343024785 0 0 1
57 18 4 0 -2.0151962805582517 -2.877442093676001 -1.6955984786355238 1 1 1
19 5 4 0 -2.4679524485740947 -0.16308087944353417 -2.3969724830965715 0 0 1
63 20 4 0 -2.6327498695109433 -0.10865861422441908 -2.759047249779333 1 0 1
11 3 2 0 -1.5929326071928882 -2.507003127165442 -1.308769880267881 0 0 1
43 13 4 0 -0.8310562525590915 -2.474748851432569 -0.9405514143958862 0 1 1
13 3 4 0 -1.1360959618619386 -2.4627616736396485 -1.1954355928678122 0 0 1
41 13 2 0 -0.42615876556972637 -2.5916004482584243 -0.8068117631617898 0 1 1
42 13 4 0 -0.00034872672896495236 -2.7028264913177105 -0.6714006478225201 0 1 1
23 7 2 0 -1.134432976571048 -0.9433127367313653 1.1059887744719001 0 0 1
24 7 4 0 -0.8534774037590854 -0.9484886885313046 0.7839151887546246 0 0 1
46 14 4 0 -0.5055802517952835 -0.8624078681078615 0.5979726864304367 0 1 0
44 14 2 0 -0.15268051726308313 -0.7154752508672262 0.3285334266272516 0 1 0
25 7 4 0 -1.4485977700671846 -0.9355964414725189 1.4447772552183056 0 0 1
32 10 2 0 -2.04249358790885 -0.4273161183677635 1.8090525674584252 0 0 0
64 20 4 0 -2.450497132764201 -0.06501219462808 2.3362448102096196 1 0 0
33 10 4 0 -2.3471471578350256 -0.14440136276275922 1.9658403709248995 0 0 0
62 20 2 0 -2.544132815984219 -0.08980719645411271 2.7727591757890755 1 0 0
34 10 4 0 -1.7160430582072224 -0.7207896368604124 1.6538672867689206 0 0 0
17 5 2 0 -2.4492721933191817 0.2012122381386971 -2.143035824287723 0 0 1
18 5 4 0 -2.4308949162638003 0.5660049862026832 -1.8904239529855484 0 0 1
54 17 4 0 -2.7479358898440522 1.1603962604044158 -2.2534406479240428 1 0 0
4 1 3 0 -2.2024094422197287 0.8239749816316055 -1.6864027068399448 0 0 0
1 1 1 0 -2.3459432488805145 1.2255213448562905 -1.6241337273633192 0 0 0
2 1 3 0 -1.9908483617352302 1.4986576944048549 -1.5178637244070168 0 0 0
3 1 3 0 -2.52519693392048 1.3681372547272823 -1.9843534568771568 0 0 0
14 4 2 0 -1.1765609066775002 1.2963409596587567 -1.7204284784366493 0 0 0
70 22 4 0 -0.4237338090632867 0.9479731068177493 -1.6067866348803 1 0 0
68 22 2 0 -0.07345800440941011 0.6740956064325055 -1.627654986256713 1 0 0
16 4 4 0 -0.7587575284676377 1.1091960826183305 -1.7773417319782303 0 0 0
15 4 4 0 -1.5922847300181306 1.4872665528170044 -1.6593326435523899 0 0 0
56 18 2 0 -2.127710190078389 2.8977036012792916 -2.1004507618841637 1 0 1
28 8 4 0 -2.473164676520421 2.5593228426989327 -2.793744656885804 0 -1 1
58 18 4 0 -2.2274060869789336 2.6966069529652588 -2.529437101023079 1 0 1
5 1 3 0 -2.6443987278942673 1.2325882377927473 -1.2947929093621235 0 0 0
36 11 4 0 -0.15176929920759522 1.4523966098945655 -0.2170825581879973 0 0 0
40 12 4 0 -0.32362374825507345 1.508670685149431 0.11770308650426496 0 0 1
21 6 4 0 -0.29475738787560346 1.5001250383924978 1.3515134113161562 0 -1 1
39 12 4 0 -0.4678186707553638 1.4915348363455188 1.0035726220314696 0 0 1
38 12 2 0 -0.391361466302331 1.4990050199600935 0.5551592347428207 0 0 1
27 8 4 0 -1.971495660778036 2.5002741100479446 2.4191684953069412 0 -1 0
26 8 2 0 -2.219840089871273 2.5334310674410436 2.799737817872079 0 -1 0
52 16 4 0 -1.722719963164914 2.2019503470193214 2.5050405094958514 1 -1 0
22 6 4 0 -0.7888526004214487 1.7864441293605393 2.0424929353370196 0 -1 1
20 6 2 0 -0.5393666671525817 1.645759574649594 1.692820855313615 0 -1 1
51 16 4 0 -0.9223520713033222 2.1887426103985526 2.0653548030115796 1 -1 0
50 16 2 0 -1.3189328737739556 2.2018196284326943 2.278747927041682 1 -1 0
76 24 4 0 1.013835188952065 -2.6928759480024556 -2.4441832478116337 0 1 1
74 24 2 0 1.0647981951625152 -2.5647949163051362 -2.0079114687945974 0 1 1
75 24 4 0 1.1087191646251382 -2.458498247034994 -1.5991367261731846 0 1 1
79 25 4 0 1.0210254826057164 -2.875351945128993 -2.8386417334015164 0 1 1
31 9 4 0 1.0799992532495706 -2.4948249457338423 -1.1951759018699544 0 1 1
29 9 2 0 0.7268353048038815 -2.5030247168298585 -0.9117903326011157 0 1 1
30 9 4 0 0.3640448744596697 -2.5110852703906597 -0.6199392178749047 0 1 1
7 2 3 0 0.3944512877213179 -0.2699149777022138 -0.7037935395370166 1 0 1
61 19 4 0 0.5205042967374088 -0.4332200241155184 -0.1517302862258321 0 0 0
45 14 4 0 0.184378043970915 -0.5687902821971363 0.05260974871888911 0 1 0
59 19 2 0 0.9253935837652435 -0.28958209619532055 0.010239228029994558 0 0 0
60 19 4 0 1.2999175992963616 -0.14476508995928897 0.1518614639753109 0 0 0
69 22 4 0 0.3028265488616211 0.3984324453557628 -1.6549047413240243 1 0 0
66 21 4 0 2.1800215646107746 1.3674187269146443 -2.7754157165647277 0 0 1
53 17 2 0 2.783581578073729 1.1793507657064535 -2.353586967836817 0 0 0
55 17 4 0 2.3377410395398015 1.1971155162113454 -2.4622594544270737 0 0 0
77 25 2 0 1.3069394853367768 2.709351523475861 -2.860897686303511 0 0 1
65 21 2 0 1.8650188474117586 1.6560825542780144 -2.878604320303292 0 0 1
78 25 4 0 1.5639476221482083 2.3566495650679187 -2.8815928225346314 0 0 1
35 11 2 0 0.08682322528574964 1.1382210747103176 -0.4329397510030784 0 0 0
9 2 3 0 1.001459447364975 0.036266073072647835 -1.023602563118892 1 0 1
6 2 1 0 0.5614334842157225 0.07960754634739525 -0.976609109193728 1 0 1
8 2 3 0 0.4853109852796179 0.4714390202877844 -0.7865821322987826 1 0 1
10 2 3 0 0.33854437859659414 0.08011621755413166 -1.4036335012774424 1 0 1
37 11 4 0 0.3222701022379166 0.8172384722605424 -0.6672999115302772 0 0 0
48 15 4 0 1.1548014163491882 0.3769518020527267 -1.0108492288773878 0 1 1
73 23 4 0 2.9531973309228103 1.4279127224372545 -1.2659771175492454 -1 0 0
49 15 4 0 2.026197046913359 0.6906465930900588 -0.9544317810769842 0 1 1
72 23 4 0 2.1339353399027225 1.0935634629950133 -0.9724207643585554 -1 0 0
71 23 2 0 2.523730388407523 1.2589438996511488 -1.1098832213365513 -1 0 0
47 15 2 0 1.5932791877807486 0.5353016158418533 -0.9836998526734131 0 1 1
67 21 4 0 1.541489354789762 1.9564709826535724 2.979475217695603 0 0 0

Velocities

12 -0.6585708616737892 0.1118227094486695 1.0092671433416136
57 -0.34834250248438736 0.5644385064309735 -0.32789036766876
19 0.8769368158000421 -1.1608312858363616 0.6359386492044674
63 0.28816611477955745 -0.5330573455746248 0.5503274781463969
11 -0.6183271769582438 0.5003193007390145 0.3959345765500666
43 1.3370735894993673 -0.18341715760863095 1.4307513685164792
13 0.12102160015436304 0.21711983236440863 -0.4618253548639699
41 -0.2087553369881495 0.03660539696751148 -0.12387082582370497
42 0.22698327509839744 -0.5966652260035691 0.9571457456572475
23 -0.21027984395875426 0.18306699421382222 0.023300257249544584
24 -1.0561480733584692 -0.3096427660309304 0.26466638898129247
46 0.5985207425416914 -0.1854513647271443 -0.07744230170144048
44 -0.199357111627766 0.04952244582008745 -0.10000226502758489
25 -0.5835894190802036 0.3247473460540267 -0.462167134200164
32 -0.2725438009614137 -0.2961518699659745 -0.5071946015775383
64 0.08451922789470524 0.3562286928529281 0.05590089302309217
33 0.23629897800562896 -0.8983646648219754 -1.0144313392505142
62 0.3395829301383575 0.024300395836478562 -0.022107249038808403
34 -0.05962964867664393 -0.8352794470978895 -0.7821673498531514
17 -0.011590720559643065 -0.3344617916626593 -0.11112596109218653
18 -0.9029479182854033 -1.1034570292818942 -0.22450633520064592
54 -1.0894958996749853 -0.7512778112700049 -0.7830072478024901
4 -0.45969090783020156 0.4676681145668636 -0.13869902639213189
1 -0.007563120878635377 -0.1929805625885451 -0.0002842840203627489
2 -0.515819227531122 1.2405335179932462 0.7420490419976301
3 0.3463100287353541 -1.0007236655488359 -0.8001613326013588
14 0.3213980441634504 -0.06269413035079592 -0.1311717046419603
70 -0.7132240815496906 0.2918222754378713 -0.31136291371738534
68 -0.0479519025432236 0.10854438973101477 -0.2814263452262649
16 1.0851119364047368 0.7326564268425094 -0.6821202484842935
15 0.47619482631861154 0.029156522850372627 0.781617860919305
56 -0.138730329900015 0.07607766675839414 -0.11567186249563532
28 -0.19146317974466817 -0.9481708510726337 -0.21159134454057638
58 0.25811917518127675 -0.22590681251443853 -0.024908681684385897
5 -0.4902269949013539 -0.18425737899972022 1.0011638771700677
36 -0.33704787320870305 -0.6329831695527903 -0.03692027163311271
40 -1.2811751914308798 0.2389161122911573 1.0472348823924298
21 0.5711823863772986 0.19175651570356303 -0.5934752089018501
39 1.190187843112776 -0.18721302249067218 0.1528301799212062
38 0.3773753732231197 0.12350035072520824 0.36236327544992813
27 0.6554950532489847 -0.8701525767376249 -0.1815528876498338
26 -0.12857154824067346 0.0030453481963523075 0.018729269751653756
52 -0.6087300912733998 0.2769933213338241 0.6294751331972372
22 0.45547050554241864 0.2513574513872045 -1.2651086456821579
20 0.34041216477966274 -0.2221625008891138 0.2749538483119385
51 0.6507144111489795 -1.1245663355596185 -0.6204462182152269
50 0.15942727545328203 -0.1341286709667556 -0.10360714456159228
76 -0.11190800310657162 -0.1503928738286155 -0.3593007000140336
74 0.015146467456042534 -0.2741598364738701 -0.04987808284336562
75 0.2675674009572216 -0.571091458922367 1.3867283276419864
79 -0.36324501406246107 0.836296734129219 -0.07384313657997191
31 0.024587103133949705 -0.1559459327496272 -1.755395697914183
29 0.23017528713689223 0.20891034990931284 -0.04233018612997704
30 -0.12672537741985498 0.4860679192143661 1.4739452419815
7 -0.24730958957284482 -0.4578024045360158 0.1676153853352691
61 1.1881549749700344 -0.39267007606801835 0.22674421216661125
45 -0.07235882831089545 0.07336621286005449 -0.21448553444242877
59 -0.17325346666871988 -0.4382595915573774 -0.016582911137323547
60 1.0746759214743558 -0.243061224252 -1.0779152267353058
69 0.3595584139519373 -0.5464886119315204 -0.25489389091549314
66 0.17914715008621762 -0.7745723651796846 0.48539404768175565
53 -0.09554769952270042 -0.2641727117466524 -0.0015803858649530676
55 0.06090622304109001 0.4323359882048118 -0.6493790651186775
77 0.11556288459771168 0.09830981207222911 -0.04769527371763265
65 -0.3575970090028784 0.02187064763398083 0.00045479205635001914
78 -0.5955217340864086 0.1622005594998465 -0.6464758918721527
35 -0.001887658385516933 -0.14679436764681722 -0.1309856190277398
9 -0.3988492468873378 0.1439728907528043 -0.6647904178134342
6 0.015164433516341815 0.4035554497047944 -0.00029023054570770195
8 -0.009614991245011438 -0.8080959786972087 0.7164743756325391
10 1.1370023803575533 0.39130407813646517 0.15666413616218752
37 0.3693862511812882 0.6990889567850588 0.22224216469636376
48 0.4631868164912922 0.7126327113703155 0.31786243083415394
73 -0.13842520697065436 -0.39829654473593745 0.8665853582754267
49 0.34877913802552923 0.4321698862676115 -0.8834474548893658
72 0.4917641537997404 -0.025661665892487456 -0.9723867136658485
71 -0.2948098423899208 -0.19933680892099875 -0.23647950791048272
47 -0.07876471569883506 -0.047708794230947586 -0.10623871179562573
67 -0.7389694643134973 0.5181642575789992 -0.2902022544636082

Bonds

1 1 11 12
2 1 11 13
3 1 41 42
4 1 41 43
5 1 23 24
6 1 23 25
7 1 44 45
8 1 44 46
9 1 32 33
10 1 32 34
11 1 62 63
12 1 62 64
13 1 17 18
14 1 17 19
15 1 1 2
16 1 1 3
17 1 1 4
18 1 1 5
19 1 14 15
20 1 14 16
21 1 68 69
22 1 68 70
23 1 56 57
24 1 56 58
25 1 38 39
26 1 38 40
27 1 26 27
28 1 26 28
29 1 20 21
30 1 20 22
31 1 50 51
32 1 50 52
33 1 74 75
34 1 74 76
35 1 29 30
36 1 29 31
37 1 59 60
38 1 59 61
39 1 53 54
40 1 53 55
41 1 77 78
42 1 77 79
43 1 65 66
44 1 65 67
45 1 35 36
46 1 35 37
47 1 6 7
48 1 6 8
49 1 6 9
50 1 6 10
51 1 71 72
52 1 71 73
53 1 47 48
54 1 47 49

Angles

1 1 12 11 13
2 1 42 41 43
3 1 24 23 25
4 1 45 44 46
5 1 33 32 34
6 1 63 62 64
7 1 18 17 19
8 2 2 1 3
9 2 2 1 4
10 2 2 1 5
11 2 3 1 4
12 2 3 1 5
13 2 4 1 5
14 1 15 14 16
15 1 69 68 70
16 1 57 56 58
17 1 39 38 40
18 1 27 26 28
19 1 21 20 22
20 1 51 50 52
21 1 75 74 76
22 1 30 29 31
23 1 60 59 61
24 1 54 53 55
25 1 78 77 79
26 1 66 65 67
27 1 36 35 37
28 2 7 6 8
29 2 7 6 9
30 2 7 6 10
31 2 8 6 9
32 2 8 6 10
33 2 9 6 10
34 1 72 71 73
35 1 48 47 49
