LAMMPS data file via write_data, version 4 Feb 2025, timestep = 10500000, units = lj

6000 atoms
4 atom types
4500 bonds
1 bond types
5250 angles
2 angle types

-12.037717 12.037717 xlo xhi
-12.037717 12.037717 ylo yhi
-12.037717 12.037717 zlo zhi
0 0 0 xy xz yz

Masses

1 1
2 1
3 0.1
4 0.1

Bond Coeffs # harmonic/omp

1 100 0.45

Angle Coeffs # harmonic/omp

1 100 180
2 100 109.471

Atoms # full

1991 399 1 0 0.24221498449507806 -11.262022529530396 -11.657577945648068 13 1 0
1995 399 3 0 0.2050378361739309 -11.697083901928144 -11.572769740051267 13 1 0
1992 399 3 0 -0.012785028140543275 -11.169084430766219 -11.993748800872515 13 1 0
5181 1227 4 0 -0.39634970060082786 -11.116008315038199 -11.976985468049577 12 1 0
1993 399 3 0 0.6610226229631735 -11.159466086233042 -11.744163210572491 13 1 0
3947 816 4 0 1.0398506613872147 -11.357520874390444 -11.869001317756547 2 0 0
527 106 3 0 4.49431916848345 -12.004087271972763 -11.733533045662005 2 0 0
4811 1104 4 0 6.236873241237603 -11.930589847628205 -11.667756634497493 17 1 0
4810 1104 2 0 5.840612261079055 -12.011752230894679 -11.482101094616656 17 1 0
5868 1456 4 0 9.299059533202954 -11.849868015338272 -11.862503677823952 13 1 1
5866 1456 2 0 9.72220741431559 -11.949897285102157 -11.768876954872232 13 1 1
5604 1368 4 0 -0.05135366440013733 -10.681271145998826 -11.274226695621937 16 1 1
5602 1368 2 0 0.0867873125311025 -10.286657908887722 -11.152574709595129 16 1 1
1994 399 3 0 0.09916699575840937 -11.036421250479593 -11.31533106502087 13 1 0
3944 815 4 0 10.879758862883033 -10.252994757129926 -11.854627739599477 2 0 0
3310 662 3 0 -7.969423434450576 -9.735145222907606 -11.993595481606901 13 1 1
5877 1459 4 0 -0.7911060528082032 -9.433813876286557 -11.981782860131892 12 1 1
5875 1459 2 0 -0.36424387965583627 -9.547331575392262 -11.93877272815393 12 1 1
5876 1459 4 0 0.08869930890295841 -9.661981876611797 -11.890176268290725 12 1 1
476 96 1 0 0.7760672624972855 -9.367688728807444 -11.403125918191694 3 0 0
478 96 3 0 0.45610524666129315 -9.690850293855219 -11.307796013935551 3 0 0
479 96 3 0 1.1989139310501393 -9.566037943365718 -11.450315047750655 3 0 0
208 42 3 0 3.5294071492009333 -10.02317790789291 -11.620215464406316 5 0 0
3914 805 4 0 3.6890975419762633 -9.700924951577694 -11.457079307850417 5 0 0
3913 805 2 0 4.075583706348425 -9.746859189958393 -11.205390272318173 5 0 0
1955 391 3 0 10.90201258196345 -10.051356822532226 -11.500563397193886 2 0 1
1951 391 1 0 11.17546258945913 -9.783977589977757 -11.209915035246139 2 0 1
1953 391 3 0 11.518266869578888 -9.63785079926339 -11.4187010013956 2 0 1
4005 835 4 0 -8.72429158727973 -8.493990594619444 -11.742744660927963 4 0 0
4734 1078 4 0 -8.588216185952945 -8.495072251455523 -11.34811470246547 4 0 1
4003 835 2 0 -8.715401537270623 -8.87154845585436 -12.015549698041065 4 0 0
477 96 3 0 0.6682189074276401 -9.163229896085287 -11.801372400506288 3 0 0
436 88 1 0 -8.510949295622016 -7.762379846593398 -11.610297807826834 3 0 0
438 88 3 0 -8.879859966348764 -7.65756819369656 -11.339273965137888 3 0 0
437 88 3 0 -8.59179441133074 -7.59664497053784 -12.036084670177349 3 0 0
439 88 3 0 -8.448675248057508 -8.223538663666854 -11.626855217283774 3 0 0
440 88 3 0 -8.160041504932803 -7.568129694349757 -11.460021601270661 3 0 0
1602 321 3 0 -4.87705798953328 -7.744623610558777 -11.811404425447178 5 0 1
1601 321 1 0 -4.8397824266407845 -7.4250380797617686 -11.483012077667349 5 0 1
1605 321 3 0 -4.512982814724865 -7.542032031173658 -11.206625352749272 5 0 1
3969 823 4 0 -3.1679949597299295 -8.08857887385548 -11.40459066868908 4 0 0
3967 823 2 0 -2.764936531943343 -7.911815943891529 -11.5212949926694 4 0 0
375 75 3 0 -2.441647974449891 -7.509421736826184 -11.916231468384284 4 0 0
3968 823 4 0 -2.353085301223272 -7.736575336053997 -11.631903535670073 4 0 0
372 75 3 0 -1.7057420957483895 -7.611799941281522 -11.944529927937102 4 0 0
3778 760 2 0 6.358519628365347 -7.6761337475210265 -11.950406678328678 5 0 0
3780 760 4 0 6.189242765050981 -7.428174250496701 -11.618424300911206 5 0 0
133 27 3 0 6.146129525673263 -7.490296300341726 -11.20093375164997 4 0 0
1604 321 3 0 -5.235930412994827 -7.396392015842828 -11.248102175642979 5 0 1
1603 321 3 0 -4.754943801283338 -7.038759552459499 -11.667304895324978 5 0 1
4658 1053 4 0 -4.373208663936824 -6.83834010362445 -11.764131650956227 5 0 1
4657 1053 2 0 -3.977964060308455 -6.663705921834056 -11.915076198258994 5 0 1
373 75 3 0 -1.9450344048267532 -6.934075887307579 -11.925118350497339 4 0 0
4029 843 4 0 -1.783754806350606 -6.975410545058359 -11.547521174845969 3 0 0
38 8 3 0 -5.875346573976507 -5.903084853725464 -11.610702292612656 5 0 0
1928 386 3 0 1.547930922170032 -6.009802316597501 -11.686220231274268 4 0 1
1926 386 1 0 1.6165715345659244 -5.557222362619621 -11.795794104686017 4 0 1
3344 669 3 0 -7.859081570205142 -5.336065899700019 -11.949522194933623 15 1 1
40 8 3 0 -6.030998154370089 -5.218755926520203 -11.486101071767282 5 0 0
36 8 1 0 -5.877693620892528 -5.4908332506175945 -11.778747540659035 5 0 0
3936 812 4 0 -5.792912310370846 -5.053285537022071 -11.211680644757287 5 0 0
4073 858 4 0 -5.070520093125362 -5.252236266202857 -11.661741949914564 6 0 0
39 8 3 0 -5.414754807017946 -5.363394334221361 -11.897555242778598 5 0 0
4072 858 2 0 -4.675152800583175 -5.127193848005289 -11.481247220063027 6 0 0
4074 858 4 0 -4.261789545910065 -4.98822436096507 -11.284590269548902 6 0 0
666 134 1 0 -3.4460116745287337 -4.723376129261567 -11.281020851056937 6 0 0
667 134 3 0 -3.858293242703656 -4.9177355752997745 -11.201059000531862 6 0 0
669 134 3 0 -3.33545798068722 -4.776210522056776 -11.722163426792187 6 0 0
4911 1137 4 0 -3.0119930115122493 -4.9485690266719695 -11.84486725878585 6 0 0
333 67 3 0 -1.5686892816658116 -4.645666515904103 -11.805274982142844 5 0 0
331 67 1 0 -1.5650371589518333 -5.086288318114477 -11.912342425152254 5 0 0
332 67 3 0 -1.9745522655286027 -5.2861798681678644 -11.781804531519976 5 0 0
334 67 3 0 -1.245288699523094 -5.283757965080253 -11.701283318557799 5 0 0
713 143 3 0 -0.17283481550506608 -4.8888724152979215 -11.734398688938732 6 0 0
1929 386 3 0 1.2623453152531816 -5.314080919950711 -11.665994623756465 4 0 1
1927 386 3 0 1.9940513394994763 -5.4069641212897315 -11.590580471499177 4 0 1
670 134 3 0 -3.4667643331875535 -4.264080115542148 -11.183952057319953 6 0 0
714 143 3 0 -0.37355286959483536 -4.249900031878753 -12.028474328378241 6 0 0
4546 1016 2 0 5.119951050366655 -4.270346337651127 -11.648562465685195 7 0 1
4547 1016 4 0 4.950918931404143 -4.118238347981581 -11.287245500498205 7 0 1
4548 1016 4 0 5.305665529825703 -4.4377211127650025 -12.035434673058454 7 0 1
3815 772 4 0 8.043471729086548 -3.728193487811936 -11.481504153327515 6 0 0
483 97 3 0 -8.36808609036016 -3.050486876659411 -11.793467722883214 5 0 0
3814 772 2 0 8.0273913523508 -3.430215154273446 -11.794304831261078 6 0 0
5889 1463 4 0 10.313395009207209 -3.3449956230030473 -11.879868139204362 8 0 1
5887 1463 2 0 10.602805783394992 -3.225508138733062 -11.5934666495625 8 0 1
5888 1463 4 0 10.919688779106014 -3.091955952985293 -11.282657718764815 8 0 1
592 119 3 0 10.265475656355665 -2.281197683086699 -11.882228048147105 9 0 0
5825 1442 4 0 10.575095919723854 -2.276994476289312 -11.603460839457984 9 0 1
5824 1442 2 0 10.796671459546967 -2.104476508460177 -11.244833940481982 9 0 1
1497 300 3 0 -9.178599616531898 -1.4710432749161058 -11.918413896472574 9 0 1
327 66 3 0 -3.8914769130666578 -0.9770353743106188 -11.238200856983767 7 0 0
193 39 3 0 3.879825984473918 -1.1081213841189967 -11.462720490331813 9 0 0
191 39 1 0 4.294824972861306 -1.2075812421452454 -11.290653245390144 9 0 0
194 39 3 0 4.499099602766282 -1.545217128636061 -11.558584787310588 9 0 0
4759 1087 2 0 10.806158693085607 -1.0829497229577107 -11.79710249152248 8 0 1
1510 302 3 0 11.210186659558818 -1.0150177011464834 -11.189327015443267 9 0 1
4696 1066 2 0 -9.766116216708282 -0.08113516606910487 -11.980858242074651 9 0 1
4698 1066 4 0 -9.601927816776556 -0.4481373119893366 -11.795861869331471 9 0 1
1500 300 3 0 -9.351584897094718 -0.7631834480666875 -11.842369180640334 9 0 1
5112 1204 4 0 3.847468877507591 -0.7922542588400745 -11.731140623108766 8 0 0
192 39 3 0 4.560660349355853 -0.8216586461474211 -11.27612198270162 9 0 0
5194 1232 2 0 6.858585529602035 -0.1450112272899684 -11.916107293322007 10 0 0
5195 1232 4 0 7.112957415017696 -0.123022290101094 -11.564190002756542 10 0 0
4760 1087 4 0 11.025894530492803 -0.8249679672393988 -11.51944302734849 8 0 1
297 60 3 0 -3.6970530575949105 -11.846274429055168 -10.31011819349108 7 0 0
3848 783 4 0 1.73871899754519 -11.904259633949605 -10.347353759470549 5 0 0
3722 745 3 0 -8.623476279033278 -10.646889394406113 -10.5106659257722 16 1 1
3721 745 1 0 -8.240534889121953 -10.605898001596705 -10.271078484740372 16 1 1
3725 745 3 0 -7.985933978687643 -10.272437285920006 -10.433514247582801 16 1 1
3724 745 3 0 -8.019046689416278 -10.977792619251712 -10.292702545584328 16 1 1
3781 761 2 0 -11.982655263022608 -10.038849184800899 -10.642720475132137 4 0 0
3783 761 4 0 -11.6029595321053 -10.076723519620902 -10.41985093175786 4 0 0
5603 1368 4 0 0.2423632124306092 -9.87795367684686 -11.029273014108531 16 1 1
519 104 3 0 2.1850523629598797 -9.390074591573985 -10.342326826285445 4 0 0
3915 805 4 0 4.4674923700629705 -9.795079721956544 -10.940545489808423 5 0 0
162 33 3 0 4.468362820363122 -9.775169760573672 -10.520279193375137 4 0 0
161 33 1 0 4.577529841613817 -9.334641969460856 -10.348329081273867 4 0 0
1952 391 3 0 10.93609643584524 -9.429415306059187 -11.05315251345486 2 0 1
1954 391 3 0 11.304278759130693 -10.047212127909003 -10.836245231339253 2 0 1
3782 761 4 0 11.711136179875567 -9.997430303180506 -10.872730687613343 3 0 0
4732 1078 2 0 -8.548387778404374 -8.644795663811633 -10.91246672924263 4 0 1
4733 1078 4 0 -8.503377798437851 -8.79815663109021 -10.454132927843073 4 0 1
4528 1010 2 0 -4.4889490945748545 -8.554696821887424 -10.349762701203145 3 0 1
4529 1010 4 0 -4.251507048210827 -8.810455314500139 -10.643131800334373 3 0 1
559 112 3 0 -3.274207888734665 -9.02924004630874 -10.914054145671644 4 0 0
557 112 3 0 -3.92651373306059 -8.68063830307539 -10.853485029821561 4 0 0
556 112 1 0 -3.477297762596397 -8.627393195816332 -10.835123325803535 4 0 0
558 112 3 0 -3.372869355989268 -8.49035737007549 -10.437859043629365 4 0 0
480 96 3 0 0.7912677978560865 -9.07220213562076 -11.070513437724362 3 0 0
5993 1498 4 0 0.7556889839552792 -8.869311899294834 -10.717248759538455 12 1 1
5992 1498 2 0 1.1949780110074055 -8.735081449193425 -10.59526068397082 12 1 1
518 104 3 0 1.9617188903692675 -8.745601347455768 -10.62654730664562 4 0 0
5994 1498 4 0 1.605914167198259 -8.613860038146974 -10.492808559803247 12 1 1
516 104 1 0 2.2204721858991494 -8.94925765953118 -10.3024517078244 4 0 0
517 104 3 0 2.673663396836732 -8.82347320108562 -10.355786876886478 4 0 0
3903 801 4 0 3.072696101048969 -8.728920955276733 -10.368950606520396 4 0 0
3901 801 2 0 3.5260081565955925 -8.752075684662831 -10.47790345128666 4 0 0
3902 801 4 0 3.982942131414326 -8.778160758204171 -10.57099092882895 4 0 0
163 33 3 0 4.20995016478739 -9.049459136091778 -10.419378058773436 4 0 0
3867 789 4 0 4.880669331879311 -8.787307180119903 -10.568617821175197 5 0 0
165 33 3 0 4.958021915315705 -9.172960823325452 -10.580842125144562 4 0 0
3865 789 2 0 5.2580740964481585 -8.481085003111852 -10.53832761884147 5 0 0
3761 754 4 0 10.913554235675903 -9.191873282217221 -10.732421681912621 2 0 0
3760 754 2 0 11.09711334248544 -8.866961039135393 -10.494591644353624 2 0 0
3762 754 4 0 11.280209323033255 -8.554680993454948 -10.26618460201815 2 0 0
2419 484 3 0 11.62946780608507 -8.382472306490913 -10.29748561531093 12 1 0
560 112 3 0 -3.3475099268718935 -8.322425597654481 -11.14116988618527 4 0 0
3866 789 4 0 5.6245706126846216 -8.193297948454076 -10.515645481424832 5 0 0
134 27 3 0 5.861411782624156 -7.908203610853651 -10.668917191939201 4 0 0
131 27 1 0 6.102202651077032 -7.548089545992336 -10.755003191222087 4 0 0
132 27 3 0 6.492328366999356 -7.599829380811777 -10.582308683639104 4 0 0
2420 484 3 0 11.725830688548406 -7.622804719125378 -10.39856742189408 12 1 0
4730 1077 4 0 -4.483875154540435 -6.854405659121057 -10.257106587205316 5 0 1
1107 222 3 0 -2.296976118870477 -6.822798146899718 -10.418514726763034 3 0 1
4027 843 2 0 -1.8741312277921711 -6.948313389522248 -11.081375593344378 3 0 0
4028 843 4 0 -1.9649267211686396 -6.915029898862385 -10.63570060422282 3 0 0
135 27 3 0 5.920689213749558 -7.185355977443964 -10.577638790925675 4 0 0
1378 276 3 0 7.405766651823466 -7.224834483879518 -10.600022778356356 6 0 0
1380 276 3 0 7.349401326001345 -6.591964830558217 -10.976034992442237 6 0 0
1376 276 1 0 7.607035903302336 -6.822489946481968 -10.691316404015545 6 0 0
1377 276 3 0 8.02953326912925 -6.9046373711733615 -10.889113547146604 6 0 0
1379 276 3 0 7.663799263219776 -6.585999048595864 -10.311631944942498 6 0 0
3934 812 2 0 -5.708027390566801 -4.925437283111926 -10.795768484030248 5 0 0
3935 812 4 0 -5.62839945896705 -4.799940650765319 -10.378855173677891 5 0 0
668 134 3 0 -3.125527770334278 -4.923023145213107 -11.012674283159484 6 0 0
3956 819 4 0 -2.85817805177005 -4.801476228702377 -10.738553265288894 6 0 0
3955 819 2 0 -2.475919250181308 -4.6487571022650105 -10.523373605080588 6 0 0
3840 780 4 0 -0.7289973883047534 -4.947725938916314 -10.275355444375222 7 0 0
2002 401 3 0 -1.7029322855399283 -4.394135167711716 -10.259956773317722 7 0 0
3957 819 4 0 -2.0945278256137048 -4.497318204011214 -10.301345316737947 6 0 0
3491 699 1 0 4.829352095037162 -3.743844941829078 -10.709549387052526 7 0 1
3493 699 3 0 4.4043545176888905 -3.8550374426819474 -10.721094689088659 7 0 1
3495 699 3 0 5.070055758633426 -4.085275156012269 -10.897048433017522 7 0 1
3494 699 3 0 4.891437985886093 -3.353690091576043 -10.95156483837042 7 0 1
3492 699 3 0 4.95905550223744 -3.6825709702270935 -10.278396237793755 7 0 1
1402 281 3 0 11.002930348019401 -3.2204411562740596 -10.888030166400279 8 0 1
1401 281 1 0 10.824137588007218 -3.028218187260901 -10.511572754672988 8 0 1
1403 281 3 0 10.457330092854335 -3.272589473624514 -10.385178016969158 8 0 1
1405 281 3 0 10.694588519409415 -2.6068232468365427 -10.60904867938607 8 0 1
5826 1442 4 0 11.035850099706412 -1.927781296401447 -10.883101551761317 9 0 1
330 66 3 0 -4.147544556479596 -1.183177246256065 -10.617299887304306 7 0 0
195 39 3 0 4.246655606579015 -1.36541034989723 -10.90329925895383 9 0 0
1508 302 3 0 11.229176158446961 -1.6153377968674487 -10.737854742921337 9 0 1
1506 302 1 0 11.406723608022379 -1.1980902098626967 -10.826464843217295 9 0 1
1507 302 3 0 11.85512525125528 -1.2385361487697502 -10.900682431541869 9 0 1
329 66 3 0 -4.5310704643695505 -0.7498664945158087 -11.026920390116963 7 0 0
326 66 1 0 -4.134770574282754 -0.8549318471830301 -10.899680541329072 7 0 0
328 66 3 0 -3.9493018431822318 -0.5071096748812636 -10.699456722283966 7 0 0
5618 1373 4 0 2.4256453540360923 -0.10168467000879389 -10.824554579980262 10 0 1
5617 1373 2 0 2.729525797601891 -0.2838705699777542 -10.508744451706319 10 0 1
2370 474 3 0 7.679658627079576 -0.19651310768786168 -10.736264138235255 11 0 0
2167 434 3 0 8.070544409889038 -0.38152667205710245 -10.34276215858746 12 0 0
1509 302 3 0 11.345973032789438 -0.9244605577691143 -10.47679566873335 9 0 1
2360 472 3 0 -1.346856705707621 -11.964622640204658 -9.590183657575219 18 1 0
4917 1139 4 0 -1.7228492608095305 -11.939277350187073 -9.461271545616128 16 1 0
3849 783 4 0 0.9908691579298203 -11.52541129550555 -9.980240141799907 5 0 0
2312 463 3 0 0.928875311034794 -11.483602897538493 -9.577041110223568 14 1 0
3847 783 2 0 1.3653598639800322 -11.715793461949687 -10.162321895860028 5 0 0
48 10 3 0 2.0669993554599664 -11.883661778687005 -10.112991259497635 7 0 0
49 10 3 0 2.2382897680868723 -11.891425625268294 -9.39626190888471 7 0 0
46 10 1 0 2.395045190652999 -11.81810563789475 -9.801228297627233 7 0 0
50 10 3 0 2.563288543004292 -11.394369533070089 -9.829456650105893 7 0 0
65 13 3 0 -11.177639006343421 -10.34189333869479 -9.426529346314947 4 0 0
3723 745 3 0 -8.350951148239327 -10.525487368260547 -9.837178449710827 16 1 1
347 70 3 0 10.570935375581865 -10.605807959712529 -9.486924414838636 3 0 0
64 13 3 0 -11.466156621816875 -10.027591595415986 -10.06112490199938 4 0 0
61 13 1 0 -11.241527092804937 -9.951412841693005 -9.638060983677372 4 0 0
63 13 3 0 -11.483224151972486 -9.672473614769796 -9.382100099943807 4 0 0
62 13 3 0 -10.818121436082663 -9.751472250595537 -9.72092806419596 4 0 0
3896 799 4 0 -10.508450048121254 -9.510386494814759 -9.809570215447746 4 0 0
3895 799 2 0 -10.120589585872239 -9.324227099826379 -9.852039376860642 4 0 0
750 150 3 0 -8.976373563624518 -9.445772340712034 -9.78331767372356 4 0 1
164 33 3 0 4.662208984416665 -9.370614416750133 -9.89973282087471 4 0 0
3897 799 4 0 -9.705167761245498 -9.127857567045611 -9.896356972718023 4 0 0
747 150 3 0 -9.404268818963935 -8.947039774143242 -10.10713947587676 4 0 1
746 150 1 0 -9.050026554849019 -8.985157132394297 -9.869559251224144 4 0 1
748 150 3 0 -8.70067873206879 -8.823243465468165 -10.090314355780436 4 0 1
749 150 3 0 -9.113558620364905 -8.757418016279349 -9.477888075823538 4 0 1
4754 1085 4 0 -8.292707592373722 -8.748746030314013 -10.118959352946177 4 0 1
4753 1085 2 0 -7.868643729763264 -8.572100594633595 -10.070651784286245 4 0 1
4755 1085 4 0 -7.442377401535674 -8.391702273558588 -10.019114004360663 4 0 1
665 133 3 0 -6.831822499987694 -8.375000010302886 -9.40549122732886 3 0 0
520 104 3 0 2.066973797237205 -8.826524526826507 -9.89192206756139 4 0 0
663 133 3 0 -7.0706517847647685 -8.278694095022617 -10.11463846467188 3 0 0
662 133 3 0 -6.766230841710999 -7.724140766180957 -9.721720431008798 3 0 0
661 133 1 0 -6.750364773032414 -8.163825615184649 -9.784626963179077 3 0 0
664 133 3 0 -6.354467511468539 -8.292654398245464 -9.9225342729564 3 0 0
4433 978 4 0 -5.97371947883677 -8.292384182535137 -10.002257179824126 4 0 1
4432 978 2 0 -5.539295973829618 -8.23914886801763 -10.065981484884965 4 0 1
4434 978 4 0 -5.077788520812279 -8.171665300462662 -10.151946248213997 4 0 1
4530 1010 4 0 -4.723170959955881 -8.302355844005227 -10.056546058157483 3 0 1
3537 708 3 0 -4.812331142380632 -7.920254089362209 -9.937953130684068 14 1 1
3536 708 1 0 -4.617574322385971 -7.488175371839752 -9.842498907837973 14 1 1
3540 708 3 0 -4.226645982817017 -7.533722828576903 -9.633175955198368 14 1 1
183 37 3 0 9.034991835062094 -8.259764887293974 -9.425585655730776 2 0 0
185 37 3 0 9.692673305446423 -8.1376510560596 -9.662425467831527 2 0 0
4019 840 4 0 10.069339510309543 -8.00158254694254 -9.589364263819725 2 0 0
4018 840 2 0 10.45292087149387 -7.976499921403674 -9.878424388525005 2 0 0
4020 840 4 0 10.788665899417296 -7.953939460942303 -10.152492029646815 2 0 0
2417 484 3 0 11.158318144900985 -7.877731566838711 -10.04192760126957 12 1 0
2416 484 1 0 11.569517348299645 -7.941441890064112 -10.112266907522995 12 1 0
2418 484 3 0 11.783474425376095 -7.913244380877781 -9.715845047273193 12 1 0
3538 708 3 0 -4.55395957927695 -7.257144342295041 -10.248444792011588 14 1 1
3539 708 3 0 -4.899241655817594 -7.253450782907442 -9.585158383207942 14 1 1
5853 1451 4 0 -4.010304146891222 -7.206319557900816 -9.603493928590623 14 1 1
5851 1451 2 0 -3.579648377064334 -7.047706489986083 -9.646660413773002 14 1 1
5852 1451 4 0 -3.1530937385466444 -6.8929740335553324 -9.68533776032081 14 1 1
1109 222 3 0 -2.8007134304374883 -6.816658358442883 -9.849482650893812 3 0 1
1106 222 1 0 -2.482245240831677 -6.558413561792066 -10.077754017008903 3 0 1
4729 1077 2 0 -4.2937184815636735 -6.452856461745091 -10.177022508130822 5 0 1
4731 1077 4 0 -4.1011365036809835 -6.0490076211196255 -10.090805683054468 5 0 1
585 117 3 0 -3.7418515359644786 -6.0406471083538085 -9.885173129490292 7 0 0
581 117 1 0 -3.6737424568401593 -5.734282256828363 -9.548357222892397 7 0 0
1108 222 3 0 -2.66893167080201 -6.204152638293758 -10.252567149822312 3 0 1
1110 222 3 0 -2.1571698673088378 -6.4376398573627505 -9.795730580449167 3 0 1
449 90 3 0 -5.305888600069289 -4.888657497403847 -10.15876110005522 5 0 0
446 90 1 0 -4.908295182799473 -4.802849063397415 -9.975992768095358 5 0 0
450 90 3 0 -4.959998171922426 -4.692769972040246 -9.522864390611502 5 0 0
447 90 3 0 -4.654245523535464 -5.153261667218532 -10.015735152436674 5 0 0
582 117 3 0 -3.626621288247673 -5.327858130992725 -9.73465444254328 7 0 0
2005 401 3 0 -1.1152123724099035 -4.8402786807464535 -10.193163928773638 7 0 0
3838 780 2 0 -0.3305480348526224 -4.872830708057421 -10.07723195730915 7 0 0
3839 780 4 0 0.07091218334872629 -4.797816649487219 -9.884752780790583 7 0 0
448 90 3 0 -4.709081796024217 -4.435078117557009 -10.208617654556441 5 0 0
4302 934 4 0 -4.724692134371516 -4.361455227062762 -9.47284667526723 6 0 0
2004 401 3 0 -1.4852384582216231 -4.597679784303035 -9.583950357108131 7 0 0
2001 401 1 0 -1.3493979942163232 -4.491240039223095 -10.013767851903804 7 0 0
2003 401 3 0 -1.0668419302833865 -4.103530052584665 -9.996788810639998 7 0 0
3819 773 4 0 -1.0620059263159458 -3.9103654091582953 -9.595489849176072 7 0 0
3817 773 2 0 -0.6226882137446026 -3.838276213305285 -9.497362511227514 7 0 0
983 197 3 0 0.25391904961110434 -4.479917902360526 -9.736683347648343 6 0 0
3818 773 4 0 -0.1734781290379921 -3.763186299702067 -9.381207302439599 7 0 0
548 110 3 0 2.9933955190283186 -4.0705660926223155 -9.614265106281788 8 0 0
4166 889 4 0 2.9925178634313845 -3.1124739490034568 -9.379328179482982 8 0 0
550 110 3 0 2.7154167950780934 -3.4275314965404338 -9.41941868439784 8 0 0
1404 281 3 0 11.127582589950329 -3.037908187980996 -10.189596294396008 8 0 1
3670 734 3 0 0.12314995927798833 -2.3312446552950146 -9.485790892626245 8 0 1
4217 906 4 0 -0.26623252790160024 -2.2713686365267716 -9.434294631393659 7 0 0
3667 734 3 0 0.6799981755853022 -2.450804180785271 -9.992859534406655 8 0 1
3666 734 1 0 0.5748765389155341 -2.2700290143986486 -9.577122810820386 8 0 1
3669 734 3 0 0.6787995735201449 -1.8151062006579544 -9.580659219278633 8 0 1
5088 1196 4 0 -9.553683788444086 -0.5630066754566396 -9.580802398429094 12 0 0
5086 1196 2 0 -9.170204824918429 -0.4002956015847765 -9.775668007613548 12 0 0
5087 1196 4 0 -8.794081402275136 -0.2385432227235107 -9.973967073236253 12 0 0
2775 555 3 0 -8.48882321551449 -0.0972598121276409 -9.74299845754779 12 0 0
4902 1134 4 0 -8.50273472951854 -0.005989674042927717 -10.131492801091586 12 0 0
2774 555 3 0 -7.818062214498791 -0.3610639514999061 -9.39947226473108 12 0 0
5619 1373 4 0 3.0397590458555808 -0.46287204142902816 -10.205021378482668 10 0 1
2059 412 3 0 3.4280687742347595 -0.39955588213643445 -10.158375416725054 10 0 0
2057 412 3 0 3.462310132664207 -0.21245035097331666 -9.47679534846223 10 0 0
2056 412 1 0 3.6946661458007277 -0.31852762993272066 -9.829709996253484 10 0 0
2058 412 3 0 3.9475988006688407 -0.7077983031348278 -9.744515917725176 10 0 0
4644 1048 4 0 4.333561764505802 -0.7722259009619865 -9.668624880619825 9 0 1
4642 1048 2 0 4.7374215633988825 -0.643698107427662 -9.479892545892445 9 0 1
5132 1211 4 0 6.4232390748708035 -0.2287801168065844 -9.386438069498729 11 0 0
124 25 3 0 6.035142941066141 -0.26523417329328147 -9.54206183924841 9 0 0
5131 1211 2 0 6.825290814805495 -0.19722948039236776 -9.59134229840753 11 0 0
5133 1211 4 0 7.237238429508814 -0.17406710629903976 -9.795497197822185 11 0 0
2170 434 3 0 7.599701393302727 -0.01996983106359096 -9.876087775033964 12 0 0
2168 434 3 0 8.220131563708335 -0.3525752899708472 -9.563202473145276 12 0 0
2166 434 1 0 8.03572171794423 -0.11129838297617312 -9.950416940822699 12 0 0
1142 229 3 0 10.440811668190971 -0.43279550586044735 -9.454995034861549 8 0 0
1145 229 3 0 11.122860732803133 -0.2819054413595783 -9.618798142715947 8 0 0
44 9 3 0 -8.131883764815317 -11.464510012046208 -9.176604010711038 4 0 0
41 9 1 0 -8.01338887669851 -11.299339947403078 -8.801840395255951 4 0 0
42 9 3 0 -7.876580117509347 -11.630959286357141 -8.532006407408128 4 0 0
5547 1349 4 0 -7.60776297882303 -11.93319569085179 -8.545226835137893 16 1 0
1997 400 3 0 -2.5624752345594626 -11.876298032930677 -8.499111606266847 17 1 0
4916 1139 4 0 -2.423858273686797 -11.802222816421638 -8.88922260375334 16 1 0
4915 1139 2 0 -2.0827971814888144 -11.868099466197517 -9.171467954278 16 1 0
2311 463 1 0 0.8190047006257739 -11.553175592297732 -9.152721253195015 14 1 0
2313 463 3 0 0.5087101522755368 -11.245844676400841 -9.029060246726983 14 1 0
2314 463 3 0 0.647355120393172 -11.965113283299658 -9.109455682783274 14 1 0
2315 463 3 0 1.2025763452180875 -11.50624550591133 -8.88320172852154 14 1 0
5412 1304 4 0 1.5652167545526634 -11.677785613205698 -8.966225808428451 17 1 0
3884 795 4 0 -8.710139042148946 -10.891773235248063 -8.742587269421467 4 0 0
45 9 3 0 -8.367218057518459 -11.0834895176639 -8.608319390922839 4 0 0
43 9 3 0 -7.656951182402702 -10.97836583721252 -8.874970756386702 4 0 0
2580 516 3 0 -6.539505798668344 -10.355531501202831 -8.856781459147202 15 1 0
53 11 3 0 6.677917883982971 -10.488088473127698 -8.549850526203173 2 0 0
349 70 3 0 10.745433791707672 -10.76494989666897 -8.781005154379326 3 0 0
346 70 1 0 10.658851576440384 -10.427257461122117 -9.106192699333873 3 0 0
4715 1072 4 0 -11.856168528725423 -9.677409905231325 -9.258658950288709 3 0 1
4523 1008 4 0 -7.0676693368332275 -9.443620507267239 -8.777332936829385 3 0 1
2578 516 3 0 -6.973211550772187 -9.806855847677847 -8.666709172189497 15 1 0
2579 516 3 0 -6.265883312792351 -9.68443560197272 -8.637457334816833 15 1 0
2576 516 1 0 -6.601222296773326 -9.99103801370788 -8.573598556983871 15 1 0
147 30 3 0 1.9666274340724073 -9.611620156185257 -9.064316244264123 4 0 0
3993 831 4 0 9.886677406762313 -10.006442327930058 -8.957381986619692 3 0 0
3991 831 2 0 9.771235942041233 -9.573301874075726 -9.091522681685689 3 0 0
348 70 3 0 10.272308717520762 -10.15066638451875 -8.954762072825826 3 0 0
350 70 3 0 11.036145791735791 -10.159896789304803 -9.13951095578228 3 0 0
4716 1072 4 0 11.369742220777145 -9.976649421402069 -9.184752000392614 2 0 1
4714 1072 2 0 11.790546321826685 -9.830341445515788 -9.223164652418415 2 0 1
4009 837 2 0 -9.243194333551848 -8.941223266461314 -8.71002657900411 4 0 0
4010 837 4 0 -9.1929968335604 -8.72138362453797 -9.058611898106626 4 0 0
4522 1008 2 0 -6.984505249602353 -9.088631135226526 -9.053028581531345 3 0 1
4524 1008 4 0 -6.919761872698568 -8.74956049996609 -9.331547131775217 3 0 1
942 189 3 0 0.24700264949524708 -9.16115476673255 -8.643203325608578 4 0 0
945 189 3 0 0.1862413082048544 -8.614655485138279 -9.10969050993284 4 0 0
941 189 1 0 0.4690068084406267 -8.844099195508454 -8.851359700666956 4 0 0
944 189 3 0 0.7877667293955817 -9.025717057224224 -9.097513196495612 4 0 0
943 189 3 0 0.6679931297263462 -8.560101131859243 -8.533466174468533 4 0 0
146 30 1 0 1.9437728932548808 -9.155334014801674 -8.997075094727188 4 0 0
149 30 3 0 2.1330160102679336 -8.946178956708106 -9.3331452046295 4 0 0
150 30 3 0 1.5165912495702436 -9.0374434706213 -8.971283341397728 4 0 0
148 30 3 0 2.159926155264987 -9.032594565692275 -8.60751777955626 4 0 0
3992 831 4 0 9.660939884847004 -9.149170385308315 -9.223868105700623 3 0 0
182 37 3 0 9.56750000608254 -8.740661315484585 -9.248350070668844 2 0 0
181 37 1 0 9.452860073378911 -8.28942788917051 -9.327785671077507 2 0 0
184 37 3 0 9.541954564693281 -8.05013294311681 -8.95634160864092 2 0 0
2545 509 3 0 -6.265571414093842 -5.606343012181131 -9.043239196219488 6 0 0
4489 997 2 0 -4.842892011325168 -5.608676757006933 -9.228417153718057 6 0 1
584 117 3 0 -4.027541846328134 -5.731532687385786 -9.275308007090786 7 0 0
4491 997 4 0 -4.410849499863673 -5.6701108633193416 -9.356501866428035 6 0 1
583 117 3 0 -3.284217781731945 -5.842875916175113 -9.315570313969113 7 0 0
3813 771 4 0 -2.8747089474532377 -5.881415195415917 -9.361215769051748 6 0 0
3811 771 2 0 -2.5266113356790765 -5.745113660275885 -9.112838985132912 6 0 0
3812 771 4 0 -2.189787249220977 -5.606885594903064 -8.876690039621018 6 0 0
2544 509 3 0 -6.051227534179467 -4.902499493920199 -8.953037250077248 6 0 0
2541 509 1 0 -5.901888103637153 -5.312020986937551 -8.962103026173407 6 0 0
4490 997 4 0 -5.280139030398614 -5.550137036207213 -9.098810631666046 6 0 1
2542 509 3 0 -5.60672493925862 -5.351503320433825 -9.279439246272874 6 0 0
2543 509 3 0 -5.703901452545906 -5.410290723079833 -8.556799733017469 6 0 0
160 32 3 0 -3.586590128620081 -5.026507305880023 -8.483595834950451 6 0 0
1358 272 3 0 -2.0801523677626665 -5.251654503761046 -8.717239439347328 5 0 0
3995 832 4 0 0.12658948955653493 -4.8499581574793025 -8.664599172109638 6 0 0
985 197 3 0 0.14116183543186445 -4.716276215987653 -9.042141956785967 6 0 0
4300 934 2 0 -4.528414735765027 -4.303655160185821 -9.057632319771955 6 0 0
4301 934 4 0 -4.350930655995564 -4.245978167082806 -8.688117887122278 6 0 0
157 32 3 0 -4.21099464453806 -4.603181212854367 -8.57455334210051 6 0 0
4079 860 4 0 -1.5811481604179107 -4.437413064861033 -9.22679871448765 6 0 0
4078 860 2 0 -1.6055751396518723 -4.018177994656295 -9.049644523748029 6 0 0
982 197 3 0 0.12082231837359103 -4.00366792176961 -9.212983421638754 6 0 0
981 197 1 0 0.32097946980532477 -4.38095716786921 -9.304584427698284 6 0 0
984 197 3 0 0.7696404499381302 -4.336478324151277 -9.226140600628657 6 0 0
5334 1278 4 0 1.1708579969516393 -4.322013383602447 -9.218679972628742 8 0 0
5332 1278 2 0 1.6162767741620652 -4.360550231892784 -9.247935846268577 8 0 0
5333 1278 4 0 2.07874466628909 -4.3810269299945155 -9.272448096505396 8 0 0
549 110 3 0 2.336165972569635 -4.080430708687776 -9.316837914745596 8 0 0
546 110 1 0 2.758772035263842 -3.8856977564288133 -9.319780755213669 8 0 0
547 110 3 0 2.9340295175600364 -3.9357826173110553 -8.939248962471494 8 0 0
5343 1281 4 0 3.060877118934501 -4.041047982096948 -8.561217985140551 8 0 0
4080 860 4 0 -1.632255298616208 -3.624990653487446 -8.880022493126404 6 0 0
1939 388 3 0 -1.5277412698037907 -3.363714439249174 -8.578745307526058 8 0 1
1936 388 1 0 -1.4507209245352914 -2.942582592458546 -8.662023832224234 8 0 1