LAMMPS data file via write_data, version 4 Feb 2025, timestep = 80000, units = lj

51 atoms
4 atom types
38 bonds
1 bond types
43 angles
2 angle types

-2.5 2.5 xlo xhi
-2.5 2.5 ylo yhi
-2.5 2.5 zlo zhi
0 0 0 xy xz yz

Masses

1 1
2 1
3 0.1
4 0.1

Bond Coeffs # harmonic/omp

1 100 0.45

Angle Coeffs # harmonic/omp

1 100 180
2 100 109.471

Atoms # full

35 8 4 0 -0.008891808924218925 0.6065763485054143 -0.9215023402233178 8 0 0
33 7 4 0 -1.7518578956546467 -2.396622032168788 0.7034723948207833 4 0 0
3 1 3 0 -1.659271273177843 -2.4997610726848607 0.3419759184272415 12 1 0
16 4 1 0 -1.6172742298784397 0.17518994143529376 0.004654335342356042 7 0 0
19 4 3 0 -1.317746761122092 0.41363933160010236 -0.2238371221780473 7 0 0
17 4 3 0 -1.6079142341710853 0.2945450317906859 0.43578440143175357 7 0 0
20 4 3 0 -1.508038392343165 -0.2941404954126292 -0.042259259970885754 7 0 0
18 4 3 0 -2.037896098845772 0.24903895065240267 -0.15892150982725983 7 0 0
42 10 4 0 -0.3625944235942917 0.4175064873634855 -0.8101775162738121 9 0 0
40 10 2 0 -0.7997209382497106 0.545635970424061 -0.6590106290994635 9 0 0
41 10 4 0 -1.1934336426541383 0.6617958072854568 -0.5189111085915588 9 0 0
1 1 1 0 -1.5121758856126277 2.0741969041480983 0.3038103803193022 12 0 0
2 1 3 0 -1.3240999433458231 1.9271920153245077 0.7204209763874014 12 0 0
5 1 3 0 -1.8494943974036864 1.8221397644061827 0.19755808212643222 12 0 0
48 12 4 0 -2.147750591267628 1.5299412277906477 0.1690135584325554 12 0 0
4 1 3 0 -1.231507205849833 2.046231426367478 0.0036535294705593024 12 0 0
31 7 2 0 -1.8339767727906273 -2.2539581900650605 1.1423820808853984 4 0 0
32 7 4 0 -1.9074887361564206 -2.114219227012461 1.5649393428473797 4 0 0
8 2 3 0 -1.8375846226301866 -1.8124777280575495 1.819395606113666 4 0 0
7 2 3 0 -1.1901154874636475 -1.58346368590927 2.108840679611255 4 0 0
9 2 3 0 -1.8012580819558277 -1.2124159108751928 2.271114018150561 4 0 0
10 2 3 0 -1.512732582736969 -1.157183081588284 1.5929857982401412 4 0 0
6 2 1 0 -1.5844012444507172 -1.4382690485418141 1.9542206819866097 4 0 0
39 9 4 0 -0.8812650833755853 -1.4483668120399926 1.867679837123612 4 0 0
37 9 2 0 -0.46823583762894927 -1.411416621565643 2.0252830745336095 4 0 0
38 9 4 0 -0.030606623556287182 -1.3864036432560771 2.198318201330764 4 0 0
27 6 3 0 1.203939040216274 -1.6826961115256083 -1.226603720167524 4 0 0
51 13 4 0 1.0965728094966298 -1.5149375144051591 -2.4981117953800758 4 0 1
26 6 1 0 1.3859912525597027 -2.039787758545036 -1.052203073425274 4 0 0
28 6 3 0 1.522915830084802 -2.3020924014132502 -1.3658257804773093 4 0 0
25 5 3 0 2.0154767269525493 -1.1434507008709318 -2.4936243766404074 9 0 0
30 6 3 0 1.0698272698839206 -2.2505268380703582 -0.7991381911485829 4 0 0
44 11 4 0 1.8233409706527057 -1.5663840633901032 -0.6509385740057294 4 0 0
29 6 3 0 1.7418275874046003 -1.9250304253478374 -0.7820372970150513 4 0 0
43 11 2 0 2.1455124191627295 -1.2714150513835547 -0.6590059451585939 4 0 0
45 11 4 0 2.451742581571419 -0.9942888158931085 -0.6740845388956995 4 0 0
34 8 2 0 0.3445948534909422 0.8588139449802812 -0.8268508113673734 8 0 0
12 3 3 0 1.029580279268949 1.1170215951483584 -0.48936411332739915 11 0 0
36 8 4 0 0.7111765720654302 1.129208802321513 -0.7321617177828099 8 0 0
46 12 2 0 2.489149246227953 1.4040196671466196 -0.08552647729229079 11 0 0
47 12 4 0 2.125369583180932 1.2825739830280618 -0.32969724012897705 11 0 0
13 3 3 0 1.7229348927522423 1.273771513186981 -0.2613751139803022 11 0 0
11 3 1 0 1.3180603249902885 1.4404995237188887 -0.4375792695963385 11 0 0
15 3 3 0 1.1400642899529756 1.76361533028407 -0.14015265243888075 11 0 0
14 3 3 0 1.3896556542911664 1.627850831125727 -0.8325621888705825 11 0 0
50 13 4 0 0.3337578942483841 -1.5288495512196232 2.0991183982789323 4 0 0
49 13 2 0 0.7096443255858054 -1.5243821461110962 2.3003139678907907 4 0 0
24 5 3 0 1.5085277163740702 -0.6425676825055411 2.2098055744446192 9 0 -1
22 5 3 0 1.376681283925305 -1.370204598114309 2.24077672354019 9 0 -1
23 5 3 0 1.863596117796508 -1.148343295383493 1.765510713730535 9 0 -1
21 5 1 0 1.6890593671118195 -1.083024633397557 2.182542202023928 9 0 -1

Velocities

35 1.8160609182215972 -0.3598284241647932 -0.2262899328888602
33 0.8530095413375312 -0.41674748520244903 0.4924972677132345
3 0.6251088101883343 -0.6015519032591783 0.45545655228134296
16 0.49953894850454367 -0.19194209106870427 0.3861274951883303
19 1.5646858127794123 0.10930643139722585 0.06418335368464186
17 0.7981520293281098 0.10472264296591191 -0.24415976401130293
20 -0.11040787013970593 1.3615495170587473 0.9045011364611856
18 -1.6506779948163333 -0.5417352334947788 0.5636616434655862
42 0.1009789578892129 0.041830345671791176 0.42578958335162403
40 0.48815060663224746 0.37238003399526987 -0.19060942908419123
41 0.1308220444780019 -0.6287259137230158 -0.24307671140748108
1 0.36287791849426504 -0.0544937244156569 0.035464309633111396
2 -0.6181979978198844 -0.3470963409421706 -0.6052230412387994
5 0.46166461961464256 -0.20569363836807725 -0.7431964757678216
48 -0.15736546683332042 1.3147947082846785 -0.5699916839239811
4 -0.8384244355657808 -0.913125730828331 -0.29695431363549796
31 0.26514468276522635 -0.10301409723030616 0.35275784438971824
32 1.486748195174641 -0.7506333394211374 1.221437012918704
8 -0.5054058763454958 -0.20908971817872207 -0.2342207755686015
7 0.22454284273225814 0.5334737117338805 0.17605390671739585
9 0.9017425546329888 -0.48634959341878137 -0.8998448069505244
10 1.3015839365682338 -0.8938013893447889 -0.8244634835399977
6 0.3578384034318567 0.18371310155848075 -0.06292846540312881
39 0.43439306964753077 -0.668852272297582 -0.06761922239558003
37 0.08455443707019421 0.05322042889197077 -0.07872649968643684
38 -0.2698453173699429 0.3753439325265845 0.10523114547505168
27 1.0838556356630789 -0.5293858272534285 -0.06946108279036754
51 -0.6406727770447301 -0.7277312653744329 0.7037330488195246
26 -0.21447252303399975 0.2003367956202632 0.13416703795601567
28 -0.5870249004765071 -0.5781356229191975 -0.7793855861844476
25 0.4294928007245491 0.47798646281357265 1.1241586844624274
30 -0.3852987272485509 0.4358177765464128 0.7702152152743017
44 0.5886365786528654 -1.0806230996952673 -0.003461188441428356
29 -0.6089198444479018 0.3631658668821076 -0.20389401535335266
43 0.15484415729717904 0.018109620884340955 -0.0968454203339172
45 0.42294588718394976 0.7639039022671283 0.7224457003293554
34 0.2057972825522166 0.1815285192542159 -0.28748815899335617
12 -0.5705282744213429 -1.10157465508312 0.5328529582308638
36 -1.0059080506637768 -0.2717275686885768 -0.8288581128502733
46 0.0297704459931184 0.30595828379752954 0.05456391152252494
47 1.2061260378457275 -0.23779675060314065 1.2324393540000642
13 -0.5603223472239467 1.2521251563271536 0.06952688414160652
11 0.7795003059191461 -0.23151428605958077 -0.5533174476598559
15 -0.16971549555661208 -0.6026063973404462 -0.23919875237288565
14 -0.16797849729588982 -0.13695058496427695 0.21439799067156037
50 0.7752187233199558 -0.2965431246299159 -0.142781837087203
49 -0.23124936640178195 0.14356968326788686 0.1761819548174956
24 0.2121386509659646 -0.18502724772147267 -0.8411726485178312
22 1.6467863758623198 -0.8058190842389245 -0.8579568081549097
23 -0.5088361291672773 -0.291317421993643 -0.2841520169211393
21 0.09267481945040461 -0.20440735062786627 0.07333094985426

Bonds

1 1 16 17
2 1 16 18
3 1 16 19
4 1 16 20
5 1 40 41
6 1 40 42
7 1 1 2
8 1 1 3
9 1 1 4
10 1 1 5
11 1 31 32
12 1 31 33
13 1 6 7
14 1 6 8
15 1 6 9
16 1 6 10
17 1 37 38
18 1 37 39
19 1 26 27
20 1 26 28
21 1 26 29
22 1 26 30
23 1 43 44
24 1 43 45
25 1 34 35
26 1 34 36
27 1 46 47
28 1 46 48
29 1 11 12
30 1 11 13
31 1 11 14
32 1 11 15
33 1 49 50
34 1 49 51
35 1 21 22
36 1 21 23
37 1 21 24
38 1 21 25

Angles

1 2 17 16 18
2 2 17 16 19
3 2 17 16 20
4 2 18 16 19
5 2 18 16 20
6 2 19 16 20
7 1 41 40 42
8 2 2 1 3
9 2 2 1 4
10 2 2 1 5
11 2 3 1 4
12 2 3 1 5
13 2 4 1 5
14 1 32 31 33
15 2 7 6 8
16 2 7 6 9
17 2 7 6 10
18 2 8 6 9
19 2 8 6 10
20 2 9 6 10
21 1 38 37 39
22 2 27 26 28
23 2 27 26 29
24 2 27 26 30
25 2 28 26 29
26 2 28 26 30
27 2 29 26 30
28 1 44 43 45
29 1 35 34 36
30 1 47 46 48
31 2 12 11 13
32 2 12 11 14
33 2 12 11 15
34 2 13 11 14
35 2 13 11 15
36 2 14 11 15
37 1 50 49 51
38 2 22 21 23
39 2 22 21 24
40 2 22 21 25
41 2 23 21 24
42 2 23 21 25
43 2 24 21 25
