LAMMPS data file via write_data, version 4 Feb 2025, timestep = 20000000, units = lj

2000 atoms
4 atom types
1500 bonds
1 bond types
1750 angles
2 angle types

-8.346487 8.346487 xlo xhi
-8.346487 8.346487 ylo yhi
-8.346487 8.346487 zlo zhi
8.526512829121202e-14 0 0 xy xz yz

Masses

1 1
2 1
3 0.1
4 0.1

Bond Coeffs # harmonic/omp

1 100 0.45

Angle Coeffs # harmonic/omp

1 100 180
2 100 109.471

Atoms # full

61 13 1 0 -6.940989226611774 -7.6296235932880085 -7.7255194946923496 -8 -1 0
65 13 3 0 -6.88620630060343 -7.540526118155653 -8.179739884139522 -8 -1 0
63 13 3 0 -7.103681541155796 -8.046855258595206 -7.676398479857724 -8 -1 0
62 13 3 0 -6.540922373499052 -7.596709152722576 -7.502506787661164 -8 -1 0
1476 326 2 0 -4.060601740297556 -7.518666063867749 -7.487996407699103 -5 -1 1
715 143 3 0 -3.620683074245738 -8.135316556118248 -7.905250336786128 8 0 1
1478 326 4 0 -3.852783503970625 -7.857755760237161 -7.735866883819441 -5 -1 1
1460 320 4 0 -7.309052200417101 -6.993384969965975 -7.506727058577285 18 0 -1
1458 320 2 0 -7.465226639692535 -6.566606211722379 -7.426630988577842 18 0 -1
64 13 3 0 -7.228932292303632 -7.34841031414274 -7.55857410007463 -8 -1 0
120 24 3 0 -2.450984187021837 -7.207324468115033 -7.781042013039414 -1 -2 0
116 24 1 0 -2.228514350328349 -7.141876445608946 -8.198895022487418 -1 -2 0
119 24 3 0 -1.8750953801266377 -7.393205290894985 -8.211651519394696 -1 -2 0
117 24 3 0 -2.1048496430730044 -6.697460718471015 -8.247281604049283 -1 -2 0
950 190 3 0 -7.587158680456914 -5.798106584246759 -7.541788244602372 14 1 1
949 190 3 0 -7.74216702289341 -5.044412682776299 -7.630488433892285 14 1 1
946 190 1 0 -7.3969200201062 -5.384357199405214 -7.606059710211862 14 1 1
947 190 3 0 -7.162011116222426 -5.398990343810515 -7.991653063937256 14 1 1
533 107 3 0 5.678440628091099 -5.0275591779259186 -7.540039068784778 9 0 3
531 107 1 0 5.249025500259167 -4.985677186523789 -7.6942940316708945 9 0 3
532 107 3 0 5.222802724702243 -5.157385915288421 -8.156560793166745 9 0 3
535 107 3 0 4.957155303388012 -5.225410845385429 -7.429903406016985 9 0 3
1426 309 4 0 6.0706693323613035 -5.146111678038526 -7.641617707617904 15 0 1
1425 309 2 0 6.331981455050448 -4.822900965624337 -7.43156281594973 15 0 1
441 89 1 0 -4.416631650810418 -3.9195749394697454 -7.717893842481125 14 0 -1
443 89 3 0 -4.398406485452552 -3.8920331822879346 -8.189575155331791 14 0 -1
444 89 3 0 -4.0393109688714794 -3.75253356289953 -7.534107687756182 14 0 -1
445 89 3 0 -4.456100595449959 -4.319211639097267 -7.611119248763139 14 0 -1
640 128 3 0 -0.13823848711004416 -3.962968717741001 -8.005654841041391 2 0 0
1291 264 4 0 0.756897262173057 -3.778097555660917 -7.446584743380644 9 -1 0
534 107 3 0 5.13506067901252 -4.563735115736691 -7.682920344613639 9 0 3
442 89 3 0 -4.77550950900701 -3.6811426794717654 -7.572747439599801 14 0 -1
1508 336 4 0 -3.688655648727126 -3.5206902867322336 -7.447440732042151 8 0 -1
1506 336 2 0 -3.243445107699583 -3.4186299110654623 -7.461631834930336 8 0 -1
1507 336 4 0 -2.78144915814032 -3.3230420500334237 -7.486201886700332 8 0 -1
644 129 3 0 -2.411763214944851 -3.451459609951831 -7.574854942193027 21 1 2
643 129 3 0 -2.2016711764045267 -3.662856812718875 -8.24514896320857 21 1 2
645 129 3 0 -2.210932544958787 -2.9559091797154515 -8.089883195416256 21 1 2
641 129 1 0 -2.128855709635558 -3.3689755209094514 -7.930455367718325 21 1 2
642 129 3 0 -1.7062403313628778 -3.3822745508196466 -7.800762979449293 21 1 2
638 128 3 0 -0.0341765963509868 -3.2744519052933834 -8.01874550596359 2 0 0
636 128 1 0 0.16019452973772097 -3.6476373878226367 -8.00751449034565 2 0 0
637 128 3 0 0.4049327373550753 -3.6730791489973127 -7.625747970384483 2 0 0
1290 264 2 0 1.1859413497954083 -3.651680637316427 -7.527547872895711 9 -1 0
1292 264 4 0 1.6094107568434524 -3.527927324938873 -7.610900861008617 9 -1 0
556 112 1 0 2.0108776766435668 -2.8722413874380823 -7.602391073809307 2 -2 2
557 112 3 0 1.895876668840307 -3.310990732952396 -7.497968731513614 2 -2 2
560 112 3 0 2.337309970149674 -2.869624205509284 -7.920861181659056 2 -2 2
228 46 3 0 1.915048839239807 -2.433332011174449 -8.113863468658083 9 -2 1
558 112 3 0 1.6513701160032053 -2.659782788980447 -7.769532710646553 2 -2 2
1456 319 4 0 -2.694584304536291 -0.9653700740420286 -7.507981589987765 35 1 1
1074 215 3 0 7.801181586050021 -1.0357999978694723 -8.086063194005213 16 -1 2
473 95 3 0 -2.8066557174952544 -0.6005340274549527 -7.618415324201801 9 0 1
471 95 1 0 -2.8152550878174845 -0.13620530708174705 -7.602732166357571 9 0 1
319 64 3 0 -3.0858702432184995 -7.983426607708018 -7.0509575574100944 -7 -1 0
320 64 3 0 -2.4579489102733474 -7.6768275557482735 -7.2471910095071586 -7 -1 0
316 64 1 0 -2.812095027490842 -7.682567996401937 -6.943803050120973 -7 -1 0
318 64 3 0 -2.659619432833919 -7.762078251301204 -6.541794375924021 -7 -1 0
566 114 1 0 4.828043797730638 -8.155333323284443 -6.501375069888954 37 1 2
1973 491 4 0 5.549818936150128 -8.145862565742547 -6.590867376001353 10 0 2
567 114 3 0 4.832465689876127 -8.318983513889474 -6.881177079854281 37 1 2
518 104 3 0 6.900129981019095 -7.783271833369584 -6.698678748698887 -9 -2 2
516 104 1 0 7.025691917695541 -8.23392374013553 -6.611374739836284 -9 -2 2
493 99 3 0 -5.916478521418384 -6.933860074204764 -6.788777832395145 54 3 1
1788 430 2 0 -5.113231996289558 -6.966413990152738 -7.083153077651982 22 0 1
1790 430 4 0 -5.5445534755442205 -6.87568524094283 -6.90833190312027 22 0 1
1477 326 4 0 -4.2666627423596 -7.186427784266337 -7.26161194287283 -5 -1 1
1789 430 4 0 -4.664180263272963 -7.06715648599972 -7.258702373349318 22 0 1
317 64 3 0 -3.015525555300239 -7.294171852652048 -6.943978458776193 -7 -1 0
1459 320 4 0 -7.622603760356839 -6.1455601797221835 -7.352850928162835 18 0 -1
1719 407 2 0 -6.621599377609635 -5.719075764231025 -6.726822944759684 33 1 1
495 99 3 0 -6.368065020641001 -6.396375367419539 -6.566801232858915 54 3 1
1720 407 4 0 -6.853002086552298 -5.430964663200337 -7.021127719734476 33 1 1
948 190 3 0 -7.126576877811329 -5.287612843797156 -7.265749836921337 14 1 1
1427 309 4 0 6.584595662707111 -4.514518688889542 -7.2229218850187875 15 0 1
705 141 3 0 6.934949896289179 -4.6319591688595905 -7.08036383562511 28 1 0
701 141 1 0 7.246501467573722 -4.3448221710430435 -6.899546408381532 28 1 0
704 141 3 0 7.155195051106912 -3.9072071801553125 -7.049599838647923 28 1 0
702 141 3 0 7.673601828865333 -4.474234912614161 -7.026843064730483 28 1 0
82 17 3 0 -4.785418088388587 -3.376833591116446 -6.769025789055602 31 1 0
85 17 3 0 -4.280719443367953 -2.8607983948744415 -6.57847844992815 31 1 0
559 112 3 0 2.159942693783133 -2.6547973722886766 -7.2303687151902505 2 -2 2
768 154 3 0 -7.855442663832632 -1.2290419343291434 -6.831505716339881 -21 -2 0
597 120 3 0 -3.283248425229301 -1.7633929404636506 -6.856875570609618 31 1 1
1455 319 2 0 -2.8076278126274783 -1.3484557842191975 -7.255033533420038 35 1 1
1457 319 4 0 -2.9081642971622026 -1.7119483723909799 -7.003311201750377 35 1 1
582 117 3 0 7.200926368821332 -1.710408007290411 -6.539283547041766 48 1 1
581 117 1 0 7.464293260866382 -1.4998739217214831 -6.855660349415844 48 1 1
584 117 3 0 7.221663375410094 -1.4160371159202327 -7.2112596840081 48 1 1
585 117 3 0 7.618182120862745 -1.1322896810281593 -6.687871389884311 48 1 1
583 117 3 0 7.791249983657536 -1.7581737160187423 -6.97533656483131 48 1 1
475 95 3 0 -3.155047445725657 -0.009787299798968974 -7.3157328228897125 9 0 1
568 114 3 0 4.523430282932768 -7.807456150157635 -6.489460186983176 37 1 2
1615 372 4 0 4.346760784982031 -7.444101061981565 -6.451308697259109 15 0 1
570 114 3 0 5.238081213888016 -7.996348725029547 -6.396788962456188 37 1 2
1889 463 4 0 6.961314111859183 -8.13085261615452 -5.925509215686568 19 0 2
520 104 3 0 7.232089880630259 -8.246158853115668 -6.1966963013810075 -9 -2 2
491 99 1 0 -6.022339562495652 -6.674432361730426 -6.4428561792473715 54 3 1
494 99 3 0 -6.140428445146981 -6.916627691404607 -6.108999304800403 54 3 1
1650 384 2 0 2.0689697610739284 -6.71362309656279 -5.7756640204281515 32 1 2
892 179 3 0 2.8041466080626236 -6.955760804859782 -5.818919376218663 29 1 1
1652 384 4 0 2.429480561058023 -6.976622603101602 -5.955968804171794 32 1 2
1616 372 4 0 3.6429821909451885 -7.356108204813793 -5.904756491981168 15 0 1
893 179 3 0 3.4382531480384575 -7.216995422834352 -5.586280002081515 29 1 1
891 179 1 0 3.184626553721394 -6.844617678024064 -5.655776205508814 29 1 1
894 179 3 0 3.389625360885127 -6.575002772033473 -5.943641469483916 29 1 1
1614 372 2 0 4.009366930764818 -7.408253220811954 -6.185036376960415 15 0 1
1721 407 4 0 -6.384985449417531 -5.995199689340741 -6.429491931489826 33 1 1
492 99 3 0 -5.648002305996559 -6.4160473014947765 -6.327834705146626 54 3 1
312 63 3 0 -5.203761567744593 -5.804497904671138 -5.570838008847337 26 0 0
314 63 3 0 -4.612576467825189 -6.156150430584802 -5.805688238716953 26 0 0
422 85 3 0 0.6511763007878706 -6.311855502575447 -5.756455230953723 2 0 0
423 85 3 0 1.009117491112299 -5.693691883562064 -5.972122011830644 2 0 0
421 85 1 0 1.0257385038257478 -6.058019412473626 -5.697552502256606 2 0 0
425 85 3 0 1.3911115848257491 -6.311902459704124 -5.796503781197788 2 0 0
1651 384 4 0 1.6799217349314777 -6.4515082015838825 -5.5935214759920635 32 1 2
703 141 3 0 7.217185792699862 -4.352189762298583 -6.481580401581231 28 1 0
1840 447 4 0 7.2162035629478005 -4.06429549052916 -6.201134000510037 17 0 0
1839 447 2 0 7.141895928781498 -3.7137728255781965 -5.941286909766869 17 0 0
83 17 3 0 -4.828471136896603 -2.9826776650194544 -6.142362117912488 31 1 0
81 17 1 0 -4.539860187832563 -3.1709673422192175 -6.423216919595875 31 1 0
84 17 3 0 -4.306032941256555 -3.463608241358296 -6.212029092375001 31 1 0
189 38 3 0 -1.3213746928023022 -3.24861952898182 -6.052187985675057 7 0 -2
186 38 1 0 -0.9461724852060946 -3.048245786541548 -5.944462615841086 7 0 -2
187 38 3 0 -0.6172384658569596 -3.2352487429602315 -6.142168368304352 7 0 -2
1841 447 4 0 7.057964671492586 -3.3769964299906228 -5.692487056052682 17 0 0
1735 412 4 0 -6.595859205901217 -1.8714817028679738 -5.880185427864721 48 2 0
509 102 3 0 -6.380822384665333 -2.16768677566232 -5.74390188060154 17 0 -1
507 102 3 0 -5.665630909897086 -2.2774843045987847 -5.636857502931649 17 0 -1
1579 360 4 0 -5.44297363395126 -1.9568798716449445 -5.580961887136331 13 0 0
599 120 3 0 -3.5841011060549697 -2.3132867588050026 -6.431234952202664 31 1 1
596 120 1 0 -3.52221310920088 -1.8703827992897644 -6.458764417646154 31 1 1
188 38 3 0 -0.9713803658620366 -2.618063838984516 -6.070006086860494 7 0 -2
537 108 3 0 7.6267889793793024 -2.7381375702455353 -5.721022694114343 11 0 0
1356 286 2 0 8.055231299130241 -2.092539567356347 -6.050081751440592 18 0 1
1358 286 4 0 7.7660443230451435 -2.4244392219423103 -5.9404673224751425 18 0 1
770 154 3 0 -8.120610808023722 -1.4244560559980872 -6.166953238166103 -21 -2 0
766 154 1 0 -7.817571195610578 -1.1780708910779207 -6.372922782465527 -21 -2 0
769 154 3 0 -7.414806602697547 -1.3070051681353272 -6.244958936315073 -21 -2 0
1734 412 2 0 -6.81146244698723 -1.5246462522032367 -6.03547393836174 48 2 0
1736 412 4 0 -7.03548446678137 -1.156318553431543 -6.207259638816103 48 2 0
598 120 3 0 -3.904809546604932 -1.6608616708302968 -6.45146543700978 31 1 1
600 120 3 0 -3.2719570143187404 -1.7381287197603408 -6.086182856411751 31 1 1
1807 436 4 0 -3.2095231344339465 -1.8218154006501077 -5.676884855326962 13 -1 0
1357 286 4 0 8.336039829282264 -1.752992094338981 -6.160609182873424 18 0 1
767 154 3 0 -7.8885511747254355 -0.7620391325448779 -6.261302728608073 -21 -2 0
1481 327 4 0 -8.065280320707238 -0.47426457519848864 -6.094563602521849 32 0 1
1479 327 2 0 -8.02471597458149 -0.2166123563102964 -5.719441896900944 32 0 1
397 80 3 0 5.524899386653425 -7.658489609219162 -5.298456514076632 6 -1 1
396 80 1 0 5.7646403256768455 -7.944759745743178 -5.054890497592316 6 -1 1
399 80 3 0 6.225502566521948 -7.898025239392753 -5.150244580781971 6 -1 1
1888 463 4 0 6.534587793866727 -8.161388053904943 -5.070430158969884 19 0 2
1887 463 2 0 6.753656294780322 -8.145632334231436 -5.497761994085751 19 0 2
313 63 3 0 -5.132445593649553 -6.54908838527244 -5.477144278286897 26 0 0
895 179 3 0 3.1229218547465543 -6.63325717988124 -5.2639780889188135 29 1 1
311 63 1 0 -4.910761175154114 -6.149237329554725 -5.49037023714696 26 0 0
315 63 3 0 -4.706381280887687 -6.082643586652562 -5.096563469566578 26 0 0
424 85 3 0 1.0503054496388877 -5.919018151138189 -5.271799261569598 2 0 0
1955 485 4 0 3.26350239364176 -6.271986260722601 -5.167933099397127 29 1 1
1953 485 2 0 3.372336102391378 -6.110533432451139 -4.760014545120033 29 1 1
510 102 3 0 -6.139942240246816 -2.8278324948767537 -5.535371897226106 17 0 -1
190 38 3 0 -0.8956426240904642 -3.075758243281543 -5.520536280620956 7 0 -2
539 108 3 0 7.145798758132226 -3.164021524147328 -5.366771127681245 11 0 0
506 102 1 0 -6.072949927183737 -2.385018650183519 -5.4905967665549325 17 0 -1
508 102 3 0 -6.115316952993424 -2.26517410720544 -5.051841480256132 17 0 -1
1898 466 4 0 -6.325982004572053 -2.491334271713595 -4.760598737847943 25 0 1
536 108 1 0 7.358716549143747 -2.753521914149598 -5.375363579710805 11 0 0
538 108 3 0 7.040369320716849 -2.4169446437358904 -5.404096504300287 11 0 0
540 108 3 0 7.591593521719892 -2.7023071446849762 -5.011490451125508 11 0 0
92 19 3 0 -7.04182654705378 -1.0845872162127996 -4.670449234487995 24 0 -4
1578 360 2 0 -5.138886222898746 -1.713427439836698 -5.396237479461011 13 0 0
1580 360 4 0 -4.8360009458632 -1.4636027853613571 -5.19839223651009 13 0 0
149 30 3 0 -4.676055376117542 -1.1397263422265667 -5.034479339230598 35 1 1
146 30 1 0 -4.321182425599013 -1.1381603155014428 -4.732208995911236 35 1 1
1808 436 4 0 -3.5706062654848587 -1.4955220441989363 -4.920728629172132 13 -1 0
1806 436 2 0 -3.390528969569101 -1.6595204796615999 -5.293343306261685 13 -1 0
150 30 3 0 -3.948733921536708 -1.3661468432458062 -4.924040800347643 35 1 1
147 30 3 0 -4.218719708685903 -0.7141420666832383 -4.645712350382517 35 1 1
1122 225 3 0 3.924730079069681 -7.661112876273968 -4.042701050616066 37 2 0
1121 225 1 0 4.288815843244178 -7.865858434897826 -3.868388034105184 37 2 0
1123 225 3 0 4.520079834785031 -8.049518343623582 -4.1942573295146 37 2 0
400 80 3 0 5.698584655716431 -7.855797955461844 -4.605493920471363 6 -1 1
934 187 3 0 3.3454210947194323 -5.745200365812005 -4.104171272838871 0 0 1
1954 485 4 0 3.4641729480035863 -5.9644401739183 -4.392175000699573 29 1 1
1384 295 4 0 4.024307255906997 -5.634462771636116 -3.717239414398575 -3 -1 0
275 55 3 0 7.18696302198877 -6.351301994551507 -4.193871876158664 -4 -1 1
274 55 3 0 7.927100412213697 -6.435344266012852 -4.059097785900564 -4 -1 1
273 55 3 0 7.683709401931058 -5.800418208348589 -4.330180348831796 -4 -1 1
271 55 1 0 7.584972468321357 -6.130718008327289 -4.057739379005264 -4 -1 1
1630 377 4 0 2.78089952945777 -4.998973506051589 -3.804783398664661 -8 -1 0
1068 214 3 0 -6.428534903719614 -3.0728017446022076 -3.9964935575339524 64 4 1
1797 433 2 0 1.4841476467323371 -2.945432099801952 -4.354792311676338 27 1 1
1798 433 4 0 1.883993727450557 -3.1381268575350063 -4.194694401471323 27 1 1
829 166 3 0 1.9353745817679098 -3.416132219720792 -3.943752752484441 41 3 1
1896 466 2 0 -6.407358765685226 -2.138056421138147 -4.475800954384946 25 0 1
427 86 3 0 0.015404239200746517 -2.6884225060100233 -4.470936903973694 15 0 -1
428 86 3 0 0.30321846121890417 -2.5484629497489806 -3.7836145145886793 15 0 -1
430 86 3 0 0.3544163145109067 -2.084512897348607 -4.343773864587109 15 0 -1
426 86 1 0 0.3575027321296371 -2.4846965351999426 -4.246656066993611 15 0 -1
1934 478 4 0 0.29694634995336067 -1.882286832394838 -3.9798957343020938 10 0 1
1799 433 4 0 1.1141797812765262 -2.766079887722449 -4.507872084266925 27 1 1
429 86 3 0 0.7399881401361093 -2.6690576115806675 -4.367235067224744 15 0 -1
91 19 1 0 -6.833779804400072 -1.1524041641370877 -4.288244164118672 24 0 -4
94 19 3 0 -7.056407650148273 -0.9502384781535227 -3.968049062350552 24 0 -4
95 19 3 0 -6.818253002108891 -1.60987472468463 -4.203655176934484 24 0 -4
1897 466 4 0 -6.486938159595907 -1.8117344158565132 -4.207267514073503 25 0 1
93 19 3 0 -6.415267651343802 -0.9928983609293196 -4.30395720762855 24 0 -4
1272 258 2 0 -4.8602466730842036 -1.824821608651364 -3.8629232603506933 4 -1 1
148 30 3 0 -4.447149793026464 -1.3466928284224888 -4.338401528749809 35 1 1
1273 258 4 0 -4.751971189484574 -1.4847320346933053 -4.141687308835754 4 -1 1
1932 478 2 0 0.37950560045748816 -1.4385094678377772 -3.9668554432291003 10 0 1
1933 478 4 0 0.4700619487872597 -0.9603243670016042 -3.9478839394516925 10 0 1
673 135 3 0 3.672637637195413 -1.1284130897720797 -3.739102773333107 27 1 -1
675 135 3 0 3.9592039412747972 -1.6839746935332833 -4.159771836474727 27 1 -1
671 135 1 0 3.9918746857051826 -1.4379853645774885 -3.7542846286043385 27 1 -1
674 135 3 0 4.403119148114447 -1.2280902592218865 -3.7343236346159916 27 1 -1
1832 444 4 0 4.8017554547939305 -1.084152872766607 -3.7700149653536155 10 0 1
1536 346 2 0 -6.09043799000467 -0.24220401857711238 -4.191162912956687 50 2 0
1538 346 4 0 -6.1719743812858106 -0.7053244706481792 -4.159165088507319 50 2 0
1952 484 4 0 -3.972103418022699 -0.5604305978727506 -4.375161524548842 27 0 1
1950 484 2 0 -3.935006367945758 -0.12108664877199615 -4.207467415744993 27 0 1
1895 465 4 0 3.324955675126388 -0.14666489224779156 -4.5022027559763185 26 1 1
1894 465 4 0 3.4803804929102924 -0.8004161562614396 -3.9075701581068802 26 1 1
1893 465 2 0 3.4049990914411516 -0.48523465860277337 -4.206254644504755 26 1 1
1831 444 4 0 5.058857999291874 -0.24114247128027522 -3.8275137712464318 10 0 1
1830 444 2 0 4.929984122759452 -0.662888871730237 -3.798573307392404 10 0 1
268 54 3 0 -1.689417998280283 -8.25625104495274 -3.095018996524015 13 1 0
1125 225 3 0 4.1603921987423025 -8.20584552158278 -3.570838940852714 37 2 0
1124 225 3 0 4.543899165702978 -7.576867768998108 -3.655075457864748 37 2 0
932 187 3 0 3.028799614578219 -5.856317582446328 -3.4143371577260337 0 0 1
931 187 1 0 3.302602487189853 -5.572525234732355 -3.658477588444839 0 0 1
933 187 3 0 3.7077558106598403 -5.564801171318271 -3.468300921157499 0 0 1
1383 295 2 0 4.384339665812643 -5.602458289447041 -3.469797386212454 -3 -1 0
1385 295 4 0 4.745384579006734 -5.571421163001728 -3.1973845193920214 -3 -1 0
272 55 3 0 7.538881987102705 -5.97912100901217 -3.651636640068398 -4 -1 1
1629 377 2 0 2.494550716785488 -4.691424907304222 -3.655458989934206 -8 -1 0
935 187 3 0 3.1313499806598184 -5.1414497793690455 -3.671019770946394 0 0 1
960 192 3 0 4.729206388141117 -5.559941438318582 -2.798155632480964 44 1 0
827 166 3 0 2.058929396991875 -4.068950867845557 -3.6547254868978625 41 3 1
1631 377 4 0 2.2183271838603 -4.401469116879422 -3.5128813135092924 -8 -1 0
1067 214 3 0 -5.917719754753962 -3.3152494060258633 -3.4864926423024 64 4 1
1070 214 3 0 -6.565770529877851 -2.998713525664991 -3.242944205967552 64 4 1
1066 214 1 0 -6.362266370240166 -3.2731052838485235 -3.5808305790415114 64 4 1
1069 214 3 0 -6.5531361916771225 -3.6893708662766382 -3.5766276010158835 64 4 1
826 166 1 0 2.083529746523583 -3.6235699301675997 -3.587678479795163 41 3 1
830 166 3 0 1.8322424005098057 -3.5134139762463805 -3.2295827448943752 41 3 1
828 166 3 0 2.5205983817544464 -3.5040330682477414 -3.510979055083614 41 3 1
1359 287 2 0 -6.327481373923572 -2.3228098122972822 -2.802803033293518 26 1 -1
1360 287 4 0 -6.5478783224217745 -2.6985413216453846 -2.9924208637811827 26 1 -1
1274 258 4 0 -4.967068894637947 -2.1764707445917697 -3.5861743190119277 4 -1 1
659 132 3 0 -3.017248119643954 -1.589387965512592 -3.2787738894747243 7 -2 0
657 132 3 0 -2.844663778717983 -1.001947817893594 -2.8773025703494373 7 -2 0
656 132 1 0 -2.74715920960848 -1.4388294765530194 -2.9553650859730967 7 -2 0
660 132 3 0 -2.3069552633495505 -1.459770191448115 -3.1003215104819883 7 -2 0
1261 254 4 0 -1.9760001479706615 -1.344805456985509 -3.3310689961960582 0 0 1
1260 254 2 0 -1.707737066778459 -1.029337360765581 -3.1600469677762915 0 0 1
672 135 3 0 3.951315996740547 -1.7105092183197916 -3.4288037674354115 27 1 -1
1928 476 4 0 -6.129278312237751 -0.7466009584385818 -2.8587817204074515 25 0 1
1926 476 2 0 -5.8420932611049015 -0.529149093235791 -3.1163573494256234 25 0 1
1927 476 4 0 -5.529695339368978 -0.30336130817572204 -3.3921896406947303 25 0 1
1716 406 2 0 -2.9043036814741727 -0.4076503712833297 -3.3790780162944003 -5 -1 -1
1718 406 4 0 -3.008902674863484 -0.7732026957775568 -3.182624536356508 -5 -1 -1
1717 406 4 0 -2.800878962811206 -0.037048825939882235 -3.581872667452094 -5 -1 -1
1262 254 4 0 -1.446935643268291 -0.7216062160461441 -2.9787630347279492 0 0 1
141 29 1 0 -1.0432561977032009 -0.1600346752866404 -2.8307385210157463 29 1 0
142 29 3 0 -1.1438965665356964 -0.49836038044390296 -3.130971218808508 29 1 0
144 29 3 0 -0.6067303698327837 -0.09222345861206271 -2.8192190320741464 29 1 0
1490 330 4 0 -2.648263314076007 -8.317562589091327 -2.580874166216729 -10 -2 2
683 137 3 0 -2.7656618429729782 -6.569372601973806 -1.8726496884020687 60 2 3
684 137 3 0 -2.254942230995743 -6.370067210898373 -2.379106188045676 60 2 3
681 137 1 0 -2.510102571105321 -6.228410808944959 -2.0182239609165755 60 2 3
682 137 3 0 -2.7682089732404433 -5.896724372316001 -2.141449948059222 60 2 3
1418 306 4 0 -2.695308233826071 -5.5326006490202655 -2.2616740375121394 -6 -1 0
1416 306 2 0 -2.6684979023330913 -5.1543745980971805 -2.015886957875731 -6 -1 0
1195 239 3 0 3.39418982729115 -4.8410852236484425 -2.514632343911849 14 0 0
1191 239 1 0 3.488902141937139 -4.7600175952616075 -2.0931128673263633 14 0 0
1192 239 3 0 3.7313726623320065 -5.102595428651044 -1.9238414104499482 14 0 0
958 192 3 0 4.626698801200881 -5.557004934864141 -2.071568323538906 44 1 0
956 192 1 0 4.818218375453693 -5.337756855318743 -2.410529998575492 44 1 0
959 192 3 0 4.6436544134925235 -4.903005458439798 -2.4310613802307808 44 1 0
957 192 3 0 5.269365468916273 -5.319830063220546 -2.351727385194039 44 1 0
1663 388 4 0 5.620356322179557 -5.241053008733588 -2.219267648101976 -17 -2 1
38 8 3 0 -3.1938999255377585 -4.068360361412314 -2.389686429065849 49 3 1
36 8 1 0 -3.047504075911765 -4.107533079544927 -1.9774327391330964 49 3 1
40 8 3 0 -2.9449910530307797 -4.5518001762122005 -1.8918147014499347 49 3 1
39 8 3 0 -2.693454658129567 -3.8760111716802887 -1.9214969536364537 49 3 1
1194 239 3 0 3.7176635558510327 -4.3949086269659325 -2.0683248879138176 14 0 0
51 11 1 0 1.1859761530068642 -2.916142245859014 -2.0541242112159273 32 1 2
54 11 3 0 1.0462626618215776 -3.2302524656962923 -2.27349671258422 32 1 2
52 11 3 0 1.6013688732429792 -2.8184287768962903 -2.200430391462451 32 1 2
460 92 3 0 3.840573907261591 -3.6304198611439418 -1.9887627587286953 21 1 1
458 92 3 0 4.51300496851338 -3.313626904794047 -2.035972329730475 21 1 1
1361 287 4 0 -6.121319719860589 -1.9737813934148045 -2.6224393177540453 26 1 -1
53 11 3 0 0.919720090299128 -2.560490398875671 -2.0967305839683386 32 1 2
1346 282 4 0 -6.844973575378345 -1.5272975618368827 -2.042678371900556 10 -1 -1
1344 282 2 0 -6.8775316071225365 -1.1242533999465065 -2.2558397748337295 10 -1 -1
719 144 3 0 -5.9197265966969095 -1.6729003652691823 -2.450354368866602 -1 -1 0
716 144 1 0 -5.750706330433571 -1.2744539603188692 -2.346446160458541 -1 -1 0
718 144 3 0 -5.8683251333951745 -0.9719055182488878 -2.6696435359772934 -1 -1 0
720 144 3 0 -5.9135988310882155 -1.1315172292091322 -1.9402047269661118 -1 -1 0
717 144 3 0 -5.307195735847237 -1.3048727078115832 -2.3348398872249225 -1 -1 0
1775 425 4 0 -2.950759524330489 -1.6880546151353384 -2.2001122988664727 32 1 2
658 132 3 0 -2.795057951645048 -1.672094109898083 -2.583968353443434 7 -2 0
990 198 3 0 6.014379704737319 -0.9324045532203842 -2.029736495596362 24 0 2
293 59 3 0 -6.860633058701871 -0.3532095605301464 -2.592435091931682 -11 -2 1
1345 282 4 0 -6.9245311083301475 -0.7411033871752739 -2.452055409417542 10 -1 -1
291 59 1 0 -7.036612504425233 -0.0013795296883216679 -2.684591049679767 -11 -2 1
1400 300 4 0 -1.3123939851264623 -0.10988732670291235 -2.094426076137843 10 -1 0
143 29 3 0 -1.1834626336359086 -0.2724703934878807 -2.422734537101718 29 1 0
1423 308 4 0 -0.4282608590332453 -0.02909374433068912 -2.449801298621102 16 0 1
50 10 3 0 -2.014861328993197 -8.253459928709004 -1.785530605208483 15 0 0
1117 224 3 0 -5.730775615608918 -7.0525468785379966 -1.3756993353514755 54 3 0
1120 224 3 0 -5.125516018591835 -7.11777602050088 -0.938465342835844 54 3 0
1116 224 1 0 -5.2879874330315015 -6.930985154991886 -1.3327321886529733 54 3 0
1118 224 3 0 -5.045411216637225 -7.087964512298852 -1.6998840608586958 54 3 0
1700 400 4 0 6.739657246575376 -7.246574832748403 -1.0206237961663094 28 1 0
1698 400 2 0 6.744879611151543 -6.809006674463497 -1.0333523040671198 28 1 0
1119 224 3 0 -5.249741054873256 -6.46462660690613 -1.3045368998938542 54 3 0
685 137 3 0 -2.2420107027610925 -6.096481097079735 -1.68129500194624 60 2 3
1450 317 4 0 4.390381575298903 -6.097472465002798 -1.0719477135408688 31 1 -1
1449 317 2 0 4.5130659351727225 -5.803775653814067 -1.3790594700777419 31 1 -1
29 6 3 0 4.153167376401598 -6.386844902238119 -0.9856254210495496 -7 -1 -1
937 188 3 0 6.482070000434472 -6.052053087634377 -1.081676437974597 19 1 1
940 188 3 0 5.79604522899116 -6.17745441019083 -0.9331017378113406 19 1 1
936 188 1 0 6.108604264808195 -5.869914364754366 -0.9452971040203018 19 1 1
1699 400 4 0 6.756914478531108 -6.3621744819601895 -1.05458476505631 28 1 0
1417 306 4 0 -2.646261651738709 -4.8053625189758655 -1.7789822833598512 -6 -1 0
1193 239 3 0 3.07031633856967 -4.722065536148481 -1.8372814466388725 14 0 0
1451 317 4 0 4.627324224612142 -5.520435946439834 -1.6743783340209344 31 1 -1
1662 388 2 0 5.673099801261234 -5.239789601319754 -1.7514917036016175 -17 -2 1
939 188 3 0 5.986851937121305 -5.558123219396048 -1.2226539491029804 19 1 1
1664 388 4 0 5.7279263824616855 -5.241507821784975 -1.2799104552743046 -17 -2 1
37 8 3 0 -3.36784009786233 -3.9626880054778226 -1.681833190763351 49 3 1
1900 467 4 0 2.837498830857495 -4.494055350163961 -1.5881944777434969 29 1 2
1899 467 2 0 2.6137414405860167 -4.165070252237025 -1.3992920306232994 29 1 2
1901 467 4 0 2.38244838359247 -3.829775551873257 -1.2007344768837065 29 1 2
55 11 3 0 1.2032911045586978 -3.0330582242299773 -1.6327976145237573 32 1 2
1249 250 3 0 2.9363151894922233 -2.9752676843804977 -0.9277362469423185 10 -1 2
1247 250 3 0 2.465139594914886 -3.5204455853116663 -0.9516733370946486 10 -1 2
457 92 3 0 3.944319356778534 -2.9405118055037605 -1.7436475072494595 21 1 1
1646 382 4 0 3.2560841522477126 -2.8920195996374822 -1.1141630504213937 28 0 0
459 92 3 0 4.2326821332861595 -3.505397380292421 -1.3737413877398854 21 1 1
456 92 1 0 4.133220084990294 -3.3473016858062747 -1.7745650433182725 21 1 1
1133 227 3 0 -6.971896780729448 -2.29448903149337 -1.5983846987214285 36 1 2
1131 227 1 0 -6.652178961403858 -1.9914515618866888 -1.4889990373300082 36 1 2
1134 227 3 0 -6.27350427813413 -2.211725306873494 -1.3456548875787213 36 1 2
1644 382 2 0 3.3572870830963986 -2.5829716383887584 -1.4331151034038196 28 0 0
1645 382 4 0 3.4595278636149605 -2.2793486120100095 -1.7469369943504196 28 0 0
202 41 3 0 3.563598676998634 -1.906530270483664 -1.6321243388268538 7 -1 -2
1135 227 3 0 -6.809828326990311 -1.7242738047033948 -1.157653124476533 36 1 2
1132 227 3 0 -6.564147931425052 -1.734393125614691 -1.8413151851279794 36 1 2
1773 425 2 0 -3.1809887892634165 -1.680751424263173 -1.8200240788122555 32 1 2
578 116 3 0 -3.55405659940208 -1.4174042545881358 -1.1829537738221925 33 1 2
1774 425 4 0 -3.4066742207167087 -1.679324238472513 -1.4451962410040533 32 1 2
205 41 3 0 3.7988871339203865 -1.1810225120588997 -1.7432719236153833 7 -1 -2
201 41 1 0 3.892141777479557 -1.5780137337444158 -1.5184593434984324 7 -1 -2
203 41 3 0 3.8846025007914875 -1.5004792502349975 -1.067902437985473 7 -1 -2
204 41 3 0 4.281290709125164 -1.7172873884849587 -1.6399051492525327 7 -1 -2
1510 337 4 0 4.560145244601484 -1.440585630763005 -1.585903410429795 42 2 3
1511 337 4 0 5.451582806260969 -1.500493630590353 -1.3218723371218912 42 2 3
1509 337 2 0 5.008870484894574 -1.4721479408697071 -1.4548987060516154 42 2 3
986 198 1 0 6.054257376660187 -0.9879667326679282 -1.5990694248570483 24 0 2
989 198 3 0 5.721918919197378 -1.2696595093121497 -1.4499320018399526 24 0 2
988 198 3 0 6.4580321168149855 -1.1712382651605013 -1.511924194223507 24 0 2
1987 496 4 0 6.805996683304077 -1.2218628142634689 -1.2979337375623734 49 1 0
1398 300 2 0 -1.3278017144590502 -0.08856763181999128 -1.6588293573515491 10 -1 0
1399 300 4 0 -1.3456041463136454 -0.07032463934697475 -1.2102266652213052 10 -1 0
987 198 3 0 6.008377168500653 -0.5818790442030597 -1.3828332202721159 24 0 2
1749 417 2 0 -2.426968886320487 -8.225415481134268 -0.5121357624840019 0 0 0
1750 417 4 0 -2.2661204624115854 -8.042010918614208 -0.13097869514415805 0 0 0
832 167 3 0 2.9698364069929184 -8.048863527652466 -0.26923805896961817 1 -1 -1
1891 464 4 0 3.324274751586266 -7.988301094278972 -0.4386374082562021 20 1 0
1890 464 2 0 3.4819505037954155 -7.593818964634567 -0.42868864268017326 20 1 0
973 195 3 0 -2.0607554497657734 -7.266756965492387 -0.008965221209427554 17 0 0
1892 464 4 0 3.642786181105931 -7.152843398767197 -0.40473768608020144 20 1 0
28 6 3 0 3.8855869700607197 -7.037940207712259 -0.6929410576261006 -7 -1 -1
26 6 1 0 4.149270865776982 -6.668152288630426 -0.610126630697323 -7 -1 -1
30 6 3 0 4.567889496732988 -6.79511884365508 -0.5252285895571633 -7 -1 -1
1532 344 4 0 4.915096560197979 -6.9883566674996755 -0.5465547586432651 9 -1 0
1530 344 2 0 5.25352989722254 -6.654235862877016 -0.6093884169127293 9 -1 0
336 68 1 0 -0.777061502564524 -6.158003384913944 -0.2841213564473044 -14 -2 3
337 68 3 0 -0.9474086441895384 -6.370417126662654 -0.6109956056429864 -14 -2 3
339 68 3 0 -0.8437514173322658 -5.712631360134844 -0.34145878187222856 -14 -2 3
338 68 3 0 -0.36505252316821757 -6.235177564924328 -0.26456198774226714 -14 -2 3
27 6 3 0 3.990259734692172 -6.441777574627281 -0.2595210653042983 -7 -1 -1