LAMMPS data file via write_data, version 19 Nov 2024, timestep = 100000, units = lj

673 atoms
4 atom types
482 bonds
1 bond types
441 angles
2 angle types

-4.496439 4.496439 xlo xhi
-4.496439 4.496439 ylo yhi
-4.496439 4.496439 zlo zhi

Masses

1 1
2 1
3 0.1
4 0.1

Bond Coeffs # harmonic/omp

1 100 0.45

Angle Coeffs # harmonic/omp

1 100 180
2 100 109.471

Atoms # full

260 54 2 0 -2.752181873556708 -4.334552435454806 -4.297531843085234 0 0 0
562 154 4 0 -0.7018871340138733 -4.187132734215749 -3.656954644895317 0 0 1
33 7 3 0 -0.8286898297545237 -3.8855569764268276 -3.922262896734534 0 0 1
34 7 3 0 -1.40558015609753 -3.4020956498862813 -4.0734079837109025 0 0 1
31 7 1 0 -0.9373635856768919 -3.4653552511978347 -4.097626607947445 0 0 1
32 7 3 0 -0.7451328061480295 -3.1508136165023006 -3.865208761098408 0 0 1
560 154 2 0 -0.6062587424048215 -4.3058426102836735 -3.2440362438973662 0 0 1
343 81 4 0 -1.696618802538481 -3.144460890443598 -4.013516729959927 0 0 1
561 154 4 0 -0.5068011712761094 -4.4340972007276225 -2.818404887303319 0 0 1
272 58 2 0 -3.6989987074729034 -1.866574993152994 -3.189299589468581 0 0 0
273 58 4 0 -4.015934458820999 -2.1806853863273297 -3.239020721417577 0 0 0
225 45 3 0 -4.185378491110724 -2.4072322991938297 -3.562350414553043 1 1 0
266 56 2 0 -2.3628148255210073 -1.8412795643898434 -3.4815734941308087 0 0 0
267 56 4 0 -2.1695272851658607 -2.2523431448607014 -3.4545265566345487 0 0 0
342 81 4 0 -1.8854061181399575 -2.318383563784468 -3.7302422460751363 0 0 1
341 81 2 0 -1.7858978250852091 -2.729890931765429 -3.87481174299401 0 0 1
268 56 4 0 -2.547380447591729 -1.443845260161462 -3.501532972250371 0 0 0
195 39 3 0 -0.5545621712348593 -1.769056683303765 -4.2170601983975535 0 0 1
13 3 3 0 -3.1123147647303395 -0.676785308706332 -3.395078275401262 0 0 0
14 3 3 0 -2.759284677505036 -1.3037215457592257 -3.1890393790233444 0 0 0
301 67 4 0 -2.9406629469838577 -0.3042596793471024 -3.378995516612739 0 0 0
492 131 4 0 -0.37194871261032675 -0.6637492678405671 -0.9394478170300985 0 0 0
359 87 2 0 -1.6543076848968121 -4.441514685610845 -1.6369447689941035 0 1 0
278 60 2 0 -1.9629992180047664 -0.3591592821008931 -0.15208498687710031 0 0 0
285 62 4 0 -4.041810638242276 -4.261497698020946 -2.623224968181423 0 0 0
298 66 4 0 -3.6677288155499053 -3.562759811168768 -2.71088718384778 0 0 0
296 66 2 0 -3.997351499764768 -3.2279045510931446 -2.72902028573666 0 0 0
292 64 4 0 -3.493778411749956 -3.9019035094005434 -2.8932180263090075 0 0 0
290 64 2 0 -3.073436374635754 -3.8307521273124094 -2.7639016685476694 0 0 0
478 126 4 0 -4.15686171193062 -3.8816420677668075 -1.7392422006241053 1 0 0
370 90 4 0 -3.9807571904490064 -4.1506809104000775 -1.525382614984653 1 1 0
291 64 4 0 -2.651854072684276 -3.7631205195716313 -2.644960777011689 0 0 0
276 59 4 0 -2.334792049906145 -3.5765544884255145 -2.7681474941043445 0 0 0
275 59 2 0 -2.1815495025933265 -3.1504018364201163 -2.7772185976343278 0 0 0
2 1 3 0 -0.17673230453758262 -3.0077507582731084 -2.8571831053728904 0 0 0
4 1 3 0 -0.8379994630016296 -3.056080335906186 -2.517636807082162 0 0 0
5 1 3 0 -0.20669248712673557 -3.1528728147206593 -2.1419081369134307 0 0 0
96 20 1 0 -0.07502933262254609 -0.5370304831416686 -0.2755019385615739 0 0 0
274 58 4 0 -3.410368802562266 -1.5665201440498944 -3.139818712547023 0 0 0
288 63 4 0 -3.2594859565317926 -1.6277551259511283 -1.8860259581896888 0 0 0
297 66 4 0 -4.309636866448609 -2.89691895883591 -2.746081970823074 0 0 0
287 63 2 0 -2.8187289017136212 -1.6413329643658456 -2.1012983295024825 0 0 0
277 59 4 0 -2.027769359062181 -2.71304004120899 -2.768140256666413 0 0 0
30 6 3 0 -1.938903296267475 -2.2881270119328505 -2.711882790277353 0 0 0
26 6 1 0 -1.7823482665287156 -2.061779871369942 -2.3837244135613047 0 0 0
27 6 3 0 -1.81685208941344 -2.330622898440831 -1.9804727952215402 0 0 0
28 6 3 0 -2.024037728635535 -1.6871223144574512 -2.328505354537957 0 0 0
355 85 4 0 -1.9638801072432301 -2.0945674547027915 -1.6740228686297263 0 1 0
289 63 4 0 -2.4401678313711948 -1.6514633453909595 -2.2891318649952757 0 0 0
1 1 1 0 -0.40325947462969536 -2.935569327392866 -2.473298022047254 0 0 0
3 1 3 0 -0.38719816074730856 -2.5063682339625544 -2.3981430103472716 0 0 0
29 6 3 0 -1.3765784297759027 -1.9749229096923517 -2.4448919090330903 0 0 0
271 57 4 0 -1.0412788091922918 -1.7629789054641252 -2.4395759622485933 0 0 0
269 57 2 0 -0.9369053559077138 -1.3744166341859516 -2.267378127892713 0 0 0
15 3 3 0 -3.496583956852989 -1.201716699658846 -3.0104906683384827 0 0 0
11 3 1 0 -3.079243321042463 -0.9907958275852367 -3.076045447803903 0 0 0
12 3 3 0 -2.9563067374326097 -0.7912091400291492 -2.6916215650464084 0 0 0
270 57 4 0 -0.82231791467391 -0.9492529499213264 -2.0857974139891717 0 0 0
493 131 4 0 -0.5557851777011877 -0.9286181783712467 -1.8027088642442344 0 0 0
360 87 4 0 -1.6052984766656848 -4.0880949068445345 -1.350764937047643 0 1 0
362 88 2 0 -1.3451078808906516 -4.286018583998814 -0.5698335709880098 0 1 0
363 88 4 0 -1.618410491564389 -4.228931324603079 -0.9723186328751183 0 1 0
364 88 4 0 -1.0912713736831041 -4.33973312337316 -0.20065688917051502 0 1 0
265 55 4 0 -3.3766520953301407 -1.681948808063584 -1.4956812742115873 0 0 0
148 30 3 0 -4.233118380449285 -2.0862410203081074 -0.197963570396093 1 0 0
146 30 1 0 -4.193770592046841 -2.158531861248078 -0.6274995549377315 1 0 0
99 20 3 0 -0.2840218606633325 -0.3802803854330571 -0.6710593741402473 0 0 0
149 30 3 0 -4.145948430326603 -1.7596515170329596 -0.8399124534431648 1 0 0
147 30 3 0 -3.8440158256820998 -2.4127486245719467 -0.7100928630316228 1 0 0
263 55 2 0 -3.231761351566374 -1.7138276807586708 -1.0662244957027254 0 0 0
264 55 4 0 -3.079070484941843 -1.7437594437740842 -0.6439181923795573 0 0 0
496 132 4 0 -4.302144548548652 -1.4730889236500744 -1.0771207342637226 1 0 0
353 85 2 0 -1.6432365963570421 -2.0563458182087517 -1.312233420124685 0 1 0
354 85 4 0 -1.3648542823561522 -2.020942430771008 -0.9741727590444647 0 1 0
22 5 3 0 -1.3858350141018883 -2.215356643232259 -0.6128142902432473 0 0 0
452 118 2 0 -0.31977776218378046 -2.97329483250614 -1.2852794526733782 0 0 0
453 118 4 0 -0.6677321295569885 -2.7350175219662343 -1.1014178870748792 0 0 0
21 5 1 0 -1.0963144804931768 -2.524183908639183 -0.42497394838792113 0 0 0
24 5 3 0 -0.9086820952995235 -2.7593583627166116 -0.7407117475207327 0 0 0
25 5 3 0 -0.7967927688942621 -2.320790250883865 -0.208411310933262 0 0 0
23 5 3 0 -1.3203618834820339 -2.783161516099194 -0.16079913574931945 0 0 0
491 131 2 0 -0.46446547658780213 -0.7946631736042783 -1.374360909798979 0 0 0
450 117 4 0 -3.353258914952788 -1.648299413860869 -0.37076270911325526 1 0 0
279 60 4 0 -1.6661622121726918 -0.23139135072605477 -0.42551392085128814 0 0 0
337 79 4 0 -2.847901868260368 -3.671104979332101 -4.442381864618223 0 0 1
39 8 3 0 -1.820733026410934 -0.9269869840234314 -4.469596183184637 0 0 1
184 37 3 0 -4.489276216883573 -4.4145318670746185 0.11521716301409723 1 0 0
120 24 3 0 -3.1764608194491126 -2.636917346780012 1.019261038292274 0 1 0
449 117 2 0 -3.1426899071608534 -1.7660459583596366 0.05734297565139533 1 0 0
117 24 3 0 -2.797036036116169 -2.0755530339441823 0.7357093715429206 0 1 0
451 117 4 0 -2.950291868680947 -1.8697055261532414 0.43703513610037803 1 0 0
116 24 1 0 -2.7863834761828796 -2.516402617832383 0.8991322922722383 0 1 0
119 24 3 0 -2.4848717706203782 -2.543321594223214 1.2444025049005583 0 1 0
118 24 3 0 -2.6418727048628243 -2.7935966987312666 0.5581555107506667 0 1 0
334 78 4 0 -2.5061286563153424 -2.8377301917264752 0.16657837218549934 0 0 0
409 103 4 0 -2.2311382079011537 -2.8410548617459956 1.2120544358779155 0 1 0
332 78 2 0 -2.0551548921244303 -2.8313681528795587 0.1305908697353539 0 0 0
333 78 4 0 -1.6206541154785021 -2.8213863782348483 0.0932290063775047 0 0 0
545 149 2 0 -0.5740564501215067 -2.4935054227468774 1.188929551496442 0 0 0
546 149 4 0 -0.30708435071888496 -2.810074322489693 0.9696342752596339 0 0 0
547 149 4 0 -0.8230556367038778 -2.1893279575219995 1.4063605429263515 0 0 0
214 43 3 0 -4.27398705345801 -0.6670101587067061 1.6250922231861706 1 0 0
281 61 2 0 -3.534722537032882 -0.3705053000747215 1.4666719193110633 0 0 0
282 61 4 0 -3.211918002660831 -0.155571004581136 1.296474256422613 0 0 0
48 10 3 0 -2.32566124407817 -0.6627699781803498 1.4279181101876206 0 0 0
46 10 1 0 -1.961441979353833 -0.9017323509637627 1.5075091592259573 0 0 0
60 12 3 0 -2.519034420544577 -0.28231385063977554 0.40208544804659685 0 0 0
47 10 3 0 -1.7045321508465114 -0.9270543900195248 1.123929532033838 0 0 0
280 60 4 0 -2.2968171155409554 -0.5078483911732394 0.15681440486350684 0 0 0
17 4 3 0 -0.7034836178956695 -0.48790987064011465 1.4137560840701926 0 0 0
256 52 4 0 -0.9448969315646175 -0.448491891480291 1.1101911118142431 0 0 0
254 52 2 0 -0.8271472503030948 -0.5546369323215614 0.6856254557767708 0 0 0
255 52 4 0 -0.7056229072508174 -0.6662776340260769 0.2562704043018974 0 0 0
98 20 3 0 -0.3668966569215251 -0.5653350583170089 0.07462237161227203 0 0 0
52 11 3 0 -4.169661294441797 -4.394635009310313 2.470292650126793 0 0 0
51 11 1 0 -3.7776097325837905 -4.387733990403701 2.2380193386077503 0 0 0
312 71 4 0 -3.2504114305575906 -3.7752551860742556 2.176626009370022 0 0 0
54 11 3 0 -3.6141560731844753 -3.9718157340100047 2.2557393056223236 0 0 0
53 11 3 0 -3.8548687742092778 -4.493890737872 1.7978591846170353 0 0 0
408 103 4 0 -1.7436424071555292 -3.112485229154408 1.8364706580866117 0 1 0
340 80 4 0 -1.7401512300269486 -4.396379180116295 2.006921881651514 0 0 0
407 103 2 0 -1.9769594031832618 -2.9854555596138277 1.5398276074817545 0 1 0
311 71 2 0 -2.9468000814580373 -3.5827739915464045 2.4633860610091225 0 0 0
113 23 3 0 -1.4587287590358815 -4.169802958452107 1.7975446617418924 0 1 0
313 71 4 0 -2.6509316817510484 -3.396836540596841 2.7516685277421007 0 0 0
321 74 4 0 -2.2974602843138205 -3.2681334824018733 2.8561672226673873 0 0 0
114 23 3 0 -1.5107051955825694 -3.444962844902419 1.9328203688615113 0 1 0
111 23 1 0 -1.234819717092078 -3.8203693640842524 1.9353929979979236 0 1 0
112 23 3 0 -1.0955771655076811 -3.8969522919609862 2.34028386673618 0 1 0
519 140 4 0 -0.25843344958868886 -3.63348994446535 1.7954676558009257 0 0 0
115 23 3 0 -0.8766979469813617 -3.751463875772235 1.6558757981795758 0 1 0
518 140 2 0 -0.1353954876621114 -3.9923682846554547 2.078482331863441 0 0 0
520 140 4 0 -0.02331000246819387 -4.342442959847749 2.3452448152142416 0 0 0
326 76 2 0 -3.712241443356635 -2.0604647800947875 2.663432782202199 0 0 0
328 76 4 0 -3.993265976217433 -2.3603703286787905 2.8889928103637903 0 0 0
327 76 4 0 -3.421936696672605 -1.7558283050870893 2.4356127293708942 0 0 0
320 74 2 0 -2.160850769841071 -2.873571868212095 2.7313375999809804 0 0 0
317 73 2 0 -2.0774646821924105 -1.7590646974178483 2.2882598121669053 0 0 0
318 73 4 0 -1.919373923862305 -2.0694304973785904 2.5836516721880556 0 0 0
322 74 4 0 -2.020142708200905 -2.466882372747367 2.6001553247854567 0 0 0
163 33 3 0 -0.8179524921087818 -2.0758259631567753 1.8212436397528633 0 0 0
164 33 3 0 -0.3006486687702011 -1.9911067954611181 2.327958972558561 0 0 0
531 144 4 0 -0.014967113638213023 -2.0046011052410986 2.6168015848745636 0 0 0
161 33 1 0 -0.5585639323255182 -1.7777682681719091 2.0283368419985055 0 0 0
162 33 3 0 -0.28510268569376607 -1.5657314106642661 1.7174213102496778 0 0 0
283 61 4 0 -3.881209602810645 -0.5985673214340242 1.6433390073215721 0 0 0
259 53 4 0 -3.5611754565991824 -1.4037712790319015 2.482998970459227 0 0 -1
257 53 2 0 -3.4194946547673246 -1.0113039070569954 2.533777704348094 0 0 -1
258 53 4 0 -3.2633391726242746 -0.5886123638495262 2.586321827458957 0 0 -1
49 10 3 0 -2.0641033077747912 -1.3226494563717157 1.6329975003564285 0 0 0
319 73 4 0 -2.2339496411031217 -1.4367440038410086 1.9705203021891655 0 0 0
50 10 3 0 -1.7241404565589264 -0.7024827502581195 1.8207195887245402 0 0 0
20 4 3 0 -1.270355590897604 -0.6718632367106067 1.8242630019254729 0 0 0
16 4 1 0 -0.8893250101361118 -0.4708274612554942 1.8358975308795085 0 0 0
165 33 3 0 -0.808589879024318 -1.4675626680384413 2.2481410216497726 0 0 0
18 4 3 0 -0.6211863022067317 -0.6716381836913415 2.1273387441529676 0 0 0
239 48 3 0 -1.0329004712522283 -0.707099947255191 2.8339972847211157 0 0 0
19 4 3 0 -0.9541466003776571 -0.05110322827598192 1.952698511564941 0 0 0
237 48 3 0 -0.67279181228866 -0.07671783429215795 2.957214073311453 0 0 0
335 79 2 0 -3.15468256101949 -3.365428926905735 4.425955734771482 0 0 0
405 102 4 0 -0.31962890950460926 -0.028026479492700956 3.166833815317521 0 0 0
262 54 4 0 -2.87246254576781 -4.02442769506494 4.3519910473390855 0 0 -1
535 145 4 0 -0.5538858711486694 -3.3185705466738216 4.197471643951943 0 0 0
336 79 4 0 -3.4736305006915464 -3.044569360662942 4.288121642961479 0 0 0
346 82 4 0 -3.5166657716617022 -2.8215649369053986 3.9546126280949445 0 0 0
345 82 4 0 -3.8749110275830367 -2.6218540861167616 3.1833534375479537 0 0 0
344 82 2 0 -3.6930858527071533 -2.7180663080732406 3.56215514730111 0 0 0
533 145 2 0 -0.33007306801608 -2.9486104670479154 3.9945287011099917 0 0 0
251 51 2 0 -1.1830758514555995 -1.555795556841142 3.644189589560129 0 0 -1
530 144 2 0 -0.07401400955969968 -2.245827318126019 3.016017665852324 0 0 0
534 145 4 0 -0.12065300275996708 -2.598282901524757 3.7981027582444247 0 0 0
194 39 3 0 -0.6047470546031567 -1.9190556655324327 4.021728853871233 0 0 0
253 51 4 0 -0.8059222704988624 -1.7849094162518069 3.6869350288607583 0 0 -1
191 39 1 0 -0.3530474747157083 -1.7010117172159307 4.375344319560436 0 0 0
532 144 4 0 -0.11995670310894889 -2.4636357699353733 3.3989885913954248 0 0 0
36 8 1 0 -1.802035019341214 -0.6772079029097369 4.1267139178687104 0 0 0
37 8 3 0 -1.6186524346647275 -0.9482671312203454 3.7844048935025425 0 0 0
57 12 3 0 -2.9452047794267524 -0.08774441548679891 0.9867069176292486 0 0 0
396 99 4 0 -2.1916327214880074 -0.2642566515424829 3.732934418383793 0 0 0
38 8 3 0 -2.2241431355765027 -0.5534616280366182 4.005733439387069 0 0 0
40 8 3 0 -1.539889208185361 -0.29381371636219683 4.189412263224078 0 0 0
236 48 1 0 -0.9725426221002609 -0.36642632928027297 3.1231599877682386 0 0 0
238 48 3 0 -1.382079365050026 -0.14107239049399212 3.2032056232994432 0 0 0
240 48 3 0 -0.8262059814429229 -0.5182530142881079 3.494763816166544 0 0 0
252 51 4 0 -1.5814432004865298 -1.308067652567909 3.6042499778557744 0 0 -1
43 9 3 0 -0.10056214076894512 -2.9678869020168905 1.274149762541855 0 0 0
35 7 3 0 -0.8129289825011392 -3.4403545218052978 4.473862930815994 0 0 0
193 39 3 0 -0.3404672288075643 -1.2575461923989855 4.302906418460635 0 0 0
657 186 4 0 -0.005096862938866534 -1.0496230069615582 4.274879690791873 0 0 0
73 15 3 0 -3.9449089936111337 1.3756021067097701 -3.392046401360233 0 0 0
71 15 1 0 -3.6914873860217168 1.0638410318101978 -3.7237455495924325 0 0 0
75 15 3 0 -3.797966354082393 1.1572608615940128 -4.144704159144004 0 0 0
72 15 3 0 -3.7909107741351766 0.6124616648637738 -3.644597147968624 0 0 0
74 15 3 0 -3.2496571841505397 1.1217705388714947 -3.6767166397057838 0 0 0
299 67 2 0 -2.6849009966338824 0.05238546648171024 -3.2843396140218433 0 0 0
387 96 4 0 -3.92722285669363 1.454588482692763 -2.9878631820692725 0 0 0
300 67 4 0 -2.3993376594096887 0.4353882745377884 -3.1805037857703775 0 0 0
79 16 3 0 -1.68017297300312 0.8459516216954666 -3.2662676980604037 0 0 0
378 93 4 0 -2.8495764893635274 1.2061845758466196 -3.611310312424902 0 0 0
430 110 4 0 -1.5516808238727076 1.2119023681313326 -3.300402527099999 0 0 1
411 104 4 0 -3.189423101215655 2.973228400637873 -3.786765192166967 0 0 1
377 93 2 0 -2.6949113681309425 1.5825757640927662 -3.424838217561216 0 0 0
428 110 2 0 -1.5129505695604824 1.6535724527899132 -3.4308239930548328 0 0 1
86 18 1 0 -1.9261014307906748 2.764883314925705 -3.466774840633674 0 0 0
89 18 3 0 -1.7189745358856265 3.1072944795847266 -3.7044006363150417 0 0 0
429 110 4 0 -1.4754761907628482 2.0693789435177483 -3.5496630798283615 0 0 1
90 18 3 0 -1.7407376647125994 2.3620612497043267 -3.577985242550478 0 0 0
88 18 3 0 -2.39848824356733 2.772725904544773 -3.5657941432366256 0 0 0
379 93 4 0 -2.538828580145237 1.9545068434122954 -3.246521790747511 0 0 0
412 104 4 0 -3.1353621589215206 2.3658718968354595 -4.429598644003228 0 0 1
410 104 2 0 -3.161740326600802 2.6580902350738826 -4.120296504132889 0 0 1
63 13 3 0 -0.8980490804958995 1.8464380319074918 -3.4251411453345435 0 0 0
442 114 4 0 -1.388077828384635 2.9436652181900933 -3.8684521570380657 0 0 1
595 165 4 0 -0.6152438357500019 2.000213623446347 -4.200489433532852 0 0 0
62 13 3 0 -0.4449738544985526 2.2227522800871196 -3.889109966753019 0 0 0
61 13 1 0 -0.4543555873431194 1.9843875938256237 -3.511730555796525 0 0 0
65 13 3 0 -0.3138429088601868 2.2410686541233873 -3.1777444014383005 0 0 0
440 114 2 0 -0.9712946675355689 2.9753998354475413 -4.030544953560589 0 0 1
441 114 4 0 -0.5554813108880676 3.0001062132028746 -4.195518610897042 0 0 1
427 109 4 0 -2.918671840435645 3.238656196943885 -3.715490624225732 0 0 1
425 109 2 0 -2.7814173606052868 3.6125160417724294 -3.905194347360392 0 0 1
426 109 4 0 -2.6490069055985357 3.9808693064280085 -4.081678927996805 0 0 1
261 54 4 0 -2.649026505924385 4.359467053917885 -3.98684413734043 0 -1 0
220 44 3 0 -4.368116758699091 2.1779484995484166 -3.9746495908473656 1 0 0
140 28 3 0 -0.2831429050556813 3.09270733308352 -3.9221620498948684 0 0 1
95 19 3 0 -0.34111584557808194 3.2304814225839062 -0.27845985020042063 0 0 0
386 96 2 0 -4.003957431675026 1.489882120306499 -2.5877266517011455 0 0 0
228 46 3 0 -4.199544594608283 1.3744851977283794 -1.7576094985781119 1 0 0
388 96 4 0 -4.0945785138904744 1.5064939728644642 -2.1375502026561293 0 0 0
78 16 3 0 -2.190111506034874 0.5133861787616303 -2.8715001726025475 0 0 0
76 16 1 0 -1.7814979030142346 0.7362621459190087 -2.8744688920022483 0 0 0
77 16 3 0 -1.8182795967435328 1.1062153870733489 -2.620586279251707 0 0 0
80 16 3 0 -1.4661971822617341 0.4743234747829472 -2.712841041960195 0 0 0
295 65 4 0 -1.0904025386754297 0.3955162334101156 -2.6194873618798735 0 0 0
607 169 4 0 -1.5239214116401585 1.1002072662272773 -2.334312341584563 1 0 0
605 169 2 0 -1.2396489126777273 1.3164132157879618 -2.063264878487352 1 0 0
293 65 2 0 -0.6582083679321343 0.4998750040987711 -2.708230339341412 0 0 0
294 65 4 0 -0.22031614728083376 0.6004561354164688 -2.792729316410657 0 0 0
393 98 4 0 -2.985855243343655 2.920589447638477 -2.562476226130932 0 0 0
87 18 3 0 -1.8717556690459702 2.827334393924731 -3.041687890425642 0 0 0
392 98 2 0 -2.89039878597609 2.554782092648856 -2.79565030063859 0 0 0
394 98 4 0 -2.7846744166434716 2.1683044738549344 -3.0430451901942677 0 0 0
606 169 4 0 -0.9491094746077858 1.542853571595426 -1.7768331538056914 1 0 0
420 107 4 0 -0.1663052290253078 2.0344458882893792 -2.8584129903237896 0 0 1
419 107 2 0 -0.29300187786723136 2.0996884807008036 -2.4164851477254454 0 0 1
421 107 4 0 -0.4146880945138514 2.1721939024405734 -1.9676294819304943 0 0 1
284 62 2 0 -3.9913360074589437 4.272583097146234 -2.7008719063981013 0 -1 0
597 166 4 0 -4.271167527285754 3.207460279465278 -1.890594775896919 1 0 0
286 62 4 0 -3.9474633982739253 3.8167083253981415 -2.766871187602137 0 -1 0
9 2 3 0 -3.6630082442927834 3.5530239769063034 -2.6123469050008254 0 -1 0
369 90 4 0 -3.659399458374079 4.0298397311070415 -1.7086451325366376 1 0 0
7 2 3 0 -3.4733750865536783 3.7193928999846215 -1.9125228107581786 0 -1 0
6 2 1 0 -3.5527236454504454 3.3823014998280208 -2.2089911950914023 0 -1 0
8 2 3 0 -3.900901827669243 3.1221253907243933 -2.053001926550012 0 -1 0
10 2 3 0 -3.178543609369317 3.1149091116698546 -2.242207344360925 0 -1 0
368 90 2 0 -3.8256681323487154 4.447217060818942 -1.6086413104701995 1 0 0
82 17 3 0 -1.924974616838972 3.182640909180633 -1.8970211085025466 0 0 0
83 17 3 0 -1.6602030008411457 3.84082753589198 -1.696478278838631 0 0 0
361 87 4 0 -1.703959370633172 4.191965643336515 -1.9222315071856855 0 0 0
598 166 4 0 -4.427089193980071 2.8546994874497846 -1.0817576087414131 1 0 0
613 171 4 0 -0.06525869615247329 0.8385850066044482 -2.5194558761082253 0 0 0
358 86 4 0 -0.18392059071788433 3.3053956411066445 -3.0410794150485327 0 0 0
356 86 2 0 -0.335736965565719 3.5165441401917206 -2.6692593804076177 0 0 0
384 95 4 0 -0.6336634886114925 3.7673938698026137 -1.9179432813077066 0 0 0
357 86 4 0 -0.4848084002171718 3.728924365628856 -2.2976093148320405 0 0 0
383 95 2 0 -0.7045842831804634 3.540259381259187 -1.491705775081576 0 0 0
226 46 1 0 -4.405078901975576 1.441253459442194 -1.3633116553404536 1 0 0
463 121 4 0 -4.394963177112476 0.7891106209694487 -0.9217515007237265 1 0 0
229 46 3 0 -4.234337907642749 1.1396503751638638 -1.0566571110242484 1 0 0
461 121 2 0 -4.450509182219938 0.47815925007695764 -0.6165175046597964 1 0 0
68 14 3 0 -1.071737010672264 1.652641155333361 -1.394117939961781 0 0 0
66 14 1 0 -1.1369254611083799 1.531028724763992 -0.9613609448918274 0 0 0
67 14 3 0 -1.4659704463175407 1.2198114404035358 -0.9362840316138833 0 0 0
596 166 2 0 -4.346122004271304 3.036089507572048 -1.499228402894447 1 0 0
227 46 3 0 -4.329921491935334 1.8636487202302041 -1.2230804076922528 1 0 0
367 89 4 0 -3.41823376747575 2.433076618718259 -0.34271479486391954 0 0 0
200 40 3 0 -3.6701416638838915 2.2533532403407306 -0.05410775254968548 1 0 0
219 44 3 0 -4.359947555452951 1.5964392806779177 -3.5845397237076875 1 0 0
352 84 4 0 -2.1081148975683033 2.503223761237565 -0.6205104950428951 0 0 0
366 89 4 0 -2.498201768012966 2.4376926759977087 -0.5299464072531954 0 0 0
350 84 2 0 -1.6786880860247297 2.5145389043610957 -0.5781982124835431 0 0 0
365 89 2 0 -2.950471850000497 2.4342790877706886 -0.43519222048583067 0 0 0
69 14 3 0 -1.2585697698616278 1.914086749839247 -0.71700372507733 0 0 0
70 14 3 0 -0.7517257191634626 1.3627105121307224 -0.7964123433474113 0 0 0
591 164 4 0 -0.16911038723861602 2.2655254450868747 -0.2434884187994184 0 0 0
351 84 4 0 -1.2345960869248864 2.5283777726342436 -0.5427854877905459 0 0 0
92 19 3 0 -0.25110806188906154 2.525010161567943 -0.5442466592492271 0 0 0
94 19 3 0 -0.9670756073292706 2.8123424223467723 -0.4777205228004375 0 0 0
91 19 1 0 -0.4992008018742866 2.9106705620227453 -0.5761662317025653 0 0 0
331 77 4 0 -4.274262455621225 4.372520431540179 -0.18014788705664603 0 -1 0
330 77 4 0 -3.393575739433665 4.24128860318432 -0.33193079631304534 0 -1 0
372 91 4 0 -3.1705899801059827 4.00915328661044 -0.6070244631303058 0 0 0
329 77 2 0 -3.836079835150658 4.306829901782942 -0.25220464197699116 0 -1 0
371 91 2 0 -2.8522596525575943 3.8605340711500244 -0.8464510905356698 0 0 0
81 17 1 0 -1.8853379412527587 3.466274512982397 -1.5621164638875893 0 0 0
84 17 3 0 -2.308332873573095 3.581830187913244 -1.3964627938062912 0 0 0
373 91 4 0 -2.5168622021765548 3.7110987748048383 -1.0906473145448423 0 0 0
85 17 3 0 -1.6445867512147456 3.2739621674123547 -1.2342145223319385 0 0 0
375 92 4 0 -0.01158469361785254 3.3963580316125914 -0.11425088332839521 0 0 0
385 95 4 0 -0.7585908167007691 3.332569733410874 -1.0862846430371316 0 0 0
93 19 3 0 -0.47840377731469974 3.069217068646384 -0.9950263576771365 0 0 0
64 13 3 0 -0.18905593816285612 1.6356349374428585 -3.5491204867540738 0 0 0
58 12 3 0 -3.0196818952709 0.24924446514074142 0.30087713672045235 0 0 0
56 12 1 0 -2.715118791597257 0.06443059222852035 0.5949123731329464 0 0 0
639 180 4 0 -4.464397290002221 4.304672351651776 2.436472727554594 1 0 0
59 12 3 0 -2.4130082709499456 0.3718899560547172 0.7131489209009882 0 0 0
389 97 2 0 -2.12124977450919 0.9694426512776452 0.39182457918494074 0 0 0
391 97 4 0 -2.2697061502563303 0.5172386964283701 0.36664305544033066 0 0 0
390 97 4 0 -1.979227613148235 1.3944249933482213 0.4150775095298048 0 0 0
382 94 4 0 -0.8121581992808803 1.950874955374936 3.542338867857551 0 0 -1
628 176 4 0 -4.286320963775025 1.7101073830303368 0.5181738151401895 1 0 0
199 40 3 0 -3.950782014310941 1.9366859598041024 0.5597357728407082 1 0 0
196 40 1 0 -3.9854641400473887 2.2979209489144448 0.2591957154458583 1 0 0
198 40 3 0 -3.922860778858618 2.6997824626576072 0.49668131404162896 1 0 0
125 25 3 0 -1.654084813786235 1.6213238365679208 0.3523624868367457 0 0 0
122 25 3 0 -1.125427770464579 1.6343761597501667 0.8397408087718539 0 0 0
123 25 3 0 -1.8277600095447013 1.7114477820211536 1.082877072644454 0 0 0
436 112 4 0 -1.383949211890909 2.644296189046923 0.7082239417379217 0 0 0
124 25 3 0 -1.4676054068765463 2.2507113944575745 0.6837456064819547 0 0 0
121 25 1 0 -1.5109978581285666 1.8071312902422145 0.7385760606761347 0 0 0
434 112 2 0 -1.2698748319941355 3.0149274984332264 0.4984110412513814 0 0 0
592 164 4 0 -0.14595043726441803 1.8108541454555591 0.5325885048573065 0 0 0
590 164 2 0 -0.15597061022056108 2.0380700975398387 0.14225476741105916 0 0 0
623 175 2 0 -4.486316617213103 4.344064562213232 1.3982394979793509 1 0 0
435 112 4 0 -1.1548108902767193 3.4239051261050975 0.26492226763855886 0 0 0
107 22 3 0 -0.9254772986642078 3.735873493801296 0.3262641527880808 0 0 0
106 22 1 0 -0.8903283811988082 4.171967023974361 0.3698713971435443 0 0 0
108 22 3 0 -1.0292264520211936 4.294803412318184 0.7726553104902418 0 0 0
110 22 3 0 -1.1462797346531555 4.365758544489951 0.07544983660028746 0 0 0
127 26 3 0 -3.7120688562066695 0.9890389412076316 2.2656449946206076 0 0 0
126 26 1 0 -3.5901643478728147 1.4000645443176134 2.070397563702044 0 0 0
400 100 4 0 -3.9448505889504695 0.6384742680047394 2.3793216674933864 0 0 0
129 26 3 0 -3.2602595312150155 1.3306463944267792 1.7713166060530725 0 0 0
398 100 2 0 -4.288805083315694 0.4082098907768688 2.626455332998125 0 0 0
403 101 4 0 -2.969499195120231 1.0873051671053002 1.6454629804719036 0 0 0
128 26 3 0 -3.437784920710606 1.683913485012377 2.3871021135178636 0 0 0
324 75 4 0 -1.8339594131625736 0.5204787567182924 1.5383181662485184 0 0 0
401 101 2 0 -2.5587993224838352 0.8966092303459965 1.5386822998339795 0 0 0
402 101 4 0 -2.168090605089004 0.7168427596679919 1.4377806434046148 0 0 0
323 75 2 0 -1.49720167670031 0.40161227142629585 1.805680263975423 0 0 0
325 75 4 0 -1.1450757968180663 0.27836700562784716 2.0712078668023657 0 0 0
593 165 2 0 -0.6235571718761616 1.957609536327154 4.350995991213054 0 0 -1
130 26 3 0 -3.9489435946696494 1.5826117756684948 1.8650056993150559 0 0 0
347 83 2 0 -2.7747614482671787 2.084274738088073 2.7182853968251646 0 0 0
349 83 4 0 -3.1463823832220577 1.9284372304312964 2.538732304019997 0 0 0
348 83 4 0 -2.3734606787930126 2.2488933465884395 2.8998077251425696 0 0 0
381 94 4 0 -0.3413978237730616 1.4899947784694154 2.9411646571968983 0 0 -1
380 94 2 0 -0.5842761418425569 1.7279019271956104 3.2488000882762615 0 0 -1
625 175 4 0 -4.143497952902255 4.26631867632025 1.6413552741032131 1 0 0
55 11 3 0 -3.481456499723361 4.297145260682113 2.425940687974765 0 -1 0
338 80 2 0 -2.0180137399053693 4.331945917023493 1.8512456027983526 0 -1 0
339 80 4 0 -2.322177198169656 4.043321425647111 1.6737686126019267 0 -1 0
594 165 4 0 -0.6338451801554834 1.9043033724907268 3.883640511618313 0 0 -1
460 120 4 0 -4.0577453511274655 1.481399902799308 3.7634368645665357 1 0 -1
458 120 2 0 -3.8420164092576616 1.27456228723245 4.126845694691613 1 0 -1
395 99 2 0 -2.228489127391286 0.11845869195150714 3.4820134402208303 0 0 0
397 99 4 0 -2.2633953988883215 0.499994936084541 3.2436695864359595 0 0 0
424 108 4 0 -2.346684047590263 0.8930222413586797 3.1411968095478566 0 0 0
422 108 2 0 -2.2632551403495156 1.2896638709400952 3.2731926898311303 0 0 0
404 102 2 0 -0.07339724925551427 0.27428428069053734 3.3769709529956504 0 0 0
417 106 4 0 -0.9666088937625229 0.8648321218495083 4.05025753917157 0 0 0
416 106 2 0 -1.1682292564318786 0.4629827435831074 4.073154981235295 0 0 0
105 21 3 0 -4.422887372359834 1.6161214579195613 3.8164185878550976 0 0 0
445 115 4 0 -2.9712588240413655 2.259094238525026 4.2254275205315714 0 0 0
443 115 2 0 -2.634363496984092 2.1426627556344804 3.9248895318927315 0 0 0
423 108 4 0 -2.160288744439515 1.7277717017472258 3.4067177023496176 0 0 0
444 115 4 0 -2.2970874673071213 2.019815154147118 3.6385103168896165 0 0 0
418 106 4 0 -1.3816273570068145 0.061434531384363236 4.097186045690631 0 0 0
459 120 4 0 -3.6345341522778982 1.0812614948365886 4.474547297115177 1 0 -1
109 22 3 0 -0.43873559593245653 4.315847471276104 0.2898032404508101 0 0 0
197 40 3 0 -4.41626071379187 2.298019581381985 0.056742234936387324 1 0 0
565 155 4 0 1.4126848942452084 -3.343444821200094 -3.7266794571935087 0 0 1
563 155 2 0 1.61104941353493 -3.5167874996056785 -4.074342387765022 0 0 1
472 124 4 0 1.5669643515666605 -3.2710222642441305 -3.338176599202664 0 0 0
564 155 4 0 1.7988246103463188 -3.682689633575255 -4.410258930492472 0 0 1
629 177 2 0 4.090436392097995 -3.5419117819838877 -3.8374391150297784 0 1 1
631 177 4 0 3.871500812944026 -3.844778345751398 -4.11581883720973 0 1 1
630 177 4 0 4.310429783511771 -3.2352718002719536 -3.5592872517675387 0 1 1
469 123 4 0 3.7183040991239382 -3.6907974279874702 -4.451540312417431 0 0 0
310 70 4 0 2.875492822610262 -1.8113314248210373 -4.261370266096823 -1 0 1
456 119 4 0 3.1009663613899923 -1.7245069673374167 -3.9571497581793693 0 0 0
223 45 3 0 4.2285352242432195 -2.8604961116862606 -3.656477630170371 0 1 0
455 119 2 0 3.510210735700347 -1.8588282893653023 -3.776707988011529 0 0 0
221 45 1 0 4.4171911519066205 -2.541062197009375 -3.3853011627802747 0 1 0
457 119 4 0 3.908384790027665 -2.0058983475180976 -3.603824597948446 0 0 0
224 45 3 0 4.1434045944249664 -2.2016590083492775 -3.3529023074294115 0 1 0
222 45 3 0 4.483874483646756 -2.7046148855462935 -3.0073262040226076 0 1 0
504 135 4 0 1.631122692965057 -0.4816174782617762 -3.0600432165832236 0 0 0
506 136 2 0 4.101859214036898 -0.1178865417378919 -4.020195913974223 0 0 1
508 136 4 0 4.34111284946972 -0.17800240847757595 -3.6421652335239796 0 0 1
501 134 4 0 0.17672897467186613 -4.209491857110594 -1.7721637103333585 0 0 0
172 35 3 0 0.5715082635293064 -4.073410099508629 -1.7099227724308907 0 0 0
175 35 3 0 0.32632052513015586 -3.4029458386238733 -1.4716920666460727 0 0 0
499 133 4 0 1.1756788218337564 -3.206986365611613 -1.6316689589171995 0 0 0