

8 atoms
6 bonds
0 angles
0 dihedrals
0 impropers

4 atom types
1 bond types
0 angle types
0 dihedral types
0 improper types

-5 5 xlo xhi
-5 5 ylo yhi
-5 5 zlo zhi

Masses

1 2.0
2 2.0
3 1.0
4 1.0

Bond Coeffs

1 *

Atoms

1 1 1 0.00 0.00 0.00
2 1 3 0.94 0 -0.33
3 1 3 -0.47 0.81 -0.33
4 1 3 -0.47 -0.81 -0.33
5 1 3 0.00 0.00 1.00
6 2 2 0.00 0.00 3.00
7 2 4 1.00 0.00 3.00
8 2 4 -1.00 0.00 3.00

Bonds

1 1 1 2
2 1 1 3
3 1 1 4
4 1 1 5
5 1 6 7
6 1 6 8