ITEM: TIMESTEP
50
ITEM: NUMBER OF ATOMS
23
ITEM: BOX BOUNDS pp pp pp
-5.0000000000000000e+00 5.0000000000000000e+00
-5.0000000000000000e+00 5.0000000000000000e+00
-5.0000000000000000e+00 5.0000000000000000e+00
ITEM: ATOMS id type xs ys zs
19 4 0.401148 0.501522 0.201405
17 2 0.501142 0.500045 0.201739
18 4 0.601133 0.498584 0.202072
4 3 0.453076 0.419646 0.46694
3 3 0.452659 0.581643 0.468314
2 3 0.593864 0.501009 0.467643
33 4 0.400079 0.201752 0.499608
31 2 0.500076 0.200673 0.499964
32 4 0.600069 0.199581 0.500318
47 4 0.0496623 0.499779 0.499982
45 2 0.149661 0.499987 0.500586
46 4 0.249664 0.5002 0.501189
1 1 0.499863 0.500493 0.500635
40 4 0.7497 0.499705 0.500931
38 2 0.849692 0.499309 0.500063
39 4 0.949693 0.49892 0.499204
26 4 0.399908 0.798382 0.499088
24 2 0.49988 0.800756 0.498775
25 4 0.599846 0.803141 0.498455
5 3 0.499848 0.499639 0.600631
12 4 0.400173 0.500212 0.800706
10 2 0.50016 0.499051 0.80038
11 4 0.600155 0.497895 0.800059
ITEM: TIMESTEP
100
ITEM: NUMBER OF ATOMS
23
ITEM: BOX BOUNDS pp pp pp
-5.0000000000000000e+00 5.0000000000000000e+00
-5.0000000000000000e+00 5.0000000000000000e+00
-5.0000000000000000e+00 5.0000000000000000e+00
ITEM: ATOMS id type xs ys zs
19 4 0.403674 0.500333 0.203678
17 2 0.503637 0.497892 0.205256
18 4 0.603589 0.495462 0.206852
4 3 0.454668 0.420157 0.465569
3 3 0.452611 0.582073 0.470285
2 3 0.59461 0.502829 0.470267
33 4 0.39636 0.204958 0.497992
31 2 0.496312 0.202062 0.499176
32 4 0.59626 0.199167 0.500365
47 4 0.0490093 0.499458 0.498067
45 2 0.148957 0.499746 0.501119
46 4 0.248914 0.500036 0.504173
1 1 0.500096 0.500718 0.501687
40 4 0.749995 0.500546 0.503004
38 2 0.849951 0.49916 0.500342
39 4 0.949913 0.497762 0.497679
26 4 0.40002 0.795148 0.496242
24 2 0.499797 0.801732 0.495569
25 4 0.59958 0.808325 0.494898
5 3 0.498483 0.497781 0.601637
12 4 0.401234 0.500521 0.800403
10 2 0.501156 0.496799 0.800784
11 4 0.601095 0.493091 0.801158
ITEM: TIMESTEP
150
ITEM: NUMBER OF ATOMS
23
ITEM: BOX BOUNDS pp pp pp
-5.0000000000000000e+00 5.0000000000000000e+00
-5.0000000000000000e+00 5.0000000000000000e+00
-5.0000000000000000e+00 5.0000000000000000e+00
ITEM: ATOMS id type xs ys zs
19 4 0.405613 0.497668 0.206424
17 2 0.505477 0.49518 0.211008
18 4 0.605341 0.492683 0.215586
4 3 0.457912 0.419365 0.463449
3 3 0.452218 0.581044 0.471875
2 3 0.595883 0.504885 0.472892
33 4 0.389538 0.206106 0.495354
31 2 0.489497 0.203949 0.497301
32 4 0.589461 0.201799 0.499249
47 4 0.048116 0.496687 0.495642
45 2 0.147701 0.499817 0.504166
46 4 0.247288 0.502955 0.512692
1 1 0.500837 0.500006 0.502331
40 4 0.750936 0.50329 0.501598
38 2 0.850813 0.49892 0.49941
39 4 0.9507 0.494552 0.497234
26 4 0.400384 0.791616 0.49121
24 2 0.499667 0.803609 0.491736
25 4 0.598936 0.815594 0.492271
5 3 0.497316 0.494687 0.602128
12 4 0.402029 0.504153 0.800511
10 2 0.501698 0.49628 0.802472
11 4 0.601365 0.488401 0.804429
ITEM: TIMESTEP
200
ITEM: NUMBER OF ATOMS
23
ITEM: BOX BOUNDS pp pp pp
-5.0000000000000000e+00 5.0000000000000000e+00
-5.0000000000000000e+00 5.0000000000000000e+00
-5.0000000000000000e+00 5.0000000000000000e+00
ITEM: ATOMS id type xs ys zs
19 4 0.406266 0.492857 0.209752
17 2 0.505883 0.492196 0.218397
18 4 0.605505 0.491546 0.22704
4 3 0.463946 0.417327 0.459735
3 3 0.452283 0.578489 0.471297
2 3 0.598232 0.507131 0.478349
33 4 0.383311 0.20366 0.49028
31 2 0.48323 0.205503 0.493853
32 4 0.583151 0.207343 0.497423
47 4 0.047487 0.496081 0.492887
45 2 0.1462 0.50178 0.507807
46 4 0.244915 0.507477 0.522729
1 1 0.501991 0.498424 0.50257
40 4 0.750916 0.510033 0.498611
38 2 0.850394 0.499938 0.497712
39 4 0.949884 0.48985 0.496814
26 4 0.401668 0.786381 0.487812
24 2 0.499999 0.804548 0.487653
25 4 0.598339 0.822719 0.487489
5 3 0.493401 0.49067 0.601905
12 4 0.402919 0.510375 0.802983
10 2 0.502124 0.498042 0.805356
11 4 0.601329 0.485715 0.807725
ITEM: TIMESTEP
250
ITEM: NUMBER OF ATOMS
23
ITEM: BOX BOUNDS pp pp pp
-5.0000000000000000e+00 5.0000000000000000e+00
-5.0000000000000000e+00 5.0000000000000000e+00
-5.0000000000000000e+00 5.0000000000000000e+00
ITEM: ATOMS id type xs ys zs
19 4 0.405482 0.485864 0.214045
17 2 0.504724 0.488665 0.225982
18 4 0.603969 0.491465 0.237915
4 3 0.470199 0.415829 0.456743
3 3 0.454395 0.576432 0.470925
2 3 0.601003 0.507782 0.48632
33 4 0.37689 0.202466 0.484636
31 2 0.476501 0.206811 0.49229
32 4 0.57611 0.211161 0.499953
47 4 0.0469584 0.496762 0.489965
45 2 0.144686 0.50354 0.510022
46 4 0.242423 0.510312 0.530079
1 1 0.503552 0.496665 0.503779
40 4 0.7503 0.518435 0.495243
38 2 0.848917 0.501881 0.495212
39 4 0.947536 0.485335 0.495193
26 4 0.403951 0.782106 0.483394
24 2 0.500746 0.807219 0.48377
25 4 0.597538 0.83233 0.484147
5 3 0.488469 0.486499 0.602113
12 4 0.405227 0.517736 0.806234
10 2 0.50376 0.500915 0.809059
11 4 0.602291 0.484091 0.811886
ITEM: TIMESTEP
300
ITEM: NUMBER OF ATOMS
23
ITEM: BOX BOUNDS pp pp pp
-5.0000000000000000e+00 5.0000000000000000e+00
-5.0000000000000000e+00 5.0000000000000000e+00
-5.0000000000000000e+00 5.0000000000000000e+00
ITEM: ATOMS id type xs ys zs
19 4 0.404124 0.474638 0.219482
17 2 0.502505 0.484476 0.234435
18 4 0.600886 0.494317 0.24938
4 3 0.473437 0.415711 0.455719
3 3 0.457217 0.576136 0.471373
2 3 0.602308 0.506683 0.495195
33 4 0.370353 0.205227 0.475448
31 2 0.469211 0.207871 0.490326
32 4 0.56806 0.210524 0.505201
47 4 0.047581 0.497597 0.486053
45 2 0.144434 0.504054 0.510098
46 4 0.241279 0.510513 0.534154
1 1 0.503893 0.49567 0.506093
40 4 0.749732 0.526156 0.492593
38 2 0.847297 0.504197 0.492634
39 4 0.944851 0.482236 0.49268
26 4 0.407145 0.776368 0.479522
24 2 0.501481 0.809509 0.481242
25 4 0.595819 0.842639 0.482963
5 3 0.482394 0.484035 0.603065
12 4 0.407188 0.525369 0.809171
10 2 0.504856 0.504262 0.813066
11 4 0.602526 0.48316 0.816968
ITEM: TIMESTEP
350
ITEM: NUMBER OF ATOMS
23
ITEM: BOX BOUNDS pp pp pp
-5.0000000000000000e+00 5.0000000000000000e+00
-5.0000000000000000e+00 5.0000000000000000e+00
-5.0000000000000000e+00 5.0000000000000000e+00
ITEM: ATOMS id type xs ys zs
19 4 0.403194 0.462747 0.223405
17 2 0.499973 0.479567 0.242098
18 4 0.596758 0.49639 0.260806
4 3 0.475757 0.417675 0.453597
3 3 0.461271 0.577898 0.472619
2 3 0.602725 0.504878 0.505731
33 4 0.365587 0.207007 0.463904
31 2 0.462337 0.208716 0.48915
32 4 0.559091 0.210417 0.514393
47 4 0.0497664 0.500408 0.47858
45 2 0.145126 0.506287 0.508089
46 4 0.240501 0.512176 0.537585
1 1 0.503583 0.495568 0.508532
40 4 0.748837 0.533687 0.492035
38 2 0.845056 0.506512 0.490171
39 4 0.94127 0.479333 0.488311
26 4 0.409754 0.772744 0.478866
24 2 0.501394 0.812766 0.478842
25 4 0.593039 0.852782 0.478828
5 3 0.474273 0.481681 0.603127
12 4 0.408011 0.529999 0.810551
10 2 0.505165 0.507053 0.816297
11 4 0.602327 0.484108 0.822044
ITEM: TIMESTEP
400
ITEM: NUMBER OF ATOMS
23
ITEM: BOX BOUNDS pp pp pp
-5.0000000000000000e+00 5.0000000000000000e+00
-5.0000000000000000e+00 5.0000000000000000e+00
-5.0000000000000000e+00 5.0000000000000000e+00
ITEM: ATOMS id type xs ys zs
19 4 0.401562 0.451781 0.226094
17 2 0.496228 0.474043 0.249352
18 4 0.590905 0.496319 0.272617
4 3 0.47745 0.419587 0.452813
3 3 0.462967 0.579327 0.475553
2 3 0.601788 0.504203 0.514639
33 4 0.363291 0.21018 0.452263
31 2 0.456608 0.209818 0.488196
32 4 0.549928 0.209459 0.524141
47 4 0.0523993 0.502903 0.468537
45 2 0.145367 0.50882 0.504911
46 4 0.238333 0.514743 0.541278
1 1 0.502575 0.49566 0.51147
40 4 0.747798 0.54068 0.491798
38 2 0.842792 0.509807 0.487058
39 4 0.937781 0.478928 0.482315
26 4 0.412025 0.769896 0.481982
24 2 0.500433 0.816371 0.477164
25 4 0.588848 0.862852 0.472342
5 3 0.467765 0.479365 0.603785
12 4 0.408747 0.532397 0.810234
10 2 0.505355 0.50794 0.818535
11 4 0.601964 0.483495 0.826851
ITEM: TIMESTEP
450
ITEM: NUMBER OF ATOMS
23
ITEM: BOX BOUNDS pp pp pp
-5.0000000000000000e+00 5.0000000000000000e+00
-5.0000000000000000e+00 5.0000000000000000e+00
-5.0000000000000000e+00 5.0000000000000000e+00
ITEM: ATOMS id type xs ys zs
19 4 0.399514 0.44142 0.230181
17 2 0.491974 0.468837 0.256622
18 4 0.58443 0.496262 0.283064
4 3 0.478546 0.421629 0.452209
3 3 0.463547 0.580562 0.479786
2 3 0.600269 0.503502 0.522367
33 4 0.363144 0.216301 0.43933
31 2 0.451103 0.209864 0.48646
32 4 0.53906 0.203432 0.533596
47 4 0.0556971 0.505929 0.458045
45 2 0.145663 0.511202 0.50139
46 4 0.235621 0.516481 0.544745
1 1 0.501278 0.495527 0.514508
40 4 0.747874 0.546341 0.49384
38 2 0.841326 0.512311 0.483466
39 4 0.934789 0.478272 0.473084
26 4 0.412683 0.767873 0.489639
24 2 0.497467 0.819524 0.477603
25 4 0.582245 0.871178 0.465582
5 3 0.462344 0.476222 0.604571
12 4 0.409426 0.533343 0.807921
10 2 0.505248 0.507069 0.819228
11 4 0.601078 0.480799 0.830532
ITEM: TIMESTEP
500
ITEM: NUMBER OF ATOMS
23
ITEM: BOX BOUNDS pp pp pp
-5.0000000000000000e+00 5.0000000000000000e+00
-5.0000000000000000e+00 5.0000000000000000e+00
-5.0000000000000000e+00 5.0000000000000000e+00
ITEM: ATOMS id type xs ys zs
19 4 0.398178 0.431567 0.233335
17 2 0.487635 0.46392 0.264165
18 4 0.57709 0.496265 0.294999
4 3 0.479523 0.423384 0.454096
3 3 0.461067 0.581365 0.484811
2 3 0.598325 0.505871 0.528427
33 4 0.365381 0.222363 0.427567
31 2 0.446232 0.20953 0.48499
32 4 0.527094 0.196693 0.542419
47 4 0.0592137 0.507584 0.449565
45 2 0.145939 0.512166 0.499141
46 4 0.232666 0.516752 0.548715
1 1 0.499662 0.496286 0.518426
40 4 0.746983 0.551747 0.497565
38 2 0.838047 0.514222 0.480252
39 4 0.929111 0.476693 0.462924
26 4 0.414969 0.764311 0.49785
24 2 0.494251 0.82217 0.47868
25 4 0.573531 0.880022 0.459521
5 3 0.459341 0.474307 0.607259
12 4 0.409753 0.534773 0.806303
10 2 0.504884 0.50652 0.8186
11 4 0.600011 0.478271 0.830897
ITEM: TIMESTEP
550
ITEM: NUMBER OF ATOMS
23
ITEM: BOX BOUNDS pp pp pp
-5.0000000000000000e+00 5.0000000000000000e+00
-5.0000000000000000e+00 5.0000000000000000e+00
-5.0000000000000000e+00 5.0000000000000000e+00
ITEM: ATOMS id type xs ys zs
19 4 0.397116 0.421642 0.236828
17 2 0.483065 0.458555 0.272183
18 4 0.569013 0.495472 0.307542
4 3 0.479056 0.423808 0.458806
3 3 0.458208 0.581214 0.490929
2 3 0.596109 0.50714 0.534938
33 4 0.369706 0.225796 0.416337
31 2 0.4419 0.208189 0.483247
32 4 0.514107 0.190584 0.550161
47 4 0.0634401 0.509869 0.444877
45 2 0.146928 0.513615 0.499782
46 4 0.23043 0.517355 0.554687
1 1 0.497676 0.496326 0.52402
40 4 0.747488 0.556151 0.501888
38 2 0.834904 0.514061 0.477668
39 4 0.922326 0.471989 0.453428
26 4 0.419131 0.760776 0.506417
24 2 0.490535 0.825123 0.478807
25 4 0.56194 0.889459 0.451213
5 3 0.456939 0.472915 0.612298
12 4 0.410962 0.537666 0.802012
10 2 0.504549 0.505461 0.81632
11 4 0.598135 0.473266 0.830631
ITEM: TIMESTEP
600
ITEM: NUMBER OF ATOMS
23
ITEM: BOX BOUNDS pp pp pp
-5.0000000000000000e+00 5.0000000000000000e+00
-5.0000000000000000e+00 5.0000000000000000e+00
-5.0000000000000000e+00 5.0000000000000000e+00
ITEM: ATOMS id type xs ys zs
19 4 0.397632 0.411223 0.239468
17 2 0.479372 0.452934 0.279217
18 4 0.561094 0.494652 0.318974
4 3 0.474873 0.423708 0.46482
3 3 0.454955 0.581163 0.497327
2 3 0.592759 0.506369 0.540412
33 4 0.374182 0.22651 0.406346
31 2 0.436994 0.207053 0.481685
32 4 0.499793 0.187596 0.557032
47 4 0.0682763 0.509781 0.442797
45 2 0.14907 0.514769 0.501516
46 4 0.229869 0.519764 0.560223
1 1 0.494218 0.496034 0.530046
40 4 0.748007 0.562321 0.503821
38 2 0.830435 0.513303 0.475507
39 4 0.912872 0.464282 0.447184
26 4 0.423124 0.759118 0.513996
24 2 0.485156 0.829283 0.478953
25 4 0.547196 0.899452 0.443906
5 3 0.45387 0.47267 0.618516
12 4 0.412398 0.540442 0.799094
10 2 0.50427 0.504037 0.814376
11 4 0.596144 0.467619 0.829661
ITEM: TIMESTEP
650
ITEM: NUMBER OF ATOMS
23
ITEM: BOX BOUNDS pp pp pp
-5.0000000000000000e+00 5.0000000000000000e+00
-5.0000000000000000e+00 5.0000000000000000e+00
-5.0000000000000000e+00 5.0000000000000000e+00
ITEM: ATOMS id type xs ys zs
19 4 0.399799 0.39994 0.243684
17 2 0.476393 0.446561 0.287951
18 4 0.552989 0.493179 0.332217
4 3 0.467947 0.423654 0.469765
3 3 0.450895 0.581354 0.502643
2 3 0.587899 0.504292 0.544277
33 4 0.37865 0.229453 0.396825
31 2 0.431798 0.207473 0.47863
32 4 0.484941 0.185496 0.560442
47 4 0.0725875 0.504562 0.442088
45 2 0.151287 0.513809 0.503091
46 4 0.229988 0.523055 0.564082
1 1 0.4891 0.495566 0.534885
40 4 0.746415 0.569838 0.504813
38 2 0.823461 0.514249 0.473615
39 4 0.900517 0.458664 0.442423
26 4 0.426609 0.759357 0.521492
24 2 0.480123 0.832986 0.480084
25 4 0.53363 0.906622 0.438683
5 3 0.449258 0.472743 0.623723
12 4 0.413706 0.544717 0.797227
10 2 0.503163 0.50276 0.812673
11 4 0.592613 0.460804 0.828121
ITEM: TIMESTEP
700
ITEM: NUMBER OF ATOMS
23
ITEM: BOX BOUNDS pp pp pp
-5.0000000000000000e+00 5.0000000000000000e+00
-5.0000000000000000e+00 5.0000000000000000e+00
-5.0000000000000000e+00 5.0000000000000000e+00
ITEM: ATOMS id type xs ys zs
19 4 0.401338 0.391865 0.24735
17 2 0.47352 0.440681 0.296415
18 4 0.545686 0.489504 0.345472
4 3 0.460443 0.423812 0.473749
3 3 0.445601 0.581745 0.506645
2 3 0.58226 0.503184 0.546579
33 4 0.381981 0.230466 0.387219
31 2 0.425291 0.208508 0.474645
32 4 0.468603 0.186557 0.562055
47 4 0.0769836 0.497671 0.440015
45 2 0.15269 0.51112 0.503941
46 4 0.228389 0.524571 0.567875
1 1 0.483256 0.495562 0.538483
40 4 0.745773 0.579516 0.503997
38 2 0.815924 0.516456 0.470783
39 4 0.886072 0.453411 0.437565
26 4 0.429748 0.76054 0.52954
24 2 0.475372 0.835686 0.481871
25 4 0.520999 0.910817 0.434199
5 3 0.444336 0.473285 0.627872
12 4 0.414131 0.54866 0.795644
10 2 0.501003 0.501806 0.811691
11 4 0.587888 0.454957 0.827734
ITEM: TIMESTEP
750
ITEM: NUMBER OF ATOMS
23
ITEM: BOX BOUNDS pp pp pp
-5.0000000000000000e+00 5.0000000000000000e+00
-5.0000000000000000e+00 5.0000000000000000e+00
-5.0000000000000000e+00 5.0000000000000000e+00
ITEM: ATOMS id type xs ys zs
19 4 0.4027 0.38392 0.252392
17 2 0.470187 0.436083 0.304578
18 4 0.537675 0.488254 0.356773
4 3 0.453101 0.423175 0.478156
3 3 0.439211 0.581235 0.510827
2 3 0.57711 0.502921 0.546742
33 4 0.385897 0.233753 0.379803
31 2 0.418472 0.210866 0.471547
32 4 0.451037 0.187988 0.563281
47 4 0.0799832 0.488404 0.439029
45 2 0.152692 0.507024 0.505117
46 4 0.225393 0.525639 0.571198
1 1 0.477907 0.495217 0.541831
40 4 0.746967 0.589413 0.501665
38 2 0.808438 0.518315 0.467512
39 4 0.869904 0.447213 0.433356
26 4 0.433547 0.762901 0.537583
24 2 0.471977 0.837696 0.483453
25 4 0.510407 0.91249 0.429327
5 3 0.441858 0.473299 0.632498
12 4 0.414183 0.553414 0.795096
10 2 0.497869 0.501213 0.811601
11 4 0.581554 0.449021 0.828095
ITEM: TIMESTEP
800
ITEM: NUMBER OF ATOMS
23
ITEM: BOX BOUNDS pp pp pp
-5.0000000000000000e+00 5.0000000000000000e+00
-5.0000000000000000e+00 5.0000000000000000e+00
-5.0000000000000000e+00 5.0000000000000000e+00
ITEM: ATOMS id type xs ys zs
19 4 0.403414 0.376415 0.25685
17 2 0.46636 0.431365 0.311789
18 4 0.52931 0.48631 0.366737
4 3 0.446113 0.421455 0.482593
3 3 0.431489 0.579938 0.512826
2 3 0.570723 0.503388 0.547417
33 4 0.388974 0.236888 0.375329
31 2 0.412074 0.211698 0.4693
32 4 0.43519 0.186509 0.563273
47 4 0.0839468 0.474097 0.441335
45 2 0.152414 0.503356 0.508091
46 4 0.220885 0.532618 0.574834
1 1 0.471507 0.494791 0.544543
40 4 0.752066 0.599405 0.49951
38 2 0.801468 0.520577 0.462834
39 4 0.85087 0.441744 0.426155
26 4 0.438704 0.765014 0.54494
24 2 0.467947 0.839505 0.48498
25 4 0.497192 0.913995 0.425024
5 3 0.437374 0.474148 0.636234
12 4 0.414805 0.555606 0.796188
10 2 0.495739 0.499285 0.812869
11 4 0.576673 0.442969 0.829549
ITEM: TIMESTEP
850
ITEM: NUMBER OF ATOMS
23
ITEM: BOX BOUNDS pp pp pp
-5.0000000000000000e+00 5.0000000000000000e+00
-5.0000000000000000e+00 5.0000000000000000e+00
-5.0000000000000000e+00 5.0000000000000000e+00
ITEM: ATOMS id type xs ys zs
19 4 0.403212 0.370358 0.258258
17 2 0.46142 0.427541 0.316058
18 4 0.519637 0.484731 0.373853
4 3 0.439419 0.420187 0.485783
3 3 0.422239 0.578376 0.516188
2 3 0.56331 0.50444 0.548995
33 4 0.395967 0.24119 0.372511
31 2 0.408727 0.210543 0.466845
32 4 0.421489 0.17989 0.561168
47 4 0.089803 0.460144 0.443583
45 2 0.151645 0.500595 0.510956
46 4 0.213483 0.541044 0.578338
1 1 0.464248 0.493988 0.547396
40 4 0.760072 0.608894 0.497774
38 2 0.794822 0.523878 0.458212
39 4 0.829566 0.438861 0.418665
26 4 0.444571 0.767462 0.551445
24 2 0.464282 0.840901 0.48651
25 4 0.484005 0.914352 0.421574
5 3 0.431682 0.47275 0.639523
12 4 0.414111 0.556871 0.794762
10 2 0.493339 0.498926 0.813907
11 4 0.572564 0.440977 0.833051
ITEM: TIMESTEP
900
ITEM: NUMBER OF ATOMS
23
ITEM: BOX BOUNDS pp pp pp
-5.0000000000000000e+00 5.0000000000000000e+00
-5.0000000000000000e+00 5.0000000000000000e+00
-5.0000000000000000e+00 5.0000000000000000e+00
ITEM: ATOMS id type xs ys zs
19 4 0.404224 0.362688 0.259826
17 2 0.457085 0.423104 0.319451
18 4 0.509942 0.483521 0.379077
4 3 0.433525 0.419454 0.488033
3 3 0.412606 0.576741 0.520656
2 3 0.556194 0.506333 0.550069
33 4 0.407414 0.245606 0.372771
31 2 0.407685 0.208781 0.465749
32 4 0.407953 0.171949 0.558722
47 4 0.0974596 0.447479 0.447439
45 2 0.151392 0.498697 0.514278
46 4 0.205332 0.549915 0.581126
1 1 0.457444 0.493187 0.550094
40 4 0.771703 0.616848 0.495939
38 2 0.789125 0.527755 0.454006
39 4 0.806553 0.438658 0.412064
26 4 0.454475 0.770388 0.555634
24 2 0.462136 0.842088 0.48635
25 4 0.469789 0.913788 0.41706
5 3 0.427139 0.469978 0.642517
12 4 0.41286 0.556105 0.790948
10 2 0.491189 0.498071 0.81321
11 4 0.569533 0.440039 0.835474
ITEM: TIMESTEP
950
ITEM: NUMBER OF ATOMS
23
ITEM: BOX BOUNDS pp pp pp
-5.0000000000000000e+00 5.0000000000000000e+00
-5.0000000000000000e+00 5.0000000000000000e+00
-5.0000000000000000e+00 5.0000000000000000e+00
ITEM: ATOMS id type xs ys zs
19 4 0.407407 0.354771 0.260117
17 2 0.454187 0.417998 0.321863
18 4 0.500979 0.481229 0.383619
4 3 0.429637 0.420522 0.488453
3 3 0.402658 0.575926 0.525389
2 3 0.549102 0.510544 0.552215
33 4 0.418693 0.245258 0.374227
31 2 0.405841 0.205421 0.465051
32 4 0.392987 0.165589 0.555874
47 4 0.103688 0.436812 0.453236
45 2 0.150204 0.49673 0.5184
46 4 0.19672 0.556643 0.583563
1 1 0.450955 0.493467 0.55235
40 4 0.787386 0.622093 0.494241
38 2 0.784153 0.53191 0.451153
39 4 0.780925 0.441726 0.408054
26 4 0.46724 0.77458 0.55688
24 2 0.46194 0.843207 0.484329
25 4 0.45664 0.911835 0.411791
5 3 0.422131 0.466617 0.644272
12 4 0.410444 0.554813 0.783669
10 2 0.488201 0.498073 0.810768
11 4 0.565962 0.441322 0.837867
ITEM: TIMESTEP
1000
ITEM: NUMBER OF ATOMS
23
ITEM: BOX BOUNDS pp pp pp
-5.0000000000000000e+00 5.0000000000000000e+00
-5.0000000000000000e+00 5.0000000000000000e+00
-5.0000000000000000e+00 5.0000000000000000e+00
ITEM: ATOMS id type xs ys zs
19 4 0.414922 0.348024 0.257499
17 2 0.4525 0.413584 0.322997
18 4 0.490065 0.479142 0.38849
4 3 0.42484 0.42092 0.48719
3 3 0.39053 0.573393 0.529859
2 3 0.540175 0.514368 0.553601
33 4 0.429865 0.242995 0.378068
31 2 0.405112 0.201147 0.46545
32 4 0.38035 0.159289 0.552835
47 4 0.111289 0.426798 0.461849
45 2 0.149916 0.495475 0.523426
46 4 0.188534 0.564146 0.585011
1 1 0.442984 0.492491 0.553585
40 4 0.802195 0.621283 0.494217
38 2 0.779979 0.534727 0.449328
39 4 0.757753 0.448179 0.404446
26 4 0.480782 0.780481 0.556189
24 2 0.463268 0.845217 0.48201
25 4 0.445756 0.909957 0.407829
5 3 0.416115 0.460972 0.644605
12 4 0.406451 0.551403 0.775938
10 2 0.485204 0.498759 0.807971
11 4 0.56396 0.446109 0.840005
ITEM: TIMESTEP
1050
ITEM: NUMBER OF ATOMS
23
ITEM: BOX BOUNDS pp pp pp
-5.0000000000000000e+00 5.0000000000000000e+00
-5.0000000000000000e+00 5.0000000000000000e+00
-5.0000000000000000e+00 5.0000000000000000e+00
ITEM: ATOMS id type xs ys zs
19 4 0.423046 0.341135 0.254691
33 4 0.440496 0.24034 0.385499
17 2 0.450516 0.409622 0.322175
18 4 0.477999 0.478121 0.389659
31 2 0.405941 0.195086 0.467707
47 4 0.121159 0.417417 0.472182
4 3 0.420417 0.420407 0.486109
39 4 0.737008 0.45662 0.402341
38 2 0.775766 0.537173 0.447157
40 4 0.814539 0.617734 0.491973
24 2 0.464523 0.84821 0.480097
25 4 0.435447 0.908363 0.405706
32 4 0.371377 0.149829 0.549913
45 2 0.150548 0.494778 0.528319
1 1 0.434787 0.490697 0.554742
46 4 0.179942 0.57214 0.584461
3 3 0.377975 0.569344 0.533631
2 3 0.530654 0.517806 0.555423
26 4 0.493602 0.78804 0.554499
5 3 0.409845 0.454891 0.644718
12 4 0.40342 0.548767 0.770067
10 2 0.483199 0.500442 0.806122
11 4 0.562979 0.452113 0.842179
ITEM: TIMESTEP
1100
ITEM: NUMBER OF ATOMS
23
ITEM: BOX BOUNDS pp pp pp
-5.0000000000000000e+00 5.0000000000000000e+00
-5.0000000000000000e+00 5.0000000000000000e+00
-5.0000000000000000e+00 5.0000000000000000e+00
ITEM: ATOMS id type xs ys zs
19 4 0.432533 0.333757 0.252266
33 4 0.452908 0.236309 0.39362
17 2 0.448969 0.404062 0.321452
18 4 0.465399 0.474376 0.390648
31 2 0.407434 0.188951 0.46905
47 4 0.133219 0.409058 0.483867
4 3 0.4154 0.420212 0.485686
39 4 0.716829 0.466683 0.403118
38 2 0.770799 0.539576 0.44523
40 4 0.824769 0.612472 0.487354
24 2 0.465041 0.852257 0.479627
25 4 0.424887 0.906876 0.406107
32 4 0.361958 0.141585 0.544478
45 2 0.153193 0.494199 0.532364
1 1 0.425999 0.489052 0.556456
46 4 0.173167 0.579347 0.580855
3 3 0.364226 0.564639 0.538278
2 3 0.520001 0.522044 0.557343
26 4 0.5052 0.797642 0.553141
5 3 0.404129 0.448918 0.6454
12 4 0.400093 0.545339 0.763228
10 2 0.479946 0.501858 0.804849
11 4 0.559804 0.458376 0.846475
ITEM: TIMESTEP
1150
ITEM: NUMBER OF ATOMS
23
ITEM: BOX BOUNDS pp pp pp
-5.0000000000000000e+00 5.0000000000000000e+00
-5.0000000000000000e+00 5.0000000000000000e+00
-5.0000000000000000e+00 5.0000000000000000e+00
ITEM: ATOMS id type xs ys zs
19 4 0.445295 0.325686 0.251394
33 4 0.464104 0.232015 0.401831
17 2 0.448989 0.397934 0.320427
18 4 0.452686 0.470187 0.389464
31 2 0.408482 0.183276 0.469154
47 4 0.144157 0.403009 0.496779
4 3 0.410734 0.418812 0.485679
39 4 0.697597 0.48096 0.405256
38 2 0.766254 0.542338 0.444235
40 4 0.834906 0.603712 0.483212
24 2 0.465638 0.857355 0.47869
25 4 0.414852 0.90638 0.407857
32 4 0.352868 0.134538 0.536471
45 2 0.15585 0.494588 0.535198
1 1 0.417566 0.485784 0.55867
46 4 0.167542 0.586164 0.573628
3 3 0.35063 0.55759 0.543746
2 3 0.509141 0.524998 0.559723
26 4 0.516429 0.80832 0.549521
5 3 0.399569 0.44129 0.646397
12 4 0.400963 0.54498 0.754963
10 2 0.478661 0.504911 0.803519
11 4 0.556363 0.464836 0.852067
ITEM: TIMESTEP
1200
ITEM: NUMBER OF ATOMS
23
ITEM: BOX BOUNDS pp pp pp
-5.0000000000000000e+00 5.0000000000000000e+00
-5.0000000000000000e+00 5.0000000000000000e+00
-5.0000000000000000e+00 5.0000000000000000e+00
ITEM: ATOMS id type xs ys zs
19 4 0.456499 0.319217 0.249904
33 4 0.473519 0.228683 0.410479
17 2 0.447642 0.391774 0.318143
18 4 0.438798 0.464318 0.386387
31 2 0.40983 0.178199 0.468747
47 4 0.155636 0.398475 0.510847
4 3 0.408378 0.416691 0.485755
39 4 0.678716 0.499499 0.411384
38 2 0.761313 0.544953 0.444756
40 4 0.843892 0.590407 0.478116
24 2 0.46692 0.863809 0.477963
25 4 0.40554 0.904516 0.410321
32 4 0.346145 0.127727 0.527015
45 2 0.157858 0.494988 0.536917
1 1 0.410335 0.48021 0.56205
46 4 0.16008 0.591503 0.56299
3 3 0.337537 0.546859 0.551201
2 3 0.498344 0.526811 0.564629
26 4 0.528296 0.823105 0.545598
5 3 0.396944 0.429965 0.647466
12 4 0.402017 0.544516 0.747583
10 2 0.477198 0.508868 0.803055
11 4 0.552387 0.47322 0.858527
ITEM: TIMESTEP
1250
ITEM: NUMBER OF ATOMS
23
ITEM: BOX BOUNDS pp pp pp
-5.0000000000000000e+00 5.0000000000000000e+00
-5.0000000000000000e+00 5.0000000000000000e+00
-5.0000000000000000e+00 5.0000000000000000e+00
ITEM: ATOMS id type xs ys zs
19 4 0.46681 0.312135 0.249967
33 4 0.482486 0.225287 0.422848
17 2 0.446107 0.385263 0.314952
18 4 0.425402 0.458384 0.379946
31 2 0.411402 0.172275 0.469089
47 4 0.163794 0.396176 0.527891
4 3 0.403951 0.416074 0.485547
39 4 0.664003 0.522367 0.418625
38 2 0.756612 0.547859 0.446428
40 4 0.849231 0.573339 0.474233
24 2 0.468169 0.871078 0.47493
25 4 0.397858 0.901563 0.410682
32 4 0.340319 0.11927 0.515315
45 2 0.158486 0.495464 0.53859
1 1 0.402705 0.474985 0.565466
46 4 0.153169 0.594745 0.549276
3 3 0.324254 0.535633 0.560374
2 3 0.486496 0.528782 0.568784
26 4 0.53848 0.840594 0.539171
5 3 0.396063 0.418903 0.64799
12 4 0.403172 0.54267 0.740535
10 2 0.475552 0.512952 0.802814
11 4 0.547925 0.483223 0.865095
ITEM: TIMESTEP
1300
ITEM: NUMBER OF ATOMS
23
ITEM: BOX BOUNDS pp pp pp
-5.0000000000000000e+00 5.0000000000000000e+00
-5.0000000000000000e+00 5.0000000000000000e+00
-5.0000000000000000e+00 5.0000000000000000e+00
ITEM: ATOMS id type xs ys zs
19 4 0.476033 0.306771 0.251491
33 4 0.492198 0.22067 0.437293
17 2 0.444491 0.380214 0.311573
18 4 0.412952 0.453671 0.371659
31 2 0.41508 0.165983 0.469887
47 4 0.168702 0.397437 0.546163
4 3 0.399136 0.415208 0.484358
39 4 0.654238 0.547254 0.423475
38 2 0.75149 0.5523 0.446235
40 4 0.848731 0.557342 0.468996
24 2 0.468013 0.877726 0.471946
25 4 0.390035 0.895963 0.412048
32 4 0.337958 0.111297 0.502476
45 2 0.158051 0.496663 0.539887
1 1 0.395372 0.468681 0.567942
46 4 0.147389 0.595895 0.533619
3 3 0.312555 0.52346 0.568219
2 3 0.47502 0.528296 0.57321
26 4 0.54599 0.859499 0.531838
5 3 0.394782 0.407143 0.646762
12 4 0.40459 0.540659 0.734666
10 2 0.474189 0.516847 0.802409
11 4 0.543791 0.493036 0.870155
ITEM: TIMESTEP
1350
ITEM: NUMBER OF ATOMS
23
ITEM: BOX BOUNDS pp pp pp
-5.0000000000000000e+00 5.0000000000000000e+00
-5.0000000000000000e+00 5.0000000000000000e+00
-5.0000000000000000e+00 5.0000000000000000e+00
ITEM: ATOMS id type xs ys zs
19 4 0.485658 0.301989 0.254086
33 4 0.503328 0.212153 0.452716
17 2 0.444501 0.374412 0.309413
18 4 0.40335 0.446834 0.364735
31 2 0.420108 0.159736 0.47079
47 4 0.170997 0.400005 0.564824
4 3 0.392908 0.41386 0.482546
39 4 0.648816 0.569609 0.427363
38 2 0.746147 0.555252 0.445258
40 4 0.843479 0.540887 0.463154
24 2 0.46647 0.884865 0.470057
25 4 0.382699 0.890276 0.415704
32 4 0.336889 0.107318 0.488861
45 2 0.157816 0.496307 0.541312
1 1 0.387642 0.461823 0.569319
46 4 0.144632 0.592601 0.517793
3 3 0.301455 0.510851 0.574588
2 3 0.463324 0.526191 0.576701
26 4 0.550237 0.879454 0.524409
5 3 0.392925 0.395752 0.644194
12 4 0.408558 0.54278 0.727514
10 2 0.47337 0.520562 0.80035
11 4 0.538174 0.498348 0.873203
ITEM: TIMESTEP
1400
ITEM: NUMBER OF ATOMS
23
ITEM: BOX BOUNDS pp pp pp
-5.0000000000000000e+00 5.0000000000000000e+00
-5.0000000000000000e+00 5.0000000000000000e+00
-5.0000000000000000e+00 5.0000000000000000e+00
ITEM: ATOMS id type xs ys zs
19 4 0.494749 0.295906 0.259942
33 4 0.513201 0.20191 0.46644
17 2 0.444155 0.367001 0.308791
18 4 0.393548 0.438099 0.357637
31 2 0.426365 0.152679 0.472386
47 4 0.173306 0.405451 0.583524
4 3 0.387495 0.412079 0.481151
39 4 0.64632 0.592575 0.429062
38 2 0.739498 0.559677 0.444403
40 4 0.832669 0.526769 0.459738
24 2 0.465845 0.893764 0.468286
25 4 0.378422 0.884702 0.420572
32 4 0.339535 0.103452 0.478325
45 2 0.158094 0.495511 0.542805
1 1 0.379611 0.45557 0.570066
46 4 0.142879 0.585564 0.502093
3 3 0.29012 0.497809 0.578178
2 3 0.45044 0.524938 0.579859
26 4 0.553262 0.902816 0.515985
5 3 0.39051 0.386756 0.641804
12 4 0.411865 0.545264 0.7206
10 2 0.472193 0.523343 0.797281
11 4 0.532532 0.501417 0.873962
ITEM: TIMESTEP
1450
ITEM: NUMBER OF ATOMS
23
ITEM: BOX BOUNDS pp pp pp
-5.0000000000000000e+00 5.0000000000000000e+00
-5.0000000000000000e+00 5.0000000000000000e+00
-5.0000000000000000e+00 5.0000000000000000e+00
ITEM: ATOMS id type xs ys zs
19 4 0.500071 0.286038 0.265082
33 4 0.52038 0.189793 0.479594
17 2 0.443279 0.356988 0.306807
18 4 0.386484 0.427932 0.348536
31 2 0.43133 0.144962 0.471832
47 4 0.176085 0.413913 0.599888
4 3 0.385865 0.409498 0.479455
39 4 0.64573 0.61367 0.428058
38 2 0.731047 0.563439 0.442161
40 4 0.816357 0.513206 0.456252
24 2 0.464681 0.90133 0.466462
25 4 0.376123 0.880002 0.425193
32 4 0.342272 0.100138 0.464073
45 2 0.160034 0.494682 0.543161
1 1 0.372724 0.449645 0.569318
46 4 0.143982 0.575453 0.486433
3 3 0.280471 0.485743 0.576007
2 3 0.43856 0.523118 0.583161
26 4 0.553229 0.922665 0.507724
5 3 0.386135 0.37951 0.639332
12 4 0.412988 0.550314 0.716344
10 2 0.47023 0.528016 0.795251
11 4 0.527467 0.505712 0.874154
ITEM: TIMESTEP
1500
ITEM: NUMBER OF ATOMS
23
ITEM: BOX BOUNDS pp pp pp
-5.0000000000000000e+00 5.0000000000000000e+00
-5.0000000000000000e+00 5.0000000000000000e+00
-5.0000000000000000e+00 5.0000000000000000e+00
ITEM: ATOMS id type xs ys zs
19 4 0.504656 0.27617 0.271328
33 4 0.524736 0.176392 0.493621
17 2 0.441985 0.346843 0.304134
18 4 0.379309 0.417528 0.336947
31 2 0.435363 0.13774 0.470862
47 4 0.181739 0.424814 0.614937
4 3 0.382571 0.409745 0.476259
39 4 0.650386 0.633569 0.425914
38 2 0.723685 0.566589 0.437781
40 4 0.796995 0.499605 0.44964
24 2 0.463269 0.907347 0.465349
25 4 0.375014 0.876076 0.430228
32 4 0.345983 0.0990896 0.448105
45 2 0.164134 0.493721 0.544628
1 1 0.366557 0.445328 0.567557
46 4 0.146538 0.562621 0.474326
3 3 0.272869 0.477528 0.574312
2 3 0.429259 0.520596 0.585677
26 4 0.551523 0.93863 0.500465
5 3 0.381676 0.372736 0.634646
12 4 0.41562 0.555078 0.711716
10 2 0.468724 0.533555 0.793672
11 4 0.52183 0.512029 0.875621
ITEM: TIMESTEP
1550
ITEM: NUMBER OF ATOMS
23
ITEM: BOX BOUNDS pp pp pp
-5.0000000000000000e+00 5.0000000000000000e+00
-5.0000000000000000e+00 5.0000000000000000e+00
-5.0000000000000000e+00 5.0000000000000000e+00
ITEM: ATOMS id type xs ys zs
19 4 0.507416 0.26826 0.276981
33 4 0.527179 0.165672 0.506594
17 2 0.439169 0.337473 0.300469
18 4 0.37093 0.406685 0.323958
31 2 0.440424 0.13128 0.470661
47 4 0.188529 0.436055 0.627823
4 3 0.37603 0.410584 0.472338
39 4 0.661519 0.651163 0.424719
38 2 0.717409 0.568518 0.431493
40 4 0.773302 0.485871 0.438263
24 2 0.461707 0.913858 0.465472
25 4 0.374932 0.873496 0.436501
32 4 0.353673 0.0968817 0.434721
45 2 0.170126 0.491545 0.546694
1 1 0.359837 0.44204 0.565112
46 4 0.151717 0.547036 0.465556
3 3 0.26511 0.47043 0.574127
2 3 0.419933 0.518843 0.585434
26 4 0.548494 0.954228 0.494447
5 3 0.378456 0.367557 0.629186
12 4 0.419625 0.558893 0.706313
10 2 0.467416 0.540062 0.792112
11 4 0.515213 0.521227 0.877899
ITEM: TIMESTEP
1600
ITEM: NUMBER OF ATOMS
23
ITEM: BOX BOUNDS pp pp pp