ITEM: TIMESTEP
50
ITEM: NUMBER OF ATOMS
8
ITEM: BOX BOUNDS pp pp pp
-5.0000000000000000e+00 5.0000000000000000e+00
-5.0000000000000000e+00 5.0000000000000000e+00
-5.0000000000000000e+00 5.0000000000000000e+00
ITEM: ATOMS id type xs ys zs
4 2 0.454963 0.417011 0.465077
2 2 0.592089 0.49961 0.467781
3 2 0.45461 0.583971 0.46824
1 1 0.500172 0.501488 0.501538
8 4 0.399073 0.501366 0.600029
5 2 0.499326 0.499314 0.599551
6 3 0.49874 0.499409 0.599834
7 4 0.59972 0.501016 0.602946
ITEM: TIMESTEP
100
ITEM: NUMBER OF ATOMS
8
ITEM: BOX BOUNDS pp pp pp
-5.0000000000000000e+00 5.0000000000000000e+00
-5.0000000000000000e+00 5.0000000000000000e+00
-5.0000000000000000e+00 5.0000000000000000e+00
ITEM: ATOMS id type xs ys zs
4 2 0.460922 0.417213 0.466026
2 2 0.587077 0.498924 0.470726
3 2 0.457479 0.588625 0.468159
1 1 0.49926 0.502029 0.501281
8 4 0.398172 0.505316 0.60069
5 2 0.50053 0.497403 0.598859
6 3 0.495748 0.497155 0.60073
7 4 0.599598 0.500799 0.609378
ITEM: TIMESTEP
150
ITEM: NUMBER OF ATOMS
8
ITEM: BOX BOUNDS pp pp pp
-5.0000000000000000e+00 5.0000000000000000e+00
-5.0000000000000000e+00 5.0000000000000000e+00
-5.0000000000000000e+00 5.0000000000000000e+00
ITEM: ATOMS id type xs ys zs
4 2 0.469052 0.418217 0.466606
2 2 0.581139 0.500389 0.477376
3 2 0.462956 0.594859 0.465458
1 1 0.498997 0.500889 0.49981
8 4 0.398824 0.51008 0.601794
5 2 0.501481 0.495922 0.597079
6 3 0.491653 0.493029 0.601812
7 4 0.601484 0.500633 0.617209
ITEM: TIMESTEP
200
ITEM: NUMBER OF ATOMS
8
ITEM: BOX BOUNDS pp pp pp
-5.0000000000000000e+00 5.0000000000000000e+00
-5.0000000000000000e+00 5.0000000000000000e+00
-5.0000000000000000e+00 5.0000000000000000e+00
ITEM: ATOMS id type xs ys zs
4 2 0.476142 0.420976 0.467179
2 2 0.574193 0.498845 0.485758
3 2 0.469546 0.600741 0.461496
1 1 0.501641 0.499177 0.497054
8 4 0.398456 0.515956 0.601854
5 2 0.500954 0.492569 0.596907
6 3 0.486215 0.489848 0.600841
7 4 0.604414 0.500238 0.626218
ITEM: TIMESTEP
250
ITEM: NUMBER OF ATOMS
8
ITEM: BOX BOUNDS pp pp pp
-5.0000000000000000e+00 5.0000000000000000e+00
-5.0000000000000000e+00 5.0000000000000000e+00
-5.0000000000000000e+00 5.0000000000000000e+00
ITEM: ATOMS id type xs ys zs
4 2 0.482015 0.425488 0.466356
2 2 0.567249 0.496491 0.495763
3 2 0.473629 0.609558 0.458362
1 1 0.50475 0.496377 0.492425
8 4 0.396606 0.520926 0.603748
5 2 0.49672 0.485894 0.596495
6 3 0.478133 0.486834 0.59942
7 4 0.609183 0.496923 0.634475
ITEM: TIMESTEP
300
ITEM: NUMBER OF ATOMS
8
ITEM: BOX BOUNDS pp pp pp
-5.0000000000000000e+00 5.0000000000000000e+00
-5.0000000000000000e+00 5.0000000000000000e+00
-5.0000000000000000e+00 5.0000000000000000e+00
ITEM: ATOMS id type xs ys zs
4 2 0.487878 0.428923 0.465893
2 2 0.560994 0.495521 0.509418
3 2 0.477998 0.621436 0.455063
1 1 0.507654 0.493055 0.488206
8 4 0.39427 0.526026 0.607548
5 2 0.49189 0.478422 0.594868
6 3 0.468085 0.484038 0.597202
7 4 0.614548 0.493542 0.643486
ITEM: TIMESTEP
350
ITEM: NUMBER OF ATOMS
8
ITEM: BOX BOUNDS pp pp pp
-5.0000000000000000e+00 5.0000000000000000e+00
-5.0000000000000000e+00 5.0000000000000000e+00
-5.0000000000000000e+00 5.0000000000000000e+00
ITEM: ATOMS id type xs ys zs
4 2 0.491172 0.431411 0.464785
2 2 0.553922 0.49431 0.525944
3 2 0.481747 0.635687 0.453687
1 1 0.511021 0.487985 0.482638
8 4 0.39104 0.5305 0.614566
5 2 0.489562 0.471866 0.593787
6 3 0.45752 0.482532 0.596713
7 4 0.621965 0.491441 0.650459
ITEM: TIMESTEP
400
ITEM: NUMBER OF ATOMS
8
ITEM: BOX BOUNDS pp pp pp
-5.0000000000000000e+00 5.0000000000000000e+00
-5.0000000000000000e+00 5.0000000000000000e+00
-5.0000000000000000e+00 5.0000000000000000e+00
ITEM: ATOMS id type xs ys zs
4 2 0.494213 0.433466 0.460318
2 2 0.544544 0.49431 0.542503
3 2 0.482131 0.651868 0.456835
1 1 0.514052 0.481963 0.476665
8 4 0.385505 0.53521 0.620953
5 2 0.48592 0.465769 0.592464
6 3 0.446636 0.48133 0.596479
7 4 0.629424 0.491663 0.654598
ITEM: TIMESTEP
450
ITEM: NUMBER OF ATOMS
8
ITEM: BOX BOUNDS pp pp pp
-5.0000000000000000e+00 5.0000000000000000e+00
-5.0000000000000000e+00 5.0000000000000000e+00
-5.0000000000000000e+00 5.0000000000000000e+00
ITEM: ATOMS id type xs ys zs
4 2 0.498878 0.438039 0.45076
2 2 0.532954 0.491565 0.55922
3 2 0.478734 0.669051 0.462218
1 1 0.516531 0.472699 0.472948
8 4 0.379898 0.541468 0.627085
5 2 0.484975 0.462329 0.593303
6 3 0.436094 0.478828 0.596399
7 4 0.63766 0.49473 0.657004
ITEM: TIMESTEP
500
ITEM: NUMBER OF ATOMS
8
ITEM: BOX BOUNDS pp pp pp
-5.0000000000000000e+00 5.0000000000000000e+00
-5.0000000000000000e+00 5.0000000000000000e+00
-5.0000000000000000e+00 5.0000000000000000e+00
ITEM: ATOMS id type xs ys zs
4 2 0.503694 0.44042 0.439976
2 2 0.519395 0.490253 0.573707
3 2 0.476389 0.685736 0.465947
1 1 0.519663 0.459963 0.468609
8 4 0.371148 0.547562 0.63373
5 2 0.486393 0.461676 0.596851
6 3 0.425436 0.476452 0.596611
7 4 0.645404 0.498785 0.658313
ITEM: TIMESTEP
550
ITEM: NUMBER OF ATOMS
8
ITEM: BOX BOUNDS pp pp pp
-5.0000000000000000e+00 5.0000000000000000e+00
-5.0000000000000000e+00 5.0000000000000000e+00
-5.0000000000000000e+00 5.0000000000000000e+00
ITEM: ATOMS id type xs ys zs
4 2 0.509748 0.442721 0.433291
2 2 0.508818 0.489855 0.586204
3 2 0.474481 0.702041 0.4691
1 1 0.52229 0.448686 0.465716
8 4 0.362328 0.55481 0.641616
5 2 0.485381 0.46415 0.599881
6 3 0.4141 0.476639 0.597082
7 4 0.656458 0.504934 0.661967
ITEM: TIMESTEP
600
ITEM: NUMBER OF ATOMS
8
ITEM: BOX BOUNDS pp pp pp
-5.0000000000000000e+00 5.0000000000000000e+00
-5.0000000000000000e+00 5.0000000000000000e+00
-5.0000000000000000e+00 5.0000000000000000e+00
ITEM: ATOMS id type xs ys zs
4 2 0.516679 0.445991 0.431547
2 2 0.497217 0.488672 0.596299
3 2 0.472105 0.722144 0.474955
1 1 0.523989 0.438398 0.463827
8 4 0.35384 0.560583 0.646547
5 2 0.479727 0.466593 0.604102
6 3 0.402721 0.478933 0.595592
7 4 0.672032 0.510973 0.664034
ITEM: TIMESTEP
650
ITEM: NUMBER OF ATOMS
8
ITEM: BOX BOUNDS pp pp pp
-5.0000000000000000e+00 5.0000000000000000e+00
-5.0000000000000000e+00 5.0000000000000000e+00
-5.0000000000000000e+00 5.0000000000000000e+00
ITEM: ATOMS id type xs ys zs
4 2 0.525115 0.449472 0.429705
2 2 0.485223 0.487324 0.604142
3 2 0.468999 0.744456 0.482218
1 1 0.524133 0.426871 0.46512
8 4 0.348027 0.566111 0.650357
5 2 0.473574 0.467601 0.610556
6 3 0.391512 0.480969 0.59128
7 4 0.686864 0.520045 0.665878
ITEM: TIMESTEP
700
ITEM: NUMBER OF ATOMS
8
ITEM: BOX BOUNDS pp pp pp
-5.0000000000000000e+00 5.0000000000000000e+00
-5.0000000000000000e+00 5.0000000000000000e+00
-5.0000000000000000e+00 5.0000000000000000e+00
ITEM: ATOMS id type xs ys zs
4 2 0.530773 0.45488 0.433803
2 2 0.472978 0.484751 0.611826
3 2 0.465556 0.76388 0.490566
1 1 0.524812 0.414324 0.466096
8 4 0.341116 0.571316 0.652935
5 2 0.468436 0.469122 0.617568
6 3 0.381992 0.481313 0.588513
7 4 0.69592 0.52893 0.668118
ITEM: TIMESTEP
750
ITEM: NUMBER OF ATOMS
8
ITEM: BOX BOUNDS pp pp pp
-5.0000000000000000e+00 5.0000000000000000e+00
-5.0000000000000000e+00 5.0000000000000000e+00
-5.0000000000000000e+00 5.0000000000000000e+00
ITEM: ATOMS id type xs ys zs
4 2 0.53524 0.461398 0.439676
2 2 0.458496 0.481848 0.618633
3 2 0.460061 0.782723 0.498936
1 1 0.524651 0.400925 0.467307
8 4 0.332604 0.57589 0.655276
5 2 0.462484 0.474265 0.62759
6 3 0.371829 0.478758 0.587005
7 4 0.705924 0.53542 0.671061
ITEM: TIMESTEP
800
ITEM: NUMBER OF ATOMS
8
ITEM: BOX BOUNDS pp pp pp
-5.0000000000000000e+00 5.0000000000000000e+00
-5.0000000000000000e+00 5.0000000000000000e+00
-5.0000000000000000e+00 5.0000000000000000e+00
ITEM: ATOMS id type xs ys zs
4 2 0.538207 0.468653 0.446464
2 2 0.446356 0.479345 0.624888
3 2 0.455151 0.804202 0.504956
1 1 0.524287 0.387909 0.469358
8 4 0.324091 0.5784 0.655947
5 2 0.458469 0.480627 0.639056
6 3 0.362652 0.475991 0.58595
7 4 0.715459 0.543109 0.670479
ITEM: TIMESTEP
850
ITEM: NUMBER OF ATOMS
8
ITEM: BOX BOUNDS pp pp pp
-5.0000000000000000e+00 5.0000000000000000e+00
-5.0000000000000000e+00 5.0000000000000000e+00
-5.0000000000000000e+00 5.0000000000000000e+00
ITEM: ATOMS id type xs ys zs
4 2 0.540736 0.477772 0.455164
2 2 0.433489 0.476859 0.630562
3 2 0.449849 0.824074 0.510607
1 1 0.523346 0.37221 0.471988
8 4 0.315275 0.582272 0.654115
5 2 0.456295 0.487248 0.652683
6 3 0.354972 0.471239 0.583432
7 4 0.7234 0.552819 0.666279
ITEM: TIMESTEP
900
ITEM: NUMBER OF ATOMS
8
ITEM: BOX BOUNDS pp pp pp
-5.0000000000000000e+00 5.0000000000000000e+00
-5.0000000000000000e+00 5.0000000000000000e+00
-5.0000000000000000e+00 5.0000000000000000e+00
ITEM: ATOMS id type xs ys zs
4 2 0.542865 0.48488 0.464859
2 2 0.419052 0.477251 0.635109
3 2 0.445481 0.846617 0.515763
1 1 0.520583 0.356097 0.478892
8 4 0.305622 0.588444 0.648774
5 2 0.450878 0.4943 0.664006
6 3 0.348798 0.466977 0.580076
7 4 0.732807 0.562717 0.660055
ITEM: TIMESTEP
950
ITEM: NUMBER OF ATOMS
8
ITEM: BOX BOUNDS pp pp pp
-5.0000000000000000e+00 5.0000000000000000e+00
-5.0000000000000000e+00 5.0000000000000000e+00
-5.0000000000000000e+00 5.0000000000000000e+00
ITEM: ATOMS id type xs ys zs
4 2 0.546264 0.493112 0.471799
2 2 0.400861 0.478541 0.637811
3 2 0.441512 0.871408 0.52243
1 1 0.519445 0.341357 0.485864
8 4 0.297625 0.595584 0.644539
5 2 0.443073 0.501603 0.676646
6 3 0.342974 0.460961 0.575976
7 4 0.74115 0.571398 0.653164
ITEM: TIMESTEP
1000
ITEM: NUMBER OF ATOMS
8
ITEM: BOX BOUNDS pp pp pp
-5.0000000000000000e+00 5.0000000000000000e+00
-5.0000000000000000e+00 5.0000000000000000e+00
-5.0000000000000000e+00 5.0000000000000000e+00
ITEM: ATOMS id type xs ys zs
4 2 0.549925 0.50364 0.477747
2 2 0.378718 0.476779 0.635466
3 2 0.436423 0.896493 0.529174
1 1 0.518254 0.326885 0.490816
8 4 0.290806 0.602732 0.645145
5 2 0.435681 0.50834 0.69025
6 3 0.336522 0.454223 0.572024
7 4 0.74769 0.582375 0.647811
ITEM: TIMESTEP
1050
ITEM: NUMBER OF ATOMS
8
ITEM: BOX BOUNDS pp pp pp
-5.0000000000000000e+00 5.0000000000000000e+00
-5.0000000000000000e+00 5.0000000000000000e+00
-5.0000000000000000e+00 5.0000000000000000e+00
ITEM: ATOMS id type xs ys zs
1 1 0.517741 0.31225 0.498269
4 2 0.553304 0.511659 0.480981
3 2 0.427964 0.922519 0.536532
6 3 0.33032 0.447679 0.570748
2 2 0.356608 0.477085 0.628035
5 2 0.428241 0.516319 0.702923
8 4 0.288714 0.610627 0.646077
7 4 0.753665 0.596151 0.644601
ITEM: TIMESTEP
1100
ITEM: NUMBER OF ATOMS
8
ITEM: BOX BOUNDS pp pp pp
-5.0000000000000000e+00 5.0000000000000000e+00
-5.0000000000000000e+00 5.0000000000000000e+00
-5.0000000000000000e+00 5.0000000000000000e+00
ITEM: ATOMS id type xs ys zs
1 1 0.515473 0.296715 0.505625
4 2 0.555503 0.518292 0.480631
3 2 0.418629 0.94611 0.542338
6 3 0.325194 0.441706 0.568689
2 2 0.33437 0.479351 0.618771
5 2 0.418854 0.526331 0.717677
8 4 0.287485 0.620628 0.650173
7 4 0.759388 0.607292 0.640675
ITEM: TIMESTEP
1150
ITEM: NUMBER OF ATOMS
8
ITEM: BOX BOUNDS pp pp pp
-5.0000000000000000e+00 5.0000000000000000e+00
-5.0000000000000000e+00 5.0000000000000000e+00
-5.0000000000000000e+00 5.0000000000000000e+00
ITEM: ATOMS id type xs ys zs
1 1 0.513781 0.278511 0.51226
4 2 0.556845 0.526108 0.479353
3 2 0.40646 0.968626 0.548283
6 3 0.318379 0.436319 0.566275
2 2 0.312316 0.480125 0.610796
5 2 0.412141 0.532757 0.729883
8 4 0.282887 0.630852 0.652997
7 4 0.762716 0.616583 0.637007
ITEM: TIMESTEP
1200
ITEM: NUMBER OF ATOMS
8
ITEM: BOX BOUNDS pp pp pp
-5.0000000000000000e+00 5.0000000000000000e+00
-5.0000000000000000e+00 5.0000000000000000e+00
-5.0000000000000000e+00 5.0000000000000000e+00
ITEM: ATOMS id type xs ys zs
1 1 0.511941 0.26071 0.519564
4 2 0.558606 0.531309 0.478408
3 2 0.394502 0.989693 0.554011
6 3 0.311001 0.430227 0.563011
2 2 0.291966 0.480888 0.601338
5 2 0.409433 0.539562 0.739899
8 4 0.274367 0.642801 0.659418
7 4 0.765194 0.624398 0.63356
ITEM: TIMESTEP
1250
ITEM: NUMBER OF ATOMS
8
ITEM: BOX BOUNDS pp pp pp
-5.0000000000000000e+00 5.0000000000000000e+00
-5.0000000000000000e+00 5.0000000000000000e+00
-5.0000000000000000e+00 5.0000000000000000e+00
ITEM: ATOMS id type xs ys zs
1 1 0.511331 0.244466 0.527507
4 2 0.562267 0.535448 0.47939
3 2 0.384695 0.00986924 0.561274
6 3 0.303961 0.424888 0.560611
2 2 0.27193 0.480346 0.591357
5 2 0.407587 0.545818 0.750117
8 4 0.266854 0.652203 0.665208
7 4 0.763935 0.63196 0.629526
ITEM: TIMESTEP
1300
ITEM: NUMBER OF ATOMS
8
ITEM: BOX BOUNDS pp pp pp
-5.0000000000000000e+00 5.0000000000000000e+00
-5.0000000000000000e+00 5.0000000000000000e+00
-5.0000000000000000e+00 5.0000000000000000e+00
ITEM: ATOMS id type xs ys zs
1 1 0.510964 0.229312 0.532619
4 2 0.565541 0.536327 0.482931
3 2 0.373441 0.030308 0.568781
6 3 0.297986 0.418459 0.558037
2 2 0.251477 0.477891 0.58159
5 2 0.403689 0.55495 0.754065
8 4 0.257567 0.66215 0.673026
7 4 0.761854 0.638507 0.62633
ITEM: TIMESTEP
1350
ITEM: NUMBER OF ATOMS
8
ITEM: BOX BOUNDS pp pp pp
-5.0000000000000000e+00 5.0000000000000000e+00
-5.0000000000000000e+00 5.0000000000000000e+00
-5.0000000000000000e+00 5.0000000000000000e+00
ITEM: ATOMS id type xs ys zs
1 1 0.511222 0.214457 0.540533
4 2 0.566959 0.537433 0.487312
3 2 0.362673 0.0500424 0.575396
6 3 0.289357 0.414521 0.555968
2 2 0.230258 0.476414 0.571982
5 2 0.401193 0.566028 0.756222
8 4 0.247309 0.672689 0.681345
7 4 0.757919 0.645208 0.624397
ITEM: TIMESTEP
1400
ITEM: NUMBER OF ATOMS
8
ITEM: BOX BOUNDS pp pp pp
-5.0000000000000000e+00 5.0000000000000000e+00
-5.0000000000000000e+00 5.0000000000000000e+00
-5.0000000000000000e+00 5.0000000000000000e+00
ITEM: ATOMS id type xs ys zs
1 1 0.510861 0.199871 0.550915
4 2 0.567379 0.534589 0.491265
3 2 0.351222 0.0704686 0.583416
6 3 0.279891 0.409818 0.554779
2 2 0.211861 0.475319 0.563607
5 2 0.398768 0.57548 0.758422
8 4 0.238337 0.683948 0.691388
7 4 0.753181 0.651072 0.621327
ITEM: TIMESTEP
1450
ITEM: NUMBER OF ATOMS
8
ITEM: BOX BOUNDS pp pp pp
-5.0000000000000000e+00 5.0000000000000000e+00
-5.0000000000000000e+00 5.0000000000000000e+00
-5.0000000000000000e+00 5.0000000000000000e+00
ITEM: ATOMS id type xs ys zs
1 1 0.509705 0.185603 0.563912
4 2 0.571163 0.532179 0.495182
3 2 0.336867 0.0911257 0.591265
6 3 0.271986 0.403838 0.553529
2 2 0.193086 0.473251 0.55592
5 2 0.397133 0.585436 0.761087
8 4 0.232275 0.695478 0.700414
7 4 0.747633 0.654801 0.616806
ITEM: TIMESTEP
1500
ITEM: NUMBER OF ATOMS
8
ITEM: BOX BOUNDS pp pp pp
-5.0000000000000000e+00 5.0000000000000000e+00
-5.0000000000000000e+00 5.0000000000000000e+00
-5.0000000000000000e+00 5.0000000000000000e+00
ITEM: ATOMS id type xs ys zs
1 1 0.506728 0.171534 0.578128
4 2 0.575418 0.529766 0.50192
3 2 0.323952 0.1103 0.597046
6 3 0.265164 0.396201 0.550522
2 2 0.175594 0.473395 0.550165
5 2 0.3965 0.595624 0.765526
8 4 0.224322 0.702468 0.707935
7 4 0.744489 0.659226 0.613538
ITEM: TIMESTEP
1550
ITEM: NUMBER OF ATOMS
8
ITEM: BOX BOUNDS pp pp pp
-5.0000000000000000e+00 5.0000000000000000e+00
-5.0000000000000000e+00 5.0000000000000000e+00
-5.0000000000000000e+00 5.0000000000000000e+00
ITEM: ATOMS id type xs ys zs
1 1 0.502607 0.158576 0.594339
4 2 0.575993 0.526816 0.509658
3 2 0.309809 0.128659 0.602015
6 3 0.257669 0.386366 0.546294
2 2 0.155941 0.474506 0.545756
5 2 0.395416 0.603812 0.773883
8 4 0.214527 0.703837 0.711289
7 4 0.744483 0.667026 0.611985
ITEM: TIMESTEP
1600
ITEM: NUMBER OF ATOMS
8
ITEM: BOX BOUNDS pp pp pp
-5.0000000000000000e+00 5.0000000000000000e+00
-5.0000000000000000e+00 5.0000000000000000e+00
-5.0000000000000000e+00 5.0000000000000000e+00
ITEM: ATOMS id type xs ys zs
1 1 0.495584 0.146203 0.609384
4 2 0.575963 0.524011 0.516525
3 2 0.292976 0.144406 0.609757
6 3 0.254697 0.374647 0.543372
2 2 0.136126 0.477032 0.544717
5 2 0.391485 0.608768 0.783502
8 4 0.205373 0.704316 0.713545
7 4 0.745886 0.675564 0.610606
ITEM: TIMESTEP
1650
ITEM: NUMBER OF ATOMS
8
ITEM: BOX BOUNDS pp pp pp
-5.0000000000000000e+00 5.0000000000000000e+00
-5.0000000000000000e+00 5.0000000000000000e+00
-5.0000000000000000e+00 5.0000000000000000e+00
ITEM: ATOMS id type xs ys zs
1 1 0.487535 0.13357 0.623558
4 2 0.576253 0.522688 0.520806
3 2 0.279966 0.158864 0.614093
6 3 0.25012 0.363887 0.538087
2 2 0.114506 0.479501 0.54382
5 2 0.385483 0.613736 0.795555
8 4 0.195239 0.709195 0.716752
7 4 0.745787 0.683255 0.611894
ITEM: TIMESTEP
1700
ITEM: NUMBER OF ATOMS
8
ITEM: BOX BOUNDS pp pp pp
-5.0000000000000000e+00 5.0000000000000000e+00
-5.0000000000000000e+00 5.0000000000000000e+00
-5.0000000000000000e+00 5.0000000000000000e+00
ITEM: ATOMS id type xs ys zs
1 1 0.478482 0.121797 0.637901
4 2 0.574652 0.526019 0.52577
3 2 0.265805 0.171647 0.618164
6 3 0.242887 0.352929 0.530037
2 2 0.089893 0.481449 0.545179
5 2 0.378648 0.619019 0.808391
8 4 0.183233 0.715029 0.720102
7 4 0.745837 0.692459 0.6147
ITEM: TIMESTEP
1750
ITEM: NUMBER OF ATOMS
8
ITEM: BOX BOUNDS pp pp pp
-5.0000000000000000e+00 5.0000000000000000e+00
-5.0000000000000000e+00 5.0000000000000000e+00
-5.0000000000000000e+00 5.0000000000000000e+00
ITEM: ATOMS id type xs ys zs
1 1 0.466996 0.110792 0.652784
4 2 0.570751 0.533484 0.532663
3 2 0.249428 0.187476 0.622906
6 3 0.236542 0.340133 0.521475
2 2 0.0640734 0.484653 0.544859
5 2 0.370465 0.62261 0.821805
8 4 0.171593 0.716408 0.723299
7 4 0.744795 0.701472 0.61437
ITEM: TIMESTEP
1800
ITEM: NUMBER OF ATOMS
8
ITEM: BOX BOUNDS pp pp pp
-5.0000000000000000e+00 5.0000000000000000e+00
-5.0000000000000000e+00 5.0000000000000000e+00
-5.0000000000000000e+00 5.0000000000000000e+00
ITEM: ATOMS id type xs ys zs
1 1 0.454149 0.100459 0.66734
4 2 0.566054 0.540022 0.538017
3 2 0.231968 0.204227 0.627593
6 3 0.231636 0.324788 0.512487
2 2 0.0390804 0.488042 0.545835
5 2 0.359142 0.628682 0.836981
8 4 0.16307 0.714563 0.728739
7 4 0.741562 0.709185 0.61332
ITEM: TIMESTEP
1850
ITEM: NUMBER OF ATOMS
8
ITEM: BOX BOUNDS pp pp pp
-5.0000000000000000e+00 5.0000000000000000e+00
-5.0000000000000000e+00 5.0000000000000000e+00
-5.0000000000000000e+00 5.0000000000000000e+00
ITEM: ATOMS id type xs ys zs
1 1 0.442614 0.0896818 0.68219
4 2 0.559511 0.545706 0.54323
3 2 0.213313 0.221271 0.63188
6 3 0.22731 0.308918 0.502387
2 2 0.0116689 0.491928 0.544295
5 2 0.346486 0.633751 0.852131
8 4 0.156565 0.711329 0.737366
7 4 0.737975 0.718131 0.611336
ITEM: TIMESTEP
1900
ITEM: NUMBER OF ATOMS
8
ITEM: BOX BOUNDS pp pp pp
-5.0000000000000000e+00 5.0000000000000000e+00
-5.0000000000000000e+00 5.0000000000000000e+00
-5.0000000000000000e+00 5.0000000000000000e+00
ITEM: ATOMS id type xs ys zs
1 1 0.432261 0.0791329 0.695827
4 2 0.551987 0.55243 0.546474
3 2 0.191942 0.237245 0.63532
6 3 0.221235 0.292889 0.492638
2 2 0.984919 0.496676 0.538997
5 2 0.335118 0.640194 0.865385
8 4 0.149055 0.709261 0.746669
7 4 0.735165 0.726888 0.611016
ITEM: TIMESTEP
1950
ITEM: NUMBER OF ATOMS
8
ITEM: BOX BOUNDS pp pp pp
-5.0000000000000000e+00 5.0000000000000000e+00
-5.0000000000000000e+00 5.0000000000000000e+00
-5.0000000000000000e+00 5.0000000000000000e+00
ITEM: ATOMS id type xs ys zs
1 1 0.422673 0.0701804 0.708494
4 2 0.542012 0.5587 0.54669
3 2 0.169991 0.253135 0.639623
6 3 0.213533 0.278395 0.483902
2 2 0.959428 0.501204 0.531922
5 2 0.321254 0.646793 0.879444
8 4 0.142787 0.705494 0.754191
7 4 0.72699 0.73307 0.61206
ITEM: TIMESTEP
2000
ITEM: NUMBER OF ATOMS
8
ITEM: BOX BOUNDS pp pp pp
-5.0000000000000000e+00 5.0000000000000000e+00
-5.0000000000000000e+00 5.0000000000000000e+00
-5.0000000000000000e+00 5.0000000000000000e+00
ITEM: ATOMS id type xs ys zs
1 1 0.412059 0.0627906 0.72143
4 2 0.528192 0.56539 0.547009
3 2 0.14565 0.271674 0.642616
6 3 0.206706 0.263281 0.47585
2 2 0.935532 0.504054 0.528577
5 2 0.306852 0.650738 0.895795
8 4 0.139082 0.702772 0.759415
7 4 0.713322 0.740618 0.612876
ITEM: TIMESTEP
2050
ITEM: NUMBER OF ATOMS
8
ITEM: BOX BOUNDS pp pp pp
-5.0000000000000000e+00 5.0000000000000000e+00
-5.0000000000000000e+00 5.0000000000000000e+00
-5.0000000000000000e+00 5.0000000000000000e+00
ITEM: ATOMS id type xs ys zs
6 3 0.200077 0.246065 0.466392
4 2 0.513226 0.570853 0.548745
2 2 0.91482 0.509677 0.527067
3 2 0.123756 0.290962 0.641758
7 4 0.698072 0.750713 0.612712
1 1 0.400658 0.0569238 0.734382
8 4 0.137056 0.699518 0.761787
5 2 0.291264 0.654987 0.913692
ITEM: TIMESTEP
2100
ITEM: NUMBER OF ATOMS
8
ITEM: BOX BOUNDS pp pp pp
-5.0000000000000000e+00 5.0000000000000000e+00
-5.0000000000000000e+00 5.0000000000000000e+00
-5.0000000000000000e+00 5.0000000000000000e+00
ITEM: ATOMS id type xs ys zs
6 3 0.19404 0.228046 0.457653
4 2 0.49762 0.575565 0.549706
2 2 0.897379 0.515461 0.52406
3 2 0.102409 0.306031 0.64224
7 4 0.681271 0.763521 0.610583
1 1 0.388024 0.0515073 0.748742
8 4 0.137381 0.698235 0.766015
5 2 0.276819 0.660247 0.931978
ITEM: TIMESTEP
2150
ITEM: NUMBER OF ATOMS
8
ITEM: BOX BOUNDS pp pp pp
-5.0000000000000000e+00 5.0000000000000000e+00
-5.0000000000000000e+00 5.0000000000000000e+00
-5.0000000000000000e+00 5.0000000000000000e+00
ITEM: ATOMS id type xs ys zs
6 3 0.188203 0.210634 0.449383
4 2 0.48162 0.579529 0.55257
2 2 0.876303 0.519631 0.5241
3 2 0.0776918 0.31952 0.644184
7 4 0.666491 0.77616 0.608946
1 1 0.37574 0.0450257 0.764442
8 4 0.13955 0.699341 0.772258
5 2 0.260844 0.663144 0.948886
ITEM: TIMESTEP
2200
ITEM: NUMBER OF ATOMS
8
ITEM: BOX BOUNDS pp pp pp
-5.0000000000000000e+00 5.0000000000000000e+00
-5.0000000000000000e+00 5.0000000000000000e+00
-5.0000000000000000e+00 5.0000000000000000e+00
ITEM: ATOMS id type xs ys zs
6 3 0.182909 0.192582 0.443486
4 2 0.465262 0.581064 0.55208
2 2 0.856047 0.524815 0.525944
3 2 0.0476209 0.331119 0.643384
7 4 0.650906 0.787619 0.608387
1 1 0.363965 0.0340599 0.781155
8 4 0.142545 0.703197 0.777569
5 2 0.243886 0.66746 0.963062
ITEM: TIMESTEP
2250
ITEM: NUMBER OF ATOMS
8
ITEM: BOX BOUNDS pp pp pp
-5.0000000000000000e+00 5.0000000000000000e+00
-5.0000000000000000e+00 5.0000000000000000e+00
-5.0000000000000000e+00 5.0000000000000000e+00
ITEM: ATOMS id type xs ys zs
6 3 0.179215 0.17605 0.435962
4 2 0.451562 0.57854 0.551681
2 2 0.838981 0.529941 0.529625
3 2 0.0149712 0.342133 0.640705
7 4 0.634957 0.797942 0.610015
1 1 0.355173 0.0237556 0.796708
8 4 0.143535 0.71078 0.782685
5 2 0.229428 0.67345 0.978823
ITEM: TIMESTEP
2300
ITEM: NUMBER OF ATOMS
8
ITEM: BOX BOUNDS pp pp pp
-5.0000000000000000e+00 5.0000000000000000e+00
-5.0000000000000000e+00 5.0000000000000000e+00
-5.0000000000000000e+00 5.0000000000000000e+00
ITEM: ATOMS id type xs ys zs
6 3 0.17566 0.160487 0.427589
4 2 0.436223 0.572225 0.55316
2 2 0.823806 0.537304 0.533037
3 2 0.983156 0.353823 0.64064
7 4 0.615348 0.808547 0.612918
1 1 0.343255 0.0149961 0.810215
8 4 0.142759 0.717109 0.786595
5 2 0.215133 0.679134 0.995041
ITEM: TIMESTEP
2350
ITEM: NUMBER OF ATOMS
8
ITEM: BOX BOUNDS pp pp pp
-5.0000000000000000e+00 5.0000000000000000e+00
-5.0000000000000000e+00 5.0000000000000000e+00
-5.0000000000000000e+00 5.0000000000000000e+00
ITEM: ATOMS id type xs ys zs
6 3 0.172954 0.144239 0.419462
4 2 0.416039 0.564258 0.55215
2 2 0.807076 0.54743 0.53247
3 2 0.954441 0.366344 0.640259
7 4 0.595576 0.820325 0.615783
1 1 0.330145 0.00630246 0.824
8 4 0.139592 0.722285 0.789025
5 2 0.20188 0.682095 0.00688272
ITEM: TIMESTEP
2400
ITEM: NUMBER OF ATOMS
8
ITEM: BOX BOUNDS pp pp pp
-5.0000000000000000e+00 5.0000000000000000e+00
-5.0000000000000000e+00 5.0000000000000000e+00
-5.0000000000000000e+00 5.0000000000000000e+00
ITEM: ATOMS id type xs ys zs
6 3 0.172827 0.127575 0.410602
4 2 0.400299 0.552479 0.549774
2 2 0.787716 0.557433 0.53096
3 2 0.928124 0.37842 0.638669
7 4 0.577457 0.830493 0.620746
1 1 0.315965 0.999587 0.83915
8 4 0.135755 0.728726 0.7931
5 2 0.190075 0.688504 0.0184669
ITEM: TIMESTEP
2450
ITEM: NUMBER OF ATOMS
8
ITEM: BOX BOUNDS pp pp pp
-5.0000000000000000e+00 5.0000000000000000e+00
-5.0000000000000000e+00 5.0000000000000000e+00
-5.0000000000000000e+00 5.0000000000000000e+00
ITEM: ATOMS id type xs ys zs
6 3 0.173498 0.1104 0.405957
4 2 0.38758 0.540201 0.544963
2 2 0.770307 0.570085 0.529831
3 2 0.905879 0.388422 0.637142
7 4 0.557517 0.841549 0.622982
1 1 0.3023 0.993006 0.852379
8 4 0.135686 0.736559 0.796641
5 2 0.180899 0.695316 0.0321654
ITEM: TIMESTEP
2500
ITEM: NUMBER OF ATOMS
8
ITEM: BOX BOUNDS pp pp pp
-5.0000000000000000e+00 5.0000000000000000e+00
-5.0000000000000000e+00 5.0000000000000000e+00
-5.0000000000000000e+00 5.0000000000000000e+00
ITEM: ATOMS id type xs ys zs
6 3 0.17487 0.0929676 0.399014
4 2 0.375793 0.527888 0.539979
2 2 0.757241 0.584756 0.530272
3 2 0.885335 0.39617 0.635449
7 4 0.536481 0.853951 0.625855
1 1 0.287997 0.984328 0.862317
8 4 0.137482 0.745177 0.801451
5 2 0.17463 0.703026 0.04803
ITEM: TIMESTEP
2550
ITEM: NUMBER OF ATOMS
8
ITEM: BOX BOUNDS pp pp pp
-5.0000000000000000e+00 5.0000000000000000e+00
-5.0000000000000000e+00 5.0000000000000000e+00
-5.0000000000000000e+00 5.0000000000000000e+00
ITEM: ATOMS id type xs ys zs
6 3 0.17567 0.0750957 0.389722
4 2 0.362817 0.515492 0.532829
2 2 0.749646 0.600108 0.535216
3 2 0.864469 0.404635 0.632424
7 4 0.515975 0.865306 0.62643
1 1 0.270582 0.97499 0.871526
8 4 0.137505 0.755323 0.807183
5 2 0.170776 0.710527 0.0633553
ITEM: TIMESTEP
2600
ITEM: NUMBER OF ATOMS
8
ITEM: BOX BOUNDS pp pp pp
-5.0000000000000000e+00 5.0000000000000000e+00
-5.0000000000000000e+00 5.0000000000000000e+00
-5.0000000000000000e+00 5.0000000000000000e+00
ITEM: ATOMS id type xs ys zs
6 3 0.175398 0.0576651 0.376809
4 2 0.347417 0.501125 0.522615
2 2 0.74416 0.615266 0.540116
3 2 0.845847 0.413608 0.631483
7 4 0.497147 0.874929 0.628513
1 1 0.254657 0.965805 0.88095
8 4 0.139712 0.763324 0.813559
5 2 0.16409 0.718963 0.0765819
ITEM: TIMESTEP
2650
ITEM: NUMBER OF ATOMS
8
ITEM: BOX BOUNDS pp pp pp
-5.0000000000000000e+00 5.0000000000000000e+00
-5.0000000000000000e+00 5.0000000000000000e+00
-5.0000000000000000e+00 5.0000000000000000e+00
ITEM: ATOMS id type xs ys zs
6 3 0.17654 0.0402784 0.363675
4 2 0.32947 0.4859 0.510852
2 2 0.740709 0.631063 0.541227
3 2 0.824948 0.421101 0.631075
7 4 0.477879 0.883971 0.63318
1 1 0.240071 0.956147 0.889869
8 4 0.145142 0.77277 0.820985
5 2 0.156166 0.730371 0.0897211
ITEM: TIMESTEP
2700
ITEM: NUMBER OF ATOMS
8
ITEM: BOX BOUNDS pp pp pp
-5.0000000000000000e+00 5.0000000000000000e+00
-5.0000000000000000e+00 5.0000000000000000e+00
-5.0000000000000000e+00 5.0000000000000000e+00
ITEM: ATOMS id type xs ys zs
6 3 0.178287 0.0209402 0.350646
4 2 0.308366 0.470602 0.500201
2 2 0.740151 0.648869 0.540584
3 2 0.802179 0.427068 0.629755
7 4 0.457046 0.891846 0.636616
1 1 0.226647 0.94418 0.900267
8 4 0.1495 0.787026 0.828171
5 2 0.148385 0.743794 0.099548
ITEM: TIMESTEP
2750
ITEM: NUMBER OF ATOMS
8
ITEM: BOX BOUNDS pp pp pp
-5.0000000000000000e+00 5.0000000000000000e+00
-5.0000000000000000e+00 5.0000000000000000e+00
-5.0000000000000000e+00 5.0000000000000000e+00
ITEM: ATOMS id type xs ys zs
6 3 0.179383 0.000696282 0.3396
4 2 0.28858 0.455855 0.491387
2 2 0.743081 0.666847 0.541043
3 2 0.778306 0.430602 0.630356
7 4 0.436278 0.902278 0.639967
1 1 0.212259 0.931027 0.909671
8 4 0.157128 0.800176 0.832893
5 2 0.142424 0.757084 0.110977
ITEM: TIMESTEP
2800
ITEM: NUMBER OF ATOMS
8
ITEM: BOX BOUNDS pp pp pp
-5.0000000000000000e+00 5.0000000000000000e+00
-5.0000000000000000e+00 5.0000000000000000e+00
-5.0000000000000000e+00 5.0000000000000000e+00
ITEM: ATOMS id type xs ys zs
6 3 0.17985 0.977111 0.327879
4 2 0.271898 0.441416 0.483037
2 2 0.743543 0.685631 0.543572
3 2 0.755049 0.435003 0.62885
7 4 0.412982 0.9145 0.640827
1 1 0.197631 0.916098 0.91726
8 4 0.167183 0.814296 0.837485
5 2 0.140027 0.77183 0.120644
ITEM: TIMESTEP
2850
ITEM: NUMBER OF ATOMS
8
ITEM: BOX BOUNDS pp pp pp
-5.0000000000000000e+00 5.0000000000000000e+00
-5.0000000000000000e+00 5.0000000000000000e+00
-5.0000000000000000e+00 5.0000000000000000e+00
ITEM: ATOMS id type xs ys zs
6 3 0.179764 0.954018 0.315272
4 2 0.257812 0.427253 0.474987
2 2 0.742458 0.704416 0.548636
3 2 0.731984 0.43826 0.628542
7 4 0.387667 0.929054 0.639244
1 1 0.183979 0.901411 0.92559
8 4 0.176577 0.826858 0.843487
5 2 0.142979 0.785608 0.130103
ITEM: TIMESTEP
2900
ITEM: NUMBER OF ATOMS
8
ITEM: BOX BOUNDS pp pp pp
-5.0000000000000000e+00 5.0000000000000000e+00
-5.0000000000000000e+00 5.0000000000000000e+00
-5.0000000000000000e+00 5.0000000000000000e+00
ITEM: ATOMS id type xs ys zs
6 3 0.18003 0.930815 0.301528
4 2 0.243177 0.41502 0.468156
2 2 0.741487 0.724577 0.552797
3 2 0.710283 0.437798 0.630096
7 4 0.366035 0.941195 0.633861
1 1 0.171416 0.886564 0.935379
8 4 0.18699 0.839266 0.848836
5 2 0.147262 0.798304 0.141298
ITEM: TIMESTEP
2950
ITEM: NUMBER OF ATOMS
8
ITEM: BOX BOUNDS pp pp pp
-5.0000000000000000e+00 5.0000000000000000e+00
-5.0000000000000000e+00 5.0000000000000000e+00
-5.0000000000000000e+00 5.0000000000000000e+00
ITEM: ATOMS id type xs ys zs
6 3 0.181996 0.906562 0.28789
4 2 0.226782 0.406216 0.45938
2 2 0.73745 0.746933 0.557432
3 2 0.688087 0.438682 0.633893
7 4 0.344364 0.952318 0.628365
1 1 0.159659 0.873211 0.946803
8 4 0.196688 0.849554 0.854884
5 2 0.152892 0.809578 0.15098
ITEM: TIMESTEP
3000
ITEM: NUMBER OF ATOMS
8
ITEM: BOX BOUNDS pp pp pp
-5.0000000000000000e+00 5.0000000000000000e+00
-5.0000000000000000e+00 5.0000000000000000e+00
-5.0000000000000000e+00 5.0000000000000000e+00
ITEM: ATOMS id type xs ys zs
6 3 0.185485 0.882167 0.274732
4 2 0.210624 0.396223 0.451246
2 2 0.731149 0.773465 0.558742
3 2 0.664609 0.440664 0.634281
7 4 0.324973 0.962077 0.622105
1 1 0.148843 0.860258 0.960091
8 4 0.204873 0.855157 0.861376
5 2 0.158949 0.822076 0.159642
ITEM: TIMESTEP
3050
ITEM: NUMBER OF ATOMS
8
ITEM: BOX BOUNDS pp pp pp
-5.0000000000000000e+00 5.0000000000000000e+00
-5.0000000000000000e+00 5.0000000000000000e+00
-5.0000000000000000e+00 5.0000000000000000e+00
ITEM: ATOMS id type xs ys zs
5 2 0.162749 0.834464 0.167989
6 3 0.190196 0.859604 0.25977
4 2 0.191364 0.387008 0.444946
2 2 0.721064 0.800226 0.560275
3 2 0.639341 0.439578 0.635086
7 4 0.306449 0.970782 0.616958
8 4 0.212595 0.86005 0.868268
1 1 0.139746 0.846632 0.97386
ITEM: TIMESTEP
3100
ITEM: NUMBER OF ATOMS
8
ITEM: BOX BOUNDS pp pp pp
-5.0000000000000000e+00 5.0000000000000000e+00
-5.0000000000000000e+00 5.0000000000000000e+00
-5.0000000000000000e+00 5.0000000000000000e+00
ITEM: ATOMS id type xs ys zs
5 2 0.164292 0.847074 0.176269
6 3 0.19406 0.836892 0.244203
4 2 0.170186 0.378437 0.440289
2 2 0.708828 0.825858 0.563358
3 2 0.614656 0.435569 0.63528