LAMMPS data file via write_data, version 29 Aug 2024, timestep = 100000, units = lj

673 atoms
4 atom types
482 bonds
1 bond types
441 angles
2 angle types

-4.496439 4.496439 xlo xhi
-4.496439 4.496439 ylo yhi
-4.496439 4.496439 zlo zhi
0 0 0 xy xz yz

Masses

1 1
2 1
3 0.1
4 0.1

Bond Coeffs # harmonic/omp

1 100 0.45

Angle Coeffs # harmonic/omp

1 100 180
2 100 109.471

Atoms # full

275 59 2 0 -4.469013827173495 -2.995990462768706 -3.2962436248941858 1 0 0
43 9 3 0 -2.9899357303939134 -3.018596712869149 -3.108010537917361 1 0 1
8 2 3 0 -4.033641374887546 -1.7851254965426033 -3.3091854470273 1 0 0
277 59 4 0 -4.056439729239733 -2.882940449124756 -3.0977259366592724 1 0 0
10 2 3 0 -4.006558510935239 -2.483996526233693 -3.1100815226868117 1 0 0
561 154 4 0 -2.5451919550471813 -4.473609637263001 -1.4946972703465429 2 1 0
349 83 4 0 -2.370100214108457 -1.609809441523936 -3.0539652915019424 2 1 0
273 58 4 0 -3.421355198558354 -0.6340242465516805 -3.345904903160815 1 0 0
245 49 3 0 -3.772858384449656 -0.5181550796133787 -3.5570849071419426 2 0 1
243 49 3 0 -3.93300779538281 -0.4589618855640589 -4.307836967445003 2 0 1
241 49 1 0 -3.9119448176048923 -0.21975542387607216 -3.8784789316735 2 0 1
472 124 4 0 -4.098190184788471 -0.8011152632038643 -3.5814838021374293 2 0 0
242 49 3 0 -4.319478903813098 -0.04771807978122666 -3.7714556851197427 2 0 1
272 58 2 0 -2.9881607159759698 -0.5361835651607647 -3.215508988398212 1 0 0
274 58 4 0 -2.5645648908562286 -0.4563352773445368 -3.0771266541930355 1 0 0
532 144 4 0 -2.1632165896804136 -0.3663789575278589 -3.048180070368861 2 0 1
530 144 2 0 -1.757922891511547 -0.11316582873517778 -3.19693326634349 2 0 1
264 55 4 0 -3.0736156881188137 -3.157961012058095 -1.984734862981861 1 0 0
45 9 3 0 -3.125387680917279 -3.033932283818312 -2.3734667816009454 1 0 1
42 9 3 0 -3.720233680596228 -2.980375451995125 -2.8713238832795858 1 0 1
9 2 3 0 -3.541489648604088 -1.9870722452497986 -2.7888462401850704 1 0 0
41 9 1 0 -3.258885676619286 -2.8596436536901217 -2.777710531580585 1 0 1
44 9 3 0 -3.220961226551451 -2.421958093929541 -2.758948065993387 1 0 1
294 65 4 0 -3.3212752187003063 -2.144419899599842 -2.478862306763518 1 0 0
293 65 2 0 -3.3444140835642786 -2.012876774257301 -2.0612111833512117 1 0 0
348 83 4 0 -3.131476207680054 -2.0169056087001853 -2.7954182558506044 2 1 0
6 2 1 0 -3.9672445004333845 -2.058512391649198 -2.9755606605718268 1 0 0
7 2 3 0 -4.28702040392743 -1.9645640924853973 -2.6517211577757855 1 0 0
263 55 2 0 -3.193948196595332 -2.9879661459729445 -1.5816603850019284 1 0 0
295 65 4 0 -3.3896790792311635 -1.8684260993204234 -1.612310338304539 1 0 0
252 51 4 0 -2.767760731826236 -2.9718145136764478 -2.1717814176735666 1 0 0
251 51 2 0 -2.292590134541442 -2.948364654152139 -2.1685160832845836 1 0 0
253 51 4 0 -1.8198958974323647 -2.92024376714814 -2.169784987951874 1 0 0
347 83 2 0 -2.7525969190027997 -1.815707057994894 -2.9275342880643818 2 1 0
460 120 4 0 -1.5849800870735171 -2.7729616962720653 -1.8647497953353822 1 0 0
458 120 2 0 -1.198014404616361 -2.6234564086804535 -1.72372431363726 1 0 0
459 120 4 0 -0.7636063876735126 -2.4635024661875753 -1.5690177847382536 1 0 0
27 6 3 0 -2.1032782791716866 -1.3419273993996486 -2.9074334019815664 1 0 0
483 128 4 0 -2.422236495762138 -0.21777992318629646 -2.7737152565394894 2 0 0
29 6 3 0 -2.3218578994770174 -0.6447924368364393 -2.8241897084438623 1 0 0
30 6 3 0 -2.2917463515521797 -1.0896553720880497 -2.24022070361877 1 0 0
26 6 1 0 -2.09825378384349 -0.9860747468853392 -2.6400417865139607 1 0 0
28 6 3 0 -1.6658938302714108 -0.8701915210121229 -2.560975267201189 1 0 0
482 128 2 0 -2.4489154808007183 -0.012673141594954807 -2.356851711667183 2 0 0
345 82 4 0 -1.4423065245401396 -0.5745374448224432 -2.3372721330545003 1 0 0
344 82 2 0 -1.345283522413323 -0.18364158791055463 -2.1473112020325718 1 0 0
289 63 4 0 -4.3412885818744344 -3.5126658600532537 -0.22795486599396675 1 0 0
382 94 4 0 -4.016715010204893 -3.271940180641841 -0.25492682734909256 2 1 0
380 94 2 0 -3.7359503313707125 -3.027822989805551 -0.5294236159587387 2 1 0
475 125 4 0 -2.7803312522171932 -4.470560185733962 -1.1687062623842501 1 0 0
153 31 3 0 -1.780620134325979 -3.943298994774078 -1.2911324354742089 1 0 0
152 31 3 0 -2.3995755032992494 -4.340167023717947 -1.1497458998796866 1 0 0
154 31 3 0 -2.0675649583464653 -3.908519124442994 -0.6384768303457249 1 0 0
151 31 1 0 -1.9937906375101546 -4.17735706614283 -0.9795010576689345 1 0 0
160 32 3 0 -1.2972567174000513 -4.121951776191948 -1.5185702520576427 1 0 0
499 133 4 0 -1.3863162620472145 -3.8218271889629016 -1.2704443318198004 1 0 0
497 133 2 0 -1.0480212347641547 -3.560171553106865 -1.0920658193747665 1 0 0
190 38 3 0 -0.36733451762178326 -3.0890750256306663 -0.9513606970411779 1 0 1
498 133 4 0 -0.7124182170682491 -3.3152381740046 -0.9247655128846586 1 0 0
381 94 4 0 -3.4527796622607343 -2.784729909468491 -0.8036551166723598 2 1 0
265 55 4 0 -3.318674843169376 -2.8159100641187567 -1.1773801977308302 1 0 0
35 7 3 0 -3.1531033236895416 -1.9123997570813112 -0.5862192419456616 1 0 0
34 7 3 0 -3.110721635284166 -2.5716532881033647 -0.9118805202968483 1 0 0
33 7 3 0 -3.10004627891081 -1.9256717650054425 -1.315655469436737 1 0 0
31 7 1 0 -2.965576321626008 -2.130185338043399 -0.9187170979181696 1 0 0
32 7 3 0 -2.5079497421427623 -2.124525980126383 -0.8838487393302072 1 0 0
282 61 4 0 -2.19776844071988 -1.8653055033129116 -0.8444387805962714 1 0 0
281 61 2 0 -1.8286640457025882 -1.6207894758048824 -0.7453806082799783 1 0 0
188 38 3 0 -0.43252737996769053 -2.4391121578998307 -1.306889514819645 1 0 1
186 38 1 0 -0.14269461080064172 -2.7659678529043012 -1.1783111185330633 1 0 1
470 124 2 0 -4.488984239004102 -1.0758358411765032 -3.5502306436003397 2 0 0
476 126 2 0 -4.221126169900403 -0.3594409516215453 -0.913648123388719 2 0 0
477 126 4 0 -3.8205055590233057 -0.1767303928170847 -1.0737766491473661 2 0 0
23 5 3 0 -1.2591205541546344 -1.390376279548791 -0.2864643567103764 1 0 0
262 54 4 0 -1.0693807215163078 -1.2733221004454531 -0.6133459699289054 1 0 0
283 61 4 0 -1.4727975449573356 -1.3813453610507223 -0.6489702488690696 1 0 0
261 54 4 0 -0.2806242223110047 -0.8252977989142161 -0.8606750756308363 1 0 0
260 54 2 0 -0.6870100685544283 -1.0523923481967419 -0.7360002585955931 1 0 0
330 77 4 0 -0.017511879931623398 -0.6828667690975556 -1.122409158180544 1 0 0
502 134 4 0 -2.8735555985889043 -4.3437291795179735 0.9742932790340646 1 0 0
182 37 3 0 -2.6455842343878944 -4.018962934024041 1.004863000741124 1 0 0
583 161 4 0 -2.4666365668761405 -4.380930350007113 0.9918764588285045 2 1 0
183 37 3 0 -2.641197623493569 -3.4693270900719 1.496155804421945 1 0 0
181 37 1 0 -2.6297741449907193 -3.577456622611678 1.0553545425646123 1 0 0
185 37 3 0 -3.0032880980527046 -3.386193190148076 0.840770528500598 1 0 0
184 37 3 0 -2.2621995406941737 -3.4187573276907943 0.8679259722579387 1 0 0
292 64 4 0 -0.1100630028516747 -4.27095895773589 0.28623233549791394 0 0 0
290 64 2 0 -0.49394415649746737 -4.469201350284958 0.1549029112561291 0 0 0
51 11 1 0 -1.3329629135334895 -1.861853538414446 1.42142049124773 1 0 0
25 5 3 0 -1.495891436401255 -1.970637215292128 0.18822935166426458 1 0 0
53 11 3 0 -1.119864177209148 -2.1980693768599235 1.2043289633993526 1 0 0
21 5 1 0 -1.207023751212803 -1.6043228777339955 0.15760456298166048 1 0 0
24 5 3 0 -0.7765904697252624 -1.7472464419500353 0.21944540411304558 1 0 0
429 110 4 0 -4.188260312004751 -0.7534949032494351 1.3376223776961575 1 0 0
48 10 3 0 -4.1586519495840175 -0.3495639036511031 1.4039287176259565 1 0 0
624 175 4 0 -4.369628400307285 -0.5189587572425642 1.0857518565875903 2 0 0
319 73 4 0 -2.5324211118181807 -0.7783290724587681 1.2240797880460725 1 0 0
327 76 4 0 -2.305313578199364 -0.7758714119135051 0.9093072988271045 1 0 0
326 76 2 0 -1.8920909530906305 -1.0107397982852846 0.8826052509323565 1 0 0
328 76 4 0 -1.4978711461981051 -1.241491334053765 0.858893675070072 1 0 0
54 11 3 0 -1.3317850621484544 -1.468149941703281 1.1494362723809912 1 0 0
22 5 3 0 -1.3165985718635884 -1.2742522991350396 0.5086727118786385 1 0 0
303 68 4 0 -1.0990309229441704 -1.3194189596474155 0.8531724306897024 1 0 0
302 68 2 0 -0.7715752308151433 -0.9792783459683396 0.9178951130170478 1 0 0
304 68 4 0 -0.44712499096805747 -0.6453903549756821 0.9790436813838372 1 0 0
246 50 1 0 -3.2179949992392767 -2.365939710729406 2.986974474425976 3 1 0
507 136 4 0 -3.764312494467691 -1.7409369292220305 2.883843703343219 2 0 0
506 136 2 0 -4.1990867473511955 -1.741805258007302 2.6657808583507956 2 0 0
250 50 3 0 -3.4486123509449005 -2.7397392593857357 2.926324230555424 3 1 0
70 14 3 0 -2.86479291514401 -1.6655499123070676 2.348699174456054 1 0 0
247 50 3 0 -2.9297113077371106 -2.2823659621320846 2.6013735928204778 3 1 0
333 78 4 0 -2.703338370648547 -2.0303076871356556 2.400888473879573 1 0 0
52 11 3 0 -1.7515165788371805 -1.980462077992403 1.5177227657634536 1 0 0
332 78 2 0 -2.3779956925867847 -2.0406589990981856 2.0699003314050595 1 0 0
334 78 4 0 -2.0677568703965465 -2.050866651575662 1.7558848929710873 1 0 0
339 80 4 0 -1.531914024125061 -2.588759145196479 2.7056726228040393 1 0 0
338 80 2 0 -1.3176781554619752 -2.3540419522601668 2.3906474558848148 1 0 0
55 11 3 0 -1.1040035106070185 -1.7722431474231288 1.8425552202555986 1 0 0
340 80 4 0 -1.083915184863561 -2.08590261950282 2.047875732656011 1 0 0
301 67 4 0 -0.8258446315894727 -1.8097244089292808 2.144000321038825 1 0 0
299 67 2 0 -0.40989193831550175 -1.7152670926797233 2.27375479929466 1 0 0
68 14 3 0 -3.4433466318713744 -1.5246300964853061 2.8058484262747454 1 0 0
428 110 2 0 -3.8612267468506745 -1.029436125020946 1.5142348860786417 1 0 0
69 14 3 0 -3.4924741306780582 -1.4564469070185933 2.076088087491466 1 0 0
66 14 1 0 -3.219232954117208 -1.403773413255839 2.4133286967258174 1 0 0
430 110 4 0 -3.5424854622044557 -1.288528118395042 1.683270518968853 1 0 0
67 14 3 0 -3.0760358621855968 -0.934366908731906 2.4351118318703238 1 0 0
323 75 2 0 -3.3638381940050923 -0.3196575361560283 2.4248619101091364 1 0 0
324 75 4 0 -3.7425881966306247 -0.06245229742490821 2.4513639713710793 1 0 0
49 10 3 0 -3.914974770426557 -0.10461685726617809 2.07959690605822 1 0 0
78 16 3 0 -2.2876801469503985 -1.2648500100834439 2.845525470741906 1 0 0
325 75 4 0 -2.9594326448142114 -0.5822636856521006 2.4001008565853432 1 0 0
318 73 4 0 -2.7941759667421975 -0.8430357238841149 2.142071584537679 1 0 0
77 16 3 0 -2.5697160005738455 -0.6976970739726993 2.4531060878836657 1 0 0
317 73 2 0 -2.6645699910341856 -0.8074327385078419 1.6887628322707968 1 0 0
76 16 1 0 -2.2699435338446254 -0.821524188732611 2.793429964844532 1 0 0
79 16 3 0 -1.846534965953027 -0.7006704502248216 2.6854828507794606 1 0 0
316 72 4 0 -1.5896301829140613 -0.4038086630811941 2.582373725176571 1 0 0
314 72 2 0 -1.1918506073576753 -0.1568777447050973 2.607343254834089 1 0 0
543 148 4 0 -4.284698678625168 -4.447358515396011 4.122000905347703 1 0 0
249 50 3 0 -3.5040388710410775 -2.0129823742535535 3.033388167409691 3 1 0
336 79 4 0 -3.5337835615442166 -1.6317461931416237 3.184365071678246 1 0 0
343 81 4 0 -3.9209117094253614 -1.749049896504642 4.288363782509619 1 0 0
335 79 2 0 -3.6905421650372365 -1.552261079854039 3.613202342285372 1 0 0
248 50 3 0 -2.9742780044211248 -2.396831400068068 3.3431974915240295 3 1 0
613 171 4 0 -4.207588024225539 -0.134703846245376 3.5011595976631495 2 0 0
612 171 4 0 -3.8309216377931596 -0.3004018709970566 4.3297760274205315 2 0 0
611 171 2 0 -4.009742216832921 -0.22255825851545463 3.9332424829924806 2 0 0
337 79 4 0 -3.829259407299995 -1.486481290292371 4.019315587864143 1 0 0
80 16 3 0 -2.3930638151460006 -0.6221555417283477 3.183394483211055 1 0 0
341 81 2 0 -4.307369994878444 -1.9152617198141222 4.492626872556685 1 0 0
662 188 2 0 -3.1042959031769533 0.5479967097330274 -3.9741758369517726 2 0 1
663 188 4 0 -3.2349650748752055 0.10205152389342143 -3.9624882427606067 2 0 1
244 49 3 0 -3.6202305504713173 0.10674887980199355 -3.9155184382541584 2 0 1
203 41 3 0 -3.1008327345943067 1.0567528036328842 -3.0177794280053942 2 0 0
619 173 4 0 -4.375137350645474 1.206765515876203 -3.56167392139875 2 0 1
618 173 4 0 -4.4935857139002575 0.3224373708598085 -3.7372072641541254 2 0 1
617 173 2 0 -4.431064678603717 0.7531018533786051 -3.653501202312206 2 0 1
664 188 4 0 -2.96719703468281 1.011606611449258 -3.996279784983662 2 0 1
204 41 3 0 -2.8570425985466787 1.2794688512450438 -3.7174048034902545 2 0 0
657 186 4 0 -2.671464332432536 1.2398366111212678 -4.085552558679007 2 0 1
656 186 2 0 -2.2884012533755995 1.3891264908091285 -4.273958736747251 2 0 1
201 41 1 0 -2.9088063871173686 1.4122869106557259 -3.2686185606670657 2 0 0
205 41 3 0 -2.492122855251658 1.5177810171139532 -3.0939328469568563 2 0 0
531 144 4 0 -1.3868558537227291 0.12037905458336162 -3.335993036203143 2 0 1
297 66 4 0 -0.976924238193273 0.1761410531623886 -3.3948137278398782 1 0 1
296 66 2 0 -0.536167616423215 0.3765145812884034 -3.333342356884916 1 0 1
298 66 4 0 -0.11543962622909465 0.5602268680103721 -3.278512741120829 1 0 1
633 178 4 0 -4.332077126154342 1.5325501602637495 -3.323707756641486 2 0 1
632 178 2 0 -3.9566526953344097 1.7449890445427974 -3.2992629761958874 2 0 1
218 44 3 0 -4.077277372331051 2.947392770552823 -4.110876935350024 2 0 1
654 185 4 0 -3.1257444611335368 2.907863398563851 -3.9789734949196207 2 0 1
653 185 2 0 -3.205972826330173 2.498592344635351 -3.7490624984239953 2 0 1
202 41 3 0 -3.1947518766619987 1.8069225158115172 -3.2450318712743482 2 0 0
655 185 4 0 -3.284188134435465 2.096388284340742 -3.525648474490086 2 0 1
634 178 4 0 -3.559218981661158 1.9539278473309771 -3.2805657458355775 2 0 1
598 166 4 0 -3.2711139394267708 2.183470589859147 -3.129251244028392 2 0 0
658 186 4 0 -1.908646429027959 1.5407037300189277 -4.4637302775322505 2 0 1
5 1 3 0 -0.21277531604261313 1.5921685938691796 -3.1187737116621013 1 0 0
518 140 2 0 -4.462190817656336 3.701340328157019 -3.4260471807633333 1 -1 1
661 187 4 0 -3.10631410893616 3.2158604880024937 -4.283548270027381 2 0 1
220 44 3 0 -3.3950435275455515 3.2188614508266795 -4.039227719077557 2 0 1
616 172 4 0 -3.0480618475446475 3.304461554500281 -3.898568152083012 2 0 1
217 44 3 0 -3.9543374149115644 3.69039797124982 -4.084665868403878 2 0 1
216 44 1 0 -3.788095405682699 3.2894016515862265 -4.22723004771734 2 0 1
544 148 4 0 -4.275960884527945 3.8781051392091532 -4.230078366359988 1 -1 1
520 140 4 0 -4.298256899604899 3.723931831720942 -3.8558609361167036 1 -1 1
614 172 2 0 -2.8505381403710945 3.5517607269837095 -3.569132501169047 2 0 1
615 172 4 0 -2.641080422488961 3.8145843788974068 -3.224413768894454 2 0 1
197 40 3 0 -2.30868338310926 3.6108074739505804 -3.181681454165289 2 0 0
122 25 3 0 -1.1577844898176424 3.3104775274855154 -4.3432389631478925 1 0 1
435 112 4 0 -0.11390398892806086 3.434408764490147 -4.487553423512706 1 0 1
484 128 4 0 -2.4755057371413653 0.17841725450442958 -1.9641086429665489 2 0 0
115 23 3 0 -1.5013590377555333 0.35894699221159687 -1.6866266510687042 1 0 0
113 23 3 0 -2.2530598200721075 0.20115080330668178 -1.607766833014698 1 0 0
454 118 4 0 -2.643576828094873 0.10042744570741036 -1.6324911802417583 2 0 0
346 82 4 0 -1.2482103103829196 0.2288384305211828 -1.9542328099225426 1 0 0
258 53 4 0 -0.2026683109806262 0.7678298921545776 -2.3323848821665476 1 0 0
3 1 3 0 -0.22522947719409014 1.101674760047036 -2.5400257277778104 1 0 0
257 53 2 0 -0.015089416874597639 0.36294637331770563 -2.217269903137698 1 0 0
384 95 4 0 -1.1516704057636278 0.5414177437214516 -1.7134950129629933 1 0 0
383 95 2 0 -0.8177935550845015 0.8353178773626713 -1.5418602419042289 1 0 0
597 166 4 0 -3.040336760362657 2.374087065108955 -2.252083881445926 2 0 0
565 155 4 0 -2.9970951232161287 2.399780555048233 -1.8609600021304549 2 0 0
596 166 2 0 -3.16569771199131 2.2780183836883774 -2.688207565536122 2 0 0
563 155 2 0 -3.304218575569454 2.209341101424803 -1.5516283432518296 2 0 0
555 152 4 0 -2.8555254571142616 2.691950653487072 -2.1345610338472834 2 0 0
83 17 3 0 -2.6593614266870436 2.367224475926072 -2.1052500922746087 1 0 0
85 17 3 0 -2.3516384486801463 1.8794940658707473 -1.6492769514326575 1 0 0
81 17 1 0 -2.2851689326951505 2.1193112158218144 -2.014566845090051 1 0 0
84 17 3 0 -2.206430781290446 1.8605561147910672 -2.344556164197881 1 0 0
82 17 3 0 -1.9442902085263034 2.3936062083794614 -1.9575483603643145 1 0 0
577 159 4 0 -1.5596333503999404 2.5451517371717784 -1.9333042837849401 2 0 0
570 157 4 0 -1.7750131938539666 2.4963672683305713 -1.5907901408933216 2 0 0
575 159 2 0 -1.5198694907359074 2.8786003662910753 -2.2612821640178398 2 0 0
13 3 3 0 -4.4827511344059845 3.313834936384521 -2.1279854464184 1 -1 0
606 169 4 0 -4.193376699543591 3.4473419375307683 -1.8798855507659833 2 0 0
605 169 2 0 -3.984103171045398 3.7079403314953003 -1.5570369289696977 2 0 0
198 40 3 0 -1.8654803080584506 4.080365932274158 -2.8854136257117 2 0 0
556 152 4 0 -2.556362878504098 3.521915263161719 -2.2130646301967314 2 0 0
554 152 2 0 -2.707866343500571 3.1108094954414245 -2.176278903758342 2 0 0
196 40 1 0 -2.0573840328512136 3.6911051173341383 -2.831881565102639 2 0 0
560 154 2 0 -2.412549952650445 4.15812629126381 -1.8009642151398584 2 0 0
199 40 3 0 -2.3145303013927565 3.6928288936749754 -2.468504124072646 2 0 0
562 154 4 0 -2.301134208233269 3.82031413967771 -2.0882855483948943 2 0 0
200 40 3 0 -1.7395830947117097 3.3714734617579643 -2.813810969078385 2 0 0
576 159 4 0 -1.485435504969614 3.1895780683521586 -2.5846617441759325 2 0 0
157 32 3 0 -1.3143817823388706 4.3524576723955155 -2.0316052826866486 1 -1 0
156 32 1 0 -1.1837757798520103 4.436678050414478 -1.6386725597065377 1 -1 0
159 32 3 0 -0.726400863556822 4.399722549866152 -1.6215322543961648 1 -1 0
452 118 2 0 -3.0637549452018122 0.06710225101804745 -1.458571858549341 2 0 0
214 43 3 0 -3.446842173287185 1.2896866318370535 -0.7048086075275579 2 0 0
267 56 4 0 -3.8015502090903555 1.126983354610334 -0.7169621847903516 1 0 0
268 56 4 0 -3.8152687924278497 0.24579930780970827 -1.0862430475855405 1 0 0
266 56 2 0 -3.8156101572765615 0.6775195547456381 -0.9003235526441666 1 0 0
551 151 2 0 -2.4546651965686204 1.3510578104036783 -1.2737917739557583 2 0 0
553 151 4 0 -2.410199982034407 0.9244604347200278 -1.2815425751785 2 0 0
114 23 3 0 -1.9976653264476827 0.8689046545720283 -1.3815442007850347 1 0 0
111 23 1 0 -1.8972983277912912 0.42059098111603355 -1.419511486175792 1 0 0
112 23 3 0 -1.8201753833470615 0.2460602337698612 -0.9889700764770373 1 0 0
385 95 4 0 -0.4769801244114511 1.1234385549544292 -1.368462923512619 1 0 0
90 18 3 0 -0.1619315766057623 1.0163714591899131 -1.1573106726462203 1 0 0
95 19 3 0 -0.24289570355402024 1.4622720820766775 -1.3704810493676396 1 0 0
584 162 2 0 -4.230877107503229 1.665341231602893 -1.4575143311180607 2 0 0
586 162 4 0 -3.85730025240157 1.7479390760716518 -1.2659887367477314 2 0 0
213 43 3 0 -3.855802423258214 1.6768267402019088 -0.24588625640766448 2 0 0
564 155 4 0 -3.5937955178389553 2.030842279277916 -1.2697981979837372 2 0 0
211 43 1 0 -3.546179841384225 1.6974045674421037 -0.5823044678377727 2 0 0
215 43 3 0 -3.1726861706887153 1.9117205143147862 -0.4350437903885638 2 0 0
212 43 3 0 -3.7100342335265717 1.915445248264259 -0.9180879350164983 2 0 0
603 168 4 0 -4.222886920815661 2.8342738337520004 -0.04887034752936881 2 0 0
591 164 4 0 -2.8455758370481483 1.8685824835179359 -0.20470846373756402 2 0 0
552 151 4 0 -2.5081557559719867 1.8244686051223997 -1.2668513877782792 2 0 0
590 164 2 0 -2.5168570591746438 2.0961371238540147 -0.3767593387989434 2 0 0
592 164 4 0 -2.18187955007851 2.326415712292161 -0.561495955314105 2 0 0
351 84 4 0 -1.9920113056234254 2.558081277136135 -0.29059231806466457 1 0 0
569 157 2 0 -1.809630895927779 2.4962648127217264 -1.126061681722872 2 0 0
571 157 4 0 -1.840273612977204 2.5030324498980336 -0.676175191021172 2 0 0
350 84 2 0 -1.7042044938632528 2.848494516848734 -0.05717637009491039 1 0 0
94 19 3 0 -0.3767566722928519 2.139707277272284 -1.0507226483895638 1 0 0
91 19 1 0 -0.048738437100276144 1.8646397716315972 -1.234008493768008 1 0 0
545 149 2 0 -4.290362847114904 4.163985906205574 -0.5826058145368029 2 0 0
473 125 2 0 -3.174204106419631 4.329803590465263 -1.029667496808817 1 -1 0
546 149 4 0 -3.976416326973786 4.014476192057034 -0.8659673317034602 2 0 0
474 125 4 0 -3.60080540188762 4.122352634666487 -0.8784562771224849 1 -1 0
607 169 4 0 -3.7673583487722038 3.9913684256514435 -1.2138613045253965 2 0 0
489 130 4 0 -1.375640746715972 4.342246533653506 -0.9900366601891055 1 -1 0
155 31 3 0 -1.7156197308796526 4.453769029464122 -0.8386810000722091 1 -1 0
158 32 3 0 -1.3637211799523676 4.138892215460724 -1.3455534796893334 1 -1 0
488 130 2 0 -1.2238296197535803 4.183579637589868 -0.587715226627302 1 -1 0
490 130 4 0 -1.065221959356164 4.021668726451881 -0.16059853647584443 1 -1 0
453 118 4 0 -3.52484269284225 0.03835498590544972 -1.278287399119725 2 0 0
652 184 4 0 -3.2826354191481832 0.8213703500891887 0.5949659296657996 2 0 0
650 184 2 0 -3.3879130130099275 0.594631361835166 0.9760588403809525 2 0 0
587 163 2 0 -4.293499923637044 1.1563867690654792 0.1928358346282577 2 0 0
588 163 4 0 -3.9331225125088705 1.4629045736893893 0.09420811202105117 2 0 0
208 42 3 0 -2.984193422581616 1.1245955398991212 0.6143049349332426 2 0 0
651 184 4 0 -3.4860821905449897 0.3646076943449481 1.3760679788706653 2 0 0
206 42 1 0 -3.0849906420601583 1.5160204439978235 0.39183794117728254 2 0 0
209 42 3 0 -3.535519612253975 1.499786761162782 0.2170208031853038 2 0 0
207 42 3 0 -3.0592484133056574 1.857708389517235 0.6771046487084673 2 0 0
224 45 3 0 -3.475508255130017 2.2953212840500097 0.5910326550112099 2 0 0
221 45 1 0 -3.889552247900104 2.2456692211713163 0.4269651630445326 2 0 0
223 45 3 0 -3.958104811970324 2.5504185695679285 0.0995725067915263 2 0 0
225 45 3 0 -3.939814096574651 1.818301500260743 0.25886740967846844 2 0 0
222 45 3 0 -4.177103680073557 2.309829866082244 0.7486797037878334 2 0 0
666 189 4 0 -3.085658690817815 2.274534953720816 0.7018817474399679 2 0 0
665 189 2 0 -2.734164165681685 2.5034301622123136 0.9055714244728401 2 0 0
667 189 4 0 -2.374718983950046 2.7493280749252866 1.1157080639368777 2 0 0
646 182 4 0 -2.0382341731124565 2.8380645584063915 1.3231814646199354 2 0 0
639 180 4 0 -2.3871687655588687 2.9202148475134564 1.4926533431109856 2 0 0
210 42 3 0 -2.8134062983123886 1.5725745873054313 0.06351389424152742 2 0 0
162 33 3 0 -3.933451112242792 4.385492821790117 0.4960330246895355 1 -1 0
165 33 3 0 -4.263359346468087 3.7681149082283776 0.4905281779629789 1 -1 0
161 33 1 0 -4.316403039014709 4.1975422202891535 0.5022371242513861 1 -1 0
501 134 4 0 -3.6708650219866055 4.323952070555827 0.7875742958804208 1 -1 0
500 134 2 0 -3.2728825535580004 4.484098892370285 0.8786409470629861 1 -1 0
581 161 2 0 -2.0625790663403514 4.406724747282921 0.9498434072337032 2 0 0
644 182 2 0 -1.6141380620286139 3.041712974730161 1.4469640301239712 2 0 0
192 39 3 0 -1.6923960460352285 3.8310903446132984 0.2624578305237293 2 0 0
582 161 4 0 -1.6449336427863392 4.18299768822567 0.8991959721912117 2 0 0
352 84 4 0 -1.425937613901631 3.129743253366896 0.17824722592676867 1 0 0
193 39 3 0 -1.3550403212889934 3.9056088236820186 0.8963597113091586 2 0 0
191 39 1 0 -1.3144192389358498 3.7634567641739105 0.46425518589683 2 0 0
194 39 3 0 -1.2255347252418587 3.3206511842306954 0.46491530651279245 2 0 0
195 39 3 0 -0.9868943414414937 3.9930246588647256 0.25410233436377805 2 0 0
291 64 4 0 -0.8826260099245231 4.32658004026847 0.022139420498706208 0 -1 0
404 102 2 0 -3.377893028788252 0.7540833995364657 2.053521792333994 1 0 0
406 102 4 0 -3.138553252038964 0.9589160799348564 2.385464819354625 1 0 0
405 102 4 0 -3.6291307281382394 0.5447826442486914 1.7058631920595237 1 0 0
47 10 3 0 -3.868121152024779 0.35416821344810145 1.471054817734208 1 0 0
46 10 1 0 -4.124442135912708 0.022511706644161578 1.6834057164399097 1 0 0
63 13 3 0 -0.4935877133060158 0.2076939317451485 2.819194613399845 1 0 0
315 72 4 0 -0.8274615702256831 0.07549966526008856 2.640796648165331 1 0 0
234 47 3 0 -4.465990852065459 2.815630005444315 2.8596765028783944 2 0 0
230 46 3 0 -4.370453686857711 3.3827593308104085 2.8129125692219468 2 0 0
642 181 4 0 -3.360877178249437 3.027548965317264 2.309744056375063 2 0 0
641 181 2 0 -3.767307054611514 3.043499333976997 2.5378736348945816 2 0 0
640 180 4 0 -3.0122985133946596 3.2033210620853048 2.1366415386491058 2 0 0
643 181 4 0 -4.1635989464538365 3.0610724688905036 2.762210024591517 2 0 0
638 180 2 0 -2.7046236269892123 3.061256238346184 1.8231547056056767 2 0 0
645 182 4 0 -1.1689549829604169 3.259474411754187 1.5705745243298432 2 0 0
622 174 4 0 -0.7679255851206737 3.3344966997383354 1.5059658848587096 2 0 0
620 174 2 0 -0.36282789668688054 3.509321946756434 1.6801999344250742 2 0 0
61 13 1 0 -0.13805862094719856 0.1458462671097953 3.070992458080858 1 0 0
627 176 4 0 -1.9419492038104629 1.8647242625640574 4.308409629677283 2 0 0
626 176 2 0 -1.5798202401213906 2.1527178598841124 4.360639017119621 2 0 0
628 176 4 0 -1.235016529404382 2.4305244382223874 4.420771550524763 2 0 0
124 25 3 0 -0.8931811716818321 2.6367262055992606 4.4591126267140355 1 0 0
635 179 2 0 -4.182483351279191 3.201490374084636 3.5747802730756097 2 0 0
637 179 4 0 -4.003502188034197 3.2926372051096457 3.987998856522405 2 0 0
636 179 4 0 -4.3708287125309475 3.1063770997466156 3.12051462320127 2 0 0
219 44 3 0 -3.738808056906439 3.2947800728212293 4.329502962651676 2 0 0
542 148 2 0 -4.281000670412633 4.216753900446231 4.435066803402649 1 -1 0
660 187 4 0 -2.4318771152690366 3.18055164865269 4.111224300990062 2 0 0
659 187 2 0 -2.7657369430394585 3.2072124014675802 4.410002288424628 2 0 0
125 25 3 0 -1.0264717666414582 3.1554063882543835 3.931116914285705 1 0 0
123 25 3 0 -0.4606223934854743 3.246516259197781 4.40684572377796 1 0 0
121 25 1 0 -0.8860298207023343 3.087583301370043 4.365675418650571 1 0 0
64 13 3 0 -0.2628391964317789 0.0015206585028737507 3.4796862989132835 1 0 0
415 105 4 0 2.6033734202575705 -3.831462051559794 -3.4090259667108747 1 1 1
358 86 4 0 2.6415515053759764 -3.842592034165853 -3.8156264752459665 1 1 0
413 105 2 0 2.422923159868705 -4.1137353070239895 -3.0886713596916326 1 1 1
356 86 2 0 2.36605752366267 -4.005130532238921 -4.144789319963364 1 1 0
408 103 4 0 2.9347117044344184 -3.72153460142621 -3.5825376781647424 1 1 1
467 123 2 0 3.735045530138799 -0.4018395145583229 -1.2726404848494557 1 0 0
407 103 2 0 3.3413129503993746 -3.4882266520583496 -3.602976464969037 1 1 1
409 103 4 0 3.7506904612362346 -3.256532551937185 -3.6171463830629125 1 1 1
306 69 4 0 4.04306534425051 -3.1993954521078205 -3.893294522562787 0 0 1
276 59 4 0 4.110657586801646 -3.101883993573124 -3.500429477169852 0 0 0
305 69 2 0 4.140144071151828 -3.3772467267378103 -4.344846861961455 0 0 1
40 8 3 0 3.856730252069524 -2.873118286095094 -3.686713589746959 0 0 1
38 8 3 0 3.366883360989548 -2.4900113652364193 -4.056883221689202 0 0 1
37 8 3 0 3.640586182045557 -2.1790989821314164 -3.458122631522422 0 0 1
36 8 1 0 3.730459406546097 -2.4589031143537357 -3.827105604592682 0 0 1
39 8 3 0 4.044531046903942 -2.28361147073391 -4.082391443950128 0 0 1
342 81 4 0 4.307038932861178 -2.0815996208251377 -4.291702910027315 0 0 1
522 141 4 0 3.8607113788697687 -1.5266499860501765 -3.324004378605331 1 0 1
466 122 4 0 3.864825807804869 -1.5193184128021624 -3.7403136131050365 1 0 0
455 119 2 0 2.862561044313777 -0.13053659079890778 -3.3020173464662035 1 0 0
478 126 4 0 4.372159671958639 -0.5363725671182626 -0.7461398925986598 1 0 0
465 122 4 0 3.319760719394492 -1.2554869733968204 -4.417670371265508 1 0 0
464 122 2 0 3.582268124107947 -1.3817925820479706 -4.088660256025138 1 0 0
566 156 2 0 3.9751641245700577 -0.12005359721856745 -3.338663885533543 1 0 0
471 124 4 0 4.134362346673941 -1.3310937787693056 -3.523750459481369 1 0 0
469 123 4 0 4.014902919241982 -0.44038498945615423 -0.9107221259442486 1 0 0
567 156 4 0 3.6547243925130877 -0.2439579121345945 -3.020893799956447 1 0 0
457 119 4 0 3.2598377504962865 -0.2614426803120793 -3.1121746639110155 1 0 0
449 117 2 0 4.120763689053693 -0.0011731009768851663 -4.40748842017902 1 0 0
485 129 2 0 3.8039551469560395 -0.5554893295250123 -0.1648132931232862 1 0 0
414 105 4 0 2.24330318147733 -4.415315594972474 -2.7609295598840946 1 1 1
189 38 3 0 0.053861487014004616 -2.944825983179529 -1.5300179534747684 1 0 1
329 77 2 0 0.1117986435020617 -0.5375326639628719 -1.5594105358160162 1 0 0
20 4 3 0 1.0911222561998795 -0.050589768475635566 -2.630747228870044 1 0 0
331 77 4 0 0.21464941015247962 -0.415904907235606 -1.9339999359690738 1 0 0
19 4 3 0 0.5046665927219243 -0.2504100496691297 -2.183562008817426 1 0 0
18 4 3 0 0.8450292874748007 -0.7522442716481237 -2.659358279375452 1 0 0
16 4 1 0 0.9255936941297689 -0.3873687533618 -2.383353411830473 1 0 0
17 4 3 0 1.2471126364287297 -0.5050514133764326 -2.0274199739102494 1 0 0
259 53 4 0 0.1870346988037106 -0.04314913647141072 -2.103312031559527 1 0 0
504 135 4 0 1.635419770516525 -0.48825119126563 -2.109068887605095 1 0 0
503 135 2 0 2.061692530192075 -0.3405212046636681 -2.148181060253198 1 0 0
505 135 4 0 2.4644473989251336 -0.191779984594306 -2.182078238256538 1 0 0
142 29 3 0 2.8312808706112627 -0.37534556094755533 -2.2854159395752376 1 0 0
523 141 4 0 3.2946799465815335 -1.350049280274848 -2.637791678811258 1 0 1
144 29 3 0 3.156106705545908 -1.0820854738231995 -2.381452213838352 1 0 0
141 29 1 0 3.2253068173066923 -0.600471693648418 -2.3521589826261735 1 0 0
145 29 3 0 3.418289331421396 -0.4522669010408942 -2.763810836696719 1 0 0
521 141 2 0 3.580546787894476 -1.435596170702111 -2.9862626725749877 1 0 1
143 29 3 0 3.5065241056848455 -0.5083319407582643 -2.01611928113604 1 0 0
468 123 4 0 3.441941393971611 -0.3665240065892208 -1.6348841598410329 1 0 0
287 63 2 0 4.431577330938286 -3.889657926457277 -0.161738318259677 0 0 0
288 63 4 0 4.175111707356764 -4.342510532306605 -0.06106856375117253 0 0 0
187 38 3 0 0.1709829616629861 -2.58865135977468 -0.9202319717032941 1 0 1