LAMMPS data file via write_data, version 29 Aug 2024, timestep = 900000, units = lj

673 atoms
4 atom types
482 bonds
1 bond types
441 angles
2 angle types

-4.496439 4.496439 xlo xhi
-4.496439 4.496439 ylo yhi
-4.496439 4.496439 zlo zhi

Masses

1 1
2 1
3 0.1
4 0.1

Bond Coeffs # harmonic/omp

1 100 0.45

Angle Coeffs # harmonic/omp

1 100 180
2 100 109.471

Atoms # full

40 8 3 0 -1.619791451779556 -3.342860325901736 -4.215694021905848 0 0 1
276 59 4 0 -1.402106239196851 -3.4200550214371055 -3.87550747417582 0 0 0
409 103 4 0 -1.4802872313955464 -3.7047666713153675 -4.133703048612088 0 1 1
407 103 2 0 -1.5433163352187482 -4.145068625565024 -4.090566741978176 0 1 1
36 8 1 0 -2.0125118754835976 -3.1764956368193453 -4.348269970082011 0 0 1
275 59 2 0 -1.4141331778998234 -3.2448365593148067 -3.4570533737488107 0 0 0
277 59 4 0 -1.4276480070103703 -3.0674154784313736 -3.033372251631898 0 0 0
306 69 4 0 -1.2152128079858946 -3.4139233422357353 -4.226276145202883 0 0 1
37 8 3 0 -2.2622355427707173 -3.035261888934329 -3.981361731217399 0 0 1
531 144 4 0 -2.5348419526028416 -0.33185574012074626 -3.5026596549064952 1 0 1
296 66 2 0 -1.8017819580525136 -0.20080334799141678 -3.204511652141283 0 0 1
297 66 4 0 -2.111851785914215 -0.3164179480465656 -3.5012865620014133 0 0 1
7 2 3 0 -2.209904273810524 -3.4152903917124435 -2.3741735420983394 0 0 0
472 124 4 0 -4.333510007682219 -1.747898426405182 -3.0172276452720483 1 0 0
10 2 3 0 -1.7921406979998633 -3.1709761086202364 -2.91127667886134 0 0 0
8 2 3 0 -2.524182450653542 -2.9624147412137143 -2.867381650966329 0 0 0
6 2 1 0 -2.127650091455718 -3.069757593647253 -2.6230102866366067 0 0 0
9 2 3 0 -2.0096904690299433 -2.708355350599923 -2.355187216419319 0 0 0
294 65 4 0 -1.783353423133076 -2.513017803481113 -2.0814221223810625 0 0 0
347 83 2 0 -2.1731520205920916 -1.9514147104996482 -2.4171668014500742 0 1 0
44 9 3 0 -1.591325429358837 -2.521263811242837 -2.429596763296792 0 0 1
348 83 4 0 -1.9258484557521216 -2.3027103637235435 -2.378027501521466 0 1 0
349 83 4 0 -2.4218289487569304 -1.5840922680602953 -2.4500720438761383 0 1 0
42 9 3 0 -1.23559497162256 -2.718550446360314 -3.0680570524042983 0 0 1
41 9 1 0 -1.2063745649754296 -2.4534671308548637 -2.6995011431233715 0 0 1
43 9 3 0 -1.1883674290349182 -1.9947433772724794 -2.8325994407740667 0 0 1
263 55 2 0 -0.5144900213214297 -2.7883416594277914 -1.760833997211497 0 0 0
45 9 3 0 -0.8425214738634456 -2.5570068056398205 -2.477540186870092 0 0 1
264 55 4 0 -0.622633142976166 -2.5727154165001966 -2.1595142268172807 0 0 0
252 51 4 0 -0.6101402190551094 -2.2530434135510307 -2.3811747874404974 0 0 0
251 51 2 0 -0.276856367514792 -1.9071522094705786 -2.314270909805669 0 0 0
259 53 4 0 -0.5777224017763384 -0.9216012141520352 -1.5254169564441684 0 0 0
530 144 2 0 -2.8558611125474855 -0.5280583573129393 -3.2215714205121686 1 0 1
273 58 4 0 -4.036296708419298 -1.497994801407701 -3.002810338223919 0 0 0
532 144 4 0 -3.1767219610382114 -0.7329149002133426 -2.938221160785225 1 0 1
272 58 2 0 -3.7336636375187418 -1.1819423679882461 -2.8509932393487367 0 0 0
274 58 4 0 -3.4542786792840348 -0.8964128268791417 -2.6967071235264792 0 0 0
482 128 2 0 -3.6305427003782467 -0.12874997264406585 -2.475007717337984 1 0 0
29 6 3 0 -3.0970833903810497 -0.7607014135320064 -2.5545621655594357 0 0 0
483 128 4 0 -3.41283108107288 -0.49916015927898694 -2.690410447237301 1 0 0
30 6 3 0 -3.11666854065496 -1.015049032995434 -1.8598786782351613 0 0 0
26 6 1 0 -2.841983075162591 -0.8899129888264617 -2.181513932484683 0 0 0
345 82 4 0 -2.533073464874361 -0.13992585915670336 -2.002519792599555 0 0 0
298 66 4 0 -1.479115505858538 -0.07205294674254192 -2.894079156450163 0 0 1
5 1 3 0 -2.124749355137737 -0.08921752860980574 -1.9952475682024466 0 0 0
28 6 3 0 -2.596559446601745 -0.5452865214076115 -2.04664673523409 0 0 0
27 6 3 0 -2.5740838572085067 -1.2418871718197635 -2.3056132657377444 0 0 0
2 1 3 0 -1.5719473479831798 -0.06626162805847051 -2.4872258027096357 0 0 0
3 1 3 0 -1.4109663376632418 -0.29485347066265594 -1.7840263840204487 0 0 0
1 1 1 0 -1.6746101396573705 -0.00310779860129176 -2.0548088759810357 0 0 0
286 62 4 0 -1.1778776226598098 -0.14419357671639857 -2.623024280592655 0 0 0
18 4 3 0 -0.21725462083529357 -1.2654055989876107 -2.208955599161783 0 0 0
284 62 2 0 -0.7181131375269926 -0.24341821186954296 -2.608195150013507 0 0 0
16 4 1 0 -0.004978396190617091 -0.9175842198190485 -2.0170189126762987 0 0 0
285 62 4 0 -0.23969326797646476 -0.34418956540870266 -2.5953414287106322 0 0 0
20 4 3 0 -0.07025622376033598 -0.5195515364674842 -2.29897342819735 0 0 0
480 127 4 0 -0.014658501032522019 -0.11602109414873309 -2.3689450262191882 0 0 0
19 4 3 0 -0.18189452709684537 -0.8449128644610584 -1.6178971479330477 0 0 0
35 7 3 0 -1.1020729537788916 -3.705481097742785 -0.9165749769649686 0 0 0
34 7 3 0 -0.6923740432285604 -3.103930316361918 -1.1027881231585592 0 0 0
380 94 2 0 -0.01629451084656609 -3.460448938571375 -0.7806032542585766 0 1 0
381 94 4 0 -0.31906331863526055 -3.2489045000358217 -1.004297741905383 0 1 0
265 55 4 0 -0.400452980529978 -3.0130173716301463 -1.3667590159502339 0 0 0
31 7 1 0 -1.075047212740408 -3.254347961436299 -0.8938541167464018 0 0 0
32 7 3 0 -1.0723742148395214 -3.1245596994419618 -0.4625539107369299 0 0 0
293 65 2 0 -1.6142464787660513 -2.6090839598275504 -1.6838689334188195 0 0 0
33 7 3 0 -1.4533667840363929 -3.067879987149159 -1.1083977343417881 0 0 0
295 65 4 0 -1.4286097278522927 -2.709678445183268 -1.2520101457201278 0 0 0
330 77 4 0 -0.05627230841250424 -1.4646948920068465 -0.5533784435935957 0 0 0
258 53 4 0 -1.2475065925939193 -0.37152982407888685 -1.4093844457235132 0 0 0
329 77 2 0 -0.1684434377885394 -1.3320349010024073 -0.9903320896878978 0 0 0
257 53 2 0 -0.9019935626495176 -0.6548401122326711 -1.465093316500219 0 0 0
331 77 4 0 -0.28170070379912276 -1.1927007787887558 -1.4395904741920436 0 0 0
282 61 4 0 -0.8441501395997865 -3.171698014101048 -0.13232921364623246 0 0 0
270 57 4 0 -3.946119439403596 -2.522174078136925 0.6740835210264822 0 0 0
292 64 4 0 -3.9633615818850374 -2.7784937405998464 0.3059232147866394 0 0 0
290 64 2 0 -4.230002066879848 -3.0862283485543256 0.11101420168497039 0 0 0
508 136 4 0 -4.456207578826804 -1.1189173315792813 2.774400011896577 1 0 0
269 57 2 0 -4.016538343855268 -2.3957993332814707 1.0696979318755382 0 0 0
24 5 3 0 -1.3587687088793938 -2.0557261314292945 0.5753153546737109 0 0 0
53 11 3 0 -1.188769060518233 -2.492292886442308 1.5307117623829716 0 0 0
23 5 3 0 -0.6441849717617704 -2.1067563804756966 0.5604370826718983 0 0 0
283 61 4 0 -0.648917599701564 -2.4343560732080927 0.34412105608256666 0 0 0
262 54 4 0 -0.33443634583650783 -2.196446525275378 0.326176819206943 0 0 0
281 61 2 0 -0.7504220379034424 -2.8304767317836514 0.09371382554775981 0 0 0
54 11 3 0 -1.1757976892987374 -1.7646113352840962 1.5427645352483181 0 0 0
303 68 4 0 -0.8507350161213132 -1.5496298019526014 1.415269020150213 0 0 0
21 5 1 0 -0.9810589446804492 -1.8491324622333318 0.6634016124080907 0 0 0
51 11 1 0 -1.371169330383436 -2.1362576356978513 1.7066355931285169 0 0 0
302 68 2 0 -0.43397614132313433 -1.390845149636436 1.4929281732487658 0 0 0
22 5 3 0 -0.9727676442544625 -1.7460867871895263 1.0909073081540703 0 0 0
304 68 4 0 -0.040138869779971845 -1.2387908697665733 1.5592858057827612 0 0 0
25 5 3 0 -0.9656119463213158 -1.461852028677463 0.427377294898611 0 0 0
328 76 4 0 -1.2246246694343297 -1.4853523400855246 1.2469484356063987 0 0 0
326 76 2 0 -1.4992625019579735 -1.1123148077801914 1.3102550420111685 0 0 0
440 114 2 0 -1.5861142013384837 -4.043598217813186 2.5825605748045897 0 1 0
442 114 4 0 -1.7291628762938103 -4.453224889765219 2.5225377600457706 0 1 0
441 114 4 0 -1.436159831357378 -3.6148495796987126 2.660620425558178 0 1 0
339 80 4 0 -1.256884613570134 -3.2633986253304985 2.736673928535725 0 0 0
312 71 4 0 -1.084084881590428 -3.584459199340084 2.8790615648481572 0 0 0
338 80 2 0 -1.214637616172929 -2.8792147279216036 2.5221735381360153 0 0 0
271 57 4 0 -4.090908117274051 -2.2532790075405784 1.4942863788498078 0 0 0
250 50 3 0 -4.020983753963389 -2.21879914510427 1.8758659877761115 1 1 0
248 50 3 0 -3.5912413352634482 -2.655666204029077 2.2851912482640477 1 1 0
246 50 1 0 -3.6225674207410297 -2.2546109164546837 2.102863882571061 1 1 0
249 50 3 0 -3.6015526675801417 -1.9317892907714744 2.442654859032733 1 1 0
336 79 4 0 -3.3557059151544864 -1.6991302251661744 2.6273236684148484 0 0 0
247 50 3 0 -3.284247869259589 -2.1980243565613327 1.8184362627164234 1 1 0
507 136 4 0 -3.6902717244039347 -1.5421534636308425 2.498553505096791 1 0 0
335 79 2 0 -3.116605385071593 -1.758736238592647 3.0309490473950627 0 0 0
70 14 3 0 -2.9911143175490222 -1.4979648725656485 1.740106737867822 0 0 0
506 136 2 0 -4.082370849308411 -1.323941094759648 2.6407137930770017 1 0 0
334 78 4 0 -2.171894445165187 -2.223830397021528 1.5649753755915639 0 0 0
52 11 3 0 -1.794584852578813 -2.1332113111594015 1.6023052561676767 0 0 0
333 78 4 0 -3.0445747903868017 -1.8897043078695608 1.7311968839011478 0 0 0
332 78 2 0 -2.607428747587093 -2.0569209879374033 1.6496599274031767 0 0 0
340 80 4 0 -1.1740213949588374 -2.4884270276787266 2.2962870684141734 0 0 0
55 11 3 0 -1.324161902289344 -2.1578004490914395 2.1547952677609823 0 0 0
301 67 4 0 -0.9643075141431363 -2.13817762490764 2.3714173611424654 0 0 0
299 67 2 0 -0.5658818721832599 -1.9576190755284884 2.543417973314222 0 0 0
300 67 4 0 -0.1978199372628894 -1.790819744431176 2.70468702197406 0 0 0
63 13 3 0 -0.9212289161055509 -0.31287872782269394 3.476090203606757 0 0 0
64 13 3 0 -0.5417107355000468 -0.4795162139972912 4.093728529277015 0 0 0
68 14 3 0 -3.3675316389685888 -1.368267402592973 2.376218186157303 0 0 0
69 14 3 0 -3.662280954467804 -1.15528926470028 1.7342341718644116 0 0 0
66 14 1 0 -3.279858596327871 -1.2021769565542963 1.9682626657638458 0 0 0
325 75 4 0 -3.1635447229967273 -0.444741147109652 2.2094007533520186 0 0 0
323 75 2 0 -3.4127344507947965 -0.14391039357685537 2.005156444149729 0 0 0
67 14 3 0 -3.086154271741754 -0.7753450808276716 2.0153505865804955 0 0 0
319 73 4 0 -2.0142819882954224 -0.5840791950327093 1.6061061263417942 0 0 0
77 16 3 0 -2.8962982998575173 -0.5244440579253802 2.508224664595761 0 0 0
327 76 4 0 -1.757515862318126 -0.7658864898920968 1.3525637425664183 0 0 0
318 73 4 0 -2.7881815916848294 -0.5702628638938747 2.1151586350273583 0 0 0
317 73 2 0 -2.3978559474968764 -0.5773197758919241 1.8623463836539556 0 0 0
76 16 1 0 -2.7271414625625803 -0.37331940398633023 2.8735796105417455 0 0 0
78 16 3 0 -2.9773723304475785 -0.5028610753850292 3.208961333676087 0 0 0
62 13 3 0 -0.3385787972224044 -0.6936719101231689 3.4253028272682404 0 0 0
38 8 3 0 -2.255406182656828 -3.509411492920097 4.410559100612994 0 0 0
39 8 3 0 -1.9386012392137373 -2.8268722441733134 4.363236654986708 0 0 0
311 71 2 0 -0.9251022282069564 -3.5489193570758357 3.312478803452336 0 0 0
307 69 4 0 -0.6586403996387917 -3.2989404637007347 4.080080580429514 0 0 0
313 71 4 0 -0.7543923295453415 -3.5061364393598136 3.7470379405914436 0 0 0
305 69 2 0 -0.9335594847468385 -3.3563650744098985 4.4168512646111635 0 0 0
337 79 4 0 -2.886294034386391 -1.8114984312973843 3.4172166186426023 0 0 0
341 81 2 0 -2.3437499527957284 -2.2834182005377195 3.841599450630794 0 0 0
342 81 4 0 -2.0966531818956535 -2.5290414292921035 4.147027078720623 0 0 0
343 81 4 0 -2.5794822579114185 -2.045182398288711 3.5384519645105748 0 0 0
79 16 3 0 -2.301797514988789 -0.5385952974024107 2.9339433129376715 0 0 0
316 72 4 0 -1.9805544556510248 -0.7354853238244163 2.833231652442598 0 0 0
314 72 2 0 -1.5923081117440316 -0.5711686033408431 3.0391452015770417 0 0 0
61 13 1 0 -0.5223869829132547 -0.3710158540212417 3.6408561975325053 0 0 0
315 72 4 0 -1.2161085414476072 -0.42721508591435836 3.2371481475708794 0 0 0
260 54 2 0 -0.10473752840750143 -1.9338686404595586 0.0329342523259807 0 0 0
576 159 4 0 -4.464007866019591 4.415942305076625 -2.7802168617208958 1 0 0
104 21 3 0 -0.4791385376479476 1.3297140388142683 -3.33096634318364 0 0 0
656 186 2 0 -4.344605162296045 1.7679511917447233 -4.4323704238663355 1 0 1
99 20 3 0 -1.9696567016478532 1.617156023859521 -3.0326150926356394 0 0 0
101 21 1 0 -0.5783730520019046 1.733219520397886 -3.1156880709428654 0 0 0
97 20 3 0 -1.4251068467030414 2.0203474669840076 -3.3666093024479338 0 0 0
103 21 3 0 -0.7965667480435226 2.0062687794732548 -3.4173017048441845 0 0 0
390 97 4 0 -1.1087577958025205 2.101407543877648 -3.6202046684279297 0 0 1
389 97 2 0 -0.969388599856463 2.1131376954623873 -4.044978719183786 0 0 1
575 159 2 0 -4.410049289615863 4.052410531619767 -2.5053719873505833 1 0 0
358 86 4 0 -1.6782627430043286 4.1639185784272446 -4.3890315469445 0 0 0
408 103 4 0 -1.6077454887938913 4.376070774349339 -4.045807446112831 0 0 1
413 105 2 0 -1.4530101502314718 3.818006841430536 -3.718711977852888 0 0 1
415 105 4 0 -1.4619620562131441 4.0132563582837 -4.1184012582905725 0 0 1
414 105 4 0 -1.4447774654556251 3.6179699715725677 -3.3184234115420725 0 0 1
114 23 3 0 -3.8239515857650215 1.1848271438780085 -2.1861796060147083 0 0 0
111 23 1 0 -3.719626297657294 0.8873886201761537 -1.847293265281119 0 0 0
113 23 3 0 -3.9220836776738217 0.4562408737761386 -1.9395732871537208 0 0 0
115 23 3 0 -3.2652380916864456 0.8381818700534606 -1.8235820945792622 0 0 0
484 128 4 0 -3.8427462923774836 0.22294316955746113 -2.2605044490145763 1 0 0
454 118 4 0 -4.091066720597072 0.08883766479344411 -1.9704712742640949 1 0 0
346 82 4 0 -3.0321945019290437 0.5696406266387378 -1.6623319572739834 0 0 0
384 95 4 0 -2.9490996440597095 0.9484951474956581 -1.585698862133371 0 0 0
344 82 2 0 -2.770683023704527 0.20882186237671055 -1.8425777119845408 0 0 0
280 60 4 0 -1.420805108269183 0.7197988755457561 -1.7341768389221566 0 0 0
4 1 3 0 -1.5830318998096014 0.43652132056336757 -1.9402644094197097 0 0 0
360 87 4 0 -1.5360999351548266 0.7595778643523188 -2.155582472563396 0 0 0
359 87 2 0 -1.355428277231506 1.0998822302115974 -2.3657467427040295 0 0 0
361 87 4 0 -1.1555281434712195 1.4702385147101573 -2.5835960981534605 0 0 0
105 21 3 0 -0.8500146134313108 1.6576198331537082 -2.746423685663292 0 0 0
553 151 4 0 -4.013515600033622 1.455597676527691 -1.9661396246045941 1 0 0
551 151 2 0 -4.262784169137623 1.8420268554023376 -2.015154593485517 1 0 0
371 91 2 0 -0.6941958718229496 3.1631914654857365 -1.7343858425909155 0 0 0
364 88 4 0 -1.0153667266309037 2.615511162577489 -1.2712008190825992 0 0 0
96 20 1 0 -1.641215368251324 1.9484712189840874 -2.9713051872539236 0 0 0
393 98 4 0 -2.021266467969624 2.6380810707875813 -2.997474650693526 0 0 1
98 20 3 0 -1.8258390057812734 2.3319599258283783 -2.8504702394584664 0 0 0
102 21 3 0 -0.1825022301284802 1.9366352124951731 -2.97253942692337 0 0 0
100 20 3 0 -1.3442689824162015 1.8125957656721106 -2.6641158660781414 0 0 0
256 52 4 0 -0.9923944540930922 1.7994911687122215 -2.407516080115797 0 0 0
254 52 2 0 -0.7060716376977311 1.9020879152298638 -2.055606099242379 0 0 0
255 52 4 0 -0.4328825897836194 2.010616544788613 -1.7107468407896493 0 0 0
116 24 1 0 -0.4004501896618641 2.2137920402659303 -0.9794465822153637 0 0 0
119 24 3 0 -0.639592783247536 2.6005924665978077 -1.119684860682373 0 0 0
376 92 4 0 -0.8167031765444829 1.9538548981985047 -0.333518315191732 0 0 0
577 159 4 0 -4.361349489434579 3.6845252030143576 -2.218614384181796 1 0 0
392 98 2 0 -1.8610817604305756 3.055569618578498 -3.014618861115736 0 0 1
394 98 4 0 -1.692228979754101 3.4921998914566372 -3.0273803803506185 0 0 1
402 101 4 0 -1.4508351122373295 3.7887947734294176 -2.9305467948401875 0 0 1
401 101 2 0 -1.1059631633053681 3.7876475482346916 -2.6434878121757612 0 0 1
403 101 4 0 -0.7433038153135608 3.785200004306807 -2.3559852896944737 0 0 1
373 91 4 0 -0.6589511354041062 3.4769370860296536 -2.06387817020062 0 0 0
354 85 4 0 -0.3850686916937121 3.70788456521837 -2.253682516038148 0 0 0
112 23 3 0 -3.869876858873475 1.043241089645092 -1.4551771023839914 0 0 0
374 92 2 0 -1.2497575132486272 1.7926311725886586 -0.3286519833564411 0 0 0
278 60 2 0 -1.589515520133267 0.8125514187280383 -1.3443486695746232 0 0 0
383 95 2 0 -2.7347417689424094 1.1810576331522393 -1.264409281110329 0 0 0
90 18 3 0 -2.3303148871882366 1.200998885971491 -0.6439396355701026 0 0 0
279 60 4 0 -1.7575995619182903 0.9144418253061617 -0.9425163268620699 0 0 0
86 18 1 0 -2.0623111823030906 0.9912375597648123 -0.34966880876922374 0 0 0
89 18 3 0 -1.760319860458794 0.7390871791707614 -0.582692923622825 0 0 0
87 18 3 0 -2.294996425862634 0.7353619304526521 -0.0752550751444394 0 0 0
88 18 3 0 -1.8346647686907152 1.302978270851769 -0.11343777923635429 0 0 0
385 95 4 0 -2.524657539875498 1.391205148893112 -0.9387088892920395 0 0 0
94 19 3 0 -2.558956277440762 2.3152263441225807 -0.2926027608269734 0 0 0
375 92 4 0 -1.6802700566847282 1.6297360033200372 -0.3217319482198195 0 0 0
95 19 3 0 -2.5491333856818112 1.7661106493200769 -0.7953476145210535 0 0 0
93 19 3 0 -2.03129024246191 1.8131473767005448 -0.24542628720975843 0 0 0
362 88 2 0 -1.427754646957637 2.605604888296911 -1.079644655944232 0 0 0
363 88 4 0 -1.8413487359210856 2.60332412809289 -0.8798269580825899 0 0 0
91 19 1 0 -2.2960594969514814 2.0537363675866844 -0.5367878275143124 0 0 0
92 19 3 0 -2.041779223132589 2.2949515709593173 -0.7939487449339466 0 0 0
372 91 4 0 -0.7240852027304979 2.8529934139109785 -1.3976567230069121 0 0 0
117 24 3 0 -0.3987953163238968 1.9162307350332493 -1.3187774510739338 0 0 0
120 24 3 0 -0.5964168646090807 2.0313615098353113 -0.6229763235119719 0 0 0
574 158 4 0 -0.19187438986243852 1.7003144746950127 -1.5760422243357495 0 0 0
379 93 4 0 -0.44495169875440477 1.8283446496479658 -0.2908331423531321 0 0 0
47 10 3 0 -4.238284498045994 1.0489766297149368 1.3753766387426214 0 0 0
405 102 4 0 -4.201414416207934 1.453261418911959 1.394896975767753 0 0 0
651 184 4 0 -4.340146242296981 1.2643767094184215 1.0541153540724493 1 0 0
428 110 2 0 -4.039638661888172 0.44256297288714175 0.40136093022596336 0 0 0
46 10 1 0 -4.325552930105748 0.5894965335276414 1.481291497301117 0 0 0
49 10 3 0 -3.9584284925249316 0.4168352674913087 1.6816826201011499 0 0 0
48 10 3 0 -4.4263319370884435 0.3642056881289462 1.1112346235277168 0 0 0
398 100 2 0 -1.8979261985978748 3.9618285137180638 3.052378171567459 0 0 0
377 93 2 0 -0.16237722750795788 1.7003122003493563 0.04508479296755326 0 0 0
622 174 4 0 -4.226880052871593 3.262425989360663 1.352519800494251 1 0 0
620 174 2 0 -3.816503847625512 3.282196741080414 1.138946913366615 1 0 0
621 174 4 0 -3.410036388585875 3.3009354774751816 0.9433775258986864 1 0 0
645 182 4 0 -4.495484742389423 3.570919452418739 1.34936976383733 1 0 0
128 26 3 0 -3.0639501935691045 3.4421445076438477 1.0812931683543294 0 0 0
129 26 3 0 -2.457975188294333 2.982076734487403 1.0379821050239977 0 0 0
411 104 4 0 -2.0074576173686176 3.8383532094265327 1.13620024672902 0 0 0
410 104 2 0 -1.643605371927509 3.7109606694533084 0.8942051724405793 0 0 0
126 26 1 0 -2.6658114001192255 3.352005201232262 1.272412925082589 0 0 0
127 26 3 0 -2.395173505963019 3.7275006469651175 1.2426523259363955 0 0 0
412 104 4 0 -1.2592367982692745 3.5779054937353783 0.6539742716409546 0 0 0
366 89 4 0 -0.8536417685606348 3.6348863151078925 0.6841985874153605 0 0 0
365 89 2 0 -0.3935556918240345 3.671672503914162 0.7140920724499109 0 0 0
324 75 4 0 -3.674819095528373 0.16509044406263268 1.785183859197109 0 0 0
404 102 2 0 -3.8408316683532995 1.6343137626019606 1.6462852820150464 0 0 0
80 16 3 0 -2.7166885201544977 0.08808013173705889 2.853172560851072 0 0 0
123 25 3 0 -2.688559049923305 1.8298739994379143 2.5873117587677514 0 0 0
125 25 3 0 -3.378610784237575 1.8849259066453947 2.2688661942872743 0 0 0
406 102 4 0 -3.500912479104874 1.8054258613658505 1.8873648108039676 0 0 0
121 25 1 0 -3.130583250743932 1.9378140559516543 2.6656570037353733 0 0 0
122 25 3 0 -3.1626277338723696 2.379961483523453 2.817600911781247 0 0 0
130 26 3 0 -2.727584485807439 3.2394838499983516 1.6900502476068773 0 0 0
438 113 4 0 -2.09407116938005 3.8108529937046263 1.5324339693749527 0 0 0
437 113 2 0 -1.9637252292270417 4.034708289734042 1.910794715996355 0 0 0
439 113 4 0 -1.8413670911990658 4.254095102340233 2.272990154965021 0 0 0
399 100 4 0 -1.9273300327856797 4.195240716020343 2.6586192410507556 0 0 0
627 176 4 0 -3.7285994375675395 1.6419659278028533 4.07698875787213 1 0 0
65 13 3 0 -0.2878327914646842 0.010163129827187986 3.58530297438554 0 0 0
424 108 4 0 -0.045992305559147365 0.3346588928817683 3.5817225203769056 0 0 0
626 176 2 0 -3.7033507705801125 1.614850151829851 3.632966147497146 1 0 0
124 25 3 0 -3.3078811634572487 1.6460309068252903 3.005136184646331 0 0 0
628 176 4 0 -3.67652156633616 1.5930902313574329 3.176695486419019 1 0 0
435 112 4 0 -2.292963623207811 1.8707089765499234 2.705356996836616 0 0 0
434 112 2 0 -2.093439333650616 2.0907937349342296 3.0326995763760545 0 0 0
436 112 4 0 -1.8871045756803884 2.32178689066905 3.3825193840424133 0 0 0
418 106 4 0 -1.7675783501939535 2.6177285367795835 3.6229750084161134 0 0 0
396 99 4 0 -1.564593326732372 2.2467589150985248 3.6251324262740288 0 0 0
416 106 2 0 -1.7472250906232811 3.0466914351893943 3.668741986313334 0 0 0
446 116 2 0 -0.18584719463280958 1.5885347832226728 4.36454387516968 0 0 0
448 116 4 0 -0.5137949241102927 1.9076069256862085 4.3247136226729745 0 0 0
397 99 4 0 -0.8169936002862223 2.037222172035967 4.074821881465872 0 0 0
631 177 4 0 -0.5306237449211123 2.3030895089143617 4.230312953714405 0 0 0
395 99 2 0 -1.1843090763206958 2.1371252276303303 3.8519605525941105 0 0 0
629 177 2 0 -0.3864496473370972 2.710486262058551 4.2554970382244885 0 0 0
400 100 4 0 -1.8627745948537822 3.7375291197968155 3.4029977051792226 0 0 0
356 86 2 0 -1.7655830522058185 4.018115139737458 4.203000327027216 0 0 -1
357 86 4 0 -1.8605218015479348 3.8672397509054433 3.7764697746556912 0 0 -1
417 106 4 0 -1.7440393431429646 3.4885994825899824 3.7212440692606226 0 0 0
429 110 4 0 -4.363486868948827 0.4695978107521027 0.7304030595585409 0 0 0
630 177 4 0 -0.23192184170977448 3.1273773498679653 4.288797318681032 0 0 0
658 186 4 0 -3.9704349475729 1.56414227182538 4.3771073509095935 1 0 0
391 97 4 0 -0.819707360521773 2.1332745783625287 4.4668084203513585 0 0 0
430 110 4 0 -3.730729054716095 0.42587657181200195 0.07987566746143743 0 0 0
197 40 3 0 3.6000880745251473 -4.438830172730326 -3.2322860036355094 0 1 0
521 141 2 0 3.7686128522362683 -2.988920702553334 -2.916132074102991 0 0 1
648 183 4 0 2.787057927411663 -1.7423786707708613 -4.123404395760653 0 0 1
465 122 4 0 3.0483580100736107 -2.013145891170356 -3.9964335213372864 0 0 0
464 122 2 0 3.250548475865586 -2.137091146905195 -3.607930241001823 0 0 0
466 122 4 0 3.456343290565973 -2.271522746057713 -3.1866574928630502 0 0 0
522 141 4 0 3.7219790409597135 -2.5450950882739645 -3.017020063769838 0 0 1
471 124 4 0 3.8414664990764873 -2.176375937470713 -3.055967012867281 0 0 0
470 124 2 0 4.26463436905775 -1.9517785371899856 -3.034712548992873 0 0 0
177 36 3 0 0.9396228659757532 -0.20357673347432984 -3.4359566866725504 0 0 1
456 119 4 0 1.2168492866123521 -0.5007567843860176 -3.324627620270915 0 0 0
493 131 4 0 0.8421036112390073 -0.4989797448051226 -3.181468967522675 0 0 0
176 36 1 0 0.8852443922082232 -0.03893267340948982 -3.8624276258235435 0 0 1
179 36 3 0 1.0966692648693706 -0.3078637599585003 -4.150105515582522 0 0 1
180 36 3 0 0.435735684738652 -0.01854587802519495 -3.9582745994271353 0 0 1
491 131 2 0 0.48743964350343505 -0.4343860368595757 -2.8896714261050804 0 0 0
455 119 2 0 1.5811572998679773 -0.5214433464245496 -3.0389799443305012 0 0 0
449 117 2 0 2.9159864781826466 -0.18551015415880331 -4.015196163016595 0 0 0
566 156 2 0 2.5628349286364065 -0.049257276572880655 -2.972059198650079 0 0 0
457 119 4 0 1.9533922089710385 -0.5423206289432222 -2.7602484585336167 0 0 0
253 51 4 0 0.040760349682144065 -1.5789769950287513 -2.245519694217029 0 0 0
561 154 4 0 2.7656066965010133 -4.2320912836398445 -1.502339010539559 0 1 0
153 31 3 0 2.8636182385304734 -3.1428731616991463 -1.586652179230833 0 0 0
196 40 1 0 3.755486784167464 -4.278252877047851 -2.8119825356481516 0 1 0
200 40 3 0 4.193433414479185 -4.387732015198524 -2.7516143075559993 0 1 0
523 141 4 0 3.812970773337274 -3.430644886053053 -2.809746758703506 0 0 1
478 126 4 0 3.596053955646733 -0.5654845365170449 -0.6233081922858936 0 0 0
198 40 3 0 3.7176712063263695 -3.8314376150443206 -2.7997958114809416 0 1 0
560 154 2 0 3.059301663226124 -4.370004734579642 -1.8116186933304645 0 1 0
458 120 2 0 0.7750075465081652 -1.6322336405467275 -2.1684286253195055 0 0 0
459 120 4 0 1.1504249913132978 -1.8472827422628886 -2.258243227016636 0 0 0
188 38 3 0 1.517073378813206 -1.8572020119384334 -2.41522635589292 0 0 1
186 38 1 0 1.8838424769196163 -1.6887938871466976 -2.2198724409666513 0 0 1
189 38 3 0 2.0367068322831914 -1.3784542971688354 -2.450549619248802 0 0 1
190 38 3 0 2.210366290039845 -2.0166028376158947 -2.1769927335555197 0 0 1
498 133 4 0 2.4793697912651274 -2.320579311076636 -2.305888318040495 0 0 0
497 133 2 0 2.668145835027786 -2.524987365041331 -1.9235741632485142 0 0 0
499 133 4 0 2.87091202225426 -2.733989654404484 -1.5402745833618225 0 0 0
160 32 3 0 3.006183979793957 -2.373343198631699 -1.3216726913567678 0 0 0
157 32 3 0 3.734176824448813 -2.366050270983033 -1.3603222155570593 0 0 0
492 131 4 0 0.15175651172948 -0.37368717325844825 -2.5947156309584747 0 0 0
460 120 4 0 0.37342813481087817 -1.3912069038295165 -2.0850967750184375 0 0 0
17 4 3 0 0.43111668069394016 -1.0071383509360585 -1.980685603923967 0 0 0
505 135 4 0 1.4222371991775555 -0.3244738822294628 -1.7633638486776702 0 0 0
503 135 2 0 1.0650826199619046 -0.6239210345052056 -1.7365543089325122 0 0 0
504 135 4 0 0.6995824605342016 -0.9096744101142592 -1.7101719639093649 0 0 0
187 38 3 0 1.784762747624692 -1.5279492236570755 -1.8312735817054864 0 0 1
567 156 4 0 2.262806731641483 -0.2558003851759254 -2.71877367756557 0 0 0
142 29 3 0 1.7372833055380255 -0.3227073452708298 -1.9914683788288878 0 0 0
462 121 4 0 1.8529809890819249 -1.217263255839906 -1.5939617547031222 0 0 0
144 29 3 0 2.059091108235885 -1.0025899388143988 -1.879521606856228 0 0 0
145 29 3 0 2.2688358565892517 -0.5728121120752415 -2.4646236031485405 0 0 0
141 29 1 0 2.133421556355969 -0.5660702410008944 -2.0275560601857956 0 0 0
143 29 3 0 2.440616722183607 -0.36563892437834583 -1.7857518112724429 0 0 0
382 94 4 0 0.3180365565230645 -3.6866499464981555 -0.5334450735293947 0 1 0
289 63 4 0 0.41207382483340266 -3.6150793997484487 -0.12613679143503234 0 0 0
199 40 3 0 3.4969339781299165 -4.469940934280392 -2.476068952704367 0 1 0
476 126 2 0 3.6971021934873862 -0.2546808303553442 -0.943915001312654 0 0 0
152 31 3 0 2.8495323727344393 -3.862141233248971 -1.391276197210612 0 0 0
473 125 2 0 2.18048567207903 -4.315268396865082 -1.1727203917852616 0 0 0
475 125 4 0 2.5024722823392276 -4.028471028109834 -1.3158469532087436 0 0 0
151 31 1 0 2.880250567382039 -3.4498784547186694 -1.2289220857947185 0 0 0
154 31 3 0 2.553033888885394 -3.377264511791176 -0.9565427261344411 0 0 0
155 31 3 0 3.29661050981273 -3.3986032907312103 -0.9966211713278184 0 0 0
192 39 3 0 3.7812396549223757 -4.163894825741969 -0.1198556933349737 0 1 0
488 130 2 0 3.953597800566772 -3.385044610270829 -0.6774792883761249 0 0 0
490 130 4 0 4.269076114119787 -3.568986362080141 -0.3860018945190731 0 0 0
291 64 4 0 4.494126774530613 -3.4100897056643253 -0.10778087882064918 -1 0 0
195 39 3 0 4.433042153615112 -3.811738037472687 -0.10643285169307715 0 1 0
261 54 4 0 0.11598960124820236 -1.683744908119803 -0.2617293097136476 0 0 0
320 74 2 0 0.8002303861580141 -1.5355552909323167 -0.5471045204673398 0 0 0
321 74 4 0 0.35373105226433804 -1.5561152564231473 -0.555322886351269 0 0 0
489 130 4 0 3.6459856216179447 -3.2114206294466485 -0.9659367764801275 0 0 0
468 123 4 0 3.270635261076819 -1.756019480311424 -0.7107409574404138 0 0 0
159 32 3 0 3.410682711235605 -2.1307860253734043 -0.7095001775183059 0 0 0
156 32 1 0 3.3892325778140204 -2.44019680101433 -1.0957111073228685 0 0 0
158 32 3 0 3.403772270359289 -2.877039655875111 -0.9436338352474243 0 0 0
486 129 4 0 3.432109581194448 -0.6746282675928036 -0.2775477531773911 0 0 0
322 74 4 0 1.2659814204606998 -1.511141228490839 -0.5363367768955785 0 0 0
496 132 4 0 1.6432642255334304 -1.49352984729696 -0.4052147195866038 0 0 0
463 121 4 0 1.567433020136472 -1.3671320352500218 -0.7631760775274063 0 0 0
494 132 2 0 1.7379286633950484 -1.1396664566922 -0.06233328957050149 0 0 0
461 121 2 0 1.7006549219148532 -1.2963886570382175 -1.163304961174402 0 0 0
467 123 2 0 3.3078773132193553 -1.3116575653000806 -0.6691138774179353 0 0 0
469 123 4 0 3.340705665251114 -0.8744515383441944 -0.6219927028372872 0 0 0
542 148 2 0 1.2369574773868648 -4.400079474830987 -4.202903714341378 0 0 1
615 172 4 0 3.2042417159896166 -4.4132466544827755 -3.3156844967121 0 1 1
600 167 4 0 1.4515973877341184 -0.04781543314478641 -2.045684280621595 0 0 0
543 148 4 0 1.0284832602420095 -4.028147515865936 -4.277640679410828 0 0 1
511 137 4 0 2.727699949221141 -2.1368481915801936 -4.248367352353355 0 0 1
450 117 4 0 2.896379688429047 -0.4756145170602562 -4.358685206390565 0 0 0
647 183 2 0 2.8537597545563234 -1.3115171052066712 -4.189263921710327 0 0 1
649 183 4 0 2.9144306277465 -0.8687393178883952 -4.2707735518106915 0 0 1
309 70 4 0 0.004517493722743517 -0.7023415818454364 3.23678158711682 0 0 0
57 12 3 0 0.539783680504988 -4.445066496661502 0.5318697064470326 0 0 0
308 70 2 0 0.025969809501238526 -1.1508780513031447 3.074716779597209 0 0 0
517 139 4 0 0.14935019009611022 -1.9508640550782197 2.8351912257685354 0 0 0
59 12 3 0 0.10915856859664881 -4.254097963724152 1.0746074484375312 0 0 0
310 70 4 0 0.03926232975951708 -1.5732122265394968 2.924046290035342 0 0 0
288 63 4 0 0.7316939417805155 -4.392040716121197 0.15566822689509557 0 0 0
162 33 3 0 1.6497379391462326 -4.222430241617034 0.6654031877588293 0 0 0
501 134 4 0 1.8918630780889687 -3.8663209046558507 0.6874038721572266 0 0 0