LAMMPS data file via write_data, version 4 Feb 2025, timestep = 4000000, units = lj

2000 atoms
4 atom types
1500 bonds
1 bond types
1750 angles
2 angle types

-8.346487 8.346487 xlo xhi
-8.346487 8.346487 ylo yhi
-8.346487 8.346487 zlo zhi
8.526512829121202e-14 0 0 xy xz yz

Masses

1 1
2 1
3 0.1
4 0.1

Bond Coeffs # harmonic/omp

1 100 0.45

Angle Coeffs # harmonic/omp

1 100 180
2 100 109.471

Atoms # full

1215 243 3 0 -6.319584386801978 -7.960759489014081 -8.166612395302689 35 1 1
340 68 3 0 7.993838969239452 -7.8436326171228705 -8.293386756900196 14 0 1
704 141 3 0 -8.273406492710764 -6.79244860581688 -8.297098266205856 30 1 0
339 68 3 0 -8.20727057287492 -7.23477797299405 -8.262594124393315 15 0 1
1978 493 4 0 -7.894841966138144 -6.014308039290036 -8.11409190476896 28 1 1
1525 342 4 0 -8.231758632190322 -5.872395376173047 -7.905613845450127 8 0 1
703 141 3 0 -8.291991454292145 -6.107061727234367 -8.216044221144672 30 1 0
1977 493 2 0 -7.460545519490947 -5.944151690893369 -8.231334191903072 28 1 1
1524 342 2 0 8.137596989539304 -5.769227573563154 -7.599546599216677 7 0 1
27 6 3 0 -7.066409075336466 -4.7728001696604885 -7.61666791524806 8 0 0
1361 287 4 0 -6.083433940568421 -5.491921351533996 -7.970550773285278 10 0 0
849 170 3 0 -6.431522280539341 -5.345006499708465 -8.137243524947754 14 0 1
1359 287 2 0 -5.856050980999704 -5.476535773095746 -7.568006055640485 10 0 0
625 125 3 0 1.4790860363917009 -4.772704995146412 -8.042077645436548 27 1 1
623 125 3 0 1.7936717063736083 -5.36370692006075 -7.809755083592362 27 1 1
621 125 1 0 1.8103811428179757 -4.930204057322504 -7.809278280820547 27 1 1
622 125 3 0 2.1901232679668947 -4.802670621729781 -7.992997086835053 27 1 1
1598 366 4 0 2.5527142637576645 -4.829621128978812 -8.139161731986967 8 0 1
1510 337 4 0 -8.028529781290318 -3.9117684524196834 -8.172161509663065 10 0 1
1509 337 2 0 -7.662799919902764 -3.752959434531599 -7.954798520387112 10 0 1
28 6 3 0 -6.44741988755605 -4.419784931353023 -7.447560165310085 8 0 0
1904 468 4 0 -6.109364491014059 -4.288140299564004 -7.596887598132713 31 1 1
1902 468 2 0 -5.7418349080367985 -4.1169701009014394 -7.807166511739341 31 1 1
1903 468 4 0 -5.3871132733051645 -3.9496220504565995 -8.010853124129591 31 1 1
1808 436 4 0 -2.383804423548126 -3.7639746598648545 -8.083716829499423 18 0 1
1807 436 4 0 -1.5539915775648732 -3.8783615160788694 -7.725206497110171 18 0 1
1806 436 2 0 -1.9592132252853842 -3.8191778463557684 -7.90105829978892 18 0 1
468 94 3 0 -1.1655490376627542 -3.842330930903474 -7.732999750836749 17 0 1
466 94 1 0 -0.8277657981842896 -4.044772388369365 -7.485781334790642 17 0 1
470 94 3 0 -0.8516889656805109 -4.518354403374072 -7.543879197070591 17 0 1
469 94 3 0 -0.43650859943477904 -3.8881939971543087 -7.6166029154671255 17 0 1
1924 475 4 0 -0.19002634294991338 -3.8429060618369544 -7.904190070824032 29 1 1
1923 475 2 0 0.27890929548211396 -3.867604157827394 -7.866280538584781 29 1 1
1925 475 4 0 0.7255417160529554 -3.9002781235330612 -7.828123321496107 29 1 1
232 47 3 0 1.093988638009824 -3.8403424941291533 -7.978057448930712 7 0 0
231 47 1 0 1.352704818560781 -3.7219737055912407 -8.310941851327637 7 0 0
1415 305 4 0 3.7998088982170994 -3.8274301688363916 -8.256515162597651 9 0 0
374 75 3 0 8.2784329958277 -3.7657705254013294 -8.206506091335399 17 0 1
733 147 3 0 -6.703592924220351 -3.0480244720980556 -8.283383870967363 11 0 0
1511 337 4 0 -7.277288615036744 -3.5898804679671574 -7.734157898615145 10 0 1
734 147 3 0 -6.883620840310996 -3.5059040270324004 -7.756097742873385 11 0 0
731 147 1 0 -6.692563761902987 -3.093776940559229 -7.867680457179868 11 0 0
732 147 3 0 -6.254135426077017 -3.079770183968626 -7.710693792409961 11 0 0
1789 430 4 0 -5.93900329301318 -2.9041936467572036 -7.560437509955862 38 1 1
234 47 3 0 1.7700378028253567 -3.5943834335984066 -8.139783354115293 7 0 0
1413 305 2 0 4.025560970356523 -3.682318596727267 -7.9208031314758305 9 0 0
1414 305 4 0 4.278180594536593 -3.525834686807748 -7.551712118042607 9 0 0
819 164 3 0 6.939390381380278 -3.074880603883221 -7.642486910462863 15 0 0
1574 358 4 0 7.276645781081312 -2.9374567014817785 -7.754105275812527 18 0 1
735 147 3 0 -6.94758452237356 -2.7505790115110305 -7.675786256917141 11 0 0
43 9 3 0 -4.441171946674256 -2.6523732863446927 -7.4345561090417105 11 0 0
1572 358 2 0 7.440604607311249 -2.670075215396362 -8.071082418732816 18 0 1
77 16 3 0 -1.8511567429997315 -8.128148855662284 -6.648742320496335 12 0 0
158 32 3 0 -3.6096835318391447 -6.692973938450778 -7.009294917013763 10 0 0
160 32 3 0 -4.22121907540398 -6.2760836606753685 -6.77206672147496 10 0 0
157 32 3 0 -3.774117485710641 -6.027282571492519 -7.326535827033903 10 0 0
156 32 1 0 -3.7788480378119758 -6.258664965711611 -6.939125063710834 10 0 0
159 32 3 0 -3.5062997752312866 -6.03486828509831 -6.632555526508448 10 0 0
1375 292 4 0 -3.1801614373395912 -5.854883012175479 -6.851492639546713 9 0 0
1374 292 2 0 -2.724512410503542 -5.767111092889356 -6.8404644362019775 9 0 0
1376 292 4 0 -2.2936724634524275 -5.682271501249679 -6.839589425390279 9 0 0
1017 204 3 0 -1.9310121296494325 -5.617173981055228 -6.7551554025387635 10 0 0
1020 204 3 0 -1.2597516191063214 -5.890275367199166 -6.539379593697304 10 0 0
854 171 3 0 7.06535488834732 -6.136050639755883 -7.052879577341302 12 0 0
851 171 1 0 7.121056073709285 -5.698878974516582 -7.001134325476212 12 0 0
852 171 3 0 7.240266059874113 -5.614964855660246 -6.5764232871329416 12 0 0
1526 342 4 0 7.81329264397624 -5.678426996931799 -7.286871343949327 7 0 1
26 6 1 0 -6.743921277703516 -4.698049850831181 -7.287698492566705 8 0 0
30 6 3 0 -6.540943382401431 -5.08148415977794 -7.1779323126786485 8 0 0
1639 380 4 0 -6.349061336586555 -5.072984152540156 -6.84862297806898 9 0 0
1360 287 4 0 -5.638223523755903 -5.467530123281755 -7.1829194355137025 10 0 0
33 7 3 0 -5.395712922089386 -5.223647813077384 -6.971962015509968 12 0 0
31 7 1 0 -5.020790058227432 -5.049395356005723 -6.797106682742199 12 0 0
35 7 3 0 -4.6925905097586735 -5.0952687227437075 -7.073447387602296 12 0 0
1016 204 1 0 -1.4674192789898273 -5.530437274899937 -6.73329474065568 10 0 0
1018 204 3 0 -1.3009007840331632 -5.472660730794004 -7.130494220625628 10 0 0
624 125 3 0 1.7773884405684193 -4.773935372712243 -7.388519812414614 27 1 1
1631 377 4 0 1.9376774045900493 -4.935607745522937 -6.509709513158092 10 0 0
1246 250 1 0 2.6759591568938372 -5.139488872948846 -6.734666101375146 9 0 1
1247 250 3 0 2.643589675834047 -5.547185971825788 -6.808939928682812 9 0 1
1249 250 3 0 2.64864699842032 -4.918430113491227 -7.11056912001023 9 0 1
1248 250 3 0 3.09406489505297 -5.044853935984389 -6.519443451313498 9 0 1
181 37 1 0 4.798596176646534 -4.988144047869644 -6.550380555048711 19 0 0
1813 438 4 0 4.073693167571385 -4.745735695220955 -6.502868122695565 10 0 0
182 37 3 0 4.46303055038406 -4.755467416374582 -6.546378324111045 19 0 0
184 37 3 0 4.9067215987951975 -5.073251056338956 -6.97089205461686 19 0 0
855 171 3 0 6.7213266776496905 -5.477180379523606 -7.092661640631332 12 0 0
853 171 3 0 7.440509650055146 -5.5594957382465555 -7.281045430990851 12 0 0
29 6 3 0 -6.924890853371142 -4.532224685363179 -6.940918936114817 8 0 0
1729 410 4 0 -6.812334724368536 -4.397151952945867 -6.591059827866841 30 1 0
34 7 3 0 -5.080897369427406 -4.613155721116943 -6.707192779398594 12 0 0
1481 327 4 0 -5.003061130451699 -4.248074045835753 -6.597909512151875 11 0 0
467 94 3 0 -0.8739576501510502 -3.9458601653507106 -7.074931062920537 17 0 1
265 53 3 0 0.6881662728644713 -4.090961039227038 -6.626742231653615 10 0 0
1450 317 4 0 0.9044999058892351 -3.966706481984705 -6.934393391103723 8 0 0
1449 317 2 0 1.2736832450877262 -3.7156619985419717 -7.009925670630536 8 0 0
820 164 3 0 6.851703404216321 -3.7144005481710707 -7.327322206546923 15 0 0
1508 336 4 0 6.942878057857628 -4.114926246899025 -7.322530409218593 11 0 1
1506 336 2 0 7.095421029401418 -4.2860358415769655 -6.92446967815693 11 0 1
1507 336 4 0 7.246018038933705 -4.457269742064154 -6.526491005613795 11 0 1
594 119 3 0 -8.181777136638154 -3.4576233961939407 -7.308070232182181 11 0 1
591 119 1 0 -8.07796280362892 -3.223680413409541 -6.920192677620673 11 0 1
592 119 3 0 -7.927848681807774 -2.810376846189424 -7.020271883281493 11 0 1
595 119 3 0 -7.759865504964966 -3.45188726008936 -6.6917500476861935 11 0 1
1451 317 4 0 1.6295556101779418 -3.4706748976697366 -7.077515356865191 8 0 0
677 136 3 0 1.7283916169888638 -3.1360746259249215 -6.893002167475187 19 0 0
676 136 1 0 2.115283590925859 -3.1269510880545823 -6.636285645180241 19 0 0
678 136 3 0 2.472660854041264 -3.214498070180407 -6.895931287518726 19 0 0
1393 298 4 0 2.8368741994102535 -3.3456719160334334 -6.785898406521253 11 0 0
1392 298 2 0 3.2285976750110272 -3.1457030451917696 -6.726830423793413 11 0 0
1394 298 4 0 3.639354176295452 -2.9466425592233563 -6.665023506497269 11 0 0
165 33 3 0 4.055462091666751 -2.9012081581370754 -6.682238116318536 10 0 0
163 33 3 0 4.363051652070631 -3.364362064522507 -7.19851412408663 10 0 0
161 33 1 0 4.4179711871335225 -3.1677276224025475 -6.790340343634188 10 0 0
162 33 3 0 4.788500947470677 -2.907800486166564 -6.797857738362737 10 0 0
1895 465 4 0 5.174358042021778 -2.889609789621039 -6.892848849876836 29 1 1
1893 465 2 0 5.623150610430464 -2.939517097253141 -6.985552439594707 29 1 1
1894 465 4 0 6.049214268580469 -2.9904564674940346 -7.064057663888435 29 1 1
818 164 3 0 6.388227814150008 -3.1755456291492123 -7.205092487460948 15 0 0
816 164 1 0 6.807760281141226 -3.2725700168062275 -7.275856869403296 15 0 0
817 164 3 0 7.067916060973422 -3.120009497965219 -6.905791272141755 15 0 0
1409 303 4 0 7.117944406606396 -3.0955423384727467 -6.508161262722484 10 0 0
593 119 3 0 8.258054643604957 -3.1909697088633138 -6.685297726997359 10 0 1
1533 345 2 0 -7.956130394410925 -2.1570431265343473 -6.690850578610063 11 0 1
1534 345 4 0 -8.121901489719594 -2.531916106377281 -6.830484981973917 11 0 1
1788 430 2 0 -5.590552246778197 -2.740617270609138 -7.320357066773569 38 1 1
1790 430 4 0 -5.2271194126001035 -2.5765322877430776 -7.076962970682852 38 1 1
42 9 3 0 -4.911383128691572 -2.3924382323166506 -6.919281965980595 11 0 0
44 9 3 0 -4.499880960215632 -1.9236281854954562 -7.319953740698255 11 0 0
41 9 1 0 -4.5061925141424055 -2.33224238089631 -7.123903151579017 11 0 0
45 9 3 0 -4.173904727858151 -2.3613577459187445 -6.820647613549019 11 0 0
1621 374 4 0 -3.7575433846795976 -2.354939770105471 -6.818162726446224 15 0 0
1535 345 4 0 -7.78870034493984 -1.7813475820427245 -6.548661315911914 11 0 1
609 122 3 0 -6.965528502223513 -1.3207375573307694 -6.691274834122736 13 0 1
212 43 3 0 -2.393281162132144 -1.6215719938049462 -6.730575085592152 20 0 0
610 122 3 0 -7.526593016104399 -0.8459527682386607 -6.5699439338176315 13 0 1
103 21 3 0 -8.238392431747638 -8.08980916417599 -5.714132769924735 14 0 0
53 11 3 0 5.704097175118257 -7.569123854005476 -5.726271020497251 10 0 0
54 11 3 0 6.4154058145993265 -7.487006178729854 -5.860323198181278 10 0 0
105 21 3 0 8.018790079873657 -8.275395578564058 -6.269467124877266 13 0 0
52 11 3 0 5.910443026801373 -7.081629753058168 -6.225368888924146 10 0 0
51 11 1 0 6.0116895798717955 -7.280575392115101 -5.8274123599256615 10 0 0
778 156 3 0 -7.9530523910715525 -6.434480972034449 -6.164794349122594 30 1 0
776 156 1 0 -7.774261685436044 -6.245815621768438 -5.808759632502731 30 1 0
777 156 3 0 -8.007391983654513 -5.917973296054311 -5.680218244618139 30 1 0
1294 265 4 0 -8.276288088007119 -5.639797848736277 -5.737067215397484 20 0 0
779 156 3 0 -7.337906397299712 -6.094850896752077 -5.904458663599854 30 1 0
1261 254 4 0 -7.201445056892938 -6.241639165994191 -6.25208337235122 9 0 0
1260 254 2 0 -6.756524471369648 -6.22754109116621 -6.304090119685585 9 0 0
1262 254 4 0 -6.308058383535766 -6.201914075422794 -6.346880187277088 9 0 0
188 38 3 0 -5.809531320906265 -5.798579677790144 -5.978100779903 10 0 0
186 38 1 0 -5.575708030870696 -5.6265865237213255 -5.5980521899315345 10 0 0
459 92 3 0 7.006904620718336 -5.57419273945872 -6.106967615231077 11 0 1
1638 380 2 0 -6.150952305110331 -5.232757956785885 -6.467883472458045 9 0 0
1640 380 4 0 -5.94266187216223 -5.399262085917402 -6.0691537455183635 9 0 0
32 7 3 0 -4.923768070662097 -5.2706777253743855 -6.411825270259709 12 0 0
1522 341 4 0 -4.916692676789072 -5.4714451051671045 -5.756466849393136 12 0 1
189 38 3 0 -5.292301298595664 -5.311131598141879 -5.738291210287384 10 0 0
1521 341 2 0 -4.479475598253201 -5.375669809050312 -5.767754739546474 12 0 1
1523 341 4 0 -4.044462931603986 -5.280379849595299 -5.775135636224284 12 0 1
20 4 3 0 -3.6633928192921426 -5.330987598234542 -5.636844797692639 11 0 0
1019 204 3 0 -1.3930005676379977 -5.164656703908282 -6.4896884103409285 10 0 0
1354 285 4 0 -1.0374940618356154 -4.983508941140802 -6.458987321580858 11 0 0
1353 285 2 0 -0.6664882202475484 -4.743135321340297 -6.3945919497830594 11 0 0
1630 377 4 0 1.0646527196142834 -4.9671314630367025 -6.355837746246248 10 0 0
263 53 3 0 0.772278060027018 -4.695266699376649 -6.218368812262158 10 0 0
1629 377 2 0 1.4933909426909189 -4.944549240716999 -6.430352725182275 10 0 0
1250 250 3 0 2.33535344383467 -5.010507883189446 -6.450913175706956 9 0 1
1814 438 4 0 3.325618127461338 -5.17102294827316 -6.211630816002538 10 0 0
1812 438 2 0 3.689369288949681 -4.95952716858841 -6.358342957538747 10 0 0
183 37 3 0 4.714907037358605 -5.3818868712651895 -6.335510033399865 19 0 0
185 37 3 0 5.143347135305138 -4.768465848199487 -6.347677824728555 19 0 0
1465 322 4 0 5.510522369427159 -4.768738402119595 -6.225054247236475 9 0 0
1464 322 2 0 5.915693716357378 -4.884345062962645 -6.034006572569538 9 0 0
1466 322 4 0 6.278006765611231 -4.9848163555704 -5.865906526189373 9 0 0
458 92 3 0 6.6390539811846345 -5.085312457347261 -5.756093662527798 11 0 1
456 92 1 0 6.885743587561349 -5.414557489958179 -5.704234082990332 11 0 1
1295 265 4 0 7.950545763454485 -4.898553015373801 -5.7896295637780595 19 0 0
1293 265 2 0 8.182841320052969 -5.261543888301578 -5.7604774615799474 19 0 0
1728 410 2 0 -6.4946659303835705 -4.1955133685204835 -6.351309765094625 30 1 0
1730 410 4 0 -6.1581870220863255 -3.9997036551393137 -6.092784303747034 30 1 0
117 24 3 0 -6.103329393394831 -4.175708213743959 -5.72647728463712 11 0 0
1479 327 2 0 -5.203460310882905 -4.008828715623671 -6.253394963381011 11 0 0
1480 327 4 0 -5.385957524712093 -3.7922155463804534 -5.926953398939562 11 0 0
279 56 3 0 -1.4961459436740707 -4.631057161723682 -5.885241726195357 10 0 0
1355 285 4 0 -0.2991485067879367 -4.493014128949389 -6.319280826645904 11 0 0
264 53 3 0 0.09358364517519746 -4.385804795088223 -6.326038356693828 10 0 0
261 53 1 0 0.5422507999849397 -4.294730425992785 -6.274277333693938 10 0 0
262 53 3 0 0.6162478863695302 -4.029308640967871 -5.898876052213262 10 0 0
1379 293 4 0 0.8915947866565546 -3.7759509691017277 -5.776561944735803 12 0 0
192 39 3 0 4.290688589104798 -3.973519777648294 -5.903498722094453 17 0 0
554 111 3 0 7.405834773723692 -4.174157042560371 -6.2996907977479655 14 0 1
555 111 3 0 7.457901487662307 -4.331402904038013 -5.577563577958887 14 0 1
553 111 3 0 7.951279684737219 -3.885013225673551 -5.859356767678166 14 0 1
551 111 1 0 7.694000649494644 -4.246824253052094 -5.937341988220669 14 0 1
552 111 3 0 7.948246425003482 -4.5782457184135525 -6.0259063754368265 14 0 1
1266 256 2 0 -7.585495416108388 -3.094044304146684 -5.946759544907008 11 0 0
1268 256 4 0 -7.583062012890904 -3.3812989166502208 -6.32492595691963 11 0 0
1267 256 4 0 -7.583526005447926 -2.8319944493456086 -5.5891523243805095 11 0 0
118 24 3 0 -5.617827691638103 -3.605516664372802 -5.671461057237255 11 0 0
1377 293 2 0 1.265184001100799 -3.628475556313301 -5.580986179632678 12 0 0
680 136 3 0 2.088540554384542 -3.445088716970102 -6.305926770580772 19 0 0
164 33 3 0 4.47006072268087 -3.498788249885445 -6.4524512115203025 10 0 0
191 39 1 0 4.276619124455566 -3.5478918797787706 -5.729665373665149 17 0 0
194 39 3 0 4.157401638082764 -3.256193702523385 -6.062467455719462 17 0 0
193 39 3 0 4.683078424161284 -3.430804309248227 -5.57597791815612 17 0 0
1705 402 4 0 5.078210522463776 -3.4964321417748394 -5.668054516835008 31 1 0
1407 303 2 0 7.55686888415884 -3.1594753320200866 -6.438149691839095 10 0 0
1408 303 4 0 8.005987200416477 -3.2222937772341815 -6.361828656248978 10 0 0
1620 374 2 0 -3.530634762167681 -2.168019725903431 -6.489775350409712 15 0 0
1622 374 4 0 -3.2707875174285093 -1.9592858041469938 -6.115357116641937 15 0 0
215 43 3 0 -2.2265037811630526 -2.115002486344097 -6.229918605872798 20 0 0
679 136 3 0 2.1628940509613663 -2.722501218194288 -6.452955315406595 19 0 0
92 19 3 0 4.659265202552941 -2.468612250076995 -6.017968428293051 11 0 0
91 19 1 0 4.89389470432643 -2.1052152515653635 -5.8552564639163185 11 0 0
94 19 3 0 5.115224816770384 -1.9029486867197214 -6.1822296786174284 11 0 0
607 122 3 0 -7.551392309612373 -1.561458442506754 -6.292451520008672 13 0 1
606 122 1 0 -7.270746554355998 -1.1982729650130484 -6.396762193009161 13 0 1
608 122 3 0 -7.07471277475156 -1.0612483569428024 -6.029445127257825 13 0 1
214 43 3 0 -2.9018560068884174 -1.8037312397691458 -6.2171636070422895 20 0 0
211 43 1 0 -2.452005597232681 -1.7351870621876273 -6.306636858681387 20 0 0
213 43 3 0 -2.292671710835088 -1.4226093301285543 -6.053814271283129 20 0 0
1679 393 4 0 -2.0340350496848023 -1.4734708409335395 -5.747422854789868 19 0 0
1677 393 2 0 -1.6291544634730588 -1.3820110631736595 -5.573748111437595 19 0 0
95 19 3 0 4.6018831257773005 -1.8028386628864173 -5.6642849615014965 11 0 0
307 62 3 0 6.150102926262697 -8.099912734294435 -4.713386298234928 11 0 0
780 156 3 0 -7.748833245400078 -6.565092720463272 -5.46603273998376 30 1 0
55 11 3 0 6.037013200411476 -6.9509456471814985 -5.501583332223323 10 0 0
1306 269 4 0 6.211330325204159 -6.655453588958565 -5.3080750479798 10 0 0
190 38 3 0 -5.3447092682377395 -5.968901945704313 -5.390302142651842 10 0 0
17 4 3 0 -3.19265853422203 -5.7891927524341495 -5.309373977980901 11 0 0
1305 269 2 0 6.351504965798098 -6.238166853546566 -5.220978989161439 10 0 0
1307 269 4 0 6.497943605412724 -5.798165424250682 -5.1139061925267075 10 0 0
460 92 3 0 6.684454617770498 -5.716911083855602 -5.479539415030678 11 0 1
209 42 3 0 -8.137564747589385 -4.655782202336042 -5.223857715807874 11 0 0
187 38 3 0 -5.858183520891866 -5.465623395351826 -5.327864802106255 10 0 0
18 4 3 0 -3.7228512095898614 -5.457788036230207 -4.921213244393259 11 0 0
16 4 1 0 -3.437253809247201 -5.412730430299253 -5.259176768399444 11 0 0
19 4 3 0 -3.1481722735608137 -5.039760563015247 -5.178837605034874 11 0 0
1780 427 4 0 -2.9817685617621024 -4.752147900100605 -5.422815562068207 10 0 0
1779 427 2 0 -2.513707175683984 -4.752985999432081 -5.442484434322788 10 0 0
1781 427 4 0 -2.0475429204888407 -4.749769166365695 -5.4502189929135465 10 0 0
278 56 3 0 -1.0915668283424873 -4.842551277666573 -5.3102592081183 10 0 0
1333 278 4 0 -0.827972761152397 -4.767261856465175 -5.0067146968218195 10 0 0
957 192 3 0 3.641313962085242 -5.43234064150093 -4.653808577173364 29 1 0
457 92 3 0 7.238390605015571 -5.293785239472365 -5.4790709859606554 11 0 1
208 42 3 0 -7.584720781641493 -4.254841393993704 -4.949914994411676 11 0 0
206 42 1 0 -7.942505764362933 -4.470033163836717 -4.84262876235738 11 0 0
210 42 3 0 -8.223162364485715 -4.192216515251125 -4.652103462968391 11 0 0
1276 259 4 0 -7.339683940482418 -3.9289724077895256 -4.794536928455038 10 0 0
1275 259 2 0 -6.980482193670853 -3.7753549294834325 -5.046022794604317 10 0 0
116 24 1 0 -5.918355230301303 -3.9263193935728165 -5.436616880468995 11 0 0
120 24 3 0 -5.6767950964426905 -4.17579111554177 -5.150108906901417 11 0 0
1321 274 4 0 -5.583564400012511 -4.130937277620696 -4.754370214465547 9 0 0
277 56 3 0 -1.7467759920929256 -4.56486151044836 -5.227880300695158 10 0 0
276 56 1 0 -1.3935490600444114 -4.543405038161659 -5.462463714452034 10 0 0
280 56 3 0 -1.2252231470030983 -4.116754463078593 -5.447769624383499 10 0 0
520 104 3 0 2.0854293763198175 -4.361374146364702 -5.3790490316621415 8 0 1
516 104 1 0 2.1572486733550633 -4.046588589171677 -5.050423257416224 8 0 1
519 104 3 0 2.054466535445865 -4.198051271287346 -4.686411634026903 8 0 1
1462 321 4 0 2.722343677058028 -3.726358409558899 -5.3843316842009 13 0 0
518 104 3 0 2.6163279753257314 -3.9161499839394267 -5.054011505314295 8 0 1
1442 314 4 0 7.628936353076039 -4.3003585535133695 -5.2404914228622275 14 0 1
1440 314 2 0 7.528781754806294 -4.108489023147464 -4.847951107706771 14 0 1
390 78 3 0 -7.919160675559128 -2.78943062992136 -4.8114086106253025 11 0 0
1277 259 4 0 -6.617704900601226 -3.6198659838423257 -5.29468200996045 10 0 0
119 24 3 0 -6.2230916389604864 -3.6976209660899055 -5.206696182929754 11 0 0
517 104 3 0 1.8951398581135575 -3.677590128963807 -5.144411459148089 8 0 1
1378 293 4 0 1.6362420777138063 -3.484673360159908 -5.393542006803139 12 0 0
1309 270 4 0 1.905771400361152 -3.280500144789361 -5.203714912769884 10 0 0
1308 270 2 0 2.1788768827693783 -2.869691992907093 -5.199002091028293 10 0 0
1463 321 4 0 3.6287240356481263 -3.6502591526676804 -5.547460888468429 13 0 0
1461 321 2 0 3.1825064909752374 -3.6898244779038425 -5.468986823163798 13 0 0
195 39 3 0 3.982311203336357 -3.5256193125695434 -5.395733177361174 17 0 0
1704 402 2 0 5.458270899196393 -3.3417881744888653 -5.405416877039745 31 1 0
1706 402 4 0 5.827023954785741 -3.192233459728768 -5.161570733224399 31 1 0
175 35 3 0 6.083370703124736 -2.896393323897734 -5.189472157668794 10 0 0
171 35 1 0 6.426970397956454 -3.0957194927948954 -5.0248029290484855 10 0 0
172 35 3 0 6.294077585881354 -3.376553769251527 -4.691531751958697 10 0 0
174 35 3 0 6.649138276367324 -3.349679434688242 -5.374969115531146 10 0 0
173 35 3 0 6.7106266149862375 -2.796589447703295 -4.861462562873868 10 0 0
387 78 3 0 -7.699685769787148 -2.4924499663584827 -5.405381547942022 11 0 0
386 78 1 0 -7.948116735867895 -2.4414967901001567 -5.057002829111378 11 0 0
388 78 3 0 -7.817876575620278 -2.0936750973711753 -4.819144316425639 11 0 0
1310 270 4 0 2.440073454473662 -2.501167948909904 -5.19157723803187 10 0 0
578 116 3 0 2.5183555105863693 -2.104320077607439 -5.162816067322017 12 0 0
576 116 1 0 2.7729734203090644 -1.932117978575671 -4.84363502382667 12 0 0
577 116 3 0 3.2206073346123034 -1.9406037398888243 -4.9862521936659725 12 0 0
93 19 3 0 5.189163546827622 -2.2326933691837576 -5.552809404528151 11 0 0
1711 404 4 0 6.680131130613788 -2.414484031843406 -4.885330070563775 33 1 0
1690 397 4 0 7.027743262786089 -2.5957964881948046 -4.989331689207761 31 1 0
1689 397 2 0 7.4748835851526 -2.5030215467118335 -5.129449613748797 31 1 0
1691 397 4 0 7.91143749263054 -2.408765258869706 -5.274559179835531 31 1 0
389 78 3 0 8.313761257754628 -2.3871576054937664 -5.186962947419901 10 0 0
1678 393 4 0 -1.213076866319728 -1.2834917139892807 -5.391672197328251 19 0 0
451 91 1 0 -0.619344199480163 -1.0696444335162774 -5.039554428840644 18 0 1
454 91 3 0 -0.8692461312172233 -1.0264279675974972 -5.3758140789666395 18 0 1
453 91 3 0 -0.8659053336184392 -1.0507571762395047 -4.6567297072565985 18 0 1
455 91 3 0 -0.4177249378566783 -1.4593117206142603 -5.056545512089194 18 0 1
580 116 3 0 2.6589876587126327 -1.5257340140568116 -4.769335160680637 12 0 0
1291 264 4 0 3.332969394847087 -1.779885873786303 -5.332686352639945 12 0 0
1290 264 2 0 3.7712607331246666 -1.8008581894981326 -5.448322610661572 12 0 0
1292 264 4 0 4.198476810304591 -1.8344028849734393 -5.557266829781627 12 0 0
452 91 3 0 -0.30236398894064287 -0.744351980456142 -5.039390390221298 18 0 1
752 151 3 0 -7.157121676416629 -6.728625885074118 -3.9965861746121147 9 0 0
1264 255 4 0 -6.074108681651854 -6.768539964813203 -3.751146272465979 11 0 0
753 151 3 0 -6.4767344720482765 -6.7245751511938785 -3.7479978337160755 9 0 0
813 163 3 0 -2.9826271617116458 -7.093392330314994 -4.041243433984001 28 1 0
811 163 1 0 -2.757184986156794 -6.818633450234326 -3.782941410736088 28 1 0
1263 255 2 0 -5.844942218452582 -6.40487719727826 -3.836527518854947 11 0 0
1265 255 4 0 -5.602383278207466 -6.04283104687678 -3.918026381900349 11 0 0
332 67 3 0 -5.405867680651456 -5.7248451617765985 -3.7687417375544943 10 0 0
814 163 3 0 -2.6530600050508832 -6.450513431133719 -4.018656536748769 28 1 0
1406 302 4 0 4.593190214604515 -5.780560122858028 -4.148790669994218 9 0 0
958 192 3 0 4.3030251709215595 -5.593248455673643 -4.333372955262223 29 1 0
1404 302 2 0 4.928287320682905 -5.6522297847039855 -3.8772289705559757 9 0 0
1347 283 2 0 -7.898748227689433 -5.245562316558942 -3.90134443436128 12 0 0
1349 283 4 0 -7.727221009300946 -5.069789108642321 -4.291359962485778 12 0 0
207 42 3 0 -7.837746092094828 -4.795509632924728 -4.5532087116784155 11 0 0
1322 274 4 0 -5.329235867467259 -4.873690891728333 -4.393412603815305 9 0 0
335 67 3 0 -5.24961704034404 -5.051518743186285 -4.033655211443405 10 0 0
1645 382 4 0 -4.393049828124887 -5.303613530452408 -3.793808568788716 30 1 0
1644 382 2 0 -4.145703485942537 -5.355749956668076 -4.15848813494723 30 1 0
1646 382 4 0 -3.881319462226773 -5.423296980101062 -4.5478617564978965 30 1 0
1332 278 2 0 -0.6437166162983496 -4.810628131653194 -4.583084356613801 10 0 0
1334 278 4 0 -0.4767844312883289 -4.8560773422442045 -4.191651853032008 10 0 0
419 84 3 0 -0.47796544581160294 -5.062986106301384 -3.8324287286788756 8 0 0
960 192 3 0 3.727598332021259 -5.450032200803063 -3.904291834102902 29 1 0
956 192 1 0 3.941129190735232 -5.34460807687155 -4.286952493732308 29 1 0
959 192 3 0 4.055857365148407 -4.906248370062314 -4.292424801275852 29 1 0
1855 452 4 0 7.5779052887766465 -4.888697796642159 -3.8134140514034094 9 0 0
1320 274 2 0 -5.458971376433892 -4.491516428481146 -4.575711116794595 9 0 0
1582 361 4 0 6.537846753110566 -4.2495511147219505 -4.145935801975952 16 0 0
1581 361 2 0 6.2854193631446105 -3.935249325784275 -4.346412068612171 16 0 0
617 124 3 0 6.850604598646193 -4.125300700936309 -3.924805512684679 15 0 0
616 124 1 0 7.282164891733286 -4.186566488422108 -3.773977217605422 15 0 0
1441 314 4 0 7.428054342799708 -3.9081206367700743 -4.442230208881806 14 0 1
620 124 3 0 7.5714785421537805 -4.099264584298783 -4.096752199399968 15 0 0
342 69 3 0 -7.794316177390018 -3.351990873685727 -3.829894820534941 21 0 -1
1583 361 4 0 6.03003085786408 -3.6272875716467947 -4.5373459138891565 16 0 0
1562 354 4 0 -7.826858807525903 -2.0239171603849595 -4.424619066857132 11 0 1
1560 354 2 0 -7.658347982394742 -2.1500530554794333 -4.011644207895586 11 0 1
247 50 3 0 -3.310732242054656 -2.7403842128073634 -3.9786009033249368 10 0 0
4 1 3 0 1.2989679422169846 -2.773433182841714 -3.7925977892770684 9 0 0
1287 263 2 0 1.9166225820151617 -2.4927465345528024 -4.20768809664926 11 0 0
1289 263 4 0 1.52629208315747 -2.653118597169656 -4.112809634483383 11 0 0
1288 263 4 0 2.346759879588708 -2.3211993863168088 -4.3305589566091065 11 0 0
579 116 3 0 2.7116158014239513 -2.1941781003364325 -4.450430904162263 12 0 0
1710 404 2 0 6.661677211886138 -2.120789111582499 -4.541023387713396 33 1 0
1712 404 4 0 6.64354990482583 -1.8381692479954959 -4.200917244827898 33 1 0
1500 334 2 0 -2.0855593859905026 -7.489784897489187 -3.122933506621444 9 0 1
874 175 3 0 -1.205615801214062 -7.8225063277851 -2.989846905202164 30 1 0
755 151 3 0 -6.985006678553414 -7.149951979200304 -3.4639079856726642 9 0 0
751 151 1 0 -6.9198556246527 -6.764186837762981 -3.6422957522321298 9 0 0
812 163 3 0 -3.0059351298951382 -6.70442440314895 -3.4225410786381287 28 1 0
815 163 3 0 -2.3900112042004444 -7.005673733644278 -3.651294220129145 28 1 0
1501 334 4 0 -2.0845281039702686 -7.2360862956311625 -3.498318952095783 9 0 1
125 25 3 0 -8.046814790651034 -5.679441441907749 -3.206838592232657 10 0 0
123 25 3 0 -8.255731872044139 -6.3453941287534885 -3.0042011019771353 10 0 0
121 25 1 0 -8.316356410994008 -5.920617620214287 -2.941490257896776 10 0 0
754 151 3 0 -7.020437461159023 -6.443184214380806 -3.3556710141337787 9 0 0
668 134 3 0 -4.064217715861898 -5.5673655126087445 -3.0056116943137337 31 1 0
1418 306 4 0 -3.921665396233661 -5.9630048007416 -3.0481687237872066 10 0 0
1417 306 4 0 -3.145358449464207 -6.381747557027481 -3.294050501118015 10 0 0
1416 306 2 0 -3.5452003391982885 -6.173635936763187 -3.172006786567202 10 0 0
124 25 3 0 7.941136501372398 -5.812874327555998 -3.012224312691428 9 0 0
1856 452 4 0 7.758576945011367 -5.569433304661533 -3.2637209513176497 9 0 0
1348 283 4 0 -8.065990346583803 -5.419215712766729 -3.5131367716821194 12 0 0
331 67 1 0 -5.180284480419257 -5.336643951307031 -3.6932674008019433 10 0 0
333 67 3 0 -5.325302332115353 -5.151192539002385 -3.3242705473473855 10 0 0
334 67 3 0 -4.756067590596095 -5.419304375126057 -3.661859411712596 10 0 0
666 134 1 0 -4.239551728425743 -5.155576121999838 -2.9737986322926355 31 1 0
670 134 3 0 -4.6890598548376445 -5.178018368703798 -3.0205155360519784 31 1 0
667 134 3 0 -4.078273025910437 -4.903024992841836 -3.2741462145683062 31 1 0
417 84 3 0 -0.520375189467206 -5.1879384001824445 -3.138918404234734 8 0 0
1337 279 4 0 -1.2340328866721748 -4.7193180233654815 -2.9237712074965794 9 0 0
418 84 3 0 0.046479557917409764 -5.445419018811556 -3.532421922529851 8 0 0
416 84 1 0 -0.24385477908473696 -5.09903732655512 -3.4873026016985627 8 0 0
420 84 3 0 -0.016676845641484306 -4.713447975929439 -3.4162548314813534 8 0 0
355 71 3 0 1.4909814218971 -4.900025498756101 -2.8845893884307348 8 0 0
90 18 3 0 5.5794713734844805 -4.748598260362948 -3.1542299660736974 9 0 0
87 18 3 0 5.020605059877504 -5.202180400369505 -2.973235956798284 9 0 0
1405 302 4 0 5.282731756741457 -5.52322638825015 -3.6100296115221404 9 0 0
89 18 3 0 5.5953018676972 -5.463042143734245 -3.3552787533587694 9 0 0
86 18 1 0 5.460937692828045 -5.168452490967408 -3.027995336522536 9 0 0
1854 452 2 0 7.676206478758729 -5.243007207495211 -3.530111723990479 9 0 0
1303 268 4 0 -3.8911588196193625 -4.559710995865755 -3.2951991516612162 10 0 0
1302 268 2 0 -3.594096271989631 -4.261504508704655 -3.1703418596150676 10 0 0
1304 268 4 0 -3.273764396554582 -3.9532389476986918 -3.0353498050122614 10 0 0