LAMMPS data file via write_data, version 4 Feb 2025, timestep = 200000, units = lj

64 atoms
4 atom types
48 bonds
1 bond types
56 angles
2 angle types

-2.5 2.5 xlo xhi
-2.5 2.5 ylo yhi
-2.5 2.5 zlo zhi
0 0 0 xy xz yz

Masses

1 1
2 1
3 0.1
4 0.1

Bond Coeffs # harmonic/omp

1 100 0.45

Angle Coeffs # harmonic/omp

1 100 180
2 100 109.471

Atoms # full

48 11 4 0 -1.8462684333241952 0.2832030412499815 -1.7967441073202304 9 1 2
12 3 3 0 -2.160384314696522 0.27146235782412154 -2.0343421533433115 5 0 1
47 11 2 0 -1.4119819169975247 0.2931794251941193 -1.6877473650165797 9 1 2
11 3 1 0 -2.240131306875103 0.41666937523374203 -2.435065267561563 5 0 1
49 11 4 0 -0.9716943404253873 0.29699178320717223 -1.5727499181103664 9 1 2
20 4 3 0 -0.5683472010318569 0.3951620671362872 -1.4939507331993318 2 -1 1
43 9 4 0 -1.6441927882141991 0.9429467043123352 -2.4994619023326816 5 0 1
17 4 3 0 -0.31750933225747247 0.8444798919052166 -0.9371725469896437 2 -1 1
16 4 1 0 -0.363076782406178 0.7789884303537198 -1.4127075752379588 2 -1 1
27 6 3 0 -0.10403888538312911 0.9421800023600877 -2.204017255964582 5 0 2
18 4 3 0 -0.6000745811470032 1.1226940249771267 -1.5897834297427038 2 -1 1
26 6 1 0 -0.06738325755648011 1.3678669970676998 -2.327254967880813 5 0 2
30 6 3 0 -0.023907397408926112 1.6021594264385461 -1.9796906499412608 5 0 2
25 5 3 0 -1.2606882693351942 -0.6260603937319962 0.7476517629499724 5 0 1
57 14 4 0 -0.18407214646936287 0.4466074148912753 0.7325333957881419 5 0 1
53 13 2 0 -0.27435186524085076 1.4859105299269615 -0.3463553972707185 1 -1 1
55 13 4 0 -0.3422135443263339 1.109264378774875 -0.6220197806081029 1 -1 1
54 13 4 0 -0.20765232838047387 1.867225253947785 -0.07552611087643335 1 -1 1
2 1 3 0 -0.18120203994370065 1.7790260619789109 0.8269651360146684 5 0 -1
5 1 3 0 -0.01746042172519413 2.4967718042113365 0.7944585953936567 5 0 -1
22 5 3 0 -1.2959221378568868 -0.9534086447281642 1.4352711530553108 5 0 1
21 5 1 0 -1.2533983821309962 -0.5506908592432913 1.1955193178188432 5 0 1
15 3 3 0 -2.2992376085100883 0.07416589061060641 2.296998204530368 5 0 0
23 5 3 0 -1.6012592119411837 -0.27066351065970373 1.3196048228543065 5 0 1
24 5 3 0 -0.8431545120908834 -0.3473604589810253 1.3180446673624813 5 0 1
58 14 4 0 -0.7641778739307534 -0.15060131250938635 0.9860691256174547 5 0 1
56 14 2 0 -0.4737774670452919 0.14467951650738442 0.8567345572587923 5 0 1
14 3 3 0 -1.9116672579064335 0.6461032868740868 2.437940628829284 5 0 0
42 9 4 0 -0.8091935372747749 1.3628129240023434 2.4553069969138264 5 0 0
41 9 2 0 -1.231966416554686 1.1512158827350905 2.4724074665613873 5 0 0
29 6 3 0 -0.4453041111431766 1.5031237205280785 2.4502588683611704 5 0 1
19 4 3 0 0.02947199751356555 0.7780595882238384 -1.587133809063848 2 -1 1
13 3 3 0 2.380525375174873 0.6784002656570887 -2.4347212163216048 4 0 1
37 8 3 0 0.4268168650384223 2.4920173326821953 -0.8740320223982567 2 -1 3
61 15 4 0 0.5556939155827667 2.1733626579839065 -1.1088374181669294 3 -1 2
59 15 2 0 0.45350179268773116 1.9712881970210034 -1.488475472910335 3 -1 2
60 15 4 0 0.3372028628719925 1.757157338668799 -1.8934944022462112 3 -1 2
62 16 2 0 1.1069316076446354 -1.5303259428894689 0.11875732107769377 2 0 3
40 8 3 0 0.8884150508364956 -2.118804789771386 -0.3628365782438925 2 0 3
64 16 4 0 0.8446025214189139 -1.7907437614619206 -0.14103730143913218 2 0 3
63 16 4 0 1.3681715764391722 -1.2782751550456144 0.3953135191094974 2 0 3
10 2 3 0 1.7007281357182844 -0.5602239016525257 0.7673045842935693 6 1 0
7 2 3 0 1.4730430862209531 -1.2554711634681859 0.8017078197023695 6 1 0
35 7 3 0 0.22499200992918222 0.4285237557364918 0.7687482396013356 1 -1 0
32 7 3 0 0.8903893868953636 0.30462824972063807 0.46606638021273783 1 -1 0
31 7 1 0 0.6195444123675249 0.213629932086969 0.8286266932286472 1 -1 0
36 8 1 0 0.7598804710438034 2.441461013472642 -0.5480168081687329 2 -1 3
38 8 3 0 0.6098720713012655 2.1763843507831773 -0.21685783737680353 2 -1 3
39 8 3 0 1.1063082831908377 2.2550445180480274 -0.7181921523425512 2 -1 3
3 1 3 0 0.5142063308654721 2.012185391848506 0.7030561273226632 5 0 -1
1 1 1 0 0.08348556300501953 2.0988933175783107 0.6244581543552918 5 0 -1
4 1 3 0 0.016201684438989616 2.1002659735350235 0.1909245994851334 5 0 -1
6 2 1 0 1.5780600627111054 -0.8801096099001522 1.0388683471010918 6 1 0
8 2 3 0 1.2544120366343186 -0.7526558019496528 1.255893728135418 6 1 0
9 2 3 0 1.9388573084705651 -0.9772328075615433 1.3339599394509731 6 1 0
45 10 4 0 2.1090090917702673 -0.9635360834323126 1.6862461684204213 8 1 0
44 10 2 0 2.2937285067049125 -0.5980165713620955 1.8886095519734063 8 1 0
33 7 3 0 0.5436712198992022 -0.22937040553604104 0.8659903038407579 1 -1 0
34 7 3 0 0.8194711712637952 0.37189001005078914 1.2124931072844456 1 -1 0
46 10 4 0 2.4722388629020173 -0.23158836044090325 2.097722535929167 8 1 0
28 6 3 0 0.2873647830572268 1.4276609057631795 2.4131632418181326 5 0 1
50 12 2 0 0.7106802447050153 0.9908066659507919 1.7863431654043183 0 -1 1
51 12 4 0 0.5740847593227243 1.2705860748973983 2.135953474396734 0 -1 1
52 12 4 0 0.8598473355674536 0.7137755478552354 1.4422953029218055 0 -1 1

Velocities

48 -0.6511869826542368 -0.8341711211602467 0.22166798126313525
12 -0.5671393870879098 0.6717584825012172 -0.47168173278911885
47 -0.02948477539914849 -0.44875132810197055 -0.3663886456927594
11 0.09337160490292784 0.2984935963815952 0.1821573946636035
49 0.8635167532530063 0.42108626892435747 1.865736603599828
20 0.11684522419057962 1.1942762726928915 0.27482207556935095
43 1.8353890099997958 -1.3140284883174997 -0.6944331558981158
17 -0.09993296484692543 -0.8047001521956819 -0.1322782278548769
16 -0.44625672905509917 0.4008483827307095 0.11623651391205338
27 0.15588976364770285 -0.1326149521060926 1.8709611357507308
18 0.7033303053880887 -1.0456316739927631 0.1830086679383608
26 0.0295146226815092 0.07582794772716048 0.4328466505566634
30 0.15695944819136212 0.12701555261404598 -0.2705931301324981
25 -0.8125653088231718 -0.2815331143134796 0.16113013479835434
57 0.16125059542659873 1.4032269006977964 -0.6913136836393656
53 0.013639864905386379 -0.39935832208916233 -0.12505525173006965
55 -0.7837441199522797 1.0255082707269791 0.024013294223072155
54 0.45897980641851616 -0.02959463240297545 -0.40574429957928376
2 1.6252499959034785 -0.7964994253847674 0.3633045584094118
5 0.401932463766863 -0.3598525085032635 -0.2516058095742023
22 -0.1906702674678457 0.20943828868637981 -0.6583582375868055
21 0.2122508681913695 -0.12474262857788634 0.059970479935581564
15 -0.02152124788258243 -0.074940842648829 0.446456403040501
23 0.11200686725549397 -0.9486832869549935 0.33985184923486933
24 -0.05320996337250258 -0.8634655515770338 0.06461248908563663
58 -0.2694781114609183 0.2979670271154304 -0.5470453129683772
56 0.37098531088247566 -0.28310598368348955 0.20349619911891795
14 0.3114282994824889 -0.3196691875026714 -0.8063169541474206
42 -0.2075234250859178 0.32281345904148395 -1.1089503731952615
41 -0.11611249724790339 0.03480763558086138 -0.10850286064308355
29 -0.3286813157243998 -1.6773568055035764 0.1457834381949282
19 0.5248604380685247 0.02961349811950177 0.8753849131037402
13 -0.4562971299685976 0.2194870653705323 0.6314177393196492
37 0.871627262317764 -0.3423786252005931 1.4416263179397601
61 0.9720642476160029 0.8574232836991144 -1.0669797177086349
59 -0.04246294261238655 0.4567398855313631 0.11396246545502266
60 0.3297505086930691 -0.5355247055431898 0.10324284849952091
62 -0.3050160782787033 -0.08066249105506551 -0.3963385065034852
40 -0.02964580580874285 0.1329813469598209 0.2433035834045778
64 -0.1573023792259392 -0.30604542989408623 -0.6427342986606691
63 0.05478430854242076 -0.39477605880987676 0.4286245936466743
10 -0.041567777969068825 0.17023828588705386 -0.15863670123748744
7 -0.12826881159320902 -0.12497999700204823 0.29063265758157125
35 -0.1258022459238779 -1.115027885958798 1.3504082291673984
32 -0.4650327623381681 0.594045286310011 -0.9236848098218281
31 0.08423427304307012 0.5455837137586651 -0.42525507883162955
36 0.5064366020893704 -0.036157549080767896 0.4128362845675471
38 -0.5319482362605894 -0.8602778074666454 -0.6692350855504219
39 -0.43409228336697747 -0.4937636909097741 -0.686773022582522
3 0.5035878802354309 -0.7556782172279365 -0.4656767821508392
1 0.15775198446578861 -0.3788181186633832 -0.24532723717044638
4 0.3489215438877874 -0.45719929113083135 -0.015012289269376849
6 0.4327534547644184 0.09537851422109173 0.406064317998933
8 -1.0101366507083718 0.9971288955047927 -0.25689030918618966
9 0.6419564148648058 0.16327140022033462 0.03236230501518851
45 0.2818801285782303 0.36165588982246666 0.1121103508547993
44 -0.11949048305215149 0.6543401373170947 0.14010446716076946
33 0.12092475730611334 0.15998743338883173 -0.4418501971597239
34 0.2382804151638593 0.6136963003379294 -0.1245953423057167
46 0.3779267366824769 0.22695141582809367 -0.30570321757055435
28 1.08623961141149 0.759461521125027 0.17163880678013993
50 -0.16552160052401088 -0.3936118457819925 -0.4266246695407163
51 -0.9545170418315936 -0.17353462934262898 0.14696416443494043
52 0.16077956999342913 -0.08504867681285097 0.26520331955712195

Bonds

1 1 47 48
2 1 47 49
3 1 11 12
4 1 11 13
5 1 11 14
6 1 11 15
7 1 16 17
8 1 16 18
9 1 16 19
10 1 16 20
11 1 26 27
12 1 26 28
13 1 26 29
14 1 26 30
15 1 53 54
16 1 53 55
17 1 21 22
18 1 21 23
19 1 21 24
20 1 21 25
21 1 56 57
22 1 56 58
23 1 41 42
24 1 41 43
25 1 59 60
26 1 59 61
27 1 62 63
28 1 62 64
29 1 31 32
30 1 31 33
31 1 31 34
32 1 31 35
33 1 36 37
34 1 36 38
35 1 36 39
36 1 36 40
37 1 1 2
38 1 1 3
39 1 1 4
40 1 1 5
41 1 6 7
42 1 6 8
43 1 6 9
44 1 6 10
45 1 44 45
46 1 44 46
47 1 50 51
48 1 50 52

Angles

1 1 48 47 49
2 2 12 11 13
3 2 12 11 14
4 2 12 11 15
5 2 13 11 14
6 2 13 11 15
7 2 14 11 15
8 2 17 16 18
9 2 17 16 19
10 2 17 16 20
11 2 18 16 19
12 2 18 16 20
13 2 19 16 20
14 2 27 26 28
15 2 27 26 29
16 2 27 26 30
17 2 28 26 29
18 2 28 26 30
19 2 29 26 30
20 1 54 53 55
21 2 22 21 23
22 2 22 21 24
23 2 22 21 25
24 2 23 21 24
25 2 23 21 25
26 2 24 21 25
27 1 57 56 58
28 1 42 41 43
29 1 60 59 61
30 1 63 62 64
31 2 32 31 33
32 2 32 31 34
33 2 32 31 35
34 2 33 31 34
35 2 33 31 35
36 2 34 31 35
37 2 37 36 38
38 2 37 36 39
39 2 37 36 40
40 2 38 36 39
41 2 38 36 40
42 2 39 36 40
43 2 2 1 3
44 2 2 1 4
45 2 2 1 5
46 2 3 1 4
47 2 3 1 5
48 2 4 1 5
49 2 7 6 8
50 2 7 6 9
51 2 7 6 10
52 2 8 6 9
53 2 8 6 10
54 2 9 6 10
55 1 45 44 46
56 1 51 50 52
