LAMMPS data file via write_data, version 2 Aug 2023, timestep = 9000000, units = lj

15882 atoms
4 atom types
10748 bonds
1 bond types
6334 angles
2 angle types

-16.594292 16.594292 xlo xhi
-16.594292 16.594292 ylo yhi
-16.594292 16.594292 zlo zhi

Masses

1 1
2 1
3 1
4 1

Bond Coeffs # harmonic

1 100 0.5

Angle Coeffs # harmonic

1 100 180
2 100 109.471

Atoms # full

2308 610 2 0 -15.215377851549798 -15.295218637755191 -16.577206645218535 0 0 0
2569 697 2 0 -11.407167699154154 -16.321037490206013 -15.788941668739918 0 0 0
2571 697 4 0 -11.466870118476601 -16.157653255355967 -15.338252322601095 0 0 0
2570 697 4 0 -11.341201524308902 -16.471212757637737 -16.24885905803817 0 0 0
15617 5046 4 0 -11.272313049309476 -16.275181571493636 -16.585343387190573 0 1 1
2848 790 2 0 -2.250240361433651 -15.619801278376684 -15.854175180543594 0 0 0
2850 790 4 0 -1.894353198250408 -15.946197840844892 -15.815358558108311 0 0 0
2987 836 4 0 -1.8800639939170065 -16.276438769106665 -16.05737123993068 0 0 0
7377 2299 4 0 -1.6366719384642943 -15.978104907769927 -16.135180110074398 0 0 1
2986 836 2 0 -2.067296333825159 -16.586648765578442 -16.451698986633446 0 0 0
2849 790 4 0 -2.6157596286228415 -15.286475446159757 -15.893069539752211 0 0 0
7375 2299 2 0 -1.2512830846492795 -15.86396943732518 -16.423363856126453 0 0 1
3262 928 2 0 1.4114744870410891 -15.484115671215148 -15.137031300354083 0 0 0
3263 928 4 0 1.138999449818302 -15.034070521829936 -15.04905243012306 0 0 0
3264 928 4 0 1.6811273514026133 -15.924256613017105 -15.224315413394065 0 0 0
7320 2280 4 0 1.81102675905184 -16.28273331553293 -15.323811127284229 0 0 1
1909 477 2 0 2.4919836311884 -15.920256099553523 -15.082512542825807 0 0 0
1910 477 4 0 2.002576525031935 -16.04612775409196 -15.063569644878143 0 0 0
1911 477 4 0 3.018205684065015 -15.782712682644524 -15.112935058753145 0 0 0
2094 538 4 0 3.3696487881652164 -15.559390546177463 -15.082793914232385 0 0 0
2092 538 2 0 3.7516603539560696 -15.295592752557491 -15.268417677038833 0 0 0
2469 663 4 0 3.377608229867499 -15.947508830364189 -15.067034615511902 0 0 0
2467 663 2 0 3.5024466152006157 -16.385776788005177 -15.346882678107248 0 0 0
2824 782 2 0 7.1444842394791 -15.967528463192341 -16.267776229092753 0 0 0
2808 776 4 0 7.242714836506948 -15.229420346145137 -15.90367642291379 0 0 0
2826 782 4 0 7.251145854419728 -15.627517400467001 -15.936373997629879 0 0 0
6251 1924 4 0 7.372480549141127 -15.380987391935195 -16.232464337326547 0 0 1
2991 837 4 0 7.605940048394077 -15.456192427376415 -15.918729569000215 0 0 0
2990 837 4 0 8.11821289057971 -15.700318737448164 -15.069759942203659 0 0 0
2989 837 2 0 7.858989869926187 -15.578207968029437 -15.483382215420091 0 0 0
2371 631 2 0 15.034588733194582 -16.389003397521936 -15.413989727282765 0 0 0
2373 631 4 0 14.97400907798639 -15.999727280950603 -15.098140485796014 0 0 0
10305 3275 4 0 -13.119751499890677 -16.56761682495157 -8.650211141210908 0 1 0
2310 610 4 0 -15.222423664282168 -14.92714260899751 -16.20566224322223 0 0 0
2093 538 4 0 4.121810355199028 -15.033119279256617 -15.460353992267512 0 0 0
15041 4854 4 0 4.458500432653733 -14.82977964790343 -15.329830612324454 0 1 1
8411 2644 4 0 4.339057655461237 -14.822191379991077 -15.728150545014001 0 0 1
8410 2644 2 0 4.416800284574017 -14.85187167203769 -16.207253245507093 0 0 1
15040 4854 2 0 4.766756920401983 -14.46186512121109 -15.198358283966773 0 1 1
15042 4854 4 0 5.079179266071785 -14.084562289583676 -15.059654793874673 0 1 1
1444 322 2 0 5.871828179093441 -14.278856450771794 -15.138766651303682 0 0 0
2747 756 4 0 5.164535422826219 -13.789647296500732 -15.310481788181331 0 0 0
1445 322 4 0 5.4532603608555315 -14.026549494534171 -15.174789363125191 0 0 0
2806 776 2 0 6.917276191372652 -14.972106663942037 -15.595520027998363 0 0 0
2807 776 4 0 6.60098196649096 -14.72545509563124 -15.293388843467111 0 0 0
1446 322 4 0 6.287560754022376 -14.536316379572387 -15.10379987118922 0 0 0
3203 908 4 0 6.627343834990118 -14.343708305764489 -15.209957749199273 0 0 0
6250 1924 2 0 7.660057394396031 -14.98238632082155 -16.412638114968573 0 0 1
1342 288 2 0 15.690453954241775 -13.917092002603704 -15.322415364782339 0 0 0
1344 288 4 0 15.43794737693994 -13.742271897992593 -15.699725700615256 0 0 0
1361 294 4 0 15.539192557722178 -13.752509208899218 -16.07864288067428 0 0 0
6935 2152 4 0 3.5253630968183973 -12.867664434968413 -15.628435488665886 0 0 1
6934 2152 2 0 3.824267460355455 -12.74428323171078 -16.051332239240473 0 0 1
6936 2152 4 0 4.117898628164349 -12.60488246032343 -16.461274906232635 0 0 1
2216 579 4 0 3.629830211487419 -12.845738543209674 -15.237422873603675 0 0 0
2748 756 4 0 5.393124387021617 -12.828614945347136 -15.465618293383613 0 0 0
2088 536 4 0 5.586496329006843 -12.47654967961469 -15.57988423917343 0 0 0
6692 2071 4 0 5.629502942013435 -12.792102440517224 -15.81114107257443 0 0 1
6691 2071 2 0 5.948725625296403 -12.872200030547505 -16.203015139602375 0 0 1
2746 756 2 0 5.273740581853875 -13.306893275913893 -15.385270729879371 0 0 0
2086 536 2 0 5.808127452040302 -12.153056362102042 -15.280861804366829 0 0 0
8169 2563 4 0 13.437796716206293 -12.077927683991806 -15.878946403136041 0 0 1
2505 675 4 0 13.106348757431947 -12.204294676031923 -16.07156112447066 0 0 0
2503 675 2 0 12.954978347607584 -12.14141190076701 -16.524119715235503 0 0 0
8419 2647 2 0 14.885879588281618 -12.107056747752505 -15.145664173557384 0 0 1
1360 294 2 0 15.786637991720903 -13.561012277992363 -16.481313669581226 0 0 0
3412 978 2 0 15.324028346709966 -12.944173695654039 -15.654034100342496 0 0 0
3414 978 4 0 15.40470305313476 -13.383103364483086 -15.919503654340348 0 0 0
3413 978 4 0 15.249681282350599 -12.551737574416721 -15.396027612123063 0 0 0
8420 2647 4 0 15.388962709499166 -12.211461813975555 -15.254172495895803 0 0 1
6371 1964 4 0 -12.70885780641333 -10.680526680865535 -16.359106761755278 0 0 1
6370 1964 2 0 -12.208004646311643 -10.716572094260535 -16.4109399766447 0 0 1
6372 1964 4 0 -11.690591943528974 -10.761104684828107 -16.46199207886928 0 0 1
6786 2102 4 0 -11.31189530537553 -10.817180248651315 -16.537458189160223 0 0 1
7957 2493 2 0 -4.170924705281277 -10.772057959651436 -15.45472308874557 0 0 1
7959 2493 4 0 -4.1189174813318745 -10.596699780353342 -15.906016306678252 0 0 1
1997 506 4 0 2.239417063878033 -10.906722192357666 -15.995161145283497 0 0 0
1328 283 4 0 2.251493005579234 -11.317047980842178 -15.921635152746862 0 0 0
1327 283 2 0 2.0557046205119223 -11.57914505024019 -15.534004584423956 0 0 0
1329 283 4 0 1.8647532927268466 -11.840482914087147 -15.128430315170693 0 0 0
3051 857 4 0 6.90744170771057 -10.677758360989152 -15.947996288422205 0 0 0
1662 394 4 0 6.90339580471709 -10.995614092012291 -15.668495619429123 0 0 0
1660 394 2 0 6.5852291875814934 -11.27812532862487 -15.38679990499659 0 0 0
1661 394 4 0 6.277323394629327 -11.556603972534473 -15.101339039794336 0 0 0
8167 2563 2 0 13.74175408556464 -11.934682831725876 -15.536730022691808 0 0 1
8168 2563 4 0 14.070131308847362 -11.798189779377877 -15.204285641379704 0 0 1
8421 2647 4 0 14.395181404499825 -12.00347229663321 -15.053885332428985 0 0 1
3411 977 4 0 -16.406141629542734 -9.130941072097855 -15.049927644723576 1 0 0
1382 301 4 0 -14.359367563527792 -9.180094391381454 -15.138455621762803 0 0 0
1511 344 4 0 -14.026298404471913 -9.378855827781969 -15.085699107696179 0 0 0
1381 301 2 0 -14.68253205364566 -9.0417058621138 -15.456261502230351 0 0 0
8297 2606 4 0 -12.836851121671234 -10.554049717400977 -15.995746903622893 0 0 1
3561 1027 4 0 -13.031051333620411 -10.473747092070575 -16.32936717795023 0 0 0
8296 2606 2 0 -12.967651964541 -10.490265371435166 -15.542899342136561 0 0 1
8298 2606 4 0 -13.118080970024875 -10.4124371851435 -15.028706961532748 0 0 1
6797 2106 4 0 -11.197867739925398 -9.134308049994226 -16.109156727848564 0 0 1
7563 2361 4 0 -10.978826493479541 -9.279691921886473 -16.42950681999313 0 0 1
7451 2324 4 0 -11.274602836632328 -9.46900954347133 -16.27962990955826 0 0 1
7452 2324 4 0 -11.461227514192359 -10.44418378769012 -16.460482887767267 0 0 1
7450 2324 2 0 -11.370768305099837 -9.966858482095866 -16.381220238077074 0 0 1
6672 2064 4 0 -1.3556291329379906 -9.102860187395724 -15.454948862900045 0 0 1
1998 506 4 0 2.298539108237902 -9.950139726891665 -15.890023906369052 0 0 0
1996 506 2 0 2.272870668565463 -10.427692144201053 -15.946292630038448 0 0 0
3504 1008 4 0 2.02613104351542 -9.759030535477626 -15.709612221125958 0 0 0
3502 1008 2 0 2.0334800061328684 -9.69818952475514 -15.205001308705123 0 0 0
2867 796 4 0 2.0945440728378633 -9.65342684208764 -16.07642595440836 0 0 0
2866 796 2 0 2.1355480569236014 -9.533720940043118 -16.568035197120967 0 0 0
3049 857 2 0 7.0396898617042565 -10.203361130448029 -16.00716528466399 0 0 0
3050 857 4 0 7.181132883040887 -9.717993163809835 -16.067975327271768 0 0 0
7635 2385 4 0 7.165507982820459 -9.36304132770688 -16.200718263072048 0 0 1
6147 1889 4 0 7.449925295643234 -9.44682397094806 -15.935433429875014 0 0 1
1252 258 2 0 5.714008507047983 -16.58750163616298 -12.448917759925868 0 0 0
6145 1889 2 0 7.779705157332827 -9.476714788209634 -15.526184448472138 0 0 1
6146 1889 4 0 8.076015088254932 -9.492792388966222 -15.129955859713107 0 0 1
6829 2117 2 0 -15.83524646264764 -8.872293624945307 -15.61294730191202 1 0 1
6831 2117 4 0 -16.279821256842983 -8.946269746156023 -15.396224428938508 1 0 1
6830 2117 4 0 -15.390903139520344 -8.792848150739985 -15.83480944453971 1 0 1
2337 619 4 0 -14.000496047394378 -9.00038352897678 -15.155928594033313 0 0 0
1383 301 4 0 -15.013933926137284 -8.907122063229732 -15.795329488929454 0 0 0
2335 619 2 0 -13.622515086844077 -8.651356705601263 -15.137760483862861 0 0 0
6792 2104 4 0 -13.01267601310575 -7.978535119421122 -15.113898925275677 0 0 1
2336 619 4 0 -13.251299289205706 -8.308351370339677 -15.112656476553136 0 0 0
2286 602 4 0 -12.835524752440739 -8.347294647528138 -15.100578531029864 0 0 0
2284 602 2 0 -12.344477637402376 -8.530713102914603 -15.12933938072256 0 0 0
6796 2106 2 0 -11.393478340866377 -9.066566610434132 -15.66922266506345 0 0 1
6798 2106 4 0 -11.593549867324526 -8.983290400906542 -15.218259863406217 0 0 1
7315 2279 2 0 -10.903039496714651 -7.764886345845608 -16.30434693539955 0 0 1
7561 2361 2 0 -10.819607322983337 -8.818419785489166 -16.565976269611056 0 0 1
2285 602 4 0 -11.872829792502047 -8.713773328575577 -15.151956601081745 0 0 0
7317 2279 4 0 -10.535260488526957 -8.092855053962289 -16.406829605572003 0 0 1
2483 668 4 0 -7.844879669269984 -7.5615644976794 -15.350299344065402 0 0 0
2976 832 4 0 -1.62863542579468 -8.921508112188624 -15.23186668625146 0 0 0
3601 1041 2 0 -1.9294196000290178 -8.580812966082496 -15.848358863442979 0 0 0
3602 1041 4 0 -1.6303631744199423 -8.904957577315187 -15.639429020435834 0 0 0
3603 1041 4 0 -2.235820212123507 -8.23799110727437 -16.079807354609308 0 0 0
7116 2212 4 0 -2.1401571055321393 -7.899131295665513 -16.245694843636542 0 0 1
6670 2064 2 0 -0.8874470665876797 -8.901111714584863 -15.365360057760602 0 0 1
6671 2064 4 0 -0.41837907272721875 -8.68726237858199 -15.284032932904385 0 0 1
7133 2218 4 0 -0.04548260751782904 -8.654078512108866 -15.201164527053505 0 0 1
7132 2218 2 0 0.10536818094513552 -8.401889195789076 -15.611198094209504 0 0 1
7134 2218 4 0 0.24069192158914227 -8.175028801245851 -15.991412764223442 0 0 1
1751 424 4 0 0.6226422936848193 -8.122486444568443 -15.911645709972218 0 0 0
1750 424 2 0 1.0587055618285033 -8.022133469218662 -16.105056401507778 0 0 0
1752 424 4 0 1.492537349878593 -7.925598222811391 -16.311570861628596 0 0 0
3322 948 2 0 2.8987749534627767 -8.466247911140375 -16.510719809508156 0 0 0
2089 537 2 0 3.0440007877279123 -8.237230301776234 -15.327816983837922 0 0 0
2090 537 4 0 3.2750140381746484 -8.338236766643258 -15.786016106885493 0 0 0
3324 948 4 0 3.0579589080989598 -8.60247038262266 -16.036888098862192 0 0 0
3177 899 4 0 11.193023429991715 -7.8866587326199795 -15.340528901924245 0 0 0
3175 899 2 0 11.553859822129374 -8.216670830665175 -15.17989087635821 0 0 0
2298 606 4 0 10.989962487086276 -7.699214289297841 -15.61859055560474 0 0 0
1544 355 4 0 10.788695305926629 -7.861212675251148 -15.301903225855927 0 0 0
2296 606 2 0 10.696283589867065 -7.51423858826835 -16.005640848060413 0 0 0
6359 1960 4 0 16.545917665149236 -8.884109029603165 -15.259965634337556 0 0 1
6358 1960 2 0 16.128184568571626 -8.661510999728419 -15.421229417962236 0 0 1
3244 922 2 0 15.362873035894317 -7.731327065476911 -15.613894946785209 0 0 0
3245 922 4 0 15.364129985941942 -8.265337986658455 -15.586258813522084 0 0 0
6360 1960 4 0 15.725115408815393 -8.447222862214174 -15.569071416000439 0 0 1
6790 2104 2 0 -12.814417570359756 -7.5512968276894314 -15.316714820310995 0 0 1
6791 2104 4 0 -12.601633024130875 -7.124744081339499 -15.511082646209013 0 0 1
2028 516 4 0 -12.499977679849396 -7.062966821486394 -15.894556061125336 0 0 0
2386 636 2 0 -12.739225334875645 -6.326590774520588 -15.839857581658523 0 0 0
2387 636 4 0 -12.732392253630744 -6.8098098805945035 -15.689537602150956 0 0 0
2026 516 2 0 -12.085996009356014 -7.206738776803622 -16.097380508232447 0 0 0
7316 2279 4 0 -11.271966575072796 -7.443634143291069 -16.20063706458564 0 0 1
2027 516 4 0 -11.65758535146183 -7.355856389097612 -16.313099222354467 0 0 0
1245 255 4 0 -11.364956951311783 -7.093108123096891 -16.28270429443081 0 0 0
1243 255 2 0 -11.112581204807924 -6.67278821366664 -16.310242058599083 0 0 0
1244 255 4 0 -10.840149682129734 -6.234768378097295 -16.340055535456987 0 0 0
137 28 3 0 -9.975941976764581 -6.64938009768032 -15.999482099040026 0 0 0
136 28 1 0 -10.040879201072137 -6.170445593833123 -16.18806147318974 0 0 0
3025 849 2 0 -9.111166241638957 -6.041031624562945 -15.419319444678331 0 0 0
7092 2204 4 0 -8.05817866196461 -7.351413951917135 -15.076808293655573 0 0 1
3027 849 4 0 -8.815609973410282 -6.247227456160822 -15.069111399000388 0 0 0
7091 2204 4 0 -8.484314769634588 -6.459230347443903 -14.982369854688976 0 0 1
7090 2204 2 0 -8.268276481619978 -6.913684262822362 -15.03079834312503 0 0 1
2482 668 2 0 -7.464031425003121 -7.430957607055575 -15.653744383196479 0 0 0
2484 668 4 0 -7.071766508213625 -7.294059405391998 -15.963332213731135 0 0 0
6363 1961 4 0 -7.1199222078998625 -6.944921561985277 -16.07864623781688 0 0 1
6377 1966 4 0 -6.955224266262867 -7.210799028264236 -16.324894825995823 0 0 1
6361 1961 2 0 -6.977320757162179 -6.498614620312721 -16.010482981659347 0 0 1
6432 1984 4 0 -4.2270939496377204 -6.970997995383144 -15.09723334457734 0 0 1
7329 2283 4 0 -3.9795814762052526 -6.8994552873589345 -16.288656114763533 0 0 1
6430 1984 2 0 -4.123895511354628 -6.796811825552579 -15.572906352134778 0 0 1
6431 1984 4 0 -4.02465331633168 -6.6161225718328005 -16.03731336250587 0 0 1
8444 2655 4 0 -3.9750187440180005 -6.533613293229662 -16.4370451396981 0 0 1
7327 2283 2 0 -4.249394807199217 -7.273106979080666 -16.552784171744715 0 0 1
2297 606 4 0 10.394427240864273 -7.323770035623923 -16.398688439371693 0 0 0
7200 2240 4 0 12.64485233611213 -6.63926870556057 -15.89225503323222 0 0 1
7198 2240 2 0 12.404682793815889 -6.1526968861357885 -15.901369805033495 0 0 1
7220 2247 4 0 12.903985894679408 -6.790997167950629 -15.60815470543112 0 0 1
7219 2247 2 0 13.409920917342967 -6.739955404123765 -15.42832422510981 0 0 1
2743 755 2 0 14.715121215184675 -6.785838490508797 -15.434715582634077 0 0 0
7221 2247 4 0 13.892624027487908 -6.693796104262932 -15.260872192937196 0 0 1
2745 755 4 0 14.282198190518773 -6.643692262974393 -15.179036630449822 0 0 0
2744 755 4 0 15.12491936817964 -6.910646041628228 -15.66824236620297 0 0 0
107 22 3 0 16.281253535645874 -6.919300933999918 -15.334838412602092 0 0 0
108 22 3 0 15.48819504677371 -6.9019091249597775 -15.51360655629092 0 0 0
3246 922 4 0 15.347285098225608 -7.236687347136854 -15.649711123142147 0 0 0
110 22 3 0 15.946727629297405 -6.227092078536816 -15.608857189068807 0 0 0
106 22 1 0 15.868399009163523 -6.636351623800957 -15.331273090242947 0 0 0
1959 493 4 0 16.153911482427585 -6.011524844968283 -15.89776954508341 0 0 0
1957 493 2 0 16.463072963836666 -6.097191830280465 -16.255455983308813 0 0 0
2388 636 4 0 -12.735529139477446 -5.830396033745144 -16.001788044067876 0 0 0
3017 846 4 0 -12.737968519894796 -5.738370084138933 -16.379471739774722 0 0 0
2044 522 2 0 -13.077852766751747 -5.042536795480859 -15.974066678726652 0 0 0
2046 522 4 0 -12.944081402084988 -5.507503524764416 -16.131624764709905 0 0 0
9844 3122 2 0 -13.513721667897327 -16.592196533671725 -12.055756885526382 0 1 0
2045 522 4 0 -13.22380358592413 -4.5874456499481004 -15.821892650953 0 0 0
3273 931 4 0 -10.79141817890391 -5.864843376647376 -16.41429861052877 0 0 0
139 28 3 0 -10.524650698427 -6.042606778476642 -16.18145146248206 0 0 0
140 28 3 0 -9.752611562686086 -5.806542704663526 -15.885123850201499 0 0 0
3521 1014 4 0 -9.465597228841622 -5.600351313636403 -16.059360358894075 0 0 0
3026 849 4 0 -9.37699991485872 -5.858326140751049 -15.737514260469908 0 0 0
3520 1014 2 0 -9.219575232869973 -5.275233809947805 -16.338128261912967 0 0 0
1227 249 4 0 -8.67001958736077 -4.697328151633232 -16.536810522638177 0 0 0
1225 249 2 0 -8.457572950926934 -4.493051616664953 -16.112761492448236 0 0 0
2017 513 2 0 -7.9326444128447005 -4.695762155850665 -15.088329350503708 0 0 0
6362 1961 4 0 -6.835712226301567 -6.034390363323258 -15.940612780948149 0 0 1
6337 1953 2 0 -7.332019784370627 -5.592718456650833 -15.360980050386518 0 0 1
6339 1953 4 0 -7.079736742235509 -5.734895080325807 -15.768035118587475 0 0 1
7594 2372 2 0 11.691829760899509 -5.346333490379776 -15.683763809113232 0 0 1
7596 2372 4 0 11.78788811815031 -5.7777915985637 -15.945445756374 0 0 1
7595 2372 4 0 11.59206720913426 -4.950301633020458 -15.433886599717622 0 0 1
2138 553 4 0 11.495068835241815 -4.606963345210739 -15.233332781898936 0 0 0
6540 2020 4 0 11.880254786145262 -4.6790182379657566 -15.35635134261839 0 0 1
2430 650 4 0 11.585846413746003 -4.602050389247445 -15.616313937837315 0 0 0
7199 2240 4 0 12.190787075958372 -5.720057929601005 -15.917817778379874 0 0 1
6538 2020 2 0 12.344793597850405 -4.594875265670624 -15.237338917214739 0 0 1
6539 2020 4 0 12.821450303327493 -4.49970330539186 -15.10582550453298 0 0 1
7203 2241 4 0 16.151256902913826 -5.883954129898864 -15.528384308178477 0 0 1
7201 2241 2 0 16.00093843259545 -5.499068524555173 -15.251092959154343 0 0 1
2929 817 2 0 -15.65157583932003 -3.452603561887939 -16.47957112194023 1 0 0
2930 817 4 0 -15.324762206345138 -3.3417372817076054 -16.108289112116545 1 0 0
604 121 3 0 -15.08532379935541 -3.018336871096931 -16.116619853309466 0 0 0
6498 2006 4 0 -14.97470363275211 -3.3561083394930833 -16.288879682800026 1 0 1
6496 2006 2 0 -14.493271224594077 -3.2873483132051287 -16.452195208977024 1 0 1
2562 694 4 0 -13.078881647305149 -4.215452114749591 -15.906614782745029 0 0 0
2560 694 2 0 -12.643666222541233 -4.0365053118713705 -16.132136420384192 0 0 0
2561 694 4 0 -12.207862451599446 -3.846293085028754 -16.360916066215278 0 0 0
1670 397 4 0 -12.00093762903445 -4.110768359357108 -16.56614228210145 0 0 0
1226 249 4 0 -8.240702478525494 -4.288595754013483 -15.692619444425036 0 0 0
2651 724 4 0 -8.181810533788573 -3.9225662003568313 -15.54226003045375 0 0 0
2650 724 2 0 -7.810410413711161 -3.595443837972443 -15.349944161762577 0 0 0
2019 513 4 0 -8.072449384709236 -4.2640648349977095 -15.357182469860678 0 0 0
2652 724 4 0 -7.451876884476549 -3.269759315745534 -15.170090240036341 0 0 0
2400 640 4 0 5.4734750856208 -3.3270071497817493 -16.143630822656597 0 0 0
2040 520 4 0 5.323999000538794 -3.4943255008960903 -16.482136441524588 0 0 0
2979 833 4 0 5.271083579312325 -3.1095003475790737 -16.428033351495145 0 0 0
2398 640 2 0 5.782799506866454 -3.3927880901590606 -15.729581150276609 0 0 0
2399 640 4 0 6.052836916714111 -3.4683971260656676 -15.365142964013662 0 0 0
10791 3437 4 0 6.411174314950462 -3.6243556030140662 -15.25544858508605 0 0 0
2428 650 2 0 11.435923326515463 -4.261213013590687 -15.94697291507895 0 0 0
2429 650 4 0 11.281392364237794 -3.909723464472423 -16.274372113109905 0 0 0
6908 2143 4 0 11.206793860078358 -3.6128464512284078 -16.550748277875776 0 0 1
1819 447 2 0 15.418447411419006 -4.496463841259199 -15.16274582040418 0 0 0
2742 754 4 0 15.293236250185474 -4.168546651273238 -15.85925555532861 0 0 0
1821 447 4 0 15.286959455295621 -4.171382000622592 -15.478856112742987 0 0 0
2740 754 2 0 15.527881052511415 -4.325748005454008 -16.290161863826334 0 0 0
605 121 3 0 -15.656533856165584 -2.4803083003868225 -15.890080122865541 0 0 0
601 121 1 0 -15.178778288077186 -2.6163038798253875 -15.835845453795004 0 0 0
1348 290 2 0 -15.517957677906399 -1.734104726914874 -16.360742151077737 0 0 0
1349 290 4 0 -15.187706543379894 -2.0750335476493396 -16.156425600318382 0 0 0
602 121 3 0 -15.096431627611615 -2.741656322055324 -15.350132560918718 0 0 0
2597 706 4 0 -15.406114808969676 -2.7437352873900056 -15.072183641644243 0 0 0
603 121 3 0 -14.873598469053233 -2.2294517346898206 -15.962794391880271 0 0 0
1725 415 4 0 -13.87256589703796 -1.961389125313557 -16.00546021140678 0 0 0
1723 415 2 0 -14.373332398729634 -1.9123001275046 -16.095239436424958 0 0 0
1724 415 4 0 -14.860327934682006 -1.8654726717669081 -16.17983637974629 0 0 0
2605 709 2 0 -13.712167616776801 -2.0701900941258877 -15.223691328972384 0 0 0
2607 709 4 0 -13.590847969612291 -2.033627626026853 -15.709350309423616 0 0 0
7110 2210 4 0 -13.547802890799124 -2.1887056905321836 -16.049525197354907 0 0 1
7108 2210 2 0 -13.601361731058118 -2.6228876699520773 -16.31214128803571 0 0 1
3089 870 4 0 -13.523325570437711 -1.7933156024187922 -16.04293189608448 0 0 0
3088 870 2 0 -13.046951339052187 -1.5800977637112108 -16.058347345749652 0 0 0
7630 2384 2 0 -9.067105389780929 -1.7490021481131304 -15.745416806464053 0 0 1
7631 2384 4 0 -8.994311396528724 -2.0921185067030845 -16.130752658810373 0 0 1
8475 2665 4 0 -8.929341428363262 -2.1179989105920463 -16.533979159454592 0 0 1
2622 714 4 0 -0.5150999063431183 -1.912745287662426 -15.879171295394013 0 0 0
3047 856 4 0 -0.42154354972967123 -1.7580765058371952 -16.226772591772093 0 0 0
3348 956 4 0 -0.6711823397369855 -1.5628774779621832 -16.00961219857928 0 0 0
2620 714 2 0 -0.4725274688970493 -2.317165180882867 -15.592484423506074 0 0 0
2621 714 4 0 -0.42902689098197805 -2.710545600658919 -15.301240658650057 0 0 0
1316 279 4 0 -0.32463833001366554 -2.937042282052474 -15.028563272186442 0 0 0
2923 815 2 0 2.597790660219298 -1.5625063550334575 -15.825414731182544 0 0 0
2925 815 4 0 3.039866773434693 -1.6956464519522498 -15.763073067530353 0 0 0
9382 2968 2 0 3.688586485278764 -2.1273974094649963 -16.08655109209669 0 0 0
9384 2968 4 0 3.2250705339241006 -1.9767897121808158 -16.011229936425856 0 0 0
9383 2968 4 0 4.159513035038274 -2.2807860184717716 -16.17403568276355 0 0 0
7509 2343 4 0 4.498216240285169 -2.0841367589285933 -16.219919127844783 0 0 1
2978 833 4 0 4.5274219776562505 -2.47254891894648 -16.147507596188998 0 0 0
2977 833 2 0 4.889372179024483 -2.7913661205600873 -16.28584739783119 0 0 0
7507 2343 2 0 4.809926398860884 -1.7058974603653096 -16.208656659991274 0 0 1
14677 4733 2 0 13.344309294004654 -1.764205184883304 -16.47562839794139 0 0 1
1918 480 2 0 13.56702678088019 -1.6760865036980095 -15.201725351868522 0 0 0
10809 3443 4 0 14.999509703466689 -1.4932055903923824 -15.317819142724218 0 0 0
1919 480 4 0 13.667212581123609 -1.499654271732378 -15.699316001385457 0 0 0
14678 4733 4 0 13.631338475437312 -1.6370402919361484 -16.051891991814376 0 0 1
10807 3443 2 0 15.217547587953948 -1.936102134699912 -15.105349471040155 0 0 0
10767 3429 4 0 -16.129425252461353 -1.35856213683806 -16.294434989153523 0 0 0
10765 3429 2 0 -16.513430122452 -1.0826925803745548 -16.09764779228338 0 0 0
1350 290 4 0 -15.831411275238898 -1.411845509085031 -16.554178492319327 0 0 0
3090 870 4 0 -12.58698617688287 -1.3487748126968875 -16.078367045887305 0 0 0
1560 360 4 0 -12.288962933992291 -1.111093773924366 -16.16625854719716 0 0 0
1538 353 4 0 -12.229784008927595 -1.480209752149997 -15.959416804174706 0 0 0
10637 3386 4 0 -10.669174141576276 -0.056859808175960834 -16.36444557373985 0 0 0
1537 353 2 0 -12.003027659444072 -1.307755145238326 -15.561775140831598 0 0 0
1539 353 4 0 -11.76426222307081 -1.14119910136958 -15.168680540023951 0 0 0
3112 878 2 0 -11.1084136090593 -0.6660787252972851 -15.124504601551022 0 0 0
3114 878 4 0 -11.602612871683517 -0.7981071596564292 -15.055462926763209 0 0 0
3113 878 4 0 -10.618544811431784 -0.5426787096576092 -15.197373020648335 0 0 0
10636 3386 2 0 -10.505957912075603 -0.2360693185624897 -15.904009020028083 0 0 0
2518 680 2 0 -9.856377295718707 -0.924992013522907 -15.249289391522142 0 0 0
2519 680 4 0 -10.26255165226845 -0.6194907716470388 -15.099290512621288 0 0 0
2520 680 4 0 -9.4855587704399 -1.2176061598688712 -15.384435319607844 0 0 0
665 133 3 0 -10.42406690602663 -0.23857412381730986 -15.065780081293282 0 0 0
10638 3386 4 0 -10.32709538746883 -0.41991644274715945 -15.434763151429074 0 0 0
7632 2384 4 0 -9.137991294672162 -1.409170569963557 -15.378740567622044 0 0 1
6651 2057 4 0 -9.227572335931596 -1.103141465512519 -15.109368593103971 0 0 1
6649 2057 2 0 -8.766896063445405 -0.9112043969207918 -15.02557714177935 0 0 1
10203 3241 4 0 -6.72865889648023 -0.47978057782074524 -15.273891244959527 0 0 0
1566 362 4 0 -7.085282069492443 -0.5858355469209483 -15.447901722684412 0 0 0
6608 2043 4 0 -6.855307922684431 -0.32673564543083755 -15.599122608448605 0 0 1
10201 3241 2 0 -6.313169864290966 -0.7797578540272787 -15.315692373340054 0 0 0
6607 2043 2 0 -6.960876156967076 -0.07976516116307766 -16.032250291226163 0 0 1
1564 362 2 0 -7.505900953887512 -0.6326016486420792 -15.207643817997255 0 0 0
2630 717 4 0 -5.6268864202617666 -1.364851545539133 -15.2674624907815 0 0 0
15048 4856 4 0 -5.557477189604362 -1.1627490321866076 -15.581615082861518 0 0 1
10202 3241 4 0 -5.903488155403569 -1.0771966287508163 -15.366677250408037 0 0 0
15046 4856 2 0 -5.553752527048942 -1.04085126220774 -16.073906886416427 0 0 1
2629 717 2 0 -5.2336740737425 -1.322369689010663 -15.003240918022902 0 0 0
15047 4856 4 0 -5.552743690800467 -0.917980227824086 -16.551552597440686 0 0 1
3346 956 2 0 -0.5659180163192126 -1.1864420807214777 -15.670476409172474 0 0 0
3347 956 4 0 -0.4711424536417435 -0.825553348861566 -15.335545822503704 0 0 0
10002 3174 4 0 -0.3507540526174373 -0.44463913696079 -15.279612505394262 0 0 0
8922 2814 4 0 -0.16972195802665108 -0.764019529848804 -15.10144007387157 0 0 0
8921 2814 4 0 0.8385270384214542 -0.7482723621684871 -15.353128082808997 0 0 0
8920 2814 2 0 0.3413579582662522 -0.7591506320395423 -15.23331800279241 0 0 0
9929 3150 4 0 0.9135203673548099 -0.9139469136709241 -15.740061948417324 0 0 0
6849 2123 4 0 0.8697956906128476 -0.5029531787517366 -15.700577124784276 0 0 1
9928 3150 2 0 1.3376827466245136 -1.190828471960722 -15.737128759929353 0 0 0
6847 2123 2 0 0.987744273085675 -0.06186290993079517 -15.930414787480863 0 0 1
2924 815 4 0 2.110835475453505 -1.4114621208620204 -15.890994591009775 0 0 0
9930 3150 4 0 1.7472030450268667 -1.4730396116641846 -15.729607195517858 0 0 0
9611 3044 4 0 4.230950187743205 -0.13352586883589604 -15.701223691798315 0 0 0
3464 995 4 0 4.534016017322799 -0.37177194760466714 -15.61746047962755 0 0 0
3463 995 2 0 4.8540596690892395 -0.6840175853081839 -15.765647212300879 0 0 0
7508 2343 4 0 5.121281131306938 -1.3312492592275988 -16.177632936047853 0 0 1
6770 2097 4 0 5.3773887328696155 -1.3718037716340454 -15.903206366944236 0 0 1
3465 995 4 0 5.179383523420216 -1.0250156828149288 -15.933182849483085 0 0 0
6769 2097 2 0 5.851335141372544 -1.3649932110061282 -15.915020385810111 0 0 1
6771 2097 4 0 6.351730176418872 -1.3623317665437427 -15.926989479544131 0 0 1
1854 458 4 0 6.737993733227127 -1.228219527454144 -15.826801757104644 0 0 0
1852 458 2 0 7.081882491702801 -0.8887072979373111 -15.893748009768151 0 0 0
1853 458 4 0 7.439587159684759 -0.5271545002609406 -15.949601253317768 0 0 0
14511 4677 4 0 8.565402016214936 -0.19194785879776632 -16.47205648301875 0 0 1
14510 4677 4 0 7.823709788281311 -0.5570813465237995 -15.959472146888011 0 0 1
14509 4677 2 0 8.209752396960978 -0.3754203806634073 -16.209912561153935 0 0 1
10283 3268 4 0 11.033693807584406 -0.2217814099622691 -16.2327190455546 0 0 0
2009 510 4 0 11.03574807185101 -0.5055220829175076 -16.510220561074426 0 0 0
1707 409 4 0 10.723859834164395 -0.2385511344505173 -16.49732391003059 0 0 0
15662 5061 4 0 13.063222272010428 -0.12410925191578827 -16.35560666492438 0 0 1
1394 305 4 0 13.393620339773038 -0.2721858779351873 -16.169860061769473 0 0 0
1393 305 2 0 13.519545766143109 -0.7330121428640377 -16.08354924707929 0 0 0
10050 3190 4 0 14.888817871300333 -1.3076930128586732 -15.653653124223675 0 0 0
1395 305 4 0 13.651694614217563 -1.2353865005841649 -15.987024241347008 0 0 0
10049 3190 4 0 13.95839885009591 -1.464303438537136 -15.952956238514716 0 0 0
10048 3190 2 0 14.432147283626318 -1.3865077200266878 -15.803309086817954 0 0 0
2199 573 4 0 15.05306216043174 -1.1111815640440055 -15.328885933650753 0 0 0
9194 2905 4 0 15.26595601857915 -1.3379316011477949 -15.568084149592094 0 0 0
9193 2905 2 0 15.594746401047455 -1.074359659430035 -15.80868768187386 0 0 0
9195 2905 4 0 15.941258450727245 -0.797362795488916 -16.060420894254168 0 0 0
9245 2922 4 0 16.099999931444504 -0.4525954142148024 -15.89973933089149 0 0 0
9244 2922 2 0 16.238795633057 -0.0782911913952121 -16.175288319180616 0 0 0
10766 3429 4 0 16.29090755361223 -0.8028224980953754 -15.897060516645961 -1 0 0
7682 2401 4 0 -11.526597357479085 -16.05020876895245 -14.957126852561515 0 0 1
7681 2401 2 0 -11.805546382858937 -16.347059633881784 -14.614897530266166 0 0 1
2940 820 4 0 1.6530267496592101 -16.18878662275353 -14.952004059212715 0 0 0
9228 2916 4 0 1.8025879348640816 -16.49551204640894 -13.75292052941218 0 1 0
2938 820 2 0 1.691486251499807 -16.43743463603411 -14.497966193410312 0 0 0
3357 959 4 0 2.9461760072660703 -15.11301421176824 -13.555027047315246 0 0 0