LAMMPS data file via write_data, version 29 Aug 2024, timestep = 900000, units = lj

1673 atoms
4 atom types
1182 bonds
1 bond types
0 angles
2 angle types

-5.665158 5.665158 xlo xhi
-5.665158 5.665158 ylo yhi
-5.665158 5.665158 zlo zhi

Masses

1 1
2 1
3 1
4 1

Bond Coeffs # harmonic/omp

1 100 0.5

Angle Coeffs # harmonic/omp

1 100 180
2 100 109.471

Atoms # full

1659 487 2 0 -5.593803339688569 -4.068368045556205 -5.017029834545821 1 1 1
1661 487 4 0 -5.604334364402737 -4.164985797930257 -5.5028389228656485 1 1 1
1660 487 4 0 -5.603754467613321 -4.164550498702454 -5.5136560972703155 1 1 1
1194 332 2 0 -5.302606367615024 -5.044902439551543 -3.942146624963513 1 0 0
600 134 2 0 -3.9334822517383796 -5.309278844173199 -4.7568344843080315 0 0 0
407 82 3 0 -4.735201388572821 -0.0050162690481638525 -1.7808986913547136 1 0 0
999 267 2 0 -0.2944951242111961 -4.955369683912136 -4.6827406936176335 0 1 1
1000 267 4 0 -0.13542099548138864 -5.4314290011274355 -4.597753845890749 0 1 1
1001 267 4 0 -0.13633798404074943 -5.425151136202149 -4.599388643898523 0 1 1
43 9 3 0 -4.170600723371223 -2.9904867924371006 -4.187420738582634 0 0 0
45 9 3 0 -4.179923930642961 -3.01485467422803 -4.195139258238266 0 0 0
42 9 3 0 -4.173709941293281 -3.0113310651220555 -4.180625978007716 0 0 0
44 9 3 0 -4.172806306691104 -3.0052827713278893 -4.182927174178767 0 0 0
1183 328 4 0 -4.424467117580244 -3.1836310723144376 -4.393344565505187 1 0 0
1184 328 4 0 -4.423617941263083 -3.1698293565316673 -4.437880812258637 1 0 0
649 150 4 0 -4.288728349392283 -2.8299329661303068 -4.516813220125565 0 0 1
650 150 4 0 -4.230516112188721 -2.8497712009818765 -4.5027311553829 0 0 1
1084 295 4 0 -4.502043914198701 -2.8454349099143217 -4.201054554456039 1 0 0
1085 295 4 0 -4.505070299274033 -2.870613271326228 -4.178719969931162 1 0 0
727 176 4 0 -4.153867180622874 -2.6481380996337625 -4.17940528904173 0 0 1
728 176 4 0 -4.18046294736692 -2.6237904502859957 -4.165083307942567 0 0 1
1182 328 2 0 -4.585958651064702 -3.6210870584628347 -4.5954449500206955 1 0 0
1083 295 2 0 -4.945703805764095 -2.64665684721484 -4.264468072944104 1 0 0
648 150 2 0 -4.154008687021227 -2.7350940791306964 -4.997265643185045 0 0 1
726 176 2 0 -3.971671753378648 -2.1963274037316967 -4.094175045420881 0 0 1
616 139 4 0 -4.279564069271899 -2.8122950618276934 -3.851408065778353 0 0 0
41 9 1 0 -3.7030517398277834 -3.2117389029918866 -4.110713881525797 0 0 0
534 112 2 0 -3.147675503710421 -2.1725017016805044 -4.930216814254102 0 0 0
536 112 4 0 -3.511488451543726 -2.034969940905238 -5.24459492266483 0 0 0
535 112 4 0 -3.5310779341217353 -2.0846681517769836 -5.222502103599186 0 0 0
816 206 2 0 -2.2604427137391463 -3.1928195066336826 -4.502380628922733 0 1 0
606 136 2 0 -1.3819227286578988 -3.195697079560241 -5.373319946975954 0 0 0
582 128 2 0 -1.3911350132686713 -2.511516352374676 -4.216533809859999 0 0 0
583 128 4 0 -1.564760683009679 -2.775336044844855 -4.6066381577728555 0 0 0
584 128 4 0 -1.580488965996448 -2.76571774057817 -4.623705127780714 0 0 0
607 136 4 0 -1.5418907359368814 -2.9443916214786428 -4.961489109876546 0 0 0
608 136 4 0 -1.5530120663165554 -2.981372096014648 -4.957437088240243 0 0 0
818 206 4 0 -1.8196353934274476 -3.066680522230324 -4.681282151731586 0 1 0
817 206 4 0 -1.8529251133575364 -3.0269373457950874 -4.724754298349925 0 1 0
366 74 1 0 -0.2840988385521575 -3.1047397810596795 -4.976876949470734 0 0 1
36 8 1 0 -0.6728565727508811 -0.9898033703967245 -3.7528765483315074 0 0 0
555 119 2 0 -3.8297729204014 -5.243556674002342 -3.103682068796591 0 0 0
556 119 4 0 -3.353127276073007 -5.26944631265222 -2.9759529373609586 0 0 0
557 119 4 0 -3.365783204247704 -5.28198022282897 -2.9710209527437073 0 0 0
164 33 3 0 -3.145463654503688 -5.601251267071164 -2.96366740164341 0 1 0
162 33 3 0 -3.1353660474033305 -5.595976827199026 -2.9214249074413288 0 1 0
163 33 3 0 -3.147791789229419 -5.603481499738268 -2.9401094796242284 0 1 0
165 33 3 0 -3.113933694836113 -5.606312264498417 -2.9146146480167943 0 1 0
1500 434 2 0 -2.6969372692052525 -5.1126132937780895 -3.3581328293730994 1 1 0
640 147 4 0 -3.18360226857518 -5.33757860506892 -2.6422233432179443 0 0 0
641 147 4 0 -3.166896820286101 -5.340114117386744 -2.6410689673014263 0 0 0
1501 434 4 0 -2.9695378479783123 -5.253547274938714 -2.9611489717130226 1 1 0
1502 434 4 0 -2.986409515390417 -5.255017481283173 -2.9858843406599314 1 1 0
639 147 2 0 -2.9909884188469826 -5.067194873158573 -2.2609337530550437 0 0 0
609 137 2 0 -2.0984331640965292 -3.9772860209184673 -2.281114445011166 0 0 0
1143 315 2 0 -0.21150613643358185 -4.611455763003177 -3.389236255800564 0 0 0
615 139 2 0 -4.427788148373827 -2.880415852977518 -3.356720053958357 0 0 0
617 139 4 0 -4.365511805271543 -2.795465072931743 -2.847943554140707 0 0 0
508 103 4 0 -4.036040325890818 -2.624094278663377 -2.7292077956418823 0 0 0
509 103 4 0 -4.0204850123119815 -2.6149584811368407 -2.727193815657325 0 0 0
514 105 4 0 -4.1141142242903355 -2.950224169888825 -2.5611164486253193 0 0 0
32 7 3 0 -4.336444845618541 -2.649609629855027 -2.472617784308424 0 0 0
35 7 3 0 -4.346675091710538 -2.6716020959096927 -2.491621928249093 0 0 0
33 7 3 0 -4.3483674996502355 -2.670712109108444 -2.4956963130199035 0 0 0
34 7 3 0 -4.3457732200335295 -2.6536682871606234 -2.4604372671607755 0 0 0
513 105 2 0 -3.8131236446775207 -3.3917220564792943 -2.6203567669500183 0 0 0
515 105 4 0 -4.132150525357213 -2.955894813312804 -2.5506829404731706 0 0 0
31 7 1 0 -4.633991480369986 -2.2736982976586653 -2.4442626093591233 0 0 0
539 113 4 0 -4.5122285297477305 -2.977028247763479 -2.567892588727485 0 0 0
538 113 4 0 -4.670832723718969 -2.886850808028197 -2.4605939236165986 0 0 0
537 113 2 0 -4.942366050172462 -3.274624310060972 -2.480929347127012 0 0 0
574 125 4 0 -4.324357831557969 -2.9363750270377955 -2.225433741440394 0 0 0
575 125 4 0 -4.375036295001334 -2.911355375570468 -2.236558861127623 0 0 0
507 103 2 0 -3.5886846056391515 -2.3044176609624207 -2.8159225260471086 0 0 0
543 115 2 0 -1.8238036857994797 -2.9203772595525876 -2.3778894495091056 0 0 0
610 137 4 0 -1.8234146199607273 -3.73320337131468 -1.9362401545527612 0 0 0
594 132 2 0 -1.0443180340836418 -3.614869128612998 -2.40734523493229 0 0 0
544 115 4 0 -1.7500515154199652 -3.3629559036966716 -2.051621052005236 0 0 0
545 115 4 0 -1.7631493359973787 -3.371182905226195 -2.077430915826526 0 0 0
611 137 4 0 -1.827176546177596 -3.7404249358223707 -1.9481349464778333 0 0 0
596 132 4 0 -1.4561528597835682 -3.6221042270395407 -2.074810617330639 0 0 0
595 132 4 0 -1.5100305915949184 -3.66311457616846 -2.1154116298001613 0 0 0
1249 350 4 0 -2.1657587041241104 -0.6037587872431712 -2.461280459555006 0 0 1
1250 350 4 0 -2.0770857946991352 -0.6220950724224577 -2.5151263514330933 0 0 1
1248 350 2 0 -2.0125481370684972 -0.14911365496322937 -2.380416159584064 0 0 1
676 159 4 0 -1.9107063197233427 -0.7676202141412088 -2.187524428687048 0 0 1
677 159 4 0 -1.9612344347579584 -0.7581233114025866 -2.1735841839762555 0 0 1
17 4 3 0 -2.5824548423784264 -0.6253933756374914 -0.8422945439185776 0 0 0
675 159 2 0 -1.7954511446388792 -1.2359587660170814 -2.121325857686487 0 0 1
822 208 2 0 -0.131896286170917 -0.3894621650499739 -3.0737026284381965 0 0 0
823 208 4 0 -0.03671893435251706 -0.8520479455078772 -3.2448131193450265 0 0 0
824 208 4 0 -0.007105524379877072 -0.864383885889293 -3.2305215312727635 0 0 0
37 8 3 0 -0.24594568392959704 -0.837084607075564 -3.579335799050017 0 0 0
40 8 3 0 -0.2490592645830115 -0.8419329953388224 -3.576859553671295 0 0 0
38 8 3 0 -0.24298940030516356 -0.8464020360773933 -3.599261230171994 0 0 0
39 8 3 0 -0.2435788730385056 -0.8500059496577105 -3.574401848300746 0 0 0
880 227 4 0 -0.0372559678070468 -1.1633031341486186 -3.4736963269869863 0 0 0
576 126 2 0 -3.6631664593438327 -3.78964232331459 -0.24352521857655762 0 0 0
1218 340 2 0 -2.1044153736583193 -4.086367918478964 -1.199065014338559 0 0 0
630 144 2 0 -0.229179612007364 -5.096927630632263 -0.8757078310167795 0 0 0
522 108 2 0 -1.1983775833408121 -4.3511282632918205 -1.663900234433141 0 0 0
524 108 4 0 -1.5694066294312092 -3.9088653548305463 -1.7843890379582081 0 0 0
523 108 4 0 -0.8515749675377615 -4.07244315196409 -1.3616637929132862 0 0 0
1219 340 4 0 -1.8297851021639666 -3.7469914280430014 -1.5536770002594789 0 0 0
1220 340 4 0 -1.8734590360822485 -3.774470422417617 -1.573585254436603 0 0 0
1193 331 4 0 -0.5174382733133432 -4.138757917678132 -1.1496360913783625 0 0 0
1192 331 4 0 -0.5394301997505634 -4.203325562689575 -1.1752239966552813 0 0 0
1238 346 4 0 -0.8491238239183556 -3.980684408506733 -1.0099900074520143 0 0 0
1236 346 2 0 -1.0200041254307588 -3.9177687216338715 -0.5252605814427943 0 0 0
1191 331 2 0 -0.08054171830436012 -4.04748781837311 -1.3752601801592128 0 0 0
573 125 2 0 -4.197713780922051 -2.988418722451559 -1.7183686725409355 0 0 0
18 4 3 0 -2.6127803569400694 -0.6433203282544173 -0.8641337560884313 0 0 0
531 111 2 0 -4.428310204504297 -3.0416576369578605 -0.5047943300119173 0 0 0
532 111 4 0 -4.104352496005117 -3.106504449165334 -0.10722798827265985 0 0 0
533 111 4 0 -4.11297623100735 -3.1077451001999123 -0.10196954773772327 0 0 0
176 36 1 0 -2.665274735015245 -0.5734242694152655 -0.2884969082740016 0 0 0
20 4 3 0 -2.602357046722365 -0.6195206374044079 -0.8446658944050246 0 0 0
578 126 4 0 -3.8130375533520517 -3.360594077963324 -0.016902338163449864 0 0 0
577 126 4 0 -3.8363226409902054 -3.3524169038802 -0.010203978488313606 0 0 0
567 123 2 0 -2.3666417979555527 -3.1272333900147014 -1.5284357907898947 0 0 0
93 19 3 0 -2.374957514707985 -2.0799236533875196 -0.3072773795809309 0 0 0
95 19 3 0 -2.2849096999862404 -1.9796569273693108 -0.4068031209428166 0 0 0
94 19 3 0 -2.2075490763551993 -1.953730612382691 -0.45541364798350353 0 0 0
92 19 3 0 -2.392116831296364 -2.1327786407117784 -0.26599963928783193 0 0 0
1346 382 4 0 -2.0351320205341352 -2.1178213058822637 -0.12328692936239144 0 0 0
568 123 4 0 -1.9839674899264734 -3.4465290321503255 -1.7377808556915266 0 0 0
569 123 4 0 -1.972649405481535 -3.432608224239906 -1.7327599742913908 0 0 0
91 19 1 0 -2.716564482203875 -1.8313348980257864 -0.5504576879127124 0 0 0
1345 382 4 0 -2.019212251498736 -2.0908031246812167 -0.1467770664625915 0 0 0
1156 319 4 0 -2.0807716791742936 -2.320294778000145 -0.44119747990750685 0 0 0
315 63 3 0 -1.6067604105679214 -3.493495606879806 -1.7623627634425958 0 0 0
314 63 3 0 -1.614171692299976 -3.4948032747899718 -1.7491987185350044 0 0 0
313 63 3 0 -1.6110359475672558 -3.4899572114867516 -1.7564306708075732 0 0 0
1119 307 2 0 -0.7260146351565878 -2.759881798220913 -0.570561460301658 0 0 0
1155 319 2 0 -1.7329963288143013 -2.394255388631139 -0.8253883492421656 0 0 0
1237 346 4 0 -1.1875120480014212 -3.434188787288959 -0.6776971599978531 0 0 0
1121 307 4 0 -1.1430893389898913 -3.06742294619937 -0.5897531436733758 0 0 0
1120 307 4 0 -1.133285305222064 -3.04179924446557 -0.6013706405923357 0 0 0
1229 343 4 0 -1.5038293430093053 -3.2134940638971585 -0.5852905499993446 0 0 0
1228 343 4 0 -1.497393134998361 -3.2209325192016083 -0.5782141282180349 0 0 0
1157 319 4 0 -1.45614741054089 -2.855126629101282 -0.7223075295549718 0 0 0
312 63 3 0 -1.3171179561113924 -3.1459907365567057 -0.9160957800458321 0 0 0
311 63 1 0 -1.3482076204386355 -3.31793877741041 -1.42679763452984 0 0 0
1227 343 2 0 -1.925945552996639 -3.353506585445235 -0.29903725558865246 0 0 0
669 157 2 0 -4.228271979522915 -1.7129410195403458 -0.2999485922994357 0 0 0
306 62 1 0 -5.13180295091713 -0.12300571072241641 -2.18472559431085 1 0 0
586 129 4 0 -4.61496347760775 -0.9362667241168426 -0.4403307800384945 0 0 0
587 129 4 0 -4.612207440562277 -0.9238263137867044 -0.46637566348988524 0 0 0
670 157 4 0 -4.455002969054436 -1.2813900671114415 -0.46669708554233635 0 0 0
750 184 2 0 -4.650516452514666 -1.0924486579639476 -1.1745655603704162 0 0 0
751 184 4 0 -4.736003460675227 -1.1839682177450455 -0.7060322456709102 0 0 0
752 184 4 0 -4.740122533419101 -1.2002510023169277 -0.7033992021849131 0 0 0
671 157 4 0 -4.482745420017724 -1.3058381179754384 -0.44602857727038453 0 0 0
512 104 4 0 -4.82719601360101 -1.227327943513617 -0.3317472222417149 0 0 0
511 104 4 0 -4.83654809433719 -1.234054210943175 -0.333478068860958 0 0 0
585 129 2 0 -4.502811951525929 -0.4650954658701321 -0.296853270035355 0 0 0
510 104 2 0 -5.2750457934399755 -1.1979609618184983 -0.08024744621212011 0 0 0
178 36 3 0 -2.587458436030945 -0.5935330293788441 -0.786378320599739 0 0 0
180 36 3 0 -2.611599505658363 -0.5565459429427133 -0.7834463308983816 0 0 0
179 36 3 0 -2.5037487511103906 -0.5998237354290739 -0.8021608433956321 0 0 0
19 4 3 0 -2.55698242124478 -0.5970372719663488 -0.8523022951549376 0 0 0
16 4 1 0 -2.593862002715422 -0.5584220201511176 -1.3505658129561515 0 0 0
177 36 3 0 -2.6106546661346646 -0.6579715186766464 -0.7779039529895334 0 0 0
310 62 3 0 -4.777391932813664 -0.05518800912238799 -1.8199191990664119 1 0 0
307 62 3 0 -4.7803097962572165 -0.028356348824509325 -1.8212904140130435 1 0 0
309 62 3 0 -4.776104480342605 -0.011821819140232809 -1.8166521852493196 1 0 0
1488 430 2 0 -5.359215190129018 -0.05335003725298666 -1.1395348636101204 1 0 0
1489 430 4 0 -5.063358116664362 -0.050688248665641075 -1.549615714822848 1 0 0
408 82 3 0 -4.7455999369832975 -0.005359919080055333 -1.7827523756219577 1 0 0
1490 430 4 0 -5.06319105498415 -0.02358441496705956 -1.5375686426780042 1 0 0
679 160 4 0 -3.4094960129528484 -2.279573399975212 -5.540024228558379 0 0 1
680 160 4 0 -3.4391686570585147 -2.3065379930235865 -5.5294565685149175 0 0 1
921 241 2 0 -3.897109067812683 -1.5778076808548485 -5.496263171090895 0 0 0
923 241 4 0 -3.6400731329291687 -1.9874800144398996 -5.603589031965006 0 0 0
922 241 4 0 -3.756148799340393 -2.07239996507016 -5.525491248830369 0 0 0
723 175 2 0 -4.1167880812149 -3.950629074939553 1.3947158870046894 0 0 0
1377 393 2 0 -5.5439994699654696 -5.410017945912594 0.49348630983037906 1 0 0
725 175 4 0 -3.6366817425611484 -4.0845369620141305 1.320870364733764 0 0 0
724 175 4 0 -3.6221511469840966 -4.093120313412304 1.3174899057922707 0 0 0
719 173 4 0 -2.536194851402644 -4.233681336653313 0.9974290483480297 0 0 0
701 167 4 0 -2.175055627333391 -4.287508325023795 1.123712751936779 0 0 0
700 167 4 0 -2.1774313133220096 -4.309182856078497 1.107626214472573 0 0 0
655 152 4 0 -2.290298321386341 -4.4235281166621165 0.7476477412939077 0 0 0
656 152 4 0 -2.276126780671264 -4.401837851440045 0.7673337042774921 0 0 0
717 173 2 0 -2.989607840647215 -4.439308202021738 0.8532081454440439 0 0 0
718 173 4 0 -3.287860472610645 -4.174344764104369 1.1473634614276973 0 0 0
654 152 2 0 -1.9067457469037112 -4.682841029812577 0.6124784012327675 0 0 0
699 167 2 0 -2.1345556072779837 -4.317455135579106 1.622996618520128 0 0 0
98 20 3 0 -3.3612351650054393 -4.323641781144625 1.5211350622156492 0 0 0
100 20 3 0 -3.3680844820149596 -4.3134845825887576 1.5166447590910164 0 0 0
97 20 3 0 -3.356487606208529 -4.305562885691503 1.5186121761030569 0 0 0
503 101 4 0 -2.252200970733023 -4.034208907260823 0.827966470282261 0 0 0
502 101 4 0 -2.2611150376960474 -4.0258892616342825 0.8398997215884976 0 0 0
772 191 4 0 -3.305979752352017 -3.9191396224451993 1.4711706147148227 0 0 0
773 191 4 0 -3.2868091554078998 -3.920304585883296 1.4573480749299346 0 0 0
1095 299 2 0 -0.7584945776242447 -5.215125842688038 0.5210079742529077 0 0 0
1097 299 4 0 -0.7897023480151221 -4.898344200412996 0.908135390336145 0 0 0
1231 344 4 0 -0.7968537720194477 -4.8369556757213745 1.3093700795510557 0 0 0
1232 344 4 0 -0.620575026643301 -4.996038947666941 1.2397463904067334 0 0 0
1230 344 2 0 -0.40301659628904135 -4.529493892328912 1.3250849319496398 0 0 0
1096 299 4 0 -0.9376255873375968 -5.021255188983094 0.980153788927899 0 0 0
875 225 4 0 -4.08786757557473 -3.280967502799294 0.24004242070020343 0 1 0
874 225 4 0 -4.088943115426388 -3.2709463033304966 0.2629958090667769 0 1 0
1188 330 2 0 -5.06313760389846 -2.259172108906486 0.2216663045484594 1 0 0
873 225 2 0 -4.435280649066429 -3.280558574932442 0.5683854198299395 0 1 0
1190 330 4 0 -5.519232667429299 -2.4202571710747725 0.3086693780770731 1 0 0
1189 330 4 0 -5.505991127663319 -2.4248334482457423 0.3172038158653729 1 0 0
1649 483 4 0 -0.5628266201280119 -0.9535271903087941 4.492529055076578 0 0 0
77 16 3 0 -0.4711788807101024 -1.221726044039262 4.791272974712387 0 0 0
702 168 2 0 -3.399720724388367 -3.431693555431477 0.7694156798230174 0 0 0
703 168 4 0 -3.7306601565324926 -3.3151576044149804 0.3667359827300083 0 0 0
704 168 4 0 -3.428786833422705 -3.8148730051948223 1.1145698522528047 0 0 0
501 101 2 0 -2.1119570287830927 -3.5489475850788343 0.8237784595971668 0 0 0
517 106 4 0 -3.8322361363146507 -3.0134514408429887 0.1569787508080387 0 0 0
518 106 4 0 -3.847999413491234 -3.008566065731009 0.14593940943174016 0 0 0
516 106 2 0 -3.530324724470411 -2.6554862550180145 0.015086108860235113 0 0 0
771 191 2 0 -3.0284209089926706 -3.661057113025881 1.7804591166398056 0 0 0
226 46 1 0 -1.9846078682616353 -3.011810205766661 1.7920772077232212 0 1 0
1344 382 2 0 -1.683952752124268 -1.9752521701011065 0.22291069092422358 0 0 0
1251 351 2 0 -1.5283349000818798 -2.0019582228051913 1.9897654542569991 0 0 0
786 196 2 0 -1.0359107965863201 -2.8350607974874245 1.285285325784233 0 0 0
1252 351 4 0 -1.3831165520634068 -2.4659853785398145 1.9983830001684735 0 0 0
1253 351 4 0 -1.3783703952690634 -2.4613888566652795 2.000807062840466 0 0 0
788 196 4 0 -1.2157579726946244 -2.6570675213827757 1.748738538190541 0 0 0
787 196 4 0 -1.220208845735723 -2.6740642472659317 1.7441212540599609 0 0 0
996 266 2 0 -2.1661503876327597 -0.355150808735179 1.5866897489973384 0 0 0
754 185 4 0 -0.8030350436332525 -1.081680349922408 4.22340916587228 0 0 0
983 261 4 0 -0.8222010693546883 -1.209120764500255 4.60514879964828 0 0 0
672 158 2 0 -5.548383876384274 -4.837441716318748 4.170229261380831 0 0 0
753 185 2 0 -1.0174177970011442 -1.1026697654488498 3.7935980837554486 0 0 0
657 153 2 0 -0.34792826682525674 -1.8064358216491774 4.30915565478132 0 0 0
1647 483 2 0 -0.49041482082341364 -0.4194536831853264 4.460961432349494 0 0 0
99 20 3 0 -3.3222273492471923 -4.357065325161353 2.1608141188270125 0 0 0
96 20 1 0 -3.414866189411491 -4.693872981142187 1.8268671104333898 0 0 0
738 180 2 0 -3.7599915189009825 -4.076650935839208 2.721638477943264 0 0 0
739 180 4 0 -3.378659027762138 -4.376177656571115 2.5549713183147644 0 0 0
740 180 4 0 -3.383002606850304 -4.352984333871754 2.551384468368282 0 0 0
793 198 4 0 -3.0198797212092265 -4.423713745470324 2.4005586906907412 0 0 0
794 198 4 0 -3.0064915865628046 -4.448612831236137 2.4183076556137437 0 0 0
792 198 2 0 -2.7583634021382837 -4.52432901921939 2.8591558247862854 0 0 0
1071 291 2 0 -1.3763780931046452 -4.200784814355083 3.004216514945519 0 1 0
1022 274 4 0 -0.9702715077978132 -4.649783841532377 3.598821039251396 0 1 0
1021 274 4 0 -0.9868831635164936 -4.64349513853553 3.6024697212194616 0 1 0
1020 274 2 0 -0.5096595235820618 -4.810600344655892 3.5828146328386787 0 1 0
1072 291 4 0 -1.2598674493320943 -4.477258837002966 3.3894211131866676 0 1 0
1073 291 4 0 -1.273501076717954 -4.534762510528649 3.381979174330138 0 1 0
110 22 3 0 -1.3422450542947488 -4.611334158744961 3.7612917461248885 0 0 0
108 22 3 0 -1.3281185154316275 -4.632044101640452 3.7728434357537695 0 0 0
107 22 3 0 -1.32908210450833 -4.598415658046974 3.7805854200947935 0 0 0
1371 391 2 0 -5.361157511879578 -3.9387456304026403 2.8248820520426317 1 0 0
1258 353 4 0 -2.8463919720901916 -2.3663194227617708 3.226921151864657 1 0 0
1259 353 4 0 -2.8574573775048475 -2.3908950076684015 3.204543347594002 1 0 0
1257 353 2 0 -2.5568152324690003 -2.5436230582363057 2.8058749202829305 1 0 0
1354 385 4 0 -3.050354504735211 -2.058018326099187 3.262571892421644 1 0 0
1355 385 4 0 -2.9942161102776823 -2.0576658914362267 3.3002206640961598 1 0 0
797 199 4 0 -2.9001265204615243 -2.264768768580739 3.5756837580618845 0 0 0
84 17 3 0 -3.2155291400330426 -2.369887179379689 3.3536884239524585 0 0 0
82 17 3 0 -3.1950236038595294 -2.3969787703812604 3.3429400973439365 0 0 0
85 17 3 0 -3.2018982920440626 -2.385822770925924 3.3331522946582073 0 0 0
83 17 3 0 -3.2156109872574277 -2.341999051499005 3.366740835430693 0 0 0
796 199 4 0 -2.8988366452413468 -2.4761535104293446 3.5572373495751557 0 0 0
795 199 2 0 -2.5931450359591484 -2.397075143643168 3.9622999104511747 0 0 0
227 46 3 0 -1.5504650952948846 -2.809644867096842 1.9463656764387491 0 1 0
228 46 3 0 -1.560124629331338 -2.7703667172381263 1.8974981463957379 0 1 0
229 46 3 0 -1.5616294645611162 -2.7584371895442374 1.9018335630870238 0 1 0
230 46 3 0 -1.558910693126333 -2.769826279496124 1.9021503750099618 0 1 0
711 171 2 0 -1.2342512093873628 -2.895343736738956 2.6053661132054913 0 0 0
712 171 4 0 -1.2307507466617063 -2.7923682704631183 2.1097319147360962 0 0 0
713 171 4 0 -1.2246029932444389 -2.7828601908903376 2.0913245613382276 0 0 0
779 193 4 0 -0.23166300818148258 -2.052903339178892 2.7777849637253995 0 0 0
694 165 4 0 -0.12630268953338233 -2.1486441934795435 2.39219910904629 0 0 0
695 165 4 0 -1.0084251028405802 -2.4826859450801364 2.0099867025526224 0 0 0
693 165 2 0 -0.5039550942767472 -2.2995126203113827 2.1100366780919138 0 0 0
777 193 2 0 -0.5450840644682061 -2.0960099313570133 3.2020139250201147 0 0 0
778 193 4 0 -0.6837493009666019 -2.24979799326429 3.636707104165661 0 0 0
660 154 2 0 -5.002350227182562 -0.7481153596301772 2.8934367130299368 0 0 0
661 154 4 0 -5.50434363513285 -0.7919735434931121 3.03970908420879 0 0 0
66 14 1 0 -3.985868849101803 -0.4151289133347105 2.62004218572329 0 0 0
658 153 4 0 -0.531721361443115 -1.32214530727634 4.42136293141145 0 0 0
103 21 3 0 -3.875834687107566 -0.07593206155650695 2.1240490118931676 0 0 0
104 21 3 0 -3.8852262880076514 -0.0621292183203263 2.1127254643304574 0 0 0
105 21 3 0 -3.8831634414140064 -0.04836256347241142 2.1074946876636225 0 0 0
102 21 3 0 -3.881498178150727 -0.07329214634102144 2.1220377398966725 0 0 0
69 14 3 0 -3.8818919260316584 -0.08909567246329421 2.2245113912837287 0 0 0
68 14 3 0 -3.8669180168255135 -0.10372827390956055 2.2281300593681608 0 0 0
67 14 3 0 -3.878032900389907 -0.1262159397821602 2.2067910935113577 0 0 0
70 14 3 0 -3.887360438616624 -0.10530255561107792 2.2288464049562307 0 0 0
662 154 4 0 -5.511534877587417 -0.7332012173751759 2.882987425662531 0 0 0
989 263 4 0 -2.135654968310455 -0.20294920837212113 2.363083999255183 0 0 0
988 263 4 0 -2.130863040164271 -0.23207672545836341 2.349163513205478 0 0 0
1353 385 2 0 -3.2649626776276213 -1.6544204646431435 3.471120347339635 1 0 0
987 263 2 0 -2.1236263349043765 -0.7486812580368637 2.5885659743149683 0 0 0
696 166 2 0 -3.002184940936099 -0.31986979015430433 2.2001290410189536 0 0 0
697 166 4 0 -3.496327178162149 -0.08330018923629975 2.219874366875223 0 0 0
78 16 3 0 -0.43480026280485135 -1.1896053881151107 4.7571971514193985 0 0 0
505 102 4 0 -3.7984379362252385 -5.587600956700346 5.187486142879667 0 0 -1
4 1 3 0 -4.136093847340532 -5.5773536795642125 4.976021670629778 0 0 -1
2 1 3 0 -4.0935722917414195 -5.6144037402883065 5.019945406568199 0 0 -1
5 1 3 0 -4.102965481879807 -5.603863062952484 4.996912990632915 0 0 -1
3 1 3 0 -4.1094328299169165 -5.597020500909052 4.977594450155932 0 0 -1
76 16 1 0 -0.1710633983505712 -1.1932411834784007 5.204315016302415 0 0 0
749 183 4 0 -4.062741793586941 -5.2900822333273165 5.230619758745552 0 0 0
748 183 4 0 -3.9543871730283002 -5.264454032882694 5.1854861874194285 0 0 0
747 183 2 0 -4.2136657437549685 -4.945117814558114 5.523451440954833 0 0 0
1261 354 4 0 -5.578497345767315 -4.259204660348586 5.46569306602856 1 0 0
1262 354 4 0 -5.623997530341274 -4.239960300944201 5.440365323838201 1 0 0
1260 354 2 0 -5.539103318406711 -4.745386034839669 5.391081457689766 1 0 0
1123 308 4 0 -5.4832556461095665 -3.9192221827418416 5.5675244884881705 1 0 -1
1124 308 4 0 -5.50100040978787 -3.8835827565686807 5.552214965013213 1 0 -1
589 130 4 0 -3.87416102532978 -5.375056460002284 4.8390334809828675 0 0 -1
590 130 4 0 -3.874321475810865 -5.3675388388778975 4.843087638932407 0 0 -1
588 130 2 0 -3.8900988237207645 -5.032368575237381 4.466770257021704 0 0 -1
783 195 2 0 -1.9208382558411445 -4.691662934698566 4.946806300339979 0 0 0
121 25 1 0 -1.3114775926024151 -3.649975511642689 4.935670725336217 0 0 0
599 133 4 0 -1.194031420416105 -4.305769403648032 5.115726397313316 0 0 -1
598 133 4 0 -1.1999428798589864 -4.30167648435559 5.118393799805099 0 0 -1
784 195 4 0 -1.4972362998285862 -4.3934911560106995 4.882559280123646 0 0 0
785 195 4 0 -1.4995380237717861 -4.377159175175611 4.896585075671947 0 0 0
11 3 1 0 -0.6441700182464299 -4.464122560477215 4.714785370600243 0 0 -1
106 22 1 0 -1.4327404091602298 -4.25994146942634 4.1143706250913645 0 0 0
13 3 3 0 -1.1530450866250515 -4.2790036449641935 4.73998930386083 0 0 -1
109 22 3 0 -1.1996960342740943 -4.262311727698437 4.72710697853413 0 0 0
12 3 3 0 -1.130688448310598 -4.315281489772709 4.742208093144319 0 0 -1
14 3 3 0 -1.1446923766029415 -4.287052940824995 4.722099829294758 0 0 -1
15 3 3 0 -1.1434233325431413 -4.263329312516178 4.735081518839585 0 0 -1
122 25 3 0 -1.22650065220859 -4.134102641744841 4.770913003459447 0 0 0
125 25 3 0 -1.1987289611948404 -4.139113728343453 4.768714475977063 0 0 0
123 25 3 0 -1.2230272090443044 -4.123537380024766 4.764582142697445 0 0 0
124 25 3 0 -1.2067070162274065 -4.129890368557524 4.763205586479594 0 0 0
1122 308 2 0 -5.286464933209859 -3.748171633894829 5.131404827179334 1 0 -1
81 17 1 0 -3.51886083863896 -2.705563981721805 3.4188455145341226 0 0 0
678 160 2 0 -3.5497948408305353 -2.5069066161723033 5.343244078982565 0 0 0
876 226 2 0 -1.2091041143911085 -5.651790106120987 5.345097550711937 0 1 -1
998 266 4 0 -2.1456681697856 -0.028535584053212767 2.003071758629331 0 0 0
1149 317 2 0 -0.20759027346445286 -3.511949410625705 5.4351154067554015 0 0 -1
90 18 3 0 -0.7370729386733362 -2.468480118702737 3.9695305937449095 0 0 0
89 18 3 0 -0.7621851467817009 -2.4710802497178035 3.9312946249383742 0 0 0
88 18 3 0 -0.7436836880519287 -2.452645198644805 3.9760703006102336 0 0 0
87 18 3 0 -0.7581822848867019 -2.449823653525505 3.971430795349025 0 0 0
86 18 1 0 -1.2283761464271008 -2.376951848578018 4.0590394213484995 0 0 0
1293 365 2 0 -0.3376951435736563 -2.9710241041623213 3.8151024486412446 0 0 0
1294 365 4 0 -0.42197893103864653 -2.48829002520543 3.7854843138687415 0 0 0
1295 365 4 0 -0.4202794076867608 -2.478597339502163 3.7845427376822283 0 0 0
659 153 4 0 -0.5261896185671137 -2.159490571992075 3.972989143368273 0 0 0
997 266 4 0 -2.140187025432273 -0.02421475675660909 1.9968469133179083 0 0 0
80 16 3 0 -0.46336282540227886 -1.1904184710794645 4.792645524630133 0 0 0
981 261 2 0 -1.1998691338372032 -1.15835064339278 4.927343815173886 0 0 0
528 110 2 0 -3.3511936410083516 -0.2858873743682226 5.3917327800762775 0 0 -1
26 6 1 0 -3.478993977936805 -0.30032198408499733 4.3054712315959485 0 0 -1
604 135 4 0 -2.852849341060321 -0.15970938090998238 4.750559557657294 0 0 -1
605 135 4 0 -2.8623874448699667 -0.16086793348156125 4.755867646765296 0 0 -1
744 182 2 0 -2.470095390980987 -0.5708832908235102 4.070381375874222 0 0 0
29 6 3 0 -3.0900064752870127 -0.4176049300652385 4.626573198039678 0 0 -1
30 6 3 0 -3.097372893520937 -0.41753063103487104 4.633832109273365 0 0 -1
28 6 3 0 -3.0968743602960567 -0.40298091833538985 4.625464369685191 0 0 -1
27 6 3 0 -3.0804409146520477 -0.3969437346705556 4.636057073351719 0 0 -1
625 142 4 0 -2.9750500988236572 -0.7121684019661526 4.758776099713264 0 0 -1
626 142 4 0 -2.9667986494073193 -0.717204001580369 4.763423201900027 0 0 -1
624 142 2 0 -3.1285704590805326 -1.2161427332296213 4.7535110708136665 0 0 -1
745 182 4 0 -2.7594094005939684 -0.4810462372793059 4.500685502608444 0 0 0
746 182 4 0 -2.760507601714071 -0.46559711892248656 4.508620037594202 0 0 0
529 110 4 0 -3.0574386605531365 -0.39810425918922715 4.982326308530889 0 0 -1
530 110 4 0 -3.047218415278555 -0.39253974898492444 4.9942273788531235 0 0 -1
551 117 4 0 -2.740375215244693 -0.4728162139183606 4.850507737381404 0 0 -1
550 117 4 0 -2.744381692310711 -0.470235343416981 4.84754404861825 0 0 -1
549 117 2 0 -2.32758732401758 -0.5840024516402651 5.160234530634753 0 0 -1
1164 322 2 0 -0.05229293191946075 -2.471516916906665 5.5696473259618555 0 0 -1
755 185 4 0 -0.8153790265547536 -1.0974200780107362 4.231076170142681 0 0 0
79 16 3 0 -0.46138434372043235 -1.1701015078247863 4.785226748232806 0 0 0
982 261 4 0 -0.8169438342178359 -1.1970027530719198 4.605468246984251 0 0 0
597 133 2 0 -1.1616866778986517 -4.361442885337098 5.641674489724679 0 0 -1
1431 411 2 0 -4.275325700166503 0.757159120488211 -3.7806122195770038 1 0 0
1185 329 2 0 -3.9493391297258955 0.3347399514202266 -4.702406565605399 1 0 0
1186 329 4 0 -3.7743336003247396 0.6503322338496678 -4.4075990417716255 1 0 0
1432 411 4 0 -3.863527897906798 0.8160065991831802 -4.102366870212731 1 0 0
1433 411 4 0 -3.8711408965785763 0.8168080090171864 -4.095723840412816 1 0 0
196 40 1 0 -5.49140873997608 0.0844563251735399 -4.599112873633766 0 0 0
1187 329 4 0 -3.741837406730276 0.6765992969563244 -4.41290678043404 1 0 0
959 253 4 0 -1.180719207045577 3.91240112102995 -1.5299352529045411 0 0 0
828 210 2 0 -4.141564311860539 1.3742142881852253 -4.665125898750326 0 0 0
958 253 4 0 -1.1521802322932237 3.9117674742703223 -1.5263020205265043 0 0 0
952 251 4 0 -0.9055545916284817 3.9810731754906508 -1.2273010608837607 0 0 0
882 228 2 0 -3.1899957826859127 0.3264074608186975 -3.9331393192437876 0 0 0
884 228 4 0 -3.4913016156349146 0.6689272399962959 -4.178271491162151 0 0 0
883 228 4 0 -3.5087853348747102 0.674930888352742 -4.179106572436737 0 0 0
889 230 4 0 -3.576274611136042 1.010276784690611 -4.1966261084638035 0 0 0
890 230 4 0 -3.5813488008198093 1.0194209277716555 -4.185318193522125 0 0 0
830 210 4 0 -3.8129707880098156 1.0172930492055956 -4.442958372977327 0 0 0
829 210 4 0 -3.8182658257784423 1.006299583342155 -4.455506974285841 0 0 0
862 221 4 0 -3.461963014957114 0.8782569736573167 -4.497670972331262 0 0 0