LAMMPS data file via write_data, version 29 Aug 2024, timestep = 900000, units = lj

161 atoms
4 atom types
114 bonds
1 bond types
0 angles
2 angle types

-2.629534 2.629534 xlo xhi
-2.629534 2.629534 ylo yhi
-2.629534 2.629534 zlo zhi

Masses

1 1
2 1
3 1
4 1

Bond Coeffs # harmonic/omp

1 100 0.361231

Angle Coeffs # harmonic/omp

1 100 180
2 100 109.471

Atoms # full

100 27 4 0 -1.6859128462445416 -1.1132706740685805 -1.6468434419823392 0 1 0
56 12 4 0 -1.8889961243083786 -0.8248803527716149 -1.8219034273289325 0 0 0
54 12 2 0 -1.8694738296881346 -0.47779298974285134 -2.0172431271412266 0 0 0
101 27 4 0 -1.6923280566481675 -1.10623607299006 -1.6466952806190944 0 1 0
97 26 4 0 -2.058040035819716 -1.0636700920806423 -1.569033436262952 0 1 0
96 26 2 0 -2.3452945267128666 -1.041428252887838 -1.2716050262176586 0 1 0
112 31 4 0 -1.9854795218060342 -1.1779458391172921 -1.924548700488293 0 0 0
98 26 4 0 -2.060924439547216 -1.058909811058356 -1.570663642874394 0 1 0
55 12 4 0 -1.8794600389656497 -0.8358995729207671 -1.8415839449462814 0 0 0
113 31 4 0 -1.9758273483391262 -1.220505560028702 -1.900616407558564 0 0 0
99 27 2 0 -1.351686930353565 -1.2124853198011498 -1.4744978652470433 0 1 0
53 11 4 0 -0.716839893442267 -1.7505466823755376 -2.255586632086606 0 1 1
91 24 4 0 -0.9483580983618783 -1.2334429236429179 -0.09714925150483396 -1 0 1
92 24 4 0 -0.9089802137634801 -1.2380143923656048 -0.11253007051751193 -1 0 1
133 38 4 0 -0.5968424818611803 -0.03373827950327781 -0.4867497557385758 0 0 0
144 42 2 0 -0.2398656948033162 -0.05027435372344834 -1.1248909229276565 0 0 0
111 31 2 0 -2.0351029413296957 -1.487542271407275 -2.2119395460323177 0 0 0
90 24 2 0 -1.1292078330314983 -1.3217180954984655 -0.3827460811091927 -1 0 1
134 38 4 0 -0.5960812456358412 -0.00762942610726789 -0.4871255163490907 0 0 0
51 11 2 0 -0.5223457030096827 -1.5531533943162343 -2.504626295104041 0 1 1
52 11 4 0 -0.7834010759018883 -1.7233730741379096 -2.296431876954263 0 1 1
80 20 4 0 -0.9687877364239891 -2.048751746025394 -2.2193830701166544 0 0 1
79 20 4 0 -0.9882729743808625 -2.046254198868102 -2.248743250798239 0 0 1
132 38 2 0 -0.869722279447268 -0.02794527211440493 -0.26689758258502955 0 0 0
78 20 2 0 -1.0173254640274993 -2.347905102524248 -2.0236064687395143 0 0 1
146 42 4 0 -0.377394387698537 -0.1895188925286074 -0.8034082382462107 0 0 0
11 3 1 0 -1.877882460978987 -1.4809539491094306 0.46954039566027445 0 0 0
15 3 3 0 -1.8946955125536384 -1.83410762665051 0.34855846226552334 0 0 0
42 9 3 0 -0.09734782934384967 -2.622856536730794 1.2857544184677838 1 1 -1
70 17 4 0 -1.7055302782838442 -2.177260929057093 0.2680234682102632 0 0 0
14 3 3 0 -1.7853524210492446 -1.794592321092634 0.3142398779206547 0 0 0
71 17 4 0 -1.7117521700367784 -2.1869606502658745 0.2865067388237732 0 0 0
13 3 3 0 -1.8967173063260667 -1.8465801280761178 0.4167442179352277 0 0 0
45 9 3 0 -0.03541696295746516 -2.468884409916384 1.2774740869755257 1 1 -1
12 3 3 0 -1.780695363400609 -1.807889559646514 0.37775543732434286 0 0 0
44 9 3 0 -0.04972036356272533 -2.5759899389341263 1.2755624535571657 1 1 -1
43 9 3 0 -0.057954398155868975 -2.560138875501305 1.284986743429877 1 1 -1
69 17 2 0 -1.5331153590614601 -2.510038793043237 0.23015304419428753 0 0 0
41 9 1 0 -0.11767768251202022 -2.4587013120256653 1.621779975659315 1 1 -1
87 23 2 0 -0.5771720811021392 -0.8810067969273655 0.46321633792301586 -1 0 1
88 23 4 0 -0.7184815423138846 -1.0805808856619477 0.1758971035433372 -1 0 1
66 16 2 0 -0.27304811615364216 -0.2734755405808577 2.139142394930967 0 -1 0
89 23 4 0 -0.8349940800332996 -1.09657092541803 0.28003313916607375 -1 0 1
136 39 4 0 -0.08867711064558224 -2.5321451633088983 0.8991853035913641 1 1 -1
137 39 4 0 -0.144606410018041 -2.557232143971357 0.8958026215540306 1 1 -1
120 34 2 0 -2.4711795632012565 -0.8142270462533177 2.2831045804271746 1 0 0
121 34 4 0 -2.6034965940651134 -0.9863114615707403 1.9597992534051334 1 0 0
109 30 4 0 -1.4704041352585147 2.3135967731019385 -1.101208064682695 0 0 1
145 42 4 0 -0.46963983257361314 0.02001784966489631 -0.8735734615006646 0 0 0
62 14 4 0 -0.7463477079740872 0.35451738369594415 -2.1176254328763093 0 0 0
16 4 1 0 -2.149388204732855 2.2496329806672883 -1.3684491823259495 0 0 1
47 10 3 0 -0.5343986943696553 0.6823088459520944 -1.9963844138395317 0 0 0
108 30 2 0 -1.163686510440913 2.176661251401019 -0.9353721352711709 0 0 1
61 14 4 0 -0.7396920520208148 0.32857153428467195 -2.0426577493897757 0 0 0
36 8 1 0 -2.2592579904899797 0.8307744014849506 -0.032204016380423896 1 0 0
110 30 4 0 -1.5158503184283152 2.1932712308393354 -0.9865384484125229 0 0 1
49 10 3 0 -0.730017129650016 0.6825382263422122 -1.908527034209453 0 0 0
18 4 3 0 -1.8367497836131361 2.2268455635312927 -1.2206739831542477 0 0 1
48 10 3 0 -0.7718365046993013 0.7408740775942342 -2.0527055977441 0 0 0
17 4 3 0 -1.8691752069949115 2.3353643651318756 -1.1310164892447385 0 0 1
19 4 3 0 -1.82137119010299 2.183173738696434 -1.2455083388130082 0 0 1
46 10 1 0 -0.5987811381915291 1.0395250110337573 -1.908775631338689 0 0 0
50 10 3 0 -0.6325938983426737 0.6912737747115613 -1.977872317537151 0 0 0
20 4 3 0 -1.8089727811046783 2.202339458754875 -1.2145062214400777 0 0 1
60 14 2 0 -0.9163059689549454 0.05391240444617859 -2.2176197369952115 0 0 0
58 13 4 0 -2.539266000672858 1.1389393314778429 -2.2780483770556472 0 0 0
57 13 2 0 -2.2136472307003383 1.145948916327794 -2.4367736860220965 0 0 0
84 22 2 0 -0.07352776079024334 1.0734937807534741 -0.25094701734194125 0 0 0
59 13 4 0 -2.5366081971202665 0.9619948904523286 -2.2768872682229007 0 0 0
126 36 2 0 -2.5938332611943076 0.2067078814695526 -1.46424340635457 1 -1 1
86 22 4 0 -0.358643144962473 1.1515268636217628 -0.03559541412941009 0 0 0
21 5 1 0 -0.025414964494637964 0.746687522235212 1.7895763142848353 0 0 0
22 5 3 0 -0.10078947518713374 0.4227744535098553 1.9178894491797822 0 0 0
68 16 4 0 -0.23614902947362473 0.09774376799856407 2.095060565045565 0 -1 0
25 5 3 0 -0.2074231571850312 0.46123103248833425 1.9412100094217086 0 0 0
67 16 4 0 -0.2507473513731076 0.059286881414597 1.995899026865726 0 -1 0
135 39 2 0 -0.175684908950981 2.6205818768441285 0.5587785321312851 1 0 -1
2 1 3 0 -2.4691197978030326 0.3967426071184605 0.2874533912670501 0 0 0
24 5 3 0 -0.11696589433383775 0.3909305539037405 1.843150572811109 0 0 0
4 1 3 0 -2.479371683656966 0.3547524932697566 0.3079493575000308 0 0 0
23 5 3 0 -0.19946666191067924 0.4419087359815882 1.8996100450701026 0 0 0
123 35 2 0 -0.8998096004563226 1.4703295312284586 0.3903504231349016 1 0 0
124 35 4 0 -0.6752499537166138 1.2779268375749495 0.15464561466592217 1 0 0
125 35 4 0 -0.670353179138361 1.270558905984687 0.17701270221717422 1 0 0
161 47 4 0 -2.3408264633766858 0.8338085382658235 1.8658590789321516 1 0 1
159 47 2 0 -2.0764990923667703 0.932680350651302 1.6511862052195418 1 0 1
160 47 4 0 -2.3160445401457985 0.7147997922418627 1.7854704834151656 1 0 1
5 1 3 0 -2.466974264870515 0.3567972687086899 0.2803356356049353 0 0 0
1 1 1 0 -2.4537931098926213 0.017835737176144107 0.5158267438880739 0 0 0
39 8 3 0 -2.4428969537947753 0.5685224992863792 0.22776472061957273 1 0 0
37 8 3 0 -2.4486955910831716 0.5281133420838195 0.1822444564695866 1 0 0
38 8 3 0 -2.4451020966578647 0.5332492495009975 0.1450009987296668 1 0 0
40 8 3 0 -2.435066490276188 0.5487010940932553 0.19719856860431284 1 0 0
3 1 3 0 -2.473800331020921 0.3480642410021981 0.2851520578522405 0 0 0
65 15 4 0 -2.5641106876568744 0.5789276982713208 2.1262685856511503 0 -1 0
85 22 4 0 -0.31542853583904706 1.1357224985081928 0.019199184026935115 0 0 0
114 32 2 0 1.8279526057579751 -1.2302769961849533 -1.5061624531007363 0 0 0
115 32 4 0 2.0554737597592503 -1.4578103093073467 -1.3527809531069817 0 0 0
9 2 3 0 1.4460895335700448 -1.712935709683688 -2.306758122051475 0 0 0
140 40 4 0 2.1603034921700797 -1.8299094545180181 -1.2026447733624783 0 1 1
139 40 4 0 2.1568759302899605 -1.8082580409653322 -1.1664852408628195 0 1 1
116 32 4 0 2.0237128530448745 -1.4869613612957402 -1.3353703647822293 0 0 0
103 28 4 0 0.3698163631694675 -1.85610901453798 -0.6282138909339092 0 1 1
74 18 4 0 1.5210724450524964 -1.3590804057805852 -2.4562166851137 0 0 1
104 28 4 0 0.33246374227913517 -1.8571724988256224 -0.6394178693189928 0 1 1
73 18 4 0 1.497120719466354 -1.3777322556621392 -2.5176882174887982 0 0 1
8 2 3 0 1.5505362945522256 -1.7272409109776867 -2.3483999971828022 0 0 0
6 2 1 0 1.4876669695660065 -2.0684058130803096 -2.248931862753058 0 0 0
10 2 3 0 1.5618964621560225 -1.76188390235327 -2.412925054282111 0 0 0
7 2 3 0 1.6229470600930351 -1.7257047271732149 -2.348316379492055 0 0 0
138 40 2 0 2.391367330440493 -2.099478613867328 -1.1541801594964918 0 1 1
102 28 2 0 0.36988956136114604 -1.7114390810738742 -0.9975088901542484 0 1 1
155 45 4 0 0.2636249452596647 -1.8783584323999203 -0.2449457700324809 0 1 1
147 43 2 0 0.3747633132752292 -2.5968543018891515 -0.46658518100012375 0 1 1
149 43 4 0 0.3939811889724966 -2.1982836228785985 -0.4586191564114139 0 1 1
154 45 4 0 0.25892437107825755 -1.8662494622604808 -0.24602499245418832 0 1 1
148 43 4 0 0.3206308682872325 -2.220342075614556 -0.4444451697638825 0 1 1
152 44 4 0 1.0047534446804938 -0.10546673315391962 -1.7495070652725981 1 0 1
143 41 4 0 1.6547858501049253 -0.6010968679303883 0.38879358760378874 0 0 0
141 41 2 0 1.8794223623648916 -0.5353597325119946 0.03880445435455399 0 0 0
122 34 4 0 2.5881509028043657 -0.9832301864355618 1.979049986057613 0 0 0
105 29 2 0 2.627496615649527 -0.8228803452772152 1.259403663940089 0 1 0
29 6 3 0 1.380701045875504 -0.5731755547777139 0.6814670208687431 0 0 0
106 29 4 0 2.582532722555736 -1.0300955972236647 1.5837041174042508 0 1 0
107 29 4 0 2.5380865220024473 -0.9820332741985035 1.5930285960099322 0 1 0
27 6 3 0 1.5017407903203053 -0.5370791536137683 0.720389001265576 0 0 0
26 6 1 0 1.273145085232739 -0.2380224956348478 0.8425747106910733 0 0 0
30 6 3 0 1.4301657075169012 -0.5378527436909626 0.6926585623278656 0 0 0
28 6 3 0 1.3960566902065512 -0.5918804293087011 0.6887631043989221 0 0 0
142 41 4 0 1.6194174283623028 -0.6512673174939225 0.36111869731418655 0 0 0
31 7 1 0 1.420611438594874 -1.2232505755055154 0.7067344698234165 0 0 0
33 7 3 0 1.4549202416335023 -0.8499741449121607 0.6357366621094793 0 0 0
32 7 3 0 1.4799505096960404 -0.8347780379068392 0.6773741792201121 0 0 0
34 7 3 0 1.4743066181550823 -0.7842357052241361 0.6962524386259772 0 0 0
35 7 3 0 1.495060735559967 -0.8534199974369553 0.6486032971670603 0 0 0
83 21 4 0 2.4093641321442627 -1.276095953681153 1.8198092797187628 0 0 0
82 21 4 0 2.4685823016048185 -1.300836330525573 1.8284373416267743 0 0 0
81 21 2 0 2.227166454449893 -1.6342630945453018 1.8381317355670759 0 0 0
153 45 2 0 0.1290019534388951 -1.7030404410437952 0.04782244021699563 0 1 1
72 18 2 0 1.4675566501214359 -1.0468277266319452 2.5977543135995176 0 0 0
76 19 4 0 2.3382780739030906 1.0147642849753755 -2.259524830092248 -1 0 1
127 36 4 0 2.451563475066149 0.48859887098961324 -1.389724738120636 0 -1 1
151 44 4 0 0.8494098676506217 0.14440869189955458 -1.4736185270789315 1 0 1
77 19 4 0 2.4114805053089707 1.0003658103162125 -2.051579032241074 -1 0 1
150 44 2 0 1.026998013889819 0.2597169956467884 -1.7553009156401238 1 0 1
75 19 2 0 2.04369159207528 0.9456835420186839 -2.0694355341922774 -1 0 1
128 36 4 0 2.55760817574761 0.14611833620783438 -1.1156575406469489 0 -1 1
131 37 4 0 1.077447932623174 2.119166964215702 2.3253973676226716 0 0 0
63 15 2 0 2.3488790724555764 0.3969657984098181 2.1444436074610786 -1 -1 0
130 37 4 0 1.0907978235957576 2.0753821950600626 2.3487723768253717 0 0 0
157 46 4 0 1.469748969908932 2.1473213483659888 2.3087134977476116 0 0 0
158 46 4 0 1.4676960365104053 2.1634630992034634 2.336413954340806 0 0 0
93 25 2 0 1.2613433815343218 2.2977706789082637 1.6215921525336516 0 0 0
95 25 4 0 1.279626454718881 2.1221405887913396 1.9825545740622907 0 0 0
129 37 2 0 0.7437251498482593 2.1101481533574473 2.5145248423407796 0 0 0
94 25 4 0 1.2600890789113168 2.2314826902760836 2.0065029912932397 0 0 0
156 46 2 0 1.8024947245882739 2.1346442382874873 2.5033966608209814 0 0 0
117 33 2 0 2.035070215247245 0.6433991604484581 0.23803847548406176 0 0 0
64 15 4 0 2.625130661128893 0.6244187496330158 2.0124367794124502 -1 -1 0
119 33 4 0 2.422075704472263 0.49462798068375535 0.23456209033482464 0 0 0
118 33 4 0 2.4281324784823775 0.5508714690224367 0.23979329529780502 0 0 0

Velocities

100 0.18808220485794752 -0.11999122676685002 -0.26640752388764505
56 0.04100964180066276 0.1307711284410799 -0.30243786279269763
54 0.14755033918901161 -0.07299792920797761 -0.6909337998023385
101 0.020816836764884772 -0.3812609709705327 -0.004580104521519076
97 0.19153307107354084 0.014179100285271235 0.06532386659761905
96 0.18511050811928065 0.006081065581393657 -0.21623483042777442
112 -0.2913958560613466 0.28481053973170123 0.46092824723756104
98 0.026598451690015852 -0.15142764906700576 -0.10906032687368532
55 0.3240946172327957 -0.0505451069447388 0.07197933792576407
113 0.25100121258320546 0.1320408289254412 0.11136018390168204
99 0.30186379818714565 -0.26808481794150396 -0.04824427240807299
53 -0.2813852815647078 -0.08640348824695447 0.009105727679822671
91 -0.13367564785799999 -0.28552413909209196 -0.014186470675517935
92 0.10280640460452767 -0.20924918699814712 -0.32813102278680745
133 -0.05001486098330288 0.03888687045330551 -0.07096241636242057
144 -0.004884225081145353 -0.06132664410106236 -0.32884127659441537
111 0.057513074644802174 0.4747619992584646 0.08661599800746143
90 0.1444442503442197 -0.18001253575240167 -0.06985569815350766
134 0.16437697018612618 0.11760964883904514 0.03883763313207419
51 0.16665416711863432 0.41463657167363294 -0.40075116708667863
52 0.3100496669529242 0.10000999918897682 0.023857013309606726
80 -0.022604356338808845 -0.0023944205570249288 -0.08921081002080619
79 0.23258191761520278 -0.4465140756394902 0.1370365687996539
132 0.026322812883453988 -0.019654312900660317 0.2324808515296815
78 -0.3394553295749317 -0.1676424907628085 -0.11276157282395852
146 -0.4157971393548391 -0.2582822926979087 0.05708823207492969
11 0.03795735454735317 -0.04962679973928229 0.13599320690460381
15 0.19010864351320458 0.2521950864344782 0.1438423675353576
42 -0.08563155999224002 0.057520016740110445 0.08791642229640863
70 -0.08051023956910874 0.04061377082370595 -0.5530893816487862
14 0.09206391501567228 -0.02772588517950045 -0.01836910229065346
71 0.19902481718525902 -0.15919477517172095 -0.07573904963057082
13 -0.17202450951217385 -0.3289848888412465 0.20353978743162252
45 0.09982295701857077 0.24953219732941762 -0.03669090700356009
12 0.2048591516560458 -0.6634644161060979 0.0016860616340203909
44 0.1632001624564487 -0.06961633829566877 0.20756846164009857
43 0.2583963919183618 -0.0960733941566535 -0.1686753307460986
69 -0.16197377483962352 0.30967054333885735 0.3361466835257442
41 -0.09786002780942547 0.03973643009621801 -0.33671611037798327
87 -0.20024156787453096 0.5605485494839179 -0.35250931189726065
88 0.27079644295291905 0.06181459615457508 0.4723698426786457
66 -0.11277311503137098 -0.5089921439451793 -0.3915457589156308
89 -0.08008816277428005 -0.10314728411193157 0.08774808920073468
136 0.10560128821334071 0.021404344470476643 -0.20905586221832917
137 0.1129538655233506 -0.2957474079316882 -0.10901426537334345
120 0.21749567616493104 -0.04912107431949954 -0.014510981072854985
121 0.5646314827719875 0.248121208851048 -0.18613079154010434
109 -0.15076667388665693 -0.19153525162585486 -0.04102362064898375
145 0.027081150314946283 0.3430898494258596 -0.22971889513192467
62 0.22592026793026845 -0.07905994493026251 -0.056646333505058835
16 -0.02491467912088496 -0.2001150456788231 0.5946371913910228
47 -0.22474421513056791 -0.2324731922905251 -0.01990718715217962
108 -0.30144160605191156 0.07670892855920226 0.3972202967220853
61 0.10975615909033204 -0.16874627904062575 -0.1404690622531734
36 0.08185877695836356 0.18420771411666528 0.4883996065248552
110 0.07988146031910366 -0.033659210156818734 0.11809614787459638
49 0.3849724215334089 -0.15478369609505235 0.5075643987519394
18 0.005680194377893623 0.01575798662673336 0.14127471097412056
48 -0.14862638339228149 0.1162445477725658 -0.09767125714254803
17 -0.016133296311922018 -0.0114067746386782 0.1159059233842054
19 0.04319896012795277 -0.11018428327978491 -0.354334504018282
46 -0.11530042175639993 0.12237985667570449 -0.41114595130714804
50 -0.09844276016791513 0.3219426883253118 0.09644141176829567
20 -0.40954459019590195 -0.07872918692083834 0.33373197680927413
60 0.10383522988868985 -0.13749120736173503 -0.03980249206370383
58 0.13456833581172575 -0.62409685182015 -0.04541569491419757
57 -0.16492384848951008 0.2692674056872322 -0.2888886291121398
84 -0.1990810898651234 0.15684176802103447 -0.2075346558834278
59 -0.2668384747828742 0.29803013322142735 0.03918191571422427
126 0.03662637191220896 0.12087276453621734 0.26760682787138435
86 -0.13573847164788 -0.14340017643256978 -0.03892224976118512
21 -0.04350574766714102 -0.1658572234611328 -0.167756722885337
22 -0.17195337081111087 -0.4629251682613115 0.040641107398368154
68 0.07323834926112455 0.014721140366008965 -0.46664190513884063
25 0.013210531688722013 0.08200423103317188 0.039877880692800065
67 0.08531023964108805 0.010621175577916267 -0.024403820217582035
135 -0.3209873223692148 0.08594734205811952 0.08083365648088574
2 0.10598089420490012 0.503025345977511 -0.07077485760296849
24 -0.3064349938146124 -0.06300636097293222 0.0038111698485370697
4 -0.5239080418507712 -0.14902555639061674 -0.11975231796476773
23 -0.37245299568387885 -0.17459323290384646 0.39124939893611554
123 0.026989576429481646 -0.0809751682140496 0.19415794176613038
124 -0.059866292733262584 -0.2481925494462039 0.3023028249875179
125 -0.05509362729199872 -0.17158322946040078 0.3665973919873423
161 -0.35448867064339346 0.054039515752440315 -0.04374969729499449
159 0.2595127735504102 -0.40436694836157683 -0.25524390132399394
160 0.3322738765138618 0.09551104692500065 -0.2930625409966287
5 -0.5351342998344516 0.21735626277600148 0.29933412972360823
1 0.2506937014928736 -0.22564620121650894 0.14907163943396595
39 0.3480659793277608 0.32542506342595456 -0.5791400172754614
37 0.24456498309048968 -0.10913914523010891 0.36246597616169
38 0.3540085543589157 0.5970441591077761 -0.033941083032361714
40 -0.4662236302256203 -0.6302581222530121 0.20594039337401743
3 -0.31319337236506595 -0.3668840195559585 0.4649055067779928
65 -0.1086197650353471 0.202829437980041 -0.18015022500392244
85 0.2687061625217859 0.16067003667213722 0.08860188553073817
114 -0.06636227980024231 -0.15053400545235635 -0.09608564773881262
115 0.21559312821228763 -0.019435873809433988 0.08837116500743168
9 0.3307076151149433 -0.4097672810740252 -0.5338541903536164
140 -0.29824218558591653 0.12411077141219619 -0.0857923959346156
139 -0.43410890304432015 0.003949150668284725 -0.05559121323992082
116 -0.07131386125581154 -0.022509793889930383 0.1326427281623302
103 -0.04764811395783018 0.12272435121456378 -0.03728863963898706
74 0.33103945499384557 -0.20017402804519974 -0.027191652921938526
104 -0.43073887144127776 0.18701123654871912 -0.012753590189592105
73 0.009780666891295243 0.1919573943935713 -0.030569094708800627
8 -0.09153687956616455 -0.008159806872920122 0.29314755916699387
6 0.274122476839177 0.2069841470959919 -0.014834579249923208
10 0.03194815075698136 0.22867228001083584 0.2775574200149923
7 -0.08049146543769237 -0.19113243630134166 -0.6528109021409009
138 0.1478418202816566 -0.6341479724516597 0.13389541442287725
102 -0.038994699561273244 -0.09676664927934636 -0.412580109378533
155 0.1342264485840923 0.5984502228060513 0.4204986375859879
147 -0.31921864221062435 -0.046336451847536715 -0.464651992966394
149 -0.30172425529953706 0.17069530490023124 -0.06289616034895144
154 -0.179838523966121 0.3470375922566383 -0.154808840095139
148 0.33312797029507074 -0.17950063551394296 -0.2082770992517931
152 0.3413853522239787 0.3016546535180336 0.04777866467563034
143 -0.21902218649399385 0.4307055816473674 0.19234559093031145
141 -0.12793224736804334 0.2572593449122858 0.14413712130091857
122 -0.20471092838328217 -0.029207866398189227 0.10638929582090782
105 0.26802340599419167 -0.2544096691391772 0.053055998655216256
29 -0.2529933247371754 -0.21613251774956893 -0.19286778892280612
106 -0.0729695909375491 0.25356735701718586 0.27789049830868945
107 0.09455301606552341 -0.037074996495198465 -0.3222438396585347
27 0.21044334132169581 -0.023822540835195055 -0.1858108850005059
26 0.10097957592465487 0.410416558222838 0.17192218197995762
30 0.16574265436585311 -0.22299631055103428 -1.041251453775892
28 -0.7042699223279097 -0.028089366547066938 0.059942995536304
142 0.12705421122943064 -0.007913413209679171 0.20262225097607256
31 0.3992982821563902 0.13065985983607925 -0.026340771959119685
33 0.07192400366035624 -0.09355414463576563 -0.3296293126570644
32 -0.1912806855504533 -0.1391271140303981 -0.2526293202218477
34 -0.44391378323125047 0.005593047036817513 0.24592271312764824
35 0.17957197545861328 -0.4460837887021795 -0.15966845243225042
83 -0.20986284742672692 0.02627167290419367 0.33786240573157517
82 -0.021809406089401226 -0.3009297494582526 -0.01117869000356532
81 -0.27654941660911014 -0.03512339705004284 -0.3756650201713931
153 -0.013809688205416004 -0.32726075062720444 -0.016219234499902334
72 -0.022981695731505835 -0.2227868970268819 0.009366845298265848
76 0.17003540870496595 -0.16270010796529263 0.1444290953063767
127 0.39688876977115095 -0.0812462624469434 -0.23798570630425567
151 0.00129825779279167 -0.340015429162961 -0.7893871934488328
77 0.4464064089144356 0.007903045486731212 -0.043096787564832734
150 0.2437844540740273 -0.17439604591719698 0.08414948946005171
75 -0.27618422970074397 0.01824015268008202 0.0010752311908434542
128 -0.027010400560259044 0.025078177892722094 0.17877658856332584
131 0.29691536108309374 -0.012002670124925651 -0.06512886688450893
63 -0.13672741829130644 -0.04993633796994669 0.03569307438657418
130 0.4250134575233749 -0.049375031285193556 -0.08976858851952361
157 -0.16096378155325453 -0.040238170771731446 0.12462643473564186
158 0.08025127021875372 0.16127128694786771 0.11488291919948511
93 -0.4349747423621295 -0.12596125035618952 0.17121589312305383
95 0.010757678923509257 0.12480056006784596 -0.026222141193566743
129 -0.06782356014524399 -0.08049182653652066 -0.016115744538780254
94 -0.037147787785762706 0.3051767034311009 0.33111966300714835
156 0.0019814875437256865 -0.5403774802445048 0.27397242745261824
117 -0.11162043348423116 0.6138502573599546 -0.05433678309093619
64 0.12551321355114492 -0.4672573027774138 0.23590974570382378
119 0.4298681259501039 -0.45434265999786133 0.3435368705263768
118 0.5487227856844697 0.4178811897052658 0.04829309294099902

Bonds

1 1 54 55
2 1 54 56
3 1 96 97
4 1 96 98
5 1 99 100
6 1 99 101
7 1 144 145
8 1 144 146
9 1 111 112
10 1 111 113
11 1 90 91
12 1 90 92
13 1 51 52
14 1 51 53
15 1 132 133
16 1 132 134
17 1 78 79
18 1 78 80
19 1 11 12
20 1 11 13
21 1 11 14
22 1 11 15
23 1 69 70
24 1 69 71
25 1 41 42
26 1 41 43
27 1 41 44
28 1 41 45
29 1 87 88
30 1 87 89
31 1 66 67
32 1 66 68
33 1 120 121
34 1 120 122
35 1 16 17
36 1 16 18
37 1 16 19
38 1 16 20
39 1 108 109
40 1 108 110
41 1 36 37
42 1 36 38
43 1 36 39
44 1 36 40
45 1 46 47
46 1 46 48
47 1 46 49
48 1 46 50
49 1 60 61
50 1 60 62
51 1 57 58
52 1 57 59
53 1 84 85
54 1 84 86
55 1 126 127
56 1 126 128
57 1 21 22
58 1 21 23
59 1 21 24
60 1 21 25
61 1 135 136
62 1 135 137
63 1 123 124
64 1 123 125
65 1 159 160
66 1 159 161
67 1 1 2
68 1 1 3
69 1 1 4
70 1 1 5
71 1 114 115
72 1 114 116
73 1 6 7
74 1 6 8
75 1 6 9
76 1 6 10
77 1 138 139
78 1 138 140
79 1 102 103
80 1 102 104
81 1 147 148
82 1 147 149
83 1 141 142
84 1 141 143
85 1 105 106
86 1 105 107
87 1 26 27
88 1 26 28
89 1 26 29
90 1 26 30
91 1 31 32
92 1 31 33
93 1 31 34
94 1 31 35
95 1 81 82
96 1 81 83
97 1 153 154
98 1 153 155
99 1 72 73
100 1 72 74
101 1 150 151
102 1 150 152
103 1 75 76
104 1 75 77
105 1 63 64
106 1 63 65
107 1 93 94
108 1 93 95
109 1 129 130
110 1 129 131
111 1 156 157
112 1 156 158
113 1 117 118
114 1 117 119
