LAMMPS data file via write_data, version 29 Aug 2024, timestep = 200000, units = lj

161 atoms
4 atom types
114 bonds
1 bond types
0 angles
2 angle types

-2.629534 2.629534 xlo xhi
-2.629534 2.629534 ylo yhi
-2.629534 2.629534 zlo zhi
0 0 0 xy xz yz

Masses

1 1
2 1
3 1
4 1

Bond Coeffs # harmonic/omp

1 100 0.361231

Angle Coeffs # harmonic/omp

1 100 180
2 100 109.471

Atoms # full

28 6 3 0 -1.2797206979559081 -0.40798757552917886 -0.10858660071893889 2 0 0
30 6 3 0 -1.3063062232914953 -0.40009852914286625 -0.10705360656139273 2 0 0
29 6 3 0 -1.2912091735041107 -0.45586576844429505 -0.07446168237463802 2 0 0
32 7 3 0 -1.0176137592962382 -0.3885149352327395 -0.18028405394044844 2 0 0
35 7 3 0 -1.022504270467617 -0.3756497935557386 -0.20423581708039684 2 0 0
34 7 3 0 -1.0332582630040703 -0.4028778589885871 -0.21686337266800448 2 0 0
26 6 1 0 -1.6704010358379353 -0.48842368703229644 -0.18710006583996908 2 0 0
33 7 3 0 -1.0012970836466522 -0.3391504632699145 -0.18052646055226607 2 0 0
27 6 3 0 -1.3190171383677793 -0.44025825809729957 -0.06748786499090764 2 0 0
105 29 2 0 -2.2022643465291463 -1.0250974451839714 -2.1909151960163404 4 1 1
106 29 4 0 -2.258788412106772 -0.7981185305068719 -2.497318906936233 4 1 1
107 29 4 0 -2.2772289727826376 -0.7790657239809984 -2.4896648323423802 4 1 1
156 46 2 0 -1.207302862329511 -2.1104503909757666 -1.764164860078781 4 1 1
31 7 1 0 -0.6889400031590831 -0.29747281645067725 -0.408924382080619 2 0 0
157 46 4 0 -1.0503219779071349 -2.400114448016935 -1.9717731354301233 4 1 1
55 12 4 0 -0.07628270391282932 -0.298920244739044 -1.9648575984033527 1 0 0
158 46 4 0 -1.0577088315521257 -2.4005970071165468 -1.9788532353260722 4 1 1
56 12 4 0 -0.07358363680737723 -0.2766495205624566 -1.9715517920296775 1 0 0
54 12 2 0 -0.41194764702474806 -0.077045464054875 -1.8754357822992076 1 0 0
57 13 2 0 -2.300938162947791 -2.4734132735143652 -0.24277240500798225 3 1 0
130 37 4 0 -0.7432988833667826 -2.524768246881436 -2.177268274227618 4 1 1
58 13 4 0 -2.6104145785078323 -2.619186898619591 -0.37037969787516856 3 1 0
131 37 4 0 -0.7459812817262317 -2.4851925930979375 -2.181953788223982 4 1 1
129 37 2 0 -0.38806445459615224 -2.4415568681542767 -2.355425183869499 4 1 1
82 21 4 0 -2.432287263670361 -0.648563596009339 2.4357397849625264 2 0 0
83 21 4 0 -2.4433824306419014 -0.611086326173397 2.4571260337953853 2 0 0
143 41 4 0 -1.0386050416811163 -0.42219825683574674 0.20085430869191878 2 0 0
120 34 2 0 -1.7080982000849474 -0.43237611693599787 2.343100578061033 2 0 0
121 34 4 0 -2.0464850542057165 -0.5663590451643263 2.49747231061385 2 0 0
90 24 2 0 -2.234067725832912 -0.030451226668849696 1.0135937288136483 1 0 1
122 34 4 0 -2.0571686101188495 -0.5516770350318989 2.5213485548033323 2 0 0
142 41 4 0 -1.0390133525809764 -0.3808338622616887 0.19263966942701982 2 0 0
88 23 4 0 -2.472864539040609 -0.7360675547860605 0.8143592668440154 1 0 1
91 24 4 0 -2.3394495790095684 -0.3715887327337546 0.9018033111277011 1 0 1
92 24 4 0 -2.3964982620038855 -0.3374204034256496 0.8985336220442863 1 0 1
141 41 2 0 -0.9684336878011581 -0.3802223894492385 0.5790995897801099 2 0 0
50 10 3 0 -1.1926016475186485 1.2959791628599757 -1.702087744167964 3 0 0
62 14 4 0 -1.306288491760869 1.467756279751145 -1.363468858543057 3 0 0
60 14 2 0 -1.481679646662852 1.5851784724980944 -1.0654750449085792 3 0 0
47 10 3 0 -1.2943150509618535 1.1796089228475477 -1.6531355458432304 3 0 0
61 14 4 0 -1.328304831466993 1.4471149553334173 -1.352555655001624 3 0 0
49 10 3 0 -1.2828819343417674 1.3170213777765185 -1.7168931001803052 3 0 0
46 10 1 0 -1.1701680334851803 1.0789262762368819 -1.9775724656981108 3 0 0
48 10 3 0 -1.1596169138673973 1.2924236394655901 -1.6724083698104795 3 0 0
104 28 4 0 -0.0920230670460187 1.85117721166093 -0.960155374919704 3 0 1
108 30 2 0 -2.586428289087478 0.9098281593046367 -1.1382256212860238 3 0 1
95 25 4 0 -1.077182974583926 2.5467149621223313 -2.2130076688536215 4 0 1
149 43 4 0 -0.06628397046454948 2.188893913604421 -0.7228849991938284 3 0 1
155 45 4 0 -0.32473585078896106 1.9123430076277468 -0.6539401107616241 3 0 1
153 45 2 0 -0.5612166665374052 1.7158888220782154 -0.3769856375390006 3 0 1
94 25 4 0 -1.064255773149114 2.51213650271197 -2.1569442072447673 4 0 1
93 25 2 0 -1.3009320912747189 2.2509857076624082 -2.308106885867988 4 0 1
103 28 4 0 -0.06299705325060945 1.8468524519159852 -0.9458934409318545 3 0 1
154 45 4 0 -0.2918282793025182 1.8962787924427302 -0.6150502895993495 3 0 1
148 43 4 0 -0.09245945899977581 2.2069612382510955 -0.7785017297896459 3 0 1
59 13 4 0 -2.5675361370318943 2.575629966128561 -0.3718070303737324 3 0 0
66 16 2 0 -2.3068901595067013 1.006922129923011 1.9882997722859215 1 -1 0
123 35 2 0 -0.9152408410221324 0.758196859484622 0.33880274071332206 4 0 0
124 35 4 0 -0.6515114522848524 0.5163802776058488 0.3811425823949901 4 0 0
80 20 4 0 -0.9004051268385804 2.033805572619922 0.9121602918426057 1 -1 0
53 11 4 0 -1.2849185591489967 1.9663758970747245 0.9508214175881373 3 0 0
67 16 4 0 -2.5339264448534164 1.1374338241675424 2.2441365635217267 1 -1 0
78 20 2 0 -0.560126643411488 2.0325421352904542 0.8300643607976284 1 -1 0
85 22 4 0 -0.24001918643543707 0.4556134219893435 0.3764474912825717 3 0 0
151 44 4 0 -0.22843571889973724 0.45492271018101826 2.082984855725807 4 0 0
86 22 4 0 -0.27017085071923574 0.40134617336872 0.32789822392500456 3 0 0
128 36 4 0 -0.08336431018358192 0.42518135259582834 1.7076479817417618 1 -1 0
125 35 4 0 -0.609207022750307 0.583570588351674 0.2985083539862754 4 0 0
79 20 4 0 -0.9005515027181472 2.008902616187951 0.8604503954585354 1 -1 0
52 11 4 0 -1.2893862584601812 2.000575725519783 0.9934615916511254 3 0 0
51 11 2 0 -1.613028118398976 1.8844001430627695 1.0644802692785142 3 0 0
127 36 4 0 -0.07210398349820624 0.404944247832546 1.7153841274366548 1 -1 0
152 44 4 0 -0.2800261869820386 0.5732707140278692 2.0235038356910917 4 0 0
24 5 3 0 -2.627967274015117 1.450581266069214 2.484219173371336 3 0 0
150 44 2 0 -0.3793586788215717 0.6877121456213495 2.3499158186866036 4 0 0
68 16 4 0 -2.4804801847939513 1.1295604085636186 2.2970556478049695 1 -1 0
139 40 4 0 1.0743400246529244 -1.5286350208293307 -2.40333920416424 3 1 1
116 32 4 0 1.0482701886977712 -1.877328380400799 -2.555236924174362 1 0 0
115 32 4 0 1.0579978750140207 -1.9134088350555376 -2.4602662107217377 1 0 0
74 18 4 0 2.252223252046759 -2.3388344511746912 -1.664585125877051 1 0 1
140 40 4 0 1.0830728130490082 -1.507446455038343 -2.413910075020469 3 1 1
10 2 3 0 1.892152965163858 -2.4559481325733463 -1.765363418781292 1 0 0
96 26 2 0 0.656359263334672 -0.09905297184686157 -2.0257286063068887 3 1 0
39 8 3 0 1.691708590174843 -0.6053791275265454 -0.011686122972895507 2 0 0
138 40 2 0 1.1522247272876238 -1.159251167108804 -2.3547704689101816 3 1 1
37 8 3 0 1.7231525936426002 -0.6321226375673792 -0.010241439457138846 2 0 0
40 8 3 0 1.6274740533694145 -0.5354139159358584 -0.042949934823178104 2 0 0
36 8 1 0 1.9715241168113837 -0.3272749849136827 -0.0399528631391326 2 0 0
38 8 3 0 1.6863130375943238 -0.5752770441938018 -0.005091375175300783 2 0 0
8 2 3 0 1.8708872944568404 -2.3665268560829262 -1.7573423553221736 1 0 0
7 2 3 0 1.8568231659815635 -2.34294398410171 -1.7242337793843499 1 0 0
9 2 3 0 1.8747776028186238 -2.4007037044187607 -1.7261044734088629 1 0 0
6 2 1 0 1.544057830022838 -2.5137711703643393 -1.6866903645326592 1 0 0
73 18 4 0 2.261110463183807 -2.4084838990980026 -1.81301867224114 1 0 1
72 18 2 0 2.604334113976361 -2.265345501876392 -1.8271075204523497 1 0 1
111 31 2 0 0.14615104808770774 -0.9305199014242236 -1.6339776033904763 1 0 0
98 26 4 0 0.30125542795595495 -0.32875925899860503 -2.06353239230218 3 1 0
97 26 4 0 0.30614704289836725 -0.32330823520178953 -2.0643721139890805 3 1 0
119 33 4 0 1.4068922271565998 -0.7277064624633034 -0.2659432303722107 2 0 0
118 33 4 0 1.414056081160075 -0.7137943088312284 -0.26361045385036874 2 0 0
117 33 2 0 1.1827137643567918 -0.7233578903863871 -0.589796872115 2 0 0
112 31 4 0 0.1117087762237623 -0.6176052546192121 -1.8639432613244107 1 0 0
113 31 4 0 0.12250182751155103 -0.614326389303665 -1.8660361817258189 1 0 0
101 27 4 0 0.013784527910076338 -0.5490698747392408 -2.240326871041417 3 1 0
100 27 4 0 0.04193555348810607 -0.551139268279341 -2.251257806531919 3 1 0
11 3 1 0 1.5192021746559399 -0.8644974634801108 1.7129134467372018 0 0 0
87 23 2 0 2.5045241562389076 -0.9613462151281498 0.7383994058167405 0 0 1
3 1 3 0 1.4265709249222334 -0.7566184180823763 0.11429523806402653 1 0 0
15 3 3 0 1.201638810310956 -0.9758577689960684 1.5588153032652836 0 0 0
14 3 3 0 1.2208333694582096 -0.9775876914364336 1.516731597853124 0 0 0
12 3 3 0 1.2548202353214548 -1.0916226617953433 1.588514875628952 0 0 0
1 1 1 0 1.290770355853681 -0.9491804392297605 0.4002512078734397 1 0 0
71 17 4 0 0.9051054539444561 -1.2370517634312888 1.5071868051832564 0 0 0
13 3 3 0 1.1838163314960104 -0.9800781676389485 1.6332362664387392 0 0 0
70 17 4 0 0.8693132576818186 -1.1497348071764708 1.5305567288422446 0 0 0
69 17 2 0 0.5588250056212658 -1.3196241224243792 1.4430863685835562 0 0 0
4 1 3 0 1.5042090115754418 -0.8212537973508918 0.0996470898567412 1 0 0
2 1 3 0 1.4971894295633654 -0.73852772880567 0.13153630149324602 1 0 0
5 1 3 0 1.451833588933884 -0.7330200047990307 0.1269368770271031 1 0 0
81 21 2 0 2.467403270256168 -0.46987309698188584 2.3211437256200624 1 0 0
89 23 4 0 2.629059074809415 -0.6646288228854671 0.9245096012307861 0 0 1
114 32 2 0 0.9347244094840517 -2.1998750798608984 2.6127127185119075 1 0 -1
99 27 2 0 0.009835966860480827 -0.6563351680916429 2.615545310028027 3 1 -1
144 42 2 0 1.2350890519902595 1.396361656627532 -1.4704968610489935 2 0 0
145 42 4 0 1.28638951165895 1.0876174324708123 -1.2483448200073408 2 0 0
146 42 4 0 1.2605327798101906 1.0510006795052966 -1.3498270416053462 2 0 0
132 38 2 0 1.2578541365831235 0.3374844327881501 -1.204179077377076 2 0 0
133 38 4 0 1.2639984939434212 0.6941493352798984 -1.1794889443442518 2 0 0
134 38 4 0 1.1942345784202972 0.7101178299059465 -1.1416565092757451 2 0 0
75 19 2 0 2.161928797097398 2.2323976699185084 -0.7396270235345455 2 0 1
18 4 3 0 2.3005339672686307 0.3477120324071583 -1.4722524462497535 2 0 1
20 4 3 0 2.267919940217926 0.38049467560745764 -1.517312525780317 2 0 1
102 28 2 0 0.08741881733161483 1.62834662389549 -1.2563021481396723 3 0 1
76 19 4 0 2.3487626718234256 2.4086921016046374 -0.47016993280163044 2 0 1
147 43 2 0 0.016922008141873057 2.569064671170764 -0.714534127242672 3 0 1
16 4 1 0 2.2808541669179365 0.1060253050498483 -1.7529640318845277 2 0 1
77 19 4 0 2.308898509906436 2.428314862560924 -0.4586289109696051 2 0 1
19 4 3 0 2.302287044596906 0.34158341445912566 -1.5031392919435176 2 0 1
17 4 3 0 2.2719314273718187 0.37092959425649985 -1.5189879764837229 2 0 1
109 30 4 0 2.560663553418365 0.6157055797018578 -1.3529659635095337 2 0 1
110 30 4 0 2.481985166665741 0.610812068619548 -1.2716959843734812 2 0 1
21 5 1 0 2.412445321136533 1.5310880124971171 -2.4679518363186883 2 0 1
41 9 1 0 1.6289681528215705 2.502714913027835 1.6556186949095397 4 0 -1
43 9 3 0 1.3459490691779434 2.2855372166380445 1.5582539070107546 4 0 -1
45 9 3 0 1.2952594693017838 2.401944501460066 1.6383808597352014 4 0 -1
42 9 3 0 1.3633639440766459 2.266083828036473 1.584640157857239 4 0 -1
44 9 3 0 1.3163329914474913 2.3753577182592642 1.5835773829439126 4 0 -1
136 39 4 0 0.9880103385272347 2.139413556666575 1.626821564216979 4 0 -1
137 39 4 0 1.0139439829193204 2.1143540606554576 1.6644848655530073 4 0 -1
135 39 2 0 0.6808127912840032 2.0220858435009457 1.7696828382253416 4 0 -1
161 47 4 0 1.5524334183246107 0.9263378273828757 0.8714291085684018 3 0 1
64 15 4 0 1.543474738690953 0.7635981939843726 1.2489834461796563 0 -1 0
160 47 4 0 1.4345430276893354 0.7817580883757724 0.8592387526012506 3 0 1
159 47 2 0 1.510285256260779 0.9124395242527559 0.5188786421491005 3 0 1
63 15 2 0 1.4804707731237268 0.6385465305775528 1.5884797724927453 0 -1 0
65 15 4 0 1.572809279958657 0.8000512232307933 1.2340520400019068 0 -1 0
126 36 2 0 0.14480174644985144 0.28308153912106215 1.4445949105586897 1 -1 0
25 5 3 0 2.5940767158161244 1.3615051734113393 2.556194998713012 2 0 0
22 5 3 0 2.5003140498417946 1.3533618812355237 2.484491704712102 2 0 0
23 5 3 0 2.5554374635137864 1.229772395445385 2.5913907021841784 2 0 0
84 22 2 0 0.1031149245450318 0.3003008352269867 0.34004630926716084 3 0 0

Velocities

28 -0.5164089085211843 0.25894502011471743 0.0727265861833837
30 -0.24240389029285966 -0.3432558424548294 0.22521705670461256
29 0.4745198234584756 0.1193058007106153 0.31506942118040526
32 -0.0007789748232406458 -0.10892388856169159 -0.054282187653872466
35 0.6081770826291764 -0.058730108918793524 -0.50882173353972
34 0.630862513028419 0.40613326443460424 0.1275722819113474
26 -0.4442277377050969 -0.24252266438101322 0.16884218714361385
33 0.49710254858216196 0.1216989808114602 0.49959103337479216
27 -0.1712739125263778 -0.16457518322701273 0.14553314444232196
105 -0.16969309454935047 0.5115466205014102 -0.18388917139749805
106 -0.19679742142451984 -0.10755559724612684 -0.43619041945727927
107 0.019102786376224985 0.2051506350611762 0.1090147647093806
156 0.017901400676726967 0.6025448428494384 0.14677148569661322
31 0.06367695273844065 -0.29287245933895184 0.3543387856557333
157 0.18116666165185277 0.3847939465882965 0.1460564983928235
55 0.5398371732037671 -0.19480625561451537 0.14403675617936
158 -0.006802374280368286 -0.012183077664203602 0.3695735030594319
56 -0.09641110700940997 -0.4144617506742837 0.24401695315369185
54 -0.17013021967539485 -0.27560460775486534 -0.11395108499282192
57 0.13674248537145886 -0.0708782137433225 -0.11163270946531964
130 0.2712464250275276 -0.025439941576903186 -0.14082424285970865
58 -0.04715715866955957 0.1022077826441154 0.061252204045297354
131 -0.21037819256613652 -0.19747139990219714 0.07621100851465903
129 0.07344738839047076 -0.027414777492365597 0.19716412858931343
82 0.30890141826514544 -0.02387137254022316 0.47470080759970157
83 -0.37453146324914155 -0.07405518217754943 -0.5537754054785379
143 -0.562480012875204 0.07894833278796444 0.08580150554749805
120 -0.2947122829475585 -0.3189020951343496 0.1397706103181248
121 -0.13977084073768234 0.15782588862392757 0.14794965128464396
90 0.4648338038007345 0.16551019773432335 0.04961651631019058
122 -0.25423775956689 0.14487700282411453 -0.04955781974009715
142 -0.13016751498818963 -0.12745002442960743 -0.3887964166250616
88 -0.14921845243342455 0.37644478147615024 -0.3980234633388905
91 0.024798169298734716 -0.03659597662631697 -0.013395163469912595
92 -0.19741224860330323 0.032883833006749984 -0.4261610970355126
141 0.45164235554618504 -0.06532872323325047 -0.6989653622174696
50 -0.3303865601766141 -0.2219624362534074 -0.06017227121879958
62 0.03727329398367517 -0.40594555236367597 -0.006514424678603943
60 -0.12509686798799502 -0.1328836841446239 -0.029338627634500528
47 0.2331387940488828 0.3136087903967756 -0.044281959625230155
61 0.15602236785269477 -0.24565358048018418 -0.16351840115653496
49 0.39261710265090843 -0.1564794380728255 0.22497122055755614
46 0.3605084272161078 -0.24376719131493899 0.35855522718581667
48 -0.05870194176819903 0.029698544234044007 0.3028082046288162
104 -0.15081411654238538 0.5335034947195008 -0.3070972276162357
108 0.06782577974573234 -0.22149029165341713 -0.13064454082716248
95 0.2565929136940694 0.09218438807816395 0.22037168584562708
149 -0.09606012818918166 -0.11529014162461994 0.15567751974766317
155 -0.20064922262212007 0.1589423706545418 0.019763280097741347
153 0.31146613336333306 -0.0093817638146035 0.07379499160965673
94 0.2925581734790627 0.12756838799505793 0.2850731855524137
93 0.059135625757344275 0.22261477319525752 -0.23670351264919276
103 0.07353471734081596 -0.07706308749081033 -0.1379830502815599
154 0.12993902927681308 -0.10283898953749261 0.09587802857416981
148 0.46916003116354704 0.19834154298950962 0.18041438377738134
59 -0.014664607626481032 -0.040607551428485586 0.1814619826313145
66 0.05996416877471743 0.09909291009793056 0.27829268346553276
123 -0.23286380858522787 0.11525107105396645 0.5684010869045545
124 0.3825685423644228 0.1711779134100199 -0.08641656745085982
80 -0.538768962723843 0.18004488486004888 -0.31762511323730924
53 -0.15741741690736363 -0.29754085111979484 0.11882156508214799
67 0.3176653100200049 0.008215502481577895 -0.5601704025370776
78 -0.02167316084090809 -0.15623875728456188 -0.00831543415200673
85 0.19516583889229883 0.28401743011937886 0.011189064299250933
151 0.13857530134279053 -0.20152494609734203 0.5233360833411191
86 -0.09290896609904714 -0.03258527744191574 0.1542922985095522
128 0.41764821444056105 -0.2701429154514629 -0.20584886729126475
125 0.10015945060799192 0.08294574609769137 0.11850717444772314
79 -0.40821495745266995 0.08606909551961904 -0.2644982492633935
52 -0.17677804721567064 -0.09008414354851266 -0.24362810382793954
51 0.5877993636033411 -0.024904229446642223 -0.1512637958949869
127 -0.39946495751876676 0.12732094780803674 -0.05913300364926471
152 0.2873121086425122 -0.011225740977822796 -0.1470633452604323
24 -0.15240550289160446 0.19723005608995733 0.26575749637621393
150 -0.41771511504931674 0.09091230689541221 0.21212779389598202
68 0.17105970066607837 -0.04549345597596445 -0.17682528631156214
139 0.0020067430692962893 -0.33318530192458923 0.09199673137730294
116 0.28038469788098286 0.1375208794450326 0.21188920208876896
115 -0.032830176362874226 -0.2812904313425389 0.27733031334051617
74 -0.13836918729556774 0.06663609596790859 0.3279243200995718
140 0.31186194992635674 -0.32832802432305497 0.15977342400128974
10 0.4574073725575661 0.4210305560063804 -0.10899754740315731
96 0.05965657562367835 0.01952774261189906 -0.033139259151901766
39 -0.44702187950551847 -0.6646492266271811 -0.5211183678159997
138 0.09435857358491026 -0.05787096943848509 0.13936386285334051
37 -0.27469059258338785 0.11076891917795435 -0.5140808695147573
40 0.08342418555893881 0.32699285938158335 -0.26136433431656997
36 0.35082090112606173 0.06449034407546572 -0.24784803845851447
38 0.25983069419021554 0.2157749654020731 0.6498994330588201
8 0.016762258259805755 -0.04247435856612029 0.3754118952030702
7 -0.08146076737572082 -0.06619284997546251 0.13791829361536803
9 0.25830564136413203 0.32995665147762065 -0.17625151676935133
6 -0.4022001313864695 -0.2756002842099108 0.41860139547717806
73 0.1702451550207915 -0.1123920227506971 -0.2648967508114197
72 0.0074585672817732256 0.19189545926198148 0.08618826216977893
111 -0.2693971116419785 -0.05928427161638659 0.265378870603179
98 -0.06820963713686565 -0.27683387329485304 0.17664009659231025
97 -0.15182044209253992 0.06208458611024813 -0.26021482781405797
119 0.38349485175756326 -0.421735574414425 -0.10751997124309053
118 -0.08899633332861602 -0.145535852639733 -0.39786620844191695
117 0.07167268924579204 0.3827344992889293 0.21581637238498352
112 -0.18453432823797486 -0.04907855027613699 -0.035476793776335655
113 -0.017756243574670906 -0.06780847438874402 -0.23905486829764686
101 -0.1369631391333647 0.6337674748601024 -0.25074430475960413
100 -0.14081756341097915 0.2844769231255505 -0.3463525582732042
11 -0.07242762816128585 -0.08785606705908228 -0.5913350139314649
87 0.013481165708182691 0.3732316687894623 0.011196254466001553
3 0.10005901869934447 0.1250760458820588 -0.47945153731618434
15 -0.14622536258186047 0.2881443660327951 0.12752146715464194
14 0.36409356041104335 -0.21030332620113837 0.08923397938620246
12 -0.3198185286166372 -0.07320888323973461 -0.24190038247352383
1 0.14800086844206026 0.06779450105311816 -0.12425775713999716
71 0.03389820344535546 0.047262442971895934 0.20494938369350546
13 0.18395218151523587 0.08563075564659178 -0.03031293393535161
70 0.5014502525104778 -0.14842484274341572 0.13179293348086063
69 -0.3884597748734768 -0.2021774902628447 0.23988552497773413
4 -0.2158175883163245 0.06309852095883611 0.3961787947730768
2 -0.08322773799383308 -0.027002268419919238 1.0112173043765122
5 -0.0666494505169939 0.17334941871269574 -0.0738600806040826
81 0.4831665289011744 0.12371221903753411 -0.019382729373697925
89 -0.17298085324894055 -0.009618871583223483 -0.13025457633102297
114 0.15650126526839508 -0.4528200654276334 -0.41995194325052315
99 -0.260171994063397 0.22988888456728987 -0.1686361180109683
144 -0.0863555372355444 -0.3010708465470925 0.21120850418919215
145 0.3820754539363925 -0.2691971462648691 0.2843669780670927
146 -0.2154344647424668 -0.19959498404845863 0.008995722317670388
132 0.15625427113958643 0.06860581274189406 0.08908341030846961
133 0.0543100514469827 0.14299535826140167 -0.2724845253373408
134 0.05498961552680373 0.12310718684608643 -0.09383029219369099
75 0.10463563245538143 0.14261203068563516 -0.3041975536509551
18 0.2515872518028145 0.37900442987406824 -0.26372902987530694
20 -0.05410877134756792 -0.1654499272896458 -0.2936024101003197
102 0.10282539379485697 -0.26621928991115973 -0.012116474821956942
76 -0.023790173237194005 -0.2996222104495633 0.06206196783309922
147 0.3501995147344737 0.09418756408424912 0.11243898359000187
16 -0.2339370733441353 -0.09395087157315855 0.3830740244370983
77 -0.24752519045215446 0.13043655775381552 0.1843852159178834
19 -0.011927903848419907 0.17951729659730464 -0.1845951716109247
17 0.09845402127422921 0.10418509891252059 -0.17346655075557377
109 0.40244744430941154 -0.06030188523341149 -0.6734727203195929
110 -0.1084911953920485 -0.14547225143220888 -0.0035669525841991664
21 0.2811027687430274 -0.25620909153471244 -0.08641035255183319
41 0.036352259907436124 -0.054327642324769596 -0.20949634199112918
43 -0.04706899043170106 -0.04227040835534738 -0.20106772510626408
45 -0.4234816485960582 -0.11024289902010863 -0.3161180403930814
42 -0.09828976442400911 0.29331811244492734 -0.3514327780924095
44 0.10589987791105732 0.27064750911739965 -0.21130641940792325
136 0.056738444051394867 0.1032676317918326 -0.03368766734207237
137 0.15717616479864163 0.1397753403521111 0.595508745967518
135 -0.12035531026226172 -0.19880984046796799 -0.10186092912300426
161 -0.009046453471595082 -0.26774251012317674 0.09575056271546352
64 0.05336050136848399 -0.13658879040223973 -0.11703187928558734
160 -0.04304139052634493 -0.2980014745577556 0.05537382442227854
159 -0.01184977305646317 0.03721043349292445 0.34897698271062744
63 -0.241053221050981 0.0738321758282111 -0.3789069273564329
65 0.29329335630214476 -0.31675635410814995 0.21246927133595017
126 -0.04364142877689993 0.29518177473596097 -0.11557408173023287
25 0.49770858489447306 0.2929206746249873 -0.07772572688506807
22 0.4652511931757124 -0.617435614093698 0.19908788695652382
23 -0.052462527226659374 0.2797095359354743 -0.053096399685077844
84 -0.031296686544193195 0.016020695886928248 0.7491426587798907

Bonds

1 1 26 27
2 1 26 28
3 1 26 29
4 1 26 30
5 1 105 106
6 1 105 107
7 1 156 157
8 1 156 158
9 1 31 32
10 1 31 33
11 1 31 34
12 1 31 35
13 1 54 55
14 1 54 56
15 1 57 58
16 1 57 59
17 1 129 130
18 1 129 131
19 1 120 121
20 1 120 122
21 1 90 91
22 1 90 92
23 1 141 142
24 1 141 143
25 1 60 61
26 1 60 62
27 1 46 47
28 1 46 48
29 1 46 49
30 1 46 50
31 1 108 109
32 1 108 110
33 1 153 154
34 1 153 155
35 1 93 94
36 1 93 95
37 1 66 67
38 1 66 68
39 1 123 124
40 1 123 125
41 1 78 79
42 1 78 80
43 1 51 52
44 1 51 53
45 1 150 151
46 1 150 152
47 1 96 97
48 1 96 98
49 1 138 139
50 1 138 140
51 1 36 37
52 1 36 38
53 1 36 39
54 1 36 40
55 1 6 7
56 1 6 8
57 1 6 9
58 1 6 10
59 1 72 73
60 1 72 74
61 1 111 112
62 1 111 113
63 1 117 118
64 1 117 119
65 1 11 12
66 1 11 13
67 1 11 14
68 1 11 15
69 1 87 88
70 1 87 89
71 1 1 2
72 1 1 3
73 1 1 4
74 1 1 5
75 1 69 70
76 1 69 71
77 1 81 82
78 1 81 83
79 1 114 115
80 1 114 116
81 1 99 100
82 1 99 101
83 1 144 145
84 1 144 146
85 1 132 133
86 1 132 134
87 1 75 76
88 1 75 77
89 1 102 103
90 1 102 104
91 1 147 148
92 1 147 149
93 1 16 17
94 1 16 18
95 1 16 19
96 1 16 20
97 1 21 22
98 1 21 23
99 1 21 24
100 1 21 25
101 1 41 42
102 1 41 43
103 1 41 44
104 1 41 45
105 1 135 136
106 1 135 137
107 1 159 160
108 1 159 161
109 1 63 64
110 1 63 65
111 1 126 127
112 1 126 128
113 1 84 85
114 1 84 86
