LAMMPS data file via write_data, version 29 Aug 2024, timestep = 200000, units = lj

1673 atoms
4 atom types
1182 bonds
1 bond types
0 angles
2 angle types

-5.665158 5.665158 xlo xhi
-5.665158 5.665158 ylo yhi
-5.665158 5.665158 zlo zhi
0 0 0 xy xz yz

Masses

1 1
2 1
3 1
4 1

Bond Coeffs # harmonic/omp

1 100 0.5

Angle Coeffs # harmonic/omp

1 100 180
2 100 109.471

Atoms # full

759 187 2 0 -4.168760703357886 -5.001316430412542 -3.836118691568834 1 0 1
546 116 2 0 -5.277748335948034 -4.984741655621183 -3.8111130757241414 1 0 0
1203 335 2 0 -2.0340348481241057 -5.597299325981184 -4.702898729748241 2 0 0
299 60 3 0 -0.9671933997360078 -4.026557344779441 -3.8468115623155557 1 0 0
298 60 3 0 -0.9644155627003546 -4.01848333367053 -3.8640911873732895 1 0 0
297 60 3 0 -0.9626216640713219 -4.009128722117284 -3.86382890125835 1 0 0
300 60 3 0 -0.9559053759008016 -4.033009174031029 -3.836450269971367 1 0 0
1410 404 2 0 -1.0831649767804352 -4.56220797619826 -4.5066034655962826 3 1 0
1411 404 4 0 -0.835052711700282 -4.219222555909644 -4.160853115806269 3 1 0
1412 404 4 0 -0.778922050832989 -4.231979588661893 -4.161822083324117 3 1 0
1172 324 4 0 -0.6261117150098929 -4.204781891163405 -3.8184215576220812 1 0 0
1171 324 4 0 -0.6322330763833053 -4.171656053112293 -3.818498300805384 1 0 0
1196 332 4 0 -0.612232941210876 -3.926733321734874 -4.058983662895563 1 0 0
1195 332 4 0 -0.6379888142076187 -3.9167585418292905 -4.060806837983015 1 0 0
571 124 4 0 -5.623981231839412 -2.89300734113636 -5.522675767690766 1 0 0
572 124 4 0 -5.64361912154769 -2.865551079382478 -5.497537517827074 1 0 0
668 156 4 0 -1.0317782487866731 -5.640308306447282 -0.9451091056782577 0 0 0
1328 376 4 0 -2.155008138638207 -2.010362190138868 -5.226485483936355 2 0 1
1327 376 4 0 -2.1361702849779425 -2.030815564258658 -5.236688028472151 2 0 1
1326 376 2 0 -2.378977652023537 -2.4000865418171005 -4.972324563045518 2 0 1
1194 332 2 0 -0.2938368506796465 -3.802040970368214 -4.353010802796179 1 0 0
1101 301 2 0 -0.4826885576321853 -2.7758675760477014 -5.07362821259675 1 0 0
636 146 2 0 -4.440539408007205 -0.5551557511411946 -4.4807823360871115 2 0 0
637 146 4 0 -4.448559781698602 -0.30254109997714274 -4.065652888348228 2 0 0
638 146 4 0 -4.4505515047253965 -0.2634164384334916 -4.0909791221185445 2 0 0
628 143 4 0 -4.061727245099009 -0.24296819898226563 -4.035304966456091 2 0 0
629 143 4 0 -4.06253934849798 -0.20111426224522422 -4.038649156402311 2 0 0
830 210 4 0 -2.563296891438392 -0.20773333268474836 -3.8643639206481994 2 0 0
829 210 4 0 -2.574526635953706 -0.2240027154226194 -3.8731532366584744 2 0 0
266 54 1 0 -2.5125122088933876 -1.3757967822816148 -5.382148515222529 2 0 0
889 230 4 0 -2.425176858306485 -0.5493662553587946 -3.7584616910499724 2 0 0
890 230 4 0 -2.4463235333209257 -0.5486058271823291 -3.7797096119075393 2 0 0
888 230 2 0 -2.4063055135303446 -1.0121441506967974 -3.904894649235959 2 0 0
1433 411 4 0 -2.216492450218794 -0.22574596287862292 -3.802568343041342 3 0 0
1432 411 4 0 -2.2237226753682044 -0.22858092128944474 -3.803667898010802 3 0 0
269 54 3 0 -2.134002976665303 -1.6970943251299753 -5.463337844264747 2 0 0
267 54 3 0 -2.1214773979451924 -1.6988138857388977 -5.478593691102659 2 0 0
270 54 3 0 -2.1246501681065135 -1.6846334317934732 -5.43047288623213 2 0 0
268 54 3 0 -2.1408017129330683 -1.6863326391466336 -5.436128914354546 2 0 0
332 67 3 0 -2.05461617804308 -1.7859453516404336 -5.526104901802243 2 0 1
333 67 3 0 -2.059041348271593 -1.7564555084182443 -5.520698520949777 2 0 1
334 67 3 0 -2.062053676352907 -1.7801503057665689 -5.529793262331421 2 0 1
335 67 3 0 -2.0567746328863468 -1.7854272931713737 -5.532031521030529 2 0 1
828 210 2 0 -2.827209177836493 -0.12462494922083156 -4.314262044721867 2 0 0
1216 339 4 0 -1.8391612419123748 -1.7825913205146624 -5.208161364901945 2 0 0
1215 339 2 0 -1.447348969200367 -1.671692068416152 -4.897249999945958 2 0 0
1242 348 2 0 -1.2462772377942253 -1.0743775673526645 -4.091025306385571 2 0 0
1217 339 4 0 -1.0139679114170104 -1.319469033386171 -4.858634249016464 2 0 0
1244 348 4 0 -0.9852035800958703 -1.049917966842286 -4.552569421178224 2 0 0
1243 348 4 0 -0.9653394539056084 -1.0725191173153261 -4.534901770035396 2 0 0
1125 309 2 0 -1.1414887704580776 -0.5793689273413936 -5.097839670375572 2 0 0
1094 298 4 0 -0.7151497522097827 -1.2375290041768512 -5.112950403818244 2 0 0
1127 309 4 0 -0.8837517681477909 -0.9651293973402302 -4.903339374413923 2 0 0
1126 309 4 0 -0.8820889506049676 -0.9731031181493739 -4.9117660109910135 2 0 0
1435 412 4 0 -0.6720028335252186 -1.1928158409468512 -4.719597366570089 2 0 0
1436 412 4 0 -0.6630592067084384 -1.2042100068743338 -4.7282590504207755 2 0 0
1093 298 4 0 -0.7076493069376326 -1.2568045228277915 -5.098215636819771 2 0 0
1434 412 2 0 -0.4045775497276347 -1.6166291978716565 -4.530103648838328 2 0 0
1388 396 4 0 -0.6812598381737152 -0.8198264143668919 -4.626307639470386 2 0 0
1480 427 4 0 -0.5106946013391651 -0.9318553479941336 -4.9737498403096785 2 0 0
1481 427 4 0 -0.5073229932615808 -0.9473341295795734 -4.96699914047407 2 0 0
1386 396 2 0 -0.41588183452027394 -0.4789143010494312 -4.262028390385456 2 0 0
1387 396 4 0 -0.13632090210519898 -0.14074177253460274 -4.012781305143923 2 0 0
1479 427 2 0 -0.05531175075376371 -0.7763781470445963 -5.169082411473968 2 0 0
1092 298 2 0 -0.7100326320726369 -1.4887521324176163 -5.578129440165715 2 0 0
1431 411 2 0 -1.7668011471072047 -0.04532857407649615 -3.9933282220214172 3 0 0
23 5 3 0 -5.051064104975753 -5.09777882900408 -3.116949542870498 1 0 0
25 5 3 0 -5.034105503185119 -5.07739212480034 -3.0992104715833064 1 0 0
22 5 3 0 -5.027969765141335 -5.104316737356665 -3.0962642853570355 1 0 0
547 116 4 0 -4.915742676962509 -5.018752341462795 -3.4589094359280614 1 0 0
548 116 4 0 -4.921494070462775 -5.039954539255107 -3.4621852077248634 1 0 0
1235 345 4 0 -4.733459639839327 -5.2920763453102495 -3.2558619539310367 1 0 0
1234 345 4 0 -4.740412507332575 -5.296134349114213 -3.267316138797755 1 0 0
1144 315 4 0 -4.684634337343723 -4.939994884120425 -3.1638300430103308 1 0 0
1145 315 4 0 -4.68802246442903 -4.940045997969449 -3.1651525623422 1 0 0
761 187 4 0 -4.544760089543704 -5.089350027794188 -3.519708157441853 1 0 1
760 187 4 0 -4.532351494040627 -5.080270762052433 -3.5004530524267614 1 0 1
1143 315 2 0 -4.5806016241803444 -4.552222002497448 -2.81495911893969 1 0 0
21 5 1 0 -5.375505374684617 -5.250569303591922 -2.7784288748686388 1 0 0
296 60 1 0 -1.3612113157135077 -3.9103531495896426 -3.6678187656637693 1 0 0
1148 316 4 0 -0.6770452001999789 -3.799118453314362 -3.746741411633323 1 0 0
1147 316 4 0 -0.656098692548599 -3.8493647641257214 -3.6373492029228776 1 0 0
1404 402 2 0 -0.9817134194353105 -4.196366758677952 -2.5485940886582403 3 1 0
1170 324 2 0 -0.41473626852060175 -4.550273456516776 -3.5043475656017464 1 0 0
648 150 2 0 -5.066026997833663 -3.750812829483688 -3.644108686097011 1 0 1
1084 295 4 0 -5.230993710581814 -2.8457567757838613 -3.025617211806148 2 0 0
41 9 1 0 -5.3435023212718615 -3.5703277454268023 -2.6238469273079743 1 0 0
1083 295 2 0 -4.975068110985751 -2.5091078281440145 -2.6988872036388645 2 0 0
727 176 4 0 -4.964522557495908 -2.977241067229145 -3.293440444063978 1 0 1
649 150 4 0 -5.08286392244709 -3.350948080608277 -3.327903896077893 1 0 1
650 150 4 0 -5.073076903332224 -3.349865352827094 -3.329818211703355 1 0 1
1085 295 4 0 -4.790406234979978 -2.9624482198103816 -2.9423313321240006 2 0 0
728 176 4 0 -4.9511772700799055 -2.9754477682152722 -3.293945506000872 1 0 1
616 139 4 0 -4.7593230461646625 -3.3183263780457812 -3.1012695130734196 1 0 0
615 139 2 0 -4.281541769933572 -3.327402936269808 -2.9218828234223246 1 0 0
726 176 2 0 -4.788061600352172 -2.723982672955605 -3.697274755307139 1 0 1
45 9 3 0 -5.095976405276005 -3.1935401855663206 -2.9862660195919615 1 0 0
42 9 3 0 -5.106788046643167 -3.1972621344079752 -2.9967308688631284 1 0 0
44 9 3 0 -5.107194347606377 -3.2168847637074927 -2.996864889885894 1 0 0
43 9 3 0 -5.107248114969345 -3.1994120677791456 -2.985573554982468 1 0 0
1183 328 4 0 -5.344637699181678 -3.0573333981635615 -3.247577246971021 2 0 0
1184 328 4 0 -5.3429692047550965 -3.0891029874721103 -3.298419986851548 2 0 0
617 139 4 0 -3.7897743723239623 -3.155705031848084 -2.7972834380652976 1 0 0
508 103 4 0 -3.5385220463804 -2.762164710851051 -2.369325964834084 1 0 0
509 103 4 0 -3.4654755128018904 -2.720437701737126 -2.3902050733651343 1 0 0
514 105 4 0 -3.606384428103949 -2.8122039414371507 -2.748775473728194 1 0 0
515 105 4 0 -3.606637842489899 -2.8205534641835825 -2.751614195815914 1 0 0
539 113 4 0 -3.388093250034328 -3.223671812107919 -2.857443204604771 1 0 0
575 125 4 0 -3.2155283592733137 -2.9219366646658593 -2.5949359698929344 1 0 0
538 113 4 0 -3.3888269956361863 -3.159267914417985 -2.872807753694455 1 0 0
35 7 3 0 -3.541319674302724 -3.0970116095128954 -2.502243929461034 1 0 0
33 7 3 0 -3.526818659424501 -3.1042100521793348 -2.5075976094095975 1 0 0
574 125 4 0 -3.2027147150152118 -2.9178215210830465 -2.576977087188433 1 0 0
32 7 3 0 -3.5265760207460315 -3.104185713247859 -2.5040956079998113 1 0 0
34 7 3 0 -3.52250297970773 -3.1055600449447303 -2.5124158286641443 1 0 0
31 7 1 0 -3.4926885680069133 -3.537852730336353 -2.1980435946915695 1 0 0
537 113 2 0 -3.1670017766874032 -3.4418158552082043 -3.2139581200764815 1 0 0
573 125 2 0 -2.7599509318757427 -2.7558104608894802 -2.457605899666275 1 0 0
513 105 2 0 -3.6126279033547593 -2.440409291515368 -3.0652038021359584 1 0 0
507 103 2 0 -3.6788048946713703 -2.4848223096276616 -2.0171308412956135 1 0 0
1406 402 4 0 -1.1264322619321954 -3.7076569313258387 -2.5582932121288433 3 1 0
1405 402 4 0 -1.1295979254603754 -3.707117069733837 -2.5633608103720755 3 1 0
1132 311 4 0 -1.451438453137487 -3.4965786359949846 -2.5923550141954337 1 0 0
1133 311 4 0 -1.44872854578474 -3.5024654537727393 -2.607146337403364 1 0 0
1131 311 2 0 -1.866774274200302 -3.3183956735167714 -2.8008288936212202 1 0 0
1146 316 2 0 -0.49353897639833644 -3.4988499069848946 -3.2870553427822964 1 0 0
1643 481 4 0 -1.1644536155743097 -3.38548926989603 -2.3423667111350963 3 1 0
1642 481 4 0 -1.1567769862515282 -3.372139495406128 -2.385838461779383 3 1 0
1641 481 2 0 -0.7986964387384301 -3.1442747696965347 -2.1404128879784414 3 1 0
141 29 1 0 -4.370590503955623 -0.36635630610430425 -2.037838029385803 2 0 0
645 149 2 0 -5.602640302108637 -1.6497940535368487 -3.4735487976281827 1 0 0
145 29 3 0 -4.018919780443253 -0.004788929426323918 -2.070776943083464 2 0 0
144 29 3 0 -4.022525529403348 -0.012327435906025919 -2.0886902023814677 2 0 0
881 227 4 0 -3.685135822032046 -0.13804079772398303 -1.9617771823394774 2 0 0
822 208 2 0 -3.7380928182107045 -1.1321350881813403 -2.6428376110983605 2 0 0
863 221 4 0 -2.6906772475655147 -0.33824611765648527 -3.5597414865136714 2 0 0
862 221 4 0 -2.6770961907405764 -0.3606087741639392 -3.5512014233165705 2 0 0
861 221 2 0 -3.1379622388603408 -0.49436881989628656 -3.3387176256998 2 0 0
928 243 4 0 -3.171511195095836 -1.116307835728918 -2.0380573932491957 2 0 0
929 243 4 0 -3.1602399735899405 -1.0978550230954163 -2.0355078185113875 2 0 0
927 243 2 0 -2.707997318096576 -1.2537222816898792 -2.1969189668311553 2 0 0
824 208 4 0 -3.4782781410200414 -1.0652272167031427 -2.248883270616067 2 0 0
880 227 4 0 -3.4257566134645727 -0.8439892458766698 -1.9231443876502379 2 0 0
823 208 4 0 -3.4699126235100843 -1.0673798740892853 -2.2521663408239343 2 0 0
1186 329 4 0 -2.469975418288167 -0.03261264035247269 -3.5709101225527973 3 0 0
1187 329 4 0 -2.48394720781652 -0.016646832560283542 -3.570234150719052 3 0 0
884 228 4 0 -2.32318646800602 -0.33593077837941276 -3.4824661729134445 2 0 0
883 228 4 0 -2.3359019961177556 -0.3488392167424097 -3.487639973138834 2 0 0
882 228 2 0 -2.072894955687962 -0.43586065894006953 -3.019111329441982 2 0 0
894 232 2 0 -1.2635005470549974 -0.13840409276103838 -2.0359366924389177 2 0 0
612 138 2 0 -5.457328466143775 -4.8731710079569694 -1.7746313362467538 1 0 0
271 55 1 0 -5.2748706792914355 -4.208060446893299 -0.35928929086766903 1 0 0
275 55 3 0 -5.1288451686034175 -3.7160901787200924 -0.3436079062638733 1 0 0
274 55 3 0 -5.0996997352599704 -3.7358171523606796 -0.32978829611768123 1 0 0
272 55 3 0 -5.143766957521858 -3.7122216539844053 -0.3126613925822834 1 0 0
273 55 3 0 -5.098527641859621 -3.735924713467745 -0.3406291437604372 1 0 0
1113 305 2 0 -4.178926253524737 -4.031585701994481 -1.3702454602005343 1 0 0
1167 323 2 0 -4.132252272919744 -4.800707528721098 -0.5207836480531585 1 0 0
1115 305 4 0 -3.848004983772105 -4.263315611067969 -1.043767158573658 1 0 0
1114 305 4 0 -3.8375512977550077 -4.243460622673945 -1.0588054130612097 1 0 0
1169 323 4 0 -3.7868281915681834 -4.544237857842746 -0.7887882558652723 1 0 0
1168 323 4 0 -3.7842958618633826 -4.544085729679853 -0.7967588780005324 1 0 0
667 156 4 0 -0.9998169149074583 -5.6396719506908655 -0.8778851516066695 0 0 0
142 29 3 0 -4.011412981338774 -0.013709011641183544 -2.0896623435816286 2 0 0
1466 422 4 0 -3.5196336171389992 -4.4897488822215585 -1.0809098467571259 1 0 0
1465 422 4 0 -3.547014098486864 -4.505712478351287 -1.0885580059762612 1 0 0
1108 303 4 0 -3.5543192930810146 -4.246368965211161 -0.7906136589616253 1 0 0
1109 303 4 0 -3.5458467642777025 -4.2354628607889415 -0.8099173979765482 1 0 0
1400 400 4 0 -3.4139412751095506 -4.612758024309332 -0.7302999800885352 1 0 0
1399 400 4 0 -3.413599764848516 -4.581277047282349 -0.7116288552225862 1 0 0
1398 400 2 0 -3.064734090124475 -4.807634275347799 -0.39694249537743875 1 0 0
1464 422 2 0 -3.258725984273482 -4.634470715330076 -1.480122728268353 1 0 0
1107 303 2 0 -3.4849262450536314 -3.8246503348038177 -0.513293425767408 1 0 0
286 58 1 0 -1.3236523758816903 -5.012090054526274 -1.2377966455293201 1 0 0
289 58 3 0 -0.9391383155298856 -5.321934563986403 -1.1449678216767571 1 0 0
287 58 3 0 -0.9680597321830788 -5.345403966909967 -1.1562836934742329 1 0 0
290 58 3 0 -0.9664318151123652 -5.333499085441518 -1.158533874524088 1 0 0
288 58 3 0 -0.9499847617329875 -5.343294676572939 -1.1449408639581122 1 0 0
1222 341 4 0 -0.7235565872150174 -5.412479565550791 -0.8625852122563504 1 0 0
1223 341 4 0 -0.6996292971257381 -5.376139613634677 -0.8721526274020714 1 0 0
1221 341 2 0 -0.4327871937852148 -5.166549236531069 -0.5339804883058461 1 0 0
622 141 4 0 -0.725559428413141 -5.660064598861412 -1.1791035970839712 0 0 0
567 123 2 0 -0.9627950267961847 -1.4666314390546322 -0.8736657199794218 1 0 0
732 178 2 0 -5.631389439597587 -2.230713749232875 -1.1297150264160027 2 0 0
558 120 2 0 -4.887990660447141 -3.1227334989288145 -0.5673358309574494 1 0 0
559 120 4 0 -4.95637513181708 -3.3879272131164844 -0.1765009977067491 1 0 0
560 120 4 0 -4.86922001454923 -3.437217849610229 -0.21388291783656666 1 0 0
522 108 2 0 -2.0626571489711996 -2.719463508661584 -0.4161140349142771 1 0 0
523 108 4 0 -1.9796299904327217 -3.16129028184632 -0.1938687973010813 1 0 0
609 137 2 0 -1.718933855666466 -2.1524737849208564 -1.4016718762048779 1 0 0
594 132 2 0 -1.2744095241094762 -3.100634996561158 -0.9715152464825207 1 0 0
1119 307 2 0 -0.2701335307782866 -3.130162201248816 -0.24307124541177405 1 0 0
543 115 2 0 -0.6151370123625597 -2.387546426595594 -1.2538020365823899 1 0 0
544 115 4 0 -1.1173683738604865 -2.285607714777496 -0.9919492887218064 1 0 0
545 115 4 0 -1.0639240365885039 -2.2836305569524136 -0.9821751971662778 1 0 0
311 63 1 0 -1.041144170024583 -2.3063610277630167 -0.23059924491590067 1 0 0
569 123 4 0 -1.225526735511039 -1.9299577752593526 -0.8004857353127326 1 0 0
568 123 4 0 -1.2196624940467133 -1.9746165167419587 -0.8451741595720508 1 0 0
524 108 4 0 -1.6115605471520702 -2.4416686626292528 -0.6873940983194213 1 0 0
611 137 4 0 -1.4773302937642274 -2.24446926344181 -0.9556747419442715 1 0 0
610 137 4 0 -1.4726214120310122 -2.250252630331992 -0.9414490045947304 1 0 0
1219 340 4 0 -1.5608524034944944 -2.026619200815355 -0.6460318797189863 1 0 0
1220 340 4 0 -1.5303658060399226 -2.0420733491754786 -0.6689816786444451 1 0 0
315 63 3 0 -1.2423705721756946 -2.307461386552959 -0.6714945953195786 1 0 0
314 63 3 0 -1.2426563581621295 -2.309737704016795 -0.668907867104723 1 0 0
313 63 3 0 -1.246913699597897 -2.3094557719843296 -0.6679631870429352 1 0 0
596 132 4 0 -1.3302614092404612 -2.5934080811649003 -0.9284902799248753 1 0 0
595 132 4 0 -1.3109750832331297 -2.576634729686824 -0.9503792404646427 1 0 0
36 8 1 0 -3.686522132211623 -1.3953231948384985 -1.461964563830989 2 0 0
975 259 2 0 -3.130137617961958 -0.14747224342391618 -0.0427577054562196 2 0 0
1218 340 2 0 -1.9111516917798825 -1.6829979623528613 -0.4656657920672469 1 0 0
39 8 3 0 -3.5178808600525535 -1.233110289443517 -1.8973248401477072 2 0 0
37 8 3 0 -3.5194535601344255 -1.2149606412704452 -1.892065179931134 2 0 0
40 8 3 0 -3.4850904348150196 -1.220955413840664 -1.875426816731117 2 0 0
879 227 2 0 -3.280625022873613 -0.3873563232266646 -1.7691599276200165 2 0 0
38 8 3 0 -3.4962702827586654 -1.2168929320362576 -1.8769109429294581 2 0 0
1509 437 2 0 -2.8940506232348913 -5.664559781660899 -5.3610105296110975 4 1 0
377 76 3 0 -3.930679559011087 -0.0030270078551488666 -2.236221103444368 2 0 0
143 29 3 0 -4.024053709462944 -0.004147172615217798 -2.116526584599019 2 0 0
1349 383 4 0 -0.1206349624896701 -0.4790213738677238 4.016397342285861 2 0 0
1097 299 4 0 -5.353592689902622 -5.267790766267762 1.6332776270166374 1 0 0
1096 299 4 0 -5.391639809401507 -5.238384108003133 1.6224963384477888 1 0 0
1161 321 2 0 -4.016867259079808 -4.864493821366918 0.899801093517052 1 0 0
1257 353 2 0 -4.155805820503968 -3.698542880236514 1.6178464166073923 2 0 0
1095 299 2 0 -5.345735587631209 -4.855491920654833 1.3432961202299678 1 0 0
1163 321 4 0 -3.7324609944094664 -4.994037182781899 1.2729081940257831 1 0 0
1181 327 4 0 -3.6293612449768995 -5.263387037303316 1.5423179585663584 1 0 0
1180 327 4 0 -3.6072611892085473 -5.279709560454316 1.5341344981744367 1 0 0
1210 337 4 0 -3.5413893388474618 -4.890849205201462 1.5703346404571032 1 0 0
1162 321 4 0 -3.7313636525854896 -5.009053714105517 1.270030353394306 1 0 0
1209 337 2 0 -3.2605724421077973 -4.467603144384404 1.6057999831438217 1 0 0
1246 349 4 0 -3.3508655928702114 -5.091284575214475 1.3016938911832536 1 0 0
1247 349 4 0 -3.3483448356354826 -5.095910376302277 1.3309161275238743 1 0 0
1245 349 2 0 -3.011707684337326 -5.430914828541195 1.1238262535715755 1 0 0
1212 338 2 0 -2.185675212132879 -4.402575099773779 1.6413913543243064 1 0 0
1213 338 4 0 -1.857037109652075 -4.556560934542196 1.2879060941699523 1 0 0
1089 297 2 0 -1.8014287521187908 -5.059895542549428 0.6818762548570536 1 0 0
1106 302 4 0 -1.4640199056318943 -4.5527238268817065 1.2818318300996738 1 0 0
1105 302 4 0 -1.4637929772690788 -4.564818238575674 1.318856920756776 1 0 0
1091 297 4 0 -1.6660373288885877 -4.860054000946538 1.1373742752080194 1 0 0
1090 297 4 0 -1.6537191060421375 -4.834092916376198 1.1006488229034384 1 0 0
1104 302 2 0 -1.1666006232896793 -4.233739547997574 1.0428160166712113 1 0 0
720 174 2 0 -0.6297477315192817 -5.489490425164639 1.5549691660099922 0 0 0
630 144 2 0 -4.695147288517171 -3.6985020971978146 0.47455461762552353 1 0 0
1355 385 4 0 -4.023801910391222 -2.8968141222712385 1.811273589996806 2 0 0
1354 385 4 0 -4.081116078416807 -2.885178275749522 1.8019488094463405 2 0 0
1317 373 2 0 -4.948377583611195 -1.8926269752238318 1.1502117295230798 2 0 0
1353 385 2 0 -3.828663157396578 -2.5102641760698425 1.5322492437375619 2 0 0
1259 353 4 0 -4.14636911762643 -3.2461998289576126 1.8073250298323584 2 0 0
82 17 3 0 -4.379057806666594 -2.985742393387294 1.9390805749941977 1 0 0
84 17 3 0 -4.373299144128984 -2.990149680773082 1.9490160445946216 1 0 0
1258 353 4 0 -4.117226290227985 -3.282375801670735 1.8739676530825475 2 0 0
1191 331 2 0 -2.479406671777348 -3.521228813188494 0.23526732279342255 1 0 0
1193 331 4 0 -2.1807329667022723 -3.115796880021448 0.1499692158383743 1 0 0
1192 331 4 0 -2.0104202101328057 -3.4837579687646607 0.06705752233506423 1 0 0
1236 346 2 0 -1.269413153613189 -3.278847319529402 0.22154873504387584 1 0 0
1238 346 4 0 -1.7786599761618183 -3.172531252500653 0.13274959153910082 1 0 0
1237 346 4 0 -0.8879695452017575 -2.9277358996210006 0.20770107524007742 1 0 0
312 63 3 0 -0.7655191923658169 -2.5477245556529615 0.14097976350635122 1 0 0
1228 343 4 0 -0.6409899346064796 -2.7570783810856025 0.4793685451369356 1 0 0
1229 343 4 0 -0.6384132239029157 -2.7388013685503854 0.46499519047658566 1 0 0
1227 343 2 0 -0.4983220434036628 -2.7970524789552083 0.9379767851598215 1 0 0
1121 307 4 0 -0.5086828952892226 -2.8680951717860017 0.119217048771179 1 0 0
1120 307 4 0 -0.5193748992115363 -2.828792149157848 0.1134855418528522 1 0 0
1157 319 4 0 -0.39916139517284055 -2.5123349095901375 0.2655251209330354 1 0 0
1155 319 2 0 -0.07200471469674241 -2.109399373396121 0.1772229268483434 1 0 0
1319 373 4 0 -5.443302982127343 -1.8596497603224975 1.1678380825217411 2 0 0
1318 373 4 0 -5.436039939670408 -1.8245563577439472 1.148494861873762 2 0 0
101 21 1 0 -3.918019099577796 -0.1990730910492955 1.4914490463114705 2 0 0
1348 383 4 0 -0.10080169094614444 -0.46043503951418163 4.000801751863845 2 0 0
102 21 3 0 -4.054403881624539 -0.5668615122714593 1.8677500808900858 2 0 0
67 14 3 0 -4.083416964666776 -0.6949878588838043 1.891697007741021 2 0 0
69 14 3 0 -4.074368674633121 -0.6669757953756381 1.8905574287087266 2 0 0
103 21 3 0 -4.040648129363582 -0.5248351887770326 1.8681804658575984 2 0 0
105 21 3 0 -4.06000280605214 -0.5628555896181844 1.8793289481585909 2 0 0
104 21 3 0 -4.0420051578706175 -0.5184469628020842 1.8584755716950925 2 0 0
705 169 2 0 -3.069442586539866 -1.3479594461760813 1.0220937688763225 2 0 0
707 169 4 0 -2.636299913291495 -1.1642177236788864 1.2908388142233571 2 0 0
706 169 4 0 -2.6497999742640386 -1.1788372919286907 1.3272034451693697 2 0 0
698 166 4 0 -2.652860815641349 -0.9618762693484078 1.5976501085105896 2 0 0
998 266 4 0 -2.446109775978092 -1.250702987959829 1.6051421970820128 2 0 0
997 266 4 0 -2.4749919369898303 -1.2377476204257194 1.624340449692923 2 0 0
685 162 4 0 -2.2929873857755445 -1.3346447316251346 1.2911546661646591 2 0 0
684 162 2 0 -2.1921297541057174 -1.8794908681202496 1.0570389580900699 2 0 0
111 23 1 0 -2.5682725812077534 -0.46118108986213624 1.285026459105933 2 0 0
114 23 3 0 -2.339887220965561 -0.9424743142496146 1.4079876753817988 2 0 0
113 23 3 0 -2.3367450079226524 -0.9499709810300301 1.4063495078887565 2 0 0
120 24 3 0 -2.304478632366575 -0.9573034545586339 1.415660513295986 2 0 0
119 24 3 0 -2.3147253103911654 -0.9619100391522846 1.4195716551775952 2 0 0
118 24 3 0 -2.3015976924731554 -0.9613429417211146 1.4111873993363782 2 0 0
117 24 3 0 -2.3045863374814903 -0.9529211732971072 1.4143280837827126 2 0 0
112 23 3 0 -2.3205451998820936 -0.9325460203526195 1.4034934100120617 2 0 0
115 23 3 0 -2.3406783339388983 -0.9418667726130989 1.4054159297412214 2 0 0
742 181 4 0 -2.364896220880028 -1.0591487397228097 1.0288752153468472 2 0 0
743 181 4 0 -2.350948479411389 -1.025182515795759 1.0233633366056445 2 0 0
686 162 4 0 -2.3144034609605346 -1.32648813932542 1.268414076513995 2 0 0
989 263 4 0 -2.316439105212211 -0.9117241947147621 1.7870113455538004 2 0 0
988 263 4 0 -2.315088014571909 -0.9638672682963039 1.772674476105438 2 0 0
741 181 2 0 -2.2498810564623124 -1.007226625850862 0.4861328829139273 2 0 0
116 24 1 0 -1.7697327378703016 -1.060655265999162 1.4325221349864883 2 0 0
1116 306 2 0 -0.4192956989149472 -0.9536003564942295 0.9085644146617948 2 0 0
1153 318 4 0 -0.21968703187974725 -0.16748741946575763 0.7857933658842464 2 0 0
1154 318 4 0 -0.21282941577600756 -0.1613831340418308 0.7661341385024425 2 0 0
1117 306 4 0 -0.16370340488036206 -0.5276155400671181 0.8378439816355412 2 0 0
1118 306 4 0 -0.11057688976798197 -0.5469121465177418 0.8649812051230894 2 0 0
1232 344 4 0 -5.295065325919926 -5.152416768634223 1.990671635073074 1 0 0
1375 392 4 0 -0.09601791299677576 -0.6021494471003308 4.364596314755742 2 0 0
1230 344 2 0 -5.581624000551768 -5.383732535066556 2.330905364701043 1 0 0
346 70 1 0 -4.532781317242146 -4.732427329644699 2.9783991589972274 1 0 0
491 99 1 0 -5.311692585717938 -5.135691961731173 3.745593835356999 4 1 0
349 70 3 0 -4.056916964384565 -4.666780589757563 3.171734920927678 1 0 0
350 70 3 0 -4.061017179835795 -4.669524182566628 3.2051081214727244 1 0 0
348 70 3 0 -4.077786762162311 -4.6721895259625805 3.2274108896618205 1 0 0
347 70 3 0 -4.075490297431704 -4.6709542476520705 3.1869812691954795 1 0 0
1366 389 4 0 -3.908934781168136 -4.4023304670855214 3.410902998741511 1 0 0
1367 389 4 0 -3.8804364444421235 -4.424383836015403 3.417239810458616 1 0 0
1365 389 2 0 -3.999249563939653 -3.985700282215187 3.621712265602211 1 0 0
1211 337 4 0 -2.9976686513363253 -4.289982428540358 2.0101445300723517 1 0 0
1214 338 4 0 -2.6294689413595753 -4.373239231378355 1.940314596111829 1 0 0
1179 327 2 0 -3.775007239964445 -5.5018301106668 1.9682225062374359 1 0 0
1274 358 4 0 -3.7876373994398747 -4.456893227949273 3.083541706754815 1 0 0
1291 364 4 0 -3.719437988496716 -4.731881371181305 3.3221937142459144 1 0 0
1292 364 4 0 -3.7197453393522872 -4.751962605342152 3.3340846737489986 1 0 0
1272 358 2 0 -3.553143463069447 -4.314847950181824 2.633381249179461 1 0 0
1273 358 4 0 -3.0734098481397036 -4.290287494239009 2.378407512626337 1 0 0
1290 364 2 0 -3.6797643595767004 -5.082986634559385 3.687749209441751 1 0 0
1265 355 4 0 -2.7244755153684252 -4.159106049068435 2.24992389301028 1 0 0
1264 355 4 0 -2.735954746488515 -4.15386605738014 2.260270643785251 1 0 0
1268 356 4 0 -2.8251589675712068 -4.541815712510989 2.2400189751914548 1 0 0
1267 356 4 0 -2.808331140386107 -4.553424799583475 2.2123065680150686 1 0 0
1266 356 2 0 -2.707061261619393 -4.993420447170566 2.4572123053337656 1 0 0
721 174 4 0 -0.46980925872687873 -5.251579628530526 1.9787369249391284 0 0 0
722 174 4 0 -0.455555296475719 -5.2578891140249 1.9799208170422133 0 0 0
1343 381 4 0 -0.3252011286925889 -5.341657942924561 2.342065224076844 1 0 0
1342 381 4 0 -0.3249660189189143 -5.332423138669566 2.33206187771885 1 0 0
716 172 4 0 -0.6015755504351867 -5.079114607977635 2.2846196452384815 0 0 0
715 172 4 0 -0.5966088711175104 -5.05165358899763 2.290436209720623 0 0 0
674 158 4 0 -0.24254158283024108 -5.010977008837313 2.16338356974859 0 0 0
673 158 4 0 -0.22854493468583392 -4.998213757904236 2.1714182604586894 0 0 0
1279 360 4 0 -0.3342716072534442 -5.02488577383535 2.5573698570893253 1 0 0
1278 360 2 0 -0.25097707620588583 -4.811430067400039 3.021128598124225 1 0 0
714 172 2 0 -0.9799450046375009 -4.745891715593975 2.2490670307007194 0 0 0
83 17 3 0 -4.393314363089468 -3.0040190040097836 1.983127398147869 1 0 0
85 17 3 0 -4.390245663948632 -3.013181163254466 1.955554725606592 1 0 0
81 17 1 0 -4.889907091669732 -2.9504201482531256 2.0450923526055877 1 0 0
796 199 4 0 -4.0813956335312085 -3.0333527079483344 2.15417364978644 1 0 0
797 199 4 0 -4.070370216604438 -3.033675987301954 2.168909576292058 1 0 0
795 199 2 0 -3.8732113191772477 -3.1853141799707987 2.5701275265941668 1 0 0
316 64 1 0 -3.0085573818753333 -2.37813811498723 3.284960478522999 2 0 0
1263 355 2 0 -2.7212532897543142 -3.655968166606886 2.261339270569957 1 0 0
1548 450 2 0 -2.1230827050415324 -1.8983315726516525 3.0413149347304067 2 0 0
1309 370 4 0 -3.0935013013693324 -2.0309789215537553 3.7728133512157385 2 0 0
66 14 1 0 -4.279963725467266 -1.1348172276961126 1.9209177051439816 2 0 0
1338 380 2 0 -3.9052785359451536 -1.9279542899281794 3.440960123369461 2 0 0
757 186 4 0 -4.372856234691515 -0.520005834824655 2.10306380747062 2 0 0
758 186 4 0 -4.369685975402518 -0.47079148601508347 2.0888690666354 2 0 0
756 186 2 0 -4.799235606836815 -0.23494378312937503 2.2038947734216574 2 0 0
68 14 3 0 -4.072454096859917 -0.6682876492868486 1.8929942725941071 2 0 0
70 14 3 0 -4.082626383506682 -0.6636641676128647 1.8771256314588634 2 0 0
665 155 4 0 -4.024159724307404 -0.5646755046353569 2.2572475615146246 2 0 0
664 155 4 0 -4.005470961250258 -0.5258858885692748 2.254043116297659 2 0 0
663 155 2 0 -3.856166715446977 -0.36391629934577363 2.681226403025258 2 0 0
696 166 2 0 -3.2205711441863007 -0.8878849874082357 1.9595042513742165 2 0 0
1339 380 4 0 -3.3610309539742063 -1.8769568937945738 3.530921551430371 2 0 0
318 64 3 0 -2.985268801165458 -1.8847594825786365 3.4337242692618375 2 0 0
320 64 3 0 -2.992691226773998 -1.8633841957804385 3.4418927162134043 2 0 0
317 64 3 0 -2.991289781116258 -1.8784099719504144 3.442503014450862 2 0 0
319 64 3 0 -2.9816821041347956 -1.8661893252230142 3.4330860755833417 2 0 0
373 75 3 0 -2.9991363936215416 -1.8606708750301975 3.4277349128234658 2 0 0
1549 450 4 0 -2.6195714184097745 -1.9104775145877508 3.4038849508894717 2 0 0
697 166 4 0 -3.7133681958248888 -0.6507236985868889 2.027918191634198 2 0 0
1340 380 4 0 -3.342357157880257 -1.8276957885985459 3.5295996716073326 2 0 0
374 75 3 0 -2.983392300137724 -1.868205586795292 3.4339187062024195 2 0 0
372 75 3 0 -2.991027521651669 -1.8705866529961148 3.4374077323738828 2 0 0
375 75 3 0 -2.979446548422463 -1.8632409334716096 3.4446784646472306 2 0 0
371 75 1 0 -3.0740305906866148 -1.430919492441845 3.0783534908102563 2 0 0
1271 357 4 0 -2.7337612939078544 -1.5522870796195827 3.547801045122963 2 0 0
1270 357 4 0 -2.7828318726907346 -1.5577370668848927 3.5563154159350763 2 0 0
996 266 2 0 -2.458625957911712 -1.6306106603105714 2.0084075665977146 2 0 0
1550 450 4 0 -2.6294985803576028 -1.8304284901203633 3.3241317999194084 2 0 0
1269 357 2 0 -2.3663491132320047 -1.1360686768106225 3.7170978202277603 2 0 0
987 263 2 0 -2.2227100037940564 -0.6614935163070381 2.3106220259539576 2 0 0
1315 372 4 0 -3.0588327493330563 -1.6345172428009036 3.745269689547392 2 0 0
1316 372 4 0 -3.062096240290042 -1.6612714601778267 3.7503062970880574 2 0 0
109 22 3 0 -5.327128734116643 -3.9092370600525816 4.230190128077199 1 0 0
125 25 3 0 -5.283950351945248 -3.93788919440422 4.2858152169017565 1 0 0
121 25 1 0 -4.906718511830793 -4.3042894196790655 4.352648254126445 1 0 0