LAMMPS data file via write_data, version 29 Aug 2024, timestep = 200000, units = lj

8293 atoms
4 atom types
5862 bonds
1 bond types
0 angles
2 angle types

-9.68729 9.68729 xlo xhi
-9.68729 9.68729 ylo yhi
-9.68729 9.68729 zlo zhi
0 0 0 xy xz yz

Masses

1 1
2 1
3 1
4 1

Bond Coeffs # harmonic/omp

1 100 0.5

Angle Coeffs # harmonic/omp

1 100 180
2 100 109.471

Atoms # full

6956 1986 2 0 -8.78912466611245 -8.102441590070116 -8.387268478776809 3 1 0
3149 717 2 0 -8.950899524957874 -9.156844683306044 -8.406851854166861 1 0 0
3722 908 2 0 -9.12800999467674 -9.239099797072154 -9.664860997174516 1 0 1
3724 908 4 0 -9.055214000844044 -8.866958659997225 -9.319936261413684 1 0 1
3723 908 4 0 -9.040391217697211 -8.867585506753251 -9.3108288286255 1 0 1
6958 1986 4 0 -9.17379049549508 -8.484201731516503 -8.3216070630067 3 1 0
6957 1986 4 0 -9.180105763568672 -8.486764098160853 -8.337872713561618 3 1 0
3151 717 4 0 -8.499067997485975 -9.449502701516426 -8.423365593834 1 0 0
3789 930 4 0 -8.806838777076191 -8.559463606452718 -9.374420930238205 1 0 1
3150 717 4 0 -9.356177809792914 -8.83409967589535 -8.368468088984192 1 0 0
3790 930 4 0 -8.790774415424417 -8.626019661465174 -9.499182531724834 1 0 1
3788 930 2 0 -8.313264299767994 -8.522794931914992 -9.472896999581577 1 0 1
1488 298 3 0 -9.529469601784664 -8.547621005471926 -8.156680553907961 1 0 0
1489 298 3 0 -9.543754036019308 -8.536847711629573 -8.166493534062916 1 0 0
2173 435 3 0 -9.56198612979984 -8.52860714419905 -8.249473292762051 3 1 0
2175 435 3 0 -9.572529194124499 -8.52344909232487 -8.281494135202115 3 1 0
1490 298 3 0 -9.542356734738082 -8.552635286921562 -8.190230906306311 1 0 0
1487 298 3 0 -9.530645173569118 -8.545708599751315 -8.156017646762438 1 0 0
3564 855 4 0 -9.189836291420068 -8.520805522633404 -9.465963876474126 1 0 1
3565 855 4 0 -9.165718838659894 -8.546767070518072 -9.52783635334801 1 0 1
2172 435 3 0 -9.56037134190849 -8.53735768146792 -8.228399417787875 3 1 0
2174 435 3 0 -9.561791760053504 -8.536430668585536 -8.24281113759581 3 1 0
2817 606 4 0 -8.105187070754049 -9.484249211280945 -8.426362991593226 1 0 0
133 27 3 0 -8.302521210991017 -9.631114062810491 -8.13081953656096 1 0 0
2818 606 4 0 -8.125105690639057 -9.434759966627317 -8.407540691410173 1 0 0
2816 606 2 0 -7.798433230775706 -9.450861660331006 -8.802746712910771 1 0 0
6155 1719 2 0 -4.2727606163358995 -8.70164987254076 -9.306042250783968 1 0 1
6157 1719 4 0 -3.779032234915352 -8.599000000522496 -9.421750259838872 1 0 1
6156 1719 4 0 -3.7945239298601896 -8.611225253587218 -9.428137633119576 1 0 1
2958 653 4 0 -3.5635820508381375 -8.842231882346171 -9.632633021592401 0 0 0
2959 653 4 0 -3.5260012897135145 -8.816497367654428 -9.640446216446128 0 0 0
3727 909 4 0 -3.5107432299336887 -8.80572341381261 -9.232042946567072 0 0 1
3726 909 4 0 -3.498109953549566 -8.835840987187687 -9.253556049971495 0 0 1
3725 909 2 0 -3.2577054302844335 -8.817326584105698 -8.77625679450862 0 0 1
6301 1767 4 0 -3.399869601016759 -8.510912134647091 -9.449826318502222 1 0 1
3171 724 4 0 -8.524562602918719 -6.7340280570134565 -9.526844055392283 1 0 0
3170 724 2 0 -8.430310477829948 -6.94214867657838 -9.055422469267077 1 0 0
3172 724 4 0 -8.518825278743718 -6.739086525260341 -9.52507694768187 1 0 0
2612 538 2 0 -9.351907371176823 -6.832590770428997 -9.625986693266645 1 0 0
5513 1505 2 0 -5.297745556924308 -6.60832491840711 -9.121177327268827 1 0 0
5515 1505 4 0 -4.962418172443542 -6.930444983148399 -8.8905365548744 1 0 0
5514 1505 4 0 -4.976574496572749 -6.924414330019832 -8.908675827833772 1 0 0
5657 1553 2 0 -5.087442753324267 -7.610508242505992 -8.493899195329094 1 0 0
5659 1553 4 0 -4.951597101559928 -7.16136143159657 -8.606804789011155 1 0 0
5658 1553 4 0 -4.9486131057712415 -7.151006280471926 -8.593974944455557 1 0 0
6404 1802 2 0 -4.823625317268762 -6.556998403099323 -8.091124516049616 1 0 1
6406 1802 4 0 -4.840262902937352 -6.783185987147613 -8.567951605642966 1 0 1
6405 1802 4 0 -4.83412424271515 -6.802093293701159 -8.56254872429123 1 0 1
1547 310 3 0 -4.612331501294166 -7.030990117093042 -8.788128722263512 1 0 0
1548 310 3 0 -4.626202498302804 -7.033390939615895 -8.797893976802182 1 0 0
1550 310 3 0 -4.625033778493112 -7.054896281756281 -8.807460229631069 1 0 0
1549 310 3 0 -4.618674805874294 -7.028165098264529 -8.810980173733581 1 0 0
1546 310 1 0 -4.15089872410335 -7.107019282408185 -8.82717833309711 1 0 0
1796 360 1 0 -3.039730727033268 -7.175132196881426 -9.420426265049326 1 0 1
1561 313 1 0 -2.324112437693218 -7.9657608592854725 -9.59088243463539 1 0 1
1562 313 3 0 -2.7168402035702286 -7.645361126551885 -9.655946560381086 1 0 1
1563 313 3 0 -2.7127266114731023 -7.687190661005332 -9.660821222730315 1 0 1
1565 313 3 0 -2.7151170344042317 -7.655107914293233 -9.654599874245736 1 0 1
1564 313 3 0 -2.7196008652130033 -7.65069591254395 -9.656399314947802 1 0 1
1799 360 3 0 -2.7571563452467522 -7.585215639037178 -9.628181855580907 1 0 1
1798 360 3 0 -2.8016727692216055 -7.575723318918685 -9.618001539165181 1 0 1
1800 360 3 0 -2.778465464720661 -7.580670578032215 -9.625170716330294 1 0 1
1797 360 3 0 -2.808467969995718 -7.587452908316812 -9.629565805601624 1 0 1
266 54 1 0 -8.680526631872155 -5.968846702182139 -9.486428120564362 1 0 0
3770 924 2 0 -8.157684595072375 -5.142309445713943 -8.437340335763132 1 0 1
3772 924 4 0 -7.686901637685763 -4.9966663601428865 -8.146423644036316 1 0 1
3771 924 4 0 -7.669462956129347 -4.998812924905175 -8.197407720437363 1 0 1
461 93 1 0 -7.107139157909954 -5.183691986800316 -8.624891850326284 1 0 1
3645 882 4 0 -7.353807528923927 -5.25640554171 -8.07534747875732 1 0 1
3646 882 4 0 -7.393762418597232 -5.2354075224499095 -8.067285849323477 1 0 1
465 93 3 0 -7.311965922444196 -4.869421593004663 -8.20360897896033 1 0 1
442 89 3 0 -7.307730606374486 -4.8784150282497425 -8.199469347478233 1 0 1
462 93 3 0 -7.301935055021568 -4.888716759010972 -8.207501113709744 1 0 1
463 93 3 0 -7.30824373129248 -4.872762699451609 -8.215195660598049 1 0 1
464 93 3 0 -7.30147505789035 -4.887741670964537 -8.206251624691525 1 0 1
443 89 3 0 -7.336030624729977 -4.862142234130448 -8.21059580909415 1 0 1
445 89 3 0 -7.318366637772109 -4.855253878860643 -8.199846310768798 1 0 1
2915 639 2 0 -5.558147628652984 -5.098172340186973 -8.051658939537253 1 0 0
2860 620 4 0 -4.306342671490713 -5.295558786797919 -8.35246075170159 1 0 0
2859 620 4 0 -4.311119035642028 -5.288800920915996 -8.364106283974662 1 0 0
2858 620 2 0 -4.530553431926683 -5.612592809702291 -8.668808038741892 1 0 0
3355 785 4 0 -4.274371490024313 -4.886071396980451 -8.368110264006242 1 0 1
3354 785 4 0 -4.253366974622801 -4.88625679790831 -8.382807450251075 1 0 1
3958 986 4 0 -3.964619161596863 -5.113588698679516 -8.27033165487408 1 0 1
3957 986 4 0 -3.972229846765491 -5.10388472774087 -8.29796785088904 1 0 1
3956 986 2 0 -3.514285823607583 -5.339631515828078 -8.217283725497904 1 0 1
2510 504 2 0 -1.6403756742693059 -4.9650758888513815 -8.98941408139953 1 0 0
3131 711 2 0 -1.1946796901245484 -5.689815807012481 -8.358381709367563 1 0 0
3133 711 4 0 -0.9724485234812583 -5.225706967683566 -8.531621883552843 1 0 0
3132 711 4 0 -0.9635882186836575 -5.212924366261839 -8.538834051698771 1 0 0
2793 598 4 0 -0.5967449057264016 -5.092576082532669 -8.453634779462366 1 0 0
2794 598 4 0 -0.6207446332995215 -5.058136892673163 -8.312304860836385 1 0 0
2939 647 2 0 -0.5687073772476143 -5.1891011741701405 -9.215923341077957 1 0 0
2511 504 4 0 -1.1420305158288802 -4.910398496434025 -8.767207240876179 1 0 0
2512 504 4 0 -1.1518147355161084 -4.966736940302469 -8.767570081784108 1 0 0
2941 647 4 0 -0.7583264349348955 -4.969319258492233 -8.736387807904192 1 0 0
2940 647 4 0 -0.7604508133523886 -4.960454384093475 -8.736338070569778 1 0 0
2792 598 2 0 -0.2325277869249902 -5.3288780605051205 -8.104753744032065 1 0 0
444 89 3 0 -7.3268558223178335 -4.854338136725775 -8.182390832605138 1 0 1
3039 680 4 0 -6.966631560524808 -4.7194370421349525 -8.165392906863673 1 0 0
441 89 1 0 -7.512482317823169 -4.3594876552688735 -8.292492260797458 1 0 1
3038 680 2 0 -6.457262829227517 -4.415140740159042 -8.3770829641527 1 0 0
2916 639 4 0 -5.710524266749266 -4.652637253855786 -8.236025589477691 1 0 0
2917 639 4 0 -5.6809436166721134 -4.6571600922784535 -8.208303058472758 1 0 0
3040 680 4 0 -5.944608790509122 -4.393698171319981 -8.328739782634669 1 0 0
2668 556 4 0 -5.642477727081854 -4.5156010278290415 -8.569959311155266 1 0 0
2667 556 4 0 -5.654756933022796 -4.5008559124837335 -8.562108551999074 1 0 0
2666 556 2 0 -5.604055695007269 -4.373253129369479 -9.051912906256632 1 0 0
2626 542 4 0 -5.5581407070550615 -4.2971146583977875 -8.248598362091471 1 0 0
3495 832 4 0 -4.012101665904693 -4.790273849801577 -8.083698983466432 1 0 1
3496 832 4 0 -4.0371989904087275 -4.77736568762417 -8.06984131788406 1 0 1
3353 785 2 0 -4.369551003329464 -4.567997272048162 -8.788460691197079 1 0 1
2597 533 2 0 -2.9036738760873195 -3.794460439653794 -9.098116301631432 1 0 0
2599 533 4 0 -2.521139122665418 -3.527411767483942 -8.936466811122488 1 0 0
2598 533 4 0 -2.51482543887286 -3.5276031075386722 -8.919304987523988 1 0 0
3223 741 4 0 -2.2278135803873544 -3.365423809299033 -8.743306186718453 1 0 0
1281 257 1 0 -1.8697276348128513 -3.466690054904328 -9.35970871495 2 0 0
1283 257 3 0 -2.2357984071913863 -3.3060330201406636 -9.106259587217805 2 0 0
1282 257 3 0 -2.255551375002965 -3.2828113125095397 -9.10844857332556 2 0 0
1285 257 3 0 -2.2619723600944575 -3.3027689136333773 -9.118009984402164 2 0 0
1284 257 3 0 -2.2693119127515518 -3.254222643239027 -9.115332051355287 2 0 0
2771 591 2 0 -0.9545122464671589 -4.194130098930223 -9.071459962554899 1 0 0
253 51 3 0 -0.9190668544280349 -4.841467127774197 -8.433933285632534 1 0 0
254 51 3 0 -0.9191996350335891 -4.847543418512086 -8.435777011955045 1 0 0
252 51 3 0 -0.9214460504267308 -4.840639267036206 -8.42425097370346 1 0 0
255 51 3 0 -0.9167683100623769 -4.84365444313429 -8.42994465366044 1 0 0
2772 591 4 0 -0.8720073549694902 -4.6663403947934405 -8.791166599058764 1 0 0
2773 591 4 0 -0.9096780491505658 -4.650046439832218 -8.763514626800212 1 0 0
2851 617 4 0 -0.5584023455251117 -4.7242954932140195 -8.575517784132042 1 0 0
2850 617 4 0 -0.5527982236602966 -4.721457493737072 -8.569880264869997 1 0 0
2849 617 2 0 -0.1148571736621875 -4.42940816771032 -8.55972009771397 1 0 0
6146 1716 2 0 -8.661876681815658 -3.084183424473336 -9.396192961969307 2 0 0
6148 1716 4 0 -9.084673144552166 -2.9128481018277803 -9.502670623599695 2 0 0
6147 1716 4 0 -9.09424542296197 -2.9260083164906128 -9.53641911108632 2 0 0
1268 254 3 0 -9.152781802957161 -2.556990547405295 -9.668284100469766 2 0 0
1270 254 3 0 -9.103569239770007 -2.56794403498864 -9.66010665452933 2 0 0
4071 1024 4 0 -3.9508445627360365 -0.03239470413295642 -4.294226330874573 2 0 0
5536 1512 4 0 -9.237919167660268 -2.5783394758729195 -9.294042524058924 2 0 0
5535 1512 4 0 -9.26453994778143 -2.591807876671372 -9.299178800072026 2 0 0
5890 1630 4 0 -9.463652909413808 -2.7560603658815443 -9.616475012316027 2 0 0
5534 1512 2 0 -9.491410159246035 -2.5235280956302946 -8.880707302426172 2 0 0
3068 690 2 0 -7.748668039351537 -2.0447183851363704 -8.213441541279408 2 0 0
5599 1533 4 0 -4.911961795002816 -2.1025926235010566 -9.486111660592755 2 0 0
5598 1533 4 0 -4.922978542047559 -2.1178130894906744 -9.487298673999442 2 0 0
5597 1533 2 0 -4.980798949486991 -1.6134335500794883 -9.394446319333403 2 0 0
6011 1671 2 0 -4.5493677461232425 -2.6593151815077967 -9.025986077322688 2 0 0
6013 1671 4 0 -4.748634773481503 -2.4463480199163463 -9.44477341306892 2 0 0
6012 1671 4 0 -4.744130846346379 -2.4548798735400315 -9.45595734929435 2 0 0
5899 1633 4 0 -4.590623696654007 -2.1657243151569627 -9.673993545694541 2 0 0
5898 1633 4 0 -4.583847561997935 -2.141901535072326 -9.654142650214924 2 0 0
3221 741 2 0 -2.0366477947452495 -3.1979436148736315 -8.315116548648561 1 0 0
3016 672 4 0 -2.5531219385769566 -3.129581672522175 -8.902960551316715 1 0 0
3015 672 4 0 -2.54159784648707 -3.1485803777940102 -8.884932694136106 1 0 0
3014 672 2 0 -2.695477330036762 -2.697890342762978 -9.111353586844997 1 0 0
5582 1528 2 0 -0.26275730816142406 -2.183561775175635 -8.173629456465454 2 0 0
2522 508 2 0 -8.707416384165464 -1.4942512708708424 -8.164756022673927 2 0 0
4724 1242 2 0 -7.752283639124583 -0.6614632074909608 -8.458608093115545 2 0 1
4725 1242 4 0 -7.464033908680798 -0.2227388409729656 -8.507367113343825 2 0 1
4726 1242 4 0 -7.4649142988407995 -0.2206838821440158 -8.518016606027462 2 0 1
4588 1196 4 0 -7.131528645843923 -0.21007562069424424 -8.364024438451562 2 0 0
4587 1196 4 0 -7.138203589080975 -0.22507886561802337 -8.322196501429444 2 0 0
1059 212 3 0 -7.147964893817761 -0.24636850494806595 -8.714043815767882 2 0 1
1060 212 3 0 -7.136706859004985 -0.23468867618252176 -8.714515739366945 2 0 1
1057 212 3 0 -7.149196482552647 -0.24137584255470834 -8.727945717202305 2 0 1
1058 212 3 0 -7.127755224420859 -0.21121849487463962 -8.71620020677674 2 0 1
1056 212 1 0 -6.910653137956672 -0.4290643270611554 -9.14006486064973 2 0 1
4512 1171 4 0 -7.442573853690029 -0.016159730333443534 -8.835057439669072 2 0 0
1956 392 1 0 -4.27157720411279 -1.0458110582655138 -8.738436046913579 2 0 0
1959 392 3 0 -4.264512225938298 -1.044506596516186 -8.227212242310014 2 0 0
1957 392 3 0 -4.241861636226991 -1.0765847360971037 -8.20601482944604 2 0 0
1960 392 3 0 -4.230478480972216 -1.0606720751492151 -8.214569818736763 2 0 0
1958 392 3 0 -4.226533387063613 -1.068758747426946 -8.215834566011795 2 0 0
5954 1652 2 0 -2.7849948629242824 -0.8021458860790158 -9.14865404944234 2 0 0
5779 1593 4 0 -2.1965697025295823 -0.8393290217553648 -8.601547219016549 2 0 0
5778 1593 4 0 -2.184636085578595 -0.8015429492394528 -8.675925989722634 2 0 0
5956 1652 4 0 -2.5458371110525606 -0.9370816485503646 -8.74985137253542 2 0 0
5955 1652 4 0 -2.547454226715633 -0.9456095998300267 -8.751287398905363 2 0 0
5777 1593 2 0 -1.882819552006132 -0.45139826951333717 -8.473051590895103 2 0 0
6071 1691 2 0 -0.2670294526107053 -0.480032389459625 -8.641563694526683 2 0 0
4247 1083 2 0 -1.1756366785596288 -0.2389975888347653 -9.634464766791819 2 0 0
135 27 3 0 -8.328117060018815 -9.416880886742234 -8.086158104963033 1 0 0
134 27 3 0 -8.307400869450003 -9.596022820558087 -8.095323168639363 1 0 0
132 27 3 0 -8.288499772660767 -9.454617371653631 -8.07188793306057 1 0 0
1486 298 1 0 -9.472695318126659 -8.554143627590763 -7.648781173055552 1 0 0
131 27 1 0 -8.142019437633566 -9.516334081819872 -7.635102384902746 1 0 0
1531 307 1 0 -7.265723791174375 -8.141153841225728 -7.312475680395553 1 0 0
6129 1710 4 0 -6.706132525347863 -8.552079357777075 -7.554224306515684 1 0 0
6130 1710 4 0 -6.696297692325409 -8.611056711418382 -7.467408963232277 1 0 0
1534 307 3 0 -6.789179074896587 -8.246503973783373 -7.331611903439993 1 0 0
1532 307 3 0 -6.788511980985369 -8.287234993355288 -7.261085244216024 1 0 0
1533 307 3 0 -6.795326722892474 -8.254248884374976 -7.303137792647613 1 0 0
1535 307 3 0 -6.764737952893686 -8.250581362531255 -7.286163957856322 1 0 0
6128 1710 2 0 -6.447260649128374 -8.940950834892343 -7.749677678315185 1 0 0
6123 1708 4 0 -6.422997481334804 -8.405760611407786 -7.3078935852503255 1 0 0
1316 264 1 0 -5.14661059292989 -8.904617837731436 -7.1427742161217225 1 0 0
6122 1708 2 0 -6.116709756162788 -8.168759944263705 -6.9613208627655006 1 0 0
6031 1677 4 0 -4.539180449166964 -8.352050976934564 -7.098718514248947 1 0 0
6030 1677 4 0 -4.532074320781956 -8.355058960111613 -7.1094394365858085 1 0 0
5488 1496 4 0 -4.31220611823837 -8.681921529325589 -7.001855891736278 1 0 0
5487 1496 4 0 -4.314828425572414 -8.66603093390339 -6.9887165989263895 1 0 0
1317 264 3 0 -4.703870543734401 -8.69212106519835 -7.049007064935718 1 0 0
1320 264 3 0 -4.70636291997054 -8.688875119082033 -7.052814256136236 1 0 0
1319 264 3 0 -4.6841187858386215 -8.706996691088062 -7.057968958540332 1 0 0
1318 264 3 0 -4.681334125893308 -8.687376916558748 -7.08940289713512 1 0 0
5833 1611 4 0 -4.219383820257331 -8.338505725539651 -6.909644171777681 1 0 0
5541 1514 4 0 -4.549384427962302 -8.505881221794661 -6.76565409078951 1 0 0
5542 1514 4 0 -4.550674260791297 -8.515833057363343 -6.752268582171233 1 0 0
5486 1496 2 0 -4.067686914765035 -9.033460470512892 -7.202620242163484 1 0 0
1276 256 1 0 -0.78997496537594 -8.871874468673902 -7.315121607769534 1 0 0
1277 256 3 0 -0.6011170836725803 -9.210967065325873 -7.007738729256135 1 0 0
1280 256 3 0 -0.5862758653907196 -9.212396022158902 -7.010231915940656 1 0 0
1279 256 3 0 -0.6204053724850542 -9.151675668592649 -6.920762122275198 1 0 0
1278 256 3 0 -0.6443042829409436 -9.293147605180893 -7.045008926655575 1 0 0
7267 2089 4 0 -0.3432476745010522 -9.412016400198443 -6.777873526897099 3 1 0
7266 2089 4 0 -0.3390936136337519 -9.386717506741173 -6.752823207041672 3 1 0
7438 2146 4 0 -0.7112307922081555 -9.3892323379603 -6.677078637362483 3 1 0
7437 2146 4 0 -0.694416293739831 -9.415017873723759 -6.6563340491570795 3 1 0
5444 1482 2 0 -6.894013412396838 -6.7885703156456 -7.831532293691942 1 0 0
5445 1482 4 0 -6.648934852021123 -6.8499385932194015 -7.388231313256954 1 0 0
5446 1482 4 0 -6.606978246050214 -6.8526710304201774 -7.433346962283313 1 0 0
5886 1629 4 0 -6.227492551474258 -6.870217264905378 -7.454786171041944 1 0 0
5887 1629 4 0 -6.227929077553803 -6.847925981876485 -7.46174322925966 1 0 0
5859 1620 4 0 -6.374723266730145 -6.948952243891559 -7.111715490736686 1 0 0
1299 260 3 0 -6.381390830257069 -6.587377039720233 -7.217241708295336 1 0 0
6124 1708 4 0 -6.28295140768487 -7.951709956083392 -6.515308659583702 1 0 0
5885 1629 2 0 -5.800612056238318 -7.077637959123151 -7.530291718199421 1 0 0
1300 260 3 0 -6.3798526569721155 -6.586650344988306 -7.231918549212857 1 0 0
1297 260 3 0 -6.420250297313661 -6.5593818538779995 -7.2717888440941785 1 0 0
1298 260 3 0 -6.377867389104421 -6.596281777395369 -7.2332565420763935 1 0 0
5858 1620 2 0 -6.446357573087905 -7.154981475289255 -6.65971742264462 1 0 0
6029 1677 2 0 -4.657525506473349 -7.993544592372115 -7.427572184164134 1 0 0
5648 1550 2 0 -3.421472166977357 -7.225610516186288 -7.564297288128741 1 0 0
5649 1550 4 0 -3.5029662591277306 -7.285706342683662 -7.076571730528023 1 0 0
5650 1550 4 0 -3.5128922252218047 -7.301315009989711 -7.069546779856081 1 0 0
5832 1611 4 0 -3.5247159933656187 -7.600741294308048 -6.878164628908164 1 0 0
1322 265 3 0 -3.550960482646948 -7.301229259942 -6.714403624783853 1 0 0
1325 265 3 0 -3.5489971944113066 -7.282599770860422 -6.708682574901967 1 0 0
1324 265 3 0 -3.5495246418301623 -7.2753148964193 -6.73073675727686 1 0 0
1323 265 3 0 -3.54384253368048 -7.254219272511669 -6.736589097263085 1 0 0
5831 1611 2 0 -3.792503619884127 -8.05253201116151 -6.797636561034008 1 0 0
6003 1668 4 0 -3.214312860898346 -7.328880633404798 -6.866159820091274 1 0 0
6004 1668 4 0 -3.2157578773653155 -7.402736053571865 -6.855870941659547 1 0 0
6002 1668 2 0 -2.833087286053482 -7.584417717060125 -6.584570872352437 1 0 0
5810 1604 2 0 -1.1381754755314493 -1.486535962883325 -0.17299447967010728 2 0 0
3159 720 4 0 -0.23373640038417598 -7.124679547149595 -7.050595068860343 0 0 0
3160 720 4 0 -0.22502768505308346 -7.133110923254176 -7.033823878306839 0 0 0
3158 720 2 0 -0.7239951562059144 -7.066400119499505 -7.1130647180779505 0 0 0
3644 882 2 0 -7.512654583180044 -5.794022536409126 -7.915777698572475 1 0 1
3393 798 4 0 -7.093187557817102 -5.028328166102165 -7.929161113377867 1 0 1
3394 798 4 0 -7.086881074663815 -5.041425393714128 -7.918041104620745 1 0 1
3392 798 2 0 -6.620891760129174 -5.276168019966445 -7.724733911896329 1 0 1
2780 594 2 0 -7.841340507536511 -4.89563366324403 -7.46813377113667 1 0 0
2782 594 4 0 -7.452805547057752 -4.946297058687323 -7.851063983668909 1 0 0
2781 594 4 0 -7.473871860148504 -4.949534887334728 -7.867273517752854 1 0 0
1296 260 1 0 -6.315863058311941 -6.12848217616007 -7.060329674375355 1 0 0
3382 794 4 0 -4.28362440159148 -5.070765496582134 -8.057422672375624 1 0 1
3381 794 4 0 -4.2822744860698885 -5.059757915219409 -8.05661947041267 1 0 1
3380 794 2 0 -4.4323818303814475 -5.277031187616082 -7.638364285754514 1 0 1
2969 657 2 0 -3.5984299880279087 -5.630412762693465 -6.495785225311394 1 0 0
2876 626 2 0 -4.666700686743905 -4.92869354465361 -6.497289688224387 1 0 0
3074 692 2 0 -7.495301129294922 -3.328763444905573 -7.258218268956116 2 0 0
6804 1935 4 0 -7.189409863303439 -4.65506684100825 -7.892124035839968 2 0 1
6805 1935 4 0 -7.1859368720978 -4.649793399072995 -7.901577909506819 2 0 1
6803 1935 2 0 -6.935947432114146 -4.339861102950209 -7.459424270285698 2 0 1
2753 585 2 0 -5.711044456387988 -4.102171055881834 -7.097222821997811 1 0 0
114 23 3 0 -5.148877936943832 -3.527298288717544 -7.44172310036356 1 0 0
115 23 3 0 -5.1659549312483275 -3.5468764265348325 -7.442827643747876 1 0 0
112 23 3 0 -5.1567943522829305 -3.527413233280015 -7.452044146983994 1 0 0
113 23 3 0 -5.156798541429929 -3.528502901240792 -7.4137898754376215 1 0 0
2755 585 4 0 -5.3285828822730315 -3.859781199978231 -7.303919399332289 1 0 0
2754 585 4 0 -5.299580298205284 -3.8649999289900396 -7.307017393460173 1 0 0
2624 542 2 0 -5.165308479195565 -4.10257465361424 -8.01789438856585 1 0 0
2625 542 4 0 -5.049548636562847 -3.8655076476203707 -7.591497240464357 1 0 0
2787 596 4 0 -4.93871987570391 -3.760571155789731 -7.237642819851244 1 0 0
3271 757 4 0 -4.776650008121697 -3.567550106757472 -7.5312487234923085 1 0 1
3270 757 4 0 -4.795155761460437 -3.5918789132034803 -7.534086128541989 1 0 1
2786 596 2 0 -4.689195064634743 -3.845546929248166 -6.783238979895283 1 0 0
3494 832 2 0 -3.933738063483343 -4.350991088893316 -7.815486406569723 1 0 1
3269 757 2 0 -4.386501220748578 -3.3610557309431837 -7.753808949169073 1 0 1
3110 704 2 0 -3.7148970865654816 -4.484554519736755 -6.698693124139998 1 0 0
2788 596 4 0 -4.3850370964641625 -4.107449661138968 -6.498716359829226 1 0 0
251 51 1 0 -1.09227415684955 -4.623091028210086 -8.129003456394381 1 0 0
5843 1615 2 0 -1.0490844656574687 -3.2107461184018256 -7.7812717916862 2 0 0
231 47 1 0 -8.31300303713136 -2.5393992883766474 -7.42188340518208 2 0 0
235 47 3 0 -8.349528757925246 -2.088717977966171 -7.588342874775587 2 0 0
232 47 3 0 -8.355860219702302 -2.088016514026206 -7.6040164009946665 2 0 0
233 47 3 0 -8.33503321882567 -2.0764439593863404 -7.5758360013099155 2 0 0
2523 508 4 0 -8.429917321331613 -1.785409981822358 -7.852167762527004 2 0 0
3069 690 4 0 -8.07951217309027 -1.9287161758212772 -7.843634890504671 2 0 0
2524 508 4 0 -8.444602720445278 -1.7862566452968451 -7.850841181981282 2 0 0
3204 735 4 0 -8.59839443386445 -1.7897027371658325 -7.491169242869118 2 0 0
3109 703 4 0 -8.213069663875844 -1.7079458365718612 -7.545520958111386 2 0 0
3108 703 4 0 -8.208784573839676 -1.717298204958655 -7.540860922197573 2 0 0
3205 735 4 0 -9.401672150511935 -1.765951187023905 -7.040212768283883 2 0 0
3203 735 2 0 -8.95130660436031 -1.7234408737820246 -7.121902625095279 2 0 0
2620 540 4 0 -9.500152664478566 -1.919792068052458 -7.35554940372231 2 0 0
2619 540 4 0 -9.519898556190206 -1.9311932279762134 -7.375607940798678 2 0 0
3070 690 4 0 -8.07402898165993 -1.8819904008357087 -7.825280559697216 2 0 0
234 47 3 0 -7.920642912163267 -2.556901022279492 -7.089546639454561 2 0 0
2842 614 4 0 -7.98287488402466 -2.82337000503256 -6.806565802494417 2 0 0
2841 614 4 0 -7.981827036375169 -2.8334596487747676 -6.823332649307683 2 0 0
3076 692 4 0 -7.783118425333077 -2.9477822371049776 -7.156016335169611 2 0 0
3075 692 4 0 -7.802057073343947 -2.9237178218686104 -7.169128574507354 2 0 0
4288 1096 4 0 -7.607465373031524 -2.6766557225103504 -6.930014968402791 2 0 0
4286 1096 2 0 -7.260465807666824 -2.3381063792851595 -6.795307744177565 2 0 0
4287 1096 4 0 -6.734388897879732 -2.1920413794719975 -6.828702780531625 2 0 0
4080 1027 4 0 -6.5337022486461365 -1.8893466695938974 -6.894103671292259 2 0 0
4081 1027 4 0 -6.565817026381094 -1.9101380206582643 -6.885559025102205 2 0 0
3097 699 4 0 -6.479675977514583 -1.99937486347417 -6.561236853837407 2 0 0
3096 699 4 0 -6.482921337692932 -2.0275922070386834 -6.565656346888601 2 0 0
4074 1025 4 0 -6.440525955394573 -2.1613177063938327 -7.116340681259427 2 0 0
4075 1025 4 0 -6.4495774910423 -2.168468637608072 -7.112245525923415 2 0 0
4656 1219 4 0 -6.39259172128156 -2.2900264086863586 -6.776047470355677 2 0 0
4657 1219 4 0 -6.387433651995563 -2.2915871122590685 -6.7718667927931095 2 0 0
4073 1025 2 0 -6.4602333692213625 -2.270596975246349 -7.5971010195584645 2 0 0
4077 1026 4 0 -6.199946805660725 -2.0016497593819684 -6.855465286605753 2 0 0
4078 1026 4 0 -6.1944400562687605 -1.9994869324370788 -6.842756434614595 2 0 0
4655 1219 2 0 -6.296560704630888 -2.7784755193480475 -6.624675497628376 2 0 0
111 23 1 0 -5.381336801200024 -3.0945859168776595 -7.321437831723393 1 0 0
4076 1026 2 0 -5.711088081117358 -1.8686229710427575 -6.808804044467207 2 0 0
5780 1594 2 0 -4.418653124657376 -1.6916609222597376 -7.7881943122730695 2 0 0
5651 1551 2 0 -4.6981590201963295 -1.6922203388585126 -6.563885031396703 2 0 0
1301 261 1 0 -3.150268189272051 -1.8766229576346083 -6.604406511139773 2 0 0
3222 741 4 0 -1.8402889735659587 -2.881515548055501 -7.92456210139901 1 0 0
5603 1535 2 0 -1.9395444095553858 -3.1436607789395907 -7.198185680040023 2 0 0
3215 739 2 0 -2.4631672637676294 -2.3626724460169948 -7.709197341330198 1 0 0
3217 739 4 0 -1.996434970255982 -2.581001966465781 -7.778041390691791 1 0 0
3216 739 4 0 -1.9982120797748228 -2.5525939863798097 -7.743221656445647 1 0 0
1335 267 3 0 -1.606590653872729 -2.606562681817553 -7.812224586887276 2 0 0
1333 267 3 0 -1.6208811872973694 -2.606392104438018 -7.812980141664634 2 0 0
5604 1535 4 0 -1.7881184025255195 -2.8286025724588573 -7.5578662091207285 2 0 0
5605 1535 4 0 -1.7941348771712944 -2.83384818921159 -7.569573353582954 2 0 0
5845 1615 4 0 -1.504410508521067 -2.9868192581611916 -7.788767714366109 2 0 0
5844 1615 4 0 -1.5146036979695463 -3.0012796708484055 -7.782093279927709 2 0 0
1331 267 1 0 -1.3347395734950567 -2.17573707018256 -7.8167424561343 2 0 0
5584 1528 4 0 -0.5113221987458374 -2.1135439499391664 -7.766992048528201 2 0 0
1334 267 3 0 -0.8937524983385998 -2.1385400535332586 -7.637813949778312 2 0 0
1332 267 3 0 -0.8778027650100082 -2.2080551936899706 -7.6604944355529465 2 0 0
5718 1573 4 0 -0.6030329966441332 -2.1045573687377157 -7.372555549988447 2 0 0
5717 1573 2 0 -0.6563703181338933 -2.3159443630183167 -6.925898927849458 2 0 0
5583 1528 4 0 -0.5075986932287382 -2.1105631108786884 -7.7415128843335195 2 0 0
5719 1573 4 0 -0.6216436514676627 -2.0654617450440638 -7.359802893349428 2 0 0
3017 673 2 0 -8.617058172645672 -0.25263739763507687 -7.6760319935867996 2 0 0
237 48 3 0 -9.590320850780381 -1.5427174511107964 -7.302648023032277 2 0 0
239 48 3 0 -9.560706216262222 -1.5288040184382474 -7.285431946095691 2 0 0
238 48 3 0 -9.610421660625006 -1.5590352830576144 -7.319036719493629 2 0 0
240 48 3 0 -9.607045423674197 -1.5516244531229084 -7.3172183400540325 2 0 0
3107 703 2 0 -7.885015026777114 -1.396335856075698 -7.316191336885245 2 0 0
4079 1027 2 0 -6.694067080049242 -1.4156479460807319 -6.98359351581008 2 0 0
4586 1196 2 0 -6.742020468327878 -0.39640546267140486 -8.064497412528203 2 0 0
5711 1571 2 0 -4.9357210982119515 -0.7086676601550828 -7.906040501248586 2 0 0
5713 1571 4 0 -4.4577151503672034 -0.867963112326894 -7.990661635472013 2 0 0
5712 1571 4 0 -4.483214525504305 -0.8719105282437738 -8.009154954252095 2 0 0
5781 1594 4 0 -4.335934758953609 -1.1923127804386482 -7.875112483983257 2 0 0
5782 1594 4 0 -4.311050520100775 -1.1624069920008289 -7.855904536200592 2 0 0
5862 1621 4 0 -4.088217512637736 -0.8950182984261499 -7.921773896776105 2 0 0
5863 1621 4 0 -4.089092922386772 -0.8931434800704636 -7.924018409048527 2 0 0
5861 1621 2 0 -3.7983123142134927 -0.7460410556696875 -7.526795868401561 2 0 0
7019 2007 2 0 -1.6148444653863674 -0.2804616791104433 -6.892530949340404 2 0 0
7020 2007 4 0 -1.251469261426486 -0.6138240233814898 -6.690220786139945 2 0 0
7021 2007 4 0 -1.2683428375404908 -0.6006321599715072 -6.6685902037894795 2 0 0
1365 273 3 0 -1.1471744756647677 -0.9195065901976793 -6.518783526918463 2 0 0
1362 273 3 0 -1.1221529900613572 -0.9117268655283031 -6.527617120495943 2 0 0
2060 412 3 0 -1.0980843528953947 -0.9265693171775311 -6.527644965655461 2 0 0
2057 412 3 0 -1.0902026158786242 -0.9114597092145953 -6.531575658813248 2 0 0
6051 1684 4 0 -0.9131095940947667 -0.6827602530777312 -6.780241427825407 2 0 0
6050 1684 2 0 -0.6260592646985348 -0.6041357063809816 -7.19811298624942 2 0 0
6052 1684 4 0 -0.9259510463658991 -0.7270624456909438 -6.774614938793173 2 0 0
5465 1489 2 0 -8.987703454640902 -8.509692291710996 -5.52351657621206 1 0 0
5467 1489 4 0 -9.415768035934422 -8.229673670668557 -5.550024859491397 1 0 0
5466 1489 4 0 -9.401037557068115 -8.233683712616736 -5.543923375761483 1 0 0
19 4 3 0 -5.418821257307327 -1.5278424808145843 -1.4343532155857428 2 0 0
1478 296 3 0 -9.495064840447432 -9.405313452162128 -6.153808896344481 1 0 0
1479 296 3 0 -9.631644305306311 -9.64048920670545 -6.308019750199648 1 0 0
5606 1536 2 0 -6.891888369517859 -8.209430296039935 -6.20702824024198 1 0 0
5939 1647 2 0 -7.476065104784276 -8.317805557730846 -4.975499726097869 1 0 0
1426 286 1 0 -5.831888870856396 -8.096145833136424 -5.918046198456393 1 0 0
4383 1128 4 0 -4.220931158904164 -9.684170580057186 -5.393736334558373 3 1 0
7867 2289 4 0 -9.661149006522402 -3.121128166950541 -0.6891852835976255 2 0 0
4382 1128 2 0 -4.5798998640824875 -9.448329936381754 -5.1126817080173454 3 1 0
3986 996 2 0 -3.936233307709509 -9.525467671465153 -6.093956335325371 3 1 0
5540 1514 2 0 -4.611744761032923 -8.545865128692736 -6.2616370128923124 1 0 0
226 46 1 0 -3.103328371696813 -9.087827579726211 -5.240385201615356 0 0 0
7436 2146 2 0 -0.6708244238432624 -9.340615842063073 -6.185272617522452 3 1 0
1383 277 3 0 -9.47647351300635 -8.054364239472774 -5.221990898753919 1 0 0
1384 277 3 0 -9.498612184745593 -8.074095886964843 -5.222084062207634 1 0 0