LAMMPS data file via write_data, version 29 Aug 2024, timestep = 900000, units = lj

8293 atoms
4 atom types
5862 bonds
1 bond types
0 angles
2 angle types

-9.68729 9.68729 xlo xhi
-9.68729 9.68729 ylo yhi
-9.68729 9.68729 zlo zhi

Masses

1 1
2 1
3 1
4 1

Bond Coeffs # harmonic/omp

1 100 0.5

Angle Coeffs # harmonic/omp

1 100 180
2 100 109.471

Atoms # full

2688 563 4 0 -8.637483313610273 -8.319752735830074 -8.598970080583769 0 0 0
2689 563 4 0 -8.636072966239709 -8.316871681667093 -8.58491744287138 0 0 0
2622 541 4 0 -8.976762722438053 -8.340568299797292 -8.408150277655249 0 0 0
2742 581 4 0 -8.850924507995044 -8.646237834288916 -8.647485831964579 0 0 0
2743 581 4 0 -8.871385781129126 -8.621934272173315 -8.648717263321542 0 0 0
2741 581 2 0 -8.853030004585833 -8.917606872087202 -9.090461957715467 0 0 0
2520 507 4 0 -8.693698151519676 -8.592104790157856 -8.311109240016446 0 0 0
2621 541 2 0 -9.406967040431713 -8.164240920626757 -8.566990613259762 0 0 0
2885 629 2 0 -6.99417473905267 -8.598927927543835 -8.99004110944812 0 0 0
2887 629 4 0 -7.028546365762482 -8.103876083563264 -9.000345876050643 0 0 0
2886 629 4 0 -6.905356869182627 -8.097577727642996 -9.051561436526763 0 0 0
2867 623 2 0 -5.3866003741802775 -9.206591953495373 -9.650635755372578 0 0 0
2543 515 2 0 -4.533271605669229 -8.574578938424665 -9.342213635819713 0 0 0
3034 678 4 0 -2.809198884101703 -9.50051087853966 -8.409722788915445 0 0 0
3050 684 2 0 -2.817206032691069 -9.630646502102062 -9.240538760007817 0 0 0
3032 678 2 0 -2.7842297578771986 -8.979002061626883 -8.366698344425869 0 0 0
3033 678 4 0 -2.815512097228994 -8.555003799311933 -8.143038044207897 0 0 0
3256 752 4 0 -2.8348954476927313 -8.189764166203872 -8.271583786359008 0 0 0
3255 752 4 0 -2.8204471456355673 -8.18843967169111 -8.247862622199488 0 0 0
3818 940 2 0 -1.6737859414473288 -9.465747744740598 -9.48105034997492 0 0 1
556 112 1 0 -9.667933913098105 -2.227038308505615 -1.1970702109577318 0 0 0
3820 940 4 0 -1.4239779659276712 -9.002152765226105 -9.492267529930315 0 0 1
3819 940 4 0 -1.415824657194165 -9.006114872846197 -9.557315078627994 0 0 1
3 1 3 0 -1.1274381104269873 -8.797183333334841 -9.3548723782415 0 0 0
2 1 3 0 -1.1317654214721453 -8.791367763825482 -9.38141453598065 0 0 0
5 1 3 0 -1.0738815557397923 -8.850107437261636 -9.413038501729934 0 0 0
4 1 3 0 -1.078526786475364 -8.840537410888862 -9.402759026488228 0 0 0
1 1 1 0 -0.7315172293461294 -8.542995106635933 -9.186706420078174 0 0 0
2687 563 2 0 -8.24706333832504 -8.039010945195608 -8.715590980266947 0 0 0
3065 689 2 0 -9.170477319345641 -7.123432201851064 -9.217511981638996 0 0 0
2623 541 4 0 -9.585371715933643 -7.763502897747606 -8.848779744504371 0 0 0
3067 689 4 0 -9.514885428656111 -7.426742672456964 -9.03282034996926 0 0 0
2634 545 4 0 -9.603264705625612 -7.75679608057385 -9.236940161697953 0 0 0
2635 545 4 0 -9.605531468443298 -7.753356466871603 -9.236770301010818 0 0 0
416 84 1 0 -0.31692503059955623 -1.2745478200677611 -0.19289004070101515 0 0 0
3066 689 4 0 -8.86848562118655 -6.7014053103781075 -9.26010285730479 0 0 0
2633 545 2 0 -9.511103849353596 -8.057928891336587 -9.650624065723989 0 0 0
2903 635 2 0 -8.08704834140485 -6.675222854016267 -9.415216305376067 0 0 0
2905 635 4 0 -8.560680624062545 -6.522454435324732 -9.341363977821285 0 0 0
2904 635 4 0 -8.572075599457563 -6.538172509730618 -9.357547320400126 0 0 0
2713 571 4 0 -7.000362537561901 -7.694149788063831 -9.043973896963795 0 0 0
2712 571 4 0 -7.003045234624375 -7.710297465865102 -9.03971474491541 0 0 0
3123 708 4 0 -7.093539690548679 -7.9197623695099075 -9.35413123535719 0 0 0
3124 708 4 0 -7.024942591967119 -7.904015690643655 -9.36425683563313 0 0 0
2711 571 2 0 -6.7281320899493755 -7.389909553257144 -8.754240888712642 0 0 0
3638 880 2 0 -3.4966376009558813 -7.519083136027604 -9.484010411380462 0 0 1
3254 752 2 0 -2.8436257123142585 -7.885055381305759 -8.683266008148754 0 0 0
266 54 1 0 -2.8640104607744763 -6.622546590250823 -9.355221438531277 0 0 0
5868 1623 4 0 -8.813042763716798 -6.384931573849303 -9.08746038544948 1 0 0
1292 259 3 0 -8.861379706964891 -6.340272302610306 -9.455014759349611 1 0 0
1293 259 3 0 -8.896841217875833 -6.377873419197895 -9.460349262881133 1 0 0
1295 259 3 0 -8.895516230089273 -6.36764163010017 -9.46240534948299 1 0 0
1294 259 3 0 -8.88768655132044 -6.384101843006941 -9.499319300157419 1 0 0
5867 1623 2 0 -8.859411517828363 -6.094857343151947 -8.646876034336058 1 0 0
5869 1623 4 0 -8.82692084726384 -5.669836569539466 -8.288145688732373 1 0 0
2775 592 4 0 -8.711864827512601 -5.323807089100727 -8.313069995935669 0 0 0
2776 592 4 0 -8.703606646265882 -5.326571937530986 -8.313833147857963 0 0 0
2774 592 2 0 -8.474563407026666 -4.9467968937154625 -8.51136407875042 0 0 0
1409 282 3 0 -9.093954654490384 -5.386624087726227 -8.351532734441554 1 0 0
1410 282 3 0 -9.092731321478844 -5.388270751750061 -8.328006084500217 1 0 0
1407 282 3 0 -9.103678313265808 -5.381722843548921 -8.32950684381914 1 0 0
1408 282 3 0 -9.08277606840573 -5.402364913133517 -8.35391314162683 1 0 0
1406 282 1 0 -9.512686897077561 -5.233600508535698 -8.518082636705564 1 0 0
2780 594 2 0 -6.722078948456432 -5.8638118737238285 -9.190985355919826 0 0 0
6804 1935 4 0 -6.569085471868629 -5.073844939153572 -8.955395057305518 1 0 1
6803 1935 2 0 -6.83115262078579 -5.169582475575157 -8.44785309441158 1 0 1
6805 1935 4 0 -6.573186513929516 -5.073270699935726 -8.950379324683542 1 0 1
3772 924 4 0 -6.44358947099228 -5.20946715063226 -9.587073970210172 0 0 1
2781 594 4 0 -6.486985943576058 -5.341961958067625 -9.201494675582646 0 0 0
2782 594 4 0 -6.496660759038957 -5.333838374977383 -9.204450737083437 0 0 0
3771 924 4 0 -6.49450508500085 -5.22874342498809 -9.594582927646403 0 0 1
445 89 3 0 -6.3961690163127605 -5.013493495009032 -9.300149901107856 0 0 1
444 89 3 0 -6.40517296091557 -4.989783341057599 -9.293809686492253 0 0 1
442 89 3 0 -6.4018139820172895 -4.987246673446925 -9.297128485043876 0 0 1
3644 882 2 0 -5.741474901683459 -5.682681251000701 -9.525322101113405 0 0 1
3392 798 2 0 -5.796035169753545 -5.127798725694985 -8.601255693628113 0 0 1
3394 798 4 0 -6.19777475689237 -5.144190798872368 -9.003397401874295 0 0 1
3393 798 4 0 -6.195317828224596 -5.153256490450335 -9.057043193636854 0 0 1
462 93 3 0 -6.391594264776573 -4.995174686468119 -9.290127062874449 0 0 1
443 89 3 0 -6.42533237728718 -4.981965988211105 -9.30856487849386 0 0 1
464 93 3 0 -6.390896179449007 -4.993074041546604 -9.308934297523743 0 0 1
465 93 3 0 -6.391205149122464 -5.006227042836065 -9.29529118401335 0 0 1
463 93 3 0 -6.396810001873766 -4.994750475269923 -9.311417176584877 0 0 1
3645 882 4 0 -6.056702182788891 -5.204721669616137 -9.378924621685595 0 0 1
3646 882 4 0 -6.143415982207359 -5.306611890279496 -9.345598158990084 0 0 1
3496 832 4 0 -4.112177702176764 -5.1135469023417075 -8.670263138154933 0 0 1
3494 832 2 0 -4.194285943493225 -5.280255678965388 -8.206792552864 0 0 1
3380 794 2 0 -3.8538612473224165 -5.59392218540009 -9.144116771279002 0 0 1
3495 832 4 0 -4.118315432987822 -5.123677228452874 -8.688629927792523 0 0 1
3382 794 4 0 -3.928587287952457 -5.120764843958388 -9.027166903437932 0 0 1
3381 794 4 0 -3.926192857600634 -5.105686382815938 -9.01629192169949 0 0 1
3355 785 4 0 -4.254530706330799 -4.948046053497068 -8.994585154315264 0 0 1
3354 785 4 0 -4.261910208013678 -4.948344988131328 -8.989124215950442 0 0 1
3790 930 4 0 -0.8311259428333047 -5.631099204044193 -8.428496903987543 0 0 1
3564 855 4 0 -0.8963952674353854 -5.40388496626448 -8.7274604363924 0 0 1
3565 855 4 0 -0.9075767706144658 -5.38228000235585 -8.7366533050896 0 0 1
3789 930 4 0 -0.8590971650860387 -5.622766761130547 -8.420355189177897 0 0 1
3563 855 2 0 -0.8165192914625065 -5.163727685457108 -9.169816573859125 0 0 1
3723 908 4 0 -0.6891815623848183 -5.254924732912853 -8.44694598531301 0 0 1
3724 908 4 0 -0.719256531661324 -5.239723418422256 -8.417969659485495 0 0 1
3788 930 2 0 -1.0894746156764894 -6.053588378722343 -8.361423530970143 0 0 1
3722 908 2 0 -0.3021499457854281 -5.123366349850764 -8.139023559562707 0 0 1
5603 1535 2 0 -9.279540546480646 -3.2407154495881403 -8.9671792319911 1 0 0
2666 556 2 0 -7.3743436098692765 -3.5232154820120574 -8.492583654041422 0 0 0
441 89 1 0 -6.946604920061491 -4.830233113842544 -9.369342860015392 0 0 1
2668 556 4 0 -6.949928806042069 -3.719892674095266 -8.42866188256994 0 0 0
2667 556 4 0 -6.9335893382380185 -3.747426076984961 -8.465945499463201 0 0 0
3040 680 4 0 -6.572929619209572 -3.827860043499464 -8.519818252512213 0 0 0
2626 542 4 0 -6.7273146852143535 -3.881168347468353 -8.150255282203453 0 0 0
2917 639 4 0 -6.642914796742971 -3.5076701793928278 -8.31038661125715 0 0 0
2916 639 4 0 -6.654669350739296 -3.4950773993744964 -8.336633776780253 0 0 0
3039 680 4 0 -6.2793078558486375 -4.7952637871780155 -8.995885620567469 0 0 0
461 93 1 0 -5.972088665566218 -4.69276865770924 -9.52383186133563 0 0 1
3038 680 2 0 -6.375180214031942 -4.251409310994289 -8.670101574561212 0 0 0
3957 986 4 0 -3.945669811836361 -4.793378976080257 -8.822504162991828 0 0 1
3958 986 4 0 -3.9572834160389236 -4.798876021895144 -8.820347970257806 0 0 1
2859 620 4 0 -4.004934768270167 -4.787312899655411 -9.222242502574842 0 0 0
2860 620 4 0 -3.995191286760765 -4.760455003295177 -9.191285053343902 0 0 0
3353 785 2 0 -4.750831849726904 -4.798450881407436 -9.02999662278165 0 0 1
3956 986 2 0 -3.603613118634394 -4.489166929157522 -8.662178635114806 0 0 1
301 61 1 0 -4.479239359518347 -3.3124228710718837 -9.525136063651244 0 0 1
2771 591 2 0 -2.3125743151200306 -3.709214497478548 -8.137330203897294 0 0 0
251 51 1 0 -1.5011261502410793 -4.392434807380494 -8.361157772007829 0 0 0
2510 504 2 0 -1.3639943359858486 -3.325776003595991 -8.111280443290457 0 0 0
3223 741 4 0 -9.205147585668998 -1.8440630130600384 -9.600506391496342 0 0 0
3221 741 2 0 -9.615253714944396 -2.0228914320534965 -9.316996626267455 0 0 0
1285 257 3 0 -8.848208025701624 -1.7627404976474095 -9.61861062355211 1 0 0
3222 741 4 0 -9.591991054034954 -2.4392615169767544 -9.035620885468202 0 0 0
5844 1615 4 0 -9.382397917524157 -2.4657273102171375 -8.671865701188118 1 0 0
5845 1615 4 0 -9.37386796004449 -2.454535884585424 -8.714625282592225 1 0 0
5604 1535 4 0 -9.435564577997628 -2.7705349613010606 -8.927890157438668 1 0 0
5605 1535 4 0 -9.436020348098479 -2.7799789033956004 -8.917632667577573 1 0 0
1283 257 3 0 -8.836341595003255 -1.7578141062046226 -9.646951405365359 1 0 0
1284 257 3 0 -8.816554213048764 -1.7691937096148487 -9.664687821187663 1 0 0
1282 257 3 0 -8.851542831030171 -1.7423994501943414 -9.622348594413472 1 0 0
5843 1615 2 0 -8.976353805608404 -2.2700262876770223 -8.433360482081085 1 0 0
2915 639 2 0 -6.271986854461286 -3.209323840776091 -8.398914222617764 0 0 0
3707 903 2 0 -5.388729998262447 -2.405236729283674 -8.495283792737471 0 0 1
3709 903 4 0 -5.471719443342972 -2.088242805748346 -8.082789857882545 0 0 1
3708 903 4 0 -5.516405454133101 -2.104963935763335 -8.133545969343055 0 0 1
576 116 1 0 -1.9584389363549968 -2.477893597533693 -9.226104623408721 0 0 1
1281 257 1 0 -8.682750951305433 -1.3014073533117012 -9.481592470222784 1 0 0
4724 1242 2 0 -8.539559103809799 -0.20436446826801122 -9.6681495266821 0 0 1
4586 1196 2 0 -7.647761147935516 -0.261595278393177 -9.051889204381828 0 0 0
156 32 1 0 -5.800226221078249 -1.4138618954697837 -8.30376857741115 0 0 0
3623 875 2 0 -5.411852542836099 -0.9069874279373203 -9.646861818825718 0 0 1
4496 1166 2 0 -4.318131446203287 -0.5173290885221132 -9.30824525441334 0 0 0
4497 1166 4 0 -3.8422155368978603 -0.7274366535071185 -9.320299256596247 0 0 0
4498 1166 4 0 -3.825347165490213 -0.6770933612998454 -9.342815292628261 0 0 0
927 186 3 0 -3.661078359239378 -0.8485608675501427 -9.644672618290949 0 0 0
5072 1358 2 0 -2.546397258055214 -0.2975012928995672 -9.341471938340828 0 0 1
3107 703 2 0 -2.9276456863823244 -1.4380460282546768 -8.12455636878514 0 0 0
5955 1652 4 0 -0.13964967051840851 -0.6936045956934631 -9.343211107994879 0 0 0
5954 1652 2 0 -0.3557314861326842 -1.0273297121082197 -9.03318702995927 0 0 0
4247 1083 2 0 -0.8338346252460683 -0.0006556532225034349 -8.499379454313715 0 0 0
5778 1593 4 0 -0.09942193023601509 -0.4005615393705098 -9.076352799992655 0 0 0
5779 1593 4 0 -0.05197630180100674 -0.4387845216633431 -9.05659740009886 0 0 0
5956 1652 4 0 -0.23875297930448797 -0.6005756445475955 -8.765843201455986 0 0 0
2519 507 2 0 -8.757771907434128 -8.728933738241615 -7.820130546475045 0 0 0
2521 507 4 0 -8.95229314644689 -8.42061737066752 -7.47652947660915 0 0 0
2992 664 4 0 -8.743083882912384 -8.159717011495813 -7.315503252731396 0 0 0
4104 1035 4 0 -9.142860479495646 -8.193783902224652 -7.198364322323565 0 1 0
2990 664 2 0 -8.37295768541635 -8.110337865616067 -6.9837012878645846 0 0 0
2991 664 4 0 -8.766840387685479 -8.144593735304506 -7.287327269097192 0 0 0
4644 1215 4 0 -7.65908973385549 -9.44688642531078 -6.734008370035971 0 1 0
4645 1215 4 0 -7.639255982217187 -9.440723656473759 -6.75132601151384 0 1 0
4643 1215 2 0 -7.528450370666783 -8.98151274438185 -6.749047575340074 0 1 0
3158 720 2 0 -6.165653348468123 -9.215053497172615 -7.580749909720921 0 0 0
2873 625 2 0 -5.183333989223576 -9.60965704850453 -8.00478295931091 0 0 0
2822 608 2 0 -5.238680855288652 -8.606000631875887 -7.403312109435627 0 0 0
2824 608 4 0 -5.489586077470556 -9.037821956129806 -7.443469577098655 0 0 0
2823 608 4 0 -5.522890093246537 -9.04012661153721 -7.449203608870306 0 0 0
3159 720 4 0 -5.734585330318334 -9.369253643513142 -7.439571041259488 0 0 0
3160 720 4 0 -5.731154414688355 -9.36657244910998 -7.41603693731833 0 0 0
2656 552 4 0 -5.378381012690586 -9.362064769161174 -7.314986685069677 0 0 0
2655 552 4 0 -5.384366134413105 -9.364841079469066 -7.295823464146147 0 0 0
2874 625 4 0 -5.449695824083985 -9.339559869090415 -7.699693002582294 0 0 0
2875 625 4 0 -5.449082794981088 -9.331686320867155 -7.688222464941645 0 0 0
2654 552 2 0 -5.35332208610577 -9.63203316520141 -6.885830442772849 0 0 0
2918 640 2 0 -3.530414457757611 -8.276823791780338 -7.860165794128488 0 0 0
3100 700 4 0 -2.5513594372869393 -8.30632629251464 -8.042700713468713 0 0 0
3099 700 4 0 -2.5498995604059065 -8.27281305106595 -8.036418598828588 0 0 0
3098 700 2 0 -2.015807969372017 -8.267989369240327 -8.119915794598626 0 0 0
2919 640 4 0 -3.0319490171398207 -8.288929256305774 -7.959516087761344 0 0 0
2920 640 4 0 -3.0229611298637273 -8.28224009984851 -7.95565225597441 0 0 0
2592 531 4 0 -2.7288941948686958 -8.42160978490872 -7.7515039903565 0 0 0
2593 531 4 0 -2.7331057882629604 -8.425552042305156 -7.743180948061129 0 0 0
2591 531 2 0 -2.687190574453876 -8.716140765311469 -7.310903608558903 0 0 0
6023 1675 2 0 -1.107229925562081 -9.420203493788906 -6.837758418546826 0 0 0
6020 1674 2 0 -1.27896034477554 -8.308072175700776 -7.062149858765239 0 0 0
6025 1675 4 0 -1.0193076688261302 -9.64801734519124 -7.27061494920418 0 0 0
6024 1675 4 0 -1.2424539889852246 -9.679833212586525 -7.2618097635124865 0 0 0
4105 1035 4 0 -9.059313416657139 -8.027329081117282 -7.527570002637268 0 1 0
4103 1035 2 0 -9.423649353214541 -7.79448777879389 -7.345082465783364 0 1 0
161 33 1 0 -7.755411771410973 -6.56556699816599 -7.180860081346292 0 0 0
2933 645 2 0 -3.7150145550626 -6.8656843244068355 -7.793688629466242 0 0 0
188 38 3 0 -4.278448290171095 -6.600934364135366 -7.194314141292918 0 0 0
189 38 3 0 -4.26836629092097 -6.605200741821182 -7.197912628192725 0 0 0
190 38 3 0 -4.278169940097476 -6.599328211608443 -7.196884855347322 0 0 0
187 38 3 0 -4.301778400132622 -6.6048007900141315 -7.183287431945723 0 0 0
186 38 1 0 -4.529385047129276 -7.028122098016297 -7.034782350502489 0 0 0
2934 645 4 0 -3.266805905523569 -6.985475989798929 -7.576160642050549 0 0 0
2935 645 4 0 -4.039433929665371 -6.575035167970275 -7.501760856640019 0 0 0
14 3 3 0 -2.775527784062326 -8.038992327098489 -7.869984771264194 0 0 0
15 3 3 0 -2.9046431226355276 -7.166650007949462 -7.613322982846103 0 0 0
12 3 3 0 -2.9371843217452707 -7.212752525166431 -7.663764954171015 0 0 0
13 3 3 0 -2.7579975374649766 -8.042037451685667 -7.875553770808307 0 0 0
11 3 1 0 -2.727410459914246 -7.630657151519147 -7.597009023608577 0 0 0
3082 694 4 0 -2.9884584917931 -6.851427550020482 -7.820852637293743 0 0 0
3081 694 4 0 -2.9938072652044814 -6.856328061390126 -7.860455469839735 0 0 0
3080 694 2 0 -2.6643158222537195 -6.519807978371527 -7.682585228068109 0 0 0
1513 303 3 0 -0.6790034821557851 -7.6199560780167115 -7.021613756347122 0 0 0
1512 303 3 0 -0.6846671128049602 -7.613875296267248 -7.0076344740184 0 0 0
1515 303 3 0 -0.6775381561733496 -7.65728449146667 -7.035806615753068 0 0 0
1514 303 3 0 -0.6893297816142756 -7.630634778803142 -7.013841218642737 0 0 0
5635 1545 4 0 -0.3676890866126921 -7.535487449997749 -6.791520053458005 0 0 0
5634 1545 4 0 -0.3656227436125172 -7.535568492467177 -6.792633868664843 0 0 0
1511 303 1 0 -0.4431852929317186 -7.727694197480472 -7.469710231306693 0 0 0
6022 1674 4 0 -0.8826318832108728 -7.959952191688956 -6.971158950446969 0 0 0
1497 300 3 0 -0.7342008371808528 -7.59962671405379 -6.965112643795354 0 0 0
1498 300 3 0 -0.7405620275510721 -7.576376458201102 -6.956606697320805 0 0 0
1499 300 3 0 -0.7245967232707832 -7.5896276378729945 -6.977899209172124 0 0 0
1500 300 3 0 -0.7426129526988781 -7.583065016502305 -6.944616051831317 0 0 0
1496 300 1 0 -1.061250187345911 -7.306562746145091 -6.700509186127746 0 0 0
6021 1674 4 0 -0.8890946591588106 -7.950929181032725 -6.951854678031259 0 0 0
5865 1622 4 0 -0.5935684654782735 -7.849691053238147 -6.722775433622161 0 0 0
5866 1622 4 0 -0.5731197953704196 -7.870161266439897 -6.722228860525581 0 0 0
2785 595 4 0 -8.53809147127721 -5.579748278563369 -8.078602078464842 0 0 0
2784 595 4 0 -8.547504846711076 -5.602601584354089 -8.074339235848576 0 0 0
5675 1559 2 0 -8.971216578960927 -6.145606739368193 -6.752790342462237 1 0 0
162 33 3 0 -8.188432439399453 -6.372208541799501 -6.945488861310198 0 0 0
5677 1559 4 0 -8.46804791380505 -6.15046521442272 -6.7584680528713905 1 0 0
5676 1559 4 0 -8.479346052877808 -6.2008435588691535 -6.753701638916651 1 0 0
163 33 3 0 -8.17050932374317 -6.334084864826437 -6.946042218327645 0 0 0
165 33 3 0 -8.193654113211341 -6.386581758685038 -6.931983327515042 0 0 0
3400 800 4 0 -8.907321715516561 -5.47060318397196 -8.000591723891803 0 0 1
3399 800 4 0 -8.91175015662887 -5.452664757003956 -8.006374800952276 0 0 1
3398 800 2 0 -9.00910246612925 -5.251902061219126 -7.571750660504932 0 0 1
2854 618 4 0 -8.189119695383186 -6.310079601262386 -6.549830737126022 0 0 0
2853 618 4 0 -8.098326507455939 -6.22176441124601 -6.602141830062493 0 0 0
164 33 3 0 -8.199529650294727 -6.370786992040134 -6.934499889689517 0 0 0
2783 595 2 0 -8.120263083400705 -5.804931598383387 -7.926617969921461 0 0 0
111 23 1 0 -7.1548722403847815 -4.905667841300268 -7.0957832369661915 0 0 0
2942 648 2 0 -4.634343057784991 -6.290448422500177 -7.87575914165986 0 0 0
2944 648 4 0 -4.398568208607679 -6.365962167696167 -7.457710877485439 0 0 0
2943 648 4 0 -4.36861438168501 -6.37756365722388 -7.4668631532626355 0 0 0
2843 615 2 0 -4.729194847146356 -5.943832992413856 -6.830027669573875 0 0 0
2845 615 4 0 -4.400981519995281 -6.228848001554568 -7.1356106171415075 0 0 0
2844 615 4 0 -4.386700613394239 -6.237704584457358 -7.088839206499543 0 0 0
3220 740 4 0 -4.036337209418184 -6.319759103724425 -7.219609389164377 0 0 0
3219 740 4 0 -4.04244317934655 -6.294058264257947 -7.240629770250318 0 0 0
3218 740 2 0 -3.6727123146648077 -6.013531035683878 -7.095121457240658 0 0 0
3110 704 2 0 -8.866667180276059 -3.8948526589628694 -6.680384942288383 0 0 0
216 44 1 0 -8.213511108535998 -4.708480180685896 -6.462117972271316 0 0 0
3269 757 2 0 -7.754421330135419 -4.253726154769727 -7.732791251279216 0 0 1
2754 585 4 0 -6.935439852933816 -4.1671268466039 -6.930898860873685 0 0 0
2755 585 4 0 -6.947629248548602 -4.1118910644625135 -6.95143336528119 0 0 0
114 23 3 0 -7.099376540961229 -4.4137185967569454 -7.135318386333938 0 0 0
115 23 3 0 -7.124561577008934 -4.41931757575972 -7.167937249617276 0 0 0
112 23 3 0 -7.1169220312612325 -4.411672364329908 -7.145467872270791 0 0 0
113 23 3 0 -7.097651494440645 -4.420114153284048 -7.136948358690261 0 0 0
2624 542 2 0 -6.704137681297805 -3.976549016592386 -7.667693582247146 0 0 0
2625 542 4 0 -7.0681523385027125 -4.0495891657659975 -7.296072287936929 0 0 0
2787 596 4 0 -7.326691834889568 -4.145985264910175 -6.992276511959178 0 0 0
3271 757 4 0 -7.410194914103119 -4.238890268901878 -7.338832972131953 0 0 1
3270 757 4 0 -7.400763693519443 -4.269644284808128 -7.354093077673265 0 0 1
2786 596 2 0 -7.5937631518685835 -3.8331548359408103 -6.699126353352138 0 0 0
2753 585 2 0 -6.55520886393977 -4.156216402575226 -6.579379248310883 0 0 0
2849 617 2 0 -2.316340063100143 -4.574687561659973 -7.570730607690539 0 0 0
2851 617 4 0 -1.861564847665786 -4.287471497420908 -7.69855716042484 0 0 0
2850 617 4 0 -1.8434933501433406 -4.293738301374283 -7.680017559621469 0 0 0
2772 591 4 0 -1.8718768192697306 -3.996909194642488 -7.968582989487341 0 0 0
2773 591 4 0 -1.8676405445049864 -3.9504742373671107 -7.926233347766819 0 0 0
2939 647 2 0 -1.801260000769354 -3.7167454443995402 -7.181990967693272 0 0 0
2940 647 4 0 -1.654823598397304 -3.958992421707498 -7.595126882657808 0 0 0
2941 647 4 0 -1.6712929128724836 -3.94966591512766 -7.586018746526177 0 0 0
2792 598 2 0 -1.3454041822614506 -4.74254696482248 -7.264828526091323 0 0 0
252 51 3 0 -1.5878392088593418 -4.114014118853773 -7.828828515603354 0 0 0
255 51 3 0 -1.5766029250084757 -4.120204040871876 -7.841873872785532 0 0 0
253 51 3 0 -1.5831665182153203 -4.147057085067071 -7.853262989124626 0 0 0
254 51 3 0 -1.5711135012612116 -4.155172014560417 -7.862671655148177 0 0 0
2793 598 4 0 -1.4889693884893718 -4.331904668431247 -7.580965027095442 0 0 0
2794 598 4 0 -1.485486909000527 -4.35413236988735 -7.570431456760769 0 0 0
2511 504 4 0 -1.5057201477944937 -3.8185686723746723 -7.91872843714907 0 0 0
2512 504 4 0 -1.530134578679355 -3.7999048307593517 -7.870357238360758 0 0 0
3132 711 4 0 -1.2904280375012314 -4.038693382935924 -7.659923304121165 0 0 0
3133 711 4 0 -1.3085274688870792 -4.053160694710551 -7.686632717975415 0 0 0
3131 711 2 0 -0.7572747054891346 -3.9695789345440353 -7.573723673708957 0 0 0
6 2 1 0 -9.481897870862046 -2.467338568121964 -6.788773220893822 0 0 0
8 2 3 0 -9.421591378583505 -1.9739625973575357 -6.740200537139164 0 0 0
9 2 3 0 -9.430982936484368 -1.988342760370614 -6.72589767320482 0 0 0
7 2 3 0 -9.389244701035116 -1.9577488149428752 -6.771025654195198 0 0 0
10 2 3 0 -9.39970754940824 -1.989649570982685 -6.721400829752719 0 0 0
2661 554 4 0 -9.09319520006887 -1.8052139410528585 -6.607536584195421 0 0 0
2662 554 4 0 -9.10618662676835 -1.7772160074522951 -6.601864138226721 0 0 0
2660 554 2 0 -8.602481091429752 -1.770309367882756 -6.599054213694319 0 0 0
5533 1511 4 0 -9.43703788203253 -1.621127824552444 -6.746488141240767 1 0 0
3084 695 4 0 -5.64103125326769 -2.0944762720473715 -7.75211006905471 0 0 0
3085 695 4 0 -5.652551289480171 -2.0906284872516 -7.754416008833655 0 0 0
3083 695 2 0 -5.910347706100561 -2.4805996612025227 -7.544107939299019 0 0 0
3165 722 4 0 -5.338927124600465 -1.8247290275826127 -7.837418292427797 0 0 0
158 32 3 0 -5.6881002119482496 -1.7851996773994723 -7.964376191965024 0 0 0
157 32 3 0 -5.679908626799027 -1.770544579732196 -7.959243769558812 0 0 0
160 32 3 0 -5.716053395160572 -1.8001877495054226 -7.967779539895085 0 0 0
159 32 3 0 -5.696829872476253 -1.7899815680751092 -7.955222540641049 0 0 0
3666 889 4 0 -5.577242706047089 -1.7914049730900379 -7.571514663722076 0 0 1
3667 889 4 0 -5.588556103229178 -1.7539416393956258 -7.603681262438165 0 0 1
21 5 1 0 -4.931358223867224 -2.2876556878610934 -6.582750013707137 0 0 0
2528 510 2 0 -3.9614317956502703 -2.4388025514892977 -7.207218247836562 0 0 0
2529 510 4 0 -4.256743088997232 -2.040428488769039 -7.144372931809324 0 0 0
3009 670 4 0 -4.521797775998735 -1.7576393599710312 -7.059353046272585 0 0 0
3010 670 4 0 -4.519579079217451 -1.740383172128579 -6.9728728316461295 0 0 0
25 5 3 0 -4.523296950421653 -2.1111748434888704 -6.879799339314318 0 0 0
22 5 3 0 -4.556975419002787 -2.1127276579470036 -6.896747592453889 0 0 0
24 5 3 0 -4.551925948098848 -2.1072560698165814 -6.878595627527235 0 0 0
23 5 3 0 -4.561289023666352 -2.104255713325339 -6.893868414182398 0 0 0
3166 722 4 0 -4.628426542330947 -2.0440439150666623 -7.27245489411831 0 0 0
2530 510 4 0 -3.4640938071524054 -2.4994093260915777 -7.375459044311481 0 0 0
3164 722 2 0 -4.903433505728678 -1.9082337416462398 -7.673319225262368 0 0 0
240 48 3 0 -3.2168505572656927 -2.728081740478215 -7.588051594787767 0 0 0
237 48 3 0 -3.2692887261649815 -2.771632143502423 -7.565831261918736 0 0 0
238 48 3 0 -3.2427714075542977 -2.7271300437525254 -7.592419834259689 0 0 0
239 48 3 0 -3.197251759422759 -2.7393220624409302 -7.575422246936476 0 0 0
236 48 1 0 -3.174069288789323 -2.785925081243287 -8.081717676027672 0 0 0
2522 508 2 0 -1.9487019263712444 -1.8963606325711109 -8.024116103986566 0 0 0
2618 540 2 0 -3.0086031136526077 -3.140367624742195 -6.992012617104623 0 0 0
2619 540 4 0 -3.2044905143992306 -2.740958181970808 -7.20294657323023 0 0 0
2620 540 4 0 -3.212910784708935 -2.700371278885554 -7.181944112234967 0 0 0
3205 735 4 0 -3.0967925349898167 -2.4141185065304227 -7.410560955849681 0 0 0
3203 735 2 0 -2.746569060877808 -2.071788516449817 -7.262293545559547 0 0 0
3204 735 4 0 -2.4730578695658467 -1.7539741849193893 -7.55467829797875 0 0 0
2840 614 2 0 -1.2256698174547986 -1.839321270884888 -6.62260570491839 0 0 0
5532 1511 4 0 -9.443390512789883 -1.6036064932668148 -6.740560717387512 1 0 0
5531 1511 2 0 -9.404492704286763 -1.1615191490789305 -7.016655650159128 1 0 0
2717 573 2 0 -7.316305493604963 -0.8840401798879133 -6.8227281191872375 0 0 0
3665 889 2 0 -5.774352197695062 -1.423797061155216 -7.222585706544554 0 0 1
3008 670 2 0 -4.178433758817208 -1.3766976841329932 -6.963041780811385 0 0 0
3068 690 2 0 -2.0793053633725225 -0.7631574846854406 -8.064849192819086 0 0 0
916 184 1 0 -3.11192663348383 -0.38886510270116376 -7.606307747877375 0 0 0
3069 690 4 0 -2.2880472340268674 -1.1621696618775894 -7.776589484714669 0 0 0
3070 690 4 0 -2.257083133691713 -1.2078668559714634 -7.776000233716192 0 0 0
2523 508 4 0 -2.236045500065728 -1.567431428758698 -7.828786827554576 0 0 0
2524 508 4 0 -2.2426424275175783 -1.5686778414256548 -7.831322779879785 0 0 0
3109 703 4 0 -2.5789555837434976 -1.409225132515032 -7.756196103139438 0 0 0
3108 703 4 0 -2.581438563923847 -1.4103666241518789 -7.7481378680737905 0 0 0
235 47 3 0 -2.2678598684154267 -1.4330615062511325 -7.4828857290660835 0 0 0
233 47 3 0 -2.338015281644484 -1.3839222253140167 -7.471867205636562 0 0 0
232 47 3 0 -2.2864012929404463 -1.4229227040674943 -7.476556683707032 0 0 0
231 47 1 0 -2.060811161551093 -1.2096824960299788 -7.0811202454634214 0 0 0
234 47 3 0 -1.5750421329520323 -1.2846425912760278 -6.987865082486226 0 0 0
3074 692 2 0 -0.918572800092962 -1.2114327511628928 -7.471034626967576 0 0 0
2842 614 4 0 -1.2678627814774392 -1.3654840867862972 -6.774296404465538 0 0 0
2841 614 4 0 -1.2559583097148856 -1.3710153504129774 -6.763759531248487 0 0 0
3075 692 4 0 -1.2361364535341417 -1.1455495727790148 -7.090240335779966 0 0 0
4288 1096 4 0 -1.4083226835179379 -0.9938770185525345 -6.777454808976631 0 0 0
4286 1096 2 0 -1.311448069997006 -0.4939364316126939 -6.765652378427044 0 0 0
3076 692 4 0 -1.1961263999528526 -1.1221336779099298 -7.066015984117489 0 0 0
3095 699 2 0 -0.25874936979228197 -0.817787393471819 -6.578576588925054 0 0 0
606 122 1 0 -8.810531296495464 -8.167733053713542 -5.452907197995158 0 1 0
609 122 3 0 -8.418972812555403 -8.047043122900682 -5.150127998129478 0 1 0
608 122 3 0 -8.426280860261084 -8.062789345172314 -5.120510696356085 0 1 0
2995 665 4 0 -8.22715102852756 -8.374255679311041 -4.972218958732491 0 0 0
2994 665 4 0 -8.237321824960981 -8.38116847637471 -5.018307682835558 0 0 0
2856 619 4 0 -8.095085984666552 -8.183303628106191 -5.286498098496727 0 0 0
2993 665 2 0 -8.185578024735527 -8.86442159160941 -4.890085648422026 0 0 0
2857 619 4 0 -8.085789984728784 -8.162529283529272 -5.282844963727128 0 0 0
2855 619 2 0 -7.693544578993228 -8.200835455963361 -5.592274283743564 0 0 0
3242 748 2 0 -6.590455447025924 -9.05800891352597 -4.9913133934091105 0 0 0
4401 1134 4 0 -7.6216557079265534 -9.669640038578365 -6.43466947850438 0 1 0
4402 1134 4 0 -7.627518426486066 -9.686860465133927 -6.430953209283416 0 1 0
2945 649 2 0 -5.545190323695141 -8.36514595857529 -5.846475269306017 0 0 0
3266 756 2 0 -4.444903351814376 -8.096806573111861 -5.920376312112895 0 0 0
3020 674 2 0 -4.793149928060492 -8.19860898896656 -4.910908385043044 0 0 0
92 19 3 0 -1.800597841633056 -8.85298945660815 -5.036325589035888 0 0 0
93 19 3 0 -1.797951725045985 -8.842817798022425 -5.031652713706592 0 0 0
94 19 3 0 -1.7772452067692242 -8.865262877783564 -5.0570073743262185 0 0 0
91 19 1 0 -2.0548169178809936 -8.4529025393769 -5.196392724227661 0 0 0
95 19 3 0 -1.8082530836351343 -8.841465523660224 -5.019891487600783 0 0 0
2804 602 2 0 -2.2364976504738543 -9.544415238819598 -4.994811703783406 0 0 0
7172 2058 2 0 -0.150061907293012 -8.846322679418046 -5.308916323450447 0 1 0
5864 1622 2 0 -0.42869838022712775 -8.156831059384572 -6.349305303474793 0 0 0
7174 2058 4 0 -0.13322261912935407 -8.356920832569632 -5.42765797936708 0 1 0
607 122 3 0 -8.442957297537996 -8.075089139924216 -5.120303566256058 0 1 0
610 122 3 0 -8.433799908285776 -8.073521210259157 -5.120845957091702 0 1 0
228 46 3 0 -8.342989622166142 -8.011725203314034 -5.021744571370038 0 0 0
229 46 3 0 -8.362200521486546 -8.019000042418421 -5.071339750428306 0 0 0
230 46 3 0 -8.372564055495245 -8.020663185009377 -5.065777061831669 0 0 0
227 46 3 0 -8.357566200373185 -8.007911345784963 -5.055310544343601 0 0 0
3062 688 2 0 -9.665688225319743 -7.281159199534448 -5.977176415307301 0 0 0
2504 502 2 0 -6.805021445343027 -7.388193454143352 -5.987499091531335 0 0 0