LAMMPS data file via write_data, version 19 Nov 2024, timestep = 1000000, units = lj

79 atoms
4 atom types
54 bonds
1 bond types
35 angles
2 angle types

-3.045986 3.045986 xlo xhi
-3.045986 3.045986 ylo yhi
-3.045986 3.045986 zlo zhi

Masses

1 1
2 1
3 0.1
4 0.1

Bond Coeffs # harmonic/omp

1 100 0.45

Angle Coeffs # harmonic/omp

1 100 180
2 100 109.471

Atoms # full

79 25 4 0 -1.4914636251114022 -1.4057819397307134 -1.6370597546730838 1 0 1
72 23 4 0 -1.2864164954082855 -0.4002668650865865 -2.4713035283834874 1 0 1
71 23 2 0 -1.0724200706262756 -0.02329142464296222 -2.3907469970266555 1 0 1
78 25 4 0 -1.3820035503465766 -0.7595119407428822 -2.3022271077542618 1 0 1
77 25 2 0 -1.4377837338544808 -1.0637633914342728 -1.9809224748248306 1 0 1
56 18 2 0 -1.9409932886827856 -1.3198982681456652 -0.9108200548262219 1 -1 0
60 19 4 0 -2.132912165205366 -1.0727104503009008 -0.11578552559520176 1 -1 0
57 18 4 0 -2.107489851963302 -1.2621218619301777 -0.481187933866704 1 -1 0
58 18 4 0 -1.783275508990251 -1.3770606538542105 -1.3579123834418814 1 -1 0
54 17 4 0 -2.8466413631594216 -1.687431955060812 0.3927059295533582 1 0 0
61 19 4 0 -2.9281350632936993 -1.3428677707229382 0.23523751281925634 1 -1 0
8 2 3 0 -2.9925632534428277 -1.788034811011221 2.1914775563833606 1 0 0
10 2 3 0 -2.8233412957564257 -2.4983157426464238 2.1151020956132824 1 0 0
69 22 4 0 -2.532353516274194 -2.798850367031634 2.137529949260587 1 1 0
53 17 2 0 -2.897846159115324 -1.9046761965346937 0.7815770054565657 1 0 0
55 17 4 0 -2.9566762502666677 -2.1206589381018994 1.1881662253714622 1 0 0
68 22 2 0 -2.332889101820203 -2.9530135954156105 1.7862251139843839 1 1 0
59 19 2 0 -2.5235359396054546 -1.2070234239796258 0.05245298905336517 1 -1 0
34 10 4 0 -0.7491232819157221 0.63597109338534 -2.0220182920935303 0 0 1
73 23 4 0 -0.8345329109993681 0.3842586033249427 -2.3119210392462364 1 0 1
32 10 2 0 -0.9431514616780413 0.9484573181773203 -1.723062144808662 0 0 1
33 10 4 0 -1.1253250805421238 1.2391460297763865 -1.4464282946781266 0 0 1
40 12 4 0 -1.261283873399491 1.5308004782713442 -1.2366866682526831 0 0 1
39 12 4 0 -0.8783621430663211 1.8447892482761277 -0.48151204863893304 0 0 1
38 12 2 0 -1.0793814601122291 1.6785803545119216 -0.8770764407576476 0 0 1
63 20 4 0 -0.8552751937976871 2.0056377541386494 -0.11948784114737776 0 -1 0
44 14 2 0 -2.4584937890049616 0.3349469968122139 0.6230749987239209 0 0 0
46 14 4 0 -2.122412866209721 0.1558880336279291 0.32431817052314227 0 0 0
45 14 4 0 -2.7736861852034633 0.4954475848966707 0.8930788149611364 0 0 0
49 15 4 0 -1.7590063256739568 2.824633589833455 1.4179440143201152 0 1 1
62 20 2 0 -0.9523301431610044 2.1961984595336297 0.2977718947828359 0 -1 0
64 20 4 0 -1.0393006567414114 2.3702561602548315 0.6887116737465568 0 -1 0
48 15 4 0 -1.0152023285280212 2.5386823594725465 1.0480576863872835 0 1 1
47 15 2 0 -1.3940872105237745 2.6844395262476297 1.2358395904886068 0 1 1
15 4 4 0 -2.9823686564925502 0.6014901648319674 1.234451272202754 0 0 0
70 22 4 0 -2.122192505358248 2.982149437613824 1.42048377011186 1 0 0
4 1 3 0 1.4225241774297641 -0.32117213409667145 -0.8755511675426101 0 0 1
67 21 4 0 2.6441185323187217 -2.9561635988621258 -2.5661595781833486 0 0 1
36 11 4 0 1.0467958235760981 -1.1832788909465555 -2.6553941118801085 -1 0 1
23 7 2 0 1.5198047569738857 -0.9545050616551566 -1.9933033969223573 0 0 1
25 7 4 0 1.699478642607382 -0.8777029211994756 -1.5737252454213575 0 0 1
24 7 4 0 1.3447582620298586 -1.0363144320733997 -2.407482324881199 0 0 1
5 1 3 0 0.9334357635999595 -0.8663271862201631 -0.7630143884520618 0 0 1
30 9 4 0 0.7497491438215338 -0.6345870015895383 -0.5012612000196179 0 0 1
29 9 2 0 0.6173639421250272 -0.4806571385342385 -0.11189730849813123 0 0 1
1 1 1 0 1.3686422600649066 -0.7605328925667637 -0.8666210578712558 0 0 1
2 1 3 0 1.472317220546399 -0.9226175363988165 -1.2521233030548558 0 0 1
27 8 4 0 1.2601440580245458 -0.04272908554361875 -1.1399304103358858 0 0 1
3 1 3 0 1.6294169864480863 -0.9352915691803734 -0.5634435188108189 0 0 1
35 11 2 0 1.2658903292188248 -1.4174514838829868 -2.9770488434666773 -1 0 1
7 2 3 0 3.043045373549122 -2.1032152434839007 1.5614395074167082 0 0 0
6 2 1 0 2.997806458220535 -2.1657429233425387 1.9761639238326192 0 0 0
31 9 4 0 0.4713651259413165 -0.33941341806773107 0.2931374343034633 0 0 1
21 6 4 0 0.43291869208287787 -0.20771045510320732 0.6683844640154776 0 0 0
20 6 2 0 0.6414792342007902 -0.02463370617813592 1.024479423912725 0 0 0
37 11 4 0 1.4775157046243108 -1.6389689768775035 2.808936344092144 -1 0 0
9 2 3 0 2.5747243716067674 -2.283529536748041 2.0749713222959847 0 0 0
42 13 4 0 2.3485263820159035 -1.966619959522638 2.1791281627955237 0 0 0
41 13 2 0 2.012094556356146 -1.9802918729873749 2.4331121409994876 0 0 0
43 13 4 0 1.6391325180923617 -1.9889641565058909 2.709907899142522 0 0 0
66 21 4 0 2.576719837438324 2.843694472994719 -1.7194643683331958 0 -1 1
52 16 4 0 2.4769989358333677 2.4935256485476742 -1.5373730097403744 0 0 1
28 8 4 0 1.348776983502041 0.7482915333864382 -0.7078134771975462 0 0 1
26 8 2 0 1.3043521534401268 0.35717577354399654 -0.9199626882925752 0 0 1
75 24 4 0 1.4450455199016685 1.1354769258022843 -0.706925670687219 0 0 1
74 24 2 0 1.5346151890675486 1.5655844228621807 -0.8756929522898164 0 0 1
50 16 2 0 2.1061721052291698 2.2582467425053134 -1.4843207500668254 0 0 1
76 24 4 0 1.6339344804704798 1.9707933293447069 -1.0433964063966779 0 0 1
51 16 4 0 1.7392647750860513 2.029912512562494 -1.4423610143440295 0 0 1
65 21 2 0 2.6079726032577684 2.9951594961257544 -2.149528841361691 0 -1 1
22 6 4 0 0.8458206937865734 0.15603947785860364 1.397438365506959 0 0 0
14 4 2 0 2.6930314593903657 0.5193360009398108 1.354545616792015 -1 0 0
16 4 4 0 2.27592813598684 0.43858505225264544 1.4689504224026555 -1 0 0
18 5 4 0 1.659124978003174 2.2384953215784793 0.543699050825468 0 0 0
19 5 4 0 2.3423749697980063 2.298458162746263 1.1303798911656833 0 0 0
17 5 2 0 1.983436655510841 2.261097936980214 0.816664954820117 0 0 0
12 3 4 0 1.1201935956815634 0.4502095524677991 1.4169201362751294 0 0 0
13 3 4 0 2.000709538931503 0.19402716044996599 1.6042003180191249 0 0 0
11 3 2 0 1.5636188193914957 0.32295793423299907 1.5129131668452547 0 0 0

Velocities

79 -0.4866006691260902 0.633407606469141 0.31524314605299597
72 -0.9455200356946982 1.138446742300498 1.2417805436434894
71 -0.46418049759148433 0.27825702776034955 -0.012583391616422208
78 -0.30443859757455516 -0.6920916423699851 0.15271891964983733
77 0.1288114221884364 -0.17842603383029418 -0.04992021479359907
56 -0.15634038125278793 -0.2086810646342709 -0.1541240312510424
60 0.3745462781867064 -0.8541814093135228 -0.12381579195375764
57 1.5681896824985475 -0.21637089769511622 -0.5624121442459288
58 1.6213597556987178 0.3129836381646749 0.6610544969207959
54 1.0720036309543057 0.965095065096993 0.681845656368482
61 1.5795453470191914 -0.31867796477502985 0.5109590503751157
8 0.3007834531872913 -0.43971002944007775 -0.10782414330003592
10 -1.6981552740602717 0.9869779215546449 0.7366657214828645
69 0.04030818336816715 -0.5322503607057194 -0.3697769865054438
53 0.11885710021005272 0.35864602517837746 0.23484391074965238
55 -0.08618777111047343 0.9844921419108943 0.647526236946878
68 0.03728333435729489 0.03607860501652167 0.32541763189902134
59 -0.05425028407128831 -0.16512224828169947 0.09669607127163977
34 0.6685956444233018 0.7954354249898603 -0.7418099881898645
73 -0.4441206211208149 -0.4030665372592773 0.9584318169554006
32 0.17506074926043877 0.0953697115619793 -0.2205203574945133
33 0.6130534532310612 0.3105220235515527 0.21246346068025043
40 0.7268343731991144 0.4172510084012982 -0.07848144684074673
39 0.5149353626070163 0.10158469886513938 0.02625019279142514
38 -0.06887262427052603 -0.38709135579343446 -0.01576626567312977
63 0.22068492346200763 -0.9756762887565109 0.507597197143388
44 -0.10223446243437645 -0.09171217814536442 -0.057478895196607024
46 -0.6108864821475523 -0.4460763771933946 -0.6425325483095482
45 -0.03412917800695902 0.8219980741857457 -0.09841275579248343
49 0.5930568215389448 -0.19459658617510203 -0.43156519517605607
62 -0.31777626925975655 -0.1601000262214384 0.33894236187049925
64 1.0287345863723107 0.597427542115683 -0.25347106650335033
48 -0.9036808828277159 0.7176246043878638 0.7568809053479493
47 0.2558437614132588 -0.02393582670057537 0.021518788909405624
15 0.35096753730274516 0.9850322848462315 -0.0694344833615526
70 0.7462399137019176 -0.8666651836472549 -0.12314526496334985
4 0.7136304686859997 -0.5479272589637867 0.5528364503871325
67 -1.9420466091931965 -0.8177520449021423 -0.03327769084534859
36 -0.4592051784782277 -0.04392636225170188 -0.03727113192168632
23 -0.03076518762935209 -0.2633387102156539 0.009181949363994878
25 0.5557878988202956 1.9634104829171004 0.20528566919604996
24 -1.283631932409226 -0.13515074887825904 0.1860653605525397
5 -0.0623342209669623 -1.2677039378790835 1.2229652956912365
30 0.4804605647691818 -0.485755479834602 -0.12419823742766786
29 -0.2748829116036642 0.346487925396608 0.01865083538971018
1 -0.4596443164307625 -0.02577369108175344 0.1655427073277845
2 0.7025196780862777 1.0138913208255018 0.27975661904196597
27 -0.3125967716090865 -1.0138083980259813 1.262418656929764
3 0.766856146354892 0.46327208851167845 -0.2875611834560258
35 0.040728399164889746 -0.0812067546770848 0.1367643260382287
7 0.6036221467507075 1.4664643667109012 -1.2612099680732518
6 0.052245019942616135 0.14321048039589795 -0.3299835009876444
31 -1.482011248548698 -0.9141175579947556 0.5951041633382952
21 0.4461428602435178 -0.22110447452204948 0.6870377118253258
20 -0.05791804548537806 -0.10780377555439798 -0.10788321689537742
37 -0.22070201973902548 0.25123287563957797 0.9679223564624551
9 -0.21091077020087476 1.291984298235183 -0.17929316887108943
42 0.22516555449298944 0.8151219861677854 0.7611182903206315
41 -0.23845421615538273 0.4203103619004093 -0.08685247402539509
43 0.5453180727451337 0.03813676623713426 -2.108082231136261
66 -0.9606060935568783 0.47736395136888443 -0.35485548529224376
52 -0.2511647056577295 -0.6758936977781376 -1.319155166868051
28 -0.16454611187096502 0.5633605980587562 -0.023707758449038156
26 0.030796537583136822 0.29556160760823474 -0.24777326177251807
75 0.7000259056620113 0.5779449691863136 -0.11018997755127288
74 -0.12110395160402472 0.3059146033466497 -0.3697286883748908
50 -0.35693515004727655 -0.11766722135454849 0.3644096965372552
76 -0.02872790951854237 -1.9161090433957042 -0.7786405819963144
51 0.05971714346344602 -0.21947778448906707 -0.5549187116342529
65 -0.3085830622009705 -0.3477441126407257 -0.27993778390906476
22 -0.2587682649080805 -0.455838016434107 -0.9028891923714938
14 0.19074575383387954 0.17182674136584664 -0.0464129740137636
16 -1.759630996038172 0.3587570092141749 -1.446734896515169
18 -0.4197789982876449 -1.6017581363017457 0.4223905815062438
19 -0.5407954592485736 0.056141182757871666 0.8283667406174029
17 -0.05260388473194676 0.36081660459398623 0.33324123495219027
12 0.13723704961576336 1.4634342402859128 -0.15180584252102725
13 -0.14159681092391962 1.0867111685729793 0.5298242164206471
11 -0.2747024229904172 -0.12847693841867067 -0.2213719626985587

Bonds

1 1 71 72
2 1 71 73
3 1 77 78
4 1 77 79
5 1 56 57
6 1 56 58
7 1 53 54
8 1 53 55
9 1 68 69
10 1 68 70
11 1 59 60
12 1 59 61
13 1 32 33
14 1 32 34
15 1 38 39
16 1 38 40
17 1 44 45
18 1 44 46
19 1 62 63
20 1 62 64
21 1 47 48
22 1 47 49
23 1 23 24
24 1 23 25
25 1 29 30
26 1 29 31
27 1 1 2
28 1 1 3
29 1 1 4
30 1 1 5
31 1 35 36
32 1 35 37
33 1 6 7
34 1 6 8
35 1 6 9
36 1 6 10
37 1 20 21
38 1 20 22
39 1 41 42
40 1 41 43
41 1 26 27
42 1 26 28
43 1 74 75
44 1 74 76
45 1 50 51
46 1 50 52
47 1 65 66
48 1 65 67
49 1 14 15
50 1 14 16
51 1 17 18
52 1 17 19
53 1 11 12
54 1 11 13

Angles

1 1 72 71 73
2 1 78 77 79
3 1 57 56 58
4 1 54 53 55
5 1 69 68 70
6 1 60 59 61
7 1 33 32 34
8 1 39 38 40
9 1 45 44 46
10 1 63 62 64
11 1 48 47 49
12 1 24 23 25
13 1 30 29 31
14 2 2 1 3
15 2 2 1 4
16 2 2 1 5
17 2 3 1 4
18 2 3 1 5
19 2 4 1 5
20 1 36 35 37
21 2 7 6 8
22 2 7 6 9
23 2 7 6 10
24 2 8 6 9
25 2 8 6 10
26 2 9 6 10
27 1 21 20 22
28 1 42 41 43
29 1 27 26 28
30 1 75 74 76
31 1 51 50 52
32 1 66 65 67
33 1 15 14 16
34 1 18 17 19
35 1 12 11 13
