LAMMPS data file via write_data, version 19 Nov 2024, timestep = 200000, units = lj

320 atoms
4 atom types
220 bonds
1 bond types
150 angles
2 angle types

-4.735095 4.735095 xlo xhi
-4.735095 4.735095 ylo yhi
-4.735095 4.735095 zlo zhi
8.01669841621333e-12 0 0 xy xz yz

Masses

1 1
2 1
3 0.1
4 0.1

Bond Coeffs # harmonic/omp

1 100 0.45

Angle Coeffs # harmonic/omp

1 100 180
2 100 109.471

Atoms # full

162 48 2 0 -0.4396762132999479 -4.513036067358614 -4.369091750497616 0 1 -1
164 48 4 0 -0.03279963733046998 -4.288056094756462 -4.349053410926163 0 1 -1
163 48 4 0 -0.840949004548059 -4.7350600181306355 -4.385855781311518 0 1 -1
304 95 4 0 -4.388868725457796 -2.888439708343905 -3.9006735276772524 2 1 2
254 78 4 0 -4.547625303273494 -3.2383835309273636 -3.979023011443333 3 0 1
303 95 2 0 -4.04083787409521 -2.6102957144233114 -3.9786559731038107 2 1 2
305 95 4 0 -3.710539231976308 -2.350157586107947 -4.052809434816333 2 1 2
10 2 3 0 -3.028123953566455 -2.5519036280470173 -4.57155724842232 2 0 1
7 2 3 0 -3.357298000240652 -2.1692704656824127 -4.0320203515134105 2 0 1
6 2 1 0 -2.971326921938342 -2.3574394739695195 -4.162088424026333 2 0 1
9 2 3 0 -2.848019546440396 -2.6831648278550153 -3.8621529599834235 2 0 1
8 2 3 0 -2.639843166105043 -2.0307440289967364 -4.189959404149519 2 0 1
57 13 2 0 -4.387843711264677 -1.300082355068077 -4.505772558936973 2 -1 0
58 13 4 0 -3.96179518183642 -1.0721987336845498 -4.5584330383454565 2 -1 0
289 90 4 0 -2.8862652747545443 -0.9973472463288244 -3.8041300971995446 2 0 1
44 9 3 0 -3.011622502726543 -0.9707133511033343 -4.184872047826138 2 0 1
139 40 4 0 -2.2676615870518737 -1.8643376254260429 -4.252253875377458 2 1 1
138 40 2 0 -1.9165858229295951 -1.590209671427266 -4.370879100747522 2 1 1
140 40 4 0 -1.561112779910597 -1.3183837506532434 -4.496610917977294 2 1 1
100 27 4 0 -1.2267657023069445 -1.1061905991182694 -4.452446489683123 2 0 1
42 9 3 0 -3.6199509226731887 -0.8282421781814122 -4.595340168744506 2 0 1
41 9 1 0 -3.2073099070603854 -0.6774432859189137 -4.474386511508609 2 0 1
43 9 3 0 -3.244920724425606 -0.2775593147896567 -4.280141709605088 2 0 1
158 46 4 0 -2.894582220883354 -0.11827095078577265 -4.20558580883496 2 0 0
99 27 2 0 -0.8801703622020018 -0.8128767439110574 -4.540442232448573 2 0 1
101 27 4 0 -0.5276571338393232 -0.5143213860733562 -4.63267304851698 2 0 1
145 42 4 0 -0.31177172987927104 -0.18555364171936262 -4.731527289239799 1 0 1
236 72 4 0 -4.727428356634865 -4.342114906557949 -3.609124376795017 1 0 1
252 78 2 0 -4.706561650597308 -3.5986009000658488 -3.7744257462935047 3 0 1
51 11 2 0 -3.075052446238047 -3.16742982534233 -3.21779500652582 2 0 1
52 11 4 0 -2.9719398126519145 -2.846198882902645 -3.518694068701807 2 0 1
53 11 4 0 -3.1914206290433476 -3.491408538056151 -2.915591626484527 2 0 1
69 17 2 0 -4.658923788937225 -0.4885134570634353 -3.179525236836965 3 0 1
70 17 4 0 -4.436239553813759 -0.10893412775549027 -3.218287880892221 3 0 1
288 90 2 0 -2.574284855291588 -0.9404007170922206 -3.507023242448028 2 0 1
290 90 4 0 -2.246299534195115 -0.8716966368049341 -3.18238319489649 2 0 1
246 76 2 0 -2.992448588766102 -3.131044181720047 1.621826074657914 2 1 2
247 76 4 0 -3.3360179871165396 -3.4029651995140995 1.6701482982961329 2 1 2
248 76 4 0 -2.6300427196388503 -2.8316010487762426 1.5698148326399615 2 1 2
93 25 2 0 -2.0802641196085636 -2.3931461435962724 1.6021366428742283 2 1 1
95 25 4 0 -2.5394566571523147 -2.452210038814324 1.6461980488810832 2 1 1
131 37 4 0 -1.4417367223349218 -1.9649632180861243 1.6227954809358556 2 1 0
94 25 4 0 -1.6377851862427142 -2.336154160721532 1.5625827304420516 2 1 1
129 37 2 0 -1.1674830164652201 -1.7123530354244392 1.8886106094834636 2 1 0
19 4 3 0 -4.387885190909365 -3.989429866007872 2.7150962952286397 2 0 0
221 67 4 0 -4.1085410128924975 -4.059419367852407 2.4508018136228227 2 0 0
18 4 3 0 -4.159900326600329 -4.675846680314109 2.6977547339349623 2 0 0
281 87 4 0 -3.075035258589545 -4.7095540236409486 2.3588726727746403 5 0 -1
219 67 2 0 -3.8866112045776506 -3.7705229272449055 2.1748031678763793 2 0 0
85 22 4 0 -4.510147520396016 -2.849149764765375 2.1370718131237334 3 -1 0
220 67 4 0 -3.671781422080012 -3.47706278322067 1.9057909218203841 2 0 0
250 77 4 0 -4.146542077306248 -2.677611276068876 2.181237475734817 3 0 0
249 77 2 0 -3.746793814597856 -2.5111823678308576 2.264768410400549 3 0 0
251 77 4 0 -3.3349819924338164 -2.333854019748474 2.339579846833119 3 0 0
169 50 4 0 -3.0087206593390765 -2.1613637990838406 2.4760848858909803 2 0 1
168 50 2 0 -2.6352068999797065 -1.9566705663147035 2.665334126134165 2 0 1
130 37 4 0 -0.9009858575179703 -1.466662674422019 2.141971570656061 2 1 0
143 41 4 0 -0.5210033308806326 -1.5169342978410407 2.252143407761092 1 1 0
141 41 2 0 -0.07382972271115218 -1.4753290822590919 2.225505767937542 1 1 0
16 4 1 0 -4.472158190418289 -4.405270165605938 2.8462770201567285 2 0 0
295 92 4 0 -4.292661054938618 -4.147525567436423 3.5285819498172275 2 0 0
294 92 2 0 -4.0258028388196925 -3.8381994707637617 3.731506401113415 2 0 0
20 4 3 0 -4.481276035382151 -4.415975150486389 3.2990570693886925 2 0 0
199 60 4 0 -1.9040870943579722 -1.912079564833582 2.941640585494091 2 0 0
40 8 3 0 -3.9271020853963967 -1.548498155207266 3.198551120468993 2 1 0
39 8 3 0 -4.098366273748418 -1.030212944582006 3.70208120805155 2 1 0
36 8 1 0 -3.7715138143806763 -1.2239980479221009 3.508510160281298 2 1 0
136 39 4 0 -3.1180381806400668 -1.3882086008879715 3.776914128019105 4 0 0
170 50 4 0 -2.265787755530222 -1.7555108237095118 2.850819280644095 2 0 1
198 60 2 0 -1.4679823682364268 -1.8653986417735302 2.9851620190027255 2 0 0
200 60 4 0 -1.0254208717335884 -1.810850303085826 3.032879949270991 2 0 0
35 7 3 0 -0.728295930000276 -1.5710051938553042 3.193436688611749 2 0 0
31 7 1 0 -0.6946154312973318 -1.167970186011381 3.3949029010532614 2 0 0
33 7 3 0 -0.2362192750984109 -1.053107110558198 3.459023348989576 2 0 0
37 8 3 0 -3.530658090740179 -0.9217499824301676 3.3021593310378003 2 1 0
124 35 4 0 -3.2903299319749086 -0.7655197248595473 3.0270047225421637 2 1 0
123 35 2 0 -2.900279752435277 -0.5892960064568813 3.0408401762419572 2 1 0
125 35 4 0 -2.4685084341016905 -0.3935520938957753 3.0559855447567115 2 1 0
188 56 4 0 -2.0983000977171393 -0.511857727339315 2.8973204628619404 1 1 0
186 56 2 0 -1.6923136839714301 -0.6632922869602638 2.982283041590878 1 1 0
187 56 4 0 -1.2776883234176788 -0.8117195367334968 3.0627784746412985 1 1 0
32 7 3 0 -0.8959947466235461 -0.8625433707018546 3.1452307148599763 2 0 0
296 92 4 0 -3.757517802693379 -3.524735274036652 3.942378584258784 2 0 0
103 28 4 0 -3.591651975077671 -3.454750186662461 4.311135728564122 2 0 1
102 28 2 0 -3.435107970767809 -3.062491682840368 4.463521187218427 2 0 1
104 28 4 0 -3.2838584656388026 -2.6619721449295892 4.6265739294446435 2 0 1
38 8 3 0 -3.520621446286796 -1.4239530377163097 3.8116332335296947 2 1 0
135 39 2 0 -2.7698769116285087 -1.3222272914484439 4.065254142717156 4 0 0
137 39 4 0 -2.434755282203112 -1.2569752730812631 4.347735342908266 4 0 0
68 16 4 0 -2.0772363520894226 -1.2951069777594242 4.123423815714193 2 0 0
66 16 2 0 -1.6343268636277801 -1.344013629122716 4.054846545234697 2 0 0
67 16 4 0 -1.1736316667916884 -1.3986944786040798 3.982090089306415 2 0 0
34 7 3 0 -0.903001587348105 -1.1869275720233978 3.7946121325264732 2 0 0
45 9 3 0 -2.94452516100138 -0.6379615255939379 4.621749119053878 2 0 0
275 85 4 0 -2.595933783527496 -0.5537590610464154 4.415983871807387 2 -1 0
273 85 2 0 -2.244672674998293 -0.3465334604451611 4.145190588118754 2 -1 0
274 85 4 0 -1.913413459466553 -0.15027590187268025 3.8934759340033116 2 -1 0
232 71 4 0 -1.535460849529346 -0.010252229443899807 3.826531464961687 2 -1 0
156 46 2 0 -2.673417341231866 0.08944141896590985 -3.8568673935628315 2 0 0
90 24 2 0 -2.632522337176501 3.48093381046811 -4.632266300651991 2 0 1
91 24 4 0 -2.2791653123992672 3.732852131642315 -4.5098269917474445 2 0 1
64 15 4 0 -1.9012472558579652 3.9209006534969264 -4.446103261213094 3 -2 0
63 15 2 0 -1.5448833487927836 4.212927952498119 -4.411431936591787 3 -2 0
65 15 4 0 -1.2005826475560024 4.49722864040518 -4.369546402554958 1 -2 0
319 100 4 0 -4.666972344148971 0.174014988226876 -3.394198806289422 2 0 1
157 46 4 0 -2.4617524794894265 0.2942308307123316 -3.5183857784641526 2 0 0
263 81 4 0 -2.1300730247058244 0.31933185431179734 -3.3013986145068817 3 1 -1
261 81 2 0 -1.799862141133492 0.5315995181759927 -3.1116539232232547 3 1 -1
262 81 4 0 -1.4535022767727552 0.7598781135703705 -2.915707823711511 3 1 -1
244 75 4 0 -1.1083252945968378 0.8068010446908076 -2.6876893640175905 3 0 2
243 75 2 0 -0.7093490368280584 0.8653362233931414 -2.476728743192063 3 0 2
245 75 4 0 -0.2915426546329343 0.9228945821296461 -2.266723872362229 3 0 2
225 69 2 0 -0.2327606870162029 4.296564636323407 -2.3613263519699195 1 -2 0
227 69 4 0 -0.45713771175836815 4.1042728207287 -2.0182536376402607 1 -2 0
226 69 4 0 -0.011000452519118298 4.48905074321462 -2.7015246428442077 1 -2 0
205 62 4 0 -1.1484020317735268 0.9343615056157519 -0.9944496923932564 2 0 0
151 44 4 0 -1.5622798719006252 3.1727746062957545 -1.145344815268389 2 0 0
202 61 4 0 -1.2350492284825343 3.3849269423495896 -1.2640444227138605 3 -2 1
201 61 2 0 -0.9435141558178226 3.6171926840714095 -1.5339872529018206 3 -2 1
203 61 4 0 -0.6536991785258452 3.847375888165767 -1.7883716760816908 2 -2 1
204 62 2 0 -0.890385733618547 0.805175127212908 -0.6514646288256101 2 0 0
206 62 4 0 -0.6274259265693232 0.6709996967833911 -0.30126657176623706 2 0 0
287 89 4 0 -0.7299681559183533 0.34710939210692615 -0.08555469080386136 2 -1 0
239 73 4 0 -3.7962220843262733 2.3309818543753424 -0.1680614404238545 4 -1 0
74 18 4 0 -3.426408051133513 2.42818311712469 -0.2775010989328752 3 -1 1
72 18 2 0 -3.000386614953584 2.5784494727514895 -0.4085210741346268 3 -1 1
73 18 4 0 -2.5880971105278467 2.7286778294553304 -0.5357008424505896 3 -1 1
152 44 4 0 -2.200167893593958 2.73039710629764 -0.626802287998566 2 0 0
150 44 2 0 -1.885072748000129 2.9534152800048457 -0.8887873558999999 2 0 0
285 89 2 0 -0.38950696506490523 0.17522780522248027 0.1601556704228999 2 -1 0
286 89 4 0 -0.05827869688573806 0.009280875075713624 0.40236298449558383 2 -1 0
237 73 2 0 -4.216618822677599 2.2027631294969394 0.04039109967794996 4 -1 0
238 73 4 0 -4.618582976504607 2.078854314421392 0.2374431156152328 4 -1 0
154 45 4 0 -1.2997034038996325 3.2152255214844336 0.7749502159577668 3 -1 0
132 38 2 0 -3.8533247355568037 3.496813846359271 1.8355288239787386 4 -1 0
278 86 4 0 -3.0836513621924553 3.2850422114419837 1.645650254204126 5 0 1
134 38 4 0 -3.4115889430215702 3.491064284306188 1.7191686140053957 4 -1 0
276 86 2 0 -2.6435857444371433 3.2922386384245934 1.5775460615459727 5 0 1
277 86 4 0 -2.2022199746216358 3.290509904328027 1.5110777826137918 5 0 1
155 45 4 0 -1.8892813457668893 3.054363109259774 1.4271316810639538 3 -1 0
153 45 2 0 -1.5859176495862837 3.137638882288946 1.0935912107792678 3 -1 0
242 74 4 0 -4.643738092297642 0.9258295545389599 2.7473943824507465 3 0 -1
108 30 2 0 -0.1523055933100652 0.4166877972390788 2.8039611792987396 2 -1 0
97 26 4 0 -4.29573847451092 1.0267409481669558 2.5642030027261615 3 -1 0
96 26 2 0 -3.846722851315934 1.1381973141162849 2.6507416157470365 3 -1 0
98 26 4 0 -3.427960334191334 1.2415481906424306 2.7404945709437456 3 -1 0
116 32 4 0 -3.047348865875027 1.3146469650028036 2.8363789869288683 2 -2 0
114 32 2 0 -2.5964992080599307 1.393374785047805 2.82805046975953 2 -2 0
115 32 4 0 -2.157939873699448 1.4790677633162446 2.8140776167154966 2 -2 0
78 20 2 0 -1.3219262193555066 1.7136610864454749 2.804318103076718 2 0 0
79 20 4 0 -1.7580468736267814 1.5892949711182673 2.818600290807618 2 0 0
80 20 4 0 -0.8925162894946097 1.8274903973545955 2.7871075438849324 2 0 0
310 97 4 0 -0.5156122461192041 1.8782701146450753 2.6571062853189664 2 -1 1
309 97 2 0 -0.11273314728272599 2.028993444826532 2.6766782869550285 2 -1 1
259 80 4 0 -4.610722079223314 3.341501981732306 2.132086957799989 4 0 -1
133 38 4 0 -4.293599307598126 3.5053032341282746 1.9499175078147681 4 -1 0
280 87 4 0 -3.9720514774512936 4.553616429471341 2.421234843576337 4 -1 -1
279 87 2 0 -3.5383646922695444 4.659039659235503 2.39076920703016 4 -1 -1
231 71 2 0 -1.1946041059080383 0.13553025503280214 3.5581564690140395 2 -1 0
233 71 4 0 -0.8479835403727711 0.2806582227726384 3.2934680497391726 2 -1 0
109 30 4 0 -0.5114919238560125 0.3017158692995654 3.0499811555538434 2 -1 0
184 55 4 0 -4.49363629886066 2.3787105252449683 4.524770173116857 3 1 0
167 49 4 0 -4.150956152533683 2.5861836705309162 4.482785822171228 3 0 1
165 49 2 0 -3.7582592066951 2.8187708951899753 4.562081478519532 3 0 1
166 49 4 0 -3.3655368770434526 3.048948964395408 4.640408770311775 3 0 1
92 24 4 0 -2.993378795083361 3.216280077020355 4.707190330854464 2 0 0
12 3 3 0 0.22304705366656652 -3.961889036056485 -4.355393034210065 1 -1 1
11 3 1 0 0.5043512661458252 -3.703791161791687 -4.114193445447219 1 -1 1
15 3 3 0 0.30097743046736714 -3.3356190343482903 -4.009056318780035 1 -1 1
292 91 4 0 0.25084271706592176 -2.9641490702624287 -4.170143543863336 1 1 0
14 3 3 0 0.8961264306099519 -3.601791300704097 -4.3759663617635445 1 -1 1
119 33 4 0 1.2697442011231823 -3.4194881910770722 -4.348172787051719 1 0 0
117 33 2 0 1.7028072977734627 -3.2519623932042117 -4.3789475632130905 1 0 0
118 33 4 0 2.151652135290136 -3.0760636148336333 -4.411831876727855 1 0 0
291 91 2 0 0.405992658815185 -2.5371767519931665 -4.079357563864628 1 1 0
293 91 4 0 0.5626945435923805 -2.103434290421769 -3.989305007425382 1 1 0
182 54 4 0 0.8931330192874709 -1.9699618886046855 -4.218653881171501 1 1 0
122 34 4 0 2.4781778882163215 -2.8232787604840888 -4.377402561762217 2 -1 0
120 34 2 0 2.897877852981373 -2.589333583684767 -4.391523896302048 2 -1 0
121 34 4 0 3.3180322040397465 -2.363314849639031 -4.402338634080926 2 -1 0
3 1 3 0 3.6867533538930255 -2.1657852664129877 -4.46551739017472 1 -1 0
180 54 2 0 1.0554127099051636 -1.581888715337389 -4.042003093411979 1 1 0
181 54 4 0 1.211159080208243 -1.194071962401603 -3.8646582255770414 1 1 0
191 57 4 0 1.5737445949420987 -1.0146859637393728 -3.9027166220514324 1 1 1
5 1 3 0 3.6794697129762346 -1.4089364211134487 -4.478182585101266 1 -1 0
218 66 4 0 3.369923506453227 -1.1712946410425813 -4.544743565642136 2 0 0
4 1 3 0 3.929182135320338 -1.7487698819105795 -3.8845595456186954 1 -1 0
1 1 1 0 3.9055871708623924 -1.763863380138814 -4.330478137909101 1 -1 0
2 1 3 0 4.340545046216431 -1.7532235244433911 -4.513796645036092 1 -1 0
59 13 4 0 4.673946392959686 -1.5159965604976025 -4.459034347015313 1 -1 0
189 57 2 0 1.92198043364224 -0.8573299084375932 -4.123251465056992 1 1 1
190 57 4 0 2.2815497776990092 -0.6949926193212184 -4.358031434274365 1 1 1
228 70 2 0 2.7263505064255193 -0.07994296091083619 -3.945952184832533 2 0 1
229 70 4 0 2.4652986993811767 -0.4126055955969745 -4.131817506676446 2 0 1
13 3 3 0 0.6223943435585602 -3.924268794907174 -3.7462811379491963 1 -1 1
256 79 4 0 0.3175015254357856 -4.101665158567496 -3.6059353472664704 1 0 1
255 79 2 0 0.2158628020283233 -4.429685575388911 -3.288835642681879 1 0 1
253 78 4 0 4.610470964595458 -3.959977252486311 -3.5712721691885565 2 0 1
107 29 4 0 3.759794781101573 -1.58250924485874 -3.541873103341837 1 -1 1
106 29 4 0 4.428986139587525 -1.216070206289186 -3.0550810813456635 1 -1 1
105 29 2 0 4.0977206755758155 -1.3953602001362428 -3.289440994196086 1 -1 1
71 17 4 0 4.59078951238753 -0.8602162825705406 -3.1436764479354533 2 0 1
192 58 2 0 0.3861223302980701 -0.42838971788983304 0.6885974646152935 1 0 0
193 58 4 0 0.006091055623900665 -0.3870475882636413 0.4313442960788638 1 0 0
301 94 4 0 3.330330013546539 -3.9753433219498837 1.228766239607162 4 0 1
300 94 2 0 3.5776691473673443 -3.6823115530264214 1.4982777545572485 4 0 1
302 94 4 0 3.8288459996720965 -3.3996048656201143 1.7579906732740245 3 0 1
194 58 4 0 0.7772846604244004 -0.46126931545834005 0.9497785368098901 1 0 0
161 47 4 0 1.1682341082432721 -0.49262301468854375 1.0013928442991915 2 1 0
159 47 2 0 1.4757932130613618 -0.17976952234131716 1.111111409514021 2 1 0
83 21 4 0 3.10510207749041 -4.505413661362663 2.7634299250821774 2 0 -1
112 31 4 0 3.42406945552164 -4.700592205890497 2.6746320073908665 3 0 0
111 31 2 0 3.8854581938003276 -4.7084719974837395 2.5592353278132443 3 0 0
17 4 3 0 4.591242230268073 -4.5315482675458325 2.6774167173783914 2 0 0
113 31 4 0 4.327702707662476 -4.717346155070499 2.4540816684767597 3 0 0
86 22 4 0 4.117623166412392 -3.2018459003440247 1.9427745550530293 2 -1 0
84 22 2 0 4.5350396154495565 -3.0261358540601284 2.0383110914589055 2 -1 0
265 82 4 0 0.722602380229592 -1.401934806766632 2.3809581799691246 1 0 -1
142 41 4 0 0.36025545575122386 -1.4370531085838216 2.202992099572584 1 1 0
264 82 2 0 1.106068731840109 -1.4262094307296138 2.5896126907816557 1 0 -1
299 93 4 0 1.8011206586147281 -1.4444626968811058 2.554429136326143 1 0 0
266 82 4 0 1.5048108312711674 -1.4515114119376946 2.7970431691568116 1 0 -1
297 93 2 0 2.2334388579255293 -1.4612209173176463 2.6983046914797564 1 0 0
82 21 4 0 2.8817590564108313 -4.287814452935925 3.599438432054714 1 0 -1
81 21 2 0 2.999484077678626 -4.395362616480722 3.1735149639656735 2 0 -1
298 93 4 0 2.6739999447529703 -1.482474323791842 2.8448293687291155 1 0 0
128 36 4 0 2.7790148176313574 -1.130719200184025 3.0147857423793143 1 0 0
126 36 2 0 2.9964672380707675 -1.035047446130167 3.4047048489430916 1 0 0
306 96 2 0 0.40506149900927557 -0.5904387629335917 3.728168978127635 2 0 0
308 96 4 0 0.1449335745304241 -0.9304885225244446 3.5415251088537056 2 0 0
314 98 4 0 2.81497086308336 -4.124007946298147 3.948254245171296 2 0 -1
312 98 2 0 2.8451507397565345 -4.381257383863051 4.3338898938115955 2 0 -1
313 98 4 0 2.878189431602296 -4.639385537112143 4.72286767923056 2 0 -1
216 66 2 0 3.1976680361209278 -1.0233104086213545 4.539642567656995 2 0 -1
307 96 4 0 0.6584505446661852 -0.25778403400412664 3.907309190075037 2 0 0
28 6 3 0 1.0089686776255338 -0.07289405720860032 3.9960798464581755 2 -1 0
127 36 4 0 3.2278445222254133 -0.9329698020279289 3.805838754662136 1 0 0
217 66 4 0 3.021181687845319 -0.8696374018037005 4.150098702322755 2 0 -1
210 64 2 0 3.49045740424923 0.7279153225534163 -3.8449373919034566 2 0 0
212 64 4 0 3.085652515087693 0.5824003372779778 -3.9598956192290933 2 0 0
270 84 2 0 3.7001197504868104 3.2385571830533246 -4.14594186142846 1 0 0
271 84 4 0 3.3536773573480394 3.1531390623264164 -4.400160641627646 1 0 0
272 84 4 0 4.052769363197208 3.3202538089368074 -3.8867131884160213 1 0 0
230 70 4 0 2.977259122338647 0.23407376127948076 -3.76929859714237 2 0 1
211 64 4 0 3.895423195174799 0.8823533508527097 -3.72807432098134 2 0 0
318 100 2 0 4.535643081437105 0.5341732089450559 -3.513348866431823 1 0 1
320 100 4 0 4.283913745402725 0.8772251903906687 -3.622304464863725 1 0 1
213 65 2 0 4.1544198745008005 2.5448405337843703 -2.9326051097511505 3 -1 0
214 65 4 0 4.422459073907713 2.8680304584709573 -3.1097058122506342 3 -1 0
47 10 3 0 3.8586790481541415 3.6615905803789195 -2.907815774104594 2 0 1
50 10 3 0 3.955158903894536 3.5844692775506592 -3.61134704853841 2 0 1
46 10 1 0 4.161348948405961 3.6243632857388492 -3.2270074025638733 2 0 1
49 10 3 0 4.398532222889648 3.260996185686583 -3.155421878223705 2 0 1
257 79 4 0 0.12065632899231993 4.722858823645322 -2.9768416420937727 1 -1 1
48 10 3 0 4.428279721154264 3.986422055307849 -3.232618058386941 2 0 1
234 72 2 0 4.717993894400366 4.689018215377131 -3.5123329431196093 1 -1 1
235 72 4 0 4.69481148028179 4.237009721969106 -3.41239348070268 1 -1 1
172 51 4 0 0.03920352304775587 0.9022063001175313 -2.0522945676041715 4 -1 2
76 19 4 0 3.778251598369505 1.0739747371312678 -2.1594372844220153 2 -1 0
75 19 2 0 3.800985375774844 1.4861041626806974 -2.3616978922362284 2 -1 0
77 19 4 0 3.817572075011829 1.8969409981317087 -2.563521258796591 2 -1 0
215 65 4 0 3.8973650992454187 2.231559362903689 -2.768840790675738 3 -1 0
171 51 2 0 0.44551111286506906 1.0183607634497926 -1.8924759216327618 4 -1 2
173 51 4 0 0.854451198708694 1.1516548369389392 -1.7263233767564694 4 -1 2
55 12 4 0 1.0314148830419763 1.2083347243710696 -1.3783958881484155 2 -1 0
54 12 2 0 1.138746635467597 1.4442189722298773 -0.9934524383652756 2 -1 0
61 14 4 0 1.382782462587758 1.4050682406892587 -0.35231718361730646 2 -1 0
56 12 4 0 1.2499700818007735 1.6836795195606893 -0.6061335815024034 2 -1 0
22 5 3 0 1.6909568333514544 1.1753485391537346 0.8820974119807454 2 -1 1
62 14 4 0 1.6363428269127063 1.1910655207575678 0.49770361485676595 2 -1 0
60 14 2 0 1.5117417899388794 1.298950107805843 0.0602396862904806 2 -1 0
317 99 4 0 3.3658093609850566 1.4982977525118306 0.7820329937629467 2 0 1
283 88 4 0 3.775839458408746 1.530530568693326 0.7968087948140035 2 -1 -1
282 88 2 0 4.144768730029647 1.7754784390962337 0.6276173515701844 2 -1 -1
284 88 4 0 4.503634204370061 2.017715628733078 0.4567576317459361 2 -1 -1
160 47 4 0 1.7727852026900957 0.1405494241419616 1.222810632047608 2 1 0
149 43 4 0 1.3113731981129 0.8437908868073674 1.810550583929916 2 -1 -1
24 5 3 0 1.6373425102947214 0.8609275618676939 1.564118292068997 2 -1 1
21 5 1 0 1.8749176470808848 0.8641679427251505 1.1708217039962427 2 -1 1
25 5 3 0 1.8637437345273362 0.4468118949616402 0.9758905707238608 2 -1 1
23 5 3 0 2.301279174916944 0.9716107497983728 1.2482349422827053 2 -1 1
316 99 4 0 2.69514057722768 1.0484829530651831 1.1672751502052563 2 0 1
315 99 2 0 3.0319438485598997 1.2775778293844295 0.9745881298696366 2 0 1
110 30 4 0 0.22206007932490834 0.5445098604279464 2.550386897762083 2 -1 0
148 43 4 0 0.5598645416892927 0.6309018739512071 2.359884174874094 2 -1 -1
147 43 2 0 0.9369814286812028 0.7364560779850517 2.0764685249832757 2 -1 -1
240 74 2 0 4.386913270525059 0.9168069946303303 2.832333280201313 2 0 -1
179 53 4 0 0.6245198457004157 2.2215595006302227 2.4534303397778414 3 -1 1
311 97 4 0 0.3058818489647557 2.178738344997215 2.7021749760766136 2 -1 1
177 53 2 0 1.087855963130533 2.2478334610218536 2.470218394131316 3 -1 1
178 53 4 0 1.5374759091453898 2.2728161463794274 2.4842333558155953 3 -1 1
224 68 4 0 1.905910427375165 2.4347203387924132 2.4833853099600782 3 -1 0
222 68 2 0 2.2874238156051208 2.6714562081026214 2.353853144506105 3 -1 0
223 68 4 0 2.664546549172475 2.9093446076486513 2.2297246290384587 3 -1 0
175 52 4 0 2.7908063707675135 3.267152826433251 2.122430985090676 2 0 1
176 52 4 0 3.7066995353963614 3.409246077097948 2.228646921381756 2 0 1
174 52 2 0 3.234061752463999 3.3347143533545323 2.177885576929916 2 0 1
260 80 4 0 3.9759176475573854 3.1129872820201188 2.288915058998615 3 0 -1
258 80 2 0 4.411536260988282 3.2222435488055945 2.214379884313111 3 0 -1
207 63 2 0 1.8381632738237679 0.5973383303084656 3.3520902694057204 3 -1 -1
208 63 4 0 1.403741847096664 0.6143773664925583 3.50656325245284 3 -1 -1
29 6 3 0 1.0506285620999103 0.6199089443860801 3.716284153548629 2 -1 0
209 63 4 0 2.2913378093906056 0.5668513132192281 3.194716327005181 3 -1 -1
88 23 4 0 2.6963190295967676 0.6319654994193584 3.171504441496168 2 -1 0
87 23 2 0 3.113652786956222 0.737761167004992 3.043216057137305 2 -1 0
89 23 4 0 3.5231636646562583 0.8484258928654738 2.914816044097278 2 -1 0
241 74 4 0 3.925751690083609 0.9147597894584028 2.929295678155248 2 0 -1
27 6 3 0 0.7502112068327884 0.5190845179920425 4.367015198761256 2 -1 0
146 42 4 0 0.42910126539940485 0.30953920311739935 4.50935559670465 1 0 0
144 42 2 0 0.05575114466904818 0.05875609434570617 4.6202130542352 1 0 0
26 6 1 0 1.0699760511750807 0.38381054091679534 4.093952774201097 2 -1 0
30 6 3 0 1.484417989271205 0.4517091211675801 4.30073532658882 2 -1 0
268 83 4 0 1.8300670623178474 0.6350011750704718 4.434597061657656 2 1 -1
267 83 2 0 2.2246309812590184 0.8857507810952425 4.39545832968101 2 1 -1
269 83 4 0 2.6240277220779946 1.1347770616142494 4.361888700774677 2 1 -1
196 59 4 0 2.9932868382439812 1.3492310117028667 4.3898307470194995 3 0 -1
195 59 2 0 3.422680884850375 1.5547048305324607 4.406676826089922 3 0 -1
197 59 4 0 3.829653214021607 1.7577971032708737 4.4231398374936015 3 0 -1
183 55 2 0 4.553583163594868 2.196094122935887 4.468530087705301 2 1 0
185 55 4 0 4.1475419709604635 2.0104874387572886 4.414701292066064 2 1 0

Velocities

162 0.3702922475832142 0.19990839176071049 -0.02172674925307829
164 0.33208112418474284 0.3260797853529984 0.21736311761089067
163 -0.4659303399347202 0.43939473280569297 0.25587896781322733
304 -0.9741976290329384 -0.054388363230510293 -0.6300691824707405
254 0.019114583781520342 0.5837031463593222 -0.1407399424855582
303 0.2277511667998883 0.10151098830931646 0.2591928086927815
305 -0.1556515172257526 1.1308079835748475 -0.6362523643756274
10 -0.19658663148250496 -0.10430848623958182 0.42097556361474486
7 -0.04335101179921719 -0.41893008197067316 -0.9799436854933654
6 -0.10420803418961298 0.35835011894050295 -0.007238722910192705
9 -0.3022452526168776 1.158353717986339 -0.8491101585851625
8 -0.7190396521715241 -0.685355454444706 0.39039793636833914
57 -0.00689420979014576 0.24787140114845796 0.1793173322556132
58 0.13965639410493078 -0.5242954100038326 -0.14164946214447793
289 -0.10332872373183524 0.08628445060056372 -0.4208856440806238
44 0.06478285772146539 -0.04197149685734671 -0.32506611956408105
139 0.16987543765584856 -0.10893477832452317 -0.6786100006644935
138 0.13506383245468323 -0.050715341011562574 -0.05055005194530879
140 0.3742142257025932 -0.4420358230480014 0.22430113474209554
100 -0.03598111155158502 -0.1207560201288448 -0.16239444793527122
42 0.4402891410235212 0.26469687670987097 -0.19956751649660323
41 0.07621448348649294 0.10202739575206118 0.22621726041680085
43 -0.30718177506438804 0.4239257512096446 1.281396250130992
158 0.7425473744067697 0.490554105886141 0.9502064043360586
99 -0.028338955956641092 0.011444735669274262 -0.37816284803352485
101 0.45872486507134863 -0.24565491250952196 0.2396637400950273
145 0.46344318477480334 -0.7260007669709636 -0.7687761598988947
236 -0.026904279527126613 -0.6940272974311552 0.22828518130411166
252 0.16902778827659598 0.10915064031093374 0.4043603018539498
51 0.3134557874490253 -0.1239885262557528 -0.07289344538318765
52 0.09383851505978136 -0.16915031672452258 0.3454354348826749
53 0.2899643464278714 -0.35325405990553455 -0.8264780380061247
69 -0.03537063241271633 0.00033274702722899206 -0.24451814013447903
70 0.253765384965149 -0.3935565523927522 0.1328980417371222
288 -0.049520293088300874 0.17611735542188361 -0.03906344768083402
290 -0.27903188882410823 0.17349519774807737 0.10782046365838252
246 -0.053550788998510825 0.0939142503184561 0.26484541062516165
247 -0.5088481842300427 0.09710360891668264 -0.2699099201257309
248 1.042399547273359 -0.026779419131505944 -0.3613525723822169
93 0.027131892474623692 -0.10149534595295887 -0.1204999081317953
95 0.29469152581690045 -0.33246616017981345 -0.35179303715415045
131 -0.8757841437339882 -0.02613119738682263 0.18650858162919667
94 0.3014406364094172 0.24732694253026888 -0.17730950187964775
129 -0.07859448495973204 0.3661297951204943 0.06386883472293993
19 -0.21842146894914555 -0.4509180588163867 0.16367558872337934
221 0.3767850388632152 -0.08599222382317576 -0.1296695743847449
18 0.10997631884310138 0.035452640710354553 -0.0552028399761988
281 0.6063730045101942 -0.562380230029134 -0.38195492021239963
219 0.05318605893590912 -0.25472370327232124 0.11469147953526242
85 0.6144497045494784 0.0829653231510436 -0.7373201181531389
220 0.15225143412441736 0.7901732509370107 -0.045925785389954996
250 -0.020381223504094787 0.9390547961348915 0.1570811683068825
249 0.1880906518266209 0.06761570775641307 -0.12605116867003938
251 -0.811501407825128 -0.7914822155623107 0.28836464112164223
169 -0.5299756698176157 -0.21335965873491528 0.46791966247689737
168 0.10895092731040687 -0.09350159949742573 -0.0541695662185924
130 -0.4178890720256303 -0.3585588489146019 -0.4940939521889759
143 0.4219560046915707 -0.16988313647492398 -0.040420333019245885
141 0.01976177683256295 0.04346769031983068 0.0520950771349714
16 0.2679332124375976 0.020638348412156844 -0.06038219778082069
295 -0.44441608252626735 0.5152607225568034 -0.10426205802100175
294 0.34839112053706306 -0.1844740869793889 0.07767395806383938
20 0.3518970384626771 0.15370730919465106 0.11662161732091482
199 -0.5961797190723706 0.13207739958018958 0.9376040820033816
40 0.5644289098238479 -0.264568994973548 -0.3860364756558508
39 -0.16819988105240727 0.13961912098831006 0.09380799575073799
36 0.04473922117767305 -0.07019043875986172 0.07083641805874487
136 0.5296987451109716 -0.6598677194005189 -0.4354675992459131
170 0.39891378805220523 -0.022241831278762586 0.0892984949480585
198 -0.06012294810315129 0.10339915082245815 0.09993331202326566
200 -0.8845079648682345 0.29386425963964447 -0.2931112094078156
35 0.8204310896971756 0.10659113430424773 -0.06735132188725357
31 0.0015061726073007757 -0.06179208790666503 0.10731968328370832
33 0.6350939409359779 -0.3989143263046393 -0.8150457556868228
37 -0.007926227630277456 0.2510394239050618 -0.017224482483571273
124 -0.29570045435126097 0.4393582801273984 -0.2727081151058464
123 0.017375629233449968 -0.19216101963706028 0.34070087250005654
125 0.7525770796990451 -0.3879427867021063 0.3274764407645946
188 0.307433806233797 0.2587335247219257 0.3114693302904755
186 0.14373240547052468 -0.1473267654656056 -0.024575623736957097
187 -0.8172158960032345 -0.31738328467370613 0.4907269974845362
32 -0.13253300703812051 0.11755863730617858 -0.2908353482564551
296 0.6337633068209225 0.864224972509887 0.05129827914734902
103 -0.6346946555024781 0.30473094171244586 0.8076655884537173
102 0.279635876625974 -0.13344694590155912 0.055914094101341544
104 1.084473968974575 -0.9482801077671689 -0.6261455430286331
38 0.0688628887110772 -0.11141543307083174 0.11876601974693948
135 -0.0620161286783525 -0.05099085360994874 -0.024244673487957856
137 0.20331369769544505 -0.7394111231135605 -0.49195387473512064
68 -0.1283090557034673 0.43777449079418024 0.010526718223616664
66 0.36915223100225675 -0.12490911387147322 -0.02987979480966329