LAMMPS data file via write_data, version 19 Nov 2024, timestep = 10000000, units = lj

320 atoms
4 atom types
220 bonds
1 bond types
150 angles
2 angle types

-4.735095 4.735095 xlo xhi
-4.735095 4.735095 ylo yhi
-4.735095 4.735095 zlo zhi

Masses

1 1
2 1
3 0.1
4 0.1

Bond Coeffs # harmonic/omp

1 100 0.45

Angle Coeffs # harmonic/omp

1 100 180
2 100 109.471

Atoms # full

226 69 4 0 -0.3306502575488518 -3.2849916721471892 -0.9240520149576698 -1 -1 0
234 72 2 0 -3.8717681393529015 -4.313759119985424 -4.221132080403647 -1 0 1
236 72 4 0 -3.960905707311787 -3.8698015868012225 -4.16365328141228 -1 0 1
253 78 4 0 -4.011495457843414 -3.6281288165361882 -3.850400510864546 1 0 1
252 78 2 0 -4.269943374959523 -3.270609428511841 -3.8582239141608667 1 0 1
254 78 4 0 -4.559076647763487 -2.8926539832715092 -3.870737207155357 1 0 1
190 57 4 0 -3.3270043788060355 -1.6578743830516254 -4.588078597752776 0 1 1
180 54 2 0 -1.8503624298107864 -2.0342978318743 -4.186797770363344 0 1 0
181 54 4 0 -2.211228435692926 -2.1904779115042854 -4.457558437022829 0 1 0
182 54 4 0 -1.4937277651731 -1.866109845480874 -3.9254501246146565 0 1 0
189 57 2 0 -2.942569126173586 -1.8731102952102099 -4.608139554679993 0 1 1
291 91 2 0 -1.3860594629857705 -1.7284521606443328 -3.2052978826005893 0 1 0
212 64 4 0 -4.17067914617633 -1.1868406233046294 -3.422120178588482 1 0 0
210 64 2 0 -4.348150482587412 -0.8788791129037007 -3.124935442324659 1 0 0
230 70 4 0 -4.182390192699275 -1.1966839386036763 -3.8288256077664427 1 0 1
228 70 2 0 -3.8747333691161514 -1.4145187617747355 -4.050751931015708 1 0 1
229 70 4 0 -3.5706334399333817 -1.6320283108881954 -4.272108888645216 1 0 1
257 79 4 0 -0.502357224748891 -3.29814779684925 -1.298298417438069 0 0 1
293 91 4 0 -1.5714911270977554 -1.6467839667561992 -3.602090513836132 0 1 0
122 34 4 0 -0.491345846439624 -0.6866400285270574 -3.423151899510957 1 -1 0
120 34 2 0 -0.700213299381775 -0.315061831426673 -3.583992646517143 1 -1 0
118 33 4 0 -0.42693798001674904 -1.0688245812642332 -3.3238098844256894 0 0 0
63 15 2 0 -0.7435416859738964 -4.506298417005975 -3.068043219227914 0 -1 0
65 15 4 0 -0.9930359932008822 -4.208000606512366 -2.880240646572175 0 -1 0
163 48 4 0 -1.1644723605037297 -3.8964932521541558 -2.6798088066990458 -1 1 -1
162 48 2 0 -0.916141375752838 -3.5322289663447095 -2.5963859027424254 -1 1 -1
164 48 4 0 -0.659786481994065 -3.160792430509049 -2.510891061903599 -1 1 -1
292 91 4 0 -1.1937703413405367 -1.815275925326402 -2.792135525819483 0 1 0
12 3 3 0 -0.6428832388143884 -2.822069683983816 -2.774416407902209 0 -1 1
14 3 3 0 -0.18780856269213544 -2.1988808976114065 -2.721226313423253 0 -1 1
15 3 3 0 -0.9341617165012207 -2.1056311694446728 -2.7478776231928426 0 -1 1
11 3 1 0 -0.5927179308815479 -2.3771007682359224 -2.5912569904020026 0 -1 1
13 3 3 0 -0.6232951107705453 -2.396239871947418 -2.1573639913363922 0 -1 1
256 79 4 0 -0.5005026801583878 -2.7353487197665682 -2.0143974279134533 0 0 1
119 33 4 0 -0.2040500789517424 -1.8393779951435067 -2.909612475026575 0 0 0
255 79 2 0 -0.5023819775288945 -3.02353298147385 -1.6545128504086952 0 0 1
211 64 4 0 -4.5144985034411516 -0.5761586805618111 -2.8101018975648593 1 0 0
320 100 4 0 -4.475214906957898 -0.2226960539027445 -2.6381515296526548 0 0 1
117 33 2 0 -0.3193195880797563 -1.4475012780607714 -3.1209424910693055 0 0 0
218 66 4 0 -1.4900396242605252 -0.16886321234699203 -4.6885905536007835 1 0 0
191 57 4 0 -2.550429122134189 -2.0895617894529015 -4.629096282474697 0 1 1
39 8 3 0 -0.92511551674067 -3.641030330905322 1.230872115536342 0 1 0
40 8 3 0 -0.5370837709053208 -3.4495534216729724 0.6271186857221344 0 1 0
36 8 1 0 -0.5091327524888366 -3.538027151186296 1.0689656772536604 0 1 0
37 8 3 0 -0.34269688762802714 -3.161592875708253 1.2933988158884369 0 1 0
38 8 3 0 -0.2464587653183949 -3.86801441909052 1.1240762340929942 0 1 0
130 37 4 0 -4.663338190453469 -0.7953064611422813 0.9703553057376398 1 1 0
143 41 4 0 -4.323093193586014 -0.8524904031453876 1.1557313801944011 0 1 0
141 41 2 0 -3.9589456862181653 -1.1104509900580652 1.2394032444363359 0 1 0
142 41 4 0 -3.5813597374553603 -1.3576439880851519 1.31349064464638 0 1 0
194 58 4 0 -1.1017661082397534 -1.076250611413353 1.3845421785899543 -1 0 0
161 47 4 0 -1.1713023360313743 -0.7099569775370462 1.266536074674393 0 1 0
159 47 2 0 -1.2282747675419239 -0.349173062497428 0.9943845072915999 0 1 0
192 58 2 0 -0.6518980202915903 -1.128599186010679 1.4383017870575068 -1 0 0
29 6 3 0 -0.08754925353419331 -1.2611591757326581 4.407527344114137 0 -1 0
193 58 4 0 -0.18846887789356467 -1.1681286418341819 1.4951904545182082 -1 0 0
265 82 4 0 -3.568313181929409 -1.499170034356232 1.6861562477694492 0 0 -1
266 82 4 0 -3.3503072149156554 -1.8321876036239075 2.4794027369760867 0 0 -1
264 82 2 0 -3.461220504349918 -1.6557470266076535 2.0712642564868586 0 0 -1
299 93 4 0 -3.2139417348868227 -1.9182408340513109 2.8624369444629045 0 0 0
297 93 2 0 -2.7557602910576726 -1.884007264794307 2.9742490607968657 0 0 0
298 93 4 0 -2.279687227678132 -1.8511847812127384 3.0754977083957673 0 0 0
124 35 4 0 -0.5492217019960483 -2.9827229846306302 1.5970927109607138 0 1 0
188 56 4 0 -0.23649702011859577 -2.4170615926626726 2.6559700212832342 -1 1 0
186 56 2 0 -0.035635229791343946 -2.564556524589264 3.0382296232503454 -1 1 0
125 35 4 0 -0.23845044365136836 -2.740218212086722 2.4412079775001 0 1 0
123 35 2 0 -0.4000527059440545 -2.8677897191837745 2.0130676980372386 0 1 0
208 63 4 0 -0.30050099297064226 -1.0293340022772342 4.1597688489337905 1 -1 -1
87 23 2 0 -0.1475147296139706 -0.47494742516908023 2.60392621358243 0 -1 0
88 23 4 0 -0.3908803217483353 -0.5656058704332274 2.9804013032495336 0 -1 0
66 16 2 0 -0.4803665215558278 -4.15305454503751 4.234985867607077 0 0 0
68 16 4 0 -0.6447594090573625 -4.550321422416227 4.345563467314103 0 0 0
67 16 4 0 -0.31509166103512926 -3.72955398318891 4.121790426704424 0 0 0
286 89 4 0 -0.04398540044051739 -1.041653741840039 1.1484936822105658 0 -1 0
207 63 2 0 -0.35980928263628276 -0.8022617541438487 3.775425879420264 1 -1 -1
128 36 4 0 -1.9766927775091672 -1.5888631899158823 3.141576137161171 0 0 0
216 66 2 0 -1.6342255214696326 -0.4670400308562229 4.445092124560181 1 0 -1
209 63 4 0 -0.42569651373200745 -0.5856692018211751 3.393000804554647 1 -1 -1
217 66 4 0 -1.7785899102776643 -0.7452624565455616 4.116377116631672 1 0 -1
127 36 4 0 -1.915650198571213 -1.0066759089768504 3.8743779776642584 0 0 0
126 36 2 0 -1.9462862985130087 -1.292647776985915 3.513713957039075 0 0 0
262 81 4 0 -4.571051172845734 1.1084969077649334 -3.5331380943251904 1 1 -1
261 81 2 0 -4.3315345054017405 1.1579143716803848 -3.921253923302348 1 1 -1
263 81 4 0 -4.091830717398296 1.203328602800747 -4.3089848059178735 1 1 -1
157 46 4 0 -3.7391171966614483 1.3862081039376046 -4.373981334590866 0 0 0
107 29 4 0 -2.0364005190505554 0.2911653977410357 -3.5887816140317867 0 -1 1
4 1 3 0 -2.000725319892337 0.24287091130878888 -3.969293406346453 0 -1 0
59 13 4 0 -1.8596920618223123 1.0337668435240184 -4.008854467634242 0 -1 0
57 13 2 0 -1.9747722912600472 1.4832077418338083 -4.009538747225601 0 -1 0
105 29 2 0 -2.3794587955381283 0.43019285017887166 -3.373911960928851 0 -1 1
5 1 3 0 -1.56768136270203 0.23817601403062091 -4.60741034587747 0 -1 0
1 1 1 0 -1.5856499994649116 0.36894582447322183 -4.1530613925410185 0 -1 0
3 1 3 0 -1.2469788120463758 0.16152991594408847 -3.925105084379697 0 -1 0
2 1 3 0 -1.5435841926617437 0.833579741565324 -4.124993297902243 0 -1 0
215 65 4 0 -4.332199030937267 2.663940081754914 -4.286855461752696 1 -1 0
77 19 4 0 -4.1364842364383705 2.5969382400871215 -3.942093464960616 0 -1 0
156 46 2 0 -3.360080929900031 1.621585812485251 -4.313876007386949 0 0 0
75 19 2 0 -3.853741660732351 2.5092707511044012 -3.584084578291738 0 -1 0
76 19 4 0 -3.5947610231974427 2.4300075969204706 -3.245750504998042 0 -1 0
41 9 1 0 -2.514809903116775 2.4472428209542993 -4.397137293289523 0 0 1
42 9 3 0 -2.2724205429378905 2.273266467040019 -4.095093124625621 0 0 1
58 13 4 0 -2.087486492421782 1.9105383444502753 -4.016628735730086 0 -1 0
44 9 3 0 -2.672679099617097 2.861427161596301 -4.244193969998277 0 0 1
43 9 3 0 -2.8762415216862802 2.1689725257569554 -4.480638342152419 0 0 1
213 65 2 0 -4.3723109426075215 3.1112605299123146 -4.311929620675311 1 -1 0
48 10 3 0 -4.064071730543306 4.471156842829986 -4.224076640189242 0 0 1
214 65 4 0 -4.415374573917534 3.5541406481607423 -4.334989582959801 1 -1 0
49 10 3 0 -4.25626838091896 3.758943162701712 -4.029291993755969 0 0 1
46 10 1 0 -4.023112953593248 4.146844672098916 -3.904045160454392 0 0 1
47 10 3 0 -3.580433641435501 4.049807137805751 -3.8561148189979724 0 0 1
50 10 3 0 -4.196695883237105 4.308757262523138 -3.497502530668637 0 0 1
272 84 4 0 -4.589190899988732 4.384329078461439 -3.515060652487433 0 0 0
290 90 4 0 -3.4381185718700267 3.703333709148639 -3.7358072196548435 0 0 1
288 90 2 0 -3.1841298311029838 3.431658575264801 -3.9768906268252797 0 0 1
289 90 4 0 -2.920812779809355 3.1455603091541766 -4.2239907453202585 0 0 1
64 15 4 0 -0.4825054575955523 4.656131407167834 -3.2539704476348272 0 -2 0
90 24 2 0 -0.2781669550834754 3.9149988541218512 -3.201250717470218 -1 0 1
92 24 4 0 -0.14345924612440034 3.512710571771074 -3.346813171553638 -1 0 1
244 75 4 0 -4.625950740616801 1.1540726384451838 -3.160387524868276 1 0 2
319 100 4 0 -3.795012704869137 0.2841127412027329 -2.2982222766196805 0 0 1
70 17 4 0 -3.429654964477721 0.36072133684754343 -2.175166672824648 1 0 1
243 75 2 0 -4.442166574152157 1.237114145617744 -2.775895432011248 1 0 2
245 75 4 0 -4.255091611515405 1.305590598252908 -2.389587072396405 1 0 2
172 51 4 0 -3.91840974452995 1.2868526863610603 -2.192799022393393 2 -1 2
171 51 2 0 -3.7581439774342167 1.4296677021222426 -1.8162003985435617 2 -1 2
318 100 2 0 -4.13611335224866 0.028515032961600423 -2.472926726587077 0 0 1
173 51 4 0 -3.5841460321597256 1.5874119815644188 -1.4211834986325325 2 -1 2
69 17 2 0 -3.0954315348273083 0.4377108036429673 -2.4618531396285506 1 0 1
106 29 4 0 -2.725149881428955 0.5905034896956635 -3.1484239737718838 0 -1 1
71 17 4 0 -2.739180663515955 0.5275093345534787 -2.7658784803039076 1 0 1
154 45 4 0 -1.1165156358929107 2.794347270334953 -1.743680477512668 0 -1 0
121 34 4 0 -0.9054427667477862 0.061508163495313274 -3.7476272797810988 1 -1 0
91 24 4 0 -0.40574278653115764 4.309544279404211 -3.068818770003758 -1 0 1
54 12 2 0 -2.791692319390876 1.4275660721669208 -1.2474242503126227 0 -1 0
56 12 4 0 -2.3816161921449437 1.3252398923465278 -1.0633935644573687 0 -1 0
61 14 4 0 -2.1074066242306273 1.1515837863449878 -0.8437645542312217 0 -1 0
60 14 2 0 -2.0296442129002585 0.8043406911717862 -0.5503607071139704 0 -1 0
62 14 4 0 -1.9523523601678632 0.44766289615189037 -0.2537411691278642 0 -1 0
22 5 3 0 -1.6894361212264246 0.6291105174310213 -0.008274014964837585 0 -1 1
315 99 2 0 -0.17291158892451455 0.6891963151833096 -0.062243506702330344 0 0 1
55 12 4 0 -3.1947289616515238 1.5136429171830832 -1.4235531864240585 0 -1 0
155 45 4 0 -1.3995211683439608 2.6656903316249787 -0.9234628749471979 0 -1 0
153 45 2 0 -1.2605620956198225 2.731775014564851 -1.3370998340852098 0 -1 0
277 86 4 0 -1.5868583060875385 2.908095163968726 -0.6504886660691752 2 0 1
276 86 2 0 -1.583910247061804 3.099891897973617 -0.21977169322789825 2 0 1
165 49 2 0 -0.043091335035183476 2.7606076576814975 -3.524306594716725 0 0 2
184 55 4 0 -0.05092213746727532 2.108890692863624 -3.7661856764159465 0 1 1
166 49 4 0 -0.20765378708916662 3.148590993214467 -3.5435805408202468 0 0 2
235 72 4 0 -3.7823725405007833 4.733890683171774 -4.277963023315824 -1 -1 1
23 5 3 0 -0.9530264524194039 0.5698433067144509 -0.02875875573541157 0 -1 1
316 99 4 0 -0.5927790164193335 0.5510458240131177 -0.18399037944451735 0 0 1
158 46 4 0 -2.9748886511212262 1.8715737218422681 -4.253526746343256 0 0 0
24 5 3 0 -1.2527603564824623 0.7691108491664157 0.602733590430563 0 -1 1
149 43 4 0 -1.301585540478588 0.9629242623417047 0.9363731677682774 0 -1 -1
25 5 3 0 -1.3131008633531231 0.07223314116631399 0.3523630874260825 0 -1 1
21 5 1 0 -1.2959781205471697 0.5085858705080714 0.22473740107601428 0 -1 1
137 39 4 0 -0.9159329588978496 4.636708214536363 4.234482543777087 1 -1 0
160 47 4 0 -1.2743648259488953 0.008719535726468518 0.7271783019708689 0 1 0
147 43 2 0 -1.2230872329282143 1.1406221932548652 1.3464065716537137 0 -1 -1
259 80 4 0 -2.1277094527899285 4.128925169988405 1.101289444914591 1 0 -1
133 38 4 0 -1.9186919334649337 4.236308985458217 0.81878342825175 1 -1 0
258 80 2 0 -2.44642110526607 3.9396543884153132 1.400329125365675 1 0 -1
260 80 4 0 -2.768537135742438 3.7334556918670927 1.702843551786509 1 0 -1
132 38 2 0 -1.7436349462703677 3.961003776137152 0.5429631209951493 1 -1 0
134 38 4 0 -1.571974374409115 3.683990493062548 0.27672486016857484 1 -1 0
148 43 4 0 -1.1414645087332762 1.3168700963279363 1.7546094283320002 0 -1 -1
222 68 2 0 -4.161937565913618 2.5076306302910694 1.8444991194185687 1 -1 0
224 68 4 0 -4.540922655479243 2.5009955916877455 2.0360114221145764 1 -1 0
223 68 4 0 -3.7462559105740576 2.516001216390472 1.6419845981256163 1 -1 0
231 71 2 0 -1.1490256314927205 2.601712800936986 3.095334004221321 0 -1 0
110 30 4 0 -1.0397621456048 1.7027874768720066 1.7503067777402468 0 -1 0
109 30 4 0 -0.984319850199457 2.346746963124296 2.377867790274205 0 -1 0
108 30 2 0 -1.0076893362299464 2.0316219509940394 2.065393404604873 0 -1 0
233 71 4 0 -0.8806827842733721 2.4509038466033526 2.7788579803658617 0 -1 0
175 52 4 0 -3.6492966248509293 2.900983204656182 1.6839316879680082 0 0 1
174 52 2 0 -3.4120903844818886 3.2885225275947274 1.7182263362986607 0 0 1
176 52 4 0 -3.1665232949374733 3.7025471770243894 1.7572978273396833 0 0 1
312 98 2 0 -0.2354823476813524 4.2312154103795745 3.036923797619763 0 -1 -1
274 85 4 0 -1.757624396257165 2.678010414101408 3.652326233489055 0 -1 0
135 39 2 0 -0.9364963189920021 4.397889203592052 3.8583054570992723 1 -1 0
273 85 2 0 -2.021714526623311 2.715370226458259 4.028993532994535 0 -1 0
275 85 4 0 -2.2768404722825504 2.7486865039800334 4.399614943688896 0 -1 0
45 9 3 0 -2.2911797863331573 2.498890924116734 4.7222924887151345 0 0 0
232 71 4 0 -1.42775812942758 2.7631789696451214 3.420834683128733 0 -1 0
136 39 4 0 -0.9583969432509013 4.152194593854722 3.4565020491939715 1 -1 0
313 98 4 0 -0.6017418312657068 4.269538046351551 3.2959516653337086 0 -1 -1
278 86 4 0 -1.582136249428979 3.2956994793092718 0.20907667436870694 2 0 1
140 40 4 0 1.5828401866623436 -3.206969608593776 -3.5757587725507523 0 1 1
100 27 4 0 1.2843792976062376 -3.108098491564691 -3.3039016564640398 0 0 1
144 42 2 0 0.567653688234599 -1.9016251464371856 -3.816557648044123 -1 0 1
101 27 4 0 0.7352165129786937 -2.379291044886587 -3.1737798057915882 0 0 1
145 42 4 0 0.5943131204335401 -2.127442742564789 -3.451886330400497 -1 0 1
99 27 2 0 1.0029232549769367 -2.737405905938622 -3.2380979096241225 0 0 1
146 42 4 0 0.5379614996541094 -1.6502298629012437 -4.222368481763826 -1 0 1
138 40 2 0 2.0410378263224347 -3.132363566791829 -3.5454763639702698 0 1 1
139 40 4 0 2.4987706134721015 -3.0431986820605013 -3.510820140375375 0 1 1
8 2 3 0 2.812398460264909 -2.802878158654599 -3.5202058439259982 0 0 1
6 2 1 0 3.0145770179677434 -2.568796152919597 -3.84711239337723 0 0 1
10 2 3 0 2.9403430922566165 -2.793622822741973 -4.2726526557783995 0 0 1
9 2 3 0 2.849118741706894 -2.1394546940498222 -3.854228225695391 0 0 1
7 2 3 0 3.4532699853128372 -2.5544410362882903 -3.7620014871030887 0 0 1
305 95 4 0 3.7978161527172896 -2.7212946776555835 -3.8395453371377806 0 1 2
303 95 2 0 4.223827755331785 -2.740054713467501 -3.7218607784069224 0 1 2
304 95 4 0 4.674361214997459 -2.757587974339668 -3.5930233603068618 0 1 2
52 11 4 0 3.0718271175214604 -1.840917062731244 -3.7642861248835993 0 0 1
27 6 3 0 0.21204758744667798 -1.4927138432542866 -4.3775369501993096 0 -1 1
267 83 2 0 0.44701524401258896 -0.3231066538925216 -4.530394108114976 0 1 0
51 11 2 0 3.1490646583426414 -1.4700878251030478 -3.9975842649173625 0 0 1
53 11 4 0 3.2233154953558802 -1.1114196309282522 -4.216271099962747 0 0 1
150 44 2 0 1.359235472986105 -4.685997847259707 -0.17117382332026274 -1 1 0
225 69 2 0 0.0584037032169697 -3.2348943053064625 -0.6645174489210692 -1 -1 0
227 69 4 0 0.44240214258551647 -3.184180202348997 -0.40126320896768214 -1 -1 0
203 61 4 0 0.8300093602530921 -3.2727057619610744 -0.30865632705307033 0 -1 1
201 61 2 0 1.1616257936318737 -3.5958426074605283 -0.3417274955303814 0 -1 1
202 61 4 0 1.448204666941208 -3.8878722763646727 -0.37457103630818694 0 -1 1
151 44 4 0 1.357058110637247 -4.235442723766807 -0.19014024656682527 -1 1 0
269 83 4 0 0.23768526532782164 -0.013031368333194002 -4.280329780051911 0 1 0
104 28 4 0 2.7518907527343712 -2.639580780790606 -4.607031414016773 0 0 2
249 77 2 0 2.204244300012442 -4.409407817553499 1.595093283933478 0 0 0
250 77 4 0 2.3859838458529055 -4.581053336401699 1.2141973240883357 0 0 0
205 62 4 0 1.7277020811165584 -1.5304504283201934 0.14355105655901207 0 0 0
30 6 3 0 0.5950516956542767 -1.0404536999161036 4.610790540645362 0 -1 0
285 89 2 0 0.3628614022993573 -1.121611526705467 0.9414128457927831 0 -1 0
287 89 4 0 0.7628887358968774 -1.1913065872280173 0.7380183014722606 0 -1 0
206 62 4 0 1.1110793332069584 -1.3916420869219663 0.7630409005250717 0 0 0
204 62 2 0 1.4255640679638675 -1.467014721908237 0.4434931650672645 0 0 0
94 25 4 0 3.6651382451218373 -1.0273067533020657 1.2935977912836107 0 1 1
131 37 4 0 4.046383529745425 -0.9742501476105168 1.4233542266512125 0 1 0
129 37 2 0 4.434235366594895 -0.8802094813023207 1.1978195213614498 0 1 0
93 25 2 0 3.3152509145829234 -1.2905420710668651 1.415397921430153 0 1 1
170 50 4 0 1.6406454150561212 -3.1609467841977947 2.3718457862584756 0 0 1
199 60 4 0 1.4548662815940194 -3.154768525111953 2.7410303241072764 0 0 0
187 56 4 0 0.14402671538911754 -2.7056063748664125 3.426448398664426 -1 1 0
198 60 2 0 1.1361777002780284 -3.2692189291151013 3.037270796920676 0 0 0
168 50 2 0 1.8459537845070277 -3.4924810335186134 2.1620827562940996 0 0 1
251 77 4 0 2.001217265949731 -4.229548601498819 1.9903994980089224 0 0 0
17 4 3 0 2.827557543687219 -4.513646952435344 2.7345816336242166 0 0 0
34 7 3 0 0.04512385582105586 -3.525994518351379 4.0867704259095285 0 0 0
169 50 4 0 2.055443461413138 -3.8398866188909078 1.9451876082349522 0 0 1
221 67 4 0 3.1935646394456527 -3.7543910786586534 2.61611404522905 0 0 0
89 23 4 0 0.10706094058026185 -0.38531577700153896 2.2326905968612314 0 -1 0
16 4 1 0 3.173625283367522 -4.358076554307871 2.9943840188533932 0 0 0
19 4 3 0 3.167943062238206 -3.881625040750113 2.9956769511272423 0 0 0
219 67 2 0 3.053689402350098 -3.420858911561266 2.330491126737514 0 0 0
18 4 3 0 3.5819291985355832 -4.516954202125659 2.8052062678321215 0 0 0
280 87 4 0 3.932556460878384 -4.600042269482999 2.9686798877223635 1 0 -1
248 76 4 0 2.9159681294522306 -1.7728375508717682 1.8887082417192498 0 1 2
220 67 4 0 2.9200881475926344 -3.0856730253583273 2.0581015898535373 0 0 0
247 76 4 0 2.8615766150143864 -2.691654896744212 1.908273639939321 0 1 2
246 76 2 0 2.8927651561147028 -2.2319914950575033 1.8921487075431407 0 1 2
241 74 4 0 0.4943796522209261 -0.46152876320203384 2.1669024791993197 0 0 -1
268 83 4 0 0.6569087080889293 -0.6526569991566532 4.681031923509156 0 1 -1
240 74 2 0 0.5997320260408457 -0.12550994376498764 1.8631355133183807 0 0 -1
95 25 4 0 2.965659131497264 -1.5518878822462883 1.5424994661452263 0 1 1
35 7 3 0 0.6501246663163812 -3.5652460105677632 3.619928382497231 0 0 0
200 60 4 0 0.8256752252716663 -3.3818344550952117 3.3287816224202142 0 0 0
31 7 1 0 0.4042931728334287 -3.2936808514742277 3.9190170838779235 0 0 0
294 92 2 0 2.721471579556137 -3.9882928675552325 3.9654267980923295 0 0 0
296 92 4 0 2.519699757794137 -3.6679692765087495 4.222028962443301 0 0 0
103 28 4 0 2.6938599066510243 -3.3480160045104377 4.348603646812885 0 0 1
295 92 4 0 2.9349263347012076 -4.297204285208236 3.709126744746232 0 0 0
20 4 3 0 3.1321922600914767 -4.520251226751719 3.4141970399395305 0 0 0
308 96 4 0 0.6996969446899799 -2.92056958127067 4.57450946952414 0 0 0
32 7 3 0 0.26280412057815256 -2.9384048727062173 3.701215893572378 0 0 0
28 6 3 0 0.4862224903802607 -1.7463058352485399 4.4424600134286685 0 -1 0
33 7 3 0 0.6739801846662183 -3.1583885180060274 4.263436495762319 0 0 0
306 96 2 0 0.7396079181314482 -2.446501135058458 4.559084224916187 0 0 0
307 96 4 0 0.7725897241792132 -1.9847138883196294 4.539461558342705 0 0 0
102 28 2 0 2.7219075395695933 -3.0061925008269035 4.603221534110836 0 0 1
279 87 2 0 4.276785924074047 -4.725056556404936 2.7155624574024224 1 0 -1
26 6 1 0 0.30748816911128696 -1.3814743586961764 4.632392506522477 0 -1 0
196 59 4 0 0.18149237039829133 0.12099276931976226 -3.9019514588262774 1 0 0
270 84 2 0 4.647743926868286 4.4202147411838135 -3.1331782453083155 -1 0 0
195 59 2 0 0.20032588944881552 0.5706083721175714 -3.9211366974583304 1 0 0
197 59 4 0 0.228161763146136 1.0229701450506377 -3.9455644152629135 1 0 0
185 55 4 0 0.2546391442395605 1.2494165592256306 -3.634034920088423 0 1 1
152 44 4 0 1.3486937866247837 4.336065435324856 -0.1502929612685229 -1 0 0
183 55 2 0 0.09037194962587754 1.6902861472630029 -3.6999981477001542 0 1 1
73 18 4 0 1.5705667103600596 4.026011891230983 -0.32015281143325647 0 -1 1
167 49 4 0 0.14158068731945084 2.330768152857956 -3.508302747875753 0 0 2
72 18 2 0 1.6482374878679564 3.5793798815995204 -0.4412376637819842 0 -1 1
271 84 4 0 4.404749339087276 4.448790867526144 -2.7344402022093606 -1 0 0
74 18 4 0 1.7147902216807887 3.1673751767635716 -0.5556381657357282 0 -1 1
239 73 4 0 1.5154453268509458 2.856866184037529 -0.379904504085296 1 -1 0
238 73 4 0 1.1502834049660124 2.073751686662759 -0.18608808175193106 1 -1 0
237 73 2 0 1.330147592373897 2.4678281381594855 -0.2842401165100806 1 -1 0
97 26 4 0 1.0680881791409826 0.27459989434078896 1.3683460727167989 0 -1 0
116 32 4 0 2.102511006211234 0.872791051624543 1.3635234124634839 -1 -2 0
114 32 2 0 2.537970701338077 0.939525479962292 1.4665077163762503 -1 -2 0
115 32 4 0 2.9404029924841284 0.9907064601273031 1.55418142655129 -1 -2 0
78 20 2 0 3.5838036227035746 1.0972122115817138 1.129822516183874 -1 0 0
79 20 4 0 3.2905493934511014 0.8702299510744971 1.3876747803417584 -1 0 0
311 97 4 0 4.100329985268048 2.4329396896898063 0.2270325814281115 -1 -1 1
80 20 4 0 3.8783341764698123 1.3286086040630916 0.8637003496485398 -1 0 0
309 97 2 0 3.9712029678754 2.0484412843902544 0.4172712354615887 -1 -1 1
310 97 4 0 3.8386584441609757 1.6560369864180315 0.6113542499882431 -1 -1 1
84 22 2 0 2.825263016141137 4.2723227255620815 1.0649547734409244 0 -2 0
85 22 4 0 2.7161754704902012 4.677531169383422 1.2181892862621588 0 -2 0
86 22 4 0 2.9252762771355214 3.848759149507287 0.9081431128434455 0 -2 0
302 94 4 0 3.1729073893108666 3.630042471696006 1.114526911202521 1 -1 1
300 94 2 0 3.320467401726715 3.3205810494064916 1.3983938919403736 1 -1 1
96 26 2 0 1.4797801545150793 0.4173899334724058 1.432891436094676 0 -1 0
98 26 4 0 1.8978923486642392 0.5651531237255291 1.5072197183924612 0 -1 0
177 53 2 0 4.21231451129615 2.698452481430387 1.9406654356583037 0 -1 1
178 53 4 0 4.52408124019133 2.4431601108052825 2.0663525959233064 0 -1 1
301 94 4 0 3.478353173225286 2.9815309868594557 1.6988484858123507 1 -1 1
179 53 4 0 3.8759185506475498 2.971224406125306 1.8004816502848964 0 -1 1
81 21 2 0 0.9211570690032694 4.485341813502005 2.7076859955152144 -1 -1 -1
82 21 4 0 0.4584683319557948 4.376153624829743 2.615175093420728 -1 -1 -1
314 98 4 0 0.12759316263011133 4.196059672460907 2.7831998220141725 0 -1 -1
112 31 4 0 1.6816539447173813 4.5496507653939 3.0272295191835483 0 -1 0
281 87 4 0 4.612201696617842 4.610120702692942 2.4484449217442137 1 -1 -1
83 21 4 0 1.3485153758579818 4.584886529599842 2.794098330670141 -1 -1 -1
111 31 2 0 2.112638291557262 4.622547342581879 2.952178317664137 0 -1 0
113 31 4 0 2.5383278675206458 4.700045394178098 2.8663971586920125 0 -1 0
242 74 4 0 0.7175344465750929 0.22158959371585907 1.5595124063512567 0 0 -1
282 88 2 0 0.6969741602237669 1.4821515273811543 0.1411244919260358 0 -1 -1
283 88 4 0 0.5094436485969341 1.0780456192807546 0.20598050923067404 0 -1 -1
317 99 4 0 0.245894489930411 0.8242451410205848 0.05983614714471488 0 0 1
284 88 4 0 0.8873018721377373 1.9040759470130688 0.07977708482802974 0 -1 -1

Velocities

226 1.0060812145439697 -0.279353209929178 0.12264665433434266
234 -0.27542483316010014 -0.05671232863966864 -0.11084424737650596
236 0.6210512824017589 -0.5047320659233095 0.40382949095918896
253 -0.12459029486098995 0.06358356202421861 0.2271179318710194
252 0.021838528625429413 -0.04152518668635283 -0.26028790402104013
254 0.807469562794529 -1.3778902775646407 0.1985085653057468
190 0.4862899331065231 -0.2668752474287047 0.06380888883665183
180 -0.0737527484490205 -0.248479236109553 0.36728988553783065
181 0.41578064982200535 -0.35352676395700267 0.6336242950060726
182 -1.206836028501146 -0.6808835844068812 -0.9082441055673605
189 -0.014932305044868517 0.049543618302579695 0.25879679992454174
291 -0.17469037342633204 -0.16450602719562277 0.023576372029293143
212 -0.7535166216369165 0.281402538201682 1.053130409675841
210 -0.045127614376239314 0.0510037959080476 -0.003984334341715495
230 0.4058392305749502 0.3547456324987423 0.8899567207747677
228 0.45483492494140815 -0.006857836669608118 0.0017662485967887172
229 -0.3147283559577051 -0.22610928717979567 -1.1787815508336252
257 0.9184137912215249 -1.1932009773618113 0.4384728431228907
293 1.5199066411695175 0.12570182628549087 -0.3548815513428854
122 0.6579580848492649 -0.478609052513046 -0.10312474587358302
120 0.21575046769606754 -0.2209166082128259 -0.06386140208486527
118 -0.4172417490227396 -0.07123102960232815 0.04388351869538009
63 0.125041968087449 -0.20637985141697088 0.1230855710057089
65 -0.5204325917362148 0.19867737591322368 -0.10131612456191566
163 0.20456330229927266 -2.316879276911679 1.5101023626398924
162 0.5681903665015089 0.12034507645321964 -0.027002674751326602
164 -0.5742698064708516 -1.1393505641749904 0.3877781097489868
292 1.208740571595629 -0.38398988307161447 -0.4832483967346966
12 -0.4605154740332245 -0.5101538924716901 -0.33786938696805485
14 0.1215509249516474 -0.9357391658485607 -1.022713691844365
15 0.6388719382771783 -0.7403006189486822 -0.2657338853665354
11 0.07249794877977732 -0.21293616656740166 0.12069734108816059
13 0.012095808455012805 1.1244913651559818 0.564249481104768
256 -1.0415748638291273 -0.17422541979071743 -0.4574700794876016
119 1.1356057050981927 -0.9035971086168264 -0.8472390066022902
255 0.34814179652821764 0.12095165262782193 -0.04512026857919491
211 -0.6976979971425077 1.1067579198970063 0.12427564072243578
320 -0.09900714429746384 1.1736962723296092 0.579854312692318
117 0.07209425990028029 0.1656143955514047 -0.23951868072097704
218 0.024951160029687905 1.0315382821468402 0.17616138577275708
191 0.10193140119864576 1.0795896560842515 0.39756208805611737
39 -1.198783108863593 1.4937415793284574 0.286453847694156
40 0.6646991601958485 -0.151135352588729 -0.3080974828796466
36 0.3093076352598147 0.04432814320541795 -0.06226506432455801
37 0.19746997857615717 -1.674041012602708 -0.30681392769637156
38 0.2298225671341844 -0.18961408477509606 0.20888529174970996
130 1.1890880706376343 -0.4848251253963246 0.3523402292555775
143 0.3605054529655217 -0.9978675598281675 -0.8314328390957924
141 -0.29519081180597584 0.22042410314955627 0.23773646937493248
142 -0.4739770538238437 -0.5113125730547865 -0.27579669820471364
194 -0.7988133549285948 0.12096731779684583 -0.6144478865321612
161 -0.820865348076349 -0.03393966199974459 -0.12211018621639985
159 0.2129143432317849 0.6607401721570626 0.03805549921556979
192 0.20278548418211959 -0.02319010129985834 -0.11473071410009153
29 1.1438442774637396 -0.7538063508177941 0.15214626983623447
193 -0.0014292417959439084 -0.780222840607449 0.3418461593781403
265 -0.4273740190496328 0.6225486708355159 0.09179215922614023
266 -0.4737834392239367 -0.28620524818586013 0.49348743668629
264 0.18722807442014897 0.29403729441329174 -0.09124880424446997
299 -0.33719773892943367 -0.2899371287517767 0.5369338507007969
297 0.11029115877813662 0.024501076290591544 0.28367820811306405
298 -1.07084515747008 0.3824558355581785 -0.5426716444282881
124 -1.0235145433201682 0.6336011414112699 -0.29563577734375274
188 0.2514332507188968 -0.09547061729545603 0.086827121877075
186 -0.027314975715268964 0.30013030140137675 0.23307813075068368
125 -1.0959986128141586 -0.12480397884476108 -1.0808072701134601
123 0.18726568551386674 0.006921605207709418 0.5469324844526134
208 0.1254451965969367 0.41455259450724663 -1.8592578335632832
87 -0.1007751335696023 0.17613188339213912 0.19477624146753422
88 1.0629650640602655 -1.0295524844773343 0.9777425379939205
66 0.1107358004671923 -0.1272192323487294 0.2923469759319136
68 -0.4066886360237048 -0.8440407959819249 -0.2146729440800914
67 0.5884069075870066 0.45676838756067795 0.7674740118039121
286 0.6658581419447319 -1.4236349723624968 0.8260199023073691
207 0.20526050610427637 0.11332133269786157 0.28119105147136503
128 -0.017707406204134638 1.2449671785297298 0.6187165197133532
216 0.028543963001818325 -0.14741013342605125 -0.13037534839775192
209 -0.32229958277148757 -0.7470005929324391 -0.36421028498679403
217 -0.04237603060546245 -0.16130480070293746 -0.5370866897125292
127 0.46597777899138054 0.310026475567567 0.9022820963393996
126 0.15655300490559312 -0.14355520739349797 0.0775785123660442
262 0.09252584987651179 0.36415735737781085 0.34296119460566277
261 -0.014009831618870951 0.14042206468058527 -0.10661532757018359
263 1.770120860935053 -0.08940324721738593 -0.8304338875305246
157 0.18833721618981178 -0.36880669510496283 0.23673601674615252
107 0.11878553138480798 -0.1967005522470866 -0.07649794658255168
4 -0.9508154559387948 0.17017380091393539 0.07193565614926395
59 0.042710273059345445 -0.6552820490447706 0.19027758609622095
57 0.14979898657292104 0.13405547494896092 -0.3326914194804952