LAMMPS data file via write_data, version 4 Feb 2025, timestep = 4000000, units = lj

2000 atoms
4 atom types
1500 bonds
1 bond types
1750 angles
2 angle types

-8.346487 8.346487 xlo xhi
-8.346487 8.346487 ylo yhi
-8.346487 8.346487 zlo zhi
8.526512829121202e-14 0 0 xy xz yz

Masses

1 1
2 1
3 0.1
4 0.1

Bond Coeffs # harmonic/omp

1 100 0.45

Angle Coeffs # harmonic/omp

1 100 180
2 100 109.471

Atoms # full

1153 231 3 0 -0.7822490349561093 -7.486220734489994 -7.617327469371055 31 1 1
868 174 3 0 7.35457531355377 -7.70573295927959 -7.624769949723904 7 0 1
866 174 1 0 7.149559246180978 -7.446773544947418 -7.948732020843869 7 0 1
870 174 3 0 6.858546796874384 -7.707320251683679 -8.190897116417977 7 0 1
393 79 3 0 5.623245617231861 -6.796404960993041 -8.231925529227594 6 0 1
869 174 3 0 6.906557940686653 -7.111858736323683 -7.744474551068463 7 0 1
867 174 3 0 7.469334861983908 -7.26532265374589 -8.22932039876295 7 0 1
1430 310 4 0 7.583942189178728 -6.8977982871818755 -8.117006756129902 8 0 1
1428 310 2 0 7.834657675307177 -6.5365517885945605 -7.979609651397188 8 0 1
1020 204 3 0 0.2881476726902328 -5.94590281396679 -7.927420531177241 10 0 0
1016 204 1 0 0.3766281107495164 -5.64250525632729 -8.262452325175198 10 0 0
1739 413 4 0 0.4462314622631194 -6.058323037576717 -7.5821403936143845 31 1 0
1737 413 2 0 0.7487240849531833 -6.38913226269044 -7.464658447600507 31 1 0
1019 204 3 0 0.829856055511863 -5.60155728156383 -8.316175751061971 10 0 0
395 79 3 0 5.4148122484673085 -6.091107985996382 -8.260094074195065 6 0 1
1098 220 3 0 8.023108691392952 -5.79623639235451 -7.831816090627783 9 0 1
1429 310 4 0 8.074520177483326 -6.18041147290954 -7.843715178408815 8 0 1
1958 486 4 0 -8.276488012929619 -4.815525589029039 -8.040675511890857 30 1 1
1288 263 4 0 -1.9129966951613646 -4.783466014989935 -7.784455934282979 11 0 0
1287 263 2 0 -1.5481983796943988 -4.702657698811761 -8.033844036913127 11 0 0
1017 204 3 0 0.19522358152748076 -5.246919731322956 -8.154514923203461 10 0 0
1442 314 4 0 0.04292623046541344 -5.232626524232161 -7.800429444110377 9 0 1
1440 314 2 0 -0.2616818080513301 -5.157442966228962 -7.470999874628469 9 0 1
1248 250 3 0 6.145612422249357 -4.75556365780123 -8.304214987472818 14 0 1
1096 220 1 0 8.059159454924853 -5.402688549552947 -7.6110743114527075 9 0 1
1100 220 3 0 8.166571348332134 -5.090781443388838 -7.90330422040998 9 0 1
1099 220 3 0 7.68978370308248 -5.304913127104381 -7.419866948031707 9 0 1
1885 462 4 0 8.318341123230358 -5.116995984176922 -8.277420676376718 27 1 1
1956 486 2 0 -7.9096240282631065 -4.59786062809161 -8.156568408206235 30 1 1
1957 486 4 0 -7.560565927494045 -4.388444046667734 -8.261286031957667 30 1 1
563 113 3 0 -7.507728568479437 -4.050681942448168 -7.996924619930688 11 0 1
562 113 3 0 -6.94772201100726 -3.9135435048802805 -7.514557714431798 11 0 1
561 113 1 0 -7.178875039246993 -3.755588830485573 -7.884723326044598 11 0 1
192 39 3 0 -2.002445006385398 -4.5745915218916835 -7.430610132085663 17 0 0
1289 263 4 0 -1.179457464090067 -4.632639134407333 -8.283863942126626 11 0 0
1988 496 4 0 5.621596713041551 -3.8241346963544736 -8.009749839517916 29 1 1
1247 250 3 0 5.97794061859085 -4.56932975949508 -7.591305666383324 14 0 1
1246 250 1 0 6.163678910168628 -4.414400122430792 -7.986529724769407 14 0 1
1249 250 3 0 5.926524176378994 -4.054953615464836 -8.14244194784173 14 0 1
1250 250 3 0 6.605430733061164 -4.290816731760038 -7.9096429065625085 14 0 1
1622 374 4 0 6.754560507333075 -3.98429153374426 -8.144524837356235 16 0 0
1669 390 4 0 -7.5110553749909945 -3.1362542411472116 -7.4587495254982965 28 1 0
564 113 3 0 -7.375578324529579 -3.341255444068021 -7.787895535580948 11 0 1
565 113 3 0 -6.913168448760844 -3.696898387783186 -8.206860413344726 11 0 1
1142 229 3 0 -2.292843641994182 -3.047846128467466 -7.554893432631598 29 1 1
1751 417 4 0 -2.268271176630197 -2.884468358961259 -7.920089218130858 11 0 0
1749 417 2 0 -2.114572857296176 -2.894830096590119 -8.343210026786656 11 0 0
458 92 3 0 4.6367881632440255 -3.6804636887764266 -7.438687430872159 9 0 1
1987 496 4 0 4.814292681095015 -3.5152048909639397 -7.75954465854482 29 1 1
1986 496 2 0 5.21388962374821 -3.6672807239321976 -7.882853819410065 29 1 1
1620 374 2 0 6.980886293067474 -3.6054537941326386 -8.090810563893701 16 0 0
1621 374 4 0 7.208836614970069 -3.2354326325426452 -8.023778473497561 16 0 0
657 132 3 0 7.378167692378966 -2.9857033373761865 -7.771007789522382 27 1 0
656 132 1 0 7.836682680300296 -2.9437281405518796 -7.808157927844655 27 1 0
659 132 3 0 8.013156779569872 -3.3082922160530996 -8.027765730235146 27 1 0
660 132 3 0 7.933501268245294 -2.558752063682416 -8.043437688124474 27 1 0
784 157 3 0 0.4440223039052391 -0.24509397745538486 -7.859622645526706 23 0 0
782 157 3 0 0.7225250081691748 -0.8035851336191815 -8.269921080612031 23 0 0
781 157 1 0 0.8278250028300107 -0.47019358319064075 -7.968728655421788 23 0 0
785 157 3 0 1.0074887690987069 -0.6472369239104525 -7.60538716031983 23 0 0
783 157 3 0 1.1105887098881375 -0.1865043359146057 -8.152589942598041 23 0 0
1504 335 4 0 -8.11625767977036 -7.93507218368423 -6.78170510685035 7 0 1
85 17 3 0 -8.303352195670522 -7.696186330902816 -7.055474192696726 29 1 0
1503 335 2 0 -7.7645047870288915 -8.232269602636459 -6.711889973813037 7 0 1
1154 231 3 0 -1.2533870132988216 -7.814130588575692 -7.120032049019622 31 1 1
1152 231 3 0 -0.5453201860840418 -7.699910264284206 -6.943056881733067 31 1 1
1151 231 1 0 -0.8944894838099371 -7.52843636170759 -7.17201678952241 31 1 1
1802 434 4 0 -0.15490989274518263 -7.691109073065887 -7.069836946403386 30 1 1
1800 434 2 0 0.24732307292586952 -7.610233499987382 -6.856104760307197 30 1 1
1801 434 4 0 0.6327380034590462 -7.533385290725215 -6.650852924901926 30 1 1
120 24 3 0 1.5932083912715722 -7.529438296597005 -7.138698632660965 9 0 0
83 17 3 0 -8.202930529306977 -7.038017798924487 -6.732148983908306 29 1 0
1271 257 4 0 -1.2091329619917106 -6.849711132685174 -6.7849692354251685 10 0 0
1155 231 3 0 -1.0009762804587927 -7.1198592835550745 -6.999355033643226 31 1 1
1738 413 4 0 1.01891068139237 -6.705459809229817 -7.345883721517517 31 1 0
117 24 3 0 1.3245902766316764 -6.814158829442051 -7.090611835385534 9 0 0
119 24 3 0 1.795845997319029 -7.084483373003608 -6.578405377492654 9 0 0
116 24 1 0 1.6900593520956342 -7.088058260784454 -7.012466782641029 9 0 0
118 24 3 0 2.044419282607162 -6.937860092958665 -7.250095847150393 9 0 0
1360 287 4 0 2.468934753301662 -6.938975554193313 -7.288607820417035 7 0 0
1359 287 2 0 2.7971310963219853 -6.625635178335922 -7.262188002128268 7 0 0
81 17 1 0 8.177907171577253 -7.35265774273092 -6.852111195697134 28 1 0
82 17 3 0 7.876091905262236 -7.153248628551798 -7.148834208730764 28 1 0
1516 339 4 0 -8.281550720231145 -5.658178906352584 -6.986668781180721 10 0 1
1331 277 4 0 -7.108395851235788 -5.571320916587296 -6.740950312188337 9 0 0
503 101 3 0 -6.357618558297981 -5.975022583284521 -6.769291810377136 9 0 1
501 101 1 0 -6.398124608142765 -5.569623309405845 -6.6676022953837455 9 0 1
1269 257 2 0 -1.1493395806394888 -6.4846545097377195 -6.535783610772508 10 0 0
525 105 3 0 -0.9103391512978334 -5.814891525580087 -6.498919390296725 9 0 1
1361 287 4 0 3.1319727468418694 -6.299574600789944 -7.229041829215645 7 0 0
1065 213 3 0 3.817376208075366 -5.661521021829275 -7.277877808144209 30 1 1
1062 213 3 0 3.5409868078204596 -6.330471070720195 -7.219479372671645 30 1 1
1061 213 1 0 3.736962956878939 -5.980880640143932 -6.997557138065274 30 1 1
1063 213 3 0 3.46388723872267 -5.8424988588514 -6.697619268647369 30 1 1
1064 213 3 0 4.119256287496533 -6.1123533053222445 -6.805243154049379 30 1 1
1600 367 4 0 4.439239887637724 -5.956462381356248 -6.620655557278544 7 0 1
1599 367 2 0 4.899482492931222 -5.839387717458006 -6.645450301588368 7 0 1
1601 367 4 0 5.337921499865175 -5.715860752583833 -6.6603885872437845 7 0 1
34 7 3 0 6.266518302007812 -5.6099607129535585 -6.9179603492144475 8 0 0
31 7 1 0 6.078371284150137 -5.646597756442514 -6.53307432943238 8 0 0
1748 416 4 0 6.374534378092633 -6.282597372979229 -6.570843043103098 27 1 0
1950 484 2 0 7.0916198927857454 -5.569249981604347 -7.095374723131312 29 1 1
1515 339 2 0 8.207970524962235 -5.981283206816864 -6.703440538288606 9 0 1
1951 484 4 0 7.518427678623322 -5.618230699373257 -7.266372810629496 29 1 1
1097 220 3 0 -8.312473204948418 -5.430475328803227 -7.314720780283266 10 0 1
1330 277 4 0 -7.942074683077793 -5.503428706325488 -7.128293506434447 9 0 0
1329 277 2 0 -7.526594471230783 -5.539074211446753 -6.938926821999649 9 0 0
504 101 3 0 -6.844722433449235 -5.480480818078108 -6.5008501642411 9 0 1
505 101 3 0 -6.3198868788833025 -5.3283990744721015 -7.026060969831189 9 0 1
193 39 3 0 -2.7221595645121806 -4.77567585726991 -7.333279725934435 17 0 0
1268 256 4 0 -3.052866298068155 -4.761890450419225 -7.146469725850543 9 0 0
194 39 3 0 -2.189289517947479 -4.929347726910108 -6.825523587188426 17 0 0
522 105 3 0 -0.8216606777121731 -5.221627957216606 -6.8703879373040895 9 0 1
1441 314 4 0 -0.5748719686434596 -5.07551911772815 -7.131908029674021 9 0 1
33 7 3 0 5.653313335575502 -5.513695368389955 -6.561919779687932 8 0 0
1979 493 4 0 4.859555224016221 -4.715701714747583 -7.316964817153372 27 1 1
1977 493 2 0 5.323801427614553 -4.658316765064078 -7.28799390333462 27 1 1
1952 484 4 0 6.665986254904199 -5.524796625184056 -6.920630566155146 29 1 1
1192 239 3 0 -3.976441591495819 -4.009361495942899 -6.713526152820706 29 1 1
1195 239 3 0 -4.693177940045478 -3.841563723536833 -6.5659691579388815 29 1 1
1267 256 4 0 -3.7597092597537882 -4.335148257433715 -6.782919792216731 9 0 0
1266 256 2 0 -3.414702816847287 -4.549001816285055 -6.961526822052088 9 0 0
191 39 1 0 -2.3193149749574795 -4.631114319207589 -7.12643112239676 17 0 0
195 39 3 0 -2.390507905794049 -4.257322517113753 -6.930603202523048 17 0 0
1132 227 3 0 -0.25512201695456405 -3.829323611846707 -6.584502640576282 28 1 1
1133 227 3 0 -0.043047083033345146 -4.549354527055209 -6.700322997005796 28 1 1
1376 292 4 0 1.538082297613526 -3.846367747772841 -6.620306300685001 8 0 0
780 156 3 0 1.945255022981776 -3.711796287556737 -6.638501828319707 30 1 0
776 156 1 0 2.365329987932279 -3.7643396714755433 -6.637978688585856 30 1 0
778 156 3 0 2.467936132470946 -4.1918539591715325 -6.550323529993866 30 1 0
1307 269 4 0 3.7898163964168976 -3.724351452199693 -7.358330978514339 10 0 0
1305 269 2 0 3.332188475814638 -3.7124485183760463 -7.297976196072128 10 0 0
459 92 3 0 4.0200688531915905 -3.987481177170853 -7.1466170627874845 9 0 1
456 92 1 0 4.475621022511392 -4.020291775550423 -7.166714036208552 9 0 1
457 92 3 0 4.586177546919105 -4.413009955248995 -7.341283548021072 9 0 1
460 92 3 0 4.658550666434579 -3.979175913411181 -6.747793019245363 9 0 1
1978 493 4 0 5.762108292291941 -4.5966708043893405 -7.264410238999547 27 1 1
1668 390 2 0 -7.902677420228986 -2.990456825736797 -7.320582524394977 28 1 0
1670 390 4 0 -8.292871126065556 -2.830353741867797 -7.189194746086004 28 1 0
1191 239 1 0 -4.275596282437145 -3.6727249685644585 -6.593816160286131 29 1 1
1194 239 3 0 -4.259436958426623 -3.3605794200194143 -6.880383374782415 29 1 1
1309 270 4 0 -3.902788437970451 -3.149487825036733 -6.824514150854554 9 0 0
1308 270 2 0 -3.576124369273007 -2.904283179768499 -7.065024535208674 9 0 0
1145 229 3 0 -2.5261752970569935 -3.0350714083336925 -6.878805448048375 29 1 1
1141 229 1 0 -2.4657037849293975 -2.797412905041031 -7.242642358513776 29 1 1
777 156 3 0 2.526272868364517 -3.657772279527432 -7.04108603353945 30 1 0
1306 269 4 0 2.9037829550894116 -3.701267427790218 -7.23351083628644 10 0 0
217 44 3 0 6.964377917986084 -3.1389860940511696 -6.566684662757562 10 0 0
1343 281 4 0 7.306312003944148 -2.973417980716489 -6.493142386749029 10 0 0
658 132 3 0 8.02787093170582 -2.9082311322432357 -7.384808043091879 27 1 0
1341 281 2 0 7.67689977539785 -2.8591726705229714 -6.727017709233243 10 0 0
1310 270 4 0 -3.2675977715700144 -2.6844545115338203 -7.2868198757316724 9 0 0
1144 229 3 0 -2.8813022251710283 -2.633062906564012 -7.384135732637416 29 1 1
1143 229 3 0 -2.183250501590633 -2.444102542535882 -7.163611394081839 29 1 1
1342 281 4 0 8.067082620323614 -2.740416177405219 -6.990945400750665 10 0 0
1603 368 4 0 1.120105241946769 -0.3851021589122432 -7.30535620828908 18 0 1
1602 368 2 0 1.450392580798999 -0.2391200649287697 -7.036403403125505 18 0 1
814 163 3 0 2.178918814529279 -0.12141993075931445 -6.686883402262387 33 1 0
1604 368 4 0 1.7789122431231892 -0.09740124958422314 -6.783303620526326 18 0 1
815 163 3 0 2.845966269484597 -0.10842723403631283 -6.952133849848696 33 1 0
705 141 3 0 -6.6446633442356955 -7.962323070081695 -6.3596127763771 29 1 0
1930 477 4 0 0.23324706481666446 -8.003997586379503 -5.690545728780115 31 1 1
242 49 3 0 0.5805322562966388 -8.154831694912685 -5.859393108202567 7 0 1
245 49 3 0 0.8989995255154142 -7.677832358849892 -6.385548456855521 7 0 1
241 49 1 0 0.8754097081057743 -7.808528112186016 -5.916629376607785 7 0 1
243 49 3 0 0.734936599265156 -7.460743821913571 -5.691999783931266 7 0 1
244 49 3 0 1.3190878021198458 -7.930773954378889 -5.7601381554237445 7 0 1
84 17 3 0 7.940302857287303 -7.516378350117263 -6.467321153695176 28 1 0
1072 215 3 0 -5.208920641182875 -7.156757309069651 -5.919927861530798 28 1 1
11 3 1 0 -3.8724242117834224 -6.6124518427255055 -5.755252772181759 7 0 0
14 3 3 0 -3.6743930931511457 -6.996557992418231 -5.7907350135000515 7 0 0
1724 408 4 0 -3.4691194043563423 -7.3168638495433855 -5.63094464141761 28 1 0
1746 416 2 0 6.688694818603416 -6.5655130355492926 -6.413547083540339 27 1 0
1747 416 4 0 7.007587207837533 -6.834934687929107 -6.266667817383363 27 1 0
589 118 3 0 7.301555667837453 -6.5813001839923855 -6.123589840898255 27 1 1
588 118 3 0 8.010052960688704 -6.513485452743424 -6.08766378031261 27 1 1
15 3 3 0 -4.006933919666277 -6.477758132123032 -6.161004320086457 7 0 0
13 3 3 0 -3.6069984905705184 -6.304718906549127 -5.5872753103372945 7 0 0
1303 268 4 0 -3.229504484165215 -6.191812048115509 -5.675850686507453 8 0 0
1270 257 4 0 -1.0825283562645147 -6.127589380748416 -6.283090245539883 10 0 0
35 7 3 0 6.0857831198572665 -6.073870267348461 -6.407201407506056 8 0 0
1517 339 4 0 8.004616190966154 -6.288540374938897 -6.430112140659745 9 0 1
586 118 1 0 7.6622302784898615 -6.491176888831974 -5.860469604255416 27 1 1
590 118 3 0 7.6203493794125645 -6.088141392360191 -5.674242915721666 27 1 1
1639 380 4 0 -7.945886246766075 -5.44374918349072 -5.866536960506119 9 0 0
315 63 3 0 -8.201544413357578 -5.141113845908405 -5.786228880214479 11 0 1
1638 380 2 0 -7.554288534700168 -5.353791062371631 -5.657361118792357 9 0 0
753 151 3 0 -6.790078972904836 -5.214717684832433 -5.6443590095467515 11 0 0
751 151 1 0 -6.547868702709627 -4.8433447507418865 -5.60384304591685 11 0 0
754 151 3 0 -6.3311059575960655 -4.7535359349023425 -6.014631292293918 11 0 0
502 101 3 0 -6.107086967564085 -5.474121674153214 -6.349025039286027 9 0 1
524 105 3 0 -1.3070446781085963 -5.219785435031085 -6.337006686695066 9 0 1
521 105 1 0 -0.9065106042897 -5.376677295446456 -6.482301148532279 9 0 1
523 105 3 0 -0.580890392210093 -5.248945032368969 -6.1895466271698645 9 0 1
1912 471 4 0 -0.538727161471412 -5.146127669672117 -5.79085156771982 16 0 1
1662 388 2 0 2.9813553075066856 -4.664034690642614 -6.167034635179742 8 0 0
1664 388 4 0 3.304531759205295 -4.8237753225077835 -5.896830337089266 8 0 0
19 4 3 0 5.376392286406455 -4.826240829232876 -5.845530099858101 9 0 0
32 7 3 0 6.296162109258793 -5.382758735671957 -6.216990695334267 8 0 0
1679 393 4 0 6.5826898006710515 -5.098692997251864 -6.1402514485427035 10 0 0
1677 393 2 0 7.034021384136869 -5.033427453692866 -6.066473587536748 10 0 0
1678 393 4 0 7.477338150393612 -4.94548467356861 -5.989241228764807 10 0 0
313 63 3 0 7.849815812270798 -4.810509025488828 -6.004453707789447 10 0 1
311 63 1 0 8.167453009474634 -4.816658369643527 -5.681599641314422 10 0 1
314 63 3 0 -8.332209011991525 -4.424341335275429 -5.647537645736005 11 0 1
1109 222 3 0 -2.592534911538423 -4.281729900664929 -5.757891417285312 29 1 1
1333 278 4 0 -1.5257907129888961 -4.478412525137667 -5.688819162886558 9 0 0
1108 222 3 0 -1.9067152908550584 -4.566385522001633 -5.6225893698337375 29 1 1
1334 278 4 0 -0.7019623995536408 -4.26730783276559 -5.982423183949778 9 0 0
1332 278 2 0 -1.0989156233112922 -4.3739857230339005 -5.841883050084196 9 0 0
1135 227 3 0 -0.3135154540209939 -4.358532855466926 -6.064391483519052 28 1 1
1131 227 1 0 -0.06548087809616732 -4.229026603483015 -6.388219906764847 28 1 1
1134 227 3 0 0.3438676052395788 -4.142922252533738 -6.23159422376094 28 1 1
1374 292 2 0 1.1192234497531466 -3.988378632505701 -6.4875671670006705 8 0 0
1375 292 4 0 0.7234832414561456 -4.126028836257182 -6.356875499541639 8 0 0
1663 388 4 0 2.6486344127308854 -4.510237605918061 -6.458074551582867 8 0 0
577 116 3 0 3.599845757446259 -4.538690291962524 -5.879045414203976 12 0 0
576 116 1 0 3.92643701723142 -4.3683310936399415 -5.613207572054993 12 0 0
1814 438 4 0 3.448563454478071 -3.805765485890859 -5.607178485633798 10 0 0
1688 396 4 0 4.609481642818476 -4.1009891053829834 -6.365875267129332 28 1 0
579 116 3 0 4.334384409784072 -4.441449963403339 -5.801129770958271 12 0 0
1686 396 2 0 4.938640620772 -4.313417872860551 -6.236030694144227 28 1 0
1687 396 4 0 5.27878302241411 -4.539783648785207 -6.0931822644833185 28 1 0
1381 294 4 0 5.664006107595235 -4.6112678965973135 -6.020117831545842 9 0 0
1382 294 4 0 6.361100489132646 -4.039740397274234 -6.2706231413464275 9 0 0
1380 294 2 0 6.034599243992554 -4.30837534015176 -6.148953274068276 9 0 0
1642 381 4 0 7.163220195417358 -3.715057359319742 -5.746715680846228 28 1 0
1193 239 3 0 -4.164072626200908 -3.5078427685581186 -6.212960232245702 29 1 1
779 156 3 0 2.5516344445784718 -3.484803832863477 -6.299771099194591 30 1 0
1813 438 4 0 2.6522363742279396 -3.481641213418909 -5.921270157832238 10 0 0
1812 438 2 0 3.0670430180087216 -3.6574073744402096 -5.755703473581789 10 0 0
722 145 3 0 4.156148558922824 -3.267571115861208 -5.821207636538478 29 1 0
721 145 1 0 4.487823119017449 -3.0189446238198867 -5.626471448866489 29 1 0
725 145 3 0 4.872698536609283 -3.019456915201408 -5.906722909635533 29 1 0
1536 346 2 0 5.594187386127109 -2.922952891549693 -6.002386969224634 7 0 1
220 44 3 0 6.522727130107869 -3.649850166179454 -6.368446565541807 10 0 0
1538 346 4 0 6.012782842160602 -3.0985497935453816 -6.108068557668238 7 0 1
219 44 3 0 6.397209542181459 -2.9739906602133575 -6.1266721260065165 10 0 0
216 44 1 0 6.717480231229615 -3.2856402892618126 -6.240389658365993 10 0 0
218 44 3 0 6.978316793858875 -3.3704434888934305 -5.881569999021687 10 0 0
723 145 3 0 4.354009539714983 -2.620385623564691 -5.575114515790174 29 1 0
1537 346 4 0 5.186166488143835 -2.7568516076430596 -5.8914187574075205 7 0 1
1240 248 3 0 -7.393840174736172 -0.47246626023964833 -5.690019916500462 14 0 1
1236 248 1 0 -7.085804198899728 -0.2937743630863068 -5.965309261212113 14 0 1
1238 248 3 0 -6.978179023047459 -0.6033808389337629 -6.271504763716858 14 0 1
1239 248 3 0 -6.700294587678454 -0.17835009101085575 -5.72478464569284 14 0 1
98 20 3 0 -1.3432189145165117 -7.731647523644519 -4.650177042110283 11 0 0
97 20 3 0 -0.64028569116208 -7.757746592375048 -4.8252296990959085 11 0 0
1931 477 4 0 -0.44943058830442695 -8.002119522319742 -5.07461623774886 31 1 1
1929 477 2 0 -0.10794881204829032 -8.006049089219559 -5.379081760675455 31 1 1
1408 303 4 0 1.5382248153543685 -7.653691599244788 -5.5363333646919495 8 0 0
1075 215 3 0 -5.730305713715308 -6.977782630796085 -5.443023588594641 28 1 1
1071 215 1 0 -5.295644805173862 -6.9733504507676285 -5.517786537831915 28 1 1
1074 215 3 0 -5.1459748686523845 -6.559179789429509 -5.509420506738868 28 1 1
1073 215 3 0 -5.071853514123955 -7.216086464878702 -5.1975924516375205 28 1 1
12 3 3 0 -4.208845814906655 -6.658264152784392 -5.503311392590044 7 0 0
1722 408 2 0 -3.03402903888505 -7.320821991511412 -5.468093096574608 28 1 0
1723 408 4 0 -2.606781525730142 -7.327604342952109 -5.29853255225599 28 1 0
610 122 3 0 -2.305705909798874 -7.258052456053688 -5.046758632663972 7 0 1
606 122 1 0 -2.197272362161992 -6.8712289414385825 -4.842373385945397 7 0 1
607 122 3 0 -2.4586469199716943 -6.534791700400032 -4.984181589249866 7 0 1
608 122 3 0 -1.781911018727671 -6.775368709720122 -4.925430828112281 7 0 1
1856 452 4 0 -1.4251629967096928 -6.649099511202793 -4.780643771438439 8 0 0
1363 288 4 0 0.6221327637546228 -7.091672082408955 -5.5584946415955 10 0 0
1362 288 2 0 0.5171057922118969 -6.713857355488018 -5.344840027035124 10 0 0
1407 303 2 0 1.6740045110459363 -7.276522380854656 -5.343652004936019 8 0 0
1409 303 4 0 1.8138785893393834 -6.9059069242248565 -5.155797999201848 8 0 0
334 67 3 0 2.0134507956753396 -7.009292535599419 -4.796195988981705 9 0 0
587 118 3 0 7.692386648190304 -6.800950319450713 -5.5417185405274125 27 1 1
1302 268 2 0 -2.9567715372851673 -6.199306315484089 -5.320625517102259 8 0 0
1304 268 4 0 -2.670563387078376 -6.204292107785159 -4.9629062546022915 8 0 0
1854 452 2 0 -1.0687575214408698 -6.325454475981038 -4.823793469741954 8 0 0
1855 452 4 0 -0.7374719406056016 -6.021556133339502 -4.874365693064647 8 0 0
1913 471 4 0 -0.621232697738666 -5.703287493217475 -5.109695567966494 16 0 1
622 125 3 0 -0.37924449014066663 -5.8423284150173345 -4.8170624065094465 16 0 1
623 125 3 0 0.21713743324585444 -6.356215075168554 -4.818841108250008 16 0 1
1364 288 4 0 0.42335298806247756 -6.356655782957481 -5.139682104035908 10 0 0
1576 359 4 0 6.287746357265778 -5.879225259465526 -4.679700050581825 9 0 1
1261 254 4 0 7.138179438787066 -5.7057471106918225 -4.895700412760501 11 0 0
1640 380 4 0 -7.169787773810634 -5.261837014500582 -5.462273261885674 9 0 0
755 151 3 0 -6.2330373066918625 -4.903089818938259 -5.270080112664461 11 0 0
1790 430 4 0 -5.836242360628361 -4.9108067992686095 -5.24308019076856 31 1 1
1788 430 2 0 -5.461389847120117 -4.8046379557116135 -5.023459160784212 31 1 1
1789 430 4 0 -5.076372146130913 -4.700936386417101 -4.8030912247172175 31 1 1
134 27 3 0 -4.722281171560088 -4.875315922188002 -4.6879718427981345 10 0 0
135 27 3 0 -4.046598135461598 -4.973948817084842 -5.002941072980292 10 0 0
131 27 1 0 -4.359220635712086 -5.134106055081572 -4.680501202570634 10 0 0
133 27 3 0 -4.481388601918523 -5.5610444297324815 -4.78444006151828 10 0 0
1741 414 4 0 -3.671768508932324 -4.981641443465719 -5.07078397535874 12 0 0
1740 414 2 0 -3.2771522390274868 -5.111154051590617 -5.228008249268852 12 0 0
1107 222 3 0 -2.5349293041192924 -4.986694223755672 -5.479504376935828 29 1 1
1742 414 4 0 -2.8530878136952333 -5.246281676763474 -5.393079871657224 12 0 0
1911 471 2 0 -0.5747287278054252 -5.436700393003833 -5.434815378475679 16 0 1
16 4 1 0 5.47503192845134 -4.8842389464421805 -5.380354013538117 9 0 0
1300 267 4 0 5.269331344247933 -5.263879878983259 -4.829868028074307 7 0 0
20 4 3 0 5.183531539672023 -5.209605986983161 -5.208224038668426 9 0 0
1575 359 2 0 6.258213571362328 -5.535114553426675 -4.9577807131672325 9 0 1
1577 359 4 0 6.23101119391584 -5.188607469568601 -5.242563875552882 9 0 1
17 4 3 0 5.884313101059259 -5.015545767309916 -5.327648216322018 9 0 0
1260 254 2 0 7.372529766246917 -5.313834702911475 -5.048082691544051 11 0 0
1262 254 4 0 7.584500418941754 -4.947999466532866 -5.180093462283578 11 0 0
312 63 3 0 7.980658837002469 -4.914266124834971 -5.300550350128696 10 0 1
1573 358 4 0 -8.059795275121497 -4.170110728374124 -5.563675919873287 11 0 1
1572 358 2 0 -7.605380022526191 -4.243810937770702 -5.55787792377699 11 0 1
752 151 3 0 -6.818998264389523 -4.494640739070029 -5.496481912382263 11 0 0
1574 358 4 0 -7.164241893338501 -4.309322425149226 -5.5600541625962725 11 0 1
38 8 3 0 -5.833879630936067 -4.208804104282202 -4.646174431065308 10 0 0
1106 222 1 0 -2.3537036904748696 -4.5495363671563815 -5.473609896997138 29 1 1
1110 222 3 0 -2.3620523295143503 -4.372051625343698 -5.036625738328425 29 1 1
578 116 3 0 3.9092927923603344 -4.592222276078745 -5.187895045807318 12 0 0
580 116 3 0 3.8503440152855966 -3.8941304353896236 -5.556299917941959 12 0 0
1706 402 4 0 4.129248715047243 -4.615382295051057 -4.853371287482409 31 1 0
1383 295 2 0 4.830919009899178 -3.933990331393792 -5.147722249275981 10 0 0
1384 295 4 0 5.001454108567209 -4.356114910237749 -5.246212288786853 10 0 0
18 4 3 0 5.40067210230454 -4.478144405026866 -5.153968187713604 9 0 0
37 8 3 0 -5.453066845075105 -3.5700597116027133 -4.640074329352887 10 0 0
1385 295 4 0 4.677113583216007 -3.5230213561960113 -5.0555419792687815 10 0 0
724 145 3 0 4.591174675821879 -3.1962912960310934 -5.24032369877825 29 1 0
1641 381 2 0 7.541170887330404 -3.502397251115113 -5.553449014513962 28 1 0
1643 381 4 0 7.888923070999308 -3.310650562361417 -5.361498443435522 28 1 0
1230 246 3 0 8.241079014422294 -3.4101899590447706 -5.149916219834916 15 0 1
1226 246 1 0 8.178088256272591 -3.2068803198330276 -4.744720616316272 15 0 1
1229 246 3 0 8.047077576292072 -2.7925362915216807 -4.819488138985223 15 0 1
517 104 3 0 -4.225858254091038 -2.0175174046271795 -4.946789389908389 10 0 1
858 172 3 0 -1.9648439627167527 -2.227324440415684 -4.834848326675129 11 0 0
519 104 3 0 -3.800501309616247 -1.432292392121731 -4.809576044251504 10 0 1
852 171 3 0 -3.1998652269042784 -0.21069397238325926 -5.167709107554371 18 0 0
96 20 1 0 -0.9491234032136626 -7.853006964361529 -4.508696144456455 11 0 0
100 20 3 0 -0.8473280111176962 -7.639371586102687 -4.131719919988837 11 0 0
1631 377 4 0 -0.5440703303698937 -7.419400138851832 -3.9892279766136447 10 0 0
99 20 3 0 -0.9399051122512025 -8.304783424981679 -4.429515788756799 11 0 0
609 122 3 0 -2.255071823192905 -6.914980711294418 -4.403389145805052 7 0 1
1286 262 4 0 -2.270705454605843 -7.017130476504617 -4.0005241986160005 9 0 0
1284 262 2 0 -2.1786751143766203 -6.586647868268185 -3.7764830804962166 9 0 0
1629 377 2 0 -0.3900430884840471 -7.0057271676259845 -4.008917465570776 10 0 0
1630 377 4 0 -0.24497004853164128 -6.590238163003295 -4.041104741479838 10 0 0
331 67 1 0 2.0358612820116875 -6.7512650188378025 -4.4475677980173565 9 0 0
332 67 3 0 1.9411029785539604 -6.987195458848052 -4.072174667609204 9 0 0
333 67 3 0 2.436345307477689 -6.576540308641973 -4.407986237022708 9 0 0
468 94 3 0 6.811391972896473 -6.629180907642734 -4.46576893817209 10 0 1
451 91 1 0 -1.6271326884610202 -5.566198429025396 -3.7379269690479875 10 0 1
621 125 1 0 -0.0038932621733440698 -6.018469976864571 -4.570460304069218 16 0 1
625 125 3 0 -0.14532247092763306 -6.207065864114453 -4.1593923562285475 16 0 1
624 125 3 0 0.3196022815457127 -5.644785474809686 -4.477592373227595 16 0 1
335 67 3 0 1.7251972697887172 -6.404896429445845 -4.49641346518714 9 0 0
157 32 3 0 5.260659135003932 -5.776291537886911 -3.785490605735326 10 0 0
1301 267 4 0 4.981394251250233 -5.666732145982929 -4.066121818281224 7 0 0
469 94 3 0 6.474692835064033 -5.989610578437273 -4.338947213274229 10 0 1
467 94 3 0 7.020672692742764 -6.1877527120418225 -3.918330520825421 10 0 1
466 94 1 0 6.8693734817737955 -6.192960067455729 -4.321811771541732 10 0 1
470 94 3 0 7.168432626181431 -5.9728450266872475 -4.61185946448346 10 0 1
132 27 3 0 -4.17524564045377 -5.129446562777776 -4.280326374247572 10 0 0
1253 251 4 0 -3.8337636507933226 -5.186937766568419 -4.1005041033902785 11 0 0
1251 251 2 0 -3.5151096888208615 -4.886791080730018 -3.9392528650206806 11 0 0
455 91 3 0 -1.5001200110976551 -5.487465623851244 -4.174621654784516 10 0 1
1780 427 4 0 0.7175727044605456 -5.505666067463633 -4.50792469906723 9 0 0
1779 427 2 0 1.1693189608304149 -5.335813286331106 -4.43137501499214 9 0 0
1781 427 4 0 1.5862608611895812 -5.189691798792998 -4.367501842151819 9 0 0
162 33 3 0 1.9486694914007376 -5.202874303412112 -4.23095778558715 8 0 0
161 33 1 0 2.1130884137724557 -4.863868330018818 -4.020943215596485 8 0 0
164 33 3 0 2.5356528070201847 -4.95167843394058 -3.875806226875069 8 0 0
1705 402 4 0 4.046129897134902 -4.6692264268959285 -3.9349671522882907 31 1 0
1704 402 2 0 4.085564695013616 -4.637910117824537 -4.378926782353153 31 1 0
1299 267 2 0 5.1316427406731595 -5.4566208165895045 -4.452851425569096 7 0 0
214 43 3 0 -7.0173260570869616 -4.580797047349044 -4.168256631103978 13 0 0
211 43 1 0 -7.053356550795583 -4.281890225544987 -3.7982333811459377 13 0 0
213 43 3 0 -6.995366100672307 -3.8622237222700413 -3.9275452182644077 13 0 0
36 8 1 0 -5.681863395052318 -3.8562521456767467 -4.386025524424404 10 0 0
39 8 3 0 -5.4117658587096615 -4.008158772416029 -4.065014601327232 10 0 0
1357 286 4 0 -5.132202449522893 -4.1164628838578246 -3.7832804742847177 11 0 0
1356 286 2 0 -4.710356158136852 -3.992238932793734 -3.8871384208051483 11 0 0
1358 286 4 0 -4.262470168782838 -3.8621582531914154 -4.005000045410365 11 0 0
1252 251 4 0 -3.222802933949599 -4.623569263413184 -3.787956171205181 11 0 0
165 33 3 0 2.109369675117547 -4.506555528968932 -4.296680221108776 8 0 0
960 192 3 0 2.7155561713628114 -3.8676164011123957 -4.373698283456305 29 1 0
956 192 1 0 3.0452145707566096 -3.742570545561481 -4.099342076227916 29 1 0
959 192 3 0 3.347899760887989 -4.068661292489755 -4.067093604351792 29 1 0
1405 302 4 0 4.8601113102004 -4.446384366904045 -3.9689161860657514 9 0 0
1404 302 2 0 5.203380924764495 -4.177110942778292 -4.14971224698532 9 0 0
1406 302 4 0 5.546996014923158 -3.9167708753009407 -4.3294645833330385 9 0 0
208 42 3 0 5.910841297140026 -3.9843596033278015 -4.20196207839932 10 0 0
206 42 1 0 6.297725457651559 -3.9829674693165966 -3.9652836907745037 10 0 0
210 42 3 0 6.627659847661278 -4.200654004248657 -4.207382980930694 10 0 0
1349 283 4 0 7.003412769389945 -4.300266989592518 -4.195383118840913 14 0 0
1347 283 2 0 7.370140864256696 -4.049907208683004 -4.35465702544996 14 0 0
1348 283 4 0 7.744584810165335 -3.799001564617761 -4.514365245982782 14 0 0
1227 246 3 0 -8.116652998209291 -3.1967010356045833 -4.501291196729159 16 0 1
1496 332 4 0 -7.784363344704213 -2.9700764459542874 -4.377947865095033 9 0 1
1494 332 2 0 -7.550303520787987 -3.2846326168753075 -4.162941424386517 9 0 1