LAMMPS data file via write_data, version 27 Jun 2024, timestep = 1500000, units = lj

16000 atoms
4 atom types
11000 bonds
1 bond types

-15 15 xlo xhi
-15 15 ylo yhi
-15 15 zlo zhi

Masses

1 1
2 1
3 0.5
4 0.5

Bond Coeffs # zero

1 0

Atoms # bond

5975 1659 2 -14.047966964029056 -13.768879782118306 -14.528947132081864 0 1 0
5686 1562 4 -14.714401025555624 -13.941570000808518 -14.244883283835785 0 0 1
5976 1659 4 -14.546857169744934 -13.736678278244195 -14.537410334136405 0 1 0
5977 1659 4 -13.549076758313179 -13.801081285992417 -14.520483930027323 0 1 0
14128 4376 4 -13.429580924240714 -14.16193858954504 -14.66830885989394 1 1 0
14126 4376 2 -12.978256671619766 -14.085450010020496 -14.467172298825448 1 1 0
14127 4376 4 -12.526932418998818 -14.008961430495953 -14.266035737756955 1 1 0
2896 632 4 -12.260616051611548 -14.072764341177981 -13.967333570812443 0 0 0
13505 4169 2 -10.366142743456502 -14.2064872266274 -13.422635985449947 1 1 0
134 27 3 -9.737383615391341 -14.815200210792016 -13.637975243120232 0 0 0
13506 4169 4 -10.053968278821596 -14.57493644712693 -13.552220998253125 1 1 0
3415 805 4 -0.2108401464943921 -7.930248524215154 -13.539825984781528 0 0 0
6592 1864 4 -14.695816491192081 -1.1100640846625491 -5.892670675272337 0 0 0
4891 1297 4 -6.2046693292006365 -14.832368531943827 -13.90038538897239 0 0 1
3962 988 2 -0.19165954516618183 -6.211121275554888 -8.221952198779404 0 0 0
7246 2082 4 -5.011857814799297 -14.36417458789823 -14.284911087950178 0 1 0
509 102 3 -5.322996749833577 -14.569163528323864 -14.072899769651357 0 0 1
7244 2082 2 -4.586238375552785 -14.102157876392859 -14.270934828529441 0 1 0
507 102 3 -5.895559223386343 -14.78466829862407 -13.636287919311728 0 0 1
7245 2082 4 -4.160618936306273 -13.840141164887488 -14.256958569108704 0 1 0
6988 1996 4 -1.7341612299176017 -14.71548178506161 -14.369610474354943 0 1 0
6986 1996 2 -1.8202358777930139 -14.340113427184015 -14.688498779090944 0 1 0
3518 840 2 -10.543404034014847 -12.514102835363131 -14.403700778659582 0 0 0
3519 840 4 -10.796018066840059 -12.092631808198862 -14.31124363355506 0 0 0
3520 840 4 -10.290790001189634 -12.9355738625274 -14.496157923764104 0 0 0
6786 1929 4 -9.341042471788809 -13.386595464984241 -13.191692076825275 0 1 0
2757 586 4 -9.922478910519056 -13.071262066196539 -14.37082148876958 0 0 0
2758 586 4 -9.503012860783846 -13.152335113036116 -13.466678029911593 0 0 0
2756 586 2 -9.71274588565145 -13.111798589616328 -13.918749759340587 0 0 0
5436 1479 4 -8.321156814360947 -13.079528057813839 -14.744625302657669 0 0 1
5435 1479 2 -7.951397534675221 -12.98185625325537 -14.422541006734093 0 0 1
5437 1479 4 -7.581638254989494 -12.884184448696901 -14.10045671081052 0 0 1
13275 4092 4 -7.245829859073282 -12.864721973407727 -13.890261820788599 1 1 0
13274 4092 2 -6.748731289500834 -12.833932845941595 -13.934364448362249 1 1 0
3553 851 4 -5.871847452096574 -12.883166744479839 -13.864750772232677 0 0 0
3551 851 2 -5.719819877838194 -12.428920247714021 -14.008095590210504 0 0 0
6745 1915 4 -3.769409511678559 -13.771188338748145 -14.390609399410552 0 1 0
6743 1915 2 -3.5004563708205585 -13.38887539659085 -14.213124125988642 0 1 0
6744 1915 4 -3.2315032299625583 -13.006562454433556 -14.035638852566732 0 1 0
7023 2008 4 -2.957296853510343 -12.6916117395485 -14.083259134281725 0 1 0
10106 3036 2 -1.7766059720749916 -11.694334123300552 -14.82332426520663 0 0 0
10108 3036 4 -1.7294439211634063 -11.710827566148891 -14.325826820693774 0 0 0
2888 630 2 -14.099623147260615 -10.887218123383128 -13.738700630580142 0 0 0
2890 630 4 -14.39777331012771 -10.89555334293705 -14.139994792632512 0 0 0
9540 2847 4 -14.734753972658876 -10.735094996945042 -14.19140717564642 1 0 0
4889 1297 2 -6.642165829232917 -14.945011315520157 -14.114647881648267 0 0 1
3712 904 4 -12.639161453022831 -10.521982473701183 -13.948092184319513 0 0 0
3710 904 2 -12.2679768127178 -10.844372272143689 -14.039123940656657 0 0 0
11240 3414 2 -11.188523502826785 -11.434415652685177 -14.377100462628151 1 0 1
11241 3414 4 -10.770492572638661 -11.70762994959217 -14.352522232999693 1 0 1
11242 3414 4 -11.606554433014908 -11.161201355778184 -14.40167869225661 1 0 1
3711 904 4 -11.896792172412768 -11.166762070586195 -14.1301556969938 0 0 0
6267 1756 4 -7.624406076861417 -0.38468637983109555 -2.680929142824892 0 0 0
3348 783 4 -9.931431591760802 -10.274181394686996 -13.669083803024462 0 0 0
3691 897 4 -9.71639825423793 -11.196650755280666 -14.877728211104518 0 0 0
3911 971 2 -7.889021741856611 -11.035844899925165 -14.533267290331418 0 0 0
3913 971 4 -8.175175420768742 -10.63186131834709 -14.463172084643686 0 0 0
3552 851 4 -5.5677923035798145 -11.974673750948204 -14.15144040818833 0 0 0
11742 3581 4 -5.289654165004455 -11.736002828422345 -13.95144697894419 0 0 1
11741 3581 2 -5.230242028444524 -11.24395631297409 -14.017480490622834 0 0 1
11743 3581 4 -5.170829891884592 -10.751909797525835 -14.083514002301477 0 0 1
24 5 3 -1.8485381714389342 -11.536123014730434 -13.974465641489083 0 0 0
21 5 1 -1.9088790718348068 -11.609281093608498 -13.520255479521865 0 0 0
25 5 3 -1.523215066657275 -11.518579602365968 -13.295674726569155 0 0 0
22 5 3 -2.2419984460022597 -11.331097287065221 -13.36779154171565 0 0 0
2673 558 4 -2.3808680444322143 -11.007973967271605 -13.183457340791056 0 0 0
2672 558 2 -2.526020585823478 -10.56251826538664 -13.358099710752729 0 0 0
3759 920 4 -7.719760200675143 -11.687980090082934 -14.894649446706511 0 0 0
9885 2962 4 -1.1839923204404366 -11.558231782769365 -13.551860300640532 0 0 0
9884 2962 2 -0.8398463480299296 -11.23117078902761 -13.70868713522659 0 0 0
9886 2962 4 -0.49570037561942265 -10.904109795285855 -13.865513969812648 0 0 0
10405 3135 4 -0.38642743666496127 -10.748907881115409 -14.213053650475862 0 0 0
3234 745 4 -12.721433305448503 -10.551335041227931 -14.339277644071306 0 0 0
3233 745 2 -12.965012470441728 -10.287716129246657 -14.687378577174067 0 0 0
10065 3022 4 -14.966944145221422 -13.843320167397074 -4.5128038264724335 1 0 0
3347 783 2 -10.104357930315693 -9.81559289457103 -13.768043739339051 0 0 0
5305 1435 4 -10.067879039982023 -9.037433257580986 -13.771866057584653 0 0 1
3349 783 4 -10.277284268870584 -9.357004394455062 -13.86700367565364 0 0 0
5303 1435 2 -9.824398880662805 -8.813128428276052 -14.146572283271354 0 0 1
2826 609 4 -8.160074010098567 -9.24513252149275 -14.334802111306054 0 0 0
4476 1159 4 -7.971095983987857 -9.406451094598506 -14.022576466065855 0 0 1
4475 1159 2 -7.9342836181612135 -9.86919042491412 -14.208364414817387 0 0 1
2825 609 2 -8.429430311361731 -8.923418077353949 -14.606734086995361 0 0 0
4477 1159 4 -7.8974712523345705 -10.331929755229734 -14.394152363568919 0 0 1
3141 714 4 -4.811764121275269 -10.729708155086099 -14.250437981833329 0 0 0
3140 714 2 -4.523403398215758 -10.41873602435004 -13.985590049422916 0 0 0
3142 714 4 -4.235042675156247 -10.10776389361398 -13.720742117012502 0 0 0
4560 1187 4 -4.052483962604197 -9.970350574044408 -13.422729405400334 0 0 1
2674 558 4 -2.671173127214742 -10.117062563501673 -13.532742080714403 0 0 0
3702 901 4 -2.735167653155405 -9.779391169324198 -13.74412966131227 0 0 0
11271 3424 4 -14.991177331750494 -7.567992916652303 -14.500341528262203 1 0 1
3434 812 2 -1.975590274229214 -1.1993107992590992 -1.0134741615039025 0 0 0
3753 918 4 -12.9155371560675 -8.197441407720216 -13.682418828670123 0 0 0
3752 918 2 -12.628016733428675 -7.829044881463191 -13.860227731729974 0 0 0
3715 905 4 -13.334971454986617 -8.110135844375211 -13.611914368197601 0 0 0
5304 1435 4 -9.580918721343588 -8.588823598971118 -14.521278508958055 0 0 1
1391 279 1 -14.912602611402368 -13.350873558964347 -10.497888104993294 1 0 0
11206 3402 4 -0.29652590110694466 -2.747361752273554 -4.469405533359985 0 0 0
3263 755 2 -8.075244691009141 -7.9083797652102135 -13.74048839053058 0 0 0
3265 755 4 -8.39570647002884 -8.28711606735222 -13.678334857828657 0 0 0
3717 906 4 -8.541964831906776 -8.65155074743255 -13.705476036985885 0 0 0
3886 962 4 -9.588624514896026 -8.73108205532859 -14.885269798494466 0 0 0
2671 557 4 -4.833841257888418 -8.403256496836379 -14.034268761019849 0 0 0
4744 1248 4 -4.6586732052571715 -8.389514637007586 -14.386527181196577 0 0 1
2669 557 2 -4.425272359680483 -8.389691486076035 -13.746366961962902 0 0 0
5585 1529 2 -4.136861889998477 -7.557474260050012 -14.624738984865466 0 0 1
2670 557 4 -4.016703461472549 -8.376126475315692 -13.458465162905956 0 0 0
4600 1200 4 -0.016823350858090086 -8.155080963834202 -14.762229947231518 0 0 1
4598 1200 2 -0.18684559784926297 -7.976806935395255 -14.327131330464901 0 0 1
3435 812 4 -2.4021775521861817 -1.188670575566654 -1.2740697868030229 0 0 0
6248 1750 2 -12.630816104979498 -0.19143564493769122 -4.737790355685331 0 0 0
1494 299 3 -14.683673813757974 -7.3156476994490225 -14.580496500335698 1 0 0
3291 764 4 -12.150951629551525 -7.169910265604175 -13.871228538829524 0 0 0
3754 918 4 -12.340496310789849 -7.460648355206165 -14.038036634789826 0 0 0
3290 764 2 -12.19730977530103 -6.675746685562201 -13.810786182135166 0 0 0
3292 764 4 -12.243667921050534 -6.181583105520228 -13.750343825440808 0 0 0
3586 862 4 -9.802168410853737 -7.101925416449725 -13.328873240818181 0 0 0
9404 2802 2 -8.083353983124779 -6.852688634795453 -14.208863504763842 1 0 0
3264 755 4 -7.754782911989443 -7.529643463068207 -13.802641923232501 0 0 0
9405 2802 4 -8.226640854581113 -6.533129867246572 -14.565726316711089 1 0 0
9406 2802 4 -7.940067111668444 -7.172247402344335 -13.852000692816596 1 0 0
2964 655 4 -8.343917376942954 -6.368847862420177 -14.92381595218414 0 0 0
10710 3237 4 -6.507053112951858 -6.4817967229952 -13.918427295680145 1 0 0
10486 3162 4 -6.371945869929197 -6.387567510822961 -14.289470709868073 0 0 0
10484 3162 2 -6.783410439107434 -6.54574578102029 -14.525429484123975 0 0 0
10709 3237 2 -6.660233084327805 -6.289230132350832 -13.483164151666239 1 0 0
5586 1529 4 -3.6948659001612723 -7.435541806551758 -14.425309744903707 0 0 1
3341 781 2 -3.6844155348146708 -7.071859708537396 -13.610745950458995 0 0 0
3342 781 4 -3.592062898620125 -7.287373892266809 -14.052361877707279 0 0 0
4599 1200 4 -0.3568678448404359 -7.798532906956309 -13.892032713698285 0 0 1
3192 731 4 -13.216246400116592 -4.7754521852135685 -14.217015647629955 0 0 0
3191 731 2 -13.712005456459424 -4.840342461985834 -14.220509933606348 0 0 0
3193 731 4 -14.207764512802255 -4.9052327387581 -14.22400421958274 0 0 0
3511 837 4 -14.485169282455107 -4.773572865360132 -13.967182701199814 0 0 0
3509 837 2 -14.765255106125021 -5.184627866426472 -13.916332750585303 0 0 0
9355 2785 4 -12.933404735846125 -4.544352788007705 -14.120618391705849 1 0 0
9353 2785 2 -12.633142666918637 -4.71430277733531 -14.482501924200673 1 0 0
9354 2785 4 -12.33288059799115 -4.8842527666629145 -14.844385456695496 1 0 0
3064 688 4 -11.98480977544415 -6.062200321738814 -13.492165266662603 0 0 0
7119 2040 4 -2.1338895908694786 -6.3925055305126905 -14.42606584965535 0 1 0
7118 2040 2 -2.394986107970287 -6.3288893113501645 -14.004424313018728 0 1 0
6484 1828 4 -1.744726293228081 -6.452328656783897 -14.529958657549534 0 1 0
12789 3930 4 -12.641606254889673 -0.03339415102728788 -6.726437254151142 1 0 0
9438 2813 4 -14.404152386420478 -3.9447529530891106 -14.80628254798527 1 0 0
6962 1988 2 -13.756527634836342 -0.12756442867324386 -6.766790912730788 0 0 0
6266 1756 2 -7.946075772560477 -0.33792349399335897 -3.0608526079820226 0 0 0
11095 3365 4 -14.65614671271431 -4.1776457910212255 -14.61256474927145 1 0 1
7646 2216 2 -3.9397600882642205 -0.05612739763067661 -14.928496454749766 0 0 1
5446 1482 4 -11.105132610653131 -3.351193157170211 -14.507151871781726 0 0 1
5444 1482 2 -10.682251657961617 -3.5335983178055095 -14.701831242091806 0 0 1
3368 790 2 -11.443205384919825 -3.1076264691504467 -13.95664871033897 0 0 0
3370 790 4 -11.286327068202349 -3.52588758309652 -14.181252437610983 0 0 0
2824 608 4 -9.547786068356865 -4.386820324037131 -14.167934102013065 0 0 0
433 87 3 -9.399973313470214 -4.319621471441045 -14.543408507356624 0 0 1
431 87 1 -9.577229086775905 -3.9348001439451643 -14.732598720460024 0 0 1
434 87 3 -9.625722573696214 -3.6066373734515262 -14.40816447783411 0 0 1
2822 608 2 -9.868430474706429 -4.535156810588628 -13.81412136703269 0 0 0
435 87 3 -9.98094694667535 -4.026649238014658 -14.922271157879974 0 0 1
5445 1482 4 -10.259370705270102 -3.716003478440808 -14.896510612401887 0 0 1
5735 1579 2 -5.813215743462756 -4.112394653422574 -14.547552738109275 0 0 1
5737 1579 4 -5.72148923133024 -3.990602039094739 -14.07136705366759 0 0 1
552 111 3 -4.823163629052349 -3.33058104772062 -13.93297748230358 0 0 1
554 111 3 -5.485506989570461 -3.6588963361325866 -14.068662205734558 0 0 1
551 111 1 -5.274657566966522 -3.309761362486152 -13.84742185868075 0 0 1
6268 1756 4 -8.267745468259537 -0.2911606081556224 -3.4407760731391535 0 0 0
8404 2468 4 -4.432632573356005 -3.2592125019604548 -14.067443907127785 0 0 1
10651 3217 4 -0.10175872354142515 -0.03151981134677034 -11.328138699584523 0 0 0
8403 2468 4 -4.134879519143396 -3.5727450533414706 -14.969131468277197 0 0 1
8402 2468 2 -4.2837560462497 -3.4159787776509627 -14.518287687702491 0 0 1
7375 2125 4 -12.640893977477141 -1.9672271354786521 -13.6915537731489 0 0 0
173 35 3 -12.002109413842842 -2.7514792812174838 -13.714288649697858 0 0 0
3369 790 4 -11.6000837016373 -2.6893653552043735 -13.732044983066956 0 0 0
9183 2728 4 -0.037079499493429036 -1.943746481299343 -6.780926969840694 0 0 0
4946 1316 2 -8.049393713604124 -1.949535828327402 -14.007415194479726 0 0 1
5515 1505 4 -7.78249094479785 -2.0003744616126946 -14.791159747530978 0 0 1
4948 1316 4 -8.050222462603186 -1.9889286533470016 -13.508970093679174 0 0 1
4947 1316 4 -8.048564964605061 -1.9101430033078024 -14.505860295280279 0 0 1
5409 1470 4 -6.128273185952916 -1.9849995326265588 -14.562952040072766 0 0 1
3999 1000 4 -5.277116777936064 -2.5566196653254787 -13.850427596282435 0 0 0
3998 1000 2 -5.065262447815896 -2.1367584202492576 -14.020234185354768 0 0 0
553 111 3 -5.437834082994219 -2.9034236876115673 -14.000924687952978 0 0 1
7273 2091 4 -7.095487335339816 -0.27361792057911805 -13.486448559631619 0 0 0
7662 2221 4 -13.367647699667387 -0.1938585658411825 -14.04972305456468 0 0 1
10677 3226 4 -14.918844225848952 -12.663713633831806 -10.906960211185437 1 0 0
6160 1720 4 -13.266668538476798 -0.37937137271760457 -14.389117644919502 0 0 0
3569 857 2 -0.41704636338148116 -11.270244013153064 -1.568086947544459 0 0 0
6339 1780 4 -10.367538605502014 -0.04289957148437207 -13.535604406503111 0 0 0
6575 1859 2 -9.411861487972349 -14.774015333150594 -6.074031207103426 0 1 0
7393 2131 4 -10.745970914886351 -0.053271820883937754 -4.677257024413812 0 0 0
6158 1720 2 -13.145809643619122 -0.094740621679211 -14.782027893064166 0 0 0
5282 1428 2 -13.948673668800476 -8.499041249285561 -14.925610458740527 0 0 1
4000 1000 4 -4.853408117695728 -1.7168971751730366 -14.190040774427102 0 0 0
5826 1609 4 -4.678501967856728 -1.5376479285268838 -14.497583388909822 0 0 0
5825 1609 2 -4.637858082571725 -1.0861535721820377 -14.70853580244826 0 0 0
5827 1609 4 -4.597214197286722 -0.6346592158371915 -14.919488215986698 0 0 0
7648 2216 4 -4.262535885422699 -0.4338809502198316 -14.872657057591661 0 0 1
3037 679 4 -14.792064615318436 -9.142914897364111 -7.879968526266586 0 0 0
7789 2263 4 -1.8715177937928684 -0.4334825338205722 -13.585750665486096 0 0 1
7787 2263 2 -2.1618809498193645 -0.30733064027363494 -13.198742994532592 0 0 1
14788 4596 4 -13.902863104028333 -14.112842774565534 -11.939189640997801 1 1 1
1717 344 3 -0.31789321788832 -3.0913955106177746 -1.8192326804956114 0 0 0
14786 4596 2 -13.683702231668027 -14.51122594752362 -12.147178485722987 1 1 1
14787 4596 4 -13.464541359307722 -14.909609120481706 -12.355167330448174 1 1 1
2894 632 2 -12.353412023936126 -14.276406745858557 -13.520210904717052 0 0 0
2895 632 4 -12.446207996260707 -14.480049150539134 -13.073088238621663 0 0 0
9609 2870 4 -12.241940020774337 -14.56473176405719 -12.73141869206129 1 0 0
9608 2870 2 -11.92882604543632 -14.264162165716685 -12.483189856102507 1 0 0
13507 4169 4 -10.678317208091407 -13.83803800612787 -13.29305097264677 1 1 0
3583 861 4 -10.947967653182713 -13.545251903653789 -13.407890435706596 0 0 0
3581 861 2 -11.07317942880768 -13.445738224292086 -12.934161569302258 0 0 0
10066 3022 4 -14.620800072236918 -13.142104915103673 -5.13608662800702 1 0 0
2072 415 3 -14.74200013918364 -1.1590180214088612 -9.184854695375881 1 0 0
10485 3162 4 -7.1948750082856705 -6.70392405121762 -14.761388258379878 0 0 0
11790 3597 4 -0.31878617798699305 -2.920053127293095 -4.119586227894955 0 0 0
10591 3197 4 -1.26586782584868 -14.879967546846188 -12.461201044211373 0 0 0
3582 861 4 -11.198391204432648 -13.346224544930383 -12.46043270289792 0 0 0
155 31 3 -11.447263812172425 -13.160050797590257 -12.221714209014387 0 0 0
6785 1929 2 -9.009589189583163 -13.037957473446587 -13.055345927001762 0 1 0
6787 1929 4 -8.678135907377518 -12.689319481908933 -12.918999777178248 0 1 0
3904 968 4 -8.315596095860052 -12.504051111019312 -12.967089873458029 0 0 0
3903 968 4 -8.2085072421499 -11.978255131483884 -12.123247136145306 0 0 0
3902 968 2 -8.262051669004975 -12.241153121251598 -12.545168504801667 0 0 0
13276 4092 4 -6.251632719928386 -12.803143718475463 -13.9784670759359 1 1 0
7022 2008 2 -2.690211667565316 -12.429159900003613 -13.751921639620745 0 1 0
7024 2008 4 -2.423126481620289 -12.166708060458726 -13.420584144959765 0 1 0
23 5 3 -2.0354490757962953 -12.049495917195497 -13.44615458079954 0 0 0
3668 890 2 -0.5346391521911398 -12.166539511482894 -12.57195877772895 0 0 0
3670 890 4 -0.19378603846450126 -12.316081741971882 -12.905809457169976 0 0 0
2889 630 4 -13.801472984393522 -10.878882903829206 -13.337406468527773 0 0 0
13825 4275 4 -13.905972949625703 -11.204578247163425 -13.114230860294784 1 1 0
13823 4275 2 -13.885332997479958 -11.491404554741429 -12.705201935087054 1 1 0
13824 4275 4 -13.864693045334214 -11.778230862319433 -12.296173009879325 1 1 0
10044 3015 4 -12.631090963838703 -10.57011746168142 -12.438242014337174 1 0 0
4165 1055 4 -12.501029250174362 -10.934245325538933 -12.36162921892659 0 0 1
10043 3015 2 -13.022150998191544 -10.464484874359437 -12.145131444709229 1 0 0
4163 1055 2 -12.021911972932298 -11.031570968271174 -12.46638776948408 0 0 1
4164 1055 4 -11.542794695690233 -11.128896611003414 -12.571146320041569 0 0 1
3267 756 4 -11.274640509549291 -11.237697477319486 -12.860009697737526 0 0 0
3266 756 2 -10.904584405000566 -11.032140086670891 -12.593918287436546 0 0 0
3268 756 4 -10.534528300451841 -10.826582696022296 -12.327826877135566 0 0 0
3609 870 4 -0.14981205966345057 -12.083848862301574 -13.248268021900952 0 0 0
3079 693 4 -10.469179992343733 -10.704625844441566 -11.935596705174161 0 0 0
4136 1046 2 -6.55577684016866 -9.05063165959922 -12.518744704730295 0 0 0
3154 718 4 -7.114411089584812 -9.036891504336245 -12.180717722080766 0 0 0
4138 1046 4 -6.763540136395298 -8.845955460005493 -12.112614102508656 0 0 0
4137 1046 4 -6.348013543942022 -9.255307859192948 -12.924875306951934 0 0 0
3122 708 2 -5.551148101121277 -9.457740089430402 -12.79289079376215 0 0 0
3123 708 4 -6.0375971753822855 -9.38047783415734 -12.70688008477351 0 0 0
3124 708 4 -5.064699026860269 -9.535002344703464 -12.878901502750788 0 0 0
4559 1187 2 -4.370744842346195 -9.686686452301348 -13.161492580925705 0 0 1
4561 1187 4 -4.689005722088193 -9.403022330558288 -12.900255756451076 0 0 1
3701 901 2 -2.817669006735843 -9.297467822867382 -13.639518883677933 0 0 0
5932 1644 4 -14.070689449296875 -7.610104124796359 -12.884868423391566 0 0 0
3714 905 4 -13.803440746069677 -7.882734026432944 -12.758201924509043 0 0 0
3713 905 2 -13.569206100528147 -7.996434935404078 -13.185058146353322 0 0 0
10758 3253 4 -12.309223304564973 -8.208418404186318 -12.18245985506486 1 0 0
10757 3253 2 -11.840553047065026 -8.034321020300208 -12.188647799711175 1 0 0
3058 686 4 -10.658911028380702 -8.92615022302033 -12.641242778596324 0 0 0
3056 686 2 -10.890808859788947 -8.491313832081628 -12.556740063234285 0 0 0
3057 686 4 -11.122706691197193 -8.056477441142928 -12.472237347872246 0 0 0
10759 3253 4 -11.371882789565078 -7.860223636414097 -12.19483574435749 1 0 0
3978 993 4 -10.315456043373525 -8.867889346497627 -12.843560133001246 0 0 0
3977 993 2 -9.875406751716296 -9.065056357149937 -12.975778856419696 0 0 0
3979 993 4 -9.435357460059068 -9.262223367802246 -13.107997579838147 0 0 0
3718 906 4 -9.27499965239972 -8.89475279274244 -13.070249528485206 0 0 0
3716 906 2 -8.908482242153248 -8.773151770087495 -13.387862782735546 0 0 0
3522 841 4 -8.51785780093921 -7.809055239699494 -11.892131749178029 0 0 0
3521 841 2 -8.435720444748954 -8.288591300306049 -11.776812100826062 0 0 0
2800 600 4 -8.58345414754508 -7.406492795548709 -11.828588801183454 0 0 0
82 17 3 -3.7814965327543684 -8.495138227204945 -13.153581277633883 0 0 0
83 17 3 -3.146228910600713 -8.891958685882809 -13.21577912179211 0 0 0
85 17 3 -3.3559325463393437 -8.607630617163995 -12.550886698541078 0 0 0
4132 1044 4 -3.068988664859872 -8.672942513523125 -12.293526931475265 0 0 0
3703 901 4 -2.900170360316281 -8.815544476410567 -13.534908106043597 0 0 0
81 17 1 -3.3495706166252024 -8.534802152037956 -13.000392583394323 0 0 0
84 17 3 -3.120590744189987 -8.142225921534498 -13.093945356005543 0 0 0
3012 671 4 -3.108954055948822 -7.748078439189727 -13.050012163239366 0 0 0
5930 1644 2 -14.163683790691273 -7.283548316760538 -12.517835241367523 0 0 0
5931 1644 4 -14.256678132085673 -6.956992508724717 -12.150802059343478 0 0 0
145 29 3 -14.23296962865507 -6.548388497953242 -12.203827457911276 0 0 0
141 29 1 -14.21822190796608 -6.112743680967265 -12.071933189014812 0 0 0
14724 4575 4 -2.636708110692621 -0.03359678340578941 -0.34501109996114426 0 0 0
144 29 3 -13.781607296259823 -5.956679002588186 -12.089582466819536 0 0 0
3699 900 4 -13.568251040860781 -5.783964326459581 -12.390603991121571 0 0 0
3829 943 4 -10.781546000171849 -6.386069875000237 -12.884789311919313 0 0 0
3827 943 2 -10.479942961864444 -6.705081745852082 -13.12409462640135 0 0 0
3828 943 4 -10.178339923557036 -7.0240936167039285 -13.363399940883387 0 0 0
3584 862 2 -9.315090583750095 -7.179356912513653 -13.41108974622493 0 0 0
3585 862 4 -8.828012756646453 -7.256788408577582 -13.493306251631678 0 0 0
3955 985 4 -8.641934920263765 -6.905621911448863 -13.55082561581743 0 0 0
3466 822 4 -7.940373893786593 -6.239655445186166 -12.542513406728727 0 0 0
3953 985 2 -8.353377521345944 -6.692933193373992 -13.202259787409869 0 0 0
3954 985 4 -8.064820122428124 -6.480244475299122 -12.853693959002307 0 0 0
2798 600 2 -8.109084295096157 -7.249261085565676 -11.812732179115715 0 0 0
3464 822 2 -7.448158599834676 -6.173150969174517 -12.599969990948852 0 0 0
10711 3237 4 -6.813413055703752 -6.096663541706465 -13.047901007652333 1 0 0
3807 936 4 -4.719288111128052 -6.546576484041401 -12.230853673790676 0 0 0
3457 819 4 -4.453816458971743 -6.679593808050645 -11.95369610250144 0 0 0
3343 781 4 -3.7767681710092167 -6.856345524807982 -13.16913002321071 0 0 0
3806 936 2 -4.415853510047574 -6.685194332630523 -12.603294991208138 0 0 0
3808 936 4 -4.112418908967096 -6.823812181219646 -12.9757363086256 0 0 0
6767 1923 2 -3.1380992685597717 -5.933221584383341 -13.185034913427009 0 0 0
7120 2040 4 -2.656082625071096 -6.2652730921876385 -13.582782776382105 0 1 0
6768 1923 4 -2.8593235965805213 -5.946427519858124 -13.599896008229539 0 0 0
3013 671 4 -2.118330579630022 -7.728113367875184 -12.914858457801952 0 0 0
3011 671 2 -2.613642317789422 -7.7380959035324555 -12.982435310520659 0 0 0
2934 645 4 -2.0478626830591287 -7.565413332323493 -12.54108391611414 0 0 0
2933 645 2 -1.6188272338297929 -7.371995105361366 -12.709956568676386 0 0 0
3414 805 4 -0.9060480636939887 -7.396488638053427 -13.058384050808574 0 0 0
2935 645 4 -1.1897917846004566 -7.178576878399239 -12.878829221238632 0 0 0
3413 805 2 -0.5584441050941904 -7.66336858113429 -13.299105017795052 0 0 0
143 29 3 -14.489756494884093 -5.855047235379106 -12.346089184824667 0 0 0
10472 3158 2 -14.250481552108063 -5.00693464926048 -12.57348366375398 1 0 0
10474 3158 4 -14.084398799498517 -4.5645679777740815 -12.736971422450713 1 0 0
10473 3158 4 -14.416564304717609 -5.449301320746879 -12.409995905057245 1 0 0
3698 900 2 -13.259805376175093 -5.454403772207493 -12.605664710495565 0 0 0
10318 3106 4 -12.846153241035555 -4.768002644620092 -12.954627338485581 1 0 0
3700 900 4 -12.951359711489404 -5.124843217955404 -12.82072542986956 0 0 0
3062 688 2 -11.874789718501944 -5.589515197740066 -13.371897396386617 0 0 0
3063 688 4 -11.764769661559738 -5.116830073741317 -13.25162952611063 0 0 0
4098 1033 4 -11.541584909818301 -4.911977617706815 -13.503307089891825 0 0 0
4097 1033 2 -11.046070185984947 -4.847482392748037 -13.485827832989088 0 0 0
4099 1033 4 -10.550555462151593 -4.782987167789259 -13.46834857608635 0 0 0
2823 608 4 -10.189074881055994 -4.683493297140125 -13.460308632052316 0 0 0
3465 822 4 -6.9559433058827596 -6.106646493162868 -12.657426575168977 0 0 0
6769 1923 4 -3.4168749405390217 -5.92001564890856 -12.770173818624478 0 0 0
12315 3772 4 -13.718074066592838 -4.495762826605867 -12.920623222115527 1 0 1
168 34 3 -13.876833069918215 -3.4767743341365014 -12.247038273256267 0 0 0
12316 3772 4 -13.61133655877239 -3.5676643500527074 -12.56391560761314 1 0 1
12314 3772 2 -13.664705312682614 -4.031713588329287 -12.742269414864333 1 0 1
166 34 1 -14.080436148806397 -3.0601248106858514 -12.231259779170998 0 0 0
170 34 3 -14.533253551208384 -3.1080664229673216 -12.238875676607941 0 0 0
10316 3106 2 -12.50296184071997 -4.522992580817755 -12.685945870228087 1 0 0
10317 3106 4 -12.159770440404383 -4.277982517015419 -12.417264401970593 1 0 0
2557 519 4 -8.52661447053222 -4.379683818848124 -11.88101040113148 0 0 0
4885 1295 4 -8.163925101052515 -4.16222640164092 -11.89665262948323 0 0 1
2555 519 2 -9.018333030348707 -4.3826306542290245 -11.790433505108057 0 0 0
4883 1295 2 -8.147618063547213 -3.7811788566203806 -12.219974217011222 0 0 1
3840 947 4 -7.969308746139202 -3.0751929573987207 -12.656324825798105 0 0 0
4884 1295 4 -8.131311026041912 -3.400131311599841 -12.543295804539214 0 0 1
555 111 3 -5.344118966333744 -3.3456055111136602 -13.39876797091523 0 0 1
4588 1196 4 -5.436719183359569 -3.2352777544075937 -13.03225487642805 0 0 1
167 34 3 -13.947760222535338 -2.8158051413853045 -12.597736241963613 0 0 0
4491 1164 4 -13.614959013751971 -2.672387105697328 -12.701363781436426 0 0 1
14085 4362 4 -14.697223285188853 -3.236195820777694 -12.570976563347985 1 0 0
4492 1164 4 -12.69654459739564 -2.823799023129804 -13.066862606452707 0 0 1
172 35 3 -12.294077709827775 -2.7248575623097486 -13.022229549459986 0 0 0
4490 1164 2 -13.155751805573805 -2.748093064413566 -12.884113193944566 0 0 1
174 35 3 -12.349904975727428 -2.122242012494364 -13.467917574319163 0 0 0
171 35 1 -12.079467928004627 -2.4792356857613775 -13.346594367691987 0 0 0
175 35 3 -11.684014166177143 -2.325417995366445 -13.181196543105145 0 0 0
2568 523 4 -11.533698844810576 -2.015152255208782 -13.33671525976458 0 0 0
2567 523 2 -11.369192214141636 -1.5463818661285074 -13.280218438725862 0 0 0
9697 2899 4 -9.821722560814614 -1.8526102064096373 -12.206303516256927 1 0 0
3841 947 4 -8.038685365672983 -2.296719357706232 -13.28015632487769 0 0 0
3839 947 2 -8.003997055906092 -2.6859561575524764 -12.968240575337898 0 0 0
5369 1457 2 -6.556799652065553 -2.6627051084856737 -11.99886364686419 0 0 1
5370 1457 4 -6.253456843997894 -2.9912351477870938 -12.222584799351466 0 0 1
4587 1196 4 -6.008906725698937 -2.7239318746551864 -12.391063167458048 0 0 1
4586 1196 2 -5.722812954529253 -2.97960481453139 -12.71165902194305 0 0 1
3085 695 4 -0.3149198672324626 -2.308813014256856 -12.196982510017994 0 0 0
2794 598 4 -0.6028836744172951 -2.2745960245071357 -12.503868538107836 0 0 0
2792 598 2 -0.6607544906361446 -1.9721631218967421 -12.897804202967997 0 0 0
10244 3082 2 -14.819064827273001 -0.8062288809434416 -13.465742099254198 1 0 0
10245 3082 4 -14.596026796042057 -0.4069714881326363 -13.667849919267535 1 0 0
7661 2221 2 -13.300100016046263 -0.5601473334032856 -13.71615169908694 0 0 1
7663 2221 4 -13.23255233242514 -0.9264361009653888 -13.382580343609199 0 0 1
7374 2125 4 -13.359753508857693 -1.2983282779484133 -13.5023044863918 0 0 0
7373 2125 2 -13.000323743167417 -1.6327777067135327 -13.59692912977035 0 0 0
3027 676 4 -12.309843716439202 -0.8569905410826795 -12.097989279957698 0 0 0
2590 530 4 -12.345715514836096 -0.6077073569980584 -12.4088165797225 0 0 0
2569 523 4 -11.204685583472695 -1.0776114770482326 -13.223721617687145 0 0 0
6340 1780 4 -10.876110291771505 -0.8889071435351643 -13.375523089798971 0 0 0
6338 1780 2 -10.62182444863676 -0.4659033575097682 -13.455563748151041 0 0 0
5756 1586 2 -9.610463152436001 -1.1640214948200274 -12.503387643075037 0 0 1
5758 1586 4 -9.521053341923553 -1.6224908358604804 -12.325029158247258 0 0 1
5757 1586 4 -9.699872962948449 -0.7055521537795743 -12.681746127902816 0 0 1
2911 637 4 -9.38847257947307 -0.7015859026704847 -12.9678157762603 0 0 0
2909 637 2 -9.037925238116836 -0.34507633163295964 -12.971997549414889 0 0 0
4742 1248 2 -4.707644827689956 -8.531907751673668 -14.863314325624772 0 0 1
13340 4114 2 -4.963278090040247 -1.2331013320566622 -12.362336095859499 0 0 0
13341 4114 4 -4.919626960907923 -1.0339816079131108 -12.818894870150903 0 0 0
10148 3050 2 -4.0376499221790425 -0.9130641868918855 -12.78463036133535 0 0 0
10150 3050 4 -3.5376950723463167 -0.906557403179249 -12.786306635314622 0 0 0
10149 3050 4 -4.537604772011768 -0.919570970604522 -12.782954087356076 0 0 0
890 178 3 -3.168770347655231 -0.7962094201257568 -12.884803259543466 0 0 0
887 178 3 -3.305734452276668 -0.5169217936994959 -12.206393902465871 0 0 0
7788 2263 4 -2.4522441058458604 -0.18117874672669768 -12.81173532357909 0 0 1
886 178 1 -2.983580095900285 -0.5817273847574028 -12.528289547101451 0 0 0
888 178 3 -2.8182851627611942 -0.16876731576685844 -12.660356070103566 0 0 0