LAMMPS data file via write_data, version 4 Feb 2025, timestep = 800000, units = lj

3100 atoms
4 atom types
2100 bonds
1 bond types
1250 angles
2 angle types

-10.410592 10.410592 xlo xhi
-10.410592 10.410592 ylo yhi
-10.410592 10.410592 zlo zhi
-7.105427357601002e-15 0 0 xy xz yz

Masses

1 1
2 1
3 0.1
4 0.1

Bond Coeffs # harmonic/omp

1 100 0.45

Angle Coeffs # harmonic/omp

1 100 180
2 100 109.471

Atoms # full

1275 392 4 0 -6.924027368058832 -7.095313966354859 -9.67575418332724 12 1 1
180 36 3 0 -6.857511174631535 -7.464425865010589 -9.554539646228925 4 0 1
1274 392 2 0 -6.767073862009138 -6.842181316795471 -10.044199934402952 12 1 1
1276 392 4 0 -6.620921738794758 -6.607264037146491 -10.38145089685434 12 1 1
618 173 4 0 -1.9487138151679861 -6.417695987434552 -9.567145908718052 4 0 1
617 173 2 0 -1.5197518098928828 -6.320281920395182 -9.728454927686847 4 0 1
619 173 4 0 -1.1198942521438813 -6.236904962674364 -9.876432359266659 4 0 1
2724 875 4 0 -0.76540705758066 -6.3724978686825455 -10.009744852486877 12 1 0
2723 875 2 0 -0.39218954269977147 -6.222800040373209 -9.913214142494672 12 1 0
2759 887 2 0 -7.552972635633754 -5.345550527662568 -10.204170783673273 5 0 0
70 14 3 0 -6.493521159927999 -5.694163408567607 -10.296609918703583 4 0 0
2761 887 4 0 -7.8806988608129895 -5.082090785576377 -10.008402228317763 5 0 0
256 52 4 0 -8.098528576397898 -5.094803777325133 -9.669290230183943 4 0 0
1350 417 4 0 -6.323073117103712 -4.192753446146296 -10.221548716006573 12 1 1
1351 417 4 0 -5.647694256040989 -3.8930561293452515 -9.709826026873673 12 1 1
1349 417 2 0 -5.992403380245191 -4.045954698703049 -9.972099051137782 12 1 1
1928 610 2 0 -8.355974142337715 -0.23686203681800144 -10.242975326642847 7 0 1
1929 610 4 0 -8.031051951058473 -0.39531932052461194 -9.995345960760257 7 0 1
34 7 3 0 -7.817684527162976 -0.28672661838080593 -9.668431299149663 7 0 0
2637 846 4 0 -7.142417144572388 -0.6485874906125133 -10.200832915686435 7 0 0
32 7 3 0 -7.235009702865247 -0.7563530918640922 -9.793014683807167 7 0 0
3082 994 4 0 -5.117996992165377 -0.022411818153205587 -10.307031233011934 9 0 1
2719 873 4 0 -7.232315692898853 -10.325909923354146 -9.02603053958901 4 0 0
655 185 4 0 -4.615242663068738 -10.336952354438248 -9.051221079558259 5 0 1
2745 882 4 0 -5.003667742881316 -10.383295035162778 -8.989447846011382 13 1 0
653 185 2 0 -4.174643179081971 -10.21038603572317 -9.022603706258367 5 0 1
654 185 4 0 -3.7662131601985935 -10.09619101177577 -8.994686217574245 5 0 1
420 107 4 0 -3.384958252594134 -10.203637840807179 -8.852383704485565 5 0 0
2566 822 4 0 -0.36693408807522054 -9.917104220024155 -8.825462414609182 14 1 0
2564 822 2 0 -0.44281333347823804 -10.339831520171444 -8.94299742006788 14 1 0
696 199 4 0 -9.123217667868614 -7.857752554041966 -8.704751956077052 4 0 0
695 199 2 0 -8.725880793192747 -8.057105897135338 -8.86905615807453 4 0 0
697 199 4 0 -8.357690312741635 -8.255733717900641 -9.017569886860956 4 0 0
2161 687 4 0 -7.974289463605475 -8.418606558106251 -9.136917053287261 4 0 1
2159 687 2 0 -7.573917768984451 -8.25600983556394 -9.153598357748626 4 0 1
2160 687 4 0 -7.161313769041319 -8.083200628812223 -9.16150339434858 4 0 1
177 36 3 0 -6.78624994766594 -7.991053255772968 -9.073870983019935 4 0 1
2272 724 4 0 -3.893005035384011 -7.819960851443894 -8.850240499883268 4 0 1
1704 535 4 0 -3.545737707528593 -7.896117849388945 -9.02563253468122 4 0 0
178 36 3 0 -7.077134626030674 -7.312932423510572 -8.898648814942293 4 0 1
176 36 1 0 -6.769280016224936 -7.531966223512912 -9.16179449724153 4 0 1
179 36 3 0 -6.34234906841129 -7.379820190809155 -9.071275165668753 4 0 1
2210 704 2 0 -5.583798405088497 -7.610920842257674 -8.91593534714526 4 0 1
2212 704 4 0 -5.968323501194522 -7.4661166023884515 -9.017299329979743 4 0 1
2211 704 4 0 -5.153486149929423 -7.767384928503397 -8.822732933239026 4 0 1
2271 724 4 0 -4.8062838365158544 -7.6645190843132935 -8.971133480332089 4 0 1
2270 724 2 0 -4.369514208098976 -7.739475253274485 -8.910508222001175 4 0 1
1703 535 2 0 -3.2030959923848688 -7.597720508825569 -9.056117604746277 4 0 0
1705 535 4 0 -2.8625889917739773 -7.306212814530882 -9.093629346349712 4 0 0
2815 905 4 0 -2.8500924333760995 -6.897335870671176 -9.203974188817284 12 1 1
2813 905 2 0 -2.425956570066572 -6.853981715869035 -9.360829750830824 12 1 1
2814 905 4 0 -1.9973919498710142 -6.819024104096442 -9.522473981094578 12 1 1
352 84 4 0 -10.349058436312207 -4.958833533381322 -8.811321473067292 3 0 0
254 52 2 0 -8.26161865311941 -4.951606385502316 -9.279199735802813 4 0 0
255 52 4 0 -8.449099365490037 -4.802786399836078 -8.864837137379777 4 0 0
1560 487 4 0 -5.406784936306262 -3.8053444991088448 -9.404979232702443 5 0 1
1559 487 2 0 -5.37424573192358 -3.863561656665979 -8.962902498073491 5 0 1
1094 332 2 0 -10.265564410579376 -3.0964395800177558 -8.755334033514332 14 1 0
1096 332 4 0 -9.986814417788995 -2.807978619157767 -8.864824778227646 14 1 0
1836 579 4 0 -9.830702248645272 -2.471384616809644 -9.097155302088991 15 1 0
1835 579 2 0 -9.42356744477344 -2.3047484223233834 -9.212803888253122 15 1 0
1837 579 4 0 -9.012722919372901 -2.1423302267812314 -9.320868298458247 15 1 0
122 25 3 0 -8.617963561542071 -2.101271327837358 -9.234257015429138 7 0 0
121 25 1 0 -8.420276697161041 -2.0956765196454974 -8.835534677187177 7 0 0
124 25 3 0 -7.995476715302947 -2.130784774443015 -8.898128917971919 7 0 0
2083 661 4 0 -7.789512899200437 -2.432707377400492 -8.73482482103882 7 0 1
2081 661 2 0 -7.367838951948135 -2.537504078568986 -8.69460053196666 7 0 1
521 141 2 0 -6.294167593192 -2.283027451506003 -8.890806494583181 7 0 0
523 141 4 0 -5.967280593787074 -2.2140524902750727 -9.177557970454167 7 0 0
2908 936 4 0 -5.6572108482386465 -2.486483112973053 -9.133823711883363 15 1 0
2906 936 2 0 -5.208034721940306 -2.4459478267208707 -9.035966557993564 15 1 0
2907 936 4 0 -4.733763736598659 -2.413381762993536 -8.934384959760502 15 1 0
306 69 4 0 -4.634948087846642 -2.088985547518515 -8.756515016955724 6 0 0
2407 769 4 0 -3.542039013004291 -1.8010728874607072 -8.775099278915675 15 1 0
2256 719 4 0 -8.322747803798775 -1.364716196013605 -8.72887656380985 7 0 1
2255 719 2 0 -8.05904934957278 -1.0281656146986862 -8.803826642132107 7 0 1
2405 769 2 0 -3.120627194722407 -1.7176933152832365 -8.946782242933054 15 1 0
2406 769 4 0 -2.7164004967921436 -1.6366631709715396 -9.111818619913917 15 1 0
3012 971 4 0 -2.332278633324437 -1.5537102141471202 -9.145670050749462 15 1 0
3011 971 2 0 -2.0389211560207467 -1.1903531854972336 -9.224016269520897 15 1 0
3006 969 4 0 -1.3649229593715368 -0.8845768427141216 -9.231483689368527 7 0 1
31 7 1 0 -7.4022628508934405 -0.4428833902677596 -9.501023894248856 7 0 0
33 7 3 0 -7.117417569924484 -0.10738862588602593 -9.466880938186044 7 0 0
2257 719 4 0 -7.79745425262117 -0.7077766589458392 -8.880201337073828 7 0 1
35 7 3 0 -7.466814127847313 -0.6426622319192141 -9.088075739346785 7 0 0
3013 971 4 0 -1.7498693574513968 -0.8405286814251678 -9.30592736279981 15 1 0
3005 969 2 0 -0.9442315245508546 -0.7305315730144653 -9.283373877660823 7 0 1
3007 969 4 0 -0.5089385518898677 -0.5672949140733241 -9.346519545267066 7 0 1
1776 559 4 0 -0.4074163471444372 -9.601212286732444 -8.57859305169524 6 0 0
2245 715 4 0 -5.386740917252327 -8.882526027217796 -7.978259255615363 5 0 1
1348 416 4 0 -5.048553915149421 -9.076998907176643 -8.070396927563314 5 0 1
1346 416 2 0 -4.6842777608934885 -8.788718003527197 -7.927985623743243 5 0 1
1775 559 2 0 -0.5205015510374622 -9.498299648633541 -8.175246919422452 6 0 0
1874 592 2 0 -9.938149967173342 -7.83184774674512 -8.66157963420776 5 0 1
1876 592 4 0 -9.504059865901148 -7.87444994441754 -8.641864679452794 5 0 1
1875 592 4 0 -10.382760286833586 -7.794359635458446 -8.669697562818952 5 0 1
2337 746 4 0 -6.877781639755199 -7.3137980108056695 -8.549137740143111 4 0 1
2683 861 4 0 -7.034391626803059 -6.198594144146663 -7.9293672311571015 7 0 0
2338 746 4 0 -6.920872552637045 -6.576991328562553 -8.005538302083352 4 0 1
2336 746 2 0 -6.8974847951829465 -6.934113397731782 -8.269163205698264 4 0 1
2681 861 2 0 -7.055233379343106 -5.737095755198513 -7.986195576130331 7 0 0
2682 861 4 0 -7.077142796472703 -5.287468551145639 -8.047909930520163 7 0 0
2173 691 4 0 -8.295380627361581 -4.579867909809852 -8.575323211288381 4 0 1
1017 306 4 0 -7.036687119171969 -4.899992310103756 -7.98115303714839 6 0 0
1016 306 2 0 -6.682777673051346 -4.626378931479946 -7.8693609621792096 6 0 0
2172 691 4 0 -8.203850504768377 -3.7533738726012347 -8.23118997949114 4 0 1
2171 691 2 0 -8.248252168231119 -4.173571957250266 -8.405288891147151 4 0 1
1561 487 4 0 -5.32929566039464 -3.9150471229057873 -8.530193771753162 5 0 1
2166 689 4 0 -8.880113584729465 -2.671534310984142 -8.464938855457245 7 0 1
2165 689 2 0 -8.676565984842373 -3.0544286763739743 -8.336451310258502 7 0 1
2167 689 4 0 -8.474969754669775 -3.4257233260197477 -8.222646959618626 7 0 1
2082 661 4 0 -6.939832663554903 -2.636981825684109 -8.650094618886685 7 0 1
123 25 3 0 -8.557516462575897 -2.457655578901666 -8.585987356534709 7 0 0
522 141 4 0 -6.647642997008278 -2.361768991934836 -8.588546551228093 7 0 0
305 69 2 0 -4.182743595437031 -2.0569259064329035 -8.638929150535285 6 0 0
307 69 4 0 -3.7531711232880944 -2.028349416664547 -8.51955494220462 6 0 0
125 25 3 0 -8.499442755353044 -1.7120810025178308 -8.607674965504842 7 0 0
2431 777 4 0 -2.9982858590980532 -0.028917092575895254 -8.0237836497182 8 0 0
1195 365 4 0 -0.6342131121463108 -9.702414427751792 -7.5068043892832925 13 1 0
1193 365 2 0 -0.6024909935550387 -9.823414055032268 -7.090820338048844 13 1 0
2244 715 4 0 -6.1497039510843825 -9.125563016629165 -7.568884584428151 5 0 1
2243 715 2 0 -5.772421221598278 -9.00784128191468 -7.7675357364919275 5 0 1
1777 559 4 0 -0.6293751632747906 -9.375644679082997 -7.738184659077436 6 0 0
1347 416 4 0 -4.360336793642136 -8.510647877151106 -7.787804509180582 5 0 1
508 136 4 0 -4.08761859393513 -8.613839247668725 -7.529689905897218 13 1 0
506 136 2 0 -3.867057859504227 -8.323309662305727 -7.293433587153485 13 1 0
507 136 4 0 -3.634612446394846 -8.018261046372968 -7.050354177113304 13 1 0
1018 306 4 0 -6.365539722397903 -4.387047511449368 -7.779494214133135 6 0 0
2429 777 2 0 -2.6374161457030745 -0.12504520929118712 -7.770440151803514 8 0 0
2628 843 4 0 -2.2680252133143544 -0.12982014463932323 -7.110349405368446 18 1 0
2430 777 4 0 -2.2820757486494294 -0.21295493343348326 -7.515792286253573 8 0 0
1194 365 4 0 -0.5699593378574495 -9.943921145131362 -6.671471227083716 13 1 0
2151 684 4 0 -0.2575847005479943 -10.065374953318925 -6.4747203080904026 13 1 0
1411 437 4 0 -2.2582958164181353 -8.910673969220365 -6.10865676297564 3 0 0
1912 604 4 0 -3.8123770155561862 -7.782235689383661 -6.746670980143883 5 0 0
1910 604 2 0 -3.859199863570094 -7.596613096207951 -6.350057418457664 5 0 0
631 177 4 0 -10.281062262058839 -4.6484624595517685 -6.25774998182162 7 0 1
2152 684 4 0 -0.5619599818498671 -9.944416884247953 -5.630007656582549 13 1 0
2150 684 2 0 -0.41333563276984364 -10.003987054784385 -6.055090395608046 13 1 0
2130 677 4 0 -0.7865087496724268 -10.1343432445449 -5.348112305170664 5 0 0
2978 960 2 0 -3.6174887047117688 -9.040303447361937 -5.3718109400239396 12 1 1
2980 960 4 0 -4.059969095801288 -8.972943931911487 -5.3216670303660445 12 1 1
2979 960 4 0 -3.1791365745255202 -9.10720270772706 -5.423650659994131 12 1 1
1410 437 4 0 -3.0810284942551576 -8.826000421517556 -5.7290194079986785 3 0 0
1409 437 2 0 -2.6528417160729507 -8.866946637586354 -5.921234811708958 3 0 0
1230 377 4 0 -1.9154287504706016 -8.919117813947024 -5.929308439428959 12 1 0
1229 377 2 0 -1.507164535727206 -8.936327859652328 -5.783081757411581 12 1 0
1231 377 4 0 -1.0816828482422274 -8.95512546025683 -5.643560558104567 12 1 0
1854 585 4 0 -0.945904099636671 -8.794996798369848 -5.283505691969539 4 0 -1
1911 604 4 0 -3.9069801368319066 -7.391665897166655 -5.934660820266373 5 0 0
1860 587 4 0 -3.861300142880083 -7.533896671680459 -5.559356737372193 5 0 0
1859 587 2 0 -3.4617525894595875 -7.584409339645176 -5.308652366529782 5 0 0
2841 914 4 0 -0.3675966779306794 -5.36441849152265 -5.623715917386495 12 1 1
1446 449 4 0 -0.042913638689581646 -5.214999349413747 -5.459680099265813 12 1 1
2840 914 2 0 -0.6710492013889979 -5.108622359303906 -5.357130227824279 12 1 1
630 177 4 0 -10.186839679341576 -3.8480580478019144 -5.841001192511805 7 0 1
2343 748 4 0 -9.906132936410899 -3.6948779148583073 -5.606127310488259 8 0 0
629 177 2 0 -10.232496140682631 -4.23759122119922 -6.039283790526334 7 0 1
2344 748 4 0 -9.663311168148953 -2.8207724216979697 -5.610646124123966 8 0 0
2342 748 2 0 -9.785294855561675 -3.2650777559131727 -5.608314560515322 8 0 0
206 42 1 0 -10.190438571858515 -2.137532352037523 -5.455377740904507 8 0 0
208 42 3 0 -9.9056724143885 -2.5168034823595606 -5.542600924837942 8 0 0
209 42 3 0 -9.931567837232862 -1.7953521297481991 -5.287284637817951 8 0 0
207 42 3 0 -10.378965319643058 -2.005450096111712 -5.823092815400982 8 0 0
1144 348 4 0 -5.627033922398623 -1.4782838020156621 -5.225646108029777 6 0 0
2241 714 4 0 -1.061888049947827 -0.8862167602111839 -5.41920447200105 8 0 0
2587 829 4 0 -0.9333040390557095 -1.223458585106977 -5.251932832012423 8 0 0
2240 714 2 0 -1.3625771268405007 -0.5836863203718128 -5.3800127165818905 8 0 0
2242 714 4 0 -1.6840413602300384 -0.269842629981488 -5.333179032840472 8 0 0
2131 677 4 0 -1.1803103772325798 -10.192206866097099 -4.557256866170854 5 0 0
2129 677 2 0 -0.98162527827437 -10.163464677234355 -4.957991131049917 5 0 0
763 221 4 0 -4.407375613533284 -8.88188519780184 -5.1296424604814375 12 1 0
1855 585 4 0 -0.49860772019274435 -8.898175832465489 -4.481569942212164 4 0 -1
1853 585 2 0 -0.716419582794062 -8.84403719402445 -4.882742872413162 4 0 -1
2553 818 4 0 -5.002450912636545 -8.386633949202768 -4.37164058769126 12 1 0
761 221 2 0 -4.499349414465596 -8.64957946789879 -4.785029447887666 12 1 0
762 221 4 0 -4.592883153545452 -8.407537947322488 -4.428712295107963 12 1 0
1861 587 4 0 -3.1005731646028494 -7.63762294277623 -5.084046096124303 5 0 0
2611 837 4 0 -9.22396664665999 -5.429220530875771 -4.589070572553274 13 1 0
2619 840 4 0 -7.748728711126991 -5.378226800043561 -4.495004548367356 12 1 0
1527 476 4 0 -9.014446609205146 -5.092018441643211 -4.703824139433752 12 1 0
1526 476 2 0 -8.57874006982549 -5.139200968566346 -4.600016918188533 12 1 0
1528 476 4 0 -8.118866041743079 -5.18712403050897 -4.499276350989596 12 1 0
2842 914 4 0 -0.9515870489807643 -4.876536318592671 -5.105940119351426 12 1 1
1807 569 4 0 -0.7251697183392221 -4.68761095847538 -4.827341781772596 3 0 0
1805 569 2 0 -0.6472394656115341 -4.589115162923624 -4.408973832631934 3 0 0
1137 346 4 0 -0.07972578343851389 -1.8518649742678672 -4.725168171526301 16 1 0
2586 829 4 0 -0.4772248202331948 -1.844710187089765 -4.759805321622397 8 0 0
2532 811 4 0 -9.951014078765668 -1.4245774087679521 -5.137054365266277 8 0 0
2531 811 2 0 -9.534570436422246 -1.3674943323470465 -5.0008575659451955 8 0 0
2533 811 4 0 -9.11767609795545 -1.3110718671452712 -4.860318649871371 8 0 0
2677 859 4 0 -8.73755219497124 -1.4595771178624517 -4.893767917315954 8 0 0
2676 859 4 0 -8.005668058261481 -1.2534089900015868 -4.422506778734945 8 0 0
2675 859 2 0 -8.367607705887494 -1.3558192220881953 -4.657653417553687 8 0 0
2849 917 2 0 -6.066226356512432 -1.5919627669917968 -4.526762945873994 6 0 0
2851 917 4 0 -5.78473023418205 -1.6373642485630917 -4.888078688840669 6 0 0
1142 348 2 0 -5.183983876624441 -1.406164590081044 -5.13803450984653 6 0 0
1143 348 4 0 -4.755490298254971 -1.3318595445045567 -5.054935057416538 6 0 0
1342 414 4 0 -4.41593884147779 -1.528644724688501 -5.03579897400775 6 0 0
1340 414 2 0 -4.1076353378713275 -1.333554377240091 -4.787889590144372 6 0 0
1341 414 4 0 -3.7818042158843657 -1.11908572580594 -4.537168358749024 6 0 0
2585 829 2 0 -0.6967817815348116 -1.5422040102650438 -5.003985616403937 8 0 0
1198 366 4 0 -0.057164134699741354 -9.600568433024534 -3.650837452901314 13 1 0
1239 380 4 0 -6.538033855062681 -8.803452307826785 -3.6172811433113825 12 1 0
1196 366 2 0 -0.22688998073498823 -9.246736083849877 -3.8739967031042326 13 1 0
1197 366 4 0 -0.40375635288011047 -8.881209260136325 -4.099125149037971 13 1 0
1238 380 2 0 -6.292437462458293 -8.488744557409962 -3.751066134723832 12 1 0
2552 818 2 0 -5.382274557041202 -8.192149649811494 -4.2454053299679 12 1 0
1240 380 4 0 -6.0296877127556625 -8.165573831750104 -3.894166769694385 12 1 0
2554 818 4 0 -5.760188606095278 -7.998381325711548 -4.12043188216508 12 1 0
1589 497 2 0 -10.370113779304429 -6.392195437268242 -3.9414505265520274 13 1 0
1590 497 4 0 -10.09914233483931 -6.047834251802413 -3.9329566355495214 13 1 0
2610 837 4 0 -9.746333501061203 -5.855133666671828 -3.9289696684589597 13 1 0
2609 837 2 0 -9.500526875986917 -5.657751391651437 -4.233354426847405 13 1 0
2618 840 2 0 -7.458646184534012 -5.529323319375425 -4.17255542430029 12 1 0
2620 840 4 0 -7.16380691288877 -5.671206625603976 -3.843874005812573 12 1 0
1806 569 4 0 -0.5734975232818833 -4.49186271120918 -3.9875809508261995 3 0 0
1639 513 4 0 -0.8460153702114876 -4.681711392631424 -3.739688927695778 11 1 0
2850 917 4 0 -6.352105334525827 -1.5635384697159846 -4.176296910748241 6 0 0
2389 763 4 0 -6.339089915030707 -1.1447428615954092 -4.041995444955047 7 0 0
2387 763 2 0 -6.39165399954453 -1.085593320222431 -3.6395545199762918 7 0 0
1483 461 4 0 -3.4652364104591618 -1.1521411004458386 -4.264310520247574 6 0 1
1481 461 2 0 -3.1796387222922187 -1.0155149994417556 -3.9095866842675395 6 0 1
1482 461 4 0 -2.9224597746736434 -0.8912864541518086 -3.5777917378288393 6 0 1
2185 695 4 0 -6.7421441572996805 -8.976760491752824 -3.3411628166782057 3 0 0
2183 695 2 0 -6.935342959451756 -8.861348037848327 -2.964029770638003 3 0 0
155 31 3 0 -10.2508093557505 -4.552619736042604 -2.7711327543266115 6 0 0
309 70 4 0 -10.405878602695063 -4.90705684808176 -2.853698716866587 5 0 0
154 31 3 0 -9.522222772548158 -4.522802911779776 -2.9261280539316994 6 0 0
549 150 4 0 -9.248172897569056 -4.546432824329453 -3.217614788826543 6 0 0
548 150 2 0 -8.911711075567853 -4.823679284294734 -3.1787011287926266 6 0 0
1654 518 4 0 -8.15953537067135 -5.067851042518314 -2.997775920317876 21 2 0
550 150 4 0 -8.559776723698306 -5.125250493607521 -3.1290454254883215 6 0 0
1652 518 2 0 -7.7876102506767415 -5.050785987858978 -2.7484298066122186 21 2 0
1638 513 4 0 -0.6658801028142491 -4.726229325071893 -2.870648974955433 11 1 0
1637 513 2 0 -0.7537806409904846 -4.699173037895322 -3.3245884510491175 11 1 0
2388 763 4 0 -6.448091269580336 -1.020142388398984 -3.205534943824606 7 0 0
13 3 3 0 -2.6036332716310566 -1.4299041185994437 -2.9155938135894566 6 0 0
11 3 1 0 -2.667553372445224 -0.9802057511475528 -2.8379611696993283 6 0 0
1813 571 4 0 -3.4306437609233926 -0.9070490161145859 -2.61006143465051 6 0 0
1675 525 4 0 -6.457244376512145 -0.648660041423911 -3.0617794627278716 6 0 0
12 3 3 0 -2.7227689617139337 -0.758747182073348 -3.242498965621733 6 0 0
1442 448 2 0 -10.182100480808069 -9.716404848253731 -2.158456744129122 12 1 1
1444 448 4 0 -9.961922822378499 -9.332261657335794 -2.244238082141166 12 1 1
691 197 4 0 -10.140156627404501 -8.974756195560317 -2.2708945875004414 12 1 0
689 197 2 0 -9.842126553605029 -8.681295160798575 -2.091765442240696 12 1 0
2184 695 4 0 -7.134342993835291 -8.747739222174305 -2.588210005313746 3 0 0
690 197 4 0 -9.544896375578615 -8.372837814866388 -1.916489458379413 12 1 0
1914 605 4 0 -9.391045133850433 -7.9854081941505175 -1.8995658249033447 12 1 1
1913 605 2 0 -8.952785303406529 -7.987295642850816 -2.019309604606242 12 1 1
3084 995 4 0 -8.131974182282436 -8.02607843887817 -2.206650677965225 11 1 0
1915 605 4 0 -8.521373581428907 -7.982156801258343 -2.123357899289955 12 1 1
3083 995 2 0 -7.800280314673486 -8.298622707988462 -2.403602329140007 11 1 0
3085 995 4 0 -7.484671463654681 -8.550089571718573 -2.582405104702966 11 1 0
151 31 1 0 -9.838016376279642 -4.510570268812762 -2.5891452588718185 6 0 0
152 31 3 0 -9.763568516319383 -4.8401185855818305 -2.315148455071604 6 0 0
1653 518 4 0 -7.3935946358610325 -5.039627987040156 -2.4939044489059103 21 2 0
2239 713 4 0 -7.059635455179574 -4.829294516287884 -2.5997028200628494 6 0 1
2238 713 4 0 -6.562354258504359 -5.060587523691893 -1.8791259294093319 6 0 1
2237 713 2 0 -6.810473511008778 -4.940548891514326 -2.2487552278636826 6 0 1
2848 916 4 0 -5.003414755866253 -5.133648253611917 -1.7665954265858765 13 1 1
297 66 4 0 -0.8311994519072883 -4.512621820153332 -2.56945436159517 4 0 -1
153 31 3 0 -9.792795767856122 -4.131613622755299 -2.3895799879782764 6 0 0
577 159 4 0 -9.898269533538036 -4.2042499124626405 -2.0200756739375727 5 0 0
2967 956 4 0 -3.6542841969211395 -3.6010375663856475 -1.7482018074040564 5 0 1
296 66 2 0 -1.039032624116734 -4.253374828433831 -2.2633364245166963 4 0 -1
298 66 4 0 -1.2474778891405531 -3.9819359780554464 -1.9362879961796882 4 0 -1
1949 617 2 0 -8.761170206124458 -2.6933418615488147 -1.7789136642590062 -1 -1 0
1951 617 4 0 -8.328070372391338 -2.6667831855916635 -1.9964541598301686 -1 -1 0
913 271 4 0 -3.6430932390459922 -3.2979880536668915 -1.9968695154827447 5 0 1
911 271 2 0 -3.393361812300755 -3.020151889805507 -2.2417762259885485 5 0 1
912 271 4 0 -3.148515655338347 -2.735990107202329 -2.488758891376305 5 0 1
2973 958 4 0 -2.7650669872792024 -2.7554368870199006 -2.383988159251002 13 1 1
2972 958 2 0 -2.3529813880513792 -2.7754479476745963 -2.154673310438511 13 1 1
2974 958 4 0 -1.9703677059330253 -2.802330628979508 -1.9439067292929195 13 1 1
1014 305 4 0 -1.7973418548238769 -3.112885561508228 -1.795532446936308 3 0 0
466 122 4 0 -7.92795319723399 -2.572875242792035 -1.9669543879567595 6 0 0
464 122 2 0 -7.466823192245146 -2.4647454275896523 -2.020351339690567 6 0 0
465 122 4 0 -7.011350928545756 -2.342259909162415 -2.0715238369441398 6 0 0
1995 632 4 0 -6.602044674451011 -2.3571176683431894 -2.2199826467439987 6 0 0
1994 632 2 0 -6.171003279528287 -2.2178700344424964 -2.337983652691994 6 0 0
1996 632 4 0 -5.749149675849899 -2.0755506269078037 -2.458261775780546 6 0 0
1563 488 4 0 -5.3836367732464545 -1.8877140528927665 -2.4887728112426917 6 0 0
1674 525 4 0 -6.350220036195812 -0.9207115571533908 -2.1496455699361103 6 0 0
1562 488 2 0 -4.99662464897778 -1.6372312185219737 -2.4411385047088743 6 0 0
1564 488 4 0 -4.601395538326895 -1.3855984365773644 -2.3874782029316126 6 0 0
1812 571 4 0 -4.230748870337372 -1.260066045788939 -2.322493400682843 6 0 0
1811 571 2 0 -3.829477285236724 -1.0812043319140336 -2.4597346605337647 6 0 0
15 3 3 0 -3.025361481533417 -0.9168923169652317 -2.5944264687142606 6 0 0
817 239 4 0 -10.066797384358969 -0.8308616059817737 -1.8468070510350465 8 0 0
1312 404 4 0 -10.207381765178402 -0.6898650209956969 -2.19370776890716 8 0 0
1673 525 2 0 -6.404236861133123 -0.7887854202800408 -2.5899825895560493 6 0 0
1105 335 4 0 -6.036794069286525 -0.7595196499486914 -1.9260217745109003 7 0 0
14 3 3 0 -2.271538518326862 -0.8018013749673116 -2.6016049322136716 6 0 0
2127 676 4 0 -1.9192572226121332 -0.6602483754488144 -2.5288496832799776 7 0 1
2126 676 2 0 -1.4678900853672747 -0.5677619156712286 -2.491600301188999 7 0 1
2128 676 4 0 -1.0269256087079022 -0.4782453055420479 -2.461755942969017 7 0 1
514 138 4 0 -0.651985164148364 -0.40393327194881223 -2.362100756149406 10 0 0
512 138 2 0 -0.21189487017267794 -0.24463550246757038 -2.458666800039901 10 0 0
3057 986 4 0 -2.598496549439255 -8.382614556930578 -0.9600720318410598 14 1 -1
798 233 4 0 -6.240460647719295 -5.015533557175771 -1.6616788490997543 5 0 0
799 233 4 0 -5.316635086557201 -5.105733788132669 -1.5197357365107838 5 0 0
797 233 2 0 -5.786905697040109 -5.059910294827085 -1.5889386527448561 5 0 0
2846 916 2 0 -4.625204813629768 -4.910717660988812 -1.632446287627312 13 1 1
2968 956 4 0 -3.903636936975417 -4.471417381981706 -1.5927302940577608 5 0 1
2847 916 4 0 -4.238564128010486 -4.682093484665502 -1.4970792284189027 13 1 1
575 159 2 0 -9.743803156723231 -3.92485776245908 -1.6643634138398866 5 0 0
576 159 4 0 -9.594609206662103 -3.6603218167390406 -1.3345130886534875 5 0 0
2966 956 2 0 -3.779424483233994 -4.04843845118957 -1.6703448937114356 5 0 1
1015 305 4 0 -1.4464970343051888 -3.9251434258644142 -1.5737525041077944 3 0 0
1013 305 2 0 -1.6148375931764676 -3.5242344201868674 -1.6815564675705712 3 0 0
2014 638 4 0 -10.387447686617518 -2.6934574747769906 -1.6366717808572027 -1 -1 0
2012 638 2 0 -9.93475881993453 -2.798862156206803 -1.6570073271037735 -1 -1 0
2013 638 4 0 -9.494587637093371 -2.9103253604119024 -1.6869705217742492 -1 -1 0
1950 617 4 0 -9.152103882489925 -2.710826219166937 -1.585761033817155 -1 -1 0
815 239 2 0 -9.914572464771842 -0.916034687989498 -1.4246829523865792 8 0 0
816 239 4 0 -9.757499664517812 -0.9984448113389508 -1.013562418286968 8 0 0
1104 335 4 0 -6.042364831544456 -1.0499130945713073 -1.0633344183757156 7 0 0
1103 335 2 0 -6.042137609485825 -0.8991327424950306 -1.5109007339419396 7 0 0
3056 986 2 0 -2.664284868433361 -8.199195995617186 -0.5432638149772 14 1 -1
3058 986 4 0 -2.7146429394825864 -8.008989016061097 -0.09805434458882445 14 1 -1
2790 897 4 0 -4.681868264811303 -5.8140125869332895 -0.6338032512061869 13 1 0
2789 897 2 0 -4.407927437519343 -5.608062258656723 -0.31839396719837687 13 1 0
2791 897 4 0 -4.142704072262834 -5.403841900727436 -0.0031857206648044922 13 1 0
2557 819 4 0 -6.271597856348768 -3.134476113287487 -0.011603027633531937 16 1 0
727 209 4 0 -7.760461688844936 -1.8255176031568592 -0.16230057663024056 8 0 0
725 209 2 0 -7.337956897205421 -1.778586221380385 -0.2717093709313385 8 0 0
718 206 4 0 -6.522415042449133 -1.8115519734209382 -0.5485765406290017 7 0 0
1491 464 4 0 -9.497838026962235 -0.9020517898321359 -0.719061026138073 16 1 0
2486 796 2 0 -8.208442358793347 -1.0939386918146745 -0.10373446104738449 9 0 0
2488 796 4 0 -7.835844765294469 -1.4223175310706928 -0.1507353654217507 9 0 0
716 206 2 0 -6.263739457571506 -1.4143328029567588 -0.6050961308239131 7 0 0
726 209 4 0 -6.876256300723529 -1.7215766010324742 -0.3818161625057357 8 0 0
717 206 4 0 -6.012567092772408 -1.0136778581741073 -0.6593410297876172 7 0 0
1490 464 2 0 -9.20100483318246 -0.7954870016675368 -0.38712119173089476 16 1 0
1492 464 4 0 -8.911278288227024 -0.6806354635540721 -0.056469826881663465 16 1 0
2487 796 4 0 -8.528917739291943 -0.8204593340349824 -0.06162067212455469 9 0 0
1071 324 4 0 -0.95382393860862 -9.868799297599548 0.22599885606725323 10 1 0
672 191 4 0 -0.612257436543052 -10.082373789317517 0.3103379784571221 2 0 0
671 191 2 0 -0.21225031100093616 -10.161289683236284 0.46874544927266726 2 0 0
1070 324 2 0 -0.9744706993495154 -9.411682870133772 0.22240539899806677 10 1 0
1072 324 4 0 -0.9920402279672551 -8.940028124951755 0.21484140206330515 10 1 0
2925 942 4 0 -0.7344159130531587 -8.90248831697436 0.5177377802991714 11 1 0
2924 942 2 0 -0.5960149828021386 -8.53373355186542 0.7324746115747143 11 1 0
778 226 4 0 -2.732335311525908 -7.642177080666386 0.047577074115707774 5 0 0
715 205 4 0 -1.9464421913549934 -6.94297409436461 0.8252946809407753 5 0 0
777 226 4 0 -2.1632035249319728 -7.203707619760344 0.6183136815273294 5 0 0
776 226 2 0 -2.455869847898893 -7.425815680702955 0.335329086849141 5 0 0
540 147 4 0 -3.78241710432596 -5.47183793024096 0.12725950567620714 5 0 -1
1150 350 4 0 -1.776559903274535 -5.543642245385099 0.5929560223781056 12 1 -1
1824 575 4 0 -2.1355432360055637 -5.5919421753771985 0.6758334299837436 4 0 -1
1823 575 2 0 -2.5399807587266965 -5.707086179765683 0.8274203593779799 4 0 -1
1148 350 2 0 -1.353184193286431 -5.490712861540799 0.5591654062343405 12 1 -1
1149 350 4 0 -0.8850820372125305 -5.427524500570615 0.5280570209575011 12 1 -1
1642 514 4 0 -0.5335964390442314 -5.275285728935247 0.43242026118915255 4 0 0
1640 514 2 0 -0.15689033417849174 -5.24733022347626 0.18271374634712423 4 0 0
2253 718 4 0 -7.176408938299105 -4.501677763618807 0.7052714811596292 13 1 0
2254 718 4 0 -6.256572925877264 -4.668746860754302 0.816743076009768 13 1 0
2252 718 2 0 -6.70516594927868 -4.5872082441313395 0.7558401255532203 13 1 0
2265 722 4 0 -5.864592618296312 -4.6486093227754735 0.7241958679257525 5 0 0
2264 722 2 0 -5.564410342601823 -4.357165021619246 0.8367936423697913 5 0 0
539 147 2 0 -3.5827931643057163 -5.076463452052541 0.22284930264642 5 0 -1
541 147 4 0 -3.380831824829439 -4.671033616301305 0.30918025326096377 5 0 -1
1377 426 4 0 -3.237852780368269 -4.626931117492471 0.662461151049234 5 0 0
2555 819 2 0 -6.560632757150906 -2.9117884671370087 0.24474630727048563 16 1 0
2556 819 4 0 -6.833549983105269 -2.680438131306028 0.5011711486935333 16 1 0
1327 409 4 0 -6.693911983356693 -2.551755271100803 0.85506286266199 6 0 0
1546 482 4 0 -0.7982621110225327 -1.8678624218904432 0.8243833077382678 7 0 0
2926 942 4 0 -0.4619054785791512 -8.169781415482147 0.9445983071875439 11 1 0
2208 703 4 0 -0.4003288447278983 -8.008158473467825 1.3103194439401715 6 0 -1
2207 703 2 0 -0.298758330844235 -7.699211461729087 1.6393904813870108 6 0 -1
713 205 2 0 -1.5212745249965671 -6.852420731600973 0.9441326324831039 5 0 0
339 80 4 0 -0.9183734927711669 -6.8258111422552314 1.4129278192735715 -3 -1 0
714 205 4 0 -1.1198597632400702 -6.764572596264865 1.0719918134191584 5 0 0
338 80 2 0 -0.5306612730381932 -6.60206714016886 1.516418448251601 -3 -1 0
340 80 4 0 -0.13302675385610385 -6.376940784998207 1.6167803699376666 -3 -1 0
1472 458 2 0 -3.3872487363271313 -5.91134513762923 1.6251987862524047 4 0 0
1474 458 4 0 -3.1792696129799802 -5.93357935804274 1.2407908527031264 4 0 0
1825 575 4 0 -2.9433203632880076 -5.8116340643459825 0.9698053695937698 4 0 -1
1376 426 2 0 -2.8846424956734875 -4.509043565985746 0.9055213857261855 5 0 0
1998 633 4 0 -2.127240683507246 -4.361086461519047 1.236916860623701 6 0 0
1378 426 4 0 -2.511049917469405 -4.398934828279005 1.1539410350283816 5 0 0
1997 633 2 0 -1.6975754471620004 -4.347392687397591 1.360195956799858 6 0 0
1999 633 4 0 -1.277497979050505 -4.339005154600218 1.4792338396388853 6 0 0
2266 722 4 0 -5.2655804491661025 -4.072617821202563 0.9570518163804369 5 0 0