LAMMPS data file via write_data, version 19 Nov 2024, timestep = 1000000, units = lj

79 atoms
4 atom types
54 bonds
1 bond types
35 angles
2 angle types

-3.045986 3.045986 xlo xhi
-3.045986 3.045986 ylo yhi
-3.045986 3.045986 zlo zhi

Masses

1 1
2 1
3 0.1
4 0.1

Bond Coeffs # harmonic/omp

1 100 0.45

Angle Coeffs # harmonic/omp

1 100 180
2 100 109.471

Atoms # full

44 14 2 0 -2.450729347559869 -1.8292352097141469 -1.6451583669064753 0 0 1
46 14 4 0 -2.0134090720874784 -1.963771861581979 -1.7190562988021438 0 0 1
16 4 4 0 -1.8457708268248696 -2.2681150767790643 -1.503768700637717 0 0 1
45 14 4 0 -2.8858461314192208 -1.6986829474420415 -1.5758418754335113 0 0 1
14 4 2 0 -1.462891240765898 -2.2585021685330675 -1.7452763060120606 0 0 1
52 16 4 0 -1.0003818242110685 -2.654553627876107 -2.0028450240038578 1 0 1
15 4 4 0 -1.0712894800884312 -2.255179128273219 -1.9842352865950832 0 0 1
50 16 2 0 -0.5896083190325311 -2.8875988057465554 -2.050082767382254 1 0 1
23 7 2 0 -0.07136522732270947 -1.6217309600705694 -1.703342101054071 0 0 1
69 22 4 0 -1.1803203683367085 -0.6269326035321374 -1.8414128049884322 0 0 1
71 23 2 0 -1.7797766016438221 -0.3368642679907724 -2.2650374349846363 0 1 1
73 23 4 0 -2.1155893325158983 -0.33462460956777446 -2.550913713788836 0 1 1
42 13 4 0 -2.135700188235531 -1.874016261976193 -0.0053712219680400715 1 0 0
68 22 2 0 -0.981584189379409 -0.9456320625902793 -1.6206704613600293 0 0 1
72 23 4 0 -1.4402348484471776 -0.3488011768035183 -1.9740559142816925 0 1 1
70 22 4 0 -0.7709687613271967 -1.2699973177649668 -1.3979427901677157 0 0 1
24 7 4 0 -0.42084424818550786 -1.384622774417424 -1.5635942583852565 0 0 1
41 13 2 0 -1.6585159444469695 -1.936635256620337 0.047387186128153375 1 0 0
43 13 4 0 -1.2430794935804512 -1.9938969372592654 0.10012821156800167 1 0 0
78 25 4 0 -0.9147618546745555 -2.0090596449452978 0.3444413696965647 0 1 1
77 25 2 0 -0.498919617958877 -1.9394120517095286 0.2793373285462303 0 1 1
58 18 4 0 -0.37541719132625057 -0.05665837408758058 0.7697744539878448 0 0 0
79 25 4 0 -0.04077025251668304 -1.884457811288213 0.21598959314292265 0 1 1
39 12 4 0 -1.9419581828538452 0.897761116552835 -0.7276422955361801 1 0 0
38 12 2 0 -1.6420349846602562 0.839944091270773 -0.4049943532506902 1 0 0
40 12 4 0 -1.355341828607363 0.7815925131073178 -0.08685864558261175 1 0 0
51 16 4 0 -0.1972157153633237 2.9852372431505816 -2.0973203285586477 1 -1 1
31 9 4 0 -2.220728244569184 0.012301857193864849 -2.7150716756479314 0 1 1
29 9 2 0 -2.619499235661666 0.07825379023681535 -2.9219930255902247 0 1 1
67 21 4 0 -0.9804521339524218 0.5964106422745893 -0.09816860940099893 0 0 0
56 18 2 0 -0.11986686487743485 0.03978478460500886 1.094736870909503 0 0 0
66 21 4 0 -0.6624927512974682 0.210049252205326 0.6559144103916789 0 0 0
65 21 2 0 -0.8184677429921333 0.3966810301028702 0.2819800740575704 0 0 0
30 9 4 0 -3.023240840801716 0.14287157554678676 2.967811525322217 0 1 0
32 10 2 0 1.0479228000899443 -1.956010945880977 -1.9830078694099607 0 0 1
33 10 4 0 1.4712672169348322 -1.8671799561000888 -2.147018331809714 0 0 1
25 7 4 0 0.28126919149968393 -1.8681250661901783 -1.836922013926604 0 0 1
34 10 4 0 0.628743508872151 -2.034509531817687 -1.8244527792004508 0 0 1
54 17 4 0 0.15037892235772518 -1.8984218722847819 -0.13719808650046297 0 0 1
76 24 4 0 1.5164481710616644 -1.52434852938 -2.369312609197679 0 0 1
74 24 2 0 1.6252271481841376 -1.0841991471090808 -2.2752783975230426 0 0 1
75 24 4 0 1.7283387577467 -0.6686314396786478 -2.1799043663635347 0 0 1
9 2 3 0 1.7346514282744034 -0.7110040041824283 -1.7491319819862772 -1 0 1
60 19 4 0 2.809273458037329 -1.6339861472179102 -1.394042997927856 -1 0 1
53 17 2 0 0.24480195918958153 -1.5488084954925034 -0.44658492544069733 0 0 1
35 11 2 0 0.8237615252263463 -0.5359195864412053 -0.8184354030658254 -1 0 1
55 17 4 0 0.34006757930892717 -1.20445936000982 -0.7395576241396757 0 0 1
37 11 4 0 0.5018461997405591 -0.8311070296475407 -0.6818410908338666 -1 0 1
36 11 4 0 1.1341595282667858 -0.2649518407328636 -0.95571482630635 -1 0 1
8 2 3 0 1.443387390792279 -0.4347304288021413 -1.1544133369135285 -1 0 1
6 2 1 0 1.8192696444183754 -0.5078365911711683 -1.3606729839817666 -1 0 1
59 19 2 0 2.505903599712953 -1.37643753785074 -1.1739069852635733 -1 0 1
7 2 3 0 2.0277629059791304 -0.10429446678114075 -1.4505461471589247 -1 0 1
61 19 4 0 2.1938685063038275 -1.0990216300785374 -0.9456710775075386 -1 0 1
10 2 3 0 2.0899207933048545 -0.7553970265738548 -1.1176210068831962 -1 0 1
28 8 4 0 2.0573850819739503 0.5885464683206951 -2.5090253588125733 -1 1 1
3 1 3 0 2.342141672641246 0.508261252878199 -2.773528100497206 -1 0 1
27 8 4 0 1.9470846261006556 0.0821629430071012 -1.781942592578236 -1 1 1
26 8 2 0 2.0090601606337164 0.33386727939557925 -2.1474237671993115 -1 1 1
13 3 4 0 0.7801963565750851 2.333885874499385 -2.0260299993452286 0 0 2
11 3 2 0 0.43373948762769 2.624365950455969 -2.1758389005895484 0 0 2
22 6 4 0 1.1287410234278001 2.291037631213768 -1.8463438512141659 0 0 1
20 6 2 0 1.461710919312287 2.12199491118694 -2.122503005153129 0 0 1
64 20 4 0 2.086759510831105 1.9014047716214582 -2.6449960823621264 1 0 1
21 6 4 0 1.7868930867075796 1.956285026665438 -2.3998748614469085 0 0 1
62 20 2 0 2.3582763551545343 1.6610228832476857 -2.897251633663361 1 0 1
12 3 4 0 0.12426579775853701 2.8953255746183175 -2.3079777949312588 0 0 2
57 18 4 0 0.14417677593398046 0.1351008628835726 1.4270707266734055 0 0 0
19 5 4 0 0.37738015602850117 0.15549421770101624 1.753819754926305 0 0 0
18 5 4 0 1.223500788885677 0.5186433636069022 1.6687662669803953 0 0 0
17 5 2 0 0.8087738457330154 0.3337364498026507 1.7072070227594427 0 0 0
48 15 4 0 1.6325437791683926 0.5248710727622108 1.7490011958089424 -1 0 0
1 1 1 0 2.517178051255653 0.6168370842483117 2.9325704625571847 -1 0 0
47 15 2 0 1.8354633111965644 0.3285572578999553 2.0849165738540876 -1 0 0
49 15 4 0 2.0531975797418665 0.11885725781832814 2.4518590842293824 -1 0 0
2 1 3 0 2.4657266187033007 1.0765638846850782 2.8487178656929597 -1 0 0
5 1 3 0 2.9336225878325073 0.527935602813091 2.93235138440999 -1 0 0
4 1 3 0 2.304856490571394 0.38191391029199323 2.595298034053279 -1 0 0
63 20 4 0 2.65522506215575 1.4120582973759643 2.9291514505366036 1 0 0

Velocities

44 0.2101813116902504 -0.1256825752706887 -0.06499357070580207
46 0.18245084684593918 0.6945543070961001 -0.7545079764758035
16 -0.2198045520708657 0.3825721662960594 2.288848736182404
45 0.7608866170167105 -0.22798199181611845 0.49152919843799947
14 -0.13900503540859716 0.0875275238424129 0.32942720173718526
52 0.21098612521428373 0.5848255153142675 0.40908615766154105
15 0.3711643801498117 -0.9458606457830487 0.7709128388056249
50 -0.298889262829025 -0.0301911729543708 -0.3476823962927397
23 0.08114082918771377 0.4772930967901981 -0.14162605456116595
69 -0.11912168543617557 0.9204216001327745 -0.9534525529639019
71 -0.32844058647190455 0.029688658423121485 -0.020901312003188247
73 -0.42246634951920764 0.9674474615341572 0.29054948022406857
42 0.026786978895220637 -0.043786652950576724 -0.1171962178843487
68 -0.1399163657136724 0.20941458008816546 -0.13844515564003435
72 0.2835775123409738 0.38397443658115515 0.5890134397408255
70 -0.14942050309557453 0.024064902463174394 -0.5066608304479268
24 0.3042408347868226 -0.5656502296040472 0.46450640011249095
41 0.034858917815224044 0.05462150852595415 0.0705326922556731
43 0.406308557683297 -0.6963550534284079 -0.9413903376245562
78 -1.7663063020967262 -1.1176933339417587 -0.41989023435814804
77 0.22977625766742385 -0.2505659874101766 0.37075971246085215
58 0.19929493063682388 0.04633165230697844 -1.099537719620604
79 0.5993233021021004 0.398421583731756 0.5516753785684092
39 -0.1506977463386534 -0.4599132372018163 0.22491714703233365
38 -0.08901394098203591 0.08345868662070235 0.2148130055285869
40 0.24993033699215755 -0.7176438457742713 0.4389386236646429
51 -1.6167875987880838 -1.5454099296080013 1.2904329322143424
31 -0.9224516892447961 0.5787416719403725 0.45587339044083136
29 -0.5018588457912311 0.4755279634991362 0.04771803038552232
67 -0.9447761021329736 -0.5986941164394105 -0.6789538687419133
56 -0.2944469677679505 0.034674893747248386 0.006472823315328005
66 -0.2554755379369316 -0.49101367075959396 0.6539689503450004
65 0.16310614997278858 0.09094370327551259 0.026104067324360342
30 0.9949867424912575 -1.1192600076886503 -0.14044241783092515
32 0.42981907116638435 0.11407509249200151 -0.28605274218239124
33 0.07467485252915548 -0.7231073095152276 -0.7318494930192401
25 0.7073550140617019 -0.3430355181951279 -0.1811365139050668
34 0.4574669475134742 -0.29056167136307576 -0.16250025802937582
54 0.38511683073570496 -0.46312331962096137 -2.028844281040058
76 -0.9799296282120441 -0.7381024616744666 0.7826583383600076
74 0.1426966661443027 0.045042792791992255 -0.12216181168627484
75 -0.5376304709101416 -0.16052859572865655 1.3275608235601575
9 0.3637845303382681 0.6199052501124052 -0.6511105166472064
60 -0.24018362138583974 1.0145523786740394 -0.266985327191901
53 -0.05977056796848621 -0.06305200980608616 0.5618790891543896
35 0.027600433850599335 0.12740313248872473 -0.37274533606539556
55 0.08418119777605343 -1.2041557797558082 -0.5613666869986375
37 -0.5178158202922255 0.29423306293074436 0.6907978109354479
36 1.3345591208235237 0.19038421722482293 0.3979611634767411
8 1.3214090926792113 0.26627073931145023 1.0343728733979507
6 -0.3340432610712733 0.06714009124815222 0.30343882500783054
59 0.16149632909494183 -0.27645008069631855 0.1319270426773952
7 0.38832813318903386 1.1016460877306724 0.4464846519348015
61 -0.8328953577522226 -0.9826663829585361 0.43490342080461764
10 -0.21721777901763867 -1.1641830186369708 -1.7760765891728565
28 1.5200459372605732 -0.07641610503242718 1.0074560043978762
3 0.43592529331293733 0.24690236228196452 -0.5291014659364438
27 0.009027932693420872 0.8890511573219674 0.4667731824119884
26 -0.24438833990844072 -0.20225621668543206 -0.1975559701058632
13 -0.13075699679950434 -0.43902662862424563 -0.5804814074466603
11 -0.07114344207983071 0.15318482276357054 -0.24313383983315837
22 0.3046399985474727 1.6622359932328459 0.6486007872347722
20 0.34849887115949946 -0.15496581412946253 -0.053901191390054344
64 -0.17516451138631667 -0.36234968639519616 -0.519290473564444
21 -0.5109799810868084 0.3718732432898027 0.8475574037207333
62 -0.24363584720511813 0.15395729629506422 -0.1427044082056911
12 1.1114247483031718 -1.1786527934917665 -0.32882115392389616
57 -0.48622397971377856 -0.07754782953880038 -0.24316119065479563
19 0.32911443423499537 0.2743833506877331 0.5410726672547838
18 0.35573229046216426 0.3550740714987402 -0.058433382061678835
17 -0.15711477047908803 0.10338691449640601 -0.016955853824784067
48 -0.18103844301134595 -0.12634826736810353 0.4453656741505399
1 -0.025732681092657254 0.05231147287167632 0.020696024161921157
47 0.07335028010100758 -0.14038691573653733 0.16751481516404595
49 0.157042670798192 -0.03328795381772974 0.25543381464720816
2 -1.390310592307571 -0.1535549600564685 -0.19378659736731974
5 0.28518785268924696 0.45778192986877053 -0.17188097047604842
4 0.9977320221080105 -0.052316375575468935 0.07693402490098403
63 0.7073704207825392 1.6403998895952654 0.08043449301917205

Bonds

1 1 44 45
2 1 44 46
3 1 14 15
4 1 14 16
5 1 50 51
6 1 50 52
7 1 23 24
8 1 23 25
9 1 71 72
10 1 71 73
11 1 68 69
12 1 68 70
13 1 41 42
14 1 41 43
15 1 77 78
16 1 77 79
17 1 38 39
18 1 38 40
19 1 29 30
20 1 29 31
21 1 56 57
22 1 56 58
23 1 65 66
24 1 65 67
25 1 32 33
26 1 32 34
27 1 74 75
28 1 74 76
29 1 53 54
30 1 53 55
31 1 35 36
32 1 35 37
33 1 6 7
34 1 6 8
35 1 6 9
36 1 6 10
37 1 59 60
38 1 59 61
39 1 26 27
40 1 26 28
41 1 11 12
42 1 11 13
43 1 20 21
44 1 20 22
45 1 62 63
46 1 62 64
47 1 17 18
48 1 17 19
49 1 1 2
50 1 1 3
51 1 1 4
52 1 1 5
53 1 47 48
54 1 47 49

Angles

1 1 45 44 46
2 1 15 14 16
3 1 51 50 52
4 1 24 23 25
5 1 72 71 73
6 1 69 68 70
7 1 42 41 43
8 1 78 77 79
9 1 39 38 40
10 1 30 29 31
11 1 57 56 58
12 1 66 65 67
13 1 33 32 34
14 1 75 74 76
15 1 54 53 55
16 1 36 35 37
17 2 7 6 8
18 2 7 6 9
19 2 7 6 10
20 2 8 6 9
21 2 8 6 10
22 2 9 6 10
23 1 60 59 61
24 1 27 26 28
25 1 12 11 13
26 1 21 20 22
27 1 63 62 64
28 1 18 17 19
29 2 2 1 3
30 2 2 1 4
31 2 2 1 5
32 2 3 1 4
33 2 3 1 5
34 2 4 1 5
35 1 48 47 49
