LAMMPS data file via write_data, version 4 Feb 2025, timestep = 400000, units = lj

64 atoms
4 atom types
48 bonds
1 bond types
56 angles
2 angle types

-2.5 2.5 xlo xhi
-2.5 2.5 ylo yhi
-2.5 2.5 zlo zhi
0 0 0 xy xz yz

Masses

1 1
2 1
3 0.1
4 0.1

Bond Coeffs # harmonic/omp

1 100 0.45

Angle Coeffs # harmonic/omp

1 100 180
2 100 109.471

Atoms # full

13 3 3 0 -0.6005674346781542 -0.447740299445448 -0.9778617048415994 4 0 1
58 14 4 0 -0.3681429455316265 -0.3992901884594655 -1.3060194885877743 4 0 2
59 15 2 0 -0.5248309270703619 1.029474738655085 -2.3509906736890622 3 -1 2
61 15 4 0 -0.28745897179103164 1.0160274303910843 -1.9460651300156775 3 -1 2
40 8 3 0 -0.09650554159944269 0.9271095359182513 -1.2038946671660375 2 -1 3
2 1 3 0 -1.6696881307817097 1.675198611322509 -2.430239492618957 7 0 0
1 1 1 0 -1.666115755350499 2.1221923862841514 -2.3535934942633547 7 0 0
3 1 3 0 -1.852135159964181 2.202802675977157 -1.9475964111061161 7 0 0
4 1 3 0 -1.2395309287993586 2.2677904421790345 -2.358148035929804 7 0 0
12 3 3 0 -0.4923395357452378 0.24254891242985632 -0.744923361261256 4 0 1
14 3 3 0 -0.5777380385086628 -0.324472217001071 -0.24055172475326092 4 0 1
11 3 1 0 -0.7128692623024178 -0.15939023494541393 -0.6589393939619712 4 0 1
15 3 3 0 -1.1644070259512682 -0.08621846336924532 -0.6571727395835132 4 0 1
48 11 4 0 -0.28529283639003467 0.5938217429793835 -0.7998171647447161 8 1 2
47 11 2 0 -0.2719234742676151 0.8564450942267077 -0.44664336496023527 8 1 2
49 11 4 0 -0.26318415147085705 1.1299724834331126 -0.10029197931563516 8 1 2
17 4 3 0 -0.003002936478107454 0.9440430156021118 0.7903545431703973 1 -1 1
28 6 3 0 -0.46397587725796985 0.2910998268694205 1.7867386501685223 4 0 1
50 12 2 0 -0.13447584071667862 -0.3030563208249424 2.1911040879276715 -1 -1 1
51 12 4 0 -0.3425165743442289 -0.04587686531420854 1.9655041065843664 -1 -1 1
30 6 3 0 -1.1710683118705754 0.26196944213199913 1.5821961745152162 4 0 1
26 6 1 0 -0.8436669994399182 0.5300775865975904 1.7196011727080682 4 0 1
29 6 3 0 -0.9741261084466732 0.7330110099970932 2.11604781100735 4 0 1
27 6 3 0 -0.7753513854994976 0.8394502113352176 1.4217152300722424 4 0 1
60 15 4 0 -0.7465582909264863 1.0465893422491916 2.267258637982768 3 -1 1
5 1 3 0 -1.9068163492591574 2.3520388751884624 2.315752503182477 7 0 -1
35 7 3 0 0.6105561054039548 -0.5044241178412476 -1.8637014544312425 0 -1 1
32 7 3 0 1.1446007174488502 -0.8001487353153012 -2.3071317440076684 0 -1 1
57 14 4 0 0.5112584070263768 -0.5473998066206398 -1.4630944354777953 4 0 2
31 7 1 0 0.8176566910462002 -0.48314554267178345 -2.2763382983196134 0 -1 1
56 14 2 0 0.07369346414617439 -0.47481297651709653 -1.3851880496873212 4 0 2
33 7 3 0 1.0019920940072375 -0.08300631274019254 -2.3261154289873867 0 -1 1
54 13 4 0 0.9080881710480715 0.3015839615257194 -2.4143627668866565 1 -1 2
25 5 3 0 1.5665975482361238 0.06962171627086677 -1.0820630501124229 7 1 1
53 13 2 0 1.24017234324835 0.564372600433487 -2.4821935369894463 1 -1 2
38 8 3 0 0.4731095732995376 0.715074539479557 -1.5090256189146682 2 -1 3
64 16 4 0 0.8123971905636562 1.4343124472500488 -1.1015402304781 2 -1 3
39 8 3 0 0.45396482227280055 1.3701033772782267 -1.2682040153794962 2 -1 3
36 8 1 0 0.2313574527452178 1.036473790741952 -1.4642115282072066 2 -1 3
37 8 3 0 0.0699554879567188 1.1808707480812002 -1.8617556613200001 2 -1 3
62 16 2 0 1.2594003423267845 1.4661523243781027 -1.2652295118108494 2 -1 3
9 2 3 0 2.340518102762897 1.2215556054859578 -2.2475393003097905 6 0 0
10 2 3 0 1.6316275296258453 1.2342788104092381 -2.4435032013616476 6 0 0
7 2 3 0 1.8150628058512828 1.4088225238724927 -1.7705697594797205 6 0 0
6 2 1 0 1.9349020609411136 1.4322556448538775 -2.191974627485205 6 0 0
8 2 3 0 1.971718889243217 1.8768439408902724 -2.3120929215317685 6 0 0
45 10 4 0 1.6855318574838414 2.1339958555495997 -2.3895009186024514 9 1 1
63 16 4 0 1.6851739102778023 1.5094036505884088 -1.4026812187693949 2 -1 3
22 5 3 0 1.8105188405405075 -0.5142573729373119 -0.7625236976322836 7 1 1
41 9 2 0 0.7216077986350609 0.20301063962048715 -0.013901252063821534 7 1 0
43 9 4 0 0.9390150738826901 -0.10701017106645105 -0.23900457318923474 7 1 0
21 5 1 0 1.663608939929329 -0.12569119976762 -0.6928446982191894 7 1 1
23 5 3 0 1.2981807057052301 -0.14827696124515777 -0.42718262584579403 7 1 1
24 5 3 0 1.9728013085570888 0.104501782479276 -0.4860028117763391 7 1 1
42 9 4 0 0.48280868867296167 0.538671850487189 0.22374105683006285 7 1 0
19 4 3 0 0.6243422494119253 0.8592938484675647 0.43120819155905776 1 -1 1
16 4 1 0 0.30144055757712884 1.1394610204227895 0.5070730018518721 1 -1 1
20 4 3 0 0.08860449963474792 1.2457933589909698 0.11109713022837475 1 -1 1
18 4 3 0 0.45516450058100943 1.5060420708340878 0.6938494184037314 1 -1 1
46 10 4 0 2.2177681905683437 -2.260071664730184 2.2184795735888994 9 2 0
34 7 3 0 0.5066532882495771 -0.5559852371212926 2.3790717891785507 0 -1 0
52 12 4 0 0.11574466705719777 -0.603054757019994 2.465390098853608 -1 -1 1
55 13 4 0 1.5817982847123302 0.8449857742204174 2.442989350814166 1 -1 1
44 10 2 0 1.9454263146746813 2.434486567531792 2.4161000194953095 9 1 0

Velocities

13 0.34589942431441156 -1.1336774656085133 0.06988295832921117
58 -0.6051747104455351 0.2021255496190079 0.576681790845233
59 -0.036630236675671814 -0.20331719675576154 0.33207154661539645
61 -1.0276486427826252 -0.21523026138540838 0.9987771142392966
40 0.7993997008818083 -0.13414633579005616 0.20876406680644333
2 -0.7509174177268361 -0.1601707127301352 -0.9820900304589781
1 -0.06453352817648554 0.22668807579661737 -0.49320396948663825
3 -0.013600102722541349 1.2041567291893587 0.45209288388582713
4 -0.019883674321203554 0.9807542227141562 -0.7605308089499788
12 -0.09594381701525978 0.09003199355084707 -0.6395357704280847
14 0.8000988133349055 0.7536192915250578 2.056420812430232
11 0.12037427286921949 0.08799041879737783 0.2331011807697775
15 -0.5665337606837691 -0.40819281354654563 0.6937848829962537
48 -1.008889062161525 0.6905596532148257 0.12030654570572757
47 -0.3565360703915861 -0.4791994532075379 -0.2915018203887986
49 0.1589352776939567 -0.23946978800647867 0.1955191869089502
17 -0.36357781727700894 0.4683952727283215 -1.1315506130778201
28 -0.8993708876286616 -0.5471047767417717 -0.19546699566312611
50 0.5399468970511403 -0.1501868550468461 0.4125138808086743
51 -0.17216824206345066 -0.8647964294037742 0.4577949562744462
30 1.1297752611902012 0.3198736606479604 -0.3440630258304714
26 -0.18007710390917478 0.036817082734304604 0.1078284914775147
29 -0.053350781490488865 0.16446860338467442 -0.6958192211197332
27 0.3549051087676012 -0.10567063366405421 -0.09959046875705001
60 0.21520266570148594 1.2958674081465131 0.05123586594617275
5 0.12580708174559954 -0.09293724550264858 -0.19447984530385906
35 0.668460370986341 -0.03505668663526247 -1.0486290677047472
32 -0.5771070457073763 0.10174574363491483 0.48842656326332323
57 0.3468623953794712 -1.4316860936853109 0.47721807101747926
31 0.2180051185224416 0.6061334193187621 0.4334434019914104
56 0.3206046757679154 -0.06586257477665933 -0.05210324868464367
33 1.2418157118899513 0.2460433977300866 0.08155024551076467
54 -0.14723846764364076 -1.1439230607270472 -0.27346584987392464
25 -0.3667273900913046 -0.5852623164875558 0.3963214014034638
53 -0.12827562067800738 -0.1562571158535813 -0.0030977388269378702
38 -1.097651711230942 0.10745244211230576 -1.0659868515400788
64 1.2234145805346621 -0.2185922313873534 -0.747489647599828
39 1.2486539837440864 -0.05689799034368371 -1.1873242302952034
36 0.1497183573884599 0.14582780294238035 -0.058449265796091866
37 1.020660660474035 0.5570193051607044 -0.14909697746414474
62 -0.08720324734198753 -0.33837291648623635 -0.023633820629401833
9 -0.43781791974014694 -0.7622845762781099 -0.7611602433722643
10 -0.7906378776124809 -0.13607068648933057 -0.4559707087542167
7 0.3475403391096509 -0.5818976518967213 0.3679866746949846
6 0.24569297149764846 -0.41491087962235473 0.18763258749317455
8 0.6597287037415479 -0.9727594498801564 0.07891827044227138
45 0.17368444887107654 -0.5093590631186558 -0.5775619527371438
63 0.8801831514551822 1.0818895047188448 0.2036481673946079
22 -0.16776806058984822 -0.1671738831612999 -0.6649065519252628
41 -0.37779476385928057 0.16448521119806822 -0.10534216617448083
43 0.730282744333197 -0.2849880376233153 -0.7330416252569159
21 -0.1528594110796294 0.2974653542416315 -0.2159981326885884
23 -0.17407263208859397 -0.3452652189576879 0.6436434253972592
24 -0.7880323553429139 1.3086769732720418 -0.046321811648500036
42 0.24175754097247534 0.001649124855515764 0.5386099204910898
19 0.4016180723617876 0.9367172698322879 0.10529046222641755
16 0.13613320516431807 -0.2562690619423387 -0.23100612626946887
20 0.5555297498135356 -0.8958548168284889 -1.0750624677373422
18 -0.6140557088254504 1.7433197005777026 -0.14460572368886737
46 0.48230905003597 1.1561639190374728 -0.8130624472819634
34 -0.004186775913575927 0.033272207591753894 0.854693125792043
52 0.1859976946309344 0.3475048301066174 -0.4393311654746827
55 0.30346481767790606 -0.6032060233670895 -1.149410626733346
44 -0.24747901043025894 0.34581972343185535 0.04713913352734158

Bonds

1 1 59 60
2 1 59 61
3 1 1 2
4 1 1 3
5 1 1 4
6 1 1 5
7 1 11 12
8 1 11 13
9 1 11 14
10 1 11 15
11 1 47 48
12 1 47 49
13 1 50 51
14 1 50 52
15 1 26 27
16 1 26 28
17 1 26 29
18 1 26 30
19 1 31 32
20 1 31 33
21 1 31 34
22 1 31 35
23 1 56 57
24 1 56 58
25 1 53 54
26 1 53 55
27 1 36 37
28 1 36 38
29 1 36 39
30 1 36 40
31 1 62 63
32 1 62 64
33 1 6 7
34 1 6 8
35 1 6 9
36 1 6 10
37 1 41 42
38 1 41 43
39 1 21 22
40 1 21 23
41 1 21 24
42 1 21 25
43 1 16 17
44 1 16 18
45 1 16 19
46 1 16 20
47 1 44 45
48 1 44 46

Angles

1 1 60 59 61
2 2 2 1 3
3 2 2 1 4
4 2 2 1 5
5 2 3 1 4
6 2 3 1 5
7 2 4 1 5
8 2 12 11 13
9 2 12 11 14
10 2 12 11 15
11 2 13 11 14
12 2 13 11 15
13 2 14 11 15
14 1 48 47 49
15 1 51 50 52
16 2 27 26 28
17 2 27 26 29
18 2 27 26 30
19 2 28 26 29
20 2 28 26 30
21 2 29 26 30
22 2 32 31 33
23 2 32 31 34
24 2 32 31 35
25 2 33 31 34
26 2 33 31 35
27 2 34 31 35
28 1 57 56 58
29 1 54 53 55
30 2 37 36 38
31 2 37 36 39
32 2 37 36 40
33 2 38 36 39
34 2 38 36 40
35 2 39 36 40
36 1 63 62 64
37 2 7 6 8
38 2 7 6 9
39 2 7 6 10
40 2 8 6 9
41 2 8 6 10
42 2 9 6 10
43 1 42 41 43
44 2 22 21 23
45 2 22 21 24
46 2 22 21 25
47 2 23 21 24
48 2 23 21 25
49 2 24 21 25
50 2 17 16 18
51 2 17 16 19
52 2 17 16 20
53 2 18 16 19
54 2 18 16 20
55 2 19 16 20
56 1 45 44 46
