LAMMPS data file via write_data, version 4 Feb 2025, timestep = 160000, units = lj

4650 atoms
4 atom types
3150 bonds
1 bond types
1875 angles
2 angle types

-11.917153 11.917153 xlo xhi
-11.917153 11.917153 ylo yhi
-11.917153 11.917153 zlo zhi
2.1316282072803006e-14 0 0 xy xz yz

Masses

1 1
2 1
3 0.1
4 0.1

Bond Coeffs # harmonic/omp

1 100 0.45

Angle Coeffs # harmonic/omp

1 100 180
2 100 109.471

Atoms # full

3875 1242 4 0 -7.683072283920226 -11.82269101910905 -11.061287073568261 10 1 0
2898 916 4 0 -1.3734394180839136 -11.207515891545286 -11.809621852433652 1 0 0
638 163 4 0 -3.4122810725711243 -10.987916519537235 -11.434500507197514 1 0 0
2793 881 4 0 -3.1443191613258783 -10.693793497729697 -11.497832703080933 2 0 0
2791 881 2 0 -2.723476103855921 -10.527995039878984 -11.59647360842819 2 0 0
2792 881 4 0 -2.337480778681961 -10.38006343174324 -11.70137013247267 2 0 0
2897 916 4 0 -1.595328607914233 -10.503371177891871 -11.233529138216424 1 0 0
2896 916 2 0 -1.4862395921218337 -10.858123060173687 -11.52528933365669 1 0 0
2910 920 4 0 -1.4362152026517485 -10.139880726884567 -11.14272970771002 1 0 0
2908 920 2 0 -0.9965134798739896 -10.011057267647136 -11.026209430529775 1 0 0
1344 398 4 0 -3.9784336672221743 -9.02745570008592 -11.72192544425678 1 0 1
2805 885 4 0 -3.776651262445217 -8.666570265467483 -11.667754563520266 2 0 0
2803 885 2 0 -3.3420620919291473 -8.727279859106423 -11.543517660489988 2 0 0
3024 958 4 0 -2.826315782559986 -8.976137413182945 -11.064213308622925 2 0 0
2804 885 4 0 -2.910077125216871 -8.780038686802182 -11.405738032003454 2 0 0
2830 894 2 0 -6.9693281851686075 -6.556724297172041 -11.559712926897836 4 0 0
2831 894 4 0 -6.75517794494927 -6.456874288318931 -11.187532280687096 4 0 0
3346 1066 2 0 -5.112380367054318 -6.8193919979877515 -11.593550128487342 4 0 1
3347 1066 4 0 -4.86615370604255 -6.746001227089896 -11.195544428221238 4 0 1
2919 923 4 0 -9.391695800787657 -5.663759188435522 -11.092796324826 4 0 0
3962 1271 4 0 -9.072571508557882 -5.649652753423676 -11.320874768261632 12 1 0
3961 1271 2 0 -9.063992681853343 -5.786955791667119 -11.757013557271685 12 1 0
3523 1125 2 0 -0.9211841462427781 -3.4074450065908355 -11.823623819008745 6 0 1
3524 1125 4 0 -0.6133794006146989 -3.2104671970442773 -11.58212011377501 6 0 1
3278 1043 4 0 -0.21476241109098915 -3.3314234968348853 -11.602495163426212 6 0 1
601 151 2 0 -3.24771588819776 -2.3682054366341294 -11.177078182186502 7 0 0
603 151 4 0 -3.1967501301510506 -2.0964489455944406 -11.514055149735938 7 0 0
1151 334 4 0 -10.966073062255395 -1.4057859426304198 -11.087585332544897 7 0 1
1150 334 2 0 -10.973499055125412 -1.3347201739166863 -11.53052482098946 7 0 1
446 99 4 0 -3.4000769999102918 -1.8037354672951356 -11.718209403454695 6 0 0
637 163 2 0 -3.5131987108819622 -10.908028936219324 -10.998769027431477 1 0 0
1496 449 4 0 -3.574659799999438 -10.617616690372696 -10.239046472133564 9 1 0
639 163 4 0 -3.611104305749066 -10.832454656128176 -10.563891730410512 1 0 0
1495 449 2 0 -3.328171241148846 -10.210437848098174 -10.193412764567013 9 1 0
3023 958 4 0 -2.9704359176696773 -9.627346411271557 -10.478328210187579 2 0 0
3022 958 2 0 -2.895278921095933 -9.304476714499629 -10.764999849889294 2 0 0
1497 449 4 0 -3.10036372643561 -9.82553745730736 -10.153638807102137 9 1 0
3106 986 2 0 -0.15742355485139647 -10.072987696927305 -10.210872289158484 1 0 1
2909 920 4 0 -0.5697202892028912 -9.881894645638205 -10.908607177086457 1 0 0
3108 986 4 0 -0.3335230216444902 -9.923629909377526 -10.598408980484392 1 0 1
864 238 4 0 -3.98900386580062 -8.698822596790427 -10.28738415698756 2 0 0
3422 1091 4 0 -4.795519218176273 -6.976678380940946 -10.880002739608685 4 0 1
3421 1091 2 0 -4.654190188795089 -6.867898600416097 -10.440962224442403 4 0 1
3021 957 4 0 -10.401725309083394 -6.11571390708154 -10.368950767426679 4 0 0
3019 957 2 0 -10.834668326863838 -6.109789656080727 -10.178906326693351 4 0 0
2918 923 4 0 -10.197129724767244 -5.899128340667539 -10.672877873776919 4 0 0
2917 923 2 0 -9.786305971165664 -5.77859137040581 -10.88992755551346 4 0 0
2498 783 4 0 -6.518122954692625 -6.302305584917232 -10.898823445848144 4 0 0
2497 783 2 0 -6.212301691855245 -6.15957493560035 -10.636800832972606 4 0 0
2499 783 4 0 -5.887953436871602 -6.014257838609054 -10.365748840368461 4 0 0
225 45 3 0 -10.574745200979166 -3.964200672115348 -10.26743595890214 6 0 0
3537 1129 4 0 -7.434483699573555 -3.4617296823851404 -10.088297958217643 6 0 1
532 128 2 0 -6.574329376472921 -3.3884217462684756 -10.139428088942692 7 0 0
534 128 4 0 -7.013491280282606 -3.5465602564693945 -10.104461066532433 7 0 0
566 139 4 0 -5.7693588425712035 -3.119512022359906 -10.117275624875225 7 0 0
533 128 4 0 -6.146445876080996 -3.220692261365789 -10.172485514002807 7 0 0
565 139 2 0 -5.317890470041738 -3.0475338964860654 -10.112603527834542 7 0 0
567 139 4 0 -4.859867111780765 -2.976739472470298 -10.10973340568872 7 0 0
2883 911 4 0 -4.500547451824763 -2.919333923655394 -10.327321271115888 7 0 0
2881 911 2 0 -4.091363687093546 -2.8334267434252887 -10.517195042719361 7 0 0
882 244 4 0 -11.766693466394235 -1.8974127312510998 -10.213084315003531 7 0 0
2882 911 4 0 -3.679460990377587 -2.7361430119854706 -10.709063506934354 7 0 0
602 151 4 0 -3.3071925277249203 -2.6663091446348375 -10.825535887457594 7 0 0
881 244 4 0 -11.090683929071563 -1.6456320487405929 -10.79110628157573 7 0 0
880 244 2 0 -11.433094624669263 -1.7702889589677273 -10.49784612358965 7 0 0
3778 1210 2 0 -10.438949103746769 -11.85457858846826 -10.041177151362227 13 1 0
3779 1210 4 0 -10.854889263669147 -11.749537096836148 -9.983502522945312 13 1 0
862 238 2 0 -3.609036427319076 -8.692816111152375 -10.069670842722218 2 0 0
863 238 4 0 -3.2361444947577844 -8.688661839276662 -9.84945382870485 2 0 0
2979 943 4 0 -3.0747176311115574 -8.554172642558939 -9.515371721440463 3 0 0
3244 1032 2 0 -4.59429770090747 -6.5962021426920785 -9.386092441665383 4 0 1
3423 1091 4 0 -4.516768133803889 -6.770938256458285 -10.016767092250106 4 0 1
3246 1032 4 0 -4.281009170988028 -6.743571220218659 -9.68382178947568 4 0 1
2582 811 4 0 -11.644497327460135 -6.141683827707071 -9.824246400130844 4 0 0
3020 957 4 0 -11.244171870312355 -6.106050043242136 -9.982145458798696 4 0 0
2643 831 4 0 -5.700051344279511 -5.951281852855084 -9.992622570120824 4 0 0
2641 831 2 0 -5.481852935964581 -6.084887889127282 -9.628721112507854 4 0 0
2642 831 4 0 -5.234717498132117 -6.246974303183616 -9.229987632223619 4 0 0
1341 397 4 0 -11.16427072759538 -3.7134032773404844 -9.639060444518387 5 0 0
3511 1121 2 0 -11.31408363780811 -4.473575053167591 -9.18403294966637 6 0 0
3512 1121 4 0 -10.90859581177422 -4.411416119659865 -9.396676567798798 6 0 0
222 45 3 0 -10.581600605011033 -4.351886722069218 -9.614722150514075 6 0 0
221 45 1 0 -10.495879046782413 -3.936125593601166 -9.809571636408675 6 0 0
224 45 3 0 -10.064682144384527 -3.8113757040972036 -9.750913000060063 6 0 0
468 106 4 0 -9.680177783997088 -3.8573689201766275 -9.795033690484514 5 0 0
466 106 2 0 -9.209558629474193 -3.80772592620027 -9.840467148176382 5 0 0
467 106 4 0 -8.74314267591593 -3.7521370487081835 -9.88574448721886 5 0 0
1340 397 4 0 -11.80295737512262 -3.1486228927738757 -9.867323036580663 5 0 0
1339 397 2 0 -11.466716045501334 -3.444502688866999 -9.74676234717048 5 0 0
223 45 3 0 -10.766569241668527 -3.623114758311768 -9.631249143634586 6 0 0
3536 1129 4 0 -8.35836220469127 -3.5964081475603216 -9.905560607579469 6 0 1
3535 1129 2 0 -7.897078376947188 -3.532318686816005 -9.997405902941743 6 0 1
413 88 4 0 -1.2013421716980037 -1.7119329706310058 -9.711650748990708 7 0 0
412 88 2 0 -0.8700987488553977 -1.6055091719206445 -9.42059969649008 7 0 0
858 236 4 0 -0.1268447441057674 -1.5075409853110777 -9.201116379624237 7 0 0
2777 876 4 0 -10.643912864259082 -10.377817900557188 -8.611933036387908 2 0 0
2567 806 4 0 -8.48486686790006 -10.422542126192212 -8.409009817743238 2 0 0
2977 943 2 0 -2.88829301215495 -8.608103952048747 -9.125065566236943 3 0 0
2978 943 4 0 -2.6786668844735395 -8.653788369675341 -8.701547792500515 3 0 0
2783 878 4 0 -2.462508494729555 -8.658409089903383 -8.36262789132663 3 0 0
2597 816 4 0 -2.83863029514249 -7.4819660447630625 -8.67557319405453 4 0 0
3207 1019 4 0 -7.528751179716539 -7.307181287979842 -8.39396933754867 4 0 0
3205 1019 2 0 -7.137425013436004 -7.233821636491996 -8.631654289916476 4 0 0
3206 1019 4 0 -6.751936758862703 -7.171131952208571 -8.869497073182776 4 0 0
2634 828 4 0 -6.521545483056052 -6.876984019725834 -8.753765479314596 4 0 0
2632 828 2 0 -6.145016196548793 -6.775116648093356 -8.533660253614453 4 0 0
2633 828 4 0 -5.772696066937711 -6.667875213110266 -8.300441593770593 4 0 0
3245 1032 4 0 -4.907063090200531 -6.448301065646956 -9.082948135795208 4 0 1
45 9 3 0 -4.754054109733176 -6.57715507030031 -8.374592698459507 3 0 0
2596 816 2 0 -3.0829954463150795 -7.218702622917438 -8.386316569771827 4 0 0
42 9 3 0 -5.155204409885999 -6.254209705814117 -8.8481715133322 3 0 0
41 9 1 0 -5.075482555681101 -6.269361363211487 -8.460700227336218 3 0 0
43 9 3 0 -4.932608652712706 -5.861326698557309 -8.30992198174698 3 0 0
2884 912 2 0 -11.907181070956232 -4.791588224316602 -8.30719643636899 6 0 0
3513 1121 4 0 -11.69984154023479 -4.51831669347066 -8.98453698163036 6 0 0
414 88 4 0 -0.5082644163110519 -1.4874410210126587 -9.09964743341524 7 0 0
2776 876 2 0 -10.560388969266922 -10.31566480128284 -8.164693846695613 2 0 0
2778 876 4 0 -10.47222996296131 -10.250593957732606 -7.727111960125639 2 0 0
3039 963 4 0 -10.412934948279881 -10.34514357163754 -7.340737298536225 2 0 0
2571 807 4 0 -10.141360030475235 -10.147059819566676 -7.528325077408296 2 0 0
2570 807 4 0 -9.221545093444039 -10.120794892289675 -7.516490072316966 2 0 0
2569 807 2 0 -9.679954868321332 -10.137753661657355 -7.521971720500041 2 0 0
2568 806 4 0 -8.927253093305861 -10.39691679722795 -7.61568904084665 2 0 0
2566 806 2 0 -8.7040820022023 -10.409329740493332 -8.028400900934562 2 0 0
2782 878 2 0 -2.31968638756471 -8.461080727939198 -7.999721403153625 3 0 0
231 47 1 0 -11.346278257414166 -7.743584662829961 -7.6240507171642005 4 0 0
234 47 3 0 -11.224122556030368 -8.156805941279538 -7.789697082703781 4 0 0
233 47 3 0 -11.37139757578727 -7.446115238816653 -7.9551238290764665 4 0 0
235 47 3 0 -11.734559656291445 -7.782532234198114 -7.425848588572822 4 0 0
2864 905 4 0 -10.703232987214939 -7.416914018973568 -7.349647346324894 4 0 0
2543 798 4 0 -5.2811983087026935 -7.7535248929645 -8.249429461705104 4 0 0
2542 798 2 0 -5.0559242869759355 -7.336958504668405 -8.241758168251481 4 0 0
2784 878 4 0 -2.174933512851128 -8.237288709149643 -7.618452289886235 3 0 0
2953 935 2 0 -1.6204943428931262 -7.7260897456077435 -7.587103503743253 3 0 0
2954 935 4 0 -1.7843133226346612 -8.128204683046086 -7.649861930958125 3 0 0
2653 835 2 0 -11.4739811728306 -6.681608107876838 -7.877555766567671 4 0 0
2655 835 4 0 -11.241770941457773 -7.0699121360669706 -7.833850751147403 4 0 0
2863 905 2 0 -10.307573505476608 -7.228254896651414 -7.423082112816407 4 0 0
2865 905 4 0 -9.906153440381082 -7.031450252167388 -7.4904842616174925 4 0 0
195 39 3 0 -8.19266337076326 -6.9359478231220795 -7.56776536068281 4 0 0
191 39 1 0 -7.901951482615552 -6.788748707724158 -7.867269522192562 4 0 0
192 39 3 0 -7.743978379509059 -7.137957605823069 -8.108592397461452 4 0 0
193 39 3 0 -7.565308975171841 -6.5910040944040755 -7.656162832613493 4 0 0
194 39 3 0 -8.106170223943376 -6.4999604248978375 -8.13846979030099 4 0 0
2615 822 4 0 -7.189183979497839 -6.442034668480621 -7.586088639567219 4 0 0
2614 822 2 0 -6.716198748721648 -6.521381781853418 -7.603979577271836 4 0 0
2616 822 4 0 -6.279414405026053 -6.5805185422317365 -7.620346954952456 4 0 0
2843 898 4 0 -5.895055087101835 -6.6099912841052495 -7.457814290989936 4 0 0
2544 798 4 0 -4.845553034981411 -6.949626132107148 -8.227084637937429 4 0 0
552 134 4 0 -4.530835454118687 -6.765041805583003 -8.105762233872131 3 0 0
550 134 2 0 -4.066432190391505 -6.781703698653776 -8.035690204155703 3 0 0
551 134 4 0 -3.6098074733708003 -6.800832850963 -7.965903921725993 3 0 0
280 56 3 0 -3.2685125223665654 -6.834552542368848 -7.755371426854486 4 0 0
2598 816 4 0 -3.321431669628854 -6.9914022620024605 -8.118837151614992 4 0 0
276 56 1 0 -3.1631696209982625 -6.5741569234148525 -7.367965910262979 4 0 0
2545 799 2 0 -1.3080248852964935 -6.650611171923231 -7.912627791184518 3 0 0
2547 799 4 0 -1.5149910155316562 -7.017601978355749 -7.814743143645347 3 0 0
2955 935 4 0 -1.4362154966623493 -7.304936599001232 -7.5304969024027235 3 0 0
2654 835 4 0 -11.71328699717003 -6.309100356458476 -7.9269253754146245 4 0 0
44 9 3 0 -5.449286139168207 -6.39067589897464 -8.244179536913341 3 0 0
278 56 3 0 -2.838871732208583 -6.277203352043314 -7.4697277151385935 4 0 0
2546 799 4 0 -1.1021276287138217 -6.288954184984492 -8.00840632420151 3 0 0
2748 866 4 0 -11.641321903180069 -4.756722649596014 -7.573682711452735 6 0 0
2885 912 4 0 -11.880136156599596 -4.7894644588334705 -7.891931448688742 6 0 0
2628 826 4 0 -3.730795726726214 -4.125679151866253 -7.523917434104731 5 0 0
2627 826 4 0 -3.3675525221233524 -4.572769060024654 -8.211671427858889 5 0 0
2626 826 2 0 -3.547401158990196 -4.359742478273453 -7.872882341668331 5 0 0
1394 415 4 0 -4.67529315011159 -0.5425791184364872 -7.588107960984066 8 0 0
1393 415 2 0 -5.064231868500705 -0.5753491786028491 -7.342688161044449 8 0 0
972 274 4 0 -4.3309816387174696 -0.449190318876834 -7.76793638725677 8 0 0
970 274 2 0 -3.9410150938503596 -0.5004270735585798 -7.5104222004816386 8 0 0
4330 1394 2 0 -1.4672419235129563 -0.226911160439899 -7.403137354396233 8 0 1
4331 1394 4 0 -1.0600681727985357 -0.2356799028691352 -7.58782916461463 8 0 1
3489 1113 4 0 -0.6858517558542552 -0.15669247777508666 -7.711472201592466 8 0 1
3487 1113 2 0 -0.2778665588350222 -0.13746768445162694 -7.893140020376415 8 0 1
2554 802 2 0 -11.755819735641415 -10.41252908096835 -6.717465312148068 2 0 0
2556 802 4 0 -11.41629550719276 -10.632411661063793 -6.867787072250911 2 0 0
3038 963 4 0 -11.039601473180417 -10.646019348663414 -6.729581532833504 2 0 0
3037 963 2 0 -10.719259806614357 -10.497041663524383 -7.0370227210056004 2 0 0
3389 1080 4 0 -1.5954945275215469 -10.471037901972878 -7.3329601739394175 3 0 1
3388 1080 2 0 -1.1630411732749621 -10.573939321556571 -7.299648435589554 3 0 1
3390 1080 4 0 -0.7345580230417639 -10.671823646905638 -7.269178547487969 3 0 1
2829 893 4 0 -11.65245733911175 -9.302557370692384 -6.963791614778801 2 0 0
890 247 4 0 -11.320831383063423 -9.24150106966755 -6.728100195386221 2 0 0
38 8 3 0 -11.665205784087023 -9.307763813591107 -6.549746635098651 2 0 0
2827 893 2 0 -11.881500916853073 -9.516563903804283 -7.2789990934582045 2 0 0
889 247 2 0 -10.985071192285416 -8.964509657958766 -6.803931772475067 2 0 0
891 247 4 0 -10.634993288924905 -8.668359487615945 -6.892475468411192 2 0 0
232 47 3 0 -11.039819342482197 -7.608194308128268 -7.321549399676138 4 0 0
1466 439 4 0 -11.300070809894951 -7.7568214716279495 -6.456456761523818 2 0 0
2579 810 4 0 -9.3088855805962 -7.1161325540774385 -6.528460017028642 4 0 0
2578 810 2 0 -8.981848246455144 -6.986829887628184 -6.822524348304809 4 0 0
2580 810 4 0 -8.654231340299848 -6.848549022541601 -7.117185815935266 4 0 0
279 56 3 0 -3.0223926932006577 -6.849621586745342 -7.040026456707074 4 0 0
794 215 4 0 -2.732066649929207 -6.929370128866803 -6.7487121679075095 4 0 0
2842 898 2 0 -5.529283247866331 -6.413828282009573 -7.293017067194951 4 0 0
2844 898 4 0 -5.1494302600484945 -6.218700265545952 -7.123922971066515 4 0 0
2816 889 4 0 -4.752844808382925 -6.258249695003881 -7.067919519894258 4 0 0
2815 889 2 0 -4.276053494123599 -6.248594094163398 -7.019943426572121 4 0 0
2817 889 4 0 -3.824002272725039 -6.22421573125065 -6.976686208665983 4 0 0
277 56 3 0 -3.530097730946302 -6.356831719439945 -7.221561269763795 4 0 0
588 146 4 0 -2.5065551135390773 -6.116142230944111 -7.284756766108489 4 0 0
586 146 2 0 -2.1660894366270345 -6.148585756628159 -6.9909317663276385 4 0 0
587 146 4 0 -1.796872452173119 -6.179138695410904 -6.683336630091568 4 0 0
650 167 4 0 -0.3767820769389765 -5.737362138329666 -7.061336836830152 4 0 0
649 167 2 0 -0.2772976425688185 -5.9175586933040565 -6.682193153730294 4 0 0
2746 866 2 0 -11.554965366885133 -4.691542767895064 -7.148203384785468 6 0 0
2747 866 4 0 -11.447280983821065 -4.616970606301064 -6.700525958620423 6 0 0
2845 899 2 0 -3.7023150725544394 -4.220780041972287 -6.689952339457068 5 0 0
2846 899 4 0 -3.7002962186931914 -4.1451986910228165 -7.111939023341395 5 0 0
2489 780 4 0 -2.1613849438562713 -4.358710632920461 -6.651200249936933 5 0 0
1003 285 2 0 -3.7000643079818847 -0.9203263905623853 -6.57279881221043 8 0 0
440 97 4 0 -1.0125520341176752 -1.4084950864795633 -6.614504000171827 7 0 0
426 92 4 0 -0.8618875063585296 -1.6968875424881151 -6.853890532822052 7 0 0
424 92 2 0 -0.4125878062965498 -1.7122397877791276 -6.9009052630165115 7 0 0
582 144 4 0 -5.504943815668973 -0.49321657443243794 -6.722844520195082 8 0 0
580 144 2 0 -5.879288636726469 -0.6017013549032768 -6.494211056691585 8 0 0
1395 415 4 0 -5.461129890956783 -0.6098733327346277 -7.0971479418953125 8 0 0
971 274 4 0 -3.5308755033109094 -0.5531029840821482 -7.24879798146462 8 0 0
1005 285 4 0 -3.4443606932808475 -0.6993444977935912 -6.884643534260931 8 0 0
1230 360 4 0 -3.155086217742264 -0.5328123401915743 -7.107336233643024 8 0 0
1228 360 2 0 -2.725781745814025 -0.39373458371833436 -7.123387442884882 8 0 0
1229 360 4 0 -2.2959658743641214 -0.24281106081166648 -7.154230359414231 8 0 0
4332 1394 4 0 -1.8982683809816638 -0.21740840646990023 -7.213918965599905 8 0 1
2775 875 4 0 -0.8812313349333181 -11.146906028601729 -6.086494918345531 2 0 0
3606 1152 4 0 -9.24918258463759 -10.793920059306112 -6.224939710328363 10 1 0
3604 1152 2 0 -8.818291199580802 -10.793902991179602 -6.217684042082164 10 1 0
3605 1152 4 0 -8.372451089270417 -10.808443627794738 -6.204010767644371 10 1 0
3914 1255 4 0 -8.012945664856613 -10.815633770425187 -6.0053101787021035 10 1 0
3913 1255 2 0 -7.593935164256955 -10.668308450466164 -5.887295990670092 10 1 0
3915 1255 4 0 -7.1794112935281955 -10.528863065178765 -5.761044127561548 10 1 0
3827 1226 4 0 -6.829690783381728 -10.351453270693861 -5.6876830681647705 10 1 0
3826 1226 2 0 -6.4203574984445995 -10.19372162427255 -5.70628732263664 10 1 0
2773 875 2 0 -0.5742624471509821 -10.975927642126978 -5.789832621648658 2 0 0
39 8 3 0 -11.657200920673892 -9.420562555475913 -5.812076600158187 2 0 0
3621 1157 4 0 -11.222591880529395 -9.353618596425038 -5.7556502315823 10 1 0
36 8 1 0 -11.887537062468004 -9.490024108347852 -6.200731946359174 2 0 0
3619 1157 2 0 -10.76444959750402 -9.255008486113024 -5.754618706655092 10 1 0
3828 1226 4 0 -5.990798623957811 -10.032200061566964 -5.74116721434738 10 1 0
4101 1317 4 0 -5.603808790924549 -9.937250265733136 -5.589305363206307 10 1 0
4099 1317 2 0 -5.1814488310259215 -9.798859008566794 -5.612432833757606 10 1 0
4100 1317 4 0 -4.749259691565396 -9.662679746450602 -5.635110504853054 10 1 0
4091 1314 4 0 -4.543182317578563 -9.968068379352273 -5.740653851199125 10 1 0
4090 1314 2 0 -4.102122913159364 -9.995279915717523 -5.708038538764414 10 1 0
4092 1314 4 0 -3.6302828059428407 -10.024657151181968 -5.669422544677671 10 1 0
3620 1157 4 0 -10.28868494352582 -9.14872133774359 -5.741266364221751 10 1 0
3855 1235 4 0 -9.925197304471295 -9.0913086069562 -5.634005360131324 10 1 0
3853 1235 2 0 -9.473539443444825 -9.123094395792595 -5.50292951146136 10 1 0
1465 439 2 0 -11.061360875255938 -7.83194242070668 -6.112651323800736 2 0 0
1467 439 4 0 -10.811929215973905 -7.908773940576889 -5.758715831002293 2 0 0
2519 790 4 0 -9.286253582912252 -7.338521298740869 -6.184829086232001 4 0 0
2518 790 2 0 -9.078503090071418 -7.352033974262629 -5.779348469146169 4 0 0
2751 867 4 0 -5.409598142370535 -7.448548384523412 -5.654913904677186 4 0 0
793 215 2 0 -2.8390036330739026 -6.853392124055029 -6.279212213018419 4 0 0
795 215 4 0 -2.9354784592631056 -6.779017365803016 -5.820341431441676 4 0 0
3486 1112 4 0 -3.2521611413993785 -6.938190782296362 -5.596645278735403 4 0 0
2756 869 4 0 -1.5503412624019912 -6.174550342745278 -6.382757542009397 5 0 0
2755 869 2 0 -1.5354531919526782 -5.992634112178552 -5.9619887896605315 5 0 0
2757 869 4 0 -1.5183155234259669 -5.804276903441619 -5.513189852609168 5 0 0
651 167 4 0 -0.1774647242087095 -6.100987113400061 -6.297640253557644 4 0 0
197 40 3 0 -5.147233019383224 -4.706652027341033 -5.5333142153141495 5 0 0
2528 793 4 0 -4.844594371479827 -4.775013855389059 -5.775680846920577 5 0 0
190 38 3 0 -3.1874052844636793 -4.862421014376104 -5.579696127051215 5 0 0
2531 794 4 0 -11.844277923738206 -3.701230693830178 -6.072027754685895 6 0 0
199 40 3 0 -5.737899366850063 -4.4950637522126415 -5.902380880733758 5 0 0
2527 793 2 0 -4.443557700664948 -4.577099442671304 -5.905754234252561 5 0 0
2529 793 4 0 -4.042463137115142 -4.382128737345459 -6.02935581542444 5 0 0
2847 899 4 0 -3.709110855180347 -4.279844007380762 -6.26492851672796 5 0 0
188 38 3 0 -3.6858285871846252 -4.398204484885477 -5.89367353425946 5 0 0
186 38 1 0 -3.3348740395348546 -4.449207826381126 -5.590865149646232 5 0 0
189 38 3 0 -2.982240393525583 -4.164189022294534 -5.712469177266555 5 0 0
2488 780 2 0 -2.407080640028468 -4.31286539656233 -6.264843326576452 5 0 0
2490 780 4 0 -2.6440660979994206 -4.265734657489125 -5.893454968687626 5 0 0
2715 855 4 0 -2.656370854584017 -3.888324071031441 -5.729881968014281 5 0 0
208 42 3 0 -11.38986509955676 -2.828314948887151 -6.350446880505321 6 0 0
207 42 3 0 -11.458916505055898 -3.560059058658064 -6.154364729771106 6 0 0
209 42 3 0 -11.46705836286917 -3.0539606704546056 -5.624769075010878 6 0 0
206 42 1 0 -11.288629085856392 -3.1692806436064718 -6.025515986109402 6 0 0
210 42 3 0 -10.83170964723544 -3.2104615609625853 -5.981791335039209 6 0 0
759 203 4 0 -10.744029376147399 -3.1823808289651545 -5.610625411869946 5 0 0
860 237 4 0 -11.858485105441908 -2.126728615808563 -6.292542801745216 7 0 0
1177 343 2 0 -4.673800533169194 -0.9312816469578298 -5.964107026196676 8 0 0
1178 343 4 0 -4.305905969797892 -1.1855350061646899 -6.070303983054488 8 0 0
1004 285 4 0 -3.9513252049867056 -1.1240242859956844 -6.276135441084358 8 0 0
3977 1276 4 0 -1.8241690298831 -1.3028157312087387 -5.724773100933114 16 1 0
441 97 4 0 -1.7456845527546534 -1.2548577729840336 -6.124297660395565 7 0 0
439 97 2 0 -1.3908692789169947 -1.3289475252602436 -6.361035870098618 7 0 0
678 176 4 0 -7.837333326863865 -0.3206904661369361 -6.368186758666086 8 0 0
1275 375 4 0 -7.424244356772046 -0.3352302147300019 -6.324840221757169 8 0 0
1273 375 2 0 -6.969344802006447 -0.42559080098647506 -6.239602850067369 8 0 0
1274 375 4 0 -6.531534250473532 -0.49823778121072415 -6.157310685064209 8 0 0
581 144 4 0 -6.24528257085842 -0.7141497560501922 -6.261204380571428 8 0 0
1179 343 4 0 -5.05809182609732 -0.664105332723345 -5.840241274417564 8 0 0
840 230 4 0 -4.1395984383843105 -11.190070664743576 -5.324486450733731 1 0 0
838 230 2 0 -4.071603943895157 -11.267370893353803 -4.860638169841604 1 0 0
2774 875 4 0 -0.27959525525964857 -10.805981599902134 -5.487015238773304 2 0 0
3830 1227 4 0 -0.049831392869350566 -10.972067600844237 -5.197371248727532 10 1 0
3854 1235 4 0 -9.011042271210279 -9.140675910461365 -5.371434700756605 10 1 0
3002 951 4 0 -8.617967421068112 -8.986278693667078 -5.3126719147000525 2 0 0
3001 951 2 0 -8.191602847007504 -8.793655111145986 -5.242302818292393 2 0 0
3003 951 4 0 -7.762606923730827 -8.596408017021341 -5.167584085258676 2 0 0
461 104 4 0 -7.410489349460678 -8.664024076194979 -4.968210229957568 2 0 0
460 104 2 0 -6.971205266320121 -8.539784023637772 -4.946530607383275 2 0 0
462 104 4 0 -6.492256277909159 -8.406652600939463 -4.925481114771264 2 0 0
3633 1161 4 0 -11.443694850734497 -8.067115006083613 -4.6354427508309035 11 1 0
3632 1161 4 0 -11.119634655721017 -7.9715107423397775 -5.466425030417827 11 1 0
3631 1161 2 0 -11.286804407399543 -8.020276649952935 -5.053167028368329 11 1 0
2520 790 4 0 -8.872601375553332 -7.35210875023172 -5.397008481217331 4 0 0
3028 960 2 0 -6.810580008198723 -7.333707373323511 -5.017370564207709 4 0 0
254 51 3 0 -6.150689749466931 -8.18837033221569 -4.8491590580246156 4 0 0
3029 960 4 0 -6.349787088135455 -7.374218130646266 -5.013726668329669 4 0 0
255 51 3 0 -5.442989345806897 -7.939285565473984 -4.792369661627566 4 0 0
2697 849 4 0 -5.0325337289340215 -7.9104108565644955 -4.856778580056816 4 0 0
2695 849 2 0 -4.603486103586531 -7.784634000597726 -5.018943142758587 4 0 0
2696 849 4 0 -4.195406793904674 -7.66786358443882 -5.1630263239337255 4 0 0
3485 1112 4 0 -3.8992723988400133 -7.40898356491898 -5.186743720731242 4 0 0
328 66 3 0 -9.320537055368856 -6.691755511580128 -4.746551676526347 12 1 0
3701 1184 4 0 -8.514050819726531 -7.216164390012058 -5.2953664539673735 12 1 0
327 66 3 0 -8.83664705973251 -7.186212760163484 -5.048987609382927 12 1 0
326 66 1 0 -8.979829785913923 -6.986308243599753 -4.652195235859688 12 1 0
3700 1184 2 0 -8.055205827481771 -7.2029289894443105 -5.249274068662602 12 1 0
3702 1184 4 0 -7.579143550011109 -7.181965153373028 -5.197983022833882 12 1 0
3030 960 4 0 -7.237935807095953 -7.301712091488331 -5.022457621328163 4 0 0
2750 867 4 0 -6.114578646772091 -7.066571302538925 -5.182967689744881 4 0 0
2749 867 2 0 -5.759498361553527 -7.259739446028711 -5.426964769619926 4 0 0
3484 1112 2 0 -3.5774748249594985 -7.173729860202353 -5.389526546582469 4 0 0
2797 883 2 0 -0.8348243062301837 -6.575523472901651 -5.020613607204811 4 0 0
2799 883 4 0 -0.6831574538240925 -7.01634388993672 -4.974061863584614 4 0 0
2840 897 4 0 -1.4596663286306697 -5.636964593442456 -5.1382483250286475 5 0 0
2798 883 4 0 -0.9742085360009831 -6.138033527000054 -5.066343305060416 4 0 0
2839 897 2 0 -1.155174438638527 -5.551629162811008 -4.7819666945164485 5 0 0
2879 910 4 0 -11.332398096402374 -4.619273989882382 -4.700578004547386 6 0 0
2732 861 4 0 -6.912757328977984 -5.290281827363335 -5.174104476825555 5 0 0
2731 861 2 0 -6.584413330348404 -5.047620275276109 -5.260545176985224 5 0 0
2733 861 4 0 -6.230327677915949 -4.786799834928428 -5.3606970848553335 5 0 0
200 40 3 0 -5.828946606173234 -4.882226988448916 -5.296291748774275 5 0 0
2573 808 4 0 -11.03588344283815 -4.3817159238348315 -4.867284062189772 6 0 0
2878 910 2 0 -11.76224452645127 -4.549533161865291 -4.95254112422912 6 0 0
2572 808 2 0 -10.753262775221271 -4.01848350195606 -4.855129366450092 6 0 0
196 40 1 0 -5.573113545760394 -4.562423931216209 -5.499177322298538 5 0 0
198 40 3 0 -5.586962825133807 -4.187218673744169 -5.27014683182693 5 0 0
2592 814 4 0 -5.252925829748995 -3.9782972438836666 -5.158619439806541 5 0 0
2590 814 2 0 -4.8305905264090105 -3.7638088509653667 -5.074853173556651 5 0 0
187 38 3 0 -3.4862663845549626 -4.337892347582468 -5.176430276023677 5 0 0
726 192 4 0 -11.580864782389016 -3.0287461005399887 -5.216132188057501 5 0 0
757 203 2 0 -10.304706342541628 -3.0934386388067914 -5.480770284485679 5 0 0
2574 808 4 0 -10.456061674208067 -3.6450595567719635 -4.840039325424429 6 0 0
758 203 4 0 -9.852879600563561 -3.0064645264072176 -5.345685847444753 5 0 0
2591 814 4 0 -4.43349920872887 -3.553864087730485 -4.998187554688576 5 0 0
2713 855 2 0 -2.4486370534286355 -3.470974942331086 -5.489457140428048 5 0 0
2714 855 4 0 -2.2642862915203263 -3.0895167733733153 -5.260484777101309 5 0 0
2826 892 4 0 -2.005533595692862 -3.172198398844859 -4.961576005483705 6 0 0
3976 1276 2 0 -1.8882360456390952 -1.3160619497471036 -5.292152741489618 16 1 0
3978 1276 4 0 -1.956476510037179 -1.3238012294690495 -4.854237123159791 16 1 0
839 230 4 0 -4.006946437523078 -11.34224883137534 -4.420989290687455 1 0 0
3618 1156 4 0 -3.863006361571296 -11.042704468250895 -4.218950283595053 11 1 0
4572 1474 4 0 -4.243482500337053 -11.106841212340486 -4.166560999945699 11 1 0
4571 1474 4 0 -5.059833297049878 -10.66958483126449 -3.940093835195027 11 1 0
4570 1474 2 0 -4.653061434465536 -10.891747403876264 -4.046871287974888 11 1 0
3616 1156 2 0 -3.5413639497473692 -10.868957022812646 -3.9055759414770694 11 1 0
3852 1234 4 0 -5.65073149743486 -9.428917569412706 -3.7770204201406354 11 1 0
3720 1190 4 0 -5.260637734954657 -9.351816858684549 -3.8066230484426384 11 1 0
253 51 3 0 -5.65949483578429 -8.542201894780481 -4.449480706616708 4 0 0
1295 382 4 0 -11.1468984264862 -8.111045739832347 -4.367704739588967 2 0 0
1294 382 2 0 -10.998736262127395 -8.121001383596361 -3.933236272360566 2 0 0
2504 785 4 0 -7.147322141983085 -7.9586240515139774 -3.709273172901403 4 0 0
2503 785 2 0 -6.72051385533218 -7.943402510773186 -3.885763908939376 4 0 0
251 51 1 0 -5.782982467179232 -8.147435883161494 -4.568122921946685 4 0 0
2505 785 4 0 -6.274491775757071 -7.939362650589077 -4.072660671883949 4 0 0
252 51 3 0 -5.894653143768727 -7.907071114110379 -4.182740132237701 4 0 0
329 66 3 0 -9.126797449165338 -7.291406359033574 -4.377069306108903 12 1 0
330 66 3 0 -8.610638195515918 -6.744302802428184 -4.4374488264940295 12 1 0
4070 1307 4 0 -8.311199167504983 -6.967499691280738 -4.2532911148988894 12 1 0
4069 1307 2 0 -7.887125052620896 -7.056087416289166 -4.132583868667384 12 1 0
4071 1307 4 0 -7.451759706150231 -7.1449298744260235 -4.009294674093924 12 1 0
4077 1309 4 0 -7.119205265906315 -6.957333118026478 -3.8538546637552713 12 1 0
2744 865 4 0 -0.4898812766806806 -5.5183617955913045 -4.364474870243527 5 0 0
3198 1016 4 0 -3.0127512045205194 -5.241052532695334 -4.196443015874271 5 0 0
3196 1016 2 0 -2.6215791562333433 -5.084070546040252 -4.119784847483812 5 0 0
3197 1016 4 0 -2.2142311862955992 -4.910200841889715 -4.045195905089208 5 0 0
315 63 3 0 -1.8968276684115217 -4.84501533099313 -3.7905367035779296 13 1 0
2841 897 4 0 -0.8645335747241081 -5.471030946284197 -4.44587368079486 5 0 0
2743 865 2 0 -0.12367898823493206 -5.29112183264753 -4.243347748205962 5 0 0
2824 892 2 0 -1.8371130031829352 -3.1317346632065917 -4.547732290001809 6 0 0
2765 872 4 0 -1.9555888422586811 -3.044662048963323 -3.820184206171284 6 0 0