LAMMPS data file via write_data, version 19 Nov 2024, timestep = 1000000, units = lj

4800 atoms
4 atom types
3300 bonds
1 bond types
2250 angles
2 angle types

-11.677732 11.677732 xlo xhi
-11.677732 11.677732 ylo yhi
-11.677732 11.677732 zlo zhi
3.4567904094728874e-12 0 0 xy xz yz

Masses

1 1
2 1
3 0.1
4 0.1

Bond Coeffs # harmonic/omp

1 100 0.45

Angle Coeffs # harmonic/omp

1 100 180
2 100 109.471

Atoms # full

2840 847 4 0 -10.859413940429416 -10.24527793458174 -11.325542885883019 4 0 0
3326 1009 4 0 -10.666444078883606 -10.548153846309107 -11.143887947462256 4 0 0
4550 1417 4 0 -9.104276440149123 -8.470256230694936 -11.645711158778893 9 1 1
4549 1417 2 0 -8.797961681673504 -8.314937146780336 -11.353374980234243 10 1 1
4551 1417 4 0 -8.494463829495091 -8.165411148115771 -11.069217141110666 11 1 1
1133 278 4 0 -4.435686710931039 -8.15015643163758 -11.136506965162221 5 0 1
1682 461 4 0 -4.116155885229439 -8.178899455823446 -11.393988200713409 5 0 1
1681 461 2 0 -3.6633692800331374 -8.15735447950289 -11.383536606381227 5 0 1
1683 461 4 0 -3.2183832010402487 -8.128618794842051 -11.378586133309767 4 0 1
2844 848 4 0 -3.069592978256484 -8.039120508553093 -11.011399072540964 9 0 1
1411 371 2 0 -9.662025846405063 -6.788478531549289 -11.484204460292487 4 0 1
1413 371 4 0 -9.361004667196065 -6.58148892751396 -11.20918365753623 4 0 1
202 41 3 0 -9.011842760240961 -6.414393451894197 -11.102196258703488 4 0 0
201 41 1 0 -8.663542176094214 -6.427255097311614 -10.805904653597402 4 0 0
203 41 3 0 -8.27321017417605 -6.417563243722178 -11.035317608148471 4 0 0
3516 1072 4 0 -7.920252025556023 -6.306638564531768 -11.164040000362808 5 0 0
3056 919 4 0 -1.7586540567749562 -7.157686591834949 -11.061665373609788 4 0 0
3055 919 2 0 -1.4084533354690194 -7.079869667218303 -11.334762709016198 4 0 0
3057 919 4 0 -1.0633040860722414 -7.004627257501377 -11.611933283120457 4 0 0
3514 1072 2 0 -7.519100322361128 -6.279091403394936 -11.001098785288102 5 0 0
3515 1072 4 0 -7.111641926601394 -6.244130372411278 -10.844192040329661 5 0 0
403 81 3 0 -6.755632170932059 -6.110634113716479 -10.942250488730085 5 0 0
404 81 3 0 -6.532714656135642 -5.4572541018328735 -11.216284959502001 5 0 0
401 81 1 0 -6.498235789762256 -5.900517230667993 -11.26948188351044 5 0 0
402 81 3 0 -6.051865622188353 -6.027084198871344 -11.226438796492083 5 0 0
1242 314 4 0 -5.666205088409935 -5.946195563179163 -11.299282128251143 4 0 1
1240 314 2 0 -5.197827836675337 -5.951085942587099 -11.335952638032309 4 0 1
1241 314 4 0 -4.741210122681163 -5.959754209141148 -11.370311267450461 4 0 1
1796 499 4 0 -4.340226591166079 -5.925244663958347 -11.378004919201933 4 1 0
1795 499 2 0 -3.9129993738333155 -6.000607046409427 -11.523632784839952 4 1 0
1797 499 4 0 -3.482339291670252 -6.075182189114006 -11.670263824232055 4 1 0
804 168 4 0 -0.981936183639915 -5.866552542335122 -11.552800216863018 5 0 0
2757 819 4 0 -6.750137160059954 -5.165536799829218 -11.076069835323036 4 1 1
2755 819 2 0 -6.57742404571191 -4.818152692713156 -10.856553999321587 4 1 1
865 189 2 0 -5.912465116531859 -1.0174038528633655 -11.039915447177785 9 0 0
867 189 4 0 -5.580799513595878 -0.9517969993231556 -11.326313853985804 9 0 0
4580 1427 4 0 -4.341713594274584 -0.9082258830797212 -11.633391771753022 11 0 1
4581 1427 4 0 -5.2128910677723255 -0.874135185992543 -11.475926658612376 11 0 1
4579 1427 2 0 -4.7733501292894225 -0.8910663158892724 -11.555779476941987 11 0 1
4798 1500 2 0 -3.5637551077758314 -0.6216498216263879 -11.628478484314952 11 0 1
4799 1500 4 0 -3.161110158624467 -0.4416882450755857 -11.53798370365786 11 0 1
330 66 3 0 -2.9001125457886765 -0.16060477705590692 -11.660317357062803 11 0 1
326 66 1 0 -2.6076174649310033 -0.018215702214632756 -11.336799290265278 11 0 1
327 66 3 0 -2.3629355812772985 -0.3722548476618073 -11.173933451710234 11 0 1
2027 576 4 0 -2.3624970915656984 -0.7736010121196859 -11.063901417308355 11 0 0
2026 576 2 0 -1.956865349112702 -0.7580582093596515 -10.877085513856205 11 0 0
2958 886 4 0 -10.023359540940628 -10.84139826451583 -10.32071262000872 4 0 0
3327 1009 4 0 -10.413592167437983 -10.9098482066332 -10.302163158830464 4 0 0
2956 886 2 0 -9.604344785406845 -10.791369776273019 -10.170732920591023 4 0 0
1707 469 4 0 -8.839013396652923 -10.97685118219089 -10.103156608392844 7 0 1
3325 1009 2 0 -10.540259735515919 -10.730083121529368 -10.720261044928426 4 0 0
2957 886 4 0 -9.16405414720416 -10.739691009895692 -10.01396796845389 4 0 0
821 174 4 0 -5.62898606430512 -10.417694505646411 -9.931352646037054 5 0 0
820 174 2 0 -5.257392570879032 -10.156221229748942 -10.007835157662106 5 0 0
822 174 4 0 -4.889919220811596 -9.899491955495058 -10.093486363932955 4 0 0
2770 824 2 0 -3.391743704515827 -9.108059032329594 -9.887587505318784 4 1 1
2771 824 4 0 -2.966062490657823 -8.98453772594236 -9.939539019958042 4 1 1
4044 1248 4 0 -8.266510502789766 -8.10555872486458 -10.727460607949403 11 1 0
4043 1248 4 0 -7.411406870386894 -8.33873973581659 -10.651743631675316 10 1 0
4042 1248 2 0 -7.830338482204998 -8.225072997752983 -10.686207893117967 10 1 0
3716 1139 4 0 -7.03578213409641 -8.477572678564389 -10.597087343128726 10 0 1
3715 1139 2 0 -6.6864941590150035 -8.454660312235934 -10.302350145796083 9 0 1
3717 1139 4 0 -6.347758411735082 -8.43776362515699 -10.007838233588092 9 0 1
2521 741 2 0 -5.5402821073406265 -8.451396946987964 -10.086793684308855 7 1 1
2522 741 4 0 -5.980531646741083 -8.60618926201411 -10.062000229801722 8 1 1
1132 278 2 0 -4.673265419269095 -8.302670619803555 -10.773588586194267 4 0 1
1134 278 4 0 -4.904829455050761 -8.457598953010473 -10.41307097013139 4 0 1
2523 741 4 0 -5.118353449814704 -8.295651554403491 -10.118444183635996 7 1 1
324 65 3 0 -2.052328067824556 -8.680080669383445 -10.012594812509413 4 1 1
4212 1304 4 0 -1.6587651783687978 -8.737654155062579 -9.931944184513105 4 0 0
3043 915 2 0 -6.116698335353755 -7.408194746231735 -9.986495322042966 5 0 0
3045 915 4 0 -5.887470289685887 -7.187233345717763 -10.293235546037254 5 0 0
2842 848 2 0 -2.8076600327025005 -7.965424689276251 -10.640851754849198 9 0 1
322 65 3 0 -2.485985167644273 -8.079361743801128 -9.919519368016307 4 1 1
2843 848 4 0 -2.5479759225129026 -7.893505383564753 -10.266557415822161 9 0 1
205 41 3 0 -8.682053035975834 -6.805684297722971 -10.564034543858904 4 0 0
852 184 4 0 -8.364379526215183 -6.898126806893474 -10.330366824302212 4 0 0
850 184 2 0 -8.078037961562218 -6.848312928110556 -9.99454376565249 4 0 0
3290 997 4 0 -5.499223765273563 -7.054231600289485 -10.365580503394105 5 0 1
3289 997 2 0 -5.061909262441693 -6.921373097716826 -10.344012993830226 5 0 1
3291 997 4 0 -4.633419065829065 -6.7880202440836515 -10.32583856809293 5 0 1
434 87 3 0 -4.254809092587831 -6.661062637765149 -10.23741400869139 5 0 1
431 87 1 0 -4.158844449099298 -6.377044533716016 -9.886191030954468 5 0 1
2909 870 4 0 -8.764062728228314 -5.794306556561474 -10.269566915196775 5 0 0
204 41 3 0 -8.685974958194794 -6.070259325820828 -10.536432808198736 4 0 0
2908 870 2 0 -8.502478846100352 -5.803536449675847 -9.899366981676103 5 0 0
433 87 3 0 -3.79241837443894 -6.105822243915221 -9.998789793795208 5 0 1
3696 1132 4 0 -3.4033002724088472 -6.009535492693137 -10.033172180849036 5 0 1
3694 1132 2 0 -2.9490481387547174 -5.9839514098647655 -10.15343164348613 6 0 1
3695 1132 4 0 -2.5093582841169315 -5.955487044695126 -10.259278230910471 6 0 1
770 157 4 0 -2.116065247725871 -5.946423973725509 -10.318963887596704 5 0 0
769 157 2 0 -1.6786165387737313 -5.809027467938982 -10.380610799019545 5 0 0
771 157 4 0 -1.2455109063162784 -5.665809410878426 -10.448890321107173 5 0 0
4470 1390 4 0 -0.8536435574537524 -5.606072396479026 -10.50979809791856 5 1 1
4468 1390 2 0 -0.4121151730854553 -5.598750490075252 -10.582778890918673 5 1 1
2756 819 4 0 -6.400854579829352 -4.478391256015378 -10.631824872236153 4 1 1
4543 1415 2 0 -5.299473473858748 -2.375253777730812 -9.925884456102796 12 0 1
4545 1415 4 0 -4.980977213356721 -2.2697685304944297 -10.22643703654433 12 0 1
791 164 4 0 -4.5917138699215565 -2.1965833849100083 -10.1941563114697 11 0 0
790 164 2 0 -4.269661016690696 -1.8760218156465829 -10.238478229282498 11 0 0
1140 280 4 0 -7.463511324748092 -0.9586656279317669 -10.395628449463278 9 0 0
1138 280 2 0 -7.047829041311443 -1.0292478458843455 -10.491873635169227 9 0 0
1139 280 4 0 -6.610336603951777 -1.1031438405846572 -10.596422423738915 9 0 0
866 189 4 0 -6.240037201793085 -1.0818210903836434 -10.754614915366611 9 0 0
792 164 4 0 -3.9498906896749206 -1.5688907058463712 -10.285371274424364 11 0 0
920 207 4 0 -10.499700892985832 -0.5939860771955967 -10.174768775111808 11 0 0
2028 576 4 0 -1.5527096275048056 -0.7398776581576598 -10.686359464041415 11 0 0
1406 369 4 0 -1.4225058098639582 -0.524916011067738 -10.375115818005318 11 0 1
1405 369 2 0 -1.2501298764914672 -0.23509604181788646 -10.093602081081253 11 0 1
489 98 3 0 -6.0707157495475315 -10.855581709522689 -9.042925316471708 5 0 1
1705 469 2 0 -8.529515661280648 -10.765171179410569 -9.858055303188069 7 0 1
1706 469 4 0 -8.218131851140267 -10.556476278467263 -9.610628146095006 6 0 1
1514 405 4 0 -7.838190045187181 -10.509068350083094 -9.774260916590714 7 0 1
1513 405 2 0 -7.407528953631772 -10.475141500108561 -9.637839227172199 7 0 1
1515 405 4 0 -6.9771040618880225 -10.435063427753468 -9.499562456258555 7 0 1
490 98 3 0 -6.598790572204986 -10.44118872874003 -9.346012264954764 5 0 1
486 98 1 0 -6.143591398908268 -10.487067148736932 -9.276066473926457 5 0 1
488 98 3 0 -5.936966394150023 -10.513665160366223 -9.679478006714808 5 0 1
487 98 3 0 -5.977804238720893 -10.119453954474844 -9.040002014363823 5 0 1
113 23 3 0 -4.754778619108613 -9.605981720038557 -9.861919218001038 4 0 1
111 23 1 0 -4.56640144443962 -9.325832776485692 -9.531318648041395 4 0 1
114 23 3 0 -4.609647255760658 -9.514512501564086 -9.12764655622853 5 0 1
112 23 3 0 -4.13526769215221 -9.254442174230975 -9.61995839957362 4 0 1
2772 824 4 0 -3.818044841006728 -9.229133564295608 -9.83674115126545 4 1 1
1689 463 4 0 -7.515919186065441 -8.143880003503524 -9.351988604563212 5 0 1
3635 1112 4 0 -7.6423998911384965 -8.351731553938311 -9.03299947388518 5 0 1
115 23 3 0 -4.7907435413146064 -8.933277472471493 -9.531013781652792 4 0 1
1593 431 4 0 -4.675065804899213 -8.702790451224805 -9.242875431247775 4 0 1
1591 431 2 0 -4.9812401193489935 -8.396019866485771 -9.107032956139104 4 0 1
323 65 3 0 -2.735996876076639 -8.734203678868104 -9.689959935568323 4 1 1
321 65 1 0 -2.368032247672108 -8.467791486965822 -9.73559178005736 4 1 1
325 65 3 0 -2.186037335140716 -8.393815341413859 -9.317960319511121 4 1 1
4210 1304 2 0 -1.2834658310161302 -8.510577281006157 -9.856994672710016 4 0 0
4211 1304 4 0 -0.9202971454707978 -8.29212364302354 -9.788211869499586 4 0 0
1687 463 2 0 -7.129147368999334 -7.939733626503445 -9.421934980541195 5 0 1
3044 915 4 0 -6.357704524024519 -7.650963000474411 -9.660882930779122 5 0 0
1688 463 4 0 -6.734793056024394 -7.734556626106443 -9.48966858090083 5 0 1
4529 1410 4 0 -0.8229985639158777 -7.945833601196464 -9.60026585951805 4 0 1
4528 1410 2 0 -0.4766228919343991 -7.707726889940972 -9.450282764438537 4 0 1
4530 1410 4 0 -0.11936944069979205 -7.46612473359827 -9.296331966513623 4 0 1
3124 942 2 0 -10.21840692986754 -6.8933144677603435 -9.025378459843292 5 0 0
3126 942 4 0 -10.661734814581802 -6.966502628253937 -9.015279346183965 5 0 0
3125 942 4 0 -9.757025403128189 -6.814836427870863 -9.034247937626553 5 0 0
3792 1164 4 0 -9.37621242494368 -6.697959313403495 -8.99854940595678 5 0 0
851 184 4 0 -7.7832390540902665 -6.801742609006745 -9.64688146887598 4 0 0
613 123 3 0 -7.835082516215113 -6.421283617121751 -9.494251472972303 5 1 0
432 87 3 0 -4.053394931602213 -6.623150353811936 -9.50836269497948 7 0 1
2910 870 4 0 -8.236913423640257 -5.8140212016968125 -9.526424253017058 5 0 0
614 123 3 0 -8.018945200340102 -5.759778589572246 -9.202684416245472 5 1 0
611 123 1 0 -7.852496182089878 -6.184242561841883 -9.109646394996064 5 1 0
3462 1054 4 0 -7.061627454462227 -6.16370498005049 -9.119724605148463 5 0 0
3460 1054 2 0 -6.628745724773382 -6.15247847615406 -9.253275200701438 5 0 0
3461 1054 4 0 -6.186648275216896 -6.133518536937314 -9.391102494320311 5 0 0
2862 854 4 0 -5.8324560317213505 -6.061800864906958 -9.60086588452843 5 0 0
2860 854 2 0 -5.359647078649388 -6.062043382642224 -9.670830870741801 5 0 0
2861 854 4 0 -4.913900196123131 -6.073023450180886 -9.74073354649834 5 0 0
435 87 3 0 -4.520493474562368 -6.115024625265928 -9.797769422058416 5 0 1
4544 1415 4 0 -5.634529786309415 -2.483190006524053 -9.62382555432183 12 0 1
1882 528 2 0 -6.095567990721728 -2.2142834275403818 -9.09373386006916 11 0 0
1884 528 4 0 -5.9143160677122895 -2.225135362296607 -9.51837540275536 11 0 0
919 207 2 0 -10.202696246860915 -0.645545920853893 -9.855445356175759 11 0 0
921 207 4 0 -9.898913001020755 -0.694466904542832 -9.536324869063357 11 0 0
957 219 4 0 -9.62336048013306 -0.8793319519755673 -9.27775925753509 11 0 0
955 219 2 0 -9.223178818374873 -0.7328638065370665 -9.106700784507565 11 0 0
3504 1068 4 0 -10.69796890963536 -11.397789792896148 -8.110929732381475 7 0 1
2690 797 4 0 -5.954515604369293 -10.857641958893977 -8.65828200383677 5 1 1
2689 797 2 0 -5.716146786886388 -10.788296969423259 -8.272129792236564 5 1 1
3408 1036 4 0 -0.21493383366300733 -11.458703767773113 -8.08830712563779 5 0 1
1973 558 4 0 -5.725820098980798 -9.979422640980884 -8.753880888447709 7 1 0
3205 969 2 0 -1.0929690827259648 -10.318122773826316 -8.377340711652163 5 0 0
3207 969 4 0 -1.0998372413806248 -9.951765222433366 -8.647383210932112 5 0 0
3206 969 4 0 -1.0907384853731 -10.683417593933811 -8.103373855106465 5 0 0
1974 558 4 0 -4.9392602506806025 -9.608220612752392 -8.935110987481671 7 1 0
1972 558 2 0 -5.328440266968421 -9.794687763475853 -8.843171616568029 8 1 0
385 77 3 0 -0.9389461007218642 -9.587680192447444 -8.637129700273942 5 0 0
381 77 1 0 -0.7482765889277516 -9.222358615162142 -8.457782105570157 5 0 0
384 77 3 0 -0.3916607908375074 -9.110421817546149 -8.70087617817958 6 0 0
3636 1112 4 0 -8.481357009085892 -8.371515993283868 -8.669471767161593 5 0 1
3634 1112 2 0 -8.060521748631047 -8.365306263278349 -8.849233330065319 5 0 1
1592 431 4 0 -5.269825567538132 -8.094930004437378 -8.97761107760491 7 0 1
1475 392 4 0 -2.303461238343859 -8.246377634378073 -8.962093779051445 3 0 1
383 77 3 0 -1.0563881557908417 -8.877129631609078 -8.458380452114946 5 0 0
1343 348 4 0 -0.18501339329386113 -8.77825872342574 -8.743077013986962 3 0 1
1474 392 2 0 -2.0537004075972582 -7.953891125917357 -8.707679300632078 3 0 1
1476 392 4 0 -1.819226030539225 -7.6714799816232615 -8.463419890729142 3 0 1
1758 486 4 0 -1.5094600469229356 -7.426962167035302 -8.418377147461424 3 0 1
1756 486 2 0 -1.1422404880520283 -7.3899367945880785 -8.17142308897307 3 0 1
2235 645 4 0 -11.069051064200476 -6.979763173700945 -8.97941126318839 5 1 0
2233 645 2 0 -11.519918757484227 -6.9709034536363985 -8.951555626897798 5 1 0
3790 1164 2 0 -8.968883534686674 -6.550346061188871 -8.904677051360059 5 0 0
3791 1164 4 0 -8.545250107718394 -6.389097619984138 -8.821649565934798 5 0 0
612 123 3 0 -8.131826406049857 -6.393823484288926 -8.804562291863705 5 1 0
615 123 3 0 -7.4346951684955895 -6.147705628606563 -8.931100264440557 5 1 0
1883 528 4 0 -6.273020297029047 -2.2041451287990466 -8.68022997286748 11 0 0
1221 307 4 0 -6.087394332486662 -2.1672795371623135 -8.324773038209829 11 0 0
1309 337 2 0 -8.36218791596897 -0.9390416668826411 -8.322077620360014 11 0 1
190 38 3 0 -3.7776784138522252 -1.0822336732663835 -8.547432034554841 11 1 0
186 38 1 0 -3.6356824680727975 -1.009640546529722 -8.13111916791278 11 1 0
956 219 4 0 -8.82476070730879 -0.5818576062436236 -8.936091537450606 11 0 0
1310 337 4 0 -8.536170553060126 -0.6802848577083562 -8.678429977488479 11 0 1
989 230 4 0 -3.8318918154127193 -0.04763565264203429 -8.549592314927326 10 -1 0
189 38 3 0 -3.2630878341128753 -0.7317331923515962 -8.144479447376806 11 1 0
4630 1444 2 0 -2.7672739573385705 -0.29551025034693623 -8.191315458249916 12 0 1
4631 1444 4 0 -2.4748221312643928 -0.12047109523069999 -8.45497880460466 12 0 1
3283 995 2 0 -11.300919377355243 -11.633395815754202 -7.740597984897979 8 0 0
3285 995 4 0 -10.852958489948199 -11.65718415886362 -7.852009590720154 8 0 0
3503 1068 4 0 -9.933981493559141 -10.905440599675988 -8.020401048980958 8 0 1
3502 1068 2 0 -10.318861047685944 -11.158554650596216 -8.062382219452754 7 0 1
3369 1023 4 0 -9.549427512955397 -10.803703389209044 -8.041613183250263 6 0 1
3367 1023 2 0 -9.206185476706459 -11.034266552645423 -7.858651714082185 6 0 1
3368 1023 4 0 -8.852189973645837 -11.271219370145372 -7.672768708725892 6 0 1
410 82 3 0 -1.1352760943411422 -11.160859368087989 -7.488858971363512 5 0 0
406 82 1 0 -0.7182268287635534 -11.034055678629617 -7.635619391184506 5 0 0
408 82 3 0 -0.46805539728393164 -10.950282759611097 -7.289440080696452 4 0 0
407 82 3 0 -0.542030993254432 -11.359307505570538 -7.877780454173328 5 0 0
2691 797 4 0 -5.494201017959217 -10.717569811214956 -7.8922831716098 5 1 1
4379 1360 4 0 -5.1347061211646 -10.570925054884691 -7.788269615909643 4 1 1
4378 1360 2 0 -4.804220576188858 -10.49937423838591 -7.50090410037588 4 1 1
4380 1360 4 0 -4.449866004794532 -10.41819083616569 -7.191511600710874 4 1 1
409 82 3 0 -0.7604525366796846 -10.68281944274224 -7.874200925609328 5 0 0
574 115 3 0 -4.418491554635718 -9.511738589955796 -7.255779257131779 13 1 0
4440 1380 4 0 -0.45503958507381626 -9.283172712714924 -7.667597291276658 7 1 1
4438 1380 2 0 -0.614059156444057 -9.377270959625028 -7.264154239819765 7 1 1
382 77 3 0 -0.6220025294530576 -9.311162559500678 -8.046599937220897 5 0 0
3270 990 4 0 -1.1979962885701525 -8.81554998374932 -8.083766719107642 6 0 0
3268 990 2 0 -1.4497071106696957 -8.597350203149022 -7.770258391163541 6 0 0
3269 990 4 0 -1.6859997085424432 -8.378005047620057 -7.469800090959622 6 0 0
1757 486 4 0 -0.7572634951048833 -7.3451162060665816 -7.915172565734579 3 0 1
4048 1250 2 0 -0.49085193576183883 -7.550732657465217 -7.269302885354669 4 1 0
4049 1250 4 0 -0.8353635958095431 -7.381961190123883 -7.524316277156821 4 1 0
390 78 3 0 -7.006593340629676 -1.8582249562804662 -7.2235589648568554 11 0 0
1219 307 2 0 -5.956362174892012 -2.3573193564783192 -7.973279515297761 11 0 0
1220 307 4 0 -5.80862991421806 -2.563830542771946 -7.597204322538518 11 0 0
2457 719 4 0 -5.414753267363842 -2.547027560676721 -7.561776592694082 11 0 1
2455 719 2 0 -4.98688836162353 -2.4756346855034916 -7.459311838978974 11 0 1
2456 719 4 0 -4.555182585966462 -2.4077255823290145 -7.353584381336813 11 0 1
4473 1391 4 0 -4.179566835824614 -2.247685395568947 -7.316399660333913 11 0 1
4471 1391 2 0 -3.9898665975066443 -1.9575034133713451 -7.602348781637252 11 0 1
1311 337 4 0 -8.209702097593729 -1.1762072360994456 -7.995154607638909 11 0 1
2597 766 4 0 -8.084079621501541 -1.4804365137161657 -7.777007023530826 11 0 1
2596 766 2 0 -7.6638725172629005 -1.570433259845922 -7.651534405899321 11 0 1
2598 766 4 0 -7.220954264959745 -1.662781678413717 -7.513180585064773 11 0 1
387 78 3 0 -6.4845355809152965 -1.333154153515249 -7.3056186158833 11 0 0
2978 893 4 0 -6.11712473661661 -1.2217678626288606 -7.280144028302609 11 0 0
2977 893 2 0 -5.72265611955154 -1.0793272346402834 -7.46896562867709 11 0 0
2979 893 4 0 -5.352082720983682 -0.9397360591901798 -7.658238730880822 11 0 0
4472 1391 4 0 -3.8028284073973273 -1.6831674158823713 -7.876574965742863 11 0 1
187 38 3 0 -3.5317265124653705 -1.4082901649429669 -7.923892689755872 11 1 0
1425 375 4 0 -5.155446592217845 -0.601177690833266 -7.730519347381616 11 0 1
1423 375 2 0 -4.706127390583226 -0.6397175356999085 -7.689596411329675 11 0 1
188 38 3 0 -3.951538622751885 -0.8085981904770367 -7.903476646574337 11 1 0
1424 375 4 0 -4.250653866607682 -0.6881781448116495 -7.658592790189767 11 0 1
4632 1444 4 0 -3.077680280860914 -0.47071969332894703 -7.917049202806603 12 0 1
2079 593 4 0 -8.26551096444239 -10.77976230348571 -6.448346015502124 7 1 0
3258 986 4 0 -2.0414036578210837 -11.019696428714939 -6.744888542673054 4 0 0
3257 986 4 0 -1.289593716667401 -11.329856647044886 -7.1702618521645025 4 0 0
3256 986 2 0 -1.669950513559634 -11.174701619424965 -6.955125010343825 4 0 0
3023 908 4 0 -0.16522524344859768 -10.960441792744348 -7.000836477656207 4 0 0
2078 593 4 0 -7.462984192106073 -10.432310819839438 -6.390857500055242 8 1 0
2077 593 2 0 -7.856140849210751 -10.601799382105273 -6.421376169635353 7 1 0
4343 1348 4 0 -7.064850152076937 -10.477231115738205 -6.442554964304075 13 1 0
4342 1348 2 0 -6.610524443657898 -10.351384647252546 -6.41511637143707 12 1 0
4344 1348 4 0 -6.176736492432881 -10.225848468100185 -6.395211940335446 10 1 0
1922 541 4 0 -5.8664427528426675 -10.045302751426565 -6.5747982512517575 9 1 0
1921 541 2 0 -5.41551811398127 -9.93970835319494 -6.532549602228452 9 1 0
575 115 3 0 -4.238177460904275 -10.167907639838061 -6.963891400237951 14 1 0
1923 541 4 0 -4.9889870258016105 -9.842515088940534 -6.491321525938407 9 1 0
573 115 3 0 -4.639541436274356 -9.691253294961493 -6.571804877808323 10 1 0
572 115 3 0 -3.913954338125544 -9.548979716432168 -6.695624540166357 13 1 0
571 115 1 0 -4.302213485756185 -9.731068081336542 -6.869674076448279 13 1 0
4496 1399 4 0 -3.512639175397867 -9.615636525408684 -6.729629447627507 13 1 0
4495 1399 2 0 -3.1032941792753164 -9.41700378235502 -6.730632324621992 12 1 0
4497 1399 4 0 -2.687908203005593 -9.221839057268154 -6.736160257859936 12 1 0
1064 255 4 0 -2.3025258978200878 -9.10551052039312 -6.721732814677922 12 1 0
2293 665 2 0 -0.23648419553415856 -9.87489949048453 -6.351964046248732 7 1 1
4439 1380 4 0 -0.779996308050297 -9.469395283995594 -6.856200751755575 7 1 1
2294 665 4 0 -0.592029605138654 -9.730331847917004 -6.611204093187613 7 1 1
3883 1195 2 0 -4.497657656262547 -8.47419226131822 -6.432956686829623 8 1 0
3884 1195 4 0 -4.223239553190874 -8.246021659111891 -6.680104014550594 8 1 0
1063 255 2 0 -1.8950383480549764 -8.919858534002653 -6.623586070196958 11 1 0
1065 255 4 0 -1.4758760683052312 -8.732839105142144 -6.529811006610719 12 1 0
630 126 3 0 -1.150607042929554 -8.493118986729721 -6.47936132552871 4 1 0
1656 452 4 0 -0.07173539085488301 -8.125266593526419 -6.29165291754635 3 0 1
1823 508 4 0 -4.085337623657453 -8.00016112400825 -6.970580258258012 8 1 0
1822 508 2 0 -3.720126937594249 -7.744221012851715 -6.8880854476839035 7 1 0
4217 1306 4 0 -2.9615253282249103 -7.406803467386531 -6.869889945506027 7 1 0
1824 508 4 0 -3.353982856551534 -7.48632575095318 -6.806073373014504 7 1 0
4216 1306 2 0 -2.5257716946096664 -7.303640508028972 -6.947046188178021 7 1 0
4218 1306 4 0 -2.096122731093141 -7.2025108367335795 -7.022816624947323 6 1 0
3445 1049 2 0 -1.4629884421386734 -7.192173691835615 -6.717757433062048 4 0 1
3447 1049 4 0 -1.1089445980288115 -7.408355608051895 -6.55352056907955 4 0 1
629 126 3 0 -0.9648963293207 -7.77559338058961 -6.463100585128481 4 1 0
4050 1250 4 0 -0.14864606649415713 -7.711346060529353 -7.019300670983993 4 1 0
3446 1049 4 0 -1.8206956759174435 -6.968849531438524 -6.88632449296525 4 0 1
939 213 4 0 -9.049787656765204 -6.174161777272156 -6.306260209291118 5 0 0
937 213 2 0 -8.636488424649361 -5.976597088899956 -6.31568713309534 5 0 0
938 213 4 0 -8.228943496917479 -5.778486333988434 -6.329458095531338 5 0 0
825 175 4 0 -6.724827367370525 -6.043263237179773 -6.341628934622768 5 0 0
823 175 2 0 -6.278318891947385 -6.118409470962673 -6.300918563524073 5 0 0
3500 1067 4 0 -5.416426446138331 -6.153971131509818 -6.3415149209029105 6 0 1
3499 1067 2 0 -5.053709520260768 -5.920112354328474 -6.447803300875323 6 0 1
3501 1067 4 0 -4.685912119191012 -5.684479854425837 -6.56554662503769 6 0 1
1482 394 4 0 -4.531485163670546 -5.331331011578736 -6.470858175755681 5 0 1
1480 394 2 0 -4.281180731147945 -4.970139042452501 -6.414869900615254 5 0 1
1481 394 4 0 -4.037442648786841 -4.618914892177281 -6.365232685441459 5 0 1
3714 1138 4 0 -0.6955699585949127 -4.828021553356356 -6.797181756637649 5 0 0
3712 1138 2 0 -0.30046186669720854 -5.038069578296794 -6.832360391071811 5 0 0
4270 1324 2 0 -7.757484773591358 -0.9258118872498997 -6.576947949819127 11 0 0
4271 1324 4 0 -7.328809200516948 -1.0770112816975157 -6.630697480319315 11 0 0
389 78 3 0 -7.001515325547037 -1.266660243594437 -6.783200107992264 11 0 0
386 78 1 0 -6.745774269064035 -1.5597780484747936 -7.005475040896579 11 0 0
388 78 3 0 -6.477684959735737 -1.7920773849003222 -6.71157807303603 11 0 0
827 176 4 0 -6.295894670970536 -1.6677538913218797 -6.380343230788341 11 0 0
4272 1324 4 0 -8.188745421415597 -0.7781838275887161 -6.526112983116424 11 0 0
440 88 3 0 -8.300942007250736 -0.4566562556148561 -6.2938655233422 11 0 1
4168 1290 2 0 -11.346721199220475 -11.120475059720661 -5.585747594878115 11 1 0
4170 1290 4 0 -10.942749217358662 -11.177844594781552 -5.77844507597105 11 1 0
3464 1055 4 0 -10.636832532863547 -11.09589414360056 -6.010554478301013 11 0 0
3463 1055 2 0 -10.190520056978695 -11.060203821470514 -6.027460953596761 12 0 0
3465 1055 4 0 -9.75818705405192 -11.02311388663261 -6.041659705385569 13 0 0
1697 466 4 0 -9.386478529611562 -11.120660598722033 -5.932437441935181 11 1 0
1696 466 2 0 -8.984762649417068 -10.98401767548616 -6.075583239050953 12 1 0
1698 466 4 0 -8.585649874025268 -10.843463207738695 -6.218680249694518 12 1 0
4188 1296 4 0 -4.824583237415516 -9.017819465216297 -5.912705676779609 13 1 0
4186 1296 2 0 -4.77261615168033 -9.218337465140797 -5.501559854041976 13 1 0
3885 1195 4 0 -4.7738564206448215 -8.705029376201438 -6.1795650847372245 8 1 0
626 126 1 0 -0.9014229480489213 -8.17667837334201 -6.258131790719918 4 1 0
628 126 3 0 -1.0263290000370056 -8.164487515923296 -5.833216519866213 4 1 0
627 126 3 0 -0.4561951900692929 -8.284524222333392 -6.279298138483867 4 1 0
776 159 4 0 -11.248646766886583 -7.658901167929266 -5.399180403787789 5 0 0
3116 939 4 0 -10.887304753657016 -7.6745234856043645 -5.566392780819643 5 0 0
3115 939 2 0 -10.508295508892047 -7.513950201897826 -5.773383960670383 5 0 0
3117 939 4 0 -10.135243327919538 -7.353151080139442 -5.97962655209765 5 0 0
1293 331 4 0 -9.884469623779804 -7.028744911475012 -5.979638993392086 5 0 0
1291 331 2 0 -9.583851581617854 -6.670402347896986 -6.008096835621716 5 0 0
1292 331 4 0 -9.300305562529388 -6.326401934214113 -6.034626575937771 5 0 0
1193 298 4 0 -7.832958166784218 -5.775078956058657 -6.2868962639578125 5 0 0
1192 298 2 0 -7.386044793927963 -5.80038771953662 -6.177686938963286 5 0 0
1194 298 4 0 -6.951935841471056 -5.8355966542335596 -6.073694027356567 5 0 0
824 175 4 0 -5.823774551867461 -6.197961988188598 -6.269297774000139 5 0 0
3048 916 4 0 -1.5388945521954458 -1.9673974551375029 -5.769303668206023 10 0 0
826 176 2 0 -5.962444764563443 -1.539363720694361 -6.073296522260444 11 0 0
828 176 4 0 -5.6319924997551505 -1.4177714898312956 -5.779025405549791 11 0 0
1104 268 4 0 -5.337576867654887 -1.1565026457461673 -5.6910318139231615 11 0 0
3640 1114 2 0 -3.7334532906337863 -1.6624177680301315 -5.674525739667288 10 0 1
3642 1114 4 0 -4.102364887108327 -1.6973193671375224 -5.422123534198897 10 0 1
3641 1114 4 0 -3.3568371530421963 -1.6260330104651786 -5.922581843897432 10 0 1
1597 433 2 0 -10.794808516781835 -0.39107513832997043 -5.628933302763246 9 -1 0
1598 433 4 0 -11.221501360376951 -0.4540001656786554 -5.442535738886468 9 -1 0
1599 433 4 0 -10.375822748633118 -0.32358514165464847 -5.811264361669752 9 -1 0
1262 321 4 0 -9.952770218023725 -0.3754319070254013 -5.850625101766186 9 0 0
1261 321 2 0 -9.537648906850547 -0.18130106691601888 -5.908308856283082 9 0 0
436 88 1 0 -8.31261988135126 -0.0964367972068434 -6.05128160554818 11 0 1
439 88 3 0 -8.138390747663902 -0.18653146362667883 -5.628113551883779 11 0 1
4016 1239 4 0 -7.783867031626761 -0.04630001796933847 -5.527349272115631 11 0 0
1102 268 2 0 -5.250897718457885 -0.6970594622212953 -5.6242288647145875 11 0 0
1103 268 4 0 -5.172163352792504 -0.25483466325486326 -5.564476115673541 11 0 0
4187 1296 4 0 -4.712820382097128 -9.41000573362717 -5.100639189776477 13 1 0
4454 1385 4 0 -1.5731332167849246 -9.104063183517665 -4.863463458342447 4 1 1
3108 936 4 0 -1.1808250635829012 -9.110048536235066 -4.930198064148725 4 0 0
4453 1385 2 0 -1.904905639244074 -8.820122155752829 -4.863666267220643 4 1 1
4455 1385 4 0 -2.2562173985905805 -8.516128050045868 -4.857073025109287 4 1 1
3106 936 2 0 -0.7583799283697292 -8.927672440823121 -4.870306432030789 4 0 0
3107 936 4 0 -0.36382257159919007 -8.764226535516483 -4.81930184529614 4 0 0
2936 879 4 0 -0.03434096081859117 -8.801808857916985 -5.033384618819735 4 0 0
3650 1117 4 0 -11.420703209458097 -5.832846036530149 -5.085815211597744 6 0 1
3649 1117 2 0 -10.959581539681794 -5.776064340903169 -4.943451838877922 6 0 1
3651 1117 4 0 -10.509507263028617 -5.719322371016991 -4.797378829201489 6 0 1
839 180 4 0 -10.119880149193184 -5.786771453117315 -4.702546547038578 5 0 0
838 180 2 0 -9.69007229019057 -5.800023058609374 -4.627302574372913 5 0 0
840 180 4 0 -9.237946319153519 -5.815094571481086 -4.554170639664097 5 0 0
4181 1294 4 0 -6.481225658727108 -2.0708693087756416 -4.722024109101687 10 0 0
4180 1294 2 0 -6.064957097918427 -1.897352651525857 -4.789478788868794 10 0 0
4176 1292 4 0 -4.442334186975805 -1.8581289260166738 -5.277665947514832 10 0 0
3047 916 4 0 -1.7914954270056 -1.8993395226396483 -4.937777701335792 10 0 0
3046 916 2 0 -1.6648088832903394 -1.9293649624568765 -5.3644575167315285 10 0 0
2965 889 2 0 -10.035477807602497 -1.3915268928225561 -4.642835371565285 10 0 0
2966 889 4 0 -10.448652923643621 -1.5406410583897738 -4.55836440964332 10 0 0
2967 889 4 0 -9.611917199412318 -1.2396916562773548 -4.730188445199462 10 0 0
3911 1204 4 0 -9.230521824632593 -1.1020936083907582 -4.692067618422006 10 0 0
3910 1204 2 0 -8.822192642027762 -0.9777039470449527 -4.890916931304863 10 0 0
4182 1294 4 0 -5.646989565119584 -1.7248726373251895 -4.85656021879495 10 0 0
4175 1292 4 0 -5.260494122589613 -1.6930885225579217 -4.953023686214619 10 0 0
4174 1292 2 0 -4.8490909744495445 -1.778779869963616 -5.1172301812795995 10 0 0