LAMMPS data file via write_data, version 19 Nov 2024, timestep = 10000000, units = lj

4800 atoms
4 atom types
3300 bonds
1 bond types
2250 angles
2 angle types

-11.677732 11.677732 xlo xhi
-11.677732 11.677732 ylo yhi
-11.677732 11.677732 zlo zhi

Masses

1 1
2 1
3 0.1
4 0.1

Bond Coeffs # harmonic/omp

1 100 0.45

Angle Coeffs # harmonic/omp

1 100 180
2 100 109.471

Atoms # full

2438 713 4 0 -10.12218635712477 -10.43184111808023 -10.292777993475427 0 1 1
2605 769 2 0 -9.51970622187228 -10.578483594327022 -10.792327584958148 0 1 1
2607 769 4 0 -9.779226228794546 -10.456076310218345 -10.470683006654367 0 1 1
2606 769 4 0 -9.237080686174682 -10.716469699752365 -11.158230748855726 0 1 1
2842 848 2 0 -1.6376803617899185 -11.638414766131678 -11.286483468493817 1 0 1
2843 848 4 0 -1.1975960145250075 -11.571890452794774 -11.3367739037426 1 0 1
1705 469 2 0 -0.6425380952688661 -11.145236848018373 -11.50825324075159 -1 0 1
1707 469 4 0 -1.0323860116358996 -11.223187424932293 -11.2735066956871 -1 0 1
3459 1053 4 0 -11.526265122894806 -8.878332428422308 -11.642638841506036 1 0 1
1303 335 2 0 -0.6248809287786569 -8.650846233964833 -11.464179566779661 0 0 1
1305 335 4 0 -0.2440107279523655 -8.498964598001544 -11.244050901920856 0 0 1
3283 995 2 0 -7.2122869462649 -6.937289848316189 -10.92733045895216 1 0 0
3284 995 4 0 -7.178340166740983 -6.895283697017578 -11.376515299000465 1 0 0
3174 958 4 0 -3.0853442537611855 -0.03968308079847275 -1.4524375271633811 0 0 0
3060 920 4 0 -7.49353307712679 -7.264356448207232 -10.311069589478326 1 0 0
3058 920 2 0 -7.7984293866748 -7.243748603298639 -10.009870299773041 1 0 0
3285 995 4 0 -7.255052689957552 -6.972470263233907 -10.469941104254033 1 0 0
84 17 3 0 -10.34351824259242 -5.415118104078293 -10.199661092415694 0 0 0
2942 881 4 0 -10.289098406419557 -5.058992309330953 -10.397240517445823 1 0 0
2941 881 2 0 -10.191947799551217 -5.032532308400561 -10.800864706136505 1 0 0
1725 475 4 0 -10.640160392173298 -0.014956743798900418 -0.11678620838613597 0 0 0
3115 939 2 0 -2.553499113262716 -5.969231176468547 -10.38455503893606 0 0 0
3117 939 4 0 -2.361351200541825 -5.743615254656009 -10.724877272391316 0 0 0
1293 331 4 0 -2.324560258927702 -5.4021636379657645 -10.976306468176018 0 0 0
3116 939 4 0 -2.747027179604756 -6.187433363383998 -10.048575996514508 0 0 0
2943 881 4 0 -10.087763908347968 -5.006804284641143 -11.219280287515879 1 0 0
3432 1044 4 0 -9.853078400557521 -4.819161647121758 -11.487338071847137 1 0 1
3430 1044 2 0 -9.634242592858298 -4.424578127778629 -11.523660081252418 1 0 1
1344 348 4 0 -9.332920019114932 -3.779947175709262 -11.170975618485576 0 0 1
3431 1044 4 0 -9.398478383462196 -3.992493781078591 -11.550995779479512 1 0 1
1291 331 2 0 -2.349428473895566 -4.9503841771297825 -10.91203142523603 0 0 0
1292 331 4 0 -2.366810907623444 -4.517940561829628 -10.846887782810144 0 0 0
939 213 4 0 -2.2999199878471486 -4.1251075372952615 -10.794686974253572 0 0 0
937 213 2 0 -2.229812865549323 -3.8014008771413392 -10.48434830075818 0 0 0
938 213 4 0 -2.16112311220697 -3.5042663344748473 -10.19578555890813 0 0 0
1342 348 2 0 -9.314466498632259 -3.3203592684251193 -11.249121339747994 0 0 1
2627 776 4 0 -9.014694736795185 -2.151810504016545 -9.861592608043109 0 0 1
1343 348 4 0 -9.311964020791095 -2.84593551759985 -11.327741333062933 0 0 1
3394 1032 2 0 -3.935332341470073 -2.365705134352419 -11.370697374301987 0 0 1
3396 1032 4 0 -3.9419822442903283 -2.4224314509904192 -10.93007593173802 0 0 1
1809 503 4 0 -3.7817312743999687 -2.6136224380186346 -10.591780099533793 0 1 0
1807 503 2 0 -3.894555525422345 -2.3399887075132413 -10.234808883567618 0 1 0
1631 444 4 0 -9.431242966603632 -0.22110873954595808 -11.312531650827975 0 0 1
1630 444 2 0 -9.44330083543593 -0.5824629216063029 -11.508252964752035 0 0 1
1269 323 4 0 -7.496445810995992 -1.441598031845609 -11.508138361601754 0 0 1
2837 846 4 0 -7.340610573765313 -0.8573786831792585 -10.406437610509592 0 0 0
2836 846 2 0 -7.360388922541811 -0.9758329378335633 -10.857258920440966 0 0 0
2838 846 4 0 -7.391480632569092 -1.1000698782533793 -11.30280029100428 0 0 0
2653 785 2 0 -5.61970972663576 -0.3272935428189234 -10.652720785368732 0 0 1
2655 785 4 0 -5.788143812530263 -0.589997809007359 -10.329263216961223 0 0 1
1122 274 4 0 -5.08497600000604 -0.0783461415519366 -11.122343912952056 0 -1 0
2654 785 4 0 -5.465708742702166 -0.07227822958253552 -10.96067022437472 0 0 1
1120 274 2 0 -4.648298144900961 -0.15637303655891163 -11.184364676183282 0 -1 0
2641 781 2 0 -3.476433700545441 -0.3669822434014066 -11.163428635842847 0 0 1
2643 781 4 0 -3.827978738074354 -0.106881408932852 -11.29668141597233 0 0 1
2642 781 4 0 -3.148827795020926 -0.612241583881819 -11.038644455273769 0 0 1
2369 690 4 0 -2.9593945683931997 -0.5029956345662686 -10.71795310117092 0 0 0
2368 690 2 0 -2.8446096225100397 -0.5430579556494424 -10.284262288156732 0 0 0
2370 690 4 0 -2.7268318810110057 -0.5884322018082905 -9.829977477889027 0 0 0
1437 379 4 0 -0.7848757450084136 -1.4669252935397024 -11.488978704396047 0 0 1
1125 275 4 0 -2.3559619050374696 -11.583115605006162 -10.920223213226455 0 0 0
4631 1444 4 0 -0.5236665087855173 -1.6798976934519718 -11.283763341832708 1 0 1
4630 1444 2 0 -0.10931828447085068 -1.5701221784660266 -11.390894124939914 1 0 1
1699 467 2 0 -11.628598628663383 -11.547957415396034 -9.88820227895921 0 0 1
2437 713 2 0 -10.141755488581081 -10.519343128099743 -9.83929314696619 0 1 1
2040 580 4 0 -9.903096385355163 -10.886318477021321 -9.266502967246465 0 1 0
2439 713 4 0 -10.165306264469807 -10.60518004026793 -9.406929882435877 0 1 1
3817 1173 2 0 -10.49132359153848 -11.571550044845722 -11.573194709700276 1 1 0
2038 580 2 0 -9.906836300584054 -11.130744125914994 -8.89995347600741 0 1 0
2039 580 4 0 -9.896371805203348 -11.37961043260243 -8.530239993390921 0 1 0
1108 270 2 0 -3.1708059610181603 -8.521255084915957 -8.266918623813188 0 0 0
2132 611 4 0 -9.588292873232753 -6.823823786408266 -9.304089698945885 0 0 0
2938 880 2 0 -9.163984424256153 -7.18678083452993 -8.880840268638751 1 0 0
2940 880 4 0 -8.76810237700789 -7.208545950347535 -8.709132735677327 1 0 0
2939 880 4 0 -9.5649432277011 -7.161931071229661 -9.059791999620247 1 0 0
39 8 3 0 -8.37682756885057 -7.210273633158353 -8.75888855585192 0 0 0
36 8 1 0 -8.082100664944464 -6.9259767342081 -8.973852006190151 0 0 0
37 8 3 0 -8.185788185182718 -6.9226454019595005 -9.426948697753247 0 0 0
40 8 3 0 -7.653126986396867 -7.070294938953445 -8.912515488163072 0 0 0
788 163 4 0 -7.377490893936286 -7.354882548993522 -8.952104208831807 0 0 0
3059 920 4 0 -8.118381715273102 -7.230843668871441 -9.675740101450122 1 0 0
787 163 2 0 -7.316176395005845 -7.63510971705108 -8.609934230672872 0 0 0
789 163 4 0 -7.261701700654557 -7.903397631266684 -8.303579184029498 0 0 0
3032 911 4 0 -3.1715969618815207 -7.118290211675082 -8.937069286347766 0 0 0
3031 911 2 0 -3.3261405361047847 -7.527746231339891 -8.732558502181158 0 0 0
777 159 4 0 -3.0604324557864104 -6.758860482424017 -9.1224781052773 0 0 0
3033 911 4 0 -3.4761613583045126 -7.920311888643008 -8.541638057639153 0 0 0
1110 270 4 0 -3.548256621922435 -8.313035499297303 -8.418173457274198 0 0 0
2131 611 2 0 -9.907402264580652 -6.55409704932705 -9.447941126788393 0 0 0
83 17 3 0 -10.435007879028758 -5.959295464679541 -9.709043650871893 0 0 0
82 17 3 0 -10.871558881206349 -5.323169233388211 -9.674985037489254 0 0 0
1256 319 4 0 -11.28605913069771 -5.404056509249659 -9.68491875691449 0 0 1
81 17 1 0 -10.432403081028182 -5.500052157235005 -9.785393319863038 0 0 0
2133 611 4 0 -10.223798172357203 -6.280842024922753 -9.58566957374589 0 0 0
85 17 3 0 -10.128277788707567 -5.30448758224408 -9.535516452589446 0 0 0
3690 1130 4 0 -10.3488773673656 -5.24711989335381 -9.205919084514505 1 0 1
3688 1130 2 0 -10.37434001399477 -5.120359312354661 -8.762335782627817 1 0 1
1255 319 2 0 -11.646510274215487 -5.618662258036702 -9.532137083329935 0 0 1
1181 294 4 0 -8.173381331038664 -6.2823287590891175 -8.499896534837735 0 0 0
38 8 3 0 -8.118002391685094 -6.522733077449342 -8.805111827994091 0 0 0
775 159 2 0 -2.8329131699680805 -6.628160650919529 -9.469481591190014 0 0 0
776 159 4 0 -2.6029723157339384 -6.500950440717318 -9.819581399811435 0 0 0
1056 252 4 0 -0.07928571324686316 -5.087322773931094 -9.234561738654092 0 0 0
56 12 1 0 -0.26656273874936603 -5.046652392845908 -8.414737702035566 0 0 0
59 12 3 0 -0.604079499699155 -5.291831435380567 -8.285099255589317 0 0 0
1193 298 4 0 -1.936322121774095 -3.4777582419287714 -9.867166422099041 0 0 0
57 12 3 0 -0.24801180996177852 -5.039228641937648 -8.874854523446684 0 0 0
2628 776 4 0 -9.416258368523998 -1.4490573206383521 -9.38452289851014 0 0 1
2626 776 2 0 -9.21493004254872 -1.8058968354095906 -9.62926582106657 0 0 1
1808 503 4 0 -4.003759105588701 -2.079234034337299 -9.8979403615365 0 1 0
1703 468 4 0 -3.7959395889870566 -1.7293240456421841 -9.886688792807426 0 0 0
1192 298 2 0 -1.9559174675683237 -3.012400124549758 -9.719299217641174 0 0 0
825 175 4 0 -1.9768464892643585 -2.5241183628594452 -9.169486602209867 0 0 0
824 175 4 0 -1.7153227950056507 -2.5326165259478457 -8.286196859696616 0 0 0
823 175 2 0 -1.8424681038298254 -2.5294947053073833 -8.728668625195535 0 0 0
1194 298 4 0 -1.9846497586830039 -2.587338783539797 -9.58512374253371 0 0 0
1153 285 2 0 -8.365171221116416 -0.9294166720481508 -8.590764493850726 0 0 0
1236 312 4 0 -7.5504923119179725 -0.8479222582345184 -10.059832737609382 0 0 0
1235 312 4 0 -8.015634439217733 -0.8896599142324041 -9.267874368704035 0 0 0
1154 285 4 0 -8.35266547660266 -1.0097165298123099 -9.04955650959729 0 0 0
1234 312 2 0 -7.779654176546741 -0.8720234877860753 -9.663106038886445 0 0 0
954 218 4 0 -5.1705711621786286 -1.094907349955668 -9.164805573369364 0 -1 0
4783 1495 2 0 -5.729189595195763 -0.7962252002924425 -9.646114923580487 1 0 1
4785 1495 4 0 -5.9251193807251665 -0.5701597021502719 -9.942843223453279 1 0 1
4784 1495 4 0 -5.528037340159839 -1.0289853734422305 -9.332022687878194 1 0 1
953 218 4 0 -4.308503977452559 -1.3744065176215483 -9.031397159113038 0 -1 0
952 218 2 0 -4.738584002760008 -1.2296891204400495 -9.096335926866363 0 -1 0
1702 468 2 0 -3.780925639276754 -1.3499185235125941 -9.647781452392223 0 0 0
1704 468 4 0 -3.762117947329162 -0.9828730161625695 -9.414991279631082 0 0 0
1400 367 4 0 -3.714036154222563 -0.6068235872854694 -9.291350090547466 0 0 1
1399 367 2 0 -4.017926196021885 -0.42983304809470174 -8.965270984165933 0 0 1
1401 367 4 0 -4.294200873210047 -0.2810009600359898 -8.659619595508394 0 0 1
1484 395 4 0 -4.707999471029795 -0.3024582967781212 -8.581730054570551 0 0 1
2265 655 4 0 -2.430022599647423 -0.6606756619698713 -9.583614777887808 0 0 0
2263 655 2 0 -2.1972890148144866 -0.30425672531092335 -9.429888786223886 0 0 0
1896 532 4 0 -11.60015577922441 -8.235883154142108 -2.537455866276033 0 1 0
2078 593 4 0 -9.931786995739085 -11.606074798643174 -8.226339035130515 0 1 0
45 9 3 0 -11.469711274868343 -2.742462944487964 -3.655854145152754 0 0 0
1535 412 4 0 -1.9258615345537022 -10.549650333631414 -7.266483865345808 0 0 1
1534 412 2 0 -1.7885438631945856 -10.837402993877511 -6.9898988922553675 0 0 1
897 199 4 0 -1.9209158574527676 -10.267512633739631 -7.573871186174992 0 0 0
1109 270 4 0 -2.7850321709793207 -8.724780793812744 -8.113613961477226 0 0 0
895 199 2 0 -1.848312557918196 -9.794831199869693 -7.638164492198611 0 0 0
34 7 3 0 -2.5676901673830077 -8.660865871095524 -7.7681305894676695 0 0 0
31 7 1 0 -2.1767874496619384 -8.7658204554655 -7.5840467674528735 0 0 0
35 7 3 0 -2.167378324974492 -8.612120348318548 -7.13295801772093 0 0 0
32 7 3 0 -2.1206063577960337 -9.209565721628383 -7.5917110554159155 0 0 0
875 192 4 0 -2.004189100060117 -8.266260962520464 -7.065119133148411 0 0 0
33 7 3 0 -1.8562155915905294 -8.575385980802503 -7.795993985944769 0 0 0
896 199 4 0 -1.777515876247179 -9.339003653877922 -7.697047599393968 0 0 0
2858 853 4 0 -0.03956428662360567 -9.2090652523674 -6.781053790501756 0 0 0
2857 853 2 0 -0.1864335849203584 -8.848265521807727 -6.91027213757027 0 0 0
2859 853 4 0 -0.3589645590325922 -8.430324567236434 -7.057940555142879 0 0 0
2793 831 4 0 -1.6358532795803096 -8.322396295895143 -7.985566609860513 0 0 0
1968 556 4 0 -11.160933211894498 -7.672912258307292 -6.712703167505721 0 0 0
874 192 2 0 -1.624510324387547 -8.17765860908159 -6.839056592294265 0 0 0
2791 831 2 0 -1.1843598439533827 -8.156520434265193 -7.951501954177452 0 0 0
46 10 1 0 -0.13060016068847236 -7.837359893862271 -7.423069993162569 0 0 0
2792 831 4 0 -0.7643069807659442 -7.998960337894216 -7.911765644346105 0 0 0
50 10 3 0 -0.48236863909470956 -7.828199263187179 -7.66738373878208 0 0 0
49 10 3 0 -0.022724383463105364 -7.431189331166744 -7.310840487442982 0 0 0
48 10 3 0 -0.20787272524756384 -8.068986612386386 -7.0626025029199395 0 0 0
2152 618 2 0 -10.562860192148207 -4.993771373007089 -7.630541719746337 0 0 0
2154 618 4 0 -10.31198287118903 -4.847489381043052 -7.978021070624699 0 0 0
1196 299 4 0 -11.057289825802872 -4.948724547239714 -7.027958308416517 0 0 0
1939 547 2 0 -8.501683631429842 -6.6127237617696855 -7.0505592607121566 0 1 0
1180 294 2 0 -8.417826586122997 -6.202324206905097 -8.125344291751013 0 0 0
1941 547 4 0 -8.629054738711057 -6.331572595033204 -7.404913164476821 0 1 0
1182 294 4 0 -8.66691261132084 -6.122232186635905 -7.736245369476262 0 0 0
1068 256 4 0 -8.393396425922925 -5.193090603190255 -7.218201312615374 0 0 0
2850 850 4 0 -7.995645621908847 -5.25941532026943 -7.257650079602457 1 0 0
2848 850 2 0 -7.658482436577419 -5.537057227781995 -7.214546101475781 1 0 0
911 204 4 0 -6.918059950397654 -5.823906207305443 -7.279758904662929 0 0 0
2849 850 4 0 -7.303944863688434 -5.821656780966004 -7.171772467786823 1 0 0
910 204 2 0 -6.553224745939105 -5.592626523685628 -7.129750176012085 0 0 0
912 204 4 0 -6.199269846492108 -5.358907813474512 -6.965565925145672 0 0 0
1014 238 4 0 -6.057352288592916 -5.089639665767668 -6.679319049417639 0 0 0
1319 340 4 0 -1.396339827719835 -5.1018795761132925 -7.124104780113728 0 0 1
3114 938 4 0 -1.375943472162427 -5.223507042280061 -7.510475467387385 0 0 0
3113 938 4 0 -0.8850846222126997 -5.529517824744448 -8.187109384091446 0 0 0
3112 938 2 0 -1.133690793788565 -5.372153657604145 -7.839413573439465 0 0 0
2153 618 4 0 -10.816515521321561 -5.14816672410279 -7.278279733131726 0 0 0
3689 1130 4 0 -10.396092158996323 -4.998914600095661 -8.34441322479417 1 0 1
2337 679 4 0 -10.164530116988976 -3.4236436307007594 -7.222249974778207 0 0 1
1195 299 2 0 -11.292205720511687 -4.602117495846094 -6.81799072586555 0 0 0
1066 256 2 0 -8.630808759133826 -4.850874038758672 -7.321962559283506 0 0 0
2738 813 4 0 -9.875070440483416 -3.6897908366569006 -7.165883392941256 0 0 0
2737 813 2 0 -9.519549656554757 -3.908230223257705 -7.304125461480542 0 0 0
1067 256 4 0 -8.892726278981826 -4.473326249666083 -7.4365279056596885 0 0 0
2739 813 4 0 -9.149750379133023 -4.146020240506395 -7.447527033486225 0 0 0
1012 238 2 0 -5.921962173232043 -4.706376728788357 -6.873330230449694 0 0 0
1013 238 4 0 -5.7871255548667415 -4.331352782017919 -7.06702778584881 0 0 0
882 194 4 0 -5.4352532131560585 -4.420127691158786 -7.2688202479569615 0 0 0
880 194 2 0 -5.109904594046006 -4.175323611825525 -7.503687436317162 0 0 0
556 112 1 0 -4.093329879219068 -3.75011135372095 -7.529285848924314 0 1 0
560 112 3 0 -4.39927796380306 -4.031134491099201 -7.708341844384866 0 1 0
881 194 4 0 -4.782128358581201 -3.9172892148946743 -7.737293075685875 0 0 0
559 112 3 0 -4.230295432578693 -3.6332316199394357 -7.105155561836504 0 1 0
558 112 3 0 -3.687344204650413 -3.9603430810399862 -7.516496652200623 0 1 0
1139 280 4 0 -3.937319147198049 -3.802131063332681 -6.88708115076047 0 0 0
557 112 3 0 -4.066647443628225 -3.3871792029952457 -7.765312169777944 0 1 0
1481 394 4 0 -3.4827677793857155 -3.7166707254228624 -7.805933680963283 0 0 1
1482 394 4 0 -2.766103537870116 -4.106221308053052 -8.2162476951228 0 0 1
1480 394 2 0 -3.116704055755044 -3.9207080737392332 -8.00742849499823 0 0 1
1320 340 4 0 -2.013639871458847 -4.4559671056828245 -7.02833004608674 0 0 1
1672 458 2 0 -1.8449720160507257 -3.6661794112476223 -7.046113563604411 0 0 1
1673 458 4 0 -1.866965036492046 -4.087927569271486 -6.963323109773696 0 0 1
1318 340 2 0 -1.7110951841402662 -4.770697789133206 -7.0772643606085 0 0 1
58 12 3 0 -0.33009189941208905 -4.614691384262674 -8.259512899015716 0 0 0
1790 497 4 0 -0.8763482598686515 -3.7547306142804513 -7.21247523682033 0 1 0
1202 301 4 0 -0.522069612159583 -4.609323736940541 -7.89228126087288 0 0 0
1203 301 4 0 -0.5504058447794747 -3.8249028166817896 -7.4533496074892005 0 0 0
1201 301 2 0 -0.5365864957122369 -4.226996888739185 -7.68050031845552 0 0 0
1789 497 2 0 -0.7846776441668168 -3.572731302117301 -6.791257744968006 0 1 0
3845 1182 4 0 -10.374247653583973 -2.162637182838391 -7.327752506428269 1 0 0
2987 896 4 0 -11.077514288541526 -3.1457384701576774 -6.466325438263009 1 0 0
3844 1182 2 0 -10.170763326784716 -1.9163662844580627 -7.6328429573231 1 0 0
2336 679 4 0 -10.387901935608616 -2.5673594672616438 -7.296441992317845 0 0 1
2335 679 2 0 -10.275786800858292 -2.9951448110325845 -7.257336643970026 0 0 1
845 182 4 0 -3.8460744535750373 -3.0818594292935586 -7.885577374590987 0 0 0
844 182 2 0 -3.8396922924529497 -2.626826616878883 -7.833366167620533 0 0 0
846 182 4 0 -3.8396086602471473 -2.1882279007804084 -7.782805830995335 0 0 0
1179 293 4 0 -3.96857994079559 -1.8153545931719726 -7.680579543892089 0 0 0
1177 293 2 0 -4.0278699094830825 -1.642834917731715 -7.285634612882396 0 0 0
3500 1067 4 0 -2.0244836922136336 -2.5585165229156406 -8.06478447053771 1 0 1
3499 1067 2 0 -1.9987763369896356 -2.709666416768817 -7.656371924877127 1 0 1
3501 1067 4 0 -1.97068477656457 -2.862977829692341 -7.242441343799994 1 0 1
1674 458 4 0 -1.8237366415279443 -3.2049148584483644 -7.13499098825992 0 0 1
1155 285 4 0 -8.36842314765854 -0.8472919949717514 -8.167331567704519 0 0 0
3846 1182 4 0 -9.959806708308452 -1.6704581399793312 -7.949471122477189 1 0 0
872 191 4 0 -8.45856391014833 -0.5165823646953381 -7.9573837579700735 0 0 0
871 191 2 0 -8.439179244425585 -0.3836450495247009 -7.546317250840151 0 0 0
3105 935 4 0 -8.494110077512133 -0.35056331461010887 -6.729957813033808 0 0 0
873 191 4 0 -8.415268338087417 -0.24812206998734396 -7.112654202185996 0 0 0
2148 616 4 0 -7.41922994138626 -0.3321313219216233 -7.200311503248011 0 0 0
2146 616 2 0 -7.021346092434497 -0.39230985083397635 -7.415436908170584 0 0 0
2147 616 4 0 -6.615893160874556 -0.4501301225727207 -7.650843531208276 0 0 0
2053 585 2 0 -5.813236878465811 -0.6530607852547596 -7.752641772084969 0 0 0
2054 585 4 0 -6.254291329322703 -0.6209283531758977 -7.7006571728551005 0 0 0
2055 585 4 0 -5.391839582536265 -0.6763788577030974 -7.796898465519981 0 0 0
1485 395 4 0 -4.995625495886475 -0.6026654293201704 -7.799260161444301 0 0 1
1483 395 2 0 -4.846196828746285 -0.45298701505230726 -8.188871553764347 0 0 1
1178 293 4 0 -4.113282254315507 -1.4646509074905165 -6.882329865771027 0 0 0
1009 237 2 0 -11.650044803858211 -10.27030661917312 -5.7513592513975995 0 0 0
1011 237 4 0 -11.285652917053637 -10.054245916041495 -5.621627476047975 0 0 0
1049 250 4 0 -4.248615226004351 -9.862142604231677 -5.904233028986593 0 0 0
80 16 3 0 -3.518334061923202 -10.140913992626414 -5.138698354181336 0 0 0
1536 412 4 0 -1.6475431903589932 -11.13316748011084 -6.705725681627556 0 0 1
3776 1159 4 0 -0.2170056451256397 -10.705215662207209 -5.242955479658512 0 0 1
1151 284 4 0 -1.310480168366231 -11.310472639717636 -6.516407698774559 0 0 0
472 95 3 0 -0.22064657045428196 -11.171776151213455 -6.182521372832953 0 0 1
1150 284 2 0 -0.874154127372143 -11.409181576153214 -6.365426276523364 0 0 0
1152 284 4 0 -0.45292044384621166 -11.511927364617351 -6.211480791747706 0 0 0
474 95 3 0 -0.28875154212001836 -10.688094672699188 -5.6404404352955035 0 0 1
4596 1432 4 0 -11.28282690261825 -9.80682238728083 -5.303840066906355 1 1 1
4594 1432 2 0 -11.10759893681848 -9.393938567693528 -5.17368991593907 1 1 1
4595 1432 4 0 -10.942955173722323 -8.99401783235074 -5.049046921778252 1 1 1
1868 523 4 0 -5.615911502416378 -8.631392088545258 -5.606410762352918 0 1 0
1867 523 2 0 -5.426283756987175 -9.008323841973134 -5.620029746145456 0 1 0
1869 523 4 0 -5.218177503404832 -9.422240705557142 -5.629491378456056 0 1 0
2285 662 4 0 -5.610742752037299 -8.252861048547949 -5.484954271885867 0 1 0
1050 250 4 0 -5.1048725794710945 -9.571417590903716 -5.982420067351545 0 0 0
78 16 3 0 -3.861722125660535 -9.910112650746306 -5.793241174058496 0 0 0
1048 250 2 0 -4.669415836166217 -9.721229043113686 -5.945466633366068 0 0 0
76 16 1 0 -3.708840314752921 -9.773316837685062 -5.350579147085376 0 0 0
79 16 3 0 -3.4114483254750634 -9.449455236281674 -5.381831247518115 0 0 0
2307 669 4 0 -3.068677406646428 -9.275992552933761 -5.363064313909286 0 1 1
2305 669 2 0 -2.8779618343819835 -8.894984335731344 -5.4065580981873 0 1 1
976 226 2 0 -1.9108520887412561 -8.286979410405714 -5.439529542562809 0 0 0
2306 669 4 0 -2.6686588643466176 -8.479749900619893 -5.455088112729632 0 1 1
977 226 4 0 -2.3064524580836174 -8.420353737535601 -5.308364376488221 0 0 0
1070 257 4 0 -10.203658035765478 -8.046534092436524 -5.944444755422532 0 0 0
1069 257 2 0 -10.571148332463805 -7.833956688021513 -6.170404065278922 0 0 0
1071 257 4 0 -10.931524253430267 -7.610980109593036 -6.391163805050133 0 0 0
1966 556 2 0 -11.45837379200967 -7.343535902345494 -6.601513717700599 0 0 0
1602 434 4 0 -10.004792211560162 -7.876753103701367 -5.645925901086887 0 0 0
1940 547 4 0 -8.385758562372432 -6.883490131627365 -6.70966483727352 0 1 0
1600 434 2 0 -9.995218534881642 -8.12926312787393 -5.249754495046938 0 0 0
3234 978 4 0 -7.286316141652872 -7.1156062755111 -6.091579205770123 1 0 0
3232 978 2 0 -7.679308809481689 -7.012710509997405 -6.321929413632108 1 0 0
3797 1166 4 0 -7.247168814022343 -7.116159011249457 -5.699284549975116 1 0 0
3233 978 4 0 -8.038928950320281 -6.918789768088109 -6.53072972645138 1 0 0
3796 1166 2 0 -7.378688105203731 -7.154099401748397 -5.258553546471623 1 0 0
2284 662 2 0 -5.40812196182821 -7.944089192326754 -5.281688059615392 0 1 0
2286 662 4 0 -5.1946989254660325 -7.609708419736091 -5.073628644051698 0 1 0
3195 965 4 0 -3.820858866820532 -7.169163119763152 -5.41319480682397 0 0 0
972 224 4 0 -4.941107496212646 -7.361576938767104 -4.842573909590823 0 0 0
970 224 2 0 -4.5272891482738915 -7.275636754744792 -5.0051876915729 0 0 0
971 224 4 0 -4.124139421474428 -7.189096939934643 -5.160500097251516 0 0 0
3193 965 2 0 -3.4373772766089052 -7.000680939383509 -5.359103482066726 0 0 0
3194 965 4 0 -3.0172369344387486 -6.819065592800654 -5.299269350282121 0 0 0
876 192 4 0 -1.2642096861854728 -8.097613582149073 -6.629126598003909 0 0 0
978 226 4 0 -1.5192267527819332 -8.156146790535002 -5.576373435203399 0 0 0
108 22 3 0 -0.9867553810971834 -7.819664913965156 -6.54986519592649 0 0 1
107 22 3 0 -1.2740404268548384 -8.109101800835665 -5.921949123130384 0 0 1
996 232 4 0 -0.15525809621637995 -8.034699114437462 -6.098736490296452 0 0 0
110 22 3 0 -0.559596786676855 -8.023302344163168 -5.997773968446534 0 0 1
106 22 1 0 -0.9404460519252429 -7.841028856663565 -6.093604502726196 0 0 1
109 22 3 0 -0.9623488231715359 -7.42389714050731 -5.907321676922905 0 0 1
3107 936 4 0 -1.2462197745547203 -7.162649533144387 -5.992851440754953 0 0 0
999 233 4 0 -2.7991699975327093 -6.649282537807406 -5.586864066401381 0 0 0
997 233 2 0 -2.4840402081883233 -6.358143726129881 -5.428410384161167 0 0 0
998 233 4 0 -2.1609282916439767 -6.06374972059421 -5.262763451806703 0 0 0
3106 936 2 0 -1.3020286303873418 -6.710771195034894 -6.057072674371046 0 0 0
3108 936 4 0 -1.3632895020948006 -6.246339028033683 -6.119163938618616 0 0 0
1370 357 4 0 -1.0996376014590867 -5.950756198597185 -6.122315236617817 0 0 0
1369 357 2 0 -0.8668397580035786 -5.605110208438365 -5.9524107675083275 0 0 0
1371 357 4 0 -0.627586619797216 -5.246631659671173 -5.766795982164675 0 0 0
3725 1142 4 0 -0.5558308379310218 -5.043621746710229 -5.418903377646689 0 0 0
3724 1142 2 0 -0.2957390874879081 -5.187254711181846 -5.084032326686816 0 0 0
1197 299 4 0 -11.512958135844109 -4.275722737446221 -6.620230883480953 0 0 0
2988 896 4 0 -11.433709353519442 -3.897398994345716 -6.686491301579174 1 0 0
2986 896 2 0 -11.262856257625495 -3.5349327859625346 -6.583979115738867 1 0 0
1140 280 4 0 -3.9335335768428816 -4.129967956776245 -6.0276548312505565 0 0 0
1138 280 2 0 -3.937547073486931 -3.9710123281285568 -6.446085367871448 0 0 0
866 189 4 0 -4.051994758542573 -4.229285681071881 -5.666489251921337 0 0 0
865 189 2 0 -4.387203505017178 -4.128591789034993 -5.395891020828742 0 0 0
867 189 4 0 -4.702019184652821 -4.029180289930723 -5.117863210394415 0 0 0
3124 942 2 0 -2.019000380918122 -3.6427065249265946 -5.5358915304441405 0 0 0
3125 942 4 0 -2.497429142234786 -3.649344430849395 -5.638816550661778 0 0 0
3785 1162 4 0 -2.749555649599867 -3.494415786350186 -5.365574011710125 0 0 0
3126 942 4 0 -1.5921672851888549 -3.6329270652448282 -5.438021053585878 0 0 0
2235 645 4 0 -1.3390371772203224 -3.2989492685868713 -5.472723945357698 0 1 0
1791 497 4 0 -0.6998781789167453 -3.398199199034301 -6.376332958172996 0 1 0
2275 659 2 0 -3.785347977391283 -2.445945479447369 -4.938816650906209 0 0 0
2277 659 4 0 -3.5439046173679207 -2.800695537128771 -4.793282134009303 0 0 0
3786 1162 4 0 -3.309029015152501 -3.1273881111142314 -4.771242755578635 0 0 0
2276 659 4 0 -4.02650448022948 -2.06705035550408 -5.07318695507879 0 0 0
219 44 3 0 -4.1950543549580654 -1.7185710028966568 -4.99592851410726 0 0 0
3784 1162 2 0 -3.0213405955578794 -3.314328170513061 -5.077129698593011 0 0 0
2233 645 2 0 -0.9883416628325443 -3.261026659295533 -5.744588915329306 0 1 0
2234 645 4 0 -0.6381050657704745 -3.2221130907879805 -6.0218632358252036 0 1 0
935 212 4 0 -0.10800152748521757 -2.221347472539925 -5.315619221964614 0 0 0
1785 495 4 0 -0.3717633795559465 -1.9599187378627856 -5.168966998565573 0 1 0
1128 276 4 0 -8.573356556516313 -0.03938265840329212 -5.576623834307975 0 0 0
3103 935 2 0 -8.496763328726367 -0.11586488469849773 -6.317798956964425 0 0 0
1126 276 2 0 -8.624209779806293 -0.42475126451451706 -5.295490711663855 0 0 0
3726 1142 4 0 -0.03783566358150212 -5.332383982468038 -4.7381427154514055 0 0 0
3511 1071 2 0 -5.246318960764885 -1.3927421296476272 -5.086243205976917 0 0 0
2177 626 4 0 -3.9843234106121947 -1.586932198305197 -6.513671611314224 0 0 0
3513 1071 4 0 -4.8248624994873275 -1.2384873008012949 -5.022505195627748 0 0 0
218 44 3 0 -4.492034490418605 -1.0253118262812482 -4.985015515803081 0 0 0
216 44 1 0 -4.103939675340239 -1.2587648852837796 -5.023264845400693 0 0 0
217 44 3 0 -3.902908649563897 -1.15245006614764 -5.430535311035685 0 0 0
2178 626 4 0 -3.7239679777058523 -1.1454354061898604 -5.789218009291182 0 0 0
2176 626 2 0 -3.8499468777300567 -1.3549966617313978 -6.1397359141343415 0 0 0
2081 594 4 0 -7.113117188592192 -11.343643543677805 -4.712987640221975 0 1 0
1829 510 4 0 -7.406098729755828 -11.077073143542007 -4.568407308234218 0 1 0
1828 510 2 0 -7.380954167521465 -11.02045241330432 -4.113221383327652 0 1 0
1830 510 4 0 -7.358691658744915 -10.97446592308904 -3.7022503915011593 0 1 0
4236 1312 4 0 -7.438317209697064 -11.293151210535665 -3.4552339914907 1 1 0
4324 1342 2 0 -3.6440456085403845 -10.825667577098306 -4.77883555821873 0 1 1
4325 1342 4 0 -3.7768674710852035 -11.23273331478975 -4.690772209413673 0 1 1
2256 652 4 0 -3.8965972886990663 -11.625075737838289 -4.657605414924829 0 1 0
4326 1342 4 0 -3.498581652158399 -10.429870696211747 -4.8586369506007525 0 1 1
3775 1159 2 0 -0.3299210230558559 -10.618147192738466 -4.827443977092623 0 0 1
3777 1159 4 0 -0.4534923190276611 -10.53282528738224 -4.419941567209754 0 0 1
3600 1100 4 0 -11.126772546021003 -8.627831326657622 -4.983186409008977 1 0 1
3598 1100 2 0 -11.262523579529265 -8.47840637491858 -4.570651181205538 1 0 1
761 154 4 0 -10.268722642707086 -9.130908334201079 -4.088084403258601 0 0 0
1338 346 4 0 -10.504657242392144 -9.26099961087471 -3.784537631284676 0 0 0
1336 346 2 0 -10.810447391063402 -9.463149229256837 -3.5182819675966646 0 0 0
760 154 2 0 -10.121440080094365 -8.73287051408476 -4.300374268521586 0 0 0
762 154 4 0 -9.98526117952411 -8.35757128465614 -4.499152779596362 0 0 0
812 171 4 0 -8.43096593510172 -8.698802299183745 -3.2953129789370172 0 0 0
811 171 2 0 -8.105864482298147 -8.507150922998271 -3.5503172809364907 0 0 0
1316 339 4 0 -4.770911340973282 -9.444229171508109 -3.695548872774592 0 0 1
1315 339 2 0 -4.587864240699929 -9.560482293901238 -3.293376879934066 0 0 1
77 16 3 0 -4.062669533282679 -9.635217947270947 -5.102759101566383 0 0 0
2876 859 4 0 -4.755963567396196 -9.48891296329473 -4.126096909612719 0 0 0
2875 859 2 0 -4.469825060808334 -9.625310841530192 -4.443803264234397 0 0 0
2877 859 4 0 -4.195668021844754 -9.76183592809631 -4.756129118520532 0 0 0
3599 1100 4 0 -11.40830762959752 -8.308059676792391 -4.137790540543616 1 0 1
1601 434 4 0 -9.992376237864995 -8.348983525010256 -4.903764658269176 0 0 0
813 171 4 0 -7.77126570587247 -8.310358074673994 -3.809320949720042 0 0 0
3414 1038 4 0 -7.463773860046502 -8.082713815013765 -3.928622770751246 1 0 0
3412 1038 2 0 -7.51404845047407 -7.76221763034484 -4.195722599221432 1 0 0
3798 1166 4 0 -7.506827354496293 -7.192214769966122 -4.824324734646393 1 0 0
3413 1038 4 0 -7.564056774404087 -7.404452930582876 -4.487746671977419 1 0 0
347 70 3 0 -5.699879220431033 -4.97254577910408 -3.3460099181490603 0 0 0
1089 263 4 0 -5.76140973579943 -5.384722646261276 -3.413811833105356 0 0 0
1350 350 4 0 -2.1581177014117015 -5.926596529433995 -4.873622357443812 0 0 1
1348 350 2 0 -1.776832128606173 -5.856707679147322 -4.610666687826844 0 0 1
1349 350 4 0 -1.4231912426434474 -5.799681639225472 -4.368304847780058 0 0 1
3605 1102 4 0 -1.185207809266657 -5.781098513711033 -4.037416324036931 0 0 1
3604 1102 2 0 -1.1370134213465366 -5.462968722823763 -3.716965127287245 0 0 1
3606 1102 4 0 -1.0990107816475616 -5.167321008397663 -3.4108506696502183 0 0 1