LAMMPS data file via write_data, version 2 Aug 2023, timestep = 2000000, units = lj

15948 atoms
4 atom types
10792 bonds
1 bond types
6356 angles
2 angle types

-16.594292 16.594292 xlo xhi
-16.594292 16.594292 ylo yhi
-16.594292 16.594292 zlo zhi
4.263256414560601e-14 0 0 xy xz yz

Masses

1 1
2 1
3 1
4 1

Bond Coeffs # harmonic

1 100 0.5

Angle Coeffs # harmonic

1 100 180
2 100 109.471

Atoms # full

1969 497 2 0 -12.941359030770082 -16.20422412971429 -15.622041818349977 1 0 0
1971 497 4 0 -12.98670693897985 -15.765606733512644 -15.375472942120632 1 0 0
2722 748 2 0 -12.3693470823768 -16.407490497872242 -16.560531217905567 1 0 0
3244 922 2 0 -10.486640703504033 -15.89536168910512 -15.305061185493425 1 0 0
7291 2271 2 0 -10.409076546267626 -16.0917196536062 -16.509904618189644 1 0 1
7293 2271 4 0 -10.383133517527588 -16.18549513216679 -15.97635470369344 1 0 1
3246 922 4 0 -10.360091189618144 -16.277997310745018 -15.602568974636585 1 0 0
6596 2039 4 0 -10.043997705725433 -16.336073039325793 -15.828325243577094 1 0 1
6595 2039 2 0 -9.58512649514254 -16.07292301153003 -15.87849567126197 1 0 1
3245 922 4 0 -10.600139923919158 -15.499370224387894 -14.998021827827587 1 0 0
3059 860 4 0 -10.55381417676462 -15.092421363966848 -15.162174103235385 1 0 0
6597 2039 4 0 -9.132563313929294 -15.794361642476806 -15.914448390000844 1 0 1
14913 4811 4 0 -9.165610739160725 -15.425989375773982 -16.102793603125324 11 1 1
7503 2341 4 0 -8.909262641385089 -15.70205339771 -16.25931991023906 1 0 1
7728 2416 4 0 -8.81386392289578 -15.523426029800845 -15.902631446063777 1 0 1
7726 2416 2 0 -8.408085880976758 -15.207180010082588 -16.066149834049117 1 0 1
10573 3365 2 0 -7.261186309481831 -15.35774281286998 -16.05013311755139 11 1 0
14827 4783 2 0 -7.040281298141538 -16.37013964880467 -16.384421191511546 11 1 1
10575 3365 4 0 -6.879132908890121 -15.630255645790205 -15.91426253342074 11 1 0
14828 4783 4 0 -6.815913673611213 -15.961786329165859 -16.102390526870717 11 1 1
7734 2418 4 0 -6.454965771430256 -16.111034505961914 -16.022928849315313 1 0 1
9492 3004 4 0 -6.660774266878555 -15.91373032737159 -15.743851093718561 11 1 0
7331 2284 4 0 -6.512262855515305 -15.746021688197253 -16.062482126962912 1 0 1
9490 3004 2 0 -6.665930986151546 -15.77242319454793 -15.227937076506302 11 1 0
7330 2284 2 0 -6.184731893067092 -15.3673167886807 -16.188608075475354 1 0 1
7732 2418 2 0 -5.983540696294408 -16.347079953524236 -15.894384011420085 1 0 1
6429 1983 4 0 -5.474956260351108 -16.530221865286027 -15.39569570109284 1 0 1
441 89 1 0 -4.7058505062185425 -16.57870756515697 -15.827291568165908 1 0 1
10677 3399 4 0 -4.672221319190962 -15.879532720035295 -15.43588366693867 11 1 0
10675 3399 2 0 -4.764931906077656 -15.447033286700536 -15.618043204179939 11 1 0
8064 2528 4 0 -5.538895390730259 -15.120434427737006 -16.56144656826235 1 0 1
443 89 3 0 -4.5248751581285305 -16.138508011596723 -15.670626177048321 1 0 1
15090 4870 4 0 -4.2839185001108895 -16.017227297871894 -15.389768809253999 11 1 1
15194 4905 4 0 -3.0974056914792722 -16.357099847800324 -15.411636226726909 11 1 1
15377 4966 4 0 -2.854138447071655 -16.027402686923384 -15.448161592663443 11 1 1
10170 3230 4 0 -2.824518399167019 -16.22101657722863 -15.129856520149866 11 1 0
15376 4966 2 0 -2.6255061628548813 -16.110951535316037 -15.887706889468458 11 1 1
9146 2889 4 0 -2.570170143116531 -15.921839085461912 -15.155821369085665 11 1 0
15378 4966 4 0 -2.403354014109734 -16.19641273107112 -16.330030168551545 11 1 1
15804 5108 4 0 -2.2375263102392946 -16.445781130912504 -16.587794060415547 11 1 1
3551 1024 4 0 0.8445511991482455 -15.296213661064174 -15.385312140270424 2 0 0
3550 1024 2 0 0.6903354794976693 -15.690411462280021 -15.115964386004928 2 0 0
8141 2554 4 0 16.13742309277254 -16.552897263001874 -15.928438629913657 -1 0 1
14911 4811 2 0 -9.497195865380615 -15.02576949508772 -16.119293130031 11 1 1
3058 860 2 0 -10.40724569534933 -14.864768976642045 -15.584842379628574 1 0 0
3060 860 4 0 -10.254025467009537 -14.631180226199087 -16.00777589153515 1 0 0
6607 2043 2 0 -10.227338071039267 -14.356477856333159 -16.566002957114403 1 0 1
6608 2043 4 0 -10.041429596645694 -14.30041585606413 -16.083786493141076 1 0 1
14912 4811 4 0 -9.833042484876247 -14.624096637988888 -16.1407732255575 11 1 1
6334 1952 2 0 -8.4811384639939 -13.87752095267407 -15.14568066985708 1 0 1
1978 500 2 0 -8.343869733710418 -14.14749209063948 -16.398229715127606 1 0 0
1980 500 4 0 -7.988349041490865 -14.517662406430969 -16.26942794761594 1 0 0
7727 2416 4 0 -8.014455981854658 -14.90330678364784 -16.221080992658365 1 0 1
6528 2016 4 0 -7.736977591348534 -14.713063420363255 -16.041009865001854 1 0 1
1979 500 4 0 -8.701429861149228 -13.788264529493512 -16.523943716914726 1 0 0
6526 2016 2 0 -7.710794177669465 -14.488746846202755 -15.585704526172512 1 0 1
6527 2016 4 0 -7.689276850549504 -14.28305521129788 -15.14342555183678 1 0 1
8553 2691 4 0 -7.7141856823126 -14.754188598465452 -16.42096414076499 1 0 1
6336 1952 4 0 -8.911572820027352 -13.570545875956983 -15.172535052097642 1 0 1
7103 2208 4 0 -9.09139821827469 -13.59618946630161 -16.498127494066626 1 0 1
7104 2208 4 0 -9.135549693921362 -13.453296157524951 -15.480397088389202 1 0 1
7102 2208 2 0 -9.11619314136377 -13.519510885544442 -16.00142275256733 1 0 1
6335 1952 4 0 -8.072060187588344 -14.172700094730985 -15.121826863419496 1 0 1
10574 3365 4 0 -7.648068386592822 -15.083914106666311 -16.184976943975826 11 1 0
7332 2284 4 0 -5.83990593394935 -14.977082616760077 -16.330123169834586 1 0 1
1085 217 3 0 -5.4682130420173465 -14.822987583574317 -16.299134609572864 11 1 1
8707 2743 2 0 -5.3732655376424 -14.10164101718568 -15.461700657935523 11 1 0
1081 217 1 0 -5.041172363215111 -14.616222061374541 -16.357770124961917 11 1 1
10676 3399 4 0 -4.85029125436515 -14.992325375017316 -15.813149341281393 11 1 0
1083 217 3 0 -5.028612382385056 -14.17354483269816 -16.13859324529952 11 1 1
8709 2743 4 0 -5.0467258463379 -13.93867477864066 -15.828140300517138 11 1 0
15323 4948 4 0 -5.0462122029840035 -13.785138761248213 -16.19696431849296 11 1 1
14156 4559 4 0 -4.704465553066171 -13.926049651716607 -16.055952826793852 11 1 1
1082 217 3 0 -4.688925104516244 -14.912238595989134 -16.154360216156 11 1 1
14388 4636 4 0 -4.605035988529625 -14.688960544610937 -15.821329242661156 11 1 1
14386 4636 2 0 -4.328301678244399 -14.472339325528873 -15.461021908215477 11 1 1
14155 4559 2 0 -4.27714022314877 -13.749139455836868 -16.294411246154606 11 1 1
10621 3381 2 0 -3.442727382098841 -13.902981401947175 -15.065406217656124 11 1 0
14157 4559 4 0 -3.871201326694182 -13.582546573092182 -16.530096708520226 11 1 1
14387 4636 4 0 -4.069402684733307 -14.27637360677766 -15.1182699595328 11 1 1
14426 4649 4 0 -2.7954460755555495 -14.027764457886125 -15.233558588164254 11 1 1
10622 3381 4 0 -3.031481825826365 -13.73470916358681 -15.283444978255359 11 1 0
14425 4649 2 0 -2.6497018932804544 -14.535119565814822 -15.358228754585733 11 1 1
1776 432 4 0 -2.8018029077400897 -13.710922109110191 -14.982497432263624 2 0 0
14427 4649 4 0 -2.506851682634956 -15.010477034225065 -15.463441911064672 11 1 1
13868 4463 4 0 -2.6613636268092353 -13.636070341903956 -15.338690827742651 11 1 1
13867 4463 2 0 -2.4740914847053332 -13.54483716527265 -15.819840293845054 11 1 1
2980 834 2 0 -1.037749927657316 -14.936987981896271 -15.3148759304751 2 0 0
15100 4874 2 0 -1.0440678966004722 -14.726797731239781 -16.35182760012719 11 1 1
1796 439 4 0 -0.31824719580573557 -14.764482423642113 -15.797891773982318 2 0 0
2982 834 4 0 -0.7049080725249741 -14.734895684638218 -15.68245248078858 2 0 0
15102 4874 4 0 -0.6009443021847893 -14.656020563873815 -16.06555076671886 11 1 1
3641 1054 4 0 -0.5016955905400344 -14.415083968368435 -15.77553126509991 2 0 0
3640 1054 2 0 -0.3723109676623757 -14.01110476277635 -15.479411031872058 2 0 0
3642 1054 4 0 -0.24484413253987114 -13.596478358016034 -15.189276800007686 2 0 0
1795 439 2 0 0.16211819632496471 -14.911780203848416 -15.686907582592903 2 0 0
1797 439 4 0 0.6284614677336684 -15.051740744066063 -15.571555554422615 2 0 0
2310 610 4 0 0.8932811602995869 -14.899017766460654 -15.309677471273318 2 0 0
2358 626 4 0 -10.78104673806082 -12.619527754301746 -16.08900805459271 1 0 0
3501 1007 4 0 -10.796554404078352 -12.309673668042127 -16.358418916428207 1 0 0
2356 626 2 0 -10.638432738454227 -12.652930986950667 -15.64110327633394 1 0 0
1977 499 4 0 -10.052069499572465 -12.655286665962885 -15.162505206553156 1 0 0
1975 499 2 0 -9.654544871154679 -12.958897135641708 -15.162299200681032 1 0 0
1976 499 4 0 -9.260674209368641 -13.259758474151125 -15.144771494152414 1 0 0
2357 626 4 0 -10.467594387993707 -12.691073551862754 -15.155862158833145 1 0 0
1496 339 4 0 -10.279158765041789 -12.441904819957568 -14.915127898765359 1 0 0
3366 962 4 0 -8.898361501411685 -13.211470493311252 -15.238946822718015 1 0 0
3364 962 2 0 -8.526241940806413 -12.847762604345588 -15.366537710203076 1 0 0
3365 962 4 0 -8.19036337756687 -12.517424196246672 -15.487560627813519 1 0 0
2162 561 4 0 -7.91797981458094 -12.373744173971755 -15.226433140400493 1 0 0
7128 2216 4 0 -7.893938212229809 -12.312136228427217 -15.6440105974024 1 0 1
7126 2216 2 0 -7.924485305077546 -12.18200189184111 -16.099847548883687 1 0 1
8327 2616 4 0 -7.782644313430421 -12.640711870556578 -15.468063852841958 1 0 1
8326 2616 2 0 -7.329279966632068 -12.83388906514587 -15.400916222536347 1 0 1
8328 2616 4 0 -6.859686910715794 -13.040522019270485 -15.31156417210874 1 0 1
14354 4625 4 0 -6.493319072715575 -13.209420456625443 -15.446742106278231 11 1 1
14353 4625 2 0 -6.210654329460107 -13.077487841997392 -15.827252326821155 11 1 1
10631 3384 4 0 -6.144537774722428 -12.72651342842043 -16.461667888711755 11 1 0
14355 4625 4 0 -5.893920192753866 -12.92809247624841 -16.255053495081118 11 1 1
15324 4948 4 0 -5.557667660041453 -12.980361185275667 -16.45403267463514 11 1 1
14364 4628 4 0 -5.753207970592332 -12.623746856488108 -16.462973104018538 11 1 1
15322 4948 2 0 -5.304792601077613 -13.38021379459772 -16.320152430105086 11 1 1
13869 4463 4 0 -2.286077285973299 -13.453671220707157 -16.301128116661722 11 1 1
15431 4984 4 0 -1.9468312323131176 -13.616917023898589 -16.428451672111542 11 1 1
15430 4984 2 0 -1.4697794844004903 -13.387909831721762 -16.303043712382852 11 1 1
15432 4984 4 0 -1.0272834478609383 -13.167674625509532 -16.19445463766713 11 1 1
3050 857 4 0 0.07434793841254361 -13.373833583908793 -15.243760097649375 2 0 0
3049 857 2 0 0.510267034516847 -13.271999154532288 -15.560178727543017 2 0 0
3051 857 4 0 0.8998736358583344 -13.165618978648444 -15.85180470081571 2 0 0
6174 1898 4 0 9.713969632015623 -13.145596842724276 -15.066200883257473 2 0 1
3499 1007 2 0 -10.586307996828461 -11.860671533265178 -16.400997655037944 1 0 0
1390 304 2 0 -10.432529080309337 -10.98942734144327 -15.650463049796745 1 0 0
1392 304 4 0 -10.442553566078704 -11.287929139662847 -16.070712030448323 1 0 0
3500 1007 4 0 -10.377328626923248 -11.41835221487719 -16.441521566108204 1 0 0
1391 304 4 0 -10.409239017275887 -10.694025054075732 -15.249672553403952 1 0 0
2660 727 4 0 -10.095004998398604 -11.249150277556831 -16.2360327262566 1 0 0
2659 727 2 0 -9.640425415548293 -11.16433432101298 -16.485917316590566 1 0 0
6702 2074 4 0 -10.479184242825578 -10.55509831767921 -14.895102659693203 1 0 1
1078 216 3 0 -7.225247892881589 -11.583975436405424 -16.283671238236764 11 1 1
14898 4806 4 0 -4.754146633712944 -10.84744621890827 -16.265462833223072 11 1 1
15905 5142 4 0 -4.441395709666599 -10.884005728296106 -16.00979007745354 11 1 1
15904 5142 2 0 -4.196464072085625 -11.164507881937508 -15.679651158849966 11 1 1
15906 5142 4 0 -3.951481952029697 -11.451827117288506 -15.337251496344692 11 1 1
14526 4682 4 0 -4.391940919545672 -10.706996682972264 -16.383113029161677 11 1 1
14129 4550 4 0 -3.6337254771523657 -11.631771369910897 -15.270064893614302 11 1 1
10149 3223 4 0 -3.952380862388532 -11.82506311989998 -15.148766716812045 11 1 0
14128 4550 2 0 -3.190500649795265 -11.513916919558428 -15.48120947307835 11 1 1
14130 4550 4 0 -2.7535839773946797 -11.406866059331431 -15.684112396750585 11 1 1
15272 4931 4 0 -2.7251964276603555 -11.225808018158999 -16.022466800327216 11 1 1
15271 4931 2 0 -2.955454071964965 -11.152379359168629 -16.472541989429352 11 1 1
14775 4765 4 0 -2.39884570349426 -11.231482277728723 -15.807286779555183 11 1 1
14773 4765 2 0 -2.0012231566575966 -10.930390907763789 -15.948101801012415 11 1 1
14774 4765 4 0 -1.6232736286521927 -10.657207596689554 -16.081106240500542 11 1 1
14716 4746 2 0 -10.027572157062092 -9.9950257210006 -15.463464772440371 10 1 1
14718 4746 4 0 -9.80423197302056 -9.674913366093232 -15.759596185742064 10 1 1
1924 482 2 0 -9.821594392485352 -9.947445517496597 -16.538195022278153 0 0 0
7809 2443 4 0 -9.76013040688451 -9.34134349143254 -15.946788479456625 0 0 1
1925 482 4 0 -9.621844164396762 -9.66405839511284 -16.11449306802664 0 0 0
9320 2947 4 0 -9.448483511873539 -9.51400534092181 -15.781367066289027 10 1 0
14717 4746 4 0 -10.27217893303386 -10.338849250294368 -15.139921777948102 10 1 1
9319 2947 2 0 -9.057858978984076 -9.584287042444679 -15.442000752392792 10 1 0
9321 2947 4 0 -8.671626119777127 -9.645301689764416 -15.102475868586245 10 1 0
2666 729 4 0 -5.3939269810661195 -9.893618979956468 -15.133057639823871 0 0 0
10482 3334 4 0 -5.169988644030816 -10.079421564435288 -15.41229959733622 11 1 0
10480 3334 2 0 -4.882475856868455 -10.303326886725323 -15.75957246384019 11 1 0
10481 3334 4 0 -4.5891152579545995 -10.52010982640521 -16.098272793694093 11 1 0
2665 729 2 0 -5.6735283575996895 -9.477934424551735 -14.976608129509842 0 0 0
14970 4830 4 0 -1.6732872014217275 -10.45190672940534 -16.42202374943733 11 1 1
10661 3394 4 0 -1.3063837387225483 -10.576462976308713 -16.340957729478852 11 1 0
10660 3394 2 0 -0.8622865557121724 -10.467218891756898 -16.572766573240976 11 1 0
7832 2451 4 0 0.4285752661849429 -9.427519223371114 -16.504219822654587 3 0 1
7807 2443 2 0 -9.84011079059071 -8.919738111609947 -16.18873054489744 0 0 1
7808 2443 4 0 -9.923017064006038 -8.511274308647279 -16.430697157541747 0 0 1
10810 3444 2 0 -7.8885408408997275 -3.609960350657847 -16.253380038962394 5 0 0
10812 3444 4 0 -7.947708869724323 -3.3978364153168634 -15.813803979240936 5 0 0
10911 3477 4 0 -7.778198661944119 -3.013136914161958 -15.726794035662019 5 0 0
13524 4348 4 0 -5.742680235328185 -4.416897706931437 -15.86417746853081 6 0 1
13522 4348 2 0 -5.369552339389694 -4.103483336745256 -15.798696588488678 6 0 1
8610 2710 4 0 -5.0288458821081345 -3.6538503900885573 -15.362649956890502 5 0 0
13523 4348 4 0 -4.994638417736866 -3.770089827293152 -15.735656460593223 6 0 1
15057 4859 4 0 -4.893587296146915 -3.392717429956356 -15.668535710437302 6 0 1
15858 5126 4 0 -4.6771997722576035 -3.6059297703485527 -15.904356061520737 6 0 1
13641 4387 4 0 -4.6773935890234455 -3.6525041184555054 -15.522339215458711 6 0 1
15856 5126 2 0 -4.61435753008187 -3.5891095541784477 -16.433186310191637 6 0 1
15584 5035 4 0 -4.492924800445762 -3.338011470302831 -15.664829825371559 6 0 1
13639 4387 2 0 -4.332561565148339 -3.9602958804777053 -15.429696856724725 6 0 1
13640 4387 4 0 -3.957012733027213 -4.306823296859108 -15.32876942487129 6 0 1
10909 3477 2 0 -7.541091080530764 -2.623421253436401 -15.540998310013647 5 0 0
8629 2717 2 0 -7.655536388793873 -1.4850449204947385 -15.162332816080546 5 0 0
1800 440 4 0 -7.390730493353502 -1.6790791715764097 -16.483314593351253 5 0 0
10910 3477 4 0 -7.316642499189854 -2.2519739933222436 -15.364078267406166 5 0 0
8631 2717 4 0 -7.455879655308838 -1.8836857283820851 -15.344999543863613 5 0 0
9918 3146 4 0 -7.069431612532917 -1.9380938264166172 -15.432345133571605 5 0 0
9916 3146 2 0 -6.707735822297641 -1.9083013041545698 -15.822302860581862 5 0 0
9917 3146 4 0 -6.364877450385466 -1.8885534580729981 -16.20757078463943 5 0 0
9138 2886 4 0 -6.188105138725188 -1.8870712027627956 -16.573150892576333 5 0 0
9023 2848 4 0 -7.208339126684534 -2.0124206948469237 -15.064491938797822 5 0 0
1192 239 3 0 -6.005981662425427 -1.7117512951384484 -16.263829929792504 6 0 1
15055 4859 2 0 -5.220747335704909 -2.9839844585901893 -15.739866754016209 6 0 1
15056 4859 4 0 -5.532831864278972 -2.6171193829527635 -15.811591661129114 6 0 1
1194 239 3 0 -5.593035713844209 -2.232411067886238 -15.777333062301883 6 0 1
13824 4448 4 0 -5.604471273321696 -2.436095537266219 -15.441355277386169 6 0 1
1191 239 1 0 -5.561001140609568 -1.9194093375643604 -16.183010997738364 6 0 1
1193 239 3 0 -5.222414832337547 -1.560725243283672 -16.099892560936173 6 0 1
14795 4772 4 0 -4.841091268597365 -1.6027133584187396 -16.036914243026946 6 0 1
1195 239 3 0 -5.424354982582958 -2.184238786934735 -16.581780011980854 6 0 1
13822 4448 2 0 -5.810694187076658 -2.2391896781287475 -15.059939885055922 6 0 1
14794 4772 2 0 -4.409643266821945 -1.868994093691624 -15.908141886013112 6 0 1
14796 4772 4 0 -3.974742457425277 -2.1532108634207656 -15.777633522849317 6 0 1
15583 5035 2 0 -4.1625917391685565 -2.903204100923693 -15.644735674092919 6 0 1
15585 5035 4 0 -3.8486070357777624 -2.4913856545725537 -15.629559491181006 6 0 1
13995 4505 4 0 -3.5923249966470845 -2.2283756232535747 -15.782358621364716 6 0 1
13993 4505 2 0 -3.208710965674811 -1.9061265171628694 -15.93866645707551 6 0 1
14428 4650 2 0 -2.063665682241778 -2.0632402796370446 -15.971341662883734 6 0 1
14429 4650 4 0 -2.4538728905668528 -1.7496984340474597 -16.08189962073124 6 0 1
13994 4505 4 0 -2.840350286983673 -1.6122890549404332 -16.08395710720594 6 0 1
13617 4379 4 0 -2.652455421221706 -1.6855547960707575 -16.419798879513937 6 0 1
14430 4650 4 0 -1.6856332882918874 -2.364846028161484 -15.84481090674768 6 0 1
10856 3459 4 0 -7.649590626962901 -1.3826568053414228 -16.40602941558874 5 0 0
10855 3459 2 0 -8.091653756293994 -1.1786542067408998 -16.547720339911063 5 0 0
8587 2703 2 0 -7.4443711569561 -0.429766394398019 -15.185103462319148 5 0 0
3396 972 4 0 -7.25531388239674 -1.3206716129882494 -16.40373779066701 5 0 0
3394 972 2 0 -7.146960734298403 -0.8797041042302016 -16.114738772182772 5 0 0
8589 2703 4 0 -7.090157266897489 -0.20201438235474 -15.494324168806427 5 0 0
3395 972 4 0 -7.0321445575916215 -0.43871635272682497 -15.821707480122617 5 0 0
15002 4841 4 0 -6.7335823065796525 -0.23378433434545087 -15.601242019196029 6 0 1
15001 4841 2 0 -6.32649872630399 -0.4414703738368644 -15.375710043152456 6 0 1
9263 2928 4 0 -6.989389775567684 -0.05405893823563801 -15.841838045988439 5 0 0
15003 4841 4 0 -5.916798879158943 -0.6364819318335115 -15.151237548380337 6 0 1
15080 4867 4 0 -5.56044900344102 -0.7794931136048984 -15.194490584254496 6 0 1
15081 4867 4 0 -5.018670271462652 -1.2845517245193854 -15.8905561109198 6 0 1
15079 4867 2 0 -5.3057124732902565 -1.0194316374404444 -15.521694551965647 6 0 1
8715 2745 4 0 -4.970453033618851 -1.3102804790449305 -16.27456968320525 6 0 0
8713 2745 2 0 -4.6603640761308505 -0.9135445461105807 -16.388919888254513 6 0 0
9923 3148 4 0 -5.593653540003734 -0.4903511957715381 -14.939670235991466 6 0 0
10955 3492 4 0 -3.995557667311896 -0.544440691165299 -16.328921742467987 6 0 0
10954 3492 2 0 -3.8238892564196156 -0.31072940413172745 -15.893776167971614 6 0 0
10956 3492 4 0 -3.653386283417623 -0.07854389492858971 -15.45277233269346 6 0 0
8714 2745 4 0 -4.362050439992364 -0.5411272805900396 -16.49259925728884 6 0 0
10473 3331 4 0 -2.5438788003077697 -1.3707199759728965 -16.185861386328614 6 0 0
10471 3331 2 0 -2.3402053246373917 -0.8949573754989206 -16.294352071509376 6 0 0
10472 3331 4 0 -2.1329980701731692 -0.4410034379134693 -16.410875552820354 6 0 0
10412 3311 4 0 -1.8396067751074536 -0.198889667234031 -16.52906227638797 6 0 0
10700 3407 4 0 -1.9864836535960038 -0.15311297074824637 -16.16123644543087 6 0 0
8915 2812 4 0 -2.1968930530694095 -0.06630338735105568 -16.484302289483868 6 0 0
10699 3407 2 0 -1.8599232902037421 -0.03258270866220059 -15.676367818431192 6 0 0
15303 4941 4 0 -0.40518008234851166 -1.0205735594631697 -16.12546117816042 7 0 1
15301 4941 2 0 -0.3251222631289501 -0.5682520169723304 -15.89617358819586 7 0 1
15302 4941 4 0 -0.23671057782162208 -0.10594350917456197 -15.677032942716878 7 0 1
8813 2778 4 0 0.8211437421922128 -0.26263708364723115 -15.064442505840313 7 0 0
8812 2778 2 0 0.4245633354364493 -0.06542670541166729 -15.286155550144723 7 0 0
9308 2943 4 0 2.3940146546028203 -0.08954022650531002 -16.198554949302846 6 0 0
9307 2943 2 0 2.894348239764067 -0.2000487313903001 -16.114790186336105 6 0 0
9309 2943 4 0 3.385807191387709 -0.3006517045813304 -16.033399901623852 6 0 0
15935 5152 4 0 3.7921903510358987 -0.24315777906100777 -15.926813771534656 6 0 1
14463 4661 4 0 3.539233705539285 -0.4663903728435983 -15.711225101306866 7 0 1
15626 5049 4 0 3.6507935170360604 -0.56965528755725 -16.06841754454756 7 0 1
14461 4661 2 0 3.7039101973642126 -0.4818834104269669 -15.231868156293174 7 0 1
15625 5049 2 0 3.940876562134111 -0.8670470106363375 -16.33788043178758 7 0 1
9292 2938 2 0 -15.628064617383139 -16.502236899903632 -13.689932219387757 10 1 0
9862 3128 2 0 -16.51110498019649 -15.965697541111775 -14.055484267303214 10 1 0
9864 3128 4 0 -16.31561209581653 -16.37834843537365 -14.260063044415713 10 1 0
9293 2938 4 0 -16.020724346232047 -16.553474125313546 -14.018278402193369 10 1 0
12195 3905 4 0 1.462494967415008 -1.2518191815798083 -6.946138030335717 6 0 0
2136 552 4 0 -11.685862163367162 -16.424721141367094 -14.62539265073146 1 0 0
2134 552 2 0 -11.355219196865109 -16.553403264839993 -14.27030932039766 1 0 0
1553 358 4 0 -10.26013366922937 -15.271265730545636 -14.922215022906329 1 0 0
3439 987 2 0 -9.541195141701026 -16.137252710776124 -13.480945593268803 1 0 0
10239 3253 4 0 -8.293007069598286 -15.97092057230181 -13.633059241263577 11 1 0
8808 2776 4 0 -8.312132367035717 -16.350459165163137 -13.710520426186195 11 1 0
12193 3905 2 0 1.6450920172658137 -0.8161566657251118 -7.094456513142845 6 0 0
10237 3253 2 0 -7.913433913166369 -15.659753261032394 -13.501645607238649 11 1 0
14005 4509 2 0 -7.036292354966346 -16.382227220823097 -14.421323735721883 11 1 1
8605 2709 2 0 -7.020864319435315 -15.342320319699883 -13.99064604164552 11 1 0
8606 2709 4 0 -6.774388518929628 -15.508474221590035 -14.384363482596218 11 1 0
14006 4509 4 0 -6.818981242694528 -15.898980966581735 -14.482741395349047 11 1 1
9491 3004 4 0 -6.677921097307637 -15.639944749157651 -14.737904984708596 11 1 0
14834 4785 4 0 -6.469354103333183 -15.747717500578545 -14.420949729232891 11 1 1
10280 3267 4 0 -6.4474236938299505 -15.374905906344237 -14.561682726643644 11 1 0
14833 4785 2 0 -6.049444452055951 -15.956883108910828 -14.213185235223904 11 1 1
14835 4785 4 0 -5.633370281099703 -16.17059372265338 -13.998108786199458 11 1 1
15708 5076 4 0 -5.554793915902746 -16.501282809118294 -14.183622876499948 11 1 1
15706 5076 2 0 -5.049785905092733 -16.350963510815813 -14.201746723419726 11 1 1
15707 5076 4 0 -4.554657566091244 -16.198980295633827 -14.20244557774426 11 1 1
15088 4870 2 0 -4.239103989738027 -16.10887530897526 -14.900648922148136 11 1 1
9478 3000 2 0 -4.415168694933193 -15.425530911381946 -14.025131206238143 11 1 0
9480 3000 4 0 -4.280370912031859 -15.91656597024264 -14.149275023240946 11 1 0
15089 4870 4 0 -4.210880977816757 -16.206199658241058 -14.423407711166682 11 1 1
10614 3378 4 0 -4.190651360580684 -16.278565989061512 -14.058317774195654 11 1 0
10169 3230 4 0 -3.4031653517508236 -15.689961024731769 -14.429977940693984 11 1 0
10682 3401 4 0 -3.363664585679718 -15.388250973820643 -14.712415822946523 11 1 0
9145 2889 2 0 -2.0955295729519126 -15.682459197193554 -15.002802047370684 11 1 0
10168 3230 2 0 -3.1142249482185527 -15.952530190502108 -14.781671449236528 11 1 0
9147 2889 4 0 -1.6166070792736758 -15.430517479056814 -14.853527605891259 11 1 0
142 29 3 0 -1.3412402385471154 -15.241742028144317 -14.56914069313183 2 0 0
8119 2547 2 0 -0.8317624221730942 -16.052146205090942 -13.709922781561502 2 0 1
2981 834 4 0 -1.3640510888902657 -15.122424503933127 -14.953604224442518 2 0 0
8120 2547 4 0 -0.6187593207121012 -15.809818400978765 -14.109714325132522 2 0 1
3222 914 4 0 -0.3589803680104424 -15.547156183058268 -13.96698530438508 2 0 0
143 29 3 0 -0.7542157920243309 -15.46471678892011 -13.978239847263197 2 0 0
139 28 3 0 -0.22888249764836033 -15.36953170653251 -13.619416867185906 2 0 0
144 29 3 0 -0.5171231942532941 -15.067278272451844 -14.65251326072773 2 0 0
141 29 1 0 -0.8820966461851558 -15.108885753618564 -14.320551391714764 2 0 0
3220 914 2 0 0.03328496517000801 -15.723989303868805 -14.230293963375502 2 0 0
3221 914 4 0 0.421106532631665 -15.89986641272143 -14.486119244425717 2 0 0
7475 2332 4 0 0.33170586867890606 -16.270302600028874 -14.555020337499041 2 0 1
3552 1024 4 0 0.5401430830184246 -16.0889276832338 -14.821784761357153 2 0 0
3024 848 4 0 0.7149120191311304 -16.17214859881913 -14.45266188202583 2 0 0
3022 848 2 0 1.0923208128566593 -16.10273782871967 -14.121840953460229 2 0 0
3023 848 4 0 1.491471884287506 -16.02988313486367 -13.778364393170481 2 0 0
1724 415 4 0 1.5244390363835265 -15.826357501752243 -13.446036393046354 2 0 0
2348 623 4 0 1.7730880661125674 -15.736484548589601 -13.737673311361945 2 0 0
3609 1043 4 0 1.8233882689191638 -16.06946671374318 -13.587880364608226 2 0 0
2347 623 2 0 1.713142643479955 -15.230939103587067 -13.974471955789033 2 0 0
3607 1043 2 0 1.946823906590165 -16.557668182694805 -13.541318146594094 2 0 0
10047 3189 4 0 8.600273221828413 -16.199017184873313 -13.754166618410604 8 1 0
9705 3075 4 0 16.43655890501636 -15.141156529859753 -13.756129828060635 9 1 0
10479 3333 4 0 16.434599716378226 -15.385168221147822 -13.45742202870958 9 1 0
9863 3128 4 0 16.45657098460688 -15.537352169675394 -13.831871862307176 9 1 0
10212 3244 4 0 16.247840467862726 -15.30169982809219 -14.058889910634205 9 1 0
10379 3300 4 0 16.131831277625064 -15.384117980610599 -13.703193609870524 9 1 0
10378 3300 2 0 15.754749553247532 -15.165058275328331 -13.411204318602996 9 1 0
10210 3244 2 0 16.02341079219485 -15.175185720987091 -14.497374056975898 9 1 0
9703 3075 2 0 -16.401527113841745 -14.77620187198275 -13.698434759471754 10 1 0
9704 3075 4 0 -16.043743404503818 -14.395419734661425 -13.663924043583634 10 1 0
3519 1013 4 0 -9.297684728993248 -13.624158417709664 -15.120646786895353 1 0 0
2077 533 2 0 -10.124659739086281 -14.401841108818827 -13.673806113984138 1 0 0
1552 358 2 0 -10.01026097663771 -14.956821490893345 -14.597925836264647 1 0 0
2078 533 4 0 -9.856329843453985 -14.314316560509017 -14.106830348085282 1 0 0
1554 358 4 0 -9.771714386104255 -14.654943264647077 -14.273624468720056 1 0 0
3518 1013 4 0 -9.686466183221391 -14.328061056979776 -14.467199939720045 1 0 0
3020 847 4 0 -9.45454376730994 -14.409736376813157 -14.16805460467127 1 0 0
3517 1013 2 0 -9.501755888154044 -13.974826522912513 -14.786615983683348 1 0 0
3019 847 2 0 -9.053620774642125 -14.306410480416886 -13.850080636322238 1 0 0
6995 2172 4 0 -8.251563968500264 -14.195045629989679 -13.532769792825443 0 0 1
6994 2172 2 0 -7.901597437632908 -14.558809235385294 -13.461268944542374 0 0 1
3021 847 4 0 -8.644648823748595 -14.200014902678506 -13.535263898137117 1 0 0
8607 2709 4 0 -7.2677578128861064 -15.171798148901987 -13.588394807340038 11 1 0
6996 2172 4 0 -7.5382134872821105 -14.944380233510099 -13.391746466576285 0 0 1
10279 3267 2 0 -6.146314714578896 -14.94809843897212 -14.698290214069994 11 1 0
8708 2743 4 0 -5.699176118404257 -14.262049037374775 -15.104093885091954 11 1 0
10281 3267 4 0 -5.870365548632144 -14.536527446484955 -14.83150648881181 11 1 0
9179 2900 4 0 -4.931190813510364 -14.815462740616288 -13.755931198884348 11 1 0
14238 4586 4 0 -4.652832809108277 -14.571385637636821 -13.912732064585148 11 1 1
9479 3000 4 0 -4.553961155078502 -14.939526349760339 -13.915317062011994 11 1 0
14236 4586 2 0 -4.430311825228841 -14.402152039511982 -14.316449598831445 11 1 1
14237 4586 4 0 -4.2035815457028 -14.23826414397968 -14.739364841084695 11 1 1
10623 3381 4 0 -3.8663368355838337 -14.081194275452994 -14.848880707447925 11 1 0
10681 3401 2 0 -3.619763914983144 -14.954561864186665 -14.771605043094363 11 1 0
10683 3401 4 0 -3.8963351970303357 -14.485367966289466 -14.846566798396173 11 1 0
3575 1032 4 0 -1.6525499890921935 -15.07502678781295 -14.703726633653595 2 0 0
1543 355 2 0 -2.3559195473199335 -14.264725760517736 -13.613828049620606 2 0 0
1545 355 4 0 -2.38178377881235 -14.172503869803284 -14.105660170166367 2 0 0
3574 1032 2 0 -1.8713135203614417 -14.657890265153789 -14.538281830026122 2 0 0
3576 1032 4 0 -2.102743654613924 -14.231011541174936 -14.360050784826296 2 0 0
1775 432 4 0 -2.1603958585954643 -13.861002965545428 -14.216501730221092 2 0 0
1774 432 2 0 -2.4814545260997356 -13.775068156224819 -14.598309676319937 2 0 0
2285 602 4 0 -1.04181716657512 -14.307240667118887 -13.89930836074348 2 0 0
145 29 3 0 -0.9525928335269409 -14.64694884265846 -14.076971981735392 2 0 0
3129 883 4 0 -0.6999177520215909 -14.347240275110607 -14.111958976931064 2 0 0
3127 883 2 0 -0.22038078504580838 -14.346512490797656 -13.860989340423298 2 0 0
3128 883 4 0 0.21473835806980546 -14.330859944861261 -13.61747454365968 2 0 0
2308 610 2 0 1.1990854599888507 -14.75724828636622 -14.923536424264089 2 0 0
2413 645 2 0 0.8924622608251127 -14.603175143846343 -13.878222071437738 2 0 0
2415 645 4 0 0.4876325305977858 -14.61808028087936 -13.5842863245359 2 0 0
2414 645 4 0 1.3082203728026762 -14.583443466572536 -14.189820731572881 2 0 0
2309 610 4 0 1.5190552510737376 -14.630146972359366 -14.526117630255008 2 0 0
3539 1020 4 0 1.6678189050330339 -14.399523685978236 -14.213393418153808 2 0 0
2349 623 4 0 1.662862674084252 -14.778008086829914 -14.191464079738262 2 0 0
3538 1020 2 0 2.007740164798353 -14.07188590572623 -14.067265667146366 2 0 0
3540 1020 4 0 2.3752594019187008 -13.703637407517258 -13.899974170455598 2 0 0
1212 244 4 0 2.7182866099354044 -13.657986372581384 -13.628232170803917 2 0 0
10050 3190 4 0 5.777038428328826 -14.583523424193364 -13.591762825474278 3 0 0