LAMMPS data file via write_data, version 2 Aug 2023, timestep = 9000000, units = lj

15885 atoms
4 atom types
10750 bonds
1 bond types
6335 angles
2 angle types

-16.594292 16.594292 xlo xhi
-16.594292 16.594292 ylo yhi
-16.594292 16.594292 zlo zhi

Masses

1 1
2 1
3 1
4 1

Bond Coeffs # harmonic

1 100 0.5

Angle Coeffs # harmonic

1 100 180
2 100 109.471

Atoms # full

6564 2028 4 0 -15.473075104855953 -16.143614095633136 -16.052657918735914 0 0 1
151 31 1 0 -16.084825639376355 -16.014530645870593 -16.21954479664197 0 0 0
152 31 3 0 -15.645254769851693 -15.871285640908985 -16.360294604108343 0 0 0
10757 3426 4 0 -15.676881484212224 -16.369261405106244 -15.762917074399551 1 1 0
9728 3083 4 0 -15.666220344256994 -16.475408994277963 -16.141158534736597 1 1 0
6827 2116 4 0 -15.516094525907594 -16.23797009096286 -16.44304990959451 0 0 1
153 31 3 0 -16.291741345354538 -15.661892964789603 -15.933721140747101 0 0 0
155 31 3 0 -16.0456498306081 -16.44718247148284 -15.949506032182052 0 0 0
10756 3426 2 0 -15.778323362377895 -16.486364203726197 -15.272629853571601 1 1 0
6562 2028 2 0 -15.057036300869342 -15.89888101306839 -15.832810612160042 0 0 1
6563 2028 4 0 -14.663653579022496 -15.68130141721172 -15.626197682006762 0 0 1
1848 456 4 0 -14.397110098325504 -15.405133751635873 -15.478856029407767 0 0 0
1846 456 2 0 -14.363373328772184 -15.174532240401003 -15.006468482585904 0 0 0
10798 3440 2 0 -12.696070549827581 -16.011677809626605 -15.684056665294655 0 1 0
10799 3440 4 0 -12.794469742028319 -16.37040987241391 -16.0273108876484 0 1 0
10800 3440 4 0 -12.599133118794084 -15.649803292697385 -15.333105478492188 0 1 0
2657 726 4 0 -12.309169435833473 -15.517723686631246 -15.089300818435161 0 0 0
14291 4604 4 0 -13.09596938253234 -16.45395731938732 -16.225523316901448 0 1 1
4242 1254 4 0 15.085092320425288 -0.6368239300773132 -6.528597260718207 0 0 0
14605 4709 2 0 4.276768843366204 -15.30786472027712 -16.499379115192127 0 1 1
14606 4709 4 0 3.8144546715036465 -15.102604306524832 -16.548268244550428 0 1 1
10102 3208 2 0 5.152164080862343 -15.840082884587899 -15.853561554628651 0 1 0
10103 3208 4 0 4.845996504900465 -15.820284838714496 -16.259601623972408 0 1 0
10104 3208 4 0 5.436555543909352 -15.857378400300496 -15.471047279730103 0 1 0
14607 4709 4 0 4.716010759535184 -15.494224356748518 -16.44524759873343 0 1 1
67 14 3 0 5.793626479074798 -15.71151760077806 -15.375864384486038 0 0 0
1893 471 4 0 5.4721986725545415 -15.525563760570012 -15.221481272495026 0 0 0
2262 594 4 0 5.612191954533938 -15.873914730466664 -15.0797205400262 0 0 0
2934 818 4 0 5.040829967944682 -15.649671290706802 -16.57822955590121 0 0 0
69 14 3 0 6.222458295232113 -15.882227538502923 -16.069057500546666 0 0 0
2006 509 4 0 6.8223080201404915 -16.22731769903842 -15.319598574067932 0 0 0
2005 509 2 0 7.086079659469251 -16.410425540352826 -15.703801913878445 0 0 0
68 14 3 0 6.621258388975719 -15.878820611786322 -15.323109476029314 0 0 0
66 14 1 0 6.248028514574312 -15.65767197643007 -15.613842327644216 0 0 0
70 14 3 0 6.352878506463292 -15.153674357740902 -15.679500695410672 0 0 0
47 10 3 0 6.752505643865464 -16.47610943529648 -14.995194319172505 0 0 0
1760 427 4 0 9.751103338457911 -16.524676383497088 -16.164936745959064 0 0 0
1759 427 2 0 9.644867505338253 -16.07045807260565 -16.397352315139795 0 0 0
2837 786 4 0 10.083143759618526 -16.53200446922515 -15.940221861402605 0 0 0
2836 786 2 0 10.551314073430742 -16.36189575357852 -15.849837858568065 0 0 0
3175 899 2 0 11.541745762812537 -15.666188158553279 -15.357737203245778 0 0 0
3176 899 4 0 11.331215038458687 -15.894630954958917 -15.758977102530093 0 0 0
13656 4392 4 0 11.38748793849532 -16.235642710388888 -15.911095477785013 0 1 1
13654 4392 2 0 11.70853054803903 -16.27512195036838 -16.291488189279622 0 1 1
2838 786 4 0 11.020890533345044 -16.181522325258854 -15.749973908270894 0 0 0
3177 899 4 0 11.748095739762801 -15.44264632944526 -14.976447090301667 0 0 0
8819 2780 4 0 13.311010000425231 -15.33015682889136 -15.379815485537575 0 1 0
8818 2780 2 0 13.180648083350572 -15.63125184492264 -15.808942063000123 0 1 0
1019 204 3 0 12.899726995461354 -16.205338867603015 -16.430554536774714 0 1 1
8820 2780 4 0 13.051353213748335 -15.918944097619919 -16.216250072522595 0 1 0
8104 2542 2 0 14.980465912661437 -15.628771128681986 -16.35508432171936 0 0 1
8105 2542 4 0 14.696564343887408 -15.209451894079143 -16.303397771734417 0 0 1
8106 2542 4 0 15.260267235586726 -16.053684598845656 -16.39823703875842 0 0 1
1239 253 4 0 15.327579226010322 -16.395346477776492 -16.187829494142825 0 0 0
6656 2059 4 0 15.565255648526533 -16.276975779367962 -16.443622563776525 0 0 1
3728 1083 4 0 13.101824113863156 -16.532146716543824 -8.281246376628738 0 0 0
6655 2059 2 0 16.016211357363815 -16.07465663430518 -16.536298962093877 0 0 1
1799 440 4 0 3.487607806543321 -15.00174681027658 -16.360649387365154 0 0 0
1736 419 4 0 3.224672967316798 -13.852595717559797 -15.599892748648598 0 0 0
1798 440 2 0 3.4008650777833194 -14.602387577362649 -16.0190486830613 0 0 0
1800 440 4 0 3.3220348200845677 -14.241556068055747 -15.71578134943485 0 0 0
2717 746 4 0 13.242884123329613 -15.05668194983656 -15.128305766990488 -1 0 0
2597 706 4 0 13.317131325714623 -13.860145325022364 -15.71018464796357 0 0 0
2716 746 2 0 13.35884592770775 -14.636416073023813 -15.394830983153721 -1 0 0
2857 793 2 0 13.208213135674617 -14.067068115760772 -16.482477680844276 0 0 0
2859 793 4 0 13.437139396291037 -14.044091100374402 -16.039731701728318 0 0 0
2718 746 4 0 13.476942359213341 -14.214253529087426 -15.677692385121478 -1 0 0
2596 706 2 0 13.011706324704368 -13.612784843581734 -15.43379782319349 0 0 0
3492 1004 4 0 13.702003806841866 -13.902567631388745 -15.74983107365295 0 0 0
1911 477 4 0 13.753875975359522 -14.269112299342408 -15.938837189470457 0 0 0
1909 477 2 0 14.14252629119683 -14.561306394703664 -16.142193772900104 0 0 0
1910 477 4 0 14.51408071184965 -14.841492166661066 -16.338215513287278 0 0 0
3218 913 4 0 -9.612324390641332 -12.102621555866486 -14.813835642523516 0 0 0
3037 853 2 0 -8.085209205368102 -12.063778734273743 -15.442491470591746 0 0 0
3039 853 4 0 -7.649940169991601 -12.29980878643945 -15.54257064570912 0 0 0
2145 555 4 0 -7.2907809463241 -12.443372126296437 -15.639426197230843 0 0 0
2143 555 2 0 -6.994118883007184 -12.600945666455294 -16.004316763518517 0 0 0
1391 304 4 0 -7.366836513988481 -12.359395675302247 -15.276998475550153 0 0 0
2144 555 4 0 -6.670812313030708 -12.74924335042121 -16.395888393376996 0 0 0
7091 2204 4 0 -6.3168445625893535 -12.775563333905934 -16.218854490048788 0 0 1
8445 2655 4 0 -6.4157640147025345 -13.009115821204434 -16.52103398296845 0 0 1
7090 2204 2 0 -5.842440267944498 -12.661311179654708 -16.101011359542454 0 0 1
7092 2204 4 0 -5.350193492656169 -12.544719681360393 -15.976012539908025 0 0 1
2835 785 4 0 -5.114420508697673 -12.689057566064951 -15.701370844241302 0 0 0
6668 2063 4 0 -4.943143977796455 -12.57105154442904 -16.0174490277606 0 0 1
2833 785 2 0 -5.194024136508588 -12.820682023163032 -15.207416702621444 0 0 0
7770 2430 4 0 -5.109356511213547 -12.29496344590711 -15.822916128927233 0 0 1
6667 2063 2 0 -4.59600630758673 -12.88081213188786 -16.1960848839722 0 0 1
6669 2063 4 0 -4.234066139582752 -13.208932227067592 -16.38936945366386 0 0 1
6918 2146 4 0 -3.9910609295776074 -13.476894757186454 -16.53342317203979 0 0 1
2785 769 2 0 2.77966861316065 -12.359755770293981 -15.431858614955797 0 0 0
2787 769 4 0 2.4032939631986703 -12.112415145802725 -15.204422213176727 0 0 0
2527 683 2 0 1.5602279536608892 -12.04359135239859 -15.285790683254488 0 0 0
2786 769 4 0 3.135943486505548 -12.604339193154187 -15.662167528828709 0 0 0
1735 419 2 0 3.2542084992924214 -13.38289140216279 -15.53859167245064 0 0 0
1737 419 4 0 3.2871759595175742 -12.910983586438263 -15.46491237576251 0 0 0
7844 2455 4 0 8.926304621735605 -12.248161937550442 -16.345796538348058 0 0 1
7595 2372 4 0 8.552136451777006 -12.20014618916698 -16.44848722806209 0 0 1
7843 2455 2 0 9.257685880288015 -12.465731220517592 -16.011834989597123 0 0 1
7845 2455 4 0 9.555487264761886 -12.671226848470962 -15.699512404719313 0 0 1
3111 877 4 0 9.526637837813453 -12.666657904523865 -15.293650159200027 0 0 0
2613 711 4 0 11.49817287590421 -13.10843588245437 -15.584265287680621 0 0 0
2252 591 4 0 11.119151802429984 -13.191296061932006 -15.681597743785728 0 0 0
3279 933 4 0 11.311422126048042 -12.92137685319538 -15.883642806849902 0 0 0
3277 933 2 0 10.979024207879283 -12.8273295408408 -16.259384802282632 0 0 0
2611 711 2 0 11.937237348076307 -13.095876369654569 -15.334089733887277 0 0 0
2251 591 2 0 10.764911703557917 -13.33296940092035 -15.352947756373608 0 0 0
2598 706 4 0 12.688273107907841 -13.341703638943672 -15.130276590074361 0 0 0
2612 711 4 0 12.374187436241664 -13.09203194311963 -15.095934932739425 0 0 0
3490 1004 2 0 14.06102901282908 -13.528200854248244 -15.74986704889099 0 0 0
2257 593 2 0 14.280472290071266 -12.481998305019006 -16.183172189127486 0 0 0
3491 1004 4 0 14.385862288098318 -13.179680884614063 -15.740561326113392 0 0 0
2259 593 4 0 14.483730542322814 -12.772684722707986 -15.793314700882979 0 0 0
3372 964 4 0 14.335805142339556 -12.908741597220128 -15.465166401009178 0 0 0
1842 454 4 0 14.726692458233169 -13.017369322660635 -15.61588310083159 0 0 0
3370 964 2 0 14.106275338733246 -12.648117602219667 -15.098002138126747 0 0 0
1840 454 2 0 15.19718520910456 -12.81248300693905 -15.565986853638083 0 0 0
1841 454 4 0 15.666787610734511 -12.607969955926844 -15.517401908273433 0 0 0
2066 529 4 0 16.02008722372178 -12.56863147814455 -15.735507587640551 0 0 0
6919 2147 2 0 -16.316107394703227 -11.176898554017619 -16.261006902906296 1 0 1
6921 2147 4 0 -15.902434946579614 -11.061762926556973 -16.52113861148058 1 0 1
2416 646 2 0 -12.028440883712014 -11.312029620189492 -15.306952483319124 0 0 0
2565 695 4 0 -11.42533124047417 -11.760165613660897 -15.38428675897877 0 0 0
2417 646 4 0 -11.702782689369556 -11.588546905887302 -15.599347666856763 0 0 0
7209 2243 4 0 -11.356905238661893 -11.41672889753712 -15.623295145039553 0 0 1
7207 2243 2 0 -11.10251256559518 -11.031835266232072 -15.844062009197893 0 0 1
7208 2243 4 0 -10.853701568659877 -10.684358926000044 -16.04464522782954 0 0 1
112 23 3 0 -9.632788786944955 -11.882366969539833 -15.156625347174325 0 0 0
505 101 3 0 -10.228743350600809 -10.906335737672306 -16.18975268764962 0 0 1
111 23 1 0 -9.21390567118206 -11.633827126184073 -15.312224819444806 0 0 0
115 23 3 0 -9.337148287481192 -11.336774881428516 -15.7025338706677 0 0 0
3038 853 4 0 -8.535740808467803 -11.818725431755839 -15.34092710055359 0 0 0
114 23 3 0 -8.885211868481615 -11.97478752066865 -15.449826095163314 0 0 0
113 23 3 0 -9.026468196442583 -11.348620663474907 -14.943562622820503 0 0 0
7768 2430 2 0 -5.0719498449469045 -11.793887552452517 -15.876513725667813 0 0 1
7769 2430 4 0 -5.034626150005789 -11.270070361096819 -15.94197677209344 0 0 1
8406 2642 4 0 -5.1283966314598555 -10.971385228493352 -16.19075574153702 0 0 1
2004 508 4 0 -1.1625542082730038 -10.54478543937577 -14.9447404435239 0 0 0
2529 683 4 0 1.0761758947331277 -11.999011836277294 -15.455951222519912 0 0 0
3324 948 4 0 0.8120593875146863 -11.703421947047786 -15.41870678506647 0 0 0
3322 948 2 0 0.5246658793461214 -11.42707029176885 -15.084896410731513 0 0 0
7246 2256 2 0 5.953903808222983 -10.610395582760914 -15.792643864211719 0 0 1
6575 2032 4 0 6.654176189460378 -10.923149978295875 -15.967896889626024 0 0 1
7248 2256 4 0 6.475280634382951 -10.620555387976877 -15.79167182470918 0 0 1
6574 2032 2 0 6.962523249311427 -11.331546970926105 -15.970201524578208 0 0 1
6576 2032 4 0 7.275138015666195 -11.755509295480369 -15.982983682114419 0 0 1
6822 2114 4 0 6.690680900976032 -10.557240344206845 -16.098942249954778 0 0 1
2382 634 4 0 6.859472279775669 -10.642226623047884 -15.749092550984503 0 0 0
7594 2372 2 0 8.072444239736623 -12.044092701489896 -16.29769175518685 0 0 1
7596 2372 4 0 7.617616029692944 -11.898848332123181 -16.161959654205976 0 0 1
2065 529 2 0 16.166448860990098 -12.095538724220122 -15.873941870027801 0 0 0
2067 529 4 0 16.315975573479907 -11.631577737550916 -16.008620298862855 0 0 0
3309 943 4 0 16.083039728464765 -11.318408676676118 -15.88411177780756 0 0 0
8004 2508 4 0 16.134214058440644 -11.368017086495689 -16.25424989458793 0 0 1
6920 2147 4 0 16.44358977893119 -11.281916016117243 -15.999537723715934 0 0 1
3307 943 2 0 16.097601560549474 -11.071531329088454 -15.44979747238989 0 0 0
196 40 1 0 -12.941098157631417 -16.44634299967283 -7.487879183022306 0 0 0
2314 612 2 0 -15.598419860337634 -9.650476166388723 -15.585747885516833 0 0 0
2315 612 4 0 -15.492813444095388 -9.642837472524121 -16.07838914628465 0 0 0
1319 280 4 0 -15.735946604942454 -9.39632529895229 -16.30478909558217 1 0 0
8214 2578 4 0 -15.377936271563232 -9.49801245178241 -16.43176083104825 0 0 1
8477 2666 4 0 -15.660925942180452 -9.771219063023025 -16.411657152399226 0 0 1
8476 2666 2 0 -15.824500103358995 -10.223496771530458 -16.498774217822582 0 0 1
2316 612 4 0 -15.720334412381797 -9.668059258850562 -15.063435130320004 0 0 0
2307 609 4 0 -15.980313342255954 -9.97312914255769 -15.0190485040576 1 0 0
9463 2995 2 0 -4.900129676648755 -16.562324713315 -8.719420977114424 0 1 0
503 101 3 0 -10.877792103666367 -10.447334182573822 -16.369369277769923 0 0 1
8474 2665 4 0 -11.139336596031052 -10.388558644267077 -16.07155978931722 0 0 1
3 1 3 0 -11.856027771359392 -9.600784624532753 -15.456165720541176 0 0 0
8475 2665 4 0 -11.735005337387316 -9.653742260833857 -15.834856159401578 0 0 1
8473 2665 2 0 -11.456444186321756 -9.99924321562793 -15.945630926039396 0 0 1
1 1 1 0 -11.693306574281973 -9.349444388527843 -15.067803018137901 0 0 0
501 101 1 0 -10.378753584882906 -10.476862472024274 -16.3928328890626 0 0 1
502 101 3 0 -10.189311357606769 -10.11441209853113 -16.148237841977007 0 0 1
8404 2642 2 0 -4.916469678846178 -10.525636656866693 -16.177139433199986 0 0 1
8405 2642 4 0 -4.707463371473008 -10.096621073763833 -16.153200591807206 0 0 1
6417 1979 4 0 -4.468864081951819 -9.92583803971355 -15.908172947108042 0 0 1
6415 1979 2 0 -4.296535650297586 -9.45684541360445 -15.954093554445636 0 0 1
6416 1979 4 0 -4.122826178746332 -8.996610709730074 -16.010172711670435 0 0 1
554 111 3 0 -3.294468447065027 -9.265584554627429 -16.488748949593663 0 0 1
1523 348 4 0 -1.7611333102966173 -9.556127704380852 -15.750114016695779 0 0 0
6744 2088 4 0 -1.6248326848716588 -9.87840377707489 -15.983934905761334 0 0 1
1522 348 2 0 -2.210156623232798 -9.287659263396279 -15.642539483254176 0 0 0
1385 302 4 0 -0.8979419273913144 -10.711425387896902 -15.198224982054914 0 0 0
6743 2088 4 0 -1.084344971893088 -10.36986222449826 -15.293919757975594 0 0 1
6742 2088 2 0 -1.3483198794420255 -10.126325115380043 -15.629397675464759 0 0 1
7247 2256 4 0 5.436408683832695 -10.598028312504256 -15.804148415771143 0 0 1
2380 634 2 0 6.9773222273403235 -10.40922342567216 -15.340989872763785 0 0 0
1318 280 2 0 -15.813337820755168 -8.900774302487806 -16.383474232342877 1 0 0
1245 255 4 0 -15.896433757264399 -8.162034374352322 -16.16497565704813 0 0 0
1243 255 2 0 -15.877821481329006 -7.962181786230999 -15.70117734143429 0 0 0
1244 255 4 0 -15.867470405142337 -7.773644263456215 -15.228981305221504 0 0 0
1320 280 4 0 -15.881916424028237 -8.425291600993598 -16.465370011653746 1 0 0
8412 2644 4 0 -15.592365604540312 -8.142550474105867 -16.388458686130747 0 0 1
7371 2297 4 0 -13.63370317223124 -7.706530837478244 -15.658767662943706 0 0 1
7537 2353 2 0 -14.202035888714905 -7.602019261055198 -16.19261117277103 0 0 1
7369 2297 2 0 -13.196539640098141 -7.901113203806698 -15.775856890310637 0 0 1
7370 2297 4 0 -12.731665974470758 -8.1079426370153 -15.913278455988209 0 0 1
8112 2544 4 0 -12.419378289788567 -7.910267855645793 -15.776243732844547 0 0 1
8340 2620 4 0 -12.515525505615352 -7.871525137796375 -16.150256583926065 0 0 1
7469 2330 4 0 -12.265253560859955 -7.603715697973767 -15.978633369489122 0 0 1
8110 2544 2 0 -12.174366088639617 -8.221368470827695 -15.489351615139118 0 0 1
8338 2620 2 0 -12.462963114782351 -8.140290199022695 -16.562120658919234 0 0 1
8111 2544 4 0 -11.927496395779567 -8.522339055657097 -15.21104940835228 0 0 1
5 1 3 0 -11.72345367388498 -8.859748641183204 -15.171524365545869 0 0 0
2636 719 4 0 -11.501827661071006 -8.52313249653335 -15.236446552057949 0 0 0
2635 719 2 0 -11.08381991939166 -8.258079992537208 -15.329056002133818 0 0 0
1292 271 4 0 -10.755635104508332 -7.600462037573245 -15.357687411001558 0 0 0
2637 719 4 0 -10.663079512416983 -7.995907812727489 -15.423187766033456 0 0 0
10760 3427 4 0 5.641199193738398 -16.581226058580043 -6.420285036216028 0 1 0
8489 2670 4 0 -4.898187270445472 -7.957912813213049 -16.12354786319181 0 0 1
6375 1965 4 0 -5.277430566314352 -7.819159402755071 -16.123827502957393 0 0 1
6373 1965 2 0 -5.7030837107832495 -7.974215467435376 -16.32571644255075 0 0 1
8451 2657 4 0 -4.974306315393238 -7.568917142765942 -16.16632193836677 0 0 1
6374 1965 4 0 -6.130781155797463 -8.136328368565433 -16.527656101461755 0 0 1
8488 2670 2 0 -4.508733940282548 -8.278105293139747 -16.04974203157215 0 0 1
553 111 3 0 -3.779348711342149 -8.83665864918962 -15.960870901553841 0 0 1
8490 2670 4 0 -4.124149475786636 -8.599511271886788 -15.977931522350154 0 0 1
551 111 1 0 -3.2908297983617767 -8.90254423135148 -16.15198055011845 0 0 1
552 111 3 0 -3.137877796600493 -8.477965788422066 -16.349844802431846 0 0 1
3338 953 4 0 -2.9131313476036165 -8.738366740249472 -15.497376855635453 0 0 0
3337 953 2 0 -2.968054163112948 -8.614306749813181 -15.01820017882226 0 0 0
555 111 3 0 -2.9768281376289036 -9.033704242368852 -15.755498990171793 0 0 1
1524 348 4 0 -2.6481180368946773 -9.039101134044454 -15.525647134041566 0 0 0
2703 741 4 0 2.626727192244635 -8.836152220586047 -14.840678686022013 0 0 0
2789 770 4 0 2.990990335385223 -8.816258729503673 -14.971242439573173 0 0 0
7161 2227 4 0 2.729833510774718 -8.563455270279823 -15.085824326233656 0 0 1
7159 2227 2 0 2.7110200420705266 -8.085149708598466 -15.097313373908932 0 0 1
548 110 3 0 8.940959869551026 -8.22375419165227 -15.129365623607573 0 0 1
7539 2353 4 0 -13.90954626643028 -7.463961158777869 -15.76930172860536 0 0 1
6333 1951 4 0 -13.780471029827813 -7.46762051188964 -15.386636308206938 0 0 1
8141 2554 4 0 -13.64502559457599 -6.292030621791301 -16.09709742972721 0 0 1
473 95 3 0 -13.710036081109655 -6.555958165066983 -15.770778055658278 0 0 1
3356 959 4 0 -13.536431165534918 -6.208097821037386 -15.72963956614514 0 0 0
474 95 3 0 -13.541146431587169 -7.335132694196773 -15.677345842584316 0 0 1
8140 2554 2 0 -13.801985013208716 -6.407606735753033 -16.54916359616412 0 0 1
471 95 1 0 -13.466619073067307 -6.865002451466065 -15.504431938866569 0 0 1
7468 2330 2 0 -12.402785798207765 -7.186192696688993 -15.717754550492517 0 0 1
7470 2330 4 0 -12.54831742433995 -6.814860626068798 -15.47605156646617 0 0 1
472 95 3 0 -12.947344445291325 -6.7655665826679 -15.51879632513592 0 0 1
6888 2136 4 0 -12.709627414912752 -6.4920409234237315 -15.642857662823948 0 0 1
3230 917 4 0 -12.77850351909027 -6.547992210466899 -15.246418342846287 0 0 0
1291 271 2 0 -11.025236132020499 -7.168203754626501 -15.491934770116412 0 0 0
2097 539 4 0 -11.27364000503221 -6.499276029216369 -15.31328485186696 0 0 0
1293 271 4 0 -11.280315705279206 -6.763061388468485 -15.624256800292311 0 0 0
1813 445 2 0 -10.968066230903322 -6.217557913253931 -16.08224890819063 0 0 0
1815 445 4 0 -11.056947377825303 -6.417904344784606 -15.63700856627854 0 0 0
528 106 3 0 -9.237876563210438 -6.56846386673396 -16.10494154340485 0 0 1
527 106 3 0 -8.990783206603423 -7.231126474479182 -16.4577023911377 0 0 1
526 106 1 0 -9.100296540491934 -6.768185453166206 -16.53134414873197 0 0 1
7780 2434 2 0 -7.85794363592631 -6.823213464284019 -16.560338127030303 0 0 1
7781 2434 4 0 -7.388313244545377 -6.954595841011334 -16.4720430502815 0 0 1
6496 2006 2 0 -6.676285060613586 -7.473457920178805 -16.58182091314773 0 0 1
1600 374 2 0 -7.251835526215137 -7.109686340984422 -15.672009165406411 0 0 0
1601 374 4 0 -7.28535292482913 -7.110631443414169 -15.205159247995967 0 0 0
1602 374 4 0 -7.223475210630509 -7.1258460414727915 -16.170201113301307 0 0 0
6497 2006 4 0 -7.029272659762048 -7.131644547102299 -16.51739748278619 0 0 1
7007 2176 4 0 -5.1406953802623665 -6.495228608862741 -15.667716669762969 0 0 1
8450 2657 4 0 -5.052180100884109 -6.834466937810662 -15.492703017986956 0 0 1
8449 2657 2 0 -5.005332396627268 -7.2077045612711075 -15.844017515612245 0 0 1
1395 305 4 0 -5.321441611611971 -6.605282972995778 -15.327025045721017 0 0 0
6581 2034 4 0 -4.965296704697635 -6.484819224575686 -15.30812625109454 0 0 1
7006 2176 2 0 -5.1700872477474205 -6.029467310748782 -15.89674983665247 0 0 1
6580 2034 2 0 -4.553067075658426 -6.35695232492604 -15.059809769063786 0 0 1
8499 2673 4 0 -1.6769492956779457 -6.196532152423057 -15.690641388357573 0 0 1
7160 2227 4 0 2.6908833277524513 -7.586904908372123 -15.110042062488422 0 0 1
2840 787 4 0 2.338155540040358 -7.418942743862264 -15.159443283019488 0 0 0
3406 976 2 0 8.094937751775554 -7.58447443579612 -16.481844886629347 0 0 0
3407 976 4 0 7.921721337278119 -7.563154930371379 -16.02234219784645 0 0 0
7558 2360 2 0 8.00100904558428 -7.463752403978852 -15.195296123960702 0 0 1
7559 2360 4 0 7.7890447235443405 -7.482469892136565 -15.642517308229401 0 0 1
8433 2651 4 0 10.23938201788183 -7.19409512712715 -15.587431931106503 0 0 1
8431 2651 2 0 9.915222399938099 -7.417708955466553 -15.276739912736037 0 0 1
6910 2144 2 0 10.584514605266438 -7.077193975472338 -16.33230411864438 0 0 1
6912 2144 4 0 10.552503931149078 -7.09687168081127 -15.827483977047743 0 0 1
2312 611 4 0 10.571934117060668 -7.00937197311205 -15.431460186773663 0 0 0
2311 611 2 0 11.002827830276168 -6.8068281450464605 -15.313828679350165 0 0 0
2313 611 4 0 11.460763228464167 -6.588396200191836 -15.19598497082629 0 0 0
1341 287 4 0 11.731869314819269 -6.456483304413966 -15.436040914191981 0 0 0
1740 420 4 0 11.850749463945562 -6.5542012631223905 -15.097081968881088 0 0 0
1339 287 2 0 11.989557068066325 -6.41105710004446 -15.875838324430743 0 0 0
1340 287 4 0 12.239524740872488 -6.3761294644490265 -16.286719195064986 0 0 0
7856 2459 4 0 15.04127787421034 -6.098634469785708 -16.360037569288288 0 0 1
7726 2416 2 0 -16.381695502042426 -4.6118965558905565 -16.259329951966297 0 0 1
2986 836 2 0 -15.540371660805457 -4.551639977716123 -15.224941255056569 0 0 0
3357 959 4 0 -13.864548207572556 -5.278013826652608 -15.55733857890183 0 0 0
2250 590 4 0 -14.087209274546947 -5.022701049377971 -15.371354734018581 0 0 0
6584 2035 4 0 -14.039944776912824 -4.96497983362617 -15.752243623972367 0 0 1
3355 959 2 0 -13.701887164421883 -5.738402977705759 -15.6380376981052 0 0 0
6113 1878 4 0 -13.732092943731857 -4.936972107826449 -15.508071024556598 0 0 1
2248 590 2 0 -14.488792921936984 -4.959681724884636 -15.081715727049819 0 0 0
6583 2035 2 0 -14.342450028599915 -4.875438327765941 -16.147090438112645 0 0 1
6585 2035 4 0 -14.62473589036857 -4.7953993468238325 -16.512057019226006 0 0 1
6886 2136 2 0 -12.480757342559679 -6.089160013211124 -15.830601229116972 0 0 1
6887 2136 4 0 -12.24115610355234 -5.673982800992851 -16.02201616252089 0 0 1
8459 2660 4 0 -11.998509960387663 -5.594716917088411 -15.718364857457802 0 0 1
8458 2660 2 0 -11.880949463541905 -5.161738148487675 -15.925501180086105 0 0 1
8460 2660 4 0 -11.763917144821587 -4.744403254151072 -16.140944086114406 0 0 1
6255 1925 4 0 -9.807139585355468 -5.0506858529289556 -15.967531904033983 0 0 1
7794 2438 4 0 -9.513236124761528 -4.891444641172099 -16.203881368789407 0 0 1
7792 2438 2 0 -9.016927181601226 -5.024479497783324 -16.297574531213424 0 0 1
1460 327 4 0 -14.14312643014286 -0.010765994539604912 -9.629493405912491 0 0 0
7118 2213 4 0 -8.309601632627356 -4.8862239584103655 -16.531245672618397 0 0 1
7793 2438 4 0 -8.527062863662948 -5.163344667286806 -16.384377288064467 0 0 1
1952 491 4 0 14.784630357550817 -0.024265783927237983 -10.93248478003292 0 0 0
7869 2463 4 0 -6.568588593629252 -4.86753181914032 -15.36741030179958 0 0 1
7867 2463 2 0 -6.849055082166835 -5.209083439353885 -15.195036375584644 0 0 1
6765 2095 4 0 -6.279243626901613 -4.92766360719749 -15.618793989362853 0 0 1
1865 462 4 0 -6.569739408875562 -4.727739692395826 -15.735034501704202 0 0 0
3000 840 4 0 -6.3371691532084755 -4.571020377805849 -15.477318214730754 0 0 0
1864 462 2 0 -6.826767819507455 -4.636654232467166 -16.16697210138624 0 0 0
6763 2095 2 0 -5.870895204963005 -5.107974740058449 -15.801714093060541 0 0 1
2099 540 4 0 -5.082371707482147 -5.266806142314436 -15.903727931459583 0 0 0
7008 2176 4 0 -5.201583964081133 -5.569566699425439 -16.12712033262451 0 0 1
6764 2095 4 0 -5.437954270431935 -5.299833965344582 -16.00295812377375 0 0 1
7121 2214 4 0 -5.156653478540245 -5.209758154080935 -16.272353043975794 0 0 1
2098 540 2 0 -4.664988439508718 -5.107543987977825 -15.664355978229537 0 0 0
2100 540 4 0 -4.2279174287855135 -4.954124800763434 -15.43266431674327 0 0 0
1421 314 4 0 -3.940219161071878 -4.696585793144706 -15.331446224698208 0 0 0
2667 729 4 0 -4.232162297493951 -4.805422958743862 -15.077217865977063 0 0 0
1420 314 2 0 -3.512424684030948 -4.501933857265153 -15.5262613453811 0 0 0
7765 2429 2 0 -1.3512806914874713 -4.754317399825009 -15.43507997119254 0 0 1
8497 2673 2 0 -1.3490738619456721 -5.795151529541303 -15.766652637565098 0 0 1
8498 2673 4 0 -1.029344943150635 -5.4102667598767775 -15.837220138026604 0 0 1
6650 2057 4 0 -0.7339663503398433 -5.227666972884429 -15.655869074049747 0 0 1
6649 2057 2 0 -0.30011022120628184 -5.125602168912503 -15.461512903591293 0 0 1
7766 2429 4 0 -1.0659771831599574 -5.03998801398722 -15.694195535572073 0 0 1
6470 1997 4 0 -0.8266657206147453 -5.130554576833474 -16.006055014309215 0 0 1
6469 1997 2 0 -1.0208011750640351 -5.05421924849684 -16.482074698335932 0 0 1
6651 2057 4 0 0.14578768384073784 -5.0103415704438925 -15.268675789191652 0 0 1
2557 693 2 0 0.8428736500510957 -5.446419925247453 -15.390122742089467 0 0 0
2559 693 4 0 1.2052870977282388 -5.735581528767516 -15.62050941449691 0 0 0
2558 693 4 0 0.49222747589250077 -5.175990333034082 -15.160927970022538 0 0 0
7260 2260 4 0 0.4447549766743906 -4.788069600317298 -15.153520343457144 0 0 1
6441 1987 4 0 1.5524038660228345 -5.897319245124824 -15.57301019784106 0 0 1
6439 1987 2 0 1.7434720742244012 -6.050528000975216 -15.14239472505583 0 0 1
3537 1019 4 0 7.000398079690967 -5.742422181613891 -15.23666951164029 0 0 0
3486 1002 4 0 7.005712289721431 -4.805154131596837 -16.178503942360745 0 0 0
3484 1002 2 0 7.027794148007632 -5.082289712279196 -15.75335614975504 0 0 0
3485 1002 4 0 7.042443761787498 -5.3525590626048025 -15.353900086345789 0 0 0
1442 321 4 0 7.360034530309421 -5.5783828595577205 -15.287545717702908 0 0 0
1655 392 4 0 7.087676501128292 -4.581871070286291 -16.486093581239878 0 0 0
1441 321 2 0 7.8120507251541005 -5.568735106451627 -15.067089383909408 0 0 0
3565 1029 2 0 8.56679613479268 -4.722005016035315 -15.049158130620413 0 0 0
1443 321 4 0 8.257059714861448 -5.559045888637191 -14.846859307117123 0 0 0
6095 1872 4 0 12.8746258472332 -4.762326333100075 -16.232427106417322 0 0 1
2042 521 4 0 12.593963419738698 -4.967744270569497 -16.04881974697957 0 0 0
2041 521 2 0 12.586271958772647 -4.887601590863322 -15.56678600707745 0 0 0
2084 535 4 0 12.669858164203125 -5.073463207297507 -16.402056393039622 0 0 0
6392 1971 4 0 12.513715636310861 -4.716188055488255 -16.373108002898693 0 0 1
6094 1872 2 0 13.355039369393008 -4.6727216440769945 -16.317688192345457 0 0 1
2083 535 2 0 12.507181446694958 -5.563261706986616 -16.444162126959156 0 0 0
2085 535 4 0 12.349409833390242 -6.037959860541459 -16.478972783340495 0 0 0
6166 1896 2 0 14.659911032546725 -4.661656695186969 -16.36546179336518 0 0 1
6096 1872 4 0 13.822622998585375 -4.577429578139427 -16.408953877404226 0 0 1
6168 1896 4 0 15.115876380328782 -4.816434989083704 -16.189361804769028 0 0 1
7855 2459 2 0 15.165829763852123 -5.617178075046802 -16.354145388691137 0 0 1
7857 2459 4 0 15.298718329929281 -5.110501485916851 -16.357394802327228 0 0 1
6491 2004 4 0 15.43370727898733 -4.948730734652683 -16.00376547921873 0 0 1
437 88 3 0 15.50252665435582 -4.785856780035838 -16.354438443807595 0 0 1
6490 2004 2 0 15.609544139674558 -4.765309226944265 -15.547441484048939 0 0 1
7727 2416 4 0 -16.140472999749193 -4.376672893129809 -15.88275736652084 0 0 1
2988 836 4 0 -15.846738852897062 -4.337827601779179 -15.601561630604804 0 0 0
8108 2543 4 0 -15.746526397069855 -4.286758976923614 -15.974722958975299 0 0 1
1634 385 4 0 -16.195328466978502 -4.20084461473746 -15.510993642081598 1 0 0
8107 2543 2 0 -15.333051937474167 -4.416858715893724 -16.271852833107918 0 0 1
1908 476 4 0 -15.982926305244575 -4.025146196257697 -15.81535897426048 0 0 0
1906 476 2 0 -16.122618869551143 -3.541739496688298 -15.91577655189982 0 0 0
1907 476 4 0 -16.269138877931212 -3.046377776847003 -16.01408786753168 0 0 0
8109 2543 4 0 -14.924957862815837 -4.5437621887729325 -16.545206261968804 0 0 1
6112 1878 2 0 -13.408988843156743 -4.590492415558445 -15.622436111815462 0 0 1
8101 2541 2 0 -13.543782595186581 -3.7448444259907636 -16.370761120067595 0 0 1
8102 2541 4 0 -13.300487802856933 -4.008828090406469 -16.002792988339333 0 0 1
6114 1878 4 0 -13.07508799298951 -4.2481710481482 -15.751822915558147 0 0 1
1289 270 4 0 -13.09857661811591 -3.8758685293365986 -15.684902816173697 0 0 0
6566 2029 4 0 -12.917303987498931 -4.037852466685004 -16.027665112467982 0 0 1
6565 2029 2 0 -12.444109121616709 -4.211667361159635 -16.087027960387793 0 0 1
1288 270 2 0 -13.139629442804347 -3.4455653319056623 -15.412031137316593 0 0 0
1290 270 4 0 -13.169777472763746 -3.0219232919703547 -15.147614583299028 0 0 0
8483 2668 4 0 -11.788649334469461 -4.529248120415693 -16.476048603774135 0 0 1
6567 2029 4 0 -11.976466772430266 -4.390133517644427 -16.148528344768323 0 0 1
6435 1985 4 0 -11.586347060814807 -4.397701386792795 -16.147901199634557 0 0 1