LAMMPS data file via write_data, version 4 Feb 2025, timestep = 1500000, units = lj

64 atoms
4 atom types
48 bonds
1 bond types
56 angles
2 angle types

-2.5 2.5 xlo xhi
-2.5 2.5 ylo yhi
-2.5 2.5 zlo zhi

Masses

1 1
2 1
3 0.1
4 0.1

Bond Coeffs # harmonic/omp

1 100 0.45

Angle Coeffs # harmonic/omp

1 100 180
2 100 109.471

Atoms # full

61 15 4 0 -0.6602480718611805 -1.0833434791727599 -2.0230073082837654 1 0 2
59 15 2 0 -0.6319138830112723 -1.1401913319572683 -1.5851892569036827 1 0 2
60 15 4 0 -0.6019866919028851 -1.202270495331544 -1.1243628525973461 1 0 2
24 5 3 0 -0.9757267326755438 1.9564180570692926 -2.1520176819015466 1 0 0
27 6 3 0 -0.4765397053919423 -0.965889591065561 -2.3544533745012965 1 1 1
23 5 3 0 -1.504623067825387 1.4870073656824916 -1.8656045580061378 1 0 0
28 6 3 0 -0.10385548452966784 -0.32974370855485924 -2.3153686885870357 1 1 1
45 10 4 0 -1.1320536167029438 2.133927407940766 -2.461364670591122 0 1 1
21 5 1 0 -1.2197089802693895 1.8065468001012872 -1.7508550830152374 1 0 0
25 5 3 0 -0.921972963339261 1.6363725882398739 -1.4412705994443036 1 0 0
56 14 2 0 -0.35743643559779903 1.1955233502934108 -1.1494703928020815 1 -1 1
58 14 4 0 -0.6591540074822521 1.3522372865954604 -1.4249627145997836 1 -1 1
48 11 4 0 -1.3278527550688626 2.475061027320783 -1.2912617950816159 0 0 1
22 5 3 0 -1.4529739880137207 2.175488805721208 -1.5494895826927269 1 0 0
57 14 4 0 -0.042520277995219416 1.0251334961390888 -0.8558061112443662 1 -1 1
47 11 2 0 -1.092009014646069 -2.3795610620234013 -0.9285911297424359 0 1 1
30 6 3 0 -0.8230645790842172 -0.3259514553538043 -2.422359522977625 1 1 1
1 1 1 0 -0.49420246893470476 -1.580227046492883 -0.38645498843049386 0 1 0
3 1 3 0 -0.556877102208406 -1.2565995726584125 -0.7041018903422485 0 1 0
43 9 4 0 -1.1134930393867097 -1.7977849304156934 0.043842714695111945 0 -1 0
5 1 3 0 -0.8137067031084558 -1.5245340280218138 -0.04420459724750655 0 1 0
4 1 3 0 -0.5468528961503387 -1.9964225069702266 -0.5781425083501305 0 1 0
41 9 2 0 -1.286753606042965 -2.057706724960659 0.35749698831903537 0 -1 0
49 11 4 0 -0.8672831630137076 -2.239748080517381 -0.5875067840825589 0 1 1
2 1 3 0 -0.08222914797983047 -1.550602717249399 -0.21973058893694358 0 1 0
64 16 4 0 -0.20449936713373626 1.4499535477671457 0.4350162291760293 1 1 1
62 16 2 0 -0.04069415924219948 1.7331313014352616 0.7939582550516064 1 1 1
39 8 3 0 -0.04797097493709166 0.9639830727788644 -0.4820794022290277 1 -1 1
42 9 4 0 -1.4693574731938648 -2.3258942644699516 0.6866769272558181 0 -1 0
33 7 3 0 -1.4441316745779675 2.4717733771779584 1.0224935766231662 1 0 0
17 4 3 0 -0.34589085570334605 -2.4348574951929374 1.6876131321852563 1 1 0
18 4 3 0 -0.03285980732960388 -2.0171685130460237 1.2028937870387122 1 1 0
46 10 4 0 -0.6236140449829266 2.307852374566009 1.8084419866695551 0 1 0
31 7 1 0 -1.8623820262821682 2.4447456897683164 1.2209195994936541 1 0 0
35 7 3 0 -2.027137012007022 -2.1439518669867708 1.2739622037924956 1 1 0
50 12 2 0 -2.409780487114494 1.7086564577260446 1.8808545466698332 1 -1 0
44 10 2 0 -0.8756983549981133 2.2169079281287165 2.176881476405733 0 1 0
32 7 3 0 -1.8176014031792456 2.224816135022141 1.648773808540582 1 0 0
52 12 4 0 -2.047451904085454 1.975664748837032 1.8936735834726084 1 -1 0
29 6 3 0 -0.3719585940722234 -0.5413556468014074 2.0282647923191464 1 1 0
26 6 1 0 -0.44782790191621713 -0.5358632683524334 2.4868483988709587 1 1 0
34 7 3 0 -2.131535580936251 2.2010518082589194 0.9505139355895907 1 0 0
10 2 3 0 1.1882689034672194 -1.5511011418421985 -2.159543963811795 -1 -1 2
6 2 1 0 1.5155112332160996 -1.662251085424486 -2.4276381611426348 -1 -1 2
9 2 3 0 1.8526370000632297 -1.8242688127845297 -2.182813617128699 -1 -1 2
53 13 2 0 0.1390331796500086 -1.845186031417454 0.486958965494824 1 1 1
55 13 4 0 0.1435290037151307 -1.6314969496537095 0.09389510928036218 1 1 1
37 8 3 0 0.416939423528194 0.6906140245950503 0.04994323572980435 1 -1 1
38 8 3 0 0.5833131438278131 1.3281039281771247 -0.3000287567306862 1 -1 1
36 8 1 0 0.24536201687375325 1.0812386797690483 -0.13501379485106796 1 -1 1
40 8 3 0 0.03879373684737096 1.2991882990179913 0.1673536190043815 1 -1 1
54 13 4 0 0.1357964401508246 -2.0592519248718304 0.8594339652083296 1 1 1
20 4 3 0 0.20786437279220604 2.311690882230098 1.3141838851518306 1 0 0
8 2 3 0 1.3747925489020754 -1.9606987397452975 2.292236653517813 -1 -1 1
19 4 3 0 0.3054172620766386 -2.1852405737183394 1.8094815856673325 1 1 0
63 16 4 0 0.1075464691744991 1.9882445758388219 1.132285269569388 1 1 1
7 2 3 0 1.6597835856985652 -1.2837028034792177 2.337070805471192 -1 -1 1
15 3 3 0 1.5304217643586342 1.4536643194997245 0.9797443087051765 -1 -3 0
51 12 4 0 2.2219674200210826 1.4415823524555258 1.8586584757813702 0 -1 0
11 3 1 0 1.6146038670219927 1.3803206350321766 1.439630366995554 -1 -3 0
12 3 3 0 1.6856051537068066 0.9207743062603362 1.517314450918039 -1 -3 0
13 3 3 0 1.2647910174353747 1.5233855073708702 1.6768961992466718 -1 -3 0
14 3 3 0 1.982942977532746 1.610164490464335 1.553989875930343 -1 -3 0
16 4 1 0 0.03615049487606878 -2.3269421527652567 1.5055233647441946 1 1 0

Velocities

61 -1.3239223510307332 -0.40487339097655645 -1.3838085034785903
59 -0.08883515501317736 -0.20781198695855724 0.1519403885014921
60 0.25433765106428263 -0.16398133586426863 -1.6637316959461557
24 0.6289495285043968 -0.04069111425277225 -0.6788958298175715
27 0.7457596377967971 -0.3039856351394855 1.1092005781156267
23 0.6117366608518531 0.8190668434963726 -0.5981442554578333
28 0.45205711725593545 -0.40741501277847075 -0.04923677249309865
45 0.6047641370417454 -1.0762413875492196 -0.9384536652077398
21 0.1357033723600474 0.031868493820046015 -0.03803723804020532
25 -0.09874672902270454 0.9355138334320379 0.598752147232891
56 0.2447910513560256 0.018126260708055977 0.15984257576106561
58 -0.6455385754362943 0.024498151742827184 -0.5563744666773405
48 1.104619076756287 0.7851766908705997 0.4259258909247676
22 -0.10034806355815581 -0.4882474272397523 -0.10169039545691147
57 0.502989259352234 0.8627786126168566 -1.1169816623176172
47 -0.396003781160898 -0.08808487625982549 -0.06315915935033273
30 -0.28779792483577443 0.24342698847745828 -0.11185548982058016
1 0.29034390155673956 -0.23196904314166647 0.08386217137036411
3 0.793820752252301 0.9631723909914096 -0.3244359849893861
43 -1.3932411902337127 -1.4247052100783184 -0.6315504243048259
5 -0.5933560205106613 0.2971321826190988 0.7776686670398738
4 -2.2553418165767942 -0.026742200822182816 0.045718708828498565
41 -0.27910298118705723 -0.05542177760683001 0.07900198461976235
49 -0.4372070973708113 0.13453110347041597 0.0134657387613406
2 0.2021283865214479 0.9478472023075862 0.0713384391158487
64 -0.7548655323593768 -0.34570018713909784 -0.9150037704243955
62 -0.08484014423744755 0.02156183521379809 -0.01856100911375147
39 -0.21715830478866752 0.18122902744878439 0.5396252839383351
42 -1.5019985951776431 1.027579989229874 -0.37477075371820195
33 0.7159137520694605 -0.4639540356698829 -0.44868193350381064
17 0.1647666934090608 -0.8809339193101839 -1.3626417414943306
18 -0.5156405967919612 -0.7114692434311437 -0.8685401612595892
46 -1.2595594720970367 0.07373935924180385 -0.006693189917312714
31 -0.29934412630309465 -0.014408134172010253 -0.14618947418896477
35 0.39473452998355485 -0.5464855434224161 0.838288275435581
50 -0.3725781977398144 0.41852821300528253 -0.12376102376695244
44 -0.23363669259788114 -0.1364299324077456 -0.12231141835381397
32 0.4319774539498735 -0.37706312943937 -0.5106921696067829
52 0.2580147136309864 0.8798571279137964 1.2717639448189428
29 -0.6127158635640079 0.0008323564573936293 0.04842411919372951
26 0.18968720973676773 0.38038084167067526 0.04670602339503113
34 0.5834154481152886 0.24312246586575875 1.0450799876744876
10 0.02653652494269939 -0.01150726681479218 -0.6124854872011188
6 -0.11484903778680063 -0.09728919191032516 0.27681774149034316
9 -0.37834697732906025 -1.0133661352691792 -0.000144273760584665
53 0.02944074070510886 -0.16227865646625786 0.1862472114511064
55 1.0324992710387555 -0.028402597692711126 0.1491120456963771
37 0.8808962314728792 0.8260653342850942 -0.7691565992571169
38 0.7153059477491243 0.26722760781066585 -0.31186645303995814
36 -0.5359663858857082 -0.04274788525630279 0.06718138710209905
40 -0.033980374496066425 0.2757197175900131 -0.015883131049124973
54 -0.08989048914877745 0.011888295186675397 0.7811335766083464
20 -0.07852284994590569 -1.1579425074710563 0.8042406870865966
8 -1.1254682752430885 0.9315030558883411 0.668034628807966
19 -0.9236880663803677 0.5592521495361339 0.36819672498171835
63 -0.22687369690902293 0.22659816510344558 0.668353372929486
7 -0.39941954123880663 -0.19421935001955803 0.2965502761332953
15 0.013655037781229264 0.7665930559033091 0.2821732174759352
51 -0.05918136975392249 0.7725736249641457 -0.19589431456679623
11 -0.38873413870335316 -0.03487038485929144 0.0997493904278643
12 -0.28198491037685275 0.603611529352894 0.19434434769792372
13 -0.31703292781841014 -0.5207154092808819 1.3351095497797523
14 0.9243809198674137 0.016967347246284275 -0.6566115616147586
16 0.22030589312666699 -0.20406915430116931 0.02635390222941561

Bonds

1 1 59 60
2 1 59 61
3 1 21 22
4 1 21 23
5 1 21 24
6 1 21 25
7 1 56 57
8 1 56 58
9 1 47 48
10 1 47 49
11 1 1 2
12 1 1 3
13 1 1 4
14 1 1 5
15 1 41 42
16 1 41 43
17 1 62 63
18 1 62 64
19 1 31 32
20 1 31 33
21 1 31 34
22 1 31 35
23 1 50 51
24 1 50 52
25 1 44 45
26 1 44 46
27 1 26 27
28 1 26 28
29 1 26 29
30 1 26 30
31 1 6 7
32 1 6 8
33 1 6 9
34 1 6 10
35 1 53 54
36 1 53 55
37 1 36 37
38 1 36 38
39 1 36 39
40 1 36 40
41 1 11 12
42 1 11 13
43 1 11 14
44 1 11 15
45 1 16 17
46 1 16 18
47 1 16 19
48 1 16 20

Angles

1 1 60 59 61
2 2 22 21 23
3 2 22 21 24
4 2 22 21 25
5 2 23 21 24
6 2 23 21 25
7 2 24 21 25
8 1 57 56 58
9 1 48 47 49
10 2 2 1 3
11 2 2 1 4
12 2 2 1 5
13 2 3 1 4
14 2 3 1 5
15 2 4 1 5
16 1 42 41 43
17 1 63 62 64
18 2 32 31 33
19 2 32 31 34
20 2 32 31 35
21 2 33 31 34
22 2 33 31 35
23 2 34 31 35
24 1 51 50 52
25 1 45 44 46
26 2 27 26 28
27 2 27 26 29
28 2 27 26 30
29 2 28 26 29
30 2 28 26 30
31 2 29 26 30
32 2 7 6 8
33 2 7 6 9
34 2 7 6 10
35 2 8 6 9
36 2 8 6 10
37 2 9 6 10
38 1 54 53 55
39 2 37 36 38
40 2 37 36 39
41 2 37 36 40
42 2 38 36 39
43 2 38 36 40
44 2 39 36 40
45 2 12 11 13
46 2 12 11 14
47 2 12 11 15
48 2 13 11 14
49 2 13 11 15
50 2 14 11 15
51 2 17 16 18
52 2 17 16 19
53 2 17 16 20
54 2 18 16 19
55 2 18 16 20
56 2 19 16 20
