LAMMPS data file via write_data, version 4 Feb 2025, timestep = 150, units = lj

40 atoms
4 atom types
30 bonds
1 bond types
35 angles
2 angle types

-2.265589 2.265589 xlo xhi
-2.265589 2.265589 ylo yhi
-2.265589 2.265589 zlo zhi

Masses

1 1
2 1
3 0.1
4 0.1

Bond Coeffs # harmonic/omp

1 100 0.45

Angle Coeffs # harmonic/omp

1 100 180
2 100 109.471

Atoms # full

10 2 3 0 -0.8227399840142802 -0.07967748114245721 -1.3772187643528042 0 0 0
6 2 1 0 -0.5694056117941897 -0.4260352506729992 -1.2192586348592984 0 0 0
7 2 3 0 -0.12433020819854157 -0.3696669237167236 -1.356053585288668 0 0 0
8 2 3 0 -0.7317032830742123 -0.8163193863382188 -1.3847584870141145 0 0 0
9 2 3 0 -0.5873246559278775 -0.434591765548773 -0.7582685592315082 0 0 0
1 1 1 0 1.745252336289433 -0.625720299513792 -1.4492183251797601 0 0 0
2 1 3 0 2.0456711039029645 -0.2991414551319944 -1.3454228971891597 0 0 0
3 1 3 0 1.6664210606633572 -0.8872215859737698 -1.0743433421228645 0 0 0
4 1 3 0 1.34446355605676 -0.42881897416274595 -1.5867165732501936 0 0 0
5 1 3 0 1.9156657519196751 -0.8833725281357843 -1.784712985696186 0 0 0
26 6 2 0 -1.23521227253896 -2.1774486370143404 -0.13921162635764484 0 0 0
27 6 4 0 -1.6157012692499064 -1.9167402292322424 0.044529599589039126 0 0 0
14 3 3 0 1.197287957091183 -1.9023077316710684 0.584079579997947 0 0 0
20 4 3 0 -1.827973211500375 -1.158121879388496 1.0120119485504802 0 0 0
19 4 3 0 -1.3285473187136185 -1.1042589909102136 1.5588970940781999 0 0 0
18 4 3 0 -1.5471669171997726 -0.49035359853380056 1.1805411542465287 0 0 0
16 4 1 0 -1.6829699544194257 -0.898139511029169 1.3511088341532314 0 0 0
17 4 3 0 -2.0176910026618864 -0.8355791005351028 1.6488397215900328 0 0 0
11 3 1 0 1.3941910528626442 -2.2447990878988797 0.8228026288276848 0 0 0
12 3 3 0 1.4475637896091649 -2.1196149211957738 1.2598985881783111 0 0 0
32 8 2 0 -0.8633471381520574 1.8375643033543443 -1.6304653126559694 0 0 0
34 8 4 0 -1.2643458606257303 1.7122400340711401 -1.8671301831423095 0 0 0
39 10 4 0 -1.996470178588418 0.4959552629892139 -2.1341175354331496 0 0 1
31 7 4 0 0.31264283902957635 0.5463819389481892 -1.3661138336179992 0 0 0
33 8 4 0 -0.4564254015504141 1.9639498035022034 -1.3860023364443075 0 0 0
29 7 2 0 0.7387293016009928 0.5171940978361467 -1.1323622140839262 0 0 0
30 7 4 0 1.1787833911000156 0.48730877583403 -0.891148123112596 0 0 0
28 6 4 0 -0.8504182096644946 2.0960652940405855 -0.32233464639742815 0 -1 0
35 9 2 0 -0.19860602616124945 0.8572617154104996 0.05156408926001843 0 0 0
36 9 4 0 -0.5543878693180473 0.7108489000525382 0.35642040625758353 0 0 0
37 9 4 0 0.15996452402092576 1.0017625743259164 -0.2552858072651958 0 0 0
21 5 1 0 1.861676538577893 0.4840495360611774 0.503921090642752 0 0 0
25 5 3 0 2.0885311023130506 0.8679918486778244 0.40473999212670275 0 0 0
23 5 3 0 1.940648304723434 0.16413053456933913 0.1720757705980498 0 0 0
24 5 3 0 1.4036953842323792 0.5772384542709603 0.5256782232446162 0 0 0
15 3 3 0 1.7988329062371506 2.1886596592753205 0.6423427954256482 0 -1 0
38 10 2 0 -1.6643325515674672 0.709076287493621 2.100443151857356 0 0 0
40 10 4 0 -1.3334063252803845 0.9237873697353596 1.8043560077403913 0 0 0
13 3 3 0 1.1265373984095777 1.9165162580053905 0.8076925066040532 0 -1 0
22 5 3 0 1.998860080435414 0.3240841097505376 0.9093660017730181 0 0 0

Velocities

10 0.6308614326335835 -0.04255779729290425 -0.2726656309683838
6 -0.26093367420978614 -0.08952905937614751 0.05616074649067046
7 0.0128865930848071 -0.21025211792389997 0.2960545851469579
8 0.08316129595567666 -0.1944020526247128 -0.37065870193449957
9 0.45464399635529185 -0.051582124705415414 -0.3217859726253734
1 -0.25746712528059124 -0.11653923438694383 0.03177550598165464
2 -0.27304238382238605 -0.36104884059816467 0.16222147443080834
3 0.36131676541810803 0.31129227851231506 -0.4737059428157922
4 0.39619983726651986 0.3892795745773641 0.2002267700432042
5 0.8492918700503377 0.1842952363652179 -0.013046113320133206
26 -0.11809423343116245 0.1609726289287092 0.009769565345919922
27 0.8817077209914858 -0.617218305093276 -0.1467137463879837
14 -0.27845998742403294 -0.07208242023009005 0.0457787636890071
20 -0.22560188148749521 0.24694823611807298 0.2573567176010906
19 -0.5402994927472979 -0.02268375118556023 0.7718818655757166
18 0.41919392896992325 -0.0976400211044765 0.5731856794442205
16 0.035628510299882635 -0.0854903607971001 0.006686443213214743
17 0.19011658431522496 0.2730654741159684 -0.27778898261692214
11 -0.12697362205910623 -0.1252664689607901 -0.14915922411995525
12 0.30289002452374847 0.7726532228425573 -0.334407294551796
32 -0.09144751320967433 0.023950947378089622 0.11575340847923878
34 0.5596887162660252 0.302795753953575 1.003670689330212
39 0.44634030538028185 0.5724823787750912 -0.5654541294238054
31 0.5818244604253848 -0.6890284435464303 0.7995795258158808
33 -1.093233832467018 -0.3595411870589708 0.005287423446163245
29 -0.11324897022195954 0.026362475624351782 0.13276731031606775
30 -1.1486607073596884 0.8433008807454223 0.05589618383474358
28 -0.9668313199632234 0.8414945451112995 -0.21261840994691747
35 0.0378850322248525 0.060100322511949904 0.002868808795973124
36 0.8366708593545946 -0.0762382679817945 -0.7025840048935791
37 -0.4244955433310093 -0.3541741672105332 0.28190442850850134
21 -0.0032567932822430918 0.2592526594043673 -0.017747679262621486
25 0.7198290942948335 0.25959693351253416 0.9611948991904814
23 0.2850405452559098 -0.0379625725906443 0.8215303107085596
24 0.2900246988784253 -0.13903453539892877 0.28768929834815826
15 0.019882981599919195 0.0688962248841724 0.7971674169083837
38 0.03622252824611797 0.04314319822336715 -0.01354238154043387
40 -0.7306225670846883 -0.2798519694314934 0.45084264660099815
13 0.06051657874057896 0.30004129567983534 0.6853737003089269
22 -0.3684671706894473 0.24600873547295074 -0.06014038470011235

Bonds

1 1 6 7
2 1 6 8
3 1 6 9
4 1 6 10
5 1 1 2
6 1 1 3
7 1 1 4
8 1 1 5
9 1 26 27
10 1 26 28
11 1 16 17
12 1 16 18
13 1 16 19
14 1 16 20
15 1 11 12
16 1 11 13
17 1 11 14
18 1 11 15
19 1 32 33
20 1 32 34
21 1 29 30
22 1 29 31
23 1 35 36
24 1 35 37
25 1 21 22
26 1 21 23
27 1 21 24
28 1 21 25
29 1 38 39
30 1 38 40

Angles

1 2 7 6 8
2 2 7 6 9
3 2 7 6 10
4 2 8 6 9
5 2 8 6 10
6 2 9 6 10
7 2 2 1 3
8 2 2 1 4
9 2 2 1 5
10 2 3 1 4
11 2 3 1 5
12 2 4 1 5
13 1 27 26 28
14 2 17 16 18
15 2 17 16 19
16 2 17 16 20
17 2 18 16 19
18 2 18 16 20
19 2 19 16 20
20 2 12 11 13
21 2 12 11 14
22 2 12 11 15
23 2 13 11 14
24 2 13 11 15
25 2 14 11 15
26 1 33 32 34
27 1 30 29 31
28 1 36 35 37
29 2 22 21 23
30 2 22 21 24
31 2 22 21 25
32 2 23 21 24
33 2 23 21 25
34 2 24 21 25
35 1 39 38 40
