LAMMPS data file via write_data, version 4 Feb 2025, timestep = 4000000, units = lj

2000 atoms
4 atom types
1500 bonds
1 bond types
1750 angles
2 angle types

-8.346487 8.346487 xlo xhi
-8.346487 8.346487 ylo yhi
-8.346487 8.346487 zlo zhi
8.526512829121202e-14 0 0 xy xz yz

Masses

1 1
2 1
3 0.1
4 0.1

Bond Coeffs # harmonic/omp

1 100 0.45

Angle Coeffs # harmonic/omp

1 100 180
2 100 109.471

Atoms # full

1659 387 2 0 -0.5808243117053014 -7.544450723464953 -7.726515392937624 28 1 0
1660 387 4 0 -0.15452983067822856 -7.69443677605701 -7.651623193792947 28 1 0
628 126 3 0 0.1473253533863712 -7.503161109784046 -7.466036779680666 30 1 0
627 126 3 0 0.705712502014098 -7.990036879202113 -7.457247310594209 30 1 0
1885 462 4 0 1.1252309122562814 -7.569177575355057 -8.200806221119265 27 1 1
681 137 1 0 1.7883750989819749 -7.837113718365715 -8.061494845504662 28 1 0
682 137 3 0 2.0627825544312035 -7.610910334940928 -7.762145021629115 28 1 0
685 137 3 0 1.540427741722075 -7.554842050455338 -8.257886952742405 28 1 0
684 137 3 0 1.529372447067331 -8.135716749775517 -7.839615661002967 28 1 0
1661 387 4 0 -0.9854558731285605 -7.402135497191515 -7.794886033734511 28 1 0
1073 215 3 0 -1.0197458263900545 -6.995724372029275 -7.709435497790467 27 1 1
213 43 3 0 3.025072390032653 -6.701279441040757 -7.608939490887368 13 0 0
639 128 3 0 -8.096766477074214 -5.693241346856095 -8.17915993470267 27 1 0
419 84 3 0 -4.96669321187567 -6.257400972068827 -7.514134569305582 6 0 0
1706 402 4 0 -1.189579150856729 -6.15936299107005 -8.015113202474755 30 1 0
1074 215 3 0 -1.1807179865252495 -6.264780385077939 -7.620913931195852 27 1 1
1089 218 3 0 0.2647574138494626 -6.43435933486451 -7.741631180253085 28 1 1
1086 218 1 0 0.40971051565014527 -6.356870789691498 -8.156921226939593 28 1 1
1087 218 3 0 0.7893132305655026 -6.086009490660484 -8.137482339101135 28 1 1
1525 342 4 0 1.191238125331683 -6.151330418406026 -8.208600286745135 8 0 1
1739 413 4 0 2.0957614929026285 -5.901861094014362 -7.479786202724603 28 1 0
1738 413 4 0 2.8373502916546336 -6.363682460405361 -7.716524658426773 28 1 0
1737 413 2 0 2.4604429178166694 -6.126716881744547 -7.592520144084947 28 1 0
212 43 3 0 3.7085402496522075 -6.439736963790766 -7.457111963837565 13 0 0
1736 412 4 0 4.0165949043731555 -6.3365888000420085 -7.676525683472319 29 1 0
1734 412 2 0 4.354541162241457 -6.0447407189143405 -7.596956013584346 29 1 0
1735 412 4 0 4.687771034802443 -5.7520008844881145 -7.528543344233069 29 1 0
390 78 3 0 5.085592727218756 -5.705307650598383 -7.544408015368646 8 0 0
47 10 3 0 -0.8380117254988582 -4.763317934027347 -8.03639162560953 10 0 0
387 78 3 0 4.919333479219336 -5.01051271403007 -7.7980506046174645 8 0 0
386 78 1 0 5.154996135307121 -5.254892406607116 -7.475649938021793 8 0 0
388 78 3 0 5.603248810335987 -5.155468471040075 -7.509116779418197 8 0 0
1465 322 4 0 5.986431136928635 -5.26232324415464 -7.578575375765446 10 0 0
49 10 3 0 -1.5523151861775624 -4.532521488013856 -7.9043345371528275 10 0 0
46 10 1 0 -1.1425670056691644 -4.601836027423627 -7.718812921595437 10 0 0
48 10 3 0 -0.9980845122485427 -4.216482753186249 -7.550498769768386 10 0 0
1378 293 4 0 -0.8460748093327295 -3.8423490752121365 -7.468574196418154 10 0 0
1020 204 3 0 -2.1551705608566856 -3.0334405451418958 -7.772939354357828 9 0 0
1243 249 3 0 -6.463384149654854 -2.0986864896061554 -8.176843017756553 32 1 1
727 146 3 0 -2.8403687018653825 -1.9039574474193772 -7.567585502932074 22 0 0
1970 490 4 0 -2.8570344925607376 -2.008517838407389 -7.93411582915284 23 0 1
513 103 3 0 4.100534495061531 -2.092003662297266 -8.299516432046426 13 0 1
1244 249 3 0 -6.842981052874673 -1.5686961494232206 -7.84803587307924 32 1 1
1245 249 3 0 -6.202472159863829 -1.4227492600111633 -8.163789386368707 32 1 1
1242 249 3 0 -6.2298532070814385 -1.8178903685377232 -7.546848106593583 32 1 1
1241 249 1 0 -6.434765944686049 -1.7246843124625606 -7.933294173235139 32 1 1
1968 490 2 0 -2.786513943431099 -1.74678776070267 -8.301868986977585 23 0 1
1806 436 2 0 -1.7031192698534703 -1.2323101736981412 -7.875947925561948 22 0 1
1807 436 4 0 -1.4911892743629798 -1.0443879051505798 -8.238013260079072 22 0 1
1808 436 4 0 -1.920115569195067 -1.4319868592960638 -7.5107008097637715 22 0 1
858 172 3 0 0.7949814884361768 -1.4279789355238721 -8.32320150068945 16 0 0
1371 291 2 0 3.0292996430257233 -1.4373608400066704 -7.601457328453536 10 0 1
1373 291 4 0 3.4093073040375828 -1.3199949415100143 -7.844480690517771 10 0 1
512 103 3 0 3.584138355436945 -1.5642397193030755 -8.115180324583568 13 0 1
515 103 3 0 4.207192831869774 -1.6766678818187586 -7.7165492239075055 13 0 1
511 103 1 0 4.047855416923866 -1.6827979828244999 -8.125243143870764 13 0 1
1429 310 4 0 4.647292590777424 -1.319138422730445 -8.260693432169736 12 0 1
1428 310 2 0 5.080432153850291 -1.2197203040648557 -8.207194462336291 12 0 1
1430 310 4 0 5.54221737163885 -1.1144865438437224 -8.156871234584148 12 0 1
415 83 3 0 6.385900131538296 -1.0728751358056101 -7.856716363391431 12 0 1
411 83 1 0 6.164153260457434 -1.028192869103842 -8.283697825629273 12 0 1
599 120 3 0 6.87546053425635 -1.1639739277133483 -7.450755619281371 17 0 1
1387 296 4 0 -4.370664314698852 -0.45681678762205014 -8.341214607055576 18 0 0
1386 296 2 0 -3.9298098773301593 -0.33298307152952233 -8.295194843644975 18 0 0
1388 296 4 0 -3.519985814056839 -0.21515904239480044 -8.247574574760897 18 0 0
520 104 3 0 -3.1898290931141258 -0.2984537321505609 -8.022910879128526 16 0 1
516 104 1 0 -2.8570041363325878 -0.06634851118162288 -8.165857075075046 16 0 1
517 104 3 0 -2.5373189315293088 -0.326327567972891 -8.260398701734358 16 0 1
1255 252 4 0 5.12846902923668 -0.6862203562984037 -7.453064051753262 24 0 0
414 83 3 0 5.801256266702595 -0.8232976281002706 -8.226991416977242 12 0 1
626 126 1 0 0.4128255659071627 -7.73487127078442 -7.208632086943486 30 1 0
629 126 3 0 0.16683993353834303 -8.019731301828962 -6.9534214046555896 30 1 0
1286 262 4 0 0.12140991256918632 -8.274201739191724 -6.643035325339107 8 0 0
630 126 3 0 0.6211097055827928 -7.489306954440874 -6.9702669710687255 30 1 0
1964 488 4 0 -2.3580688886277352 -6.662078416343927 -6.53540825366854 26 1 1
1962 488 2 0 -2.0364038458872393 -6.870657346336786 -6.772900940881515 26 1 1
1963 488 4 0 -1.7072981776647378 -7.070787248028233 -7.0296997165668085 26 1 1
1072 215 3 0 -1.4700394726878638 -6.788008819965998 -7.145146131545959 27 1 1
1071 215 1 0 -1.098235779214641 -6.664832019023652 -7.399432364307802 27 1 1
1075 215 3 0 -0.7371323621913355 -6.62915588253332 -7.120805645485205 27 1 1
1870 457 4 0 -0.6863914214257294 -6.745312074655852 -6.68997548285996 27 1 1
1958 486 4 0 -0.36941049393870085 -6.618711411904569 -6.891319519802527 28 1 1
1580 360 4 0 0.987968659408164 -7.399350469279942 -6.847944508760116 9 0 1
1578 360 2 0 1.1072322734095543 -7.14512222354702 -6.525115835569578 9 0 1
214 43 3 0 3.5143043313008313 -7.135512346270564 -7.291488261546576 13 0 0
211 43 1 0 3.3709189524087293 -6.721867093417258 -7.313741851564731 13 0 0
215 43 3 0 3.2262000015605885 -6.587514083430227 -6.891995478846535 13 0 0
1375 292 4 0 3.352695550105814 -6.761458543430952 -6.5653740853544 8 0 0
420 84 3 0 -5.668547012808161 -6.408613162082894 -7.2565676704949515 6 0 0
418 84 3 0 -5.373573928052275 -5.723067388541139 -7.2178053716416954 6 0 0
416 84 1 0 -5.273418751076253 -6.148727435868715 -7.187379352757834 6 0 0
417 84 3 0 -5.1079627180518585 -6.23143730635538 -6.796818094075284 6 0 0
474 95 3 0 -3.627622453680446 -5.874213473396392 -7.0847966444731405 28 1 1
471 95 1 0 -3.8383651365894327 -5.647516160214956 -6.719031140460383 28 1 1
1956 486 2 0 0.006367379524959915 -6.458597047570201 -7.145034574721752 28 1 1
1957 486 4 0 0.356033584891156 -6.324044045992719 -7.366786780778622 28 1 1
689 138 3 0 2.0470505678389674 -5.80869224997139 -7.098605074566782 9 0 0
472 95 3 0 -4.213458929615769 -5.441702132600081 -6.856629149355781 28 1 1
475 95 3 0 -3.5542852921647423 -5.327334650779135 -6.548270239252403 28 1 1
1330 277 4 0 -0.9902573939905395 -4.8217464700558335 -7.0375957125053645 9 0 0
50 10 3 0 -1.183791227736374 -4.910018125243251 -7.376953752346745 10 0 0
1329 277 2 0 -1.0515698326816851 -4.714018667005579 -6.6010349750545485 9 0 0
688 138 3 0 1.6386213755540826 -5.418222914387755 -6.617037061130751 9 0 0
687 138 3 0 1.7117542899324896 -5.190417653197831 -7.283767161028299 9 0 0
686 138 1 0 1.9182009207438746 -5.38642097988552 -6.964266767787378 9 0 0
690 138 3 0 2.283779211144015 -5.14243629052692 -6.856071478213257 9 0 0
1553 351 4 0 2.398387875635205 -4.7502173654182025 -6.774151835541807 9 0 1
1551 351 2 0 2.8439727907629653 -4.7080199026879965 -6.703961642670113 9 0 1
1552 351 4 0 3.2700840418173946 -4.657832080888241 -6.6335644704486345 9 0 1
723 145 3 0 3.657396994947442 -4.646356372411447 -6.776415949335721 29 1 0
389 78 3 0 5.012528191799886 -5.147228684762537 -7.074627528509621 8 0 0
1258 253 4 0 5.025916810338119 -4.728980719636413 -6.984975647127584 8 0 0
1464 322 2 0 6.233572044426088 -5.004357332051747 -7.281254006101047 10 0 0
1466 322 4 0 6.467608407868543 -4.7462725209394705 -6.989776878691904 10 0 0
725 145 3 0 4.310255563395035 -4.431845674647898 -7.110517144750909 29 1 0
721 145 1 0 4.101016024267359 -4.458438663890089 -6.716099704171061 29 1 0
724 145 3 0 4.062252315594337 -4.055694840234905 -6.533897677118814 29 1 0
1257 253 2 0 5.19131449276264 -4.485609815265883 -6.637621923087007 8 0 0
315 63 3 0 6.473010833932092 -4.370370825487951 -6.848232977818395 13 0 1
313 63 3 0 7.14506797626154 -4.165143955411605 -6.58428151558882 13 0 1
1017 204 3 0 -2.3639064268386196 -2.834525130314212 -7.064572104396483 9 0 0
1019 204 3 0 -1.9846253764462958 -3.4853588458667915 -7.174882212773948 9 0 0
1016 204 1 0 -2.0367039020044633 -3.039142916930774 -7.30700069612231 9 0 0
1018 204 3 0 -1.6090501929610195 -2.799913045598152 -7.242577746439744 9 0 0
1377 293 2 0 -0.6351810107768765 -3.442341589710626 -7.395089342024695 10 0 0
1379 293 4 0 -0.4116670912132818 -3.065213427156098 -7.32212024858376 10 0 0
755 151 3 0 -0.06501926601705144 -2.950778798965339 -7.164736925163865 11 0 0
1500 334 2 0 -6.514989473396033 -1.877958246163919 -6.822128482501284 10 0 1
1501 334 4 0 -6.223412057124213 -1.8677242834286085 -7.1518545537854985 10 0 1
543 109 3 0 -4.940985440326336 -1.970159926142598 -6.642839014197563 22 0 1
542 109 3 0 -4.82913545550322 -2.627720735315041 -6.946831801406016 22 0 1
545 109 3 0 -4.7012294010727445 -2.0323060697979667 -7.359506342899294 22 0 1
541 109 1 0 -4.679217519919709 -2.2179038405410827 -6.9373056351257265 22 0 1
1907 469 4 0 -4.018955124139462 -1.8935207038835413 -6.728822055142976 23 0 1
544 109 3 0 -4.2489341294601 -2.2250964560073143 -6.792704712722564 22 0 1
1906 469 4 0 -3.1085765353068346 -1.865358959128181 -6.660796195692835 23 0 1
1905 469 2 0 -3.5719316833223367 -1.8845445521858775 -6.694535160298779 23 0 1
729 146 3 0 -2.349189214599213 -2.3497953378985432 -7.272582080358301 22 0 0
726 146 1 0 -2.5494116026485 -1.9363627040785039 -7.255333165622644 22 0 0
728 146 3 0 -2.7627709226748536 -1.887326088809374 -6.8462951467330795 22 0 0
1409 303 4 0 -1.5860993834857737 -2.4206153886677733 -7.110264266186842 10 0 0
1407 303 2 0 -1.1872010442410303 -2.458163519680216 -6.860747663411787 10 0 0
1408 303 4 0 -0.7888865015478848 -2.5005754094193637 -6.617984244358099 10 0 0
751 151 1 0 -0.014281846894256489 -2.757182516671376 -6.7503890598689615 11 0 0
753 151 3 0 0.3369913799703639 -2.4832216110372727 -6.760829394337863 11 0 0
752 151 3 0 -0.39305140502684477 -2.516509438562503 -6.646600924418296 11 0 0
1505 335 4 0 0.7517215469185938 -2.40170013308125 -6.728627004614123 8 0 1
1503 335 2 0 1.207462805456526 -2.3212292985971485 -6.77610566408403 8 0 1
1504 335 4 0 1.6453220150620638 -2.242307390188788 -6.808775456671114 8 0 1
608 122 3 0 1.7523294358336852 -1.8618834261923052 -6.78412601976579 8 0 1
607 122 3 0 2.508394765919242 -1.8562086530181423 -6.595729023614235 8 0 1
450 90 3 0 -7.8137180540498115 -1.5889112769476386 -6.516337710742259 8 0 1
730 146 3 0 -2.2206408628276666 -1.5993910243979972 -7.311969855433704 22 0 0
606 122 1 0 2.1743158728345353 -1.6041034222770918 -6.77989623009773 8 0 1
609 122 3 0 2.1046720057742636 -1.21428782820976 -6.529822170428987 8 0 1
1372 291 4 0 2.646690577733821 -1.5604216374494264 -7.371955916978191 10 0 1
610 122 3 0 2.2871283288758786 -1.4941571952243535 -7.1736612429896445 8 0 1
598 120 3 0 6.368017745173709 -1.6767367988789665 -7.341425758055127 17 0 1
597 120 3 0 6.328787473481947 -1.0339483448783522 -7.019706865258141 17 0 1
596 120 1 0 6.600028771042846 -1.3347242507955617 -7.152918501446579 17 0 1
600 120 3 0 6.838763143793415 -1.4822244867875884 -6.794850636760273 17 0 1
1254 252 2 0 5.332518960474355 -0.2897248566792481 -7.355416542612945 24 0 0
1069 214 3 0 -0.5892059284028832 -8.09097964060746 -5.835007985813743 27 1 1
1285 262 4 0 -0.6338353005599533 -8.074532597813716 -6.230774598001384 8 0 0
1068 214 3 0 -0.8522593343800393 -7.434865758252114 -5.685704868639228 27 1 1
1284 262 2 0 -0.2531202422694072 -8.17946296069806 -6.434052139690215 8 0 0
549 110 3 0 2.4150313270660586 -7.8698073273540645 -5.790942933414042 10 0 1
1129 226 3 0 6.793654151039172 -7.699346078685959 -6.082575561540359 25 1 1
1126 226 1 0 6.8175826871784455 -7.993800616856589 -5.702220358918579 25 1 1
1091 219 1 0 -2.372384731135953 -6.498935921216708 -5.7055394395037045 30 1 1
1095 219 3 0 -2.343307977078563 -6.5628594272463285 -6.137497045587834 30 1 1
1093 219 3 0 -2.819923397469525 -6.499635755816745 -5.571969724544824 30 1 1
1869 457 2 0 -0.658956930340227 -7.04039273897007 -6.364804528800457 27 1 1
1871 457 4 0 -0.6357298124556241 -7.3365270815691925 -6.023546764891886 27 1 1
1579 360 4 0 1.2277715682230301 -6.885558825189639 -6.186596434984357 9 0 1
658 132 3 0 1.5492805546193953 -6.8669960145583415 -5.945879797480518 27 1 0
656 132 1 0 1.9553620345232208 -6.880648374490899 -5.746938609227034 27 1 0
657 132 3 0 2.2197478192773534 -7.237864277518924 -5.917941256083346 27 1 0
1577 359 4 0 2.5300249001028323 -6.49279602658 -5.627031258503575 10 0 1
1374 292 2 0 3.5860964721146704 -6.625258236633173 -6.217851600537529 8 0 0
1376 292 4 0 3.805936879977077 -6.491902246062401 -5.879071985941948 8 0 0
1267 256 4 0 -5.078074192403756 -6.37885421463473 -6.425218451741492 8 0 0
1266 256 2 0 -4.617810712144204 -6.288159192385329 -6.3267105705603095 8 0 0
1268 256 4 0 -4.168795316776572 -6.199645653426266 -6.231443248015379 8 0 0
473 95 3 0 -3.9378667654140127 -5.930057349524214 -6.402203832728006 28 1 1
1801 434 4 0 -3.7626820493427884 -6.233850979336355 -6.209002527338974 28 1 1
1800 434 2 0 -3.4794156138173404 -6.3291367927011954 -5.873523886124955 28 1 1
1094 219 3 0 -2.176190718319778 -6.122086871908859 -5.595361388099185 30 1 1
333 67 3 0 -0.630926469417159 -5.722479068243736 -5.8000541055715225 10 0 0
1381 294 4 0 -0.9725552401611015 -5.665974071165781 -5.614423476233256 10 0 0
331 67 1 0 -0.22284636031475102 -5.7706442749028195 -5.979077400879127 10 0 0
332 67 3 0 -0.21524502422722414 -6.1511933448104354 -6.2228982024552995 10 0 0
334 67 3 0 0.08002867342900188 -5.792141605929491 -5.6570857815691 10 0 0
660 132 3 0 2.1546432344618065 -6.488798536218499 -5.817871089007555 27 1 0
303 61 3 0 4.114642342032935 -5.687414906086067 -5.571191994360196 10 0 0
305 61 3 0 4.129327230332173 -6.425234037884455 -5.619487243024441 10 0 0
1460 320 4 0 6.025180362710042 -6.27611848212939 -5.564406018658504 11 0 0
1603 368 4 0 7.325170933226705 -5.649511909028655 -5.728156909776679 11 0 1
830 166 3 0 7.029133165009506 -5.894986980702503 -5.608241054962501 28 1 0
1931 477 4 0 -3.523771827216713 -5.185906355473003 -6.18006871661279 28 1 1
1929 477 2 0 -3.4778309715046323 -5.159880138990906 -5.732570931330412 28 1 1
335 67 3 0 -0.1307761373519405 -5.432922501228333 -6.2391603143906185 10 0 0
722 145 3 0 4.333045025388593 -4.715604095300074 -6.444657363429184 29 1 0
314 63 3 0 6.795263382677726 -4.762492947827035 -6.305659481975319 13 0 1
1331 277 4 0 -1.1124046074845264 -4.603276254676822 -6.167568485391796 9 0 0
970 194 3 0 -0.827695469357761 -4.511448489590699 -5.895866417442399 31 1 0
969 194 3 0 -0.20744410168622096 -4.241244673451523 -5.661526757682851 31 1 0
1362 288 2 0 0.5573331664145211 -4.029856723837029 -5.565906427724905 9 0 0
1363 288 4 0 0.9849414672974142 -4.040881736221926 -5.564419869231282 9 0 0
1102 221 3 0 1.3239185379503926 -3.9359634701242534 -5.76099890815707 19 0 0
1101 221 1 0 1.7060252635001874 -4.05084490452953 -5.962550154691625 19 0 0
1105 221 3 0 1.6264532877197162 -4.132508958742766 -6.411599867090401 19 0 0
1104 221 3 0 1.8690700614291806 -4.414834223951492 -5.768911689549155 19 0 0
1103 221 3 0 2.00640107170722 -3.7125153032332427 -5.929545513822361 19 0 0
1259 253 4 0 5.358998420245355 -4.251501191587257 -6.2841071164367515 8 0 0
535 107 3 0 5.004922195373453 -4.124084726278984 -6.108475643933575 9 0 0
531 107 1 0 5.108262022340304 -3.9327210077728827 -5.684184824742224 9 0 0
533 107 3 0 5.5313022555251585 -4.017792200591372 -5.587693239113193 9 0 0
312 63 3 0 6.541804258272755 -4.097179535079678 -6.181072074212824 13 0 1
311 63 1 0 6.738348998757779 -4.346364673217877 -6.471986124211402 13 0 1
338 68 3 0 -1.885944080765804 -3.3583376503816584 -5.5901924217032235 11 0 0
754 151 3 0 0.05290564198329051 -3.0731193756257866 -6.438737095211384 11 0 0
1628 376 4 0 2.383665457618317 -3.611363901044471 -5.951422374495543 29 1 0
1626 376 2 0 2.709794778367012 -3.291568772825128 -5.982481415683463 29 1 0
1627 376 4 0 2.99682565023776 -3.000929203845182 -6.014998917541041 29 1 0
110 22 3 0 3.875511142975464 -3.654695854793366 -6.284531814677308 12 0 0
109 22 3 0 3.383329470040163 -3.140355346202014 -5.981146429651544 12 0 0
106 22 1 0 3.81723630963665 -3.318421342342721 -5.956026501644205 12 0 0
107 22 3 0 4.147064954123767 -2.9602355560504225 -6.017683828311555 12 0 0
532 107 3 0 5.051329397225306 -3.5072546864395484 -5.712511588406764 9 0 0
449 90 3 0 -7.761195324203534 -2.049621533602881 -5.966417448024974 8 0 1
448 90 3 0 -7.17705227401431 -1.9008314152978905 -6.333239007853124 8 0 1
1502 334 4 0 -6.793093989529037 -1.8789283993114365 -6.4905860966887055 10 0 1
339 68 3 0 -1.992975741222641 -2.618996134648196 -5.692675100404871 11 0 0
1629 377 2 0 -0.7618272926599872 -2.7166569423267335 -5.861171166849747 11 0 0
1631 377 4 0 -0.57479390922731 -2.6528993416605084 -6.298159863750015 11 0 0
446 90 1 0 -7.562461119001714 -1.7408384150202059 -6.179189789886486 8 0 1
447 90 3 0 -7.474455229999242 -1.4280312317595119 -5.9140531597700825 8 0 1
1140 228 3 0 -5.755891490281305 -7.884835450247572 -5.318848758420483 30 1 0
1138 228 3 0 -6.377062458574045 -8.009370257831607 -4.890761746946145 30 1 0
1136 228 1 0 -5.965215498067072 -8.179765769932608 -5.042803931253295 30 1 0
1139 228 3 0 -5.69129827269097 -8.258760600215522 -4.683266557773384 30 1 0
1066 214 1 0 -0.8184182641156665 -7.838008821473312 -5.539123126672659 27 1 1
1070 214 3 0 -1.2225134375380868 -8.015185856766234 -5.481446541611502 27 1 1
1067 214 3 0 -0.6073719718868542 -7.8395459063680955 -5.147568491563842 27 1 1
546 110 1 0 2.6710165292179937 -8.113052178620366 -5.50128549745008 10 0 1
548 110 3 0 2.465345588564924 -8.13093255247838 -5.090178093646523 10 0 1
547 110 3 0 3.080587227392698 -7.914761699333975 -5.453236539181052 10 0 1
19 4 3 0 3.605559693845839 -7.744828584136923 -5.0416538364144445 7 0 0
1127 226 3 0 6.427588596257378 -7.9836159897958865 -5.479613542933735 25 1 1
1130 226 3 0 7.1497884343030265 -7.855832465483519 -5.42854722061424 25 1 1
1092 219 3 0 -2.1722049102228427 -6.827703213644264 -5.507114670025624 30 1 1
659 132 3 0 1.9023553885611761 -6.9332095046036235 -5.319497152521877 27 1 0
1264 255 4 0 2.0000637431830928 -7.1258215024455795 -4.985867417073477 6 0 0
20 4 3 0 3.057211918987637 -7.338302366128253 -4.882837238017993 7 0 0
16 4 1 0 3.493139313154586 -7.373476292391577 -4.877382626408604 7 0 0
18 4 3 0 3.675316538336398 -7.039129167587503 -5.114916524567816 7 0 0
159 32 3 0 -7.640149622144428 -5.814092392645342 -5.13588262307454 12 0 0
1802 434 4 0 -3.192534542677281 -6.429036264450187 -5.527830143053896 28 1 1
680 136 3 0 -2.326264289772408 -5.637991176476144 -4.813911019262612 29 1 0
1380 294 2 0 -1.4143783878203937 -5.812410150297115 -5.5488639363923005 10 0 0
1382 294 4 0 -1.8414757817530631 -5.957131095746949 -5.480635762148813 10 0 0
1976 492 4 0 0.1360835670652154 -5.611162535214254 -5.296539107146758 28 1 1
1575 359 2 0 2.749982916120347 -6.162948833159982 -5.493843430560702 10 0 1
1576 359 4 0 2.9964978752886395 -5.81534161211686 -5.36527365952217 10 0 1
562 113 3 0 3.6719766415735045 -6.0262848404241165 -4.64989629398181 10 0 1
563 113 3 0 3.3079275209379517 -5.646337900875517 -5.175207664730774 10 0 1
561 113 1 0 3.541471278974125 -5.615337446961481 -4.775597618559603 10 0 1
301 61 1 0 4.310103836203433 -6.051587759169473 -5.428177183248605 10 0 0
304 61 3 0 4.754503891305774 -6.032355062426285 -5.529079009883329 10 0 0
302 61 3 0 4.259102527497541 -6.079139077979816 -4.9782774110458945 10 0 0
1459 320 4 0 5.099907959716477 -6.2662970462859375 -5.4559574352626035 11 0 0
1458 320 2 0 5.557284094472049 -6.270032836472648 -5.503313876789426 11 0 0
829 166 3 0 6.430671403988773 -6.287060576954822 -5.496891792631333 28 1 0
827 166 3 0 6.397250274521456 -5.56649574647282 -5.398829817656611 28 1 0
826 166 1 0 6.65617233464029 -5.942456063765283 -5.355050934888997 28 1 0
828 166 3 0 6.776379776616745 -5.999373058017043 -4.9315021954968845 28 1 0
1602 368 2 0 7.730584349822308 -5.617817810887006 -5.494107453648317 11 0 1
1604 368 4 0 8.111311781264426 -5.580924940996743 -5.255834741399301 11 0 1
156 32 1 0 -7.8742183142636115 -5.415600524143376 -4.983108501730805 12 0 0
158 32 3 0 -8.237711938251627 -5.362185432534242 -5.238175188016032 12 0 0
157 32 3 0 -7.605734117026911 -5.0506702516411455 -5.034346508496718 12 0 0
1730 410 4 0 -7.270177142297957 -5.032957853774115 -4.817326679792558 30 1 0
1728 410 2 0 -6.918234660427512 -4.835770788467142 -4.639550924855682 30 1 0
65 13 3 0 -4.1505560787284 -5.20052013839158 -4.6587718489573895 13 0 -1
1930 477 4 0 -3.449291431012923 -5.130049010517013 -5.264501216678252 28 1 1
64 13 3 0 -3.5115279056651945 -5.3236266800899585 -4.933262612726246 13 0 -1
967 194 3 0 -0.43949658968756733 -4.920385923071535 -5.480801625317135 31 1 0
1974 492 2 0 0.5410074890293721 -5.529527255547934 -5.131450470231948 28 1 1
1975 492 4 0 0.9389550101648627 -5.443200725090792 -4.9647535784675165 28 1 1
565 113 3 0 3.8894134868865713 -5.361600902707188 -4.836006210948396 10 0 1
1325 275 4 0 4.016461756398739 -4.98714506713379 -4.903248184931694 10 0 0
1323 275 2 0 4.2684038315528525 -4.646047612902339 -5.109129685916556 10 0 0
96 20 1 0 -6.01863403244594 -4.251112303783567 -4.7754860819037575 10 0 0
98 20 3 0 -6.132626235957666 -3.9764665171604623 -5.08968687421323 10 0 0
100 20 3 0 -6.300508657690434 -4.60922196403693 -4.774847834903337 10 0 0
99 20 3 0 -5.594832959913356 -4.384538584806504 -4.839253457481541 10 0 0
966 194 1 0 -0.5746401964513161 -4.502094324667496 -5.564310228637132 31 1 0
1300 267 4 0 -1.0773799005004445 -4.381056200586713 -4.919960261934558 8 0 0
968 194 3 0 -0.8055402281785531 -4.331276495008337 -5.185112037038028 31 1 0
1364 288 4 0 0.10769835844882358 -4.021721994638216 -5.557138230058303 9 0 0
1324 275 4 0 4.520610719371829 -4.317152805702516 -5.298390437009303 10 0 0
534 107 3 0 4.840612351924648 -4.105288548705392 -5.374803791196784 9 0 0
336 68 1 0 -1.7543510449483577 -2.9135338907456445 -5.459250773195342 11 0 0
337 68 3 0 -1.8227714075322314 -2.849938618056852 -4.998425456990514 11 0 0
340 68 3 0 -1.3089857953671187 -2.8518793259200397 -5.5510493245584405 11 0 0
108 22 3 0 3.880018790598653 -3.5106073583784436 -5.5397334399595675 12 0 0
1630 377 4 0 -0.9398871230446861 -2.7749116742942714 -5.45225226687856 11 0 0
1385 295 4 0 -6.971168184332532 -7.7337805404345135 -3.9476051172706983 6 0 0
1383 295 2 0 -6.651825226738513 -7.880380760914173 -4.21442039538857 6 0 0
1384 295 4 0 -6.329281480978555 -8.018257520846424 -4.493603147031033 6 0 0
435 87 3 0 0.7345784488089233 -8.310317974965576 -3.963517601656669 11 0 1
1523 341 4 0 3.691070493734152 -7.447535380701446 -4.009228723281447 7 0 1
1521 341 2 0 3.9312930761306646 -7.771768741190984 -3.8218416443389156 7 0 1
839 168 3 0 -7.703386394236508 -7.290896324375626 -3.7307811735109917 11 0 0
837 168 3 0 -7.015337466115639 -7.368111478025048 -3.9831537598001443 11 0 0
838 168 3 0 -7.267042179951323 -6.675227480813096 -3.840323991896791 11 0 0
1263 255 2 0 2.148651021804868 -7.1681568224904195 -4.528887430208148 6 0 0
1265 255 4 0 2.286862209011174 -7.20382537392939 -4.093698470271988 6 0 0
590 118 3 0 2.7018527478404906 -7.081964270323812 -4.030393711257714 26 1 1
17 4 3 0 3.64341557579772 -7.3375733565123555 -4.419139218686777 7 0 0
1751 417 4 0 7.382276512348978 -6.615764134788246 -3.9870262649915755 12 0 0
309 62 3 0 7.767080971161473 -6.532356132737623 -3.8480031765461273 11 0 0
1638 380 2 0 -7.781682109572923 -6.109352498858772 -4.01155712170108 11 0 0
1640 380 4 0 -7.959368004345166 -5.748415836844089 -4.228709962877253 11 0 0
1639 380 4 0 -7.608815388867039 -6.4551249984634245 -3.8063626321282005 11 0 0
62 13 3 0 -3.82846852565636 -5.864844886029202 -4.5467113081764925 13 0 -1
676 136 1 0 -2.458735023833488 -5.96613015447784 -4.51072506290118 29 1 0
678 136 3 0 -2.8624807495972213 -6.087601919220974 -4.600965783644524 29 1 0
679 136 3 0 -2.4351122412623205 -5.810099152955177 -4.12710341665039 29 1 0
677 136 3 0 -2.18184882771231 -6.328338391983355 -4.55861397812615 29 1 0
203 41 3 0 1.223434491177354 -6.03311111544884 -4.122944000033646 10 0 0
201 41 1 0 1.2683910708646469 -5.5816342323555475 -4.176739031456563 10 0 0
1749 417 2 0 7.2085714358574915 -6.3571628348514215 -4.311924619953398 12 0 0
1750 417 4 0 7.040535404408635 -6.102897975954905 -4.634725169976322 12 0 0
160 32 3 0 -7.991359159801503 -5.470928785190826 -4.518476169784887 12 0 0
61 13 1 0 -3.767207774293288 -5.398589214901394 -4.600919777106555 13 0 -1
63 13 3 0 -3.552809826661865 -5.217349049409012 -4.220058823356054 13 0 -1
653 131 3 0 -1.4767948489557003 -4.762539897637495 -3.7720079686635506 8 0 0
1894 465 4 0 -1.1220835510612028 -4.920472567076336 -3.90227381693788 29 1 1
1893 465 2 0 -0.8053760539458361 -5.198012209948078 -3.7375067984506813 29 1 1
202 41 3 0 1.0701821127180384 -5.459116634140774 -4.5619899099778065 10 0 0
205 41 3 0 1.07329637390397 -5.361796523398686 -3.82983358881037 10 0 0
1786 429 4 0 0.7156387450094641 -5.193295664335461 -3.813483084938177 28 1 0
204 41 3 0 1.7069344224098852 -5.467941127487801 -4.193520230308028 10 0 0
1339 280 4 0 2.0870446016380253 -5.351317051132872 -4.079229560501382 9 0 0
1340 280 4 0 2.9864239953500764 -5.250595429585193 -4.322848026166102 9 0 0
1338 280 2 0 2.5363859416201553 -5.299281747801063 -4.202014885218271 9 0 0
564 113 3 0 3.2811089062821743 -5.447701204145012 -4.467715544607289 10 0 1
1729 410 4 0 -6.5423691129060915 -4.628928372331189 -4.444500276124812 30 1 0
97 20 3 0 -6.05155904709788 -4.041557813330041 -4.3737412939938585 10 0 0
1301 267 4 0 -1.2421487794324984 -4.545454086704113 -4.038912753378234 8 0 0
1299 267 2 0 -1.156467252503 -4.4658209673815685 -4.490975547145585 8 0 0
1305 269 2 0 0.37132558772675317 -3.814562384696152 -4.14328965015255 12 0 0
1307 269 4 0 0.7303197461684796 -4.032669055910093 -4.336022940224759 12 0 0
452 91 3 0 1.1056552937017958 -3.938390682741824 -4.312642114246559 10 0 1
454 91 3 0 1.4619345744583772 -4.474860489562644 -4.617030889700114 10 0 1
451 91 1 0 1.4923753582541153 -4.13607314748713 -4.3543735310436755 10 0 1
453 91 3 0 1.6419253985290432 -4.271913896028905 -3.9550417897490995 10 0 1
455 91 3 0 1.8123624854171236 -3.8375459591681764 -4.5260039680196 10 0 1
1306 269 4 0 -0.005269054837551579 -3.597673377412736 -3.9508536275553254 12 0 0
135 27 3 0 -6.713896139528861 -1.362538539646578 -4.618736223504497 10 0 0
134 27 3 0 -6.655559463269563 -1.2664440484605652 -3.9025895961632813 10 0 0
133 27 3 0 -6.109134646140498 -1.0645427312861075 -4.3565356194274445 10 0 0
131 27 1 0 -6.550937923011401 -1.0949174884926087 -4.3022262202708115 10 0 0
132 27 3 0 -6.756266836046421 -0.6738629930556037 -4.346801936763785 10 0 0
1653 385 2 0 -4.647696597482035 -7.622519533540522 -3.246352276884255 28 1 0
1654 385 4 0 -4.294591783888158 -7.849364796164543 -3.2283888172725455 28 1 0
365 73 3 0 -3.9679267884133775 -8.045123667160647 -3.31321946813601 12 0 1
361 73 1 0 -3.684618015143921 -8.213605253511027 -3.021360824523165 12 0 1
1538 346 4 0 -2.364565857637917 -7.87621046630474 -3.190900154802635 8 0 1
1536 346 2 0 -2.6639805383359345 -7.520341178438874 -3.1141436467817165 8 0 1
501 101 1 0 -1.716255017467919 -8.185521251643623 -2.9567435670931452 8 0 1
505 101 3 0 -2.0058221692460982 -7.845223767256411 -3.0350776074798693 8 0 1
503 101 3 0 -1.3115950912931584 -8.076267006495547 -3.109421701789053 8 0 1
1482 328 2 0 -0.5656237397062363 -8.207609825606848 -3.3978273496112728 9 0 0
1483 328 4 0 -1.0177428572727294 -8.19453137598347 -3.3656609258866936 9 0 0
1484 328 4 0 -0.13643500526982066 -8.221062900571185 -3.4108734544501127 9 0 0
432 87 3 0 0.8455119788078616 -8.11158436166058 -3.2445244254684322 11 0 1
588 118 3 0 2.643794353871403 -7.491852837802175 -3.392517712771131 26 1 1
1687 396 4 0 2.74315419947596 -7.632998738425027 -3.035992609289478 26 1 0
1686 396 2 0 3.0587374590833623 -7.950930260372316 -2.9028169738960727 26 1 0
1522 341 4 0 4.156075600429217 -8.093136832060011 -3.6439444567975015 7 0 1
836 168 1 0 -7.274023028133299 -7.121749625573909 -3.7021119689949478 11 0 0
840 168 3 0 -7.115645600385269 -7.159342416978317 -3.2788907455809895 11 0 0
1423 308 4 0 -6.836678799144634 -6.887682485728148 -3.2124061157927413 6 0 0
1422 308 2 0 -6.477834698551607 -6.793388032878434 -2.992532919760299 6 0 0
140 28 3 0 -5.255799012356928 -7.249826833426202 -2.9456245281638047 7 0 0