LAMMPS data file via write_data, version 4 Feb 2025, timestep = 400000, units = lj

64 atoms
4 atom types
48 bonds
1 bond types
56 angles
2 angle types

-2.5 2.5 xlo xhi
-2.5 2.5 ylo yhi
-2.5 2.5 zlo zhi
0 0 0 xy xz yz

Masses

1 1
2 1
3 0.1
4 0.1

Bond Coeffs # harmonic/omp

1 100 0.45

Angle Coeffs # harmonic/omp

1 100 180
2 100 109.471

Atoms # full

15 3 3 0 -1.56296028681215 -1.586442871957243 -1.9069953620182145 3 0 2
14 3 3 0 -1.996330589278428 -2.0688251937143343 -2.277882425320318 3 0 2
13 3 3 0 -1.2802174764768255 -1.9765487522860172 -2.47068569708153 3 0 2
11 3 1 0 -1.5660833673920869 -1.9878541381752741 -2.117075886250731 3 0 2
12 3 3 0 -1.4314422205778428 -2.3187147926655403 -1.8234313768549026 3 0 2
61 15 4 0 -2.3541336931130896 -2.18088290042311 -2.43567570876141 4 0 3
64 16 4 0 -1.039657605589851 -2.4721436907051006 -1.761571680265918 2 0 3
30 6 3 0 -2.186710980905639 1.195406890645141 -2.331650190953324 5 0 2
63 16 4 0 -0.945021820276096 2.331442957014512 -0.8679030842688413 2 -1 3
62 16 2 0 -0.9954082594647959 2.429139277052423 -1.3202485185913093 2 -1 3
7 2 3 0 -2.057478348181128 0.1978377483029501 0.7826808588620353 8 1 0
9 2 3 0 -2.143580357377139 0.8763596196493806 0.4795927365307895 8 1 0
54 13 4 0 -1.96636356116282 1.0771985559625907 0.18420153084252266 2 -1 1
53 13 2 0 -1.6308158793989433 1.3378264313794723 0.07009116289884387 2 -1 1
55 13 4 0 -1.2614409849453556 1.6188311889464444 -0.05051146900486003 2 -1 1
39 8 3 0 -1.9066324813491153 2.144598174170028 0.5764801774009931 3 -1 3
36 8 1 0 -2.3317231717406286 2.1929558541289236 0.7298402551660099 3 -1 3
19 4 3 0 -1.2778954556967226 2.422409092726891 -0.03451803896049288 3 -1 1
20 4 3 0 -0.676880334238533 2.026274370518049 0.1257930915261407 3 -1 1
17 4 3 0 -1.1634269221960003 1.800437721154216 -0.41034313375324993 3 -1 1
51 12 4 0 -0.4576660108564128 2.19601133878506 0.4106075053212783 0 -1 1
18 4 3 0 -0.7406921466480298 2.4089552657187268 -0.5247795711550527 3 -1 1
16 4 1 0 -0.9690136143289518 2.1671300410687078 -0.21099263633412058 3 -1 1
50 12 2 0 -0.1299561348375846 1.9102629676880394 0.5516330410389152 0 -1 1
8 2 3 0 -2.1062336065778986 0.7808431223593049 1.2149889055120622 8 1 0
47 11 2 0 -2.083288520732759 1.0632139924857107 1.8599164142217504 9 1 2
48 11 4 0 -2.059003570770092 0.9974096528925402 2.319657779568045 9 1 2
49 11 4 0 -2.109167320085139 1.1299116794440978 1.3934902597081877 9 1 2
6 2 1 0 -2.2596776640476848 0.5952077317942939 0.8360646564163465 8 1 0
38 8 3 0 -2.318992715759363 2.310851125964078 1.144655054427913 3 -1 3
26 6 1 0 2.3829564523439934 1.3237452686932203 -2.2033379158989312 4 0 2
28 6 3 0 2.0850144346931785 1.1072258057593158 -2.443726111572358 4 0 2
27 6 3 0 2.324654311712651 1.223880325304001 -1.7753521074417415 4 0 2
29 6 3 0 2.3296463528084876 1.7811300108707728 -2.265117858705805 4 0 2
60 15 4 0 2.068272559820901 2.10609152008346 -2.342834171367811 3 -1 3
59 15 2 0 2.3608089221263304 2.4678971177865456 -2.3855944378864056 3 -1 3
42 9 4 0 0.9301928980286438 -1.8405656076529342 0.11401976731211638 4 0 1
35 7 3 0 1.0634987657965738 -2.1729298707543325 0.3027697600616004 -2 -2 -1
40 8 3 0 2.443256090843235 -2.478078503030789 0.48682133856299226 2 0 3
41 9 2 0 1.1739927429068535 -1.4808164225088474 0.09771289225284407 4 0 1
43 9 4 0 1.4267909114139288 -1.1100617775090316 0.09146738754041595 4 0 1
4 1 3 0 1.561196073753793 -0.76628354818964 -0.05126112126866378 5 0 -1
1 1 1 0 1.71959873007102 -0.6069043841006905 -0.43443629249935034 5 0 -1
5 1 3 0 1.6732731098263045 -0.9182476851462806 -0.752804159849656 5 0 -1
44 10 2 0 1.0208944721263862 0.23898195316293425 -0.199264621959637 9 1 0
46 10 4 0 1.1006376921368166 -0.12416965458528928 -0.48669720384429294 9 1 0
2 1 3 0 1.481357975579769 -0.22474696171273578 -0.5494893415595958 5 0 -1
3 1 3 0 2.177831549138647 -0.49670569256402564 -0.37796662399930003 5 0 -1
45 10 4 0 0.9345038409424999 0.5864370051171379 0.07037322721307415 9 1 0
23 5 3 0 0.8916931224485136 0.9140304560131418 0.30986241413820403 5 0 1
21 5 1 0 0.7274642723213698 1.1644965016134772 0.6452489077568857 5 0 1
22 5 3 0 0.514642780325274 1.5274314843829808 0.4792803261816787 5 0 1
31 7 1 0 1.0199337751393078 2.429643432393897 0.08061911506596475 -2 -3 -1
52 12 4 0 0.20490152446529963 1.6179500772956814 0.7040752467470801 0 -1 1
32 7 3 0 0.7321586962752025 2.490870803976568 -0.26380912627605824 -2 -3 -1
33 7 3 0 0.8597426264112706 2.1159585391536133 0.3595510666686641 -2 -3 -1
34 7 3 0 1.4520960101162506 2.2879885268212767 -0.08758831869035921 -2 -3 -1
37 8 3 0 2.436083994779306 1.7684922522014155 0.6870602503390888 2 -1 3
24 5 3 0 1.0722288034502907 1.3069924212568589 0.9200255575298675 5 0 1
25 5 3 0 0.4183059020105824 0.911534132816485 0.8942621995413624 5 0 1
10 2 3 0 2.2943906308295876 0.5367059028454646 0.8543628636601257 7 1 0
58 14 4 0 1.4315635027641482 1.4003632789805254 1.08006977203015 5 0 1
56 14 2 0 1.774483101749734 1.1271591055052737 1.0212231954089344 5 0 1
57 14 4 0 2.1045045348205162 0.8661257210756679 0.9602363648629546 5 0 1

Velocities

15 -0.10258277101909534 -0.05986987223368713 -0.6622544852581702
14 1.2658310129920785 -0.7459788872331434 0.7771921515383766
13 -1.3290213619952045 -1.7943123166885115 -1.468754833661936
11 0.1037269534082262 0.33999577638979916 0.1252834577027563
12 -0.655946943317114 -0.25944374496344386 0.28495342797834017
61 -2.1139543029868726 0.7298651165675253 0.9605247825367016
64 0.6398901610320934 0.2505227815046438 -0.4155879247742277
30 0.061253399729664426 0.0336753153710108 0.42641917882487257
63 -0.1889942606633624 -0.8879906183804122 0.38842821075754763
62 -0.12900443208616422 0.20442142093915228 -0.22858098620105355
7 0.1066370534625604 -0.19178140656852763 -0.7818994660289037
9 -0.19678734979495152 -0.4257283110149816 -0.07957439789701815
54 1.1393172590827678 -0.6479906981448814 -0.7911615976463214
53 0.09543109413883522 0.6058553610185178 -0.09964911762003915
55 1.0368235502063847 -0.8482970699417702 -0.41656604835924854
39 0.12686300545915072 -0.5611789240852008 0.46489941416029357
36 -0.05168429373533444 -0.31214389128937525 0.1411017527410146
19 -0.08764862815846286 -0.3730701975611908 0.018902830622295596
20 -0.22589022005485002 0.4654556503054492 -0.30271307600567543
17 -1.5021650094089505 1.6742391101234113 1.5470490239934132
51 1.179314792791088 -0.11589477543313222 -1.0009375660881115
18 0.7834311048273156 -0.30264125844644174 -0.5476396000451607
16 0.14508628807574153 0.3089490899064361 -0.1983477300834762
50 -0.531195498732469 -0.34535413056038966 0.28588035494607333
8 0.21861909074950261 0.5602326266330208 0.465790334325157
47 0.25964725408490685 -0.10533439216897617 -0.2934194350502452
48 -0.7865329378301453 -0.2703347607894578 0.5954544409179783
49 0.7209413323754092 0.11850390173922962 0.17628297586218145
6 0.16281319213298268 -0.2098557133656176 0.05973560932366443
38 -0.7322582097506558 -0.37509853431709983 0.09063485171467858
26 -0.10187359543959898 0.3625429112391949 -0.04633662152861117
28 -0.16808317013339014 -0.13489961331164274 0.3453674628491543
27 0.3534643859078017 -0.07914627288171203 0.002088895197376448
29 0.4043216937631633 -1.3332479144688998 0.5066101954081448
60 -0.19270831175204137 -0.32202714288747086 0.9703402357736568
59 0.0462647487578757 -0.05850511143677773 0.30711304387216265
42 0.5726996676264731 -0.7183434864668896 0.859170035196085
35 -1.0372556753534623 -0.07285013512619394 0.4418307238895378
40 -0.42667158288869295 -0.5718445375244058 0.3380149101717262
41 -0.011669656094942676 -0.03400270378778171 -0.0827438942154243
43 -0.7606661539677984 0.03653515175482917 1.356797703706517
4 0.4201737831072338 0.03695909420030161 -1.670453536394811
1 0.17999127627134182 -0.0020249359195852693 0.29503589490588217
5 -0.4343758022995218 -0.09735403091775162 0.3482537719599863
44 -0.04913518998501101 -0.19746066288235758 -0.22869417281979976
46 0.4987765196272991 0.917018118694965 -0.23675108639769044
2 0.3099510683092579 -0.7579423779784495 -0.8379624465933199
3 0.01495671786654244 0.631042845126112 0.14983310127174437
45 -0.30813793180080024 1.3198492529451868 -0.060928591329813306
23 -0.41498290701904156 -0.7771033470224713 1.3457244778984694
21 0.10769299244497418 0.21333944881388175 -0.06064476540458073
22 -0.2805909164470737 -0.66025785319624 0.3776256484861594
31 0.13074601377014816 0.31107891194583653 0.048854247446191656
52 -0.6716252159062953 0.32831881211458913 -2.012798677656518
32 0.24446516915575578 -0.13303025844855587 -0.1780026360108687
33 0.4780757985024691 -0.39243922508264023 -0.5536759074704347
34 0.3205305271724985 -0.8373670945107429 -1.085333749579817
37 0.1660488978543603 -1.2480255308220627 0.4759849647451039
24 0.7052706146073121 -0.014761392830558884 -0.7265388287852691
25 1.7729744202490556 -0.8475070464352007 -0.07957721093482789
10 0.7441205248585193 -0.11263370526523599 -1.112508047509791
58 0.25449879973220874 -0.05745146339522538 0.6310749472167763
56 0.019459482314597685 -0.10577477561930705 0.18970083512633393
57 1.2512340769469166 0.15769349756370038 -1.4725979887809215

Bonds

1 1 11 12
2 1 11 13
3 1 11 14
4 1 11 15
5 1 62 63
6 1 62 64
7 1 53 54
8 1 53 55
9 1 36 37
10 1 36 38
11 1 36 39
12 1 36 40
13 1 16 17
14 1 16 18
15 1 16 19
16 1 16 20
17 1 50 51
18 1 50 52
19 1 47 48
20 1 47 49
21 1 6 7
22 1 6 8
23 1 6 9
24 1 6 10
25 1 26 27
26 1 26 28
27 1 26 29
28 1 26 30
29 1 59 60
30 1 59 61
31 1 41 42
32 1 41 43
33 1 1 2
34 1 1 3
35 1 1 4
36 1 1 5
37 1 44 45
38 1 44 46
39 1 21 22
40 1 21 23
41 1 21 24
42 1 21 25
43 1 31 32
44 1 31 33
45 1 31 34
46 1 31 35
47 1 56 57
48 1 56 58

Angles

1 2 12 11 13
2 2 12 11 14
3 2 12 11 15
4 2 13 11 14
5 2 13 11 15
6 2 14 11 15
7 1 63 62 64
8 1 54 53 55
9 2 37 36 38
10 2 37 36 39
11 2 37 36 40
12 2 38 36 39
13 2 38 36 40
14 2 39 36 40
15 2 17 16 18
16 2 17 16 19
17 2 17 16 20
18 2 18 16 19
19 2 18 16 20
20 2 19 16 20
21 1 51 50 52
22 1 48 47 49
23 2 7 6 8
24 2 7 6 9
25 2 7 6 10
26 2 8 6 9
27 2 8 6 10
28 2 9 6 10
29 2 27 26 28
30 2 27 26 29
31 2 27 26 30
32 2 28 26 29
33 2 28 26 30
34 2 29 26 30
35 1 60 59 61
36 1 42 41 43
37 2 2 1 3
38 2 2 1 4
39 2 2 1 5
40 2 3 1 4
41 2 3 1 5
42 2 4 1 5
43 1 45 44 46
44 2 22 21 23
45 2 22 21 24
46 2 22 21 25
47 2 23 21 24
48 2 23 21 25
49 2 24 21 25
50 2 32 31 33
51 2 32 31 34
52 2 32 31 35
53 2 33 31 34
54 2 33 31 35
55 2 34 31 35
56 1 57 56 58
