LAMMPS data file via write_data, version 19 Nov 2024, timestep = 100000, units = lj

805 atoms
4 atom types
570 bonds
1 bond types
485 angles
2 angle types

-4.807498 4.807498 xlo xhi
-4.807498 4.807498 ylo yhi
-4.807498 4.807498 zlo zhi

Masses

1 1
2 1
3 0.1
4 0.1

Bond Coeffs # harmonic/omp

1 100 0.45

Angle Coeffs # harmonic/omp

1 100 180
2 100 109.471

Atoms # full

599 167 2 0 -4.73628448353221 -3.953652716544897 -3.5521488370244976 1 0 1
257 53 2 0 -2.6792072593391754 -1.1138223560868319 -1.2811318205931213 0 0 0
600 167 4 0 -4.618659722384231 -3.6400814323650788 -3.870893111923842 1 0 1
260 54 2 0 -2.636661260149157 -4.392381422786305 -3.558886955387882 0 0 0
262 54 4 0 -2.568430947030183 -4.528687017922476 -3.9798396490791674 0 0 0
261 54 4 0 -2.7096092084493484 -4.249051904069518 -3.1307075866299736 0 0 0
302 68 2 0 -0.37472583082479144 -3.4961694122169207 -4.393062513916506 0 0 0
303 68 4 0 -0.6815833656164201 -3.391517485837523 -4.0692616953477705 0 0 0
273 58 4 0 -0.8223476915270603 -3.310652315511685 -3.747430023325549 0 0 0
338 80 2 0 -3.7381917191751013 -2.843371504602249 -4.263345774759007 0 0 1
340 80 4 0 -3.7786745270912854 -2.715713090271534 -3.826517521567336 0 0 1
1 1 1 0 -3.8128436450960725 -2.1401241397958937 -3.3259869287562673 0 0 0
2 1 3 0 -3.4953721295587297 -1.9208258105373095 -3.6068817284373664 0 0 0
4 1 3 0 -3.885843442791967 -2.563860909842739 -3.4846796418752657 0 0 0
339 80 4 0 -3.6856933913917707 -2.9651014566117486 -4.689482770649076 0 0 1
288 63 4 0 -3.2211174883885865 -1.9145535599623302 -3.9256039236704097 0 0 0
266 56 2 0 -1.7518008871765474 -2.0283830155732274 -3.2519928208552473 0 0 0
287 63 2 0 -3.0760797536046627 -1.9563689457850069 -4.344571762765189 0 0 0
289 63 4 0 -2.9399040069321067 -2.003283107393615 -4.770111695237071 0 0 0
268 56 4 0 -1.659505501007914 -2.4717667603852975 -3.1585874855921863 0 0 0
274 58 4 0 -1.4519080314398962 -2.7640182266771873 -3.335907714367369 0 0 0
272 58 2 0 -1.1367462819872476 -3.0359578985041424 -3.542932509586568 0 0 0
267 56 4 0 -1.8546979243080128 -1.5912482731101676 -3.345075584398489 0 0 0
263 55 2 0 -1.8796808055668204 -0.7602374904286892 -3.3590733420062215 0 0 0
264 55 4 0 -1.8468604331756513 -1.1686155503930142 -3.477716325365487 0 0 0
360 87 4 0 -3.2101034694893418 -0.2508094920522535 -0.37687456419300097 0 0 0
730 210 4 0 -0.050687956048559045 -0.2676933651468703 -3.2914779560483103 0 0 0
638 180 2 0 -0.18727923457604367 -1.4763095799089316 -4.7033380628476085 0 0 1
259 53 4 0 -2.844726146804285 -0.7063377366417275 -1.3040295311894285 0 0 0
258 53 4 0 -2.518798918835138 -1.5126028551841089 -1.2562125119330234 0 0 0
23 5 3 0 -3.1198902646241042 -3.4926120337369726 -2.4978259703089405 0 0 0
24 5 3 0 -2.7243566900134417 -3.8557069868334746 -3.0410797262558806 0 0 0
25 5 3 0 -2.7885296184462893 -4.156178235295173 -2.3725718546377204 0 0 0
21 5 1 0 -2.7438583689975307 -3.773568986687697 -2.590643894311761 0 0 0
22 5 3 0 -2.351670489736991 -3.5612836896226447 -2.4548510852849614 0 0 0
279 60 4 0 -2.456489097651813 -3.4172918990422168 -2.095335950091976 0 0 0
278 60 2 0 -2.1657419218738494 -3.327731868831988 -1.731290124645336 0 0 0
3 1 3 0 -4.197854227454752 -1.8986856837297763 -3.3307033327612743 0 0 0
270 57 4 0 -4.593954521482905 -1.9222036072685844 -3.4058974824504955 0 0 0
345 82 4 0 -3.4497082435122963 -3.279108380562428 -2.4174932574331445 0 0 0
5 1 3 0 -3.648340667836714 -2.1530114175413937 -2.8961595146967887 0 0 0
282 61 4 0 -3.6857600933596086 -1.8375286666800648 -2.624696964169267 0 0 0
344 82 2 0 -3.5062410333640535 -2.92601965324017 -2.1001749483815386 0 0 0
346 82 4 0 -3.548278962819879 -2.594282333864971 -1.8233381915094518 0 0 0
310 70 4 0 -3.25580795966772 -2.420958433377969 -1.651681988025808 0 0 0
281 61 2 0 -3.7991818455057436 -1.5493690129496327 -2.3054933225392578 0 0 0
154 31 3 0 -3.993916803040256 -0.880967883074986 -2.0715979563785574 1 0 0
153 31 3 0 -4.5490990663086475 -0.4357544953092045 -2.098133006144709 1 0 0
151 31 1 0 -4.238152665788929 -0.5864993237041284 -1.8394709722538847 1 0 0
283 61 4 0 -3.90914121470314 -1.254372510484714 -1.9781606801096359 0 0 0
152 31 3 0 -3.98695335438578 -0.26037598125552297 -1.7119831574811861 1 0 0
155 31 3 0 -4.416157482662744 -0.7931736747682343 -1.4805709298938163 1 0 0
269 57 2 0 -4.753568378879905 -1.5263505092276652 -3.2659146440006306 0 0 0
265 55 4 0 -1.923213403647009 -0.34449875116428685 -3.224022479496414 0 0 0
6 2 1 0 -2.3163005670093253 -0.0722941902795725 -1.582602400460963 0 0 0
451 117 4 0 -1.743778661438652 -0.05645123963236241 -3.0246749167622746 0 0 1
295 65 4 0 -1.6671689633557747 -0.49329829640891965 -1.4032089015272466 0 0 0
7 2 3 0 -1.8773668228332225 -0.1729591803996477 -1.5017784917929078 0 0 0
293 65 2 0 -1.2786739627652024 -0.577835568684351 -1.6321350550583675 0 0 0
294 65 4 0 -0.9046285179732528 -0.661327914863883 -1.8515013168947982 0 0 0
296 66 2 0 -0.4610115166740083 -0.3776863505291651 -2.557018816232967 0 0 0
297 66 4 0 -0.26405581469514994 -0.3074717565403829 -2.9516025857821098 0 0 0
298 66 4 0 -0.665724210908509 -0.4587833346594275 -2.137481393928976 0 0 0
127 26 3 0 -0.2965065351325802 -1.3748681512590588 -1.7627785857213525 0 0 0
108 22 3 0 -4.3244081290411875 -4.310606834823091 -0.13722124970313287 0 1 0
107 22 3 0 -4.690884908741529 -4.621271927987019 -0.6672168501554359 0 1 0
256 52 4 0 -4.624101807641606 -4.515367639262635 -1.0298780340137847 0 0 0
254 52 2 0 -4.798874754827593 -4.350313540685192 -1.4195293605940031 0 0 0
106 22 1 0 -4.679431289763247 -4.570794747717864 -0.24293412804078088 0 1 0
280 60 4 0 -1.8818423907202895 -3.241154939710721 -1.371314710987258 0 0 0
307 69 4 0 -0.18608854948690723 -4.292943918414176 -1.6846028912227853 0 0 0
362 88 2 0 -1.2385880441355808 -3.0665794174956433 -0.04798993126565683 0 0 0
306 69 4 0 -0.765364459109442 -3.7016240221287795 -1.27894281206982 0 0 0
305 69 2 0 -0.4649898549645489 -4.00755610848731 -1.494979593578229 0 0 0
12 3 3 0 -0.8536953241593052 -3.381581629661518 -1.0605302243503123 0 0 0
15 3 3 0 -1.5219653456537134 -3.3851149896479042 -1.4155588956612055 0 0 0
308 70 2 0 -2.9230283547397677 -2.1476971558297353 -1.5580657455573796 0 0 0
309 70 4 0 -2.591797220058755 -1.8764805863130136 -1.4518406947057982 0 0 0
301 67 4 0 -0.601309211220383 -1.6322609836255462 -1.862515575398497 0 0 0
299 67 2 0 -0.7215047745484113 -2.019545713607409 -1.6336649219800592 0 0 0
300 67 4 0 -0.8484839922704035 -2.418998641378744 -1.398231177185374 0 0 0
364 88 4 0 -1.2212368576100103 -2.904835696230508 -0.45846002441485556 0 0 0
11 3 1 0 -1.2167287521806147 -3.125004734796765 -1.1712882152639452 0 0 0
13 3 3 0 -1.4051523618702004 -2.978141546802484 -0.8124937740058494 0 0 0
14 3 3 0 -1.0696178909295537 -2.7524553926662345 -1.4252031730375436 0 0 0
33 7 3 0 -3.8116498886280805 -0.4230269957429215 -0.5056959795961721 0 0 0
312 71 4 0 -4.640109183443024 -3.265291425343774 -3.7710706991978604 0 0 1
31 7 1 0 -3.693327569555768 -0.10078826034175341 -0.7631639909144778 0 0 0
571 157 4 0 -4.0872896941279055 -0.3819991785971606 -0.2131006713842163 1 0 0
252 51 4 0 -4.741202544258554 -2.583228281720998 -2.236609546819374 0 0 0
32 7 3 0 -3.6236417533374703 -0.24494169579950936 -1.1639787958382428 0 0 0
10 2 3 0 -2.5818003237055778 -0.4400872673892346 -1.4560973011634484 0 0 0
359 87 2 0 -2.7851511165529885 -0.3433688040163432 -0.17661772414923388 0 0 0
304 68 4 0 -0.06903499422799765 -3.6012242843331665 -4.702134282226999 0 0 0
354 85 4 0 -2.0590683912406536 -3.562903423797042 1.163329066143303 0 0 0
353 85 2 0 -1.7051176241178982 -3.576242078510638 0.8662937324958128 0 0 0
342 81 4 0 -2.3044187913063974 -3.782167273972231 1.359725405475967 0 0 0
341 81 2 0 -2.7541987978480647 -3.855225117217901 1.4601073529844342 0 0 0
355 85 4 0 -1.3508761931298257 -3.585953275773693 0.5579676632992043 0 0 0
363 88 4 0 -1.2532702615374347 -3.2382792502862845 0.39374228020810975 0 0 0
347 83 2 0 -4.007479397983307 -1.7714189837057475 1.3339356229681893 0 0 0
319 73 4 0 -2.783792881009113 -1.496468209015669 0.4721072824005774 0 0 0
373 91 4 0 -2.5974837297017572 -1.8368409947842625 0.4941744198457876 0 0 0
371 91 2 0 -2.3478110804353536 -2.183757765165324 0.7068805456218482 0 0 0
372 91 4 0 -2.1334122180156023 -2.489868494871977 0.9001114147027679 0 0 0
533 145 2 0 -0.276259624763711 -3.0091264292564732 1.3966383573919754 0 0 0
534 145 4 0 -0.12412632535109674 -2.6824621776215682 1.1321256216700806 0 0 0
583 161 4 0 -0.11970078729343168 -2.3838759939532563 0.8414757819525501 0 0 0
318 73 4 0 -3.615661332234792 -1.354706776279098 0.7908784272728281 0 0 0
349 83 4 0 -3.912027741950782 -1.5121926125897909 1.0108195332883125 0 0 0
317 73 2 0 -3.207073057772822 -1.4263727703015703 0.6264180066601909 0 0 0
547 149 4 0 -4.630980971894313 -0.8877919997939665 0.6393866501724481 1 0 0
570 157 4 0 -4.380325455722197 -1.040010194943956 0.36185193216866685 1 0 0
30 6 3 0 -1.8816040130613976 -0.09597011223200826 0.9000243343276545 0 0 0
321 74 4 0 -1.6817607798655423 -0.2565972603578896 1.1935710788151739 0 0 0
29 6 3 0 -2.1240876218508733 -0.2303158840253476 0.21833256697535797 0 0 0
361 87 4 0 -2.3845184244342006 -0.4177096161310834 0.004303175792413145 0 0 0
320 74 2 0 -1.4613674394157283 -0.5963102225523518 1.455456108664623 0 0 0
397 99 4 0 -1.0585180467192017 -0.004539218643527935 0.4450136388565614 0 0 0
395 99 2 0 -0.6256699659031757 -0.06178840402725967 0.49930306993072116 0 0 0
396 99 4 0 -0.19620004061239382 -0.11741337538737558 0.5476177789913966 0 0 0
378 93 4 0 -3.8521648065195766 -4.267229315297563 2.603224631354977 0 0 0
484 128 4 0 -4.09360898785175 -4.16416374736192 2.911240764865089 0 1 0
377 93 2 0 -3.6539433288502723 -4.198710110579852 2.2059021628036564 0 0 0
379 93 4 0 -3.4520217367188475 -4.146152813217691 1.7912570072133063 0 0 0
482 128 2 0 -4.4645601177949095 -4.1452551943449745 3.137942334407067 0 1 0
343 81 4 0 -3.1903115317109427 -3.9280559323268665 1.56139170747709 0 0 0
329 77 2 0 -1.6212702594255999 -4.665976203278819 2.4593360167165184 0 0 0
535 145 4 0 -0.4372620170470862 -3.334986495180831 1.668760975769493 0 0 0
314 72 2 0 -0.5141229236284334 -4.549909056836643 2.592152021019058 0 0 0
330 77 4 0 -1.2989356760145876 -4.352547981912841 2.5307757291038895 0 0 0
316 72 4 0 -0.8990459131055508 -4.33788844195359 2.5539964931392136 0 0 0
369 90 4 0 -4.004265169707474 -2.1901631674476105 2.056335845574081 0 0 0
368 90 2 0 -3.6579885617751295 -2.270911754265169 2.3119901268164726 0 0 0
370 90 4 0 -3.303555444020494 -2.3598411351005395 2.5788355689034486 0 0 0
348 83 4 0 -4.121120921276841 -2.066644906839817 1.6984401488430663 0 0 0
40 8 3 0 -2.6260966966148906 -2.2830018484095147 3.110794013357206 0 0 0
606 169 4 0 -0.21796223531290246 -1.4765795342396308 3.1988032751197473 0 0 0
494 132 2 0 -1.788706137924618 -0.0754418620609008 2.8778800555513206 0 0 0
495 132 4 0 -1.5649438050842277 -0.4804681535733402 2.7990880431141347 0 0 0
322 74 4 0 -1.251303193412541 -0.9224870745668771 1.7114843206768773 0 0 0
357 86 4 0 -1.1637844259138772 -1.127642544607707 2.0466903052235637 0 0 0
356 86 2 0 -1.264279697090067 -0.9796475147896535 2.4659434675010417 0 0 0
358 86 4 0 -1.3661492478562343 -0.8142251312023575 2.8960393478603024 0 0 0
603 168 4 0 -4.709335996036503 -2.114557443078393 4.70057718836362 1 0 0
335 79 2 0 -1.882723082473014 -4.800708269182836 4.32385405482541 0 0 0
337 79 4 0 -1.7653464227963367 -4.348257103753826 4.2755761083667005 0 0 0
381 94 4 0 -1.5993382343574611 -4.135327399768189 3.9835267317391083 0 0 0
315 72 4 0 -0.14721655664743213 -4.748124255160234 2.6366450696470105 0 0 0
380 94 2 0 -1.3301130031648736 -3.8127513698078217 3.8749291415558034 0 0 0
613 171 4 0 -0.7147875395261446 -3.2578604217878735 3.748504783309546 0 0 0
611 171 2 0 -0.3435365157482582 -3.310570433308195 3.985599315503245 0 0 0
382 94 4 0 -1.0570274847735788 -3.484666192278145 3.7570397437632708 0 0 0
43 9 3 0 -0.9264455791667217 -1.1559594321013815 3.7985018621055975 0 0 0
170 34 3 0 -4.492164645846189 -1.8139752610277735 4.5358802674096586 1 0 0
277 59 4 0 -3.3769910464992083 -2.793838545241485 4.722234321421798 0 0 -1
275 59 2 0 -3.3243640497478664 -2.731430476596262 4.279400545198842 0 0 -1
39 8 3 0 -2.3020493964238637 -2.2730830883724145 3.7915628693979664 0 0 0
37 8 3 0 -2.9947676100026244 -2.4296470264667978 3.7235327695198754 0 0 0
276 59 4 0 -3.283354233204976 -2.673718000562139 3.8660705199870207 0 0 -1
36 8 1 0 -2.6837371637046634 -2.1838719895014913 3.5719164506247023 0 0 0
366 89 4 0 -1.9076352263632756 -2.2307220884983017 3.8606312580164746 0 0 0
38 8 3 0 -2.8089466294718224 -1.7236931802405777 3.6296612489946316 0 0 0
376 92 4 0 -0.8202454553864984 -0.8172569101053654 3.6089731296032963 0 0 0
365 89 2 0 -1.512769644516907 -2.062160649986454 3.7207828416901547 0 0 0
367 89 4 0 -1.1215574899314738 -1.9011040787970461 3.583109641441624 0 0 0
42 9 3 0 -0.7161149742506231 -1.8377020547707354 3.560605610337124 0 0 0
491 131 2 0 -4.456926288183673 -0.6413474736176258 3.4760307321951696 0 0 0
167 34 3 0 -4.363182795437271 -1.2968141696746047 4.048604608080215 1 0 0
166 34 1 0 -4.6632122458255845 -1.4485783780601034 4.322058210471763 1 0 0
168 34 3 0 -4.7758195148551374 -1.1302398902386883 4.618405878022445 1 0 0
492 131 4 0 -4.044302768909832 -0.5477858830705301 3.677188239786649 0 0 0
73 15 3 0 -4.012384359551394 -0.15387485747435695 3.6438332228540697 0 0 -1
640 180 4 0 -0.5017822834405289 -1.6136974421652868 4.604475484951154 0 0 0
332 78 2 0 -1.8679828066174324 -0.2261345495983208 4.5781019721608125 0 0 0
290 64 2 0 -2.5570811387036136 -1.1104491278300936 3.9632944951933142 0 0 -1
291 64 4 0 -2.228319321644632 -0.8184252967493155 4.052158076062431 0 0 -1
333 78 4 0 -2.1030620412563987 -0.565416343626611 4.35586909560026 0 0 0
292 64 4 0 -2.898977367987918 -1.4138459323232901 3.873118465262721 0 0 -1
374 92 2 0 -0.7934661455031553 -0.3814946377253695 3.602561172496662 0 0 0
41 9 1 0 -0.5725394132101076 -1.4661957919116926 3.769657473937923 0 0 0
44 9 3 0 -0.4352839065229277 -1.5797546248420222 4.206875399943956 0 0 0
45 9 3 0 -0.2279003997551339 -1.2945531274682527 3.5533076475017324 0 0 0
27 6 3 0 -1.4417034556741546 -0.07445527265401039 0.33864900164054335 0 0 0
569 157 2 0 -4.2281710143860245 -0.7029739661567721 0.063397844469932 1 0 0
481 127 4 0 -1.4438508503648289 0.9666850733157615 -3.52274964740762 0 0 1
479 127 2 0 -1.1204074396403774 1.054945180057011 -3.8376215304366457 0 0 1
480 127 4 0 -0.7969426898405646 1.1253816066222577 -4.157575450446545 0 0 1
209 42 3 0 -0.6558145708954416 1.431365511737986 -4.335718479984625 0 0 0
206 42 1 0 -0.2553333580419229 1.5075548105436933 -4.522992564725834 0 0 0
415 105 4 0 -3.1228671852579435 3.2244280230635978 -0.709582134750581 0 0 0
522 141 4 0 -4.259668519219581 2.6485426242425274 -3.4720285435129643 0 0 1
521 141 2 0 -3.8756120040142985 2.5354623945373556 -3.685394590412062 0 0 1
442 114 4 0 -4.6306884957555745 2.7396013560703953 -3.244697671568743 0 0 0
695 199 2 0 -4.281819567063752 2.2701885788140856 -4.7648681295343165 1 0 0
697 199 4 0 -4.139012621480362 2.6807849252594154 -4.6170251472193975 1 0 0
523 141 4 0 -3.496317080485946 2.4263145805063884 -3.8963380462169876 0 0 1
34 7 3 0 -3.3172707219370654 0.07645912144831328 -0.6107229482106808 0 0 0
477 126 4 0 -3.381739886214988 2.418549527777102 -4.2705432603882505 0 0 1
476 126 2 0 -3.102555032851164 2.6628449253449196 -4.54452976955016 0 0 1
448 116 4 0 -0.1820354012156792 2.525763639799346 -2.160534118428103 0 0 0
427 109 4 0 -0.07006664682687434 2.154309185255109 -2.142465848432125 0 0 0
383 95 2 0 -0.2275213444823857 2.0576353311765314 -3.5713492175437938 0 0 0
384 95 4 0 -0.19267123274240383 1.7682872452047098 -3.9407171555214378 0 0 0
385 95 4 0 -0.25518735018284017 2.3234524623488424 -3.227322342531423 0 0 0
440 114 2 0 -4.78685607870332 3.075176453549117 -3.4652056510790685 0 0 0
504 135 4 0 -4.26494423240304 4.5048554567414865 -4.347903441118159 0 0 1
503 135 2 0 -3.8109389095039217 4.483906845938729 -4.354012394067659 0 0 1
68 14 3 0 -4.535080232580068 4.278557059620086 -4.19110808539849 0 0 0
505 135 4 0 -3.3600063337282795 4.468794058498912 -4.354569275567259 0 0 1
390 97 4 0 -3.2267839273006604 4.074984440062323 -4.403921032142485 0 0 0
116 24 1 0 -1.7013770496469287 3.9752604148074537 -4.391907005641129 0 0 1
119 24 3 0 -2.0948322211589456 4.109732649563628 -4.530623041708424 0 0 1
391 97 4 0 -2.399608690118426 3.8309092995313554 -4.529516629090151 0 0 0
389 97 2 0 -2.8165831909542365 3.9579064715581467 -4.46260048200021 0 0 0
120 24 3 0 -1.5172657487236434 3.6714379328758784 -4.719577316203736 0 0 1
118 24 3 0 -1.7560212801693518 3.751011836589574 -3.9884709269297436 0 0 1
117 24 3 0 -1.4062663516803464 4.345066695739335 -4.331276817165625 0 0 1
526 142 4 0 -1.1271129719971018 4.618118802535091 -4.22901426022572 0 0 1
525 142 4 0 -0.3648678890358233 4.406745456595918 -4.6993992995269505 0 0 1
524 142 2 0 -0.7540227800619487 4.515566281921412 -4.463801637221573 0 0 1
210 42 3 0 -0.09996638065286514 1.1082617823207124 -4.753693376607383 0 0 0
90 18 3 0 -1.3674529727526883 4.086336297839047 -3.3500778462413123 0 0 0
401 101 2 0 -4.302848089735632 3.9922392319999185 -0.20167034040605297 0 0 0
403 101 4 0 -3.976254002981183 3.7389583005121443 -0.40425843435385467 0 0 0
414 105 4 0 -3.9299896329067088 3.5974258871407567 -0.7982009013598469 0 0 0
286 62 4 0 -2.8607322003359585 0.9183989141032244 -2.8100731707700257 0 0 0
284 62 2 0 -2.643967809590785 0.6238520312462841 -2.5634958200355342 0 0 0
285 62 4 0 -2.412924745061871 0.31272913975283406 -2.3098559467052358 0 0 0
9 2 3 0 -2.3810456851270856 0.015057552897876289 -2.034057311178378 0 0 0
450 117 4 0 -1.39815677479748 0.7916007138425419 -3.1881246402236654 0 0 1
449 117 2 0 -1.576723539107107 0.3504337316989543 -3.1016526729225915 0 0 1
698 200 2 0 -4.33683332047418 2.8195047528966675 -2.2249482857082574 1 0 0
699 200 4 0 -4.768620864139529 2.7611586517497573 -2.1576336371233027 1 0 0
700 200 4 0 -3.8694322407765167 2.861946995045637 -2.2950452692974106 1 0 0
406 102 4 0 -3.663346486099061 3.1360087181211527 -2.4617446214380028 0 0 0
420 107 4 0 -0.28170023158908053 2.6428125430212437 -2.967803169182203 0 0 0
400 100 4 0 -1.0295161356720446 3.140393883669907 -1.4621822872989598 0 0 0
446 116 2 0 -0.4236184136751578 2.7889448596351705 -1.9038601818984744 0 0 0
447 116 4 0 -0.6784577933381291 3.0588316974054686 -1.6318453176333851 0 0 0
404 102 2 0 -3.3401396021040837 3.432699696904181 -2.524922473351796 0 0 0
423 108 4 0 -1.9949963952668737 4.172192323259037 -2.6685121910429075 0 0 0
405 102 4 0 -2.9938565719562966 3.7450022399271616 -2.587730836737764 0 0 0
424 108 4 0 -2.9119794822852674 4.135065685755606 -2.5945409519309948 0 0 0
422 108 2 0 -2.4471464989135376 4.151853904813988 -2.6323733740976145 0 0 0
87 18 3 0 -1.8368756005992408 3.8540453372635715 -2.8478697119719114 0 0 0
89 18 3 0 -1.2723433840177156 3.4476119339906752 -3.0548489905867457 0 0 0
88 18 3 0 -1.1566732928308092 4.02597400091295 -2.6598713323870444 0 0 0
86 18 1 0 -1.4082339463247973 3.8504455259180737 -2.9837739286168077 0 0 0
435 112 4 0 -0.08829088931884448 4.275417722719569 -1.920581187961899 0 0 0
434 112 2 0 -0.451499921819556 4.205405631044933 -2.2236860726978147 0 0 0
436 112 4 0 -0.799838755732043 4.142693477742031 -2.513935252304675 0 0 0
35 7 3 0 -4.012545097938128 0.20910481053512506 -0.7805114603198305 0 0 0
8 2 3 0 -2.4301902836580673 0.3029535665375018 -1.3347713202410079 0 0 0
413 105 2 0 -3.5179422346137987 3.404561199935279 -0.7557142613324854 0 0 0
445 115 4 0 -2.7924946270772275 3.320641904439622 -0.8996631660252957 0 0 0
443 115 2 0 -2.4410015626302917 3.0730245596589905 -1.0182722236035966 0 0 0
444 115 4 0 -2.085967369480968 2.8247535467107445 -1.1435517351528117 0 0 0
399 100 4 0 -1.7390372513364751 2.63382521738553 -1.2791191679856033 0 0 0
411 104 4 0 -0.4838822345605106 2.1757840574750897 -0.20665998838620556 0 0 0
398 100 2 0 -1.3836296032981956 2.8879944828964157 -1.3676257792935946 0 0 0
110 22 3 0 -4.644220260750625 4.612377490775376 -0.04565356064106899 0 0 0
402 101 4 0 -4.622287968073684 4.221369374323247 -0.013224858240757142 0 0 0
199 40 3 0 -4.625676787947352 1.5311180516511258 -4.788619365919249 1 0 0
753 218 4 0 -4.2565338431062685 3.0310517896616993 -4.7803127943659725 1 0 1
520 140 4 0 -3.8657492403729803 1.369649683989898 1.1719192571645403 0 0 0
28 6 3 0 -1.916792697348403 0.4420547296570944 0.4093093718229883 0 0 0
392 98 2 0 -2.0880022041937787 1.1708328819161622 0.6817371982159802 0 0 0
394 98 4 0 -2.0920348311073362 0.7246331463577954 0.6725898094566128 0 0 0
26 6 1 0 -1.8361178665664069 0.007378632696150437 0.4599257120924633 0 0 0
393 98 4 0 -2.0913836455118395 1.5899535254789938 0.6867837479477235 0 0 0
197 40 3 0 -4.757223577538493 1.5742967879549623 4.121339226300796 1 0 -1
62 13 3 0 -4.097139517485966 1.670877178778746 1.0204996650084746 0 0 0
61 13 1 0 -4.427958229231729 2.0012423326011413 1.0432396911033637 0 0 0
497 133 2 0 -3.6456821828783457 2.5183602587887575 0.5230127559507454 0 0 0
499 133 4 0 -4.100769330580068 2.504628402020471 0.5251577782487296 0 0 0
64 13 3 0 -4.384939725094216 2.286733456611438 0.7007265634702534 0 0 0
453 118 4 0 -4.535401763444007 2.598441030673491 1.4740465120505433 0 0 0
63 13 3 0 -4.389537697590232 2.237534879933841 1.4623699290039531 0 0 0
498 133 4 0 -3.1908837035119224 2.5305849487484893 0.5150846820642777 0 0 0
456 119 4 0 -2.8505911667368298 2.3618208552797655 0.4032731323615947 0 0 0
455 119 2 0 -2.546138917004545 2.132800900096541 0.652451279316133 0 0 0
457 119 4 0 -2.2385399828994523 1.9145739758293514 0.8927558567900594 0 0 0
79 16 3 0 -1.9136236444493482 1.7286245915477945 0.9953034585613738 0 0 0
78 16 3 0 -1.643717719419174 2.4061154121497617 1.2375262178764768 0 0 0
473 125 2 0 -2.07250367666002 3.1479444408644564 1.13905630309968 0 0 0
474 125 4 0 -1.7869817265731722 2.8039864707622457 1.1930255687207205 0 0 0
410 104 2 0 -0.8201295676616975 2.087010651267973 0.08577484335176638 0 0 0
412 104 4 0 -1.1635311666663206 2.0010949736150274 0.3796886168206138 0 0 0
77 16 3 0 -1.197210082605227 1.986078742589472 0.7857381981109474 0 0 0
76 16 1 0 -1.523533960790185 1.9779997655761565 1.1344822382162882 0 0 0
80 16 3 0 -1.348971127410103 1.784880019452482 1.476656493778087 0 0 0
475 125 4 0 -2.3555785004285026 3.497863083332119 1.0800498645418333 0 0 0
747 216 4 0 -0.107985321513031 3.698007373955255 0.8820597769040682 0 0 0
489 130 4 0 -0.2386553707921636 3.374896898299334 0.6258936833063589 0 0 0
746 216 2 0 -0.40877673159847894 3.956199296233808 1.1331860669852378 0 0 0
748 216 4 0 -0.6945811971633388 4.186922067163444 1.3675694240914724 0 0 0
518 140 2 0 -3.7836436769377713 1.275172343713469 1.6510075463012113 0 0 0
519 140 4 0 -3.7042636626853866 1.1806849635500527 2.109545658549942 0 0 0
323 75 2 0 -3.6374721746123244 0.741854474396723 2.7522883773602973 0 0 0
325 75 4 0 -3.8055688278712796 1.01960804096558 2.4471312208409235 0 0 0
324 75 4 0 -3.4650492618084745 0.45706378351538596 3.06148505911866 0 0 0
496 132 4 0 -2.0285051021437606 0.32740661762221474 2.9500565760196524 0 0 0
460 120 4 0 -2.3995047990041507 1.0471030638730652 2.646976073813218 0 0 0
458 120 2 0 -2.4465893914630796 1.065962690812991 2.1943561343653535 0 0 0
57 12 3 0 -2.387986822909435 1.281656491202573 2.9746194924054357 0 0 0
459 120 4 0 -2.4891989090753475 1.0903949190767726 1.7475154933396353 0 0 0
56 12 1 0 -2.1801271334515055 1.0765118625369456 3.3204628755052896 0 0 0
60 12 3 0 -1.8028667818605326 1.3073491762691336 3.412239921617387 0 0 0
452 118 2 0 -4.178408800074979 2.8686882354883934 1.6420913912479755 0 0 0
98 20 3 0 -3.3702921921232845 3.0914887677616187 2.6693415128902904 0 0 0
501 134 4 0 -1.181027828737656 2.0692272724499166 1.7325846658488655 0 0 0
500 134 2 0 -1.0009437048311234 2.1382804679816783 2.1608978319753063 0 0 0
94 19 3 0 -0.7093181717546099 2.579136522209434 2.570866868208801 0 0 0
502 134 4 0 -0.8376084165355774 2.2116271403142522 2.584473152440036 0 0 0
91 19 1 0 -0.7774188813098065 2.972329683764797 2.78833194597619 0 0 0
93 19 3 0 -1.0801558035394723 2.9244788064785405 3.0781699538156317 0 0 0
486 129 4 0 -1.2118555052630273 2.584593588089977 3.2332186319035676 0 0 0
454 118 4 0 -3.825949454698019 3.129975961611289 1.813821101596887 0 0 0
99 20 3 0 -3.85724341116673 3.30487717822343 2.151594017223048 0 0 0
96 20 1 0 -3.6107123454712977 3.448870842410919 2.486296841916982 0 0 0
466 122 4 0 -4.185943536560679 3.855221433986538 2.629260174331931 0 0 0
97 20 3 0 -3.8877310541657715 3.6371365955367665 2.828907503932486 0 0 0
464 122 2 0 -4.539017765736999 4.106007367077727 2.5418421725587534 0 0 0
100 20 3 0 -3.3166553626231994 3.7603204152830765 2.325614054610586 0 0 0
508 136 4 0 -2.96722008274249 3.9783088220987524 2.379914973575019 0 0 0
506 136 2 0 -2.5761737243210128 4.160609790993105 2.391850598539935 0 0 0
507 136 4 0 -2.1807628753299264 4.341685729824886 2.4100026807383723 0 0 0
331 77 4 0 -1.9380125211255217 4.650365345680352 2.3896303747092564 0 -1 0
92 19 3 0 -0.9113630761138761 3.2983608129010387 2.4898826564198697 0 0 0
793 231 4 0 -0.9116536222143311 3.69136600379651 2.5036695704960077 0 0 0
792 231 4 0 -0.879732721498271 4.084606574489458 1.706237568573564 0 0 0
791 231 2 0 -0.8923829790296901 3.869709375475868 2.128975315134827 0 0 0
104 21 3 0 -0.48571739403897995 4.266939553087933 3.092251553111757 0 0 0
736 212 4 0 -4.663744750900102 2.6691436832273228 3.565941386772668 1 0 -1
72 15 3 0 -3.659968410637043 0.4368815037452865 3.407285282278958 0 0 -1
429 110 4 0 -4.59846554109782 0.6372608693188638 3.476319972049052 0 0 -1
71 15 1 0 -3.9083257922193826 0.274267129250957 3.737169215496159 0 0 -1
74 15 3 0 -3.6816576748364844 0.3001776585602612 4.1235955432097136 0 0 -1
75 15 3 0 -4.288977505113737 0.5161587563033683 3.7648913389620136 0 0 -1
514 138 4 0 -3.3235094539711194 0.42584846405762866 4.248205551201591 0 0 0
105 21 3 0 -0.4624083022332067 4.591067922293603 3.753706768489751 0 0 0
198 40 3 0 -4.7072790424386035 0.9164060077642753 4.454198304531279 1 0 -1
334 78 4 0 -1.6573158526254559 0.07728241453908437 4.781614579877412 0 0 0
59 12 3 0 -2.087451101841755 0.6313101057958683 3.2160033297806487 0 0 0
512 138 2 0 -2.9348530703826925 0.6581741189521634 4.113831671286186 0 0 0
58 12 3 0 -2.4461878829759267 1.0932350592361855 3.6642400493819234 0 0 0
513 138 4 0 -2.5563720745259975 0.8889944058882335 3.98572468154818 0 0 0
375 92 4 0 -0.7578437887905917 0.08213106143338654 3.592187133732705 0 0 0
472 124 4 0 -1.5370077095657437 0.9725921210755757 3.4950402021905704 0 0 0
470 124 2 0 -1.1858708122354424 0.7094006738600803 3.630310937677723 0 0 0
471 124 4 0 -0.8341996581413795 0.4486753473813665 3.7738050997057617 0 0 0
775 225 4 0 -0.1576819775095307 0.7684270079737119 4.626718410437592 0 0 0
102 21 3 0 -0.9869968720247153 4.128610832867986 3.589209096358804 0 0 0
735 212 4 0 -4.5997417182865235 1.7700939696317008 3.8013812653963495 1 0 -1
752 218 2 0 -4.550602944915335 3.2931587526115607 4.577732421153681 1 0 0
469 123 4 0 -0.2714922144199013 4.62116391126201 4.118606317850922 0 0 0
515 139 2 0 -2.131904220191706 2.777028577344293 4.430117067039264 0 0 0
516 139 4 0 -1.7864903561926513 2.521013280808637 4.268568356943019 0 0 0
487 129 4 0 -1.6100721698489835 2.3201574232350466 3.98299284234366 0 0 0
461 121 2 0 -1.4496580275968627 3.8145720649109074 4.132405577732573 0 0 0
794 232 2 0 -0.15699597711982902 2.65382502436794 4.706285979688661 0 0 0
485 129 2 0 -1.4155758073558327 2.455587536533458 3.6236633950235593 0 0 0
95 19 3 0 -0.414291466648217 3.0934346418318093 2.9865477856600147 0 0 0
796 232 4 0 -0.43816712140290104 2.265559463661633 4.7316756506888025 0 0 0
103 21 3 0 -0.31211615154074906 3.8858806152042487 3.697458704297944 0 0 0
463 121 4 0 -1.669823847331741 3.752839270005528 4.52457867616519 0 0 0
462 121 4 0 -1.2277845814363588 3.876633630358249 3.7611343414790785 0 0 0
510 137 4 0 -0.010979225342607039 3.654687891214912 3.6430559017725757 0 0 0
101 21 1 0 -0.5637020794584653 4.219560312884372 3.538265069480799 0 0 0
734 212 2 0 -4.635812560009413 2.2260912499699987 3.6771190841589916 1 0 -1
336 79 4 0 -1.9915272791908358 4.391307065101267 4.379365605436132 0 -1 0
696 199 4 0 -4.430480495026957 1.8744990443501621 4.715435908368133 1 0 -1
478 126 4 0 -2.8257208299636214 2.9184219638822935 4.792224509498719 0 0 0
517 139 4 0 -2.4810811183899575 3.025610210270162 4.589988370129825 0 0 0
207 42 3 0 -0.2964157850628339 1.8577431716619832 4.803527487779743 0 0 -1
388 96 4 0 -0.03387023040497791 4.227329037079425 4.711471483672289 0 0 -1
576 159 4 0 1.0607188907584422 -4.366910528494946 -3.997830856095211 0 0 0
616 172 4 0 1.3811868440567863 -4.574697072112712 -3.8767648967555806 0 0 1
575 159 2 0 0.9211499784619802 -3.963915942623631 -4.159551706440518 0 0 0
577 159 4 0 0.7861817724594405 -3.5344803298660805 -4.338398819526522 0 0 0
143 29 3 0 4.619607869544715 -4.3134843873352375 -2.1851818567062793 0 0 0
122 25 3 0 2.6131262893926226 -4.298608047401096 -3.9449128067930785 0 0 0
121 25 1 0 2.8551268708443347 -4.367567797199453 -3.5775629449263557 0 0 0
123 25 3 0 2.8612789236021494 -3.9951934740918253 -3.3323531799629 0 0 0
124 25 3 0 2.677726529332413 -4.696536329690123 -3.3465364080281197 0 0 0
555 152 4 0 2.5251852907110615 -4.664928434911056 -4.075421098902555 0 0 0
125 25 3 0 3.2942249213070993 -4.477563406082459 -3.7030849437879665 0 0 0
650 184 2 0 3.3377059564119276 -0.4227272654442933 -0.8679304632963151 0 0 0
147 30 3 0 0.7351681058367076 -3.2199539265598163 -4.583728319741656 0 0 0
559 153 4 0 0.23589002703955106 -1.4696102764568122 -4.012018181098042 0 0 0
557 153 2 0 0.6234417965190878 -1.7091299123242119 -3.9485561860864853 0 0 0
558 153 4 0 1.0260736928512444 -1.9542388190628974 -3.8982108722851625 0 0 0
586 162 4 0 1.2143782557319878 -2.0875167522949902 -4.2430253193404885 0 0 0