LAMMPS data file via write_data, version 19 Nov 2024, timestep = 10000000, units = lj

4800 atoms
4 atom types
3300 bonds
1 bond types
2250 angles
2 angle types

-11.677732 11.677732 xlo xhi
-11.677732 11.677732 ylo yhi
-11.677732 11.677732 zlo zhi

Masses

1 1
2 1
3 0.1
4 0.1

Bond Coeffs # harmonic/omp

1 100 0.45

Angle Coeffs # harmonic/omp

1 100 180
2 100 109.471

Atoms # full

810 170 4 0 -0.060044606417897585 -3.035244374763898 -7.569758432255695 0 0 0
1368 356 4 0 -11.613882923861965 -8.956040301008468 -2.4856446801737 0 0 0
2982 894 4 0 -6.039526507077685 -10.793383691583822 -11.549477943728952 0 0 0
2980 894 2 0 -6.125332977246389 -10.305534471774953 -11.501977418157189 0 0 0
4180 1294 2 0 -6.6875708858278005 -11.254529153926008 -11.42297625963859 0 1 0
4181 1294 4 0 -6.417183280841907 -10.911136876218073 -11.602502662274958 0 1 0
1131 277 4 0 -2.5269119316427577 -10.419730509598294 -11.351512372749214 0 0 0
1129 277 2 0 -2.2064946358760245 -10.117255340569844 -11.30122977537903 0 0 0
1356 352 4 0 -2.4826158166171703 -10.780144165930922 -11.18779647057876 0 0 1
1355 352 4 0 -2.7186088150643934 -11.528322236266433 -11.562322028902637 0 0 1
1354 352 2 0 -2.601817778282039 -11.147562873583805 -11.369656167397698 0 0 1
934 212 2 0 -10.350587492030144 -8.41553192354678 -11.27878905597219 0 0 0
936 212 4 0 -10.318069926155157 -8.79010402337473 -11.570049183519714 0 0 0
1635 445 4 0 -10.71931067519714 -8.859311394410522 -11.610387068415701 0 0 1
2981 894 4 0 -6.202863362911039 -9.881887322074217 -11.473841561567207 0 0 0
1130 277 4 0 -1.8815702540592185 -9.818673437926298 -11.247646016489766 0 0 0
1833 511 4 0 -1.5034872917049573 -9.976174565433379 -11.161032629681138 0 1 0
1831 511 2 0 -1.2221202677443945 -9.758051825329504 -10.891898248974416 0 1 0
1832 511 4 0 -0.9425373866942011 -9.544818327692315 -10.642261172198658 0 1 0
3041 914 4 0 -0.5871718066822774 -9.365490476861694 -10.603334119766586 0 0 0
3040 914 2 0 -0.18886780410176024 -9.340185872694931 -10.435621262556442 0 0 0
2843 848 4 0 -10.124456652118655 -8.080395080026328 -10.707926627918692 1 0 0
935 212 4 0 -10.386652452207425 -8.05369439813938 -10.991523903206902 0 0 0
1068 256 4 0 -11.63621070252438 -7.218223408428212 -10.119122151626787 0 0 0
1066 256 2 0 -11.32651871740185 -6.897484929069064 -10.291684806239587 0 0 0
2842 848 2 0 -9.973739468922163 -7.894179809759558 -10.323129100614839 1 0 0
1067 256 4 0 -11.015962518374373 -6.589482738903056 -10.459887221893435 0 0 0
2907 869 4 0 -3.9737071564347146 -6.282216894749947 -10.302719620585346 0 0 0
3738 1146 4 0 -10.646974859024361 -6.467253033521295 -10.622971265402468 1 0 1
3736 1146 2 0 -10.374511721575816 -6.320830032435907 -10.933591173661295 1 0 1
3737 1146 4 0 -10.10597317909209 -6.1613028192932395 -11.257556330357174 1 0 1
1058 253 4 0 -9.7709603946159 -5.9419532614214114 -9.974762288094718 0 0 0
852 184 4 0 -9.719819094727162 -5.658424044118863 -10.228825579807806 0 0 0
850 184 2 0 -9.497230418293196 -5.421869220194971 -10.52945577735799 0 0 0
3034 912 2 0 -7.2843071594749125 -5.504193170776403 -10.952427437057805 1 0 0
3444 1048 4 0 -7.063922316255081 -5.70545046066004 -10.228143736273589 0 0 1
3035 912 4 0 -7.334409825391807 -5.721639943713222 -10.555635998262606 1 0 0
3036 912 4 0 -7.225946028199789 -5.298707341787106 -11.351000608415571 1 0 0
942 214 4 0 -7.06979742258016 -5.112950515521739 -11.649677384676927 0 0 0
2455 719 2 0 -3.7527023795583934 -5.31016985675794 -10.95853787620638 0 1 1
2457 719 4 0 -3.8812038300943135 -5.290423852240586 -11.39213527354103 0 1 1
2456 719 4 0 -3.630572544993852 -5.332778123519953 -10.522966866851588 0 1 1
598 120 3 0 -3.9413726768781663 -5.1999808604552635 -10.3336171729746 0 0 0
1883 528 4 0 -2.570542855061142 -5.1660227140335016 -10.32647928025947 0 0 0
1882 528 2 0 -2.966100799170024 -5.188698891115404 -10.096490521143187 0 0 0
851 184 4 0 -9.239140165439963 -5.154487210059494 -10.867979424867974 0 0 0
744 149 3 0 -9.124556346266374 -4.849548461711267 -11.111038553468877 1 1 0
743 149 3 0 -9.622769670154293 -4.342179322867628 -10.94770789641736 1 1 0
3752 1151 4 0 -9.69635252302482 -4.123563541085431 -10.613497491193067 1 0 1
741 149 1 0 -9.40638112633263 -4.57443967711695 -11.287037751252917 1 1 0
3751 1151 2 0 -9.923188784641624 -3.7517124282800256 -10.5243295610999 1 0 1
3753 1151 4 0 -10.136906718408506 -3.3856579084005527 -10.45048783161589 1 0 1
1509 403 4 0 -5.099890176185935 -3.799271160019236 -11.480489784547679 0 0 1
1141 281 2 0 -5.629489930293991 -3.2888469474437785 -10.27186338202042 0 0 0
1143 281 4 0 -5.923115564837438 -3.2359954922746192 -9.958169239727813 0 0 0
1142 281 4 0 -5.32260149587473 -3.3451958632789993 -10.594051011237099 0 0 0
207 42 3 0 -4.952791382898141 -3.500844469222641 -11.265518725083869 0 0 0
206 42 1 0 -4.713934507603545 -3.263331049633699 -10.953442309434834 0 0 0
1919 540 4 0 -4.272662759941935 -3.7748379934520604 -10.536917464544718 0 0 0
208 42 3 0 -4.391547108092759 -3.502715832684286 -10.80827103113783 0 0 0
1918 540 2 0 -4.3698212468364215 -4.161900624779351 -10.34518491763309 0 0 0
1920 540 4 0 -4.458998751910306 -4.556641738354386 -10.153265817242996 0 0 0
3521 1074 4 0 -2.1868895693421044 -5.166209992387871 -10.3633908545855 1 -1 1
3520 1074 2 0 -1.9062718209857341 -4.855148216175953 -10.20307808202046 1 -1 1
3522 1074 4 0 -1.6021494350457108 -4.523583737451004 -10.033946949602132 1 -1 1
787 163 2 0 -10.428878537837452 -2.7677488334526017 -10.230742089860268 0 0 0
788 163 4 0 -10.136301352612442 -3.093168975866306 -10.157227610578206 0 0 0
210 42 3 0 -4.984214626249773 -3.1650852509276253 -10.605301320511721 0 0 0
209 42 3 0 -4.555172593538595 -2.8844713569104217 -11.126225635344467 0 0 0
923 208 4 0 -4.445254052483392 -2.7442798323734507 -11.488597637598408 0 0 0
922 208 2 0 -4.025970423591787 -2.703589658605114 -11.655778815579243 0 0 0
3047 916 4 0 -1.8321165602703928 -2.2197900732002647 -10.709161461429332 0 0 0
3046 916 2 0 -1.5276781659884238 -2.1923821484807076 -11.04367898710592 0 0 0
3048 916 4 0 -1.2278717894118136 -2.1597829415529426 -11.369331200509341 0 0 0
69 14 3 0 -11.508005900550172 -1.2664210190325962 -10.002150582818253 0 0 0
2208 636 4 0 -7.695425288292779 -1.6136797170538453 -11.119192036894573 0 0 0
1287 329 4 0 -7.48742293421937 -1.6091361292884077 -10.769758180502201 0 0 1
1285 329 2 0 -7.139235570790059 -1.5192473279665184 -10.534901525147932 0 0 1
1286 329 4 0 -6.7781428277257385 -1.42236461918591 -10.289165756812617 0 0 1
1272 324 4 0 -6.6511682272030965 -1.2295259683120836 -9.947269189641945 0 0 1
1270 324 2 0 -6.600101650170942 -0.7899726191257039 -9.834373515077587 0 0 1
979 227 2 0 -0.9721667002789853 -0.3830752968166855 -11.63327840755526 0 0 0
1599 433 4 0 -1.1169342893101284 -0.5171486825526711 -10.827585840587783 0 0 1
980 227 4 0 -0.9346401001934295 -0.46365700705835844 -11.182846849157043 0 0 0
1597 433 2 0 -1.2768317318051168 -0.2717877818156083 -10.455865833682944 0 0 1
1598 433 4 0 -1.442673546343652 -0.029606317090752024 -10.086752232836243 0 0 1
1612 438 2 0 -7.044010314784461 -10.36768882018467 -8.567718460178195 0 0 1
1316 339 4 0 -7.360639014770562 -11.103311202453726 -8.405301658527966 0 0 1
1613 438 4 0 -7.246377099982042 -10.717481290981667 -8.417442689557035 0 0 1
1315 339 2 0 -7.597516549059062 -11.469542399163142 -8.271715252984524 0 0 1
2167 623 2 0 -0.37260519670518405 -10.871492696288506 -8.589906223088544 0 1 0
2169 623 4 0 -0.30461109896075694 -11.282984343850071 -8.793260689217314 0 1 0
1297 333 2 0 -4.493977020525693 -0.9811806549501675 -1.7550589111016865 0 0 0
4091 1264 4 0 -11.13786017198037 -8.96670066347247 -8.889990202317286 1 1 0
4640 1447 4 0 -11.077132582722404 -8.957592236016243 -9.282257195518863 1 1 1
4639 1447 2 0 -10.685502543715534 -8.897900017896754 -9.531404121097987 1 1 1
4090 1264 2 0 -11.59305065924351 -8.988537576012662 -8.809615515494706 1 1 0
4641 1447 4 0 -10.27678905543303 -8.833225824189743 -9.800376456596872 1 1 1
1614 438 4 0 -6.8350798590107225 -9.983629976249542 -8.72509406097898 0 0 1
796 166 2 0 -6.930932075411675 -9.329937730541088 -8.982229706355964 0 0 0
797 166 4 0 -7.222411170758544 -8.998911921368627 -9.05097978504755 0 0 0
798 166 4 0 -6.639072865442277 -9.676021987553755 -8.909347340697243 0 0 0
1016 239 4 0 -7.396109429975111 -8.677354687908927 -8.893409916917577 0 0 0
2844 848 4 0 -9.844805810781562 -7.711599057392063 -9.945664206077382 1 0 0
249 50 3 0 -10.26060967484274 -6.959374256754907 -9.726095704200361 0 1 0
246 50 1 0 -10.298098587056968 -7.2938914228573495 -9.442312524590733 0 1 0
1220 307 4 0 -11.0436531777468 -7.670004791668111 -9.282868108514684 0 0 0
1219 307 2 0 -11.28141202642382 -7.500556561445726 -8.965023214802589 0 0 0
247 50 3 0 -10.751206747978951 -7.3912541585543785 -9.365921877953719 0 1 0
1079 260 4 0 -10.171880635984603 -7.368576705576282 -8.700877053113922 0 0 0
1221 307 4 0 -11.518925127582422 -7.3217190371761145 -8.637734336089114 0 0 0
248 50 3 0 -10.101419667974367 -7.656149689252949 -9.62787314512966 0 1 0
250 50 3 0 -10.09249480212559 -7.179354732698567 -9.048821263052567 0 1 0
3066 922 4 0 -11.411639128309915 -7.1097372905733325 -8.312898787663109 1 0 0
1015 239 2 0 -7.485301947300704 -8.269919215456952 -8.754589766293293 0 0 0
835 179 2 0 -7.133195796242816 -7.1858184994737195 -8.53181233795214 0 0 0
837 179 4 0 -6.941862742328639 -6.79155709464221 -8.619374591638284 0 0 0
1017 239 4 0 -7.573832938165577 -7.852430582809239 -8.624586481415392 0 0 0
1010 237 4 0 -5.218501777088275 -6.735845030304815 -8.594626998585367 0 0 0
1009 237 2 0 -5.031584463703077 -6.711842437554859 -9.006800121314468 0 0 0
1057 253 2 0 -10.009659671271852 -6.267910045318123 -9.774061643418134 0 0 0
1059 253 4 0 -10.253679035407801 -6.591118333510223 -9.56659404911674 0 0 0
3442 1048 2 0 -6.804751020626165 -5.912342033779176 -9.943525110015717 0 0 1
3443 1048 4 0 -6.534078421452389 -6.110931568970289 -9.653848544299645 0 0 1
879 193 4 0 -6.365765893646541 -6.211788347819271 -9.336320108447982 0 0 0
878 193 4 0 -6.769658000612774 -6.4297751912897 -8.558780020806903 0 0 0
877 193 2 0 -6.559384154420017 -6.320118933420101 -8.951131648406436 0 0 0
2133 611 4 0 -5.20336405205107 -5.5367687645077135 -9.036643349436085 0 0 0
1074 258 4 0 -5.32797806035994 -5.282273646706596 -8.758010267657871 0 0 0
1011 237 4 0 -4.854651412851392 -6.68230340603419 -9.441899251739109 0 0 0
2906 869 4 0 -4.541738303817334 -6.494037770170124 -9.626227141307487 0 0 0
2905 869 2 0 -4.266604992837077 -6.389896432374794 -9.953522724814912 0 0 0
2131 611 2 0 -4.813523681134267 -5.590460896837428 -9.238351150854985 0 0 0
2132 611 4 0 -4.3983692692069 -5.640783552930933 -9.454155596086624 0 0 0
597 120 3 0 -4.335153468188476 -5.397453389770361 -9.770792019629358 0 0 0
600 120 3 0 -3.688823763617512 -5.174660306285819 -9.664596295676947 0 0 0
596 120 1 0 -4.040095572597076 -5.126076064879929 -9.900629152523075 0 0 0
1884 528 4 0 -3.362434435254069 -5.218130211303928 -9.86949270985564 0 0 0
80 16 3 0 -6.340777923856788 -3.3011874359937083 -9.304237970819992 0 0 0
1427 376 4 0 -6.427991214003799 -3.6807656369269517 -9.201261741803105 0 0 1
1426 376 2 0 -6.187471048853612 -4.0069071149915 -9.072506058087578 0 0 1
1072 258 2 0 -5.698615048866309 -4.996854092667492 -8.7776917257772 0 0 0
1428 376 4 0 -5.937503783617092 -4.3610412384917945 -8.931030870770934 0 0 1
1073 258 4 0 -6.0651508974712085 -4.704562298649389 -8.78002156558028 0 0 0
599 120 3 0 -4.209668892943294 -4.698408619719809 -9.852425832145302 0 0 0
789 163 4 0 -10.714274804674877 -2.4461966475296713 -10.294274448941222 0 0 0
1950 550 4 0 -10.607386618675001 -2.0552791367279 -10.262972840900579 0 0 0
1948 550 2 0 -10.986775584115188 -1.8483201495636854 -10.082396713224645 0 0 0
1521 407 4 0 -10.743012449276966 -1.8346600977720633 -8.449200941129735 0 0 0
1519 407 2 0 -10.447388712301713 -1.5834161801774493 -8.661872875284669 0 0 0
4343 1348 4 0 -10.67366518139945 -2.192819878986217 -8.22994929576688 1 0 0
77 16 3 0 -6.885216773169546 -3.1606189911728193 -9.83537056655838 0 0 0
1399 367 2 0 -6.943424579964517 -2.241329103493231 -8.83748655603767 0 0 1
1401 367 4 0 -6.782541579774193 -2.2837129924276565 -9.263169748995942 0 0 1
76 16 1 0 -6.488648516581971 -2.995926290784816 -9.62048985369752 0 0 0
1400 367 4 0 -7.109756708278257 -2.200094138715963 -8.41240308617252 0 0 1
78 16 3 0 -6.17647770292568 -2.9301969684084526 -9.919581992378438 0 0 0
79 16 3 0 -6.577511790301742 -2.590432682851176 -9.416135678647198 0 0 0
866 189 4 0 -4.880501467502613 -2.5554136407003947 -8.330371893063909 0 0 0
865 189 2 0 -5.283526511263006 -2.633023964494808 -8.170792068563987 0 0 0
1949 550 4 0 -11.368372288967134 -1.6326692005105863 -9.903417560221492 0 0 0
1520 407 4 0 -10.117972305737212 -1.3207891146352282 -8.880000411707037 0 0 0
1271 324 4 0 -6.53734092623243 -0.3463467616684533 -9.724897355738058 0 0 1
1818 506 4 0 -6.31038878276925 -0.0997561179673691 -9.945178427117543 0 0 0
642 129 3 0 -0.05757049137574559 -1.8308896484485535 -7.568994828302199 0 0 0
112 23 3 0 -0.031153413968356265 -5.539055813661875 -6.856421880127632 0 0 0
2577 759 4 0 -5.60403209218794 -11.42037263893331 -7.651867157377237 0 1 0
1254 318 4 0 -5.4196109388072795 -11.10598246162171 -7.414228398943912 0 1 0
1252 318 2 0 -5.156481401289521 -10.88239600103097 -7.103218278825972 0 1 0
1253 318 4 0 -4.899758752298632 -10.652935884655923 -6.791653239635559 0 1 0
253 51 3 0 -3.135854342740878 -11.138733761067321 -7.592039856555957 0 1 0
251 51 1 0 -3.038955348948455 -11.450861221414547 -7.2858686124670635 0 1 0
821 174 4 0 -0.04576807552257069 -1.4478857081252783 -10.838234966658044 0 0 0
2508 736 4 0 -0.410676587356338 -10.270771465188623 -8.021669364600289 0 1 0
2168 623 4 0 -0.4377828496261786 -10.455730322585163 -8.388889487585972 0 1 0
1138 280 2 0 -9.71342956447296 -9.130982421966866 -6.649609193414233 0 0 0
1140 280 4 0 -9.68997508212408 -8.822400681498687 -6.981191612049702 0 0 0
2892 864 4 0 -9.715873924599746 -8.602048898595537 -7.338478179540789 0 0 0
3138 946 4 0 -3.277690318386413 -9.121036924912463 -7.69868454391944 0 0 0
3136 946 2 0 -2.9880859739171948 -8.972557856363803 -7.418338486026631 0 0 0
4283 1328 4 0 -2.588913935943711 -8.438311392957193 -6.976760219024015 0 1 0
3137 946 4 0 -2.6872784814444386 -8.81549478393806 -7.116021041155114 0 0 0
2506 736 2 0 -0.1847806030034725 -9.977206122370234 -7.7335689331415285 0 1 0
2949 883 4 0 -1.0213955208822763 -2.384495304839215 -11.648183828422704 0 0 0
1078 260 2 0 -10.158167381144859 -7.393906082712572 -8.240192787896527 0 0 0
1080 260 4 0 -10.131426780470845 -7.438093587551528 -7.785456965418284 0 0 0
2891 864 4 0 -10.106839138934216 -7.85505811241002 -7.719907021277638 0 0 0
2890 864 2 0 -9.910526448694002 -8.23934290557775 -7.53058492018039 0 0 0
836 179 4 0 -7.3290384100217105 -7.590624882575954 -8.437987577794622 0 0 0
926 209 4 0 -5.459761349189517 -6.766334009712818 -8.288986800295838 0 0 0
925 209 2 0 -5.528210195606456 -6.7711392267428945 -7.839044825631185 0 0 0
4282 1328 2 0 -2.4989281516593764 -8.053072572795164 -7.19919048063899 0 1 0
4284 1328 4 0 -2.411773728767532 -7.663936936595061 -7.420876867712937 0 1 0
3804 1168 4 0 -2.136022142964244 -7.502704023701501 -7.655241888446638 0 0 1
3802 1168 2 0 -1.750174596672722 -7.27822772733054 -7.614679056471102 0 0 1
3803 1168 4 0 -1.3497847745990708 -7.035096421609129 -7.563230563505461 0 0 1
2201 634 4 0 -0.9697921119451266 -6.908201629798369 -7.483469302029896 0 1 0
2200 634 2 0 -0.5726650583498458 -6.747316139493413 -7.308494821800689 0 1 0
927 209 4 0 -5.594426172647624 -6.768336671672689 -7.377140304458156 0 0 0
951 217 4 0 -5.5106488836042615 -6.441712808936167 -7.126509338195066 0 0 0
949 217 2 0 -5.263425819352985 -6.316349458704266 -6.7671075816571395 0 0 0
2202 634 4 0 -0.20188811569307755 -6.590869377980186 -7.148994660876499 0 1 0
115 23 3 0 -0.1966584366422532 -6.241044169606904 -6.941357255271326 0 0 0
1160 287 4 0 -6.688762964309117 -4.502488286065173 -6.92605462885991 0 0 0
1161 287 4 0 -6.5894169380385375 -3.6315907275999604 -7.066212826824857 0 0 0
1159 287 2 0 -6.638247178300115 -4.082042431060807 -6.991223827418361 0 0 0
1529 410 4 0 -6.460678155359058 -3.5160617403801435 -7.429124694327929 0 0 0
3447 1049 4 0 -1.1157355066956605 -3.718383280497355 -7.809302851346201 1 0 0
3445 1049 2 0 -0.7241343900048814 -3.48799436801773 -7.804013871886024 1 0 0
4342 1348 2 0 -10.84198291363932 -2.543074256015704 -8.06311591843147 1 0 0
4344 1348 4 0 -11.010635176782333 -2.923910907037575 -7.884819219008715 1 0 0
2340 680 4 0 -7.123499878061354 -2.2495040888801134 -7.1954620055358385 0 0 1
35 7 3 0 -7.166563482738134 -1.9269098400495621 -7.443119962403347 0 0 0
33 7 3 0 -7.0394968631772326 -1.879322131091147 -8.174420564789502 0 0 0
31 7 1 0 -6.9499133629508325 -1.6985306073082764 -7.755455851982995 0 0 0
2338 680 2 0 -7.290432502505848 -2.472456534984644 -6.894951730736541 0 0 1
1528 410 2 0 -6.255060081848804 -3.2061393408327388 -7.68026566220978 0 0 0
1530 410 4 0 -6.047260492476716 -2.8951644756266086 -7.936189910559261 0 0 0
867 189 4 0 -5.689223349169023 -2.707877209432643 -7.999911902271214 0 0 0
1299 333 4 0 -4.818892257464128 -0.7802140707615896 -1.4824010734367878 0 0 0
3446 1049 4 0 -0.333366228601475 -3.2618620466029586 -7.791557375651905 1 0 0
2336 679 4 0 -4.922984014824232 -0.451724561927216 -1.2738947240148268 0 0 0
3938 1213 4 0 -7.2348512365415205 -1.069291325423693 -7.453055101296655 1 0 0
3937 1213 2 0 -7.328167629661892 -0.6638092114418321 -7.249931813708045 1 0 0
32 7 3 0 -7.08407913097364 -1.2796778879594388 -7.747295759183273 0 0 0
3939 1213 4 0 -7.430112791656574 -0.24206869818065196 -7.0432115609370545 1 0 0
1390 364 2 0 -8.98936918290274 -0.5046550294306873 -0.5108249698006984 0 0 0
34 7 3 0 -6.469313240665535 -1.7184206622537086 -7.674492060561147 0 0 0
992 231 4 0 -6.182353974080782 -1.4770139614080051 -7.528392507699904 0 0 0
991 231 2 0 -6.08379210650022 -1.0286482701172308 -7.430848406579497 0 0 0
993 231 4 0 -5.9867747432322105 -0.6240833793070039 -7.343653028871353 0 0 0
987 229 4 0 -6.1058974085488344 -0.2459630817039421 -7.413924233288413 0 0 0
2108 603 4 0 -1.252307395662119 -0.003982053247120007 -7.530645087956762 0 1 0
2107 603 2 0 -1.2477662161909004 -0.20018776714664618 -7.1166734558670175 0 1 0
1531 411 2 0 -7.250879295170294 -10.419530391153481 -5.486447875034778 0 0 1
1533 411 4 0 -7.232439701929353 -10.863350204744885 -5.510112404742921 0 0 1
3747 1149 4 0 -6.931132164471521 -10.946019781843917 -5.751216473613722 0 0 1
3745 1149 2 0 -6.78682496475012 -11.328192318710219 -5.955902493173719 0 0 1
2038 580 2 0 -5.508534626542141 -10.660163123548177 -5.279603740372065 0 1 0
2040 580 4 0 -5.443370989119915 -10.495995598538272 -5.681330035880334 0 1 0
2816 839 4 0 -4.964787714291607 -10.267482349896307 -6.7001375186334835 0 0 0
2815 839 2 0 -4.717608648305817 -9.955428186147014 -6.45964847457964 0 0 0
1575 425 4 0 -3.5658459014838964 -10.804697733780454 -5.172574393536519 0 0 0
1052 251 4 0 -2.5468006583510836 -11.295474254472063 -6.690542606919498 0 0 0
1573 425 2 0 -3.478093321649743 -10.39572316050992 -5.315640691255637 0 0 0
1051 251 2 0 -2.1269767826222163 -11.346893302363583 -6.5452510549707625 0 0 0
1053 251 4 0 -1.7057592035950881 -11.402339318560132 -6.397973103162908 0 0 0
252 51 3 0 -2.861703313994841 -11.239499458482893 -6.9077951755380855 0 1 0
1574 425 4 0 -3.406125329119553 -10.009908113085947 -5.4523874426535 0 0 0
883 195 2 0 -1.0516413050677522 -11.435975195456312 -5.943620198298363 0 0 0
885 195 4 0 -1.3516623797816332 -11.294089571617663 -6.21725171608454 0 0 0
884 195 4 0 -0.7134527259853826 -11.587298589013264 -5.642274032454441 0 0 0
3856 1186 2 0 -8.241576545919093 -1.2649290762884162 -0.957755566670515 1 0 -1
2223 641 4 0 -10.022924857286228 -9.746170411812345 -5.358974801241719 0 0 0
2221 641 2 0 -9.747282995182875 -9.61100255378079 -5.6884559041713185 0 0 0
2222 641 4 0 -9.473190519090439 -9.484798882556102 -6.028332357342066 0 0 0
1139 280 4 0 -9.742197201894372 -9.446796569892225 -6.311788932051849 0 0 0
1532 411 4 0 -7.2566915515083075 -9.96936360148969 -5.470021467973752 0 0 1
71 15 1 0 -6.7494556222985205 -9.380899159414678 -5.497258783023301 0 0 0
74 15 3 0 -7.06213582481293 -9.664010191026888 -5.685053634601686 0 0 0
73 15 3 0 -6.94584409632303 -9.11086305346221 -5.206558336914659 0 0 0
72 15 3 0 -6.55693470811745 -9.133298346748049 -5.818714746263069 0 0 0
1214 305 4 0 -6.434959195034628 -8.753237932141642 -5.896577431005992 0 0 0
1213 305 2 0 -6.43695786939374 -8.325684435710793 -5.877082961598148 0 0 0
2787 829 4 0 -6.107759683215575 -9.419762275095062 -5.3581481120583305 0 0 0
75 15 3 0 -6.429866424370269 -9.633115958272452 -5.282467749872423 0 0 0
2817 839 4 0 -4.4830454900881245 -9.645657179294798 -6.228326527940279 0 0 0
1027 243 2 0 -4.103647738881176 -9.465529296757106 -5.572754325132647 0 0 0
1029 243 4 0 -4.4491871629952895 -9.508204350467162 -5.847028521632075 0 0 0
1028 243 4 0 -3.7405100265540807 -9.42973046193589 -5.2769552480353745 0 0 0
2753 818 4 0 -3.086687514212969 -9.755867685588155 -5.461632475374843 0 1 0
2752 818 2 0 -2.769171504271437 -9.421692424101693 -5.440567749822755 0 1 0
2754 818 4 0 -2.4244018551873716 -9.077787487242219 -5.427571569635167 0 1 0
873 191 4 0 -2.1403278149820957 -8.809301875865488 -5.420527256898248 0 0 0
871 191 2 0 -1.8810848754567318 -8.66483252876078 -5.090953503567219 0 0 0
2389 697 2 0 -6.458213670364752 -7.1591474062646485 -5.641820570490814 0 1 1
2390 697 4 0 -6.598224817122917 -6.805637847253436 -5.397452776389768 0 1 1
1215 305 4 0 -6.443141193347637 -7.885016622039098 -5.86038806645697 0 0 0
2391 697 4 0 -6.3185337227312885 -7.495271040893722 -5.870057921339815 0 1 1
2544 748 4 0 -3.656668031600862 -7.219660100045376 -5.177288549645436 0 1 0
2542 748 2 0 -3.5547115764891224 -7.663627368061129 -5.075866624633755 0 1 0
1605 435 4 0 -3.5498714877481525 -6.864375918788864 -5.324635295558653 0 0 0
872 191 4 0 -1.612275021361653 -8.523281991212562 -4.74632592168453 0 0 0
3147 949 4 0 -8.616923846247314 -5.373835029253365 -5.588107731899221 0 0 0
42 9 3 0 -8.741046436777653 -5.041180129646715 -5.390579289352696 0 0 0
3145 949 2 0 -8.258183861009748 -5.651414459118489 -5.622634582072807 0 0 0
4785 1495 4 0 -6.990863189176996 -6.72069012612151 -5.395552941543893 1 0 1
3146 949 4 0 -7.892011399911045 -5.944920599031925 -5.648048064229006 0 0 0
4784 1495 4 0 -7.466088359151536 -6.01294887499665 -5.682320685448958 1 0 1
4783 1495 2 0 -7.23219823582689 -6.3633563731981795 -5.54197499885899 1 0 1
854 185 4 0 -7.097236896879827 -4.919136659294267 -5.464381000163738 0 0 0
3246 982 4 0 -5.10818393303127 -5.477969051705353 -5.4519702773763825 0 0 0
3244 982 2 0 -4.970162566588141 -5.81910709741424 -5.7562177675017105 0 0 0
1031 244 4 0 -5.431367389303406 -5.6138622037242785 -5.275914345262528 0 0 0
950 217 4 0 -5.006174269039531 -6.176427427389468 -6.386172908918777 0 0 0
3245 982 4 0 -4.832535037040113 -6.1242998846531265 -6.03380304448495 0 0 0
3001 901 2 0 -0.30269347214416 -6.1283628605616 -5.692652845331619 0 0 0
3002 901 4 0 -0.6040895893803433 -6.049675048092271 -5.363229698503426 0 0 0
2206 636 2 0 -7.757222844164977 -1.699851599978337 -11.550996512490679 0 0 0
463 93 3 0 -0.532626327222692 -6.1245751811793 -4.9700722894390905 0 0 0
3003 901 4 0 -0.01040738793884105 -6.214281636394566 -6.025545327679969 0 0 0
44 9 3 0 -8.929691613184703 -4.3457962157775505 -5.273064088805813 0 0 0
3120 940 4 0 -8.88336941413969 -4.042981957266983 -5.532307237806887 1 0 0
3118 940 2 0 -8.561019378109902 -3.7140629635184963 -5.522035173773688 1 0 0
41 9 1 0 -8.692228795907857 -4.696787879864506 -5.120325165803889 0 0 0
1187 296 4 0 -6.987211705752125 -5.110480595567778 -5.7989689530723645 0 0 0
853 185 2 0 -7.555977989205862 -4.846594257075368 -5.3474629156737565 0 0 0
855 185 4 0 -7.9699757771713635 -4.776171442388754 -5.245356891786077 0 0 0
1663 455 2 0 -7.077573792336176 -3.413706525079915 -5.247727540668965 0 0 0
1664 455 4 0 -7.445690512356169 -3.455400674245199 -4.977827107492167 0 0 0
1186 296 2 0 -6.906587411372492 -4.899871288484263 -6.215312283320791 0 0 0
1665 455 4 0 -6.715076638919682 -3.3604389397794883 -5.505097593621614 0 0 0
43 9 3 0 -8.280825211130013 -4.588216170874614 -5.091320335545145 0 0 0
1188 296 4 0 -6.852413764891802 -4.70462906880198 -6.633891728912966 0 0 0
204 41 3 0 -5.979809458163264 -4.027580732662441 -5.42836231133011 0 0 0
202 41 3 0 -6.412795105507196 -3.5323828208265815 -5.718734090787332 0 0 0
201 41 1 0 -6.009685730712787 -3.6091424192384105 -5.540251279238927 0 0 0
205 41 3 0 -5.686476315854656 -3.4864410206832788 -5.848287345167186 0 0 0
2091 597 4 0 -5.282854531202449 -3.470659737921273 -5.911408830818882 0 0 0
1100 267 4 0 -6.1600035914497555 -4.083611148992961 -5.061570099242526 0 0 0
2089 597 2 0 -4.964265774874633 -3.3360874096685036 -6.201423388891479 0 0 0
3119 940 4 0 -8.23155429909137 -3.3898401433788727 -5.5096936305521025 1 0 0
1239 313 4 0 -8.313801132709667 -3.14931065236972 -5.842274553066117 0 0 0
2339 680 4 0 -7.4552206253272955 -2.688774726091402 -6.599014097242406 0 0 1
1238 313 4 0 -7.792688465741742 -2.6527144369602196 -6.437204444702834 0 0 0
1237 313 2 0 -8.049519162358203 -2.893790404939002 -6.150708406441385 0 0 0
203 41 3 0 -5.96632458527186 -3.3629562557903667 -5.190435311580445 0 0 0
2090 597 4 0 -4.65760486763602 -3.199202661227239 -6.476405269085486 0 0 0
2493 731 4 0 -0.16468699267645937 -0.5542712052262022 -5.750207889006201 0 0 0
2109 603 4 0 -1.2602774767835923 -0.3927588281851672 -6.715034002091237 0 1 0
759 153 4 0 -1.1874832182153134 -0.6756775777622933 -6.4236714411800095 0 0 0
757 153 2 0 -0.8835933457129199 -0.6504649628708297 -6.09979505768897 0 0 0
758 153 4 0 -0.566393388252741 -0.6290928663886145 -5.759391561896455 0 0 0
2039 580 4 0 -5.573161609420412 -10.831959216808533 -4.882718685588179 0 1 0
1569 423 4 0 -5.951525392086653 -10.940129580088543 -3.4697998196933297 0 0 0
1194 298 4 0 -5.7023639057559965 -11.050035785793455 -3.7637311312993518 0 0 0
1192 298 2 0 -5.549282998879078 -10.873841086321866 -4.133776973941503 0 0 0
1193 298 4 0 -5.358416363272425 -10.696155774561287 -4.545091332775347 0 0 0
3082 928 2 0 -3.8102433139697007 -11.300901196979266 -4.624788522681666 0 0 0
3084 928 4 0 -3.9942358020060693 -11.405277633566254 -4.229065778560808 0 0 0
3083 928 4 0 -3.622770881934301 -11.204062122130624 -5.02144599702625 0 0 0
785 162 4 0 -7.085705015436379 -9.011130705792572 -4.830226784578101 0 0 0
595 119 3 0 -7.591484251203248 -9.297035971914463 -3.757968583981382 1 1 0
784 162 2 0 -7.348856921013204 -9.036125162637154 -4.456350603628713 0 0 0
786 162 4 0 -7.594698916781207 -9.055413353618421 -4.09550526853223 0 0 0
593 119 3 0 -8.035842716177791 -9.613844715303667 -3.300144631127898 1 1 0
2785 829 2 0 -5.729840642386935 -9.36787412371569 -5.114945651295877 0 0 0
2786 829 4 0 -5.343771983459271 -9.323381880907172 -4.86435496562207 0 0 0
968 223 4 0 -5.064143098831743 -9.20526945089209 -4.617700196952068 0 0 0
377 76 3 0 -3.5484179569268077 -9.15314449533299 -5.064245190288082 0 1 0
380 76 3 0 -3.3566586795262867 -8.462875078351644 -5.001032792985136 0 1 0
967 223 2 0 -4.650738862618961 -9.061285007049378 -4.544882390960986 0 0 0
969 223 4 0 -4.225238160572483 -8.907758275532716 -4.460626050639737 0 0 0
378 76 3 0 -3.8534099053707616 -8.740992939617895 -4.513682288156112 0 1 0
376 76 1 0 -3.466015035149955 -8.825310763156912 -4.780245848930763 0 1 0
4070 1257 4 0 -2.8889677289544373 -8.968597360916622 -4.174415804734777 0 1 0
379 76 3 0 -3.1173605332732865 -8.950863111075046 -4.511535202708866 0 1 0
4069 1257 2 0 -2.692055804051144 -9.201236044875243 -3.8382907105705235 0 1 0
4071 1257 4 0 -2.495306864063852 -9.437910820812737 -3.506111481950855 0 1 0
2543 748 4 0 -3.451926610356997 -8.06280644245485 -4.96972386075269 0 1 0
1170 290 4 0 -4.7998644322105655 -6.427179470445568 -3.4234728864881427 0 0 0
4294 1332 2 0 -2.4991780250474185 -7.357255547327332 -3.997541172629639 0 1 0
4295 1332 4 0 -2.1982282638183652 -7.139139024365591 -4.243190435245854 0 1 0
4296 1332 4 0 -2.8045296238751947 -7.573490099948163 -3.7413385523345912 0 1 0
4199 1300 4 0 -1.8402127865887294 -6.930416771557589 -4.26892402257476 0 1 0
1703 468 4 0 -1.2870884279090118 -8.406957173183306 -4.617045879451029 0 0 0
1702 468 2 0 -1.1176729674621506 -8.055521430130062 -4.435905153380725 0 0 0
1362 354 4 0 -0.5847505410223636 -7.44555044941742 -4.300456943505272 0 0 0
1360 354 2 0 -0.693021836418866 -7.018979419549001 -4.308094895989647 0 0 0
1704 468 4 0 -0.940470075550825 -7.672217881604363 -4.243010378983358 0 0 0
752 151 4 0 -8.992440480152425 -5.545554417778738 -4.019295043741283 0 0 0
2783 828 4 0 -9.142102369998804 -5.7201342390411325 -3.710775265251735 1 0 0
751 151 2 0 -8.805400173827275 -5.227946946586022 -4.194711138600702 0 0 0
1030 244 2 0 -5.60540916282128 -5.587149554548043 -4.841654471371813 0 0 0
1032 244 4 0 -5.7719604975848755 -5.554883708110374 -4.4205368143009895 0 0 0
84 17 3 0 -5.918828915592925 -5.534939664681494 -4.050426400980218 0 0 0
82 17 3 0 -6.195224700803298 -4.965703433144721 -3.6740928384050577 0 0 0
81 17 1 0 -5.828992696986333 -5.123467452064549 -3.870137856285148 0 0 0
83 17 3 0 -5.482818589242016 -5.152771699145087 -3.5402649732575933 0 0 0
1603 435 2 0 -3.8110354059987825 -6.612133826335561 -5.004644606556111 0 0 0
1353 351 4 0 -3.989469715993835 -6.266825153561025 -4.31421765797496 0 0 0
1604 435 4 0 -4.075372788425501 -6.366575693760865 -4.693218821271997 0 0 0
1351 351 2 0 -4.231139366319979 -6.398241803783233 -3.947977445880215 0 0 0
1352 351 4 0 -4.4720437909434505 -6.533693879740181 -3.5898699202573945 0 0 0
173 35 3 0 -3.6455979582896094 -4.995079005052798 -3.738421056104918 0 0 0
4198 1300 2 0 -1.7981137059288872 -6.503263361093509 -4.103249165304054 0 1 0
3216 972 4 0 -2.2940432642956985 -5.275364728946192 -4.6234694804766985 0 0 0