LAMMPS data file via write_data, version 2 Aug 2023, timestep = 250000, units = lj

15 atoms
4 atom types
0 bonds
1 bond types

-2 2 xlo xhi
-2 2 ylo yhi
-2 2 zlo zhi

Masses

1 1
2 1
3 0.5
4 0.5

Bond Coeffs # zero

1 0

Atoms # bond

11 3 1 1.6688412983931382 1.5157919981680958 1.8431914919299381 -1 1 1
53 15 2 -0.4655616825119834 -1.3513573020514338 -1.2080204655087268 -1 -2 0
35 9 2 0.12674945178439267 -0.10778758829951277 0.8455617726066953 0 1 0
41 11 2 -1.1703328331759293 -0.04247581382347294 -1.1619646143746882 0 1 0
47 13 2 0.4133375015901345 -1.1441016590887985 0.7089032247799025 -1 2 1
26 6 2 1.787713262641121 1.1998373641502638 0.6461401490932906 1 1 2
16 4 1 0.6682139171335923 0.993929929203808 -0.010511775260319446 -2 -1 4
32 8 2 -1.8915861983482318 -0.2204699681597694 -0.24294628438483895 1 0 -2
44 12 2 1.387656374378416 0.61903161589219 -1.114646926596464 1 1 0
29 7 2 0.12858477743464397 -0.5996762631077488 -0.22120961022567395 0 1 -2
38 10 2 -1.047675893947569 -0.9994008441925808 -0.0818676659278911 -1 0 0
6 2 1 -0.7411468682014267 1.56930478537637 -0.9671895311315455 0 0 -2
50 14 2 1.9969085289678656 1.7656677866095618 -1.1375746227112595 -1 -1 1
21 5 1 0.9794042738572569 -0.7022491830253756 -1.174877937669042 2 -1 1
1 1 1 -1.738286198962503 -1.1216468888805406 -0.9910125977851231 0 1 0

Velocities

11 -0.3321026168430361 0.0015981919834236265 0.22444777088453288
53 0.2734852953461371 -0.10132391129821876 -0.10956419349161628
35 -0.4089929030687486 0.3434393672722309 -0.1542224005856533
41 -0.03794952573562694 -0.14019484747983355 0.26833803126116634
47 0.2638318488746288 0.14064805555580345 0.03442783946754611
26 -0.19907383315001706 0.0016848045355718805 0.2798995707390058
16 0.15137667607546765 -0.31351522442359486 -0.08213054428343172
32 0.047665342212189744 -0.02345661737940932 -0.3785846160110249
44 -0.7101642442972401 0.2740537001646661 0.0940737877678113
29 -0.017738522483134976 0.19821062558199273 -0.07226074426110345
38 0.5609150942102867 0.010193109567703588 0.23794592769947062
6 0.06175224954791644 -0.12505456373565843 0.004156291427040698
50 0.17444794537966601 0.13682437997615235 -0.26557417046445725
21 -0.199909516367946 -0.362349555683319 -0.03378245361324403
1 0.32499627818611226 0.2689286506664898 -0.03709710664392677
