ITEM: TIMESTEP
0
ITEM: NUMBER OF ATOMS
13
ITEM: BOX BOUNDS pp pp pp
-2.0000000000000000e+00 2.0000000000000000e+00
-2.0000000000000000e+00 2.0000000000000000e+00
-2.0000000000000000e+00 2.0000000000000000e+00
ITEM: ATOMS id type xs ys zs
12 4 0.52803 0.164359 0.188809
11 2 0.615592 0.250563 0.211762
13 4 0.703154 0.336767 0.234714
10 3 0.906409 0.862158 0.385286
8 3 0.741797 0.780308 0.425717
7 3 0.87671 0.792744 0.555909
9 3 0.786535 0.948504 0.501931
6 1 0.828146 0.84621 0.466422
5 3 0.343774 0.5875 0.758308
1 1 0.335848 0.552853 0.866471
2 3 0.368833 0.442912 0.873542
3 3 0.226036 0.561472 0.902847
4 3 0.405033 0.617167 0.933803
ITEM: TIMESTEP
500
ITEM: NUMBER OF ATOMS
13
ITEM: BOX BOUNDS pp pp pp
-2.0000000000000000e+00 2.0000000000000000e+00
-2.0000000000000000e+00 2.0000000000000000e+00
-2.0000000000000000e+00 2.0000000000000000e+00
ITEM: ATOMS id type xs ys zs
12 4 0.527875 0.164389 0.189381
11 2 0.615335 0.250773 0.212041
13 4 0.702794 0.337158 0.234701
10 3 0.906511 0.861852 0.385355
8 3 0.741879 0.780144 0.425992
7 3 0.876793 0.792881 0.556154
9 3 0.786656 0.948523 0.501776
6 1 0.828243 0.84613 0.46653
5 3 0.343792 0.587729 0.758286
1 1 0.335737 0.552929 0.86639
2 3 0.368745 0.442988 0.87335
3 3 0.225875 0.561465 0.902636
4 3 0.404815 0.617168 0.933901
ITEM: TIMESTEP
1000
ITEM: NUMBER OF ATOMS
13
ITEM: BOX BOUNDS pp pp pp
-2.0000000000000000e+00 2.0000000000000000e+00
-2.0000000000000000e+00 2.0000000000000000e+00
-2.0000000000000000e+00 2.0000000000000000e+00
ITEM: ATOMS id type xs ys zs
12 4 0.527334 0.164724 0.190147
11 2 0.614881 0.251134 0.212368
13 4 0.702429 0.337544 0.234589
10 3 0.906374 0.861564 0.385339
8 3 0.741629 0.780229 0.426269
7 3 0.87675 0.79279 0.556234
9 3 0.78686 0.948576 0.501858
6 1 0.828186 0.846068 0.466635
5 3 0.343764 0.588083 0.758313
1 1 0.335423 0.552995 0.866302
2 3 0.368648 0.443109 0.873099
3 3 0.225421 0.5612 0.9022
4 3 0.404134 0.617215 0.934205
ITEM: TIMESTEP
1500
ITEM: NUMBER OF ATOMS
13
ITEM: BOX BOUNDS pp pp pp
-2.0000000000000000e+00 2.0000000000000000e+00
-2.0000000000000000e+00 2.0000000000000000e+00
-2.0000000000000000e+00 2.0000000000000000e+00
ITEM: ATOMS id type xs ys zs
12 4 0.526392 0.165313 0.190742
11 2 0.614107 0.251676 0.21248
13 4 0.701822 0.338039 0.234218
10 3 0.905842 0.861433 0.385252
8 3 0.741368 0.779814 0.4267
7 3 0.87677 0.792864 0.556324
9 3 0.78642 0.948374 0.501919
6 1 0.82788 0.845899 0.466758
5 3 0.343414 0.587474 0.758272
1 1 0.334814 0.552842 0.866388
2 3 0.368298 0.443073 0.873778
3 3 0.224677 0.560923 0.901895
4 3 0.403141 0.617539 0.934227
ITEM: TIMESTEP
2000
ITEM: NUMBER OF ATOMS
13
ITEM: BOX BOUNDS pp pp pp
-2.0000000000000000e+00 2.0000000000000000e+00
-2.0000000000000000e+00 2.0000000000000000e+00
-2.0000000000000000e+00 2.0000000000000000e+00
ITEM: ATOMS id type xs ys zs
12 4 0.525033 0.166041 0.191434
11 2 0.613335 0.252024 0.212286
13 4 0.701637 0.338007 0.233137
10 3 0.905252 0.861176 0.384924
8 3 0.741339 0.778992 0.427463
7 3 0.877302 0.793114 0.556385
9 3 0.786011 0.948025 0.501843
6 1 0.827751 0.845603 0.466861
5 3 0.343132 0.587097 0.758096
1 1 0.334475 0.552882 0.866341
2 3 0.368152 0.443205 0.874207
3 3 0.224284 0.560902 0.901694
4 3 0.402608 0.617975 0.933995
ITEM: TIMESTEP
2500
ITEM: NUMBER OF ATOMS
13
ITEM: BOX BOUNDS pp pp pp
-2.0000000000000000e+00 2.0000000000000000e+00
-2.0000000000000000e+00 2.0000000000000000e+00
-2.0000000000000000e+00 2.0000000000000000e+00
ITEM: ATOMS id type xs ys zs
12 4 0.523598 0.166551 0.192291
11 2 0.612652 0.251979 0.212202
13 4 0.701706 0.337406 0.232114
10 3 0.905153 0.8605 0.38488
8 3 0.741453 0.778187 0.427987
7 3 0.877611 0.792993 0.556626
9 3 0.785963 0.947556 0.501697
6 1 0.827818 0.845083 0.467003
5 3 0.342779 0.587409 0.757738
1 1 0.334089 0.553424 0.866053
2 3 0.368161 0.443892 0.874233
3 3 0.223817 0.56112 0.901224
4 3 0.40188 0.618932 0.933649
ITEM: TIMESTEP
3000
ITEM: NUMBER OF ATOMS
13
ITEM: BOX BOUNDS pp pp pp
-2.0000000000000000e+00 2.0000000000000000e+00
-2.0000000000000000e+00 2.0000000000000000e+00
-2.0000000000000000e+00 2.0000000000000000e+00
ITEM: ATOMS id type xs ys zs
12 4 0.522202 0.167023 0.193171
11 2 0.612087 0.251826 0.211994
13 4 0.701971 0.336629 0.230818
10 3 0.905236 0.859993 0.38499
8 3 0.742086 0.776724 0.428347
7 3 0.877999 0.79316 0.557048
9 3 0.7853 0.946779 0.501243
6 1 0.827927 0.844436 0.467111
5 3 0.34271 0.587598 0.75687
1 1 0.333584 0.553952 0.865254
2 3 0.367689 0.444469 0.873928
3 3 0.223159 0.561691 0.899935
4 3 0.401047 0.619718 0.932928
ITEM: TIMESTEP
3500
ITEM: NUMBER OF ATOMS
13
ITEM: BOX BOUNDS pp pp pp
-2.0000000000000000e+00 2.0000000000000000e+00
-2.0000000000000000e+00 2.0000000000000000e+00
-2.0000000000000000e+00 2.0000000000000000e+00
ITEM: ATOMS id type xs ys zs
12 4 0.520908 0.16702 0.194704
11 2 0.61144 0.251512 0.211735
13 4 0.701973 0.336004 0.228765
10 3 0.905634 0.860037 0.385586
8 3 0.743397 0.774993 0.42892
7 3 0.878845 0.793501 0.557829
9 3 0.784443 0.945808 0.501289
6 1 0.82835 0.843857 0.46761
5 3 0.342558 0.588149 0.756114
1 1 0.333153 0.554273 0.864403
2 3 0.367014 0.4447 0.872891
3 3 0.222677 0.562161 0.898889
4 3 0.400621 0.619744 0.932357
ITEM: TIMESTEP
4000
ITEM: NUMBER OF ATOMS
13
ITEM: BOX BOUNDS pp pp pp
-2.0000000000000000e+00 2.0000000000000000e+00
-2.0000000000000000e+00 2.0000000000000000e+00
-2.0000000000000000e+00 2.0000000000000000e+00
ITEM: ATOMS id type xs ys zs
12 4 0.519612 0.166899 0.196538
11 2 0.61066 0.251237 0.211453
13 4 0.701708 0.335575 0.226368
10 3 0.906367 0.860399 0.386141
8 3 0.745353 0.773195 0.429747
7 3 0.880516 0.794045 0.558598
9 3 0.78396 0.94481 0.501564
6 1 0.829316 0.843386 0.468215
5 3 0.341844 0.588555 0.755404
1 1 0.332598 0.554558 0.863668
2 3 0.366134 0.444867 0.871921
3 3 0.222233 0.562747 0.898436
4 3 0.40044 0.619722 0.931547
ITEM: TIMESTEP
4500
ITEM: NUMBER OF ATOMS
13
ITEM: BOX BOUNDS pp pp pp
-2.0000000000000000e+00 2.0000000000000000e+00
-2.0000000000000000e+00 2.0000000000000000e+00
-2.0000000000000000e+00 2.0000000000000000e+00
ITEM: ATOMS id type xs ys zs
12 4 0.517925 0.166715 0.198297
11 2 0.609647 0.25067 0.211087
13 4 0.701369 0.334626 0.223877
10 3 0.907001 0.860547 0.387001
8 3 0.747425 0.771057 0.43125
7 3 0.882159 0.795174 0.55998
9 3 0.783161 0.943861 0.501689
6 1 0.830199 0.842931 0.469181
5 3 0.341541 0.588925 0.754806
1 1 0.332206 0.554681 0.862985
2 3 0.365448 0.444879 0.87096
3 3 0.221864 0.563078 0.897777
4 3 0.400224 0.61949 0.931025
ITEM: TIMESTEP
5000
ITEM: NUMBER OF ATOMS
13
ITEM: BOX BOUNDS pp pp pp
-2.0000000000000000e+00 2.0000000000000000e+00
-2.0000000000000000e+00 2.0000000000000000e+00
-2.0000000000000000e+00 2.0000000000000000e+00
ITEM: ATOMS id type xs ys zs
12 4 0.516481 0.166121 0.200828
11 2 0.608569 0.250047 0.210895
13 4 0.700656 0.333973 0.220962
10 3 0.907097 0.860785 0.387776
8 3 0.749368 0.768551 0.433007
7 3 0.883605 0.796722 0.561433
9 3 0.781612 0.942764 0.501637
6 1 0.830678 0.842474 0.470161
5 3 0.342005 0.589749 0.754466
1 1 0.332134 0.554941 0.862417
2 3 0.365109 0.445028 0.869941
3 3 0.221662 0.563386 0.896782
4 3 0.399996 0.619238 0.931098
ITEM: TIMESTEP
5500
ITEM: NUMBER OF ATOMS
13
ITEM: BOX BOUNDS pp pp pp
-2.0000000000000000e+00 2.0000000000000000e+00
-2.0000000000000000e+00 2.0000000000000000e+00
-2.0000000000000000e+00 2.0000000000000000e+00
ITEM: ATOMS id type xs ys zs
12 4 0.515362 0.165449 0.20346
11 2 0.607538 0.249557 0.210844
13 4 0.699713 0.333665 0.218229
10 3 0.907188 0.860649 0.388473
8 3 0.75134 0.765855 0.434911
7 3 0.885109 0.798101 0.562865
9 3 0.780218 0.941431 0.50154
6 1 0.831215 0.841773 0.471142
5 3 0.342618 0.590944 0.754383
1 1 0.332347 0.555159 0.861977
2 3 0.365244 0.445165 0.868615
3 3 0.221758 0.563346 0.896026
4 3 0.399996 0.618792 0.931481
ITEM: TIMESTEP
6000
ITEM: NUMBER OF ATOMS
13
ITEM: BOX BOUNDS pp pp pp
-2.0000000000000000e+00 2.0000000000000000e+00
-2.0000000000000000e+00 2.0000000000000000e+00
-2.0000000000000000e+00 2.0000000000000000e+00
ITEM: ATOMS id type xs ys zs
12 4 0.51423 0.164678 0.205857
11 2 0.606344 0.249027 0.210892
13 4 0.698458 0.333375 0.215927
10 3 0.907069 0.860576 0.389198
8 3 0.753095 0.763331 0.436806
7 3 0.886216 0.799697 0.56433
9 3 0.778556 0.940218 0.501326
6 1 0.83148 0.841215 0.472107
5 3 0.343665 0.592887 0.754371
1 1 0.332627 0.555684 0.861407
2 3 0.365253 0.44554 0.866779
3 3 0.221838 0.563652 0.894852
4 3 0.399958 0.618234 0.932191
ITEM: TIMESTEP
6500
ITEM: NUMBER OF ATOMS
13
ITEM: BOX BOUNDS pp pp pp
-2.0000000000000000e+00 2.0000000000000000e+00
-2.0000000000000000e+00 2.0000000000000000e+00
-2.0000000000000000e+00 2.0000000000000000e+00
ITEM: ATOMS id type xs ys zs
12 4 0.513123 0.163723 0.208173
11 2 0.604933 0.24851 0.210825
13 4 0.696743 0.333297 0.213477
10 3 0.906322 0.86082 0.389662
8 3 0.754733 0.760634 0.438803
7 3 0.887162 0.801747 0.565604
9 3 0.776154 0.938888 0.500985
6 1 0.831331 0.840777 0.472951
5 3 0.34493 0.594309 0.754576
1 1 0.332866 0.555957 0.861094
2 3 0.364977 0.445619 0.86549
3 3 0.221844 0.564031 0.893732
4 3 0.399885 0.617416 0.933118
ITEM: TIMESTEP
7000
ITEM: NUMBER OF ATOMS
13
ITEM: BOX BOUNDS pp pp pp
-2.0000000000000000e+00 2.0000000000000000e+00
-2.0000000000000000e+00 2.0000000000000000e+00
-2.0000000000000000e+00 2.0000000000000000e+00
ITEM: ATOMS id type xs ys zs
12 4 0.512091 0.162671 0.210359
11 2 0.603489 0.247942 0.210729
13 4 0.694888 0.333213 0.211099
10 3 0.905508 0.860996 0.389981
8 3 0.756674 0.757555 0.44077
7 3 0.888175 0.803851 0.566748
9 3 0.77351 0.937142 0.500478
6 1 0.831197 0.840135 0.473678
5 3 0.34634 0.595994 0.754739
1 1 0.333095 0.556373 0.86065
2 3 0.364829 0.445889 0.864005
3 3 0.221777 0.564393 0.892276
4 3 0.399575 0.61673 0.934091
ITEM: TIMESTEP
7500
ITEM: NUMBER OF ATOMS
13
ITEM: BOX BOUNDS pp pp pp
-2.0000000000000000e+00 2.0000000000000000e+00
-2.0000000000000000e+00 2.0000000000000000e+00
-2.0000000000000000e+00 2.0000000000000000e+00
ITEM: ATOMS id type xs ys zs
12 4 0.510983 0.161512 0.212279
11 2 0.601694 0.247496 0.210504
13 4 0.692405 0.333481 0.208729
10 3 0.90486 0.861187 0.390586
8 3 0.758936 0.754324 0.442718
7 3 0.889091 0.805835 0.568068
9 3 0.770793 0.935052 0.500136
6 1 0.831144 0.839345 0.474558
5 3 0.347921 0.597937 0.75512
1 1 0.333218 0.556841 0.860274
2 3 0.364626 0.446234 0.862449
3 3 0.221524 0.56471 0.890586
4 3 0.398904 0.61596 0.935417
ITEM: TIMESTEP
8000
ITEM: NUMBER OF ATOMS
13
ITEM: BOX BOUNDS pp pp pp
-2.0000000000000000e+00 2.0000000000000000e+00
-2.0000000000000000e+00 2.0000000000000000e+00
-2.0000000000000000e+00 2.0000000000000000e+00
ITEM: ATOMS id type xs ys zs
12 4 0.509874 0.160906 0.214057
11 2 0.600017 0.247407 0.209986
13 4 0.690161 0.333909 0.205915
10 3 0.903819 0.86093 0.391019
8 3 0.761029 0.750823 0.445045
9 3 0.767894 0.932666 0.499691
7 3 0.889872 0.807866 0.56935
6 1 0.830869 0.83831 0.475453
5 3 0.349465 0.600571 0.755908
1 1 0.333354 0.557569 0.860089
2 3 0.364334 0.446821 0.860562
3 3 0.221333 0.565297 0.889209
4 3 0.398346 0.615018 0.937107
ITEM: TIMESTEP
8500
ITEM: NUMBER OF ATOMS
13
ITEM: BOX BOUNDS pp pp pp
-2.0000000000000000e+00 2.0000000000000000e+00
-2.0000000000000000e+00 2.0000000000000000e+00
-2.0000000000000000e+00 2.0000000000000000e+00
ITEM: ATOMS id type xs ys zs
12 4 0.508559 0.160583 0.215955
11 2 0.598347 0.247314 0.209572
13 4 0.688135 0.334046 0.203189
10 3 0.902615 0.860606 0.39122
8 3 0.763405 0.747043 0.447391
9 3 0.76494 0.929798 0.499337
7 3 0.890872 0.809786 0.570362
6 1 0.830663 0.837042 0.47625
5 3 0.351639 0.603717 0.756797
1 1 0.33389 0.558635 0.859827
2 3 0.364124 0.447691 0.858347
3 3 0.221555 0.566521 0.887663
4 3 0.398258 0.613992 0.938875
ITEM: TIMESTEP
9000
ITEM: NUMBER OF ATOMS
13
ITEM: BOX BOUNDS pp pp pp
-2.0000000000000000e+00 2.0000000000000000e+00
-2.0000000000000000e+00 2.0000000000000000e+00
-2.0000000000000000e+00 2.0000000000000000e+00
ITEM: ATOMS id type xs ys zs
12 4 0.508 0.159776 0.217907
11 2 0.59699 0.247117 0.209116
13 4 0.685981 0.334457 0.200324
10 3 0.901626 0.860626 0.391889
8 3 0.766146 0.743315 0.449462
9 3 0.761772 0.926639 0.499195
7 3 0.891502 0.811623 0.571635
6 1 0.830459 0.835781 0.477215
5 3 0.353515 0.607025 0.757645
1 1 0.334685 0.55974 0.859488
2 3 0.36398 0.4486 0.855647
3 3 0.222235 0.56796 0.886759
4 3 0.398986 0.612702 0.940214
ITEM: TIMESTEP
9500
ITEM: NUMBER OF ATOMS
13
ITEM: BOX BOUNDS pp pp pp
-2.0000000000000000e+00 2.0000000000000000e+00
-2.0000000000000000e+00 2.0000000000000000e+00
-2.0000000000000000e+00 2.0000000000000000e+00
ITEM: ATOMS id type xs ys zs
12 4 0.507341 0.158648 0.220029
11 2 0.595512 0.246552 0.208905
13 4 0.683683 0.334456 0.19778
10 3 0.900511 0.860778 0.392471
8 3 0.769001 0.739641 0.451311
9 3 0.758471 0.923252 0.499022
7 3 0.891938 0.813443 0.572744
6 1 0.830171 0.834506 0.478054
5 3 0.355454 0.61035 0.7588
1 1 0.335476 0.560752 0.859316
2 3 0.36353 0.449414 0.852858
3 3 0.222964 0.56958 0.88614
4 3 0.399886 0.610937 0.941712
ITEM: TIMESTEP
10000
ITEM: NUMBER OF ATOMS
13
ITEM: BOX BOUNDS pp pp pp
-2.0000000000000000e+00 2.0000000000000000e+00
-2.0000000000000000e+00 2.0000000000000000e+00
-2.0000000000000000e+00 2.0000000000000000e+00
ITEM: ATOMS id type xs ys zs
12 4 0.506291 0.157429 0.221788
11 2 0.593788 0.245683 0.208356
13 4 0.681286 0.333937 0.194923
10 3 0.899082 0.86098 0.39304
8 3 0.771973 0.735853 0.453187
9 3 0.754947 0.919447 0.49905
7 3 0.892251 0.815196 0.573787
6 1 0.829745 0.833095 0.478931
5 3 0.357616 0.613362 0.759741
1 1 0.336496 0.561653 0.858951
2 3 0.363523 0.450225 0.850097
3 3 0.2239 0.570956 0.885252
4 3 0.400839 0.60929 0.942898
ITEM: TIMESTEP
10500
ITEM: NUMBER OF ATOMS
13
ITEM: BOX BOUNDS pp pp pp
-2.0000000000000000e+00 2.0000000000000000e+00
-2.0000000000000000e+00 2.0000000000000000e+00
-2.0000000000000000e+00 2.0000000000000000e+00
ITEM: ATOMS id type xs ys zs
12 4 0.50517 0.156401 0.223646
11 2 0.592085 0.244812 0.2077
13 4 0.679 0.333223 0.191753
10 3 0.897694 0.861667 0.393624
8 3 0.77511 0.73258 0.454788
9 3 0.751907 0.915728 0.499713
7 3 0.8929 0.816659 0.574632
6 1 0.829575 0.831885 0.479853
5 3 0.359693 0.616375 0.760009
1 1 0.337514 0.56303 0.858116
2 3 0.363742 0.451574 0.847398
3 3 0.224819 0.572729 0.883845
4 3 0.401658 0.608622 0.94334
ITEM: TIMESTEP
11000
ITEM: NUMBER OF ATOMS
13
ITEM: BOX BOUNDS pp pp pp
-2.0000000000000000e+00 2.0000000000000000e+00
-2.0000000000000000e+00 2.0000000000000000e+00
-2.0000000000000000e+00 2.0000000000000000e+00
ITEM: ATOMS id type xs ys zs
12 4 0.504171 0.155649 0.225491
11 2 0.590515 0.244172 0.207237
13 4 0.67686 0.332696 0.188982
10 3 0.896642 0.862893 0.394408
8 3 0.778725 0.72963 0.455787
9 3 0.748866 0.911942 0.500179
7 3 0.89325 0.818235 0.575534
6 1 0.829536 0.830906 0.48064
5 3 0.36167 0.619513 0.759942
1 1 0.338332 0.564654 0.856938
2 3 0.363642 0.453173 0.844438
3 3 0.22555 0.574914 0.882063
4 3 0.40228 0.608162 0.94339
ITEM: TIMESTEP
11500
ITEM: NUMBER OF ATOMS
13
ITEM: BOX BOUNDS pp pp pp
-2.0000000000000000e+00 2.0000000000000000e+00
-2.0000000000000000e+00 2.0000000000000000e+00
-2.0000000000000000e+00 2.0000000000000000e+00
ITEM: ATOMS id type xs ys zs
12 4 0.503498 0.1552 0.227593
11 2 0.589296 0.243715 0.206888
13 4 0.675095 0.33223 0.186183
10 3 0.895192 0.864095 0.394826
8 3 0.781942 0.726915 0.456369
9 3 0.74618 0.908081 0.501089
7 3 0.893815 0.819125 0.575902
6 1 0.829437 0.829791 0.481209
5 3 0.363968 0.622389 0.759916
1 1 0.339125 0.566117 0.855722
2 3 0.363402 0.454608 0.841535
3 3 0.226217 0.577128 0.879947
4 3 0.402678 0.607457 0.943519
ITEM: TIMESTEP
12000
ITEM: NUMBER OF ATOMS
13
ITEM: BOX BOUNDS pp pp pp
-2.0000000000000000e+00 2.0000000000000000e+00
-2.0000000000000000e+00 2.0000000000000000e+00
-2.0000000000000000e+00 2.0000000000000000e+00
ITEM: ATOMS id type xs ys zs
13 4 0.67365 0.331275 0.183004
12 4 0.502254 0.155394 0.229796
11 2 0.587952 0.243335 0.2064
10 3 0.893266 0.865214 0.395147
8 3 0.784658 0.724389 0.456822
9 3 0.743708 0.90419 0.502593
7 3 0.894482 0.819447 0.576024
6 1 0.82917 0.828555 0.481809
5 3 0.367038 0.62537 0.759949
1 1 0.340172 0.567698 0.854367
2 3 0.363488 0.4562 0.838571
3 3 0.227036 0.579496 0.877109
4 3 0.402834 0.606808 0.943811
ITEM: TIMESTEP
12500
ITEM: NUMBER OF ATOMS
13
ITEM: BOX BOUNDS pp pp pp
-2.0000000000000000e+00 2.0000000000000000e+00
-2.0000000000000000e+00 2.0000000000000000e+00
-2.0000000000000000e+00 2.0000000000000000e+00
ITEM: ATOMS id type xs ys zs
13 4 0.671983 0.33053 0.180216
12 4 0.501032 0.155656 0.232129
11 2 0.586507 0.243093 0.206173
10 3 0.891551 0.866572 0.395457
8 3 0.787885 0.721967 0.456889
9 3 0.741338 0.900098 0.503823
7 3 0.895148 0.819923 0.576077
6 1 0.82911 0.827394 0.482225
5 3 0.369946 0.628385 0.760346
1 1 0.341047 0.5691 0.85315
2 3 0.363406 0.457698 0.835415
3 3 0.227714 0.581674 0.874448
4 3 0.402769 0.605688 0.944299
ITEM: TIMESTEP
13000
ITEM: NUMBER OF ATOMS
13
ITEM: BOX BOUNDS pp pp pp
-2.0000000000000000e+00 2.0000000000000000e+00
-2.0000000000000000e+00 2.0000000000000000e+00
-2.0000000000000000e+00 2.0000000000000000e+00
ITEM: ATOMS id type xs ys zs
13 4 0.670509 0.329686 0.177512
12 4 0.500233 0.155805 0.23471
11 2 0.585371 0.242745 0.206111
10 3 0.889412 0.868057 0.395939
8 3 0.790949 0.719611 0.456767
9 3 0.739057 0.8957 0.505759
7 3 0.895937 0.819863 0.57607
6 1 0.828953 0.826074 0.482798
5 3 0.373046 0.631381 0.761192
1 1 0.341817 0.57061 0.852264
2 3 0.363079 0.45931 0.83264
3 3 0.2283 0.58421 0.871893
4 3 0.402416 0.604552 0.945173
ITEM: TIMESTEP
13500
ITEM: NUMBER OF ATOMS
13
ITEM: BOX BOUNDS pp pp pp
-2.0000000000000000e+00 2.0000000000000000e+00
-2.0000000000000000e+00 2.0000000000000000e+00
-2.0000000000000000e+00 2.0000000000000000e+00
ITEM: ATOMS id type xs ys zs
13 4 0.668966 0.328915 0.175008
12 4 0.499767 0.155795 0.237469
11 2 0.584366 0.242355 0.206238
10 3 0.886606 0.86974 0.396316
8 3 0.793789 0.717454 0.456525
9 3 0.737117 0.891143 0.508682
7 3 0.897344 0.81939 0.575654
6 1 0.828807 0.824712 0.483461
5 3 0.376579 0.634163 0.762118
1 1 0.342743 0.572283 0.851497
2 3 0.362684 0.461032 0.830272
3 3 0.229099 0.587285 0.86928
4 3 0.402108 0.603639 0.946096
ITEM: TIMESTEP
14000
ITEM: NUMBER OF ATOMS
13
ITEM: BOX BOUNDS pp pp pp
-2.0000000000000000e+00 2.0000000000000000e+00
-2.0000000000000000e+00 2.0000000000000000e+00
-2.0000000000000000e+00 2.0000000000000000e+00
ITEM: ATOMS id type xs ys zs
13 4 0.66761 0.328167 0.172709
12 4 0.499667 0.15565 0.240036
11 2 0.583638 0.241908 0.206373
10 3 0.883873 0.872078 0.396864
8 3 0.797332 0.715699 0.455918
9 3 0.735626 0.886436 0.511964
7 3 0.899304 0.819144 0.575112
6 1 0.829104 0.823637 0.484135
5 3 0.380359 0.636242 0.762764
1 1 0.343692 0.574155 0.850874
2 3 0.362101 0.462767 0.82899
3 3 0.229999 0.590997 0.866571
4 3 0.401717 0.603594 0.946908
ITEM: TIMESTEP
14500
ITEM: NUMBER OF ATOMS
13
ITEM: BOX BOUNDS pp pp pp
-2.0000000000000000e+00 2.0000000000000000e+00
-2.0000000000000000e+00 2.0000000000000000e+00
-2.0000000000000000e+00 2.0000000000000000e+00
ITEM: ATOMS id type xs ys zs
13 4 0.666588 0.326878 0.170582
12 4 0.499991 0.154887 0.242446
11 2 0.583289 0.240883 0.206514
10 3 0.881181 0.874586 0.397484
8 3 0.801531 0.714132 0.455293
9 3 0.734402 0.881505 0.515125
7 3 0.901495 0.81943 0.574565
6 1 0.829697 0.822726 0.484792
5 3 0.384459 0.637857 0.763334
1 1 0.344772 0.576101 0.85036
2 3 0.3612 0.464462 0.828183
3 3 0.231186 0.595311 0.863973
4 3 0.401553 0.603757 0.94766
ITEM: TIMESTEP
15000
ITEM: NUMBER OF ATOMS
13
ITEM: BOX BOUNDS pp pp pp
-2.0000000000000000e+00 2.0000000000000000e+00
-2.0000000000000000e+00 2.0000000000000000e+00
-2.0000000000000000e+00 2.0000000000000000e+00
ITEM: ATOMS id type xs ys zs
13 4 0.665465 0.325494 0.168222
12 4 0.500674 0.154001 0.245255
11 2 0.583069 0.239747 0.206739
10 3 0.878542 0.877063 0.398489
8 3 0.805863 0.712688 0.454434
9 3 0.733285 0.876292 0.518201
7 3 0.903436 0.819602 0.574247
6 1 0.830303 0.821741 0.485523
5 3 0.388872 0.639534 0.764202
1 1 0.345867 0.578022 0.849813
2 3 0.360604 0.466222 0.82726
3 3 0.232389 0.599417 0.860819
4 3 0.400813 0.603901 0.948644
ITEM: TIMESTEP
15500
ITEM: NUMBER OF ATOMS
13
ITEM: BOX BOUNDS pp pp pp
-2.0000000000000000e+00 2.0000000000000000e+00
-2.0000000000000000e+00 2.0000000000000000e+00
-2.0000000000000000e+00 2.0000000000000000e+00
ITEM: ATOMS id type xs ys zs
13 4 0.664254 0.324346 0.16547
12 4 0.501635 0.153489 0.248315
11 2 0.582944 0.238917 0.206892
10 3 0.876235 0.879696 0.400082
8 3 0.810211 0.711579 0.453079
9 3 0.732571 0.87097 0.52139
7 3 0.905324 0.819249 0.574186
6 1 0.831085 0.820721 0.486372
5 3 0.393552 0.641202 0.765078
1 1 0.34711 0.580036 0.849128
2 3 0.36009 0.468105 0.826153
3 3 0.233857 0.603732 0.857408
4 3 0.400046 0.6041 0.949502
ITEM: TIMESTEP
16000
ITEM: NUMBER OF ATOMS
13
ITEM: BOX BOUNDS pp pp pp
-2.0000000000000000e+00 2.0000000000000000e+00
-2.0000000000000000e+00 2.0000000000000000e+00
-2.0000000000000000e+00 2.0000000000000000e+00
ITEM: ATOMS id type xs ys zs
13 4 0.663124 0.323688 0.162881
12 4 0.502781 0.153485 0.251318
11 2 0.582952 0.238586 0.207099
10 3 0.87349 0.882386 0.401708
8 3 0.814494 0.710656 0.451304
9 3 0.731762 0.865295 0.524396
7 3 0.906976 0.818898 0.57393
6 1 0.831657 0.819676 0.487031
5 3 0.398243 0.642853 0.765791
1 1 0.348106 0.582255 0.848111
2 3 0.359456 0.470191 0.824918
3 3 0.235169 0.608246 0.853201
4 3 0.398552 0.604734 0.950122
ITEM: TIMESTEP
16500
ITEM: NUMBER OF ATOMS
13
ITEM: BOX BOUNDS pp pp pp
-2.0000000000000000e+00 2.0000000000000000e+00
-2.0000000000000000e+00 2.0000000000000000e+00
-2.0000000000000000e+00 2.0000000000000000e+00
ITEM: ATOMS id type xs ys zs
13 4 0.661541 0.32315 0.1603
12 4 0.503731 0.153302 0.253828
11 2 0.582636 0.238226 0.207064
10 3 0.870487 0.88542 0.403629
8 3 0.818991 0.710171 0.449096
9 3 0.731201 0.859311 0.527521
7 3 0.90876 0.818585 0.573572
6 1 0.832311 0.81876 0.487662
5 3 0.402687 0.643645 0.766735
1 1 0.348657 0.583812 0.84713
2 3 0.358512 0.471616 0.823894
3 3 0.236158 0.612063 0.848601
4 3 0.396154 0.604945 0.95083
ITEM: TIMESTEP
17000
ITEM: NUMBER OF ATOMS
13
ITEM: BOX BOUNDS pp pp pp
-2.0000000000000000e+00 2.0000000000000000e+00
-2.0000000000000000e+00 2.0000000000000000e+00
-2.0000000000000000e+00 2.0000000000000000e+00
ITEM: ATOMS id type xs ys zs
13 4 0.659502 0.322753 0.158191
12 4 0.504607 0.152744 0.256194
11 2 0.582055 0.237748 0.207192
10 3 0.86759 0.888945 0.405773
8 3 0.823589 0.710418 0.446063
9 3 0.731188 0.853355 0.530509
7 3 0.910827 0.818157 0.572902
6 1 0.833224 0.81813 0.488033
5 3 0.407186 0.643831 0.767472
1 1 0.349065 0.585171 0.845852
2 3 0.357219 0.472797 0.822818
3 3 0.237242 0.615927 0.843442
4 3 0.393377 0.605173 0.951174
ITEM: TIMESTEP
17500
ITEM: NUMBER OF ATOMS
13
ITEM: BOX BOUNDS pp pp pp
-2.0000000000000000e+00 2.0000000000000000e+00
-2.0000000000000000e+00 2.0000000000000000e+00
-2.0000000000000000e+00 2.0000000000000000e+00
ITEM: ATOMS id type xs ys zs
13 4 0.657726 0.322081 0.156183
12 4 0.505628 0.152084 0.258492
11 2 0.581677 0.237083 0.207337
10 3 0.864427 0.892337 0.408367
8 3 0.828211 0.710871 0.442864
9 3 0.731166 0.846899 0.5333
7 3 0.912605 0.817642 0.572416
6 1 0.834001 0.817372 0.488474
5 3 0.41183 0.643464 0.767679
1 1 0.34963 0.586434 0.844108
2 3 0.356122 0.47381 0.821778
3 3 0.238675 0.619632 0.837541
4 3 0.390539 0.605911 0.950894
ITEM: TIMESTEP
18000
ITEM: NUMBER OF ATOMS
13
ITEM: BOX BOUNDS pp pp pp
-2.0000000000000000e+00 2.0000000000000000e+00
-2.0000000000000000e+00 2.0000000000000000e+00
-2.0000000000000000e+00 2.0000000000000000e+00
ITEM: ATOMS id type xs ys zs
13 4 0.65604 0.321207 0.15405
12 4 0.507173 0.151277 0.261111
11 2 0.581607 0.236242 0.207581
8 3 0.832315 0.711443 0.439661
9 3 0.731214 0.8404 0.535831
10 3 0.861129 0.895259 0.411157
7 3 0.914097 0.816859 0.571969
6 1 0.834562 0.816447 0.488908
5 3 0.416577 0.642983 0.767483
1 1 0.350446 0.587753 0.841906
2 3 0.355226 0.474893 0.820345
3 3 0.240559 0.62335 0.831229
4 3 0.387951 0.606902 0.949994
ITEM: TIMESTEP
18500
ITEM: NUMBER OF ATOMS
13
ITEM: BOX BOUNDS pp pp pp
-2.0000000000000000e+00 2.0000000000000000e+00
-2.0000000000000000e+00 2.0000000000000000e+00
-2.0000000000000000e+00 2.0000000000000000e+00
ITEM: ATOMS id type xs ys zs
13 4 0.65476 0.320049 0.151543
12 4 0.508975 0.150399 0.263193
11 2 0.581867 0.235224 0.207368
8 3 0.836262 0.712274 0.436745
9 3 0.731679 0.834236 0.538174
10 3 0.858044 0.897854 0.414013
7 3 0.915708 0.816257 0.571586
6 1 0.835271 0.815631 0.4894
5 3 0.421341 0.642556 0.767277
1 1 0.351522 0.589054 0.839564
2 3 0.354892 0.475994 0.818798
3 3 0.242798 0.62668 0.824739
4 3 0.38548 0.608141 0.948829
ITEM: TIMESTEP
19000
ITEM: NUMBER OF ATOMS
13
ITEM: BOX BOUNDS pp pp pp
-2.0000000000000000e+00 2.0000000000000000e+00
-2.0000000000000000e+00 2.0000000000000000e+00
-2.0000000000000000e+00 2.0000000000000000e+00
ITEM: ATOMS id type xs ys zs
13 4 0.653449 0.319035 0.148921
12 4 0.511232 0.149249 0.264882
11 2 0.582341 0.234142 0.206901
8 3 0.839322 0.713969 0.433306
9 3 0.732517 0.828857 0.540513
10 3 0.854796 0.900839 0.416827
7 3 0.917535 0.815718 0.570551
6 1 0.835863 0.815341 0.489589
5 3 0.425602 0.642207 0.76707
1 1 0.352392 0.590358 0.837173
2 3 0.354524 0.477131 0.817171
3 3 0.244919 0.629746 0.818349
4 3 0.38285 0.609539 0.947448
ITEM: TIMESTEP
19500
ITEM: NUMBER OF ATOMS
13
ITEM: BOX BOUNDS pp pp pp
-2.0000000000000000e+00 2.0000000000000000e+00
-2.0000000000000000e+00 2.0000000000000000e+00
-2.0000000000000000e+00 2.0000000000000000e+00
ITEM: ATOMS id type xs ys zs
13 4 0.652202 0.318041 0.146424
12 4 0.513896 0.148059 0.266747
11 2 0.583049 0.23305 0.206585
8 3 0.841923 0.715623 0.4299
9 3 0.733163 0.823543 0.542259
10 3 0.851423 0.903325 0.419455
7 3 0.9189 0.815189 0.569426
6 1 0.836148 0.814933 0.48957
5 3 0.429687 0.642028 0.76704
1 1 0.353327 0.591584 0.834768
2 3 0.35435 0.478266 0.815195
3 3 0.247191 0.632584 0.812178
4 3 0.380319 0.610679 0.945957
ITEM: TIMESTEP
20000
ITEM: NUMBER OF ATOMS
13
ITEM: BOX BOUNDS pp pp pp
-2.0000000000000000e+00 2.0000000000000000e+00
-2.0000000000000000e+00 2.0000000000000000e+00
-2.0000000000000000e+00 2.0000000000000000e+00
ITEM: ATOMS id type xs ys zs
13 4 0.65093 0.316625 0.143705
12 4 0.516818 0.146621 0.268656
11 2 0.583874 0.231623 0.20618
8 3 0.844939 0.71767 0.426605
9 3 0.733664 0.818264 0.543219
10 3 0.848209 0.905822 0.422206
7 3 0.919798 0.81516 0.568725
6 1 0.836426 0.814757 0.489517
5 3 0.434014 0.641808 0.767524
1 1 0.354305 0.593057 0.83258
2 3 0.354099 0.479631 0.813619
3 3 0.249817 0.635742 0.805811
4 3 0.377433 0.612307 0.94461
ITEM: TIMESTEP
20500
ITEM: NUMBER OF ATOMS
13
ITEM: BOX BOUNDS pp pp pp
-2.0000000000000000e+00 2.0000000000000000e+00
-2.0000000000000000e+00 2.0000000000000000e+00
-2.0000000000000000e+00 2.0000000000000000e+00
ITEM: ATOMS id type xs ys zs
13 4 0.649705 0.315115 0.141351
12 4 0.519668 0.144548 0.269793
11 2 0.584686 0.229831 0.205572
8 3 0.848142 0.719898 0.423412
9 3 0.734267 0.812875 0.543778
10 3 0.844843 0.908095 0.424877
7 3 0.920573 0.815486 0.568059
6 1 0.836706 0.814629 0.489378
5 3 0.438192 0.641113 0.767972
1 1 0.355075 0.59457 0.830326
2 3 0.353225 0.481013 0.81226
3 3 0.252589 0.639158 0.799264
4 3 0.374336 0.614307 0.943001
ITEM: TIMESTEP
21000
ITEM: NUMBER OF ATOMS
13
ITEM: BOX BOUNDS pp pp pp
-2.0000000000000000e+00 2.0000000000000000e+00
-2.0000000000000000e+00 2.0000000000000000e+00
-2.0000000000000000e+00 2.0000000000000000e+00
ITEM: ATOMS id type xs ys zs
13 4 0.648512 0.31416 0.139572
12 4 0.522448 0.142571 0.270588
11 2 0.58548 0.228366 0.20508
8 3 0.851243 0.722372 0.419841
9 3 0.734982 0.807587 0.543622
10 3 0.841982 0.910213 0.427647
7 3 0.921212 0.815314 0.567395
6 1 0.837086 0.814425 0.488992
5 3 0.442267 0.640141 0.768317
1 1 0.355735 0.596089 0.827766
2 3 0.352047 0.48242 0.810709
3 3 0.255579 0.642607 0.792254
4 3 0.370984 0.616553 0.940925
ITEM: TIMESTEP
21500
ITEM: NUMBER OF ATOMS
13
ITEM: BOX BOUNDS pp pp pp
-2.0000000000000000e+00 2.0000000000000000e+00
-2.0000000000000000e+00 2.0000000000000000e+00
-2.0000000000000000e+00 2.0000000000000000e+00
ITEM: ATOMS id type xs ys zs
13 4 0.646779 0.313754 0.137532
12 4 0.525731 0.140735 0.271367
11 2 0.586255 0.227245 0.204449
8 3 0.854436 0.7258 0.416007
9 3 0.735678 0.802236 0.543107
10 3 0.839041 0.912786 0.431188
7 3 0.921599 0.815131 0.567055
6 1 0.8374 0.814557 0.488728
5 3 0.446388 0.639054 0.769052
1 1 0.356391 0.597543 0.825087
2 3 0.351073 0.483767 0.80922
3 3 0.258914 0.64565 0.784588
4 3 0.36702 0.619124 0.938566
ITEM: TIMESTEP
22000
ITEM: NUMBER OF ATOMS
13
ITEM: BOX BOUNDS pp pp pp
-2.0000000000000000e+00 2.0000000000000000e+00
-2.0000000000000000e+00 2.0000000000000000e+00
-2.0000000000000000e+00 2.0000000000000000e+00
ITEM: ATOMS id type xs ys zs
13 4 0.644909 0.313117 0.134978
12 4 0.5289 0.139024 0.271849
11 2 0.586905 0.226071 0.203414
8 3 0.857906 0.730293 0.412255
9 3 0.73637 0.796835 0.54226
10 3 0.835575 0.915771 0.435284
7 3 0.921679 0.815596 0.567054
6 1 0.837573 0.815207 0.488625
5 3 0.450375 0.63766 0.770336
1 1 0.356882 0.598925 0.822502
2 3 0.349768 0.48508 0.807887
3 3 0.262568 0.648576 0.776722
4 3 0.362544 0.621872 0.93607
ITEM: TIMESTEP
22500
ITEM: NUMBER OF ATOMS
13
ITEM: BOX BOUNDS pp pp pp
-2.0000000000000000e+00 2.0000000000000000e+00
-2.0000000000000000e+00 2.0000000000000000e+00
-2.0000000000000000e+00 2.0000000000000000e+00
ITEM: ATOMS id type xs ys zs
13 4 0.643474 0.312652 0.13247
12 4 0.531973 0.137513 0.271732
11 2 0.587724 0.225082 0.202101
9 3 0.737182 0.791823 0.541083
8 3 0.86122 0.735358 0.408696
10 3 0.832163 0.918749 0.439596
7 3 0.921657 0.816175 0.567196
6 1 0.837726 0.816123 0.48858
3 3 0.266962 0.651951 0.768546
5 3 0.454486 0.636022 0.772057
2 3 0.348005 0.486822 0.806898
1 1 0.357433 0.600689 0.819961
4 3 0.357888 0.625525 0.933271
ITEM: TIMESTEP
23000
ITEM: NUMBER OF ATOMS
13
ITEM: BOX BOUNDS pp pp pp
-2.0000000000000000e+00 2.0000000000000000e+00
-2.0000000000000000e+00 2.0000000000000000e+00
-2.0000000000000000e+00 2.0000000000000000e+00
ITEM: ATOMS id type xs ys zs
13 4 0.642368 0.312372 0.13019
12 4 0.535114 0.136164 0.271426
11 2 0.588741 0.224268 0.200808
9 3 0.738167 0.786635 0.539118
8 3 0.864539 0.741145 0.404727