ITEM: TIMESTEP
0
ITEM: NUMBER OF ATOMS
550
ITEM: BOX BOUNDS pp pp pp
-4.5000000000000000e+00 4.5000000000000000e+00
-4.5000000000000000e+00 4.5000000000000000e+00
-4.5000000000000000e+00 4.5000000000000000e+00
ITEM: ATOMS id type c_Ke c_Pe
504 4 0 0
351 4 0 0
350 2 0 0
243 3 0 0
454 4 0 0
6 1 0 0
8 3 0 0
7 3 0 0
10 3 0 0
241 1 0 0
244 3 0 0
335 2 0 0
336 4 0 0
157 3 0 0
9 3 0 0
509 2 0 0
511 4 0 0
156 1 0 0
160 3 0 0
292 4 0 0
53 3 0 0
547 4 0 0
529 4 0 -5.65751e-11
527 2 0 0
528 4 0 0
231 1 0 0
232 3 0 0
234 3 0 0
389 2 0 0
390 4 0 0
233 3 0 0
251 2 0 0
252 4 0 0
24 3 0 -0.000138766
310 4 0 -0.000138766
70 3 0 0
370 4 0 0
368 2 0 0
369 4 0 0
253 4 0 0
149 3 0 0
66 1 0 0
69 3 0 0
67 3 0 0
313 4 0 0
311 2 0 0
312 4 0 0
116 1 0 0
120 3 0 0
119 3 0 0
89 3 0 0
86 1 0 0
90 3 0 0
118 3 0 0
298 4 0 0
296 2 0 0.00519547
297 4 0 0
245 3 0 0
352 4 0 0
435 4 0 0
113 3 0 0
338 2 0 0
340 4 0 0
339 4 0 0
242 3 0 0
337 4 0 0
114 3 0 0
115 3 0 0
333 4 0 0
502 4 0 0
51 1 0 0
52 3 0 0
55 3 0 0
538 4 0 -5.65751e-11
54 3 0 0
147 3 0 0
171 1 0 0
173 3 0 0
150 3 0 0
146 1 0 0
148 3 0 0
308 2 0 0
309 4 0 0
175 3 0 0
279 4 0 0
278 2 0 0
280 4 0 0
503 2 0 0.00519547
505 4 0 0
88 3 0 0
117 3 0 0
138 3 0 0
136 1 0 0
137 3 0 0
140 3 0 0
513 4 0 0
541 4 0 0
539 2 0 0
540 4 0 -0.00805946
436 4 0 0
434 2 0 0
164 3 0 0
163 3 0 0
395 2 0 0
397 4 0 -0.00805946
474 4 0 0
111 1 0 0
112 3 0 0
36 1 0 0
37 3 0 0
396 4 0 0
475 4 0 0
473 2 0 0.464893
40 3 0 0
39 3 0 0
411 4 0 0
275 2 0 0
277 4 0 0
276 4 0 0
500 2 0 0.464893
501 4 0 0
536 2 0 0
412 4 0 0
410 2 0 0
332 2 0 0
199 3 0 0
200 3 0 0
537 4 0 0
334 4 0 0
196 1 0 0
197 3 0 0
198 3 0 -6.21979e-10
413 2 0 0
415 4 0 0
362 2 0 0.0536484
364 4 0 0
172 3 0 0
174 3 0 -5.38269e-13
204 3 0 0
347 2 0 0
349 4 0 0
348 4 0 0
178 3 0 0
382 4 0 0
542 2 0 0
543 4 0 0
420 4 0 0
87 3 0 0
139 3 0 -0.000989951
323 2 0 0
317 2 0 0
319 4 0 0
318 4 0 -0.000989951
512 2 0 0
514 4 0 0
507 4 0 0
324 4 0 0
429 4 0 -2.72671e-14
525 4 0 0
161 1 0 0
162 3 0 -2.72671e-14
344 2 0 0
346 4 0 0
38 3 0 0
165 3 0 0
285 4 0 0
45 3 0 0
215 3 0 0
424 4 0 0
327 4 0 -6.21979e-10
470 2 0 0.0536484
472 4 0 -0.0249714
423 4 0 -5.38269e-13
422 2 0 0
203 3 0 0
414 4 0 0
363 4 0 -0.0249714
179 3 0 0
176 1 0 0
177 3 0 0
201 1 0 0
202 3 0 0
205 3 0 0
341 2 0 0
342 4 0 -0.0245153
384 4 0 -0.0245153
180 3 0 0
380 2 0 0
544 4 0 0
419 2 0 0
421 4 0 0
325 4 0 0
358 4 0 0
356 2 0 0
95 3 0 -1.62905e-15
357 4 0 -1.62905e-15
91 1 0 0
94 3 0 0
430 4 0 0
506 2 0 0
508 4 0 0
526 4 0 0
428 2 0 0
524 2 0 0
373 4 0 -0.0248533
463 4 0 -0.0248533
461 2 0 0.0729137
462 4 0 0
345 4 0 0
213 3 0 0
481 4 0 0
41 1 0 0
43 3 0 0
44 3 0 0
211 1 0 0
214 3 0 0
212 3 0 0
284 2 0 0
286 4 0 0
447 4 0 0
42 3 0 0
393 4 0 0
471 4 0 0
392 2 0 0
394 4 0 0
314 2 0 0
316 4 0 0
315 4 0 0
326 2 0 0
328 4 0 0
343 4 0 0
383 2 0 0
385 4 0 0
381 4 0 -0.00784291
92 3 0 0
260 2 0 0
261 4 0 0
93 3 0 0
219 3 0 0
216 1 0 0
218 3 0 0
403 4 0 0
269 2 0 0.0729137
270 4 0 0
81 1 0 0
82 3 0 0
84 3 0 0
402 4 0 0
401 2 0 0
259 4 0 0
257 2 0 0
258 4 0 0
371 2 0 0
85 3 0 0
372 4 0 0
479 2 0 0
480 4 0 0
446 2 0 0
448 4 0 0
548 2 0 0
550 4 0 0
409 4 0 0
407 2 0 0
408 4 0 0
485 2 0 0
487 4 0 0
486 4 0 -0.00552467
268 4 0 -0.00552467
493 4 0 0
491 2 0 0.0159918
492 4 0 0
320 2 0 0
322 4 0 0
19 3 0 0
18 3 0 0
375 4 0 0
374 2 0 0
16 1 0 0
20 3 0 -0.00784291
262 4 0 0
217 3 0 0
64 3 0 0
388 4 0 0
220 3 0 0
183 3 0 0
288 4 0 0
271 4 0 0
83 3 0 0
287 2 0 0
289 4 0 0
58 3 0 0
449 2 0 0
450 4 0 0
549 4 0 0
489 4 0 0
59 3 0 0
56 1 0 0
60 3 0 0
267 4 0 0
266 2 0 0
295 4 0 0
293 2 0 0.0159918
294 4 0 0
321 4 0 0
456 4 0 0
376 4 0 0
305 2 0 0
307 4 0 0
17 3 0 -0.00803591
62 3 0 0
61 1 0 0
63 3 0 0
386 2 0 0
387 4 0 -0.00803591
431 2 0 0
432 4 0 0
99 3 0 0
100 3 0 0
330 4 0 0
184 3 0 0
181 1 0 0
182 3 0 0
185 3 0 0
365 2 0 0
367 4 0 0
465 4 0 0
442 4 0 0
466 4 0 0
464 2 0 0
440 2 0 0
451 4 0 0
490 4 0 0
441 4 0 0
488 2 0 0
57 3 0 0
142 3 0 0
144 3 0 0
141 1 0 0
145 3 0 0
361 4 0 0
186 1 0 0
187 3 0 0
455 2 0 0
306 4 0 0
129 3 0 0
457 4 0 0
516 4 0 0
65 3 0 0
515 2 0 0
517 4 0 0
433 4 0 0
96 1 0 0
98 3 0 0
329 2 0 0
97 3 0 0
222 3 0 0
104 3 0 0
366 4 0 0
460 4 0 0
458 2 0 0
459 4 0 0
225 3 0 0
444 4 0 0
248 3 0 0
30 3 0 0
443 2 0 0
445 4 0 0
249 3 0 0
27 3 0 0
26 1 0 0
28 3 0 0
519 4 0 0
190 3 0 0
143 3 0 0
359 2 0 0
360 4 0 0
189 3 0 0
188 3 0 0
74 3 0 0
71 1 0 0
73 3 0 0
75 3 0 0
127 3 0 0
128 3 0 0
195 3 0 0
126 1 0 0
130 3 0 0
191 1 0 0
192 3 0 0
193 3 0 0
530 2 0 0.284335
531 4 0 0
49 3 0 0
46 1 0 0
48 3 0 0
50 3 0 0
331 4 0 0
79 3 0 0
102 3 0 0
103 3 0 0
406 4 0 0
76 1 0 0
80 3 0 0
78 3 0 0
221 1 0 0
223 3 0 0
105 3 0 0
224 3 0 0
101 1 0 0
153 3 0 0
155 3 0 0
418 4 0 -1.6173e-06
151 1 0 0
154 3 0 0
416 2 0 0
417 4 0 -0.0211854
247 3 0 0
207 3 0 0
208 3 0 0
520 4 0 -0.0211854
246 1 0 0
250 3 0 0
29 3 0 0
303 4 0 -1.28378e-09
518 2 0 0.0558738
5 3 0 0
33 3 0 0
263 2 0 0
264 4 0 0
265 4 0 -1.33917e-139
72 3 0 -4.80167e-13
273 4 0 -4.80167e-13
497 2 0 0
499 4 0 0
301 4 0 0
238 3 0 -1.33917e-139
498 4 0 -0.00124193
438 4 0 0
533 2 0 0.0187786
534 4 0 -0.00124193
427 4 0 -1.74776e-09
532 4 0 -1.74776e-09
194 3 0 0
535 4 0 0
425 2 0 0.284335
426 4 0 0
47 3 0 0
254 2 0 0
255 4 0 0
522 4 0 0
133 3 0 0
106 1 0 0
110 3 0 0
77 3 0 -0.0184677
453 4 0 -0.0184677
135 3 0 0
404 2 0 0
169 3 0 -1.6173e-06
166 1 0 0
167 3 0 0
210 3 0 0
405 4 0 0
152 3 0 0
168 3 0 0
283 4 0 0
281 2 0 0
282 4 0 0
206 1 0 0
209 3 0 0
400 4 0 0
398 2 0 0
399 4 0 0
476 2 0 0.0684374
291 4 0 -0.00801287
477 4 0 -0.00801287
15 3 0 0
302 2 0 0.0125635
478 4 0 -1.28378e-09
378 4 0 0
3 3 0 0
1 1 0 0
2 3 0 0
4 3 0 0
32 3 0 0
31 1 0 0
34 3 0 0
35 3 0 0
377 2 0 0
379 4 0 0
240 3 0 0
299 2 0 0
482 2 0 0.0257112
483 4 0 0
237 3 0 0
236 1 0 0
239 3 0 0
274 4 0 0
272 2 0 0
300 4 0 0
437 2 0 0.0257112
439 4 0 0
353 2 0 0.0187786
355 4 0 -1.63141e-23
354 4 0 0
496 4 0 0
494 2 0 0
495 4 0 0
124 3 0 0
521 2 0 0
256 4 0 0
131 1 0 0
134 3 0 0
108 3 0 0
107 3 0 0
467 2 0 0
468 4 0 0
452 2 0 0
132 3 0 0
109 3 0 0
469 4 0 0
170 3 0 0
158 3 0 0
12 3 0 0
11 1 0 0
14 3 0 -0.00908678
510 4 0 -0.00908678
290 2 0 0
159 3 0 0
13 3 0 0
304 4 0 0
235 3 0 0
391 4 0 0
545 2 0 0
546 4 0 0
22 3 0 0
21 1 0 0
23 3 0 0
25 3 0 0
484 4 0 0
123 3 0 0
226 1 0 0
227 3 0 0
229 3 0 0
230 3 0 0
228 3 0 0
68 3 0 -1.63141e-23
121 1 0 0
122 3 0 0
125 3 0 0
523 4 0 0
