ITEM: TIMESTEP
0
ITEM: NUMBER OF ATOMS
31
ITEM: BOX BOUNDS pp pp pp
-3.0000000000000000e+00 3.0000000000000000e+00
-3.0000000000000000e+00 3.0000000000000000e+00
-3.0000000000000000e+00 3.0000000000000000e+00
ITEM: ATOMS id type xs ys zs
31 4 0.757077 0.514847 0.0201018
21 4 0.489271 0.0865685 0.172104
7 3 0.90166 0.094087 0.241277
20 2 0.336237 0.135314 0.216628
28 4 0.603485 0.751814 0.238573
6 1 0.787749 0.0706827 0.359793
22 4 0.183203 0.184059 0.261153
12 4 0.977415 0.494885 0.269488
11 2 0.0941637 0.609823 0.300091
26 2 0.559923 0.621368 0.332721
13 4 0.210913 0.724762 0.330694
9 3 0.664167 0.977829 0.300702
8 3 0.727742 0.216845 0.409007
27 4 0.51636 0.490922 0.426869
10 3 0.858132 0.993195 0.489484
25 4 0.371162 0.247865 0.613344
23 2 0.449164 0.10309 0.64043
2 3 0.34726 0.603526 0.709319
14 2 0.772814 0.688207 0.698459
15 4 0.926122 0.667444 0.636464
24 4 0.527166 0.958315 0.667515
30 4 0.928341 0.314203 0.816333
1 1 0.335809 0.5527 0.866974
16 4 0.619507 0.70897 0.760455
17 2 0.00601198 0.0434282 0.897575
18 4 0.17237 0.0344972 0.892792
19 4 0.839654 0.0523592 0.902358
5 3 0.383613 0.393365 0.877222
29 2 0.842709 0.414525 0.918218
4 3 0.179239 0.566585 0.918733
3 3 0.433603 0.645729 0.962723
ITEM: TIMESTEP
500
ITEM: NUMBER OF ATOMS
31
ITEM: BOX BOUNDS pp pp pp
-3.0000000000000000e+00 3.0000000000000000e+00
-3.0000000000000000e+00 3.0000000000000000e+00
-3.0000000000000000e+00 3.0000000000000000e+00
ITEM: ATOMS id type xs ys zs
31 4 0.756483 0.51476 0.0203997
21 4 0.489369 0.0865192 0.1728
7 3 0.901313 0.0943112 0.241835
20 2 0.33621 0.135659 0.216452
28 4 0.603306 0.751907 0.239326
6 1 0.787503 0.0705413 0.360375
22 4 0.183051 0.184799 0.260105
12 4 0.977639 0.494963 0.269003
11 2 0.094134 0.610084 0.299885
26 2 0.559851 0.621212 0.333177
13 4 0.210629 0.725206 0.330767
9 3 0.664166 0.977361 0.301285
8 3 0.727097 0.216515 0.40966
27 4 0.516395 0.490516 0.427029
10 3 0.858141 0.993205 0.490017
25 4 0.371319 0.247528 0.613067
23 2 0.44943 0.102829 0.640245
2 3 0.346879 0.603789 0.709539
14 2 0.772703 0.688148 0.698256
15 4 0.92611 0.667918 0.636329
24 4 0.527542 0.95813 0.667424
30 4 0.928487 0.314894 0.81649
1 1 0.335751 0.552631 0.867109
16 4 0.619297 0.708378 0.760184
17 2 0.00538245 0.0437925 0.897358
18 4 0.171754 0.0348222 0.893124
19 4 0.839011 0.0527629 0.901593
5 3 0.383897 0.393375 0.87698
29 2 0.842485 0.414827 0.918445
4 3 0.179223 0.566092 0.919111
3 3 0.433484 0.645675 0.962906
ITEM: TIMESTEP
1000
ITEM: NUMBER OF ATOMS
31
ITEM: BOX BOUNDS pp pp pp
-3.0000000000000000e+00 3.0000000000000000e+00
-3.0000000000000000e+00 3.0000000000000000e+00
-3.0000000000000000e+00 3.0000000000000000e+00
ITEM: ATOMS id type xs ys zs
31 4 0.754719 0.513668 0.0210256
21 4 0.489165 0.0867478 0.172994
7 3 0.901681 0.0934683 0.242767
20 2 0.336011 0.136114 0.216405
28 4 0.603787 0.752459 0.241151
6 1 0.787675 0.0704562 0.361268
22 4 0.182857 0.185481 0.259817
12 4 0.978381 0.494828 0.267968
11 2 0.0943419 0.610169 0.300022
26 2 0.559993 0.620934 0.333677
13 4 0.210302 0.72551 0.332075
9 3 0.6638 0.977997 0.302172
8 3 0.728138 0.216822 0.410447
27 4 0.516199 0.48941 0.426204
10 3 0.857784 0.992761 0.490983
25 4 0.37038 0.246922 0.611758
23 2 0.449343 0.102791 0.639484
2 3 0.345043 0.603412 0.709442
14 2 0.772387 0.688338 0.698164
15 4 0.925767 0.668144 0.63616
24 4 0.528307 0.95866 0.667209
30 4 0.928073 0.315437 0.816663
1 1 0.335214 0.552429 0.867156
16 4 0.619007 0.708532 0.760168
17 2 0.00424226 0.0441161 0.896445
18 4 0.17059 0.034345 0.893172
19 4 0.837894 0.0538873 0.899718
5 3 0.38449 0.393517 0.876979
29 2 0.841396 0.414552 0.918844
4 3 0.178918 0.56492 0.920086
3 3 0.432898 0.646279 0.962214
ITEM: TIMESTEP
1500
ITEM: NUMBER OF ATOMS
31
ITEM: BOX BOUNDS pp pp pp
-3.0000000000000000e+00 3.0000000000000000e+00
-3.0000000000000000e+00 3.0000000000000000e+00
-3.0000000000000000e+00 3.0000000000000000e+00
ITEM: ATOMS id type xs ys zs
31 4 0.751939 0.513041 0.0210357
21 4 0.48856 0.086 0.172882
7 3 0.90162 0.0917632 0.242614
20 2 0.335815 0.135816 0.217211
28 4 0.604618 0.753368 0.243252
6 1 0.788005 0.0701698 0.361755
22 4 0.183069 0.185631 0.26154
12 4 0.979328 0.494954 0.26554
11 2 0.0947225 0.610265 0.299678
26 2 0.560347 0.620701 0.333902
13 4 0.210117 0.725576 0.333817
9 3 0.662803 0.979003 0.303452
8 3 0.730348 0.217249 0.411045
27 4 0.516076 0.488034 0.424552
10 3 0.857946 0.991881 0.491203
25 4 0.369739 0.246348 0.609263
23 2 0.449338 0.102803 0.638186
2 3 0.342427 0.602649 0.709566
14 2 0.772723 0.688909 0.697896
15 4 0.926122 0.66939 0.635723
24 4 0.528938 0.959258 0.667109
30 4 0.926766 0.315646 0.817119
1 1 0.334581 0.551975 0.867491
16 4 0.619324 0.708429 0.760069
17 2 0.00361096 0.0441139 0.894808
18 4 0.169915 0.033276 0.892954
19 4 0.837307 0.0549517 0.896663
5 3 0.385422 0.39355 0.877227
29 2 0.839352 0.414343 0.919077
4 3 0.178689 0.563151 0.921887
3 3 0.432295 0.646964 0.96138
ITEM: TIMESTEP
2000
ITEM: NUMBER OF ATOMS
31
ITEM: BOX BOUNDS pp pp pp
-3.0000000000000000e+00 3.0000000000000000e+00
-3.0000000000000000e+00 3.0000000000000000e+00
-3.0000000000000000e+00 3.0000000000000000e+00
ITEM: ATOMS id type xs ys zs
31 4 0.748077 0.512984 0.0199872
21 4 0.487359 0.0848775 0.173046
7 3 0.901544 0.0896058 0.243193
20 2 0.335197 0.134971 0.219034
28 4 0.606064 0.75408 0.244674
6 1 0.788351 0.0700638 0.363089
22 4 0.183034 0.185065 0.265022
12 4 0.980307 0.495355 0.263219
11 2 0.0953288 0.610409 0.299417
26 2 0.560999 0.62077 0.333979
13 4 0.21035 0.725464 0.335614
9 3 0.661481 0.980545 0.305849
8 3 0.733147 0.21813 0.412232
27 4 0.515933 0.48746 0.423283
10 3 0.857929 0.991186 0.492376
25 4 0.370554 0.246635 0.606925
23 2 0.450106 0.103224 0.636633
2 3 0.340178 0.60222 0.709834
14 2 0.773286 0.689047 0.697184
15 4 0.926323 0.670443 0.633847
24 4 0.529658 0.959813 0.666341
30 4 0.924227 0.314632 0.818148
1 1 0.334559 0.551572 0.867861
16 4 0.62025 0.707651 0.76052
17 2 0.00335258 0.0438461 0.893524
18 4 0.169573 0.0316809 0.892863
19 4 0.837132 0.0560113 0.894185
5 3 0.386574 0.393497 0.877055
29 2 0.836152 0.413808 0.919068
4 3 0.179257 0.56173 0.924112
3 3 0.432748 0.647261 0.960537
ITEM: TIMESTEP
2500
ITEM: NUMBER OF ATOMS
31
ITEM: BOX BOUNDS pp pp pp
-3.0000000000000000e+00 3.0000000000000000e+00
-3.0000000000000000e+00 3.0000000000000000e+00
-3.0000000000000000e+00 3.0000000000000000e+00
ITEM: ATOMS id type xs ys zs
31 4 0.743579 0.512434 0.0188767
21 4 0.486033 0.0832821 0.173677
7 3 0.901494 0.0870784 0.244025
20 2 0.334628 0.133965 0.221484
28 4 0.607823 0.755293 0.246249
6 1 0.788834 0.0702197 0.364827
22 4 0.183223 0.184648 0.269292
12 4 0.981582 0.495931 0.261506
11 2 0.0958792 0.611097 0.299594
26 2 0.562074 0.621179 0.333988
13 4 0.210176 0.726264 0.337682
9 3 0.66 0.982632 0.309002
8 3 0.7366 0.219514 0.413497
27 4 0.516326 0.487064 0.421727
10 3 0.857933 0.99086 0.494075
25 4 0.372515 0.24755 0.604681
23 2 0.451356 0.103896 0.635099
2 3 0.339092 0.602576 0.710825
14 2 0.773431 0.688066 0.696668
15 4 0.926069 0.670622 0.632055
24 4 0.530197 0.960241 0.665518
30 4 0.920733 0.313693 0.818304
1 1 0.334338 0.551428 0.86872
16 4 0.620792 0.70551 0.761282
17 2 0.00310226 0.0432666 0.891638
18 4 0.169187 0.0293659 0.891076
19 4 0.837017 0.0571672 0.892201
5 3 0.386997 0.393527 0.877211
29 2 0.832156 0.413063 0.91859
4 3 0.179238 0.560818 0.925658
3 3 0.432551 0.647211 0.961271
ITEM: TIMESTEP
3000
ITEM: NUMBER OF ATOMS
31
ITEM: BOX BOUNDS pp pp pp
-3.0000000000000000e+00 3.0000000000000000e+00
-3.0000000000000000e+00 3.0000000000000000e+00
-3.0000000000000000e+00 3.0000000000000000e+00
ITEM: ATOMS id type xs ys zs
31 4 0.739244 0.511522 0.0179335
21 4 0.485875 0.0813951 0.173744
7 3 0.900825 0.0849711 0.244429
20 2 0.33536 0.133086 0.223251
28 4 0.609313 0.756203 0.247973
6 1 0.789378 0.0707864 0.36669
22 4 0.184845 0.184778 0.272759
12 4 0.983024 0.496537 0.258897
11 2 0.0960642 0.612028 0.29966
26 2 0.562737 0.62147 0.334317
13 4 0.209104 0.727518 0.340423
9 3 0.658401 0.98507 0.312989
8 3 0.74029 0.22125 0.415036
27 4 0.51616 0.486737 0.420662
10 3 0.85869 0.991057 0.495597
25 4 0.374576 0.249113 0.603085
23 2 0.45179 0.104625 0.633733
2 3 0.338352 0.603391 0.712606
14 2 0.773307 0.686802 0.695531
15 4 0.925832 0.670487 0.630358
24 4 0.529003 0.960138 0.66438
30 4 0.916113 0.311912 0.817973
1 1 0.333987 0.551579 0.870296
16 4 0.620781 0.703117 0.760704
17 2 0.00187543 0.0424279 0.889392
18 4 0.167787 0.026589 0.888889
19 4 0.835964 0.0582668 0.889894
5 3 0.386914 0.393729 0.878028
29 2 0.827678 0.411717 0.917953
4 3 0.178983 0.560484 0.927573
3 3 0.432227 0.647135 0.963054
ITEM: TIMESTEP
3500
ITEM: NUMBER OF ATOMS
31
ITEM: BOX BOUNDS pp pp pp
-3.0000000000000000e+00 3.0000000000000000e+00
-3.0000000000000000e+00 3.0000000000000000e+00
-3.0000000000000000e+00 3.0000000000000000e+00
ITEM: ATOMS id type xs ys zs
31 4 0.735774 0.511159 0.016156
21 4 0.485934 0.0799726 0.175006
7 3 0.899154 0.0838524 0.2439
20 2 0.335896 0.132583 0.224991
28 4 0.61124 0.757336 0.249777
6 1 0.789881 0.0718433 0.368337
22 4 0.185858 0.185193 0.274976
12 4 0.984114 0.497391 0.255348
11 2 0.0957521 0.612861 0.299864
26 2 0.563778 0.621976 0.334646
13 4 0.20739 0.72833 0.344379
9 3 0.656758 0.987626 0.317623
8 3 0.743758 0.223218 0.416756
27 4 0.516316 0.486616 0.419515
10 3 0.86056 0.991876 0.496351
25 4 0.37688 0.250959 0.602401
23 2 0.451967 0.105174 0.632178
2 3 0.338059 0.604625 0.714822
14 2 0.773499 0.684734 0.693681
15 4 0.926212 0.669521 0.628681
24 4 0.527053 0.959389 0.661954
30 4 0.911004 0.308675 0.817647
1 1 0.333854 0.55229 0.872342
16 4 0.620786 0.699947 0.758681
17 2 -0.000142272 0.0416973 0.88721
18 4 0.165518 0.0234218 0.886566
19 4 0.834197 0.0599728 0.887855
5 3 0.387469 0.39465 0.879592
29 2 0.823389 0.409917 0.916902
4 3 0.178788 0.560332 0.929579
3 3 0.431635 0.647978 0.965449
ITEM: TIMESTEP
4000
ITEM: NUMBER OF ATOMS
31
ITEM: BOX BOUNDS pp pp pp
-3.0000000000000000e+00 3.0000000000000000e+00
-3.0000000000000000e+00 3.0000000000000000e+00
-3.0000000000000000e+00 3.0000000000000000e+00
ITEM: ATOMS id type xs ys zs
31 4 0.732824 0.511944 0.01378
21 4 0.486116 0.0776743 0.176572
7 3 0.897329 0.0832388 0.243107
20 2 0.336186 0.131163 0.225945
6 1 0.79043 0.073089 0.369752
22 4 0.186256 0.184652 0.275319
12 4 0.986148 0.497506 0.251461
11 2 0.0955309 0.613308 0.300484
26 2 0.564695 0.62262 0.334861
13 4 0.204913 0.72911 0.349506
28 4 0.613674 0.758084 0.251026
9 3 0.655457 0.989991 0.322181
8 3 0.746856 0.225214 0.418181
27 4 0.515716 0.487155 0.418695
10 3 0.862801 0.993112 0.496811
25 4 0.379512 0.252243 0.602467
23 2 0.452699 0.105187 0.630679
2 3 0.338849 0.60629 0.717276
14 2 0.774156 0.682731 0.692709
15 4 0.927092 0.668897 0.627924
24 4 0.525886 0.958131 0.658891
30 4 0.906845 0.306196 0.817577
1 1 0.334812 0.553502 0.87465
16 4 0.621221 0.696566 0.757493
18 4 0.162342 0.0189137 0.883817
19 4 0.831715 0.0612645 0.885624
17 2 0.997029 0.0400891 0.88472
5 3 0.38952 0.396221 0.881544
29 2 0.819835 0.40907 0.915678
4 3 0.179623 0.560304 0.931711
3 3 0.431805 0.649619 0.968138
ITEM: TIMESTEP
4500
ITEM: NUMBER OF ATOMS
31
ITEM: BOX BOUNDS pp pp pp
-3.0000000000000000e+00 3.0000000000000000e+00
-3.0000000000000000e+00 3.0000000000000000e+00
-3.0000000000000000e+00 3.0000000000000000e+00
ITEM: ATOMS id type xs ys zs
31 4 0.730216 0.513382 0.0110425
21 4 0.486164 0.0748821 0.178275
7 3 0.89538 0.08338 0.242004
20 2 0.336159 0.129089 0.226627
6 1 0.79085 0.0748515 0.370729
22 4 0.186154 0.183296 0.274979
12 4 0.988131 0.497845 0.248063
11 2 0.0951671 0.613957 0.301344
26 2 0.565656 0.62327 0.334273
13 4 0.202203 0.73007 0.354626
28 4 0.616865 0.758589 0.251543
9 3 0.653733 0.99379 0.325851
8 3 0.75053 0.22762 0.419947
27 4 0.514447 0.487951 0.417002
10 3 0.864493 0.993806 0.496372
25 4 0.382774 0.253301 0.603643
23 2 0.453919 0.104773 0.629251
2 3 0.341051 0.607895 0.719507
14 2 0.775722 0.681194 0.69227
15 4 0.928497 0.668014 0.626971
24 4 0.525064 0.956246 0.654859
30 4 0.901847 0.303277 0.817368
1 1 0.33615 0.554373 0.876609
16 4 0.622948 0.694373 0.75757
18 4 0.158078 0.0136158 0.880944
19 4 0.82847 0.0632565 0.883253
17 2 0.993274 0.0384361 0.882099
5 3 0.391802 0.397412 0.883219
29 2 0.816032 0.40833 0.914205
4 3 0.18049 0.559938 0.93251
3 3 0.431814 0.650679 0.971264
ITEM: TIMESTEP
5000
ITEM: NUMBER OF ATOMS
31
ITEM: BOX BOUNDS pp pp pp
-3.0000000000000000e+00 3.0000000000000000e+00
-3.0000000000000000e+00 3.0000000000000000e+00
-3.0000000000000000e+00 3.0000000000000000e+00
ITEM: ATOMS id type xs ys zs
31 4 0.726141 0.514558 0.00690071
21 4 0.486692 0.0707427 0.180867
7 3 0.893383 0.0839319 0.240793
20 2 0.336623 0.126147 0.227638
6 1 0.791213 0.0771132 0.3715
22 4 0.186555 0.181552 0.274409
12 4 0.990576 0.498505 0.244551
11 2 0.095013 0.615015 0.301962
26 2 0.566679 0.623202 0.333425
13 4 0.19945 0.731525 0.359373
28 4 0.620578 0.758093 0.251711
9 3 0.651987 0.998236 0.329302
8 3 0.754284 0.230521 0.421384
27 4 0.51278 0.488312 0.415139
10 3 0.865944 0.994942 0.495761
25 4 0.386323 0.255423 0.604431
23 2 0.455453 0.105618 0.628037
2 3 0.343288 0.609968 0.721654
14 2 0.777758 0.679658 0.691115
15 4 0.930649 0.667332 0.625921
24 4 0.524584 0.955813 0.651644
30 4 0.89772 0.300186 0.817912
1 1 0.33722 0.555357 0.878339
16 4 0.624867 0.691985 0.756309
18 4 0.153259 0.0081894 0.8783
19 4 0.825129 0.0667902 0.881187
17 2 0.989194 0.0374898 0.879744
5 3 0.392817 0.398349 0.884272
29 2 0.811931 0.407372 0.912406
4 3 0.181149 0.560545 0.933122
3 3 0.432182 0.650996 0.974368
ITEM: TIMESTEP
5500
ITEM: NUMBER OF ATOMS
31
ITEM: BOX BOUNDS pp pp pp
-3.0000000000000000e+00 3.0000000000000000e+00
-3.0000000000000000e+00 3.0000000000000000e+00
-3.0000000000000000e+00 3.0000000000000000e+00
ITEM: ATOMS id type xs ys zs
31 4 0.721774 0.516428 0.00205178
21 4 0.487382 0.0663595 0.184594
7 3 0.891433 0.0852665 0.240275
20 2 0.337144 0.123101 0.229168
6 1 0.791291 0.0798356 0.372607
22 4 0.186906 0.179842 0.273742
12 4 0.993501 0.498248 0.241897
11 2 0.0949239 0.615475 0.303127
26 2 0.567887 0.622379 0.332036
13 4 0.196347 0.732701 0.364357
28 4 0.623994 0.756617 0.250734
9 3 0.649861 1.00392 0.332344
8 3 0.758226 0.2337 0.423778
27 4 0.51178 0.488142 0.413339
10 3 0.866397 0.995609 0.495256
25 4 0.390406 0.258352 0.605326
23 2 0.457733 0.107388 0.626649
2 3 0.34534 0.61213 0.724044
14 2 0.779707 0.677435 0.689704
15 4 0.932364 0.666248 0.62376
24 4 0.525061 0.956424 0.647973
30 4 0.893416 0.296668 0.819417
1 1 0.337494 0.556437 0.880269
16 4 0.627051 0.688622 0.755648
18 4 0.14886 0.00294034 0.875875
19 4 0.822293 0.0696509 0.879682
17 2 0.985577 0.0362956 0.877779
5 3 0.39264 0.399251 0.885679
29 2 0.807595 0.406548 0.910734
4 3 0.18087 0.561635 0.933448
3 3 0.431677 0.651159 0.977959
ITEM: TIMESTEP
6000
ITEM: NUMBER OF ATOMS
31
ITEM: BOX BOUNDS pp pp pp
-3.0000000000000000e+00 3.0000000000000000e+00
-3.0000000000000000e+00 3.0000000000000000e+00
-3.0000000000000000e+00 3.0000000000000000e+00
ITEM: ATOMS id type xs ys zs
31 4 0.718203 0.518428 -0.00203208
20 2 0.338124 0.120191 0.230529
21 4 0.488281 0.0610426 0.18891
7 3 0.889627 0.0873442 0.240587
12 4 0.997596 0.498231 0.238363
9 3 0.648037 0.00963853 0.335696
6 1 0.791305 0.0829114 0.374313
22 4 0.187967 0.17934 0.272148
11 2 0.0955653 0.615858 0.30427
26 2 0.568761 0.620943 0.330241
13 4 0.193535 0.733484 0.370177
28 4 0.62736 0.753941 0.248659
8 3 0.761612 0.23704 0.42674
27 4 0.510162 0.487946 0.411824
10 3 0.8667 0.996761 0.495439
25 4 0.394278 0.262411 0.606772
15 4 0.934234 0.664705 0.621287
23 2 0.460669 0.110654 0.625206
2 3 0.34831 0.614168 0.726843
14 2 0.781788 0.67443 0.687947
24 4 0.52706 0.958897 0.64364
30 4 0.888623 0.292409 0.821946
16 4 0.629343 0.684156 0.754607
18 4 0.144646 -0.00253302 0.873928
19 4 0.819966 0.0727519 0.879052
17 2 0.982306 0.0351094 0.87649
5 3 0.391734 0.400268 0.888217
29 2 0.803413 0.405419 0.909957
4 3 0.180786 0.564297 0.933963
1 1 0.338017 0.557945 0.882736
3 3 0.431775 0.651471 0.981974
ITEM: TIMESTEP
6500
ITEM: NUMBER OF ATOMS
31
ITEM: BOX BOUNDS pp pp pp
-3.0000000000000000e+00 3.0000000000000000e+00
-3.0000000000000000e+00 3.0000000000000000e+00
-3.0000000000000000e+00 3.0000000000000000e+00
ITEM: ATOMS id type xs ys zs
31 4 0.715269 0.520996 -0.00598828
20 2 0.339565 0.117006 0.231432
21 4 0.488898 0.0548223 0.191302
7 3 0.888087 0.0893391 0.241018
12 4 1.00343 0.498554 0.234203
9 3 0.646585 0.0151204 0.339092
6 1 0.791457 0.0860837 0.376005
22 4 0.190231 0.179189 0.271563
11 2 0.097084 0.61631 0.305903
26 2 0.569369 0.6193 0.328559
13 4 0.190735 0.734067 0.377602
28 4 0.630611 0.750984 0.246788
8 3 0.764827 0.240519 0.429171
27 4 0.508126 0.487617 0.410331
10 3 0.867084 0.99848 0.495938
25 4 0.397951 0.266103 0.608101
15 4 0.936017 0.664789 0.61818
23 2 0.46341 0.113621 0.623661
2 3 0.351944 0.616043 0.729757
14 2 0.783766 0.671035 0.685696
24 4 0.52887 0.961139 0.63922
30 4 0.884003 0.288438 0.825024
16 4 0.631515 0.677281 0.753212
18 4 0.140663 -0.00784769 0.872753
19 4 0.818013 0.075676 0.878384
17 2 0.979338 0.0339142 0.875569
5 3 0.391674 0.401565 0.891316
29 2 0.799636 0.404717 0.909518
4 3 0.181067 0.566783 0.934268
1 1 0.338999 0.559577 0.885364
3 3 0.431839 0.652335 0.986175
ITEM: TIMESTEP
7000
ITEM: NUMBER OF ATOMS
31
ITEM: BOX BOUNDS pp pp pp
-3.0000000000000000e+00 3.0000000000000000e+00
-3.0000000000000000e+00 3.0000000000000000e+00
-3.0000000000000000e+00 3.0000000000000000e+00
ITEM: ATOMS id type xs ys zs
31 4 0.712404 0.522761 -0.0096902
20 2 0.340917 0.114096 0.231847
21 4 0.488641 0.0480427 0.191942
7 3 0.886783 0.0906633 0.241304
12 4 1.00967 0.499359 0.228969
9 3 0.644984 0.0215014 0.342298
6 1 0.791748 0.0894027 0.377452
22 4 0.193194 0.180149 0.271753
11 2 0.0985147 0.616605 0.307315
26 2 0.569307 0.61764 0.327119
13 4 0.187358 0.733851 0.385661
28 4 0.633849 0.747631 0.245177
8 3 0.769009 0.24435 0.430935
27 4 0.504766 0.487648 0.409061
10 3 0.866969 1.0002 0.496461
25 4 0.402644 0.270268 0.608887
15 4 0.936874 0.665381 0.614035
23 2 0.465978 0.116639 0.621716
2 3 0.355599 0.618138 0.732607
14 2 0.785148 0.667571 0.682973
24 4 0.529312 0.963009 0.634544
30 4 0.87902 0.284503 0.827266
16 4 0.633423 0.66976 0.751911
18 4 0.136627 -0.0139096 0.872659
19 4 0.816422 0.0786401 0.876414
17 2 0.976524 0.0323653 0.874536
5 3 0.392102 0.403653 0.894915
29 2 0.795712 0.403632 0.908788
4 3 0.181395 0.569591 0.934464
1 1 0.340046 0.561831 0.888033
3 3 0.431607 0.654362 0.990213
ITEM: TIMESTEP
7500
ITEM: NUMBER OF ATOMS
31
ITEM: BOX BOUNDS pp pp pp
-3.0000000000000000e+00 3.0000000000000000e+00
-3.0000000000000000e+00 3.0000000000000000e+00
-3.0000000000000000e+00 3.0000000000000000e+00
ITEM: ATOMS id type xs ys zs
20 2 0.341743 0.111822 0.231602
21 4 0.48773 0.0415866 0.192455
7 3 0.885422 0.0910603 0.240856
12 4 0.0155182 0.500979 0.223163
28 4 0.638263 0.744145 0.244007
9 3 0.643733 0.0278365 0.345925
22 4 0.195755 0.182057 0.270749
11 2 0.0999315 0.616822 0.308207
26 2 0.569486 0.61643 0.326082
6 1 0.792488 0.0926477 0.378444
10 3 0.867538 0.00244312 0.496801
8 3 0.774011 0.248349 0.431377
27 4 0.500709 0.488715 0.408157
13 4 0.184345 0.732665 0.393251
23 2 0.467897 0.119745 0.619659
25 4 0.407436 0.274761 0.610057
15 4 0.93811 0.665515 0.610103
2 3 0.35906 0.620379 0.734902
14 2 0.787002 0.663835 0.680396
24 4 0.528358 0.964728 0.629261
17 2 0.974052 0.0302336 0.873448
30 4 0.872592 0.278829 0.828909
16 4 0.635893 0.662155 0.75069
18 4 0.132616 0.978913 0.87221
19 4 0.815488 0.0815543 0.874686
5 3 0.393055 0.405837 0.897679
29 2 0.791137 0.40115 0.907523
4 3 0.181596 0.571592 0.933839
1 1 0.340995 0.563979 0.890021
31 4 0.709681 0.523472 0.986136
3 3 0.43079 0.656526 0.993742
ITEM: TIMESTEP
8000
ITEM: NUMBER OF ATOMS
31
ITEM: BOX BOUNDS pp pp pp
-3.0000000000000000e+00 3.0000000000000000e+00
-3.0000000000000000e+00 3.0000000000000000e+00
-3.0000000000000000e+00 3.0000000000000000e+00
ITEM: ATOMS id type xs ys zs
20 2 0.342868 0.110747 0.231055
21 4 0.486936 0.0367365 0.191754
7 3 0.884243 0.0910527 0.239899
12 4 0.0210887 0.502244 0.217166
28 4 0.643333 0.740633 0.242791
9 3 0.643094 0.0336603 0.349458
22 4 0.1988 0.184758 0.270357
11 2 0.101157 0.616335 0.308545
26 2 0.570259 0.615354 0.324908
6 1 0.79366 0.0956629 0.378978
10 3 0.86881 0.0048967 0.496842
8 3 0.779247 0.252134 0.430893
27 4 0.497184 0.490076 0.407025
13 4 0.181225 0.730426 0.399924
23 2 0.470245 0.123629 0.617406
25 4 0.412332 0.279759 0.610546
15 4 0.938873 0.665874 0.605875
2 3 0.362813 0.62248 0.736803
14 2 0.788593 0.660197 0.67772
24 4 0.528159 0.967498 0.624266
17 2 0.972226 0.0273139 0.872267
30 4 0.864996 0.273081 0.83013
16 4 0.638313 0.65452 0.749564
18 4 0.128897 0.970465 0.872337
19 4 0.815554 0.0841624 0.872196
5 3 0.394295 0.407942 0.90009
29 2 0.785868 0.398472 0.906247
4 3 0.182392 0.57379 0.933087
1 1 0.342422 0.566105 0.891643
31 4 0.706741 0.523863 0.982364
3 3 0.430705 0.658626 0.996676
ITEM: TIMESTEP
8500
ITEM: NUMBER OF ATOMS
31
ITEM: BOX BOUNDS pp pp pp
-3.0000000000000000e+00 3.0000000000000000e+00
-3.0000000000000000e+00 3.0000000000000000e+00
-3.0000000000000000e+00 3.0000000000000000e+00
ITEM: ATOMS id type xs ys zs
20 2 0.344276 0.109645 0.230728
21 4 0.486363 0.0323256 0.190594
7 3 0.882685 0.0905875 0.238466
12 4 0.0263955 0.502853 0.21165
28 4 0.64886 0.737204 0.241546
9 3 0.642256 0.0395769 0.352667
22 4 0.202189 0.186965 0.270862
11 2 0.102057 0.615277 0.308676
26 2 0.571587 0.614624 0.32389
6 1 0.794711 0.0982806 0.379075
10 3 0.869825 0.00663394 0.496278
8 3 0.784829 0.255408 0.430061
27 4 0.494313 0.492043 0.406234
13 4 0.177719 0.727701 0.405702
23 2 0.472852 0.127141 0.615
25 4 0.416262 0.283824 0.60992
15 4 0.939347 0.66595 0.602455
24 4 0.529441 0.970458 0.620081
2 3 0.36593 0.624823 0.738357
16 4 0.640268 0.647059 0.74842
14 2 0.789808 0.656505 0.675438
19 4 0.815974 0.0875537 0.869432
17 2 0.970259 0.0245239 0.870544
30 4 0.856831 0.268692 0.830541
18 4 0.124544 0.961494 0.871657
5 3 0.396046 0.410605 0.902321
29 2 0.77995 0.396516 0.904892
4 3 0.183247 0.575847 0.932466
1 1 0.343799 0.568596 0.893012
31 4 0.70307 0.524341 0.979244
3 3 0.430495 0.661531 0.998999
ITEM: TIMESTEP
9000
ITEM: NUMBER OF ATOMS
31
ITEM: BOX BOUNDS pp pp pp
-3.0000000000000000e+00 3.0000000000000000e+00
-3.0000000000000000e+00 3.0000000000000000e+00
-3.0000000000000000e+00 3.0000000000000000e+00
ITEM: ATOMS id type xs ys zs
20 2 0.345234 0.108378 0.230351
21 4 0.485654 0.029024 0.188366
7 3 0.881568 0.0893665 0.236744
12 4 0.0322784 0.503586 0.206552
28 4 0.655187 0.733976 0.240636
9 3 0.641454 0.0457279 0.354602
22 4 0.204813 0.187733 0.272335
11 2 0.103123 0.614817 0.308466
26 2 0.573435 0.614561 0.323306
6 1 0.795767 0.10054 0.378458
10 3 0.870012 0.00785886 0.495401
8 3 0.790778 0.258279 0.428253
27 4 0.491683 0.495145 0.405976
13 4 0.173968 0.726049 0.410379
23 2 0.475285 0.129724 0.612302
25 4 0.421082 0.287267 0.607832
15 4 0.939352 0.666149 0.598997
24 4 0.529487 0.972181 0.616772
2 3 0.368797 0.626429 0.739726
16 4 0.641486 0.639568 0.74624
14 2 0.790419 0.652858 0.672619
19 4 0.816735 0.0916128 0.865411
17 2 0.968359 0.0225148 0.8691
30 4 0.848151 0.264229 0.831448
18 4 0.119982 0.953417 0.87279
5 3 0.397044 0.413152 0.905242
29 2 0.773967 0.39494 0.903484
4 3 0.184013 0.578656 0.932138
1 1 0.344976 0.571109 0.894457
31 4 0.699783 0.525651 0.97552
3 3 0.430572 0.66462 1.00083
ITEM: TIMESTEP
9500
ITEM: NUMBER OF ATOMS
31
ITEM: BOX BOUNDS pp pp pp
-3.0000000000000000e+00 3.0000000000000000e+00
-3.0000000000000000e+00 3.0000000000000000e+00
-3.0000000000000000e+00 3.0000000000000000e+00
ITEM: ATOMS id type xs ys zs
20 2 0.345737 0.108035 0.229652
21 4 0.484235 0.0267236 0.185104
7 3 0.88151 0.0885892 0.234958
12 4 0.0375959 0.50542 0.201049
28 4 0.662185 0.730959 0.239516
9 3 0.641512 0.0521956 0.355483
22 4 0.207239 0.189347 0.2742
11 2 0.104199 0.614815 0.3077
26 2 0.575442 0.615351 0.322512
6 1 0.79748 0.10297 0.377441
10 3 0.87038 0.00905826 0.494248
8 3 0.797245 0.261098 0.426243
27 4 0.488699 0.499744 0.405507
13 4 0.170802 0.72421 0.414352
23 2 0.477294 0.132319 0.6098
25 4 0.425985 0.290834 0.605531
15 4 0.939286 0.665599 0.595565
24 4 0.528603 0.973804 0.614069
2 3 0.37178 0.627966 0.741373
16 4 0.642601 0.633004 0.743978
14 2 0.790944 0.649302 0.669772
19 4 0.81729 0.0960898 0.861086
17 2 0.965771 0.0206758 0.867703
30 4 0.838307 0.259765 0.833159
18 4 0.114252 0.945262 0.874321
5 3 0.398368 0.415902 0.908713
29 2 0.767175 0.393526 0.902628
4 3 0.184864 0.581343 0.932
1 1 0.346255 0.573718 0.896212
31 4 0.696043 0.527288 0.972096
3 3 0.430529 0.668081 1.00289
ITEM: TIMESTEP
10000
ITEM: NUMBER OF ATOMS
31
ITEM: BOX BOUNDS pp pp pp
-3.0000000000000000e+00 3.0000000000000000e+00
-3.0000000000000000e+00 3.0000000000000000e+00
-3.0000000000000000e+00 3.0000000000000000e+00
ITEM: ATOMS id type xs ys zs
3 3 0.431131 0.671484 0.00547664
20 2 0.346433 0.107993 0.228606
21 4 0.482399 0.0241181 0.181111
7 3 0.880955 0.0874659 0.232406
12 4 0.0446084 0.506358 0.19489
28 4 0.66936 0.72843 0.239254
9 3 0.641656 0.0581322 0.356202
22 4 0.210466 0.191868 0.276101
11 2 0.106175 0.614254 0.306
26 2 0.578039 0.616251 0.322045
6 1 0.79912 0.105113 0.375797
10 3 0.871097 0.0103251 0.492469
8 3 0.803492 0.263583 0.423279
27 4 0.486718 0.504073 0.404835
13 4 0.167743 0.722151 0.417111
23 2 0.479451 0.134711 0.607344
25 4 0.431532 0.294313 0.604408
15 4 0.939577 0.66439 0.592966
24 4 0.527371 0.975109 0.61028
2 3 0.374931 0.630444 0.743547
16 4 0.643378 0.627481 0.741341
14 2 0.791478 0.645935 0.667154
19 4 0.818185 0.099311 0.85665
17 2 0.963498 0.0183296 0.866849
30 4 0.827208 0.255624 0.835119
5 3 0.400044 0.418966 0.911853
29 2 0.76001 0.392616 0.902168
4 3 0.186217 0.584338 0.932521
1 1 0.347951 0.576702 0.898315
31 4 0.692813 0.529607 0.969218
18 4 0.10881 0.937348 0.877048
ITEM: TIMESTEP
10500
ITEM: NUMBER OF ATOMS
31
ITEM: BOX BOUNDS pp pp pp
-3.0000000000000000e+00 3.0000000000000000e+00
-3.0000000000000000e+00 3.0000000000000000e+00
-3.0000000000000000e+00 3.0000000000000000e+00
ITEM: ATOMS id type xs ys zs
3 3 0.432959 0.675246 0.00838157
20 2 0.346741 0.1074 0.227892
21 4 0.480106 0.0209595 0.177698
7 3 0.880626 0.0866992 0.22942
12 4 0.0518312 0.506905 0.189472
28 4 0.675591 0.726807 0.239118
9 3 0.642109 0.0645567 0.356185
22 4 0.213376 0.193841 0.278086
11 2 0.108511 0.613213 0.304641
26 2 0.580476 0.617408 0.321354
6 1 0.801056 0.107159 0.373709
10 3 0.871745 0.0108041 0.489884
8 3 0.81045 0.265613 0.420509
27 4 0.485361 0.508008 0.403589
13 4 0.165191 0.719522 0.419809
23 2 0.481707 0.136916 0.6056
25 4 0.438118 0.297773 0.603993
15 4 0.939939 0.662225 0.590794
24 4 0.525297 0.976058 0.607207
2 3 0.378502 0.633468 0.7462
16 4 0.643917 0.622128 0.738692
14 2 0.791928 0.642177 0.664743
19 4 0.820079 0.103117 0.850465
17 2 0.961786 0.01671 0.865662
30 4 0.816898 0.252265 0.836751
5 3 0.401415 0.422518 0.91548
29 2 0.753384 0.392066 0.901555
4 3 0.188195 0.588932 0.933949
1 1 0.35014 0.580436 0.900966
31 4 0.68987 0.531866 0.966358
18 4 0.103492 0.930303 0.880858
ITEM: TIMESTEP
11000
ITEM: NUMBER OF ATOMS
31
ITEM: BOX BOUNDS pp pp pp
-3.0000000000000000e+00 3.0000000000000000e+00
-3.0000000000000000e+00 3.0000000000000000e+00
-3.0000000000000000e+00 3.0000000000000000e+00
ITEM: ATOMS id type xs ys zs
3 3 0.434827 0.679301 0.0116911
20 2 0.346973 0.106326 0.227518
21 4 0.477051 0.0163461 0.174972
7 3 0.880555 0.0864101 0.226368
12 4 0.059006 0.508714 0.184056
28 4 0.682542 0.724634 0.24006
9 3 0.642847 0.0708161 0.355603
6 1 0.803014 0.109329 0.371391
22 4 0.216895 0.196307 0.280063
11 2 0.111662 0.612899 0.303013
26 2 0.582883 0.618169 0.32075
10 3 0.872361 0.0114956 0.487138
8 3 0.816988 0.267615 0.417611
27 4 0.483223 0.511703 0.40144
13 4 0.164318 0.717083 0.421969
23 2 0.483771 0.139686 0.604608
25 4 0.445284 0.301848 0.604425
15 4 0.940027 0.659413 0.58795
24 4 0.522257 0.977524 0.60479
16 4 0.644801 0.616094 0.736531
2 3 0.38283 0.637951 0.748943
14 2 0.792414 0.637754 0.662241
19 4 0.821467 0.106598 0.843737
17 2 0.959316 0.0152047 0.864297
30 4 0.807473 0.249596 0.838577
5 3 0.402967 0.426789 0.918311
29 2 0.746832 0.391537 0.90145
4 3 0.190404 0.594255 0.93472
1 1 0.352631 0.584969 0.903379
31 4 0.68619 0.533478 0.964323
18 4 0.097165 0.923812 0.884857
ITEM: TIMESTEP
11500
ITEM: NUMBER OF ATOMS
31
ITEM: BOX BOUNDS pp pp pp
-3.0000000000000000e+00 3.0000000000000000e+00
-3.0000000000000000e+00 3.0000000000000000e+00
-3.0000000000000000e+00 3.0000000000000000e+00
ITEM: ATOMS id type xs ys zs
3 3 0.436483 0.683412 0.0141054
20 2 0.347746 0.105143 0.228343
21 4 0.474432 0.0123327 0.172534
7 3 0.880231 0.0868329 0.223214
12 4 0.0666326 0.510895 0.178004
28 4 0.690092 0.722292 0.242103
9 3 0.643768 0.0771876 0.355283
6 1 0.805036 0.111626 0.369161
22 4 0.22106 0.197954 0.284151
11 2 0.114951 0.612638 0.300852
26 2 0.58531 0.618973 0.320356
10 3 0.873264 0.0120041 0.484045
8 3 0.823564 0.269482 0.415251
27 4 0.480527 0.515654 0.398609
13 4 0.163269 0.71438 0.4237
23 2 0.486071 0.142594 0.603517
25 4 0.452844 0.305903 0.605462
15 4 0.94018 0.657485 0.584759
24 4 0.519297 0.979284 0.601572
16 4 0.646295 0.609445 0.734542
2 3 0.388038 0.641488 0.75077
14 2 0.793238 0.633465 0.65965
19 4 0.822823 0.109994 0.837484
17 2 0.95678 0.0141932 0.863089
30 4 0.798882 0.246758 0.84195
5 3 0.404751 0.430763 0.921053
29 2 0.74124 0.391071 0.902191
4 3 0.192778 0.599284 0.933915
1 1 0.355389 0.589132 0.904921
31 4 0.683599 0.535384 0.962432
18 4 0.0907369 0.918393 0.888693
ITEM: TIMESTEP
12000
ITEM: NUMBER OF ATOMS
31
ITEM: BOX BOUNDS pp pp pp
-3.0000000000000000e+00 3.0000000000000000e+00
-3.0000000000000000e+00 3.0000000000000000e+00
-3.0000000000000000e+00 3.0000000000000000e+00
ITEM: ATOMS id type xs ys zs
3 3 0.439285 0.687169 0.0156482
20 2 0.348451 0.104643 0.229662
21 4 0.471701 0.00906176 0.170911
7 3 0.880473 0.0872303 0.220322
12 4 0.0741291 0.513245 0.172682
28 4 0.696812 0.718923 0.243363
9 3 0.64469 0.0829197 0.353879
6 1 0.806807 0.113539 0.366783
22 4 0.225202 0.200224 0.288412
11 2 0.118252 0.612204 0.299323
26 2 0.586852 0.619457 0.319474
10 3 0.873402 0.0121518 0.481079
8 3 0.829329 0.270839 0.412993