ITEM: TIMESTEP
0
ITEM: NUMBER OF ATOMS
6
ITEM: BOX BOUNDS pp pp pp
-1.2000000000000000e+00 1.2000000000000000e+00
-1.2000000000000000e+00 1.2000000000000000e+00
-1.2000000000000000e+00 1.2000000000000000e+00
ITEM: ATOMS id type xs ys zs
2 4 0.350372 0.314056 0.0211319
1 2 0.496309 0.457729 0.0593856
3 4 0.642245 0.601403 0.0976393
5 4 0.0691331 0.0924237 0.488645
4 2 0.877499 0.118377 0.566139
6 4 0.685864 0.144331 0.643633
ITEM: TIMESTEP
500
ITEM: NUMBER OF ATOMS
6
ITEM: BOX BOUNDS pp pp pp
-1.2000000000000000e+00 1.2000000000000000e+00
-1.2000000000000000e+00 1.2000000000000000e+00
-1.2000000000000000e+00 1.2000000000000000e+00
ITEM: ATOMS id type xs ys zs
2 4 0.350457 0.314066 0.0215504
1 2 0.496604 0.457606 0.0594995
3 4 0.642752 0.601145 0.0974487
5 4 0.0685481 0.0921805 0.488875
4 2 0.877017 0.118671 0.566443
6 4 0.685485 0.145161 0.64401
ITEM: TIMESTEP
1000
ITEM: NUMBER OF ATOMS
6
ITEM: BOX BOUNDS pp pp pp
-1.2000000000000000e+00 1.2000000000000000e+00
-1.2000000000000000e+00 1.2000000000000000e+00
-1.2000000000000000e+00 1.2000000000000000e+00
ITEM: ATOMS id type xs ys zs
2 4 0.349952 0.31423 0.0216405
1 2 0.496459 0.457457 0.0593819
3 4 0.642966 0.600684 0.0971233
5 4 0.0673926 0.0913314 0.489426
4 2 0.876208 0.119542 0.567242
6 4 0.685024 0.147753 0.645059
ITEM: TIMESTEP
1500
ITEM: NUMBER OF ATOMS
6
ITEM: BOX BOUNDS pp pp pp
-1.2000000000000000e+00 1.2000000000000000e+00
-1.2000000000000000e+00 1.2000000000000000e+00
-1.2000000000000000e+00 1.2000000000000000e+00
ITEM: ATOMS id type xs ys zs
2 4 0.349098 0.314569 0.0215912
1 2 0.496067 0.457395 0.0590563
3 4 0.643036 0.600221 0.0965214
5 4 0.0656619 0.0902782 0.489852
4 2 0.875073 0.120676 0.568304
6 4 0.684485 0.151074 0.646757
ITEM: TIMESTEP
2000
ITEM: NUMBER OF ATOMS
6
ITEM: BOX BOUNDS pp pp pp
-1.2000000000000000e+00 1.2000000000000000e+00
-1.2000000000000000e+00 1.2000000000000000e+00
-1.2000000000000000e+00 1.2000000000000000e+00
ITEM: ATOMS id type xs ys zs
2 4 0.348687 0.315176 0.0220632
1 2 0.495867 0.457945 0.0589151
3 4 0.643047 0.600713 0.095767
5 4 0.0629639 0.0883233 0.489721
4 2 0.873185 0.121108 0.569169
6 4 0.683406 0.153893 0.648617
ITEM: TIMESTEP
2500
ITEM: NUMBER OF ATOMS
6
ITEM: BOX BOUNDS pp pp pp
-1.2000000000000000e+00 1.2000000000000000e+00
-1.2000000000000000e+00 1.2000000000000000e+00
-1.2000000000000000e+00 1.2000000000000000e+00
ITEM: ATOMS id type xs ys zs
2 4 0.347882 0.315693 0.0231118
1 2 0.495061 0.458604 0.0594137
3 4 0.64224 0.601514 0.0957155
5 4 0.0596568 0.0861451 0.489195
4 2 0.870861 0.120931 0.57012
6 4 0.682065 0.155717 0.651045
ITEM: TIMESTEP
3000
ITEM: NUMBER OF ATOMS
6
ITEM: BOX BOUNDS pp pp pp
-1.2000000000000000e+00 1.2000000000000000e+00
-1.2000000000000000e+00 1.2000000000000000e+00
-1.2000000000000000e+00 1.2000000000000000e+00
ITEM: ATOMS id type xs ys zs
2 4 0.34697 0.31611 0.0246794
1 2 0.493678 0.459777 0.0598859
3 4 0.640385 0.603444 0.0950923
5 4 0.0549545 0.082831 0.487306
4 2 0.867885 0.120365 0.570966
6 4 0.680815 0.157898 0.654626
ITEM: TIMESTEP
3500
ITEM: NUMBER OF ATOMS
6
ITEM: BOX BOUNDS pp pp pp
-1.2000000000000000e+00 1.2000000000000000e+00
-1.2000000000000000e+00 1.2000000000000000e+00
-1.2000000000000000e+00 1.2000000000000000e+00
ITEM: ATOMS id type xs ys zs
2 4 0.346795 0.316129 0.0258168
1 2 0.492363 0.461166 0.0601231
3 4 0.637931 0.606204 0.0944293
5 4 0.0502787 0.0796831 0.484902
4 2 0.865198 0.11956 0.571838
6 4 0.680118 0.159437 0.658773
ITEM: TIMESTEP
4000
ITEM: NUMBER OF ATOMS
6
ITEM: BOX BOUNDS pp pp pp
-1.2000000000000000e+00 1.2000000000000000e+00
-1.2000000000000000e+00 1.2000000000000000e+00
-1.2000000000000000e+00 1.2000000000000000e+00
ITEM: ATOMS id type xs ys zs
2 4 0.347499 0.315718 0.0271828
1 2 0.491777 0.462259 0.0605332
3 4 0.636056 0.6088 0.0938836
5 4 0.0457812 0.0773567 0.48161
4 2 0.86274 0.118953 0.571991
6 4 0.6797 0.160549 0.662371
ITEM: TIMESTEP
4500
ITEM: NUMBER OF ATOMS
6
ITEM: BOX BOUNDS pp pp pp
-1.2000000000000000e+00 1.2000000000000000e+00
-1.2000000000000000e+00 1.2000000000000000e+00
-1.2000000000000000e+00 1.2000000000000000e+00
ITEM: ATOMS id type xs ys zs
2 4 0.348843 0.315137 0.0284369
1 2 0.491562 0.463408 0.0608373
3 4 0.634281 0.611679 0.0932377
5 4 0.0417058 0.0745057 0.479495
4 2 0.860438 0.118225 0.572411
6 4 0.67917 0.161944 0.665327
ITEM: TIMESTEP
5000
ITEM: NUMBER OF ATOMS
6
ITEM: BOX BOUNDS pp pp pp
-1.2000000000000000e+00 1.2000000000000000e+00
-1.2000000000000000e+00 1.2000000000000000e+00
-1.2000000000000000e+00 1.2000000000000000e+00
ITEM: ATOMS id type xs ys zs
2 4 0.349863 0.315 0.029086
1 2 0.491001 0.464916 0.0608342
3 4 0.63214 0.614831 0.0925823
5 4 0.038236 0.0718837 0.477929
4 2 0.858408 0.117148 0.572881
6 4 0.67858 0.162412 0.667832
ITEM: TIMESTEP
5500
ITEM: NUMBER OF ATOMS
6
ITEM: BOX BOUNDS pp pp pp
-1.2000000000000000e+00 1.2000000000000000e+00
-1.2000000000000000e+00 1.2000000000000000e+00
-1.2000000000000000e+00 1.2000000000000000e+00
ITEM: ATOMS id type xs ys zs
2 4 0.351432 0.314264 0.0294033
1 2 0.490297 0.4664 0.0606093
3 4 0.629163 0.618536 0.0918153
5 4 0.0347287 0.0687783 0.475885
4 2 0.856431 0.11572 0.572886
6 4 0.678133 0.162662 0.669887
ITEM: TIMESTEP
6000
ITEM: NUMBER OF ATOMS
6
ITEM: BOX BOUNDS pp pp pp
-1.2000000000000000e+00 1.2000000000000000e+00
-1.2000000000000000e+00 1.2000000000000000e+00
-1.2000000000000000e+00 1.2000000000000000e+00
ITEM: ATOMS id type xs ys zs
2 4 0.352628 0.31415 0.0282938
1 2 0.489431 0.468013 0.0601374
3 4 0.626233 0.621876 0.0919809
5 4 0.0314032 0.0650485 0.473489
4 2 0.854642 0.114214 0.572186
6 4 0.677881 0.16338 0.670883
ITEM: TIMESTEP
6500
ITEM: NUMBER OF ATOMS
6
ITEM: BOX BOUNDS pp pp pp
-1.2000000000000000e+00 1.2000000000000000e+00
-1.2000000000000000e+00 1.2000000000000000e+00
-1.2000000000000000e+00 1.2000000000000000e+00
ITEM: ATOMS id type xs ys zs
2 4 0.353924 0.313737 0.0266153
1 2 0.488603 0.469269 0.059392
3 4 0.623281 0.624801 0.0921688
5 4 0.0276191 0.0605706 0.471574
4 2 0.852475 0.112235 0.571864
6 4 0.677331 0.163899 0.672154
ITEM: TIMESTEP
7000
ITEM: NUMBER OF ATOMS
6
ITEM: BOX BOUNDS pp pp pp
-1.2000000000000000e+00 1.2000000000000000e+00
-1.2000000000000000e+00 1.2000000000000000e+00
-1.2000000000000000e+00 1.2000000000000000e+00
ITEM: ATOMS id type xs ys zs
2 4 0.356071 0.313147 0.0257955
1 2 0.488201 0.470801 0.058802
3 4 0.620331 0.628456 0.0918085
5 4 0.0244662 0.0564158 0.470427
4 2 0.850617 0.109838 0.572041
6 4 0.676769 0.163261 0.673655
ITEM: TIMESTEP
7500
ITEM: NUMBER OF ATOMS
6
ITEM: BOX BOUNDS pp pp pp
-1.2000000000000000e+00 1.2000000000000000e+00
-1.2000000000000000e+00 1.2000000000000000e+00
-1.2000000000000000e+00 1.2000000000000000e+00
ITEM: ATOMS id type xs ys zs
2 4 0.358065 0.312949 0.0257198
1 2 0.487762 0.472747 0.0580631
3 4 0.617459 0.632545 0.0904064
5 4 0.0220643 0.0527687 0.470014
4 2 0.849255 0.10749 0.572704
6 4 0.676445 0.162212 0.675394
ITEM: TIMESTEP
8000
ITEM: NUMBER OF ATOMS
6
ITEM: BOX BOUNDS pp pp pp
-1.2000000000000000e+00 1.2000000000000000e+00
-1.2000000000000000e+00 1.2000000000000000e+00
-1.2000000000000000e+00 1.2000000000000000e+00
ITEM: ATOMS id type xs ys zs
2 4 0.360023 0.313038 0.026706
1 2 0.487705 0.474699 0.0577858
3 4 0.615387 0.63636 0.0888656
5 4 0.019894 0.0501596 0.468293
4 2 0.848169 0.105352 0.572538
6 4 0.676443 0.160545 0.676782
ITEM: TIMESTEP
8500
ITEM: NUMBER OF ATOMS
6
ITEM: BOX BOUNDS pp pp pp
-1.2000000000000000e+00 1.2000000000000000e+00
-1.2000000000000000e+00 1.2000000000000000e+00
-1.2000000000000000e+00 1.2000000000000000e+00
ITEM: ATOMS id type xs ys zs
2 4 0.361922 0.313074 0.0294175
1 2 0.487683 0.476588 0.0585709
3 4 0.613444 0.640103 0.0877243
5 4 0.017991 0.048361 0.466343
4 2 0.847341 0.103399 0.57242
6 4 0.676692 0.158436 0.678497
ITEM: TIMESTEP
9000
ITEM: NUMBER OF ATOMS
6
ITEM: BOX BOUNDS pp pp pp
-1.2000000000000000e+00 1.2000000000000000e+00
-1.2000000000000000e+00 1.2000000000000000e+00
-1.2000000000000000e+00 1.2000000000000000e+00
ITEM: ATOMS id type xs ys zs
2 4 0.363464 0.312463 0.0341352
1 2 0.487265 0.477981 0.0602088
3 4 0.611067 0.643499 0.0862824
5 4 0.0163429 0.0466605 0.464758
4 2 0.8465 0.101321 0.572314
6 4 0.676657 0.155981 0.67987
ITEM: TIMESTEP
9500
ITEM: NUMBER OF ATOMS
6
ITEM: BOX BOUNDS pp pp pp
-1.2000000000000000e+00 1.2000000000000000e+00
-1.2000000000000000e+00 1.2000000000000000e+00
-1.2000000000000000e+00 1.2000000000000000e+00
ITEM: ATOMS id type xs ys zs
2 4 0.36466 0.312052 0.0399326
1 2 0.486964 0.479249 0.0620625
3 4 0.609268 0.646446 0.0841924
5 4 0.0149614 0.0454538 0.463581
4 2 0.84535 0.0991395 0.57199
6 4 0.675739 0.152825 0.680399
ITEM: TIMESTEP
10000
ITEM: NUMBER OF ATOMS
6
ITEM: BOX BOUNDS pp pp pp
-1.2000000000000000e+00 1.2000000000000000e+00
-1.2000000000000000e+00 1.2000000000000000e+00
-1.2000000000000000e+00 1.2000000000000000e+00
ITEM: ATOMS id type xs ys zs
2 4 0.365599 0.311419 0.0465322
1 2 0.486391 0.480263 0.0639645
3 4 0.607183 0.649106 0.0813968
5 4 0.013689 0.0449132 0.463105
4 2 0.843925 0.0969258 0.57209
6 4 0.674161 0.148939 0.681074
ITEM: TIMESTEP
10500
ITEM: NUMBER OF ATOMS
6
ITEM: BOX BOUNDS pp pp pp
-1.2000000000000000e+00 1.2000000000000000e+00
-1.2000000000000000e+00 1.2000000000000000e+00
-1.2000000000000000e+00 1.2000000000000000e+00
ITEM: ATOMS id type xs ys zs
2 4 0.366514 0.31104 0.0535238
1 2 0.485618 0.481535 0.0657127
3 4 0.604722 0.65203 0.0779016
5 4 0.0125485 0.0448351 0.463095
4 2 0.842448 0.0948761 0.572478
6 4 0.672348 0.144917 0.68186
ITEM: TIMESTEP
11000
ITEM: NUMBER OF ATOMS
6
ITEM: BOX BOUNDS pp pp pp
-1.2000000000000000e+00 1.2000000000000000e+00
-1.2000000000000000e+00 1.2000000000000000e+00
-1.2000000000000000e+00 1.2000000000000000e+00
ITEM: ATOMS id type xs ys zs
2 4 0.36761 0.310745 0.0615139
1 2 0.485056 0.482681 0.0683902
3 4 0.602502 0.654617 0.0752664
5 4 0.0111063 0.0452042 0.462768
4 2 0.840712 0.0927534 0.572803
6 4 0.670319 0.140303 0.682839
ITEM: TIMESTEP
11500
ITEM: NUMBER OF ATOMS
6
ITEM: BOX BOUNDS pp pp pp
-1.2000000000000000e+00 1.2000000000000000e+00
-1.2000000000000000e+00 1.2000000000000000e+00
-1.2000000000000000e+00 1.2000000000000000e+00
ITEM: ATOMS id type xs ys zs
2 4 0.369291 0.310439 0.0703522
1 2 0.485282 0.483494 0.0713091
3 4 0.601273 0.656549 0.0722659
5 4 0.00990193 0.0455573 0.461853
4 2 0.839276 0.090184 0.57275
6 4 0.66865 0.134811 0.683647
ITEM: TIMESTEP
12000
ITEM: NUMBER OF ATOMS
6
ITEM: BOX BOUNDS pp pp pp
-1.2000000000000000e+00 1.2000000000000000e+00
-1.2000000000000000e+00 1.2000000000000000e+00
-1.2000000000000000e+00 1.2000000000000000e+00
ITEM: ATOMS id type xs ys zs
2 4 0.370594 0.310945 0.0788625
1 2 0.485333 0.48477 0.0741037
3 4 0.600072 0.658595 0.069345
5 4 0.00831059 0.0458878 0.460398
4 2 0.837858 0.0877052 0.572647
6 4 0.667404 0.129523 0.684896
ITEM: TIMESTEP
12500
ITEM: NUMBER OF ATOMS
6
ITEM: BOX BOUNDS pp pp pp
-1.2000000000000000e+00 1.2000000000000000e+00
-1.2000000000000000e+00 1.2000000000000000e+00
-1.2000000000000000e+00 1.2000000000000000e+00
ITEM: ATOMS id type xs ys zs
2 4 0.372295 0.311422 0.0879589
1 2 0.48502 0.486286 0.0770678
3 4 0.597744 0.66115 0.0661766
5 4 0.00626701 0.046242 0.458737
4 2 0.836172 0.0858373 0.572327
6 4 0.666078 0.125433 0.685918
ITEM: TIMESTEP
13000
ITEM: NUMBER OF ATOMS
6
ITEM: BOX BOUNDS pp pp pp
-1.2000000000000000e+00 1.2000000000000000e+00
-1.2000000000000000e+00 1.2000000000000000e+00
-1.2000000000000000e+00 1.2000000000000000e+00
ITEM: ATOMS id type xs ys zs
2 4 0.374289 0.311319 0.0985569
1 2 0.484522 0.487169 0.0804333
3 4 0.594754 0.663019 0.0623096
5 4 0.00362309 0.0468672 0.456968
4 2 0.833895 0.0841122 0.571894
6 4 0.664167 0.121357 0.68682
ITEM: TIMESTEP
13500
ITEM: NUMBER OF ATOMS
6
ITEM: BOX BOUNDS pp pp pp
-1.2000000000000000e+00 1.2000000000000000e+00
-1.2000000000000000e+00 1.2000000000000000e+00
-1.2000000000000000e+00 1.2000000000000000e+00
ITEM: ATOMS id type xs ys zs
2 4 0.375573 0.311439 0.110571
1 2 0.483542 0.487595 0.083843
3 4 0.591511 0.663752 0.0571151
5 4 0.000557878 0.0488094 0.455077
4 2 0.831485 0.0825901 0.572021
6 4 0.662411 0.116371 0.688964
ITEM: TIMESTEP
14000
ITEM: NUMBER OF ATOMS
6
ITEM: BOX BOUNDS pp pp pp
-1.2000000000000000e+00 1.2000000000000000e+00
-1.2000000000000000e+00 1.2000000000000000e+00
-1.2000000000000000e+00 1.2000000000000000e+00
ITEM: ATOMS id type xs ys zs
2 4 0.37622 0.312646 0.123132
1 2 0.482075 0.488395 0.086941
3 4 0.58793 0.664144 0.0507497
5 4 -0.00343799 0.0507271 0.45205
4 2 0.82876 0.0813225 0.571671
6 4 0.660957 0.111918 0.691291
ITEM: TIMESTEP
14500
ITEM: NUMBER OF ATOMS
6
ITEM: BOX BOUNDS pp pp pp
-1.2000000000000000e+00 1.2000000000000000e+00
-1.2000000000000000e+00 1.2000000000000000e+00
-1.2000000000000000e+00 1.2000000000000000e+00
ITEM: ATOMS id type xs ys zs
2 4 0.376671 0.314506 0.135127
1 2 0.480568 0.489219 0.0894839
3 4 0.584466 0.663933 0.0438406
5 4 -0.00793108 0.0530414 0.44835
4 2 0.826031 0.0799381 0.571275
6 4 0.659993 0.106835 0.694201
ITEM: TIMESTEP
15000
ITEM: NUMBER OF ATOMS
6
ITEM: BOX BOUNDS pp pp pp
-1.2000000000000000e+00 1.2000000000000000e+00
-1.2000000000000000e+00 1.2000000000000000e+00
-1.2000000000000000e+00 1.2000000000000000e+00
ITEM: ATOMS id type xs ys zs
2 4 0.377843 0.316649 0.147918
1 2 0.479607 0.489637 0.0920423
3 4 0.581371 0.662624 0.0361666
5 4 -0.01217 0.0555367 0.444937
4 2 0.8235 0.0787113 0.570879
6 4 0.659171 0.101886 0.696821
ITEM: TIMESTEP
15500
ITEM: NUMBER OF ATOMS
6
ITEM: BOX BOUNDS pp pp pp
-1.2000000000000000e+00 1.2000000000000000e+00
-1.2000000000000000e+00 1.2000000000000000e+00
-1.2000000000000000e+00 1.2000000000000000e+00
ITEM: ATOMS id type xs ys zs
2 4 0.380147 0.318735 0.16088
1 2 0.478922 0.489877 0.0948783
3 4 0.577698 0.66102 0.0288767
5 4 0.983542 0.0583836 0.442219
4 2 0.820442 0.0770699 0.570485
6 4 0.657342 0.0957562 0.69875
ITEM: TIMESTEP
16000
ITEM: NUMBER OF ATOMS
6
ITEM: BOX BOUNDS pp pp pp
-1.2000000000000000e+00 1.2000000000000000e+00
-1.2000000000000000e+00 1.2000000000000000e+00
-1.2000000000000000e+00 1.2000000000000000e+00
ITEM: ATOMS id type xs ys zs
2 4 0.382281 0.322059 0.173664
1 2 0.47827 0.490615 0.0976527
3 4 0.574258 0.659171 0.0216412
5 4 0.978813 0.0622289 0.43992
4 2 0.816534 0.0755285 0.569888
6 4 0.654255 0.088828 0.699855
ITEM: TIMESTEP
16500
ITEM: NUMBER OF ATOMS
6
ITEM: BOX BOUNDS pp pp pp
-1.2000000000000000e+00 1.2000000000000000e+00
-1.2000000000000000e+00 1.2000000000000000e+00
-1.2000000000000000e+00 1.2000000000000000e+00
ITEM: ATOMS id type xs ys zs
2 4 0.384958 0.32595 0.186631
1 2 0.477649 0.491295 0.100187
3 4 0.570339 0.656639 0.0137441
5 4 0.973648 0.0666248 0.437656
4 2 0.812617 0.0741698 0.569622
6 4 0.651586 0.0817148 0.701587
ITEM: TIMESTEP
17000
ITEM: NUMBER OF ATOMS
6
ITEM: BOX BOUNDS pp pp pp
-1.2000000000000000e+00 1.2000000000000000e+00
-1.2000000000000000e+00 1.2000000000000000e+00
-1.2000000000000000e+00 1.2000000000000000e+00
ITEM: ATOMS id type xs ys zs
2 4 0.387992 0.329827 0.197717
1 2 0.477175 0.49214 0.102303
3 4 0.566358 0.654452 0.00688893
5 4 0.96774 0.0709649 0.435292
4 2 0.808482 0.0730784 0.569588
6 4 0.649225 0.0751919 0.703884
ITEM: TIMESTEP
17500
ITEM: NUMBER OF ATOMS
6
ITEM: BOX BOUNDS pp pp pp
-1.2000000000000000e+00 1.2000000000000000e+00
-1.2000000000000000e+00 1.2000000000000000e+00
-1.2000000000000000e+00 1.2000000000000000e+00
ITEM: ATOMS id type xs ys zs
2 4 0.391688 0.33354 0.209049
1 2 0.476692 0.492803 0.105066
3 4 0.561696 0.652066 0.00108347
5 4 0.961783 0.0762593 0.432737
4 2 0.804358 0.0724569 0.56914
6 4 0.646933 0.0686545 0.705543
ITEM: TIMESTEP
18000
ITEM: NUMBER OF ATOMS
6
ITEM: BOX BOUNDS pp pp pp
-1.2000000000000000e+00 1.2000000000000000e+00
-1.2000000000000000e+00 1.2000000000000000e+00
-1.2000000000000000e+00 1.2000000000000000e+00
ITEM: ATOMS id type xs ys zs
2 4 0.396459 0.337689 0.220427
1 2 0.477256 0.493694 0.108459
3 4 0.558054 0.6497 -0.00350901
5 4 0.955449 0.081555 0.429315
4 2 0.800371 0.0715091 0.568069
6 4 0.645293 0.0614632 0.706823
ITEM: TIMESTEP
18500
ITEM: NUMBER OF ATOMS
6
ITEM: BOX BOUNDS pp pp pp
-1.2000000000000000e+00 1.2000000000000000e+00
-1.2000000000000000e+00 1.2000000000000000e+00
-1.2000000000000000e+00 1.2000000000000000e+00
ITEM: ATOMS id type xs ys zs
2 4 0.402039 0.34171 0.231118
1 2 0.4785 0.494513 0.111922
3 4 0.55496 0.647316 -0.00727481
5 4 0.948713 0.0860217 0.425486
4 2 0.796435 0.070579 0.566821
6 4 0.644157 0.0551362 0.708157
ITEM: TIMESTEP
19000
ITEM: NUMBER OF ATOMS
6
ITEM: BOX BOUNDS pp pp pp
-1.2000000000000000e+00 1.2000000000000000e+00
-1.2000000000000000e+00 1.2000000000000000e+00
-1.2000000000000000e+00 1.2000000000000000e+00
ITEM: ATOMS id type xs ys zs
2 4 0.408544 0.345839 0.241586
1 2 0.48054 0.495501 0.115805
3 4 0.552536 0.645163 -0.00997523
5 4 0.940921 0.090136 0.421099
4 2 0.792126 0.0693123 0.565422
6 4 0.643331 0.0484886 0.709745
ITEM: TIMESTEP
19500
ITEM: NUMBER OF ATOMS
6
ITEM: BOX BOUNDS pp pp pp
-1.2000000000000000e+00 1.2000000000000000e+00
-1.2000000000000000e+00 1.2000000000000000e+00
-1.2000000000000000e+00 1.2000000000000000e+00
ITEM: ATOMS id type xs ys zs
2 4 0.416643 0.349438 0.251406
1 2 0.483154 0.496431 0.119603
3 4 0.549665 0.643423 -0.0122012
5 4 0.932231 0.0947914 0.416138
4 2 0.787756 0.0684683 0.563911
6 4 0.643282 0.0421452 0.711684
ITEM: TIMESTEP
20000
ITEM: NUMBER OF ATOMS
6
ITEM: BOX BOUNDS pp pp pp
-1.2000000000000000e+00 1.2000000000000000e+00
-1.2000000000000000e+00 1.2000000000000000e+00
-1.2000000000000000e+00 1.2000000000000000e+00
ITEM: ATOMS id type xs ys zs
2 4 0.424588 0.353272 0.261503
1 2 0.485595 0.496803 0.123373
5 4 0.922878 0.099363 0.41169
4 2 0.783181 0.0675552 0.562937
6 4 0.643484 0.0357473 0.714185
3 4 0.546602 0.640333 0.985243
ITEM: TIMESTEP
20500
ITEM: NUMBER OF ATOMS
6
ITEM: BOX BOUNDS pp pp pp
-1.2000000000000000e+00 1.2000000000000000e+00
-1.2000000000000000e+00 1.2000000000000000e+00
-1.2000000000000000e+00 1.2000000000000000e+00
ITEM: ATOMS id type xs ys zs
2 4 0.432439 0.357018 0.271023
1 2 0.487624 0.4968 0.126737
5 4 0.912331 0.104033 0.407351
4 2 0.77865 0.0665049 0.562669
6 4 0.644969 0.0289774 0.717988
3 4 0.542809 0.636581 0.982451
ITEM: TIMESTEP
21000
ITEM: NUMBER OF ATOMS
6
ITEM: BOX BOUNDS pp pp pp
-1.2000000000000000e+00 1.2000000000000000e+00
-1.2000000000000000e+00 1.2000000000000000e+00
-1.2000000000000000e+00 1.2000000000000000e+00
ITEM: ATOMS id type xs ys zs
2 4 0.439906 0.360302 0.279875
1 2 0.489315 0.496008 0.129724
5 4 0.900976 0.107992 0.402263
4 2 0.773971 0.0654926 0.561845
6 4 0.646965 0.0229934 0.721426
3 4 0.538723 0.631714 0.979572
ITEM: TIMESTEP
21500
ITEM: NUMBER OF ATOMS
6
ITEM: BOX BOUNDS pp pp pp
-1.2000000000000000e+00 1.2000000000000000e+00
-1.2000000000000000e+00 1.2000000000000000e+00
-1.2000000000000000e+00 1.2000000000000000e+00
ITEM: ATOMS id type xs ys zs
2 4 0.447444 0.36419 0.288339
1 2 0.491372 0.494911 0.132181
5 4 0.889599 0.111266 0.397756
4 2 0.769448 0.0644553 0.561388
6 4 0.649297 0.0176446 0.725019
3 4 0.535301 0.625631 0.976024
ITEM: TIMESTEP
22000
ITEM: NUMBER OF ATOMS
6
ITEM: BOX BOUNDS pp pp pp
-1.2000000000000000e+00 1.2000000000000000e+00
-1.2000000000000000e+00 1.2000000000000000e+00
-1.2000000000000000e+00 1.2000000000000000e+00
ITEM: ATOMS id type xs ys zs
2 4 0.454488 0.368579 0.295912
1 2 0.49352 0.494051 0.134245
5 4 0.87714 0.115593 0.392494
4 2 0.765069 0.063954 0.560352
6 4 0.652999 0.0123153 0.728211
3 4 0.532552 0.619522 0.972578
ITEM: TIMESTEP
22500
ITEM: NUMBER OF ATOMS
6
ITEM: BOX BOUNDS pp pp pp
-1.2000000000000000e+00 1.2000000000000000e+00
-1.2000000000000000e+00 1.2000000000000000e+00
-1.2000000000000000e+00 1.2000000000000000e+00
ITEM: ATOMS id type xs ys zs
2 4 0.460988 0.37393 0.303054
1 2 0.495774 0.493636 0.136131
5 4 0.864251 0.12051 0.387546
4 2 0.760522 0.0639749 0.559147
6 4 0.656794 0.00743944 0.730748
3 4 0.53056 0.613342 0.969208
ITEM: TIMESTEP
23000
ITEM: NUMBER OF ATOMS
6
ITEM: BOX BOUNDS pp pp pp
-1.2000000000000000e+00 1.2000000000000000e+00
-1.2000000000000000e+00 1.2000000000000000e+00
-1.2000000000000000e+00 1.2000000000000000e+00
ITEM: ATOMS id type xs ys zs
2 4 0.467968 0.379401 0.309325
1 2 0.49833 0.493366 0.13759
5 4 0.85042 0.126583 0.383559
4 2 0.755894 0.0648965 0.558665
6 4 0.661367 0.00321049 0.733772
3 4 0.528693 0.607332 0.965856
ITEM: TIMESTEP
23500
ITEM: NUMBER OF ATOMS
6
ITEM: BOX BOUNDS pp pp pp
-1.2000000000000000e+00 1.2000000000000000e+00
-1.2000000000000000e+00 1.2000000000000000e+00
-1.2000000000000000e+00 1.2000000000000000e+00
ITEM: ATOMS id type xs ys zs
2 4 0.474561 0.385058 0.31459
1 2 0.501261 0.492857 0.138326
5 4 0.835418 0.133108 0.379988
4 2 0.750754 0.0662781 0.558226
6 4 0.666089 -0.000551498 0.736463
3 4 0.52796 0.600657 0.962061
ITEM: TIMESTEP
24000
ITEM: NUMBER OF ATOMS
6
ITEM: BOX BOUNDS pp pp pp
-1.2000000000000000e+00 1.2000000000000000e+00
-1.2000000000000000e+00 1.2000000000000000e+00
-1.2000000000000000e+00 1.2000000000000000e+00
ITEM: ATOMS id type xs ys zs
2 4 0.480009 0.390776 0.319333
1 2 0.503894 0.49263 0.139171
5 4 0.82076 0.140353 0.377763
4 2 0.745765 0.0677292 0.558053
6 4 0.67077 -0.00489442 0.738342
3 4 0.52778 0.594484 0.95901
ITEM: TIMESTEP
24500
ITEM: NUMBER OF ATOMS
6
ITEM: BOX BOUNDS pp pp pp
-1.2000000000000000e+00 1.2000000000000000e+00
-1.2000000000000000e+00 1.2000000000000000e+00
-1.2000000000000000e+00 1.2000000000000000e+00
ITEM: ATOMS id type xs ys zs
2 4 0.485679 0.396107 0.323649
1 2 0.50703 0.491994 0.13993
5 4 0.80571 0.147842 0.376079
4 2 0.740677 0.0688533 0.557558
3 4 0.528381 0.587881 0.956212
6 4 0.675645 0.989865 0.739036
ITEM: TIMESTEP
25000
ITEM: NUMBER OF ATOMS
6
ITEM: BOX BOUNDS pp pp pp
-1.2000000000000000e+00 1.2000000000000000e+00
-1.2000000000000000e+00 1.2000000000000000e+00
-1.2000000000000000e+00 1.2000000000000000e+00
ITEM: ATOMS id type xs ys zs
2 4 0.491835 0.401711 0.327187
1 2 0.510272 0.49142 0.140064
5 4 0.790191 0.155516 0.375829
4 2 0.735601 0.0694505 0.55753
3 4 0.528709 0.581128 0.95294
6 4 0.68101 0.983385 0.739231
ITEM: TIMESTEP
25500
ITEM: NUMBER OF ATOMS
6
ITEM: BOX BOUNDS pp pp pp
-1.2000000000000000e+00 1.2000000000000000e+00
-1.2000000000000000e+00 1.2000000000000000e+00
-1.2000000000000000e+00 1.2000000000000000e+00
ITEM: ATOMS id type xs ys zs
2 4 0.497837 0.407723 0.330116
1 2 0.513286 0.491289 0.139904
5 4 0.77523 0.162897 0.376151
4 2 0.73065 0.070249 0.557346
3 4 0.528736 0.574856 0.949691
6 4 0.686071 0.977601 0.738541
ITEM: TIMESTEP
26000
ITEM: NUMBER OF ATOMS
6
ITEM: BOX BOUNDS pp pp pp
-1.2000000000000000e+00 1.2000000000000000e+00
-1.2000000000000000e+00 1.2000000000000000e+00
-1.2000000000000000e+00 1.2000000000000000e+00
ITEM: ATOMS id type xs ys zs
2 4 0.502774 0.414441 0.333124
1 2 0.516179 0.490964 0.139818
5 4 0.760454 0.16976 0.377238
4 2 0.725815 0.0711348 0.557449
3 4 0.529585 0.567487 0.946512
6 4 0.691177 0.972509 0.73766
ITEM: TIMESTEP
26500
ITEM: NUMBER OF ATOMS
6
ITEM: BOX BOUNDS pp pp pp
-1.2000000000000000e+00 1.2000000000000000e+00
-1.2000000000000000e+00 1.2000000000000000e+00
-1.2000000000000000e+00 1.2000000000000000e+00
ITEM: ATOMS id type xs ys zs
2 4 0.50727 0.421649 0.335933
1 2 0.518792 0.491014 0.139824
5 4 0.745837 0.176114 0.378719
4 2 0.720883 0.0721149 0.557504
3 4 0.530313 0.560378 0.943716
6 4 0.69593 0.968115 0.73629
ITEM: TIMESTEP
27000
ITEM: NUMBER OF ATOMS
6
ITEM: BOX BOUNDS pp pp pp
-1.2000000000000000e+00 1.2000000000000000e+00
-1.2000000000000000e+00 1.2000000000000000e+00
-1.2000000000000000e+00 1.2000000000000000e+00
ITEM: ATOMS id type xs ys zs
2 4 0.512824 0.428224 0.338445
1 2 0.522284 0.490825 0.139964
5 4 0.730763 0.181856 0.380519
4 2 0.715567 0.0728054 0.55738
3 4 0.531745 0.553425 0.941484
6 4 0.700371 0.963755 0.734241
ITEM: TIMESTEP
27500
ITEM: NUMBER OF ATOMS
6
ITEM: BOX BOUNDS pp pp pp
-1.2000000000000000e+00 1.2000000000000000e+00
-1.2000000000000000e+00 1.2000000000000000e+00
-1.2000000000000000e+00 1.2000000000000000e+00
ITEM: ATOMS id type xs ys zs
2 4 0.519159 0.433508 0.340979
1 2 0.525796 0.489894 0.140531
5 4 0.714343 0.187749 0.383523
4 2 0.709842 0.0735877 0.557734
3 4 0.532433 0.54628 0.940084
6 4 0.70534 0.959426 0.731946
ITEM: TIMESTEP
28000
ITEM: NUMBER OF ATOMS
6
ITEM: BOX BOUNDS pp pp pp
-1.2000000000000000e+00 1.2000000000000000e+00
-1.2000000000000000e+00 1.2000000000000000e+00
-1.2000000000000000e+00 1.2000000000000000e+00
ITEM: ATOMS id type xs ys zs
1 2 0.528861 0.489674 0.141656
5 4 0.697765 0.192834 0.387418
4 2 0.704334 0.0743337 0.558641
2 4 0.524346 0.439439 0.343792
3 4 0.533375 0.539909 0.93952
6 4 0.710904 0.955833 0.729864
ITEM: TIMESTEP
28500
ITEM: NUMBER OF ATOMS
6
ITEM: BOX BOUNDS pp pp pp
-1.2000000000000000e+00 1.2000000000000000e+00
-1.2000000000000000e+00 1.2000000000000000e+00
-1.2000000000000000e+00 1.2000000000000000e+00
ITEM: ATOMS id type xs ys zs
1 2 0.531804 0.489611 0.143387
5 4 0.682333 0.197049 0.391786
4 2 0.699295 0.0752133 0.559926
2 4 0.528062 0.446646 0.347208
3 4 0.535545 0.532576 0.939567
6 4 0.716257 0.953378 0.728066
ITEM: TIMESTEP
29000
ITEM: NUMBER OF ATOMS
6
ITEM: BOX BOUNDS pp pp pp
-1.2000000000000000e+00 1.2000000000000000e+00
-1.2000000000000000e+00 1.2000000000000000e+00
-1.2000000000000000e+00 1.2000000000000000e+00
ITEM: ATOMS id type xs ys zs
1 2 0.534972 0.489288 0.145318
5 4 0.667102 0.200677 0.39668
4 2 0.694862 0.075871 0.561166
2 4 0.531371 0.45427 0.350656
3 4 0.538572 0.524305 0.93998
6 4 0.722622 0.951065 0.725652
ITEM: TIMESTEP
29500
ITEM: NUMBER OF ATOMS
6
ITEM: BOX BOUNDS pp pp pp
-1.2000000000000000e+00 1.2000000000000000e+00
-1.2000000000000000e+00 1.2000000000000000e+00
-1.2000000000000000e+00 1.2000000000000000e+00
ITEM: ATOMS id type xs ys zs
1 2 0.538067 0.489285 0.147633
5 4 0.651611 0.203392 0.401717
4 2 0.690759 0.0765884 0.562313
2 4 0.533875 0.462378 0.354178
3 4 0.542259 0.516192 0.941087
6 4 0.729907 0.949785 0.722909
ITEM: TIMESTEP
30000
ITEM: NUMBER OF ATOMS
6
ITEM: BOX BOUNDS pp pp pp
-1.2000000000000000e+00 1.2000000000000000e+00
-1.2000000000000000e+00 1.2000000000000000e+00
-1.2000000000000000e+00 1.2000000000000000e+00
ITEM: ATOMS id type xs ys zs
1 2 0.541729 0.489789 0.150359
5 4 0.636883 0.20653 0.407518
4 2 0.687127 0.0779572 0.563554
2 4 0.536048 0.471957 0.35785
3 4 0.547411 0.50762 0.942868
6 4 0.737371 0.949384 0.719591
ITEM: TIMESTEP
30500
ITEM: NUMBER OF ATOMS
6
ITEM: BOX BOUNDS pp pp pp
-1.2000000000000000e+00 1.2000000000000000e+00
-1.2000000000000000e+00 1.2000000000000000e+00
-1.2000000000000000e+00 1.2000000000000000e+00
ITEM: ATOMS id type xs ys zs
1 2 0.545922 0.490056 0.153248
5 4 0.622767 0.209659 0.413215
4 2 0.683519 0.0798224 0.564392
2 4 0.538326 0.481199 0.361254
3 4 0.553519 0.498913 0.945242
6 4 0.74427 0.949986 0.715569
ITEM: TIMESTEP
31000
ITEM: NUMBER OF ATOMS
6
ITEM: BOX BOUNDS pp pp pp
-1.2000000000000000e+00 1.2000000000000000e+00
-1.2000000000000000e+00 1.2000000000000000e+00
-1.2000000000000000e+00 1.2000000000000000e+00
ITEM: ATOMS id type xs ys zs
1 2 0.550278 0.489793 0.155756
5 4 0.60854 0.212578 0.420258
4 2 0.680414 0.0818879 0.565713
2 4 0.540253 0.489515 0.363848
3 4 0.560304 0.490071 0.947664
6 4 0.752287 0.951198 0.711168
ITEM: TIMESTEP
31500
ITEM: NUMBER OF ATOMS
6
ITEM: BOX BOUNDS pp pp pp
-1.2000000000000000e+00 1.2000000000000000e+00
-1.2000000000000000e+00 1.2000000000000000e+00
-1.2000000000000000e+00 1.2000000000000000e+00
ITEM: ATOMS id type xs ys zs
1 2 0.554967 0.489627 0.158195
5 4 0.594727 0.21455 0.428313
4 2 0.677584 0.0834217 0.567392
2 4 0.541739 0.498052 0.365937
3 4 0.568196 0.481202 0.950453
6 4 0.760441 0.952294 0.706471
ITEM: TIMESTEP
32000
ITEM: NUMBER OF ATOMS
6
ITEM: BOX BOUNDS pp pp pp
-1.2000000000000000e+00 1.2000000000000000e+00
-1.2000000000000000e+00 1.2000000000000000e+00
-1.2000000000000000e+00 1.2000000000000000e+00
ITEM: ATOMS id type xs ys zs
1 2 0.559718 0.48954 0.160419
5 4 0.581658 0.216203 0.436768
4 2 0.674665 0.0850259 0.569226
2 4 0.542596 0.507032 0.367309
3 4 0.576841 0.472049 0.953529
6 4 0.767671 0.953849 0.701684
ITEM: TIMESTEP
32500
ITEM: NUMBER OF ATOMS
6
ITEM: BOX BOUNDS pp pp pp
-1.2000000000000000e+00 1.2000000000000000e+00
-1.2000000000000000e+00 1.2000000000000000e+00
-1.2000000000000000e+00 1.2000000000000000e+00
ITEM: ATOMS id type xs ys zs
1 2 0.564477 0.489166 0.162663
5 4 0.569311 0.217356 0.444925
4 2 0.671626 0.0864052 0.570568
2 4 0.543219 0.51556 0.368221
3 4 0.585734 0.462772 0.957104
6 4 0.773942 0.955455 0.696211
ITEM: TIMESTEP
33000
ITEM: NUMBER OF ATOMS
6
ITEM: BOX BOUNDS pp pp pp
-1.2000000000000000e+00 1.2000000000000000e+00
-1.2000000000000000e+00 1.2000000000000000e+00
-1.2000000000000000e+00 1.2000000000000000e+00
ITEM: ATOMS id type xs ys zs
1 2 0.569672 0.488883 0.165371
5 4 0.557684 0.218505 0.453051
4 2 0.668841 0.0883514 0.571823
2 4 0.544381 0.524462 0.36908
3 4 0.594963 0.453304 0.961662
6 4 0.779998 0.958197 0.690596
ITEM: TIMESTEP
33500
ITEM: NUMBER OF ATOMS
6
ITEM: BOX BOUNDS pp pp pp
-1.2000000000000000e+00 1.2000000000000000e+00
-1.2000000000000000e+00 1.2000000000000000e+00
-1.2000000000000000e+00 1.2000000000000000e+00
ITEM: ATOMS id type xs ys zs
1 2 0.575319 0.488324 0.168206
5 4 0.546637 0.220458 0.46157
4 2 0.666161 0.0909506 0.572677
2 4 0.546379 0.53232 0.369774
3 4 0.604259 0.444328 0.966638
6 4 0.785685 0.961443 0.683784
ITEM: TIMESTEP
34000
ITEM: NUMBER OF ATOMS
6
ITEM: BOX BOUNDS pp pp pp
-1.2000000000000000e+00 1.2000000000000000e+00
-1.2000000000000000e+00 1.2000000000000000e+00
-1.2000000000000000e+00 1.2000000000000000e+00
ITEM: ATOMS id type xs ys zs
1 2 0.58035 0.487949 0.170937
5 4 0.536423 0.22281 0.469305
4 2 0.663248 0.0944071 0.573376
2 4 0.547494 0.539514 0.370096
3 4 0.613205 0.436385 0.971778
6 4 0.790074 0.966004 0.677447
ITEM: TIMESTEP
34500
ITEM: NUMBER OF ATOMS
6
ITEM: BOX BOUNDS pp pp pp
-1.2000000000000000e+00 1.2000000000000000e+00
-1.2000000000000000e+00 1.2000000000000000e+00
-1.2000000000000000e+00 1.2000000000000000e+00
ITEM: ATOMS id type xs ys zs
1 2 0.58522 0.487574 0.17286
5 4 0.526251 0.225435 0.477612
4 2 0.660042 0.0980791 0.573962
2 4 0.548758 0.546808 0.369239
3 4 0.621682 0.42834 0.976481
6 4 0.793834 0.970723 0.670312
ITEM: TIMESTEP