LAMMPS data file via write_data, version 2 Aug 2023, timestep = 1000000, units = lj

15795 atoms
4 atom types
10690 bonds
1 bond types
6305 angles
2 angle types

-16.594292 16.594292 xlo xhi
-16.594292 16.594292 ylo yhi
-16.594292 16.594292 zlo zhi
4.263256414560601e-14 0 0 xy xz yz

Masses

1 1
2 1
3 1
4 1

Bond Coeffs # harmonic

1 100 0.5

Angle Coeffs # harmonic

1 100 180
2 100 109.471

Atoms # full

9660 3060 4 0 -16.266508827249414 -16.053060920251617 -15.568767740380174 10 1 0
9176 2899 4 0 -15.98577728463777 -15.884052685812215 -15.831950801804885 10 1 0
15384 4968 4 0 -15.877023499767072 -16.044586123829493 -15.48684353712113 10 1 1
9175 2899 2 0 -15.70767829314548 -15.81971497171643 -16.27045838212401 10 1 0
15382 4968 2 0 -15.536201721146654 -16.3026525503381 -15.257996101417366 10 1 1
2843 788 4 0 -11.87986405247108 -0.06019462174518608 -6.066351660087047 5 0 0
9658 3060 2 0 16.541854454304595 -16.334283498808144 -15.379547441860943 9 1 0
15383 4968 4 0 -15.182097407309032 -16.572180733870532 -15.020550881366056 10 1 1
3462 994 4 0 -13.686714018402014 -15.88535738445073 -15.265853271462625 0 0 0
9456 2992 4 0 -14.002321082834312 -15.946956277367962 -15.026242811080193 10 1 0
3460 994 2 0 -13.418261444304871 -15.802381931044142 -15.663351328433828 0 0 0
10722 3414 4 0 -13.107697876454237 -15.812484156196206 -16.461122590136135 10 1 0
3461 994 4 0 -13.128896645475557 -15.722429488564018 -16.071118332102458 0 0 0
8510 2677 4 0 -12.861315137733017 -15.547496684016512 -16.327734910261682 10 1 0
9923 3148 4 0 -12.804511453217593 -15.938681682797764 -16.228706371851047 10 1 0
9922 3148 2 0 -12.294902855984972 -16.070084854612997 -16.096953072857207 10 1 0
9924 3148 4 0 -11.810022389269601 -16.194557121111608 -15.983383857958195 10 1 0
10146 3222 4 0 -11.440899476698881 -16.05671696902269 -15.967183718548995 10 1 0
10144 3222 2 0 -10.938399185840263 -16.217607026661412 -15.967224512699579 10 1 0
10145 3222 4 0 -10.454596036207633 -16.379918451892987 -15.967561116078869 10 1 0
9065 2862 4 0 -10.138276655052954 -16.405506672035553 -16.183539847218942 10 1 0
9566 3029 4 0 -10.107632055797568 -16.544684068463162 -15.783147300668269 10 1 0
10267 3263 2 0 -8.401552738145806 -16.27406515500475 -15.463271598198324 10 1 0
10268 3263 4 0 -7.994600299577559 -15.982147021317795 -15.653097466685168 10 1 0
10840 3454 2 0 -7.906284235735805 -16.27173995900392 -16.488449992780602 10 1 0
10842 3454 4 0 -7.832004035747884 -16.154532703625254 -15.985253249273551 10 1 0
10269 3263 4 0 -8.809700604931567 -16.564960742197012 -15.294498895013696 10 1 0
13904 4475 4 0 -8.870772986422478 -15.191919284270332 -16.475173854487387 10 1 1
9246 2922 4 0 -7.610225795605764 -15.969872395944405 -15.721614375132178 10 1 0
9244 2922 2 0 -7.10700595880461 -16.045476711490398 -15.768655686234135 10 1 0
9245 2922 4 0 -6.559248511134289 -16.12932347940884 -15.821779463116966 10 1 0
8724 2748 4 0 -6.319199661920191 -15.967704596984863 -16.105482398205773 10 1 0
8502 2674 4 0 -6.366040480646596 -16.35099320166581 -16.102110139358462 10 1 0
10028 3183 4 0 -6.311329344842303 -15.8214761746518 -15.726393610274123 10 1 0
10027 3183 2 0 -6.238065865245565 -15.45768444487919 -15.367031916051879 10 1 0
3521 1014 4 0 -11.557049848844834 -0.024086778882672633 -5.856181610746882 5 0 0
15767 5096 4 0 -6.155418738258739 -16.17077282413962 -15.801503353300648 10 1 1
15766 5096 2 0 -5.610718057968521 -16.13049797527051 -15.897554567068541 10 1 1
15768 5096 4 0 -5.107459510093818 -16.102114985488512 -15.996098331963896 10 1 1
504 101 3 0 -4.9543594813694245 -15.717131021826013 -15.964407710863362 1 0 1
460 92 3 0 -4.950226588294949 -16.484010738365427 -15.978021876826237 1 0 1
505 101 3 0 -4.8442707200455075 -15.465053309082062 -15.126487951077685 1 0 1
501 101 1 0 -4.647968792129385 -15.434549869722192 -15.621495353205052 1 0 1
502 101 3 0 -4.179539443412079 -15.618260302232702 -15.622511974719123 1 0 1
7930 2484 2 0 -3.829525105547054 -16.066050365559988 -15.781118289768964 1 0 1
7932 2484 4 0 -3.795313862020656 -16.442665550159504 -16.10699577090341 1 0 1
7931 2484 4 0 -3.8609644362522957 -15.683255461500542 -15.439109135052943 1 0 1
175 35 3 0 -3.733283732355982 -15.608485975088533 -15.067465393637612 1 0 0
6090 1870 4 0 -2.1333146515407755 -16.305681079670272 -15.285708709032843 1 0 1
10491 3337 4 0 4.382034897984568 -16.393908600593686 -15.619173424114797 9 1 0
15404 4975 4 0 4.392755347279646 -16.253364578744804 -15.265852163696929 9 1 1
14494 4672 2 0 3.5803080511538354 -16.508698909494385 -15.318795663802865 9 1 1
14495 4672 4 0 3.0524773368077156 -16.490140649101097 -15.272546981028087 9 1 1
10489 3337 2 0 4.648268233347121 -16.06527240796082 -15.964960092249703 9 1 0
10490 3337 4 0 4.882200498911313 -15.754161603736891 -16.294967160230673 9 1 0
14643 4721 4 0 5.272097966801621 -15.758139783238699 -16.194732510171335 9 1 1
14641 4721 2 0 5.656963451111338 -15.973758623657714 -16.374284021491373 9 1 1
9120 2880 4 0 6.120918600998998 -15.336227960194973 -15.29856630265653 9 1 0
14642 4721 4 0 6.063840501047604 -16.18507526679275 -16.553439463802267 9 1 1
10078 3200 2 0 6.66285893480341 -16.43327842233362 -16.079082247640127 9 1 0
10080 3200 4 0 6.440840421527589 -16.31262905395969 -16.49543445371813 9 1 0
9570 3030 4 0 7.106448751723029 -16.4961237018255 -15.29055996523388 9 1 0
7503 2341 4 0 -9.236323476808689 -14.764799857059302 -15.448332066807488 1 0 1
7501 2341 2 0 -8.824234829733356 -14.494027136163172 -15.59840053060378 1 0 1
680 136 3 0 -8.237080554008097 -14.699088921159838 -16.46093812484638 10 1 0
7502 2341 4 0 -8.397740167807768 -14.223407629513078 -15.74640940388111 1 0 1
13944 4488 4 0 -8.65769271916345 -14.832714264025649 -16.498182166253798 10 1 1
678 136 3 0 -8.037898525709588 -14.40449620214029 -15.693732084811225 10 1 0
676 136 1 0 -7.847235986527362 -14.607917772697755 -16.09814338260263 10 1 0
677 136 3 0 -7.639673709401112 -15.02166209746611 -15.983604435247601 10 1 0
679 136 3 0 -7.491314244445096 -14.275508584046223 -16.29930448028565 10 1 0
9384 2968 4 0 -7.387622401123764 -13.894738466848285 -16.313896441587172 10 1 0
6800 2107 4 0 -7.143160510285785 -14.134198115215465 -16.118290647321167 1 0 1
15695 5072 4 0 -7.167404147923378 -14.148809542287726 -16.506577062576238 10 1 1
6799 2107 2 0 -6.757859604229507 -13.937032772197872 -15.802942846397944 1 0 1
6801 2107 4 0 -6.400419425759559 -13.752473575302956 -15.510137645534378 1 0 1
6827 2116 4 0 -6.139678334796155 -13.88153609621514 -15.230069003557327 1 0 1
6826 2116 2 0 -6.0803871480139176 -14.309891963354469 -15.015127143082069 1 0 1
7406 2309 4 0 -6.028034140101951 -13.612452654256675 -15.510862301894488 1 0 1
10317 3279 4 0 -5.2757210040330484 -13.730706762472373 -16.517579879096154 10 1 0
6505 2009 2 0 -4.748515377267594 -14.143100824626666 -16.14270820249337 1 0 1
6506 2009 4 0 -4.935807114854889 -13.683845322623926 -16.292078074326135 1 0 1
6507 2009 4 0 -4.560326580301297 -14.607807419182324 -15.985709508789789 1 0 1
503 101 3 0 -4.640494194012204 -14.954335058721016 -15.767538034866817 1 0 1
2360 627 4 0 -4.35522081747358 -14.700312686057647 -15.648856383500895 1 0 0
2359 627 2 0 -3.9288361372084104 -14.443060071748056 -15.49686055014612 1 0 0
2361 627 4 0 -3.486394370739463 -14.16131493957487 -15.33286238955309 1 0 0
3354 958 4 0 -3.380049055547465 -13.786783574890025 -15.234908526262515 1 0 0
2205 575 4 0 -3.1109396549627313 -14.082332344318976 -15.207794576670771 1 0 0
2203 575 2 0 -2.7296202662899773 -14.240870162825496 -15.511521659300131 1 0 0
2204 575 4 0 -2.350917274079066 -14.393023838637228 -15.814656027052896 1 0 0
3518 1013 4 0 -3.142006871027178 -13.799956600607699 -14.911119502992833 1 0 0
1915 479 2 0 2.792164067811335 -14.315271298083855 -15.840251364199489 2 0 0
463 93 3 0 2.4217482294529518 -13.977275379360288 -15.259987870887368 2 0 1
1916 479 4 0 2.5821200283632884 -14.296803434207582 -15.38203985878613 2 0 0
1917 479 4 0 2.9964981590056112 -14.346416913137046 -16.293102881636994 2 0 0
6072 1864 4 0 3.377965075192428 -14.268590543055115 -16.155256333023356 2 0 1
6070 1864 2 0 3.8893963807352527 -14.106733060146455 -16.271789724390445 2 0 1
6071 1864 4 0 4.364283220337715 -13.956799985265603 -16.368337601179398 2 0 1
558 112 3 0 4.641096894699313 -14.832620033300456 -16.081618745875 2 0 1
559 112 3 0 4.708195737836892 -14.088683103262603 -16.417323880628423 2 0 1
7670 2397 4 0 4.656065285310518 -13.785616351088802 -16.172615769846843 2 0 1
556 112 1 0 4.917304703305103 -14.428322983827849 -16.093986500415102 2 0 1
557 112 3 0 4.93825137876895 -14.219370148875338 -15.627516792472434 2 0 1
560 112 3 0 5.39190452949147 -14.55168089870914 -16.256781639071757 2 0 1
6885 2135 4 0 4.971953293286692 -13.77056339224109 -16.401845641185403 2 0 1
9382 2968 2 0 -7.426671066434192 -13.461843579789052 -16.53739578467936 10 1 0
7405 2309 2 0 -5.631197354540527 -13.543001311520737 -15.844286568752151 1 0 1
7407 2309 4 0 -5.238023340509491 -13.465131490538187 -16.189682938437702 1 0 1
7958 2493 4 0 -5.066627334445753 -13.41678360705058 -16.53488965011654 1 0 1
6852 2124 4 0 -4.86364015890905 -13.311365376040431 -16.221175598836908 1 0 1
6850 2124 2 0 -4.3952123888111405 -13.056301492700339 -16.036280980605785 1 0 1
6851 2124 4 0 -3.938945434435883 -12.809745667985373 -15.867436260305347 1 0 1
1568 363 4 0 -3.643405250779029 -12.612362490418402 -15.676518620166322 1 0 0
8255 2592 4 0 -3.6149860025885214 -12.676964867266559 -16.07401346754051 1 0 1
3353 958 4 0 -3.588381643097529 -12.965342367221888 -15.817845793396401 1 0 0
8292 2604 4 0 -3.289256359859408 -12.700612518644471 -15.85194488663852 1 0 1
3352 958 2 0 -3.4805265208180582 -13.401309588990863 -15.522667700688377 1 0 0
1567 363 2 0 -3.500165332376394 -12.224456972475132 -15.33352748225832 1 0 0
8254 2592 2 0 -3.563339503999128 -12.36107379608438 -16.465076176246196 1 0 1
8290 2604 2 0 -2.715177263372169 -12.701609154723858 -15.83900333071673 1 0 1
8291 2604 4 0 -2.174657412738261 -12.708471235146016 -15.827639531626879 1 0 1
2277 599 4 0 -1.9387747060238656 -12.619044162547604 -15.506397748822192 1 0 0
2275 599 2 0 -1.563302074673432 -12.492625544934056 -15.171742177022521 1 0 0
1794 438 4 0 1.317825813464534 -12.28112961100054 -15.417720718416275 2 0 0
464 93 3 0 1.665374060045501 -13.570616325013756 -15.390708661632244 2 0 1
1871 464 4 0 1.6234960892407457 -12.27769769700325 -15.186783051697594 2 0 0
3485 1002 4 0 1.6704032948706455 -12.249164415561324 -15.57986700461321 2 0 0
3193 905 2 0 3.133491934219009 -12.12165073080461 -15.393686978628345 2 0 0
1432 318 2 0 4.032920070244085 -12.711244625167641 -15.110705036751828 2 0 0
1630 384 2 0 4.296636167494697 -12.306655800148393 -16.082187935657263 2 0 0
1434 318 4 0 4.490212392253149 -12.70451568842299 -15.323326664525323 2 0 0
1632 384 4 0 4.069802798633109 -12.006993909009884 -16.42788695745981 2 0 0
7671 2397 4 0 4.67497730925874 -12.957179549681364 -15.550624474078463 2 0 1
7669 2397 2 0 4.671925536072191 -13.36479346536447 -15.851685786167375 2 0 1
1631 384 4 0 4.540418906037818 -12.629598348825288 -15.721596708448585 2 0 0
3134 885 4 0 4.848120228715413 -12.638282846729474 -15.474733102344096 2 0 0
10628 3383 4 0 4.802179787126839 -12.913251814696034 -15.190703492953304 12 1 0
3133 885 2 0 5.2425072018774586 -12.36323167172434 -15.53111682865206 2 0 0
3135 885 4 0 5.648295002368233 -12.078774872203365 -15.583778950242047 2 0 0
2260 594 2 0 6.349530056637672 -12.368925347505645 -16.00320331375526 2 0 0
2262 594 4 0 6.687212927809739 -12.52896364291623 -16.347503961682452 2 0 0
2261 594 4 0 6.013494400237423 -12.213478968338277 -15.6567850092681 2 0 0
1569 363 4 0 -3.3493875334336725 -11.828853790469283 -14.989979482296514 1 0 0
1589 370 4 0 -0.4881603673030206 -11.417136669624048 -15.142841841530815 1 0 0
1792 438 2 0 1.1117884261779736 -11.824631239743569 -15.282381347085899 2 0 0
1793 438 4 0 0.9225719375913286 -11.41261312431941 -15.157766983540183 2 0 0
1588 370 2 0 0.016991511876661036 -11.361916017703278 -15.110644731964866 1 0 0
1590 370 4 0 0.5393008153266585 -11.317743051000518 -15.06723947312072 1 0 0
3484 1002 2 0 2.1101468216209156 -12.042099378236822 -15.765276089794016 2 0 0
1612 378 2 0 2.6525931981083097 -11.010566381943157 -15.847229647654734 2 0 0
7664 2395 4 0 2.584678345150042 -11.598936654501577 -16.272207108614886 2 0 1
3486 1002 4 0 2.5603684905435884 -11.829528151233836 -15.94778173803668 2 0 0
1614 378 4 0 2.7537570683799544 -11.481955131391146 -15.934846049254334 2 0 0
3195 905 4 0 2.913968282858953 -11.82900876423342 -15.780747863605693 2 0 0
1409 310 4 0 2.9066580136802393 -11.760548072130563 -16.14638846719002 2 0 0
1408 310 2 0 3.3444631982894784 -11.77931818433617 -16.38811064314521 2 0 0
1978 500 2 0 4.739956665094752 -10.694170358517674 -15.462233721024537 2 0 0
1507 343 2 0 5.7184881858717915 -11.367746830745013 -15.762260461954336 2 0 0
1508 343 4 0 5.907045796296909 -11.828968758101652 -15.717504731968814 2 0 0
1509 343 4 0 5.534061225508989 -10.914432278560353 -15.812237803955677 2 0 0
1980 500 4 0 5.19241874504219 -10.771173438433644 -15.685311237957913 2 0 0
3341 954 4 0 5.971745260155981 -11.98801736384132 -15.362076001041327 2 0 0
2550 690 4 0 5.545412634079096 -10.56125827551881 -15.636224616083423 2 0 0
8324 2615 4 0 -1.6003527168822167 -9.902800027646297 -15.142398492449198 1 0 1
15038 4853 4 0 -1.271253304822146 -9.647935593095966 -15.075199860045215 3 0 1
1613 378 4 0 2.5586060206855983 -10.522393574882999 -15.75360562880875 2 0 0
3018 846 4 0 2.3398416718851074 -10.177316034501763 -15.691793029958962 2 0 0
3016 846 2 0 2.536171608076046 -9.965623421096002 -15.281308446885616 2 0 0
1919 480 4 0 2.473970535348851 -10.264906557925496 -16.046851144951248 2 0 0
1918 480 2 0 2.6977277954687615 -10.006840526823975 -16.41198559583045 2 0 0
1979 500 4 0 4.297543315703972 -10.614160014850032 -15.246947366291005 2 0 0
1761 427 4 0 4.0062172894482515 -10.398291900454241 -15.06531508618527 2 0 0
1759 427 2 0 3.5709337879100858 -10.112284458642767 -14.99737162298122 2 0 0
2548 690 2 0 5.798613515327485 -10.362920075328608 -15.283368867868155 2 0 0
7506 2342 4 0 7.7454096625488305 -6.223969556070738 -16.20428259014359 3 0 1
485 97 3 0 7.738324010514567 -6.648027628969302 -16.252730121127602 3 0 1
6893 2138 4 0 7.822432488536386 -6.437896419125336 -15.910257144259978 3 0 1
6892 2138 2 0 8.227711419907425 -6.3896072686041805 -15.591008782839888 3 0 1
6894 2138 4 0 8.629657640671656 -6.348382842795207 -15.282435687633212 3 0 1
14959 4827 2 0 9.042983651971724 -7.216775443226469 -16.496243296574132 3 0 1
3072 864 4 0 8.921180526574226 -6.165576306249864 -15.042807306316872 3 0 0
9540 3020 4 0 8.984880337061707 -6.487930004736146 -15.260597649256741 3 0 0
14960 4827 4 0 9.484147089635321 -7.022502703983006 -16.394997497896867 3 0 1
9538 3020 2 0 9.264492619571968 -6.589904939986994 -15.677424791068248 3 0 0
9539 3020 4 0 9.550728426077143 -6.706628298145187 -16.123159432169498 3 0 0
9828 3116 4 0 9.726520908420003 -6.728389021003808 -16.466802057207833 3 0 0
10445 3322 4 0 -13.008945752012275 -5.292507915397415 -15.42790183010132 6 0 0
10208 3243 4 0 -12.913703220056423 -5.65320865485203 -15.293770805889862 6 0 0
9600 3040 4 0 -12.896585909892474 -5.014533448885903 -15.145426346972927 6 0 0
10444 3322 2 0 -12.774127923477854 -5.119703960870204 -15.839483026554388 6 0 0
10446 3322 4 0 -12.529429451166298 -4.949195897765666 -16.250374737517472 6 0 0
9816 3112 4 0 -12.565171199127214 -4.559297530837831 -16.32801371777677 6 0 0
9524 3015 4 0 -12.378884922909446 -4.8051078946548 -16.57794570402527 6 0 0
9459 2993 4 0 -12.22321435596565 -4.699040872904444 -16.21626342236337 6 0 0
9457 2993 2 0 -11.783992405858548 -4.67271055752029 -15.901283572472867 6 0 0
9198 2906 4 0 -11.321102825132446 -4.925964517607495 -15.293888104582827 6 0 0
9458 2993 4 0 -11.366946860322976 -4.6549565907813495 -15.598808261923004 6 0 0
13605 4375 4 0 -11.106252718986442 -4.928037753468502 -15.635427231734951 6 0 1
7250 2257 4 0 -11.025604846022482 -4.659803776936123 -15.368614903638832 6 0 1
13603 4375 2 0 -10.84317584156515 -5.240945647533239 -15.89810058022044 6 0 1
15396 4972 4 0 -11.028940614754529 -4.522868575538311 -15.72313075323526 6 0 1
7249 2257 2 0 -10.690634213850348 -4.562243551875438 -15.015829735669461 6 0 1
9479 3000 4 0 -9.740140215645512 -6.0480797722198005 -15.160306069695105 6 0 0
13604 4375 4 0 -10.568066532178491 -5.557663601753642 -16.168754054960427 6 0 1
14976 4832 4 0 -10.486231057548167 -5.917725560029956 -16.27609855381711 6 0 1
9480 3000 4 0 -10.343180076172096 -5.786912549878378 -15.928067903819452 6 0 0
14694 4738 4 0 -10.20633179643059 -5.631876266779534 -16.260534928291513 6 0 1
9478 3000 2 0 -10.049586901532793 -5.913825565767867 -15.5494829394487 6 0 0
14692 4738 2 0 -9.801538728788259 -5.431313314948428 -16.5060011072969 6 0 1
14148 4556 4 0 -9.11987205972839 -5.033470589112493 -16.589850197176002 6 0 1
14147 4556 4 0 -8.224284642783537 -5.6021805386987555 -16.516801003683614 6 0 1
14146 4556 2 0 -8.659665144153212 -5.3256468963638 -16.54579706281306 6 0 1
13431 4317 4 0 6.118018212773599 -5.722472714358835 -15.52456675932543 3 0 1
13429 4317 2 0 6.270956250972066 -5.288232645248579 -15.718783337017468 3 0 1
13430 4317 4 0 6.419529375255745 -4.872461717015872 -15.90267297993856 3 0 1
6830 2117 4 0 6.34366272386832 -4.638277857709795 -16.192769555943737 3 0 1
7389 2303 4 0 6.715002825829906 -4.6242660408176945 -16.026497563638372 3 0 1
7387 2303 2 0 7.148381114520333 -4.783903855169445 -16.219210535139684 3 0 1
7388 2303 4 0 7.591583490321543 -4.937194337720497 -16.431357942022466 3 0 1
7504 2342 2 0 7.728716326937924 -5.747502906817134 -16.358749276108927 3 0 1
6816 2112 4 0 7.98933120343597 -4.983724485509089 -16.474799795231228 3 0 1
7505 2342 4 0 7.731501191027153 -5.281210387695964 -16.502675295672788 3 0 1
6814 2112 2 0 8.341474243348117 -4.739355330079302 -16.169087420733895 3 0 1
2467 663 2 0 9.010991709521907 -4.642732634612637 -15.101204193387527 3 0 0
2152 558 2 0 -15.93941092276958 -3.0126367015951026 -15.339918444367061 5 0 0
2154 558 4 0 -15.65863227948581 -3.2610704183173667 -14.980600198333711 5 0 0
6156 1892 4 0 -14.48733774090072 -3.649128145395286 -15.368806461652557 5 0 1
2255 592 4 0 -14.217588933520542 -3.5926666540589487 -15.673293231452217 5 0 0
6690 2070 4 0 -14.134106572381045 -3.500675340466115 -15.300066896266683 5 0 1
2254 592 2 0 -14.068217372626405 -3.4710739909077617 -16.139755639461825 5 0 0
6154 1892 2 0 -14.949390938880478 -3.5977800039940284 -15.112339914084384 5 0 1
6688 2070 2 0 -13.888620542068201 -3.092037628844288 -15.125470789510205 5 0 1
2881 801 2 0 -4.519975805698413 -16.56066617502632 -9.60710555015305 1 0 0
9814 3112 2 0 -12.47536717358929 -4.0938632984445675 -16.500246327938434 6 0 0
14855 4792 4 0 -11.009687069932205 -3.3630147983355805 -16.409719347437004 6 0 1
13541 4354 4 0 -10.946884850006999 -3.182631917267308 -16.072694095155335 6 0 1
15394 4972 2 0 -10.922109343925253 -4.058691633153568 -15.943966894841896 6 0 1
13540 4354 2 0 -11.256209324071628 -3.0365614061399384 -15.654349341099463 6 0 1
15395 4972 4 0 -10.824273726968704 -3.592058567020251 -16.16014375688468 6 0 1
15438 4986 4 0 -10.616384403071603 -3.2953140403068133 -16.28162869342281 6 0 1
14432 4651 4 0 -10.83804447073025 -3.0020332925736675 -16.428282853482866 6 0 1
8817 2779 4 0 -9.328959694648237 -3.808205211368918 -15.176877466310414 6 0 0
15436 4986 2 0 -10.126940301462614 -3.120348492791173 -16.1999938653173 6 0 1
15503 5008 4 0 -9.117662011721517 -3.963221285515223 -15.48470112127323 6 0 1
15502 5008 2 0 -9.174576527212402 -3.5514656816471017 -15.76943129288286 6 0 1
15504 5008 4 0 -9.232689671315748 -3.111008719590288 -16.067341657673587 6 0 1
14868 4796 4 0 -9.051271071366338 -3.0626189483178266 -16.406377291916797 6 0 1
6829 2117 2 0 5.969636082472331 -4.385298100237041 -16.416964294517232 3 0 1
3377 966 4 0 4.887909874133797 -3.8759693030061513 -16.044576110041703 2 0 0
3376 966 2 0 5.160823436795347 -3.6725550235630777 -15.693927112391288 2 0 0
3378 966 4 0 5.443141677447041 -3.485607187659012 -15.34037698131612 2 0 0
1449 323 4 0 5.600072807607944 -3.1793341830576267 -15.137011726821864 2 0 0
1447 323 2 0 6.054780754529986 -3.1638944883741527 -15.008354587674454 2 0 0
7164 2228 4 0 6.38921937022457 -4.476348937330311 -15.825189354599294 3 0 1
7162 2228 2 0 6.402157439361552 -4.238714985821268 -15.424341744203936 3 0 1
13 3 3 0 7.158011154606999 -3.5053218065357967 -15.44560708858102 3 0 0
7163 2228 4 0 6.423908489164468 -3.987602619447152 -15.00472569539154 3 0 1
6815 2112 4 0 8.671493652139318 -4.5095495660119145 -15.87527135621918 3 0 1
2539 687 2 0 8.179113046327238 -3.9823014563025083 -15.261709715729694 3 0 0
2468 663 4 0 8.85946929687795 -4.404858847014651 -15.5477397742448 3 0 0
2541 687 4 0 8.491420166947979 -4.246679922726949 -15.630655647903975 3 0 0
3438 986 4 0 8.782086923314239 -4.144835329595709 -15.869288115825084 3 0 0
3436 986 2 0 9.020555310963385 -3.818335004438813 -16.232119143898913 3 0 0
3437 986 4 0 9.255137500325091 -3.517020533091255 -16.576184271631597 3 0 0
1788 436 4 0 12.834581385510589 -3.2867096691576965 -15.242080416165964 3 0 0
3299 940 4 0 13.025572764434873 -3.2246008318609913 -16.399081637967402 4 0 0
717 144 3 0 13.032607965467346 -2.9911898908643106 -15.476942591868877 4 0 0
6818 2113 4 0 13.913595973036497 -4.242129080608791 -15.402904633374767 4 0 1
7102 2208 2 0 -16.178209745369 -1.9250443989607593 -15.493312025013106 5 0 1
7103 2208 4 0 -16.12915618156452 -2.415822468543535 -15.5124635284091 5 0 1
2153 558 4 0 -16.22141979584892 -2.7653238419442197 -15.703711669238253 5 0 0
6163 1895 2 0 -14.95356524970266 -1.9391792892827375 -15.423344204403717 5 0 1
6165 1895 4 0 -14.914904090005622 -1.797219724066549 -15.890911813966174 5 0 1
7725 2415 4 0 -13.567045067790895 -1.9771218983067769 -16.104129389977576 5 0 1
7723 2415 2 0 -13.58724544760897 -2.1391048317214096 -15.632341983319426 5 0 1
7724 2415 4 0 -13.607434272690831 -2.3109703939098 -15.136836871495555 5 0 1
13542 4354 4 0 -11.558973340984052 -2.8882022657374016 -15.224666431999342 6 0 1
9404 2975 4 0 -11.917262031394023 -2.849692008137243 -15.022222423278972 6 0 0
15437 4986 4 0 -9.586918668743397 -2.9265870343140463 -16.122044972564204 6 0 1
9160 2894 2 0 -9.353517783228074 -2.53475595725574 -15.423745529571445 6 0 0
9161 2894 4 0 -9.423945726852168 -2.317531830494426 -14.985990972639621 6 0 0
9162 2894 4 0 -9.275257201137485 -2.769651490625556 -15.88883643426834 6 0 0
13949 4490 4 0 -9.250754450753826 -2.763928362407965 -16.258251117747683 6 0 1
9395 2972 4 0 -8.921893183371502 -2.846587406229487 -16.06600321475671 6 0 0
9394 2972 2 0 -8.406935825612946 -2.7033096096812947 -15.93700834518107 6 0 0
9396 2972 4 0 -7.92497300402407 -2.563509969861336 -15.81354700540456 6 0 0
9928 3150 2 0 -7.748391611389234 -2.5195020738475797 -15.068190503700652 6 0 0
13490 4337 4 0 -7.653978414391354 -2.258136910025307 -15.844433471920743 6 0 1
9930 3150 4 0 -7.612710045187162 -2.5410292941210493 -15.563361376450265 6 0 0
13489 4337 2 0 -7.549401791271313 -1.7438903693018606 -15.839396624083374 6 0 1
2917 813 2 0 9.907031890923818 -3.073664429073501 -16.318944942594168 3 0 0
8126 2549 4 0 9.731946077500627 -1.8403015070468172 -15.177809234690992 3 0 1
2919 813 4 0 10.256446177295917 -2.8745432700390765 -15.980381063213235 3 0 0
1815 445 4 0 9.938032113459524 -1.7294386780083002 -15.49962628081182 3 0 0
6558 2026 4 0 10.078344806400011 -1.6168421560055606 -15.150497260391324 3 0 1
1813 445 2 0 10.152892866181144 -2.11885484513558 -15.746026717945583 3 0 0
1814 445 4 0 10.36308968696628 -2.485163519377096 -15.967440741718445 3 0 0
3045 855 4 0 10.58612499443269 -2.77477371347579 -15.770393437740196 4 0 0
3043 855 2 0 10.817096377460349 -2.835895326407064 -15.30093435547455 4 0 0
718 144 3 0 13.206793805754685 -2.894814337379753 -16.28012576301298 4 0 0
719 144 3 0 12.687286893271722 -2.3888808725562516 -15.896464589301539 4 0 0
716 144 1 0 13.10130547379022 -2.6471715993878053 -15.843539915813 4 0 0
2532 684 4 0 13.592095277880794 -2.153293422311835 -15.39189758188122 4 0 0
720 144 3 0 13.487480824784548 -2.3334593674418986 -15.718008488092362 4 0 0
1619 380 4 0 13.73425174377903 -2.010381591021634 -15.745757783801936 4 0 0
2530 684 2 0 13.339024189824848 -1.9474217585586473 -15.011509871381842 4 0 0
1618 380 2 0 13.83461734870362 -1.6371148530157225 -16.053715212116252 4 0 0
7059 2193 4 0 13.85974651089683 -2.3506149333986244 -15.601517242871324 4 0 1
7057 2193 2 0 14.354632088673434 -2.456599392928837 -15.515047931892248 4 0 1
7058 2193 4 0 14.862780846098168 -2.547135618161402 -15.437985388215871 4 0 1
2762 761 4 0 15.015187558741925 -2.2247287961895257 -15.317534852676912 4 0 0
2996 839 4 0 15.081071081770201 -2.5661971695251893 -15.113391351100526 4 0 0
2761 761 2 0 15.131803801314351 -1.761537911113214 -15.205685188902773 4 0 0
2040 520 4 0 15.255324924976627 -2.514562294037777 -15.450769906474056 4 0 0
2038 520 2 0 15.682141582091727 -2.5591144414654465 -15.741692806894314 4 0 0
2039 520 4 0 16.08405706393523 -2.6099309368679275 -16.02177602018081 4 0 0
6866 2129 4 0 16.35577000100997 -2.412674349553958 -16.213041968009158 4 0 1
8061 2527 4 0 16.265890535033297 -2.773031855609977 -16.318712440268037 4 0 1
6865 2129 2 0 16.4033759161706 -1.9680877340018004 -16.453261665835377 4 0 1
7104 2208 4 0 -16.229539494777534 -1.418960652798452 -15.487759682331255 5 0 1
89 18 3 0 -16.394469172649274 -0.4677908387034151 -16.060144579942257 5 0 0
86 18 1 0 -16.32914690425276 -0.9894846956250394 -16.1208977815619 5 0 0
88 18 3 0 -15.832505279758324 -1.0974220113409014 -16.195910708625306 5 0 0
1427 316 4 0 -16.167082238885442 -0.3097603844979133 -15.80663074817973 5 0 0
2891 804 4 0 -16.51123885053445 -0.14665274973311782 -15.8505415704205 5 0 0
1426 316 2 0 -15.68739801621668 -0.2625900514714381 -15.579925813380084 5 0 0
1560 360 4 0 -16.245888234721757 -0.09126543750043936 -16.125364270060857 5 0 0
90 18 3 0 -16.497092481370196 -1.2252144319255667 -15.697837275618255 5 0 0
1428 316 4 0 -15.242720138191718 -0.2207875225903706 -15.372061954665334 5 0 0
2633 718 4 0 -14.818790116382829 -1.3915752027902641 -15.967049575211462 5 0 0
2632 718 2 0 -14.858564277056889 -0.9048423529182354 -15.760335946237264 5 0 0
2634 718 4 0 -14.906155588057237 -0.41381864379457056 -15.550596442993795 5 0 0
9616 3046 2 0 -12.449077328152214 -1.0994787083856572 -15.07320851275029 5 0 0
9617 3046 4 0 -12.463712508636467 -0.8924410513446706 -15.54300966570526 5 0 0
8920 2814 2 0 -9.304372333497284 -0.7335569643314841 -15.150541295274005 6 0 0
10254 3258 4 0 -8.720410663054675 -0.8690590597174044 -15.442164086363197 6 0 0
8921 2814 4 0 -9.040755548530795 -0.6728084679849378 -15.606341100999092 6 0 0
10252 3258 2 0 -8.214588270507411 -0.9356713729803943 -15.510691266526903 6 0 0
10253 3258 4 0 -7.665956971052683 -1.006049483567784 -15.590486109339112 6 0 0
9985 3169 2 0 -7.667305877359276 -0.5889713300285244 -16.38320786319456 6 0 0
9987 3169 4 0 -7.4975946199530945 -0.8620721824592579 -15.94847638437165 6 0 0
13491 4337 4 0 -7.4412347344346905 -1.2092050527966034 -15.83398797631097 6 0 1
13781 4434 4 0 -7.11659462127791 -1.0505167414517622 -15.98820804027439 6 0 1
9039 2853 4 0 -7.273771063824245 -0.9324490593407493 -15.625172150297228 6 0 0
9037 2853 2 0 -7.1661512229718785 -0.9741216565475224 -15.11836838852526 6 0 0
13780 4434 2 0 -6.762282886258996 -1.0952947509848183 -16.4278709560925 6 0 1
14149 4557 2 0 -5.49526729325356 -0.3860090927838016 -15.178354931673379 6 0 1
1494 338 4 0 15.391166927863441 -1.0722100088631166 -7.081429968243068 4 0 0
8890 2804 2 0 -5.280654387001961 -0.06220160644717154 -16.379603095712227 6 0 0
12919 4147 2 0 15.635978642226345 -1.2726515570159744 -5.600593026007321 4 0 0
13375 4299 2 0 -3.690104619856646 -0.6505065249437596 -16.15877144546922 6 0 1
13377 4299 4 0 -3.47266161184794 -0.6048354451409068 -15.692045765501865 6 0 1
14719 4747 2 0 -3.731338046431958 -1.032004725280892 -15.12435010970464 7 0 1
14720 4747 4 0 -3.415446710722655 -0.7139818218186829 -15.304927013201501 7 0 1
15704 5075 4 0 -3.437360597665144 -0.3379259846615561 -15.413606480817789 7 0 1
10293 3271 4 0 -3.1283533480830386 -0.5644499180540414 -15.495176808035867 7 0 0
15605 5042 4 0 -3.179621234961349 -0.46023992029270744 -15.121091767743911 7 0 1
10291 3271 2 0 -2.710847981606433 -0.49852652178766377 -15.78099239761966 7 0 0
14289 4603 4 0 -2.0267665519599056 -0.29872243633673534 -16.335977748919497 6 0 1
10292 3271 4 0 -2.3059797992787523 -0.43727426737938657 -16.05897718730333 7 0 0
3271 931 2 0 9.41203019689803 -1.138993565715758 -15.063320555043395 3 0 0
3272 931 4 0 9.73343349590488 -1.4632694328275253 -15.315581884209086 3 0 0
603 121 3 0 10.083436935553635 -1.3539729483435483 -15.48500348409331 3 0 1
604 121 3 0 10.099378093040666 -0.8349078072635479 -16.163247400097692 3 0 1
601 121 1 0 10.391610453204613 -1.0393045576990474 -15.786978529460983 3 0 1
602 121 3 0 10.600744533958625 -0.6568480807575412 -15.502441479725809 3 0 1
2217 579 4 0 10.267607338543506 -0.6676198416600112 -16.464212551468627 4 0 0
605 121 3 0 10.752988979732084 -1.3123542300996363 -15.99179047007172 3 0 1
1556 359 4 0 10.666781234637252 -0.38898325564136016 -15.240911235955359 3 0 0
6353 1958 4 0 10.726837344687478 -0.280910606185536 -15.606037163182885 3 0 1
2148 556 4 0 10.969628186119696 -0.555373663015363 -15.484413301778233 3 0 0
2146 556 2 0 11.442363354376628 -0.712344165005911 -15.522790149933574 3 0 0
3310 944 2 0 12.185837678713078 -1.2658656555542933 -16.18878336518612 4 0 0
2147 556 4 0 11.916547446614995 -0.8798627111287978 -15.56165267399816 3 0 0
3312 944 4 0 12.214148863140394 -1.081397297627614 -15.722438303220455 4 0 0
2340 620 4 0 12.270008872918677 -0.6978089761362956 -15.598204156730425 4 0 0
3251 924 4 0 12.240074427948553 -0.9824930463895427 -15.347499230546724 4 0 0
2338 620 2 0 12.491607535822457 -0.26699270872302705 -15.749722313467275 4 0 0