LAMMPS data file via write_data, version 4 Feb 2025, timestep = 2000000, units = lj

3100 atoms
4 atom types
2100 bonds
1 bond types
1250 angles
2 angle types

-10.410592 10.410592 xlo xhi
-10.410592 10.410592 ylo yhi
-10.410592 10.410592 zlo zhi
-6.394884621840902e-14 0 0 xy xz yz

Masses

1 1
2 1
3 0.1
4 0.1

Bond Coeffs # harmonic/omp

1 100 0.45

Angle Coeffs # harmonic/omp

1 100 180
2 100 109.471

Atoms # full

3055 985 4 0 -1.7131521907897653 -8.64368250021343 -9.655672946531098 32 1 1
295 65 4 0 -1.4089391155847704 -8.485335316844655 -9.913933196681521 12 0 1
293 65 2 0 -1.2380329831908519 -8.35788249918706 -10.319214682854762 12 0 1
1310 404 2 0 -6.240914807534712 -7.443427490263447 -9.948143851005868 29 1 0
1312 404 4 0 -6.4909794709020066 -7.223939519101207 -9.667439359511567 29 1 0
1311 404 4 0 -5.983421541533983 -7.672488258091207 -10.23814120435461 29 1 0
1626 509 4 0 -2.698532050131532 -7.402047276461757 -10.212280888771328 31 1 1
1476 459 4 0 -2.8370697664034905 -7.278454052024474 -9.87777274756559 11 0 1
2501 801 2 0 -10.169501766849939 -5.899635416248628 -10.349220270340947 30 1 1
2502 801 4 0 -9.718249478925722 -5.876057553103853 -10.228632465585195 30 1 1
2830 910 4 0 -9.297645098882665 -5.759957498925202 -10.252958286961885 31 1 1
1061 321 2 0 -2.794510168130082 -5.70373640769233 -9.679385480834014 14 0 0
1063 321 4 0 -2.549399627381473 -5.7696549592181325 -10.04672722658902 14 0 0
532 144 4 0 -1.0761559158367202 -4.441926546314244 -10.02400608928656 16 0 0
530 144 2 0 -0.7551624868914271 -4.522122898583831 -9.717239741393898 16 0 0
2732 878 2 0 -1.1638038437405722 -3.712921549133176 -10.365936683545812 32 1 0
2733 878 4 0 -1.2441682208096978 -4.113240189812893 -10.179056297656988 32 1 0
936 279 4 0 -0.9893491434235795 -2.9753702013089924 -10.3905240984964 32 1 0
935 279 2 0 -0.805820875153664 -2.5383827101586505 -10.379472456670978 32 1 0
937 279 4 0 -0.6340512622673682 -2.1368648120546307 -10.37498835608486 32 1 0
1990 630 4 0 -0.8447335507317657 -1.8619292728325085 -10.177407662383642 12 0 0
1988 630 2 0 -1.0718312456069246 -1.5373084681359437 -10.036028682533756 12 0 0
1989 630 4 0 -1.3084877823290846 -1.197511322148527 -9.8869104702602 12 0 0
2121 674 4 0 -1.6741855182635028 -1.2281404613177358 -9.731787464188727 11 0 1
502 134 4 0 -2.7610489183386546 -0.0575861501134991 -9.558469065913025 21 0 0
2832 911 4 0 -4.035481281621274 -8.582556635811201 -8.82105619465657 10 0 1
3053 985 2 0 -1.7951261650521708 -8.364679588836566 -9.327688089236398 32 1 1
3054 985 4 0 -1.885809647123109 -8.079283373627515 -9.007500572092445 32 1 1
2445 782 4 0 -6.427743868916011 -7.084976459994903 -9.291371731787795 30 1 0
563 155 2 0 -5.753631693069797 -7.597593009822489 -8.740810290928714 14 0 0
564 155 4 0 -5.425822256445226 -7.41556761098704 -8.954227375308747 14 0 0
2467 789 4 0 -5.1073375224330055 -7.206657178343422 -9.055229091646183 15 0 0
1475 459 2 0 -2.820069081046724 -7.208823719205979 -9.437033987857843 11 0 1
1477 459 4 0 -2.7980345568496032 -7.138754768272522 -8.993868997124265 11 0 1
70 14 3 0 -3.0199123519741304 -6.952015504114889 -8.695615459252641 11 0 0
2444 782 2 0 -6.335826595875468 -6.69691672030744 -9.103721125067787 30 1 0
2446 782 4 0 -6.243711697889917 -6.297275909334833 -8.901042086465866 30 1 0
2465 789 2 0 -4.801892151652337 -6.890323738489157 -9.136802988682787 15 0 0
2466 789 4 0 -4.487571323136836 -6.561628700412832 -9.217139932663523 15 0 0
1183 361 4 0 -4.1504011486623815 -6.389899305327651 -9.073695481023025 34 1 0
1181 361 2 0 -3.8044847606398475 -6.1010878986564165 -9.17783735871688 34 1 0
1062 321 4 0 -3.0701023379315906 -5.643651748366655 -9.280883447396155 14 0 0
1182 361 4 0 -3.4543858198990423 -5.793346866180669 -9.27952663179986 34 1 0
531 144 4 0 -0.4334322003646722 -4.617057884131771 -9.415399945901822 16 0 0
32 7 3 0 -0.4605300185162875 -4.596660853306024 -9.028842132038195 16 0 0
31 7 1 0 -0.32410624229199314 -4.9115113552347305 -8.743881922557136 16 0 0
34 7 3 0 -0.032675070518866534 -5.202730169200394 -8.96013009112991 16 0 0
2122 674 4 0 -2.047134846389426 -1.0599860062369508 -8.940112269956723 11 0 1
2120 674 2 0 -1.8724498825146103 -1.1380188053955393 -9.312479912261567 11 0 1
1180 360 4 0 -4.6024915994715805 -10.063128403514849 -8.242185591693849 32 1 1
255 52 4 0 -4.55660857222028 -9.64101302850423 -8.231371552507156 9 0 0
1178 360 2 0 -4.294976986992413 -10.380442349233462 -8.34614669312591 32 1 1
254 52 2 0 -4.424950966609298 -9.245207169977446 -8.419914772923386 9 0 0
256 52 4 0 -4.277427375489148 -8.825289779050001 -8.625670501958297 9 0 0
2831 911 2 0 -3.8759523492804524 -8.192532587674942 -8.673757680077957 10 0 1
2833 911 4 0 -3.7310990674243607 -7.81007232073232 -8.526378979274941 10 0 1
40 8 3 0 -6.201737501523214 -7.733308908275732 -8.149946468831494 11 0 1
565 155 4 0 -6.091188645942429 -7.788482872212988 -8.51655160736907 14 0 0
69 14 3 0 -3.5380049776271987 -6.943256824910528 -8.170471121667413 11 0 0
68 14 3 0 -3.4269589759950465 -7.563853840535245 -8.534914752025399 11 0 0
66 14 1 0 -3.233683043503068 -7.197081219019905 -8.360888939624546 11 0 0
67 14 3 0 -2.9344972975366606 -7.328823835174393 -8.051241522810795 11 0 0
976 292 4 0 -6.068142804366413 -6.150741371220531 -8.583907814879016 29 1 0
2731 877 4 0 -3.8097160253639846 -6.798789963110579 -7.927432477862316 12 0 0
974 292 2 0 -5.681866412490973 -5.8995959267844915 -8.522392690082695 29 1 0
975 292 4 0 -5.302039957955198 -5.655599389269585 -8.463708716178378 29 1 0
303 68 4 0 -5.2411232937872985 -5.412239317931827 -8.153317560665931 9 0 0
302 68 2 0 -4.862189234163692 -5.232206462649555 -7.971451658847307 9 0 0
2429 777 2 0 -1.1187572687476308 -5.369650522999374 -7.997158267302153 17 0 0
2430 777 4 0 -0.8276141104243209 -5.4101349521771755 -8.35739548738442 17 0 0
304 68 4 0 -4.51082588559248 -5.066263944590995 -7.813688464078557 9 0 0
3043 981 4 0 -2.5695773489485507 -4.583941360630848 -7.964180488921839 31 1 1
33 7 3 0 -0.661512714064223 -5.133566774328705 -8.594617641328044 16 0 0
35 7 3 0 -0.10551934443325806 -4.732894507691233 -8.419144591898988 16 0 0
2494 798 4 0 -3.6839161426279867 -4.085417162629615 -7.8262162723632045 29 1 0
3042 981 4 0 -3.26369190256528 -4.042307795059874 -7.837776585858322 31 1 1
3041 981 2 0 -2.913426151909671 -4.317111617648986 -7.900249414298803 31 1 1
2459 787 2 0 -3.7924746316095836 -1.89328386266979 -7.8854267849406 31 1 0
2461 787 4 0 -3.527092120367186 -2.1978999700597353 -8.057189848734264 31 1 0
1162 354 4 0 -3.1590472980580193 -2.2567097211639826 -7.9385237694454 30 1 0
1160 354 2 0 -2.759403437934229 -2.2482404286448734 -8.14366033808094 30 1 0
391 97 4 0 -2.0814795333758056 -2.4700365001027613 -8.56213904028319 12 0 0
1161 354 4 0 -2.350973231234075 -2.2450270129037477 -8.345233018731545 30 1 0
390 97 4 0 -1.244209657604797 -2.238546331757485 -8.319093877025264 12 0 0
389 97 2 0 -1.6579246272041779 -2.353976559566437 -8.438724774049035 12 0 0
484 128 4 0 -0.09520927095367959 -2.5929238042142178 -8.581000294254457 -4 -1 1
483 128 4 0 -0.8633203732736927 -2.1930586329043127 -8.427819307957963 -4 -1 1
482 128 2 0 -0.485400671777354 -2.3909623712963217 -8.503744199366293 -4 -1 1
896 266 2 0 -10.25745702648147 -9.91007983453239 -7.47862003939858 13 0 0
897 266 4 0 -9.842925942439368 -9.872916748840945 -7.333662821823239 13 0 0
1881 594 4 0 -9.499841104624497 -9.80459738849758 -7.131685005860157 31 1 0
1880 594 2 0 -9.117029239626628 -9.577809762231212 -7.1620463828276995 31 1 0
901 267 4 0 -1.5845859157104254 -10.085412618060163 -7.259048105637153 30 1 0
899 267 2 0 -1.2283012450283177 -9.8332481051927 -7.289380249839863 30 1 0
900 267 4 0 -0.8279663390787615 -9.565670815078331 -7.3065099411516305 30 1 0
883 261 4 0 -0.49933949734716165 -9.751989390642066 -7.38506075117837 14 0 1
881 261 2 0 -0.12851465740463652 -9.981246363504024 -7.395264709728043 14 0 1
1882 594 4 0 -8.722980410377891 -9.363014714193154 -7.192737065557038 31 1 0
1752 551 4 0 -8.574675575662726 -9.018057768310788 -7.061352347935786 11 0 0
1751 551 2 0 -8.137375121470306 -8.912942432738827 -7.13298144870562 11 0 0
1753 551 4 0 -7.707969758744657 -8.821669337380184 -7.195019143696875 11 0 0
1203 368 4 0 -0.06421513654258071 -9.104666947327907 -7.426855020849592 29 1 0
2161 687 4 0 -0.42533362124422247 -8.915282207340201 -7.262588362162896 10 0 1
2773 891 4 0 -7.5346505069387355 -8.598666512820413 -7.46259013260081 32 1 1
2771 891 2 0 -7.135547277304186 -8.380733482474861 -7.470541790741219 32 1 1
37 8 3 0 -6.480069972163992 -7.847784994671966 -7.464053550891048 11 0 1
2772 891 4 0 -6.721059843871297 -8.166113753023874 -7.478247463746161 32 1 1
36 8 1 0 -6.27839892453431 -7.554594882921899 -7.720392422067393 11 0 1
38 8 3 0 -6.527699961385981 -7.189777703873044 -7.753660698735769 11 0 1
39 8 3 0 -5.871726789959612 -7.439665173685443 -7.518967852050761 11 0 1
747 216 4 0 -5.584122323294683 -7.589689334141073 -7.758492927290897 11 0 1
746 216 2 0 -5.229839099171752 -7.323338154819638 -7.586781898297652 11 0 1
748 216 4 0 -4.908258469599026 -7.089641310652013 -7.432650610442823 11 0 1
2730 877 4 0 -4.537245144165295 -7.161717800278629 -7.5371753380689555 12 0 0
2729 877 2 0 -4.167782567081278 -6.9779547531134725 -7.7373950037401045 12 0 0
808 236 4 0 -7.47399565325078 -5.263651854979139 -7.22051215754947 15 0 0
1011 304 4 0 -7.130435699782931 -5.290511304008615 -7.024187901451203 15 0 0
2337 746 4 0 -1.780724007915893 -5.449324889691791 -7.547805437282369 11 0 1
2431 777 4 0 -1.4074213704751823 -5.320859580547948 -7.634988085151282 17 0 0
2325 742 4 0 -9.655471027432222 -4.823878152395892 -7.55938028462326 16 0 0
2324 742 2 0 -10.035699049956026 -4.622910394460731 -7.656785939741232 16 0 0
859 253 4 0 -9.425271026761699 -4.661714219259772 -7.280785042165963 15 0 0
857 253 2 0 -8.990787312393763 -4.7706733950821985 -7.2117246203216245 15 0 0
858 253 4 0 -8.568942856785423 -4.8867952559991386 -7.130041791674742 15 0 0
806 236 2 0 -7.894933970671207 -5.18658054640138 -7.068623532497568 15 0 0
1010 304 2 0 -6.781881358812784 -4.969984848497466 -7.133771022192472 15 0 0
1012 304 4 0 -6.463822766799307 -4.677291022917494 -7.236921728030207 15 0 0
2493 798 4 0 -4.442044467489657 -4.666045464009862 -7.76573142479432 29 1 0
2492 798 2 0 -4.0564043143789315 -4.3729846003162365 -7.799592284714732 29 1 0
2338 746 4 0 -2.459786879605992 -4.877534921663144 -7.70788199619236 11 0 1
2336 746 2 0 -2.115754560865165 -5.168663258618954 -7.627667516098444 11 0 1
1083 328 4 0 -6.379211135586673 -4.336821929731441 -7.057091430091003 35 1 0
2460 787 4 0 -4.05993161227203 -1.585827780945598 -7.7115541818590385 31 1 0
312 71 4 0 -2.174595017929569 -0.01082351927298042 -7.14796410350327 20 0 0
601 167 4 0 -2.446262779778688 -0.0679177383358045 -7.422003324359611 10 -1 1
548 150 2 0 -6.183408031558184 -10.106681717430238 -6.1526891568483455 10 0 0
549 150 4 0 -5.818032952416008 -10.201407296120884 -6.427430805010097 10 0 0
1935 612 4 0 -1.7298505492919336 -9.65740177523156 -6.165830599085049 7 0 0
1934 612 2 0 -1.3365422373942444 -9.414602965363812 -6.189281260915533 7 0 0
1936 612 4 0 -0.9463121285783131 -9.173082641855416 -6.2021320068067824 7 0 0
2159 687 2 0 -0.5422616035913457 -9.073921331366966 -6.860520799182237 10 0 1
2160 687 4 0 -0.6567542124988499 -9.227661938656484 -6.460121909239535 10 0 1
807 236 4 0 -8.325610971924673 -5.119462129951427 -6.919741463399632 15 0 0
1082 328 2 0 -6.008505026801496 -4.1997682929964935 -6.874828399088394 35 1 0
1084 328 4 0 -5.6262335615702455 -4.062718859975106 -6.680196185256345 35 1 0
546 149 4 0 -5.29237196663511 -3.837055703578242 -6.792492139086026 16 0 0
545 149 2 0 -4.961842313048066 -3.7483688321321944 -6.450280776106222 16 0 0
547 149 4 0 -4.651486981103985 -3.6549614573355287 -6.124648489405401 16 0 0
210 42 3 0 -4.253484300943903 -3.742590014753297 -6.194387814179211 17 0 0
208 42 3 0 -3.760832018549247 -3.6740505073090866 -6.769737895961461 17 0 0
206 42 1 0 -3.79126727248741 -3.7239429500090884 -6.321201461702651 17 0 0
209 42 3 0 -3.5832086169424553 -4.09992874751791 -6.202704265003916 17 0 0
2532 811 4 0 -3.161956794260509 -4.086780962846813 -6.206101648857032 17 0 0
207 42 3 0 -3.6038590348835404 -3.3839320283934633 -6.124198247567546 17 0 0
467 123 2 0 -9.675740832566959 -1.7373093890126228 -6.083973648660109 23 0 1
1122 341 4 0 -8.910026583671982 -1.8133725811036427 -6.100396160011129 23 0 0
468 123 4 0 -9.249601818193582 -1.5972712247876597 -6.167477283204075 23 0 1
550 150 4 0 -6.526067901484225 -10.016709661676535 -5.886377161920295 10 0 0
1855 585 4 0 -6.78357009075105 -9.732362712359517 -5.74455978761966 10 0 -1
1442 448 2 0 -2.4172840483226388 -9.54703967579801 -5.680415325870561 27 1 1
1443 448 4 0 -2.081223751203474 -9.675170309342645 -5.986320906532224 27 1 1
1979 627 2 0 -10.014958708818893 -9.292222087312346 -5.5339497980392025 9 0 0
1980 627 4 0 -9.602870611435232 -9.43019521763538 -5.4042156604819755 9 0 0
1527 476 4 0 -9.242669832698565 -9.313943064627843 -5.246485183823958 30 1 0
1854 585 4 0 -7.139695009850627 -8.886939224683806 -5.83278393596842 10 0 -1
1853 585 2 0 -6.958153031953321 -9.319815340551349 -5.788632577624346 10 0 -1
1444 448 4 0 -2.7306992121662477 -9.43566964580455 -5.393919962902739 27 1 1
1411 437 4 0 -8.344781039552387 -8.067654268774044 -5.701896642525118 9 0 0
1230 377 4 0 -8.047545223641997 -8.316195846933589 -5.757800870203286 30 1 0
1231 377 4 0 -7.223076172290569 -8.58996109291486 -5.574161153977609 30 1 0
1229 377 2 0 -7.641544320599074 -8.447697486866467 -5.662392571450409 30 1 0
1409 437 2 0 -8.567838893605279 -7.802628107035181 -5.448878573408819 9 0 0
2531 811 2 0 -2.8945745570039607 -4.362505630543219 -6.019514004559459 17 0 0
2533 811 4 0 -2.597276352179782 -4.660696717167365 -5.812314041523237 17 0 0
2139 680 4 0 -2.4229795562585554 -4.722914541523183 -5.459521062416321 17 0 1
2138 680 2 0 -2.0117030775716973 -4.554014117566735 -5.31892015056227 17 0 1
414 105 4 0 -1.4060022891014512 -4.2535626815566525 -5.477086701995011 11 0 0
413 105 2 0 -1.048886983743504 -3.971138025164591 -5.319730637126693 11 0 0
1713 538 4 0 -0.36841068831409274 -3.5669902744075523 -5.357071863334726 11 0 0
469 123 4 0 -10.093759454269716 -1.8845735770743008 -5.996109385087637 23 0 1
1819 573 4 0 -10.408325031009618 -1.677897525638917 -5.8823074412916165 24 0 -1
1121 341 2 0 -8.579081224702595 -1.5444796406515895 -5.869105061448942 23 0 0
1123 341 4 0 -8.265095098783362 -1.2966263502083208 -5.652325306198032 23 0 0
780 227 4 0 -8.123044558570852 -0.9366120840088676 -5.762705400152997 23 0 1
2239 713 4 0 -3.578032664350326 -1.4979549074961174 -6.019812166747528 18 0 1
2237 713 2 0 -3.410513393450877 -1.321515312412897 -5.6033157647806835 18 0 1
779 227 2 0 -7.8068709633722975 -0.7379450655420978 -5.5243169719845175 23 0 1
781 227 4 0 -7.471207589031051 -0.528366887081912 -5.278572250225113 23 0 1
1838 580 2 0 -2.186412823136269 -0.1579793393750233 -5.38817906525942 18 0 0
1840 580 4 0 -1.8307876279788484 -0.14700625161865766 -5.652516633760686 18 0 0
1652 518 2 0 -1.0717414814888144 -0.2669395434534998 -5.627335908810844 58 2 0
1654 518 4 0 -1.4516307613073849 -0.04826378735850234 -5.644175941183832 58 2 0
1653 518 4 0 -0.6835817339828179 -0.48733041509515296 -5.617643528600199 58 2 0
984 295 4 0 -0.34321200799763396 -0.6323306004135354 -5.845403846084961 36 1 0
1528 476 4 0 -9.131812674722696 -9.694797827865004 -4.467364539185692 30 1 0
1526 476 2 0 -9.187121437397579 -9.500427100260655 -4.850131608880005 30 1 0
460 120 4 0 -2.8884667104274966 -9.182119118546042 -5.1629614493794636 9 0 0
458 120 2 0 -3.1526617570585254 -9.294808915716409 -4.8050143598279424 9 0 0
459 120 4 0 -3.40870010718196 -9.404119608958498 -4.449428268627901 9 0 0
669 190 4 0 -9.724039651262322 -7.7928561295113745 -4.3470322437108475 10 0 0
670 190 4 0 -9.016662924270195 -7.654030646427014 -4.889585476711366 10 0 0
668 190 2 0 -9.357093849085125 -7.721510551315714 -4.633191731636397 10 0 0
1410 437 4 0 -8.787740847136412 -7.531532804011446 -5.193748744030933 9 0 0
1554 485 4 0 -8.580418160442242 -6.154695343822968 -4.660597941933755 30 1 0
2317 739 4 0 -8.282258441805922 -6.223107668463422 -4.413893254378455 13 0 0
1553 485 2 0 -8.989379979993322 -5.9946661625049185 -4.556762625729169 30 1 0
1555 485 4 0 -9.395054746686329 -5.830323526051398 -4.459973392609937 30 1 0
2140 680 4 0 -1.5978304848523557 -4.394087126031154 -5.170888197226348 17 0 1
2814 905 4 0 -6.902749249416005 -3.6391794321615425 -4.4913459891300125 29 1 1
619 173 4 0 -5.9015774874347535 -3.492287412053022 -4.866080293054353 9 0 1
2724 875 4 0 -5.497245212620891 -3.4949377049537826 -4.847549679185574 29 1 0
415 105 4 0 -0.7378147393282735 -3.7199831899814573 -5.187353162137201 11 0 0
2255 719 2 0 -10.094264361797366 -2.984315044057033 -4.687352517981955 17 0 1
2257 719 4 0 -9.647230674062152 -2.8339562585651796 -4.7225028778912455 17 0 1
753 218 4 0 -9.431304587589871 -2.6419153666802124 -4.461617724339084 14 0 0
618 173 4 0 -6.695706144210396 -3.2965075915854882 -4.451710033889265 9 0 1
617 173 2 0 -6.300669883541003 -3.393851071679962 -4.655212388810614 9 0 1
2723 875 2 0 -5.180216557197781 -3.281887110763024 -4.619978274374417 29 1 0
2725 875 4 0 -4.852901253506476 -3.0663734056706664 -4.392796048749675 29 1 0
712 204 4 0 -4.505025810074123 -2.905115310792266 -4.4761037255530445 10 0 1
710 204 2 0 -4.092631060614227 -2.8856069674628637 -4.3848519010780205 10 0 1
2964 955 4 0 -3.2938009527024876 -2.8089933957438697 -4.473318693739635 30 1 0
2303 735 2 0 -0.7225478093965965 -1.7800121395686723 -4.374386268393784 24 0 0
2238 713 4 0 -3.2449871456529644 -1.1437113041546887 -5.195046724855262 18 0 1
150 30 3 0 -2.9257271487877112 -1.0157911724983286 -4.974787351486601 18 0 0
2763 888 4 0 -2.040753653328915 -0.899507832006913 -4.524003344667621 27 0 1
25 5 3 0 -0.056171627454348894 -1.3614063892076125 -4.580892438151027 20 0 0
2305 735 4 0 -0.35219336399064183 -1.675827500893753 -4.597711741801188 24 0 0
2986 962 4 0 -7.159967445830363 -0.3867716779555028 -5.082451809521485 21 0 1
2984 962 2 0 -7.126830228763998 -0.2541105476447729 -4.661073775020384 21 0 1
146 30 1 0 -2.8138920782138133 -0.6862479534666672 -4.687525197052927 18 0 0
149 30 3 0 -2.8612458513779364 -0.2757417891623124 -4.909999787572068 18 0 0
148 30 3 0 -3.077392139113009 -0.7069084977103 -4.3392497853507495 18 0 0
1839 580 4 0 -2.538984259132782 -0.1570270038858439 -5.118225259602291 18 0 0
147 30 3 0 -2.3946515254228498 -0.7370838933731001 -4.557964679194338 18 0 0
2619 840 4 0 -9.188318046026941 -9.995512200517938 -4.192557592260294 30 1 0
2618 840 2 0 -8.801363461910963 -10.149150928607888 -4.058299930741174 30 1 0
2620 840 4 0 -8.37693261925426 -10.314717374566408 -3.9137617141976744 30 1 0
1632 511 4 0 -8.244431116760735 -10.122023261103378 -3.6080290503864028 10 0 1
1631 511 2 0 -7.802712312108184 -9.977929776859998 -3.5763198441413273 10 0 1
1633 511 4 0 -7.365650955061217 -9.844526811261524 -3.540437677162304 10 0 1
802 234 4 0 -6.974390442257141 -9.766280395480823 -3.580651973603918 29 1 0
801 234 4 0 -6.221195806156173 -9.843263302140437 -4.067451969205743 29 1 0
800 234 2 0 -6.59447267972606 -9.80882479450519 -3.826886137194391 29 1 0
1493 465 2 0 -5.456242858207178 -10.089598310989908 -4.134988626748901 11 0 0
1495 465 4 0 -5.891447929153024 -9.978824851994624 -4.267984203467602 11 0 0
1494 465 4 0 -5.037956924951298 -10.192232265474237 -4.019755592014391 11 0 0
580 160 4 0 -3.690783452739306 -9.35839494775243 -4.161011107417623 9 0 0
578 160 2 0 -3.5208921290762696 -9.208610673144534 -3.760346088755483 9 0 0
912 271 4 0 -9.915235704620123 -7.713931714573063 -4.0177055243013164 8 0 1
911 271 2 0 -10.359317634896822 -7.689008051514463 -3.973011941593512 8 0 1
2316 739 4 0 -7.932832926529173 -7.0048474613621305 -4.119585412681624 13 0 0
2700 867 4 0 -0.7418124307098655 -7.379216829190208 -3.7874103905076772 31 1 1
729 210 4 0 -0.33612341951699953 -7.3231244033899126 -3.7323395275489197 31 1 0
2315 739 2 0 -8.110865969314986 -6.609364521958077 -4.264408204494619 13 0 0
1948 616 4 0 -7.569492321696164 -6.897760193554522 -3.8930938220555484 13 0 0
1946 616 2 0 -7.170586720178164 -6.722087035144741 -3.7937653503625954 13 0 0
1947 616 4 0 -6.777970180401566 -6.540896133665001 -3.686749182567678 13 0 0
1041 314 4 0 -6.374143462535439 -6.574663606126182 -3.569954270454737 29 1 1
1040 314 2 0 -5.948529719302031 -6.4424734682580835 -3.5853406774161174 29 1 1
1042 314 4 0 -5.548950192616874 -6.309888463919682 -3.603846378777722 29 1 1
1581 494 4 0 -5.294200339299302 -6.013438428773966 -3.5409234027439753 31 1 1
1704 535 4 0 -8.387626848167834 -4.639473352433411 -3.5393714752164227 9 0 0
1703 535 2 0 -7.989493108583561 -4.383073368541546 -3.542945283849704 9 0 0
1492 464 4 0 -0.8424817963277871 -5.200372571353512 -4.046932983837227 51 2 0
1490 464 2 0 -0.6918403610707546 -5.037266474416266 -3.658586716480288 51 2 0
1705 535 4 0 -7.615109295443074 -4.134925385782831 -3.5344383205712813 9 0 0
2815 905 4 0 -7.42261186623794 -4.088488530984152 -3.885231810683077 29 1 1
2813 905 2 0 -7.171103596683118 -3.8697246481879226 -4.182497904623568 29 1 1
711 204 4 0 -3.6310268042088785 -2.859713262286287 -4.283374655258106 10 0 1
2963 955 2 0 -2.9080699213098713 -2.6322631155678744 -4.2840072027129175 30 1 0
752 218 2 0 -9.085155795721974 -2.4841488756819263 -4.227882635325053 14 0 0
754 218 4 0 -8.735725068796269 -2.3039389125680785 -3.986827021678053 14 0 0
2415 772 4 0 -8.341957486505034 -2.159034492056483 -3.9272349460231384 35 1 0
2414 772 2 0 -7.958611624057982 -2.224212138352579 -3.6835751021141148 35 1 0
2227 709 4 0 -7.240758986648223 -2.1915893313815236 -3.626997695740485 13 0 0
2225 709 2 0 -6.819155399643321 -2.1201632380239133 -3.517415994756611 13 0 0
2965 955 4 0 -2.5363999673722866 -2.456375173656479 -4.096423061740943 30 1 0
2029 643 4 0 -2.200379527109103 -2.2285383250063724 -4.072763840755676 21 0 0
2027 643 2 0 -1.7595078996295452 -2.0830911731300947 -3.986824737714514 21 0 0
2028 643 4 0 -1.3497813347842111 -1.9503912896837345 -3.900264707410379 21 0 0
2304 735 4 0 -1.070351275595188 -1.8722738974126703 -4.159964036902756 24 0 0
8 2 3 0 -4.3404353268746245 -1.3883677555343628 -3.538472887973633 17 0 0
1950 617 4 0 -3.9876309767819436 -1.3760693156864292 -3.7076933652179367 0 -1 0
1949 617 2 0 -3.675801755139968 -1.1373332048734177 -3.936203251326778 0 -1 0
1951 617 4 0 -3.3576019237072545 -0.9042190484648405 -4.152106579575373 0 -1 0
2762 888 2 0 -1.6999943032766485 -0.9095589321487871 -4.252591432674304 27 0 1
2764 888 4 0 -1.344968350415913 -0.913565425195392 -3.957377682279189 27 0 1
2985 962 4 0 -7.105450986433672 -0.10225326550159686 -4.22711004640663 21 0 1
1303 401 4 0 -6.741818833009377 -0.06644995866399128 -4.124102373208285 21 0 0
1540 480 4 0 -1.0413029232052384 -0.6535474443271845 -3.837545275720232 5 -1 1
1538 480 2 0 -0.6030938538268931 -0.7123127159142602 -3.77383285159042 5 -1 1
1539 480 4 0 -0.1653744870218219 -0.7555144357797872 -3.7124474061411785 5 -1 1
579 160 4 0 -3.344558733240267 -9.065221568476044 -3.3810444052242588 9 0 0
988 296 4 0 -2.9653866469744976 -9.204574888073102 -3.367977904265497 29 1 0
986 296 2 0 -2.6790169069421985 -8.968574448033891 -3.0838444469429387 29 1 0
987 296 4 0 -2.4013108184146663 -8.749184074704349 -2.7959211027512527 29 1 0
1852 584 4 0 -2.1351604050982402 -8.490403959245663 -2.6694924142118293 31 1 1
1850 584 2 0 -1.7652394353359249 -8.227224229881912 -2.7773736882071676 31 1 1
1851 584 4 0 -1.4254922975450217 -7.990312123616629 -2.879546956122332 31 1 1
2701 867 4 0 -1.1974154939230353 -7.8036101790318755 -3.150875769067971 31 1 1
2699 867 2 0 -0.9770329677543952 -7.596398557365231 -3.462195789335639 31 1 1
1217 373 2 0 -10.093742109299315 -6.633119045313044 -3.0502720942733417 32 1 0
1219 373 4 0 -9.721350256977017 -6.836736037210136 -2.8870842677759576 32 1 0
585 162 4 0 -6.659279488224625 -5.270175815905645 -2.6210825637551913 14 0 -1
1580 494 2 0 -4.902377982038403 -5.880958002247267 -3.36835843728453 31 1 1
1582 494 4 0 -4.503675126409268 -5.751391937030978 -3.182723245706522 31 1 1
273 58 4 0 -4.203172910777917 -5.576564573112428 -3.0021846244051984 31 1 0
272 58 2 0 -3.7945585735721474 -5.671846631750298 -2.8357945973922876 31 1 0
274 58 4 0 -3.3813718728695337 -5.760426433672775 -2.66438184023864 31 1 0
2668 856 4 0 -2.9669536368471316 -5.697453475843924 -2.7408526021127155 31 1 0
2666 856 2 0 -2.5504965063245253 -5.824902413574558 -2.6764431600882164 31 1 0
75 15 3 0 -0.3711109969409687 -5.824459736690701 -2.8906228535021725 30 1 0
71 15 1 0 -0.40431874865760165 -5.444423362568834 -2.679725071570979 30 1 0
2270 724 2 0 -8.959590611984886 -4.51846400248043 -2.973634660053869 9 0 1
2271 724 4 0 -9.308139381968749 -4.562018885806447 -2.669262948731724 9 0 1
2272 724 4 0 -8.635544671185485 -4.4714808734826414 -3.2689085595693097 9 0 1
1131 344 4 0 -2.8508764978795433 -4.548002389000385 -2.638356509706302 32 1 0
1130 344 2 0 -2.448321777801663 -4.401968408457759 -2.6659527620302974 32 1 0
1491 464 4 0 -0.5582466173856915 -4.865255207030397 -3.250624630281054 51 2 0
72 15 3 0 -0.5332727236749548 -5.137628978221684 -2.9665940459707203 30 1 0
1132 344 4 0 -2.019541375875736 -4.233813635274308 -2.6938913711841703 32 1 0
907 269 4 0 -1.6371168084201564 -4.214733969288131 -2.8012534839716334 11 0 0
905 269 2 0 -1.2835652493275287 -4.145303475705447 -3.0634756991949574 11 0 0
906 269 4 0 -0.9130835434998463 -4.061473130492527 -3.3340236826949754 11 0 0
1105 335 4 0 -0.630602730777138 -3.7500665979330217 -3.388099508527395 20 0 0
1103 335 2 0 -0.17962296993293947 -3.7598978338458116 -3.429279660241943 20 0 0
2416 772 4 0 -7.569224074484625 -2.281479476237756 -3.4401833486410744 35 1 0
2226 709 4 0 -6.401820415263535 -2.0497484895016562 -3.41060826490461 13 0 0
465 122 4 0 -6.143922697444885 -2.176805048135023 -3.145207101289862 17 0 0
464 122 2 0 -5.700695888914498 -2.0287411305988208 -3.1061512356625993 17 0 0
466 122 4 0 -5.245554850732492 -1.879938252406685 -3.0761657390338364 17 0 0
10 2 3 0 -4.877148553811989 -1.8111555680570088 -3.2367229096857644 17 0 0
6 2 1 0 -4.5331763711572375 -1.4932656625501188 -3.1622635355486386 17 0 0
7 2 3 0 -4.698721646696065 -1.121795438962934 -2.969726468689333 17 0 0
9 2 3 0 -4.224768633456956 -1.6713093983651515 -2.888881533584623 17 0 0
1342 414 4 0 -3.903809643257331 -1.4299338864355775 -2.8507917704967687 17 0 0
1340 414 2 0 -3.5108365815657496 -1.1600198867153235 -2.840225407187628 17 0 0
1341 414 4 0 -3.177292684980517 -0.9169320130854803 -2.8344619143143923 17 0 0
1482 461 4 0 -2.0102644465583133 -0.9214682440844619 -2.8963470409354333 17 0 1
15 3 3 0 -1.7339608750362654 -0.9143917963387302 -2.6138633121189416 17 0 0
1813 571 4 0 -4.614146086848935 -0.8147651593157175 -3.2079200028610124 17 0 0
1811 571 2 0 -4.576846983520064 -0.3585488964728256 -3.1940095942233393 17 0 0
1483 461 4 0 -2.868805257735814 -0.7082783287632779 -2.976963628525099 17 0 1
1481 461 2 0 -2.4249126423234175 -0.8206595605398821 -2.932325972615037 17 0 1
379 93 4 0 -5.26619612063936 -10.292721717619482 -2.593772446929828 11 0 -1
377 93 2 0 -4.8332139792840065 -10.337656774968469 -2.4006706549912984 11 0 -1
378 93 4 0 -4.40726644637097 -10.370871241343114 -2.204354561811927 11 0 -1
3036 979 4 0 -9.566044884620828 -6.74697259611813 -2.529525718695928 32 1 0
3037 979 4 0 -8.808119290932437 -6.914371413720688 -2.054414556573791 32 1 0
3035 979 2 0 -9.197375671510784 -6.831502367534011 -2.295098708242419 32 1 0
2667 856 4 0 -2.1170452560118562 -5.945918822676897 -2.596621982689241 31 1 0
1954 618 4 0 -1.873255044379544 -5.869100952152952 -2.252312562346214 32 1 0
1952 618 2 0 -1.4263621066155032 -5.805237323438336 -2.1894311885764015 32 1 0
1953 618 4 0 -1.0013187129082137 -5.726955484285845 -2.136593960621873 32 1 0
73 15 3 0 -0.002623236850352484 -5.336994305850716 -2.524873324196875 30 1 0
74 15 3 0 -0.7227905544979567 -5.482599281228825 -2.32531522965488 30 1 0
3031 977 4 0 -9.651596693748669 -4.616584666063989 -2.497957092190731 11 0 1
3029 977 2 0 -10.072425616157787 -4.7942673608471615 -2.3933164268634304 11 0 1
1603 501 4 0 -8.78610101914853 -4.612078343453681 -1.804851331631058 14 0 0
2672 858 2 0 -8.119924160491149 -4.993098475064861 -2.120230688172331 15 0 0
2673 858 4 0 -7.852587999727142 -5.198172770374926 -2.3829755528079364 15 0 0
2674 858 4 0 -8.406215765952561 -4.764797828861337 -1.8216692216610433 15 0 0
584 162 2 0 -7.063730065304867 -5.15360719847705 -2.495060410785447 14 0 -1
586 162 4 0 -7.472984397735429 -5.02393151635369 -2.3668039617859886 14 0 -1
1734 545 4 0 -6.437653460303098 -5.0941620685994735 -2.2973004922370084 14 0 0
1733 545 2 0 -5.983486429945103 -4.999822832396721 -2.2281836397559527 14 0 0
1735 545 4 0 -5.543435742447013 -4.91550207933193 -2.1639715162327438 14 0 0
793 231 4 0 -5.151182353725029 -4.9707070588933435 -2.1390105568414057 12 0 0
791 231 2 0 -4.70442533069663 -4.943796541070144 -2.1987641887283527 12 0 0
792 231 4 0 -4.292994807386439 -4.926037457405322 -2.2450506256638647 12 0 0
517 139 4 0 -3.940509344048392 -4.714890595473035 -2.233789648111733 13 0 -1
515 139 2 0 -3.5435243037279616 -4.514768891139292 -2.386797155787974 13 0 -1
516 139 4 0 -3.1728571305678273 -4.328285331325209 -2.525231917625235 13 0 -1
1624 508 4 0 -8.728463951627772 -2.8312163464485547 -1.9904308830298536 30 1 0
1622 508 2 0 -9.127105445522671 -2.643246113445393 -1.8589119860108276 30 1 0
498 133 4 0 -8.553962900439016 -3.167529115704829 -2.1559606260036173 10 0 0
497 133 2 0 -8.128813942068831 -3.2103262744546432 -2.2326555290471326 10 0 0
499 133 4 0 -7.697201633649765 -3.261144592435384 -2.3205835094289355 10 0 0
2022 641 4 0 -7.432530436328465 -2.9821673378942046 -2.35105518379193 10 0 0
950 284 2 0 -10.238846537027051 -2.428716648813541 -1.91460242885333 38 1 -1
952 284 4 0 -9.799632779489064 -2.372949263984955 -1.9560561275669723 38 1 -1
1623 508 4 0 -9.497150852548112 -2.4699031210596756 -1.7382057334479626 30 1 0