LAMMPS data file via write_data, version 4 Feb 2025, timestep = 1000, units = lj

8 atoms
4 atom types
6 bonds
1 bond types
7 angles
2 angle types

-1.5 1.5 xlo xhi
-1.5 1.5 ylo yhi
-1.5 1.5 zlo zhi
0 0 0 xy xz yz

Masses

1 1
2 1
3 0.1
4 0.1

Bond Coeffs # harmonic/omp

1 100 0.45

Angle Coeffs # harmonic/omp

1 100 180
2 100 109.471

Atoms # full

4 1 3 0 0.40961918983176715 -0.23109304794267382 -1.3041811607203546 0 0 0
5 1 3 0 0.48306818833503185 -0.9527057152515236 -1.3700465780062856 0 0 0
1 1 1 0 0.6623584257480104 -0.5879871335021958 -1.1840250237489789 0 0 0
2 1 3 0 1.0886474271710567 -0.5359268177471896 -1.342615614274599 0 0 0
3 1 3 0 0.6686034699711696 -0.6338607823180912 -0.7399992791960522 0 0 0
6 2 2 0 0.22059018967867505 -0.4547484418805232 0.5093890884331849 0 0 0
7 2 4 0 0.4875983494971057 -0.10159535554284105 0.5111434967369446 0 0 0
8 2 4 0 -0.05515952649887623 -0.8221469107127463 0.5041375606522918 0 0 0

Velocities

4 1.3567241379374895 -0.37147388589502334 -0.2633350373600035
5 0.4248782174365432 0.7204270542391655 -0.6968540544080163
1 0.6349794912048279 -0.18856184706402043 -0.16950234552338916
2 0.2110703581758071 -1.4560772641601163 0.013455778656883539
3 2.346223316344019 0.7816308250572689 0.3528650077042015
6 0.3036055865847729 0.16007921553555407 0.301829546954509
7 -0.2849356317329015 -0.67053945608926 -0.359232793729637
8 2.99593805094983 1.07556118723974 -0.09729761029184818

Bonds

1 1 1 2
2 1 1 3
3 1 1 4
4 1 1 5
5 1 6 7
6 1 6 8

Angles

1 2 2 1 3
2 2 2 1 4
3 2 2 1 5
4 2 3 1 4
5 2 3 1 5
6 2 4 1 5
7 1 7 6 8
