LAMMPS data file via write_data, version 4 Feb 2025, timestep = 10500000, units = lj

4000 atoms
4 atom types
3000 bonds
1 bond types
3500 angles
2 angle types

-10.515914 10.515914 xlo xhi
-10.515914 10.515914 ylo yhi
-10.515914 10.515914 zlo zhi
2.1316282072803006e-14 0 0 xy xz yz

Masses

1 1
2 1
3 0.1
4 0.1

Bond Coeffs # harmonic/omp

1 100 0.45

Angle Coeffs # harmonic/omp

1 100 180
2 100 109.471

Atoms # full

101 21 1 0 -0.4131168849624771 -9.90415672345952 -10.126351430551502 4 0 0
102 21 3 0 -0.6212330427476207 -10.297952495808618 -10.231757667154861 4 0 0
103 21 3 0 -0.5924071020509913 -9.723645278446932 -9.724721075819684 4 0 0
104 21 3 0 0.059714455564687796 -9.989674339749923 -10.064300325374218 4 0 0
3153 718 4 0 0.45795432264788083 -9.988590848075217 -10.072513784927324 3 0 1
3152 718 2 0 0.9085473339904127 -10.017726490827568 -10.211644712010864 3 0 1
3154 718 4 0 1.340333535823774 -10.037636688174882 -10.343178528399973 3 0 1
105 21 3 0 -0.4731989555848255 -9.617928682446216 -10.460564105145659 4 0 0
23 5 3 0 2.967963114866979 -8.481289919089239 -10.431700104438171 3 0 0
21 5 1 0 3.3108740988017455 -8.16916404356735 -10.369171065930235 3 0 0
25 5 3 0 3.191534240108677 -7.903810958071232 -10.03034663334843 3 0 0
24 5 3 0 3.6804636165780824 -8.366900390104114 -10.273106334167235 3 0 0
932 187 3 0 -7.141292163183686 -6.793270291090199 -9.701404416872128 3 0 1
1823 365 3 0 1.6517288879197558 -5.274124414072677 -10.29404893588011 6 0 0
2543 515 2 0 6.274066606856904 -5.890606022145484 -9.700453423464841 3 0 0
2545 515 4 0 6.584984128534012 -5.553873589571407 -9.76733437671106 3 0 0
1098 220 3 0 6.958746086939671 -5.663758799965005 -9.70219138439641 3 0 1
1099 220 3 0 7.541646369844182 -5.491341184410409 -10.146326751188843 3 0 1
1096 220 1 0 7.167706373541533 -5.321443139639764 -9.934803597776236 3 0 1
192 39 3 0 -4.118608282211864 -4.523979896409866 -10.019776276843096 4 0 0
191 39 1 0 -3.885392727461272 -4.678184901301365 -10.366695769442181 4 0 0
193 39 3 0 -3.9497894243473626 -5.1354221869454815 -10.41028202095913 4 0 0
195 39 3 0 -3.4429343382042736 -4.5890041992185076 -10.302171196771937 4 0 0
2572 524 4 0 -2.5209894333956537 -4.384059767428004 -10.40791884230044 7 0 0
1822 365 3 0 1.3161087788168615 -4.663717789322912 -10.319653578613439 6 0 0
1097 220 3 0 6.88268137988875 -5.1529125989897455 -10.245897127587293 3 0 1
3213 738 4 0 6.554713189790883 -5.090818272769202 -10.498389966201227 6 0 1
1100 220 3 0 7.294767677554697 -4.9996792981711975 -9.658354435183979 3 0 1
1472 295 3 0 -5.589344101699777 -4.056952528828244 -10.194533660278061 8 0 0
1471 295 1 0 -5.169030657540327 -3.914594859360509 -10.234020042894608 8 0 0
1475 295 3 0 -4.926136026210149 -4.1218848813878255 -9.953530586792425 8 0 0
59 12 3 0 -2.5674695454414005 -4.032329696743913 -10.203408286380334 6 0 0
56 12 1 0 -2.2573278892397663 -3.685477237709402 -10.152800592606454 6 0 0
58 12 3 0 -1.8906144812072974 -3.7727995220216055 -10.389986419658491 6 0 0
57 12 3 0 -2.136349245385718 -3.638731406163294 -9.700308759880832 6 0 0
3170 724 2 0 -1.322340418086661 -4.341786246855504 -10.40737327578333 5 0 1
3171 724 4 0 -1.6914544113149255 -4.122690661115608 -10.305363416866788 5 0 1
2317 464 3 0 -10.191641870257227 -3.4786555874893192 -9.857017523003874 8 0 1
2316 464 1 0 -10.221596953242349 -3.2808357436507505 -10.245367391389703 8 0 1
2319 464 3 0 -9.930765330132244 -2.9251816758249003 -10.253512606211428 8 0 1
3035 679 2 0 -5.256077126817113 -2.849204196769305 -9.933998159575566 8 0 1
3037 679 4 0 -5.204551521183724 -3.10394264778259 -10.312904005214833 8 0 1
1474 295 3 0 -5.153948382195293 -3.4753487234043954 -10.160985515802558 8 0 0
2928 643 4 0 -1.8207624221329315 -3.4011199957790295 -9.652109196040717 6 0 0
60 12 3 0 -2.4435601420896873 -3.3045607068882497 -10.290028970036074 6 0 0
258 52 3 0 -0.3963977538985848 -3.214250503799051 -9.910566168604026 5 0 0
2802 601 4 0 2.2012043386111397 -2.7886903765003206 -10.432772903748035 9 0 0
3362 788 2 0 9.673812183819736 -3.126186197716195 -10.324999778446175 10 0 0
2318 464 3 0 10.401323680146293 -3.1274419160218976 -10.304952352277873 7 0 1
3363 788 4 0 10.073520019400549 -3.188886579273845 -10.089320175403712 10 0 0
1577 316 3 0 -7.647445852086828 -1.8355366031087037 -10.037215217682684 10 0 0
2998 666 4 0 -7.778078625638601 -1.8464956215292343 -9.645444286579375 7 0 1
1579 316 3 0 -6.950553556539607 -1.8993131689028253 -10.285955627179325 10 0 0
172 35 3 0 -4.555429126522892 -2.0793746954943817 -9.642946827991423 8 0 0
2687 563 2 0 -3.872370331237992 -1.9447247530237828 -9.87769389114539 8 0 0
2689 563 4 0 -4.307036610601432 -2.01731234939877 -9.925443043370418 8 0 0
2688 563 4 0 -3.384213110069923 -1.883515701331783 -9.840474080899018 8 0 0
3278 760 2 0 -1.1260740830887137 -2.0381589599381744 -10.437078795881916 10 0 0
3279 760 4 0 -1.0017612369953888 -2.417132884230348 -10.241141697996559 10 0 0
2461 493 1 0 -0.17540616309931956 -2.548386431740811 -10.511610645941678 10 0 1
2463 493 3 0 -0.5840707614028684 -2.3983873983790023 -10.323504925905294 10 0 1
2464 493 3 0 0.16144293693455225 -2.4741180934382374 -10.23439135073759 10 0 1
1424 285 3 0 2.578090792544467 -2.6281140143581583 -10.362954856859508 10 0 0
1422 285 3 0 3.3016716187296105 -2.4148645799760384 -10.29907978624882 10 0 0
1576 316 1 0 -7.365351098491983 -1.728110403923445 -10.381301926173629 10 0 0
1578 316 3 0 -7.342887010989315 -1.2877387659805368 -10.41617012323784 10 0 0
3225 742 4 0 -7.009870950509022 -1.154113922021315 -10.233188700995742 11 0 0
3313 771 4 0 -1.7536216137747793 -1.0027599589108345 -9.94378683816589 9 0 0
402 81 3 0 -1.0345864084561072 -1.31574980384387 -10.500520155561977 7 0 0
3378 793 4 0 -0.2820700432700143 -1.6333279922622044 -9.770789741689066 8 0 0
3377 793 2 0 0.07495971407074009 -1.4837217953683144 -10.027068513606835 8 0 0
3379 793 4 0 0.4197272239953982 -1.3349868963703972 -10.271145629021591 8 0 0
955 191 3 0 0.6448903086577964 -1.0369129188362525 -10.432351271912598 9 0 1
3224 742 2 0 -7.086206122842136 -0.7650976924689346 -10.00560830951046 11 0 0
3226 742 4 0 -7.157788923905155 -0.3955645161169805 -9.773978897763484 11 0 0
403 81 3 0 -1.5770572340547737 -0.8565819812571469 -10.266090356736514 7 0 0
404 81 3 0 -0.9341168419158681 -0.5978499141361233 -10.479452130787427 7 0 0
2651 551 2 0 -0.18752740761684272 -0.30770771760436233 -10.430969283613999 7 0 0
2652 551 4 0 -0.6491191860496404 -0.3215862754434191 -10.470602390501657 7 0 0
2653 551 4 0 0.2902584330443574 -0.2939396199099438 -10.38329543279193 7 0 0
953 191 3 0 0.7173841920744142 -0.3218457589592081 -10.334397172700664 9 0 1
952 191 3 0 1.3076867608648257 -0.7747900189999086 -10.206750671091143 9 0 1
3244 748 4 0 1.5832420964978073 -0.6639886499478607 -9.917985442058022 8 0 0
951 191 1 0 0.9237468339258328 -0.700735089160549 -10.470800224904266 9 0 1
3242 748 2 0 1.937343926241315 -0.36470447607754153 -9.843754679444483 8 0 0
38 8 3 0 2.6169765141358603 -0.19743643605758265 -9.690424068718636 9 0 0
3243 748 4 0 2.2625136488757374 -0.0914717617712828 -9.776266934136439 8 0 0
3276 759 4 0 6.117426765243538 -0.10513175665727381 -10.208264843092307 10 0 0
1150 230 3 0 6.235060681158695 -0.429049809777732 -10.424377889309639 7 0 1
2229 446 3 0 -2.7510805465312904 -9.921369938649574 -8.885781367808999 13 1 1
2228 446 3 0 -2.014416894354774 -9.996528524110781 -8.792537118774717 13 1 1
3158 720 2 0 -1.3397192137553784 -9.89661023180176 -9.34797699861593 3 0 1
3160 720 4 0 -0.9765623535137617 -9.783078556825611 -9.589550872986061 3 0 1
3159 720 4 0 -1.7067300271810026 -10.003706782935694 -9.092803327709913 3 0 1
1278 256 3 0 7.685100907953361 -10.33468125533941 -8.766878929928689 17 1 0
1479 296 3 0 -5.788371927492374 -8.200760890681135 -9.111574349723982 13 1 0
1476 296 1 0 -5.439881906397231 -7.930279341008216 -9.046866385360431 13 1 0
1478 296 3 0 -5.047062090553538 -8.186754054146038 -9.108165240780478 13 1 0
1480 296 3 0 -5.458711718002145 -7.590853923094621 -9.337643915437834 13 1 0
663 133 3 0 5.59230061764117 -7.137984818830596 -9.184073114274208 5 0 1
931 187 1 0 -7.260447999783098 -6.533183712621941 -9.340387956900651 3 0 1
933 187 3 0 -7.5104745174301275 -6.200762827183496 -9.473731160916227 3 0 1
934 187 3 0 -7.513039494570122 -6.798160443301215 -9.038252002856522 3 0 1
935 187 3 0 -6.882748557566086 -6.369976743690773 -9.12515101606249 3 0 1
572 115 3 0 -5.8703429668204485 -6.939197761830345 -8.803475541490606 5 0 0
2544 515 4 0 5.97531750387129 -6.196447990464043 -9.638982047926328 3 0 0
664 133 3 0 5.5665547659749155 -6.415347683603289 -8.977705812138174 5 0 1
665 133 3 0 5.9886976983199585 -6.600788215325937 -9.565438437166316 5 0 1
661 133 1 0 5.836593441872912 -6.7327208912568794 -9.135912000274745 5 0 1
662 133 3 0 6.1877443261042355 -6.796320642581204 -8.864615751435181 5 0 1
2 1 3 0 -1.045892829122728 -4.663181215920422 -9.612962781336858 5 0 0
5 1 3 0 -0.9046618168016725 -4.891604272345959 -8.943534017171743 5 0 0
3 1 3 0 -0.3517034414330684 -4.632490018952145 -9.354756167365599 5 0 0
1 1 1 0 -0.800913482987303 -4.592514772263479 -9.247577267282637 5 0 0
1539 308 3 0 -3.953997151163602 -3.551467965808863 -8.963663033910032 17 1 0
4 1 3 0 -0.8766257758327711 -4.17442215825812 -9.078697112333794 5 0 0
364 73 3 0 -6.977336452876797 -3.1810760197748555 -9.31301142454611 6 0 0
361 73 1 0 -6.8857953373317375 -2.8863680079861647 -8.967072410486264 6 0 0
363 73 3 0 -6.49645346878014 -2.6872686369695353 -9.059258902975554 6 0 0
2927 643 2 0 -1.3825783814721166 -3.30356578052609 -9.572157615162482 6 0 0
2929 643 4 0 -0.9269179484531929 -3.2036992038412926 -9.486279377579026 6 0 0
259 52 3 0 -0.6569031275819626 -2.9997646407680616 -9.278732491580376 5 0 0
256 52 1 0 -0.2814291285081101 -3.1170100156718004 -9.522936057158836 5 0 0
257 52 3 0 -0.08182010431881004 -3.480014161808402 -9.319910626516743 5 0 0
260 52 3 0 0.0077234188178731955 -2.7601677399556825 -9.538428360329144 5 0 0
365 73 3 0 -7.197471519268637 -2.5966474730638316 -8.941939521248253 6 0 0
2997 666 4 0 -7.471443994891235 -2.585901762220809 -9.228942872287222 7 0 1
2996 666 2 0 -7.628068087737645 -2.223065592126469 -9.43244718613754 7 0 1
3031 677 4 0 -6.3094062318444815 -2.3748407597262062 -8.965502488518608 8 0 1
3036 679 4 0 -5.309458247543429 -2.5753546224350625 -9.53073397877853 8 0 1
3029 677 2 0 -5.875056987228377 -2.397886053328934 -9.068773041764652 8 0 1
3030 677 4 0 -5.456279711887 -2.4195658969611085 -9.178611830544552 8 0 1
174 35 3 0 -5.071413367316056 -2.379276827566825 -9.237118486723666 8 0 0
175 35 3 0 -4.488704789634453 -2.1543502479346532 -8.90317616746499 8 0 0
171 35 1 0 -4.779253808829235 -2.0732843953624513 -9.233300678260736 8 0 0
1313 263 3 0 -3.0527263622012892 -1.9170763548827328 -9.621257291130252 8 0 0
1314 263 3 0 -3.049841768535586 -1.794605825618655 -8.892451629282819 8 0 0
1311 263 1 0 -2.8029088954845216 -1.7892387600336512 -9.269941867842041 8 0 0
1312 263 3 0 -2.4258294811842873 -2.0733684534484365 -9.230634895330853 8 0 0
3946 982 4 0 -2.058793028829351 -1.967404002174808 -9.29214793358631 8 0 1
3944 982 2 0 -1.6414812649640549 -1.9453162782931948 -9.128051412631324 8 0 1
7 2 3 0 -0.9662408528451376 -1.7879635368830549 -9.22238419069922 7 0 0
3945 982 4 0 -1.2411662390118252 -1.9160787339614078 -8.973115427931758 8 0 1
6 2 1 0 -0.5102003432953719 -1.8318197529250408 -9.21412956345762 7 0 0
10 2 3 0 -0.3775245938104721 -1.9876325161824564 -9.609570437354161 7 0 0
9 2 3 0 -0.39313363660159695 -2.1125476003375585 -8.894149544810777 7 0 0
1002 201 3 0 3.3637573688684093 -2.4049199241221846 -9.492950244225693 7 0 1
1004 201 3 0 3.007484896058246 -2.33867879940353 -8.869560779419553 7 0 1
1001 201 1 0 3.3654192718613345 -2.1919115182645488 -9.129629206362079 7 0 1
1003 201 3 0 3.318236277811854 -1.761832065641153 -9.209143409606469 7 0 1
2596 532 4 0 2.703961314878134 -2.095381915987309 -8.820618381997523 7 0 0
1005 201 3 0 3.7497305430283117 -2.265820976035174 -8.917279107536531 7 0 1
3250 750 4 0 4.0812638184056595 -2.16469075066502 -9.081389987182241 7 0 0
3248 750 2 0 4.525326750417177 -2.0817818449902816 -8.988475585361373 7 0 0
3249 750 4 0 4.958551579810283 -1.9949134231988594 -8.89115840044278 7 0 0
80 16 3 0 5.3189572284992135 -1.7915043844866911 -8.873230855593565 7 0 0
173 35 3 0 -4.977520917700391 -1.6806345884697684 -9.172608021225775 8 0 0
1315 263 3 0 -2.6573187170324184 -1.3618444162663899 -9.337239501148597 8 0 0
3311 771 2 0 -2.0595429845996147 -1.021350445851903 -9.616544806582535 9 0 0
3312 771 4 0 -2.39523913418415 -1.0359704933873388 -9.26878011390626 9 0 0
8 2 3 0 -0.3285578369858779 -1.455805579925002 -9.14356908686989 7 0 0
1262 253 3 0 -9.685417224968486 -0.010667619804799244 -9.191294181862748 14 0 0
1446 290 1 0 -7.3282668260357715 -0.009329321180768346 -9.137166100610644 11 0 0
1449 290 3 0 -7.331692653247295 -0.10131367990369178 -9.56078945193291 11 0 0
2716 572 4 0 -7.468914066273572 -0.779891609300833 -8.791254946807342 11 0 0
1450 290 3 0 -7.4025933915617745 -0.38951395010594503 -8.894014091150833 11 0 0
39 8 3 0 3.2238272022760075 -0.18145168967863334 -9.231900298583463 9 0 0
3342 781 4 0 3.540745994096813 -0.43759866934158786 -9.201100537927948 9 0 0
3341 781 2 0 3.940410394416613 -0.30829544143570864 -9.18313643793771 9 0 0
3343 781 4 0 4.372750136517265 -0.17960349458509128 -9.17066599534475 9 0 0
774 155 3 0 4.727154185677726 -0.12245123444433936 -9.322137234149926 9 0 0
771 155 1 0 5.1216164933483945 -0.15406101035376807 -9.062170061247683 9 0 0
773 155 3 0 5.156970482772087 -0.5969867132655988 -8.87954173284272 9 0 0
775 155 3 0 5.475509855503374 -0.07225594975650651 -9.327989477971965 9 0 0
2227 446 3 0 -2.494463816086464 -10.252705336495632 -8.298086713132069 13 1 1
2226 446 1 0 -2.41580310066718 -9.933022167848765 -8.586085282245076 13 1 1
3151 717 4 0 5.050684088232794 -9.92334979424322 -8.424927557646507 3 0 1
445 89 3 0 5.0795594593507385 -10.335814269983155 -8.44974924960955 6 0 0
2925 642 4 0 6.083037425656604 -10.13669656989245 -8.23317307285671 6 0 0
443 89 3 0 5.795614743416946 -10.415676715594842 -8.254441852146824 6 0 0
2924 642 2 0 6.52166785403765 -10.03008796049261 -8.23897409391776 6 0 0
2926 642 4 0 6.952066578484173 -9.932658959513924 -8.237377378407865 6 0 0
1276 256 1 0 7.648453528638237 -10.304595591965766 -8.32605902865577 17 1 0
1277 256 3 0 7.341464223344692 -9.997934783784828 -8.221646356603559 17 1 0
1279 256 3 0 8.048253723029715 -10.19399287254672 -8.146075078733531 17 1 0
2230 446 3 0 -2.4144768395193204 -9.54085492389812 -8.364203604116852 13 1 1
2788 596 4 0 -2.0434158152817865 -9.396166529756881 -8.352550111541929 5 0 0
2786 596 2 0 -1.9902184056779948 -9.014492298973309 -8.092281641436196 5 0 0
3149 717 2 0 5.046711162157418 -9.485382361006474 -8.178006978483122 3 0 1
3150 717 4 0 5.058691925701838 -9.109679308549381 -7.970112759945725 3 0 1
3884 962 2 0 -5.921512763950118 -8.047358445848978 -8.068341144418884 13 1 1
3886 962 4 0 -5.600354285883462 -8.055279236826841 -8.358960905067025 13 1 1
2592 531 4 0 -5.2607806130990555 -7.897255849103798 -8.30497151014191 3 0 0
1477 296 3 0 -5.452732337718393 -7.777949391972461 -8.634483048669562 13 1 0
573 115 3 0 -5.729352743525955 -7.28631505146622 -8.152794180920889 5 0 0
2591 531 2 0 -4.842019015092065 -7.864621368937678 -8.07970684012058 3 0 0
3835 945 4 0 7.037863381739468 -7.029975666035815 -7.94714726862713 13 1 1
1258 252 3 0 7.178090928636221 -7.392140225859849 -7.893267174857694 3 0 1
575 115 3 0 -6.282148970313135 -6.770049582679151 -8.182867171075282 5 0 0
571 115 1 0 -5.858621640085629 -6.8878844585751935 -8.349196047941758 5 0 0
574 115 3 0 -5.550603620243078 -6.5488067039571725 -8.227152338602165 5 0 0
2551 517 4 0 -5.156293626759373 -6.4977441208384565 -8.147110332241658 4 0 0
2549 517 2 0 -4.795265772414908 -6.218476031874099 -8.172266152676453 4 0 0
1216 244 1 0 -3.5816907159005273 -6.140623407806523 -8.032902858269894 6 0 1
1217 244 3 0 -3.4311119205682425 -6.28313712158775 -8.427022112601929 6 0 1
140 28 3 0 0.6396829688703036 -6.37824986171973 -8.259413033227807 6 0 0
138 28 3 0 1.2938968463685132 -6.438402230185264 -7.925293871832194 6 0 0
136 28 1 0 0.9672082080158084 -6.16404688728007 -8.022792204714264 6 0 0
3833 945 2 0 6.782721562643799 -6.918992404325451 -8.293575403941635 13 1 1
3834 945 4 0 6.515730781684722 -6.7957711343519165 -8.652658986053709 13 1 1
17 4 3 0 9.379644866983606 -6.413514058076772 -7.9112025638692 3 0 0
2550 517 4 0 -4.440661667939496 -5.937344213445575 -8.197897491328407 4 0 0
1218 244 3 0 -4.049898200623401 -6.051519830666496 -8.061145563036177 6 0 1
1220 244 3 0 -3.3765311323273117 -5.741166168013882 -7.927298597200433 6 0 1
137 28 3 0 1.1210564894682893 -5.832137207658237 -8.266893014459061 6 0 0
2709 570 4 0 9.24860501681229 -6.053992233128086 -7.93708850730803 4 0 0
3333 778 4 0 -0.696141986326607 -5.111527276759854 -8.672945341543425 17 1 0
3332 778 2 0 -0.5221162263742407 -5.069387536515736 -8.240118976991281 17 1 0
1537 308 3 0 -3.659360028261678 -3.9645875410207534 -8.42691058900146 17 1 0
1536 308 1 0 -3.712457204319727 -3.5436912384715598 -8.595109094510436 17 1 0
1117 224 3 0 -1.502601637251475 -3.5758868661096894 -8.117603177397772 6 0 1
362 73 3 0 -6.856123511843085 -3.1181081625666662 -8.568325137603539 6 0 0
1540 308 3 0 -3.9112069097149673 -3.2900547792074226 -8.289521507503764 17 1 0
1538 308 3 0 -3.29792245478008 -3.3665395393804936 -8.68992833842175 17 1 0
1120 224 3 0 -1.9600921545659915 -3.0635046948839495 -7.88708057362668 6 0 1
2673 558 4 0 -0.9757665580096422 -2.9458667420893594 -8.055036788061257 5 0 0
2672 558 2 0 -0.7671205378548613 -2.6692906677342485 -8.334646974192108 5 0 0
3121 707 4 0 -4.189257101901047 -1.9940871590824987 -8.680653388746792 7 0 1
3119 707 2 0 -3.731518138234758 -1.8828609877627986 -8.640761086146536 7 0 1
3120 707 4 0 -3.2883941780428856 -1.7825627720571777 -8.606029972238929 7 0 1
2674 558 4 0 -0.5567957791442595 -2.375902538745544 -8.640239277661392 5 0 0
2622 541 4 0 -0.19402849336008643 -2.2608609632201997 -8.60126180273805 7 0 0
2621 541 2 0 0.24297502090030854 -2.173926242015762 -8.464032069785464 7 0 0
2623 541 4 0 0.6851007319365294 -2.088271336502123 -8.331085767657754 7 0 0
161 33 1 0 1.2321381908690547 -1.80881424595667 -8.095816960025454 7 0 0
163 33 3 0 1.6277211245122416 -1.8947937296573105 -8.300523989564935 7 0 0
2594 532 2 0 2.345952924582754 -2.053808220714073 -8.504513990243796 7 0 0
2595 532 4 0 2.010751318071879 -2.007349968870942 -8.215444587444123 7 0 0
79 16 3 0 5.982413099261814 -2.133939575617756 -8.744699652433392 7 0 0
76 16 1 0 5.6373376515487745 -1.8725313081849713 -8.554682039879614 7 0 0
77 16 3 0 5.465672144650947 -2.0908828066667855 -8.230951594233566 7 0 0
2714 572 2 0 -7.568030393395986 -1.0438414849009785 -8.43655084020991 11 0 0
2715 572 4 0 -7.671197661173862 -1.3078271894182603 -8.078558621408217 11 0 0
164 33 3 0 0.9307949591688445 -1.7369835074483397 -8.405544223191379 7 0 0
78 16 3 0 5.8111058326097496 -1.4863364234734906 -8.40681715393252 7 0 0
1263 253 3 0 -9.404298881037096 -0.3551869544651396 -8.565934854662105 14 0 0
767 154 3 0 -8.122943542920327 -9.921864837312418 -7.132620280948767 3 0 0
768 154 3 0 -7.458358436115194 -10.085989687050336 -7.0572120007136565 3 0 0
442 89 3 0 5.276225004198739 -10.408021741657562 -7.75487411283671 6 0 0
998 200 3 0 3.084133021899193 -9.358717316686144 -7.531127864211617 4 0 1
996 200 1 0 2.9328243300827275 -8.991598985478314 -7.327732691324652 4 0 1
2994 665 4 0 3.718609591114701 -8.830430237907972 -7.246370138572813 4 0 1
166 34 1 0 5.2088872424422465 -8.884888813831056 -7.292819275976382 3 0 0
167 34 3 0 5.26997898859638 -9.183906958432036 -7.635968917784343 3 0 0
3885 962 4 0 -6.24356893736528 -8.04243526662958 -7.782554242749683 13 1 1
921 185 1 0 -4.14079548569665 -8.02581870347906 -7.168298938255859 3 0 1
925 185 3 0 -4.062350187848706 -8.436998263164092 -7.043783043265842 3 0 1
922 185 3 0 -4.134601038800911 -8.002114689830824 -7.6524094018335385 3 0 1
738 148 3 0 -1.768408799576207 -8.668755019058839 -7.498457467925677 3 0 0
2787 596 4 0 -1.9384529224258031 -8.633076917932534 -7.830878936225714 5 0 0
736 148 1 0 -1.632441064869374 -8.66971858403924 -7.089762521166546 3 0 0
740 148 3 0 -1.173625098960759 -8.639633944446183 -7.09986422831186 3 0 0
997 200 3 0 2.697739865377029 -8.741990878441277 -7.62867692157948 4 0 1
999 200 3 0 3.3190363618284593 -8.742399541768396 -7.151824298872434 4 0 1
2993 665 2 0 4.111569954582523 -8.62506916510026 -7.230704358916091 4 0 1
2995 665 4 0 4.486621970378216 -8.430514228377252 -7.21623135285929 4 0 1
168 34 3 0 4.773592857635961 -8.732023369956547 -7.287854648387001 3 0 0
170 34 3 0 5.488107590414112 -8.528994778529919 -7.3595351152417114 3 0 0
2679 560 4 0 5.833919491572386 -8.28844681565875 -7.343127113856811 4 0 0
2678 560 2 0 6.274487985744829 -8.167282225675182 -7.396514770119397 4 0 0
2680 560 4 0 6.710088168974261 -8.045511359511176 -7.435695700120834 4 0 0
1257 252 3 0 7.116104339841398 -8.002930297934666 -7.47626631347048 3 0 1
568 114 3 0 -6.217144781179833 -7.824610601333229 -7.451270279320396 3 0 0
566 114 1 0 -6.349118873169987 -7.881772394245683 -7.0301427144955815 3 0 0
2593 531 4 0 -4.436219294296668 -7.835419339466232 -7.866815615300226 3 0 0
2514 505 4 0 -0.5822857672345201 -7.503826024913504 -7.035202923651562 4 0 0
129 26 3 0 0.1801829400192272 -7.191113426895681 -7.476518565619201 4 0 0
126 26 1 0 0.22029196361032355 -7.413832733833514 -7.08953709362379 4 0 0
127 26 3 0 0.4707900912341483 -7.7959159810205225 -7.16159542801175 4 0 0
2580 527 4 0 2.4272542083641664 -7.4381935212099215 -7.31234441942649 3 0 0
2579 527 2 0 2.844366992993404 -7.2562057398138835 -7.423939406438929 3 0 0
2581 527 4 0 3.2655457147745324 -7.075076473629861 -7.522162487612581 3 0 0
418 84 3 0 3.593440685592009 -7.231002021486786 -7.30421107240737 3 0 0
1259 252 3 0 7.209173249050194 -7.381188860975015 -7.138718949958568 3 0 1
1256 252 1 0 7.317000110115705 -7.630155755704228 -7.500744219940871 3 0 1
1260 252 3 0 7.7437372030708875 -7.686536917082687 -7.5124502600913186 3 0 1
2512 504 4 0 8.008874015218312 -7.371740598100523 -7.543836470534826 3 0 0
2510 504 2 0 8.462641542066121 -7.3423220796094935 -7.605004892475307 3 0 0
2511 504 4 0 8.945583936902961 -7.3024943158401125 -7.659166286272399 3 0 0
19 4 3 0 9.282657873112319 -7.078853193227792 -7.5645538610030485 3 0 0
2670 557 4 0 -9.91757171399338 -6.206903485363051 -7.364561878117646 4 0 0
2669 557 2 0 -10.336524248116438 -6.408064494397789 -7.4210058894509325 4 0 0
1219 244 3 0 -3.4974342798209053 -6.443704054223171 -7.705751831113114 6 0 1
419 84 3 0 4.111115920482137 -6.7355042835456445 -7.182344989772135 3 0 0
2605 535 4 0 7.5268101897555955 -6.2040485868190105 -7.159446411264846 3 0 0
2603 535 2 0 7.459712015357619 -6.609366342456335 -7.0680289640445295 3 0 0
18 4 3 0 9.485543503776748 -6.483385078366466 -7.1462403625912385 3 0 0
16 4 1 0 9.528682653860985 -6.700941319404642 -7.567512760900025 3 0 0
20 4 3 0 9.955306430343201 -6.794204179361579 -7.623459829543525 3 0 0
2671 557 4 0 10.282923597567374 -6.608630968777282 -7.472865877990033 3 0 0
210 42 3 0 -9.601861568796576 -5.9765030361203335 -7.173630234738179 4 0 0
2677 559 4 0 -3.0595999757665275 -5.808872475561052 -7.698414786871891 7 0 0
2675 559 2 0 -2.7725676254039646 -5.682200091597886 -7.404021136794774 7 0 0
2658 553 4 0 -2.1015511784279557 -5.41985118564663 -7.0304399595071905 6 0 0
2676 559 4 0 -2.4706800851035986 -5.546235990318191 -7.101681769602357 7 0 0
2780 594 2 0 0.24701437471562393 -5.5938356605784305 -7.149363124892789 6 0 0
2782 594 4 0 0.5874043627099415 -5.733318006659132 -7.392509024693248 6 0 0
139 28 3 0 0.78607484596386 -5.990873234171131 -7.636309071485442 6 0 0
27 6 3 0 7.7069025358822625 -5.834914475609567 -7.254852520074901 4 0 0
2710 570 4 0 8.644383608209784 -5.442229737449718 -7.596312577369082 4 0 0
26 6 1 0 8.05834861073817 -5.6855926524923435 -7.066907364814396 4 0 0
28 6 3 0 8.344782477392668 -5.55363595476155 -7.362153350054301 4 0 0
2708 570 2 0 8.950562077507515 -5.744929613491038 -7.762568035521747 4 0 0
2657 553 2 0 -1.7736635656150899 -5.110972601549471 -7.028520029831707 6 0 0
2659 553 4 0 -1.4355574003520193 -4.784800673474637 -7.035378841458662 6 0 0
227 46 3 0 -1.1029332956362712 -4.991977349328128 -7.053224825776558 5 0 0
3334 778 4 0 -0.33763745644151477 -5.031905123086176 -7.802462366792408 17 1 0
226 46 1 0 -0.6749302872979932 -4.987939410365683 -7.177929417672565 5 0 0
229 46 3 0 -0.6397726720842556 -5.19131119426082 -7.573503390373389 5 0 0
230 46 3 0 -0.5272116531242226 -4.5753285256638145 -7.207637833373864 5 0 0
3957 986 4 0 -1.647264993398304 -3.8634083579780594 -7.186714772720375 7 0 1
1118 224 3 0 -1.6127771192455906 -3.526133885383369 -7.412556941929501 6 0 1
2980 660 4 0 -0.2687227889874446 -4.310989172047355 -7.087044616307561 6 0 1
1116 224 1 0 -1.5670215233688154 -3.3066732979704323 -7.8006469183504485 6 0 1
1119 224 3 0 -1.21922527000444 -3.0273440781860153 -7.76429937047129 6 0 1
1510 302 3 0 -9.62048291596728 -1.9331859484269298 -7.603304766561019 17 1 0
1506 302 1 0 -9.559594947186438 -2.040919507586114 -7.176380848796875 17 1 0
1509 302 3 0 -9.462215693722298 -2.4889354457609265 -7.143887146563457 17 1 0
2177 436 3 0 -7.631914919610227 -1.7847730421251295 -7.158577107015575 11 0 1
162 33 3 0 1.1197022529070946 -2.14061309640495 -7.857526127528811 7 0 0
2180 436 3 0 -8.193451153555568 -1.285096734869919 -7.0703195837072155 11 0 1
2179 436 3 0 -7.757822961105276 -1.2508094724978829 -7.68661137803625 11 0 1
2176 436 1 0 -7.760402384788852 -1.346688947061308 -7.236378505335553 11 0 1
2178 436 3 0 -7.475594740713669 -1.071891917142315 -7.027073042556741 11 0 1
165 33 3 0 1.267589750734114 -1.4254532916116176 -7.822460969956024 7 0 0
708 142 3 0 6.624129001270452 -1.249171739441353 -7.397153914561853 8 0 0
534 107 3 0 -8.849632084108983 -0.3050417936592549 -7.521815294771052 11 0 1
2751 584 4 0 -7.137380181200237 -0.8626545993163219 -7.103632179569328 11 0 0
2752 584 4 0 -6.28165836545949 -0.5175558981705954 -7.20566364016822 11 0 0
2750 584 2 0 -6.710000078903541 -0.6940252983790014 -7.159023172496334 11 0 0
359 72 3 0 -5.9794265536888025 -0.2547601371593835 -7.186687895864139 10 0 0
3257 753 2 0 -1.8700836745004192 -0.15438884472952275 -7.328193044931387 11 0 0
3258 753 4 0 -2.2326866841390007 -0.20253531637529143 -7.077627900866323 11 0 0
3259 753 4 0 -1.4925363733747492 -0.10893433179209389 -7.585056700790961 11 0 0
706 142 1 0 6.730210382428707 -0.8450669736942054 -7.212217951429585 8 0 0
709 142 3 0 6.350745998344609 -0.6061605504369805 -7.138744434953466 8 0 0
710 142 3 0 7.000135913776633 -0.610196067527669 -7.493799644991566 8 0 0
770 154 3 0 -7.9121798958366885 -10.299047250600212 -6.563619530906799 3 0 0
766 154 1 0 -7.79970839959411 -9.97624147122326 -6.852987658456204 3 0 0
1900 380 3 0 -9.330187771843992 -9.173203404871513 -6.231275292292942 14 1 0
2606 536 2 0 -8.008264716635104 -8.919077350538187 -6.599760291466717 4 0 0
1897 380 3 0 -8.687219388745048 -8.771828692849732 -6.290124723823815 14 1 0
2608 536 4 0 -7.662427135422909 -9.197031157614235 -6.733991426113398 4 0 0
769 154 3 0 -7.729722584062961 -9.58272979576714 -6.615769419725996 3 0 0
737 148 3 0 -1.7495500259587988 -9.038435396130016 -6.900320701867259 3 0 0
1000 200 3 0 2.6384066855451778 -9.111269428219943 -6.975221486471995 4 0 1
169 34 3 0 5.313068147650023 -9.099754716072518 -6.894309894366559 3 0 0
2607 536 4 0 -8.350412154261681 -8.641000216901721 -6.469198623109501 4 0 0
569 114 3 0 -6.655880255888572 -8.235720344437235 -7.009217064578458 3 0 0
567 114 3 0 -5.979187038469372 -7.986395799643898 -6.775844930762117 3 0 0
739 148 3 0 -1.8146135525141354 -8.306073033088156 -6.853510636280329 3 0 0
2515 505 4 0 -0.9738202201901895 -8.347193388135308 -6.9031761370009415 4 0 0
2513 505 2 0 -0.7746734171463583 -7.923137443761245 -6.9682395753303386 4 0 0
1484 297 3 0 9.553936714123397 -8.291556243795386 -6.2010086215357925 13 1 0
570 114 3 0 -6.536035058242998 -7.515201973966926 -6.872142307957638 3 0 0
3436 812 4 0 -6.615904383482091 -7.11749354088202 -6.894277054629051 13 1 0
2740 580 4 0 -5.673539716443846 -7.870786679162381 -6.980196886250258 3 0 0
2738 580 2 0 -5.261569718529019 -7.792847871730272 -6.868548859353968 3 0 0
924 185 3 0 -4.564384081163055 -7.885301890531833 -7.000187664420614 3 0 1
2739 580 4 0 -4.818760371274277 -7.711327873493394 -6.74619078376314 3 0 0
923 185 3 0 -3.8247156036529013 -7.762088355959346 -6.989969404911188 3 0 1
2664 555 4 0 -3.5925196134255684 -7.505645341988893 -6.768207668014014 3 0 0
2663 555 2 0 -3.5216713970072853 -7.519481088279642 -6.3437186014283276 3 0 0
130 26 3 0 -0.1979315204611254 -7.527559688414465 -6.923673049300762 4 0 0
128 26 3 0 0.43365734015654134 -7.155739091388776 -6.793474290112272 4 0 0
189 38 3 0 2.3087601211918507 -7.200837692366777 -6.983152822786611 3 0 0
188 38 3 0 2.084589369205103 -7.6111716816642785 -6.392791521193013 3 0 0
186 38 1 0 2.1289185018047885 -7.178336293016318 -6.574564124239015 3 0 0
420 84 3 0 4.173232828364743 -7.390346069566384 -6.898076233287621 3 0 0
416 84 1 0 3.8868001750982 -7.078171715425218 -7.002830912085218 3 0 0
2604 535 4 0 7.39676391820919 -7.067145352078339 -6.97434068825497 3 0 0
208 42 3 0 -9.09763969767646 -6.224987008966595 -6.673245162088952 4 0 0
627 126 3 0 -8.246486313889061 -6.270265722322249 -6.500132626750178 3 0 0
626 126 1 0 -7.82976000448758 -6.317035695823326 -6.349687804482948 3 0 0
630 126 3 0 -7.551802463838702 -6.337853603725808 -6.690875355943144 3 0 0
3435 812 4 0 -7.440173448023342 -6.742155290231885 -6.679120100667769 13 1 0
3434 812 2 0 -7.03243211282551 -6.930118822293567 -6.779016182268229 13 1 0
317 64 3 0 -2.4625679729391443 -6.351127758721421 -6.4365608690965805 6 0 0
2530 510 4 0 0.6329943753350893 -6.810791585862261 -6.672080714098119 3 0 0
187 38 3 0 1.7405226873911523 -6.982127789127077 -6.591612702854997 3 0 0