LAMMPS data file via write_data, version 4 Feb 2025, timestep = 8000000, units = lj

3435 atoms
4 atom types
2576 bonds
1 bond types
3004 angles
2 angle types

-10 10 xlo xhi
-10 10 ylo yhi
-10 10 zlo zhi
0 0 0 xy xz yz

Masses

1 1
2 1
3 0.1
4 0.1

Bond Coeffs # harmonic/omp

1 100 0.45

Angle Coeffs # harmonic/omp

1 100 180
2 100 109.471

Atoms # full

1940 388 3 0 -4.4605647160850515 -9.549520278732146 -9.195739558972512 1 -1 1
298 60 3 0 -0.20463751034245803 -9.93042970924867 -9.881707179740916 6 0 1
2264 469 4 0 6.9602400215378 -9.325248088894835 -9.852250408351118 9 1 1
1592 319 3 0 7.265619826601167 -9.182112957948318 -9.67095964847627 13 1 0
3277 807 2 0 -1.409310759513417 -8.60925693006072 -9.635527870701603 20 2 0
3279 807 4 0 -1.312323795038136 -8.783159202812012 -9.208690274488188 20 2 0
1768 354 3 0 5.828501608064606 -8.62349878309005 -9.947831079276295 8 0 1
1593 319 3 0 7.2589663303356495 -8.467376682157665 -9.415192052194184 13 1 0
1594 319 3 0 7.840575550203425 -8.734507170266973 -9.77473396777107 13 1 0
1591 319 1 0 7.402939728499515 -8.74431940448063 -9.759109124445455 13 1 0
910 182 3 0 3.8684603125814583 -6.6112385766489545 -9.97996641334642 11 1 0
3047 730 4 0 -5.216892822565953 -5.551596755491877 -9.834787986069927 6 0 -1
1110 222 3 0 -5.54306600980231 -5.807939917451693 -9.907164336093063 12 1 0
1632 327 3 0 -1.555347602449773 -5.46134505383611 -9.697938014435255 3 0 1
3378 840 4 0 -0.025880967269198862 -5.786899256973564 -9.630833348561776 11 1 1
3046 730 2 0 -4.888444097090034 -5.258692066520642 -9.775849777331192 6 0 -1
3048 730 4 0 -4.5677944033892 -4.976096382474525 -9.713106902590962 6 0 -1
1958 392 3 0 -4.274650226905604 -4.724899969561513 -9.695062564592225 12 0 1
1500 300 3 0 0.07784961241882016 -5.426940006523285 -9.449947020648434 5 0 -3
1956 392 1 0 -4.0586670213168485 -4.317202120881102 -9.6903946938837 12 0 1
1960 392 3 0 -4.2819418200641115 -4.034951389381444 -9.418936483841199 12 0 1
1959 392 3 0 -3.6322338621038455 -4.373210133077826 -9.540591791617475 12 0 1
540 108 3 0 6.60374459766053 -4.1694361625251455 -9.711188714672742 -3 -1 1
137 28 3 0 -9.945400924869558 -2.9360055474347106 -9.500024677944575 3 -1 1
2166 436 4 0 -9.685649871704397 -2.7360375905186984 -9.248754301459549 19 1 1
1188 238 3 0 2.6909137033990262 -2.7600400472072355 -9.501823073960805 -1 -1 2
1187 238 3 0 3.3827894947585087 -2.9877490922218986 -9.499903062866606 -1 -1 2
136 28 1 0 9.813941337520717 -2.9212299750461 -9.868030818145005 2 -1 1
138 28 3 0 9.356429262659308 -2.9390489483692672 -9.742376862963088 2 -1 1
2099 420 3 0 -0.5785312483564695 -2.028548979836863 -9.836511226114153 5 0 1
1186 238 1 0 3.1037890583291112 -2.6752698868619706 -9.344528761907418 -1 -1 2
1190 238 3 0 3.233819145424299 -2.264553388425443 -9.476363317624296 -1 -1 2
2639 594 4 0 3.2941689883877245 -1.9659377953822457 -9.211153431391375 8 0 0
14 3 3 0 -1.7247160440830136 -0.9314895153768639 -9.696592343975736 5 0 0
3024 722 4 0 -1.903119824372057 -1.2710522126777306 -9.62035678984133 10 0 0
3022 722 2 0 -1.816593847902558 -1.427722033672774 -9.201829497480723 10 0 0
2098 420 3 0 -0.7757406279552406 -1.328101265681056 -9.811965559373093 5 0 1
2096 420 1 0 -0.49497610821381066 -1.6362243978348285 -9.640296877713547 5 0 1
2100 420 3 0 -0.560829225404536 -1.6706443299222151 -9.200881843376502 5 0 1
2097 420 3 0 -0.07020560990401314 -1.5173457474487542 -9.710129002160222 5 0 1
2638 594 2 0 3.611324987420259 -1.6371723003642238 -9.303465761329074 8 0 0
2640 594 4 0 3.934157391133674 -1.3101919958438373 -9.396921561231858 8 0 0
1007 202 3 0 4.118355512536358 -1.0730967622666068 -9.652447228700161 11 0 1
1006 202 1 0 4.582637541238119 -1.0553846602579515 -9.6736772827198 11 0 1
1008 202 3 0 4.756694295987202 -1.33438393644097 -9.370667633013793 11 0 1
15 3 3 0 -1.866470823635506 -0.20435701991830868 -9.607655011752318 5 0 0
11 3 1 0 -1.6762865281279122 -0.5177177205905679 -9.873397930122785 5 0 0
12 3 3 0 -1.227158926313228 -0.4347996221391952 -9.914986630747105 5 0 0
3242 795 4 0 -0.5083436339679803 -0.32232744549120973 -9.162952169171385 4 0 1
1010 202 3 0 4.7146776019782095 -0.6373640892689636 -9.588690623328638 11 0 1
3219 787 4 0 4.906191807623536 -0.32019285628281224 -9.699845166880225 10 0 0
3217 787 2 0 5.368768830986889 -0.23504496974340938 -9.777747156289472 10 0 0
802 161 3 0 6.074132140935507 -0.42205160882955717 -9.905680027774851 10 0 2
3218 787 4 0 5.812891843134567 -0.15349903175913582 -9.852899864299161 10 0 0
801 161 1 0 6.4841468299403076 -0.5861947038781281 -9.990155168608162 10 0 2
803 161 3 0 6.666701156815179 -0.7302941545195623 -9.597801002177253 10 0 2
1939 388 3 0 -5.041298602700952 -9.738192761431824 -8.795702565537086 1 -1 1
1936 388 1 0 -4.690838517686369 -9.899324602050372 -9.006697673429645 1 -1 1
1563 313 3 0 -1.7055774695658865 -9.788856620887284 -8.981752633413027 13 1 1
1561 313 1 0 -1.7262934399346204 -9.354833580222685 -8.830932928078614 13 1 1
1562 313 3 0 -2.0905050755712455 -9.163143707262908 -8.984704296355979 13 1 1
1564 313 3 0 -1.353155122278233 -9.125005583819805 -8.984342714017462 13 1 1
1565 313 3 0 -1.718443125047866 -9.34331158050179 -8.388622912389417 13 1 1
2094 419 3 0 1.2562386007051565 -9.625960021947153 -8.812185210901816 12 1 0
2095 419 3 0 1.2728361680633444 -9.110321282871192 -8.267608015331467 12 1 0
2091 419 1 0 1.3449840798558927 -9.168864825047713 -8.702661752558107 12 1 0
1057 212 3 0 -4.4592802608012025 -8.22453575927061 -8.400038189331864 6 -1 0
2093 419 3 0 1.0744693330715993 -8.900940017019456 -8.928730179139782 12 1 0
2092 419 3 0 1.7486325148718684 -9.074172762690464 -8.80464371166364 12 1 0
1058 212 3 0 -5.155987088300172 -8.175062377826197 -8.384383649965317 6 -1 0
1056 212 1 0 -4.788950831829735 -7.968512212347624 -8.3104638464056 6 -1 0
1060 212 3 0 -4.775767631278843 -7.613526514570098 -8.553210862920187 6 -1 0
1704 341 3 0 0.1914315152593904 -6.431930256123407 -8.652911235667249 7 0 0
1499 300 3 0 0.3785043734185418 -5.547956426762199 -8.796886347190227 5 0 -3
1702 341 3 0 0.030510888445444806 -5.853034422738256 -8.226249495339426 7 0 0
1701 341 1 0 0.30491160970343145 -6.204713127879261 -8.277214955905956 7 0 0
1705 341 3 0 0.7260528876546317 -6.067268521156047 -8.30651830228255 7 0 0
380 76 3 0 3.9631539122987736 -6.293973690144156 -8.408962334888452 10 1 0
1497 300 3 0 -0.23897097093097486 -5.162093341323761 -8.837857754135687 5 0 -3
1496 300 1 0 0.1588423971518811 -5.256103786003563 -9.038674854642187 5 0 -3
1498 300 3 0 0.4074454421398439 -4.8803118220210475 -9.07217825883696 5 0 -3
2164 436 2 0 -9.306925119085875 -2.7611056228437416 -9.023768260691961 19 1 1
337 68 3 0 -8.715311385561339 -2.9110065013060993 -8.483445245920272 10 0 -1
336 68 1 0 -8.322517283108294 -3.0350776528413093 -8.293417915645705 10 0 -1
2165 436 4 0 -8.936337919012434 -2.7822764219367535 -8.804215766060713 19 1 1
339 68 3 0 -8.172171115758584 -3.4205945033779495 -8.475009070205314 10 0 -1
270 54 3 0 -9.771884805166078 -2.1659930731933708 -8.79685701331626 9 0 -1
340 68 3 0 -8.024698689267774 -2.7118179673797727 -8.343986412848194 10 0 -1
2036 408 1 0 -1.6441954658571092 -1.894242698435681 -8.22319942911669 14 1 1
2040 408 3 0 -1.8218588446109116 -1.9315792405825825 -8.648682507545237 14 1 1
2516 553 4 0 -1.1887676889640577 -2.565562308200258 -8.18749486192931 8 0 0
1189 238 3 0 3.1000028257009244 -2.700007038776926 -8.900213588022806 -1 -1 2
2712 618 4 0 3.273110285795646 -2.6065008321390106 -8.536286943907893 3 0 0
2710 618 2 0 3.323338239645576 -2.1811634829449744 -8.397789445655953 3 0 0
269 54 3 0 9.546715542427918 -2.2564799726330964 -9.046672948565096 8 0 -1
266 54 1 0 9.851036171883337 -1.9614153615353676 -8.832339715264691 8 0 -1
268 54 3 0 9.68913506315807 -1.851124993966133 -8.433649447880393 8 0 -1
3023 722 4 0 -1.7383898436102854 -1.581322983770832 -8.786080926689637 10 0 0
2038 408 3 0 -1.4064178443789572 -1.4923328483240805 -8.196845285231248 14 1 1
2711 618 4 0 3.36827765591374 -1.760573094951397 -8.253864200966598 3 0 0
267 54 3 0 9.890160431690912 -1.6024313253095954 -9.08012459201625 8 0 -1
3243 795 4 0 -0.7273644652657296 -0.8261284100565671 -8.438759176813354 4 0 1
3241 795 2 0 -0.6216923921056878 -0.5875604743747758 -8.791525920656078 4 0 1
197 40 3 0 -0.19790854559573567 -0.1461474271312575 -9.02309246590502 5 0 -1
3324 822 4 0 1.431185365058127 -9.398340828642091 -8.033707465871387 13 1 1
3322 822 2 0 1.4631844962299851 -9.520249218374142 -7.59834960206868 13 1 1
2087 418 3 0 8.647126395157663 -8.508291513068002 -7.764835913502932 9 1 0
2086 418 1 0 8.451513687845058 -8.266458299365546 -7.410680923674485 9 1 0
1059 212 3 0 -4.770298434043085 -7.850539897671046 -7.876047705501871 6 -1 0
2089 418 3 0 8.284208880221293 -7.8915922852187625 -7.574244913374007 9 1 0
3057 733 4 0 0.32360532066440406 -6.833112736445375 -7.62416948440434 2 0 0
1703 341 3 0 0.2481208605146037 -6.518808038494153 -7.885772640449869 7 0 0
378 76 3 0 4.374134324004011 -6.605171079895928 -7.892758343342354 10 1 0
3035 726 4 0 4.486290902182336 -6.673277925576956 -7.522682202249549 10 1 1
1513 303 3 0 -1.62885777042937 -6.3160161073474725 -7.389899862876027 5 0 1
2833 659 2 0 -1.7869695968112396 -5.75643502403724 -7.900992053354499 13 1 0
2834 659 4 0 -1.584448371859727 -6.140146761254288 -7.7614226404560345 13 1 0
379 76 3 0 3.8019679275115266 -6.194936665065364 -7.699849502503833 10 1 0
377 76 3 0 4.3968557183581165 -5.89636116626341 -7.995611632642552 10 1 0
376 76 1 0 4.143195432709323 -6.248371599574114 -7.999847680784764 10 1 0
2835 659 4 0 -2.000303504038044 -5.385046929703942 -8.038818439848185 13 1 0
338 68 3 0 -8.38757581872379 -3.0885435267034893 -7.858349555113419 10 0 -1
2517 553 4 0 -0.9435079800355446 -2.8854271965886706 -7.403370378812202 8 0 0
2037 408 3 0 -1.9807216852435658 -1.895104115283285 -7.931186255655212 14 1 1
2039 408 3 0 -1.386975263401439 -2.2313705793188543 -8.14407489917081 14 1 1
2515 553 2 0 -1.0763963563617978 -2.7204745786889255 -7.809843184281532 8 0 0
1490 298 3 0 -1.2264256228278896 -1.4890077691780625 -7.686356325979287 12 1 0
1486 298 1 0 -0.8373750988269304 -1.2040120939266803 -7.729424567189016 12 1 0
1488 298 3 0 -0.7775323697864316 -1.1022992690787135 -8.143409788111923 12 1 0
1489 298 3 0 -0.4639702252099571 -1.4284641305851693 -7.566558602671377 12 1 0
1243 249 3 0 3.358977234997404 -1.6375289201558108 -7.847992907875859 15 1 -1
1241 249 1 0 3.307700508942535 -1.5479593543584897 -7.403608202582319 15 1 -1
1242 249 3 0 3.2300205968179263 -1.131600210349788 -7.346138424350847 15 1 -1
2586 576 4 0 8.303254392034994 -1.3836890411403253 -7.275384645938312 7 0 1
1264 253 3 0 8.686826403755248 -1.2419924893875045 -7.351820245954803 11 0 -1
1263 253 3 0 9.406241085094354 -1.337969215436864 -7.5780693921704865 11 0 -1
1487 298 3 0 -0.9037572105739287 -0.824648399176624 -7.492064544753477 12 1 0
57 12 3 0 -3.8175528072340414 -9.876039859916252 -6.624261063564669 0 0 1
2449 531 2 0 -2.4243920769377505 -9.761167335863275 -6.42727589696296 3 0 0
2450 531 4 0 -2.834816961123721 -9.953365670742958 -6.377241675792935 3 0 0
2451 531 4 0 -2.020519728570336 -9.566626797389066 -6.477581835169685 3 0 0
183 37 3 0 -1.7694247618398151 -9.27121235655694 -6.40990534775578 4 0 0
185 37 3 0 -1.1255074703600023 -9.176829511455825 -6.763366069159797 4 0 0
3323 822 4 0 1.508028526906866 -9.649484843835149 -7.152700309791504 13 1 1
2130 426 3 0 1.5417467374635674 -9.403755442014308 -6.839149594386818 5 0 2
2126 426 1 0 1.5497233519252163 -9.195255132154589 -6.423099631689026 5 0 2
184 37 3 0 -1.7760212944645577 -9.012114982859396 -7.09334104086305 4 0 0
181 37 1 0 -1.5607372593064799 -9.010215367848813 -6.697798579090382 4 0 0
182 37 3 0 -1.5364420085954684 -8.596049469372703 -6.545546213994291 4 0 0
2469 537 4 0 -1.5481570826765392 -8.220272928921403 -6.431888839064499 8 1 -1
2128 426 3 0 1.3012502564624029 -8.829541227563029 -6.442520302217984 5 0 2
2090 418 3 0 8.127407894347488 -8.505834501957905 -7.216749884300121 9 1 0
1041 209 1 0 5.3611120148230675 -7.286791008048786 -6.449117189584122 11 1 0
2088 418 3 0 8.752456548768318 -8.172332098370719 -7.111836981328027 9 1 0
1512 303 3 0 -2.197839329587464 -6.711768257828559 -7.080649352811785 5 0 1
1511 303 1 0 -1.8520922955280685 -6.3864647312041445 -7.0029344461398395 5 0 1
1515 303 3 0 -1.567900272117729 -6.550396368789688 -6.6917761028629705 5 0 1
2918 687 4 0 -1.3038952299059439 -6.4443451164553345 -6.400942692513491 16 1 2
3056 733 4 0 0.4027073825594467 -6.731238349351931 -6.719393676967194 2 0 0
3055 733 2 0 0.3663302341387187 -6.781741854646132 -7.1669162476357275 2 0 0
3034 726 2 0 4.650814517437327 -6.893005334979048 -7.167907018581266 10 1 1
3036 726 4 0 4.813070616675727 -7.111560050143967 -6.82231658244341 10 1 1
1043 209 3 0 5.176705431480936 -7.245142201554427 -6.843441480894008 11 1 0
1044 209 3 0 5.821845408158078 -7.267618669372894 -6.492712930064416 11 1 0
1514 303 3 0 -2.025892369245117 -6.006234591272106 -6.858676611523452 5 0 1
627 126 3 0 3.646213442637766 -5.68124481271481 -6.700545912416675 2 0 0
630 126 3 0 2.9558523150270677 -5.378150941456849 -6.7345882085887006 2 0 0
626 126 1 0 3.3805700716081777 -5.342935347619909 -6.541429186125098 2 0 0
629 126 3 0 3.5530943161501582 -4.962312627410107 -6.641126540622414 2 0 0
462 93 3 0 -0.9480888718021028 -2.892168521168861 -6.993660685629011 7 0 0
464 93 3 0 -0.5420259173884858 -3.014166637907527 -6.388185144242888 7 0 0
463 93 3 0 -0.9510478557027913 -2.387463404081899 -6.45915618393051 7 0 0
461 93 1 0 -0.7016703648381775 -2.6910275340277634 -6.694824197443977 7 0 0
465 93 3 0 -0.347709691712323 -2.4756514399570007 -6.911461189642409 7 0 0
1245 249 3 0 2.95574131841882 -1.7951594196360894 -7.231062224531392 15 1 -1
1244 249 3 0 3.678423517130902 -1.652152691276683 -7.185772869581253 15 1 -1
2584 576 2 0 7.868105580499499 -1.1974458060103057 -7.2564300867528075 7 0 1
2585 576 4 0 7.459480411049562 -1.0188746416141754 -7.230670693573419 7 0 1
2213 452 4 0 9.002819245727252 -1.4445925462913891 -6.500389369055821 6 0 1
1261 253 1 0 9.111302529211041 -1.218093880350736 -7.2111582151444 11 0 -1
1262 253 3 0 9.174340982382759 -1.5151668290066311 -6.85748522192851 11 0 -1
307 62 3 0 1.8305391544724081 -0.12633879769323464 -6.4879647798772195 6 -1 -1
309 62 3 0 2.0048024007025944 -0.8463161051432344 -6.529318675372215 6 -1 -1
306 62 1 0 2.1647048522746637 -0.4396842570106312 -6.448004023085313 6 -1 -1
310 62 3 0 2.4832447906737354 -0.3535387126500229 -6.732555049798704 6 -1 -1
2151 431 4 0 2.8464953027032163 -0.2161891881850675 -6.594866820310468 7 0 0
2149 431 2 0 3.2693362071588528 -0.22823895876451417 -6.4440752111662265 7 0 0
3281 808 4 0 6.446240270189222 -0.5011106444484685 -6.42299783703737 17 1 0
598 120 3 0 7.256390051917418 -0.9014161798367617 -6.884227827228773 6 0 0
597 120 3 0 6.80726521029111 -0.4398894802819271 -6.556274233738977 6 0 0
596 120 1 0 7.19833670104585 -0.6893609181855389 -6.526209060298496 6 0 0
599 120 3 0 7.553146602874278 -0.41222083434446155 -6.464420412843857 6 0 0
2216 453 4 0 8.994475379146824 -0.6409561819926068 -6.766663652589573 7 0 -1
2215 453 2 0 8.993805695466264 -0.21416316462152807 -6.603948650152313 7 0 -1
1265 253 3 0 9.19713212582002 -0.7978604009004684 -7.071791436960668 11 0 -1
3039 727 4 0 -3.282510215431361 -9.342455560971276 -5.879630353538002 13 1 0
56 12 1 0 -3.6310558394909753 -9.845862723903707 -6.2203778507233665 0 0 1
60 12 3 0 -3.6019171743415024 -9.410860082190506 -6.106973923626328 0 0 1
2127 426 3 0 1.394531947593073 -9.475300931520902 -6.104753365707633 5 0 2
3037 727 2 0 -3.24497331073458 -9.006171700885284 -5.577019930839864 13 1 0
2129 426 3 0 1.9947253804637821 -9.075823175026255 -6.319494041131804 5 0 2
2467 537 2 0 -1.7489166915563032 -7.989872703486324 -6.126009507255638 8 1 -1
2468 537 4 0 -1.9611098797983164 -7.740728858915267 -5.811789435619092 8 1 -1
1045 209 3 0 5.231585509505088 -7.682251766976692 -6.26086283070803 11 1 0
2917 687 2 0 -0.9138589530817889 -6.496242026519458 -6.171245581549405 16 1 2
2919 687 4 0 -0.5413348579380912 -6.531641912710807 -5.944877086445589 16 1 2
695 139 3 0 0.2651644574256089 -6.6518324261790225 -6.349529346987093 14 1 2
692 139 3 0 0.2833089838533027 -6.927527098373961 -5.658052008865705 14 1 2
691 139 1 0 0.21169218450432226 -6.546599543697249 -5.905309512237713 14 1 2
693 139 3 0 -0.19003082206561928 -6.411047762637779 -5.833184374590468 14 1 2
1042 209 3 0 5.224752883963335 -6.941583337170281 -6.182565509254707 11 1 0
2844 662 4 0 5.034831183309819 -6.715603953261241 -5.9166066426743145 12 1 0
2842 662 2 0 5.24929962887386 -6.5586192150824925 -5.546876455578712 12 1 0
276 56 1 0 -5.912093038040821 -5.930247383111975 -5.768662547966654 11 1 -1
280 56 3 0 -6.244305155839642 -6.218384407564905 -5.801579183651234 11 1 -1
278 56 3 0 -6.069459315021456 -5.510054449297165 -5.796530671611559 11 1 -1
279 56 3 0 -5.597801214500235 -6.007031002422001 -6.121140326642628 11 1 -1
739 148 3 0 -2.018600617358314 -5.79807681433654 -5.652373590433763 5 0 -1
694 139 3 0 0.5164599391556948 -6.223214914875892 -5.778666108299558 14 1 2
3357 833 4 0 0.8513677300178415 -6.136384815926179 -5.55830190139187 7 0 0
2941 695 2 0 3.6772707642076874 -5.860458442348819 -5.582425345218943 12 1 0
2943 695 4 0 3.636818226229712 -5.490803287436815 -5.844656783535527 12 1 0
2845 663 2 0 -6.425129173167116 -4.882728665933337 -5.926087228597491 8 0 0
2846 663 4 0 -6.16609943015375 -5.2057490750522275 -6.03593004831788 8 0 0
737 148 3 0 -1.8328573437938758 -5.06296664066233 -5.7186053580114535 5 0 -1
2322 488 4 0 2.1332362169684327 -4.904874740984343 -5.499767055201801 11 1 0
628 126 3 0 3.3402633433879902 -5.379801059751306 -6.094464080477208 2 0 0
2847 663 4 0 -6.699905228375195 -4.525760724601202 -5.796120571886682 8 0 0
547 110 3 0 -6.745073902381288 -4.135535411812388 -5.937938494976301 -3 -1 -1
548 110 3 0 -7.369765193921508 -3.77440287718239 -6.027453613288584 -3 -1 -1
546 110 1 0 -6.98975821513414 -3.7806762885406364 -5.802167852107145 -3 -1 -1
1162 233 3 0 -3.7379583944407893 -3.882433597753856 -5.471966451175787 9 1 0
2320 488 2 0 2.237479359892953 -4.506936619481778 -5.685023707056091 11 1 0
38 8 3 0 2.5601551012389834 -3.7567851235778695 -5.968114021940436 9 1 -1
2321 488 4 0 2.346877854881896 -4.097087998013952 -5.87519994009741 11 1 0
550 110 3 0 -6.756481746068587 -3.399650178488436 -5.886241961081488 -3 -1 -1
37 8 3 0 1.978419188180819 -3.4223714379885717 -6.244037715224337 9 1 -1
40 8 3 0 2.0887649844103784 -3.3748980825248776 -5.5626726646036655 9 1 -1
36 8 1 0 2.2749804797333013 -3.3918375919622568 -5.9450125027375496 9 1 -1
39 8 3 0 2.501788424886451 -3.0205663956322173 -6.006799291464664 9 1 -1
1019 204 3 0 9.674973422384099 -2.5348737431814605 -5.684794206281031 2 0 0
2572 572 2 0 2.623519782318766 -1.067404427603993 -5.5913012223048755 -3 -1 1
600 120 3 0 7.16458713910442 -0.9931338519364878 -6.172930637639277 6 0 0
1013 203 3 0 8.122861943802295 -1.6212115478115425 -5.58073711119222 13 1 -1
2212 452 2 0 8.67769777382528 -1.5595090779643606 -6.231307990346421 6 0 1
2214 452 4 0 8.33454995442797 -1.6848660202649395 -5.936961320285711 6 0 1
62 13 3 0 -8.454393898605282 -0.37801637353156536 -5.815449534663191 4 -1 0
64 13 3 0 -7.846038996804211 -0.4923244528259456 -5.455861639364522 4 -1 0
308 62 3 0 2.3170316231589894 -0.4154832146646026 -6.0585559018054065 6 -1 -1
2573 572 4 0 2.3844583143468494 -0.7520323005503577 -5.847691523734899 -3 -1 1
2150 431 4 0 3.6833849545627935 -0.2497191350983492 -6.294019771322674 7 0 0
931 187 1 0 4.125631451260503 -0.40523786868856426 -5.677242596375666 8 0 0
935 187 3 0 3.9195350165286627 -0.453954879793395 -6.057483426812932 8 0 0
934 187 3 0 4.472266013005534 -0.7237101796498138 -5.654989614341758 8 0 0
3280 808 2 0 6.274884163159925 -0.1419044937213787 -6.262609556617327 17 1 0
3231 791 4 0 7.823456760101642 -0.3401076666841245 -6.187174197648859 5 0 1
3287 810 4 0 0.07468377917630065 -9.611329797460844 -4.6551706957768735 13 1 1
1475 295 3 0 0.22604822431669724 -9.23178949104526 -4.603834706948811 11 1 -1
661 133 1 0 4.943716199647223 -9.887493464861215 -4.6852786032116756 -5 -1 1
664 133 3 0 4.815899286590341 -9.43207007951642 -4.674458265118318 -5 -1 1
665 133 3 0 5.150300461427202 -9.978238077062679 -5.065156085747918 -5 -1 1
154 31 3 0 -3.157096148553638 -8.287516248072661 -5.18389655506415 16 2 1
3038 727 4 0 -3.2051932035753348 -8.680629034609847 -5.284658597015206 13 1 0
1472 295 3 0 -0.012485876109428418 -8.589942770757705 -4.745895342959362 11 1 -1
3431 858 4 0 -4.074183160424888 -7.775224497285007 -4.632088337706749 11 1 1
151 31 1 0 -3.306016867494648 -8.157901183067091 -4.743308912791651 16 2 1
153 31 3 0 -3.75302430400823 -7.985709444538547 -4.7788105163551435 16 2 1
152 31 3 0 -3.007956599940397 -7.813875997506976 -4.564738407114125 16 2 1
1348 270 3 0 -2.083579674396061 -7.624089281545054 -5.433218624805973 3 0 1
1350 270 3 0 -2.0613000610426404 -8.123677441699526 -4.890650435862583 3 0 1
1346 270 1 0 -1.889525523918124 -7.73206227978907 -5.04910557043897 3 0 1
1347 270 3 0 -1.9545890240548331 -7.419573998331318 -4.7546451725969385 3 0 1
1349 270 3 0 -1.43592945821508 -7.7688492820412165 -5.121723305950711 3 0 1
3107 750 4 0 -1.197410640774084 -7.453184813855665 -5.048437259621476 4 0 0
3106 750 2 0 -0.968591026157906 -7.1468901166594945 -4.82620615995268 4 0 0
3108 750 4 0 -0.7477441293364571 -6.842519835270393 -4.610369464815008 4 0 0
2843 662 4 0 5.482834863848247 -6.4017543151725 -5.151188245182297 12 1 0
277 56 3 0 -5.6978454392927596 -5.9903486505782935 -5.342772249287224 11 1 -1
3010 718 2 0 -1.1204922982218015 -5.72658328412873 -4.670082834627377 20 2 -1
3355 833 2 0 0.9366060842916752 -5.759169644149407 -5.365279176066976 7 0 0
502 101 3 0 2.829643256632963 -6.33660452851645 -4.675528895158468 4 0 -1
2942 695 4 0 3.7252902005564827 -6.23077867752976 -5.306778834938153 12 1 0
504 101 3 0 3.505616983883524 -6.330569730500146 -4.963550769776171 4 0 -1
501 101 1 0 3.2619970592430576 -6.314635834977874 -4.5806963613704275 4 0 -1
3264 802 4 0 5.537279101225611 -6.006749236176252 -5.109766851925228 9 1 1
3262 802 2 0 5.6574813916084565 -5.9664754991782765 -4.641764159428025 9 1 1
3191 778 4 0 -3.343668264079911 -4.7736252637262355 -4.842124458561718 10 1 0
3190 778 2 0 -2.941105305541072 -4.987902318203731 -4.855956756484946 10 1 0
3192 778 4 0 -2.538131835584484 -5.189787473647999 -4.879135189669227 10 1 0
738 148 3 0 -2.3465648936579644 -5.257849920778483 -5.222562741965483 5 0 -1
736 148 1 0 -1.9582478930872522 -5.384839803682155 -5.418903425822421 5 0 -1
740 148 3 0 -1.6321561636469735 -5.420326372763366 -5.100509438140983 5 0 -1
3012 718 4 0 -1.3927562751217195 -5.410422691794911 -4.788788150069177 20 2 -1
3356 833 4 0 1.0107456136997133 -5.3538599246007195 -5.1762899920427135 7 0 0
1290 258 3 0 1.250898894050792 -5.067259420723936 -5.014009113344368 -2 -1 0
1286 258 1 0 1.6284395059201913 -4.890527962705088 -4.844576422599034 -2 -1 0
1288 258 3 0 1.9291996938339846 -4.870049244159681 -5.158527869492941 -2 -1 0
549 110 3 0 -7.0752979764624 -3.8099446821605776 -5.377853950856605 -3 -1 -1
3005 716 4 0 -7.059950861534265 -3.8319529319304593 -4.977272558853208 12 1 -1
3004 716 2 0 -6.819088533208643 -3.6438294075626967 -4.662817999218883 12 1 -1
2200 448 2 0 -4.964364396514726 -4.042063709041722 -4.791231330745914 5 0 0
2201 448 4 0 -4.629711942197413 -4.113914182720847 -5.0920054895775895 5 0 0
1165 233 3 0 -4.241019581241669 -4.2275271513762345 -5.03570964240809 9 1 0
1163 233 3 0 -3.513743893057562 -4.469220667002994 -5.07361630965823 9 1 0
1161 233 1 0 -3.7909557832090437 -4.086709010564643 -5.090580885788983 9 1 0
1164 233 3 0 -3.6854960771395664 -3.805307979110351 -4.749668983152481 9 1 0
1287 258 3 0 1.5516993484253057 -4.495088566880342 -4.695133177040729 -2 -1 0
2811 651 4 0 1.767469396590439 -4.163752674701758 -4.727721160655874 6 0 1
2809 651 2 0 1.815690876892278 -3.7740046215313106 -4.965491248311706 6 0 1
2838 660 4 0 -9.936631657783334 -2.807788060891272 -4.700199025674393 5 0 1
2810 651 4 0 1.8674714121422689 -3.369768061684968 -5.204566878968997 6 0 1
3256 800 2 0 3.2808718721394303 -2.9698949095869054 -5.119509165000365 13 1 1
3257 800 4 0 3.4140300924758833 -3.4152706653071796 -5.002480921595648 13 1 1
1394 279 3 0 3.5406993546054757 -3.4034710792011458 -4.5928318380439395 3 -1 0
1018 204 3 0 -9.862383446523358 -1.9961817321232385 -5.451955743211293 3 0 0
1017 204 3 0 -9.972798488312309 -2.600928574469834 -5.039638006022818 3 0 0
1765 353 3 0 2.9068466178170205 -1.8350440513152613 -4.636083369043843 12 1 1
3258 800 4 0 3.170248851844857 -2.5609831353903516 -5.235605949223664 13 1 1
1764 353 3 0 3.325887883723519 -2.270942683414522 -5.011260889349888 12 1 1
1761 353 1 0 3.1776673007065632 -1.8834525245582885 -4.9904501804809085 12 1 1
1015 203 3 0 8.039400003037905 -1.9451739432016346 -4.924260058409139 13 1 -1
2226 456 4 0 8.27071775711486 -2.252616509231496 -4.798417589364251 4 0 0
1020 204 3 0 9.486651815716233 -2.1025492868332085 -5.123178912265663 2 0 0
1016 204 1 0 9.826992077495483 -2.3079281203705264 -5.325291758024468 2 0 0
63 13 3 0 -8.399944994933167 -0.9689882784420867 -5.388146185340822 4 -1 0
1763 353 3 0 2.935198608098961 -1.7884953412096252 -5.389655738466616 12 1 1
2574 572 4 0 2.867239837921062 -1.3708801163525735 -5.3320296519346355 -3 -1 1
1762 353 3 0 3.5114668248335335 -1.6048405654795506 -4.949696000630813 12 1 1
1012 203 3 0 8.192399744464964 -1.1947624262072853 -4.989632707632713 13 1 -1
1014 203 3 0 8.693783790325401 -1.6939463762522635 -5.167129368298542 13 1 -1
1011 203 1 0 8.271082448804613 -1.6136895107186753 -5.173450734418247 13 1 -1
2829 657 4 0 8.477651273864595 -0.9203385437531395 -4.828888228616118 7 0 0
65 13 3 0 -8.445462948447117 -0.28899637177825177 -5.093875553504478 4 -1 0
61 13 1 0 -8.282099264395065 -0.5262900809548618 -5.437662302939096 4 -1 0
3179 774 4 0 -7.502043786610925 -0.37931441977618263 -5.339122659313208 9 0 0
3178 774 2 0 -7.196153224937076 -0.10750329439801831 -5.2279389941137495 9 0 0
825 165 3 0 -3.1328087820174746 -0.1475522329355332 -5.003537156487566 15 1 0
203 41 3 0 -2.2386746200151117 -0.11034793888753214 -4.88660607616655 4 0 0
932 187 3 0 3.840911743468819 -0.4738543492634424 -5.364136781581653 8 0 0
662 133 3 0 5.2274216868114465 -9.97549070807226 -4.335432539804641 -5 -1 1
155 31 3 0 -3.3079268521407634 -8.497389411218872 -4.481989159846874 16 2 1
1471 295 1 0 -0.01589778381010376 -8.885550536000276 -4.4606547816869 11 1 -1
1474 295 3 0 -0.42682244652452006 -9.027362321022824 -4.380634038866933 11 1 -1
1473 295 3 0 0.1435709197420838 -8.729896514485853 -4.090097467680574 11 1 -1
780 156 3 0 -5.808378625217553 -7.541699296825821 -3.708125492829554 19 2 2
779 156 3 0 -5.047946149191958 -7.625220768767246 -3.886805081948717 19 2 2
778 156 3 0 -5.593415950339393 -7.92295894391374 -4.330169567766707 19 2 2
776 156 1 0 -5.4922334453825155 -7.571681980998608 -4.063250747169588 19 2 2
3430 858 2 0 -4.397753722172613 -7.7033831910127 -4.368709121360626 11 1 1
3432 858 4 0 -4.718374575372036 -7.617398655372714 -4.095442731644912 11 1 1
1462 293 3 0 2.0803221481918595 -8.038339087307383 -3.759309965275457 8 0 0
1464 293 3 0 2.212905695320666 -7.489056942819661 -4.229765820351039 8 0 0
1461 293 1 0 2.3857546110944483 -7.73861455309982 -3.8964464377409858 8 0 0
1463 293 3 0 2.7668655399886255 -7.962047535887597 -4.059332777158949 8 0 0
777 156 3 0 -5.504043177736802 -7.200504870420836 -4.3040305843305235 19 2 2
78 16 3 0 -0.6889356107914821 -6.86266582118141 -4.190194377366057 7 0 0
76 16 1 0 -0.4808955246771127 -6.476751663480957 -4.063707221793752 7 0 0
77 16 3 0 -0.06036638807224293 -6.565952008205335 -3.928121851577359 7 0 0
2723 622 4 0 0.21557880206798785 -6.809756709275563 -4.083685264937081 8 1 0
2722 622 2 0 0.6649240122094717 -6.819792970564329 -3.9707903833898417 8 1 0
2724 622 4 0 1.1078077071043069 -6.826581059853618 -3.8661916998865475 8 1 0
759 152 3 0 1.2511291000395808 -6.4804808082255665 -3.7564926735188022 -1 -1 0
503 101 3 0 3.377499042371994 -6.651277587526029 -4.317336138964997 4 0 -1
2738 627 4 0 3.4275437733420233 -6.62051315311987 -3.9115720529081965 5 0 0
1808 362 3 0 -8.539575673092829 -5.682947588548398 -4.317071443606656 12 1 0
1806 362 1 0 -8.605373657141662 -5.929349957677712 -3.952124053058159 12 1 0
1809 362 3 0 -8.902454882531469 -6.252273708661478 -4.044478317607237 12 1 0
1807 362 3 0 -8.203807156372493 -6.124522662177438 -3.8302074981801706 12 1 0
79 16 3 0 -0.7114767844527261 -6.285766928725085 -3.7241415096964783 7 0 0
3011 718 4 0 -0.8380530060157287 -6.057322997709678 -4.5416789889628015 20 2 -1
80 16 3 0 -0.47355726369392315 -6.191001055030673 -4.4140441619027735 7 0 0
757 152 3 0 1.1950923415457488 -5.827721787486883 -4.175150112023925 -1 -1 0
760 152 3 0 1.8048856806130171 -5.957989812027461 -3.766779584487069 -1 -1 0
756 152 1 0 1.3614859850943617 -6.005801074304856 -3.782448991065852 -1 -1 0
505 101 3 0 3.341833774863698 -5.937381921132876 -4.372194122616798 4 0 -1
2612 585 4 0 3.569227982354203 -5.6176528974936275 -4.434270195085446 4 0 1
3263 802 4 0 5.760330869762091 -5.9305986955819865 -4.217492814322124 9 1 1
973 195 3 0 6.045105829784781 -5.816128918748877 -3.98821704169581 6 1 0
971 195 1 0 6.2567807944256195 -5.847430861937275 -3.6436524289235575 6 1 0
974 195 3 0 6.589531422532097 -5.520489200455316 -3.6502010878916114 6 1 0
1289 258 3 0 1.7750192002840315 -5.150462391467034 -4.507024178581247 -2 -1 0
2611 585 2 0 3.91926687253042 -5.408154709043897 -4.22618050865588 4 0 1
2613 585 4 0 4.279686072240363 -5.191598791312493 -4.009886252024257 4 0 1
988 198 3 0 4.169500059642727 -5.013798258547558 -3.6504146458783007 6 0 2
2202 448 4 0 -5.280398474440467 -3.9657615190608775 -4.501083758457592 5 0 0
449 90 3 0 -5.500144960314909 -3.751738843974282 -4.2595358205534275 13 1 -1
1395 279 3 0 3.9387135248535117 -3.952893904461412 -4.278173350983542 3 -1 0