LAMMPS data file via write_data, version 19 Nov 2024, timestep = 2000000, units = lj

400 atoms
4 atom types
300 bonds
1 bond types
350 angles
2 angle types

-4 4 xlo xhi
-4 4 ylo yhi
-4 4 zlo zhi

Masses

1 1
2 1
3 1
4 1

Bond Coeffs # harmonic/omp

1 100 0.45

Angle Coeffs # harmonic/omp

1 100 180
2 100 109.471

Atoms # full

243 49 3 0 -3.7584144216027164 -2.8126085907963123 -2.5935736725496548 0 1 0
241 49 1 0 -3.341264540222555 -2.687320641859167 -2.656721946625889 0 1 0
245 49 3 0 -3.307186780009679 -2.466362789521932 -3.042014299962868 0 1 0
244 49 3 0 -3.2015910898440936 -2.4100140825275234 -2.301702141456415 0 1 0
242 49 3 0 -3.0804675014249074 -3.058729765029833 -2.676554108731859 0 1 0
102 21 3 0 -1.0673521780949484 -2.5835901507290133 -3.4986770611741904 1 -1 2
105 21 3 0 -0.5641228686295625 -3.0709959851259927 -3.7151692497532527 1 -1 2
101 21 1 0 -0.6239986365855014 -2.655338642493403 -3.5697365315328082 1 -1 2
174 35 3 0 -0.3270888071002355 -2.914235361478413 -2.091671089636474 0 1 1
104 21 3 0 -0.3998627809788911 -2.6145943731736403 -3.1858306219420016 1 -1 2
173 35 3 0 -0.50763206098733 -3.0405310822155034 -2.799785760395739 0 1 1
175 35 3 0 0.17358773898143282 -2.9772509846872373 -2.6080636791627945 0 1 1
171 35 1 0 -0.2049307075995057 -3.1269572468396967 -2.4868853153765187 0 1 1
172 35 3 0 -0.1836676760113427 -3.5613890825437733 -2.4146515797200396 0 1 1
20 4 3 0 0.3995548112234281 -3.5578227344020648 -3.563614290595541 -1 0 1
16 4 1 0 0.5752686557226461 -3.949827146144446 -3.4892747274001183 -1 0 1
286 62 4 0 -0.2962865711953787 -3.955088165823162 -2.349522870154025 2 0 1
399 100 4 0 1.2716695319835025 -3.9646457750141644 -3.0467989682485133 -1 0 1
19 4 3 0 0.917436363892452 -3.9117382724724483 -3.1791952628569136 -1 0 1
379 93 4 0 1.1120540928064706 -3.5817715287458114 -3.0553901582908876 -1 0 1
377 93 2 0 1.169644319278321 -3.1718726434132836 -2.917038272432523 -1 0 1
378 93 4 0 1.218206779332243 -2.7771556943060722 -2.7769678785677256 -1 0 1
210 42 3 0 1.2118074805245516 -2.38289270394663 -2.7014775937842805 1 1 2
208 42 3 0 1.7006989737585807 -2.0420332195537596 -3.051111112694972 1 1 2
306 69 4 0 3.972454249993672 -2.567371218836603 -2.427394018612874 -1 -1 1
305 69 2 0 3.6387613007902226 -2.2634371608180888 -2.3492202916815916 -1 -1 1
371 91 2 0 -3.3729237449143255 -1.1225393794752667 -2.6774440961116 1 -1 1
372 91 4 0 -2.9910724501665955 -0.9132505213425082 -2.582330282543521 1 -1 1
35 7 3 0 -2.5841523574073246 -0.9373931708940787 -2.5332469660374417 0 -2 0
373 91 4 0 -3.78193136260403 -1.3566024381064765 -2.7980099363316793 1 -1 1
31 7 1 0 -2.4305486022867693 -0.8489074923585328 -2.1229834874247517 0 -2 0
302 68 2 0 -1.2120026263607306 -0.36280753171510977 -2.302818851477374 0 -2 2
33 7 3 0 -1.9890335243111428 -0.7246706749509918 -2.1428844671870495 0 -2 0
304 68 4 0 -1.617954760360107 -0.5672259373159044 -2.2199462096992484 0 -2 2
303 68 4 0 -0.8117064174310845 -0.14844511628287513 -2.39768150648746 0 -2 2
206 42 1 0 1.4243124046424844 -2.010944991816962 -2.741847047553498 1 1 2
209 42 3 0 1.63992794011661 -1.9200925183911557 -2.359253816816086 1 1 2
207 42 3 0 1.142461356909283 -1.6872760841009773 -2.8241738035640656 1 1 2
139 28 3 0 3.940043195657724 -1.1178748523390103 -2.9438202538149842 0 1 0
136 28 1 0 3.5567382728850174 -1.0327785019167168 -3.1153549757398755 0 1 0
138 28 3 0 3.4625082518443286 -0.5928364634728333 -3.0674078785896546 0 1 0
137 28 3 0 3.2374136659014874 -1.2714850508602253 -2.9063008507539827 0 1 0
140 28 3 0 3.565425713294589 -1.1506536067821547 -3.569317672084728 0 1 0
307 69 4 0 3.2951248821099726 -1.9600931533771182 -2.260936964352956 -1 -1 1
363 88 4 0 3.6976377636019935 -0.3041298550661878 -2.926988050706864 0 1 2
331 77 4 0 -2.0371070881796562 -3.8573805324732495 -0.4660452180299695 1 0 1
273 58 4 0 -0.9053211334731194 -3.6089796416307927 -1.6332834715997049 0 -1 -2
112 23 3 0 -1.0313563528955834 -3.986739555392937 -1.6461642856933385 0 -1 1
339 80 4 0 0.34827340689703623 -3.8107863396193506 -1.1081041780225163 0 0 1
329 77 2 0 -1.8244677192938914 -3.494103332142208 -0.2919859661809985 1 0 1
99 20 3 0 -1.240050636651826 -2.532819539515701 -0.3217814254487589 1 0 1
198 40 3 0 3.6591967324011763 -0.23122546222445686 -0.18517732470603573 1 0 0
272 58 2 0 -0.8528671343087189 -3.2651267763884717 -1.39268798462224 0 -1 -2
274 58 4 0 -0.8014780958625588 -2.9078049143482896 -1.143924613434385 0 -1 -2
366 89 4 0 -0.30273848690089006 -2.5281818130322837 -1.9595167809102245 1 0 0
365 89 2 0 -0.12560401735287585 -2.358495266377019 -1.5705818469477224 1 0 0
164 33 3 0 -0.00799585130123576 -2.4657666087054824 -0.8662385208834448 0 1 -1
163 33 3 0 -0.6442276183496557 -2.828484704505459 -0.772355245522336 0 1 -1
162 33 3 0 -0.4347652178588386 -2.3472900915375448 -0.26658583944667297 0 1 -1
275 59 2 0 0.2538211120633751 -3.5523791310118304 -0.166366390164458 0 0 -1
161 33 1 0 -0.29436736994138346 -2.659954742364906 -0.5581921696743959 0 1 -1
165 33 3 0 -0.06983040734234434 -2.990023068899177 -0.33742390461612826 0 1 -1
276 59 4 0 0.08408867391329539 -3.307976299010667 -0.5133884733675109 0 0 -1
367 89 4 0 0.058042992059085204 -2.195578274204198 -1.1860354818030105 1 0 0
321 74 4 0 0.3608121357121108 -2.3205361610709327 -0.9769835988821851 0 1 1
230 46 3 0 0.41862596188852536 -1.9953658615738172 -1.2601519263307859 0 1 0
320 74 2 0 0.6831243765293468 -2.681975427825472 -0.9086537171583394 0 1 1
84 17 3 0 0.7117320761348869 -3.7554988934813744 -1.2654133445903752 1 1 1
85 17 3 0 1.3555622289196052 -3.643874964190528 -1.5640682081442012 1 1 1
81 17 1 0 1.1369455509527533 -3.7107658116062443 -1.1820508631900188 1 1 1
82 17 3 0 1.197676209816033 -3.3427208272378204 -0.917761142818045 1 1 1
322 74 4 0 0.9737453270374952 -3.021547889925691 -0.8469698647451316 0 1 1
282 61 4 0 2.177780429522308 -2.5558468724515646 -0.5058379011907065 -1 -1 0
93 19 3 0 2.0568737029076885 -2.8900356194439714 -0.28913441322906375 0 0 0
95 19 3 0 2.173754027597717 -3.6397377506526274 -0.16022877163466662 0 0 0
91 19 1 0 2.319210297862483 -3.1947935732232104 -0.05832228326723111 0 0 0
291 64 4 0 2.306450616120606 -3.8658056207625884 -0.44183136293682695 -1 -1 1
228 46 3 0 1.1807510846800333 -1.8630832020250485 -1.1405354558944643 0 1 0
234 47 3 0 3.9869824330572587 -2.337476663979738 -1.0220176284911389 0 1 2
283 61 4 0 2.678338100506554 -2.439769682429928 -1.3048509330840135 -1 -1 0
281 61 2 0 2.4217656144137347 -2.5049514553333894 -0.8973069182750645 -1 -1 0
118 24 3 0 3.874275508998532 -3.898351829269699 -0.02818923173577754 0 1 0
255 52 4 0 3.6928841945476116 -2.5608234803710714 -0.8169093022301591 0 0 1
94 19 3 0 2.730416049871122 -3.1531930686758107 -0.165522326817117 0 0 0
256 52 4 0 3.1017359094456483 -2.9974369507221694 -0.2756083057190435 0 0 1
254 52 2 0 3.411683212598516 -2.7691504900019246 -0.5548012005028088 0 0 1
179 36 3 0 2.7566081363589485 -2.1177151792045943 -1.5662117428844822 -1 0 1
232 47 3 0 -3.4093934484013566 -1.9037727363041559 -1.2374795617502328 1 1 2
297 66 4 0 -3.1828654629088087 -1.6337366923566075 -1.0565547390357477 1 0 1
231 47 1 0 -3.860153896788054 -1.8955582060046026 -1.1162754559147163 1 1 2
296 66 2 0 -2.804340532140625 -1.517167808971548 -1.2962892509971988 1 0 1
327 76 4 0 -3.8102251314624653 -0.6572021482858845 -1.550865352091617 1 0 3
298 66 4 0 -2.4032877635831844 -1.4029698346612185 -1.5477672870299033 1 0 1
32 7 3 0 -2.6572072013555514 -0.5167534047744955 -1.9365886103044163 0 -2 0
328 76 4 0 -2.9578523688763942 -0.4708158161998728 -1.6530361209970488 1 0 3
326 76 2 0 -3.3734796984334987 -0.5609847864841352 -1.6022174793795987 1 0 3
34 7 3 0 -2.472891691659883 -1.2045301283540901 -1.8815150613191645 0 -2 0
396 99 4 0 -0.18563521578218659 -0.39924475876162113 -0.6248752011131803 1 0 1
369 90 4 0 -0.05373287356207525 -0.21829806595471402 -0.9714046745387329 1 0 1
319 73 4 0 0.1476960152767001 -0.5403772725505657 -0.8220498105969861 1 -1 1
317 73 2 0 0.38462191064137347 -0.9365182797363152 -0.7315208269468249 1 -1 1
318 73 4 0 0.6269980106428135 -1.3277343114799478 -0.6448837799613837 1 -1 1
333 78 4 0 0.733004294143932 -1.592484949005485 -0.3216270902343253 1 -1 1
395 99 2 0 -0.5035565028186517 -0.43524275423659914 -0.2956056771101065 1 0 1
227 46 3 0 0.9027681469960809 -1.8745403852492577 -1.8275970558045103 0 1 0
229 46 3 0 0.7358517747719604 -1.3030808138281775 -1.401938223098094 0 1 0
226 46 1 0 0.8145212455387121 -1.7535514213560262 -1.4130515065578124 0 1 0
127 26 3 0 0.9968926596036872 -1.2981889500227566 -0.45738759480295593 0 0 0
353 85 2 0 1.6032571190816136 -0.09248440168601844 -1.082785504361999 1 -1 0
129 26 3 0 1.5119086914392876 -0.8033366922347858 -0.6802481418081372 0 0 0
128 26 3 0 1.710452513219797 -1.5041281012563226 -0.5408406925741818 0 0 0
355 85 4 0 1.4317655323415013 -0.4677796583464663 -0.8690065311287476 1 -1 0
126 26 1 0 1.4354964466601237 -1.1609623724784484 -0.41647582114273585 0 0 0
40 8 3 0 3.1617477454962035 -0.5222080727139515 -1.5546650851270423 0 -1 -3
53 11 3 0 2.5326806585059236 -0.07717327672778972 -1.7278619597867237 2 -1 1
36 8 1 0 3.512128039195111 -0.3918015725776778 -1.2914392673115374 0 -1 -3
176 36 1 0 2.8772489811719675 -1.692360173384805 -1.655596230938903 -1 0 1
177 36 3 0 3.2442048940965047 -1.6961946017208094 -1.9812057190527659 -1 0 1
38 8 3 0 3.3814609867252607 -0.3808699481340197 -0.8657852742556207 0 -1 -3
180 36 3 0 3.006489703445067 -1.5012453355310105 -1.2714146167171139 -1 0 1
178 36 3 0 2.5207790464038995 -1.4665625463829817 -1.828323069173337 -1 0 1
37 8 3 0 3.8652428346741576 -0.6869061153732217 -1.334872575889171 0 -1 -3
233 47 3 0 3.9071454451031897 -1.7219895290514575 -1.4330105537959945 0 1 2
235 47 3 0 -3.90751182776238 -1.6479451889441383 -0.7507099806008767 1 1 2
330 77 4 0 -1.6117378636800368 -3.1179836176836617 -0.11604591842693882 1 0 1
103 21 3 0 -0.4698818845930869 -2.3484083498429906 -3.8816410878913725 1 -1 2
301 67 4 0 -3.460480557801076 -3.505649938000968 0.46286423922757025 1 -1 -2
14 3 3 0 -3.770596951966607 -3.3816418206774146 0.6865038943430041 1 0 -3
13 3 3 0 -3.8340786487602796 -2.776212386405958 0.2629243679461606 1 0 -3
299 67 2 0 -3.220690778211385 -3.866666033625428 0.29121351861513484 1 -1 -2
261 54 4 0 -0.924173580354867 -2.283162948666771 0.5707475111479231 1 -1 0
98 20 3 0 -1.1951724166726625 -2.516826469264859 0.4291054387831738 1 0 1
203 41 3 0 3.515719073992029 -0.01689767260349046 2.062467824840838 -1 1 -1
97 20 3 0 -1.7874883686473846 -2.841116048817184 0.07656544655237606 1 0 1
46 10 1 0 0.43975761271372626 -2.6566390270984503 1.0722991818693426 1 -1 1
47 10 3 0 0.3580284183723192 -2.2531734849452794 0.7864540187621806 1 -1 1
49 10 3 0 0.5126287634515257 -3.034359886050837 0.806703966264232 1 -1 1
334 78 4 0 0.35366168000565384 -2.02427293952742 0.45851374373818776 1 -1 1
262 54 4 0 0.006232185356074075 -2.18128197039231 0.6251690410311028 1 -1 0
48 10 3 0 0.07259138056125523 -2.7260595502424296 1.3414162684796755 1 -1 1
260 54 2 0 -0.4602916552889311 -2.236881934252508 0.5959511587029784 1 -1 0
277 59 4 0 0.4299215691921452 -3.792980386356462 0.16918523721813536 0 0 -1
50 10 3 0 0.7837449487316707 -2.5931018034850193 1.3256499570646874 1 -1 1
187 38 3 0 1.3028849584539737 -2.8721173039703225 1.7823900635522003 1 0 2
186 38 1 0 1.565226239644353 -3.1492423976174195 2.0456562934244813 1 0 2
190 38 3 0 1.9308534326948619 -3.321959461983364 1.789218100237271 1 0 2
92 19 3 0 2.2637021782696922 -3.1291366996827636 0.3971101052263977 0 0 0
189 38 3 0 1.3260410008388788 -3.4852860482323065 2.1829323415745496 1 0 2
11 3 1 0 3.939268420295461 -3.0969627318322943 0.5010291145376309 0 0 -3
12 3 3 0 3.679591139586241 -2.888296913307424 0.8463281501081936 0 0 -3
253 51 4 0 3.3439617161660355 -2.674421421230993 0.8348897711260206 0 0 -3
15 3 3 0 3.6558998223827133 -3.3272672152514846 0.2122131717071823 0 0 -3
251 51 2 0 3.1440415322340667 -2.3005352876661163 0.9724150114080607 0 0 -3
119 24 3 0 3.274904719629473 -3.808392356874412 0.39166984642432195 0 1 0
79 16 3 0 2.8111001968978644 -2.0426778505512626 2.077561354162113 0 -1 0
89 18 3 0 -3.1932277093583044 -0.6666063441696058 1.3108215145387154 0 -2 0
88 18 3 0 -2.555817260432871 -0.2568600058851917 1.4029557683080696 0 -2 0
86 18 1 0 -2.9943608578579783 -0.23862733638703823 1.2709944139426275 0 -2 0
160 32 3 0 3.5422422123526984 -1.0016644188051902 3.2454290990346095 -1 0 0
90 18 3 0 -3.020733374720031 -0.10273720879586488 0.8468182837020003 0 -2 0
152 31 3 0 -1.2265612070976064 -1.2069483006106918 0.4431628004288766 1 -1 0
347 83 2 0 -1.9018188745959115 -0.48597656800720196 1.4220451650126773 1 1 0
349 83 4 0 -1.5930103752139142 -0.7837379994526579 1.2885272456289472 1 1 0
153 31 3 0 -1.3591946174131433 -0.7068182122364342 0.9860809815809614 1 -1 0
151 31 1 0 -1.0440750823463274 -0.8562205316817558 0.6930375147967668 1 -1 0
348 83 4 0 -2.182192206088394 -0.20809853884834983 1.5393985642049273 1 1 0
155 31 3 0 -0.9119680415746838 -0.5122282634828457 0.4063886728082416 1 -1 0
332 78 2 0 0.5440216693093547 -1.8021173976145062 0.058203883270696456 1 -1 1
154 31 3 0 -0.6825176090878295 -1.0071567572881128 0.9176003557088166 1 -1 0
397 99 4 0 -0.8080066807658342 -0.4778360902921913 0.026431197580394306 1 0 1
45 9 3 0 -0.45829848916686405 -0.21769262298314634 0.8555577531646371 0 -1 -3
42 9 3 0 -0.028818482922509003 -0.08676856722720512 0.28028331333670226 0 -1 -3
384 95 4 0 1.3502563850529519 -0.4396749111294692 1.037655622661501 1 0 1
383 95 2 0 1.470161671949795 -0.7745505058044703 0.7319067191464961 1 0 1
385 95 4 0 1.587891286647789 -1.1138173198718921 0.4232478820611072 1 0 1
7 2 3 0 1.6862107500092758 -0.2650531234095569 1.1667029578137678 0 -1 0
156 32 1 0 3.819224827929963 -1.295000892181284 3.027625197343972 -1 0 0
313 71 4 0 3.9194011472184216 -0.03104344276604628 2.032106293001632 0 -1 0
8 2 3 0 1.9072052730237625 -0.15342507059251803 1.84817464420553 0 -1 0
202 41 3 0 2.9954723374802614 -0.09402272344948188 1.5281766026106054 -1 1 -1
252 51 4 0 2.9423868923288268 -1.9104059594495415 1.1054273398543726 0 0 -3
77 16 3 0 3.0833952989898203 -1.728015551482939 1.4609909935594598 0 -1 0
78 16 3 0 2.6623707027756724 -1.3233155282809357 1.9313562487608211 0 -1 0
76 16 1 0 2.983847781060825 -1.6561151821704247 1.900539472826842 0 -1 0
167 34 3 0 -1.3546153502632001 -2.7916195593678133 2.845102347449321 1 1 -1
169 34 3 0 -1.6284241369313734 -3.4221753958162227 3.0984593421222244 1 1 -1
168 34 3 0 -1.9270706266381388 -2.7816269565041565 3.2984298306631548 1 1 -1
166 34 1 0 -1.5401886255758872 -2.9970315998746857 3.196010583508245 1 1 -1
170 34 3 0 -1.2681108031929733 -2.9738866228845766 3.5395031252555906 1 1 -1
222 45 3 0 -2.236782095464893 -2.2363567808913305 3.223926289913415 0 -1 1
158 32 3 0 3.6136139827108127 -1.6398209649237756 2.9287577382579375 -1 0 0
188 38 3 0 1.7239550291843018 -2.9230838705796405 2.376259358045632 1 0 2
157 32 3 0 3.9742246058744355 -1.0946656575686668 2.66127138189512 -1 0 0
312 71 4 0 -3.9287723229624225 -0.8879302860127447 2.323657745544134 1 -1 0
311 71 2 0 3.995851507323671 -0.4608129918689606 2.184360602731651 0 -1 0
159 32 3 0 -3.8151408250009315 -1.4184709773303141 3.2999904436911947 0 0 0
224 45 3 0 -2.2457207622720063 -1.5195064920578516 3.124426759217639 0 -1 1
221 45 1 0 -2.0933844232990793 -1.889361783822527 2.9684583615163693 0 -1 1
223 45 3 0 -2.244455516797204 -1.963138619855199 2.5219506612626654 0 -1 1
225 45 3 0 -1.635474269926286 -1.8874961093960307 2.9673475708445656 0 -1 1
80 16 3 0 3.3435791918301576 -1.5422691122851533 2.1268790175704364 0 -1 0
96 20 1 0 -1.482761019668246 -2.498437968102161 0.05737005457948178 1 0 1
100 20 3 0 -1.6867392627090487 -2.1140641406460303 0.05880246003886611 1 0 1
130 26 3 0 1.5212396996890538 -1.0488548273191067 0.04167010225185052 0 0 0
143 29 3 0 -3.53694915324853 0.5428202409625162 -3.3521588270064493 1 0 1
141 29 1 0 -3.4070803228196143 0.7660609514847232 -3.7350846738803365 1 0 1
142 29 3 0 -2.948636006747386 0.8515118977192858 -3.7152068424880125 1 0 1
144 29 3 0 -3.6340246502931133 1.1525406579958488 -3.766517473953246 1 0 1
390 97 4 0 -3.913509074310005 1.3948190074858071 -3.9101673910043018 1 -1 1
364 88 4 0 -3.884539332658947 0.3757657261184395 -3.368198608823207 1 1 2
124 25 3 0 -1.021891022603476 1.2235216522234742 -3.945799676529729 1 -1 -1
123 25 3 0 -1.228388421042163 1.863921552667465 -3.6765149151428282 1 -1 -1
121 25 1 0 -0.9092360839955111 1.652556020808771 -3.894826826456483 1 -1 -1
195 39 3 0 -0.8685616979598032 0.8419101920376539 -2.3489101879898193 1 0 1
258 53 4 0 -1.164223764345506 1.8342719808058712 -3.285785078883422 0 0 0
125 25 3 0 -0.5213662803755066 1.6814765808708854 -3.6677165441017374 1 -1 -1
325 75 4 0 -0.13348967112887414 1.5764627587783295 -3.598858094514653 1 -2 0
323 75 2 0 -0.10133717521755628 1.31901720495402 -3.183299005837491 1 -2 0
324 75 4 0 -0.06033093708079997 1.0530471743174676 -2.779233451690766 1 -2 0
62 13 3 0 0.23119460547027518 1.5931426713942163 -3.808011994802622 1 0 1
61 13 1 0 0.48977598916618414 1.9646053836107473 -3.8687450168313133 1 0 1
387 96 4 0 0.15360302775703902 1.0525817850292982 -2.4252730042928077 0 -2 1
193 39 3 0 -0.14674207253283336 0.7885944802849263 -2.4557716701216443 1 0 1
191 39 1 0 -0.5106338056665964 0.6013056487650024 -2.252798141797942 1 0 1
386 96 2 0 0.5211979435127119 1.176407592027121 -2.128024127356604 0 -2 1
194 39 3 0 -0.5681412459071576 0.17139602441359242 -2.4082673072893526 1 0 1
218 44 3 0 1.9054797175854197 1.231373622190577 -2.4204143719778743 0 0 2
216 44 1 0 2.331800501239319 1.4294072081887303 -2.4663616980808687 0 0 2
217 44 3 0 2.3045330551025005 1.8260382646108373 -2.7257349215739897 0 0 2
55 11 3 0 2.226987316635361 0.46952965630299764 -2.1345028461795224 2 -1 1
362 88 2 0 3.8998647119169014 0.026419667712396816 -3.1444410972331696 0 1 2
219 44 3 0 2.614441850169519 1.137934212818227 -2.671655455774034 0 0 2
389 97 2 0 3.681318133454675 1.2873576918677405 -3.9897590821930633 0 -1 1
220 44 3 0 2.479935849508061 1.5375387375284488 -2.0627588383747946 0 0 2
257 53 2 0 -0.9724260203248687 2.0186497351072203 -2.886772179182957 0 0 0
259 53 4 0 -0.7976339384313942 2.1852738198434705 -2.513658089781564 0 0 0
30 6 3 0 0.1447870982284327 2.2971762702222867 -2.0822986917321322 1 -1 1
63 13 3 0 0.839934723167687 1.9662973588846535 -3.5639469443672875 1 0 1
65 13 3 0 0.20566791782363308 2.3564661690847992 -3.8071021368266096 1 0 1
28 6 3 0 -0.5293893218367085 2.267549747992651 -2.24642574100093 1 -1 1
376 92 4 0 -0.1084490203982716 2.506987695353252 -3.6073370864584366 0 -2 1
374 92 2 0 -0.06919951207024833 2.7173330357859644 -3.187573413762823 0 -2 1
375 92 4 0 -0.02922053745284999 2.9142046384371767 -2.7867921943014395 0 -2 1
29 6 3 0 -0.15911902141218232 2.897814956914994 -2.4031942043922108 1 -1 1
285 62 4 0 0.05272039254712959 3.2103835307144233 -2.525581523736667 2 -1 1
284 62 2 0 -0.1181624869047192 3.629969681887647 -2.436639993542006 2 -1 1
26 6 1 0 -0.2134883941705535 2.5252730044556446 -2.103985036107345 1 -1 1
18 4 3 0 0.27023769931513475 3.783126769305183 -3.3250882946661116 -1 -1 1
361 87 4 0 2.1063978542925543 3.449472188956716 -2.1928471051736858 -1 -1 2
400 100 4 0 1.8640991283903943 3.474932372894634 -2.5118100362355142 -1 -1 1
5 1 3 0 2.266254180085119 3.457329760189854 -2.5630865633396858 -1 -2 1
17 4 3 0 0.72583060517487 3.8858841499312136 -3.8595407546797325 -1 -1 1
398 100 2 0 1.5676601440685891 3.7531150154666246 -2.7847679886937327 -1 -1 1
266 56 2 0 3.5454840040091025 3.365667146203386 -2.1855253350575463 0 -1 1
3 1 3 0 2.5723027734233335 3.178675108589054 -3.2061948955193156 -1 -2 1
1 1 1 0 2.6334163726001014 3.4856538882427452 -2.8846597043701903 -1 -2 1
267 56 4 0 3.4097368499577363 3.476168181401794 -2.595608207779989 0 -1 1
4 1 3 0 3.01741601774462 3.4117476643295817 -2.667068389121074 -1 -2 1
2 1 3 0 2.6407331577652062 3.9002689016647807 -3.0671551018658274 -1 -2 1
107 22 3 0 -2.440140700950286 0.6741957907672926 -0.42587795741196766 1 -1 0
293 65 2 0 -3.222671752959795 0.46961840818230355 -0.6449684184611619 1 -1 0
294 65 4 0 -2.7945428919423843 0.5011069823112024 -0.46018866205892106 1 -1 0
346 82 4 0 -2.704233727398655 0.7197833759515085 -0.11858611242350434 1 0 0
200 40 3 0 -3.867842967494032 0.20770987923068585 -0.5477955217147183 2 0 0
295 65 4 0 -3.650165994241911 0.43003868465540246 -0.8164745866949686 1 -1 0
106 22 1 0 -2.036407979322739 0.48313569544225415 -0.6118404264808136 1 -1 0
289 63 4 0 -1.6269991993194424 0.5798476977030737 -1.23682329539308 1 -1 0
108 22 3 0 -1.9314236514357543 0.7083272905655644 -1.0088239059937856 1 -1 0
287 63 2 0 -1.1936447268131585 0.5687199497210326 -1.3628096658231907 1 -1 0
109 22 3 0 -1.6803768326203663 0.5318340135663376 -0.31859919828899375 1 -1 0
110 22 3 0 -2.106739818594227 0.017751456578005285 -0.7059092876277924 1 -1 0
368 90 2 0 -0.2902110624264007 0.004787885087622931 -1.2879147083485765 1 0 1
192 39 3 0 -0.44353504055809084 0.5840073683888011 -1.7737150849426173 1 0 1
237 48 3 0 0.35668346657076283 1.9797322801518014 -1.4185172418004433 0 -2 1
288 63 4 0 -0.755780208434234 0.5604448746486593 -1.4873494732240091 1 -1 0
370 90 4 0 -0.513866350905878 0.24125772102976406 -1.6095088019344168 1 0 1
354 85 4 0 1.7853872588775732 0.2747709591270561 -1.2971886517592703 1 -1 0
240 48 3 0 0.8493897745645845 1.7801227330683234 -0.9200717690722675 0 -2 1
236 48 1 0 0.795600813521657 1.931054463413114 -1.3438023519755984 0 -2 1
388 96 4 0 0.8668599251663013 1.2934698040006734 -1.8331279852878963 0 -2 1
238 48 3 0 0.957290205690853 1.6332860495194823 -1.6295205508491695 0 -2 1
337 79 4 0 1.7619170091503107 0.6179485836380214 -1.4754004848190476 0 -2 1
54 11 3 0 2.111851939058721 0.44568456391547806 -1.396471456790693 2 -1 1
336 79 4 0 1.074856530774606 1.2999303637789437 -1.4863161165175067 0 -2 1
335 79 2 0 1.4318413471308817 0.9485560192127455 -1.4861028810049555 0 -2 1
149 30 3 0 2.3214974672378625 1.5888541078089982 -0.35006751450186685 -1 0 -1
148 30 3 0 1.8229849279438484 1.8500445026470844 -0.8753945506634381 -1 0 -1
146 30 1 0 2.0131355538978752 1.9283971861444054 -0.4533037296872533 -1 0 -1
150 30 3 0 1.6988507191960718 1.9361416322800071 -0.163607549136125 -1 0 -1
51 11 1 0 2.4149326573764682 0.36750389802668193 -1.7329715882075565 2 -1 1
343 81 4 0 2.4334581230782906 1.184696994936322 -0.3658391508825826 0 -1 -1
341 81 2 0 2.839948358202666 0.9828390579622203 -0.27593676748417556 0 -1 -1
196 40 1 0 3.836062853416001 0.16814795199876068 -0.1839345016016146 1 0 0
199 40 3 0 3.501872413967191 0.4825670724404746 -0.22886034258833918 1 0 0
342 81 4 0 3.2526924828473063 0.7771216651331054 -0.18435564486641792 0 -1 -1
52 11 3 0 2.7629298244161586 0.6173314985787597 -1.670622240918206 2 -1 1
70 14 3 0 -2.5856583875705312 3.7709062087648832 -0.9472974058937251 2 -1 0
66 14 1 0 -2.454610253216854 3.610968311274751 -0.5323784948271026 2 -1 0
68 14 3 0 -2.7408727819401264 3.7810026407587274 -0.2133779893531367 2 -1 0
67 14 3 0 -2.4690097875965518 3.138580027334139 -0.5308928547756622 2 -1 0
357 86 4 0 -2.174519815471565 3.0575873125266826 -0.25734741992921634 1 -1 1
69 14 3 0 -2.0323527663538856 3.743207413084869 -0.4507088145388277 2 -1 0
111 23 1 0 -0.937086994256463 3.5599894184496104 -1.6639413582545008 0 -2 1
115 23 3 0 -1.3330991294646874 3.316996128684426 -1.6676766238920535 0 -2 1
356 86 2 0 -1.9312726335593617 2.648385312487007 -0.2701830046078716 1 -1 1
183 37 3 0 -1.3738587862110145 2.3572424549153284 -0.11335934012452788 0 -1 1
358 86 4 0 -1.7146822330921758 2.266583739889227 -0.2860751900669691 1 -1 1
113 23 3 0 -0.701123938443454 3.4717539136938362 -2.033031668835405 0 -2 1
114 23 3 0 -0.6923831644703317 3.4376420217626658 -1.3063090685374343 0 -2 1
340 80 4 0 -0.38937994951999955 3.6476290793454504 -1.166615757834527 0 -1 1
279 60 4 0 -0.2611339328740311 2.489995899248954 -1.3560845220892705 0 -2 0
278 60 2 0 -0.33944790027235994 2.496265483711112 -0.9153725669366363 0 -2 0
280 60 4 0 -0.41950220950609624 2.504257175071907 -0.4380093185562333 0 -2 0
27 6 3 0 -0.3329317728413967 2.6778724973581585 -1.6963181034172032 1 -1 1
310 70 4 0 -0.36345224894086714 2.7369432117761403 -0.10378416812109148 1 -1 0
338 80 2 0 -0.030500508381632 3.905531518371757 -1.1376566290109016 0 -1 1
213 43 3 0 3.0915712678146643 2.721601330338726 -1.2984184538828043 -1 -1 2
182 37 3 0 -0.6477051584796045 2.4390195520053037 -0.1123600818303702 0 -1 1
359 87 2 0 2.292891830586927 3.4628382173600296 -1.7693602583654966 -1 -1 2
239 48 3 0 0.999707466448036 2.322432662860033 -1.3910108426018168 0 -2 1
147 30 3 0 2.2436315806736684 2.3530584598131683 -0.4572040178826358 -1 0 -1
270 57 4 0 1.0044349403773745 2.6801449446525885 -1.2213038984881277 1 0 1
269 57 2 0 1.0921857485600799 3.085337734241209 -1.0916695807074241 1 0 1
271 57 4 0 1.1771804482269828 3.515078301709186 -0.9523313854492116 1 0 1
83 17 3 0 1.3081899605577272 3.9143000014941793 -0.9666686308978925 1 0 1
315 72 4 0 1.4075135270156889 2.1697997182068414 -0.05522748012441658 0 -2 0
212 43 3 0 3.2139407377948532 3.1599996963870893 -0.7238761686024341 -1 -1 2
215 43 3 0 3.587025206146124 3.256423767656782 -1.368442806219823 -1 -1 2
360 87 4 0 2.4910400005047615 3.464180740036161 -1.3293915684840705 -1 -1 2
290 64 2 0 2.5308188334633486 3.935307389173049 -0.7664976746198722 -1 -2 1
292 64 4 0 2.777833504445922 3.7226900086655412 -1.12306754915421 -1 -2 1
117 24 3 0 3.2270289914416286 3.8074740760300956 -0.2458804426975001 0 0 0
268 56 4 0 3.6804030717412117 3.2471192201621712 -1.7649526489296024 0 -1 1
211 43 1 0 3.193086379212196 3.1315084700831743 -1.1786191887595758 -1 -1 2
214 43 3 0 2.8701460788843436 3.407536857646918 -1.3304340301966784 -1 -1 2
39 8 3 0 3.6481202249667413 0.010850192975436174 -1.4099840204664094 0 -1 -3
135 27 3 0 -3.455887909406268 2.032303202412224 0.903964923490419 1 -1 0
131 27 1 0 -3.616647434690663 1.6319297648394193 0.7482384206168883 1 -1 0
132 27 3 0 -3.297510666625993 1.3379314089160204 0.7481379163590316 1 -1 0
345 82 4 0 -3.036884312934071 1.0501223558554726 0.6783910806165746 1 0 0
344 82 2 0 -2.876179126821166 0.8795360922175067 0.2831601272699634 1 0 0
133 27 3 0 -3.7741580216163766 1.6897696182751079 0.31405945836510607 1 -1 0
394 98 4 0 -0.7924799005535834 1.6214690996123866 0.45094738442700266 0 -1 1
184 37 3 0 -0.9227449300189235 1.8027233924630355 0.13035233533816976 0 -1 1
392 98 2 0 -0.609290383144337 1.226806389416864 0.590809383577444 0 -1 1
393 98 4 0 -0.4334958361318699 0.8405805053424937 0.731017313598306 0 -1 1
41 9 1 0 -0.15866435416580105 0.048797798014667965 0.7142075793623763 0 -1 -3
44 9 3 0 -0.3371855054275547 0.47995294254537507 0.6974252488536964 0 -1 -3
43 9 3 0 0.2019029628456355 0.040242215881197314 0.9930914583552064 0 -1 -3
263 55 2 0 2.1584482693890243 1.509381553893234 1.767319328455655 1 -1 0
9 2 3 0 1.7714541616053583 0.39168411715811124 1.4071595646481128 0 -1 0
22 5 3 0 0.7118858790208009 1.1125418670673115 1.8994829145111687 0 -1 -1
204 41 3 0 3.4942971781589516 0.460524264209169 1.49159921191283 -1 1 -1
134 27 3 0 -3.940622304147567 1.4895607743096273 0.9932313068666749 1 -1 0
351 84 4 0 3.6629284559740336 1.5381540176689141 1.088330782934715 -1 0 -1
350 84 2 0 3.248125969076395 1.6766377606187495 1.2079598465446768 -1 0 -1
201 41 1 0 3.241644012626316 0.2122157662524485 1.766174714089027 -1 1 -1
264 55 4 0 2.4881899354464014 1.666606465661822 1.5170814479575374 1 -1 0
352 84 4 0 2.8394060419705247 1.810802626282319 1.3011469938347593 -1 0 -1
197 40 3 0 -3.919250373066011 0.2250226170811272 0.22373490897319234 2 0 0
300 67 4 0 -2.9835650844153916 3.7819823417535883 0.12093704375393767 1 -2 -2
181 37 1 0 -0.9803149049182776 2.2665092218274294 0.09938648394901706 0 -1 1
185 37 3 0 -0.9993418050360849 2.4323191974958127 0.49715719776957756 0 -1 1
246 50 1 0 0.7062155566785107 3.557126439292051 0.6162954178053187 0 -1 0
247 50 3 0 0.33952794979591794 3.3018350181427985 0.7548280657654897 0 -1 0
250 50 3 0 0.5849177412053659 3.826569386260662 0.23372587486218263 0 -1 0
309 70 4 0 0.06876054060102871 3.3584954656604467 0.4310054140061304 1 -1 0
308 70 2 0 -0.14404584200835874 3.041536380952884 0.15896214951551146 1 -1 0
248 50 3 0 0.8364841281247922 3.8201825125426536 0.9551547181942066 0 -1 0
380 94 2 0 1.638358979130703 3.063685298894689 1.0376841307819282 1 -1 0
381 94 4 0 1.9468090033873215 3.06286162398381 1.3906513750525924 1 -1 0
382 94 4 0 1.3435240387618068 3.054343543761725 0.6937960650962515 1 -1 0
249 50 3 0 1.069363026568293 3.260861662218802 0.49085504477981823 0 -1 0
316 72 4 0 1.1849499924539724 2.9126248163011637 0.3609148791794098 0 -2 0
314 72 2 0 1.2948274919481235 2.539207972018092 0.15402008344524803 0 -2 0
72 15 3 0 2.0767721454807164 2.6794451441561384 1.3548273907249968 0 -2 0
74 15 3 0 2.522552840443761 2.556722712827448 1.9514547249768688 0 -2 0
71 15 1 0 2.493463410047081 2.5057006105983644 1.5105441448475452 0 -2 0
75 15 3 0 2.519302308246338 2.047257884618978 1.4055743584217124 0 -2 0
73 15 3 0 2.8409014836933193 2.7289263299546005 1.3037740657674104 0 -2 0
120 24 3 0 3.5777502544385476 3.5301271566686103 0.34826852575315964 0 0 0
116 24 1 0 3.4922218340690896 3.9066066206359498 0.12322762242932526 0 0 0
145 29 3 0 -3.4955969366306894 0.48958068284175393 3.8889962786956755 1 0 0
122 25 3 0 -0.8461042475655731 1.827733165765708 3.6965847663058997 1 -1 -2
64 13 3 0 0.6460393556114771 1.9616036852782377 3.7107193848733058 1 0 0
23 5 3 0 1.419004433055732 1.2896385270837043 2.0114787918829506 0 -1 -1
265 55 4 0 1.79385481954621 1.3547928886703071 2.0358138444105696 1 -1 0
21 5 1 0 1.069882729907164 1.0394658864996027 2.1624473555333052 0 -1 -1
24 5 3 0 0.9758501106253235 1.1675163121751124 2.60177487004705 0 -1 -1
25 5 3 0 1.1687093635586774 0.603660060450774 2.151778724993261 0 -1 -1
59 12 3 0 2.3954803085860963 0.871549463621257 3.9650434177957665 0 -1 0
205 41 3 0 2.969911368240275 0.4862949689861452 1.9996756185928475 -1 1 -1