LAMMPS data file via write_data, version 2 Aug 2023, timestep = 2000000, units = lj

15729 atoms
4 atom types
10646 bonds
1 bond types
6283 angles
2 angle types

-16.594292 16.594292 xlo xhi
-16.594292 16.594292 ylo yhi
-16.594292 16.594292 zlo zhi
4.263256414560601e-14 0 0 xy xz yz

Masses

1 1
2 1
3 1
4 1

Bond Coeffs # harmonic

1 100 0.5

Angle Coeffs # harmonic

1 100 180
2 100 109.471

Atoms # full

9425 2982 4 0 16.263395160548615 -0.034842539476521495 -7.013049143890759 7 0 0
2986 836 2 0 -2.9742803264282216 -16.03250316970374 -14.949023624791709 1 0 0
2988 836 4 0 -2.5409584631959916 -15.941949405393423 -15.154168448655062 1 0 0
2885 802 4 0 -2.2949187959552138 -16.146179536449477 -15.370628580315383 1 0 0
2884 802 2 0 -2.1771089618978188 -15.971202691149783 -15.83015867820882 1 0 0
2886 802 4 0 -2.061408582940734 -15.786935902922972 -16.27203168561756 1 0 0
10133 3218 4 0 -2.161098094519769 -15.452935437379061 -16.46056690537816 11 1 0
6175 1899 2 0 -0.27749858346814804 -15.570423422262795 -15.331953464037145 0 0 1
6177 1899 4 0 -0.7325639342390673 -15.604087133122029 -15.085671264474213 0 0 1
8590 2704 2 0 -0.8496129098583527 -16.448133205526783 -14.986265204088618 10 1 0
6176 1899 4 0 0.17151716162493003 -15.549804244410085 -15.588574107278562 0 0 1
3485 1002 4 0 0.42287895440740897 -15.846515853304506 -15.64909025166155 0 0 0
3104 875 4 0 0.3754105361331277 -15.586006432317273 -15.927721997724998 0 0 0
3484 1002 2 0 0.48988398357995067 -16.34072454714483 -15.517324506804762 0 0 0
1745 422 4 0 0.5542275390563347 -15.484719826431391 -15.602529349894983 0 0 0
3103 875 2 0 0.6060327723903747 -15.666769275932523 -16.376482702961994 0 0 0
1744 422 2 0 1.0175949416104544 -15.311602214052062 -15.393525305173798 0 0 0
1746 422 4 0 1.451948551677411 -15.15528184111424 -15.202889826268343 0 0 0
2607 709 4 0 1.8259107880081515 -15.15574676169403 -15.306115947727273 0 0 0
6655 2059 2 0 2.7597025203471937 -15.780689564588744 -16.43315121548087 0 0 1
2605 709 2 0 2.0778034046174128 -15.193654130454972 -15.762027538294136 0 0 0
2606 709 4 0 2.3331989721801456 -15.229413363660594 -16.20924834326084 0 0 0
6657 2059 4 0 2.56319325661903 -15.333560758231423 -16.524896953486746 0 0 1
6656 2059 4 0 2.966377510264657 -16.27305044005559 -16.339989722984978 0 0 1
14001 4507 4 0 3.3247765285449624 -16.460205153460834 -16.36533360752368 10 1 1
13999 4507 2 0 3.7524535494668356 -16.152223470232002 -16.43463381559416 10 1 1
14000 4507 4 0 4.171500472448649 -15.853303238115634 -16.510352420938812 10 1 1
10132 3218 2 0 -1.905964350285421 -15.051604919561578 -16.304923960241688 11 1 0
2851 791 2 0 -1.9938223331402316 -14.332343135637604 -15.490074716437592 0 0 0
6386 1969 4 0 -2.531901311171099 -13.79335214578909 -15.158507128347715 1 0 1
2852 791 4 0 -2.3701270295988763 -14.138470624502038 -15.188808545116743 0 0 0
10134 3218 4 0 -1.6566938022264974 -14.656679829023567 -16.152060404046356 11 1 0
2853 791 4 0 -1.6074102612440697 -14.526841866822755 -15.803189695340453 0 0 0
2367 629 4 0 -1.2912461696395088 -14.685858440930948 -16.01755209993775 0 0 0
2365 629 2 0 -0.9136105920526489 -14.510731155989214 -16.315781060640298 0 0 0
1578 366 4 0 -0.21527546129765085 -14.157732346276342 -16.509387216535064 0 0 0
1576 366 2 0 0.15964018658957002 -14.015709219866247 -16.156650789255718 0 0 0
1577 366 4 0 0.5284076132686728 -13.870838214252469 -15.84239462066144 0 0 0
3241 921 2 0 1.236655324640143 -13.831380277746275 -16.43174219770662 0 0 0
3242 921 4 0 0.8716019331530411 -13.796777220650014 -16.048560224643463 0 0 0
2015 512 4 0 0.8716910837833041 -13.812380295077501 -15.681705438265643 0 0 0
2014 512 2 0 0.8093571151262289 -13.683556264158897 -15.203427791080845 0 0 0
1262 261 4 0 1.6613826142140198 -14.861070821912277 -15.07530618060677 0 0 0
7956 2492 4 0 2.6583656921949874 -15.019023156378086 -16.31037441508655 0 0 1
7954 2492 2 0 3.1396280748976935 -14.790887511529268 -16.420731310783978 0 0 1
7912 2478 2 0 3.873393567736148 -13.994787448910131 -16.037072708077652 0 0 1
7913 2478 4 0 3.8222480670601975 -13.719014369940568 -15.573846337160793 0 0 1
2045 522 4 0 3.5822219118127343 -13.713981895221654 -15.23912636194533 0 0 0
7914 2478 4 0 3.9263233260454804 -14.272037640689096 -16.501008506767562 0 0 1
7955 2492 4 0 3.629087686155838 -14.546231502093056 -16.533210557295 0 0 1
10616 3379 4 0 -4.643253742756876 -16.498487134364847 -5.8190414202734715 10 1 0
8223 2581 4 0 -10.508807450965136 -12.380127938603474 -15.627299033711063 3 0 1
8221 2581 2 0 -10.184249685716697 -12.621843605786738 -15.359087928323516 3 0 1
8222 2581 4 0 -9.837429537214682 -12.878771559588886 -15.088397753347612 3 0 1
7814 2445 4 0 -9.516469118284181 -13.115912485472 -15.014577127176942 3 0 1
7813 2445 2 0 -9.127551054666261 -12.962326712257111 -15.371158952827958 3 0 1
1611 377 4 0 -8.78571252593656 -12.412290222104824 -15.737093245623383 3 0 0
7815 2445 4 0 -8.757898153376726 -12.81141336019275 -15.712932908849771 3 0 1
6385 1969 2 0 -2.3979480386407257 -13.335437043173643 -15.326060937853173 1 0 1
6387 1969 4 0 -2.2628017952757773 -12.86367457175138 -15.490978694768652 1 0 1
10754 3425 4 0 -1.9926840384593323 -12.866736076670854 -15.781119431713158 9 1 0
10753 3425 2 0 -1.5264441201358334 -12.916975124510092 -15.997302241448843 9 1 0
10755 3425 4 0 -1.05215500019413 -12.973409806421396 -16.231921111737368 9 1 0
8945 2822 4 0 -0.7699983629117426 -12.72059322952461 -16.360285851086587 9 1 0
775 155 3 0 -0.7203056095253348 -13.110019529403125 -16.41877575332405 9 1 0
8944 2822 2 0 -0.2984647117587258 -12.588708219073089 -16.412672495421884 9 1 0
2460 660 4 0 0.5810961003733546 -12.529637309228463 -16.3015490790677 0 0 0
2459 660 4 0 0.6724867846369591 -13.505403604700675 -15.849686883980535 0 0 0
2458 660 2 0 0.6285275666651273 -13.027197184684052 -16.071779521582478 0 0 0
3139 887 2 0 1.3469453713430397 -12.369912865711647 -16.48228899613099 0 0 0
3140 887 4 0 0.869094325667124 -12.373712233847911 -16.535925494755723 0 0 0
10002 3174 4 0 0.5268230933775975 -12.200577312994653 -16.462244498199144 9 1 0
8946 2822 4 0 0.22344139448314237 -12.455915825026844 -16.454647901582714 9 1 0
3141 887 4 0 1.863656024953798 -12.354782948374146 -16.41581786702698 0 0 0
3476 999 4 0 1.9015355685336175 -12.900479140941084 -15.166106141924109 0 0 0
3475 999 2 0 1.9408234287790513 -12.720065428099359 -15.636737314348842 0 0 0
3477 999 4 0 1.9834356731137142 -12.528630624762483 -16.11348125640244 0 0 0
2463 661 4 0 2.2775180809324738 -12.397777902542071 -16.30924062944999 0 0 0
2461 661 2 0 2.7744140055542594 -12.461079078101756 -16.312846079300055 0 0 0
1469 330 4 0 2.0672034346166335 -12.657110560771583 -16.501440009131933 0 0 0
1442 321 4 0 2.0739035860171526 -12.097254692198739 -16.23306602177048 0 0 0
2462 661 4 0 3.2626873451912424 -12.5281718936634 -16.31684514384017 0 0 0
6756 2092 4 0 3.4821971341905993 -12.300682603325841 -16.056971349707574 0 0 1
1633 385 2 0 3.5926954261634805 -13.003763566610234 -15.847258674751444 0 0 0
1634 385 4 0 3.623810819662978 -12.629122492197176 -16.193431633566412 0 0 0
2936 819 4 0 3.5725950242494804 -13.341974901284132 -15.080977083993737 0 0 0
1635 385 4 0 3.5539795295435255 -13.416137273261112 -15.491530374949928 0 0 0
6687 2069 4 0 3.8784529561551544 -13.466493236214616 -15.275923612485386 0 0 1
7896 2472 4 0 3.5994214318133224 -12.332581667844797 -16.433541423204307 0 0 1
6685 2069 2 0 4.308201815517467 -13.383718461356326 -14.982494282800134 0 0 1
14666 4729 4 0 -16.4857187193827 -11.587534721199887 -15.337167434108775 11 1 1
14665 4729 2 0 -16.085891760158134 -11.429166746504741 -15.636978075639647 11 1 1
7614 2378 4 0 -15.640557357630708 -10.980130710166753 -16.142669119441273 3 0 1
10005 3175 4 0 -15.721200892025806 -11.358696163694198 -16.30626968471792 11 1 0
14667 4729 4 0 -15.70925447602806 -11.283235507016137 -15.915234965102293 11 1 1
1409 310 4 0 -15.469276377266915 -11.005314339387503 -15.8021901379761 3 0 0
2997 839 4 0 -15.374980149184044 -11.249730162460013 -16.12119924797342 3 0 0
1408 310 2 0 -15.248251633866795 -10.793773582021423 -15.360634970554722 3 0 0
7612 2378 2 0 -15.868220295063532 -10.565848898966207 -16.310211349691116 3 0 1
2432 651 4 0 -13.813053919526718 -12.004867794406893 -15.898979695948821 3 0 0
2995 839 2 0 -14.928935647544693 -11.194546596779135 -16.34756251184704 3 0 0
2431 651 2 0 -13.995651955705373 -11.707791392964452 -16.289278801736486 3 0 0
2996 839 4 0 -14.461146034600075 -11.141674769897179 -16.566565099745507 3 0 0
1755 425 4 0 -5.990702618674309 -16.444717759441595 -14.715987762560744 1 0 0
1678 400 2 0 -12.190646817087707 -12.057862891294603 -15.7318592922763 3 0 0
1679 400 4 0 -12.34381867181864 -12.073475899832037 -16.225237654058414 3 0 0
2750 757 4 0 -13.508529964645277 -11.964257289751586 -15.611368976938085 3 0 0
2709 743 4 0 -13.360278203926363 -10.736022750457185 -15.2360294948497 3 0 0
2749 757 2 0 -13.448802893810283 -11.543079760786137 -15.348313282644654 3 0 0
2751 757 4 0 -13.384405528465356 -11.120482131039164 -15.069613250782291 3 0 0
1404 308 4 0 -12.41588837602314 -11.833705747966183 -16.53528122625571 3 0 0
1680 400 4 0 -12.025264122989928 -12.04843545636481 -15.240916395841777 3 0 0
1834 452 2 0 -11.191595246813238 -12.035792452711178 -15.33050531269421 3 0 0
1836 452 4 0 -10.746885251794403 -12.073659122261297 -15.513380947120462 3 0 0
1835 452 4 0 -11.67379463576663 -12.005721406761904 -15.149135163341477 3 0 0
1431 317 4 0 -12.065166252278317 -12.018091888061043 -16.501412468484283 3 0 0
10391 3304 4 0 5.636147800494662 -0.42111437150088094 -5.829567770841441 5 0 0
3016 846 2 0 -10.570098331674552 -11.888458006662617 -16.24420387554925 3 0 0
3017 846 4 0 -10.450823118470204 -12.015875839647483 -15.775471015498598 3 0 0
1483 335 2 0 -9.19724163292263 -10.911266171387842 -16.03538772389583 3 0 0
1485 335 4 0 -8.811613628102114 -11.203805711109212 -16.16849898739718 3 0 0
1610 377 4 0 -8.590240467585122 -11.384864866495946 -15.89978156191089 3 0 0
1609 377 2 0 -8.687561710163584 -11.893784398051622 -15.818763242208341 3 0 0
8163 2561 4 0 -8.422735266851966 -11.07317664110179 -16.07612580218485 3 0 1
7029 2183 4 0 -8.499311706688173 -11.387800694950897 -16.28755556621093 3 0 1
8161 2561 2 0 -8.087471571085457 -10.782486493476284 -15.817398723998508 3 0 1
8162 2561 4 0 -7.764792713292703 -10.493831111770469 -15.565416336292717 3 0 1
2531 684 4 0 -7.486795624654571 -10.513551602778247 -15.296034433896109 3 0 0
7628 2383 4 0 -5.218234676425693 -11.085184651263218 -15.003948255351329 3 0 1
7627 2383 2 0 -5.295803439535661 -10.611216978743663 -14.947626452200367 3 0 1
1655 392 4 0 1.1363514269884227 -10.498230976162763 -15.344908558305107 0 0 0
1654 392 2 0 1.516368829240342 -10.710992663349026 -15.583337208895632 0 0 0
1656 392 4 0 1.8833188349283212 -10.921134986011145 -15.820712991597823 0 0 0
1443 321 4 0 2.112167161447182 -11.222854159165653 -15.744026669781341 0 0 0
1441 321 2 0 2.0853987668791945 -11.648542746599297 -15.986720164294285 0 0 0
6754 2092 2 0 3.717546260964941 -11.865798721552313 -15.88085763366279 0 0 1
6755 2092 4 0 3.948322723590806 -11.448087874601205 -15.718737995798197 0 0 1
7613 2378 4 0 -16.099354722214855 -10.143244201307258 -16.481669892805066 3 0 1
1651 391 2 0 -13.802021769115761 -9.467730721599331 -16.41631764822885 3 0 0
2707 743 2 0 -13.39350236312358 -10.446621691011297 -15.636454083830333 3 0 0
1653 391 4 0 -13.569600121272366 -9.902949473802256 -16.29086379523722 3 0 0
3300 940 4 0 -13.518877329614194 -10.28231903049556 -16.425576142546866 3 0 0
2708 743 4 0 -13.422401388592544 -10.161146542923497 -16.03433078803668 3 0 0
180 36 3 0 -13.199674370699435 -10.062806788664876 -16.33202074440122 3 0 0
176 36 1 0 -12.744069849360901 -9.844440519314862 -16.366854887838695 3 0 0
177 36 3 0 -12.773690867841157 -9.39874989301671 -16.14409635052319 3 0 0
179 36 3 0 -12.426295845310412 -10.122664406776593 -16.162396348356506 3 0 0
2041 521 2 0 -12.336105124352072 -10.308621354320175 -15.307913901436972 3 0 0
2043 521 4 0 -12.316565489619196 -10.136975098986856 -15.779329099355 3 0 0
3404 975 4 0 -12.053151604094724 -10.289254631812002 -16.050302222979777 3 0 0
3403 975 2 0 -11.653981512298976 -10.27882917832826 -16.364484421358984 3 0 0
3291 937 4 0 5.379101878346532 -0.7093763930266839 -5.772350342570872 5 0 0
1484 335 4 0 -9.587565440869767 -10.610194959331919 -15.90023292913391 3 0 0
2229 583 4 0 -9.609779966718747 -10.500660465229913 -15.54030125799293 3 0 0
3245 922 4 0 -9.547783932414681 -10.223525029266247 -15.79065769611751 3 0 0
3244 922 2 0 -9.474053453452434 -9.74449925699708 -15.998984670865262 3 0 0
3246 922 4 0 -9.400789235231592 -9.296921923864293 -16.19411853624686 3 0 0
2577 699 4 0 -9.325614555665886 -9.198630754816984 -16.591809052380466 3 0 0
7078 2200 2 0 -7.9376072956598716 -9.053972179602923 -15.315712573920718 3 0 1
2530 684 2 0 -7.629365745783971 -10.119285494821375 -15.029392265206994 3 0 0
47 10 3 0 -6.793597045479483 -9.212140539106583 -15.105167514703457 3 0 0
3160 894 2 0 -5.315842622403171 -9.427118048846967 -15.463890291937759 3 0 0
3162 894 4 0 -5.226077180916217 -9.095517788100175 -15.840120708951888 3 0 0
7902 2474 4 0 -5.126311038536301 -9.170454950854205 -16.20611763802713 3 0 1
3161 894 4 0 -5.403348775771841 -9.770925373357242 -15.075693167938644 3 0 0
7629 2383 4 0 -5.374888343748532 -10.11810800930193 -14.876135586346237 3 0 1
2473 665 2 0 -3.550781983590703 -9.99333919489127 -15.262430830882753 3 0 0
2475 665 4 0 -3.3040158136196016 -10.15368797903063 -15.716328764924944 3 0 0
8448 2656 4 0 -2.9370702212485593 -9.999026912338554 -15.813029150814955 3 0 1
8446 2656 2 0 -2.7132997580306952 -9.587856034135092 -16.06352936655526 3 0 1
8447 2656 4 0 -2.4834031585969463 -9.180163313789627 -16.30919504491364 3 0 1
10317 3279 4 0 0.5918150362368451 -9.601030919260305 -16.03476006706398 9 1 0
10315 3279 2 0 0.791149664280077 -9.864783029046912 -15.671854074456641 9 1 0
10316 3279 4 0 1.0090260755659948 -10.13773774784849 -15.31625464610107 9 1 0
7050 2190 4 0 -12.178914792484898 -7.684347005432322 -16.065233055783573 3 0 1
3601 1041 2 0 -11.696933323511605 -9.02945527537119 -15.300869281963882 3 0 0
7048 2190 2 0 -11.893334242315373 -8.08706384233145 -15.947424575448101 3 0 1
7049 2190 4 0 -11.619910277140615 -8.48928523601663 -15.82635792884246 3 0 1
3602 1041 4 0 -11.538025315040038 -8.865039118517565 -15.749454380165727 3 0 0
1775 432 4 0 -11.427600216939965 -8.709020542583607 -16.096363450180917 3 0 0
1280 267 4 0 -11.22145008725763 -8.627584830091822 -15.792560600699847 3 0 0
1279 267 2 0 -10.786819895080821 -8.336011998357804 -15.79491858827581 3 0 0
1774 432 2 0 -11.345326380288775 -8.87820872726082 -16.564921879709107 3 0 0
1281 267 4 0 -10.355283862097611 -8.042503973141063 -15.806840491123383 3 0 0
1329 283 4 0 -10.064764688346642 -8.251797383188746 -15.899410657400113 3 0 0
3330 950 4 0 -10.008219402274669 -7.837258892752956 -15.80645650990478 3 0 0
1327 283 2 0 -9.79931809809171 -8.605326767028371 -16.122425311638246 3 0 0
1328 283 4 0 -9.535763419666083 -8.968274230049547 -16.35188020805651 3 0 0
6698 2073 4 0 -9.15712020001997 -8.998332746560589 -16.314487088091816 3 0 1
3289 937 2 0 5.160596287037702 -1.1512541692443516 -5.840396005337251 5 0 0
6697 2073 2 0 -8.71554268366451 -8.777197267237478 -16.109222599820125 3 0 1
7522 2348 2 0 -8.498106863250129 -7.727028645298189 -16.093267214464262 3 0 1
6699 2073 4 0 -8.289450196838864 -8.565840704667977 -15.906700900260212 3 0 1
7523 2348 4 0 -8.24534887575221 -8.188578295451498 -16.06257534659698 3 0 1
6245 1922 4 0 -8.102854745661523 -8.27034122032493 -15.695578011057897 3 0 1
7079 2200 4 0 -8.016520746792388 -8.654392783029307 -15.666179339657383 3 0 1
6710 2077 4 0 -7.9348564108289175 -8.43378827607233 -16.015601623950104 3 0 1
6244 1922 2 0 -7.966946831760225 -8.024484017897985 -15.232120005749648 3 0 1
6709 2077 2 0 -7.749851814124206 -8.461678721287736 -16.49914815098168 3 0 1
1334 285 4 0 -6.253489110832488 -8.034975161026225 -15.500696415765724 3 0 0
2220 580 4 0 -6.140561799062507 -8.121992439278579 -15.151069264450275 3 0 0
1333 285 2 0 -6.138105415837678 -8.254828314965302 -15.923760991255909 3 0 0
1248 256 4 0 -6.150474230320119 -7.729163466484245 -15.284696870078893 3 0 0
1335 285 4 0 -6.022725199707915 -8.48682845826017 -16.36165742195906 3 0 0
7900 2474 2 0 -5.490867715926276 -8.944493439480175 -16.439527094426598 3 0 1
7871 2464 4 0 -4.874439496206351 -8.982417213973264 -15.93622020174584 3 0 1
7870 2464 2 0 -4.66245370464933 -8.511881081124804 -15.854182450533196 3 0 1
2758 760 2 0 -4.802315950697432 -7.5443890585979645 -16.336674963229694 3 0 0
1702 408 2 0 -4.678426487861838 -7.569984935265355 -15.23450242921383 3 0 0
1703 408 4 0 -4.449570671410614 -7.710855511634476 -15.63581310025532 3 0 0
2760 760 4 0 -4.441140980877988 -7.732742699078205 -16.0230767778074 3 0 0
7872 2464 4 0 -4.450024402734622 -8.053694456345221 -15.782895107771354 3 0 1
7062 2194 4 0 -4.122567089281118 -7.844564880375401 -15.787340922304416 3 0 1
7060 2194 2 0 -3.7526401395808087 -8.093408540234444 -15.48092565857717 3 0 1
7061 2194 4 0 -3.401017376408994 -8.350543822544067 -15.174677783062513 3 0 1
3500 1007 4 0 -2.2590945939704277 -8.865411152566457 -16.25172717146442 3 0 0
1725 415 4 0 -2.2371481659015107 -8.352390025361835 -15.11919400950273 3 0 0
6782 2101 4 0 -2.6544962905590808 -8.807350521884263 -16.335863208763968 3 0 1
3499 1007 2 0 -2.0865185599523652 -8.642351605848312 -15.804246445509431 3 0 0
7691 2404 4 0 -2.003126727519284 -8.051391751545681 -15.238101120816632 3 0 1
3501 1007 4 0 -1.908700557553507 -8.402046514684349 -15.32878368807961 3 0 0
3371 964 4 0 -1.9126614982714774 -8.268300262053863 -14.926785860785083 3 0 0
7690 2404 2 0 -2.095011958450815 -7.549029257293043 -15.303300682849416 3 0 1
1723 415 2 0 -2.730091420437917 -8.403636919731428 -14.978657297978089 3 0 0
7791 2437 4 0 -11.946673738512626 -7.467799166982989 -16.321529187552173 3 0 1
3328 950 2 0 -9.55170783861195 -7.570380707011363 -15.87604441703646 3 0 0
3329 950 4 0 -9.108201870755376 -7.307016606524517 -15.937821950391728 3 0 0
2055 525 4 0 -8.855011870645534 -6.985652396209495 -15.927444269140551 3 0 0
7524 2348 4 0 -8.7389811027391 -7.279601502484999 -16.11618003278444 3 0 1
2053 525 2 0 -8.545164659268044 -6.652375931215234 -15.727533000461959 3 0 0
2054 525 4 0 -8.201849434607592 -6.292917539196486 -15.50650012581804 3 0 0
7976 2499 4 0 -8.115673621652595 -6.015576554295073 -15.23338541007123 3 0 1
1515 345 4 0 -7.821670841802613 -6.171565841261458 -15.457357117804987 3 0 0
1513 345 2 0 -7.4201428485008645 -6.475599700996794 -15.542324254341068 3 0 0
1229 250 4 0 -7.152114714248533 -6.756217361779576 -16.015159985064557 3 0 0
1514 345 4 0 -7.025230476586717 -6.772316970043413 -15.634775603336417 3 0 0
1228 250 2 0 -7.0755929311353984 -6.867450172750159 -16.5209968204532 3 0 0
6674 2065 4 0 -6.039075033057776 -6.213608042170966 -15.996895838664356 3 0 1
2675 732 4 0 -5.759182274188904 -6.481771997988979 -15.844158787081689 3 0 0
2674 732 2 0 -5.674427496005968 -6.802351771795047 -16.25235727739357 3 0 0
8124 2548 4 0 -4.214233483546378 -7.48106325334231 -15.833122121138683 3 0 1
8122 2548 2 0 -3.9337296520802507 -7.068144773178268 -15.866171480821738 3 0 1
2638 720 2 0 -3.7757254641430205 -6.167022878838345 -15.23986110477794 3 0 0
7768 2430 2 0 -3.873379825764104 -6.1703064947963 -16.507472278093687 3 0 1
8123 2548 4 0 -3.6303847266313802 -6.615973542251837 -15.909564279974933 3 0 1
2639 720 4 0 -3.521029759107641 -6.278831883429952 -15.715726980124323 3 0 0
7770 2430 4 0 -3.5278641760874425 -6.265336265211358 -16.09637809104949 3 0 1
7508 2343 4 0 -3.2584510951348093 -6.489498373639105 -15.899908788140381 3 0 1
1344 288 4 0 -3.224663151631809 -6.097689404969616 -15.92217844995246 3 0 0
7507 2343 2 0 -2.9238601673926343 -6.8019687590609905 -15.669378515372953 3 0 1
7509 2343 4 0 -2.5975159457979675 -7.100807951146077 -15.4442864759645 3 0 1
6225 1915 4 0 -2.455985268501598 -6.836383886917126 -15.192926390387441 3 0 1
7692 2404 4 0 -2.1770211044566583 -7.076708970508161 -15.376861466732498 3 0 1
1530 350 4 0 -1.1833727719357725 -6.228764894347755 -15.684745305946622 4 0 0
3325 949 2 0 -0.7283629696057421 -6.39301386192837 -15.117746477484525 4 0 0
6933 2151 4 0 -0.9340384641556998 -6.54750718231163 -15.779918762458887 4 0 1
3327 949 4 0 -0.8042143489302092 -6.227959398979857 -15.603030651369695 4 0 0
6931 2151 2 0 -0.7349946822252846 -6.564573239409839 -16.26251324644495 4 0 1
1632 384 4 0 -10.426934358089147 -5.215022436056959 -16.362583222082215 3 0 0
1630 384 2 0 -10.251654852019357 -5.081698620670132 -15.878053149608808 3 0 0
2831 784 4 0 -10.237454803292168 -4.658378092740888 -15.158937927618586 3 0 0
1631 384 4 0 -10.08209112328767 -4.9476334965274535 -15.39835672454991 3 0 0
1662 394 4 0 -9.841077717669187 -4.7365637794500195 -15.114203615373826 3 0 0
7919 2480 4 0 -7.800242443306519 -5.78926245640263 -15.342010843021475 3 0 1
7715 2412 4 0 -8.100117117077666 -5.9034974333687025 -15.588449399983896 3 0 1
7066 2196 2 0 -8.680919659470863 -4.668777123404524 -16.353864780466825 3 0 1
7068 2196 4 0 -8.354082299932251 -4.607057566452195 -15.96618552447903 3 0 1
7714 2412 2 0 -8.051619416892915 -5.740684720186161 -16.063757510504914 3 0 1
7716 2412 4 0 -7.990655303654519 -5.5725442619362155 -16.53753999722056 3 0 1
7918 2480 2 0 -7.432682738625726 -5.449904243400962 -15.19274696308171 3 0 1
6673 2065 2 0 -6.2563562555267875 -5.8680001039232685 -16.30062902356991 3 0 1
7920 2480 4 0 -7.080025770836674 -5.141852121916859 -15.036802665782096 3 0 1
1342 288 2 0 -2.821961749941515 -5.771569947273051 -15.9216561699641 3 0 0
1343 288 4 0 -2.383256930428571 -5.406763738822811 -15.928522802573854 3 0 0
7274 2265 4 0 -2.049790502815185 -5.33016664424785 -16.118704269226875 4 0 1
3512 1011 4 0 -2.0544840054635234 -5.2682056342216015 -15.732985155503334 4 0 0
1529 350 4 0 -2.026037231499 -5.634593151519876 -15.853828294447682 4 0 0
3511 1011 2 0 -1.86509102711587 -4.965089762398543 -15.346036094580151 4 0 0
1528 350 2 0 -1.6078973885400867 -5.9331344000500685 -15.768457270596041 4 0 0
7273 2265 2 0 -1.7342241053250316 -5.062159982166605 -16.433716624384857 4 0 1
10308 3276 4 0 10.221395495803648 -4.596111652971844 -16.476219152476396 4 0 0
10306 3276 2 0 10.279997262220231 -4.567781572746217 -15.959753259963238 4 0 0
8401 2641 2 0 -10.856239525879708 -3.309044365154719 -16.25581702745066 3 0 1
6415 1979 2 0 -10.809833145382832 -3.1535492798511555 -15.15782901059853 3 0 1
8402 2641 4 0 -10.729048673133045 -3.6369764621486222 -16.56392766342435 3 0 1
7684 2402 2 0 -9.7198206461965 -3.3242584618761164 -15.12975581746036 3 0 1
7685 2402 4 0 -9.29098729158833 -3.1883071673017085 -15.35725880303434 3 0 1
6763 2095 2 0 -8.348960954543616 -4.573387432065992 -15.117332368938818 3 0 1
6764 2095 4 0 -8.177767476846862 -4.579386825750705 -15.601612214609696 3 0 1
1376 299 4 0 -7.96060232094716 -4.494016949753794 -15.959209237054479 3 0 0
8014 2512 2 0 -8.396978332154168 -3.196705155120293 -15.511800706541589 3 0 1
8015 2512 4 0 -7.92568556753176 -3.233244929782334 -15.7149688399776 3 0 1
1375 299 2 0 -7.818130445197609 -4.023212005836232 -15.90966960534344 3 0 0
1377 299 4 0 -7.656937214911554 -3.5104270026675177 -15.84421166188632 3 0 0
6210 1910 4 0 -7.561268452803262 -3.2394444235704754 -15.600393801156224 3 0 1
6375 1965 4 0 -7.656460373187761 -3.1426794202456296 -15.973419291720498 3 0 1
8016 2512 4 0 -8.878107231748722 -3.1599166805684575 -15.30968374061676 3 0 1
6208 1910 2 0 -7.371692720852408 -3.0621253982391003 -15.154160671447464 3 0 1
1615 379 2 0 -2.5327125199400715 -3.2726244872092636 -15.444697057674485 4 0 0
6739 2087 2 0 -1.7931942267857774 -3.272358435494759 -16.518783636892977 4 0 1
6740 2087 4 0 -2.2193038807529373 -3.1943855669737395 -16.28747857437908 4 0 1
1616 379 4 0 -2.4629673654587094 -3.1783070941261347 -15.94466785798794 4 0 0
1945 489 2 0 -1.0476319857615515 -4.194565192521928 -15.165143964942297 4 0 0
6232 1918 2 0 -0.7419251182961215 -3.6977645407916295 -16.1848922825798 4 0 1
1947 489 4 0 -0.6717788437857415 -4.004494213006993 -15.46440866501908 4 0 0
6234 1918 4 0 -0.44864206275114427 -3.8863581249908385 -15.825817680401364 4 0 1
2133 551 4 0 -0.2515573728085059 -3.9646558543008545 -15.476129875977055 4 0 0
2131 551 2 0 0.08708320165839112 -4.236060727412754 -15.198423362821721 4 0 0
6233 1918 4 0 -1.0463897018004005 -3.5028285300405013 -16.55910234017819 4 0 1
10307 3276 4 0 10.330699290229767 -4.527744419040664 -15.452247811118031 4 0 0
8523 2681 4 0 10.694004350184144 -4.375243339932419 -15.413368534587349 4 0 0
8521 2681 2 0 10.738443879133609 -3.914166546183976 -15.197361854665852 4 0 0
3147 889 4 0 13.34439642700973 -3.996352029130282 -15.4558458037054 4 0 0
3145 889 2 0 13.210473405996492 -3.5639979284309256 -15.242305868265703 4 0 0
3146 889 4 0 13.088896999673352 -3.1492949939350954 -15.044715098852723 4 0 0
7191 2237 4 0 -12.229264829158767 -2.687607604591644 -16.052813481074416 3 0 1
6417 1979 4 0 -11.087043556074574 -2.9422852248456763 -15.511145307039037 3 0 1
8403 2641 4 0 -11.007453371424356 -2.9348318558898647 -15.902651477433057 3 0 1
7189 2237 2 0 -11.740523380051592 -2.6666650240142094 -15.892861887535663 3 0 1
7190 2237 4 0 -11.263021842936412 -2.649148982958957 -15.737959135474597 3 0 1
7338 2286 4 0 -10.847825436761394 -2.6478902179768635 -15.679018526459945 3 0 1
7336 2286 2 0 -10.581032100494735 -2.217033610158552 -15.727387314396369 3 0 1
7337 2286 4 0 -10.324635451345195 -1.7942479384499261 -15.780252391524929 3 0 1
407 82 3 0 -10.099620257811335 -1.8047630966742947 -16.125889662240965 3 0 1
8452 2658 2 0 -9.573768845152623 -1.6303150874631918 -15.483182021888204 3 0 1
7122 2214 4 0 -9.486109275706536 -2.7509279336784065 -16.475615887059636 3 0 1
7121 2214 4 0 -9.083085588921021 -2.927761735057098 -15.569069009050068 3 0 1
7120 2214 2 0 -9.289234144676838 -2.8376185477000675 -16.031392844905117 3 0 1
8454 2658 4 0 -9.972695570977628 -1.6049477451953358 -15.791198181845349 3 0 1
8453 2658 4 0 -9.15738703732685 -1.6695159616790427 -15.155979536252447 3 0 1
6373 1965 2 0 -7.7686635062996245 -2.962735120691651 -16.458344172048296 3 0 1
6767 2096 4 0 -9.127108610895666 -2.8978972548934028 -15.164215619882548 3 0 1
6766 2096 2 0 -9.080976557156362 -2.4339848436849945 -15.019009300322661 3 0 1
2489 670 4 0 7.324662026668111 -2.6411069825596485 -16.040388713309934 4 0 0
2488 670 2 0 7.613245141708212 -2.8958633469404536 -16.35043337082014 4 0 0
11816 3779 4 0 5.352962785773602 -0.406261165921709 -5.5526600889412805 5 0 0
2544 688 4 0 9.316423744999685 -2.322339998059933 -16.33260295836658 4 0 0
2542 688 2 0 9.653319032608088 -2.262607338216476 -15.954182879471617 4 0 0
2543 688 4 0 9.98633379987972 -2.1932481800803654 -15.584370693554865 4 0 0
1595 372 4 0 10.33635987791888 -2.0124921578886728 -15.740622827371748 4 0 0
9641 3054 4 0 10.355189058534645 -2.3426690285531997 -15.517210998610675 4 0 0
9640 3054 2 0 10.488905151861193 -2.7135628357951536 -15.225085668675495 4 0 0
1813 445 2 0 12.165476203850542 -1.8685915982909638 -16.108979317995004 4 0 0
1594 372 2 0 10.714874304233472 -1.6988816658546781 -15.65188246310336 4 0 0
1986 502 4 0 11.951446122912344 -2.61446255274533 -16.311808621723383 4 0 0
1814 445 4 0 11.990457252230488 -2.32333348566989 -16.04854356533287 4 0 0
2118 546 4 0 12.234749542683186 -2.635005319899518 -16.00265035375289 4 0 0
2116 546 2 0 12.514472743797967 -2.748252768513005 -15.59830238091675 4 0 0
2117 546 4 0 12.818304549831936 -2.871289519189375 -15.179803414651651 4 0 0
2389 637 2 0 13.541176995021175 -2.4775603259003436 -15.087835438998313 4 0 0
2391 637 4 0 13.959549487419501 -2.14515206299537 -15.14808836841064 4 0 0
2582 701 4 0 14.147233509839086 -1.8282962130653289 -15.240399017506316 4 0 0
560 112 3 0 -10.599513010468115 -1.1064429677191914 -15.428016408900623 3 0 1
557 112 3 0 -10.845174974926104 -1.0148956348013165 -16.216422090483007 3 0 1
558 112 3 0 -10.253122418817295 -1.5090660545637498 -16.051609097474145 3 0 1
556 112 1 0 -10.45814466049136 -1.0902078682578136 -15.928508124894462 3 0 1
559 112 3 0 -10.134594824949149 -0.7389130481170039 -15.990784900288146 3 0 1
1596 372 4 0 11.093837121017973 -1.3848928672360081 -15.561523599416422 4 0 0
190 38 3 0 11.409896730921567 -1.1217830474173578 -15.55244232272477 4 0 0
186 38 1 0 11.886242235900685 -0.9803775157173718 -15.513543271598802 4 0 0
187 38 3 0 11.910289886204023 -0.4475759963649075 -15.514423238912418 4 0 0
1815 445 4 0 12.339721896464685 -1.4064404366589418 -16.171427896061452 4 0 0
188 38 3 0 12.147201393861852 -1.1722829624274311 -15.895146608708677 4 0 0
189 38 3 0 12.07589244044362 -1.1452407061636087 -15.082772922773394 4 0 0
3189 903 4 0 12.5177113227254 -1.093627532982076 -16.034542281080423 4 0 0
3187 903 2 0 13.015032873405683 -1.0405220353385687 -16.051020723150497 4 0 0
3188 903 4 0 13.534254518496002 -0.9792046618111012 -16.08360847727078 4 0 0
3120 880 4 0 12.402436179077288 -1.3234523571826369 -15.259402414895243 4 0 0
2583 701 4 0 13.892312708498991 -1.1516445474422916 -15.923537328107797 4 0 0
2581 701 2 0 14.01150021343367 -1.4946311505374865 -15.581266056747909 4 0 0
1753 425 2 0 -5.57406101081548 -16.362368691893884 -14.493648751862416 1 0 0
1842 454 4 0 -4.920080566605828 -16.343149093733224 -13.951899455507085 1 0 0
1490 337 4 0 -4.8049309401686 -16.141948099311797 -14.26656536082908 1 0 0
1700 407 4 0 -5.0998816933196665 -15.996408333572216 -13.991935665355962 1 0 0
1699 407 2 0 -5.046267929204422 -15.5681971399908 -13.779464353919778 1 0 0
1701 407 4 0 -4.991332732126654 -15.125448704409804 -13.571588713418471 1 0 0
1754 425 4 0 -5.165599546868481 -16.28266713046072 -14.274776062910565 1 0 0
1489 337 2 0 -4.320752108730552 -16.067558634240616 -14.443976430211817 1 0 0
1491 337 4 0 -3.8305401750357113 -15.991445689937432 -14.620476816013914 1 0 0
2294 605 4 0 -3.72249643495873 -16.369492464612993 -14.604987442948808 1 0 0