LAMMPS data file via write_data, version 29 Aug 2024, timestep = 9000000, units = lj

1530 atoms
4 atom types
1030 bonds
1 bond types

-6.798029 6.798029 xlo xhi
-6.798029 6.798029 ylo yhi
-6.798029 6.798029 zlo zhi

Masses

1 1
2 1
3 1
4 1

Bond Coeffs # zero

1 0

Atoms # bond

283 85 2 -6.0320275666535785 -6.657024552950136 -5.823608930272682 0 0 1
285 85 4 -6.403316926683386 -6.345636044340887 -5.946821786073986 0 0 1
1094 355 4 -6.649971130330991 -6.037079731644159 -5.938905208784149 1 0 1
218 63 4 -0.8339628026311421 -0.4399646986496405 -1.3630701782626213 0 0 0
158 43 4 -0.6015550329840088 -6.643035048354129 -6.148751469178602 0 0 0
157 43 2 -0.5568426703322096 -6.5477882464803105 -6.637554958691158 0 0 0
103 25 2 -6.324779259072143 -3.7325930511084398 -5.360509072102647 0 0 0
1043 338 4 -6.650856208089924 -3.8577057467412335 -6.168861857508447 1 0 1
837 269 4 -6.6938213278248115 -3.5225231955724574 -5.940383827764959 1 0 0
105 25 4 -6.394594841192272 -3.789453564151483 -5.852334921920713 0 0 0
366 112 4 -5.606070115708287 -3.5325694359874067 -6.727345768523785 0 0 1
98 23 4 -2.4952407737641864 -3.4670996294126435 -6.200966775685402 0 0 0
140 37 4 -5.695924645087416 -3.3365642431044993 -6.383390216636836 0 0 0
835 269 2 -6.771066679824194 -3.1227109650083418 -6.230527474750399 1 0 0
139 37 2 -5.320068903692322 -3.062798000420408 -6.199584596410731 0 0 0
141 37 4 -4.944213162297228 -2.789031757736317 -6.0157789761846265 0 0 0
197 56 4 -4.843769983244757 -2.417559860804655 -5.927465313805522 0 0 0
196 56 2 -4.493604187444086 -2.253626781519125 -6.244498215831487 0 0 0
78 16 4 -3.8357077945191493 -1.9025339365403837 -6.382794870444178 0 0 0
236 69 4 -3.7598621526207694 -2.1234594392812234 -6.691452539315687 0 0 0
198 56 4 -4.143438391643416 -2.089693702233595 -6.561531117857451 0 0 0
90 20 4 -3.935910608053346 -1.809378060875882 -6.768462099421148 0 0 0
97 23 2 -2.6487789631465803 -3.25861761869737 -6.628706504503346 0 0 0
233 68 4 -2.379596039856831 -3.352779715182829 -5.829580093914328 0 0 0
232 68 2 -2.399178580965451 -2.959856845194515 -5.520989519975664 0 0 0
241 71 2 -2.7999922996562474 -1.8626095788596948 -5.316256900553705 0 0 0
234 68 4 -2.418761122074071 -2.5669339752062013 -5.212398946036999 0 0 0
192 54 4 -2.1114979384410564 -2.319342950589271 -5.109722351442297 0 0 0
76 16 2 -3.532052872356147 -1.6019162504523534 -6.123136065360064 0 0 0
242 71 4 -3.126966068095864 -1.545118150444668 -5.521895777314009 0 0 0
246 72 4 -3.3966522912662165 -1.241578132518807 -5.508905075823051 0 0 0
77 16 4 -3.2283979501931452 -1.3012985643643231 -5.863477260275949 0 0 0
162 44 4 -3.007978446107999 -1.1673784136542027 -5.546670724688875 0 0 0
161 44 4 -2.529187583647386 -0.5650236836512901 -6.185363208805784 0 0 0
160 44 2 -2.7685830148776924 -0.8662010486527464 -5.866016966747329 0 0 0
671 214 4 -2.3720646634298244 -0.34109354313909557 -6.499026535543934 0 0 1
357 109 4 -2.1347317201221534 -0.47509804365440245 -6.188398108887133 0 0 1
355 109 2 -1.6772982057103685 -0.33973272125016657 -6.038628921860201 0 0 1
142 38 2 -0.47608833024501523 -1.6737914747042895 -5.4054575622673555 0 0 0
137 36 4 -0.8325500165023004 -0.24550022179487974 -5.991253304260311 0 0 0
136 36 2 -0.5251235432858022 -0.6267510913423755 -5.890571935403436 0 0 0
356 109 4 -1.219864691298583 -0.20436739884593047 -5.888859734833267 0 0 1
143 38 4 -0.14341241705319263 -1.364563179102912 -5.614514009145309 0 0 0
138 36 4 -0.21769707006930406 -1.008001960889871 -5.789890566546561 0 0 0
806 259 4 -6.767334293604526 -4.987354587598833 -2.508288083016617 1 0 0
85 19 2 -5.42393890993829 -6.702771422640649 -4.910455470447025 0 0 0
184 52 2 -5.222074356732953 -5.845098941872574 -3.897368138191085 0 0 0
186 52 4 -5.188037248524149 -5.413311569857508 -3.6475659351726386 0 0 0
86 19 4 -5.439751485050259 -6.490194063628985 -4.458171456906919 0 0 0
185 52 4 -5.256111464941756 -6.27688631388764 -4.147170341209532 0 0 0
15 3 3 -5.417025859075828 -5.134794116238666 -3.808397356609344 0 0 0
104 25 4 -6.254963676952014 -3.6757325380653967 -4.86868322228458 0 0 0
163 45 2 -6.006746464272261 -4.027772537111483 -4.061048756853542 0 0 0
165 45 4 -6.213583674098508 -3.895007847110222 -4.4964702833310595 0 0 0
164 45 4 -5.799909254446014 -4.160537227112743 -3.6256272303760255 0 0 0
11 3 1 -5.243182561220757 -4.74191696987351 -3.657314413646739 0 0 0
13 3 3 -5.57990374654718 -4.479097466270889 -3.4760832025438666 0 0 0
224 65 4 -5.992288957337047 -4.417464458287227 -3.375602120517494 0 0 0
14 3 3 -5.036122944797622 -4.516030762551224 -4.00574193349503 0 0 0
214 62 2 -2.2995974150702208 -3.6664980887791248 -3.9920850187656587 0 0 0
215 62 4 -2.069596460773699 -4.11016184889995 -3.97589770959078 0 0 0
920 297 4 -1.7741052606028553 -4.303690144510629 -3.7536275849342315 0 0 0
894 288 4 -0.2073574080029651 -3.532574234292574 -4.831583265912833 0 0 0
3 1 3 -0.8360114052761701 -3.8984093379098255 -4.2654824929684185 0 0 0
921 297 4 -0.8313504228739712 -3.9893238371161917 -3.864925117307067 0 0 0
919 297 2 -1.3027278417384134 -4.1465069908134105 -3.809276351120649 0 0 0
227 66 4 -0.49204054647451034 -3.899298428591672 -3.6501737635100917 0 0 0
1 1 1 -0.43297663723767216 -3.669735420201251 -4.289382599910945 0 0 0
5 1 3 -0.2369927094272935 -3.656914359460022 -3.878498284754735 0 0 0
4 1 3 -0.15054914346061232 -3.877832723066661 -4.5930768924138645 0 0 0
243 71 4 -2.473018531216631 -2.180101007274722 -5.110618023793401 0 0 0
216 62 4 -2.5295983693667425 -3.2228343286582994 -4.008272327940538 0 0 0
146 39 4 -2.3856681409830256 -2.461254705920925 -4.830237453002394 0 0 0
194 55 4 -2.712191494499615 -3.066661860037214 -3.665903380991051 0 0 0
147 39 4 -2.76656808709464 -2.8986389310539615 -4.015614674865755 0 0 0
145 39 2 -2.5761181140388327 -2.6799468184874433 -4.422926063934074 0 0 0
144 38 4 -0.8087642434368376 -1.983019770305667 -5.196401115389402 0 0 0
190 54 2 -1.636012858945701 -2.1838793121323303 -5.035133197859176 0 0 0
173 48 4 -0.9144823619804916 -2.3406030722545816 -5.098362517009428 0 0 0
191 54 4 -1.1605277794503455 -2.04841567367539 -4.960544044276055 0 0 0
2 1 3 -0.5140588328269441 -3.240000216429408 -4.4320477049559255 0 0 0
172 48 2 -0.7201245409616129 -2.7829168943623155 -4.969585499723403 0 0 0
174 48 4 -0.5257667199427339 -3.2252307164700493 -4.840808482437376 0 0 0
508 160 2 -3.894951328795535 -0.8742477404856084 -3.7989419427584328 0 0 0
245 72 4 -3.893475749154329 -1.0672490318336867 -4.658742846395802 0 0 0
510 160 4 -3.8299245847735732 -0.9680007882625232 -4.285749798687681 0 0 0
244 72 2 -3.6450640202102726 -1.154413582176247 -5.0838239611094265 0 0 0
1227 399 4 -0.59820942737007 -0.24584187293686055 -1.110717889685652 0 0 0
171 47 4 -5.732641682651289 -6.400260422501605 -1.9780480759426429 0 0 0
201 57 4 -6.050726806225946 -6.594500905788551 -1.7993023034246085 0 0 0
169 47 2 -5.304899486633185 -6.159361409138534 -2.0729389559366407 0 0 0
93 21 4 -5.043782975394024 -5.250836896685054 -3.303020735978776 0 0 0
199 57 2 -6.440419663699432 -6.281653480875916 -1.8156107539844908 0 0 0
170 47 4 -4.877157290615083 -5.918462395775464 -2.167829835930639 0 0 0
91 21 2 -4.920294202318977 -5.431262197032944 -2.853357268573435 0 0 0
248 73 4 -4.526163179574309 -5.677989299182242 -2.128596234359554 0 0 0
92 21 4 -4.796805429243928 -5.611687497380834 -2.403693801168094 0 0 0
116 29 4 -5.68831337959941 -4.145398717212323 -3.24720561106627 0 0 0
225 65 4 -6.7396268924909615 -4.869380687981048 -2.8885110284005195 0 0 0
223 65 2 -6.365957924914004 -4.643422573134138 -3.132056574459007 0 0 0
115 29 2 -5.555103513098446 -3.7164157789047385 -3.0275951147162043 0 0 0
12 3 3 -4.931218757041595 -4.829853663189608 -3.3309009904391744 0 0 0
226 66 2 -0.179663265392038 -4.026317620288158 -3.2810036682904538 0 0 0
117 29 4 -5.421893646597484 -3.2874328405971545 -2.807984618366138 0 0 0
845 272 4 -6.5434698882355455 -2.465671032216836 -2.003388334654548 1 0 0
897 289 4 -5.621412369255536 -3.1005786574071696 -2.5078064567487717 1 0 0
895 289 2 -6.057138790385556 -2.8694273158350323 -2.425882447946778 1 0 0
896 289 4 -6.492865211515577 -2.6382759742628963 -2.3439584391447856 1 0 0
9 2 3 -5.247527157005511 -2.969486070440521 -2.631535677623864 0 0 0
10 2 3 -5.215245738824552 -2.290633945758938 -2.3074713277546515 0 0 0
6 2 1 -5.012719799346871 -2.570193026717466 -2.6045066187430046 0 0 0
8 2 3 -4.9927362474602 -2.3695794014513103 -3.0224238725287296 0 0 0
127 33 2 -3.9135932103485045 -2.853813403089859 -2.8035011563347485 0 0 0
128 33 4 -4.28485761263201 -2.5264039146352077 -2.7330329332343832 0 0 0
7 2 3 -4.584599804823904 -2.6588287652571148 -2.461478732848606 0 0 0
230 67 4 -4.3110115616334355 -2.414061877835468 -2.321046613565158 0 0 0
229 67 2 -4.243308760868306 -1.9687101750957245 -2.1040715190605837 0 0 0
129 33 4 -3.5423288080649993 -3.18122289154451 -2.8739693794351138 0 0 0
212 61 4 -3.4106177608874364 -3.2892202488340025 -2.5014601246414414 0 0 0
193 55 2 -2.934316277841747 -3.098351308948117 -3.2190741524792355 0 0 0
195 55 4 -3.1564410611838785 -3.1300407578590197 -2.77224492396742 0 0 0
211 61 2 -3.0861307905194075 -3.1746168478466954 -2.1387284517161365 0 0 0
213 61 4 -2.761643820151378 -3.0600134468593883 -1.7759967787908315 0 0 0
640 204 2 -5.795547541812788 -0.6270793986102167 -1.9301876178406678 0 0 0
642 204 4 -5.660653092950105 -1.1085213456385776 -1.9343275824802524 0 0 0
641 204 4 -5.930441990675472 -0.14563745158185581 -1.9260476532010837 0 0 0
505 159 2 -4.551630393337782 -0.10753099999313731 -3.1509000099573337 0 0 0
509 160 4 -3.959978072817497 -0.7804946927086935 -3.312134086829184 0 0 0
231 67 4 -4.1756059601031765 -1.5233584723559808 -1.8870964245560096 0 0 0
507 159 4 -4.193558208494588 -0.4552221265379684 -3.1808197519917214 0 0 0
435 135 4 -4.093607696584184 -0.7415703689324351 -2.9350231126491497 0 0 0
433 135 2 -4.155220002000173 -0.9464719592483285 -2.4831168589781627 0 0 0
434 135 4 -4.216832307416163 -1.151373549564222 -2.031210605307176 0 0 0
121 31 2 -2.152091682596036 -1.2372423916001807 -1.8985378185508641 0 0 0
613 195 2 -1.7660690275212148 -0.42106650201237206 -2.580247678616809 0 0 0
614 195 4 -1.6822537480949171 -0.8460213408331664 -2.330471010577128 0 0 0
123 31 4 -2.6078238036105823 -1.3135285214350314 -1.7075177665385355 0 0 0
122 31 4 -1.6963595615814904 -1.1609562617653302 -2.0895578705631923 0 0 0
219 63 4 -1.4126174039058355 -0.8541336011291184 -2.065653249965256 0 0 0
217 63 2 -1.1232901032684888 -0.6470491498893794 -1.7143617141139385 0 0 0
925 299 2 -6.72689291221712 -5.460054217430477 -1.108626428916823 1 0 0
315 95 4 -6.645157562791028 -5.231976446380821 -0.34635362102055145 0 0 0
927 299 4 -6.580435014523509 -5.164796351473594 -0.7326305821395663 1 0 0
206 59 4 -6.302917872260563 -5.366657792479077 -0.5682139486812687 0 0 0
247 73 2 -4.370614224150094 -5.56908815334642 -1.6660542763689312 0 0 0
249 73 4 -4.215065268725878 -5.460187007510598 -1.2035123183783085 0 0 0
417 129 4 -3.9274856095522153 -5.370596792664341 -0.9211111327529595 0 0 0
329 100 4 -1.9502823661428137 -5.569436168945741 -0.5731897455525283 0 0 0
177 49 4 -1.7073682509196044 -5.850686862978125 -0.72221544263724 0 0 0
328 100 2 -2.161986961548653 -5.378739050489136 -0.1623177785160727 0 0 0
175 49 2 -1.599898309304429 -6.324860249396908 -0.8388765383843907 0 0 0
1225 399 2 -0.15619313952522185 -0.15164800817722687 -1.3246083222012002 0 0 0
1016 329 4 -1.6021083699175505 -5.483787971302458 -0.8050268817050898 0 0 0
1015 329 2 -1.1964795805061421 -5.207564348884846 -0.7092887199374817 0 0 0
205 59 2 -5.908107593305947 -5.0665733435136175 -0.5043847459597343 0 0 0
182 51 4 -5.464889937019116 -4.606050883937641 -0.08978932456394578 0 0 0
207 59 4 -5.51329731435133 -4.766488894548157 -0.4405555432382003 0 0 0
415 129 2 -4.081686960558042 -4.988190703453782 -0.6382904717647649 0 0 0
416 129 4 -4.23588831156387 -4.605784614243222 -0.3554698107765703 0 0 0
79 17 2 -3.9639997808076832 -3.812885277568857 -0.6600283052451306 0 0 0
81 17 4 -4.207853532493432 -4.229723460514596 -0.5304857368483575 0 0 0
183 51 4 -4.517361746251213 -4.339127723423052 -0.2656937135982863 0 0 0
80 17 4 -3.720146029121935 -3.3960470946231176 -0.7895708736419035 0 0 0
181 51 2 -4.991125841635165 -4.472589303680346 -0.1777415190811159 0 0 0
398 123 4 -4.119023705339307 -4.307503875753516 -0.11297588802675396 0 0 0
1017 329 4 -0.7908507910947338 -4.9313407264672335 -0.6135505581698735 0 0 0
1028 333 4 -0.44609962474413295 -4.739412973014167 -0.7006685764681568 0 0 0
153 41 4 -0.5847660336929474 -4.710149173754184 -0.3231102839251309 0 0 0
1027 333 2 -0.030305076514777072 -4.715725082247897 -0.9773521095772636 0 0 0
110 27 4 -3.4397621558536926 -3.1590192565436253 -0.6188021324365887 0 0 0
548 173 4 -2.850591714011887 -2.688976994546941 -1.6725455817157358 0 0 0
547 173 2 -2.787409486598613 -2.1936916908740236 -1.6460791103862855 0 0 0
109 27 2 -3.133290958617238 -3.0700412060159197 -1.003715514625854 0 0 0
83 18 4 -2.4924761708079735 -2.8224029026761435 -1.5852055882587974 0 0 0
111 27 4 -2.8268197613807837 -2.9810631554882137 -1.3886288968151193 0 0 0
82 18 2 -2.057632847800522 -2.983485885217428 -1.398220141842551 0 0 0
84 18 4 -1.6227895247930708 -3.144568867758713 -1.2112346954263047 0 0 0
135 35 4 -1.4137436290524963 -3.146609937097544 -0.8916509156234614 0 0 0
133 35 2 -1.5157954121986357 -3.140406951835067 -0.4022155710371215 0 0 0
363 111 4 -5.331342967248968 -1.0600473317324808 -1.6970246329974985 0 0 0
362 111 4 -4.346400597776564 -1.2232281761218542 -1.639923487292006 0 0 0
518 163 4 -3.964714709223629 -1.239996741952053 -1.712040301830849 0 0 0
361 111 2 -4.838871782512766 -1.1416377539271674 -1.668474060144752 0 0 0
517 163 2 -3.4740099658175616 -1.3241048519060648 -1.665837697588762 0 0 0
119 30 4 -4.0830414168535025 -0.6559159208065692 -0.44517265095052455 0 0 0
120 30 4 -4.108305600095491 -1.0731307954473426 -1.3536292924147244 0 0 0
411 127 4 -4.152115221505317 -0.4104044800423738 -0.1106506195503684 0 0 0
118 30 2 -4.095673508474497 -0.8645233581269557 -0.8994009716826243 0 0 0
422 131 4 -3.8375026640486105 -0.6481645010121094 -0.11011803841504052 0 0 0
293 88 4 -4.209626287944457 -0.8074809889685564 -0.07359742565030558 0 0 0
251 74 4 -2.672512754955227 -1.2596030406679954 -0.004041708484075368 0 0 0
549 173 4 -2.7242272591853394 -1.6984063872011061 -1.6196126390568348 0 0 0
421 131 2 -3.355315218015516 -0.778703226358781 -0.08878946432482938 0 0 0
126 32 4 -2.7014972863558424 -1.4054878141951652 -1.334924020251334 0 0 0
124 32 2 -2.7154066663908814 -1.27099312534977 -0.8535533649149524 0 0 0
423 131 4 -2.8731277719824213 -0.9092419517054526 -0.06746089023461824 0 0 0
519 163 4 -2.9833052224114938 -1.4082129618600765 -1.619635093346675 0 0 0
125 32 4 -2.72931604642592 -1.1364984365043747 -0.37218270957857075 0 0 0
552 174 4 -2.487491360928377 -0.9118119119225092 -0.17209339555886544 0 0 0
550 174 2 -2.1873374922697244 -0.5120506382972543 -0.16216468775225795 0 0 0
551 174 4 -1.8871836236110717 -0.11228936467199929 -0.1522359799456504 0 0 0
775 249 2 -1.2373029982862584 -0.15228039270697835 -0.6477853810027967 0 0 0
776 249 4 -0.9688671289625294 -0.31663334554222144 -1.0362828597011058 0 0 0
307 93 2 -4.04332793431966 -6.5235997099114424 -6.775582386127947 0 0 1
403 125 2 -4.023204132183276 -5.103372119518385 1.2250297810193347 0 0 0
405 125 4 -4.223428251293292 -5.540940873758954 1.3608380555784196 0 0 0
330 100 4 -2.3736915569544923 -5.188041932032532 0.24855418852038283 0 0 0
425 132 4 -0.43764505140738563 -6.600819821199258 1.520394240181328 0 0 0
424 132 2 -0.14252287941794228 -6.236432469303785 1.6939591023481657 0 0 0
345 105 4 -0.8409099764128971 -6.670009142680951 1.5330892593338288 0 0 0
404 125 4 -3.8229800130732596 -4.6658033652778155 1.0892215064602495 0 0 0
397 123 2 -3.913951279364041 -4.36623424784529 0.33923649957236474 0 0 0
399 123 4 -3.7088788533887747 -4.424964619937064 0.7914488871714838 0 0 0
352 108 2 -3.661491551857523 -3.9414661643865077 1.4378299463369544 0 0 0
354 108 4 -3.578917281816203 -4.349705655705484 1.1612038310586066 0 0 0
323 98 4 -3.4266126374697645 -4.655169324419683 0.9408085335139791 0 0 0
353 108 4 -3.744065821898843 -3.533226673067531 1.714456061615302 0 0 0
324 98 4 -2.590313661795104 -5.024906525316046 0.5359648284118579 0 0 0
155 42 4 -2.195487487511345 -4.9466555663798975 0.5353779165398382 0 0 0
322 98 2 -3.0084631496324343 -4.840037924867865 0.738386680962918 0 0 0
154 42 2 -1.7710601316946133 -4.686033214518362 0.5793939289028054 0 0 0
156 42 4 -1.3466327758778815 -4.425410862656827 0.6234099412657726 0 0 0
152 41 4 -0.960319247863578 -4.446788558881841 0.5654846574629784 0 0 0
407 126 4 -1.098207016787166 -4.32094635196213 0.9239306423494997 0 0 0
255 75 4 -1.1292946380261126 -4.079183775402201 0.6236632783505086 0 0 0
406 126 2 -0.9662216332036816 -4.378579157539117 1.4027399136066325 0 0 0
151 41 2 -0.7725426407782628 -4.578468866318013 0.12118718676892383 0 0 0
253 75 2 -1.3395609185311634 -3.6325257991631386 0.544386903910344 0 0 0
1054 342 2 -6.49163706686828 -1.9044770106071853 0.8471735517296395 1 0 0
1056 342 4 -6.13650106821788 -1.7733060683211748 1.1737812772381844 1 0 0
350 107 4 -4.142159203629789 -2.1348008964142866 1.0949158073632734 0 0 0
327 99 4 -4.0796412056891 -2.4471965189410407 1.3868072094532982 0 0 0
311 94 4 -3.7877788071183667 -2.3059961896085097 1.1579791427639572 0 0 0
349 107 2 -4.457315481964955 -1.7467522898527807 1.0851793207268516 0 0 0
325 99 2 -4.062650041177589 -2.8950606052665155 1.6084579719329724 0 0 0
310 94 2 -3.4571121595906016 -2.4053790319230406 0.796340346635143 0 0 0
312 94 4 -3.1264455120628365 -2.5047618742375715 0.43470155050632864 0 0 0
210 60 4 -2.7604244707255643 -2.5950005946195427 0.3124434558973782 0 0 0
252 74 4 -2.8576042627874 -2.2020430049846693 0.2744327919391897 0 0 0
208 60 2 -2.283873375876217 -2.7460277368241677 0.3219227129877371 0 0 0
209 60 4 -1.8073222810268696 -2.8970548790287927 0.3314019700780961 0 0 0
250 74 2 -2.7650585088713133 -1.7308230228263326 0.13519554172755696 0 0 0
254 75 4 -1.5498271990362142 -3.1858678229240764 0.4651105294701795 0 0 0
134 35 4 -1.617847195344775 -3.1342039665725894 0.0872197735492184 0 0 0
267 79 4 -5.949290104121388 -1.6921833691397752 1.5033024120014578 0 0 0
1164 378 4 -5.947284952195813 -1.429474545221219 1.1916091629777212 1 0 0
980 317 4 -6.2666246065471265 -1.4653934658280001 1.4274314352304498 1 0 0
1162 378 2 -5.501994903453247 -1.2560837623907366 1.0444615876669676 1 0 0
1163 378 4 -5.056704854710682 -1.0826929795602545 0.8973140123562137 1 0 0
292 88 2 -4.441974112970054 -0.9638810138290647 0.3405927727233652 0 0 0
294 88 4 -4.674321937995652 -1.1202810386895727 0.7547829710970355 0 0 0
351 107 4 -4.772471760300123 -1.3587036832912749 1.0754428340904294 0 0 0
291 87 4 -4.766510745187408 -0.9712599595882844 1.1379674332444338 0 0 0
289 87 2 -4.703595976055544 -0.7007155730381288 1.5537167167447203 0 0 0
413 128 4 -1.8425717746441652 -6.025852559624815 2.1031525780001994 0 0 0
412 128 2 -1.7294319644607152 -5.592072738677414 2.324589815813014 0 0 0
344 105 4 -1.5866536476570952 -6.351640957124281 2.1183311539582004 0 0 0
414 128 4 -1.6162921542772655 -5.158292917730013 2.5460270536258287 0 0 0
343 105 2 -1.2137818120349961 -6.510825049902616 1.8257102066460147 0 0 0
1040 337 4 -0.062456472174996114 -5.534276891799901 1.842927324533947 0 0 0
1039 337 2 -0.40128043990067774 -5.171896667021079 1.9052080726316436 0 0 0
257 76 4 -3.934262075410009 -3.6429003253789047 2.0562227008514276 0 0 0
256 76 2 -3.8298158840147076 -3.667522986203365 2.5445716720557527 0 0 0
258 76 4 -3.7253696926194064 -3.6921456470278256 3.032920643260078 0 0 0
318 96 4 -3.7130010040704007 -3.4285356614699034 3.3362011476580262 0 0 0
396 122 4 -1.7435567395565463 -4.782157330097915 2.6545503415112157 0 0 0
394 122 2 -2.030303465328322 -4.713634935390859 3.0583832236330655 0 0 0
17 4 3 -1.373874820603643 -4.890632997796137 2.720143711319484 0 0 0
18 4 3 -1.0163145011647443 -4.260877836047992 2.9212880729463055 0 0 0
408 126 4 -0.8342362496201972 -4.436211963116104 1.8815491848637653 0 0 0
1041 337 4 -0.7401044076263594 -4.809516442242256 1.9674888207293402 0 0 0
19 4 3 -0.6404458595740111 -4.920238723543397 2.881715553315277 0 0 0
20 4 3 -0.8802577603941553 -4.581248839384542 2.253642221081742 0 0 0
16 4 1 -0.9757590921508362 -4.661971065761482 2.691550222608808 0 0 0
265 79 2 -5.862508203593819 -2.008750617173805 1.8804682630713727 0 0 0
266 79 4 -5.77572630306625 -2.325317865207835 2.257634114141288 0 0 0
276 82 4 -5.800718502520392 -2.522126995303738 2.602662413521117 0 0 0
274 82 2 -5.750323283024001 -2.524714474682614 3.100109523073718 0 0 0
326 99 4 -4.045658876666078 -3.3429246915919903 1.8301087344126465 0 0 0
979 317 2 -6.607615628780834 -1.2040478854782688 1.6832118300760153 1 0 0
670 214 2 -2.5936748151624838 -0.0774583005789204 6.734560224866788 0 0 0
341 104 4 -5.156704801749061 -1.1910836522227097 3.354346770189528 0 0 0
281 84 4 -4.850344772456266 -1.0452999971158419 3.164797025398231 0 0 0
280 84 2 -4.794034750915372 -0.764017147349704 2.755273961455223 0 0 0
290 87 4 -4.64068120692368 -0.43017118648797326 1.9694660002450068 0 0 0
282 84 4 -4.737724729374476 -0.4827342975835661 2.3457508975122154 0 0 0
719 230 4 -4.384883358053605 -0.31016232095372986 2.2546850466779538 0 0 0
743 238 4 -4.7561591238845695 -0.11929907181552601 2.1805476870104172 0 0 0
718 230 2 -3.8923444302259087 -0.26203826909291283 2.326025639659364 0 0 0
720 230 4 -3.399805502398213 -0.2139142172320959 2.3973662326407745 0 0 0
348 106 4 -3.0116286566715535 -0.08843091163594408 2.299268199295678 0 0 0
296 89 4 -0.26581699930173375 -0.1247565358255262 1.931961514953406 0 0 0
297 89 4 -0.8276634805513254 -0.029711983280764485 2.753724902150793 0 0 0
295 89 2 -0.5467402399265296 -0.07723425955314527 2.3428432085520994 0 0 0
321 97 4 -4.483534429206157 -1.2842016910907357 5.675902189821157 0 0 0
26 6 1 -3.4224396415856977 -3.647627137759862 4.901980943477689 0 0 0
29 6 3 -3.3714331018499393 -4.004537124824905 4.609896034526369 0 0 0
303 91 4 -3.272035948385698 -4.235875436094608 4.301685819526242 0 0 0
395 122 4 -2.3170501911000976 -4.645112540683803 3.462216105754915 0 0 0
302 91 4 -2.65636987748754 -4.457228411265153 3.5454066716397223 0 0 0
301 91 2 -2.964202912936619 -4.34655192367988 3.9235462455829824 0 0 0
27 6 3 -3.006590484971908 -3.483450459910606 5.010219094763046 0 0 0
1154 375 4 -5.979300612768492 -2.3772255688180715 3.859846056136283 1 0 0
275 82 4 -5.699928063527611 -2.52730195406149 3.597556632626319 0 0 0
1153 375 2 -6.307555717742508 -2.043147116767698 4.034889404863729 1 0 0
371 114 4 -5.622416087916532 -2.463983380324534 3.994975197356269 0 0 0
370 114 2 -5.427305156864774 -2.507689020209993 4.453256270090679 0 0 0
372 114 4 -5.232194225813016 -2.5513946600954513 4.911537342825089 0 0 0
1006 326 2 -6.731969545948449 -1.8711304975651895 5.043371395258191 1 0 0
1155 375 4 -6.635810822716524 -1.7090686647173245 4.2099327535911755 1 0 0
28 6 3 -3.6685351103278485 -3.3107071977249283 4.6989489896597645 0 0 0
277 83 2 -4.430964410290439 -2.884973823788726 4.753440188960682 0 0 0
279 83 4 -3.999687377920857 -3.0511519937902687 4.562691828115371 0 0 0
317 96 4 -3.7841039207715226 -3.264964206534235 4.320166977536614 0 0 0
316 96 2 -3.7485524624209616 -3.3467499340020694 3.8281840625973196 0 0 0
272 81 4 -3.601257698598098 -2.963029239593367 4.510282130425856 0 0 0
278 83 4 -4.8622414426600225 -2.718795653787183 4.944188549805992 0 0 0
271 81 2 -3.4297704145003296 -2.5419302192633255 4.718291088094602 0 0 0
273 81 4 -3.2582831304025612 -2.120831198933284 4.926300045763347 0 0 0
431 134 4 -3.357311354845298 -1.7578235845092904 5.053567056760013 0 0 0
300 90 4 -6.614038061031565 -1.3916798705370717 4.4900682800114735 0 0 0
298 90 2 -6.238479754541831 -1.061817585645343 4.477950877961826 0 0 0
299 90 4 -5.862921448052096 -0.7319553007536145 4.465833475912178 0 0 0
342 104 4 -5.648578892912571 -0.9207571816891962 4.1819840565492115 0 0 0
732 234 4 -5.478773159956802 -0.7193010048280712 4.493647515930039 0 0 0
340 104 2 -5.402641847330816 -1.055920416955953 3.7681654133693696 0 0 0
730 234 2 -5.298672495453151 -0.32740010951663717 4.746585134521907 0 0 0
375 115 4 -4.078152372515345 -6.1161902667135095 6.03225895502882 0 0 0
308 93 4 -3.984498635770416 -6.225901105041985 6.423090845302955 0 0 0
373 115 2 -3.7591030485501538 -5.768266531017609 5.867466348955109 0 0 0
374 115 4 -3.440053724584963 -5.420342795321708 5.702673742881398 0 0 0
681 217 4 -4.022691630710078 -0.013417960470179263 5.8445935118169094 0 0 0
572 181 4 -0.5093875517851278 -6.6784975795257635 6.137330307220995 0 1 -1
390 120 4 -0.1328520684142649 -6.509180281356926 6.301394809144894 0 0 0
159 43 4 -0.5121303076804102 -6.452541444606491 6.4696995517962845 0 0 -1
364 112 2 -5.341844153241493 -3.6820484308153008 6.471420561714062 0 0 0
360 110 4 -5.211235642428637 -3.650447650261833 5.731913274040359 0 0 0
365 112 4 -5.0776181907747 -3.8315274256431957 6.074128891951909 0 0 0
30 6 3 -3.6324297373476777 -3.786265580833227 5.2815643227025495 0 0 0
166 46 2 -4.34242746958085 -3.8683334693848734 5.657395651093209 0 0 -1
168 46 4 -4.820038406905696 -3.76943710742456 5.767428837623849 0 0 -1
167 46 4 -3.864816532256003 -3.9672298313451866 5.5473624645625685 0 0 -1
368 113 4 -3.5507509132126205 -3.759915884879056 5.67868093857492 0 0 0
269 80 4 -3.5046642367529226 -4.132124460780973 5.513576966009489 0 0 0
268 80 2 -3.4039775017834426 -4.621264976573553 5.489005901505301 0 0 0
270 80 4 -3.303290766813962 -5.110405492366133 5.4644348370011135 0 0 0
367 113 2 -3.3380190544268262 -3.458308346003972 6.01599095732652 0 0 0
187 53 2 -6.731946074173102 -2.4543687596306305 6.234815938691944 0 0 -1
262 78 2 -5.841740901173705 -2.3333824885543666 5.462222958959116 0 0 0
263 78 4 -6.267022076603138 -2.159774944274966 5.659697874822146 0 0 0
189 53 4 -6.624985661336174 -2.320332369895674 5.765141885425518 0 0 -1
1008 326 4 -6.61582731480823 -2.0534764852683445 5.494216072408025 1 0 0
264 78 4 -5.416459725744272 -2.5069900328337673 5.264748043096087 0 0 0
358 110 2 -5.1980632944803835 -3.23665399322118 5.451554042619264 0 0 0
359 110 4 -5.18489094653213 -2.8228603361805265 5.171194811198171 0 0 0
261 77 4 -5.022722657419028 -2.4679316015977704 5.256328163407043 0 0 0
259 77 2 -4.763670274069431 -2.075997274539148 5.427440249343098 0 0 0
235 69 2 -3.4438111124925226 -2.48570670608011 6.767169447463587 0 0 -1
369 113 4 -3.125287195641032 -3.156700807128887 6.35330097607812 0 0 0
237 69 4 -3.127760072364276 -2.8479539728789964 6.629733434242861 0 0 -1
99 23 4 -2.8023171525289743 -3.0501356079820963 6.539611766678709 0 0 -1
260 77 4 -4.504617890719835 -1.6840629474805255 5.598552335279153 0 0 0
319 97 2 -4.391219662218988 -0.796144034974424 5.733153461444705 0 0 0
320 97 4 -4.298904895231818 -0.3080863788581122 5.790404733068254 0 0 0
88 20 2 -4.142195553680807 -1.6750169978288685 6.392402120815828 0 0 -1
430 134 2 -3.7590341827589024 -1.6223075457149372 5.318622093992707 0 0 0
38 8 3 -4.702264246348762 -0.1834282755870603 5.741866749796909 0 0 0
89 20 4 -4.348480499308268 -1.5406559347818547 5.957208341052805 0 0 -1
432 134 4 -4.160757010672507 -1.486791506920584 5.583677131225402 0 0 0
240 70 4 -6.141489934586744 0.47464753873540955 -5.159169067492967 0 0 0
238 70 2 -6.5163056055594915 0.1895392736083369 -5.32717647789272 0 0 0
554 175 4 -4.906160746182684 0.38226530541303505 -5.22137663712634 0 0 0
563 178 4 -4.762914160066216 0.5124700462169336 -5.57427992626218 0 0 0
562 178 2 -4.698225594170153 0.8716063386838007 -5.916093490760961 0 0 0
456 142 4 -4.547805651106435 0.26180036896766845 -5.366839457345884 0 0 0
564 178 4 -4.63353702827409 1.230742631150668 -6.257907055259741 0 0 0
454 142 2 -4.053861420870007 0.2566855621545518 -5.289425400693411 0 0 0
763 245 2 -3.898677548893916 1.4823871344177646 -6.375882218042051 0 0 1
765 245 4 -4.391650825685625 1.465167970318205 -6.457618677205954 0 0 1
570 180 4 -4.738152856206685 1.401152447588402 -6.615179869473959 0 0 0
455 142 4 -3.559917190633577 0.25157075534143514 -5.2120113440409375 0 0 0
764 245 4 -3.405704272102206 1.4996062985173242 -6.294145758878148 0 0 1
632 201 4 -4.706081235389838 1.6193398825692444 -6.278239052030487 0 0 1
436 136 2 -3.269974355697699 0.825443212134975 -5.776064196926892 0 0 0
437 136 4 -3.1994074419405782 1.1971276098965733 -6.102975529161174 0 0 0
609 193 4 -3.2545711628804814 1.2233409190957065 -6.5189604814487145 0 0 1
605 192 4 -3.0193085789666605 1.5243894287214084 -6.306709046981185 0 0 0
438 136 4 -3.340541269454819 0.4537588143733764 -5.4491528646926115 0 0 0
540 170 4 -3.166242940710699 0.28082820653239227 -5.158808123494862 0 0 0
604 192 2 -2.5428070627843296 1.6735962490156033 -6.332855363236028 0 0 0
645 205 4 -1.7804730163734344 1.6723535635628166 -6.552122029346919 0 0 1
584 185 4 -3.1883508836236176 1.58685538812979 -5.937647506325108 0 0 0
580 184 2 -0.9710749784177413 0.4402655988475989 -6.429754581466164 0 0 0
514 162 2 -1.0721702514525098 0.32956770338232466 -5.346364579708234 0 0 0
581 184 4 -1.0274476509661439 0.07612791167577365 -6.091781407129856 0 0 0
1330 434 2 -6.4711485817690635 2.1854138185867007 -5.593396475578423 1 0 0
1332 434 4 -6.205358113478163 1.9424533862807771 -5.246516589596172 1 0 0
634 202 2 -5.055832868906052 3.1451538122635254 -5.313298822584399 0 0 1
1340 437 4 -4.999499384906098 2.308134139634194 -5.2285424596287475 1 0 0
631 201 2 -4.777645011658096 1.9750648384122749 -5.9342355902494885 0 0 1
633 201 4 -4.849208787926355 2.3307897942553053 -5.5902321284684895 0 0 1
635 202 4 -4.970688661206234 2.6680848132151094 -5.436407043441834 0 0 1
462 144 4 -4.659149929655853 2.469434335552182 -5.257011431703781 0 0 0
460 144 2 -4.187098324326475 2.401882162649193 -5.106665211790822 0 0 0
606 192 4 -2.0663055466019986 1.8228030693097983 -6.359001679490871 0 0 0