LAMMPS data file via write_data, version 29 Aug 2024, timestep = 2000000, units = lj

1530 atoms
4 atom types
1030 bonds
1 bond types

-6.798029 6.798029 xlo xhi
-6.798029 6.798029 ylo yhi
-6.798029 6.798029 zlo zhi

Masses

1 10
2 10
3 10
4 10

Bond Coeffs # zero

1 0

Atoms # bond

87 19 4 -5.48072258187052 -5.644097985324267 -5.3664518342946925 0 0 0
109 27 2 -5.018771589093148 -5.79831959195927 -6.013229052259301 0 0 0
110 27 4 -5.456029453334134 -5.905368624609205 -6.230820561211842 0 0 0
830 267 4 -6.645890023635695 -5.70529418608861 -6.0828879074010915 1 0 0
111 27 4 -4.581513724852162 -5.691270559309336 -5.79563754330676 0 0 0
145 39 2 -3.0311971290664528 -5.508476618307582 -5.190564251927772 0 0 0
147 39 4 -3.464830989370094 -5.55088269416051 -5.435846538138541 0 0 0
180 50 4 -1.90752520384018 -5.524492107526257 -6.230216805463898 0 0 0
136 36 2 -0.5097290721688077 -5.958901438254782 -5.223423716300492 0 0 0
137 36 4 -0.7691574743013229 -6.193149466758979 -5.580949610899618 0 0 0
178 50 2 -1.500614988731033 -5.814950648955847 -6.237826835055764 0 0 0
179 50 4 -1.093704773621886 -6.105409190385438 -6.24543686464763 0 0 0
169 47 2 -6.2642552485571 -3.911477880465561 -5.635831401646471 0 0 0
170 47 4 -5.844704216827357 -3.6807131891698153 -5.491871028538843 0 0 0
171 47 4 -6.683806280286842 -4.142242571761306 -5.779791774754099 0 0 0
402 124 4 -6.684101366149625 -4.543171112517913 -6.72634794728278 0 0 1
239 70 4 -2.203550857563126 -6.598815870630705 -1.1643119026820443 0 0 0
542 171 4 -6.174711052211039 -6.725644663231827 -2.343135491390143 0 1 0
228 66 4 -4.470083971389372 -3.6950782507951128 -5.329737562643076 0 0 0
423 131 4 -4.900053349306051 -3.3401092566988866 -6.5865882007861165 0 0 1
118 30 2 -3.0287179675149 -4.286006057960941 -5.537759322358795 0 0 0
120 30 4 -2.743689262499325 -4.272726435815384 -5.9483470583577756 0 0 0
82 18 2 -0.17316596302752818 -4.028011063252295 -5.492550805983379 0 0 0
83 18 4 -0.06435319348457605 -4.45540345448901 -5.256975923838761 0 0 0
84 18 4 -0.28197873257048034 -3.6006186720155804 -5.728125688127998 0 0 0
220 64 2 -4.1467369504962655 -1.2702964590810162 -1.4069414179311985 0 0 0
141 37 4 -1.5089402067948898 -1.5018627156069284 -1.3056344873595331 0 0 0
79 17 2 -6.413335709480015 -3.22323066284099 -6.461237381713317 0 0 0
80 17 4 -6.028153985507662 -3.1911261968593676 -6.144055505210856 0 0 0
100 24 2 -5.439551226472965 -2.713424252974467 -5.203294706280923 0 0 0
488 153 4 -4.632190362965731 -0.08406389928348362 -1.8271437787266107 0 0 0
218 63 4 -5.829306255751061 -1.7147133150960745 -6.787335835388481 0 0 0
132 34 4 -0.39114405643108185 -1.6318342941572608 -1.434656409082871 0 0 0
102 24 4 -5.042939833822669 -2.785602589577967 -5.499081269439524 0 0 0
248 73 4 -3.0474300763069557 -1.9608299706190395 -5.456691333632161 0 0 0
225 65 4 -1.980153212412087 -3.1477277873096563 -6.040073564602584 0 0 0
223 65 2 -1.551740960293036 -2.9178742857957225 -5.923324645654057 0 0 0
224 65 4 -1.1233287081739851 -2.6880207842817887 -5.806575726705531 0 0 0
332 101 4 -1.6039270855240797 -1.4937749613353168 -6.6700465038423085 0 0 1
456 142 4 -6.535392130602077 -0.09775801470454754 -5.906613898585645 0 0 0
815 262 4 -6.426109129614564 -0.2574488615026188 -6.250522656586402 1 0 0
454 142 2 -6.78251960353659 -0.028291141620166292 -5.477542382792908 0 0 0
207 59 4 -3.795738544982101 -1.0137629039046097 -5.747023338061043 0 0 0
205 59 2 -3.3178565692480158 -0.9980087944937559 -5.893244490103529 0 0 0
206 59 4 -2.8399745935139307 -0.982254685082902 -6.0394656421460144 0 0 0
231 67 4 -1.9891047764809442 -0.255921397660003 -5.709955543894397 0 0 0
229 67 2 -2.305103887284678 -0.20389341336782568 -5.325979436797068 0 0 0
160 44 2 -0.0854897221978274 -1.0371518606886834 -6.233282710996677 0 0 0
129 33 4 -0.6334792013367334 -0.7318991651435823 -1.1978404056467207 0 0 0
162 44 4 -0.2516846631259463 -0.5760500769125751 -6.134467800136951 0 0 0
907 293 2 -0.046281242849210764 -2.7404789422141564 -2.768930018172503 0 0 0
85 19 2 -5.318833915139179 -5.539082373162845 -4.905188589729968 0 0 0
86 19 4 -5.156945248407839 -5.434066761001423 -4.443925345165243 0 0 0
192 54 4 -4.135374744818018 -6.084204661899259 -3.4455399646665255 0 0 0
146 39 4 -2.5975632687628116 -5.466070542454654 -4.945281965717004 0 0 0
199 57 2 -3.0082586605572086 -5.493966424294679 -3.5904714975168357 0 0 0
200 57 4 -3.2850136546266357 -5.894381252707333 -3.7048158827951516 0 0 0
138 36 4 -0.2503006700362927 -5.7246534097505855 -4.865897821701366 0 0 0
246 72 4 -1.4881358417901882 -6.325216618031464 -4.229271946339705 0 0 0
244 72 2 -1.369752778044213 -6.370881259294249 -3.7456396575533075 0 0 0
245 72 4 -1.2513697142982378 -6.4165459005570336 -3.26200736876691 0 0 0
124 32 2 -6.79590064895977 -3.644827706944445 -4.634297197680933 0 0 0
126 32 4 -6.302534982180331 -3.5810525593127043 -4.584067232640573 0 0 0
226 66 2 -4.086031156400369 -3.4788688289324 -5.093608527585692 0 0 0
153 41 4 -3.379010290371384 -3.3243524280381025 -3.8275579538092424 0 0 0
90 20 4 -1.8931595704519297 -3.730773564792702 -3.92697802940197 0 0 0
119 30 4 -3.313746672530475 -4.299285680106499 -5.127171586359815 0 0 0
201 57 4 -2.7315036664877814 -5.093551595882023 -3.47612711223852 0 0 0
88 20 2 -1.8630299783189646 -4.116457648297788 -4.243742919199874 0 0 0
89 20 4 -1.8329003861859996 -4.502141731802875 -4.5605078089977775 0 0 0
101 24 4 -5.83616261912326 -2.6412459163709667 -4.907508143122322 0 0 0
236 69 4 -5.883989355702156 -1.948859401145794 -4.270864090784535 0 0 0
227 66 4 -3.7019783414113663 -3.262659407069687 -4.8574794925283085 0 0 0
209 60 4 -4.220750302612835 -2.7237974190020706 -3.205150353949366 0 0 0
151 41 2 -3.3359113606555013 -2.930308549170837 -4.132306873059969 0 0 0
247 73 2 -2.64242607434934 -1.8168587295176721 -5.201262204255813 0 0 0
152 41 4 -3.2928124309396187 -2.5362646703035714 -4.437055792310697 0 0 0
148 40 2 -1.0838466516224805 -2.2137797755806328 -3.5281095370657773 0 0 0
149 40 4 -0.8513689862034681 -1.9957613235385414 -3.9133654126219146 0 0 0
235 69 2 -5.914363486207551 -1.6598149288362265 -4.6777187395514765 0 0 0
237 69 4 -5.944737616712946 -1.370770456526659 -5.084573388318418 0 0 0
156 42 4 -5.171314977878873 -0.24021920363087995 -3.1782644126522217 0 0 0
817 263 2 -6.755918573547565 -5.033270510545098 -2.7698716541375803 1 0 0
184 52 2 -4.397906618562414 -1.2252859825414482 -4.311634069583842 0 0 0
185 52 4 -3.910327955506539 -1.1160550936321547 -4.2933130368521875 0 0 0
186 52 4 -4.885485281618289 -1.3345168714507416 -4.329955102315498 0 0 0
249 73 4 -2.237422072391724 -1.672887488416305 -4.945833074879465 0 0 0
183 51 4 -1.812256657839904 -0.3326274117870833 -3.409958836932555 0 0 0
230 67 4 -2.621102998088412 -0.15186542907564837 -4.942003329699739 0 0 0
117 29 4 -1.2964283039998559 -1.137518867919374 -4.75418097668099 0 0 0
115 29 2 -0.8770386671304164 -1.1726136718672182 -4.484216743452953 0 0 0
116 29 4 -0.4576490302609769 -1.2077084758150631 -4.214252510224916 0 0 0
814 262 2 -6.692561913613356 -0.6534073643565083 -6.399585656410649 1 0 0
194 55 4 -5.179276231214849 -5.407939165312012 -1.8680659807291553 0 0 0
175 49 2 -4.36825386775348 -6.481397403719289 -1.8102573873548462 0 0 0
176 49 4 -4.119785446166255 -6.06575008572429 -1.6857553772619833 0 0 0
190 54 2 -4.414849835259493 -5.733870312585006 -3.2238205078914555 0 0 0
191 54 4 -4.694324925700968 -5.383535963270754 -3.0021010511163855 0 0 0
142 38 2 -1.6988581712713546 -5.372247875134397 -3.2404855549708484 0 0 0
143 38 4 -2.076953439398161 -5.553788958982706 -2.9682966442944236 0 0 0
22 5 3 -1.1420499525310515 -6.7241994842845765 -2.3783332568617084 0 1 0
23 5 3 -1.730639212692411 -6.513847749760274 -1.960942755526366 0 1 0
91 21 2 -6.184148930874267 -3.2563322414119655 -2.958904446956768 0 0 0
92 21 4 -5.768317795108295 -3.533886876914291 -2.965824767642308 0 0 0
818 263 4 -6.366420445781158 -5.1302297493775075 -2.4717272017806726 1 0 0
103 25 2 -3.5149779282304126 -4.180049258265936 -2.0662089726625497 0 0 0
105 25 4 -3.8190442814368186 -4.517890882043176 -2.2745516953369598 0 0 0
104 25 4 -3.210911575024007 -3.842207634488696 -1.857866249988139 0 0 0
163 45 2 -2.1528874471296016 -4.188565390986567 -2.2655900892054253 0 0 0
164 45 4 -1.9907911392949253 -3.8500057083380925 -2.5958962021844383 0 0 0
165 45 4 -2.3149837549642784 -4.527125073635042 -1.9352839762264118 0 0 0
133 35 2 -0.45448615113973917 -4.775424617919491 -1.9697754345991205 0 0 0
134 35 4 -0.4168466132346761 -4.924794904696245 -2.445455771184994 0 0 0
144 38 4 -1.320762903144548 -5.190706791286088 -3.5126744656472737 0 0 0
232 68 2 -0.23482917340321646 -3.8395872613538717 -3.010522485408965 0 0 0
233 68 4 -0.3080190524627957 -3.3954217712633232 -3.2281466086481556 0 0 0
234 68 4 -0.16163929434363722 -4.28375275144442 -2.7928983621697743 0 0 0
93 21 4 -6.599980066640239 -2.9787776059096402 -2.951984126271228 0 0 0
121 31 2 -6.383988884315437 -2.306802737624757 -2.0231515921253598 0 0 0
123 31 4 -6.7408838840847345 -2.1703016126313877 -2.3456316721541643 0 0 0
210 60 4 -4.897185996062444 -2.225836514235453 -2.6624997389579117 0 0 0
112 28 2 -4.463367255090835 -2.7578540782616665 -1.8561616255798095 0 0 0
113 28 4 -4.118089494566399 -2.5681932620231565 -2.164077268038957 0 0 0
208 60 2 -4.558968149337639 -2.474816966618762 -2.9338250464536393 0 0 0
1 1 1 -2.6777892453748717 -2.7294820656691887 -3.056234753898573 0 0 0
2 1 3 -2.601358713518259 -2.6789747266657655 -2.605449458545252 0 0 0
3 1 3 -2.52097111515653 -3.1454211709956477 -3.189286378070989 0 0 0
4 1 3 -3.1340215764232098 -2.6994891117125497 -3.135307396569881 0 0 0
5 1 3 -2.458816047686465 -2.4009681445462507 -3.283235507911462 0 0 0
140 37 4 -0.6339189447361273 -1.9641213776663466 -1.4493519890650712 0 0 0
150 40 4 -1.3163243170414929 -2.431798227622724 -3.14285366150964 0 0 0
909 293 4 -0.5370997377437516 -2.6720180413080463 -2.702519852412758 0 0 0
168 46 4 -0.14033561594867805 -2.876134414989845 -1.4393362629592592 0 0 0
154 42 2 -5.131882214315296 -0.5487308721744588 -2.786772896102817 0 0 0
155 42 4 -5.09244945075172 -0.8572425407180375 -2.3952813795534125 0 0 0
6 2 1 -2.9959981421870276 -0.17722814541501575 -1.7274869292702915 0 0 0
221 64 4 -4.2511927497205395 -1.6304805344085158 -1.0762505987528685 0 0 0
9 2 3 -2.7358580957186804 -0.5235195054459302 -1.893948486969026 0 0 0
128 33 4 -0.8587093868309595 -0.3516534391173435 -2.094882518025159 0 0 0
193 55 2 -5.4342748745158875 -5.673419137996739 -1.5296932926796833 0 0 0
195 55 4 -5.689273517816926 -5.938899110681467 -1.1913206046302114 0 0 0
800 257 4 -6.739915512246849 -5.102164073631423 -0.8425928343929888 1 0 0
189 53 4 -3.387958585436758 -6.034332676117413 -0.8720897928680407 0 0 0
198 56 4 -4.531757575272359 -5.249352857519619 -1.0539245367011243 0 0 0
187 53 2 -3.350473838374011 -5.87560265565878 -0.39943804544417016 0 0 0
173 48 4 -5.44877616575682 -1.2538240919506638 -0.3618603435729053 0 0 0
240 70 4 -2.7486103820101384 -6.231141672549027 -1.917787714420089 0 0 0
238 70 2 -2.4760806197866323 -6.414978771589866 -1.5410498085510667 0 0 0
1071 347 4 -0.3752422857699268 -5.697579654987621 -0.5118972512257914 0 0 0
159 43 4 -5.454048109317804 -3.6981957503624003 -0.20811009498328764 0 0 0
202 58 2 -5.753836911900032 -4.645407157655668 -1.4651766223955573 0 0 0
203 58 4 -5.304196852657364 -4.453507707556747 -1.360303278900101 0 0 0
204 58 4 -6.203476971142699 -4.837306607754589 -1.5700499658910136 0 0 0
196 56 2 -4.15362571003911 -4.936773148868932 -0.9574350645541535 0 0 0
197 56 4 -3.77549384480586 -4.624193440218245 -0.8609455924071825 0 0 0
76 16 2 -2.037480125721952 -4.624418537455244 -0.5607925973994065 0 0 0
78 16 4 -2.479040012609608 -4.838308692317768 -0.6571039048590899 0 0 0
77 16 4 -1.5959202388342963 -4.41052838259272 -0.46448128993972304 0 0 0
135 35 4 -0.4921256890448022 -4.626054331142736 -1.494095098013247 0 0 0
127 33 2 -0.7460942940838464 -0.5417763021304629 -1.64636146183594 0 0 0
243 71 4 -1.8915597451408401 -3.4778543446273322 -1.2702039327407848 0 0 0
214 62 2 -0.3952537635212332 -3.4098446593518124 -0.2539006355280628 0 0 0
216 62 4 -0.25665871297359716 -3.696929767820068 -0.6390935124863182 0 0 0
122 31 4 -6.02709388454614 -2.4433038626181265 -1.7006715120965556 0 0 0
157 43 2 -5.4329979890780855 -3.2019364077208325 -0.15080776275582164 0 0 0
174 48 4 -5.567303680847997 -2.1338048215259713 -0.8218441951836223 0 0 0
106 26 2 -3.4300435268457496 -2.673731343995067 -0.9208080060337328 0 0 0
107 26 4 -3.841855472672366 -2.9214878980496763 -0.7828673985339709 0 0 0
114 28 4 -4.808645015615273 -2.947514894500176 -1.5482459831206614 0 0 0
108 26 4 -3.0182315810191334 -2.4259747899404576 -1.0587486135334947 0 0 0
211 61 2 -2.4648474009620442 -2.9690710271963425 -0.08352892796899897 0 0 0
213 61 4 -2.1544695468276434 -3.170162987579271 -0.4200220350782762 0 0 0
241 71 2 -1.5897244577369505 -3.1455256909435647 -1.4903246387601852 0 0 0
242 71 4 -1.2878891703330608 -2.813197037259797 -1.7104453447795855 0 0 0
139 37 2 -1.0714295757655086 -1.7329920466366375 -1.3774932382123022 0 0 0
8 2 3 -3.3087754467278447 -0.34390342586571093 -1.428004528032813 0 0 0
222 64 4 -4.042281151271991 -0.9101123837535166 -1.7376322371095287 0 0 0
94 22 2 -6.501635826152566 -0.807453603801799 -0.9481470938207652 0 0 0
95 22 4 -6.48710286733794 -0.90489445241005 -0.4579490989955828 0 0 0
96 22 4 -6.516168784967192 -0.7100127551935481 -1.4383450886459477 0 0 0
172 48 2 -5.508039923302409 -1.6938144567383175 -0.5918522693782637 0 0 0
1069 347 2 -0.10933549268243263 -5.592622462736133 -0.10168076547135928 0 0 0
158 43 4 -5.411947868838367 -2.7056770650792648 -0.09350543052835561 0 0 0
287 86 4 -1.1938101757771715 -1.985289260406308 -0.014469648049791659 0 0 0
349 107 2 -1.9250100488270767 -1.1034770328394539 -0.14562635046009048 0 0 0
351 107 4 -2.4216274693277042 -1.1489678836224781 -0.10954699140486958 0 0 0
350 107 4 -1.4283926283264492 -1.0579861820564294 -0.1817057095153114 0 0 0
293 88 4 -4.630683895828633 -4.346323472176435 -6.683656833437447 0 0 1
97 23 2 -2.4604277543150257 -2.752394356887725 -6.633641875671731 0 0 0
98 23 4 -2.1285389514420086 -2.8771408617863528 -6.281096655817704 0 0 0
258 76 4 -0.47074740394636394 -3.7720591304852316 -6.750336579241081 0 0 1
421 131 2 -4.457311055872073 -3.180062391718787 -6.755005131688302 0 0 1
312 94 4 -0.03963766307024075 -1.1859221343808735 5.9104801585667435 0 0 0
441 137 4 -4.124517778305528 -6.005203383333065 1.1197649489902384 0 0 0
440 137 4 -4.2219374124537445 -5.767277333644213 0.15337961706404052 0 0 0
439 137 2 -4.173227595379636 -5.886240358488639 0.6365722830271395 0 0 0
257 76 4 -0.01543177023337497 -3.2796257165082294 6.103968762189737 0 0 0
19 4 3 -6.774538404433181 -1.9397922270920471 4.598021639711594 0 0 0
280 84 2 -1.4632716687005185 -5.976548386193038 1.4956089918767481 0 0 0
281 84 4 -1.1259306567376655 -5.783783710430498 1.1808982970700317 0 0 0
301 91 2 -0.4545482107538186 -6.716639228869463 0.7701216815887264 0 0 0
309 93 4 -2.7044210262194217 -0.8814168530217907 6.471686307815701 0 0 0
303 91 4 -0.45692331149173715 -6.5947480220332055 1.2550308407023638 0 0 0
738 236 4 -0.6974315301587406 -0.07740393522674421 3.378555582188212 0 0 0
325 99 2 -5.483325217107493 -4.76871369686067 0.8114437156632529 0 0 0
326 99 4 -5.120706197169507 -4.905938240720825 0.4957272749440741 0 0 0
327 99 4 -5.845944237045479 -4.631489153000514 1.1271601563824318 0 0 0
397 123 2 -4.875357668042154 -3.667486831316588 0.8098632366922638 0 0 0
398 123 4 -4.802740102866224 -3.719336096248592 1.3018371617674989 0 0 0
399 123 4 -4.947975233218084 -3.6156375663845837 0.31788931161702877 0 0 0
413 128 4 -3.6094402458682864 -4.638584234174434 1.567836740972313 0 0 0
434 135 4 -2.3529976526776073 -4.311394535292615 1.0612364569459165 0 0 0
433 135 2 -2.61451904117048 -3.8876067254867217 1.1060745615059175 0 0 0
412 128 2 -3.4160134212171704 -4.6276671245777115 1.10689544294876 0 0 0
414 128 4 -3.2225865965660545 -4.616750014980989 0.6459541449252069 0 0 0
438 136 4 -0.8136417326318431 -4.488388435095748 0.6675630299795805 0 0 0
437 136 4 -0.2425000437823786 -3.690194353917858 0.8590920879079094 0 0 0
436 136 2 -0.5280708882071109 -4.089291394506803 0.7633275589437449 0 0 0
391 121 2 -6.691003810645504 -3.1440256293408884 1.1787585855736882 0 0 0
392 121 4 -6.248497789622563 -3.255058749993245 1.3833559156547168 0 0 0
265 79 2 -3.6890868912346106 -0.5902100617878571 5.247993436367629 0 0 0
362 111 4 -6.0068851163236445 -1.5791427659618769 0.7315057170276131 0 0 0
394 122 2 -4.95986968336605 -2.3146645026967136 0.5686622374207657 0 0 0
395 122 4 -4.558225504941743 -2.5606944062679022 0.7364455515091162 0 0 0
396 122 4 -5.361513861790357 -2.068634599125525 0.4008789233324152 0 0 0
288 86 4 -1.9968048557907645 -2.5196070804512543 0.24954552396066576 0 0 0
322 98 2 -2.7109073677223776 -2.2135886325426033 1.3370854591666737 0 0 0
324 98 4 -2.228829329241962 -2.114366166612534 1.425151724381978 0 0 0
435 135 4 -2.8760404296633526 -3.463818915680829 1.1509126660659184 0 0 0
212 61 4 -2.775225255096445 -2.767979066813414 0.25296417914027813 0 0 0
323 98 4 -3.192985406202794 -2.312811098472673 1.249019193951369 0 0 0
286 86 2 -1.595307515783968 -2.252448170428781 0.11753793795543706 0 0 0
266 79 4 -3.3856566180003727 -0.9824102192941275 5.312095743167514 0 0 0
215 62 4 -0.5338488140688693 -3.122759550883557 0.1312922414301924 0 0 0
253 75 2 -6.594999154017694 -0.24572897447974507 1.3137981008328186 0 0 0
255 75 4 -6.294097213590325 -0.18190980941081886 0.9196088868545926 0 0 0
361 111 2 -6.444370062054851 -1.4174952559889105 0.911719492244404 0 0 0
385 119 2 -5.446223916723775 -0.2240877770024762 0.3466361291975844 0 0 0
387 119 4 -5.876257794167958 -0.3342883864350647 0.11657811492549183 0 0 0
388 120 2 -1.5224589717534105 -1.26594800010288 5.370501714112687 0 0 0
364 112 2 -3.618938743795709 -0.9793504262106945 1.2409726034199418 0 0 0
366 112 4 -3.5267859140728754 -1.3159568085643851 0.8829167427881526 0 0 0
386 119 4 -5.016190039279592 -0.11388716756988773 0.5766941434696771 0 0 0
333 101 4 -1.209897231394192 -2.2963273335625227 6.478071585135788 0 0 0
331 101 2 -1.4069121584591358 -1.89505114744892 6.702041540646739 0 0 0
432 134 4 -2.20681282420313 -0.26699860382615437 0.7420255854485491 0 0 0
99 23 4 -2.7923165571880433 -2.627647851989097 6.609870904474241 0 0 -1
430 134 2 -1.8060141539063768 -0.12806806057474288 1.0067116826280842 0 0 0
289 87 2 -6.014845677371792 -6.707046757503027 1.8474364825065113 0 0 0
291 87 4 -6.338283250456782 -6.505469086886579 2.1710946030977194 0 0 0
316 96 2 -6.270274223548658 -5.801601277962433 3.4685519499954713 0 0 0
317 96 4 -6.423687923577434 -5.881132161972834 2.999362142847389 0 0 0
268 80 2 -4.250043651574009 -5.64100105332712 2.111809246537613 0 0 0
269 80 4 -3.7736097012441467 -5.789483415505949 2.0807660654052094 0 0 0
270 80 4 -4.726477601903872 -5.49251869114829 2.1428524276700167 0 0 0
276 82 4 -4.4946097626691754 -6.504175743074325 3.2178203866289516 0 0 0
282 84 4 -1.8006126806633713 -6.169313061955577 1.8103196866834643 0 0 0
419 130 4 -2.664342873893903 -4.8461440182354885 2.255580120999115 0 0 0
636 202 4 -3.0695904166094485 -6.16500014267135 2.679083111226686 0 1 0
634 202 2 -3.0772679586238585 -6.6338897540759 2.85252932094564 0 1 0
341 104 4 -4.31779734424199 -0.8221457931158437 6.653953351804728 0 0 0
278 83 4 -0.1199200046208348 -6.564086936840946 2.4783669728682214 0 0 0
415 129 2 -6.489260235858572 -3.7079692739957677 2.4042593247355244 0 0 0
416 129 4 -5.995597624210862 -3.7566141497755328 2.341562419542199 0 0 0
342 104 4 -4.985173130997238 -1.5368626544085089 6.444694260156983 0 0 0
319 97 2 -4.341036827419886 -3.899806131406856 2.519795743945776 0 0 0
320 97 4 -4.34840316849527 -3.5852482294569 2.90838172328604 0 0 0
321 97 4 -4.333670486344502 -4.214364033356812 2.1312097646055115 0 0 0
420 130 4 -3.3538527812150223 -4.889275264346557 2.9785709807713205 0 0 0
443 138 4 -2.2849921171435925 -3.5093789122020094 2.223691983328803 0 0 0
358 110 2 -1.9966995848396767 -4.534949536449288 3.5426290718819278 0 0 0
359 110 4 -2.303184272741801 -4.922190090850756 3.6208076438082295 0 0 0
418 130 2 -3.009097827554463 -4.867709641291023 2.6170755508852177 0 0 0
1038 336 4 -0.013268246598485134 -5.253877937229143 1.9937366006294082 0 0 0
1056 342 4 -0.25902047061101074 -3.1420711155070373 2.8524336643930868 0 0 0
410 127 4 -5.3286041191004285 -3.2453033995443397 3.4341761235127497 0 0 0
427 133 2 -4.548415771561413 -2.2585046981652948 2.2513734881058904 0 0 0
428 133 4 -4.158193607890626 -2.559604388117909 2.1673161285855924 0 0 0
429 133 4 -4.938637935232201 -1.9574050082126808 2.3354308476261885 0 0 0
348 106 4 -4.648706428714012 -1.7577413855074724 3.2181849694265057 0 0 0
444 138 4 -3.056178407042187 -2.943307425415366 2.5149560870545624 0 0 0
442 138 2 -2.6705852620928896 -3.2263431688086874 2.3693240351916827 0 0 0
295 89 2 -0.6964368142241251 -2.820857786097675 2.164865368340346 0 0 0
296 89 4 -0.37220759722222563 -3.068293552733715 2.454090118717766 0 0 0
297 89 4 -1.0206660312260245 -2.5734220194616353 1.875640617962926 0 0 0
405 125 4 -5.388355268273097 -0.5452298497063395 2.042467592240681 0 0 0
403 125 2 -5.311109246354184 -0.9738317679297172 1.7968389135552552 0 0 0
404 125 4 -5.233863224435272 -1.4024336861530948 1.5512102348698293 0 0 0
346 106 2 -4.387204205234208 -1.4042489528600748 2.980152015455471 0 0 0
347 106 4 -4.125701981754404 -1.0507565202126772 2.7421190614844364 0 0 0
365 112 4 -3.7110915735185426 -0.6427440438570038 1.5990284640517314 0 0 0
11 3 1 -2.3181557046343437 -1.4053750830731795 2.164842162287554 0 0 0
12 3 3 -1.9496397409877493 -1.5303667920154493 2.410144133810988 0 0 0
13 3 3 -2.4510626501420107 -1.763127727395703 1.9009315916087086 0 0 0
14 3 3 -2.6596150681624757 -1.2880759111297917 2.456297831850403 0 0 0
15 3 3 -2.2096130019851574 -1.0499646083679635 1.9015896671970143 0 0 0
371 114 4 -2.9602983969711483 -0.9855174173196913 3.452558267203045 0 0 0
308 93 4 -1.846165533828124 -0.4064024852167806 6.277369915923198 0 0 0
340 104 2 -4.651485237619614 -1.1795042237621762 6.549323805980856 0 0 0
318 96 4 -6.1168605235198825 -5.722070393952032 3.937741757143553 0 0 0
674 215 4 -5.103893778143794 -6.6572067665828305 5.05521293075631 0 1 0
274 82 2 -4.419030486524271 -6.099933537576294 3.502207468458272 0 0 0
275 82 4 -4.343451210379366 -5.695691332078263 3.7865945502875924 0 0 0
339 103 4 -3.6764433506926606 -5.398372636750129 4.480708340921191 0 0 0
337 103 2 -3.2861315281462335 -5.363437660691183 4.170166510199333 0 0 0
338 103 4 -2.8958197055998065 -5.3285026846322365 3.859624679477474 0 0 0
307 93 2 -2.275293280023773 -0.6439096691192857 6.3745281118694495 0 0 0
367 113 2 -1.1952913441614266 -5.808623005549986 4.041671293365596 0 0 0
368 113 4 -0.7266176607959223 -5.725287167401241 3.888700326836834 0 0 0
369 113 4 -1.663965027526931 -5.891958843698731 4.194642259894358 0 0 0
1062 344 4 -0.3745937857704586 -6.613464451593905 4.108346846178626 0 0 0
352 108 2 -5.446885967382029 -4.446696275298431 3.8153714403431316 0 0 0
353 108 4 -5.517400386779443 -4.1374179741703365 4.201861607240798 0 0 0
354 108 4 -5.376371547984615 -4.755974576426526 3.4288812734454646 0 0 0
250 74 2 -3.6575285043721237 -3.9311237327603297 4.672239856320963 0 0 0
252 74 4 -4.139509930966404 -3.8725327368419853 4.552820429028445 0 0 0
360 110 4 -1.6902148969375528 -4.147708982047819 3.464450499955626 0 0 0
251 74 4 -3.175547077777844 -3.989714728678674 4.79165928361348 0 0 0
378 116 4 -1.6532465830476282 -4.97904630176115 5.14327701466734 0 0 0
376 116 2 -1.4300054813828225 -4.918349124039746 4.700017200174386 0 0 0
373 115 2 -1.0769300709015517 -3.6745177324197495 5.015864531074132 0 0 0
377 116 4 -1.2067643797180168 -4.857651946318342 4.256757385681433 0 0 0
390 120 4 -1.6692493041747678 -1.6287356495985057 5.681689309753397 0 0 0
408 126 4 -0.32999406445842744 -4.0088467085839214 4.241204169692532 0 0 0
411 127 4 -6.294617345346431 -3.0496861803256037 3.603150530630385 0 0 0
18 4 3 -6.132295335989664 -1.5355747281293994 4.639639599399718 0 0 0
20 4 3 -6.454157482286486 -1.6699476074296422 3.9723700226245358 0 0 0
384 118 4 -5.174729534742375 -1.8197167368833418 3.980628460250765 0 0 0
409 127 2 -5.811610732223429 -3.1474947899349717 3.5186633270715673 0 0 0
334 102 2 -4.344103351156626 -2.004850251783747 4.905921165077844 0 0 0
336 102 4 -4.290472614805661 -2.487228277036328 5.026067679266992 0 0 0
283 85 2 -2.6652131647156594 -3.0130882026663635 4.258438630626753 0 0 0
284 85 4 -2.7423660745304894 -2.7300531904650107 3.853545298531286 0 0 0
285 85 4 -2.5880602549008294 -3.296123214867716 4.6633319627222205 0 0 0
261 77 4 -1.8812067313767744 -2.27925826896045 4.038618690328794 0 0 0
259 77 2 -1.4323370696929627 -2.096906649412957 4.162165902631891 0 0 0
260 77 4 -0.9834674080091506 -1.9145550298654639 4.285713114934987 0 0 0
374 115 4 -1.048783070868048 -3.175681904142902 4.9966145228592 0 0 0
16 4 1 -6.5338688691923075 -1.5886985794530581 4.413328853186299 0 0 0
17 4 3 -6.779819615379877 -1.2021179180498125 4.454116384109291 0 0 0
382 118 2 -5.45198944434404 -1.6614257121500038 4.365428270563462 0 0 0
383 118 4 -5.729249353945706 -1.503134687416666 4.75022808087616 0 0 0
267 79 4 -3.9925171644688477 -0.19800990428158638 5.183891129567744 0 0 0
335 102 4 -4.397734087507591 -1.5224722265311657 4.785774650888696 0 0 0
662 211 4 -3.23527198686973 -0.27374989524850546 3.411379311703346 0 0 0
370 114 2 -2.580976985191553 -0.9834646577108893 3.7783051823740297 0 0 0
372 114 4 -2.2016555734119576 -0.9814118981020873 4.104052097545014 0 0 0
389 120 4 -1.3756686393320534 -0.9031603506072545 5.0593141184719785 0 0 0
356 109 4 -5.272103267215885 -6.781344862717947 6.072199601390467 0 0 0
1130 367 4 -6.427757425903954 -6.3762174750489145 6.793561366726773 1 0 0
314 95 4 -4.564154224574796 -5.151443895831083 5.740918124759915 0 0 0
355 109 2 -4.878512777685666 -6.4964843404479895 6.190271653134472 0 0 0
357 109 4 -4.484922288155446 -6.211623818178032 6.308343704878477 0 0 0
328 100 2 -2.0176516029629097 -6.058122167018267 5.742368642177613 0 0 0
329 100 4 -2.3173158944816468 -6.456539585753932 5.780642299392469 0 0 0
330 100 4 -1.7179873114441728 -5.659704748282602 5.704094984962757 0 0 0
304 92 2 -0.24436662769533685 -6.292216621101543 5.7758944026165935 0 0 0
305 92 4 -0.33847657793883473 -6.7053926162421185 6.041278867694357 0 0 0
306 92 4 -0.15025667745183904 -5.879040625960967 5.51050993753883 0 0 0
424 132 2 -5.716616479582027 -4.189731532486631 5.5804726599839 0 0 0
425 132 4 -5.415460490814555 -4.585466820213828 5.5285241039220825 0 0 0
426 132 4 -6.017772468349499 -3.793996244759433 5.632421216045717 0 0 0
294 88 4 -5.384008566930859 -4.118479416565473 6.295482187901171 0 0 0
313 95 2 -4.17078455840492 -4.949660648382683 5.50737192636158 0 0 0
315 95 4 -3.777414892235044 -4.747877400934284 5.273825727963247 0 0 0
292 88 2 -5.0073462313797465 -4.232401444370954 6.6039416772318615 0 0 0
299 90 4 -2.793869997801214 -1.6088295040768164 5.839877745882564 0 0 0
271 81 2 -2.7525931988712298 -4.229282600546307 6.226727901422716 0 0 0
272 81 4 -2.8992779579408587 -4.235025731607196 6.704692960713168 0 0 0
273 81 4 -2.605908439801601 -4.223539469485418 5.7487628421322645 0 0 0
256 76 2 -0.24308958708986947 -3.5258424234967305 6.474845091474328 0 0 0
298 90 2 -3.2085630927015187 -1.8865942959351962 5.869481080922377 0 0 0
343 105 2 -1.3415302590747575 -4.915705246859874 6.290058213828559 0 0 0
345 105 4 -1.5412915382959629 -4.728636675084171 5.871607761830394 0 0 0
375 115 4 -1.1050770709350555 -4.173353560696597 5.035114539289064 0 0 0
262 78 2 -5.261300505927187 -2.4575118161370892 5.873404032163665 0 0 0
264 78 4 -5.493725595684275 -2.4951580876065274 5.4323129577857445 0 0 0
263 78 4 -5.0288754161700995 -2.4198655446676507 6.314495106541586 0 0 0
300 90 4 -3.623256187601823 -2.1643590877935766 5.899084415962189 0 0 0
422 131 4 -4.014568762438095 -3.0200155267386872 6.672635937409512 0 0 0
400 124 2 -6.301851170860863 -4.819426177436698 6.703674130977109 0 0 0
401 124 4 -5.919600975572102 -5.095681242355483 6.537638209236998 0 0 0
344 105 4 -1.1417689798535524 -5.102773818635577 6.708508665826723 0 0 0
217 63 2 -6.326480239740225 -1.6811577772834567 6.767587562072487 0 0 -1
188 53 4 -3.3129890913112643 -5.716872635200147 0.07321370197970056 0 0 0
1265 412 4 -6.58394107759313 1.0113772992186232 -6.625114701508512 1 0 0
590 187 4 -0.3254342505881432 5.814361781034526 -0.40541732728755925 0 0 0
603 191 4 -4.596297715109978 1.1055356293920364 -5.061173782912483 0 0 0
791 254 4 -4.786296969143613 0.805083243972724 -6.405590109152174 0 0 1
647 206 4 -3.547088453211217 0.518118003411518 -6.596951126850504 0 0 1
481 151 2 -1.0379060595568683 1.4598657527051428 -6.056678335988647 0 0 0
482 151 4 -1.4335328637733469 1.2108748642120177 -5.879243927734052 0 0 0
1275 415 4 -0.3142268520207695 0.373447633929991 -5.41843785482365 0 0 0
583 185 2 -4.962227441604064 2.966814386434397 -6.291995037039364 0 0 0
585 185 4 -5.047144056329132 3.2057711884221125 -6.722911287983141 0 0 0
777 249 4 -5.736280981228698 2.250257170461359 -6.611236829804937 0 0 1
1185 385 4 -6.296544493807104 2.7091241876541234 -5.32118733166756 1 0 0
584 185 4 -4.877310826878995 2.727857584446682 -5.861078786095586 0 0 0
589 187 2 -0.6699971821790014 5.470284512056571 -0.29189543888626035 0 0 0
638 203 4 -4.354140477879692 1.9766111981929033 -6.681039258927879 0 0 1
7 2 3 -3.2172681743209366 0.023847834588729355 -2.0770695706372417 0 0 0
460 144 2 -3.0460797982350942 2.683411242953737 -5.861545083350858 0 0 0
461 144 4 -3.4115004371094044 2.533948243677424 -6.168348878197326 0 0 0
462 144 4 -2.680659159360784 2.83287424223005 -5.55474128850439 0 0 0
181 51 2 -1.5389016887151712 0.04956073020979991 -3.580866077772774 0 0 0
483 151 4 -0.6422792553403898 1.7088566411982682 -6.234112744243243 0 0 0