LAMMPS data file via write_data, version 29 Aug 2024, timestep = 2000002, units = lj

1530 atoms
4 atom types
1030 bonds
1 bond types

-6.932675 6.932675 xlo xhi
-6.932675 6.932675 ylo yhi
-6.932675 6.932675 zlo zhi

Masses

1 1
2 1
3 0.5
4 0.5

Bond Coeffs # zero

1 0

Atoms # bond

941 304 4 -4.7296181442182235 -5.604689746326413 -5.898492783616444 1 0 0
520 164 2 -2.8666146404273967 -6.650299934685182 -5.453635454591307 0 1 0
522 164 4 -3.2446328565375984 -6.813788493873213 -5.740309609880371 0 1 0
17 4 3 -2.185960182701301 -6.203640486842552 -6.869072496162829 0 0 1
502 158 2 -1.008181768705931 -6.629663015766331 -6.444687112549888 0 1 0
503 158 4 -0.7909738239266638 -6.758939074363138 -6.013284273664708 0 1 0
551 174 4 -0.45935026707763293 -5.53995660517655 -5.608890976446172 0 1 0
19 4 3 -1.6048634152956154 -6.679055810303085 -6.9038117697500025 0 0 1
504 158 4 -1.225389713485198 -6.500386957169525 -6.876089951435067 0 1 0
550 174 2 -0.6972304187093987 -5.745827274484051 -5.220264805198517 0 1 0
196 56 2 -6.030427762169106 -4.273396600178991 -6.583768881235878 0 0 0
198 56 4 -5.542335213189474 -4.249259998166307 -6.4780187603190065 0 0 0
12 3 3 -5.396974956976551 -4.100393495583908 -6.135553384105856 0 0 0
197 56 4 -6.518520311148738 -4.297533202191674 -6.68951900215275 0 0 0
14 3 3 -5.230537185994384 -3.557311180486948 -6.627752599281202 0 0 0
96 22 4 -5.161929411265037 -4.543771472678104 -5.098988905711187 0 0 0
940 304 2 -4.879632343425779 -5.190897350558954 -5.661276440922386 1 0 0
942 304 4 -5.029646542633335 -4.777104954791494 -5.424060098228328 1 0 0
11 3 1 -5.072257754967422 -3.8021756654504517 -6.266796915412299 0 0 0
13 3 3 -4.692487520658588 -4.038565646905635 -6.39006226253208 0 0 0
214 62 2 -0.6243342943637157 -4.662130927941142 -5.861205746073119 0 0 0
215 62 4 -0.4916077315655131 -4.75423621570861 -6.334386763753509 0 0 0
159 43 4 -0.2875406527348715 -3.7619086684359018 -5.426316493723004 0 0 0
216 62 4 -0.7570608571619183 -4.570025640173674 -5.388024728392729 0 0 0
1246 406 2 -0.7778505291044828 -0.36573490438016437 -1.266322901457908 0 0 0
695 222 4 -5.242118684056692 -3.255489710384457 -5.999944637016957 0 0 1
694 222 2 -5.542593464339813 -2.9849058263054973 -5.705837057906145 0 0 1
443 138 4 -5.301833612145331 -3.2030878372849196 -6.432005028777723 0 0 0
696 222 4 -5.843068244622934 -2.7143219422265377 -5.4117294787953325 0 0 1
15 3 3 -4.975869545962352 -3.5231429575350446 -5.92002600965733 0 0 0
264 78 4 -3.818314680303412 -1.5358473993772503 -6.132698574971691 0 0 1
262 78 2 -4.188701926840931 -1.7710231853084648 -5.887256275642284 0 0 1
263 78 4 -4.534447817111933 -2.0363176369156406 -5.646197936017794 0 0 1
281 84 4 -3.6315286286495825 -1.6784357705178123 -6.450681733442647 0 0 1
164 45 4 -1.8329888775657057 -1.7316922314140981 -5.212030129141219 0 0 0
158 43 4 -0.8331098059763047 -2.924269119532575 -5.3995903801968295 0 0 0
217 63 2 -1.1187459803622388 -2.2083977480703285 -5.388665457968224 0 0 0
219 63 4 -0.7757179059939847 -2.5555196190026206 -5.497468706612162 0 0 0
157 43 2 -0.560325229355588 -3.3430888939842385 -5.412953436959916 0 0 0
917 296 4 -0.28716221863203745 -2.049867363927516 -6.606358202881914 1 0 0
218 63 4 -1.4617740547304927 -1.8612758771380367 -5.2798622093242855 0 0 0
8 2 3 -0.556213252501112 -1.936127637266662 -6.889236019174323 0 0 0
557 176 4 -4.795831988510541 -1.6950968447097479 -5.550735958047471 0 0 0
621 197 4 -4.6185083863579806 -0.8668309822115066 -6.006299602728814 0 0 1
619 197 2 -4.268083238128293 -0.7284942623254759 -6.335032271350994 0 0 1
280 84 2 -3.8384134629976403 -1.6947188484438824 -6.905581202215704 0 0 1
620 197 4 -3.9176580898986053 -0.5901575424394452 -6.663764939973174 0 0 1
866 279 4 -0.1967986809969726 -1.2552007460378078 -1.4558023047003064 0 0 0
556 176 2 -4.932661286260262 -1.3414086441538842 -5.224879547852982 0 0 0
165 45 4 -2.7458172192143553 -1.7497657403233342 -5.6199734670681485 0 0 0
163 45 2 -2.2984442979838726 -1.740299021823301 -5.398113493332722 0 0 0
179 50 4 -3.2643286539006686 -0.8465169130110131 -5.6804999199664135 0 0 0
178 50 2 -3.276026807971397 -1.1523445599615538 -6.075889099828697 0 0 0
180 50 4 -3.287724962042125 -1.4581722069120941 -6.47127827969098 0 0 0
371 114 4 -2.400947882048473 -0.9003593552747955 -6.170819275720778 0 0 1
370 114 2 -2.0964065043026427 -0.5054632907812131 -6.134602601549451 0 0 1
372 114 4 -1.7918651265568126 -0.11056722628763066 -6.098385927378125 0 0 1
9 2 3 -0.6363947346971406 -1.3359266961782084 -6.429965118475184 0 0 0
906 292 4 -0.4727470757331644 -1.007002939227083 -6.262643385506582 0 0 0
904 292 2 -0.35979859503817463 -0.5524429810438305 -6.439089469668852 0 0 0
905 292 4 -0.2175998692564307 -0.09653647033712981 -6.588144095266124 0 0 0
232 68 2 -6.46933623767603 -5.481232266711469 -3.6604959608406658 0 0 0
382 118 2 -6.5545642342198205 -6.454391652394455 -4.815574875898079 0 0 1
383 118 4 -6.064835125512746 -6.55490984200764 -4.80773308773709 0 0 1
454 142 2 -5.356963951397594 -5.51661175232339 -3.712610675721463 0 1 0
233 68 4 -6.921215549287444 -5.613174890820192 -3.829007775503703 0 0 0
171 47 4 -3.50525173666501 -6.691964871282423 -3.8262815029087225 0 0 0
385 119 2 -0.06837063608197544 -4.683038802272094 -2.6412597819064434 0 0 0
456 142 4 -4.9874834880525105 -5.429757576661726 -4.037105485912522 0 1 0
521 164 4 -2.4974766979217415 -6.472911343831556 -5.169730567834766 0 1 0
174 48 4 -1.9969785946221792 -5.44238214236285 -4.323136477681706 0 0 0
509 160 4 -3.140307463676747 -6.830081991854096 -3.855281471258112 0 1 0
508 160 2 -2.9107302992120916 -6.454655654387018 -3.6179012052458472 0 1 0
760 244 2 -0.696767939200121 -1.6829499384688522 -1.434971650386264 0 0 0
161 44 4 -0.560599798940104 -6.737550987787628 -4.653954310919732 0 0 0
172 48 2 -1.640063841270929 -5.747875891045085 -4.494266335849307 0 0 0
173 48 4 -1.2831490879196787 -6.053369639727321 -4.6653961940169095 0 0 0
552 174 4 -0.9351105703411644 -5.951697943791552 -4.8316386339508615 0 1 0
76 16 2 -0.1399951497986149 -6.318914530362025 -4.359975374410631 0 0 0
78 16 4 -0.6121937593789619 -6.483308787195141 -4.35824291072286 0 0 0
94 22 2 -5.179318943049573 -4.262328282275239 -4.686087785876932 0 0 0
95 22 4 -5.196708474834109 -3.980885091872373 -4.273186666042677 0 0 0
113 28 4 -4.852117940470189 -5.059733889376883 -4.090376115906417 0 0 0
112 28 2 -4.379259685992425 -5.022995638507457 -3.9320872278091596 0 0 0
114 28 4 -3.906401431514661 -4.98625738763803 -3.7737983397119015 0 0 0
752 241 4 -2.760322135144997 -3.986284168577577 -4.090471920905238 0 1 1
751 241 2 -3.04074247484501 -3.9344698050459845 -4.501178269546848 0 1 1
753 241 4 -3.321162814545023 -3.8826554415143923 -4.911884618188458 0 1 1
573 181 4 -2.2616190940277043 -5.059142681225944 -3.661381146450197 0 1 0
111 27 4 -1.1503763396496829 -3.737024271820572 -4.808760977383023 0 0 0
109 27 2 -1.6242671064161458 -3.5849146910744136 -4.760904769650176 0 0 0
268 80 2 -6.023294908901281 -2.283058648221218 -4.071755779643844 0 0 0
860 277 4 -5.7220009374559755 -2.7858616757442256 -3.6551577875330357 1 0 0
270 80 4 -5.816445377906112 -2.736998964208057 -4.037822594575979 0 0 0
269 80 4 -6.230144439896451 -1.829118332234379 -4.105688964711709 0 0 0
859 277 2 -5.258731730619669 -2.973929995191047 -3.651701023501255 1 0 0
861 277 4 -4.795462523783362 -3.1619983146378687 -3.648244259469475 1 0 0
103 25 2 -2.1023978346233307 -2.6549244525276126 -4.4446479838448685 0 0 0
105 25 4 -2.2405908249680953 -3.1286893898532147 -4.524956648260122 0 0 0
104 25 4 -1.9642048442785658 -2.181159515202011 -4.364339319429615 0 0 0
110 27 4 -2.0981578731826085 -3.432805110328255 -4.713048561917328 0 0 0
123 31 4 -1.841667005910173 -1.8138954813352894 -4.434579174664232 0 0 0
574 182 2 -5.38673982236028 -0.9653449718632786 -4.3018140948022605 0 0 0
575 182 4 -5.313687363859469 -0.9793911644331773 -3.807379020417967 0 0 0
576 182 4 -5.459792280861091 -0.9512987792933799 -4.796249169186554 0 0 0
558 176 4 -5.0694905840099835 -0.9877204435980205 -4.899023137658493 0 0 0
121 31 2 -1.3891190499155976 -1.703755823695743 -4.252728677441552 0 0 0
122 31 4 -0.9365710939210222 -1.5936161660561965 -4.070878180218871 0 0 0
155 42 4 -0.44745235088951507 -0.5293305595965537 -4.702172212475189 0 0 0
154 42 2 -0.5336774311708717 -0.10593293156303038 -4.450577927750453 0 0 0
455 142 4 -5.73194329202192 -5.5876725549630715 -3.3883817697571974 0 1 0
234 68 4 -6.017456926064615 -5.349289642602748 -3.4919841461776286 0 0 0
93 21 4 -5.231029951844722 -6.1117059523683706 -2.684574376957651 0 0 0
92 21 4 -4.761999784734696 -5.253943896361714 -2.4742057537833735 0 0 0
91 21 2 -4.996514868289709 -5.682824924365042 -2.579390065370512 0 0 0
494 155 4 -3.6222549501419046 -5.952815090219421 -1.672115655636363 0 1 0
510 160 4 -2.681153134747436 -6.079229316919941 -3.3805209392335827 0 1 0
572 181 4 -2.3933204191789343 -5.923142615703958 -3.175419343243439 0 1 0
571 181 2 -2.3274697566033193 -5.491142648464951 -3.418400244846818 0 1 0
199 57 2 -1.7490465465739675 -5.959860033009044 -1.7753241402935367 0 0 0
200 57 4 -1.585934148397902 -6.241572198435192 -2.154840413214922 0 0 0
1226 399 4 -0.2621275809740281 -6.612159156767042 -2.436389484479754 0 1 0
1225 399 2 -0.7154611817132194 -6.725903784513468 -2.614014950276603 0 1 0
1227 399 4 -1.1687947824524108 -6.839648412259894 -2.7916404160734514 0 1 0
135 35 4 -4.396298523076117 -5.129308979223589 -2.4475881034660953 0 0 0
133 35 2 -3.9588329993659035 -5.134834536099762 -2.689648806154345 0 0 0
134 35 4 -3.52136747565569 -5.140360092975934 -2.931709508842595 0 0 0
899 290 4 -2.26229546930522 -4.5831090853091325 -2.103680564877354 0 0 0
386 119 4 -0.37724816427078856 -4.387998126853859 -2.9011552848085813 0 0 0
126 32 4 -5.417814212284047 -3.1267922566710324 -2.0399067554262134 0 0 0
224 65 4 -5.252423204413377 -3.3665900814810654 -2.3277310541864358 0 0 0
223 65 2 -4.8760732380566125 -3.2517842393692717 -2.6362441356595996 0 0 0
225 65 4 -4.499723271699848 -3.136978397257478 -2.9447572171327634 0 0 0
886 286 2 -3.9849671576508956 -2.72509563216578 -3.2712028158066895 1 0 0
888 286 4 -4.467337427774565 -2.8480455389161405 -3.2242747545758577 1 0 0
887 286 4 -3.502596887527227 -2.60214572541542 -3.3181308770375213 1 0 0
885 285 4 -3.3887600406194767 -2.8031022185950216 -2.974329123451968 0 0 0
883 285 2 -3.188926543341651 -3.03806294041564 -2.5808065287168738 0 0 0
211 61 2 -2.203494073909818 -3.2814692316725362 -1.8645883902662148 0 0 0
884 285 4 -2.9890930460638256 -3.2730236622362585 -2.187283933981779 0 0 0
212 61 4 -2.678109699511829 -3.1861569793526794 -1.9897106604344208 0 0 0
569 180 4 -1.2336271302905744 -3.2067931603913666 -2.202957267152919 0 0 0
568 180 2 -1.1557045392823488 -2.8270661993547406 -1.887147981550591 0 0 0
507 159 4 -5.630161003152932 -1.0980379264727134 -3.5328322418240954 0 0 0
505 159 2 -5.57413081957959 -1.3551299822203682 -3.1076683988171925 0 0 0
506 159 4 -5.518100636006249 -1.612222037968023 -2.68250455581029 0 0 0
566 179 4 -3.0585666446335957 -1.4949225375207698 -3.2084960303440058 0 0 0
605 192 4 -3.2215731197097375 -0.26520841358220615 -3.1609335098663442 0 0 0
567 179 4 -3.259370936360875 -0.5557820086087577 -2.929761921597654 0 0 0
565 179 2 -3.1566438123705125 -1.030461578409642 -3.0174358839673285 0 0 0
931 301 2 -2.1359889630913607 -0.9513465719340324 -1.878922548981119 0 0 0
932 301 4 -2.283689889031016 -1.1179804714291128 -2.326602769691592 0 0 0
230 67 4 -4.671233889546439 -6.501227823765574 -0.6004116771913264 0 0 0
493 155 2 -3.9074952372319443 -6.062998329764526 -1.276517839231468 0 1 0
229 67 2 -4.280773441628026 -6.5857614668481546 -0.2997545605307504 0 0 0
30 6 3 -3.7950670415542462 -5.6070740783474875 -0.2248964997868975 0 0 0
495 155 4 -4.192735524321984 -6.173181569309632 -0.8809200228265721 0 1 0
28 6 3 -3.109502232830973 -5.890319776345066 -0.095773428236997 0 0 0
406 126 2 -2.3589836621384297 -5.507262691343794 -0.951753365715939 0 0 0
408 126 4 -2.03664809307071 -5.31574168950136 -1.282539530431623 0 0 0
407 126 4 -2.6813192312061496 -5.698783693186227 -0.6209672010002552 0 0 0
201 57 4 -1.9121589447500331 -5.678147867582896 -1.3958078673721512 0 0 0
974 315 4 -0.08027350901728647 -6.7531775856981335 -0.5291814292990396 0 0 0
414 128 4 -1.8335517352198498 -5.924575136027203 -0.5215369794046616 0 0 0
412 128 2 -1.597409494267063 -6.331285229160973 -0.33988796112539876 0 0 0
1062 344 4 -0.778513929477337 -5.455527266694005 -0.9649268414650436 0 0 0
1060 344 2 -1.2421600224647693 -5.293900009435025 -1.0593139707168098 0 0 0
1406 459 4 -0.4437921155463681 -6.784018506586085 -0.3789073089799294 0 1 0
413 128 4 -1.3990173659727416 -6.745473810788482 -0.1509897520242044 0 0 0
374 115 4 -6.4624241697052565 -3.5331530666319604 -0.022092475875851947 0 0 0
615 195 4 -4.464749751560156 -6.662871701793385 -0.9046130677229454 0 1 0
900 290 4 -1.7742130138144268 -4.746214982969622 -1.2462588583697478 0 0 0
898 290 2 -2.0182542415598235 -4.664662034139377 -1.674969711623551 0 0 0
1061 344 4 -1.7058061154522015 -5.132272752176045 -1.153701099968576 0 0 0
124 32 2 -5.64670764723287 -2.9789518449822765 -1.6206800767558769 0 0 0
1109 360 4 -6.683135054030349 -3.369369162567789 -0.29952989632643157 1 0 0
129 33 4 -5.892142397488515 -2.431012260674648 -1.1681767634076945 0 0 0
127 33 2 -6.276584489733576 -2.245628266193802 -0.9077212925483255 0 0 0
125 32 4 -5.875601082181693 -2.8311114332935206 -1.2014533980855406 0 0 0
128 33 4 -6.661026581978637 -2.060244271712956 -0.6472658216889564 0 0 0
187 53 2 -3.9373398371046995 -3.558743387368049 -0.25240227021578215 0 0 0
189 53 4 -3.6228488444363447 -3.310485870758556 -0.5515069692386401 0 0 0
213 61 4 -1.7288784483078066 -3.376781483992393 -1.739466120098009 0 0 0
862 278 2 -1.3146063913923507 -2.1966928645184596 -0.43930530082047065 0 0 0
762 244 4 -0.8056192184129688 -2.1503441496871893 -1.5753071424505103 0 0 0
863 278 4 -1.0796023986611596 -2.0557636713711367 -0.857530223462754 0 0 0
570 180 4 -1.0777819482741233 -2.4473392383181145 -1.571338695948263 0 0 0
864 278 4 -1.5496103841235418 -2.337622057665782 -0.021080378178187587 0 0 0
990 320 4 -6.193759402803478 -0.11534535357453059 -0.6307732544904161 1 0 0
381 117 4 -3.927412220865836 -0.5463096145922489 -0.13933329306894895 0 0 0
933 301 4 -1.988288037151705 -0.7847126724389522 -1.431242328270646 0 0 0
1247 406 4 -0.7092746989586333 -0.8477124280572748 -1.15232719018065 0 0 0
761 244 4 -0.5879166599872734 -1.215555727250515 -1.2946361583220176 0 0 0
195 55 4 -5.619146142489173 -5.054682665468027 -0.004769295699681375 0 0 0
1098 356 4 -1.0759791127107474 -5.0925245293387436 -6.915609595678068 0 0 1
10 2 3 -1.2036508318613812 -1.5520268362345637 -6.875410120352228 0 0 0
442 138 2 -5.559230942407666 -2.982121955919799 -6.797106622394951 0 0 0
6 2 1 -0.75082259856413 -1.517644668480656 -6.841285969530635 0 0 0
1414 462 2 -5.1568783982369135 -6.379030372623767 1.5746966664820408 1 1 0
1416 462 4 -5.009329081998487 -6.538702904479656 1.1244368727537815 1 1 0
27 6 3 -3.5619607278051495 -5.709850689214196 0.4766007666008259 0 0 0
764 245 4 -3.757228190900922 -5.748432327884838 0.8330885485047128 0 1 0
763 245 2 -3.798946810361147 -6.162031551940643 1.110928859925952 0 1 0
765 245 4 -3.840665429821372 -6.575630775996449 1.388769171347191 0 1 0
1127 366 4 -4.8635800778111005 -6.890810014097445 0.9667896841679811 1 0 0
29 6 3 -3.7295113129324915 -6.30515860128164 0.049476321908441735 0 0 0
26 6 1 -3.550391917382846 -5.87712269980941 0.04824783139786258 0 0 0
231 67 4 -3.890312993709612 -6.670295109930735 0.0009025561298261486 0 0 0
359 110 4 -3.645621713685432 -6.870423778549714 1.5644404769650646 0 0 0
289 87 2 -1.4330472022984797 -6.448290041439519 1.6648884957835437 0 0 0
291 87 4 -1.1840266653573166 -6.807108273356853 1.421499406822383 0 0 0
274 82 2 -0.6777696130942805 -5.3896405404774015 1.5307064781619106 0 0 0
1121 364 4 -0.7285985320388941 -5.1158521988204075 0.7293743538806807 0 0 0
243 71 4 -3.45456097353933 -6.930115232696985 2.8708560275653867 0 0 0
193 55 2 -5.552385149760495 -4.84856839208508 0.4458523595254973 0 0 0
373 115 2 -6.3091812149286195 -3.9089673641572094 0.2699352806590914 0 0 0
375 115 4 -6.1559382601519825 -4.28478166168246 0.5619630371940352 0 0 0
907 293 2 -5.840554329945772 -4.82157760148269 1.6335471819569252 1 0 0
194 55 4 -5.485624157031818 -4.642454118702133 0.8964740147506758 0 0 0
908 293 4 -5.694456500650762 -4.593873858211834 1.213063615600511 1 0 0
319 97 2 -4.815460436463349 -4.950883506244651 1.3589034686831718 0 0 0
320 97 4 -5.25628085378378 -4.779132145554159 1.1971047363811873 0 0 0
307 93 2 -3.8142349865957565 -4.458212614665287 0.4281226759110661 0 0 0
309 93 4 -4.084727130016727 -4.048745087272546 0.3323607609426689 0 0 0
321 97 4 -4.374640019142918 -5.122634866935144 1.5207022009851554 0 0 0
308 93 4 -3.5437428431747855 -4.867680142058029 0.5238845908794634 0 0 0
1122 364 4 -1.6766939214262364 -4.989011283546043 0.4377812901180489 0 0 0
276 82 4 -0.5794915480798826 -5.315209029110397 1.0461434048138187 0 0 0
1120 364 2 -1.2026462267325653 -5.052431741183225 0.5835778219993648 0 0 0
1083 351 4 -0.4171689382182529 -3.9367819582288224 1.2367133249804152 0 0 0
1049 340 4 -0.186077402456232 -4.228989198359329 1.3658013402081828 0 0 0
1081 351 2 -0.6542189506430641 -3.7841942592628093 0.8237674620232041 0 0 0
1082 351 4 -0.8912689630678756 -3.631606560296796 0.4108215990659932 0 0 0
1094 355 4 -5.660461298626037 -1.0604589966210392 1.1928555114934678 1 0 0
1093 355 2 -5.240286277118338 -1.2903546222619329 1.3363858309806433 1 0 0
1095 355 4 -4.820111255610639 -1.5202502479028266 1.4799161504678189 1 0 0
255 75 4 -2.3832576028771375 -1.3643812043903796 1.225338743935646 0 0 0
253 75 2 -2.676354700172736 -1.3780053879950083 1.6301948581020254 0 0 0
288 86 4 -2.1696463588210078 -1.1627727348387797 0.9586056233383884 0 0 0
286 86 2 -1.985446212905848 -1.3195459000470735 0.5210070848181481 0 0 0
287 86 4 -1.8012460669906885 -1.4763190652553673 0.08340854629790784 0 0 0
1202 391 4 -0.18890310367485982 -0.6331613444288036 1.0525349986076684 0 0 0
40 8 3 -0.7594040757040963 -0.13458403394083615 1.0312413589124394 0 0 0
715 229 2 -1.14406169492451 -0.9326297986467174 1.2264983326061707 0 0 0
717 229 4 -0.9567794601590183 -0.4800690372673954 1.1259293423516703 0 0 0
716 229 4 -1.3313439296900014 -1.385190560026039 1.327067322860671 0 0 0
37 8 3 -0.06381942711774302 -0.3191369843596754 0.8334985837149562 0 0 0
1415 462 4 -5.30442771447534 -6.219357840767878 2.0249564602103014 1 1 0
327 99 4 -5.268637714371777 -6.217689514063981 2.4094536483528546 0 0 0
325 99 2 -5.042698220933455 -6.493850868451211 2.7597196210764046 0 0 0
326 99 4 -4.816758727495134 -6.7700122228384405 3.1099855937999545 0 0 0
304 92 2 -4.204766404170899 -6.0442277610842075 3.346643478417379 0 0 0
306 92 4 -3.9928038618225496 -5.592141659222571 3.3729120365155034 0 0 0
149 40 4 -3.8100365884282246 -5.3278101906786075 2.871183395991329 0 0 -1
290 87 4 -1.6820677392396428 -6.089471809522184 1.9082775847447044 0 0 0
241 71 2 -3.030309446821318 -6.6784671846579755 2.789100893198052 0 0 0
242 71 4 -2.6060579201033063 -6.426819136618966 2.707345758830717 0 0 0
1436 469 4 -0.2852930497372649 -5.876003281105238 2.590932546042365 1 1 0
1435 469 2 -0.5305000715616313 -5.510963106006294 2.8288804122062023 1 1 0
275 82 4 -0.7760476781086786 -5.464072051844406 2.015269551510003 0 0 0
1139 370 4 -6.871127214375054 -4.65600357104472 2.5463468793691963 1 0 0
1138 370 2 -6.395219168176478 -4.618103264824986 2.6949237899302236 1 0 0
909 293 4 -5.986652159240782 -5.0492813447535445 2.0540307483133393 1 0 0
1140 370 4 -5.919311121977902 -4.580202958605251 2.843500700491251 1 0 0
324 98 4 -4.4077109443186115 -3.334383279792511 1.8540251770310816 0 0 0
323 98 4 -3.9323960561556643 -4.1733789597136 2.1189062940703525 0 0 0
322 98 2 -4.170053500237138 -3.7538811197530553 1.9864657355507167 0 0 0
148 40 2 -3.8362878443877184 -4.8898317299966845 2.6314215567856984 0 0 -1
150 40 4 -3.8625391003472123 -4.4518532693147606 2.391659717580068 0 0 -1
314 95 4 -3.471913536496169 -4.3401893603321335 2.497022304701363 0 0 0
315 95 4 -2.7026603235710462 -3.8270542502277984 2.877734601827213 0 0 0
313 95 2 -3.0872869300336077 -4.083621805279966 2.687378453264288 0 0 0
1437 469 4 -0.7757070933859976 -5.14592293090735 3.0668282783700396 1 1 0
119 30 4 -1.7322600490424644 -4.2555453670907015 1.7590281453356087 0 0 0
120 30 4 -1.1394090309379004 -4.899133813882668 2.2430958900650837 0 0 0
118 30 2 -1.4358345399901824 -4.577339590486685 2.001062017700346 0 0 0
1124 365 4 -0.9485289203858589 -5.070396240296695 3.399534993158801 0 0 0
351 107 4 -3.6369922853525383 -3.1085287149998218 2.5140264683804268 0 0 0
349 107 2 -3.7408087444204807 -2.6325753879340184 2.6266789130124626 0 0 0
350 107 4 -3.844625203488423 -2.156622060868215 2.7393313576444984 0 0 0
1088 353 4 -4.2760438227070185 -1.7354051870451315 3.381403208408664 1 0 0
1222 398 2 -0.26946839726493227 -2.7495863004123646 2.746294749272441 0 1 0
1223 398 4 -0.4981661986400518 -2.6735098310370145 3.1878889600930562 0 1 0
254 75 4 -2.9694517974683348 -1.3916295715996372 2.035050972268405 0 0 0
334 102 2 -1.8351933074414422 -1.2938477451138786 3.35380974892072 0 0 0
1371 447 4 -0.2771028081096046 -1.5459933668764583 2.604610784384757 0 0 0
335 102 4 -1.8030192664797122 -1.4806528361705138 2.891134172470448 0 0 0
755 242 4 -6.111444571125704 -6.332567426973973 4.8471986262130695 0 1 0
153 41 4 -6.389462162624692 -6.022535077770738 4.830555508016139 0 0 -1
754 242 2 -5.7528119705886045 -6.524245324809765 5.13813202290916 0 1 0
151 41 2 -6.740752259257004 -6.054294387163406 5.184937525441912 0 0 -1
305 92 4 -4.416728946519248 -6.496313862945844 3.320374920319254 0 0 0
788 253 4 -4.552118521822494 -6.86941913854622 3.3496477993770903 0 1 0
377 116 4 -4.780258308437085 -6.507324348017047 4.833192703364126 0 0 0
376 116 2 -4.6316629819820445 -6.029922988213179 4.8359075906978735 0 0 0
378 116 4 -4.483067655527005 -5.55252162840931 4.83862247803162 0 0 0
848 273 4 -3.9149789748231303 -5.606008464725767 4.649332312144608 0 0 -1
1011 327 4 -4.10770887189916 -5.353052106451497 4.905971447395556 1 0 0
847 273 2 -3.5315941819624297 -5.8502109749036695 4.441364095588239 0 0 -1
849 273 4 -3.142531479699342 -6.081653006405524 4.228515086681614 0 0 -1
725 232 4 -2.3672381251619963 -6.738236169557401 4.902003704448874 0 1 0
724 232 2 -2.34425176893528 -6.254344164803554 5.025778318819508 0 1 0
177 49 4 -2.4702369076631117 -5.417436345953559 5.1645197035853805 0 0 -1
1382 451 4 -0.04717166891385094 -5.7063568444604424 4.109368500121847 0 1 0
1123 365 2 -1.2874438891512852 -4.751922508104378 3.5831408913490277 0 0 0
296 89 4 -1.7416284911753037 -3.860779927097762 4.853681411634502 0 0 0
295 89 2 -1.6136269931826808 -3.9774791129740152 4.38464312265618 0 0 0
297 89 4 -1.4856254951900578 -4.094178298850268 3.9156048336778575 0 0 0
1125 365 4 -1.6263588579167114 -4.43344877591206 3.7667467895392543 0 0 0
1112 361 4 -6.729554549862023 -2.5942747732586127 3.811475290825213 1 0 0
1032 334 4 -6.578910431735875 -2.2553699611218287 5.126505549416819 1 0 0
1113 361 4 -6.5438373831834475 -2.4582043999215197 4.78461145164697 1 0 0
1111 361 2 -6.636695966522735 -2.526239586590066 4.2980433712360915 1 0 0
345 105 4 -3.4066313434249684 -1.8412064141679962 3.7843431215100445 0 0 0
343 105 2 -3.3825931696007565 -1.9058540336644654 4.279563124632263 0 0 0
344 105 4 -3.358554995776544 -1.9705016531609345 4.774783127754483 0 0 0
271 81 2 -2.1122268013556296 -3.3197173276272314 5.247061743075017 0 0 0
273 81 4 -2.5003383848107266 -3.0110251731023907 5.310925289191141 0 0 0
983 318 4 -0.49084022965340113 -2.6421881466529884 3.590140605544779 0 0 0
982 318 2 -0.6362868427551646 -2.4094328154236595 4.008076292608426 0 0 0
984 318 4 -0.781733455856928 -2.1766774841943306 4.426011979672073 0 0 0
405 125 4 -0.8959501239758915 -1.8167458612866354 4.583128920975936 0 0 0
1087 353 2 -4.525899864066166 -1.6708807265737067 3.8096654558656247 1 0 0
1089 353 4 -4.775755905425314 -1.6063562661022819 4.237927703322586 1 0 0
992 321 4 -4.8833083731812765 -1.5683106474270532 4.6310593559673485 1 0 0
991 321 2 -5.03821823963419 -1.6290808557999858 5.102556879873555 1 0 0
361 111 2 -2.1974048206781323 -0.6994157385135221 4.241482739385834 0 0 0
362 111 4 -2.0011397159936215 -0.24263092808160236 4.188307128040625 0 0 0
363 111 4 -2.3936699253626434 -1.1562005489454417 4.2946583507310425 0 0 0
336 102 4 -1.8673673484031725 -1.107042654057243 3.8164853253709925 0 0 0
449 140 4 -0.6071660879836163 -0.12146232677413793 3.9604876948235668 0 0 -1
1029 333 4 -0.768113398257385 -0.29524874152551006 4.28867946682548 0 0 0
1027 333 2 -1.2320541728969878 -0.13080293807588073 4.223749791417799 0 0 0
404 125 4 -0.6722608168187812 -0.8421038882522571 4.58913876810409 0 0 0
403 125 2 -0.7841054703973364 -1.3294248747694466 4.586133844540013 0 0 0
756 242 4 -5.394179370051505 -6.715923222645558 5.42906541960525 0 1 0
292 88 2 -5.447828518951698 -5.715949838211053 5.783657389347905 0 0 0
293 88 4 -5.689723404063464 -5.3582343696401225 6.040128877220095 0 0 0
1331 434 4 -6.063740059861789 -5.343208313629537 5.851321390395988 1 1 -1
294 88 4 -5.216371590797646 -6.064281650963585 5.513407606134509 0 0 0
252 74 4 -5.140455138856332 -6.438754930986831 5.634630430731628 0 0 0
250 74 2 -4.744787008997914 -6.739983433506882 5.686670033765919 0 0 0
726 232 4 -2.3212654127085646 -5.7704521600497065 5.149552933190143 0 1 0
16 4 1 -1.83725819014268 -6.348445666086488 6.733525947324752 0 0 0
20 4 3 -2.0026657964230843 -6.515603882334559 6.343527928707643 0 0 0
18 4 3 -1.556632802906403 -5.989545263952595 6.645549283449971 0 0 0
354 108 4 -1.2218800531005183 -6.169805418459419 6.775733756003336 0 0 0
352 108 2 -0.8655777593939427 -5.885467060599072 6.570306460473407 0 0 0
353 108 4 -0.5092754656873664 -5.601128702738725 6.364879164943479 0 0 0
1332 434 4 -6.754801934846093 -4.650982931346647 6.059305776987752 1 1 -1
333 101 4 -5.581883346011133 -5.11593400734676 6.334858653267705 0 0 0
1330 434 2 -6.409270997353941 -4.997095622488092 5.955313583691869 1 1 -1
331 101 2 -5.275644836370101 -4.747417797895898 6.477735448392605 0 0 0
332 101 4 -4.96940632672907 -4.378901588445037 6.620612243517505 0 0 0
366 112 4 -4.9960467633936485 -4.17834882312843 6.280560998429022 0 0 0
1009 327 2 -3.907665914047262 -5.14789814597327 5.315720965411217 1 0 0
364 112 2 -4.931446718209373 -3.692022297858168 6.184055325120216 0 0 0
1010 327 4 -3.7076229561953644 -4.942744185495042 5.7254704834268795 1 0 0
175 49 2 -2.203874625534893 -5.009867963251453 5.278270079764174 0 0 -1
176 49 4 -1.9375123434066757 -4.602299580549348 5.392020455942968 0 0 -1
272 81 4 -1.7241152179005326 -3.6284094821520725 5.183198196958893 0 0 0
226 66 2 -0.017753519821928194 -4.726306097340224 5.112904416040226 0 0 -1
222 64 4 -1.5406117086663904 -4.67655622397433 5.447618698219949 0 0 -1
221 64 4 -0.5942465717931615 -4.357515292139588 5.396570568716055 0 0 -1
228 66 4 -0.17218191651412196 -4.331781662297115 5.378427184270705 0 0 -1
220 64 2 -1.067429140229776 -4.517035758056959 5.422094633468002 0 0 -1
137 36 4 -0.8366794523107928 -3.8806404524035916 6.516147507088188 0 0 -1
136 36 2 -0.4832491464874695 -3.8479579322028883 6.163984374720585 0 0 -1
1096 356 2 -1.0898277012541822 -4.623688647897929 6.77653205328518 0 0 0
1097 356 4 -1.103676289797617 -4.154852766457114 6.603323702248429 0 0 0
138 36 4 -0.12981884066414584 -3.8152754120021846 5.811821242352983 0 0 -1
1224 398 4 -0.013581281180370053 -2.8438131884114024 2.329883001933108 0 1 0
1030 334 2 -6.606034697279729 -2.667907298766644 5.408618615932887 1 0 0
1031 334 4 -6.636148089287774 -3.084682100721073 5.682351954164447 1 0 0
444 138 4 -5.815526648888737 -2.7514860742294593 6.703841502000321 0 0 -1
7 2 3 -0.5942847816656274 -1.241793042543021 6.6908947156336875 0 0 -1
707 226 4 -5.315288345797427 -1.6594805144950575 5.930007667481275 0 0 0
993 321 4 -5.193128106087104 -1.6898510641729185 5.574054403779762 1 0 0
365 112 4 -4.866846673025098 -3.205695772587906 6.08754965181141 0 0 0
130 34 2 -4.013588578525483 -3.0989561429888584 6.1969023288220635 0 0 -1
132 34 4 -3.5433731447779495 -2.9290072399657823 6.193053143588994 0 0 -1
131 34 4 -4.4838040122730165 -3.268905046011934 6.200751514055134 0 0 -1
962 311 4 -3.2963718959472885 -2.6482484711258283 6.110833707089719 0 0 -1
963 311 4 -2.703032785499421 -3.2321953282346536 5.556798718948016 0 0 -1
961 311 2 -2.999702340723355 -2.940221899680241 5.833816213018868 0 0 -1
706 226 2 -5.804890660991693 -1.5654086971258931 5.892059464189728 0 0 0
394 122 2 -6.6645534629304874 -1.454118083259656 5.117680743961984 0 0 0
708 226 4 -6.294492976185959 -1.4713368797567288 5.854111260898181 0 0 0
395 122 4 -6.324289938105613 -1.5220795242333789 5.477683488693707 0 0 0
248 73 4 -4.2946949695131 -1.4641313956355986 6.293721122197516 0 0 0
247 73 2 -4.711854363483001 -1.7183027876412806 6.187067741995556 0 0 0
249 73 4 -5.129013757452902 -1.972474179646963 6.080414361793597 0 0 0
282 84 4 -4.045298297345698 -1.7110019263699525 6.504869329011237 0 0 0
188 53 4 -4.251830829773054 -3.8070009039775425 0.046702428807075425 0 0 0
379 117 2 -3.961922820792904 -0.07286638980293375 0.017703426820482076 0 0 0
1284 418 4 -6.8254513034181 0.8787096300575568 -6.641616190195 1 0 0
160 44 2 -0.742585493870348 6.888500188638631 -5.053475624339731 0 -1 0
1492 488 2 -4.280743745638869 0.3950801611831406 -5.635028981752373 1 0 1
1494 488 4 -4.614405077583835 0.5605835592711055 -5.968613664832992 1 0 1
792 254 4 -3.52474246040879 0.3317039723904024 -5.192884115033122 0 0 1
447 139 4 -3.294773736703232 1.3296079558047458 -5.520547632715905 0 0 0
790 254 2 -3.2831258415011764 0.6920945675778147 -5.441359523007372 0 0 1
791 254 4 -3.0415092225935627 1.0524851627652267 -5.689834930981621 0 0 1
617 196 4 -2.17045514202773 1.799055770511127 -6.907743668564697 0 0 1