LAMMPS data file via write_data, version 29 Aug 2024, timestep = 4000000, units = lj

1530 atoms
4 atom types
1030 bonds
1 bond types

-6.798029 6.798029 xlo xhi
-6.798029 6.798029 ylo yhi
-6.798029 6.798029 zlo zhi

Masses

1 1
2 1
3 1
4 1

Bond Coeffs # zero

1 0

Atoms # bond

171 47 4 -5.722845624775075 -6.251896095445563 -5.870654738372848 0 0 0
169 47 2 -5.465420713966351 -5.829209014502758 -5.7994645220586865 0 0 0
606 192 4 -5.957543234530997 -6.434304133175331 -6.1375438828723 0 1 1
604 192 2 -6.005361391625379 -6.354439053490592 -6.62880246335582 0 1 1
22 5 3 -5.696707371184154 -6.5307447808375425 -5.576844677663197 0 1 0
170 47 4 -5.207995803157626 -5.4065219335599535 -5.728274305744525 0 0 0
176 49 4 -5.2040614369441505 -5.201071035353744 -5.376538136842994 0 0 0
25 5 3 -6.3683501324356095 -6.614523921114772 -5.262397453294889 0 1 0
23 5 3 -6.296952593288254 -6.659012735337633 -6.010610749630065 0 1 0
21 5 1 -6.098473710271464 -6.753351384789332 -5.601946642794099 0 1 0
245 72 4 -4.995696577396926 -5.070824614495979 -5.719111331341801 0 0 0
197 56 4 -3.9760290516215164 -5.799699415606416 -5.445134696471648 0 0 0
196 56 2 -4.434456312303601 -5.600849284662411 -5.462543662182756 0 0 0
198 56 4 -4.892883572985685 -5.401999153718406 -5.479952627893865 0 0 0
219 63 4 -3.950032666666572 -6.192666453474114 -5.361786357725047 0 0 0
2 1 3 -3.712227964305903 -6.032941285722991 -5.6468086966727125 0 0 0
5 1 3 -3.998114616660014 -6.11471826228312 -6.331338716547973 0 0 0
281 84 4 -3.8688298235727685 -6.310983602291143 -6.641805234792536 0 0 1
1 1 1 -3.6237214965465694 -6.003247319754728 -6.097236130950238 0 0 0
3 1 3 -3.4983585920003124 -5.567799894394835 -6.1970844254332125 0 0 0
122 31 4 -2.979518040858319 -6.447521279996179 -5.972727147509818 0 0 0
4 1 3 -3.27873086861542 -6.295357828372669 -6.201892317554905 0 0 0
121 31 2 -2.5898084329676667 -6.7114337698605935 -6.141477315543238 0 0 0
602 191 4 -3.2352471877992772 -5.359044436769328 -6.019568935909884 0 1 1
133 35 2 -1.5196847290213946 -6.525054028729294 -6.345416559638877 0 0 0
134 35 4 -1.2251367494422256 -6.126165917511885 -6.409679787501598 0 0 0
274 82 2 -0.6368764425460558 -5.572173190631219 -6.702758745344412 0 0 1
276 82 4 -0.9095861779655607 -5.976751779542905 -6.593462974148174 0 0 1
244 72 2 -5.028203622046784 -4.610831272165845 -5.912371304073143 0 0 0
246 72 4 -5.060710666696642 -4.15083792983571 -6.105631276804485 0 0 0
248 73 4 -4.983505495316511 -3.9364738876412892 -6.458044244182924 0 0 1
247 73 2 -4.8272961908611425 -3.5103495692158644 -6.667845861068783 0 0 1
601 191 2 -2.812638694953706 -5.113982272576244 -5.913048527273535 0 1 1
603 191 4 -2.3900302021081354 -4.8689201083831595 -5.8065281186371855 0 1 1
252 74 4 -2.3760222436281895 -4.4849254879057145 -5.748284487886296 0 0 1
250 74 2 -1.9029888074505095 -4.404006350019702 -5.888610755497608 0 0 1
382 118 2 -0.394503805016989 -1.424135985222176 -0.0060817772079772865 0 0 0
251 74 4 -1.42995537127283 -4.323087212133687 -6.028937023108921 0 0 1
279 83 4 -1.0861030941352476 -4.201187676348296 -6.188264064574923 0 0 1
277 83 2 -0.7436392045755137 -4.4852858842730825 -6.416313823622233 0 0 1
278 83 4 -0.40117531501577963 -4.769384092197869 -6.644363582669543 0 0 1
408 126 4 -3.1008031838435084 -3.2900789944964055 -6.5114487403971495 0 0 1
194 55 4 -3.039663369438944 -2.343427970761705 -5.743881609048911 0 0 0
193 55 2 -3.161417038953584 -2.7809057533288977 -5.9531403811945545 0 0 0
195 55 4 -3.283170708468224 -3.218383535896091 -6.162399153340198 0 0 0
87 19 4 -2.960432392403771 -2.1036302246249683 -5.457529195955536 0 0 0
125 32 4 -2.836739048250743 -2.0140398784949305 -5.822413809023707 0 0 0
209 60 4 -2.6488255295361482 -2.2888550922683035 -5.642761924853538 0 0 0
208 60 2 -2.1632184200937736 -2.3481846929535455 -5.539486885556441 0 0 0
210 60 4 -1.6776113106513992 -2.4075142936387874 -5.4362118462593445 0 0 0
90 20 4 -1.458934855759623 -2.128696907333175 -5.215613044799579 0 0 0
581 184 4 -3.8855342213637205 -0.1837529090436573 -5.380455692552234 0 0 0
261 77 4 -3.6462710881714138 -0.4289004319204191 -5.161772222533536 0 0 1
417 129 4 -3.5795161073502295 -0.38064188876867766 -5.558388236009611 0 0 1
528 166 4 -3.4858969468548566 -0.09779949239201025 -5.283160870619995 0 0 0
124 32 2 -2.9448094613924063 -1.6446122351863866 -6.141543879939132 0 0 0
398 123 4 -3.4059757417122123 -1.155372858392614 -6.619266675665618 0 0 1
415 129 2 -3.4265161846270544 -0.6456187634932765 -5.95383517240929 0 0 1
416 129 4 -3.27351626190388 -0.9105956382178754 -6.3492821088089695 0 0 1
126 32 4 -3.0528798745340695 -1.2751845918778426 -6.460673950854557 0 0 0
321 97 4 -3.067584154345602 -0.9294998762505565 -6.689554079095039 0 0 1
88 20 2 -1.176221546863439 -1.7583531995138817 -5.397048220693993 0 0 0
509 160 4 -1.0128602023042708 -0.17730811191245602 -6.460929064423032 0 0 0
89 20 4 -0.8935082379672551 -1.388009491694588 -5.578483396588405 0 0 0
172 48 2 -0.81804553684181 -0.862963104968031 -6.271253073206191 0 0 0
173 48 4 -0.8514321539337727 -1.24694173594353 -5.952747586984746 0 0 0
174 48 4 -0.7846589197498476 -0.4789844739925319 -6.589758559427636 0 0 0
507 159 4 -1.270071277157663 -0.12729524375520124 -1.4174216155029422 0 0 0
8 2 3 -5.267214437653784 -5.151073507688241 -3.5218811201917717 0 0 0
10 2 3 -5.062746506704729 -5.0259590128036935 -4.235631236397436 0 0 0
915 295 4 -6.765222938415979 -5.136616809072725 -4.414882370075104 1 0 0
233 68 4 -5.1214163292110015 -5.470605144223853 -3.310272647757614 0 0 0
217 63 2 -3.8486973238829614 -6.530102193871612 -5.007007173717035 0 0 0
1226 399 4 -6.752554721359429 -0.23308894630843907 -0.924948573888299 1 0 0
152 41 4 -4.150588581868249 -6.2877075917304355 -3.4563910051820916 0 0 0
151 41 2 -4.003692643780351 -6.552434417074776 -3.8543122176305373 0 0 0
234 68 4 -4.455361071270602 -6.130218196453342 -3.658526886352498 0 0 0
232 68 2 -4.7883887002408025 -5.8004116703385975 -3.4843997670550557 0 0 0
147 39 4 -1.1664205675200618 -4.832900655708672 -4.530573140469934 0 0 0
175 49 2 -5.318133756910876 -5.043711745492692 -4.915858682436862 0 0 0
913 295 2 -6.28650249394606 -5.002431960737845 -4.361767753220173 1 0 0
177 49 4 -5.432206076877601 -4.88635245563164 -4.45517922803073 0 0 0
6 2 1 -5.254532832666012 -4.840615270639726 -3.8664893904695106 0 0 0
914 295 4 -5.80778204947614 -4.868247112402965 -4.308653136365241 1 0 0
117 29 4 -5.789894710157514 -3.6435651361260426 -4.750055146291083 0 0 0
9 2 3 -5.684370345936628 -4.697278361313057 -3.9664605993757 0 0 0
116 29 4 -5.610381592756194 -4.528496213429638 -4.320320310488448 0 0 0
115 29 2 -5.700138151456853 -4.086030674777841 -4.535187728389765 0 0 0
7 2 3 -5.0047239648868045 -4.478716952499375 -3.731488883410436 0 0 0
168 46 4 -0.37086783088035224 -4.600221530136556 -3.4008134991107837 0 0 0
145 39 2 -0.8790240327736174 -4.770459893120788 -4.126216388352351 0 0 0
146 39 4 -0.5916274980271732 -4.708019130532905 -3.721859636234769 0 0 0
161 44 4 -6.5092019223042 -2.8496817198162963 -4.930615569938973 0 0 0
162 44 4 -5.620196617253484 -3.284256944060894 -4.786345191606228 0 0 0
160 44 2 -6.064699269778842 -3.066969331938595 -4.8584803807726 0 0 0
85 19 2 -3.184162126090784 -1.8778809544885195 -5.0715469770680635 0 0 0
110 27 4 -3.4563159190236776 -1.4577351744292946 -4.319551830555107 0 0 0
109 27 2 -3.7579416604383034 -1.483671627776823 -3.9216206650203143 0 0 0
111 27 4 -4.059567401852928 -1.509608081124352 -3.5236894994855215 0 0 0
259 77 2 -3.5843241736781826 -0.8492540433376418 -4.89820928668494 0 0 1
260 77 4 -3.522377259184951 -1.2696076547548643 -4.634646350836345 0 0 1
86 19 4 -3.407891859777797 -1.6521316843520713 -4.6855647581805915 0 0 0
454 142 2 -6.527634630378282 -6.537795075042342 -2.8110429532201575 0 1 0
476 149 4 -5.390458976806702 -5.205809514044987 -3.1496300222414955 0 1 0
113 28 4 -6.3753711818968055 -5.840021499523134 -2.430835149076405 0 0 0
477 149 4 -6.1108741498276675 -5.760036700301336 -2.7326957294637175 0 1 0
455 142 4 -6.325360436062549 -6.086006401463611 -2.7405295166275563 0 1 0
475 149 2 -5.750666563317185 -5.482923107173162 -2.9411628758526063 0 1 0
112 28 2 -6.214586278855423 -5.837507073853644 -1.957398888723245 0 0 0
80 17 4 -5.015218903665971 -5.099371150151393 -3.1892927051750286 0 0 0
98 23 4 -2.5223343133172498 -5.405521675878728 -1.7933751542207654 0 0 0
97 23 2 -2.8336534445868318 -5.016759779439579 -1.8374726187983774 0 0 0
224 65 4 -4.790207836282073 -3.232015544037817 -2.362914423718954 0 0 0
79 17 2 -4.849875282093136 -4.865440289230621 -2.7794905100687752 0 0 0
81 17 4 -4.6845316605203005 -4.631509428309848 -2.369688314962522 0 0 0
231 67 4 -4.6959487587357085 -4.401365473066281 -2.046977622492204 0 0 0
225 65 4 -4.705320028154451 -4.226379883383828 -2.426425215468903 0 0 0
241 71 2 -3.9539865110285928 -4.514018891269509 -2.0658015781310475 0 0 0
242 71 4 -4.379751344237786 -4.398464522361663 -2.3011130623999745 0 0 0
223 65 2 -4.7477639322182625 -3.7291977137108225 -2.3946698195939287 0 0 0
243 71 4 -3.5282216778193995 -4.629573260177354 -1.8304900938621202 0 0 0
229 67 2 -4.992929497917976 -4.46018312222884 -1.6490543576515682 0 0 0
99 23 4 -3.144972575856414 -4.62799788300043 -1.8815700833759894 0 0 0
128 33 4 -5.113205083879832 -2.994133437052336 -2.487440132715755 0 0 0
127 33 2 -5.259843757385325 -2.7530058433459716 -2.074699799108799 0 0 0
129 33 4 -5.406482430890819 -2.5118782496396075 -1.6619594655018428 0 0 0
106 26 2 -1.9616037889517164 -2.436676734962609 -2.2968475588979715 0 0 0
108 26 4 -2.444159687329397 -2.564830120610151 -2.3236153508802864 0 0 0
228 66 4 -2.5734923911404373 -2.672216895624774 -1.9485496774470472 0 0 0
819 263 4 -0.2389914756977882 -2.3590557939124928 -3.2392322254411705 0 0 0
107 26 4 -1.4790478905740356 -2.3085233493150668 -2.2700797669156563 0 0 0
165 45 4 -0.1625010123965469 -1.9545030338403326 -3.1618107888655143 0 0 0
180 50 4 -1.0778264131145177 -2.266124863869485 -2.3045473809597525 0 0 0
179 50 4 -0.2578846310459257 -2.2134094117407064 -2.8745619028127103 0 0 0
178 50 2 -0.6678555220802215 -2.239767137805096 -2.5895546418862314 0 0 0
159 43 4 -1.2534976172290442 -2.4579198996944362 -1.9743666798193533 0 0 0
200 57 4 -4.068550484368573 -1.1739083513764224 -3.279789138706431 0 0 0
199 57 2 -3.989902825230265 -0.7126827237671061 -3.10347842959172 0 0 0
201 57 4 -3.9112551660919572 -0.2514570961577897 -2.927167720477009 0 0 0
216 62 4 -1.1797665455618127 -0.33775704651713623 -1.0868180955199531 0 0 0
575 182 4 -0.8969119381348195 -0.09309287871642802 -1.2389964115660872 0 0 0
215 62 4 -1.1329932960811993 -1.0849978322918996 -0.4239127695443155 0 0 0
78 16 4 -1.5877797880368416 -0.15220080015653917 -2.6874133414001045 0 0 0
506 159 4 -1.4277895961708391 -0.3589556291190988 -2.377347861472629 0 0 0
505 159 2 -1.3489304366642512 -0.2431254364371501 -1.8973847384877855 0 0 0
213 61 4 -1.2423366172760282 -0.316379049579366 -2.720341155579335 0 0 0
163 45 2 -0.11260903044350208 -1.458741632543714 -3.120200416108143 0 0 0
816 262 4 -0.09176353231168172 -0.5832707744945629 -3.195885428578572 0 0 0
164 45 4 -0.06271704849045723 -0.9629802312470951 -3.0785900433507725 0 0 0
211 61 2 -0.8012755712177393 -0.5218334165133479 -2.8354656827546796 0 0 0
212 61 4 -0.36021452515945074 -0.7272877834473299 -2.9505902099300236 0 0 0
114 28 4 -6.053801375814039 -5.834992648184154 -1.4839626283700849 0 0 0
364 112 2 -5.823221169092662 -6.489915760916561 -1.1070575739249129 0 0 0
366 112 4 -6.134581655809781 -6.130145139312917 -1.2607447469157609 0 0 0
230 67 4 -5.289910237100244 -4.5190007713914 -1.2511310928109323 0 0 0
875 282 4 -6.427386758629892 -4.295679670265132 -0.6036104025774187 1 0 0
874 282 2 -6.024382680080597 -4.495629300819862 -0.8218026524702621 1 0 0
876 282 4 -5.621378601531304 -4.695578931374592 -1.0399949023631052 1 0 0
837 269 4 -6.601095784141771 -3.910559386894901 -0.6164328289358336 1 0 0
990 320 4 -6.365303649849588 -4.029939761876817 -0.30519726571496786 1 0 0
395 122 4 -3.9223195946666 -4.110376466118055 -0.07722666073682605 0 0 0
296 89 4 -4.093327325723364 -3.8255659353619773 -0.2752440677637848 0 0 0
203 58 4 -5.4991206685534495 -2.2458286361787527 -1.3954941174544473 0 0 0
202 58 2 -5.667291756792467 -1.8007390741479892 -1.2418264017440361 0 0 0
359 110 4 -5.248478802717193 -2.557896985785143 -1.2909958686085818 0 0 0
295 89 2 -4.096423617833911 -3.395328736014095 -0.5299720899208356 0 0 0
358 110 2 -4.817360857334993 -2.6162662857938006 -1.0445605992460814 0 0 0
360 110 4 -4.3862429119527935 -2.6746355858024584 -0.7981253298835806 0 0 0
309 93 4 -4.044106385554924 -2.588152439365586 -0.5921943270717793 0 0 0
297 89 4 -4.0995199099444575 -2.965091536666213 -0.7847001120778864 0 0 0
307 93 2 -3.6301463630919004 -2.347205487407521 -0.7356574447864499 0 0 0
226 66 2 -2.7692850612075093 -2.4405264613452458 -1.5510766934449765 0 0 0
227 66 4 -2.9650777312745813 -2.2088360270657175 -1.1536037094429057 0 0 0
355 109 2 -2.390210553295706 -2.198038979299059 -0.5351961776837156 0 0 0
356 109 4 -1.9711076364256628 -2.2136151143907994 -0.26296442147871396 0 0 0
357 109 4 -2.809313470165749 -2.1824628442073193 -0.8074279338887174 0 0 0
308 93 4 -3.2161863406288766 -2.1062585354494563 -0.8791205625011204 0 0 0
143 38 4 -2.952210218594099 -1.841786794440889 -0.991612473182051 0 0 0
157 43 2 -1.0965387631834005 -2.5724204575069973 -1.513656857483155 0 0 0
103 25 2 -1.2218835719343744 -2.420358660754457 -0.412312217298121 0 0 0
158 43 4 -0.9395799091377566 -2.6869210153195584 -1.0529470351469568 0 0 0
921 297 4 -0.7227638178128948 -2.8890106546064094 -0.7982945403701618 0 0 0
105 25 4 -0.8241365678208248 -2.5013114739250417 -0.7042779049365635 0 0 0
919 297 2 -0.2454378566525657 -2.745122611688073 -0.8364541775139274 0 0 0
104 25 4 -1.619630576047924 -2.3394058475838726 -0.12034652965967846 0 0 0
204 58 4 -5.835462845031486 -1.3556495121172256 -1.0881586860336248 0 0 0
653 208 4 -5.61715605689222 -1.1819003949925393 -0.7873102984022029 0 0 0
652 208 2 -5.423334253708159 -1.0745859997503364 -0.3390729403159813 0 0 0
238 70 2 -3.3888472668462963 -0.12698079341164253 -1.1878855232529515 0 0 0
240 70 4 -3.374640916650477 -0.5276279851376119 -0.889087920558425 0 0 0
144 38 4 -3.209923045810004 -0.8957157949811007 -0.7953122880837484 0 0 0
142 38 2 -3.0810666322020515 -1.3687512947109948 -0.8934623806328997 0 0 0
384 118 4 -0.8134823387879275 -1.2014890319415212 -0.1638326010850058 0 0 0
214 62 2 -1.156379920821506 -0.711377439404518 -0.7553654325321343 0 0 0
405 125 4 -0.6664715664242006 -0.10331309619646573 -6.647161524050904 0 0 1
1122 364 4 -0.0706694931905072 -4.984519642801555 -6.59556342582485 0 0 1
336 102 4 -4.387559334545334 -1.740795220981554 -6.744470425262788 0 0 1
306 92 4 -1.8583190605462032 -6.231619015479251 1.4896088176793156 0 0 0
750 240 4 -1.9935746390946112 -5.846705233298195 1.6274271121454325 0 1 0
748 240 2 -1.787464792367494 -5.394838839497076 1.5696733829554654 0 1 0
304 92 2 -1.6486301361552798 -6.531754398238337 1.149095518373137 0 0 0
952 308 2 -6.79716725478852 -2.3699156051842474 6.357702148476107 1 0 -1
988 320 2 -6.096366185635121 -3.7600982067632858 0.018620855266907137 1 0 0
989 320 4 -5.827428721420655 -3.4902566516497546 0.3424389762487823 1 0 0
394 122 2 -3.6141094757707846 -3.992316394303732 0.2983639968322746 0 0 0
316 96 2 -3.5508959927329666 -4.022018870650044 1.4542277094604994 0 0 0
396 122 4 -3.305899356874969 -3.8742563224894084 0.6739546544013753 0 0 0
317 96 4 -3.2972886202661336 -3.8215107290165515 1.0728095848660555 0 0 0
401 124 4 -2.9680726939630513 -3.745207963600741 0.8307375915096292 0 0 0
749 240 4 -1.581354945640377 -4.942972445695958 1.5119196537654984 0 1 0
1124 365 4 -0.43937383668076435 -3.63738867658485 1.3999395885681334 0 0 0
1123 365 2 -0.009895008673712253 -3.869485438632841 1.2918700306892814 0 0 0
1106 359 4 -5.635561875504721 -3.248612220645888 0.6191338524986405 1 0 0
1105 359 2 -5.934153449961214 -2.946301048139304 0.8826694793902109 1 0 0
1107 359 4 -6.2327450244177065 -2.6439898756327205 1.146205106281782 1 0 0
1117 363 2 -6.429149938013191 -2.299743155586862 1.637907292724893 1 0 0
1119 363 4 -6.159056342688425 -2.7059950216191337 1.5283222978136557 1 0 0
419 130 4 -3.5867361818134693 -1.9821372702271807 1.3489607064948306 0 0 0
400 124 2 -2.7147963642715114 -3.3506849981500664 1.0045269195766207 0 0 0
402 124 4 -2.4615200345799715 -2.9561620326993916 1.1783162476436122 0 0 0
300 90 4 -2.2635629484580253 -2.6548956750492847 1.3526933950398004 0 0 0
377 116 4 -2.386703088138125 -2.620360226688061 0.9611859112521617 0 0 0
376 116 2 -2.1641317001774354 -2.511966865617271 0.5267749807528133 0 0 0
387 119 4 -2.634004351955687 -2.5935877523089306 1.280662023562961 0 0 0
385 119 2 -2.950735567696612 -2.2103339970156357 1.227766881737735 0 0 0
425 132 4 -2.5396467865990022 -2.8518758738470438 1.5879293027836996 0 0 0
386 119 4 -3.267466783437537 -1.8270802417223408 1.174871739912509 0 0 0
378 116 4 -1.9415603122167455 -2.4035735045464808 0.09236405025346467 0 0 0
272 81 4 -1.803272996727196 -2.020130207001846 0.04209912309067891 0 0 0
298 90 2 -1.8042031313444886 -2.5494789813515424 1.5196541063201217 0 0 0
1052 341 4 -0.4124498401888359 -3.3451603882267853 1.6513637014118132 0 0 0
1051 341 2 -0.6872192945270243 -2.928822083633387 1.6172438671290668 0 0 0
654 208 4 -5.229512450524098 -0.9672716045081337 0.10916441777024033 0 0 0
418 130 2 -3.9289245998499207 -1.617724627982467 1.3594732101866396 0 0 0
693 221 4 -5.221892332115495 -1.2242187739747394 0.4070358599500252 0 0 0
691 221 2 -4.920199284434732 -1.2174162065079481 0.8057024249598246 0 0 0
692 221 4 -4.618506236753969 -1.210613639041157 1.2043689899696237 0 0 0
420 130 4 -4.271113017886372 -1.253311985737753 1.3699857138784486 0 0 0
332 101 4 -4.444769545449745 -0.9233294597823258 1.5163073603488288 0 0 0
331 101 2 -4.184347969658287 -0.4965036367527332 1.516872742834624 0 0 0
333 101 4 -3.9239263938668287 -0.06967781372314047 1.5174381253204192 0 0 0
271 81 2 -1.68028901067323 -1.5430849428584166 0.1275552822152866 0 0 0
273 81 4 -1.5573050246192643 -1.0660396787149877 0.2130114413398943 0 0 0
253 75 2 -1.603996797797582 -0.22937545104150994 0.15314387889260356 0 0 0
254 75 4 -1.6584920671549674 -0.6963036758175216 0.32346210611738363 0 0 0
428 133 4 -1.5966320558953742 -0.9621490328215566 0.6088613001983806 0 0 0
427 133 2 -1.3973338999714264 -0.9160886308802011 1.0651054063720071 0 0 0
429 133 4 -1.1980357440474791 -0.8700282289388456 1.5213495125456338 0 0 0
412 128 2 -2.2009003730014327 -6.599955931699984 2.09627602301242 0 0 0
414 128 4 -2.0758970408369173 -6.174089294733621 1.8660331632603673 0 0 0
303 91 4 -2.090834810360392 -5.25317470892257 3.510100453094729 0 0 0
301 91 2 -2.405077326474642 -5.617031725171587 3.647431122622245 0 0 0
302 91 4 -2.719319842588891 -5.980888741420603 3.7847617921497623 0 0 0
100 24 2 -1.4521860198758856 -0.38595098476550455 6.584546552720389 0 0 -1
369 113 4 -5.386164673812406 -4.19241140680106 1.9157371354362405 0 0 0
368 113 4 -6.034358245877822 -4.754730199622642 2.4291985929699647 0 0 0
367 113 2 -5.710261459845114 -4.473570803211851 2.1724678642031026 0 0 0
1146 372 4 -6.381905404853404 -4.630637136814667 2.5749371890638546 1 0 0
291 87 4 -5.025346702636172 -4.073168526735418 1.828633655729384 0 0 0
318 96 4 -3.8045033651997997 -4.222527012283536 1.8356458340549433 0 0 0
289 87 2 -4.5653058507772455 -4.255880579794745 1.8991937031177188 0 0 0
290 87 4 -4.105264998918319 -4.438592632854072 1.9697537505060536 0 0 0
287 86 4 -3.864122576387272 -4.258550631545582 2.228899744944445 0 0 0
286 86 2 -3.5574592556924376 -4.230060073334301 2.6227853829575425 0 0 0
389 120 4 -2.20920269026261 -4.924880502829709 3.3145302908521797 0 0 0
288 86 4 -3.2507959349976026 -4.20156951512302 3.0166710209706404 0 0 0
390 120 4 -2.9581352812363564 -4.26298111108792 3.2830792274651315 0 0 0
13 3 3 -2.9597566181566073 -3.9264719690101817 3.081803275407926 0 0 0
388 120 2 -2.5836689857494832 -4.593930806958815 3.2988047591586556 0 0 0
431 134 4 -1.8773584845223419 -4.92020890148326 3.5025013814908394 0 0 0
11 3 1 -2.769607921216658 -3.5056593058583903 3.0364141182953444 0 0 0
15 3 3 -2.627539443505157 -3.4447239375620766 2.608041116658249 0 0 0
1118 363 4 -6.699243533337958 -1.8934912895545897 1.7474922876361312 1 0 0
326 99 4 -6.452105961294825 -1.700986324181617 2.0081641008702937 0 0 0
422 131 4 -3.1947478791903388 -1.752879859849059 3.3191332656508377 0 0 0
264 78 4 -3.303559518164474 -2.0041228412303256 3.037938217748399 0 0 0
14 3 3 -3.0794260078770557 -3.1789179829239664 3.14845366963954 0 0 0
262 78 2 -3.1640614074558973 -2.4733360261540875 2.93605954381551 0 0 0
263 78 4 -3.0245632967473206 -2.9425492110778495 2.8341808698826214 0 0 0
426 132 4 -2.8542445942190864 -3.131241873690781 2.4951133290819505 0 0 0
424 132 2 -2.6969456904090445 -2.9915588737689127 2.041521315932825 0 0 0
1053 341 4 -0.9619887488652131 -2.5124837790399885 1.5831240328463205 0 0 0
299 90 4 -1.3448433142309522 -2.4440622876538 1.6866148176004427 0 0 0
393 121 4 -1.040929191386188 -2.1989112522123264 1.8309874776258652 0 0 0
370 114 2 -5.455970433085821 -1.4815337344150104 3.045585008241591 0 0 0
372 114 4 -5.547804589412684 -1.397794738482773 2.5612769778603517 0 0 0
327 99 4 -5.70953929685688 -1.1012449059382807 2.306333482444633 0 0 0
325 99 2 -6.080822629075852 -1.4011156150599489 2.157248791657463 0 0 0
354 108 4 -5.326912732069778 -1.2158915768177843 2.278665077032792 0 0 0
353 108 4 -4.591795756588039 -1.270166746556022 1.6029008886430682 0 0 0
344 105 4 -3.6979047370835456 -0.21815111333672935 1.7845808135369858 0 0 0
352 108 2 -4.9593542443289085 -1.2430291616869031 1.94078298283793 0 0 0
421 131 2 -3.5570081180058497 -1.4422001175236412 3.4682829122525374 0 0 0
343 105 2 -3.3735549812010435 -0.07046902754281233 2.1352761762014025 0 0 0
257 76 4 -2.108152429928084 -0.6456781213338201 2.514913757894187 0 0 0
40 8 3 -2.3096805350529412 -0.3333839648848534 2.347527184128311 0 0 0
37 8 3 -2.8833335913869074 -0.13861730712633474 2.783403450956415 0 0 0
36 8 1 -2.4380330513764896 -0.06641432835350579 2.6934359072383716 0 0 0
39 8 3 -2.1900788541998164 -0.16796882264007945 3.0722569742245738 0 0 0
391 121 2 -1.1085464396446034 -1.7088844978296285 1.7581747882986194 0 0 0
256 76 2 -1.7675444827059874 -0.7940314593279458 2.180283344759283 0 0 0
392 121 4 -1.176163687903019 -1.2188577434469312 1.6853620989713738 0 0 0
375 115 4 -1.0553011397250505 -0.8986148679272539 1.8932778140144093 0 0 0
258 76 4 -1.4269365354838908 -0.9423847973220718 1.8456529316243793 0 0 0
374 115 4 -0.21555885056448904 -0.6561632880916627 2.3791277077355923 0 0 0
373 115 2 -0.6354299951447698 -0.7773890780094583 2.136202760875001 0 0 0
761 244 4 -2.716617486167205 -6.264674704814473 3.471810210573529 0 1 0
760 244 2 -2.8931289272636365 -6.727167601625242 3.542124018338212 0 1 0
12 3 3 -2.409921921691835 -3.473484985079816 3.3213541029035363 0 0 0
430 134 2 -1.4471240135503851 -4.73515700338159 3.6775844903169954 0 0 0
432 134 4 -1.016889542578428 -4.55010510527992 3.852667599143152 0 0 0
351 107 4 -0.8954817960784837 -4.759061771647693 4.15365528894037 0 0 0
349 107 2 -0.43169721454374854 -4.579567750157955 4.101830987883318 0 0 0
599 190 4 -2.1039773989222246 -0.4013904373193222 6.077681927282008 0 0 0
361 111 2 -6.683657480158394 -2.9183820951225217 4.254715996037616 0 0 0
362 111 4 -6.2884864680585295 -2.6801676677120003 4.447313394175308 0 0 0
339 103 4 -6.097200696959971 -2.5227865906373794 4.750333297224073 0 0 0
294 88 4 -6.029071747714559 -2.361322358333981 4.41496849078225 0 0 0
292 88 2 -5.772417743295093 -2.020818949257925 4.153843711370191 0 0 0
293 88 4 -5.515763738875627 -1.6803155401818686 3.8927189319581323 0 0 0
371 114 4 -5.364136276758958 -1.5652727303472478 3.5298930386228307 0 0 0
323 98 4 -5.083624678256949 -1.677950119070609 3.8278852431312003 0 0 0
423 131 4 -3.919268356821361 -1.1315203751982235 3.6174325588542366 0 0 0
322 98 2 -4.613736613896469 -1.5092973614141372 3.8554797046379514 0 0 0
324 98 4 -4.14384854953599 -1.3406446037576654 3.883074166144703 0 0 0
684 218 4 -4.197899792519699 -0.9500432717882956 3.8659890995272104 0 0 0
682 218 2 -4.054309675803304 -0.47403422126655476 3.8130999493872415 0 0 0
569 180 4 -5.6502417086900225 -6.228891507096426 6.488368798723407 0 1 -1
605 192 4 -6.053179548719761 -6.274573973805852 6.4759969561606585 0 1 0
568 180 2 -5.236376703352113 -6.28888567290325 6.214294981246816 0 1 -1
282 84 4 -4.573851219760817 -6.4366756023815395 6.256294061536069 0 0 0
570 180 4 -4.822511698014204 -6.348879838710073 5.940221163770226 0 1 -1
280 84 2 -4.221340521666793 -6.373829602336341 6.6052734133717665 0 0 0
636 202 4 -4.513872689882708 -6.567582918752493 5.857271311025746 0 1 0
268 80 2 -1.927423935637231 -1.2509828120189639 6.022093221253868 0 0 0
102 24 4 -1.910629893666856 -0.49609168818616156 6.4181186703400765 0 0 -1
954 308 4 -6.462448050211993 -2.0282357194016796 6.503365835574758 1 0 -1
337 103 2 -5.863185768394773 -2.4864150304629495 5.190690110296252 0 0 0
312 94 4 -5.574382769625397 -2.804072316766209 5.821364274474441 0 0 0
338 103 4 -5.629170839829576 -2.4500434702885197 5.631046923368431 0 0 0
310 94 2 -5.212440419276633 -2.810142336353452 6.166271348751372 0 0 0
311 94 4 -4.850498068927869 -2.816212355940696 6.511178423028302 0 0 0
249 73 4 -4.6710868864057735 -3.0842252507904395 6.718410522045357 0 0 0
335 102 4 -4.517354210543382 -2.7220560938518408 6.709178342107512 0 0 0
334 102 2 -4.452456772544358 -2.2314256574166973 6.780382958422361 0 0 0
319 97 2 -2.6841809809009978 -0.7525573305769342 6.63874779656137 0 0 0
407 126 4 -2.6351236794796633 -3.233188561965862 6.2014863474878545 0 0 0
1077 349 4 -2.436905106506033 -2.90032152841924 6.086058359079505 0 0 0
1075 349 2 -2.3006030146682845 -2.4394835004210704 5.948036434331274 0 0 0
406 126 2 -2.867963431661586 -3.2616337782311335 6.643047803545352 0 0 0
1076 349 4 -2.1643009228305354 -1.9786454724229006 5.810014509583043 0 0 0
269 80 4 -1.8412854362463107 -1.7253913619594015 5.889742601058769 0 0 0
672 214 4 -5.158735292254905 -0.0001355212738777256 5.461299122155676 0 0 0
222 64 4 -6.571445390882962 -1.7249081960266346 6.776000366211972 0 0 -1
1062 344 4 -6.373980130808733 -1.608825700880394 6.461765576821694 1 0 0
1060 344 2 -5.968541205113444 -1.3179870857251055 6.429638058006343 1 0 0
1061 344 4 -5.563102279418155 -1.0271484705698173 6.397510539190991 1 0 0
409 127 2 -5.483301019114926 -0.5461997197860602 5.6394710527612135 0 0 0
411 127 4 -5.581299977698919 -0.8492363522940666 6.024912362787194 0 0 0
410 127 4 -5.3853020605309325 -0.2431630872780537 5.254029742735233 0 0 0
266 79 4 -5.226579317470255 -1.0078388947699999 6.123256895099294 0 0 0
265 79 2 -4.8633388884021596 -1.2055860195026822 6.404241708479377 0 0 0
267 79 4 -4.500098459334064 -1.403333144235364 6.685226521859459 0 0 0
399 123 4 -4.186222338469741 -1.599202150217798 6.536075080059084 0 0 0
397 123 2 -3.7960990400909767 -1.377287504305206 6.756433202196733 0 0 0
270 80 4 -2.013562435028151 -0.7765742620785261 6.154443841448965 0 0 0
320 97 4 -2.3007778074563934 -0.5756147849033119 6.37099167221778 0 0 0
275 82 4 -0.36416670712655125 -5.167594601719533 6.784003483459348 0 0 0
101 24 4 -0.9937421460849152 -0.27581028134484753 6.7509744351007015 0 0 -1
580 184 2 -4.071653575820423 0.21246502416774507 -5.622056469244036 0 0 0
582 184 4 -4.257772930277125 0.6086829573791473 -5.863657245935839 0 0 0
674 215 4 -4.259900451419492 0.6035032577469249 -6.236624037572033 0 0 1
673 215 2 -3.958485066045575 0.8947968152377755 -6.509198483960671 0 0 1
592 188 2 -2.9398392247436593 1.513316097411697 -6.530836213742841 0 0 1
535 169 2 -1.9901752023761552 0.4893833631619818 -5.2183858048272596 0 0 0
526 166 2 -3.138266654623809 0.1885216249677993 -5.065966492983004 0 0 0
510 160 4 -1.277800400240213 0.4415172868088372 -5.721428004643155 0 0 0
508 160 2 -1.1453303012722418 0.1321045874481906 -6.0911785345330935 0 0 0
489 153 4 -1.194129541564491 0.6889214287814731 -5.427222666909321 0 0 0
536 169 4 -1.6061876906769514 0.5925672172243115 -5.521546955240792 0 0 0
487 153 2 -0.8468906239437025 0.738025809288599 -5.070832580200407 0 0 0
1168 380 2 -6.417878376439355 1.7635088867946844 -6.603689926780205 1 0 0
1169 380 4 -6.560897232365564 2.0896453101733545 -6.25271893054963 1 0 0
496 156 2 -6.328847533620817 2.2725842639905225 -5.472804896371212 0 0 0
497 156 4 -6.043425775459785 2.438625485139033 -5.097352192495448 0 0 0
554 175 4 -5.678710259067222 2.61339770841193 -5.155558847411077 0 0 0
547 173 2 -3.2639414104931443 3.1821104382847616 -5.2018611975825975 0 0 0
549 173 4 -3.1448753004036045 3.262722130387816 -5.680740113931934 0 0 0
775 249 2 -2.986538943287422 2.509216449689783 -6.0956303783069785 0 0 1
776 249 4 -2.837847756899887 2.060162814957113 -6.257623477616057 0 0 1
777 249 4 -3.1352301296749565 2.958270084422453 -5.9336372789978995 0 0 1
593 188 4 -2.5800543527377338 1.7416350591923344 -6.269253917768995 0 0 1
768 246 4 -2.447444745225105 2.1147991355369182 -6.38548113349943 0 0 1
766 246 2 -2.1042559614910465 2.2258665485178697 -6.731725972439594 0 0 1
686 219 4 -2.98160751447681 3.320527061703224 -6.050918361595926 0 0 1
685 219 2 -2.6513891545313943 3.6731486157861974 -6.179813180541406 0 0 1
687 219 4 -2.3211707945859787 4.025770169869171 -6.308707999486886 0 0 1
758 243 4 -2.205643600552625 4.254241606476088 -6.018011560632616 0 0 1
757 243 2 -2.3813281698507254 4.715506733475452 -5.938202947536521 0 0 1
20 4 3 -1.9201974851002506 4.068148860025466 -6.210840911439952 0 0 0
18 4 3 -1.5551507924361276 3.4718843001645636 -5.931360166437594 0 0 0
16 4 1 -1.512500693882016 3.870430375834373 -6.16511643835524 0 0 0
17 4 3 -1.3400702003229963 3.7805920829464403 -6.582005879360051 0 0 0
19 4 3 -1.2226621003907874 4.155226430841241 -5.941096803557597 0 0 0
451 141 2 -0.4854783179689915 4.402644461910278 -5.623332644344978 0 0 0