LAMMPS data file via write_data, version 29 Aug 2024, timestep = 2000000, units = lj

1530 atoms
4 atom types
1030 bonds
1 bond types

-6.798029 6.798029 xlo xhi
-6.798029 6.798029 ylo yhi
-6.798029 6.798029 zlo zhi

Masses

1 10
2 10
3 10
4 10

Bond Coeffs # zero

1 0

Atoms # bond

87 19 4 -5.134877507340671 -5.359106091584097 -5.431154914807042 0 0 0
109 27 2 -5.064120526987313 -5.769016885555609 -5.960091108158227 0 0 0
110 27 4 -4.902872480004411 -6.22036156925878 -6.102523702169491 0 0 0
111 27 4 -5.225368573970216 -5.317672201852438 -5.817658514146962 0 0 0
145 39 2 -2.854619075914342 -5.36268686698478 -5.106000999595234 0 0 0
147 39 4 -2.977292840123056 -5.650857205682953 -5.495756055328388 0 0 0
180 50 4 -1.5692469716600606 -5.498668219770571 -6.190794585888039 0 0 0
137 36 4 -0.9999349310244181 -5.767298349030379 -5.165458365407617 0 0 0
178 50 2 -1.4380510003264015 -5.971554886077462 -6.286532864205213 0 0 0
179 50 4 -1.3068550289927425 -6.444441552384355 -6.382271142522387 0 0 0
169 47 2 -6.298181450991003 -3.9605307609264058 -5.635761427799692 0 0 0
170 47 4 -5.931592150286285 -3.754498119435436 -5.906247721812676 0 0 0
171 47 4 -6.6647707516957215 -4.166563402417376 -5.3652751337867075 0 0 0
1275 415 4 -0.23859156598459333 -0.10201942278053944 -5.757388894157596 0 0 0
597 189 4 -3.1039557322419933 -6.791979343487715 -2.3082378738482414 0 1 0
401 124 4 -5.602407265533095 -4.917739301089701 -6.729737942415416 0 0 1
228 66 4 -4.2425269839315 -3.685122600187128 -5.424379613973039 0 0 0
423 131 4 -4.678069766054406 -3.295077768410237 -6.468364854919489 0 0 1
293 88 4 -4.453171905762449 -4.3291006087911 -6.764098160398939 0 0 1
118 30 2 -2.9573796493718434 -4.311678691523693 -5.523220905768883 0 0 0
120 30 4 -2.7712722993234764 -4.149002637359659 -5.957847821248597 0 0 0
119 30 4 -3.14348699942021 -4.4743547456877275 -5.08859399028917 0 0 0
82 18 2 -0.12332175656631177 -3.890996439202109 -5.432160945726997 0 0 0
84 18 4 -0.4461969816626228 -3.6264005328515796 -5.707371038858054 0 0 0
258 76 4 -0.4336938458175419 -3.9918851767525467 -6.783847408620823 0 0 1
81 17 4 -6.679873101979285 -3.453962875689731 -6.110584944547685 0 0 0
79 17 2 -6.384680629931923 -3.0854870445285125 -6.27516612906368 0 0 0
80 17 4 -6.089488157884561 -2.717011213367294 -6.439747313579676 0 0 0
100 24 2 -5.733257816167444 -2.7551003287777527 -4.993268180217727 0 0 0
217 63 2 -6.401660699405385 -1.9068442025062682 -6.631416833721824 0 0 0
102 24 4 -5.332119566800627 -2.919908037806668 -5.242118584958374 0 0 0
350 107 4 -1.2323170906535938 -0.8061871782768969 -0.09552035069012942 0 0 0
421 131 2 -4.226364815316108 -3.1075372456617147 -6.364484203180942 0 0 1
422 131 4 -3.7746598645778104 -2.919996722913193 -6.2606035514423946 0 0 1
248 73 4 -3.0138367299490425 -2.1715222585762595 -5.534106476995466 0 0 0
225 65 4 -1.984448800870116 -3.4302963099320603 -5.6221742797976715 0 0 0
247 73 2 -2.807026308146731 -1.8531824383628361 -5.2087002565566785 0 0 0
98 23 4 -2.110688949542225 -2.8105522728159964 -6.414629840320931 0 0 0
223 65 2 -1.71635840700655 -3.0092427685445964 -5.651182140849722 0 0 0
224 65 4 -1.4482680131429837 -2.5881892271571325 -5.680190001901772 0 0 0
456 142 4 -6.37448760224245 -0.15701275269177284 -5.956411710418712 0 0 0
815 262 4 -6.2496733522942005 -0.35743661717623854 -6.327771778556656 1 0 0
139 37 2 -0.9921142462830514 -1.720255062862907 -1.2644205514193232 0 0 0
814 262 2 -6.454861451819234 -0.7769430957704087 -6.506411522820488 1 0 0
207 59 4 -3.3312097759040658 -0.5080519368561345 -5.978828961070729 0 0 0
205 59 2 -3.066406806371272 -0.7178612157531227 -6.347420135429235 0 0 0
206 59 4 -2.8016038368384786 -0.9276704946501109 -6.716011309787742 0 0 0
231 67 4 -2.0687912134597406 -0.015338576780383834 -5.734444976073586 0 0 0
908 293 4 -0.14333880247307434 -3.2111068947403947 -2.8729156427750904 0 0 0
332 101 4 -1.5172084844659022 -1.353525094868543 -6.511230756749012 0 0 1
141 37 4 -1.4813434013138513 -1.6181615883231513 -1.2796440964791738 0 0 0
160 44 2 -0.06947915275910795 -0.8693670289151461 -6.313928293761196 0 0 0
162 44 4 -0.18154751294368535 -0.3906563768870154 -6.4049051824760195 0 0 0
129 33 4 -0.39234481649915454 -0.5952875704867493 -1.6693241060672057 0 0 0
85 19 2 -5.14098788966042 -5.39177552643211 -4.932260766460339 0 0 0
86 19 4 -5.147098271980169 -5.424444961280123 -4.433366618113636 0 0 0
192 54 4 -4.041388359712244 -6.0679516781554925 -3.783093626444716 0 0 0
146 39 4 -2.7319453117056285 -5.074516528286607 -4.71624594386208 0 0 0
199 57 2 -3.007491695179896 -5.462162577487356 -3.679697932315515 0 0 0
200 57 4 -3.2069303628649264 -5.918210806120994 -3.727071247502353 0 0 0
201 57 4 -2.8080530274948647 -5.006114348853717 -3.6323246171286776 0 0 0
142 38 2 -1.9475635658298835 -5.279017626731424 -3.499571632956175 0 0 0
136 36 2 -0.57934055887505 -5.878330568853366 -4.918938142550704 0 0 0
138 36 4 -0.15874618672568086 -5.989362788676353 -4.672417919693791 0 0 0
246 72 4 -1.5009178641897052 -6.47391234699199 -4.201662156341497 0 0 0
244 72 2 -1.3749474602606955 -6.426830446435213 -3.7200868746108515 0 0 0
124 32 2 -6.720938300057782 -3.6919495802550912 -4.402943785971591 0 0 0
126 32 4 -6.2459668686570735 -3.5827236126783997 -4.291266450043654 0 0 0
226 66 2 -3.9867579943295115 -3.3625870895815315 -5.140560889509328 0 0 0
90 20 4 -1.8531232691218196 -3.5509274705774896 -3.936771403694592 0 0 0
88 20 2 -1.5820663079679853 -3.9564092588398365 -4.046828857769552 0 0 0
144 38 4 -1.6422294291291828 -5.028692015920639 -3.8063421555583807 0 0 0
89 20 4 -1.3110093468141515 -4.3618910471021834 -4.156886311844512 0 0 0
101 24 4 -6.13439606553426 -2.5902926197488374 -4.74441777547708 0 0 0
236 69 4 -6.455181038064347 -1.6066619689637118 -4.447239388216118 0 0 0
235 69 2 -6.013233225442787 -1.6724793101255624 -4.671627909583356 0 0 0
227 66 4 -3.7309890047275234 -3.0400515789759357 -4.856742165045618 0 0 0
152 41 4 -3.403753441631518 -2.3756011567875603 -4.41792256372624 0 0 0
153 41 4 -3.405067005317644 -3.206721090951987 -3.8618309079843858 0 0 0
151 41 2 -3.404410223474581 -2.7911611238697738 -4.139876735855313 0 0 0
148 40 2 -1.321124284450929 -2.4705887429433315 -3.6888708868799354 0 0 0
149 40 4 -1.5114497852857156 -2.544683576640863 -4.14525467203396 0 0 0
237 69 4 -5.5712854128212275 -1.7382966512874132 -4.896016430950595 0 0 0
184 52 2 -4.577659967173779 -1.164487047118398 -4.198388556011434 0 0 0
185 52 4 -4.18483000888272 -1.1929114782551646 -4.5064091325696385 0 0 0
186 52 4 -4.970489925464839 -1.1360626159816316 -3.89036797945323 0 0 0
845 272 4 -6.77605718136668 -1.2084000237073487 -3.654233347080408 1 0 0
249 73 4 -2.600215886344419 -1.534842618149413 -4.88329403611789 0 0 0
864 278 4 -0.04836726366847793 -1.6380820729190855 -5.1581589381702235 0 0 0
117 29 4 -1.0005050023341844 -1.151135201634833 -4.881836756332857 0 0 0
115 29 2 -0.8410064970062356 -1.0801195789203708 -4.41331033431512 0 0 0
116 29 4 -0.681507991678287 -1.009103956205909 -3.944783912297382 0 0 0
807 259 4 -0.00970807196211626 -6.26456966743941 -4.394172890367943 0 0 0
351 107 4 -2.1648199945349047 -1.1325747304164933 -0.2501473213637723 0 0 0
819 263 4 -6.281546511003001 -5.35871354135056 -3.281813084717258 1 0 0
194 55 4 -5.361595168069493 -5.33745290707263 -1.87303765862825 0 0 0
818 263 4 -6.665843023385791 -5.580265157970347 -2.3855814897915164 1 0 0
817 263 2 -6.473694767194396 -5.469489349660453 -2.8336972872543873 1 0 0
175 49 2 -4.465278210131152 -6.222140031989305 -1.8479118468621742 0 0 0
176 49 4 -4.105620516530819 -5.880895375672741 -1.7831165694916724 0 0 0
190 54 2 -4.205830811019283 -5.813880736006464 -3.385090314193193 0 0 0
191 54 4 -4.370273262326322 -5.559809793857436 -2.9870870019416698 0 0 0
177 49 4 -4.824935903731484 -6.563384688305869 -1.9127071242326767 0 0 0
143 38 4 -2.2528977025305843 -5.529343237542208 -3.1928011103539693 0 0 0
240 70 4 -2.444660963064044 -6.051945374910286 -1.842427000130125 0 0 0
245 72 4 -1.2489770563316855 -6.379748545878436 -3.2385115928802057 0 0 0
22 5 3 -0.9201082837094607 -6.731448721153905 -2.092268525216316 0 1 0
23 5 3 -1.67124508619548 -6.709500967590157 -2.0777151728725 0 1 0
91 21 2 -6.135419359833478 -3.5531468006287765 -3.008293757526748 0 0 0
92 21 4 -5.703686535334459 -3.791970241095702 -2.9272374034654614 0 0 0
103 25 2 -3.5496982056316937 -4.117426580826638 -1.8839757828304196 0 0 0
105 25 4 -3.87428223629188 -4.329647027640121 -2.199582641112719 0 0 0
163 45 2 -2.0424460779481515 -3.885751028319773 -2.2652257588913405 0 0 0
164 45 4 -1.8349234247237483 -3.5218692399899405 -2.538217320153666 0 0 0
165 45 4 -2.249968731172555 -4.249632816649606 -1.9922341976290143 0 0 0
133 35 2 -0.23012523275698016 -4.824171359077393 -2.18022186685687 0 0 0
134 35 4 -0.14029343258251978 -4.936462239822227 -2.6590965955478314 0 0 0
232 68 2 -0.04374545678566386 -3.8011104106710984 -3.183949628188052 0 0 0
234 68 4 -0.23420189532071017 -4.258009736582386 -3.2544432520275683 0 0 0
93 21 4 -6.567152184332499 -3.3143233601618514 -3.089350111588035 0 0 0
121 31 2 -6.278969621512565 -2.275520568964145 -1.8900465653455631 0 0 0
123 31 4 -6.687712532864728 -2.1041326390357615 -2.121466983403776 0 0 0
209 60 4 -4.293762725749575 -2.68194937003697 -3.7290917179112437 0 0 0
210 60 4 -4.508888078203688 -2.095007877900745 -2.948565762199136 0 0 0
113 28 4 -3.9648696152346288 -2.542141829483573 -2.172024594987276 0 0 0
208 60 2 -4.401325401976631 -2.388478623968857 -3.33882874005519 0 0 0
112 28 2 -4.3585564785222255 -2.5660589668064757 -1.8647159159413342 0 0 0
1 1 1 -2.606048249247732 -2.6782918246543423 -2.817972387478454 0 0 0
2 1 3 -2.3601958213543064 -2.365352321850084 -2.587265969528657 0 0 0
3 1 3 -2.463469903320762 -3.1021161523705034 -2.694100055990092 0 0 0
4 1 3 -3.0545493603189837 -2.6247144407941847 -2.7117828526539554 0 0 0
5 1 3 -2.543942026390415 -2.617957622836718 -3.265077074518445 0 0 0
907 293 2 -0.2018151126822215 -2.723549177976316 -2.9670856696847108 0 0 0
150 40 4 -1.1307987836161426 -2.3964939092458 -3.232487101725911 0 0 0
909 293 4 -0.26029142289136864 -2.2359914612122376 -3.061255696594331 0 0 0
242 71 4 -1.1061928813215107 -2.9376067999080884 -1.664654962792285 0 0 0
487 153 2 -5.243522934020383 -0.4959205288293492 -1.8088321661379605 0 0 0
156 42 4 -5.186137554995765 -0.44747513758287777 -3.3759262335221436 0 0 0
154 42 2 -5.066616664418574 -0.7856614011078916 -3.0275804170141147 0 0 0
489 153 4 -5.594086085119156 -0.5358797576453094 -2.1631042891224896 0 0 0
96 22 4 -6.377177854991155 -0.663145546298641 -1.942241667881807 0 0 0
155 42 4 -4.947095773841383 -1.1238476646329054 -2.679234600506086 0 0 0
222 64 4 -4.2149249058343985 -1.404885580469365 -1.8068165865871988 0 0 0
183 51 4 -2.338971341991515 -0.22933810779053798 -3.5670347276156833 0 0 0
7 2 3 -3.4745403004342528 -0.2724589721027192 -1.8969403323375327 0 0 0
9 2 3 -2.742320402885662 -0.4047218196574861 -2.0030561218809115 0 0 0
127 33 2 -0.8011487426461268 -0.5072015278717904 -1.9434047494239846 0 0 0
128 33 4 -1.209952668793099 -0.41911548525683157 -2.2174853927807634 0 0 0
193 55 2 -5.629529801820914 -5.599718539904762 -1.542238973819478 0 0 0
195 55 4 -5.897464435572336 -5.861984172736894 -1.2114402890107059 0 0 0
198 56 4 -4.272634268915978 -5.475648921269257 -1.1471810465650463 0 0 0
239 70 4 -2.25462183492844 -6.7040149341465565 -1.1084716747226375 0 0 0
189 53 4 -3.198659060884761 -6.72986698262482 -0.5502992199525008 0 0 0
187 53 2 -3.1507932210433514 -6.259708491645338 -0.3870207622912606 0 0 0
188 53 4 -3.102927381201942 -5.789550000665855 -0.22374230463002037 0 0 0
238 70 2 -2.349641398996242 -6.377980154528421 -1.4754493374263813 0 0 0
1071 347 4 -0.6541334089767624 -5.758148419071449 -0.18283208162531184 0 0 0
25 5 3 -1.2718902656281554 -6.545874264570641 -1.4607532377837447 0 1 0
1069 347 2 -0.22533034351807607 -5.570120297251629 -0.007408718135176395 0 0 0
800 257 4 -6.578034129790055 -5.437166416653786 -0.9744992571197107 1 0 0
159 43 4 -5.768621980711364 -3.3459172877191388 -0.06953720506235234 0 0 0
202 58 2 -5.558365890105932 -4.320821816695696 -1.5350328250617422 0 0 0
203 58 4 -5.2126930832185545 -3.967812492284064 -1.4582556965887299 0 0 0
204 58 4 -5.90403869699331 -4.673831141107329 -1.6118099535347545 0 0 0
196 56 2 -4.3365330769739385 -4.979945663370109 -1.13320884426798 0 0 0
197 56 4 -4.400431885031899 -4.484242405470961 -1.1192366419709137 0 0 0
104 25 4 -3.225114174971507 -3.9052061340131545 -1.5683689245481198 0 0 0
76 16 2 -2.225004317375003 -4.4601785556536555 -0.5419420947620188 0 0 0
78 16 4 -2.500507354178673 -4.509470136854932 -0.9562709698530814 0 0 0
243 71 4 -2.0236851163081333 -3.1158282515238147 -1.3090637467555652 0 0 0
166 46 2 -0.053031127209577374 -3.569011044526969 -1.6167779496241426 0 0 0
135 35 4 -0.3199570329314404 -4.71188047833256 -1.7013471381659087 0 0 0
77 16 4 -1.949501280571333 -4.410886974452379 -0.1276132196709564 0 0 0
216 62 4 -0.3952073257264732 -3.4831737904547917 -0.7164033239964679 0 0 0
122 31 4 -5.870226710160402 -2.4469084988925283 -1.6586261472873505 0 0 0
157 43 2 -5.587672565499253 -2.9311926584324377 -0.2822830416777052 0 0 0
174 48 4 -5.695992109415089 -2.306739469406994 -0.33122045052485727 0 0 0
172 48 2 -5.668500739418653 -1.8094267196145342 -0.37508676413421216 0 0 0
158 43 4 -5.406723150287142 -2.516468029145736 -0.4950288782930581 0 0 0
107 26 4 -3.52627866619372 -2.8959342255446234 -0.6878496382824848 0 0 0
114 28 4 -4.752243341809821 -2.5899761041293785 -1.5574072368953924 0 0 0
106 26 2 -3.2061700477837216 -2.6991666829909207 -1.0177178037926602 0 0 0
108 26 4 -2.886061429373724 -2.5023991404372183 -1.3475859693028356 0 0 0
213 61 4 -1.9681517080259665 -3.068011550077237 -0.36229339084895873 0 0 0
140 37 4 -0.5028850912522512 -1.822348537402663 -1.2491970063594724 0 0 0
168 46 4 -0.11263973519829666 -3.135006310953767 -1.3757661136291328 0 0 0
214 62 2 -0.5864232772674981 -3.3016000244261896 -0.29158874401306034 0 0 0
241 71 2 -1.564938998814822 -3.0267175257159513 -1.4868593547739253 0 0 0
132 34 4 -0.2830202561035954 -1.8346567845790303 -1.5755762240656592 0 0 0
94 22 2 -6.480035531508914 -0.786817424509444 -1.4688226516590597 0 0 0
95 22 4 -6.5828932080266735 -0.9104893027202472 -0.9954036354363119 0 0 0
173 48 4 -5.641009369422218 -1.3121139698220743 -0.4189530777435671 0 0 0
488 153 4 -4.8929597829216105 -0.455961300013389 -1.4545600431534313 0 0 0
220 64 2 -4.07822680130095 -1.4208518145162572 -1.326130922574588 0 0 0
221 64 4 -3.9415286967675014 -1.4368180485631492 -0.8454452585619774 0 0 0
6 2 1 -3.056329803151091 -0.22829954942187725 -1.7105270137399005 0 0 0
8 2 3 -3.0460542775607595 -0.45987975941852843 -1.308575499360784 0 0 0
349 107 2 -1.6985685425942492 -0.9693809543466951 -0.17283383602695088 0 0 0
39 8 3 -5.864532659717753 -6.725603005900476 -3.7153053621228924 0 1 0
211 61 2 -2.3389670727733702 -3.03959447569095 -0.028095193441079035 0 0 0
218 63 4 -5.921009764409654 -1.877717109669958 -6.766050749028149 0 0 0
97 23 2 -2.4852246316904214 -2.763522063146414 -6.7425188187501925 0 0 0
331 101 2 -1.2776167768134568 -1.7338691575790763 -6.730169578306871 0 0 1
816 262 4 -6.660049551344266 -1.1964495743645789 -6.685051267084321 1 0 0
341 104 4 -4.405906530954837 -1.1318876125671347 -6.574095134445256 0 0 1
312 94 4 -0.045727000137498655 -0.7483389315712128 5.69600263667114 0 0 0
441 137 4 -4.565268989602981 -5.604934603916672 0.9580710172212958 0 0 0
440 137 4 -4.060335016632666 -5.611533828864091 0.09493827356537715 0 0 0
439 137 2 -4.312802003117824 -5.6082342163903816 0.5265046453933365 0 0 0
282 84 4 -1.8474076327766624 -5.855896784606873 1.44635116489185 0 0 0
280 84 2 -1.4253744943606925 -6.100536352288244 1.336626454807348 0 0 0
281 84 4 -1.0033413559447222 -6.345175919969615 1.2269017447228465 0 0 0
301 91 2 -0.46184846482162384 -6.753709761420766 0.8014041741995159 0 0 0
303 91 4 -0.7627648714906364 -6.664703418430584 1.1906691059684713 0 0 0
325 99 2 -5.3332100087999335 -4.854473457647402 0.5785682707470139 0 0 0
326 99 4 -5.4391019309132 -5.188889536070846 0.22226392426509306 0 0 0
327 99 4 -5.227318086686666 -4.5200573792239584 0.9348726172289346 0 0 0
397 123 2 -4.77896448404838 -3.8347570892954357 0.6580567663035467 0 0 0
398 123 4 -4.891505658348653 -4.047736033014417 1.0962056606528654 0 0 0
399 123 4 -4.666423309748106 -3.6217781455764535 0.21990787195422828 0 0 0
413 128 4 -3.142003119477589 -4.677859249749954 1.7898860831080943 0 0 0
434 135 4 -2.6369398533438133 -4.064310252571972 0.6653734148094773 0 0 0
433 135 2 -2.5994660131764333 -3.8759748063664117 1.1270285577520323 0 0 0
412 128 2 -3.426848205486452 -4.8713250770746646 1.4273474636010592 0 0 0
414 128 4 -3.711693291495315 -5.064790904399375 1.0648088440940242 0 0 0
435 135 4 -2.561992173009054 -3.687639360160851 1.5886837006945873 0 0 0
438 136 4 -0.9560353117047136 -4.577603710919617 0.5414930341389854 0 0 0
437 136 4 -0.52421479566168 -3.6909883630272 0.7071561465257681 0 0 0
436 136 2 -0.740125053683197 -4.134296036973408 0.6243245903323767 0 0 0
391 121 2 -6.673216130704697 -3.149148118570269 1.2358210618122805 0 0 0
392 121 4 -6.261472708509597 -3.345301420658449 1.4407386949198093 0 0 0
396 122 4 -5.053601767461229 -1.629182132998457 0.34956533651861044 0 0 0
394 122 2 -4.940574369485529 -2.0677708316124535 0.561378369061809 0 0 0
395 122 4 -4.827546971509829 -2.50635953022645 0.7731914016050077 0 0 0
288 86 4 -1.6949701610728598 -2.6787157218300353 0.4456934699512009 0 0 0
322 98 2 -2.8802122167560924 -2.272996860660684 1.389915125028962 0 0 0
324 98 4 -2.5989447570737756 -2.659320592455884 1.5370293336402858 0 0 0
212 61 4 -2.709782437520774 -3.011177401304663 0.30610300396680057 0 0 0
323 98 4 -3.1614796764384097 -1.8866731288654843 1.2428009164176381 0 0 0
778 250 2 -2.9222294005312075 -6.563842217606283 6.0018004141372305 0 1 0
389 120 4 -1.198569253550496 -0.9560105875527074 5.4685450104810345 0 0 0
286 86 2 -1.3902495692435115 -2.314573111578757 0.28902336969466236 0 0 0
287 86 4 -1.085528977414163 -1.9504305013274787 0.13235326943812378 0 0 0
215 62 4 -0.777639228808523 -3.1200262583975875 0.1332258359703471 0 0 0
362 111 4 -6.232979539525745 -1.5448163488418565 0.7665197501079639 0 0 0
417 129 4 -6.513249582540999 -3.6534627594382822 2.5498065322192947 0 0 0
361 111 2 -6.384025580120879 -1.2527822705189018 1.1432174946175426 0 0 0
385 119 2 -5.444950538938511 -0.16512828861690182 0.20296208318061262 0 0 0
363 111 4 -6.535071620716012 -0.9607481921959473 1.5199152391271213 0 0 0
364 112 2 -3.499761974144878 -1.167976743798289 1.4066695773300781 0 0 0
366 112 4 -3.2568726012438596 -1.505432146282579 1.128949207415088 0 0 0
386 119 4 -5.039683260640527 -0.4018607658625717 0.03057830390419597 0 0 0
365 112 4 -3.742651347045897 -0.8305213413139994 1.6843899472450683 0 0 0
432 134 4 -2.2733314767029125 -0.11822373619606408 0.7989296907332073 0 0 0
430 134 2 -1.9264286772332353 -0.0499538427051101 1.1524797852921322 0 0 0
289 87 2 -6.097155682256605 -6.676878760944959 1.561988188320106 0 0 0
291 87 4 -6.337497673046526 -6.400669277401942 1.902493766340645 0 0 0
317 96 4 -6.207427900001872 -5.519445904582985 3.0854159078304053 0 0 0
268 80 2 -4.160476204792872 -5.634133946746882 2.2324264884920377 0 0 0
269 80 4 -3.8379468990057526 -5.469893088921129 2.5773899467433 0 0 0
270 80 4 -4.483005510579991 -5.798374804572635 1.8874630302407756 0 0 0
276 82 4 -4.304797505866331 -6.364941341862482 3.2837857184365156 0 0 0
419 130 4 -3.0988247432427833 -5.024444018766696 1.9850313495576235 0 0 0
636 202 4 -3.386690560690207 -6.1479480782711935 2.999192224890302 0 1 0
634 202 2 -3.3159991983109074 -6.642309543641832 2.974504721147748 0 1 0
308 93 4 -1.7004919776505354 -0.7287841044573835 6.429710602332102 0 0 0
278 83 4 -0.3805905920000002 -6.399698842013255 2.6257078331086006 0 0 0
415 129 2 -6.26852538420269 -3.7266288647361168 2.1199730903110128 0 0 0
416 129 4 -6.0238011858643805 -3.7997949700339517 1.6901396484027302 0 0 0
1082 351 4 -6.4994159606599045 -4.635423263121347 3.3663709195391407 1 0 0
319 97 2 -4.486394201036351 -3.932749537171401 2.5746991099258802 0 0 0
320 97 4 -4.185703972342041 -3.9183826585260353 2.9739220791620484 0 0 0
321 97 4 -4.787084429730661 -3.9471164158167666 2.1754761406897125 0 0 0
420 130 4 -2.7578778278668454 -4.4836073350693475 2.753959748345965 0 0 0
418 130 2 -2.928351285554814 -4.754025676918022 2.3694955489517944 0 0 0
1038 336 4 -0.09998100305542829 -5.06103136321317 2.4914105986523545 0 0 0
410 127 4 -5.211436881194686 -3.300099893757286 3.1193864310754025 0 0 0
427 133 2 -4.492770651655245 -2.19648169555329 2.1990622061292817 0 0 0
428 133 4 -4.204195151907578 -2.603004891413643 2.2373123325580146 0 0 0
429 133 4 -4.781346151402912 -1.7899584996929363 2.1608120797005483 0 0 0
348 106 4 -4.391804698482856 -1.610877280995535 3.4092201287475072 0 0 0
443 138 4 -2.2649518476915746 -3.3204872235702316 2.305251790587886 0 0 0
444 138 4 -3.231531697339906 -3.064194650480565 2.2991271491300496 0 0 0
442 138 2 -2.7482417725157404 -3.1923409370253983 2.3021894698589676 0 0 0
295 89 2 -0.6270258784013304 -2.54362548831208 2.0292727807754583 0 0 0
296 89 4 -0.2660736713773572 -2.456878289643056 2.364218190905492 0 0 0
297 89 4 -0.9879780854253035 -2.6303726869811044 1.6943273706454245 0 0 0
405 125 4 -5.426076977988516 -0.5625726820963042 2.0342005790473343 0 0 0
403 125 2 -5.19315795081165 -1.003017166827346 2.076121727040607 0 0 0
404 125 4 -4.960238923634784 -1.4434616515583878 2.1180428750338796 0 0 0
346 106 2 -4.125771523428281 -1.216149966681829 3.2561949768770213 0 0 0
347 106 4 -3.8597383483737047 -0.821422652368123 3.1031698250065354 0 0 0
11 3 1 -2.4481940088948595 -1.2957228445622158 1.7733874154837108 0 0 0
12 3 3 -2.04843598070941 -1.3031588912828331 2.0008477946935868 0 0 0
13 3 3 -2.5862914357229827 -1.7323191292806166 1.69846889391936 0 0 0
14 3 3 -2.7629675897570456 -1.0719413085368774 2.03056326373775 0 0 0
15 3 3 -2.3907578931587894 -1.0805806192558507 1.376128160715201 0 0 0
371 114 4 -2.982478562329166 -0.6894762422860663 3.4331941350052326 0 0 0
662 211 4 -3.072534438404807 -0.30229246317377384 3.375059415025765 0 0 0
388 120 2 -1.6595061577091776 -1.1176271144227132 5.3616933908062725 0 0 0
390 120 4 -2.1204430618678596 -1.279243641292719 5.2548417711315105 0 0 0
316 96 2 -6.18712213717928 -5.547392763492638 3.5842211294076844 0 0 0
318 96 4 -6.166816374356688 -5.575339622402291 4.083026350984963 0 0 0
674 215 4 -5.443510805465177 -6.615353104475232 4.936196063992368 0 1 0
274 82 2 -4.386492023700255 -6.099773838896166 3.6997330722280406 0 0 0
275 82 4 -4.468186541534179 -5.834606335929849 4.115680426019566 0 0 0
339 103 4 -3.5956964236853417 -5.401649436748461 4.041392645545657 0 0 0
337 103 2 -3.0981537996973585 -5.35733021037109 4.019321318258967 0 0 0
338 103 4 -2.600611175709375 -5.313010983993718 3.9972499909722767 0 0 0
1060 344 2 -0.24357571917229576 -6.345078406455633 4.314945961329833 0 0 0
367 113 2 -0.941819684715706 -5.593584550871572 3.6191766014279314 0 0 0
368 113 4 -0.5968778750886565 -5.240202952515742 3.540840186430219 0 0 0
369 113 4 -1.2867614943427552 -5.946966149227403 3.6975130164256433 0 0 0
378 116 4 -1.587199312874836 -5.179231291773672 5.040352620431888 0 0 0
1062 344 4 -0.6972647660343322 -6.536597620281247 4.401471330400698 0 0 0
352 108 2 -5.436853343948707 -4.47792280326587 3.7171077335473277 0 0 0
353 108 4 -5.67612758339434 -4.099985495721684 3.9405159471476727 0 0 0
354 108 4 -5.197579104503073 -4.855860110810056 3.4936995199469827 0 0 0
250 74 2 -3.8617480037483847 -3.828332468247859 4.659424472227339 0 0 0
252 74 4 -4.319345140535012 -3.9883007871618927 4.536888773967174 0 0 0
359 110 4 -2.3213203398844464 -5.159934417800502 3.7638866483990174 0 0 0
358 110 2 -2.0081371081614177 -4.8107255250491905 3.5907698884052555 0 0 0
251 74 4 -3.404150866961757 -3.668364149333826 4.781960170487503 0 0 0
360 110 4 -1.6949538764383885 -4.4615166322978785 3.4176531284114944 0 0 0
376 116 2 -1.3604251703197958 -5.0898810232048515 4.6037864538833455 0 0 0
373 115 2 -1.1642047208266098 -3.6844344767741597 4.821167678675473 0 0 0
377 116 4 -1.1336510277647553 -5.000530754636031 4.167220287334803 0 0 0
406 126 2 -0.13862552083571597 -4.069287569907477 4.726848051087835 0 0 0
408 126 4 -0.4086911534994627 -3.922461738471811 4.332504635678114 0 0 0
375 115 4 -1.1474919549049607 -4.048006348377714 5.1640031751365925 0 0 0
409 127 2 -5.656629548797519 -3.1712616236060445 3.307014224477992 0 0 0
411 127 4 -6.101822216400351 -3.0424233534548026 3.4946420178805813 0 0 0
20 4 3 -6.741698216915303 -1.873777248877395 4.309291226433529 0 0 0
334 102 2 -4.171252708560161 -1.9832548637310845 5.086383922426843 0 0 0
283 85 2 -3.0262334072948582 -2.537011434391903 4.0872113178516685 0 0 0
284 85 4 -2.798266555818218 -2.263268137944127 3.7363613181687434 0 0 0
285 85 4 -3.2542002587714984 -2.810754730839679 4.4380613175345935 0 0 0
261 77 4 -2.1391072348648907 -2.2268735926374648 4.253066413183174 0 0 0
259 77 2 -1.6900414796636027 -2.0176581757444136 4.32065973267394 0 0 0
374 115 4 -1.1809174867482592 -3.3208626051706043 4.478332182214354 0 0 0
18 4 3 -6.180474252484923 -1.5777661516347028 4.714636871603281 0 0 0
384 118 4 -5.597254294837769 -1.748516482990612 3.9242640813926655 0 0 0
16 4 1 -6.640810575991779 -1.6170745942123985 4.671679734800969 0 0 0
266 79 4 -3.462354973464083 -1.1074450816243144 5.4753571279835835 0 0 0
382 118 2 -5.476983096551961 -1.8683134288397651 4.394565612995616 0 0 0
383 118 4 -5.356711898266153 -1.9881103746889188 4.864867144598567 0 0 0
335 102 4 -3.9488970490821655 -1.7021422782694808 4.737767119915543 0 0 0
370 114 2 -2.5547457036439623 -0.7701741859964994 3.679227554445848 0 0 0
372 114 4 -2.1270128449587586 -0.8508721297069325 3.925260973886463 0 0 0
260 77 4 -1.2409757244623147 -1.8084427588513625 4.388253052164706 0 0 0
356 109 4 -5.295590628570011 -6.587581951955532 6.397729374023793 0 0 0
1130 367 4 -6.613968697969013 -6.14993597418847 6.627503879621932 1 0 0
355 109 2 -4.86242494520374 -6.352726048122582 6.3128165058075325 0 0 0
357 109 4 -4.429259261837468 -6.117870144289632 6.227903637591271 0 0 0
780 250 4 -2.719866679526181 -6.123761342968692 6.125809094984297 0 1 0
328 100 2 -1.9497586524518615 -5.884190191742425 5.8461354471609495 0 0 0
329 100 4 -2.4241389658965864 -6.0419322472450165 5.855122223102101 0 0 0
330 100 4 -1.4753783390071367 -5.726448136239834 5.837148671219798 0 0 0
304 92 2 -0.44170910961025206 -6.446386788384648 5.907084675471104 0 0 0
306 92 4 -0.2778176840293728 -6.083033874180159 5.6052332875994955 0 0 0
344 105 4 -1.4500232299887008 -5.458475488371962 6.445710937084897 0 0 0
424 132 2 -5.649391239554609 -4.207319295114043 5.693138128178497 0 0 0
425 132 4 -5.463180157162588 -4.325442354263164 5.244392793170359 0 0 0
426 132 4 -5.835602321946629 -4.089196235964921 6.141883463186636 0 0 0
294 88 4 -5.227863013255655 -4.036242972041295 6.271524212103593 0 0 0
313 95 2 -4.156004760434026 -4.863254236853257 5.634894673575161 0 0 0
314 95 4 -4.1740320727015385 -4.924132683198085 6.130847121681631 0 0 0
315 95 4 -4.137977448166514 -4.80237579050843 5.138942225468692 0 0 0
292 88 2 -4.840517459509052 -4.182671790416197 6.5517420258523265 0 0 0
271 81 2 -2.562962621724369 -4.335455541802365 6.096312992102332 0 0 0
272 81 4 -2.5764129093890586 -4.4248065864164206 6.5880807020911245 0 0 0
273 81 4 -2.54951233405968 -4.24610449718831 5.6045452821135395 0 0 0
256 76 2 -0.40012349704088246 -3.5370899515105787 6.60718782488754 0 0 0
343 105 2 -1.4423084133876427 -4.984273743458403 6.287365786462473 0 0 0
345 105 4 -1.4345935967865846 -4.510071998544844 6.1290206358400505 0 0 0
264 78 4 -5.089424587043015 -2.5962072287375855 5.153941250729637 0 0 0
661 211 2 -3.4815304682070023 -0.08199848104485319 3.5599723919728383 0 0 0
336 102 4 -4.393608368038156 -2.2643674491926884 5.435000724938143 0 0 0
262 78 2 -5.095649948668695 -2.508281308597994 5.646110202858903 0 0 0
263 78 4 -5.101875310294375 -2.420355388458403 6.138279154988171 0 0 0
300 90 4 -3.086001613064992 -2.7399666315286515 6.173660490259304 0 0 0
298 90 2 -3.2167210910972504 -2.265959744864727 6.082941752077164 0 0 0
693 221 4 -3.3795937822862663 -0.053425602196708735 0.6430453680100272 0 0 0
99 23 4 -2.8597603138386183 -2.716491853476831 6.525650202820546 0 0 -1
257 76 4 -0.36655314826422347 -3.0822947262686102 6.402165058395903 0 0 0
307 93 2 -2.18119258533675 -0.8627471629926995 6.461028723567963 0 0 0
333 101 4 -1.0380250691610113 -2.1142132202896096 6.64694960013527 0 0 0
640 204 2 -5.676978682962964 -0.1108439737134565 6.208247343956544 0 0 0
641 204 4 -6.086262200619326 -0.3276137573333561 6.019838578014048 0 0 0
309 93 4 -2.661893193022965 -0.9967102215280156 6.492346844803824 0 0 0
299 90 4 -3.3474405691295086 -1.7919528582008015 5.992223013895024 0 0 0
342 104 4 -5.156630347640805 -1.304573323079388 6.384316100922786 0 0 0
267 79 4 -3.792264175165052 -0.1679081410289867 5.38354070303842 0 0 0
340 104 2 -4.781268439297821 -1.2182304678232614 6.703139483238765 0 0 0
265 79 2 -3.627309574314568 -0.6376766113266504 5.429448915511002 0 0 0
402 124 4 -6.505765965726922 -4.547420032974827 6.649971499821556 0 0 0
400 124 2 -6.054086615630008 -4.732579667032264 6.75814577870307 0 0 0
603 191 4 -4.934824054072313 0.7762393321495663 -5.751360271175371 0 0 0
791 254 4 -4.429361395145916 0.7216856060295821 -6.671654105400009 0 0 1
601 191 2 -4.729752372670699 0.49376111312708415 -5.393377504460863 0 0 0
181 51 2 -1.9206345331606813 0.022595652349137914 -3.6743832016555156 0 0 0
481 151 2 -1.0335059742313115 1.3580022060074661 -6.194121152413229 0 0 0
482 151 4 -1.3376012737645435 0.9668152310790523 -6.127048062067301 0 0 0
583 185 2 -4.981209304996586 3.141337648205064 -6.223380308744864 0 0 0
585 185 4 -4.845504413664132 3.0982040150724406 -6.702675282807074 0 0 0
777 249 4 -6.1146768263833975 2.374552072622498 -6.315357008197914 0 0 1