LAMMPS data file via write_data, version 29 Aug 2024, timestep = 5000000, units = lj

1530 atoms
4 atom types
1030 bonds
1 bond types

-6.798029 6.798029 xlo xhi
-6.798029 6.798029 ylo yhi
-6.798029 6.798029 zlo zhi

Masses

1 1
2 1
3 1
4 1

Bond Coeffs # zero

1 0

Atoms # bond

86 19 4 -5.660980076325997 -5.7767296428293 -5.697213703746332 0 0 0
109 27 2 -6.322286896018239 -5.997370402124416 -6.223803422874794 0 0 0
85 19 2 -5.573537127156994 -5.62405988423566 -5.229190546785342 0 0 0
357 109 4 -5.757705258092657 -6.171961210078803 -5.750917754180942 0 0 1
314 95 4 -5.53720786077219 -5.980696192087846 -6.009546079249895 0 0 1
111 27 4 -5.946595121841663 -5.86591665122822 -5.9211888128645525 0 0 0
355 109 2 -5.519123971914705 -6.611214433519947 -5.7392740613900095 0 0 1
313 95 2 -5.267813580671813 -5.6571946578075165 -6.279311679665598 0 0 1
110 27 4 -6.697978670194815 -6.128824153020611 -6.526418032885036 0 0 0
315 95 4 -4.998419300571437 -5.333693123527187 -6.549077280081302 0 0 1
514 162 2 -3.5610486645458046 -6.542167441803828 -5.664158729712161 0 1 0
1069 347 2 -0.024831742898141905 -5.833107006842986 -0.9442916835436647 0 0 0
343 105 2 -3.1719259331435645 -5.352927493389885 -5.84465441389062 0 0 1
516 162 4 -3.2237204623129534 -6.243952753402762 -5.881593049910079 0 1 0
344 105 4 -3.0914449914972693 -5.844820355114616 -5.884204769336858 0 0 1
178 50 2 -2.5549817311722656 -6.444845092105435 -6.159395866148584 0 0 0
179 50 4 -2.934082005637268 -6.119862379764813 -6.13352660678089 0 0 0
180 50 4 -2.175881456707263 -6.769827804446057 -6.1852651255162785 0 0 0
118 30 2 -3.8724058391865026 -4.512153780571058 -5.543967983050755 0 0 0
120 30 4 -3.427552602817983 -4.5118491418646265 -5.772234286494967 0 0 0
345 105 4 -3.252406874789859 -4.861034631665154 -5.805104058444383 0 0 1
272 81 4 -3.0381650281510995 -4.53561996847027 -5.6506978332082465 0 0 1
271 81 2 -2.7012698327472107 -4.218928376594713 -5.84098199689229 0 0 1
273 81 4 -2.3643746373433214 -3.902236784719156 -6.031266160576333 0 0 1
98 23 4 -2.4575238398774983 -3.5647361875680392 -6.253841972598037 0 0 0
455 142 4 -3.705367744280738 -1.8459115642967365 -5.718759088253709 0 0 0
454 142 2 -3.56797645618642 -2.290199823959418 -5.535097507400658 0 0 0
456 142 4 -3.4305851680921022 -2.7344880836220993 -5.351435926547607 0 0 0
97 23 2 -2.0227720834417635 -3.318229592958997 -6.238828342449458 0 0 0
99 23 4 -1.5880203270060282 -3.071722998349955 -6.223814712300878 0 0 0
332 101 4 -1.3073719555709808 -1.9177258884532191 -6.4832310197422895 0 0 1
331 101 2 -1.3035873696546338 -2.4177100084646566 -6.481983363635128 0 0 1
333 101 4 -1.2998027837382864 -2.917694128476094 -6.480735707527967 0 0 1
83 18 4 -1.2164843695603431 -3.167446353841776 -6.172376884340239 0 0 0
82 18 2 -1.0483999426668258 -3.135240430539498 -5.70257862557407 0 0 0
84 18 4 -0.8803155157733076 -3.10303450723722 -5.2327803668079005 0 0 0
237 69 4 -3.646579408788907 -1.566435900440503 -5.440195152583042 0 0 0
341 104 4 -3.8734813685199985 -1.4908092911234567 -5.803366112577092 0 0 1
340 104 2 -3.8651771561461366 -1.272899145627653 -6.253306340326593 0 0 1
235 69 2 -3.7865716829939626 -1.1954732457948627 -5.135582493586165 0 0 0
342 104 4 -3.8568729437722746 -1.0549890001318494 -6.703246568076094 0 0 1
307 93 2 -2.1010540992814843 -1.5476423695771835 -6.618982448636642 0 0 1
308 93 4 -1.683848449712615 -1.7722972626832794 -6.4593903906539865 0 0 1
161 44 4 -1.4124138451183028 -1.6066184010218845 -6.223681494314178 0 0 0
160 44 2 -1.2653084398853045 -1.580940464663363 -5.746501608594501 0 0 0
162 44 4 -1.1182030346523062 -1.5552625283048414 -5.269321722874825 0 0 0
87 19 4 -5.486094177987991 -5.47139012564202 -4.761167389824354 0 0 0
1157 376 4 -6.339408740012603 -6.317905086151594 -4.140455210354685 1 1 0
1156 376 2 -6.0024373776745525 -5.98223939248334 -4.294659111271241 1 1 0
1158 376 4 -5.6654660153365 -5.646573698815085 -4.4488630121877994 1 1 0
170 47 4 -5.5211365638999546 -5.3058682520438385 -4.40606904408387 0 0 0
191 54 4 -5.2647310773657665 -5.599444011498807 -4.443667489478099 0 0 0
227 66 4 -5.153363825433127 -5.246889596676669 -4.597349822345475 0 0 0
40 8 3 -6.73948123884719 -6.77900672267654 -3.3527156666191504 0 1 0
190 54 2 -4.935980385602757 -5.965047098964813 -4.352797444356495 0 0 0
147 39 4 -4.230412563158228 -6.452481448279474 -4.349039052858892 0 0 0
192 54 4 -4.607229693839747 -6.33065018643082 -4.261927399234891 0 0 0
200 57 4 -4.321596687244209 -6.3519656791620145 -3.955604260671535 0 0 0
145 39 2 -4.0580792047830565 -6.73851564471605 -4.7211756568906 0 0 0
199 57 2 -4.460562837288112 -6.61349011675914 -3.552747738220834 0 0 0
169 47 2 -5.753578991683911 -4.956158783699905 -4.134639853471811 0 0 0
126 32 4 -6.302996197225086 -4.423306356947513 -3.710071204228997 0 0 0
171 47 4 -5.9860214194678685 -4.606449315355973 -3.863210662859753 0 0 0
119 30 4 -4.317259075555023 -4.51245841927749 -5.315701679606542 0 0 0
226 66 2 -4.872430380834653 -4.884612200400869 -4.7969280973505395 0 0 0
228 66 4 -4.59149693623618 -4.5223348041250695 -4.996506372355604 0 0 0
954 308 4 -0.004298355774951135 -3.5174855362219732 -4.129465840942439 0 0 0
90 20 4 -0.42941579085505205 -3.6116393168636507 -4.086955225569569 0 0 0
88 20 2 -0.5181870307755645 -3.3568240002501035 -4.507893251153104 0 0 0
231 67 4 -2.302158948741059 -1.7885216894122797 -4.24848817448474 0 0 0
225 65 4 -0.8949351066912465 -2.8302214536699246 -4.967507067840322 0 0 0
223 65 2 -0.9381050799403738 -2.332917475230336 -4.996231733853424 0 0 0
89 20 4 -0.6069582706960762 -3.102008683636556 -4.92883127673664 0 0 0
224 65 4 -0.981275053189501 -1.8356134967907471 -5.024956399866526 0 0 0
248 73 4 -1.355486845538443 -1.7009839367865582 -4.9907349293203325 0 0 0
475 149 2 -3.9447315638389644 -0.09535977809562467 -4.842221877319434 0 0 0
477 149 4 -4.054364577549981 -0.519915683613482 -4.601945192236319 0 0 0
236 69 4 -3.926563957199018 -0.824510591149222 -4.830969834589288 0 0 0
156 42 4 -3.9315281530726436 -0.8637508946446181 -4.441585069242679 0 0 0
154 42 2 -3.584514857151638 -0.9795555594110874 -4.100746321339018 0 0 0
249 73 4 -2.1899667100322073 -1.4840354141304688 -4.484200928218295 0 0 0
247 73 2 -1.772726777785325 -1.5925096754585135 -4.7374679287693136 0 0 0
229 67 2 -2.619461477388349 -1.5628045944956601 -3.9348468213818513 0 0 0
155 42 4 -3.237501561230632 -1.0953602241775569 -3.7599075734353553 0 0 0
185 52 4 -3.306178384273289 -1.3902716769448111 -3.5006179094053977 0 0 0
230 67 4 -2.9367640060356393 -1.3370874995790407 -3.6212054682789634 0 0 0
534 168 4 -3.0891449435463474 -1.0428295726459829 -3.3905790432299066 0 0 0
117 29 4 -1.026346318233511 -1.4755396224316382 -4.8888448503505835 0 0 0
115 29 2 -0.7082403926128389 -1.262044701391715 -4.567552866673524 0 0 0
116 29 4 -0.39013446699216725 -1.0485497803517918 -4.246260882996464 0 0 0
1273 415 2 -0.29613324483569975 -0.14949840201157594 -4.124826683118686 0 0 0
149 40 4 -0.2796545353060449 -0.9534023451627286 -3.8618347651843257 0 0 0
1275 415 4 -0.318800331400428 -0.6486474492476323 -4.106484604990182 0 0 0
863 278 4 -0.016959418089345646 -0.924953283413148 -4.166608660762617 0 0 0
471 147 4 -4.745264298178611 -6.1395044334785025 -2.117248441860972 0 1 0
469 147 2 -4.787167571094876 -6.493190182409671 -2.468176506742891 0 1 0
909 293 4 -0.003107704335971767 -1.3357985743828613 -2.738428652997312 0 0 0
866 279 4 -1.020064315041654 -0.8151536076537018 -0.3730423962412863 0 0 0
23 5 3 -2.1443644467909886 -6.141147891257342 -2.4996342296584992 0 1 0
21 5 1 -2.264729678655431 -6.587251119768823 -2.5421091689756725 0 1 0
22 5 3 -2.580230334481989 -6.6251289168103815 -2.8747119480747525 0 1 0
124 32 2 -6.5701430493531925 -4.397547280674397 -3.2882074473267693 0 0 0
91 21 2 -6.378607284824261 -4.222928119987362 -2.2387536530185397 0 0 0
92 21 4 -5.930199526245915 -4.087037562325739 -2.0642135762882607 0 0 0
131 34 4 -0.9234998712954693 -1.1812167010745998 -0.19218659243579425 0 0 0
204 58 4 -5.808027636563009 -4.1812354272545935 -1.6768020827189207 0 0 0
196 56 2 -3.680508920198316 -3.549021942901702 -2.1830442524554705 0 0 0
197 56 4 -3.33891660973123 -3.906186431962648 -2.2588612768205576 0 0 0
103 25 2 -2.447989286401092 -3.879974789223698 -2.240470395979454 0 0 0
104 25 4 -2.9423902382698333 -3.8995075026464203 -2.312485477022509 0 0 0
105 25 4 -1.9535883345323517 -3.860442075800976 -2.1684553149363994 0 0 0
78 16 4 -1.6676223058130382 -3.8247026428885604 -1.8953246131667192 0 0 0
164 45 4 -1.6794706475644492 -3.506159851447545 -2.1477235008009194 0 0 0
76 16 2 -1.466176837744123 -4.104570138128404 -1.5332556853318926 0 0 0
198 56 4 -4.022101230665402 -3.191857453840755 -2.1072272280903834 0 0 0
212 61 4 -4.019457303971689 -2.8196468641015358 -2.0014873793572807 0 0 0
211 61 2 -3.806397729743851 -2.3875954676271935 -2.1354172439671797 0 0 0
213 61 4 -3.5933381555160127 -1.955544071152851 -2.269347108577078 0 0 0
186 52 4 -3.5306785934942404 -1.8025985799312036 -2.6176761326527784 0 0 0
398 123 4 -4.121683976730349 -3.073520197591054 -1.6968070418253878 0 0 0
4 1 3 -1.9727688533257028 -1.9765387478917262 -1.9225545101540509 0 0 0
152 41 4 -2.3342559837956918 -1.8100853397456778 -1.9452894060347523 0 0 0
151 41 2 -2.7984764849176473 -1.771516279190482 -2.126980775960828 0 0 0
153 41 4 -3.262696986039602 -1.7329472186352852 -2.3086721458869035 0 0 0
5 1 3 -1.5702091885194875 -1.934301332451902 -2.557425927850361 0 0 0
1 1 1 -1.545757355189045 -1.9673755757059375 -2.103875266644994 0 0 0
165 45 4 -1.1281744899037276 -2.703195353893818 -1.9211830800893765 0 0 0
163 45 2 -1.4038225687340884 -3.1046776026706815 -2.034453290445148 0 0 0
3 1 3 -1.31506748735557 -2.352143612992123 -1.9854027282161324 0 0 0
113 28 4 -5.100974777153583 -0.12924753093284339 -3.062274883339822 0 0 0
222 64 4 -4.498817886130879 -0.5623905132483761 -1.959428940380707 0 0 0
107 26 4 -3.6350592889291717 -1.54854985406354 -2.2820765331390787 0 0 0
580 184 2 -3.833372701567108 -0.1270958359849112 -2.244372178571846 0 0 0
106 26 2 -3.9916166219961 -1.2012015373971339 -2.2350019630963454 0 0 0
108 26 4 -4.348173955063029 -0.853853220730728 -2.187927393053612 0 0 0
112 28 2 -4.835198687504504 -0.32968484621295546 -2.689195866489911 0 0 0
581 184 4 -4.174279944965686 -0.48495242127046334 -2.168735443012147 0 0 0
114 28 4 -4.569422597855425 -0.5301221614930676 -2.31611684964 0 0 0
532 168 2 -2.9353629947476674 -0.5953391638913887 -3.22901343334966 0 0 0
184 52 2 -3.4184284888837646 -1.5964351284380072 -3.059147021029088 0 0 0
182 51 4 -2.459665838909337 -0.30945086722205534 -1.853971298137454 0 0 0
533 168 4 -2.7815810459489874 -0.14784875513679469 -3.067447823469413 0 0 0
181 51 2 -2.649911154083717 -0.14052153636360146 -2.284400852454335 0 0 0
867 279 4 -0.6970520940371738 -0.07197123889230067 -0.9589972339565352 0 0 0
148 40 2 -0.20413886715672702 -0.967096296287335 -3.3677600141937423 0 0 0
127 33 2 -1.8209601631540793 -0.9085851744272103 -1.9248386640687087 0 0 0
150 40 4 -0.12862319900740898 -0.980790247411941 -2.873685263203159 0 0 0
2 1 3 -1.3212369985733967 -1.6021172864806055 -1.9372109584766408 0 0 0
141 37 4 -1.1747720218951359 -1.4280287654471366 -2.2457388647952135 0 0 0
139 37 2 -0.7208622651845862 -1.2674021235614479 -2.3805165138310604 0 0 0
140 37 4 -0.2669525084740366 -1.1067754816757591 -2.5152941628669074 0 0 0
128 33 4 -1.4473196003372415 -1.2342715054671851 -1.9905740699895098 0 0 0
195 55 4 -5.014086467898018 -5.840800860277607 -2.0865581682550003 0 0 0
800 257 4 -6.732078657344425 -5.205815280332185 -0.29467622760349105 1 0 0
194 55 4 -5.388330321027484 -5.352741159666623 -1.2980537186584584 0 0 0
969 313 4 -5.557760867274182 -5.366132986706519 -0.9638840612240158 1 0 0
967 313 2 -5.941741046207817 -5.3003970946372965 -0.6504546199137824 1 0 0
193 55 2 -5.201208394462751 -5.596771009972115 -1.6923059434567294 0 0 0
1070 347 4 -0.1529197303979914 -5.445748861647636 -0.6552464711480988 0 0 0
302 91 4 -0.16845755538445023 -5.307661704684072 -0.2855274679014692 0 0 0
438 136 4 -0.5004581610571524 -5.253769266408442 -0.5082645034394327 0 0 0
819 263 4 -6.548790325620687 -5.090190493306324 -0.6329226742522924 1 0 0
968 313 4 -6.325721225141451 -5.234661202568074 -0.33702517860354864 1 0 0
203 58 4 -5.53672412908196 -4.989488400672901 -1.154191771120627 0 0 0
327 99 4 -6.493153532883633 -4.876695832517624 -0.2804429582705901 0 0 0
202 58 2 -5.672375882822485 -4.585361913963747 -1.4154969269197737 0 0 0
436 136 2 -0.7001841341957871 -4.8698193486484485 -0.7586482016026805 0 0 0
242 71 4 -1.1920446575174675 -4.341303526874226 -0.7887986281632243 0 0 0
77 16 4 -1.2647313696752083 -4.384437633368247 -1.1711867574970662 0 0 0
437 136 4 -0.8999101073344213 -4.485869430888456 -1.0090318997659278 0 0 0
241 71 2 -1.3182151036962355 -4.044831321037604 -0.4064568312359495 0 0 0
243 71 4 -1.4443855498750036 -3.7483591152009823 -0.024115034308674732 0 0 0
394 122 2 -4.784556413487217 -3.3656531397661866 -0.3592183659891455 0 0 0
396 122 4 -4.7039467484294155 -3.1846397740956496 -0.8182785399835568 0 0 0
399 123 4 -4.916687797632293 -2.9804279909974225 -1.097388351907067 0 0 0
397 123 2 -4.5191858871813215 -3.0269740942942387 -1.3970976968662274 0 0 0
214 62 2 -1.11240845566913 -2.9429996309780257 -0.26492177247822263 0 0 0
130 34 2 -0.9083743740059688 -1.6575699743020689 -0.34337779064966023 0 0 0
215 62 4 -0.9726469653548045 -2.511558122415476 -0.47545668766940974 0 0 0
132 34 4 -0.8932488767164682 -2.133923247529538 -0.4945689888635262 0 0 0
168 46 4 -0.6495799308374213 -2.4423504234326177 -0.6735013305835105 0 0 0
166 46 2 -0.1653715906925351 -2.4256853313795665 -0.7970511506584956 0 0 0
216 62 4 -1.2521699459834554 -3.3744411395405756 -0.05438685728703549 0 0 0
865 279 2 -0.8585582045394139 -0.4435624232730013 -0.6660198150989107 0 0 0
24 5 3 -2.4472478134314537 -6.740665617030731 -2.1440499742471735 0 1 0
220 64 2 -4.737360312565776 -0.7047744296611856 -1.5437074817842895 0 0 0
221 64 4 -4.975902739000672 -0.8471583460739952 -1.1279860231878722 0 0 0
174 48 4 -5.191482587133001 -1.0443297269832448 -0.8486768419100171 0 0 0
172 48 2 -5.081720398423634 -0.8205276996520102 -0.41524297787512904 0 0 0
245 72 4 -2.151833037966419 -6.7335781536726405 -4.392862024253253 0 0 0
129 33 4 -2.194600725970917 -0.5828988433872355 -1.8591032581479077 0 0 0
38 8 3 -6.40023332808618 -6.719834727395513 -4.022274872379181 0 1 0
37 8 3 -5.994553758089941 -6.797664301212958 -3.3943683156955324 0 1 0
309 93 4 -2.5182597488503538 -1.3229874764710878 -6.778574506619298 0 0 1
101 24 4 -6.4250546194683 -0.7349614881973804 -6.759086675310232 0 0 0
589 187 2 -0.5543276097347056 -6.345607952617526 1.1127817042040804 0 1 0
591 187 4 -0.28335559421574585 -5.977457146432471 0.9102004841694441 0 1 0
278 83 4 -0.07647880738896673 -5.654294223998452 0.9911492018400347 0 0 0
303 91 4 -0.15890037055579612 -5.7203496698616 0.6252948548472583 0 0 0
590 187 4 -0.8252996252536654 -6.713758758802582 1.3153629242387166 0 1 0
301 91 2 -0.16367896297012316 -5.514005687272836 0.16988369347289456 0 0 0
393 121 4 -6.035052155117456 -4.150637589805582 0.8329124188756326 0 0 0
391 121 2 -6.277443403088132 -4.403406533083512 1.189779823132368 0 0 0
326 99 4 -6.138652211692485 -4.309668518424113 0.4630681972244421 0 0 0
157 43 2 -5.432102443476298 -3.770079423581631 0.46643110968086304 0 0 0
159 43 4 -5.771907841151522 -4.1311871098024335 0.5307236493997184 0 0 0
325 99 2 -6.315902872288059 -4.593182175470869 0.091312619476926 0 0 0
158 43 4 -5.0922970458010735 -3.408971737360828 0.4021385699620078 0 0 0
395 122 4 -4.86516607854502 -3.5466665054367237 0.09984180800526582 0 0 0
861 277 4 -4.733084499915356 -3.5497048689991018 0.4748651888751694 1 0 0
444 138 4 -2.1448709671301796 -5.028546565721576 2.02760732527256 0 0 0
433 135 2 -1.9531644682266274 -4.430704430598775 1.4641506622120863 0 0 0
434 135 4 -1.9818239192429035 -4.05931976118582 1.1306059677666123 0 0 0
288 86 4 -1.7814913656789368 -3.6933516063661953 1.1354800232207163 0 0 0
286 86 2 -1.6661742263771582 -3.5563307919656664 0.6686532311404251 0 0 0
287 86 4 -1.5508570870753797 -3.4193099775651374 0.20182643906013398 0 0 0
859 277 2 -4.60616660873263 -3.2056806506810167 0.8147757449157836 1 0 0
860 277 4 -4.479248717549903 -2.8616564323629317 1.154686300956398 1 0 0
404 125 4 -4.835524558348054 -2.883097280667557 1.3583672250323275 0 0 0
9 2 3 -5.171995793829662 -0.6822685179538046 1.0029524999353565 0 0 0
1037 336 4 -0.07333320866660673 -3.097446365965491 2.7246481270914114 0 0 0
7 2 3 -4.868332446907355 -0.4337569688094113 0.3619138258469093 0 0 0
6 2 1 -4.7735350089921535 -0.6062915546582492 0.7776604583653373 0 0 0
10 2 3 -4.545364199395888 -0.9974396283481237 0.729273826982068 0 0 0
691 221 2 -4.124094118002004 -0.5184005988072362 1.6809991501695265 0 0 0
692 221 4 -4.250648145338474 -0.21434028277300365 1.3047925548287764 0 0 0
8 2 3 -4.515095819042511 -0.30016228663920114 1.011741761249652 0 0 0
385 119 2 -3.8190537522377817 -0.10669909262972785 0.5861953510145195 0 0 0
386 119 4 -4.174497027461197 -0.06827236420336677 0.9357428651533621 0 0 0
387 119 4 -3.4636104770143663 -0.1451258210560896 0.23664783687567725 0 0 0
1373 448 4 -0.13639724748931942 -0.9900234169519999 1.084714725301061 0 0 0
351 107 4 -0.40945688887686454 -0.7827531220675759 0.8597098646943413 0 0 0
349 107 2 -0.669758511086568 -0.8105837505962398 0.4337186422605776 0 0 0
350 107 4 -0.9300601332962715 -0.8384143791249037 0.007727419826813908 0 0 0
1082 351 4 -6.447757631376829 -5.336789141062305 2.8392642880268246 1 0 0
1081 351 2 -6.249941746967572 -5.3940267312330255 3.2948877445645426 1 0 0
415 129 2 -6.66000897573164 -4.97124801993184 2.125049086020187 0 0 0
417 129 4 -6.5140165279560405 -5.327599171787933 2.4439535572388684 0 0 0
317 96 4 -6.756390697459748 -5.5411421353881956 2.6957395090817093 0 0 0
414 128 4 -3.4662410738693694 -6.686528115688633 2.20701935515328 0 0 0
268 80 2 -3.5141912537311324 -5.047890256173346 2.73750706627989 0 0 0
412 128 2 -3.329699471684565 -6.2067871702401884 2.241732697442233 0 0 0
442 138 2 -2.609394748391754 -5.182987314384567 2.129419464995021 0 0 0
413 128 4 -3.193157869499761 -5.727046224791744 2.2764460397311863 0 0 0
443 138 4 -3.0739185296533282 -5.337428063047559 2.231231604717482 0 0 0
270 80 4 -3.410429715355746 -5.44574760100576 2.453002099159475 0 0 0
753 241 4 -1.6741329944414538 -0.023872203880734133 2.448009662995294 0 0 0
392 121 4 -6.519834651058806 -4.656175476361442 1.546647227389103 0 0 0
269 80 4 -3.617952792106519 -4.650032911340933 3.022012033400305 0 0 0
427 133 2 -4.8466427029167125 -3.5298860999102506 2.9171967708574145 0 0 0
435 135 4 -1.9245050172103513 -4.80208910001173 1.7976953566575609 0 0 0
419 130 4 -3.422219844472876 -4.652145205657958 3.377659379553328 0 0 0
1036 336 2 -0.1121042498590847 -3.4251615331252894 2.3490158926141658 0 0 0
205 59 2 -3.0343079431647895 -0.9056261755636952 6.736301656514691 0 0 -1
1038 336 4 -0.15087529105156267 -3.7528767002850882 1.9733836581369202 0 0 0
206 59 4 -2.5352229774777637 -0.9067539203195039 6.766516308873265 0 0 -1
1134 368 4 -6.391189887137456 -2.3796676967467625 2.8012974963672703 1 0 0
411 127 4 -6.007924562996432 -2.451500168235078 2.898622728332146 0 0 0
409 127 2 -5.616194581455459 -2.742949446409429 2.7908965021216736 0 0 0
1132 368 2 -6.341066230626663 -2.0249518040007692 3.150101530878367 1 0 0
410 127 4 -5.224464599914486 -3.034398724583779 2.6831702759112015 0 0 0
429 133 4 -5.023465222258452 -3.338897147536188 2.4902810687281636 0 0 0
405 125 4 -5.178901900723943 -3.042892686849221 2.28387110341615 0 0 0
403 125 2 -5.007213229535999 -2.962994983758389 1.8211191642242386 0 0 0
361 111 2 -6.025230077232802 -0.993539478213331 3.0132852545778555 0 0 0
363 111 4 -5.863721558867408 -0.6997637143178297 2.642325958909625 0 0 0
254 75 4 -5.7486739992180595 -0.34760249425801226 2.7113330644811127 0 0 0
362 111 4 -6.186738595598196 -1.2873152421088323 3.384244550246086 0 0 0
366 112 4 -3.636840696836321 -0.8357257272609295 2.2321085372038505 0 0 0
693 221 4 -3.9975400906655336 -0.8224609148414685 2.0572057455102764 0 0 0
364 112 2 -3.311604087050727 -0.5431352861438323 2.4742076520766827 0 0 0
13 3 3 -1.8761016296808668 -0.0970009038978959 2.806085124190203 0 0 0
365 112 4 -2.986367477265133 -0.2505448450267348 2.716306766949514 0 0 0
14 3 3 -2.0741874165433223 -0.8003784167040695 2.597226091536764 0 0 0
324 98 4 -2.031238975427288 -0.8384273075292233 2.998790304474353 0 0 0
12 3 3 -2.598693459740413 -0.30378573745058646 2.805046017339953 0 0 0
11 3 1 -2.1960437230754857 -0.3527543035067586 2.588077657660963 0 0 0
15 3 3 -2.239872897264502 -0.212422501299044 2.157048669333294 0 0 0
354 108 4 -6.233675762156941 -5.602261695795013 4.050083338864696 0 0 0
352 108 2 -6.636184926199587 -5.786823904129258 4.282296956287175 0 0 0
1083 351 4 -6.0521258625583165 -5.451264321403745 3.75051120110226 1 0 0
724 232 2 -5.866894156656888 -6.312347512704214 3.7658106351475933 0 1 0
725 232 4 -5.932624553330883 -5.828170106409683 3.871884921319282 0 1 0
786 252 4 -5.859343419388442 -5.4957388333557535 4.096605599719342 0 1 0
784 252 2 -5.38192229204701 -5.455588587857552 4.239633656249277 0 1 0
726 232 4 -5.801163759982893 -6.796524918998745 3.6597363489759047 0 1 0
1136 369 4 -6.14637515182208 -5.224668260852851 4.089692430029217 1 0 0
276 82 4 -4.784051495917576 -5.719673381676036 4.6386740782585045 0 0 0
785 252 4 -4.904501164705578 -5.41543834235935 4.382661712779212 0 1 0
367 113 2 -2.0178155939506057 -5.201096822348298 4.00500589432899 0 0 0
368 113 4 -1.6666799788530056 -5.482714025865434 3.7873007485630183 0 0 0
305 92 4 -0.6272848321882478 -6.304555305425874 3.4253241483374985 0 0 0
304 92 2 -1.0090461818789092 -5.997818265092129 3.526173838318003 0 0 0
306 92 4 -1.3908075315695707 -5.691081224758384 3.6270235282985084 0 0 0
1064 345 4 -0.24216509052080792 -6.161419099207577 3.451441862711816 0 0 0
1047 339 4 -6.608315813975307 -4.118503791298272 4.299388447960889 1 0 0
1137 369 4 -6.258412341031525 -4.234733360824998 4.176159544815442 1 0 0
1135 369 2 -6.202393746426803 -4.729700810838924 4.132925987422329 1 0 0
426 132 4 -6.284415855837385 -4.025876349516989 4.525326202252392 0 0 0
424 132 2 -6.03958323363162 -3.911840222102062 4.946102566546339 0 0 0
319 97 2 -4.054733210391094 -4.275628862024376 3.439220599857923 0 0 0
428 133 4 -4.669820183574973 -3.720875052284313 3.3441124729866663 0 0 0
321 97 4 -4.3040636135530255 -3.8468827844542823 3.5025542483148713 0 0 0
320 97 4 -3.8054028072291617 -4.7043749395944685 3.375886951400975 0 0 0
369 113 4 -2.368951209048206 -4.919479618831161 4.2227110400949615 0 0 0
376 116 2 -2.9093186295516484 -4.616700537132746 4.803148698241558 0 0 0
418 130 2 -3.0383682736807254 -4.68046118054515 3.6968085251989744 0 0 0
377 116 4 -2.6034608523643343 -4.688862694229882 4.414248141264258 0 0 0
420 130 4 -2.654516702888575 -4.708777155432343 4.01595767084462 0 0 0
359 110 4 -2.361977020850511 -4.498389598998601 4.165290166587619 0 0 0
358 110 2 -2.0388170766862745 -4.119258384812656 4.208035609821013 0 0 0
360 110 4 -1.7156571325220376 -3.74012717062671 4.250781053054407 0 0 0
407 126 4 -0.24784172067713067 -4.3951146721431025 3.941401508733476 0 0 0
375 115 4 -1.4220484208164066 -3.801371684825174 3.9892940869076337 0 0 0
374 115 4 -0.5988384749867617 -4.324448311071741 3.7685765566519165 0 0 0
373 115 2 -1.010443447901584 -4.0629099979484575 3.878935321779775 0 0 0
16 4 1 -6.64332385241774 -1.915320862027056 4.201542503100295 0 0 0
18 4 3 -6.482555658723738 -2.3490960260922504 4.165588436066335 0 0 0
336 102 4 -3.632308695463343 -2.8051564554474235 5.255079696596209 0 0 0
346 106 2 -6.719782500087216 -0.9276308109546679 4.875614074401459 0 0 0
19 4 3 -6.497990589069125 -1.7249543287674456 4.598957683458143 0 0 0
1133 368 4 -6.2909425741158715 -1.6702359112547764 3.498905565389464 1 0 0
17 4 3 -6.481362760934191 -1.667068709080532 3.8497762832857996 0 0 0
383 118 4 -6.159683125448635 -1.4020029470758888 3.799130487138946 0 0 0
384 118 4 -5.546876728739882 -0.8980623208275713 4.407827591919243 0 0 0
382 118 2 -5.853279927094259 -1.1500326339517302 4.103479039529095 0 0 0
1041 337 4 -6.501156716728957 -1.3180748508666527 3.6442940268459276 1 0 0
663 211 4 -6.57704615407722 -0.12327476816150132 5.072525007193393 0 0 0
1011 327 4 -6.642769876296272 -1.682596205077142 4.9775605340837465 1 0 0
347 106 4 -6.785812413962048 -0.46068577531814436 5.041753727008327 0 0 0
348 106 4 -6.653752586212383 -1.3945758465911915 4.7094744217945905 0 0 0
322 98 2 -1.767596236845144 -0.8813177629746357 3.4214638371492043 0 0 0
372 114 4 -0.1210224371000167 -0.13925839058479542 3.4643294300368654 0 0 0
323 98 4 -1.5039534982629996 -0.9242082184200482 3.844137369824055 0 0 0
261 77 4 -1.1699272252034847 -0.7734119088727117 3.990390003093017 0 0 0
259 77 2 -0.7248218399977766 -0.5828759855312443 3.8655811172833063 0 0 0
260 77 4 -0.2797164547920686 -0.39234006218977646 3.7407722314735956 0 0 0
262 78 2 -3.9183903942402165 -0.22955762317125747 6.79172131601318 0 0 0
274 82 2 -4.716508721159672 -5.901962738020006 5.09933508609551 0 0 0
338 103 4 -4.908387601170186 -5.484905294154266 6.67901094298558 0 0 0
275 82 4 -4.648965946401767 -6.084252094363977 5.559996093932517 0 0 0
423 131 4 -4.1724395225159885 -1.0246657240959771 6.649755242984704 0 0 0
671 214 4 -4.592841638979202 -6.46619551803637 5.7704485460680655 0 1 0
339 103 4 -4.555739792470269 -6.104199777438518 5.977502663639503 0 0 0
337 103 2 -4.732063696820227 -5.7945525357963925 6.3282568033125415 0 0 0
251 74 4 -4.845468241870019 -5.109082173529335 6.756681678137146 0 0 0
425 132 4 -5.794750611425856 -3.7978040946871356 5.366878930840286 0 0 0
250 74 2 -4.757845151714702 -4.7044884875641975 6.476278141517363 0 0 0
252 74 4 -4.670222061559384 -4.299894801599059 6.195874604897581 0 0 0
284 85 4 -4.372189431663384 -4.263299068990158 5.949376304918374 0 0 0
283 85 2 -3.9800952462710115 -4.388294925784067 5.66540767009035 0 0 0
285 85 4 -3.5880010608786392 -4.513290782577976 5.381439035262326 0 0 0
378 116 4 -3.2151764067389625 -4.54453838003561 5.192049255218858 0 0 0
81 17 4 -6.0261135701155295 -3.465742036662675 5.453390946302932 0 0 -1
217 63 2 -6.55242663960433 -2.411862112028471 6.391657466583309 0 0 -1
219 63 4 -6.163176631585429 -2.392117266671663 6.078456936030065 0 0 -1
80 17 4 -6.005401290306868 -2.509283373035289 5.744522920222536 0 0 -1
79 17 2 -6.015757430211199 -2.987512704848982 5.598956933262734 0 0 -1
294 88 4 -5.8820742452355725 -2.1586995150640385 5.9255943397523705 0 0 0
1010 327 4 -6.235299893998701 -2.1779333737867463 5.744769308029121 1 0 0
1009 327 2 -6.439034885147487 -1.9302647894319442 5.361164921056434 1 0 0
292 88 2 -5.62742603031059 -1.802902996194814 6.16759252940745 0 0 0
334 102 2 -3.6056324662653982 -2.3251625956171758 5.39253613813623 0 0 0
299 90 4 -3.7014201690334176 -1.8780356973017762 5.898009151715197 0 0 0
335 102 4 -3.5789562370674535 -1.845168735786928 5.529992579676251 0 0 0
100 24 2 -5.98084959501282 -0.9383521785973147 6.730603456857095 0 0 -1
293 88 4 -5.372777815385608 -1.4471064773255893 6.40959071906253 0 0 0
102 24 4 -5.536644570557341 -1.141742868997249 6.624235589024423 0 0 -1
298 90 2 -3.756396830345797 -1.4829498877165221 6.199480161557594 0 0 0
207 59 4 -3.5333929088518152 -0.9044984308078863 6.7060870041561165 0 0 -1
422 131 4 -5.160189479090001 -1.126801821368881 6.531779648390523 0 0 0
263 78 4 -3.9086189214542078 -0.7147106059992028 6.67117629715198 0 0 0
421 131 2 -4.666314500802995 -1.0757337727324285 6.5907674456876135 0 0 0
300 90 4 -3.8113734916581765 -1.087864078131268 6.500951171399991 0 0 0
173 48 4 -4.971958209714268 -0.5967256723207757 0.018190886159759057 0 0 0
96 22 4 -5.1118821683788696 -0.22595231331195997 0.1765280640277218 0 0 0
601 191 2 -4.0582133891393175 0.47416742578141385 -5.892491338160495 0 0 0
602 191 4 -4.047939429470463 0.4613721846137113 -5.392760683151327 0 0 0
603 191 4 -4.068487348808172 0.4869626669491164 -6.392221993169663 0 0 0
648 206 4 -4.2255618036346 0.5426234733385646 -6.740731264335392 0 0 1
476 149 4 -3.8350985501279475 0.3291961274222327 -5.08249856240255 0 0 0
1185 385 4 -6.0348933522416335 3.20331147646299 -5.85736447415552 1 0 0
1183 385 2 -6.346510569469527 2.925167437683192 -5.582536157531194 1 0 0
1184 385 4 -6.6581277866974204 2.647023398903394 -5.307707840906867 1 0 0
637 203 2 -5.358729938385356 2.946219756044173 -6.378241147509749 0 0 1
639 203 4 -5.7142136677847635 3.191860992726826 -6.12666272837766 0 0 1
1263 411 4 -6.7912860358024405 2.2699502185155835 -5.272584047148979 1 0 0
584 185 4 -4.058027437615746 3.0280188366389313 -5.857612685392675 0 0 0
28 6 3 -4.337182996501549 2.734461532291117 -5.9396687282574145 0 0 0
583 185 2 -4.241499844655586 3.182896232131478 -5.419034450386993 0 0 0
462 144 4 -3.8431169814297963 2.896817971637628 -6.202808839479668 0 0 0
26 6 1 -4.276274217614696 2.5265805424437273 -6.350004706102644 0 0 0
29 6 3 -3.894063431612505 2.6907674028211543 -6.555571215881376 0 0 0
460 144 2 -3.415979699871126 3.1566822223734103 -6.197877927591657 0 0 0
27 6 3 -4.225830633407404 2.0744945981301215 -6.281639921556628 0 0 0
30 6 3 -4.638873209353015 2.598525890105211 -6.615985604175899 0 0 0
638 203 4 -5.003246208985949 2.70057851936152 -6.629819566641839 0 0 1
791 254 4 -4.899936130219309 2.343286450209927 -6.748405644920187 0 0 1
772 248 2 -2.3538100949511636 3.224926791982144 -6.705795654054454 0 0 1
509 160 4 -0.44468239523265735 0.2427220072842272 -0.9681672243648303 0 0 0
461 144 4 -2.9888424183124562 3.4165464731091926 -6.192947015703646 0 0 0
774 248 4 -2.6724142212612967 3.506560737137678 -6.442786658706255 0 0 1
600 190 4 -2.964316126865538 3.7860024376454255 -6.3113957829401475 0 0 0
598 190 2 -3.0888408549098365 4.215085286647629 -6.535854021367683 0 0 0
599 190 4 -3.2133655829541348 4.644168135649833 -6.760312259795219 0 0 0
520 164 2 -5.40361622869037 5.773000501805313 -5.4342743496411865 0 0 0