LAMMPS data file via write_data, version 29 Aug 2024, timestep = 2000002, units = lj

306 atoms
4 atom types
206 bonds
1 bond types

-4.054254 4.054254 xlo xhi
-4.054254 4.054254 ylo yhi
-4.054254 4.054254 zlo zhi

Masses

1 1
2 1
3 0.5
4 0.5

Bond Coeffs # zero

1 0

Atoms # bond

79 25 2 -2.8736555496717306 -2.752441321059359 -2.606893860682453 0 0 1
80 25 4 -3.355714802333169 -2.7749145859688067 -2.737713695904463 0 0 1
132 42 4 -3.6389444606908254 -2.5263140113232767 -2.8382731727001635 1 0 0
130 42 2 -3.6994898439643222 -2.2492035778297295 -3.2500304606908297 1 0 0
131 42 4 -3.760035227237819 -1.9720931443361822 -3.661787748681496 1 0 0
192 62 4 -3.8632607882278167 -2.6677140346290256 -2.551824829167457 1 1 0
81 25 4 -2.3915962970102913 -2.729968056149911 -2.4760740254604436 0 0 1
200 65 4 -2.3420225805521193 -2.705702752003764 -2.1092583494758226 0 0 0
199 65 2 -1.8872349468343437 -2.766377169863096 -1.9105454328481846 0 0 0
21 5 4 -1.6180444261222926 -3.0603512649866054 -3.8040988166637577 0 1 1
201 65 4 -1.432447313116568 -2.827051587722427 -1.7118325162205463 0 0 0
236 77 4 -2.6775698731040225 -0.20299859571686463 -3.9650654089871753 1 1 0
92 29 4 -0.18468736451975057 -2.6799978379807676 -3.3128784327761043 -1 2 0
149 48 4 -3.665115329357233 -0.1149027596750955 -3.163048381746267 1 0 0
50 15 4 -1.2463190861685347 -0.6580098513331998 -3.0083074560846277 -1 -1 -1
49 15 2 -0.7484774608687265 -0.7035149121109027 -2.9991967172167104 -1 -1 -1
51 15 4 -0.2506358355689182 -0.7490199728886058 -2.990085978348793 -1 -1 -1
118 38 2 -0.6459476255026277 -0.10125303161585975 -3.9950574073657172 0 0 0
75 23 4 -3.1225304623995336 -3.353175627818274 -1.761784711715148 0 0 0
73 23 2 -3.6113146194294496 -3.3691455399919907 -1.865876064582146 0 0 0
159 51 4 -0.7540399946259015 -1.0840002325374412 -1.1211362725943503 0 2 0
167 54 4 -2.621976008873932 -3.452907149779271 -0.7211823587072191 0 1 0
166 54 2 -2.46692695485141 -3.588228786795635 -1.176866290179582 0 1 0
293 96 4 -2.3862026926062145 -2.6681204344225593 -0.39568053171642614 1 -1 0
292 96 2 -2.6938569016372926 -2.3551443717633025 -0.6352528002863116 1 -1 0
294 96 4 -3.0015111106683707 -2.042168309104046 -0.8748250688561972 1 -1 0
168 54 4 -2.311877900828888 -3.7235504238119987 -1.632550221651945 0 1 0
47 14 4 -1.0769033047855316 -0.8747382851895623 -1.2467441750852026 1 0 0
289 95 2 -3.8755708233917745 -0.8191013689161392 -0.095620850623862 1 0 1
273 89 4 -3.9948152827279473 -0.16146883198105141 -0.6891809503334606 2 0 0
291 95 4 -3.886572853488267 -0.42089621749258954 -0.3977989648435049 1 0 1
46 14 2 -1.5089683317230906 -1.1025602621919965 -1.139894002918666 1 0 0
157 51 2 -0.2777514136893691 -1.0514324288241732 -1.2697583632491456 0 2 0
48 14 4 -1.9410333586606496 -1.3303822391944307 -1.0330438307521292 1 0 0
95 30 4 -2.6761455210729053 -2.3649504448784464 0.9603686801097377 0 1 0
94 30 2 -2.588098309318691 -2.4761352875520632 0.48090479277118925 0 1 0
31 9 2 -3.6883775343150322 -2.3712794945445745 2.1160043340404595 -1 0 0
185 60 4 -0.4474189486393821 -3.551159036968519 0.9284338287745763 0 0 0
184 60 2 -0.5253830486757104 -3.9973942727848075 0.7167838502220798 0 0 0
14 3 3 -0.13859462610019635 -3.2904983464532047 0.9060272547874073 1 1 1
290 95 4 -3.8645687932952826 -1.2173065203396887 0.20655726359578075 1 0 1
33 9 4 -3.2559780885358443 -2.1277913781150963 2.1771946637293964 -1 0 0
4 1 3 -1.1881885655432223 -0.5584040967050139 0.6774586860001078 0 0 1
169 55 2 -0.9499460972139043 -1.314040307034761 1.7671061435551698 1 0 0
170 55 4 -0.8601963798464867 -1.2461500949254898 1.2799348109293964 1 0 0
3 1 3 -0.8261039330469622 -0.855441478040905 1.276009864262181 0 0 1
2 1 3 -0.4370140738235781 -0.5678164678823012 0.7008742846111329 0 0 1
1 1 1 -0.8170452683981075 -0.8003354542890617 0.8153784858901165 0 0 1
5 1 3 -0.8116210337102915 -1.2069325559754671 0.6103190443172465 0 0 1
128 41 4 -0.3074215745004871 -0.4176970569053599 0.35408682493158544 0 1 1
203 66 4 -3.111371703753252 -2.9594060535118305 2.8115446342172703 2 0 0
202 66 2 -2.9455506403060467 -3.30163073257816 2.486913083139884 2 0 0
204 66 4 -2.7797295768588413 -3.6438554116444895 2.1622815320624973 2 0 0
120 38 4 -0.8922644067320384 -0.26282710751893945 3.717303540409106 0 0 -1
76 24 2 -0.33494172972644176 -2.701911880479995 2.853147739741674 -1 1 0
77 24 4 -0.7988137816345404 -2.6815322025683557 3.0386400257985717 -1 1 0
288 94 4 -1.6261508882598266 -2.6197166939001946 2.306980105222299 0 1 1
114 36 4 -1.6354669427218327 -3.0248602008733023 2.2429278576753955 0 1 -1
286 94 2 -1.4181621944299379 -2.1667559126852023 2.3465684105624938 0 1 1
113 36 4 -1.4369304061045711 -3.4660261256581615 3.118116906073479 0 1 -1
112 36 2 -1.536198674413202 -3.245443163265732 2.6805223818744373 0 1 -1
20 5 4 -1.648976521528243 -3.5759348308156693 3.448128392871503 0 1 0
19 5 2 -1.633510473825268 -3.3181430479011373 3.876268788103873 0 1 0
138 44 4 -2.928260887961327 -2.231645260727695 2.3734190641156077 0 1 -1
136 44 2 -2.634697674121115 -2.1007864352132266 2.756428995142125 0 1 -1
137 44 4 -2.3411344602809026 -1.9699276096987586 3.139438926168643 0 1 -1
305 100 4 -2.3575911714435365 -1.5704620198612327 3.0853286526715147 0 1 -1
239 78 4 -0.4321643658654169 -1.6453566169367393 3.687204455167189 0 0 -1
241 79 2 -0.9943302237398697 -0.1661272632809243 3.0928800786016097 0 1 0
304 100 2 -2.044787843927181 -1.5047230612576081 3.4698185324038504 0 1 -1
240 78 4 -1.4029139430046904 -1.6627429018590487 3.926668388944562 0 0 -1
243 79 4 -1.1347065261977838 -0.41982207750901024 2.6855307997977187 0 1 0
171 55 4 -1.039695814581322 -1.3819305191440323 2.254277476180943 1 0 0
45 13 4 -0.07099149042279601 -1.7032177107949882 3.535425746010825 0 0 -1
287 94 4 -1.2101735006000491 -1.7137951314702102 2.386156715902689 0 1 1
306 100 4 -1.7319845164108252 -1.4389841026539838 3.8543084121361866 0 1 -1
238 78 2 -0.9175391544350537 -1.6540497593978942 3.806936422055876 0 0 -1
127 41 2 -0.4418105362020686 -0.04477132864863315 0.04934757872739696 0 1 1
96 30 4 -2.500051097564477 -2.58732013022568 0.0014409054326405824 0 1 0
237 77 4 -1.895979622217383 0.40475065443578234 -3.824503932554606 1 1 0
174 56 4 -1.674541464529284 0.5960432452666848 -3.5724197990838182 0 0 0
119 38 4 -0.3960551247536668 0.12084565959468244 -3.6123774208632473 0 0 0
172 56 2 -1.3251604962074586 0.8790256701661608 -3.3536644878970248 0 0 0
215 70 4 -0.9699072174056412 1.5038408838762862 -3.317688174300527 1 0 1
173 56 4 -0.9757795278856332 1.1620080950656368 -3.1349091767102313 0 0 0
122 39 4 -0.03213629670701945 0.14782630924729248 -3.78215686015624 -2 0 -1
142 46 2 -1.606499837640093 2.0827089731919153 -1.934759890033476 -1 -1 0
144 46 4 -1.3191297644342292 1.6810018152454744 -1.820701770998424 -1 -1 0
64 20 2 -3.7084293580152927 2.710680258265176 -2.2769423881723214 1 -1 0
229 75 2 -2.5460442589694687 2.5971524168892497 -2.1965623589209518 0 0 0
66 20 4 -3.2446345717098364 2.8391801782228137 -2.141361538615676 1 -1 0
230 75 4 -2.8872999426199657 2.9612751534843937 -2.2275331688969677 0 0 0
219 71 4 -0.7884022439661267 2.521759017085395 -0.07187867529887737 -1 0 1
235 77 2 -2.2867747476607025 0.10087602935945877 -3.8947846707708904 1 1 0
214 70 2 -1.1946565742460027 1.943566596041142 -3.3959762619071534 1 0 1
216 70 4 -1.4194059310863643 2.383292308205998 -3.4742643495137804 1 0 1
143 46 4 -1.8711271104042262 2.46545866533825 -2.1034143111950048 -1 -1 0
228 74 4 -3.623585030521006 1.6546575378519277 -1.0456578716920253 1 0 1
226 74 2 -3.88421518382873 1.2426650406096287 -1.1567168893478834 1 0 1
23 6 4 -1.2692441519314512 1.3197642955957478 -1.9566374017561436 -2 -1 1
24 6 4 -1.4064482246935468 0.7567750483125797 -1.1416416043063953 -2 -1 1
22 6 2 -1.337846188312499 1.0382696719541638 -1.5491395030312696 -2 -1 1
274 90 2 -1.5921850136926776 0.958105790055295 -0.30126429424263446 1 0 0
276 90 4 -1.5825505643490612 0.8038412577769011 -0.7767741589844775 1 0 0
129 41 4 -0.5761994979036499 0.3281543996080938 -0.25539166747679193 0 1 1
86 27 4 -0.026122995515451553 2.2654533931142833 -1.130755109556865 0 -1 1
231 75 4 -2.2047885753189718 2.2330296802941056 -2.165591548944936 0 0 0
207 67 4 -2.1124340758651665 2.9319416233038664 -0.7219257775074686 0 0 -1
205 67 2 -2.5035016945120496 2.968709330998608 -0.4125485751855957 0 0 -1
106 34 2 -1.710531404067596 3.1414857362837685 -1.3795266423342862 0 0 0
218 71 4 -0.31144201024708495 2.1385315937358755 -0.8628563471969051 -1 0 1
107 34 4 -1.5269777321957827 3.1057436081086496 -1.843240508652651 0 0 0
108 34 4 -1.8940850759394094 3.1772278644588874 -0.9158127760159214 0 0 0
217 71 2 -0.5499221271066058 2.3301453054106354 -0.4673675112478912 -1 0 1
148 48 2 -3.972304026620651 0.13215953166161537 -3.47011428221742 1 0 0
206 67 4 -2.8945693131589323 3.00547703869335 -0.10317137286372291 0 0 -1
115 37 2 -3.4007186584037603 0.3393523261227024 0.8576884647024196 -1 2 0
116 37 4 -2.9159485854208556 0.24408729335337867 0.93464656935389 -1 2 0
175 57 2 -3.8337614167715737 1.7057274361393304 1.0569812246693724 0 1 -1
117 37 4 -3.8854887313866655 0.434617358892026 0.780730360050949 -1 2 0
176 57 4 -3.339990798451198 1.6331506730326477 1.0265971837799752 0 1 -1
126 40 4 -1.4504734004490807 1.7426188889293506 1.1650827886373096 1 0 -1
141 45 4 -0.24171312468343786 0.2880070700403364 1.6898376173567424 0 -1 0
56 17 4 -0.6039977837266013 0.42725014286176644 1.547775202511502 0 -1 -1
55 17 2 -0.9596152404458537 0.36927330388725405 1.2011126711948057 0 -1 -1
124 40 2 -1.5306333618131875 1.3546414248379761 0.8600453024966452 1 0 -1
125 40 4 -1.6107933231772948 0.9666639607466011 0.5550078163559811 1 0 -1
57 17 4 -1.315232697165106 0.31129646491274154 0.8544501398781095 0 -1 -1
67 21 2 -0.16531559145940342 3.416442943699419 1.7919454920561475 -1 -2 0
254 83 4 -3.7470760966977923 2.714716825371661 1.5222249482752308 1 0 0
242 79 4 -0.8539539212819556 0.08756755094716143 3.5002293574055003 0 1 0
198 64 4 -2.6703463657740363 3.17239079518769 0.179229409854487 1 0 -2
196 64 2 -2.797119406164486 3.054568667730708 0.6483205976970804 1 0 -2
197 64 4 -2.9238924465549356 2.936746540273726 1.1174117855396737 1 0 -2
221 72 4 -2.8503543812628394 2.8871900563841795 1.5024114142937104 0 0 1
252 82 4 -3.7308568514335003 2.658452288071515 1.9176679339308538 1 1 -2
259 85 2 -3.6766163882684717 2.656627569361576 3.9084131009497525 1 -1 -1
220 72 2 -2.6043541484351196 2.795760527563806 1.927998687021998 0 0 1
269 88 4 -0.6293768092608015 2.4310093812604596 0.2994657474077853 1 0 1
186 60 4 -0.6033471487120388 3.6648784913989045 0.5051338716695835 0 -1 0
270 88 4 -0.8310335477399863 3.375771058616333 0.5578451831730897 1 0 1
268 88 2 -0.7236072208681111 2.895937531258428 0.4522232454002386 1 0 1
68 21 4 -0.6292071475576275 3.3277001060295204 1.6278438986961348 -1 -2 0
102 32 4 -1.4569947407812427 0.43418901396894344 2.520856200791936 0 -1 0
101 32 4 -1.8970781553641543 1.2940332041832094 2.262023133424468 0 -1 0
100 32 2 -1.6770364480726985 0.8641111090760765 2.391439667108202 0 -1 0
222 72 4 -2.3583539156074 2.704330998743433 2.3535859597502857 0 0 1
251 82 4 -3.8605850699702136 2.075236821658318 2.719559640492394 1 1 -2
250 82 2 -3.795720960701857 2.3668445548649166 2.318613787211624 1 1 -2
260 85 4 -3.2620370022768683 2.930837430717334 3.854256987296311 1 -1 -1
275 90 4 -1.6018194630362943 1.1123703223336887 0.1742455704992089 1 0 0
109 35 2 0.3702268468212232 -3.6932142170441575 -2.1309482601565044 0 1 0
35 10 4 2.4218685749059046 -1.4568934242322555 -0.2605518435599155 -2 0 0
91 29 2 0.1375930894761567 -2.911239205019686 -3.008472882330447 -1 2 0
93 29 4 0.459873543472064 -3.142480572058604 -2.7040673318847905 -1 2 0
248 81 4 1.6128524480514694 -3.7931628794747714 -3.690592355177349 1 0 0
233 76 4 1.6512864885528056 -3.1457041948207682 -2.230170400687197 0 1 1
232 76 2 1.642416075407386 -2.772398699541964 -2.562682540262792 0 1 1
234 76 4 1.6335456622619664 -2.399093204263159 -2.8951946798383874 0 1 1
164 53 4 1.5789218577069168 -3.4348444545695433 -2.5074460757835837 0 0 1
163 53 2 1.4988826111183216 -3.921948386060352 -2.4279257706288218 0 0 1
110 35 4 0.43459073578426605 -3.2416346215538976 -2.3354473887021863 0 1 0
295 97 2 2.6944061196179336 -2.894712484935606 -3.1576742030965543 0 0 1
296 97 4 3.0166697303127266 -2.634256016297158 -2.8778374771891233 0 0 1
297 97 4 2.3721425089231407 -3.155168953574054 -3.4375109290039854 0 0 1
191 62 4 3.2501224286242687 -2.757209726214667 -2.5932637861232033 0 1 0
190 62 2 3.7476848201982262 -2.7124618804218463 -2.5725443076453303 0 1 0
256 84 2 2.6819029346523084 -3.807152833690168 -3.702982588671808 1 2 0
257 84 4 2.298577405571942 -3.4946140594971578 -3.629626925079748 1 2 0
181 59 2 1.5516590665650056 -0.6259292073485969 -3.5898881371843774 -1 -2 0
183 59 4 1.178145792537773 -0.46891845176220986 -3.8828650249343166 -1 -2 0
182 59 4 1.9251723405922383 -0.782939962934984 -3.296911249434438 -1 -2 0
123 39 4 0.9241061258336044 -0.1442135110990308 -3.79985354529105 -2 0 -1
74 23 4 4.008409223540634 -3.3851154521657074 -1.9699674174491437 -1 0 0
265 87 2 2.7776081543020448 -0.02482367864785856 -0.22745961047701324 -1 0 1
53 16 4 1.5802719219700652 -3.2432853732601226 -0.2452085830689425 -1 1 1
52 16 2 1.7091067719057742 -2.8240676142734333 -0.4853294942623609 -1 1 1
54 16 4 1.8379416218414832 -2.404849855286744 -0.7254504054557793 -1 1 1
36 10 4 1.8760433876709737 -2.03967977324679 -0.8625775376815086 -2 0 0
34 10 2 2.148955981288439 -1.7482865987395229 -0.561564690620712 -2 0 0
70 22 2 3.5090535227445177 -3.982955766177988 -1.5902051543187103 -1 1 0
72 22 4 3.886811661828186 -3.749052779171094 -1.8195262851055045 -1 1 0
158 51 4 0.19853716724716353 -1.018864625110905 -1.4183804539039406 0 2 0
278 91 4 1.3156852088432105 -0.7449636975365213 -1.6735634674066422 0 1 0
277 91 2 0.9037640221139137 -0.8692137813709253 -1.418842340307788 0 1 0
279 91 4 0.4918428353846173 -0.9934638652053294 -1.1641212132089342 0 1 0
89 28 4 3.4386316190643647 -4.016000722682937 -3.923594039235466 -2 0 1
11 3 1 0.3016901948382052 -3.195182012144276 1.017221107429365 1 1 1
13 3 3 0.33278550863713574 -3.0949786840607785 1.4692082471810952 1 1 1
15 3 3 0.5675409303150631 -3.5514951495823066 0.918406460055171 1 1 1
12 3 3 0.4408158135647256 -2.830304413945057 0.77409891480487 1 1 1
42 12 4 0.8770571297923762 -3.651791869594177 0.6892177251946956 0 -1 0
40 12 2 1.2710946808965908 -3.5178774100483463 0.4120872038798003 0 -1 0
303 99 4 3.3349664391130016 -3.487152703691949 1.685371816984446 -1 1 0
301 99 2 3.687461878178728 -3.132597537229946 1.6915036497402152 -1 1 0
302 99 4 4.039957317244454 -2.7780423707679436 1.6976354824959843 -1 1 0
32 9 4 3.9877310199057807 -2.6147676109740523 2.0548140043515217 -2 0 0
59 18 4 2.2716883123717246 -1.8978684891248698 1.029855721652293 -2 1 0
194 63 4 1.0541703264513478 -0.2269431378371435 0.8572701528720493 0 -1 0
193 63 2 0.5964007441755808 -0.30325556977111817 0.6711964516795499 0 -1 0
195 63 4 0.13863116189981362 -0.37956800170509286 0.48512275048705045 0 -1 0
135 43 4 1.4569889564821599 -1.5008734861067818 1.7823974538753653 0 1 0
133 43 2 1.8856121671653852 -1.528728065752722 1.5264555353544307 0 1 0
156 50 4 1.4177162600812199 -0.29621317507147227 0.6858853863187764 0 1 0
154 50 2 1.896117589348716 -0.24458728330557408 0.5499922832763025 0 1 0
18 4 4 1.1085308489527375 -1.6668930282152237 1.7769199749866418 0 1 -1
134 43 4 2.3142353778486107 -1.5565826453986622 1.270513616833496 0 1 0
60 18 4 2.3665222555342877 -1.6785317871428114 0.05882640469624356 -2 1 0
58 18 2 2.319105283953006 -1.7882001381338406 0.5443410631742682 -2 1 0
213 69 4 0.9562621523982242 -3.3252632819861168 3.617690793323277 1 0 0
212 69 4 0.31583280326903584 -2.9477238646206527 2.948875245425696 1 0 0
211 69 2 0.6287124874542551 -3.1603603702932963 3.2777071974298444 1 0 0
78 24 4 0.128930322181657 -2.7222915583916345 2.6676554536847767 -1 1 0
247 81 2 1.4680449460703429 -3.61342184803678 3.9743799089593734 1 0 -1
249 81 4 1.3232374440892165 -3.433680816598789 3.530844173096095 1 0 -1
153 49 4 3.865422035060095 -3.5582260733208324 2.822177511184997 -1 2 0
151 49 2 3.6714562541431373 -3.8843972875321473 2.4961360040048777 -1 2 0
99 31 4 3.1015108071504702 -4.033676193175919 2.152840499972795 -1 1 -1
90 28 4 3.989921385636622 -4.025730052632623 3.3506568460737496 -2 0 0
44 13 4 0.8414920315517378 -1.5341980472460768 3.162858737998232 0 0 -1
189 61 4 0.7931769691180016 -0.0001575833392340742 3.769998415685268 -1 0 -1
16 4 2 0.9893529883194898 -1.6273816980185691 2.260898788903679 0 1 -1
43 13 2 0.38525027056447103 -1.6187078790205327 3.3491422420045285 0 0 -1
17 4 4 0.8701751276862422 -1.5878703678219146 2.7448776028207162 0 1 -1
155 50 4 2.3745189186162126 -0.19296139153967606 0.41409918023382875 0 1 0
88 28 2 3.7142765023504936 -4.020865387657779 3.767785403419142 -2 0 0
41 12 4 1.6651322320008053 -3.3839629505025157 0.1349566825649049 0 -1 0
267 87 4 2.3683686299763815 -0.16399876335120966 0.023843607821842527 -1 0 1
245 80 4 1.8042727485057046 0.5927789586095702 -3.866443936961577 0 -1 0
246 80 4 1.2665791642519673 1.4205821931352978 -4.026529583918295 0 -1 0
244 80 2 1.535425956378836 1.006680575872434 -3.946486760439936 0 -1 0
37 11 2 2.5786503033536072 0.6081575881126152 -3.949164256651973 1 -1 -1
147 47 4 3.688975819224136 1.7493297978292681 -3.2007108233676194 -1 0 0
62 19 4 3.3435637444625166 1.58844567896628 -3.3198985408819928 -2 0 0
111 35 4 0.30639138086480716 3.96376712920968 -1.9256132417738632 0 0 0
61 19 2 3.551311612219419 1.179337024696857 -3.518571469194817 -2 0 0
300 98 4 2.3770704866003265 1.8931311388485188 -2.3005642760349962 0 0 1
63 19 4 3.7590594799763215 0.7702283704274344 -3.7172443975076415 -2 0 0
150 48 4 3.8296632058608613 0.38189285678901974 -3.776668997045442 0 0 0
160 52 2 3.35580928490172 2.577524301013656 -0.37980554206595873 -1 0 1
298 98 2 2.1191409761331204 2.182280174261504 -2.616578837329131 0 0 1
299 98 4 1.8612114656659138 2.471429209674489 -2.932593398623266 0 0 1
8 2 3 1.2110151789518715 3.6410573503569514 -2.001635987661652 -1 0 1
165 53 4 1.418843364529726 3.6994556824488396 -2.34840546547406 0 -1 1
145 47 2 3.629078088987659 2.0970587919681933 -2.846455536113307 -1 0 0
146 47 4 3.5691803587511814 2.444787786107119 -2.4922002488589943 -1 0 0
258 84 4 3.0652284637326743 3.9888163921168216 -3.7763382522638684 1 1 0
65 20 4 3.9362838556792514 2.582180338307538 -2.412523237728967 0 -1 0
271 89 2 3.8973267524912196 0.20014996929065243 -0.9582861562497129 1 0 0
266 87 4 3.1868476786277076 0.11435140605549265 -0.4787628287758689 -1 0 1
209 68 4 2.170500245184397 2.4348021653903187 -1.2032344018329275 0 -1 1
272 89 4 3.680960787710385 0.5617687705623564 -1.2273913621659653 1 0 0
227 74 4 3.963662662863546 0.8306725433673297 -1.2677759070037415 0 0 1
71 22 4 3.1312953836608495 3.8916492468151183 -1.3608840235319162 -1 0 0
7 2 3 0.7993250847475477 3.0830869549139592 -1.7116699480243627 -1 0 1
87 27 4 0.6988252044809355 2.7044937555431083 -1.6615033243253068 0 -1 1
162 52 4 3.0641484622939243 2.866172343209656 -0.6654911599959021 -1 0 1
85 27 2 0.3363511044827421 2.484973574328696 -1.396129216941086 0 -1 1
283 93 2 1.324409340573556 3.2789813240228343 -0.6374269807816351 0 0 1
284 93 4 1.4392336967417692 3.306270562910767 -1.1234386925721769 0 0 1
6 2 1 0.9325602920465168 3.519176455968525 -1.6510537240750685 -1 0 1
10 2 3 1.1559858790588213 3.554194068584328 -1.2557629780731046 -1 0 1
285 93 4 1.2093712877049811 3.250870123203733 -0.15179366264019595 0 0 1
9 2 3 0.5568330422089522 3.7913799291847594 -1.6451968564474608 -1 0 1
210 68 4 2.9581140127892467 2.5724324779803576 -1.8038361418697455 0 -1 1
161 52 4 3.647470107509514 2.288876258817657 -0.0941199241360155 -1 0 1
208 68 2 2.5643071289868216 2.5036173216853377 -1.5035352718513362 0 -1 1
121 39 2 0.4459849145632925 0.0018063990741308432 -3.7910052027236447 -2 0 -1
27 7 4 0.9031258352855914 3.053897969157303 -0.006960631324557265 0 0 0
263 86 4 1.1132594089028005 1.794821871151872 -3.9375115926006714 1 0 0
38 11 4 2.147162172302186 0.41457107829769346 -3.7868612807728503 1 -1 -1
140 45 4 0.35437190026476095 1.0788092528508317 1.8288144164848603 0 -1 0
139 45 2 0.05632938779066184 0.683408161445584 1.7593260169208016 0 -1 0
261 85 4 4.017312225739925 2.3824177080058173 3.962569214603194 0 -1 -1
177 57 4 3.780975964908051 1.7783041992460131 1.0873652655587696 -1 1 -1
29 8 4 0.2134189253264398 2.3600358601353246 0.9240686677210783 0 0 0
26 7 4 0.5133791948972046 2.5383418548075585 0.7561248483316241 0 0 0
28 8 2 0.26617298379571347 2.2387453676867484 1.406257039373406 0 0 0
25 7 2 0.708252515091398 2.7961199119824305 0.3745821085035335 0 0 0
84 26 4 2.977522015098873 0.08528419171775728 2.333545603756768 -1 1 0
253 83 2 4.0523723169437424 2.8155011366038627 1.1425904091104475 0 0 0
69 21 4 0.29857596463882075 3.5051857813693172 1.9560470854161602 -1 -2 0
255 83 4 3.743718123404257 2.916570373149078 0.7621691402093238 0 0 0
105 33 4 3.32731111999449 1.797235318082848 0.6149691924772043 -2 0 -1
103 33 2 3.036357695382886 1.8316977747432355 1.0201339044003677 -2 0 -1
104 33 4 2.7454042707712825 1.8661602314036225 1.4252986163235313 -2 0 -1
187 61 2 0.8205713349506889 0.11008514903900081 3.2830732790588923 -1 0 -1
83 26 4 2.0374669559863863 0.19437276919194624 2.0104416450978526 -1 1 0
188 61 4 0.8479657007833762 0.22032788141723578 2.7961481424325165 -1 0 -1
282 92 4 1.0879816747461315 0.5566062014181817 2.758514152345129 0 -1 0
280 92 2 0.8868824954844303 0.8623362812158956 2.417796911209259 0 -1 0
152 49 4 3.475602661417803 3.9000012780790296 2.1701223494163226 -1 1 0
281 92 4 0.6857833162227291 1.1680663610136093 2.0770796700733896 0 -1 0
262 86 2 1.0947401298631794 1.8819884876222284 3.6790014711680117 1 0 -1
82 26 2 2.5074944855426295 0.13982848045485188 2.1719936244273104 -1 1 0
178 58 2 3.6538107405515063 1.381675486328866 2.758209729413062 0 0 -2
179 58 4 3.879589191832963 1.3744213131409295 2.3121475499934374 0 0 -2
180 58 4 3.4280322892700497 1.3889296595168026 3.2042719088326863 0 0 -2
97 31 2 2.637689086190849 3.899354943105046 2.216686112045588 -1 0 -1
30 8 4 0.3189270422649868 2.117454875238172 1.8884454110257332 0 0 0
98 31 4 2.1735213199775716 3.724558982151403 2.2799013515077506 -1 0 -1
223 73 2 0.771401458986594 2.112012491295571 2.5532382668327 0 -1 1
264 86 4 1.0762208508235582 1.969155104092585 3.1870065349366943 1 0 -1
224 73 4 1.1810805304852725 2.1744414290265186 2.832998317786122 0 -1 1
225 73 4 0.36172238748791585 2.049583553564623 2.273478215879277 0 -1 1
39 11 4 3.010138434405029 0.801744097927537 3.9970407674689055 1 -1 -2

Velocities

79 -0.003928503831766996 0.005750103463572292 0.00214990615569793
80 0.004536379814484558 0.23188468772777518 -0.06788960953537385
132 0.39834929826879195 0.12659835737898362 -0.803643677262982
130 0.28288187324820074 0.26263064678689496 -0.6951161842622159
131 0.16741444822760956 0.3986629361948063 -0.5865886912614497
192 -0.577879387339618 -0.27668849940561097 0.5264493691013694
81 -0.012393387478018587 -0.2203844808006309 0.07218942184676978
200 0.13813690706946644 0.33936580427536367 -0.1531961631766472
199 0.003288268572761658 0.17598853621350688 0.10554228952908842
21 0.08959141506197257 -0.1429343841162339 -0.3972976963820105
201 -0.131560369923943 0.012611268151650035 0.3642807422348242
236 0.0892971837888342 0.09591310839885653 -0.09284319955152193
92 0.1280840612238607 0.15611823388365056 0.18135243977808882
149 0.11836508911227711 0.004070917055424554 -0.05875657799495956
50 -0.1417615277372781 0.08034953611783203 -0.0427736773047222
49 -0.1582841943215987 -0.04018953802001501 0.2580288516257111
51 -0.17480686090591943 -0.16072861215786205 0.5588313805561445
118 0.36244197858194155 0.21531705646697435 -0.3538889139426243
75 0.026291151806916435 -0.6023919448828376 -0.13721495349871937
73 0.00696263205716883 -0.09783277828070011 -0.12386409757111673
159 0.19350323712076667 -0.17816551727218724 -0.222320396646374
167 -0.36325235752853774 0.0027377361569689285 0.00938301025154438
166 -0.00017305032357490223 0.1539915899496591 0.0880058923471672
293 -0.3808440660927701 0.007451487577674092 0.24296593446119455
292 -0.15876493470603492 0.01738307266890501 -0.029249341123809797
294 0.06331419668070015 0.027314657760135874 -0.30146461670881397
168 0.36290625688138795 0.3052454437423493 0.16662877444279
47 0.003695556834232498 -0.1731058617781653 -0.7237775201668889
289 0.13131672380780673 -0.06453162959134964 0.1305602184688507
273 0.29908003180518195 0.391728101181453 0.0037528724684681297
291 0.07015155414250497 -0.1546816532059464 0.013989027144358068
46 -0.04971786683026374 0.09090888575180639 -0.3768404151159854
157 0.2627874879298186 -0.022644259904369794 0.03379417632583519
48 -0.10313129049475994 0.3549236332817781 -0.029903310065081956
95 -0.01670654036932845 0.21084473409519305 0.20101011864769153
94 -0.09644737415509827 -0.012125021200472388 0.23807213636161959
31 0.11464578921263112 -0.23690524187674283 0.05037989185989158
185 0.4653904487868345 -0.11532426196850493 0.18349570749542102
184 -0.033019365108897865 0.061572275349991365 -0.005870697027073787
14 -0.09878583738172286 -0.07077581073645559 -0.26533867575881925
290 0.19248189347310848 0.025618394023247074 0.24713140979334333
33 0.18437117592654112 -0.39217375007595356 0.17551106976545608
4 0.24314289954743024 0.11344983065584663 -0.2755450717417943
169 -0.09046631275781958 0.056388801251095515 0.3119004910436228
170 -0.31268813539947204 0.16539950245066182 0.28615269902816515
3 0.17772383787059726 0.19814496031276965 -0.19393992550763908
2 0.24114868677734325 -0.07184348836165044 -0.2860529274409198
1 0.1836721035449022 0.05933803311965059 -0.21042862957656533
5 0.07599082770869404 -0.002810816003891249 -0.09004668946293974
128 -0.9577806596564261 -0.304437965266512 -0.41472421179292235
203 -0.20454819716266615 -0.028074613499431827 0.08456158386035459
202 -0.17079901880845433 -0.0925963752237124 0.16981905114040072
204 -0.13704984045424246 -0.15711813694799298 0.2550765184204468
120 0.2811909839888773 0.19189293150362985 -0.2938147201023149
76 0.14927824952925342 -0.05597914322993056 -0.2856801085622447
77 0.2843164247830984 0.30149339369972644 0.012743407869397927
288 -0.4192641275880796 0.03951485753701723 -0.3722081858897277
114 -0.42955416815540337 0.0020895901065654254 0.06536334785196794
286 -0.3145661143837502 -0.013717644571567414 -0.3131949821644276
113 -0.17622808068555634 0.2982923335171761 0.15720644543941442
112 -0.30289112442047983 0.15019096181187075 0.11128489664569116
20 -0.15446922991294812 -0.45152456221560755 -0.20267306692015702
19 -0.03243890742548775 -0.2972294731659207 -0.29998538165108374
138 0.15429498034810046 -0.012595088302281829 0.17073301601847038
136 0.14038538458620847 -0.015422795923590232 0.18236032845229241
137 0.12647578882431645 -0.018250503544898638 0.19398764088611442
305 -0.06854002955377217 -0.05416406571497659 -0.037417903106669544
239 -0.09071121413632265 0.2864376935393974 -0.13653778413497444
241 0.12081512031889334 -0.18509468397639547 0.18225762421055386
304 0.0054158602303442625 -0.16775515736799249 -0.07816354861726779
240 -0.08035297416771317 0.054455384660864525 -0.1113901702319307
243 -0.1727809388625972 -0.1140853917838871 0.23920933916384096
171 0.13175550988383286 -0.052621899948470795 0.3376482830590804
45 -0.03617558171794991 0.5373057871860126 0.2980489568776141
287 -0.20986810117942084 -0.06695014668015205 -0.2541817784391275
306 0.0793717500144607 -0.28134624902100847 -0.11890919412786613
238 -0.0855320941520179 0.17044653910013094 -0.12396397718345258
127 0.15538661620731486 0.03476162855105111 -0.4905304597326009
96 -0.17618820794086812 -0.23509477649613786 0.27513415407554764
237 0.18784490477167995 -0.015728138878503474 -0.15811039708816851
174 0.21623261515011966 -0.2622517765818085 0.04152831790780791
119 0.059958420585183414 0.3069017372097117 -0.2095188476627161
172 0.10546782259103113 -0.2024437537673674 0.14106643214903733
215 -0.08688816369544268 0.1732012188968155 0.03891340760658028
173 -0.005296969968057397 -0.1426357309529263 0.24060454639026674
122 -0.004456522775159552 -0.25320465640701967 0.045435069404927045
142 0.02772427306936273 -0.027630191101905163 0.348002556887396
144 -0.3793070556755047 -0.3640659536427961 0.1886098593998508
64 0.03820394751560498 0.05658509035514028 -0.15854621650584674
229 -0.08588325526085128 0.2528207482983599 -0.06390949908900098
66 0.1261183046024214 -0.35451895222164753 -0.06965006231792503
230 -0.22455438307712602 0.15176806069846865 0.2759824631978651
219 -0.046881453899261044 0.23211188276340178 0.09740164902242049
235 0.13857104428025707 0.0400924847601765 -0.12547679831984523
214 -0.1696341253798731 0.13888307496573993 0.08370350909767743
216 -0.25238008706430365 0.10456493103466434 0.12849361058877462
143 0.17274424069141492 0.12317747336758551 0.462706627421727
228 -0.4381452169801633 0.5265562203190864 -0.2829850175798072
226 0.07756202841548218 0.12995669570994536 -0.021978115742436435
23 0.0488074061640526 0.2735089227687548 0.10662023341019862
24 0.5420670656866043 -0.20777729138590498 -0.14280648738401874
22 0.29543723592532845 0.03286581569142493 -0.01809312698691003
274 -0.29671777521969195 0.013513523317636392 0.16299549644140313
276 -0.34800367935528487 0.23902868703775937 0.08879492708505231
129 1.2685538920710566 0.37396122236861384 -0.566336707672279
86 -0.1425848618771183 -0.3549373236778576 0.2516231774096096
231 0.05278787255542308 0.3538734358982513 -0.4038014613758669
207 0.17492154601998672 -0.5172224869275537 0.3553422583678736
205 0.14207444402803937 0.024416115173586567 0.24945130225404227
106 -0.1633480141888091 -0.40082973320732684 -0.18012337172575846
218 -0.3318120491201958 0.2259079141146949 -0.07140593823866626
107 -0.26226209730988126 -0.3913266634917916 -0.2200093972168271
108 -0.06443393106773693 -0.41033280292286206 -0.1402373462346898