LAMMPS data file via write_data, version 29 Aug 2024, timestep = 2000000, units = lj

1530 atoms
4 atom types
1030 bonds
1 bond types

-6.798029 6.798029 xlo xhi
-6.798029 6.798029 ylo yhi
-6.798029 6.798029 zlo zhi

Masses

1 10
2 10
3 1
4 1

Bond Coeffs # zero

1 0

Atoms # bond

156 42 4 -6.352805763153885 -5.19253950322683 -5.749021491922084 0 0 0
154 42 2 -5.872767908483505 -5.267894888940463 -5.866857071979776 0 0 0
155 42 4 -5.392730053813125 -5.343250274654095 -5.984692652037468 0 0 0
192 54 4 -4.477843034203596 -5.245954669820931 -5.224004458099384 0 0 0
190 54 2 -3.9985809247358666 -5.1034509257879614 -5.224720953043043 0 0 0
572 181 4 -2.4415047604665503 -6.52149252256971 -5.981128057966694 0 1 0
184 52 2 -2.004603746217714 -5.285732403752599 -6.558505601893739 0 0 0
571 181 2 -2.7689218765954777 -6.520193468900554 -5.603244022149864 0 1 0
573 181 4 -3.0963389927244047 -6.518894415231397 -5.225359986333037 0 1 0
186 52 4 -1.6406848631910878 -5.606506777381141 -6.437398839903058 0 0 0
166 46 2 -1.127978688773864 -6.007534914701464 -6.622467102317032 0 0 0
168 46 4 -1.2735969232274345 -5.663235977395206 -6.290422569815132 0 0 0
297 89 4 -4.964438798781632 -3.988269064713875 -6.598392550478987 0 0 1
93 21 4 -3.9981114261739266 -3.588229664960199 -5.825051056179417 0 0 0
191 54 4 -3.519318815268136 -4.9609471817549915 -5.225437447986701 0 0 0
121 31 2 -2.1066109481689392 -4.950907328868786 -5.451033311516198 0 0 0
123 31 4 -2.60007017361792 -5.030205277178247 -5.465518759825093 0 0 0
185 52 4 -2.368522629244341 -4.964958030124056 -6.679612363884419 0 0 0
122 31 4 -1.6131517227199583 -4.871609380559326 -5.436547863207305 0 0 0
204 58 4 -0.4801722887699994 -3.44644789874708 -5.80175349262441 0 0 0
163 45 2 -5.898301715452394 -2.6557549228588346 -6.615176922890715 0 0 0
164 45 4 -6.19555523744032 -3.0577031670548838 -6.624006002873127 0 0 0
165 45 4 -5.601048193464468 -2.253806678662785 -6.606347842908302 0 0 0
195 55 4 -5.236183735979624 -2.8341727398801106 -5.212110286573737 0 0 0
91 21 2 -3.5785585113146685 -3.405693045497244 -5.62341838474953 0 0 0
92 21 4 -3.15900559645541 -3.2231564260342895 -5.421785713319643 0 0 0
202 58 2 -0.4725033722441296 -3.0696171109524384 -6.13029533940952 0 0 0
203 58 4 -0.46483445571826054 -2.6927863231577973 -6.458837186194631 0 0 0
175 49 2 -1.3944646611038114 -2.5661085454497976 -5.631882080525069 0 0 0
176 49 4 -1.1986232145224585 -3.0151649032302954 -5.531909507597678 0 0 0
177 49 4 -1.5903061076851646 -2.1170521876692994 -5.73185465345246 0 0 0
199 57 2 -5.501733332814327 -0.6643104748311138 -5.988867491811535 0 0 0
200 57 4 -5.692994060892285 -0.6550427852811774 -6.45074782677428 0 0 0
201 57 4 -5.310472604736368 -0.6735781643810501 -5.526987156848791 0 0 0
88 20 2 -0.03569856881443882 -4.196933874276833 -0.9206481968018293 0 0 0
126 32 4 -5.974942772504666 -1.2326992590506325 -5.305092296346444 0 0 0
223 65 2 -1.0163985820292367 -0.3909633782500189 -0.8240611123707919 0 0 0
148 40 2 -3.6660633402563993 -1.426913936306407 -6.772640952732853 0 0 0
216 62 4 -4.173873996528683 -0.47869441221057374 -6.381527924654917 0 0 0
214 62 2 -4.006646065325956 -0.24090256157334358 -6.78833236759544 0 0 0
236 69 4 -3.506342462558382 -0.7895634545238368 -5.121921861791044 0 0 0
78 16 4 -4.926301756266391 -0.3940018298203867 -5.167983424289655 0 0 0
149 40 4 -3.2407042735799596 -1.2004201088311008 -6.639335999667202 0 0 0
100 24 2 -1.8304604339227306 -0.44907879524801125 -6.365120681907174 0 0 0
101 24 4 -2.2250130965290125 -0.6296802584179853 -6.116703073974082 0 0 0
102 24 4 -1.4359077713164488 -0.26847733207803715 -6.613538289840267 0 0 0
942 304 4 -0.4257915485208489 -1.709061075366954 -6.201163266768929 0 0 0
118 30 2 -5.966127478478838 -6.599609323585386 -4.564894378670273 0 0 0
119 30 4 -5.556924882744137 -6.352181125810502 -4.710950951920104 0 0 0
171 47 4 -3.342086260027171 -5.229086636033251 -4.0917436303628145 0 0 0
169 47 2 -2.9662718852527745 -5.557309945147343 -4.05960307860364 0 0 0
170 47 4 -2.590457510478378 -5.885533254261436 -4.027462526844467 0 0 0
245 72 4 -0.6281742597204238 -6.014430702173538 -4.7882482124076535 0 0 0
104 25 4 -1.4851182057044683 -5.2698622101830646 -3.736242998463774 0 0 0
244 72 2 -0.33892635888362926 -5.608174926502079 -4.7523052493276525 0 0 0
246 72 4 -0.049678458046834684 -5.201919150830619 -4.7163622862476515 0 0 0
172 48 2 -5.8140792969346275 -3.772303768541915 -4.017754109364859 0 0 0
173 48 4 -6.006608867351673 -4.052361457522455 -4.384496601255046 0 0 0
893 288 4 -6.563230933194287 -4.402755735028288 -3.772212704834688 1 0 0
174 48 4 -5.621549726517582 -3.492246079561375 -3.6510116174746723 0 0 0
211 61 2 -3.7828252609850024 -3.4932731008580404 -4.107442800990224 0 0 0
213 61 4 -4.260174876435236 -3.5744640828078986 -4.232123870440081 0 0 0
212 61 4 -3.3054756455347687 -3.4120821189081827 -3.982761731540366 0 0 0
136 36 2 -2.76313044455139 -3.9953736540203972 -4.16229825013801 0 0 0
137 36 4 -3.049445922266086 -4.364670157034614 -4.340184562377521 0 0 0
138 36 4 -2.4768149668366943 -3.626077151006181 -3.9844119378984995 0 0 0
217 63 2 -0.8220945039383619 -3.729545924523414 -4.040040919014723 0 0 0
218 63 4 -0.36934977991221823 -3.5203614686110805 -4.075594797437223 0 0 0
219 63 4 -1.2748392279645056 -3.9387303804357483 -4.004487040592224 0 0 0
866 279 4 -6.71890778908094 -2.411500898185655 -4.68036873410451 1 0 0
193 55 2 -5.291027588098203 -2.4086390426090194 -4.955374577386492 0 0 0
194 55 4 -5.34587144021678 -1.9831053453379284 -4.698638868199247 0 0 0
858 276 4 -6.512665016481276 -2.907049203942973 -3.722013724437165 1 0 0
146 39 4 -2.8837497279019324 -1.858931994856956 -3.628111452811821 0 0 0
151 41 2 -0.8257364529657271 -2.427660771697625 -3.5641162045884367 0 0 0
152 41 4 -0.6849431063696955 -2.5480352771380113 -4.028537577906236 0 0 0
125 32 4 -6.3228609764201344 -0.6301928472628995 -4.5868033940666315 0 0 0
124 32 2 -6.1489018744624 -0.9314460531567661 -4.945947845206538 0 0 0
76 16 2 -4.595195317817244 -0.36756595084468086 -4.79425936737058 0 0 0
77 16 4 -4.264088879368097 -0.34113007186897504 -4.420535310451504 0 0 0
237 69 4 -3.1761715621783044 -0.0949990913985323 -4.482728994168275 0 0 0
145 39 2 -2.729105758123293 -1.5097145498679312 -3.95080700395323 0 0 0
147 39 4 -2.574461788344654 -1.1604971048789063 -4.273502555094639 0 0 0
235 69 2 -3.341257012368343 -0.4422812729611843 -4.8023254279796594 0 0 0
160 44 2 -0.7363257696998079 -0.6427457860082891 -4.125884215875608 0 0 0
161 44 4 -0.7000741807620099 -0.9670443541545597 -3.747048814945849 0 0 0
162 44 4 -0.7725773586376058 -0.3184472178620186 -4.504719616805368 0 0 0
107 26 4 -1.5680800972895903 -1.4823954486426714 -0.5898660598130546 0 0 0
196 56 2 -5.483287465260759 -5.085415933093968 -3.0006417693822955 0 0 0
198 56 4 -5.05166204227231 -5.321589866162386 -2.911639704411611 0 0 0
229 67 2 -4.043139388366666 -5.73531316850433 -2.747372858519764 0 0 0
230 67 4 -3.783816869781599 -5.730634623670003 -3.174842088491509 0 0 0
231 67 4 -4.302461906951733 -5.739991713338657 -2.319903628548019 0 0 0
82 18 2 -3.112099435461811 -5.997065866864059 -1.859782767716543 0 0 0
83 18 4 -3.180497160313166 -5.627367186145768 -2.189395626552641 0 0 0
103 25 2 -1.2811428285453264 -5.451408763118659 -3.3173935092319558 0 0 0
85 19 2 -0.46412892669628036 -5.6726754818321865 -2.470591714959897 0 0 0
86 19 4 -0.6734909686454168 -5.553047479364847 -2.9086061855158327 0 0 0
87 19 4 -0.2547668847471438 -5.792303484299526 -2.032577244403961 0 0 0
105 25 4 -1.0771674513861842 -5.632955316054252 -2.8985440200001378 0 0 0
197 56 4 -5.914912888249207 -4.849242000025549 -3.08964383435298 0 0 0
144 38 4 -3.115841320648623 -3.847462594487616 -1.840243075818309 0 0 0
142 38 2 -3.100900526653927 -4.27479501059051 -2.099402831224567 0 0 0
143 38 4 -3.0859597326592314 -4.702127426693404 -2.3585625866308253 0 0 0
226 66 2 -2.034072062060471 -4.02786778754109 -2.5540920534853364 0 0 0
228 66 4 -2.443918937573682 -3.8666443282768053 -2.7908039771704005 0 0 0
227 66 4 -1.6242251865472603 -4.189091246805375 -2.317380129800272 0 0 0
129 33 4 -6.344322441025302 -3.373873744941005 -2.6856811523334114 0 0 0
856 276 2 -6.606677661518121 -3.0972056590345636 -3.269242098603332 1 0 0
127 33 2 -6.227496399532095 -3.218857315239609 -2.2248974910007724 0 0 0
112 28 2 -5.872299283493527 -1.9207096136528998 -2.7624795585652144 0 0 0
114 28 4 -6.0633970990282 -2.1923358498191643 -2.388713839532801 0 0 0
857 276 4 -6.700690306554964 -3.2873621141261538 -2.816470472769499 1 0 0
128 33 4 -6.11067035803889 -3.063840885538213 -1.764113829668133 0 0 0
96 22 4 -4.489175824254896 -1.672847673414104 -3.282770573962453 0 0 0
97 23 2 -1.1536393130406524 -1.8463326961808229 -2.4293905041546093 0 0 0
98 23 4 -1.1504479945339665 -2.0352967716644668 -2.8922969673442296 0 0 0
153 41 4 -0.9665297995617584 -2.3072862662572384 -3.099694831270637 0 0 0
113 28 4 -5.6812014679588545 -1.6490833774866356 -3.136245277597628 0 0 0
179 50 4 -6.214323739706934 -1.5247037980631384 -1.9368691484057214 0 0 0
476 149 4 -4.407509499260672 -0.08344279651074454 -1.9961096979151223 0 0 0
95 22 4 -3.913358633207119 -1.4190042798191191 -2.5055974310773155 0 0 0
94 22 2 -4.201267228731007 -1.5459259766166116 -2.8941840025198844 0 0 0
141 37 4 -3.6914092180315783 -1.4189745151221023 -2.1724109360376707 0 0 0
139 37 2 -3.3889898995810195 -1.150841777690425 -1.8780516471655868 0 0 0
255 75 4 -3.6056264048605127 -0.23831796365457794 -3.051905688189644 0 0 0
253 75 2 -3.216518520677796 -0.33276978856460326 -2.7524496693190246 0 0 0
133 35 2 -1.9771066775032924 -0.5351595516676667 -2.5584143272545448 0 0 0
135 35 4 -2.433215826976978 -0.42480298198517413 -2.3858284897869915 0 0 0
254 75 4 -2.8274106364950793 -0.42722161347462856 -2.452993650448405 0 0 0
239 70 4 -0.5481791460101963 -0.7827231626955732 -3.4261927379918564 0 0 0
134 35 4 -1.520997528029606 -0.6455161213501593 -2.731000164722098 0 0 0
99 23 4 -1.156830631547338 -1.6573686206971787 -1.9664840409649893 0 0 0
238 70 2 -0.5815315522040125 -0.5066508861800622 -3.010654875528577 0 0 0
240 70 4 -0.6148839583978285 -0.23057860966455107 -2.595117013065297 0 0 0
247 73 2 -5.313331508480802 -5.521656566715093 -1.3130066507677927 0 0 0
248 73 4 -5.374186304745771 -6.002138324317611 -1.4372401985016299 0 0 0
19 4 3 -5.242475655434969 -6.355119594510773 -1.36146624035023 0 1 0
17 4 3 -4.83509682234486 -6.5188652675548555 -0.751441781078533 0 1 0
16 4 1 -5.004041203157607 -6.688634007154931 -1.1441711678660391 0 1 0
378 116 4 -4.6946205301864 -6.526404958954709 -0.3940063118713272 0 0 0
892 288 2 -6.741888818354911 -4.717445466754834 -3.4271739637984746 1 0 0
84 18 4 -3.043701710610456 -6.366764547582351 -1.5301699088804448 0 0 0
350 107 4 -2.8090540827126524 -5.37986983751084 -0.01170318641724298 0 0 0
206 59 4 -1.7665245265652898 -5.894999007563353 -1.555436142346871 0 0 0
1221 397 4 -0.17389566799447984 -6.619643753992554 -1.1612242964962611 0 1 0
205 59 2 -1.4738925974476622 -6.2797985242117145 -1.4277808014943196 0 0 0
207 59 4 -1.1812606683300344 -6.664598040860076 -1.300125460641768 0 0 0
80 17 4 -5.544921238545897 -4.825406147095295 -1.0389134453539948 0 0 0
249 73 4 -5.252476712215834 -5.041174809112574 -1.1887731030339552 0 0 0
79 17 2 -5.742757178910045 -4.583024793008635 -0.6488977791414492 0 0 0
81 17 4 -5.940593119274193 -4.340643438921975 -0.2588821129289038 0 0 0
183 51 4 -4.571089449073603 -4.487376845974603 -1.6286866348959232 0 0 0
111 27 4 -3.9323703062460322 -3.8541128725105143 -0.7253574445901755 0 0 0
181 51 2 -4.255464329287558 -4.366757250452315 -1.2601331151246196 0 0 0
182 51 4 -3.939839209501513 -4.246137654930027 -0.8915795953533159 0 0 0
109 27 2 -4.12318999871429 -3.4648019751216337 -0.47630951719283615 0 0 0
429 133 4 -4.461923236589372 -4.715413583465974 -0.2559092293283822 0 0 0
90 20 4 -0.2659460641041985 -3.803612135773121 -1.126279179227128 0 0 0
252 74 4 -0.589576410339096 -3.557188558245185 -1.0498502588569805 0 0 0
208 60 2 -6.1620300223631 -2.3612987413720714 -0.8701218937349684 0 0 0
209 60 4 -6.152258985750848 -1.8656227452736491 -0.9350051252773338 0 0 0
210 60 4 -6.171801058975353 -2.8569747374704932 -0.805238662192603 0 0 0
189 53 4 -4.598967111119859 -2.5475640266522652 -1.5672897832820547 0 0 0
110 27 4 -4.314009691182549 -3.0754910777327535 -0.2272615897954972 0 0 0
187 53 2 -4.793474898266722 -2.098225963503733 -1.4659881261130427 0 0 0
431 134 4 -2.363187506265886 -3.371000483399966 -0.030394620082629498 0 0 0
220 64 2 -2.8858888056839125 -2.6291538044515796 -1.1926480784323303 0 0 0
221 64 4 -3.245544675798911 -2.4348785651277596 -0.9047161655134366 0 0 0
222 64 4 -2.526232935568914 -2.8234290437753997 -1.480579991351224 0 0 0
250 74 2 -0.5286863616893839 -3.060966591184299 -1.0423561690657557 0 0 0
251 74 4 -0.4677963130396719 -2.5647446241234126 -1.0348620792745304 0 0 0
178 50 2 -6.579583619591937 -1.256540139910232 -1.7255081477636598 0 0 0
115 29 2 -5.933214488443203 -0.2762000423427643 -0.5013605941622463 0 0 0
116 29 4 -6.036485305345962 -0.5083325964582933 -0.931999207962521 0 0 0
188 53 4 -4.987982685413585 -1.6488879003552008 -1.3646864689440308 0 0 0
242 71 4 -4.875731662681959 -1.4092111713104134 -0.15959405022542053 0 0 0
108 26 4 -2.55356986988632 -1.609118934809031 -0.47694544096353503 0 0 0
106 26 2 -2.060824983587955 -1.5457571917258512 -0.5334057503882947 0 0 0
140 37 4 -3.0865705811304607 -0.8827090402587474 -1.583692358293503 0 0 0
132 34 4 -3.0990983042913767 -1.2616420797373806 -0.2787128159272061 0 0 0
224 65 4 -0.7529457868868608 -0.8151057796114329 -0.7976821795068822 0 0 0
404 125 4 -6.722485129823056 -6.362053322162399 -0.048694211369554596 0 0 0
117 29 4 -5.829943671540444 -0.044067488227235274 -0.07072198036197164 0 0 0
130 34 2 -2.9170044865582025 -0.886548185131801 -0.0027664229940738256 0 0 0
403 125 2 -6.767747635095063 -6.47652803368214 0.4359157823765866 0 0 0
400 124 2 -0.7715528264352459 -6.795206999061916 1.790869723547382 0 0 0
1147 373 2 -6.668534460524142 -6.221051371808334 1.7329141199408888 1 0 0
424 132 2 -4.481487096818321 -5.5398770107469755 1.5747805544043745 0 0 0
425 132 4 -4.292663040583639 -5.092859034694018 1.4542799117819036 0 0 0
426 132 4 -4.670311153053002 -5.986894986799934 1.6952811970268455 0 0 0
278 83 4 -3.261765423686128 -6.754284978832857 0.5820278638286385 0 0 0
279 83 4 -3.120402313279778 -6.2553392453854855 1.4370539605595523 0 0 0
349 107 2 -3.2609585185243413 -5.210222090766282 0.11868861899424112 0 0 0
277 83 2 -3.191083868482953 -6.504812112109171 1.0095409121940955 0 0 0
14 3 3 -2.1155658575186016 -5.099584091257481 0.2644792094273506 0 0 0
289 87 2 -0.3328316728103551 -5.538980326866736 0.5905160865047513 0 0 0
290 87 4 -0.15973305555653147 -5.950904639991084 0.36611637847940376 0 0 0
291 87 4 -0.5059302900641784 -5.127056013742387 0.8149157945300988 0 0 0
401 124 4 -0.5453269463106961 -6.693505053661508 1.356728542060167 0 0 0
379 117 2 -5.917342508131256 -3.7780853148021563 0.8459129905201258 0 0 0
380 117 4 -5.683568884936422 -3.3948217223989174 0.625779140700396 0 0 0
381 117 4 -6.151116131326089 -4.161348907205394 1.0660468403398555 0 0 0
351 107 4 -3.7128629543360288 -5.040574344021726 0.2490804244057252 0 0 0
427 133 2 -4.613853396045054 -4.707468468606995 0.22038280482428008 0 0 0
428 133 4 -4.765783555500738 -4.699523353748018 0.6966748389769424 0 0 0
316 96 2 -4.698270655491651 -3.516658514355554 1.4250052228683714 0 0 0
318 96 4 -4.7824018085004125 -3.9977513088243666 1.5321111153475444 0 0 0
15 3 3 -1.8102801618558544 -5.029129690734469 0.9491227820040109 0 0 0
11 3 1 -1.9526876536651205 -4.801955046494452 0.5810035251171003 0 0 0
13 3 3 -2.2842706515535123 -4.499902963564894 0.699819579205827 0 0 0
430 134 2 -1.9559626348451649 -3.5461644634956904 0.20087466921750566 0 0 0
432 134 4 -1.5487377634244437 -3.721328443591415 0.432143958517641 0 0 0
12 3 3 -1.5989381697556482 -4.570645964213225 0.399461763839007 0 0 0
410 127 4 -0.5691446131044755 -3.547648077128235 1.2735637133394566 0 0 0
352 108 2 -5.756180159623153 -2.010672626848969 0.6130024177401673 0 0 0
354 108 4 -5.854704554757392 -2.0484570192669755 1.101740878732056 0 0 0
353 108 4 -5.657655764488915 -1.9728882344309622 0.12426395674827817 0 0 0
439 137 2 -3.5484361812826806 -2.4050108919852327 1.2785906444072686 0 0 0
317 96 4 -4.61413950248289 -3.035565719886742 1.3178993303891984 0 0 0
440 137 4 -3.87650788464512 -2.585443980976395 0.9472104128754293 0 0 0
243 71 4 -4.335469227046573 -2.1850289426163654 0.16632509061686712 0 0 0
241 71 2 -4.605600444864266 -1.7971200569633892 0.0033655201957232725 0 0 0
441 137 4 -3.220364477920241 -2.2245778029940704 1.6099708759391078 0 0 0
272 81 4 -2.0810825141590756 -1.8179132216138165 1.6557129979881733 0 0 0
346 106 2 -0.4025736046165088 -2.2336147080945152 1.6311673718853015 0 0 0
409 127 2 -0.802728273387463 -3.155261998394392 1.0699173559829651 0 0 0
411 127 4 -1.0363119336704505 -2.7628759196605492 0.8662709986264738 0 0 0
348 106 4 -0.18524009280123913 -1.7836396283785843 1.61417995664717 0 0 0
347 106 4 -0.6199071164317785 -2.683589787810446 1.648154787123433 0 0 0
1149 373 4 -6.711577981569667 -6.413611596592637 1.2734929459338309 1 0 0
311 94 4 -4.658848060120786 -0.25721724897137327 0.35458122640878786 0 0 0
326 99 4 -4.405893956524985 -0.6852197121471586 1.5432963011017864 0 0 0
812 261 4 -4.026489672703745 -0.552908107530758 1.6049726021176478 0 0 0
271 81 2 -2.4041692622505613 -1.5370717141354624 1.3973663299530146 0 0 0
273 81 4 -2.727256010342047 -1.2562302066571083 1.1390196619178559 0 0 0
131 34 4 -2.734910668825029 -0.5114542905262214 0.27317996993905846 0 0 0
810 260 4 -2.46291285757642 -0.3114163640355929 0.4919952171358842 0 0 0
770 247 4 -0.45517255869951345 -0.43044622274342925 5.944243249486012 0 0 0
333 101 4 -6.71188838903617 -5.135070742317224 1.9640159017692036 0 0 0
1148 373 4 -6.625490939478617 -6.028491147024031 2.1923352939479455 1 0 0
331 101 2 -6.630268872686241 -5.278397495788798 2.436028291744105 0 0 0
332 101 4 -6.548649356336313 -5.421724249260371 2.9080406817190068 0 0 0
267 79 4 -5.094582627808357 -5.39978576116178 2.5682306335959866 0 0 0
265 79 2 -4.879595229501719 -5.821138471879595 2.7302254228325338 0 0 0
266 79 4 -4.664607831195082 -6.242491182597411 2.8922202120690805 0 0 0
274 82 2 -2.5572999307000868 -6.404290988156406 2.659457407578262 0 0 0
275 82 4 -2.6347932374605203 -6.0244384006435645 2.9752212420611572 0 0 0
388 120 2 -2.59356076002754 -5.36224911156367 1.9690126666923824 0 0 0
390 120 4 -2.646447503999336 -5.75574393758766 2.272928467868517 0 0 0
276 82 4 -2.4798066239396532 -6.784143575669248 2.3436935730953663 0 0 0
324 98 4 -0.1792004862766574 -5.485990084068269 3.307050090648939 0 0 0
1025 332 4 -6.783643201981075 -4.260641631535391 2.5617247066674635 1 0 0
436 136 2 -5.537695752462252 -4.1168769159662695 2.9142288832356567 0 0 0
437 136 4 -5.98864475234883 -4.332741254027009 2.921127220343739 0 0 0
438 136 4 -5.0867467525756735 -3.9010125779055294 2.907330546127574 0 0 0
373 115 2 -3.6490746000814416 -4.745742777242352 3.2582323800156336 0 0 0
389 120 4 -2.540674016055745 -4.96875428553968 1.6650968655162477 0 0 0
374 115 4 -3.234209619203593 -4.570033292428657 3.0414070480370308 0 0 0
307 93 2 -2.6512678260293177 -3.9353951518243835 2.1854170398866968 0 0 0
308 93 4 -2.3892292144452183 -3.9437755738555254 1.759664136707175 0 0 0
309 93 4 -2.913306437613417 -3.927014729793242 2.611169943066218 0 0 0
340 104 2 -0.4499627321126666 -4.3171097181817455 2.422708677243401 0 0 0
341 104 4 -0.27481593530495085 -4.619945800944718 2.065477790358168 0 0 0
342 104 4 -0.6251095289203822 -4.014273635418773 2.779939564128634 0 0 0
357 109 4 -0.5726020785409178 -3.672983342702959 2.6203323398939 0 0 0
1040 337 4 -6.639991256359172 -2.869867153378225 1.867783484890921 1 0 0
369 113 4 -5.76812252211008 -2.476901225441447 2.207631936010019 0 0 0
367 113 2 -5.33545873508124 -2.4704773272031932 2.458152954938653 0 0 0
359 110 4 -5.816499760289607 -1.8687285354484062 3.3794723277344123 0 0 0
328 100 2 -4.235032660005649 -2.9624753233951915 2.7852799787565488 0 0 0
329 100 4 -3.8834122125464674 -3.2487506908427473 2.996015535607594 0 0 0
330 100 4 -4.586653107464829 -2.6761999559476353 2.574544421905504 0 0 0
368 113 4 -4.902794948052401 -2.46405342896494 2.7086739738672874 0 0 0
256 76 2 -1.7119589901511072 -2.0210380208787275 3.122748341141214 0 0 0
257 76 4 -1.468259223032702 -1.9570601461830093 2.690871906202128 0 0 0
355 109 2 -0.3575845688906634 -3.242903668589165 2.7574415826819205 0 0 0
356 109 4 -0.142567059240409 -2.812823994475371 2.894550825469941 0 0 0
286 86 2 -6.607962122760439 -0.6782794417550532 2.4068134466842497 0 0 0
287 86 4 -6.509983160674614 -1.0597351917385471 2.0987685898970105 0 0 0
288 86 4 -6.7059410848462635 -0.29682369177155915 2.714858303471489 0 0 0
681 217 4 -6.551966561556448 -0.27236200744886196 3.0776074285257615 0 0 0
1107 359 4 -6.766482160205438 -2.693025074052276 5.886364782503207 1 0 0
327 99 4 -4.929915067902253 -1.3634893646617456 2.0584197361244474 0 0 0
325 99 2 -4.667904512213619 -1.0243545384044521 1.800858018613117 0 0 0
339 103 4 -4.607186168622729 -0.25818431027794414 2.8998712183129434 0 0 0
337 103 2 -4.352536282770497 -0.5375871306994152 3.2271134826615477 0 0 0
811 261 2 -4.0457281542251975 -0.08544610082823523 1.7813504723805393 0 0 0
362 111 4 -3.0613440265477903 -1.498841253662327 3.402424969970024 0 0 0
261 77 4 -1.950830321098166 -0.22300214236746763 1.9927098341173857 0 0 0
259 77 2 -2.295975890822168 -0.5224497954492592 2.1957015550423096 0 0 0
260 77 4 -2.64112146054617 -0.8218974485310503 2.3986932759672337 0 0 0
412 128 2 -0.7958862275619893 -0.5933477453250108 2.2106219773266287 0 0 0
413 128 4 -0.4550470088737442 -0.5215529382566577 2.5693337455779526 0 0 0
414 128 4 -1.1367254462502345 -0.6651425523933636 1.8519102090753048 0 0 0
435 135 4 -6.013961928619736 -6.1888593161047805 3.83742577880008 0 0 0
433 135 2 -6.4516866238706685 -6.0007265523105024 3.6857578706767793 0 0 0
264 78 4 -2.093491873898613 -5.557039617382566 4.823467099459964 0 0 0
415 129 2 -2.4855555645910794 -6.316051064122599 4.72999530715176 0 0 0
417 129 4 -2.3255788258279964 -5.867556090424611 4.882506623527074 0 0 0
416 129 4 -2.6455323033541625 -6.764546037820586 4.577483990776446 0 0 0
262 78 2 -1.744134838274813 -5.3315145450868435 5.101114543939772 0 0 0
372 114 4 -1.712386235375492 -5.932409340694166 3.9281367546715993 0 0 0
323 98 4 -0.3292757820115632 -5.689197367382845 4.274616215323683 0 0 0
322 98 2 -0.2542381341441104 -5.587593725725557 3.7908331529863113 0 0 0
370 114 2 -1.2478168203405375 -5.936853813873541 4.112948835640275 0 0 0
371 114 4 -0.7832474053055827 -5.941298287052917 4.29776091660895 0 0 0
304 92 2 -6.137522981367093 -4.285135326171621 4.281894055222001 0 0 0
305 92 4 -5.924218385656258 -4.469585301983994 4.694785512958637 0 0 0
306 92 4 -6.350827577077929 -4.100685350359248 3.8690025974853643 0 0 0
375 115 4 -4.06393958095929 -4.921452262056047 3.4750577119942365 0 0 0
303 91 4 -4.3839080510726856 -3.642139626207661 3.7660256630077997 0 0 0
408 126 4 -3.200214703206911 -4.557999848519262 4.618895860047939 0 0 0
319 97 2 -2.531272543104521 -4.283209540392996 4.074436349304803 0 0 0
320 97 4 -2.4624678809318965 -3.7899209942519434 4.118394610292137 0 0 0
321 97 4 -2.6000772052771453 -4.776498086534049 4.030478088317469 0 0 0
406 126 2 -3.197357256644774 -4.173607344634147 4.938636751952391 0 0 0
3 1 3 -0.2537175024284307 -3.4261438722255857 4.633809363536402 0 0 0
358 110 2 -6.022691803659273 -2.3234230663194473 3.4066334184163836 0 0 0
360 110 4 -6.228883847028941 -2.778117597190488 3.4337945090983544 0 0 0
301 91 2 -4.389140687279814 -3.213257368614462 4.022993810139048 0 0 0
302 91 4 -4.394373323486941 -2.7843751110212636 4.279961957270296 0 0 0
258 76 4 -1.955658757269512 -2.085015895574446 3.5546247760803 0 0 0
6 2 1 -2.314604577179101 -2.444635362659808 4.938399137421169 0 0 0
7 2 3 -2.603286689605191 -2.7861702640140695 5.046179233554078 0 0 0
8 2 3 -2.028874132671764 -2.5899822017794367 4.602940631134846 0 0 0
9 2 3 -2.561398439125723 -2.0809277417275 4.7897063125051345 0 0 0
1 1 1 -0.26425666295964084 -3.2027946352335923 5.040385364340864 0 0 0
5 1 3 -0.2655085649811042 -2.752782159899458 4.970476818477426 0 0 0
421 131 2 -6.419904240494199 -0.9712687558451284 4.525426145798592 0 0 0
422 131 4 -6.568657362102241 -1.0153050851076428 5.000750572392646 0 0 0
423 131 4 -6.271151118886156 -0.9272324265826143 4.050101719204538 0 0 0
338 103 4 -4.097886396918267 -0.8169899511208862 3.5543557470101526 0 0 0
394 122 2 -4.759452903543721 -1.193284828066109 4.7741174103423765 0 0 0
395 122 4 -4.8371378575917054 -1.0297718305189838 4.3080395761261725 0 0 0
270 80 4 -2.8406004390632686 -0.7675158735454328 4.957444954593703 0 0 0
361 111 2 -2.7126085756170784 -1.1897254831478805 3.5836183078260784 0 0 0
363 111 4 -2.3638731246863665 -0.8806097126334339 3.7648116456821326 0 0 0
345 105 4 -1.7440163579054566 -0.3567027728144495 4.848448201541393 0 0 0
364 112 2 -0.7100742680989645 -0.5637302562817733 3.8502237567940805 0 0 0
365 112 4 -0.32430806269169604 -0.3743120591923104 4.105772541524149 0 0 0
366 112 4 -1.0958404735062328 -0.7531484533712363 3.5946749720640114 0 0 0
299 90 4 -6.65776144724618 -5.1998519940250265 5.15354504759049 0 0 0
718 230 2 -5.259355539705828 -6.7358711855115265 6.534398009840204 0 1 0
343 105 2 -1.625063859783624 -0.6386939923700102 5.243835676411421 0 0 0
385 119 2 -5.900517425750095 -5.89687014996776 5.906106241814945 0 0 0
386 119 4 -5.835061403998232 -5.483318940312065 5.632809871167971 0 0 0
387 119 4 -5.965973447501959 -6.310421359623454 6.17940261246192 0 0 0
292 88 2 -4.16633111924146 -6.125735695690102 6.5252815988563775 0 0 0
293 88 4 -3.81418028820162 -6.466863696732961 6.623370737410862 0 0 0
383 118 4 -4.456507964971525 -5.57868827203675 5.414134132709374 0 0 0
294 88 4 -4.5184819502812985 -5.784607694647242 6.427192460301892 0 0 0
720 230 4 -5.017935742186559 -6.305233164215811 6.455231249263141 0 1 0
283 85 2 -1.0531417307686133 -6.186096710135228 5.801384087338875 0 0 0
285 85 4 -1.0628163800787995 -6.009576715095679 5.333680022238082 0 0 0
284 85 4 -1.043467081458427 -6.362616705174776 6.269088152439668 0 0 0
167 46 4 -0.982360454320294 -6.351833852007721 6.6415463651810684 0 0 -1
263 78 4 -1.3947778026510134 -5.105989472791122 5.378761988419581 0 0 0
382 118 2 -4.52106901716144 -5.088647185554591 5.3386914120578455 0 0 0
384 118 4 -4.585630069351355 -4.598606099072432 5.263248691406317 0 0 0
296 89 4 -5.112278963441123 -4.198220646320607 6.0311957815572965 0 0 0
295 89 2 -5.038358881111378 -4.0932448555172405 6.514430615539154 0 0 0
314 95 4 -3.6157618251753236 -3.605427615709954 5.96760096075068 0 0 0
420 130 4 -3.1768997639448897 -4.8243135750318915 6.364730981124953 0 0 0
407 126 4 -3.1944998100826374 -3.78921484074903 5.258377643856843 0 0 0
418 130 2 -2.9404676513219923 -4.400748182197107 6.485942424946548 0 0 0
419 130 4 -2.7040355386990944 -3.977182789362323 6.607153868768144 0 0 0
391 121 2 -1.139184940958521 -3.638073262942171 6.218410345597516 0 0 0
393 121 4 -0.7287543914447414 -3.8113321237338544 5.991412259299094 0 0 0
392 121 4 -1.5496154904723005 -3.464814402150488 6.445408431895939 0 0 0
313 95 2 -3.8572433075330843 -3.286655588745386 5.6674825032995155 0 0 0
315 95 4 -4.098724789890846 -2.967883561780817 5.367364045848353 0 0 0
10 2 3 -2.0745287081446238 -2.328985446051443 5.3077075097823805 0 0 0
4 1 3 -0.6420060067443298 -3.3269091103953246 5.279552733196489 0 0 0
397 123 2 -1.141628979462997 -1.8267130809281844 6.2669404355142975 0 0 0
399 123 4 -1.459194418206856 -2.1651605664320144 6.452965949010709 0 0 0
751 241 2 -6.284289906069518 -0.06111269150605847 5.202832782250533 0 0 0
282 84 4 -6.466080730419054 -1.3357084090965459 5.201590497274159 0 0 0
280 84 2 -6.485326290824468 -1.139585068578369 5.661117693105829 0 0 0
281 84 4 -6.5045718512298825 -0.9434617280601924 6.120644888937497 0 0 0
753 241 4 -6.475141303411238 -0.21900725138783342 5.637165663911882 0 0 0
396 122 4 -4.681767949495737 -1.356797825613234 5.24019524455858 0 0 0
215 62 4 -3.8394181341232287 -0.00311071093611337 6.400921189464037 0 0 -1
150 40 4 -4.091422406932839 -1.653407763781713 6.690112094201496 0 0 -1
268 80 2 -2.9852322917156333 -0.7853131076126365 5.435738677799453 0 0 0
269 80 4 -3.129864144367998 -0.8031103416798401 5.914032401005202 0 0 0
398 123 4 -0.8240635407191381 -1.4882655954243549 6.080914922017885 0 0 0
344 105 4 -1.5061113616617912 -0.9206852119255711 5.639223151281449 0 0 0
486 152 4 -5.323272910786631 0.9619437862109244 -5.396342682987914 0 0 0
1250 407 4 -6.325927821844203 0.16904439935800358 -6.434707113471236 1 0 0
617 196 4 -6.171957920330099 1.2441072388993315 -6.607240155202155 0 0 0
484 152 2 -5.1765499638651375 1.1874930029438753 -5.817768747295601 0 0 0
621 197 4 -5.705915974479995 0.47160818202892685 -5.007427896813956 0 0 0
485 152 4 -5.029827016943644 1.4130422196768262 -6.239194811603287 0 0 0
20 4 3 -4.65988400516769 6.766145872857861 -1.4068426659100763 0 0 0
468 146 4 -2.2744807006188705 1.425473190403487 -5.785022611036715 0 0 0
466 146 2 -2.681435558352019 1.687649696979144 -5.659917762341035 0 0 0
583 185 2 -1.172204736667182 0.7192735471983459 -5.828065220109372 0 0 0
584 185 4 -1.130042164754983 0.9599191451827489 -6.264312871908691 0 0 0
585 185 4 -1.2143673085793807 0.4786279492139429 -5.391817568310053 0 0 0
542 171 4 -1.3781689220426097 1.447929814623973 -5.845079728332895 0 0 0
478 150 2 -6.298646225958272 2.71126605968488 -5.59962908736027 0 0 0
479 150 4 -6.501853863303356 2.3689945570395077 -5.297045421903145 0 0 0
480 150 4 -6.095438588613188 3.053537562330253 -5.902212752817396 0 0 0
459 143 4 -2.8305376492126024 2.948816081248986 -5.773616080354584 0 0 0
467 146 4 -3.0883904160851676 1.9498262035548009 -5.534812913645355 0 0 0
457 143 2 -2.857144573387855 2.697810084143403 -6.205227086936592 0 0 0