LAMMPS data file via write_data, version 29 Aug 2024, timestep = 9000000, units = lj

1530 atoms
4 atom types
1030 bonds
1 bond types

-6.798029 6.798029 xlo xhi
-6.798029 6.798029 ylo yhi
-6.798029 6.798029 zlo zhi

Masses

1 1
2 1
3 1
4 1

Bond Coeffs # zero

1 0

Atoms # bond

82 18 2 -5.575141079741431 -5.460052106725629 -5.977435038015938 0 0 0
84 18 4 -5.917783257257868 -5.298611214401312 -5.651040833912326 0 0 0
83 18 4 -5.232498902224994 -5.621492999049947 -6.30382924211955 0 0 0
111 27 4 -4.846842723562087 -5.530818225505417 -6.259241719117163 0 0 0
34 7 3 -3.098554390660056 -6.762602083286242 -5.281379435701933 0 1 0
110 27 4 -4.059311395396181 -5.903504241119666 -6.750056899119956 0 0 0
109 27 2 -4.453077059479134 -5.717161233312542 -6.50464930911856 0 0 0
35 7 3 -3.067500424499677 -6.473067499259166 -5.975717520383032 0 1 0
134 35 4 -2.3388028506676335 -5.937829318103275 -5.346388871001594 0 0 0
32 7 3 -2.634265628104086 -6.192339204063919 -5.436737710492653 0 1 0
31 7 1 -2.823501099162057 -6.576241978209795 -5.605286209438229 0 1 0
144 38 4 -2.693223307919863 -5.816673360324134 -5.478620718637948 0 0 0
142 38 2 -2.970460611821522 -5.400856889039111 -5.493987550884648 0 0 0
133 35 2 -1.9197565675783512 -5.729539125505624 -5.522500790802604 0 0 0
135 35 4 -1.500710284489068 -5.521248932907972 -5.698612710603613 0 0 0
182 51 4 -1.2419022809352749 -5.4471310498059875 -5.980833918555725 0 0 0
181 51 2 -0.8492053563295319 -5.138472809871594 -5.9580475997317555 0 0 0
125 32 4 -5.8901280263372815 -5.134122944732147 -5.300086072159429 0 0 0
399 123 4 -6.168394670417424 -4.9999731948587165 -5.550392375390364 0 0 1
398 123 4 -6.408692662746052 -4.281294717375769 -6.202893809016179 0 0 1
397 123 2 -6.288543666581738 -4.640633956117243 -5.876643092203271 0 0 1
1149 373 4 -6.182202402939685 -4.004899845582699 -6.367457643397723 1 0 1
1031 334 4 -6.525610757704344 -4.113712816786893 -6.532017714362255 1 0 1
152 41 4 -6.509201414629634 -3.9219998856749494 -6.191067612205576 0 0 0
1147 373 2 -5.802339164242895 -3.8281954851827478 -6.640366948665893 1 0 1
143 38 4 -3.2476979157231805 -4.98504041775409 -5.509354383131347 0 0 0
231 67 4 -2.9704541758304344 -4.742796599471693 -5.620575358309442 0 0 0
229 67 2 -2.896122470924435 -4.388569789910563 -5.965536464861894 0 0 0
8 2 3 -2.7599572145367017 -3.6435618621668118 -6.236289545251312 0 0 0
230 67 4 -2.821790766018436 -4.034342980349433 -6.310497571414346 0 0 0
285 85 4 -2.777257215678493 -4.175071433050609 -6.691514405790401 0 0 1
6 2 1 -2.5830695573024287 -3.5394492956003183 -6.65242814019416 0 0 0
7 2 3 -2.1358882532096386 -3.4430758139820234 -6.604043914349961 0 0 0
183 51 4 -0.45650843172378863 -4.829814569937202 -5.9352612809077865 0 0 0
988 320 2 -0.4124161880268802 -4.1637984882171954 -6.466663575110259 0 0 0
990 320 4 -0.35332715728831443 -4.591716200831304 -6.2148801013125885 0 0 0
989 320 4 -0.4715052187654461 -3.7358807756030865 -6.718447048907928 0 0 0
946 306 2 -0.04442757392434692 -4.442200910686924 -5.427171478937076 0 0 0
947 306 4 -0.12784245015744414 -4.588536084863285 -5.897945283669735 0 0 0
926 299 4 -0.1262277920271928 -4.891717012030505 -6.136604207687585 0 0 0
496 156 2 -3.973179826266718 -1.7410018976952433 -6.240750681913025 0 0 0
497 156 4 -3.812103311794986 -1.8039394919803147 -6.709891615653395 0 0 0
462 144 4 -1.2917505014076478 -0.02120564528664276 -6.5008591557074435 0 0 0
141 37 4 -0.42054754234109165 -2.8019545402633903 -5.701574185074159 0 0 0
222 64 4 -1.7729122208158774 -3.5708352233820317 -6.6495937887598755 0 0 0
221 64 4 -0.7795563630471696 -3.4941382728933075 -6.735394241105031 0 0 0
220 64 2 -1.2762342919315235 -3.5324867481376696 -6.692494014932453 0 0 0
140 37 4 -0.4941317211380044 -3.4078537082768583 -6.493705213900966 0 0 0
139 37 2 -0.4573396317395479 -3.1049041242701243 -6.097639699487562 0 0 0
116 29 4 -0.5388918376071952 -2.413953090941659 -5.701626915570237 0 0 0
115 29 2 -0.4204039439286401 -2.0777096344122747 -5.351054587807826 0 0 0
224 65 4 -3.8285051130849244 -1.467083385905405 -5.63134566814331 0 0 0
498 156 4 -4.1342563407384505 -1.678064303410172 -5.771609748172656 0 0 0
223 65 2 -3.4856473880163295 -1.3178728164931233 -5.299404730119223 0 0 0
161 44 4 -6.542085113999374 -5.586520000556056 -4.1991794715255 0 0 0
160 44 2 -6.532975126383364 -5.623676700002617 -3.7006452321678505 0 0 0
126 32 4 -6.484856566442862 -5.436017184185503 -4.554996928656129 0 0 0
124 32 2 -6.187492296390072 -5.285070064458826 -4.927541500407779 0 0 0
12 3 3 -2.2888485624475785 -3.580094427687217 -3.703811779447534 0 0 0
163 45 2 -0.33946580725055514 -4.178094845979835 -4.175968547091074 0 0 0
165 45 4 -0.6016017225996121 -4.082653594328957 -3.7610279135458997 0 0 0
180 50 4 -0.9782203351541342 -4.006930989914542 -3.6443707402745256 0 0 0
178 50 2 -1.3453519638720244 -3.787659020088 -3.385268114963877 0 0 0
158 43 4 -2.5913073070266424 -2.2608897417961202 -3.9924111496436487 0 0 0
147 39 4 -2.526771293513611 -1.9625675030567902 -4.234820013583589 0 0 0
87 19 4 -2.2188733810784065 -2.171450543915171 -4.134614923835392 0 0 0
85 19 2 -1.7980604994461817 -2.0180178473595807 -3.912410229286251 0 0 0
157 43 2 -2.686225398806809 -2.546679795655958 -3.5932688179269174 0 0 0
949 307 2 -0.7679285712031498 -1.6491584510092399 -4.233316107536489 0 0 0
86 19 4 -1.3772476178139568 -1.8645851508039908 -3.69020553473711 0 0 0
117 29 4 -0.30191605025008544 -1.741466177882891 -5.000482260045414 0 0 0
950 307 4 -0.46950270892221535 -1.627190803389331 -4.633889979848373 0 0 0
5 1 3 -6.346862206159267 -0.38117294848292144 -4.191204052898497 0 0 0
524 165 4 -6.028538081011452 -0.6129669401443383 -4.03979259019789 0 0 0
795 255 4 -6.3939071272759085 -0.7812183914045341 -4.078142106515783 1 0 0
523 165 2 -5.546061298923646 -0.5680834170368937 -4.163087456674776 0 0 0
525 165 4 -5.06358451683584 -0.5231998939294489 -4.286382323151662 0 0 0
164 45 4 -0.07732989190149825 -4.273536097630713 -4.590909180636248 0 0 0
232 68 2 -4.511553343559355 -0.06874631514378338 -4.59561021082641 0 0 0
234 68 4 -4.6768731462893935 -0.4323798798277367 -4.294877782477127 0 0 0
145 39 2 -2.8294242792478705 -1.601215634885079 -4.4016312769767065 0 0 0
225 65 4 -3.1427896629477354 -1.1686622470808414 -4.967463792095136 0 0 0
146 39 4 -3.1320772649821302 -1.2398637667133678 -4.568442540369824 0 0 0
108 26 4 -2.915784328875363 -0.9395338234718889 -4.755926045881288 0 0 0
106 26 2 -2.87872974223185 -0.44099983107261365 -4.746396301346789 0 0 0
972 314 4 -0.09139639501917207 -1.728967874512235 -4.688810315345786 0 0 0
951 307 4 -1.0663544334840842 -1.6711260986291487 -3.832742235224605 0 0 0
197 56 4 -1.3856528258990635 -1.475854783218902 -3.687824038181117 0 0 0
162 44 4 -6.523865138767354 -5.660833399449179 -3.2021109928102005 0 0 0
207 59 4 -6.322324457544475 -5.528341757508744 -2.879994398353393 0 0 0
205 59 2 -5.8684047498274 -5.572124675639604 -2.674957925925612 0 0 0
206 59 4 -5.414485042110325 -5.615907593770464 -2.469921453497831 0 0 0
203 58 4 -6.68604529298772 -5.376362739566393 -2.9304695377980066 0 0 0
236 69 4 -6.641995817226929 -5.7448991381462875 -2.833361981892223 0 0 0
952 308 2 -6.319121687556159 -4.1815475576351755 -2.107143684958169 1 0 0
954 308 4 -5.881336749840653 -4.195708473296932 -1.8660133949144941 1 0 0
102 24 4 -5.504377806245481 -4.287099568267968 -1.9189255816252704 0 0 0
202 58 2 -6.780192584199697 -4.938915318017882 -2.707364089773516 0 0 0
953 308 4 -6.756906625271664 -4.167386641973418 -2.3482739750018435 1 0 0
100 24 2 -5.246807852615595 -3.8605398377919706 -1.8776398053426469 0 0 0
13 3 3 -2.7566902376600786 -3.9175350972366214 -3.2219840493743206 0 0 0
11 3 1 -2.4353913552805073 -3.5859233569509903 -3.2678172457065426 0 0 0
14 3 3 -2.0749188735012996 -3.67508614881627 -2.9895914625260795 0 0 0
179 50 4 -1.7124835925899147 -3.5683870502614576 -3.1261654896532285 0 0 0
114 28 4 -3.689363502517461 -2.538450315850528 -2.0770539227028224 0 0 0
80 17 4 -3.806995754600782 -2.8831870965141175 -1.9208430883717797 0 0 0
79 17 2 -4.2806918759290085 -3.0329702696921896 -1.9772078439503413 0 0 0
112 28 2 -3.639632312640733 -2.1146152060063232 -1.8164956597047939 0 0 0
131 34 4 -3.529740920597341 -2.9118816898804587 -2.208758084751759 0 0 0
81 17 4 -4.754387997257235 -3.182753442870262 -2.033572599528903 0 0 0
159 43 4 -2.781143490586976 -2.832469849515796 -3.194126486210187 0 0 0
130 34 2 -3.151734972395405 -2.9675751742814707 -2.5312634938837966 0 0 0
132 34 4 -2.7737290241934685 -3.0232686586824826 -2.8537689030158346 0 0 0
15 3 3 -2.614859648579268 -3.180327698586293 -3.1644572262802395 0 0 0
98 23 4 -1.8625892415441558 -3.3590077823514513 -2.82372137652906 0 0 0
97 23 2 -1.9089737359944023 -3.171093083359604 -2.362704517209033 0 0 0
99 23 4 -1.9553582304446488 -2.983178384367757 -1.9016876578890058 0 0 0
208 60 2 -1.526590320285758 -2.2289659141370888 -1.7135734081562384 0 0 0
210 60 4 -1.8194695866959731 -2.6325575504341083 -1.7501182630337255 0 0 0
175 49 2 -3.1985299477552553 -1.1241395011780402 -2.051861261757366 0 0 0
176 49 4 -2.976140931428905 -0.909677926591722 -2.4449889235198863 0 0 0
440 137 4 -2.575722989321249 -0.8550016384877278 -2.3871652447940126 0 0 0
439 137 2 -2.0783154151225305 -0.8982264699948656 -2.4139480577643817 0 0 0
892 288 2 -1.0365862529082188 -1.2967663411939039 -2.1257963883270232 0 0 0
894 288 4 -0.8759652098947031 -1.600525161097513 -1.7625726833303084 0 0 0
196 56 2 -1.4098414143773663 -1.2461741779016704 -3.2443584456852 0 0 0
441 137 4 -1.5809078409238118 -0.9414513015020032 -2.4407308707347513 0 0 0
541 171 2 -1.0936247806425197 -0.2845914798002447 -2.7576445896602437 0 0 0
198 56 4 -1.434030002855669 -1.0164935725844388 -2.800892853189283 0 0 0
542 171 4 -1.3707669781891172 -0.665752102347774 -2.5905853721405334 0 0 0
893 288 4 -1.1972072959217346 -0.9930075212902949 -2.4890200933237376 0 0 0
101 24 4 -4.989237898985708 -3.4339801073159726 -1.8363540290600235 0 0 0
195 55 4 -2.6967457644719994 -3.5447445551203094 -0.558738246848819 0 0 0
166 46 2 -2.260597624804944 -3.1651005044448675 -1.2077746592424539 0 0 0
167 46 4 -2.5252907530581545 -3.449620630052781 -0.893154497811041 0 0 0
168 46 4 -1.9959044965517339 -2.880580378836954 -1.5223948206738667 0 0 0
193 55 2 -2.8879361192739137 -3.474329958806145 -0.1021333488720488 0 0 0
209 60 4 -1.2337110538755431 -1.8253742778400692 -1.677028553278751 0 0 0
408 126 4 -6.647439517618055 -0.8626979904598913 -0.4248831784196929 0 0 0
406 126 2 -6.2100928920577605 -0.8790767854170315 -0.18309884438021734 0 0 0
177 49 4 -3.4209189640816056 -1.3386010757643583 -1.658733599994846 0 0 0
307 93 2 -3.929136741162256 -1.1652976287336423 -0.9747421735005375 0 0 0
673 215 2 -4.905032312630162 -0.9316475871309926 -0.13665724829656062 0 0 0
308 93 4 -3.6824217673120825 -1.3388408632862978 -1.3735083548893763 0 0 0
494 155 4 -4.073487885839002 -1.053651075820334 -0.18985864922499118 0 0 0
113 28 4 -3.589901122764005 -1.6907800961621187 -1.5559373967067656 0 0 0
675 215 4 -4.43002425070598 -0.9221500058979353 -0.29246847079881766 0 0 0
309 93 4 -4.1758517150124295 -0.9917543941809868 -0.5759759921116986 0 0 0
242 71 4 -5.724727708846179 -4.917010900551644 -0.05021470485880705 0 0 0
1315 429 2 -0.5004826741399523 -0.050105313988111654 -6.789665364831842 0 0 0
349 107 2 -5.693383144313254 -6.154101283040295 1.2715715105732786 0 0 0
350 107 4 -5.414303445396813 -6.145641113748341 0.856790909305112 0 0 0
218 63 4 -5.537301283579661 -6.090963489174104 0.48203382123129523 0 0 0
609 193 4 -5.374872065546686 -6.440605099230255 0.5836692132405736 0 1 0
217 63 2 -5.721965251163291 -5.679459137972403 0.26624830731193255 0 0 0
219 63 4 -5.90662921874692 -5.267954786770702 0.050462793392569844 0 0 0
1174 382 2 -6.7404216978447895 -5.999823952497705 1.5776938965133982 1 0 0
645 205 4 -6.233393711562524 -0.01336440816242035 1.2772559797670175 0 0 0
257 76 4 -5.154591693416642 -6.141570351283534 0.5745241892710887 0 0 0
256 76 2 -4.685892660991651 -5.977756972195 0.6335698820445073 0 0 0
258 76 4 -4.21719362856666 -5.813943593106465 0.6926155748179251 0 0 0
422 131 4 -4.224548881242011 -5.5057972392350525 0.9115379526460807 0 0 0
376 116 2 -3.474383933369015 -5.929222143225694 0.6549637698824597 0 0 0
377 116 4 -3.8662353774476204 -5.621891154714884 0.6996863511345877 0 0 0
421 131 2 -4.180765678839809 -5.01594203040806 1.0016762107402966 0 0 0
636 202 4 -3.1121170975221943 -6.616334790749771 0.7753430350401369 0 1 0
378 116 4 -3.0825324892904105 -6.236553131736503 0.610241188630332 0 0 0
243 71 4 -5.088496428778812 -4.17831670066921 0.1723625566042934 0 0 0
241 71 2 -5.406612068812495 -4.547663800610428 0.06107392587274264 0 0 0
605 192 4 -5.165758994794079 -4.017460324345216 0.5453425652669306 0 1 0
604 192 2 -4.785066549441048 -4.130824880938393 0.8490228895547272 0 1 0
423 131 4 -4.136982476437607 -4.5260868215810675 1.0918144688345124 0 0 0
365 112 4 -4.076469161994863 -4.151558980250592 0.9566843359599282 0 0 0
606 192 4 -4.404374104088016 -4.24418943753157 1.1527032138425242 0 1 0
321 97 4 -4.075048046893567 -4.2461414795413885 1.3308778858160353 0 0 0
364 112 2 -3.7030776703670014 -3.863639965352159 0.7903069491583626 0 0 0
366 112 4 -3.329686178739139 -3.575720950453726 0.6239295623567971 0 0 0
194 55 4 -3.079126474075828 -3.403915362491981 0.35447154910472123 0 0 0
426 132 4 -2.9457202509287366 -3.4936936280802366 0.7173449804445838 0 0 0
302 91 4 -0.1189363573406664 -4.530393043171866 0.0332144155674618 0 0 0
276 82 4 -5.424126350833783 -2.0534189038831165 0.6874483657922951 0 0 0
1049 340 4 -5.539459988673667 -2.3672526338148923 0.8910070623956179 1 0 0
1048 340 2 -5.952753615735 -2.4490427020167354 1.160263004899245 1 0 0
359 110 4 -5.171780361867659 -2.347796402148404 0.8140137620278277 0 0 0
1050 340 4 -6.366047242796333 -2.530832770218579 1.429518947402872 1 0 0
1125 365 4 -6.6044214805350085 -2.6157787932426233 1.7192489639217614 1 0 0
358 110 2 -4.673282055739845 -2.3129772480041138 0.8309567633059887 0 0 0
277 83 2 -3.5254502454179164 -2.8248843358059337 0.7690024258321383 0 0 0
360 110 4 -4.174783749612031 -2.2781580938598234 0.8478997645841501 0 0 0
278 83 4 -3.8233676410590673 -2.43996806752372 0.8833907634629052 0 0 0
279 83 4 -3.2275328497767655 -3.2098006040881475 0.6546140882013713 0 0 0
424 132 2 -2.632525082008196 -3.382569141005793 1.090922461748396 0 0 0
425 132 4 -2.3193299130876555 -3.2714446539313493 1.4644999430522079 0 0 0
315 95 4 -2.23316099586352 -2.875928946933718 1.4930313278294765 0 0 0
313 95 2 -2.3396317937021056 -2.3994715752001388 1.6009773427098304 0 0 0
314 95 4 -2.4461025915406913 -1.92301420346656 1.7089233575901843 0 0 0
293 88 4 -2.0419518595038695 -3.124379549538206 1.7046529303328843 0 0 0
274 82 2 -5.510892390376995 -1.5984739206081682 0.4990426424849483 0 0 0
288 86 4 -5.553947877383888 -0.7533677806633313 0.35145492918659466 0 0 0
286 86 2 -5.738755900217941 -0.457146461949698 0.7093640308250946 0 0 0
287 86 4 -5.9235639230519945 -0.16092514323606466 1.0672731324635947 0 0 0
417 129 4 -6.175416268141651 -0.39930436182865753 1.2408336230232457 0 0 0
570 180 4 -6.322614094825063 -0.19252672332341375 0.9323498115916755 0 0 0
275 82 4 -5.597658429920207 -1.1435289373332198 0.31063691917760156 0 0 0
415 129 2 -6.321676780952419 -0.7350714352133118 1.5812280043266427 0 0 0
407 126 4 -5.772746266497465 -0.8954555803741716 0.058685489659258405 0 0 0
674 215 4 -5.380040374554344 -0.9411451683640498 0.01915397420569645 0 0 0
493 155 2 -3.865666951412667 -1.1444598135618005 0.2557468179359134 0 0 0
774 248 4 -3.8024865052121 -0.8559573581355685 0.8110988058328544 0 0 0
772 248 2 -3.9764825817074665 -0.7381732262489287 1.2648082543120813 0 0 0
495 155 4 -3.6578460169863316 -1.2352685513032673 0.7013522850968179 0 0 0
351 107 4 -5.972462843229694 -6.162561452332248 1.6863521118414453 0 0 0
1175 382 4 -6.352529451344415 -6.264157538053732 1.7499360535236772 1 0 0
290 87 4 -6.073331396587508 -6.499765231182192 1.865456813302314 0 0 0
420 130 4 -6.1237213427275075 -6.188451459444013 2.0751295062790627 0 0 0
418 130 2 -6.063159041866151 -5.835285583099366 2.423850127263366 0 0 0
419 130 4 -6.002596741004795 -5.48211970675472 2.77257074824767 0 0 0
246 72 4 -5.938647220508606 -5.2478516756631475 3.0821270773291647 0 0 0
332 101 4 -6.318064703136796 -5.344978906844386 2.95121555873566 0 0 0
413 128 4 -4.637497090090257 -4.837625382897224 2.977757152372762 0 0 0
317 96 4 -0.10064399164792681 -5.479582830268683 3.3658952145971828 0 0 0
1317 429 4 -0.07206652262316171 -0.17756397456011305 6.582308073084405 0 0 -1
74 15 3 -0.051254036830128 -6.429510161439778 3.397339936783399 0 1 0
331 101 2 -6.600424867849289 -4.933949945360043 2.9147747820665546 0 0 0
244 72 2 -5.47930195758873 -5.0844998031438715 2.9711401628857566 0 0 0
319 97 2 -3.9389323946404367 -4.12694992961638 1.7969957932571479 0 0 0
412 128 2 -4.3553271908274604 -4.508977282037373 2.7280161390194912 0 0 0
414 128 4 -4.073157291564664 -4.180329181177521 2.4782751256662205 0 0 0
320 97 4 -3.802816742387306 -4.007758379691371 2.2631137006982605 0 0 0
260 77 4 -3.745744281240052 -3.9861004191933787 2.6462974908681858 0 0 0
259 77 2 -3.378401629337386 -4.073787418479506 2.973971667832157 0 0 0
245 72 4 -5.019956694668854 -4.921147930624595 2.860153248442349 0 0 0
261 77 4 -3.01105897743472 -4.1614744177656355 3.3016458447961283 0 0 0
322 98 2 -2.2616899461129596 -3.9444032215831175 3.0660348297028492 0 0 0
324 98 4 -1.9167003873067336 -3.668640056420861 2.8316486503872635 0 0 0
294 88 4 -1.78430367501836 -3.730989048060619 2.4567448990005323 0 0 0
374 115 4 -1.615472172668062 -3.4703538187853247 2.702237215462352 0 0 0
292 88 2 -1.9131277672611149 -3.4276842987994125 2.080698914666708 0 0 0
1128 366 4 -6.498916827083951 -2.2358518726172036 1.7072605918579864 1 0 0
1126 366 2 -6.452345580597678 -1.7992204428985714 1.94639259218846 1 0 0
373 115 2 -1.3863782768325155 -3.278643718148839 3.103190110706611 0 0 0
416 129 4 -6.467937293763188 -1.0708385085979661 1.9216223856300396 0 0 0
335 102 4 -6.339990949980171 -0.9849787518567368 2.262508268237251 0 0 0
334 102 2 -6.312387397277876 -0.7223789133872908 2.6871014484868847 0 0 0
336 102 4 -6.28478384457558 -0.4597790749178448 3.1116946287365184 0 0 0
1127 366 4 -6.405774334111405 -1.3625890131799387 2.185524592518934 1 0 0
773 248 4 -4.150478658202832 -0.6203890943622885 1.718517702791308 0 0 0
638 203 4 -4.116748458089969 -0.5449256992256352 2.1081177369170465 0 0 0
637 203 2 -4.2317256724967125 -0.49714341516010757 2.592366736396266 0 0 0
639 203 4 -4.346702886903457 -0.44936113109458004 3.0766157358754853 0 0 0
719 230 4 -4.320433202968793 -0.3054403732695091 1.8815257961900185 0 0 0
380 117 4 -2.2238038606397694 -1.6307945917714441 1.923841793895272 0 0 0
346 106 2 -2.0149302212728712 -0.7962437625277136 3.240451024614739 0 0 0
379 117 2 -2.235831307632886 -1.2116573112617226 2.196200529032813 0 0 0
381 117 4 -2.247858754626002 -0.7925200307520011 2.4685592641703535 0 0 0
347 106 4 -1.954931543503233 -0.7247394357685888 2.7492409983324575 0 0 0
323 98 4 -2.606679504919185 -4.220166386745374 3.3004210090184345 0 0 0
268 80 2 -3.2399142768141753 -3.762887686101944 5.028757812402093 0 0 0
270 80 4 -3.106105272977144 -4.2000350876523385 4.826279912843297 0 0 0
389 120 4 -2.9731301525568843 -4.5307855876748855 4.998349918671835 0 0 0
266 79 4 -2.840085978815053 -4.32405029756969 3.6049814140601235 0 0 0
267 79 4 -2.943161695984893 -4.479083278774771 4.587498676641004 0 0 0
265 79 2 -2.8916238373999734 -4.4015667881722305 4.096240045350564 0 0 0
311 94 4 -0.8350810760431522 -3.8838346120912495 4.541583171826927 0 0 0
77 16 4 -0.6813830644367525 -4.242117751861452 4.682954199424438 0 0 -1
76 16 2 -0.3660212094213388 -4.620204441358195 4.595791388392771 0 0 -1
354 108 4 -0.4634426883439967 -3.9045299467362145 4.726869206812459 0 0 0
310 94 2 -0.9737553336690176 -3.5379422370139406 4.208224633410401 0 0 0
78 16 4 -0.05065935440592512 -4.998291130854938 4.508628577361104 0 0 -1
327 99 4 -1.939903567186058 -1.9099241232977102 4.456044036765747 0 0 0
248 73 4 -1.7273008805537806 -2.139427207123419 4.234900333697477 0 0 0
375 115 4 -1.1572843809969688 -3.086933617512353 3.50414300595087 0 0 0
368 113 4 -0.8362557739997982 -3.0129730776160972 3.661853353683156 0 0 0
312 94 4 -1.112429591294883 -3.1920498619366313 3.874866094993875 0 0 0
247 73 2 -1.440216079804031 -2.4728411805637625 3.9973767780384155 0 0 0
367 113 2 -0.40470175115279994 -2.764284996542053 3.705618221970281 0 0 0
249 73 4 -1.1531312790542818 -2.8062551540041056 3.7598532223793537 0 0 0
1422 464 4 -6.190460750274447 -0.22095518307429346 3.4022986063394463 1 0 0
997 323 2 -5.323843527596225 -1.3643832512959235 4.604224107383233 1 0 0
1499 490 4 -6.5390195286796216 -0.394191406156031 3.399386835148693 1 0 0
999 323 4 -5.200612024576137 -1.180524495752318 4.155882770148727 1 0 0
1025 332 4 -6.198755894091124 -0.595540333514143 3.479780373627866 1 0 0
1026 332 4 -5.4680358099560085 -1.1634947821742359 3.8585625047882552 1 0 0
1024 332 2 -5.833395852023567 -0.8795175578441893 3.6691714392080605 1 0 0
1428 466 4 -5.090615333679299 -1.1619471905659065 3.762617011522138 1 0 0
998 323 4 -5.447075030616313 -1.548242006839529 5.052565444617739 1 0 0
1394 455 4 -4.368707628414605 -0.15297918382942877 3.340448309934812 1 0 0
602 191 4 -4.050022910599035 -0.3783057403546238 3.3252954025235812 0 0 0
1427 466 4 -4.3779386792920825 -0.5212049329941708 3.477062558476805 1 0 0
1426 466 2 -4.734277006485691 -0.8415760617800386 3.6198397849994715 1 0 0
601 191 2 -3.6391335416959274 -0.2677782307380784 3.5878855701617582 0 0 0
603 191 4 -3.22824417279282 -0.157250721121533 3.8504757377999352 0 0 0
325 99 2 -2.0026537455119553 -1.4441124791924427 4.285509795817177 0 0 0
348 106 4 -2.074928899042509 -0.8677480892868381 3.7316610508970203 0 0 0
326 99 4 -2.0654039238378523 -0.9783008350871751 4.1149755548686064 0 0 0
384 118 4 -2.152510963122076 -0.6150018021656788 4.014716419524125 0 0 0
382 118 2 -2.6141652419889723 -0.4440505804416871 4.102186452071255 0 0 0
714 228 4 -1.7898433488615224 -0.7408529225267029 3.9688242194274044 0 0 0
383 118 4 -3.075819520855869 -0.2730993587176953 4.189656484618385 0 0 0
712 228 2 -1.3710455004434263 -0.5296629025413258 4.142049903488599 0 0 0
713 228 4 -0.9522476520253307 -0.31847288255594874 4.315275587549793 0 0 0
352 108 2 -0.03798487015710144 -3.6430797312726573 4.751957645946613 0 0 0
187 53 2 -3.993461909347118 -6.680639113339878 6.635906943799309 0 0 -1
410 127 4 -3.8720493568248573 -5.7966106748513955 6.499562838559628 0 0 0
409 127 2 -3.585557068050683 -5.4101373783319575 6.363325694026868 0 0 0
411 127 4 -3.299064779276509 -5.023664081812519 6.227088549494106 0 0 0
395 122 4 -6.781721145111073 -4.21113072768949 2.6188792252111597 0 0 0
155 42 4 -0.04094743203618889 -5.983870964351777 5.837869338911362 0 0 -1
1030 334 2 -6.70700211182044 -4.371501227930638 6.675913615938532 1 0 0
1148 373 4 -5.422475925546104 -3.6514911247827957 6.6827817460659364 1 0 0
388 120 2 -3.0454234189302367 -4.775367877362385 5.428411759815623 0 0 0
390 120 4 -3.117716685303589 -5.019950167049884 5.858473600959412 0 0 0
284 85 4 -3.0498234466282454 -4.730521084436417 6.118933427192239 0 0 0
283 85 2 -2.913540331153369 -4.452796258743513 6.511738510700919 0 0 0
10 2 3 -2.6304752772980917 -3.8938329434293832 6.661557302007386 0 0 -1
810 260 4 -0.44398327286885925 -3.3706791378979832 6.722106769280654 0 0 -1
264 78 4 -5.367181571712396 -3.5311625907682216 6.299863489031894 0 0 0
660 210 4 -5.480375102491934 -1.8698772390004295 5.245241674851837 0 0 0
356 109 4 -3.746002225803987 -3.29123711172337 5.407958591764209 0 0 0
658 210 2 -5.14184383055898 -2.1654659976381416 5.464385152259516 0 0 0
262 78 2 -5.116698725107306 -3.1421639943487576 6.110289135439331 0 0 0
659 210 4 -4.8033125586260255 -2.461054756275854 5.683528629667196 0 0 0
263 78 4 -4.866215878502216 -2.753165397929293 5.920714781846767 0 0 0
127 33 2 -4.271179832790621 -2.2071384366326274 6.28826717246972 0 0 -1
355 109 2 -4.126315495169724 -3.004305607464706 5.559721989882376 0 0 0
357 109 4 -4.506628764535462 -2.7173741032060423 5.711485388000543 0 0 0
129 33 4 -4.604240111807429 -2.471600712416287 6.025340271548687 0 0 -1
128 33 4 -3.9381195537738143 -1.9426761608489682 6.551194073390752 0 0 -1
716 229 4 -3.705019388599528 -1.6381096192536466 6.546236962634597 0 0 0
269 80 4 -3.3737232806512067 -3.325740284551549 5.231235711960888 0 0 0
330 100 4 -3.414993002160107 -3.4447116481106557 5.597605499408756 0 0 0
328 100 2 -3.1990760045463067 -3.2628648887561402 6.010293767056159 0 0 0
329 100 4 -2.9831590069325054 -3.081018129401625 6.422982034703562 0 0 0
90 20 4 -2.965198808099914 -2.7830969876074847 6.700455189130045 0 0 -1
88 20 2 -3.2549195394068233 -2.3769130222394677 6.667645371560245 0 0 -1
808 260 2 -0.17543435747720326 -3.078573845339633 6.417876629252794 0 0 -1
771 247 4 -6.319600588837966 -1.0913462096879185 5.863790504529042 0 0 0
769 247 2 -6.0724845737969995 -1.385499684398647 5.543778929072906 0 0 0
770 247 4 -5.825368558756032 -1.6796531591093762 5.22376735361677 0 0 0
171 47 4 -6.703653747331308 -1.2106721988021683 5.9176980138925686 0 0 -1
715 229 2 -3.399071743390208 -1.2783240654081325 6.38207121214123 0 0 0
271 81 2 -2.5001048688547916 -0.27300776680346905 6.116353915265856 0 0 0
717 229 4 -3.0931240981808874 -0.9185385115626181 6.217905461647861 0 0 0
272 81 4 -2.8980107603438006 -0.5697921352080112 6.176270024858605 0 0 0
1121 364 4 -6.724556913478768 -2.3395555384239146 1.4164144913425831 1 0 0
568 180 2 -6.7818809627266425 -0.2304555092734331 0.7383514836504198 0 0 0
188 53 4 -3.9378551899956866 -6.185108892857422 6.599060053135572 0 0 -1
89 20 4 -3.5446402707137326 -1.9707290568714506 6.634835553990447 0 0 -1
9 2 3 -2.798524855432015 -3.1677208473096825 6.76842433694989 0 0 -1
174 48 4 -5.378738948399751 1.155638347263414 -6.466650691063517 0 0 0
172 48 2 -5.468677929159535 1.1820170009365432 -5.975514104795911 0 0 0
173 48 4 -5.558616909919319 1.208395654609673 -5.484377518528305 0 0 0
485 152 4 -5.291780230137643 1.4310949847200118 -6.70370528733427 0 0 0
2 1 3 -6.662670674021165 0.05300411224509279 -4.709620190344198 0 0 0
563 178 4 -5.295774058130336 1.0568829109579971 -5.216651764804637 0 0 0
1244 405 4 -5.81046111977138 1.4592085598814 -5.322875125125677 1 0 0
536 169 4 -5.422231695328372 1.4540533326766427 -5.2155284173684215 0 0 0
562 178 2 -4.854698502640278 0.8256552854038267 -5.172085639441592 0 0 0
453 141 4 -2.1454556197677377 0.6180115639441222 -5.7184583271069975 0 0 0
461 144 4 -1.7949470281672117 0.4648017014299375 -5.786303269584238 0 0 0
585 185 4 -1.8780524745164862 0.8459707799930101 -5.9371421775055016 0 0 0
451 141 2 -2.405501078386803 0.48576532524161353 -5.31239516477773 0 0 0
583 185 2 -1.675570351086103 1.278033248124931 -5.7877332978399405 0 0 0
527 166 4 -3.311407567476104 1.7008645288373467 -6.747299877381077 0 0 0
460 144 2 -1.5433487647874298 0.22179802807164736 -6.143581212645841 0 0 0
123 31 4 -6.73595954712342 5.296467941136409 -1.0643715983956137 0 -1 0
1316 429 4 -0.9288988256567432 0.07735334658388993 -6.56558080274809 0 0 0
1245 405 4 -6.648798123052666 1.984224879050459 -5.469670675249057 1 0 0
1243 405 2 -6.229629621412023 1.7217167194659297 -5.396272900187367 1 0 0
119 30 4 -4.340523926733356 5.209517093089573 -0.35538338489790744 0 -1 0
1256 409 4 -0.1448794179024064 4.358219041942571 -4.505510068997669 0 0 0
593 188 4 -1.2662027073304685 3.604966973220245 -1.3298425785835228 0 0 0
526 166 2 -3.7851951806010424 1.8411960875123607 -6.670930045060537 0 0 0
528 166 4 -4.2589827937259805 1.9815276461873745 -6.594560212739997 0 0 0
669 213 4 -4.438356508369943 2.328843847743048 -6.636571136619186 0 0 1
592 188 2 -1.6011621188246452 3.924558619310376 -1.140995094087205 0 0 0
594 188 4 -1.9361215303188222 4.244150265400507 -0.9521476095908867 0 0 0
584 185 4 -1.47308822765572 1.710095716256852 -5.6383244181743795 0 0 0
1342 438 2 -0.7697232633845625 2.189771240464851 -5.531969976729185 0 0 0
1343 438 4 -0.3956136357952214 2.445265233160054 -5.3203930256179 0 0 0
1217 396 4 -0.02475276324440573 2.593872697908779 -5.439025819022431 0 0 0
1344 438 4 -1.1438328909739037 1.9342772477696484 -5.74354692784047 0 0 0
588 186 4 -0.1164929183467119 2.5332579282812486 -5.048456427668137 0 0 0
1339 437 2 -6.646582052148021 4.709175121067 -6.701950866499043 1 0 0
600 190 4 -4.024719413097508 4.066476585683594 -6.186730267483483 0 0 0
430 134 2 -4.544797473620393 4.722226411307946 -6.295716665332101 0 0 0
432 134 4 -4.345475140524631 4.264536480858787 -6.323833121261494 0 0 0
598 190 2 -3.7570427779620266 4.169120798844263 -5.777079947689334 0 0 0
23 5 3 -4.008074158589562 4.190260004408335 -6.552570323270002 0 0 0
538 170 2 -3.629611196886614 5.024971832204195 -5.088423467155435 0 0 0
599 190 4 -3.4893661428265452 4.2717650120049315 -5.367429627895185 0 0 0
531 167 4 -3.137933084172528 4.38761295273653 -5.497013825495999 0 0 0
529 167 2 -2.679835148697605 4.564423763300361 -5.591269959414317 0 0 0
539 170 4 -3.3665655795198544 4.628219936150252 -5.241377499995294 0 0 0
470 147 4 -3.2022167003416877 4.305906877733115 -5.112712009789004 0 0 0
530 167 4 -2.221737213222682 4.741234573864192 -5.685526093332637 0 0 0
456 142 4 -2.0474711805575905 4.888874351425745 -5.357615505859885 0 0 0
444 138 4 -1.8333366151725947 4.828742315717217 -5.70132793739384 0 0 0
558 176 4 -0.6490635084771549 4.669855037165252 -5.678753524093185 0 0 0
534 168 4 -0.5186804841341432 4.558928243908684 -6.05538098915828 0 0 0
443 138 4 -0.8815646071535922 4.737314704919227 -5.994194864060823 0 0 0
442 138 2 -1.3574506111630933 4.783028510318221 -5.8477614007273315 0 0 0
532 168 2 -0.13083051604957896 4.455680951989958 -6.3535628111535445 0 0 0
226 66 2 -5.478516640836548 5.3043899089252005 -6.403228528239055 0 -1 0
228 66 4 -5.900289754641564 5.191476459611197 -6.6468634876253745 0 -1 0