LAMMPS data file via write_data, version 29 Aug 2024, timestep = 2000000, units = lj

1530 atoms
4 atom types
1030 bonds
1 bond types

-6.798029 6.798029 xlo xhi
-6.798029 6.798029 ylo yhi
-6.798029 6.798029 zlo zhi

Masses

1 10
2 10
3 10
4 10

Bond Coeffs # zero

1 0

Atoms # bond

87 19 4 -5.798680360713047 -5.7191079235474485 -5.274643868575102 0 0 0
109 27 2 -5.143078601986593 -5.647998396114645 -6.161692120823197 0 0 0
110 27 4 -5.335188045896051 -6.071371325570311 -6.345673979072165 0 0 0
830 267 4 -6.684320601906746 -5.604349311142404 -6.105190652450865 1 0 0
111 27 4 -4.950969158077135 -5.224625466658981 -5.977710262574229 0 0 0
145 39 2 -3.0095474469403505 -5.774724553581091 -5.459049935812909 0 0 0
147 39 4 -3.3575426954547125 -5.606510387453522 -5.776230170578134 0 0 0
180 50 4 -2.0263212001069992 -5.869213636679569 -6.3837951181675585 0 0 0
136 36 2 -0.37736659983478327 -6.077839425847385 -5.360950671858822 0 0 0
137 36 4 -0.211807290316365 -6.387108105753606 -5.71724128169989 0 0 0
178 50 2 -1.5275452514108687 -5.845656486673418 -6.357956896762955 0 0 0
179 50 4 -1.0287693027147382 -5.822099336667267 -6.332118675358351 0 0 0
169 47 2 -6.289096221815046 -3.9738541859553127 -5.56947628433457 0 0 0
170 47 4 -5.821044571432158 -3.805698043205272 -5.6209657417931655 0 0 0
171 47 4 -6.757147872197934 -4.142010328705354 -5.517986826875975 0 0 0
402 124 4 -6.494065330917856 -4.543054395566192 -6.689363408046621 0 0 1
488 153 4 -4.516733320492421 -0.057712600941794756 -1.7141803913245033 0 0 0
228 66 4 -4.576042292986721 -3.8279795714682674 -5.227607168274329 0 0 0
293 88 4 -4.396575834908392 -4.421314378407377 -6.70248241333438 0 0 1
118 30 2 -3.1717205886093596 -4.625559725662143 -5.407390951224399 0 0 0
120 30 4 -3.1668785389833123 -4.466907900084781 -5.881528223326511 0 0 0
82 18 2 -0.4017214092118267 -3.953376687748464 -5.675838639521634 0 0 0
83 18 4 -0.19441912500639782 -4.393737368358544 -5.561347443633348 0 0 0
84 18 4 -0.6090236934172556 -3.513016007138383 -5.790329835409919 0 0 0
344 105 4 -1.4401407689677845 -4.977392683594155 -6.7373042213996 0 0 1
81 17 4 -6.601800887434688 -3.3548935942631117 -6.789261255102547 0 0 0
79 17 2 -6.346046478893746 -3.04877067942599 -6.487800737748538 0 0 0
80 17 4 -6.090292070352804 -2.742647764588868 -6.186340220394529 0 0 0
100 24 2 -5.2466746158100905 -2.5641262982854256 -5.15598614313679 0 0 0
217 63 2 -6.112911166457947 -1.8083444072584132 -6.45559659899719 0 0 0
219 63 4 -6.594036964651838 -1.9126369764294169 -6.5430095632982095 0 0 0
102 24 4 -4.781254768340594 -2.590075029127097 -5.3368480488800065 0 0 0
423 131 4 -4.869425295725813 -3.217510129046408 -6.618485650905715 0 0 1
248 73 4 -2.532443252103644 -2.227410808923021 -5.420251855955242 0 0 0
225 65 4 -2.198962887963521 -3.105809063994941 -5.780242427690817 0 0 0
223 65 2 -1.7310110931979965 -2.9412010922380882 -5.842894908966777 0 0 0
224 65 4 -1.2630592984324722 -2.7765931204812353 -5.905547390242736 0 0 0
332 101 4 -1.6301430998978597 -1.7237955933716744 -6.527419899818722 0 0 1
218 63 4 -5.6317853682640555 -1.7040518380874092 -6.36818363469617 0 0 0
456 142 4 -6.11734665209068 -0.008513713544316459 -5.696460966789164 0 0 0
815 262 4 -6.484510657064215 -0.4677065536537134 -6.679827417732346 1 0 0
207 59 4 -3.730502557048104 -1.0564361317532294 -5.7518987392903504 0 0 0
341 104 4 -4.458338249314874 -0.8267298973728868 -6.702756520444449 0 0 1
205 59 2 -3.2762125978828265 -1.0345267094015442 -5.959601917439901 0 0 0
206 59 4 -2.821922638717549 -1.012617287049859 -6.167305095589452 0 0 0
130 34 2 -0.04780568816509563 -1.661472120715643 -1.0844368102802384 0 0 0
229 67 2 -2.3421940614578034 -0.14527602300245696 -5.116385299907899 0 0 0
117 29 4 -1.2418501951831442 -1.2223996124759262 -5.129495213051031 0 0 0
160 44 2 -0.408937862762948 -1.0690726244698219 -6.270672238856309 0 0 0
161 44 4 -0.4124439949694275 -1.565737051765552 -6.213120925262991 0 0 0
162 44 4 -0.4054317305564684 -0.5724081971740917 -6.328223552449628 0 0 0
85 19 2 -5.439352847502011 -5.61307959299194 -4.94352194032325 0 0 0
86 19 4 -5.080025334290975 -5.507051262436431 -4.612400012071398 0 0 0
146 39 4 -2.6615521984259884 -5.9429387197086605 -5.141869701047685 0 0 0
199 57 2 -2.939789781472424 -5.453854500824295 -3.739638617584924 0 0 0
200 57 4 -3.074493208480285 -5.933624548046848 -3.698703442732268 0 0 0
138 36 4 -0.5429259093532015 -5.7685707459411635 -5.004660062017754 0 0 0
246 72 4 -1.2632941549999903 -6.386679272072305 -4.343628955593431 0 0 0
244 72 2 -1.3779529795897723 -6.518046445789018 -3.875018222027324 0 0 0
245 72 4 -1.4926118041795537 -6.649413619505731 -3.406407488461216 0 0 0
124 32 2 -6.562880528171563 -3.3837202397736146 -4.527793494578671 0 0 0
126 32 4 -6.074089989142424 -3.4888469322938516 -4.52212009389464 0 0 0
153 41 4 -3.4279823844749107 -3.6504196865365626 -3.601017375982258 0 0 0
226 66 2 -4.206039033178043 -3.5501791637781985 -5.038069517085223 0 0 0
90 20 4 -1.771284396089444 -3.7677801554490586 -4.393563540009674 0 0 0
119 30 4 -3.1765626382354064 -4.784211551239505 -4.933253679122287 0 0 0
201 57 4 -2.8050863544645632 -4.974084453601741 -3.7805737924375804 0 0 0
88 20 2 -1.5363734242015248 -4.201852206685347 -4.473552849436778 0 0 0
89 20 4 -1.3014624523136058 -4.635924257921636 -4.553542158863881 0 0 0
101 24 4 -5.712094463279588 -2.5381775674437543 -4.975124237393573 0 0 0
236 69 4 -6.26451112702475 -1.84231162605353 -4.205439728582526 0 0 0
227 66 4 -3.836035773369365 -3.2723787560881297 -4.848531865896117 0 0 0
151 41 2 -3.36308307903489 -3.196783299628856 -3.801022647480875 0 0 0
209 60 4 -4.577972561766807 -2.579190414498583 -3.548112750398144 0 0 0
247 73 2 -2.5307688812867672 -1.9001738247331905 -5.042213296201913 0 0 0
152 41 4 -3.298183773594869 -2.743146912721149 -4.001027918979492 0 0 0
148 40 2 -1.0419010875437584 -2.0701078034135674 -3.7279229827741758 0 0 0
149 40 4 -0.6789801493713461 -2.125398706436419 -4.067380356650152 0 0 0
235 69 2 -5.958500272553809 -1.6975076879271942 -4.573392410933424 0 0 0
237 69 4 -5.652489418082867 -1.5527037498008585 -4.941345093284323 0 0 0
156 42 4 -5.487776243952693 -0.5773045014236547 -3.400639625299177 0 0 0
184 52 2 -4.460597927222759 -1.2536619031026548 -4.206836371413022 0 0 0
185 52 4 -3.9772610869774514 -1.3287663027285102 -4.103179109157297 0 0 0
186 52 4 -4.9439347674680665 -1.1785575034767994 -4.310493633668747 0 0 0
249 73 4 -2.5290945104698905 -1.5729368405433601 -4.664174736448584 0 0 0
183 51 4 -1.860744291848082 -0.08232016786540755 -3.6398430446893624 0 0 0
230 67 4 -2.6299522419789065 -0.32302174467198896 -4.748143955173849 0 0 0
115 29 2 -1.040205979881407 -1.0700204155332445 -4.698078719654531 0 0 0
116 29 4 -0.8385617645796696 -0.9176412185905625 -4.266662226258031 0 0 0
129 33 4 -1.0906564593630343 -0.41866791260427644 -1.2950322013878968 0 0 0
194 55 4 -5.410202162092798 -5.661893339754917 -1.7776785719350623 0 0 0
175 49 2 -4.210899884049613 -6.60823645995854 -1.975733583843688 0 0 0
176 49 4 -4.025758619604942 -6.144334847944041 -1.9529738261555591 0 0 0
190 54 2 -4.505222619893259 -5.446002321512226 -3.107455230328238 0 0 0
191 54 4 -4.957324379538554 -5.267764499537058 -2.9898317728760015 0 0 0
192 54 4 -4.053120860247963 -5.624240143487395 -3.225078687780475 0 0 0
142 38 2 -1.725799855696384 -5.388357461484882 -3.1085298382687743 0 0 0
143 38 4 -1.7702133481275364 -5.815841764328652 -2.8530213012052767 0 0 0
22 5 3 -0.9304792641575705 -6.653402705852455 -2.19622393538967 0 1 0
23 5 3 -1.6025874425830227 -6.583498526214723 -1.8671585890483808 0 1 0
91 21 2 -6.020340948121284 -3.4302525738413605 -2.6685035425687316 0 0 0
92 21 4 -5.54183533655196 -3.5716848119029465 -2.700586275205736 0 0 0
818 263 4 -6.483501801188251 -4.996990820807861 -2.7275649365316115 1 0 0
103 25 2 -3.6847147630207293 -3.9992595792109316 -1.8515001627805936 0 0 0
105 25 4 -4.166404807599333 -4.092222142538499 -1.7548944550133376 0 0 0
104 25 4 -3.2030247184421246 -3.9062970158833634 -1.9481058705478496 0 0 0
163 45 2 -2.1506177909539255 -4.386986201329782 -2.298868480772843 0 0 0
164 45 4 -1.833015034549177 -4.105396438981654 -2.5631329219398404 0 0 0
165 45 4 -2.4682205473586745 -4.668575963677909 -2.0346040396058456 0 0 0
133 35 2 -0.4546251960111157 -5.031515077697882 -1.8970887652771846 0 0 0
134 35 4 -0.374011022368855 -5.109523627826845 -2.3843423143814713 0 0 0
144 38 4 -1.6813863632652317 -4.960873158641113 -3.364038375332272 0 0 0
232 68 2 -0.33082896923143 -3.977056270583411 -3.1761239050535717 0 0 0
233 68 4 -0.16340731886294688 -3.5059376445233035 -3.180274949160337 0 0 0
234 68 4 -0.4982506195999131 -4.448174896643518 -3.1719728609468065 0 0 0
93 21 4 -6.498846559690607 -3.2888203357797745 -2.6364208099317272 0 0 0
121 31 2 -6.1130933451666065 -2.0950690094143893 -2.086646525321901 0 0 0
122 31 4 -6.114259612136992 -2.464572315928348 -1.749799458692785 0 0 0
123 31 4 -6.11192707819622 -1.7255657029004303 -2.4234935919510177 0 0 0
210 60 4 -5.001570287152476 -2.666014606687718 -2.6464329143710468 0 0 0
112 28 2 -4.523978375754746 -2.7762201542379654 -1.723248243354709 0 0 0
113 28 4 -4.103368590441297 -2.6580131844092993 -1.9663830224018999 0 0 0
208 60 2 -4.789771424459642 -2.6226025105931505 -3.0972728323845953 0 0 0
1 1 1 -2.6619874066809883 -2.61056174295121 -3.0516744962196523 0 0 0
2 1 3 -2.6057464596412117 -2.5418286796356013 -2.6003290388557265 0 0 0
3 1 3 -2.424707671824304 -2.9892845274360695 -3.176443803094786 0 0 0
4 1 3 -3.1136952027600167 -2.670690401000357 -3.1391079648821782 0 0 0
5 1 3 -2.506617417367633 -2.247904292424123 -3.279138207606097 0 0 0
140 37 4 -1.034320003097755 -2.17801299317502 -1.7442162267948047 0 0 0
150 40 4 -1.4048220257161705 -2.0148169003907155 -3.388465608898199 0 0 0
909 293 4 -0.30105184122863665 -2.4406527415170345 -2.90301218640252 0 0 0
154 42 2 -5.311759044442031 -0.5988290189561025 -2.933141346562814 0 0 0
155 42 4 -5.135741844931369 -0.6203535364885503 -2.465643067826451 0 0 0
6 2 1 -2.998043642374705 -0.15735650575153257 -1.8201730002435876 0 0 0
7 2 3 -3.2120420008245794 -0.007646244158425769 -2.198843754533541 0 0 0
9 2 3 -2.7141602856250246 -0.5056063005740947 -1.9360708870518342 0 0 0
128 33 4 -1.5921499546900533 -0.8224324014980918 -2.060197877338491 0 0 0
193 55 2 -5.551567231782702 -5.773926129364537 -1.3113476045701256 0 0 0
195 55 4 -5.692932301472606 -5.885958918974158 -0.8450166372051889 0 0 0
800 257 4 -6.612982270370316 -5.10747676266698 -0.8086046132216601 1 0 0
189 53 4 -3.6046293723421585 -6.487941789613787 -0.771700311216208 0 0 0
198 56 4 -4.080858725934266 -5.2350830027624236 -1.2183731539762026 0 0 0
187 53 2 -3.249293613252581 -6.267203772496848 -0.49781853724871683 0 0 0
188 53 4 -2.893957854163003 -6.046465755379909 -0.2239367632812258 0 0 0
240 70 4 -2.73881484840457 -6.283666583271223 -1.4993921443618885 0 0 0
238 70 2 -2.458997449977417 -6.555019092000507 -1.1862307809342083 0 0 0
1071 347 4 -0.3098703958647462 -5.64483673981621 -0.3275471614156815 0 0 0
159 43 4 -5.614012415884385 -3.4648351723980304 -0.3813941584403962 0 0 0
202 58 2 -5.599943917061242 -4.425538323374442 -1.507412652674159 0 0 0
203 58 4 -5.124212340796291 -4.283164268054137 -1.4490251907009613 0 0 0
204 58 4 -6.075675493326193 -4.567912378694747 -1.5658001146473566 0 0 0
196 56 2 -4.011024138670302 -4.811688230466531 -0.9617411271081582 0 0 0
197 56 4 -3.941189551406338 -4.388293458170639 -0.7051091002401138 0 0 0
76 16 2 -1.997356695169246 -4.677859920761851 -0.4168692831112295 0 0 0
78 16 4 -2.440103207499139 -4.902358382359187 -0.47666866906301836 0 0 0
77 16 4 -1.5546101828393533 -4.453361459164515 -0.35706989715944065 0 0 0
135 35 4 -0.5352393696533764 -4.953506527568918 -1.4098352161728982 0 0 0
167 46 4 -0.05919893126449991 -3.701810583576622 -1.3440932551722409 0 0 0
243 71 4 -1.5302945793690146 -3.8986827125657797 -1.4086923441673593 0 0 0
214 62 2 -0.5897535079037384 -3.421401867040254 -0.28211810501850204 0 0 0
216 62 4 -0.7507370553597945 -3.6946514271558275 -0.6686656122474719 0 0 0
157 43 2 -5.5930399652315925 -3.055445583566798 -0.09510702832411502 0 0 0
174 48 4 -5.598662776302531 -1.8997442352396885 -0.6522533223038138 0 0 0
106 26 2 -3.593338834768131 -2.695375863387051 -1.073632278924138 0 0 0
107 26 4 -3.9592417688251853 -2.760521672706497 -0.7391609552258642 0 0 0
114 28 4 -4.944588161068196 -2.8944271240666315 -1.4801134643075178 0 0 0
108 26 4 -3.227435900711078 -2.630230054067605 -1.4081036026224116 0 0 0
211 61 2 -2.6631100111409354 -3.073054570787048 -0.020274036541341068 0 0 0
213 61 4 -2.373687721237878 -3.199588163205008 -0.40786143068241465 0 0 0
168 46 4 -0.10173036702924262 -2.7602081185496155 -1.6781230065832076 0 0 0
241 71 2 -1.5382093673518737 -3.412876533454944 -1.5267165470631274 0 0 0
242 71 4 -1.546124155334733 -2.9270703543441083 -1.6447407499588955 0 0 0
139 37 2 -1.218663967107197 -1.8765902878691838 -1.39043429444219 0 0 0
166 46 2 -0.08046464914687126 -3.231009351063119 -1.511108130877724 0 0 0
94 22 2 -6.727655963086084 -0.7734662168868033 -0.9794861653688168 0 0 0
95 22 4 -6.72782107151782 -0.9981121133608606 -0.5327936604654184 0 0 0
96 22 4 -6.727490854654349 -0.548820320412746 -1.4261786702722152 0 0 0
172 48 2 -5.6296881997443755 -1.4526064586313714 -0.4306563190973431 0 0 0
173 48 4 -5.66071362318622 -1.005468682023054 -0.20905931589087212 0 0 0
220 64 2 -4.030214330065425 -1.329543824275754 -1.155753258222289 0 0 0
221 64 4 -3.8834268446986515 -1.5047657098477476 -0.7110615392119306 0 0 0
222 64 4 -4.177001815432197 -1.1543219387037607 -1.6004449772326474 0 0 0
8 2 3 -3.3161924905548923 -0.3065012017948886 -1.5171265185880578 0 0 0
141 37 4 -1.4030079311166392 -1.5751675825633478 -1.0366523620895751 0 0 0
132 34 4 -0.42200203868515235 -1.4654604402741187 -1.3519373007246827 0 0 0
127 33 2 -1.3414032070265438 -0.6205501570511841 -1.677615039363194 0 0 0
534 168 4 -3.4022486166740564 -0.06781446777462735 -4.263042915245264 0 0 0
39 8 3 -6.035708663298653 -6.683437191098999 -3.908150264653947 0 1 0
350 107 4 -1.3221652971161133 -1.1581368809794204 -0.016329970985218045 0 0 0
98 23 4 -1.935416308532468 -2.923086411109355 -6.551565492990967 0 0 0
97 23 2 -2.4077755656578756 -2.8726646291222306 -6.707560288123038 0 0 0
441 137 4 -4.300823152142811 -5.979598651285032 1.0602460904232605 0 0 0
440 137 4 -4.372484325405311 -5.781950744184686 0.08259585589863344 0 0 0
439 137 2 -4.336653738774061 -5.880774697734859 0.571420973160947 0 0 0
379 117 2 -2.298716885624584 -6.737382517323681 1.0895867917754896 0 0 0
381 117 4 -2.5909395138914624 -6.641091671545388 1.4837111484805332 0 0 0
280 84 2 -1.4225379540141208 -5.901356512419891 1.5203345061150055 0 0 0
281 84 4 -1.0632351617398768 -5.663121619368567 1.2670646121344902 0 0 0
301 91 2 -0.4904363962464895 -6.58186085881181 0.653371113889535 0 0 0
311 94 4 -0.04352249060510676 -0.8786177175996001 4.648491251650309 0 0 0
303 91 4 -0.31150371603646043 -6.326392648387893 1.04416401225853 0 0 0
1069 347 2 -0.010999738879605996 -5.583384178025062 0.06855877522579508 0 0 0
325 99 2 -5.637535058141109 -4.774686166030077 0.698749333896922 0 0 0
326 99 4 -5.163631553852183 -4.839759520280643 0.5532126471537034 0 0 0
327 99 4 -6.111438562430034 -4.70961281177951 0.8442860206401405 0 0 0
397 123 2 -4.719184597856037 -3.6821442251375074 0.7901381496846246 0 0 0
398 123 4 -4.62712529127523 -3.6469360708532044 1.2803273681949503 0 0 0
399 123 4 -4.811243904436844 -3.7173523794218104 0.2999489311742988 0 0 0
413 128 4 -3.461540197939317 -4.28374484691158 1.274117366594794 0 0 0
434 135 4 -2.3975937885476823 -4.237587180200653 0.827145415518584 0 0 0
433 135 2 -2.5651094228025872 -3.8388650271295255 1.0780620489465405 0 0 0
412 128 2 -3.267206244805217 -4.643108482201944 0.9858603765838059 0 0 0
414 128 4 -3.072872291671116 -5.0024721174923075 0.6976033865728175 0 0 0
438 136 4 -0.776114755624608 -4.564898315055695 0.6803034531427294 0 0 0
437 136 4 -0.13120747643630887 -3.830213559933157 0.8908572748611208 0 0 0
436 136 2 -0.45366111603045844 -4.197555937494426 0.7855803640019251 0 0 0
391 121 2 -6.749486029843601 -3.067675846446667 1.2033672911167506 0 0 0
392 121 4 -6.271131003336803 -3.0760217464470085 1.3486491363993467 0 0 0
158 43 4 -5.5720675145788 -2.646055994735566 0.1911801017921661 0 0 0
394 122 2 -4.802857441038308 -2.2647704483865834 0.6027585209384454 0 0 0
395 122 4 -4.4806844189018875 -2.632657069070256 0.7069889297928995 0 0 0
396 122 4 -5.125030463174728 -1.8968838277029105 0.4985281120839912 0 0 0
288 86 4 -1.9725455859688428 -2.4723315609781276 0.3010660134192188 0 0 0
322 98 2 -2.7558486536915643 -2.317858623608524 1.5112811205512842 0 0 0
324 98 4 -2.285058923850285 -2.29601878586099 1.344307913829578 0 0 0
435 135 4 -2.7326250570574926 -3.4401428740583984 1.328978682374497 0 0 0
212 61 4 -2.9525323010439926 -2.9465209783690876 0.3673133575997325 0 0 0
286 86 2 -1.5069732990648144 -2.3264516001184377 0.19169744989906837 0 0 0
287 86 4 -1.0414010121607857 -2.1805716392587478 0.08232888637891797 0 0 0
215 62 4 -0.42876996044768223 -3.148152306924681 0.10442940221046787 0 0 0
253 75 2 -6.577540305126543 -0.3430566409568781 1.2135812732383846 0 0 0
255 75 4 -6.423001224792704 -0.29177023474518377 0.7408367574716024 0 0 0
361 111 2 -6.466399702673841 -1.4798746385790615 0.9018428373260406 0 0 0
362 111 4 -5.970098032796114 -1.5321159878146136 0.870931772854473 0 0 0
385 119 2 -5.4049719739767434 -0.10764381154345885 0.32174871731822874 0 0 0
364 112 2 -3.673807579913117 -1.0545195162130325 1.2518660505028683 0 0 0
366 112 4 -3.5959363449591244 -1.2848940772865116 0.8149866250584767 0 0 0
386 119 4 -4.94012618664158 -0.23817520346240675 0.45167157797141816 0 0 0
349 107 2 -1.8152898553712542 -1.1203984606733388 0.05718180819347134 0 0 0
351 107 4 -2.3084144136263953 -1.0826600403672573 0.13069358737216075 0 0 0
432 134 4 -2.025784646850386 -0.17078665032817 0.7716934987201889 0 0 0
640 204 2 -5.397868409342868 -0.014877544750076077 6.242385251826661 0 0 0
431 134 4 -1.179615039467238 -0.0446010177065318 1.289452305174204 0 0 0
430 134 2 -1.602699843158812 -0.1076938340173509 1.0305729019471965 0 0 0
289 87 2 -6.097988366006501 -6.528118141111813 1.788181354062686 0 0 0
290 87 4 -5.629044261982916 -6.612163467555397 1.636432184694514 0 0 0
291 87 4 -6.5669324700300855 -6.444072814668229 1.9399305234308584 0 0 0
316 96 2 -6.259180482239177 -5.763953639542118 3.3654664935434337 0 0 0
317 96 4 -6.2973674295875846 -5.796300516328107 2.867977361386436 0 0 0
268 80 2 -4.252988275339173 -5.515252222781697 2.113309540363403 0 0 0
269 80 4 -3.7530160980178326 -5.510269081643651 2.1115803183959754 0 0 0
270 80 4 -4.752960452660513 -5.520235363919744 2.1150387623308298 0 0 0
276 82 4 -4.591758028164131 -6.276546303718695 3.3217110884619654 0 0 0
282 84 4 -1.781840746288365 -6.139591405471215 1.773604400095521 0 0 0
419 130 4 -2.761644111371142 -5.166008011390962 2.2329980643987315 0 0 0
636 202 4 -3.054269747048536 -6.298682152010986 2.611153256558228 0 1 0
634 202 2 -3.028668348687342 -6.729977290804067 2.862805937162701 0 1 0
277 83 2 -0.5768595690994021 -6.788399970394754 2.335749349990148 0 0 0
278 83 4 -0.17408895247519868 -6.503910366374145 2.418462683789546 0 0 0
415 129 2 -6.577027069942868 -3.720554367151933 2.4263456285163496 0 0 0
416 129 4 -6.0855925165706015 -3.6785853955933074 2.3443048753630524 0 0 0
319 97 2 -4.244491825803052 -3.9301656191805785 2.642913967052312 0 0 0
320 97 4 -3.807872279488988 -3.837627677692615 2.868302744859805 0 0 0
321 97 4 -4.681111372117115 -4.022703560668542 2.4175251892448193 0 0 0
443 138 4 -2.1137561704765937 -3.417665729573798 2.053857248460947 0 0 0
358 110 2 -2.0789020127916875 -4.449387276154586 3.4366966096142795 0 0 0
359 110 4 -2.3187429835610076 -4.886469840757352 3.474579857370553 0 0 0
360 110 4 -1.8390610420223672 -4.01230471155182 3.398813361858006 0 0 0
418 130 2 -3.0223281900044854 -4.906000555947166 2.571287783812135 0 0 0
420 130 4 -3.2830122686378287 -4.645993100503371 2.9095775032255387 0 0 0
1038 336 4 -0.21105298011805046 -5.054438705089332 2.118692005675483 0 0 0
1056 342 4 -0.19578103078362524 -3.6464344200675627 3.2785709130928744 0 0 0
427 133 2 -4.524162483750465 -2.4332724633609963 2.400298804711034 0 0 0
428 133 4 -4.057255492614171 -2.609355415782651 2.368792368949534 0 0 0
429 133 4 -4.991069474886759 -2.257189510939342 2.4318052404725345 0 0 0
348 106 4 -4.587945909581778 -1.7326216984390734 3.2140264369089477 0 0 0
444 138 4 -2.8774325727282104 -3.0408777323417677 2.578098755578281 0 0 0
442 138 2 -2.4955943716024023 -3.229271730957783 2.315978002019614 0 0 0
323 98 4 -3.226638383532843 -2.339698461356058 1.6782543272729906 0 0 0
295 89 2 -0.6597784847123734 -2.9209243698608165 2.1426067486237894 0 0 0
296 89 4 -0.1745325492740294 -2.868208070761093 2.251038173722374 0 0 0
297 89 4 -1.1450244201507176 -2.97364066896054 2.0341753235252047 0 0 0
254 75 4 -6.732079385460382 -0.3943430471685724 1.6863257890051668 0 0 0
405 125 4 -5.234512808994531 -0.49346199514473016 1.848045972253334 0 0 0
403 125 2 -5.185327048534555 -0.9774017791930538 1.732360854874667 0 0 0
404 125 4 -5.136141288074579 -1.4613415632413775 1.616675737496 0 0 0
346 106 2 -4.504189892926539 -1.3152303267016925 2.9517872856110365 0 0 0
347 106 4 -4.4204338762713 -0.8978389549643114 2.689548134313126 0 0 0
365 112 4 -3.75167881486711 -0.8241449551395537 1.6887454759472598 0 0 0
11 3 1 -2.2755007825153895 -1.2765619810305777 2.149775320713614 0 0 0
12 3 3 -1.9801658042916976 -1.4201022329711412 2.471914183178688 0 0 0
13 3 3 -2.501811889732172 -1.644026640847133 1.9793258955574828 0 0 0
14 3 3 -2.576364801537616 -0.9809403477282632 2.3431368783751703 0 0 0
15 3 3 -2.044844067019065 -1.0680595117967506 1.8170228602874157 0 0 0
371 114 4 -2.829379321162417 -1.0611270142679525 3.3699292539378387 0 0 0
981 317 4 -0.13726037353242607 -1.49989389456408 2.671260433396039 0 0 0
666 212 4 -6.746648929058532 -6.66928804378737 0.7205915713394992 0 1 0
318 96 4 -6.22099353489077 -5.731606762756129 3.8629556257004314 0 0 0
674 215 4 -5.529803047196932 -6.462992163201457 4.950609618082908 0 1 0
274 82 2 -4.5683358966445695 -5.881818682912403 3.627720090171857 0 0 0
275 82 4 -4.544913765125008 -5.48709106210611 3.9337290918817494 0 0 0
339 103 4 -3.7560174506864406 -5.594109415101816 4.262719170462534 0 0 0
337 103 2 -3.2932557561417557 -5.428484778396084 4.170958101495554 0 0 0
338 103 4 -2.830494061597071 -5.262860141690352 4.079197032528574 0 0 0
367 113 2 -1.1645990925059588 -5.947545746593009 4.023964823429038 0 0 0
368 113 4 -0.694862416755266 -5.824947175104447 3.9043109654730466 0 0 0
369 113 4 -1.6343357682566517 -6.07014431808157 4.143618681385029 0 0 0
352 108 2 -5.5715352109689755 -4.350521659215817 3.866192380153512 0 0 0
353 108 4 -5.650466549260579 -4.021794047715046 4.2345780493543765 0 0 0
354 108 4 -5.492603872677372 -4.679249270716588 3.497806710952647 0 0 0
411 127 4 -6.419634112538765 -3.283003420782213 3.5733706559838128 0 0 0
250 74 2 -3.594945579005417 -3.987078779358266 4.66123469566541 0 0 0
252 74 4 -4.093853275976461 -3.959847770785 4.642537581600924 0 0 0
251 74 4 -3.096037882034373 -4.014309787931532 4.679931809729896 0 0 0
378 116 4 -1.911199772237813 -4.884290709629336 5.040269052817465 0 0 0
376 116 2 -1.5773072174036389 -4.940936601089847 4.672428048024246 0 0 0
373 115 2 -1.0995934625843427 -3.7039598864997614 4.98090530673559 0 0 0
377 116 4 -1.2434146625694646 -4.997582492550358 4.3045870432310265 0 0 0
406 126 2 -0.04730491743805261 -4.129788147115999 4.601736956390211 0 0 0
408 126 4 -0.3500522615184952 -4.029488008091307 4.216660434431135 0 0 0
16 4 1 -6.551023931422077 -1.7310760252454143 4.373035668124596 0 0 0
18 4 3 -6.211691685809884 -1.8247582495776407 4.675322399443745 0 0 0
20 4 3 -6.472603879271756 -1.9467244384323354 3.979657914164895 0 0 0
384 118 4 -5.340488876752881 -1.8321401627766807 3.8627036540026305 0 0 0
409 127 2 -5.924639276046633 -3.224372168274716 3.5340961340224877 0 0 0
410 127 4 -5.4296444395545 -3.165740915767219 3.4948216120611626 0 0 0
334 102 2 -4.501596649588761 -1.9611775463539936 4.905608365110813 0 0 0
336 102 4 -4.681650425117484 -2.4235292131357093 4.967346312452431 0 0 0
283 85 2 -2.663287466501985 -2.9299321174276027 4.344244377957675 0 0 0
284 85 4 -2.8442500441960505 -2.638439768898321 3.9805346637309875 0 0 0
285 85 4 -2.48232488880792 -3.2214244659568845 4.707954092184362 0 0 0
259 77 2 -1.3673568128148095 -2.1652302723268817 4.065135932016704 0 0 0
260 77 4 -0.9405428833759322 -1.9048007621065244 4.062618027504324 0 0 0
261 77 4 -1.7941707422536866 -2.425659782547239 4.067653836529084 0 0 0
374 115 4 -0.9498984311822981 -3.243258471552363 4.857027932533576 0 0 0
17 4 3 -6.561911383507612 -1.2774365921973598 4.297585498008195 0 0 0
382 118 2 -5.4319333351880195 -1.5959126063698768 4.293788857431904 0 0 0
383 118 4 -5.523377793623157 -1.359685049963073 4.724874060861179 0 0 0
267 79 4 -4.05534097108842 -0.2101240007640351 5.004900599416765 0 0 0
335 102 4 -4.321542874060038 -1.4988258795722782 4.843870417769194 0 0 0
662 211 4 -3.3685800036561147 -0.2668406219711307 3.697151513043069 0 0 0
370 114 2 -2.4882837708986294 -1.0827554416901746 3.73487587567553 0 0 0
372 114 4 -2.147188220634842 -1.1043838691123966 4.099822497413221 0 0 0
310 94 2 -0.09124206333870484 -0.9624352142473317 5.13910053573937 0 0 0
389 120 4 -1.1135374428544649 -1.2958369081683805 4.7403276427439405 0 0 0
356 109 4 -5.220340924711159 -6.782526003364136 6.04210260263933 0 0 0
1130 367 4 -6.548455622745036 -6.2225550381108805 6.562561652774649 1 0 0
313 95 2 -4.21889959293276 -5.1119235815244695 5.616049079056624 0 0 0
314 95 4 -4.689700336232804 -5.278376135121117 5.641351401265929 0 0 0
355 109 2 -4.847644092685908 -6.50491461445494 6.226572080186561 0 0 0
357 109 4 -4.474947260660655 -6.227303225545743 6.4110415577337925 0 0 0
328 100 2 -2.023215895842132 -6.232927761803917 5.632567985320876 0 0 0
329 100 4 -2.240745300099902 -6.667179467205494 5.5137975570178295 0 0 0
330 100 4 -1.8056864915843627 -5.79867605640234 5.751338413623923 0 0 0
304 92 2 -0.25389315500826715 -6.300812894483244 5.892049490143559 0 0 0
305 92 4 -0.29392480447772046 -6.729991407184679 6.145433134596505 0 0 0
306 92 4 -0.21386150553881378 -5.871634381781809 5.638665845690612 0 0 0
401 124 4 -5.646922773899767 -5.018025722846629 6.668468383593842 0 0 0
424 132 2 -5.748098810044068 -4.202553350456188 5.438708559158807 0 0 0
425 132 4 -5.477551729055684 -4.601632983371231 5.306270937763168 0 0 0
426 132 4 -6.018645891032452 -3.803473717541144 5.5711461805544475 0 0 0
315 95 4 -3.7480988496327172 -4.945471027927822 5.590746756847318 0 0 0
292 88 2 -4.748829311156707 -4.245046176325727 6.585603170034625 0 0 0
294 88 4 -5.101082787405023 -4.068777974244076 6.277630753403631 0 0 0
271 81 2 -2.7198359612724095 -4.1852731280771875 6.178128623686481 0 0 0
272 81 4 -3.0114340357824583 -4.104926408333148 6.576268005773271 0 0 0
273 81 4 -2.4282378867623606 -4.2656198478212275 5.779989241599691 0 0 0
256 76 2 -0.20528937432021327 -3.684611394916666 6.412943850123484 0 0 0
258 76 4 -0.5551629466622472 -3.8828613768318494 6.710072489010671 0 0 0
343 105 2 -1.4001656518596035 -4.909352960444578 6.3650204638589285 0 0 0
345 105 4 -1.3601905347514225 -4.841313237295002 5.871287149117458 0 0 0
375 115 4 -1.249288493986387 -4.164661301447159 5.104782680937604 0 0 0
262 78 2 -5.339197572294015 -2.391790987121487 5.825080079875829 0 0 0
264 78 4 -5.676553291093792 -2.197820980439346 5.511126651003916 0 0 0
263 78 4 -5.001841853494239 -2.5857609938036283 6.139033508747743 0 0 0
300 90 4 -3.625230675269049 -2.1278756799581764 5.97024631331605 0 0 0
421 131 2 -4.438177230801822 -3.1496771211090455 6.733802397021428 0 0 0
422 131 4 -4.00692916587783 -3.0818441131716834 6.490032444948572 0 0 0
298 90 2 -3.1479828414954905 -1.9788825554012073 5.964283596413561 0 0 0
299 90 4 -2.670735007721932 -1.829889430844238 5.9583208795110725 0 0 0
388 120 2 -1.3933740346607864 -1.495979898433045 5.103142010340204 0 0 0
312 94 4 -0.1389616360723029 -1.0462527108950634 5.629709819828431 0 0 0
99 23 4 -2.8801348227832833 -2.822242847135106 6.732502916744891 0 0 -1
331 101 2 -1.349188582384172 -1.9791189083822505 6.743254382240906 0 0 0
333 101 4 -1.0682340648704844 -2.234442223392827 6.417870664300534 0 0 0
641 204 4 -5.732557311740038 -0.3520061202235598 6.086411977797677 0 0 0
265 79 2 -3.8114501045273976 -0.5880737474802268 5.223238031308946 0 0 0
266 79 4 -3.5675592379663743 -0.9660234941964185 5.441575463201127 0 0 0
340 104 2 -4.6375794490559645 -1.207330969118493 6.62308782982342 0 0 0
342 104 4 -4.816820648797055 -1.5879320408640991 6.352874180091289 0 0 0
307 93 2 -2.3443645239165156 -0.5864828730509383 6.348195488792337 0 0 0
308 93 4 -1.9374276063467049 -0.418728250412038 6.111002040944245 0 0 0
309 93 4 -2.751301441486327 -0.7542374956898386 6.585388936640428 0 0 0
699 223 4 -0.17506351495946681 -0.13155522895970995 5.444433234404075 0 0 0
390 120 4 -1.6732106264671078 -1.6961228886977096 5.465956377936468 0 0 0
400 124 2 -6.070494052408812 -4.780540059206411 6.78758148777361 0 0 0
454 142 2 -6.59484168399055 0.08267419179452425 -5.5794854974342485 0 0 0
1265 412 4 -6.397467141650365 0.7593442033658996 -6.629308552229034 1 0 0
603 191 4 -5.004538946034731 0.8839940774464937 -5.326969389537027 0 0 0
791 254 4 -4.780215481416152 0.9270111399592912 -6.494068557433348 0 0 1
181 51 2 -1.378876342583062 0.019873952993716887 -3.554054693890595 0 0 0
481 151 2 -1.1345294263702603 1.2201358819157573 -6.20600284937709 0 0 0
482 151 4 -1.5376052756104697 0.9275512585678263 -6.249867390176138 0 0 0
483 151 4 -0.7314535771300511 1.5127205052636885 -6.162138308578043 0 0 0
1275 415 4 -0.25298207384539084 0.10148156076103426 -5.15984486663191 0 0 0
583 185 2 -5.215219373806664 3.3054410635081375 -6.144875912502655 0 0 0
585 185 4 -5.356765861452072 3.3765291721569906 -6.619123814600174 0 0 0