LAMMPS data file via write_data, version 29 Aug 2024, timestep = 2000002, units = lj

1530 atoms
4 atom types
1030 bonds
1 bond types

-6.932675 6.932675 xlo xhi
-6.932675 6.932675 ylo yhi
-6.932675 6.932675 zlo zhi

Masses

1 1
2 1
3 0.5
4 0.5

Bond Coeffs # zero

1 0

Atoms # bond

115 29 2 -6.202517796188677 -5.639401041276477 -5.881920826474299 0 0 0
116 29 4 -6.148022114438436 -5.620217182613712 -6.378571810805556 0 0 0
583 185 2 -5.490235777300565 -6.664833181726663 -6.17033334304787 0 1 0
585 185 4 -5.65333465641007 -6.809480568715701 -6.620306552329044 0 1 0
117 29 4 -6.257013477938918 -5.658584899939242 -5.385269842143042 0 0 0
483 151 4 -6.540497484849201 -6.791823306300625 -5.399308555186155 0 1 0
584 185 4 -5.327136898191059 -6.520185794737625 -5.720360133766697 0 1 0
215 62 4 -1.8204368904010457 -5.29072373814272 -6.076014871242471 0 0 0
99 23 4 -3.245083189868675 -5.84060677267929 -5.174724571709962 0 0 0
330 100 4 -0.8694911917568469 -0.22419776501573446 -0.40526376134098263 0 0 0
172 48 2 -0.6495533604405069 -5.447233824141146 -5.7392946423262385 0 0 0
173 48 4 -0.7188887761525483 -5.259990059878221 -5.280892664938911 0 0 0
174 48 4 -0.5802179447284656 -5.634477588404072 -6.197696619713566 0 0 0
121 31 2 -5.408524877386957 -4.846235153903379 -5.923884313272803 0 0 0
123 31 4 -5.778534179468616 -5.083971927990256 -5.686030697324553 0 0 0
122 31 4 -5.038515575305297 -4.608498379816502 -6.1617379292210535 0 0 0
175 49 2 -3.561230712364297 -4.525675569412468 -6.354955447304768 0 0 0
177 49 4 -3.604641199784792 -4.150342180305237 -6.6824312122142855 0 0 0
176 49 4 -3.517820224943802 -4.901008958519699 -6.02747968239525 0 0 0
214 62 2 -2.109541276996694 -5.0164674909023255 -5.774017910164001 0 0 0
216 62 4 -2.3986456635923425 -4.74221124366193 -5.472020949085531 0 0 0
179 50 4 -2.26963648950037 -3.5574165036992045 -6.715216774846532 0 0 0
178 50 2 -2.050793573525787 -3.3749395234792554 -6.3043519189419674 0 0 0
180 50 4 -1.8319506575512041 -3.192462543259307 -5.893487063037404 0 0 0
131 34 4 -0.7531906892476572 -4.288527529350066 -6.796448979855576 0 0 0
886 286 2 -6.645668591467706 -0.011035049077734364 -1.7989326147023883 1 0 0
96 22 4 -5.959848914660221 -3.0391863554899756 -6.276952324242785 0 0 0
94 22 2 -5.6001958556320774 -3.3172431765935126 -6.485120720905884 0 0 0
168 46 4 -6.271179475110642 -2.7059858537756165 -5.7111314274273335 0 0 0
166 46 2 -6.728627642505093 -2.54075860025526 -5.595195544968248 0 0 0
95 22 4 -5.2405427966039335 -3.5952999976970497 -6.693289117568982 0 0 0
82 18 2 -4.123684984431712 -2.0024396027054827 -6.376353212681892 0 0 0
84 18 4 -4.006048266598717 -2.1597043402209812 -5.916538679471085 0 0 0
5 1 3 -3.6811260611957923 -2.305405625635873 -5.755086482446729 0 0 0
127 33 2 -4.914434282956268 -2.7153864702129265 -5.306060533737203 0 0 0
128 33 4 -4.44587706535115 -2.859428300926114 -5.404579997978879 0 0 0
227 66 4 -1.1129088293469942 -1.7584976913470747 -5.7165326089717885 0 0 0
181 51 2 -5.846490406886222 -0.3089086305459332 -6.489322529357481 0 0 0
224 65 4 -5.685779783709298 -1.0597903654358696 -1.5490431473386364 0 0 0
14 3 3 -5.620995065107734 -1.3873994394859956 -1.3440455936261708 0 0 0
34 7 3 -6.567231206866787 -0.13050695915270205 -6.735821446998809 0 0 0
182 51 4 -5.464067279839631 -0.6228162145939506 -6.417110476504574 0 0 0
149 40 4 -2.2475551479951514 -0.7144699756299274 -6.736393541717254 0 0 0
153 41 4 -3.0742798300977565 -1.4323623486739911 -5.160623727287804 0 0 0
148 40 2 -1.8665374687034375 -0.9840216629423643 -6.91574631123523 0 0 0
189 53 4 -0.3543023610385265 -2.031659177000661 -0.3652363563159136 0 0 0
526 166 2 -0.7388422294808727 -0.16292383781759381 -6.79927657260075 0 0 0
528 166 4 -0.34469141134985587 -0.1367016188886831 -6.492751650610635 0 0 0
556 176 2 -1.2115204489671851 -0.24508613667735143 -5.217640751224564 0 0 0
234 68 4 -5.718194303104764 -6.269984471021653 -4.283420960855302 0 0 0
232 68 2 -5.449564478885908 -6.041752380135218 -4.638030789018024 0 0 0
233 68 4 -5.180934654667053 -5.813520289248784 -4.992640617180745 0 0 0
98 23 4 -3.304670213611018 -6.048839160436372 -4.198461974203761 0 0 0
218 63 4 -4.051272990653501 -5.775040428851999 -4.329366750300841 0 0 0
217 63 2 -4.224240080380825 -5.307610961662246 -4.369267615876936 0 0 0
97 23 2 -3.2748767017398466 -5.944722966557831 -4.686593272956862 0 0 0
157 43 2 -1.4414722159224234 -6.3869691401349185 -4.23749839331638 0 0 0
158 43 4 -1.1078955868284055 -6.18128401276478 -3.926982273122158 0 0 0
159 43 4 -1.7750488450164412 -6.592654267505057 -4.548014513510601 0 0 0
104 25 4 -5.774942015817271 -5.438147517503627 -3.945737840908945 0 0 0
103 25 2 -5.9170519398658685 -4.959113204081862 -3.9639283893139883 0 0 0
105 25 4 -6.059161863914465 -4.480078890660097 -3.9821189377190316 0 0 0
942 304 4 -6.506133553212324 -4.646990904025827 -4.373573382285438 1 0 0
220 64 2 -3.3940801334536217 -3.492735690524404 -5.04178135945502 0 0 0
219 63 4 -4.397207170108148 -4.8401814944724935 -4.4091684814530305 0 0 0
222 64 4 -3.5813527283926545 -3.9547047310884844 -5.080686124525144 0 0 0
88 20 2 -2.2987551112137607 -3.827875954395043 -4.492707192149311 0 0 0
90 20 4 -2.4480827408208015 -4.298589736334997 -4.571000196483563 0 0 0
89 20 4 -2.149427481606719 -3.357162172455089 -4.4144141878150585 0 0 0
81 17 4 -3.0808000090645455 -4.425125764449724 -3.202146269411587 0 0 0
100 24 2 -0.8653098394734386 -3.671993193704304 -4.684015071725643 0 0 0
102 24 4 -1.134146116407477 -3.7686880905973177 -5.0936407741407965 0 0 0
129 33 4 -5.382991500561387 -2.571344639499739 -5.2075410694955275 0 0 0
114 28 4 -5.455854541445255 -2.2425467690613923 -4.970022305898365 0 0 0
112 28 2 -5.47312098402338 -1.7827930920762896 -4.774245835251333 0 0 0
4 1 3 -4.153397920785047 -2.6469375326742672 -5.278415477334245 0 0 0
3 1 3 -3.4074262700024742 -2.788818278700699 -5.246853631129854 0 0 0
1 1 1 -3.729545123811771 -2.4657752954059693 -5.331604294635642 0 0 0
2 1 3 -3.6766068895329966 -2.1207856981449447 -5.031971650998193 0 0 0
221 64 4 -3.206807538514589 -3.0307666499603245 -5.002876594384896 0 0 0
226 66 2 -0.9700351300513801 -1.903588113729106 -5.259875324585905 0 0 0
101 24 4 -0.5930005000834598 -3.5615535184035245 -4.278621332080738 0 0 0
109 27 2 -0.9873174060126401 -2.881239384179499 -3.8610678976752153 0 0 0
110 27 4 -1.2515606380677313 -2.575665977562399 -3.566448808881433 0 0 0
111 27 4 -0.7230741739575488 -3.1868127907965995 -4.155686986468998 0 0 0
165 45 4 -0.9999812341623051 -1.8414843777288425 -4.507276226947365 0 0 0
228 66 4 -0.827161430755766 -2.0486785361111375 -4.80321804020002 0 0 0
113 28 4 -5.4903874266015045 -1.3230394150911868 -4.578469364604301 0 0 0
328 100 2 -0.4005044102753088 -0.3403429108704044 -0.2765714776167853 0 0 0
203 58 4 -6.610667298523115 -1.0830309378461216 -4.408292048842139 0 0 0
187 53 2 -0.15045965949380175 -1.8683470255166474 -0.7915898413545633 0 0 0
884 285 4 -0.15141105803534446 -1.9270270990987604 -1.4792174655783283 0 0 0
151 41 2 -2.8999327019352026 -0.9964821049369507 -4.988543827179968 0 0 0
491 154 4 -2.801562094804992 -0.21171927433914503 -3.7473198463478674 0 0 0
152 41 4 -2.7255855737726487 -0.5606018611999102 -4.816463927072132 0 0 0
163 45 2 -0.8353459895912686 -1.6368985485561416 -4.08243052307108 0 0 0
164 45 4 -0.6461353914439242 -1.4083491790148477 -3.6783087853512773 0 0 0
558 176 4 -1.0415102107403105 -0.6111877777395924 -4.922571086044594 0 0 0
92 21 4 -6.386280932391066 -6.313853612408429 -3.171911553559512 0 0 0
156 42 4 -2.6260077255305414 -3.1075436702997505 -0.9215245377048441 0 0 0
199 57 2 -2.067768238597261 -6.1993851271754155 -2.280115854814724 0 0 0
200 57 4 -1.6895952303358877 -6.430860631035158 -2.511209487213962 0 0 0
201 57 4 -2.445941246858635 -5.9679096233156725 -2.0490222224154855 0 0 0
170 47 4 -2.390455286792954 -5.612209172663531 -1.894736658368167 0 0 0
192 54 4 -1.3515133907756212 -6.229109057448398 -2.418454367441589 0 0 0
190 54 2 -0.8957349645350244 -6.0603204414585 -2.3010813326940633 0 0 0
191 54 4 -0.4399565382944279 -5.8915318254686015 -2.183708297946538 0 0 0
160 44 2 -5.413887988837316 -3.4103879838233335 -2.252027616101607 0 0 0
161 44 4 -4.978126347486988 -3.5137355640093864 -2.4743586071874053 0 0 0
185 52 4 -4.044742895847203 -4.080086926955331 -1.9316508499088956 0 0 0
231 67 4 -4.059503375601465 -4.467970306372069 -1.8560851665742972 0 0 0
208 60 2 -4.504605409479658 -4.492167151371211 -2.6177675158841622 0 0 0
209 60 4 -4.2871805718108185 -4.506551992596646 -2.1677458316202958 0 0 0
210 60 4 -4.7220302471484965 -4.477782310145776 -3.0677892001480283 0 0 0
229 67 2 -3.663476701631358 -4.769607521397625 -1.9027527572093175 0 0 0
79 17 2 -2.837970397219177 -4.00022587531821 -3.099706707588369 0 0 0
80 17 4 -2.5951407853738084 -3.5753259861866966 -2.997267145765151 0 0 0
230 67 4 -3.2674500276612513 -5.071244736423181 -1.9494203478443377 0 0 0
78 16 4 -1.8102606355875608 -4.223575360382237 -2.154479121760312 0 0 0
76 16 2 -1.3462738348399375 -4.388176953506871 -2.0671718238256163 0 0 0
77 16 4 -0.8822870340923143 -4.552778546631505 -1.9798645258909207 0 0 0
948 306 4 -6.611021485620996 -2.2186710010146333 -2.570551237675892 1 0 0
162 44 4 -5.849649630187644 -3.3070404036372807 -2.029696625015809 0 0 0
13 3 3 -6.010324368470655 -1.9888904325559602 -1.5974844990813069 0 0 0
133 35 2 -4.582768385376642 -1.902893243789209 -2.991812927640583 0 0 0
135 35 4 -4.487305254305671 -2.2248989205193808 -3.3622169432228612 0 0 0
198 56 4 -1.852690940607512 -2.0610031003257783 -2.1967913498137697 0 0 0
883 285 2 -0.34618333356470327 -1.8746499745137566 -1.9367329270715108 0 0 0
196 56 2 -1.5930807806923464 -2.134135027225378 -2.617807128777703 0 0 0
197 56 4 -1.3334706207771805 -2.2072669541249783 -3.0388229077416367 0 0 0
223 65 2 -5.505638396023167 -0.6805513954553583 -1.820570096444499 0 0 0
225 65 4 -5.325497008337038 -0.30131242547484693 -2.0920970455503616 0 0 0
888 286 4 -6.351090039133853 -0.2385666540370397 -2.1327781557080248 1 0 0
143 38 4 -3.7286633757751124 -1.2461364353986357 -3.314690269313655 0 0 0
134 35 4 -4.678231516447614 -1.5808875670590374 -2.621408912058305 0 0 0
142 38 2 -3.7353512912267495 -1.180977920840316 -2.818999196398702 0 0 0
205 59 2 -4.814854252094336 -0.13936443522076503 -2.8030935746231807 0 0 0
206 59 4 -5.164769696238434 -0.2425486046644243 -2.461169300659081 0 0 0
549 173 4 -3.1463615618533534 -0.20019042313904142 -2.354163124083188 0 0 0
547 173 2 -2.6653217129367306 -0.15000883074134483 -2.227346439303555 0 0 0
144 38 4 -3.7420392066783865 -1.1158194062819962 -2.323308123483749 0 0 0
548 173 4 -2.184281864020108 -0.09982723834364823 -2.1005297545239223 0 0 0
885 285 4 -0.540955609094062 -1.822272849928753 -2.3942483885646935 0 0 0
108 26 4 -1.146143662429782 -0.1111579359441352 -1.8838690069262556 0 0 0
106 26 2 -0.8912999344184099 -0.5359687817355436 -1.8161163716185775 0 0 0
107 26 4 -0.6364562064070378 -0.960779627526952 -1.7483637363108995 0 0 0
603 191 4 -6.09871787610351 -6.926147680756136 -0.7169021037353885 0 1 0
399 123 4 -6.32397408638668 -6.5978271812635105 -0.14504540071795965 0 0 0
91 21 2 -6.340573560563925 -6.768198530721821 -3.375581706904609 0 0 0
6 2 1 -4.28599147436528 -5.47604154629364 -0.6423077774740619 0 0 0
7 2 3 -3.8369825991831794 -5.569280659188946 -0.6062869802271987 0 0 0
8 2 3 -4.526126743799864 -5.8086782656349145 -0.42554093194745973 0 0 0
10 2 3 -4.401584511108952 -5.462765690743664 -1.0826054058073165 0 0 0
169 47 2 -2.6812234799859547 -5.61521623681895 -1.487987576755705 0 0 0
171 47 4 -2.9719916731789553 -5.61822330097437 -1.0812384951432428 0 0 0
87 19 4 -1.5569289232964163 -5.883089672151836 -0.4008142732232955 0 0 0
85 19 2 -1.4000768712626537 -5.890963602124564 -0.8755093701009466 0 0 0
86 19 4 -1.243224819228891 -5.898837532097292 -1.3502044669785978 0 0 0
213 61 4 -1.0829696659914867 -5.334337537678338 -0.30071566239453995 0 0 0
126 32 4 -6.775515223842275 -4.935675955003834 -1.2740533957266402 0 0 0
125 32 4 -5.8839931280187425 -4.794127697798002 -1.7043468346030393 0 0 0
124 32 2 -6.329754175930509 -4.864901826400918 -1.4892001151648397 0 0 0
195 55 4 -6.30322633539032 -4.399567506400086 -0.4875218608043078 0 0 0
193 55 2 -6.237336966336456 -4.852119949883386 -0.28539596700764003 0 0 0
9 2 3 -4.370227792512044 -5.065070176541499 -0.4440484121234535 0 0 0
184 52 2 -4.104007245074813 -3.8919275975225673 -1.4722122754965528 0 0 0
186 52 4 -4.163271594302424 -3.7037682680898034 -1.0127737010842102 0 0 0
392 121 4 -1.8737999173299742 -4.942193770202764 -0.16385658645242707 0 0 0
207 59 4 -4.464938807950238 -0.036180265777105744 -3.14501784858728 0 0 0
840 270 4 -0.291631588607684 -5.107187372435793 -1.542134606163243 0 0 0
211 61 2 -0.8487286478810221 -4.927748489698783 -0.4733901871442018 0 0 0
212 61 4 -0.6144876297705576 -4.521159441719228 -0.6460647118938637 0 0 0
11 3 1 -5.612805249888479 -1.847379171185927 -1.404473843243396 0 0 0
15 3 3 -5.26134637016866 -1.9629829460027823 -1.6700155972371071 0 0 0
154 42 2 -2.520670609958292 -3.217838757694186 -0.445353259928015 0 0 0
12 3 3 -5.566067045526265 -2.050429732254247 -0.9943689665317104 0 0 0
145 39 2 -4.9060134439758585 -2.3236189392401005 -0.19339241414744834 0 0 0
147 39 4 -4.824689559300644 -2.747592904540994 -0.44564725062879085 0 0 0
194 55 4 -6.171447597282592 -5.304672393366687 -0.08327007321097227 0 0 0
83 18 4 -4.241321702264708 -1.8451748651899849 -6.836167745892698 0 0 0
325 99 2 -6.101797545270875 -5.541528551166932 0.7247238632948357 0 0 0
327 99 4 -6.211038588138046 -5.6512307032741225 1.2001519150296978 0 0 0
398 123 4 -5.539739653202482 -6.3722021053403015 0.43294221067347116 0 0 0
326 99 4 -5.992556502403704 -5.431826399059742 0.2492958115599737 0 0 0
383 118 4 -6.882981632827683 -6.71533228420485 6.128499909134465 0 0 0
309 93 4 -5.509828213485765 -6.919295726967505 1.938952876241597 0 0 0
30 6 3 -3.5859766066248673 -5.262305213060069 1.3969307777585465 0 0 0
348 106 4 -4.745039787076182 -6.7100423489108545 1.5140490734277063 0 0 0
26 6 1 -3.2920565288178434 -5.5859961761459855 1.52434799903844 0 0 0
28 6 3 -3.3348141247817114 -5.956319993806421 1.248065429807107 0 0 0
258 76 4 -2.0223455300172173 -6.800612075798449 0.6370233141705381 0 0 0
393 121 4 -2.7419260675154473 -5.060813825869723 0.3181042727012466 0 0 0
297 89 4 -1.9110819410362612 -5.199868677896705 1.6113413255988498 0 0 0
256 76 2 -1.5624768442405097 -6.604431141980608 0.6312066958816271 0 0 0
257 76 4 -1.102608158463802 -6.408250208162766 0.6253900775927161 0 0 0
408 126 4 -5.078145817827244 -3.992697332405724 0.1914755243684142 0 0 0
407 126 4 -4.264348902883129 -4.076499174933669 0.7665510258604069 0 0 0
406 126 2 -4.671247360355187 -4.034598253669697 0.47901327511441055 0 0 0
27 6 3 -2.863165772305687 -5.423352163298884 1.4897121207661654 0 0 0
385 119 2 -2.8676564194399288 -3.5865171111936127 1.3610775765289953 0 0 0
386 119 4 -2.67326274207684 -3.908248030136382 1.0313802699011996 0 0 0
295 89 2 -1.4975686990068704 -5.085486273179927 1.3545856749164393 0 0 0
296 89 4 -1.0840554569774796 -4.971103868463149 1.0978300242340289 0 0 0
989 320 4 -6.866348816651137 -3.424920577403722 1.0519921016129843 1 0 0
155 42 4 -2.4153334943860427 -3.3281338450886215 0.030818017848814105 0 0 0
315 95 4 -3.2210692388866446 -2.8701704115363396 1.689232866504286 0 0 0
310 94 2 -0.312047255958307 -3.014551520730499 0.8537465250878878 0 0 0
312 94 4 -0.6724091663034166 -3.039830799772486 1.1994346093827482 0 0 0
140 37 4 -0.10060192874607721 -3.1769564622736755 0.15752891651866197 0 0 0
662 211 4 -6.2014041529661945 -0.111575768086935 1.4721220609154706 0 0 0
150 40 4 -1.485519789411724 -1.253573350254801 6.770250919246793 0 0 -1
285 85 4 -4.979979892373555 -0.616282175966655 1.2016159256979013 0 0 0
283 85 2 -4.59448481519077 -0.928059832682349 1.2663325251202928 0 0 0
284 85 4 -4.208989738007984 -1.239837489398043 1.3310491245426843 0 0 0
120 30 4 -2.9568888421783277 -0.7201004275077661 0.04015527926545867 0 0 0
118 30 2 -2.498637009913503 -0.6661525560693652 0.23275560479211682 0 0 0
119 30 4 -2.0403851776486777 -0.6122046846309642 0.42535593031877494 0 0 0
320 97 4 -5.665417660379913 -5.58388751235937 3.383076726130882 0 0 0
307 93 2 -5.232096414621971 -6.504548461644085 1.968103413220867 0 0 0
308 93 4 -4.954364615758177 -6.089801196320665 1.9972539502001365 0 0 0
290 87 4 -3.3216231909257927 -6.636815224062545 1.7992453487869189 0 0 0
291 87 4 -3.502139193582044 -6.485702758180031 2.771139888045463 0 0 0
29 6 3 -3.3713630065229787 -5.707232689293308 1.9651565634676698 0 0 0
289 87 2 -3.4118811922539183 -6.561258991121288 2.285192618416191 0 0 0
299 90 4 -2.064582772017493 -5.502577280859388 3.0804519496119145 0 0 0
298 90 2 -1.6845231020612166 -5.179244896365094 3.1122452886938925 0 0 0
1360 444 2 -0.05939313370142246 -6.87007378230963 2.929780467289539 0 1 0
388 120 2 -0.12403797395957 -5.950227092998959 2.2580492650197423 0 0 0
358 110 2 -1.2908242922794901 -6.820549379641702 2.5033954129293483 0 0 0
390 120 4 -0.3059875087691398 -6.3202478913155185 2.5408548088044616 0 0 0
359 110 4 -1.7694512988113609 -6.794218971800281 2.361188175977404 0 0 0
268 80 2 -4.4695858082803035 -4.2512654947676785 2.4126517272651262 0 0 0
269 80 4 -4.851681356189501 -4.195739911838935 2.094972798300174 0 0 0
270 80 4 -4.087490260371106 -4.306791077696421 2.730330656230079 0 0 0
379 117 2 -3.6228828497335264 -4.343470082124047 3.3495087581488456 0 0 0
380 117 4 -3.7301191836022873 -4.2377288421315 2.872728768150402 0 0 0
1107 359 4 -0.3460555654304024 -4.529112703444427 3.4467667445180776 0 0 0
300 90 4 -1.3044634321049402 -4.8559125118708 3.1440386277758705 0 0 0
240 70 4 -5.538208573773761 -1.9763784822642894 2.133071564883539 0 0 0
343 105 2 -5.864772085466788 -2.367237322483711 3.3781731996535145 0 0 0
345 105 4 -6.118332634253551 -2.7633649930422806 3.547849116378404 0 0 0
387 119 4 -3.0620500968030178 -3.2647861922508437 1.6907748831567908 0 0 0
313 95 2 -3.074871684612738 -2.5743133737541273 2.0648588617695474 0 0 0
314 95 4 -2.9286741303388313 -2.278456335971915 2.4404848570348086 0 0 0
364 112 2 -2.054501789743046 -2.168570391810727 2.3582065382376522 0 0 0
366 112 4 -2.5498476002593486 -2.230176626185849 2.329272131556346 0 0 0
21 5 1 -0.013249302966369487 -1.8717299229950388 2.183747838440991 0 0 0
238 70 2 -5.35123684465192 -1.513490688485355 2.1609366484033914 0 0 0
334 102 2 -6.695129133670832 -0.8656398347116971 2.1612972867244427 0 0 0
335 102 4 -6.372599732036853 -0.7707744264967079 2.5313990827285924 0 0 0
338 103 4 -5.680231799673387 -0.7727616069307144 2.9905290743732555 0 0 0
337 103 2 -5.817850347238307 -0.3456789358970323 3.2111226542179017 0 0 0
644 205 4 -4.344407810673571 -0.33930348557272527 1.8594546755381574 0 0 0
645 205 4 -4.302991467482139 -0.6689083295811376 2.802664797050105 0 0 0
239 70 4 -5.164265115530079 -1.0506028947064203 2.1888017319232436 0 0 0
255 75 4 -4.387062687592233 -0.6905470072501816 3.226276724778371 0 0 0
253 75 2 -4.174093733565502 -1.1416995868834237 3.2595269053940448 0 0 0
254 75 4 -3.9611247795387703 -1.5928521665166662 3.2927770860097185 0 0 0
643 205 2 -4.323699639077855 -0.5041059075769314 2.331059736294131 0 0 0
411 127 4 -1.6518869789907824 -0.6549173118129537 1.3653241385732549 0 0 0
365 112 4 -1.5591559792267435 -2.1069641574356046 2.3871409449189582 0 0 0
287 86 4 -1.7485465039969406 -0.5420302877957243 3.491663240564479 0 0 0
409 127 2 -1.3983046709094866 -0.26986276003312365 1.558789911209849 0 0 0
24 5 3 -0.47281411235154414 -1.8104135926998093 2.2022003074855894 0 0 0
274 82 2 -0.7101819885901896 -1.1077183803232293 2.8498027400406474 0 0 0
275 82 4 -0.37198792684321114 -1.272656601007394 3.1790749070336153 0 0 0
276 82 4 -1.048376050337168 -0.9427801596390646 2.5205305730476795 0 0 0
527 166 4 -1.1329930476118895 -0.1891460567465045 6.759548505409135 0 0 -1
319 97 2 -5.886128915665922 -5.575735892442188 3.8316523528459 0 0 0
321 97 4 -6.106840170951932 -5.567584272525005 4.280227979560918 0 0 0
323 98 4 -3.6996867876630346 -6.732043783511407 3.9047803930527873 0 0 0
351 107 4 -4.097307072022408 -5.399685037214965 4.918177518727635 0 0 0
241 71 2 -2.5854845567397757 -6.878602594498681 5.008924760693923 0 0 0
376 116 2 -3.0060985177743555 -5.6018265432944245 4.590141063115565 0 0 0
377 116 4 -3.021514759071362 -6.009759437089632 4.87885042157858 0 0 0
242 71 4 -2.2821193381114604 -6.494621260418844 5.11153021476403 0 0 0
367 113 2 -0.440085325674968 -6.232206220611378 4.623130585716688 0 0 0
369 113 4 -0.706786516349533 -6.385731224595736 4.229048680468397 0 0 0
1004 325 4 -6.779524918544427 -5.098729194817622 3.6426284279992736 1 0 0
1094 355 4 -6.755377902258377 -4.41393111986935 5.348936372896686 1 0 0
396 122 4 -6.4006249428796345 -4.353533785223232 5.172711013703867 0 0 0
381 117 4 -3.5156465158647645 -4.449211322116594 3.82628874814729 0 0 0
374 115 4 -4.93099887014945 -3.572938951751193 4.07356471946889 0 0 0
378 116 4 -2.9906822764773486 -5.193893649499217 4.301431704652552 0 0 0
271 81 2 -2.2640188911582966 -3.606449109803742 4.303514446617191 0 0 0
272 81 4 -2.6800753094792658 -3.4459375709154387 4.529640744640009 0 0 0
273 81 4 -1.8479624728373274 -3.766960648692045 4.077388148594374 0 0 0
303 91 4 -1.8129483396218264 -5.089147981159729 4.333530193277056 0 0 0
301 91 2 -1.3802399843084385 -5.277559306926326 4.168410080737976 0 0 0
302 91 4 -0.9475316289950506 -5.465970632692923 4.003289968198896 0 0 0
403 125 2 -1.158962136064044 -3.5604072254066685 4.8650771326706055 0 0 0
404 125 4 -1.634735372052653 -3.71415920743728 4.865472023297589 0 0 0
1105 359 2 -0.05724157737211769 -4.886455644787279 3.6439785661060715 0 0 0
344 105 4 -5.611211536680025 -1.9711096519251423 3.2084972829286245 0 0 0
375 115 4 -5.571280892297248 -2.8722026905789884 3.7589099492958535 0 0 0
247 73 2 -6.478449364512844 -2.512583148001982 4.434902998087112 0 0 0
248 73 4 -6.6960834236011815 -2.362811777303447 4.010398636691731 0 0 0
249 73 4 -6.260815305424507 -2.662354518700517 4.859407359482493 0 0 0
373 115 2 -5.251139881223349 -3.222570821165091 3.916237334382372 0 0 0
304 92 2 -2.030428727502194 -1.6037717579779538 3.9599348140711754 0 0 0
305 92 4 -1.7325162012052198 -1.762279661888152 4.328883822842663 0 0 0
405 125 4 -0.6831889000754352 -3.4066552433760573 4.864682242043622 0 0 0
267 79 4 -0.6505169843861348 -2.2786887328601386 5.191195826560687 0 0 0
1141 371 2 -6.879382841646692 -5.709280760032881 4.413549742011092 1 0 0
363 111 4 -4.351865215723179 -1.4867617756005744 4.9665614260626585 0 0 0
280 84 2 -4.7367379267926655 -0.3842045338078162 4.804256833215385 0 0 0
282 84 4 -4.7933875705580835 -0.012033282268679002 4.4751985140850445 0 0 0
288 86 4 -2.726707279156538 -0.3691855024214793 3.607102307214953 0 0 0
286 86 2 -2.237626891576739 -0.4556078951086017 3.549382773889716 0 0 0
306 92 4 -2.3283412537991683 -1.4452638540677558 3.5909858052996877 0 0 0
278 83 4 -1.3572982040074368 -0.8378683170500697 5.141765280018967 0 0 0
260 77 4 -5.324931590560315 -6.620225877013642 5.801254471673508 0 0 0
382 118 2 -6.649443221335651 -6.535515132668515 5.724611802883427 0 0 0
384 118 4 -6.415904809843619 -6.35569798113218 5.320723696632388 0 0 0
261 77 4 -5.024478472062757 -6.847988224370064 6.727457600966466 0 0 0
349 107 2 -4.084742358773456 -5.658514264060402 5.345786638498915 0 0 0
294 88 4 -5.250324424891904 -5.8678532990884715 6.656228950522716 0 0 0
259 77 2 -5.167383716110035 -6.740581606156244 6.263265249274557 0 0 0
350 107 4 -4.072177645524503 -5.917343490905839 5.773395758270196 0 0 0
292 88 2 -4.764720993610049 -5.759285113577826 6.674791367259983 0 0 0
293 88 4 -4.272020307422044 -5.666106040375482 6.703336246601155 0 0 0
1143 371 4 -6.684146893553052 -5.790662415702635 3.960493508534278 1 0 0
354 108 4 -1.9910315519693884 -5.364397983060654 5.796714644950143 0 0 0
665 212 4 -0.08013009212607933 -6.633360710016166 6.3842470669197375 0 1 0
352 108 2 -1.5585087057384226 -5.573862097887619 5.934731934041394 0 0 0
353 108 4 -1.1259858595074566 -5.783326212714584 6.072749223132645 0 0 0
394 122 2 -6.292046496580602 -3.9453830507177576 5.440337056760544 0 0 0
395 122 4 -6.1834680502815695 -3.537232316212284 5.7079630998172215 0 0 0
341 104 4 -5.082680733266617 -4.873213861227977 5.150977270233037 0 0 0
342 104 4 -4.959044467143515 -4.158705762039955 5.83959345497837 0 0 0
340 104 2 -5.020862600205066 -4.515959811633966 5.495285362605704 0 0 0
414 128 4 -4.063084321045193 -3.6428838680573308 6.564757000510383 0 0 0
413 128 4 -3.871316939744336 -4.6127898425417815 6.4147314289244335 0 0 0
412 128 2 -3.966312103936862 -4.128544397748529 6.470196905560412 0 0 0
16 4 1 -2.7661771777611293 -4.598461679936286 5.836275828853579 0 0 0
17 4 3 -3.088248005896592 -4.279591776011194 5.9149674169337745 0 0 0
18 4 3 -2.3571214206300763 -4.4386522164339235 5.986056745303792 0 0 0
19 4 3 -2.8788724721576626 -4.985418324981983 6.066198262459993 0 0 0
20 4 3 -2.7455066641369816 -4.683688551261 5.389387576300029 0 0 0
132 34 4 -0.41431467754303064 -3.4545874294438503 6.633347397202046 0 0 -1
318 96 4 -6.176267518653849 -3.1552641896502447 5.801078260790525 0 0 0
316 96 2 -5.925887913538851 -2.7224777774460893 5.803522591712748 0 0 0
317 96 4 -5.6755083084238525 -2.2896913652419335 5.805966922634972 0 0 0
250 74 2 -6.557352945952549 -1.8384031001125987 6.671040263051861 0 0 0
251 74 4 -6.470500731950783 -2.326172188601192 6.60367551531515 0 0 0
401 124 4 -5.508698092644179 -1.9918437450334552 6.018022689609356 0 0 0
262 78 2 -4.021708166544511 -2.808654834938909 6.387763156563052 0 0 0
263 78 4 -3.8351001805454876 -2.3667237346565595 6.2539541435625265 0 0 0
264 78 4 -4.1825978025950725 -3.25625965188293 6.550553628785308 0 0 0
357 109 4 -3.510789486216714 -2.1458340068885535 6.328565363612468 0 0 0
355 109 2 -3.0389481742211557 -1.9814052466360417 6.346702593172488 0 0 0
331 101 2 -2.1789870628314154 -2.886544804655984 5.922813685493041 0 0 0
332 101 4 -1.8612564766252175 -2.6227214434094526 5.6409546628425 0 0 0
333 101 4 -2.496717649037613 -3.150368165902515 6.2046727081435815 0 0 0
266 79 4 -0.023802721400496718 -2.856593388565984 5.713934232919772 0 0 0
265 79 2 -0.33715985289331574 -2.5676410607130613 5.45256502974023 0 0 0
252 74 4 -6.644205159954315 -1.3506340116240054 6.738405010788571 0 0 0
400 124 2 -5.454031757713485 -1.6017874445845852 6.326028654333097 0 0 0
361 111 2 -3.975621336401125 -1.5401776044108215 5.291503409353508 0 0 0
360 110 4 -0.8121972857476194 -6.846879787483123 2.6456026498812926 0 0 0
402 124 4 -5.399365422782791 -1.2117311441357153 6.6340346190568384 0 0 0
281 84 4 -4.680088283027247 -0.7563757853469535 5.133315152345726 0 0 0
371 114 4 -2.468541559946026 -0.23129679154615873 6.416321802858566 0 0 0
356 109 4 -2.567106862225597 -1.8169764863835296 6.364839822732507 0 0 0
362 111 4 -3.599377457079071 -1.5935934332210693 5.616445392644358 0 0 0
370 114 2 -2.822678009160165 -0.5814457987643846 6.460853230882336 0 0 0
372 114 4 -3.1768144583743037 -0.9315948059826105 6.505384658906105 0 0 0
1136 369 4 -0.10107213501447221 -1.055051653269585 5.26183537927863 0 0 0
279 83 4 -0.4231586424423602 -0.9276263542622755 5.487202357174742 0 0 0
277 83 2 -0.8902284232248985 -0.8827473356561726 5.314483818596854 0 0 0
1061 344 4 -0.03735011685771672 -4.5680095715800055 1.9940034045464032 0 0 0
368 113 4 -0.1733841350004029 -6.07868121662702 5.0172124909649805 0 0 0
1362 444 4 -0.40638320640117714 -6.690773216963365 2.617611928332861 0 1 0
130 34 2 -0.5837526833953439 -3.8715574793969583 6.851124208673235 0 0 -1
397 123 2 -5.931856869794581 -6.485014643301906 0.14394840497775582 0 0 0
391 121 2 -2.3078629924227108 -5.001503798036244 0.07712384312440977 0 0 0
236 69 4 -6.490863094161939 -3.0325599621243584 0.04063871070101266 0 0 0
146 39 4 -4.987337328651073 -1.899644973939207 0.05886242233389416 0 0 0
460 144 2 -4.662151814285885 0.5330681135702853 -6.392479882383237 0 0 0
461 144 4 -4.7458588171123886 0.9920970192732514 -6.212733875019305 0 0 0
462 144 4 -4.582313585164039 0.07280175264015071 -6.570713161924204 0 0 0
478 150 2 -2.342647843752495 1.5105683572431985 -6.619919969297865 0 0 0
480 150 4 -2.491873083858849 1.4380212307903604 -6.148254047104652 0 0 0
456 142 4 -5.005951389005893 6.931260271872438 -2.195754628899245 0 0 0
1323 431 4 -0.41529274810316985 0.8464336179444841 -5.690733393794952 0 0 0
484 152 2 -6.120748405191762 3.087361117599755 -5.714306357869926 0 0 0
485 152 4 -5.795021888290482 3.4480206000649125 -5.831894511588669 0 0 0
486 152 4 -6.446474922093042 2.7267016351345967 -5.596718204151182 0 0 0
611 194 4 -5.531048615733153 3.6193657475757446 -5.557797309380698 0 0 0
575 182 4 -5.2058884148163145 1.8684116251009832 -5.770803608370485 0 0 0
574 182 2 -5.0130128715263655 1.9204791406342285 -5.3124500345577355 0 0 0
514 162 2 -3.919467181859691 2.8530000635433104 -6.9181552147344085 0 0 0
656 209 4 -4.740808340719857 1.839481409924612 -6.889998227828276 0 0 1
515 162 4 -3.52856934650135 3.1565114783143247 -6.846883176628188 0 0 0
573 181 4 -2.974463175499973 3.1790715837600034 -5.129599524114415 0 0 0
620 197 4 -3.3878378113517718 3.561231589145813 -6.825594875841755 0 0 1
448 140 2 -0.9759408449598036 2.7097341329786273 -5.665873050805202 0 0 0
449 140 4 -0.6699708908457331 3.1040537445568357 -5.695780091845357 0 0 0
450 140 4 -1.281910799073874 2.315414521400419 -5.635966009765047 0 0 0
770 247 4 -6.662282616181587 4.249398344821914 -6.121514701719261 0 0 1
511 161 2 -5.418429208006099 4.3310877167886686 -6.744859773256512 0 0 0
769 247 2 -6.652867654954291 3.970267852818153 -6.536240547234781 0 0 1
512 161 4 -5.153884304262124 4.44682453873721 -6.336667438751857 0 0 0
610 194 2 -5.156743268687623 3.8990009380864614 -5.379753305266915 0 0 0
501 157 4 -3.680291496711255 4.777002915838476 -5.302105548617924 0 0 0
499 157 2 -4.0702245941447055 4.46912958695103 -5.3583744821910875 0 0 0
612 194 4 -4.782437921642093 4.178636128597178 -5.201709301153132 0 0 0