LAMMPS data file via write_data, version 29 Aug 2024, timestep = 2000000, units = lj

1530 atoms
4 atom types
1030 bonds
1 bond types

-6.798029 6.798029 xlo xhi
-6.798029 6.798029 ylo yhi
-6.798029 6.798029 zlo zhi

Masses

1 1
2 1
3 1
4 1

Bond Coeffs # zero

1 0

Atoms # bond

241 71 2 -5.314803581274167 -5.891718369357904 -5.534658994072469 0 0 0
243 71 4 -5.6855288743739685 -5.913247436423392 -5.869471264348305 0 0 0
401 124 4 -6.415176191959936 -6.323286430331983 -6.564351525578189 0 0 1
132 34 4 -3.8336018248104224 -5.458345761928928 -6.428432907286934 0 0 0
242 71 4 -4.9440782881743655 -5.870189302292416 -5.199846723796632 0 0 0
130 34 2 -3.4517784256778 -5.263113148194266 -6.685522616161527 0 0 0
89 20 4 -1.9643295690016043 -5.802347189100895 -6.733894047514837 0 0 0
142 38 2 -1.7547436705115722 -6.6236721786285395 -5.293001839824547 0 0 0
88 20 2 -1.6307958624540801 -5.893062550131505 -6.372610239588814 0 0 0
90 20 4 -1.2972621559065556 -5.9837779111621145 -6.01132643166279 0 0 0
143 38 4 -1.3711379577365488 -6.434563613198962 -5.552008804224031 0 0 0
103 25 2 -5.801116214692016 -4.7003001007610825 -6.433606787327134 0 0 0
104 25 4 -5.825229798437415 -4.501959533846156 -5.9752624248712785 0 0 0
510 160 4 -2.4344343308264382 -6.796389219248342 -0.194070221643855 0 1 0
1148 373 4 -6.594842549602886 -4.707354552862366 -6.666639252664374 1 0 1
220 64 2 -4.772537772096019 -4.864338394419311 -5.164629964669407 0 0 0
221 64 4 -4.3178420506959645 -5.0712489178828895 -5.143657692010339 0 0 0
186 52 4 -3.115943187235884 -4.168724626034586 -5.490404675423735 0 0 0
184 52 2 -3.151557028678012 -4.298245871242987 -5.972022678967305 0 0 0
185 52 4 -3.18717087012014 -4.427767116451388 -6.453640682510877 0 0 0
114 28 4 -2.161784554502825 -4.6638141735552 -5.138104103020602 0 0 0
121 31 2 -1.3077512565727354 -3.9659665368500967 -6.675779391968834 0 0 0
122 31 4 -1.610606147632892 -3.622429500569385 -6.475127405524236 0 0 0
98 23 4 -0.9447996215636509 -4.750268631522288 -5.506760846865373 0 0 0
253 75 2 -5.453319416663144 -2.4232610510453374 -5.189454521733437 0 0 0
214 62 2 -5.415472644236622 -3.50002879558837 -6.188861350117143 0 0 0
215 62 4 -5.300755340682458 -3.417403169228948 -5.709264700698324 0 0 0
216 62 4 -5.530189947790787 -3.582654421947792 -6.668457999535962 0 0 0
254 75 4 -5.142456661237366 -2.1571422286843944 -5.476761186595484 0 0 0
169 47 2 -4.1617264436604104 -2.2190473247968874 -6.595950079191663 0 0 0
170 47 4 -3.7360293116714205 -2.481246785282275 -6.590171261196564 0 0 0
171 47 4 -4.587423575649401 -1.9568478643115 -6.601728897186763 0 0 0
181 51 2 -3.6051907602568756 -2.1184622590211917 -5.388171417089958 0 0 0
183 51 4 -4.103563838781671 -2.0943901273031464 -5.420494892706055 0 0 0
182 51 4 -3.1068176817320796 -2.1425343907392365 -5.355847941473861 0 0 0
211 61 2 -1.4419838321135017 -2.1368947935838882 -5.824779271982878 0 0 0
212 61 4 -1.3263308186551532 -1.6555634624497073 -5.895096625081945 0 0 0
213 61 4 -1.55763684557185 -2.618226124718069 -5.754461918883811 0 0 0
264 78 4 -1.2416549697595451 -1.451923529236228 -0.14165725510565363 0 0 0
91 21 2 -5.143239048966112 -1.1618100435149812 -5.412671241545347 0 0 0
92 21 4 -5.053542957121727 -1.5566838735611992 -5.705978707274121 0 0 0
237 69 4 -0.40271557107090783 -1.6407772318072111 -0.5166250115794266 0 0 0
199 57 2 -4.168758825942223 -0.20268160852090622 -5.91316117694058 0 0 0
201 57 4 -4.361270346904847 -0.454028465588251 -5.526167544255131 0 0 0
248 73 4 -3.113566461680319 -0.15187152688798672 -5.66781994668421 0 0 0
384 118 4 -2.7199087427231152 -1.6029812134997097 -6.608871954788572 0 0 1
109 27 2 -0.6822676033803279 -1.037351194059987 -6.153126002895848 0 0 0
110 27 4 -0.3637407310967856 -0.9716607474486498 -5.7733558133636 0 0 0
111 27 4 -1.00079447566387 -1.1030416406713244 -6.532896192428097 0 0 0
260 77 4 -5.717629058248556 -5.861264547473753 -3.7345876109290868 0 0 0
259 77 2 -6.209450963739742 -5.907870378541272 -3.6575219909057215 0 0 0
133 35 2 -4.251379559446937 -6.112973094462229 -4.368894775382143 0 0 0
134 35 4 -4.3926706476061534 -6.369259190745058 -3.963488478861335 0 0 0
135 35 4 -4.110088471287719 -5.8566869981794 -4.7743010719029515 0 0 0
78 16 4 -2.9223972694585694 -6.464654276822906 -3.6419821843918307 0 0 0
187 53 2 -0.27893175757712363 -6.137508774522242 -4.609097326148499 0 0 0
188 53 4 -0.40588522866761734 -6.48978168897478 -4.940437951369022 0 0 0
189 53 4 -0.15197828648663006 -5.7852358600697045 -4.277756700927975 0 0 0
99 23 4 -0.6527765073036946 -5.197352055060459 -4.661279378626699 0 0 0
222 64 4 -5.2272334934960725 -4.657427870955732 -5.185602237328475 0 0 0
128 33 4 -5.340215089865627 -3.7256479183480438 -4.234771769854551 0 0 0
979 317 2 -6.762301252655775 -3.907924709512688 -3.7014577636432375 1 0 0
127 33 2 -4.97580179128773 -4.056344667887666 -4.323330268395392 0 0 0
129 33 4 -4.6113884927098345 -4.387041417427288 -4.411888766936232 0 0 0
250 74 2 -3.2513637574563172 -4.421877191823319 -4.01054971170474 0 0 0
112 28 2 -2.1544882866085864 -4.697546941999091 -4.6392966604057335 0 0 0
113 28 4 -2.147192018714348 -4.731279710442982 -4.140489217790866 0 0 0
252 74 4 -3.2271622197896748 -4.396524327982755 -4.509319716686896 0 0 0
97 23 2 -0.7987880644336728 -4.973810343291373 -5.084020112746036 0 0 0
255 75 4 -5.764182172088921 -2.68937987340628 -4.90214785687139 0 0 0
96 22 4 -5.724593995040472 -1.935656314660378 -3.443567836083366 0 0 0
175 49 2 -4.465746294633309 -1.985114101804297 -3.8645914811182625 0 0 0
176 49 4 -4.270392797575408 -1.969988142503238 -4.324600412055956 0 0 0
167 46 4 -2.431739997198255 -2.983976187418794 -4.606366370854586 0 0 0
166 46 2 -2.707271735843884 -2.983552701112348 -4.189134922305705 0 0 0
168 46 4 -2.982803474489513 -2.983129214805902 -3.7719034737568236 0 0 0
283 85 2 -6.725584635687494 -1.7412228174818543 -0.0694947325451439 0 0 0
148 40 2 -1.430474126525152 -1.6635094181395669 -4.119904318826326 0 0 0
149 40 4 -1.2210294220385334 -2.1127273364445966 -4.054054659476223 0 0 0
93 21 4 -5.232935140810498 -0.7669362134687633 -5.119363775816572 0 0 0
244 72 2 -5.165505200549911 -0.48460811601671483 -4.488432328629015 0 0 0
245 72 4 -5.289151277563575 -0.12151438057611591 -4.809173013486711 0 0 0
226 66 2 -3.6379928296789426 -1.4896672425411788 -4.449845092442946 0 0 0
228 66 4 -4.088088968471201 -1.6020950074431233 -4.263368650167892 0 0 0
246 72 4 -5.0418591235362475 -0.8477018514573138 -4.167691643771319 0 0 0
162 44 4 -3.323156051942639 -0.28314154981030304 -3.6944785019571826 0 0 0
193 55 2 -2.300819726485852 -0.3795769595043111 -4.490607096613256 0 0 0
195 55 4 -2.1120452050442964 -0.5852183035557846 -4.905427319928633 0 0 0
227 66 4 -3.187896690886685 -1.3772394776392343 -4.636321534717999 0 0 0
219 63 4 -1.6857676444410523 -0.8599859982266277 -3.9955837669872802 0 0 0
194 55 4 -2.489594247927408 -0.17393561545283748 -4.075786873297878 0 0 0
150 40 4 -1.6399188310117707 -1.214291499834537 -4.18575397817643 0 0 0
217 63 2 -1.253260988708602 -0.6092518288705749 -4.003972394075284 0 0 0
218 63 4 -0.8207543329761513 -0.35851765951452225 -4.0123610211632865 0 0 0
632 201 4 -3.9974051641004245 -6.696704866845987 -1.7491169676550378 0 1 0
261 77 4 -6.701272869230927 -5.954476209608791 -3.5804563708823567 0 0 0
85 19 2 -6.4736367906635 -6.674626435358441 -2.523745376514785 0 0 0
87 19 4 -6.36875361157218 -6.185786413115428 -2.529657347190486 0 0 0
155 42 4 -0.004564667919768006 -0.6217455569489678 -2.385231530274347 0 0 0
910 294 2 -0.023242052745482432 -3.262908457883563 -5.060962921049939 0 0 0
76 16 2 -2.934378781082535 -6.2748814691337955 -3.179550865338903 0 0 0
77 16 4 -2.9463602927065007 -6.085108661444686 -2.717119546285975 0 0 0
190 54 2 -1.3210768008925002 -5.477614239624421 -2.578900586544206 0 0 0
191 54 4 -1.5973100580593962 -5.889365529819307 -2.5144330547339493 0 0 0
192 54 4 -1.044843543725604 -5.065862949429534 -2.643368118354463 0 0 0
980 317 4 -6.553854962013952 -3.6897899172250845 -3.3027506577229424 1 0 0
83 18 4 -4.559466738887163 -4.989738226991433 -2.303956939237146 0 0 0
82 18 2 -4.203038827941747 -4.87420644679765 -1.9728805854084546 0 0 0
84 18 4 -3.84661091699633 -4.758674666603867 -1.641804231579763 0 0 0
205 59 2 -5.080686466178053 -3.7531132448816846 -3.0327528452450756 0 0 0
206 59 4 -4.755584230610395 -4.013201899871795 -3.3096326530581908 0 0 0
164 45 4 -2.557033933302355 -4.872091790660702 -2.4830579472876786 0 0 0
251 74 4 -3.2755652951229597 -4.4472300556638835 -3.5117797067225833 0 0 0
163 45 2 -2.8203719816080683 -4.4747601673527395 -2.3321253350595317 0 0 0
165 45 4 -3.083710029913781 -4.0774285440447775 -2.1811927228313848 0 0 0
225 65 4 -3.02121177734556 -3.8260698711062666 -1.8638236509225163 0 0 0
2 1 3 -1.1775521009775407 -3.6226221995133954 -2.5412809093173068 0 0 0
138 36 4 -0.30076232230848843 -4.519791437581573 -2.762868902426736 0 0 0
207 59 4 -5.405788701745711 -3.493024589891573 -2.7558730374319604 0 0 0
976 316 2 -6.604904574390379 -2.271232426258603 -2.44249930523943 1 0 0
146 39 4 -2.535681646430949 -0.39084389090842586 -0.8473306132492241 0 0 0
977 316 4 -6.289697947489979 -1.8953591981716547 -2.3457310316892945 1 0 0
117 29 4 -5.867930247121834 -3.3944094645302787 -1.6917552203818342 0 0 0
177 49 4 -4.6610997916912105 -2.000240061105356 -3.404582550180569 0 0 0
100 24 2 -3.4814871503201137 -2.3440342207936964 -2.7293519466753944 0 0 0
102 24 4 -3.8083372770753714 -2.5708273058971556 -2.426475913967091 0 0 0
101 24 4 -3.154637023564856 -2.117241135690237 -3.0322279793836975 0 0 0
5 1 3 -0.7075121011714403 -3.4132354757050747 -2.0007075114564175 0 0 0
178 50 2 -1.7107085252272733 -2.7449030096226594 -1.905351348884828 0 0 0
180 50 4 -1.3831809488632036 -2.583182117147202 -2.246777826560799 0 0 0
1 1 1 -0.8920647920410025 -3.291273615182897 -2.3987849020109255 0 0 0
3 1 3 -0.5589746285496371 -3.2333525882447884 -2.7165837340157655 0 0 0
4 1 3 -1.1325535368739985 -2.897738350340743 -2.347842199548493 0 0 0
94 22 2 -5.540207930138637 -1.502791249690775 -3.2743649560874015 0 0 0
95 22 4 -5.355821865236802 -1.0699261847211718 -3.1051620760914367 0 0 0
498 156 4 -4.950120956410885 -0.2506817278848148 -2.737083093128587 0 0 0
160 44 2 -3.7330166858069673 -0.42599652509198294 -3.446271497935462 0 0 0
161 44 4 -4.142877319671296 -0.5688515003736627 -3.1980644939137415 0 0 0
232 68 2 -1.8264463476307407 -1.5643566524940158 -1.9830082397402213 0 0 0
202 58 2 -1.7867972859775438 -0.013908906131469192 -2.469765030906168 0 0 0
204 58 4 -2.0558064041182416 -0.4066455080343372 -2.622709647950336 0 0 0
234 68 4 -2.2926715472063606 -1.6121223432244962 -2.1572279345781142 0 0 0
233 68 4 -1.3602211480551203 -1.5165909617635354 -1.808788544902328 0 0 0
154 42 2 -0.36973314220688824 -0.5862406048855123 -2.7249246031588217 0 0 0
156 42 4 -0.7349016164940085 -0.5507356528220568 -3.064617676043296 0 0 0
516 162 4 -6.056813556327637 -6.71158780725235 -0.15808837799567135 0 1 0
174 48 4 -6.240788841272899 -5.6878092494706785 -1.617187921882338 0 0 0
172 48 2 -6.243326040185752 -5.373297862606669 -1.2285027663197998 0 0 0
173 48 4 -6.245863239098606 -5.058786475742659 -0.8398176107572612 0 0 0
141 37 4 -3.880879823565803 -6.416940780953255 -0.40411693105137164 0 0 0
139 37 2 -4.232532932041135 -6.246070742610391 -0.7157954854888346 0 0 0
140 37 4 -4.584186040516467 -6.075200704267527 -1.0274740399262974 0 0 0
209 60 4 -2.1968696522104474 -6.656395065683 -1.5275287311302364 0 0 0
208 60 2 -2.4972050928296023 -6.273019737620431 -1.414294544856855 0 0 0
210 60 4 -2.797540533448757 -5.889644409557862 -1.3010603585834732 0 0 0
831 267 4 -0.0586043090312825 -6.784414975689667 -1.4591267864267443 0 0 0
151 41 2 -0.05671646893167555 -5.456683848923708 -1.6417650387078169 0 0 0
153 41 4 -0.5173590062733974 -5.607800925314181 -1.7641254980673369 0 0 0
359 110 4 -4.177839988421173 -3.9109392839947312 -0.06279629179126428 0 0 0
108 26 4 -2.097684022134855 -4.857839799047719 -0.20252604091061877 0 0 0
223 65 2 -2.7272796968222073 -3.574737244442451 -1.5469075061565498 0 0 0
224 65 4 -2.433347616298855 -3.323404617778635 -1.2299913613905833 0 0 0
924 298 4 -0.22705053487461796 -3.523093704144796 -0.13388352694168232 0 0 0
107 26 4 -1.3245036133393526 -5.073582475369138 -0.7988876368145201 0 0 0
106 26 2 -1.7110938177371038 -4.965711137208428 -0.5007068388625694 0 0 0
229 67 2 -1.1962298870309853 -3.4755735264116887 -0.8729733992100219 0 0 0
230 67 4 -1.255831029848123 -3.4473288927697125 -1.368604254227648 0 0 0
231 67 4 -1.1366287442138479 -3.503818160053665 -0.377342544192396 0 0 0
116 29 4 -5.166756186796603 -3.098121177834165 -1.0432429319142704 0 0 0
115 29 2 -5.517343216959219 -3.246265321182222 -1.3674990761480523 0 0 0
284 85 4 -6.293306608807654 -1.4996399700854177 -0.13858478480348344 0 0 0
124 32 2 -4.330854489275131 -1.7225837344847261 -1.323161378925115 0 0 0
126 32 4 -3.8671189067842406 -1.7248633615447 -1.1362279339981216 0 0 0
125 32 4 -4.794590071766021 -1.720304107424752 -1.5100948238521086 0 0 0
79 17 2 -2.930145066163362 -2.4780753637939927 -0.6668778491898705 0 0 0
80 17 4 -2.6366171250782937 -2.4440478956667433 -1.0702182503587654 0 0 0
81 17 4 -3.2236730072484296 -2.512102831921242 -0.2635374480209757 0 0 0
179 50 4 -2.0382361015913433 -2.906623902098117 -1.5639248712088567 0 0 0
235 69 2 -0.5632437305668887 -2.06324608274528 -0.7305193312703944 0 0 0
236 69 4 -0.7237718900628696 -2.4857149336833486 -0.944413650961362 0 0 0
159 43 4 -6.544936675859199 -1.4226424058036455 -1.123846307617637 0 0 0
157 43 2 -6.081071552391487 -1.3578210773087434 -1.2988530006395378 0 0 0
158 43 4 -5.617206428923774 -1.2929997488138412 -1.4738596936614385 0 0 0
197 56 4 -4.687275482964523 -1.5079424608077328 -0.1604992911131589 0 0 0
912 294 4 -0.0668385411403294 -3.6397090138895964 -4.735201217970607 0 0 0
308 93 4 -5.961817596106279 -0.4203969502712437 -0.07915819253029394 0 0 0
346 106 2 -5.747605031336872 -5.763606224794084 0.3248252020786638 0 0 0
347 106 4 -5.786980966960936 -5.301739736880553 0.13739819485751872 0 0 0
348 106 4 -5.708229095712808 -6.225472712707615 0.5122522092998092 0 0 0
440 137 4 -4.891007518628872 -6.257033190824476 1.2287678211069124 0 0 0
1138 370 2 -6.735275602336761 -4.869646384192626 5.068501138225653 1 0 0
439 137 2 -4.5469363477713385 -6.6099125521211715 1.31297699967798 0 0 0
397 123 2 -4.0711365196893174 -5.6897711608689985 0.3700024361536249 0 0 0
398 123 4 -4.2534621514554605 -6.125720613897576 0.20658444936871434 0 0 0
399 123 4 -3.888810887923174 -5.253821707840421 0.5334204229385355 0 0 0
314 95 4 -2.2819049194294174 -5.317157641590173 1.5853674220648184 0 0 0
271 81 2 -0.2152574015211915 -5.250844247673479 0.17679522182369126 0 0 0
273 81 4 -0.6943122658174818 -5.290239839840113 0.3144702896890912 0 0 0
380 117 4 -1.252524471254068 -5.182942675784131 1.4848703796034668 0 0 0
426 132 4 -6.693886733185783 -0.3981704074459199 2.0196675030717643 0 0 0
422 131 4 -1.397077890341513 -6.446642861183879 1.304846918111299 0 0 0
295 89 2 -5.667510218958068 -3.8190749067959846 1.623147058408825 0 0 0
296 89 4 -5.248345406630417 -3.792988437557244 1.8944777721683352 0 0 0
297 89 4 -6.086675031285718 -3.8451613760347256 1.3518163446493143 0 0 0
406 126 2 -6.091805774832996 -3.4936423392927827 0.4063128302334917 0 0 0
407 126 4 -5.806846116087058 -3.637679068433844 0.7910873272390366 0 0 0
408 126 4 -6.376765433578933 -3.349605610151722 0.021538333227946738 0 0 0
358 110 2 -4.110812598563103 -3.561431968365328 0.28841869269872467 0 0 0
313 95 2 -2.2795745108345113 -5.2005760786876944 1.0991541886093525 0 0 0
315 95 4 -2.2772441022396053 -5.083994515785215 0.6129409551538867 0 0 0
319 97 2 -1.8946021482013242 -4.048005551543278 1.2784750230938164 0 0 0
321 97 4 -2.374664595406111 -4.087340745770748 1.144337819908736 0 0 0
370 114 2 -3.1401097460634313 -3.41542330782475 1.344792095004386 0 0 0
320 97 4 -1.4145397009965368 -4.008670357315808 1.4126122262788972 0 0 0
198 56 4 -4.831956955007373 -2.1163314418308707 0.6198404550350739 0 0 0
360 110 4 -4.043785208705033 -3.2119246527359246 0.6396336771887137 0 0 0
196 56 2 -4.759616218985948 -1.8121369513193017 0.22967058196095752 0 0 0
372 114 4 -3.0136608529860927 -2.9704560727051703 1.155016340205691 0 0 0
375 115 4 -3.19607505898376 -1.7828417321756793 0.41151840623703284 0 0 0
289 87 2 -1.1393749023017365 -2.724105013489411 1.4162406567484898 0 0 0
291 87 4 -1.2851938148370778 -2.3488172722298417 1.119768135243879 0 0 0
299 90 4 -4.896441258463412 -1.1343611286639863 6.1875503161102685 0 0 0
307 93 2 -6.317101943798207 -0.490675831803446 0.26556475578563615 0 0 0
309 93 4 -6.672386291490135 -0.5609547133356483 0.6102877041015662 0 0 0
388 120 2 -5.626054493098918 -1.4941496092691562 1.4820874128490482 0 0 0
390 120 4 -5.460441992096074 -1.2967433320109387 1.0535979016465888 0 0 0
784 252 2 -3.550617233925548 -6.67163725496403 3.237873044388507 0 1 0
434 135 4 -4.672883045230782 -0.10062835342391632 1.4285705456102846 0 0 0
418 130 2 -2.105474318956666 -1.6465050045498177 1.5248061707015073 0 0 0
420 130 4 -2.4316270251578116 -1.4125709645771036 1.2266463525176317 0 0 0
373 115 2 -2.8613922123794775 -1.4208181372142459 0.49474285504804877 0 0 0
374 115 4 -2.5267093657751944 -1.0587945422528122 0.5779673038590648 0 0 0
262 78 2 -0.8529671182222459 -1.3113824953697975 0.1397143352635176 0 0 0
798 256 4 -0.02994947286761776 -0.06213812660562815 1.5992392341540809 0 0 0
263 78 4 -0.4642792666849468 -1.1708414615033667 0.4210859256326888 0 0 0
334 102 2 -5.900789345956172 -6.186353081502805 2.8138646499468662 0 0 0
335 102 4 -5.416142812668879 -6.220080420133734 2.6956267355467873 0 0 0
336 102 4 -6.385435879243464 -6.152625742871876 2.9321025643469447 0 0 0
1077 349 4 -6.593955698248552 -5.933007414579347 2.658665906211063 1 0 0
364 112 2 -4.1314998862176235 -5.598286870392831 2.673066983352929 0 0 0
365 112 4 -3.6422645725007468 -5.5894245163503955 2.7758787846847515 0 0 0
366 112 4 -4.620735199934499 -5.607149224435265 2.5702551820211057 0 0 0
786 252 4 -3.9323900778225136 -6.355292078836977 3.173257061812451 0 1 0
438 136 4 -1.9748039660979166 -5.338910430835712 2.4338501613808305 0 0 0
437 136 4 -1.9718130698207692 -6.2253487529914135 2.896687233744246 0 0 0
436 136 2 -1.973308517959343 -5.782129591913563 2.6652686975625386 0 0 0
330 100 4 -0.2970315391540651 -6.5093143513929945 1.6504096606442955 0 0 0
328 100 2 -0.3190739522901723 -6.161759603683921 2.009185118790557 0 0 0
329 100 4 -0.3411163654262795 -5.814204855974847 2.367960576936819 0 0 0
379 117 2 -1.0712343590564686 -5.032656055318174 1.9259461405880802 0 0 0
381 117 4 -0.8899442468588692 -4.882369434852218 2.3670219015726937 0 0 0
430 134 2 -6.31034256135012 -3.9954628466567366 3.2551847026408236 0 0 0
432 134 4 -6.555921349350612 -3.831200522286714 2.8518127307878043 0 0 0
393 121 4 -3.435508506703529 -4.100606027050896 1.8239570381338468 0 0 0
371 114 4 -3.26655863914077 -3.8603905429443293 1.5345678498030808 0 0 0
391 121 2 -3.237101161120678 -4.227067992282889 2.2651394228325294 0 0 0
392 121 4 -3.0386938155378274 -4.353529957514882 2.7063218075312117 0 0 0
410 127 4 -2.4900895946334796 -4.56604196775385 3.2032470152398096 0 0 0
446 139 4 -2.9894504120816805 -3.3033916761822675 2.5093511324540207 0 0 0
369 113 4 -0.27570668888122885 -4.506183940636807 3.1541866042091287 0 0 0
367 113 2 -0.10546421951610552 -4.533792737962257 3.623500205050829 0 0 0
389 120 4 -5.791666994101762 -1.6915558865273737 1.9105769240515076 0 0 0
427 133 2 -6.497305230767451 -2.9109236240563408 2.378291963952184 0 0 0
428 133 4 -6.194371775819114 -3.043402852434158 2.003217870043674 0 0 0
340 104 2 -3.5811244140532668 -1.4420967670505365 5.939273109594276 0 0 0
279 83 4 -6.556331040753302 -2.448877437181407 3.4553950689381705 0 0 0
447 139 4 -3.578125517772744 -2.564276683633187 2.8367204158783466 0 0 0
274 82 2 -4.430789070043291 -2.760700114020495 2.978667466851961 0 0 0
276 82 4 -4.481708703136566 -2.329816044495697 2.730179822097847 0 0 0
445 139 2 -3.283787964927212 -2.9338341799077274 2.6730357741661837 0 0 0
419 130 4 -1.7793216127555211 -1.8804390445225319 1.8229659888853829 0 0 0
290 87 4 -0.9935559897663951 -3.099392754748981 1.7127131782531007 0 0 0
11 3 1 -1.0416429240254999 -2.164996466558528 3.1943320614886512 0 0 0
13 3 3 -0.7428327811209261 -2.1996676359533067 2.841046895496256 0 0 0
14 3 3 -1.3914728878089906 -1.8829093762951477 3.078807735279371 0 0 0
385 119 2 -5.7713601860276125 -0.6213398573371642 3.111842200350513 0 0 0
387 119 4 -6.04779160178884 -0.993056586312104 2.9236605174464207 0 0 0
351 107 4 -3.238243794227896 -1.4506084040327412 2.1715657421535814 0 0 0
349 107 2 -3.5331572651448333 -1.1228835934747883 2.4074099560246713 0 0 0
350 107 4 -3.82807073606177 -0.7951587829168354 2.6432541698957617 0 0 0
435 135 4 -4.600425642376053 -0.43769510959905533 2.3672589532580974 0 0 0
433 135 2 -4.636654343803418 -0.2691617315114858 1.897914749434191 0 0 0
343 105 2 -1.9324843762882737 -0.830085882865347 2.458580291581348 0 0 0
345 105 4 -2.254060787091348 -0.8038117312860797 2.076613956711743 0 0 0
344 105 4 -1.6109079654851997 -0.8563600344446144 2.8405466264509527 0 0 0
403 125 2 -0.39904702534827874 -0.4916193738732476 2.994298941757136 0 0 0
405 125 4 -0.6207382574041937 -0.21711536201931325 2.640038380721595 0 0 0
268 80 2 -5.360351613487709 -5.989831523552137 4.792801471444375 0 0 0
270 80 4 -5.379441588551165 -6.154521589208405 4.321088894628777 0 0 0
749 240 4 -6.604294579729428 -6.5301293767797155 4.424112154063488 0 1 0
333 101 4 -3.649238483614032 -5.8158372207475155 4.492523929924022 0 0 0
331 101 2 -3.2730037940404113 -5.679804598557443 4.792428221426227 0 0 0
310 94 2 -2.5381557522054274 -6.400482123290698 4.20673937258824 0 0 0
312 94 4 -2.8191561516368604 -6.217588775794579 4.577669014111654 0 0 0
311 94 4 -2.2571553527739945 -6.583375470786818 3.835809731064826 0 0 0
301 91 2 -0.7466802713113173 -6.126771572012119 5.031205733433273 0 0 0
303 91 4 -0.8804602924712694 -6.369078253338227 4.614804030599174 0 0 0
431 134 4 -6.064763773349627 -4.159725171026759 3.658556674493843 0 0 0
1139 370 4 -6.348399570605691 -4.724438867433086 4.7870020917824245 1 0 0
361 111 2 -5.434612333398404 -4.441333052980619 3.763320759893583 0 0 0
363 111 4 -5.832986798120653 -4.433504867283333 3.461266947857198 0 0 0
444 138 4 -4.905402658742936 -3.9182622043462096 4.9377335360853385 0 0 0
442 138 2 -4.47932973269486 -4.179494134180016 4.9525571835458395 0 0 0
362 111 4 -5.036237868676156 -4.449161238677905 4.0653745719299685 0 0 0
443 138 4 -4.053256806646784 -4.4407260640138215 4.9673808310063405 0 0 0
357 109 4 -2.0575433458857666 -4.322817093844261 3.568737273296351 0 0 0
411 127 4 -3.1881221549647307 -4.509881992757697 3.9171073670772083 0 0 0
267 79 4 -2.1695053667349837 -4.5041480965737914 4.9574078633088945 0 0 0
409 127 2 -2.839105874799105 -4.537961980255774 3.560177191158509 0 0 0
395 122 4 -2.6565320425138155 -4.0035885649326275 3.9379394219382444 0 0 0
342 104 4 -3.8190175158751876 -1.0023809537633586 5.946814704303313 0 0 0
355 109 2 -1.589773723398205 -4.376672926420568 3.7369369450429413 0 0 0
356 109 4 -1.1220041009106434 -4.430528758996875 3.9051366167895316 0 0 0
305 92 4 -0.7206589621281226 -3.587401369032317 4.954519872808319 0 0 0
277 83 2 -6.468333310372225 -2.9010923899794356 3.649709339936838 0 0 0
324 98 4 -5.353797417356168 -1.7319973886431306 4.267780870955143 0 0 0
278 83 4 -6.380335579991147 -3.3533073427774642 3.8440236109355057 0 0 0
275 82 4 -4.379869436950016 -3.1915841835452934 3.227155111606075 0 0 0
352 108 2 -3.7664593446701633 -2.6904738610062875 4.617883200297985 0 0 0
354 108 4 -4.176715339917029 -2.404675477768167 4.620933200726945 0 0 0
353 108 4 -3.3562033494232972 -2.9762722442444085 4.614833199869026 0 0 0
394 122 2 -2.706050044008387 -3.5193765301396462 4.052336418794948 0 0 0
396 122 4 -2.755568045502958 -3.035164495346665 4.1667334156516525 0 0 0
15 3 3 -0.8281298314269084 -2.004708025059955 3.5632761965701922 0 0 0
9 2 3 -1.1341430715604832 -2.426786056042486 5.049463642692357 0 0 0
12 3 3 -1.2115061515747558 -2.582336208646325 3.2869280851655103 0 0 0
386 119 4 -5.494928770266385 -0.24962312836222444 3.3000238832546045 0 0 0
322 98 2 -5.016344994837866 -1.3666973296091391 4.3195662878830365 0 0 0
323 98 4 -4.678892572319563 -1.0013972705751477 4.37135170481093 0 0 0
339 103 4 -5.729939376898201 -0.5065976549622618 5.2500154038550395 0 0 0
292 88 2 -2.519383757305241 -0.8714967211437735 4.361146788928024 0 0 0
293 88 4 -2.096220218432026 -1.094973898515621 4.216265559770539 0 0 0
294 88 4 -2.9425472961784562 -0.648019543771926 4.506028018085509 0 0 0
404 125 4 -0.17735579329236373 -0.7661233857271821 3.348559502792677 0 0 0
990 320 4 -0.12917152013025768 -0.883682088271863 4.422041819798894 0 0 0
269 80 4 -5.341261638424253 -5.82514145789587 5.264514048259972 0 0 0
281 84 4 -5.773001693814112 -5.5720043059304505 5.986175488763002 0 0 0
400 124 2 -6.707785385306113 -6.271414817002787 6.629600523583335 0 0 0
337 103 2 -5.320714426782072 -0.2447519866047659 5.3682177141746426 0 0 0
417 129 4 -2.2775286535780586 -6.664741926196729 6.16402805215793 0 0 0
332 101 4 -2.8967691044667903 -5.54377197636737 5.092332512928433 0 0 0
266 79 4 -2.8526405131318553 -5.1726688353834005 5.251357507872325 0 0 0
415 129 2 -2.2847041889529534 -6.2136953553578875 6.379679397219174 0 0 0
416 129 4 -2.291879724327848 -5.762648784519046 6.59533074228042 0 0 0
131 34 4 -3.069955026545178 -5.067880534459604 6.65344567496388 0 0 -1
414 128 4 -0.14145849968889396 -5.706070208975791 6.756164922914556 0 0 0
302 91 4 -0.6129002501513653 -5.88446489068601 5.447607436267373 0 0 0
412 128 2 -0.3744018253683404 -5.329117255809467 6.52455344193663 0 0 0
746 239 4 -0.2483202032602564 -6.673964718589097 6.719659567595042 0 1 0
280 84 2 -5.6411924345194 -5.134155187684851 6.188448741605969 0 0 0
287 86 4 -6.569112877656053 -4.379891360224176 5.8345738894692705 0 0 0
282 84 4 -5.509383175224689 -4.696306069439251 6.390721994448936 0 0 0
265 79 2 -2.5110729399334195 -4.838408465978596 5.10438268559061 0 0 0
306 92 4 -0.26393121980774464 -4.392009412533185 5.334000657209462 0 0 0
304 92 2 -0.49229509096793367 -3.989705390782751 5.14426026500889 0 0 0
413 128 4 -0.6073451510477867 -4.952164302643143 6.292941960958703 0 0 0
123 31 4 -1.0048963655125793 -4.309503573130807 6.719626621586569 0 0 -1
378 116 4 -5.898787181786756 -2.595696025466578 5.136163719684936 0 0 0
376 116 2 -5.458586224698287 -2.8284988132487707 5.181174600364562 0 0 0
327 99 4 -3.3348570127531887 -3.2447241509316247 6.446818696319903 0 0 0
377 116 4 -5.018385267609818 -3.061301601030964 5.226185481044188 0 0 0
325 99 2 -2.982547904270766 -3.257978132342398 6.092273037685075 0 0 0
326 99 4 -2.630238795788343 -3.2712321137531712 5.737727379050248 0 0 0
341 104 4 -3.343231312231346 -1.8818125803377144 5.931731514885239 0 0 0
382 118 2 -2.359917918557804 -1.8507478584741337 6.744249230061965 0 0 0
383 118 4 -1.999927094392493 -2.0985145034485577 6.501312414912502 0 0 0
10 2 3 -0.7546869028479706 -1.81256965061704 5.263125111684913 0 0 0
6 2 1 -0.9324416568278532 -2.2071426440026665 5.4049538828428885 0 0 0
7 2 3 -1.249756039947838 -2.1232199397793847 5.727240342348958 0 0 0
8 2 3 -0.5998062557308712 -2.473983059995157 5.587846972734021 0 0 0
298 90 2 -5.380167808723488 -1.255973297962236 6.152634634070844 0 0 0
300 90 4 -5.863894358983565 -1.3775854672604855 6.117718952031418 0 0 0
105 25 4 -5.777002630946616 -4.898640667676008 6.70410685021701 0 0 -1
922 298 2 -0.012005000845984456 -3.9258233203762054 0.0699896554640242 0 0 0
550 174 2 -5.602446876133728 1.4073669879398925 -6.317179984158602 0 0 0
551 174 4 -5.278794221338318 1.7161420827660527 -6.093781461649822 0 0 0
552 174 4 -5.926099530929138 1.0985918931137322 -6.540578506667381 0 0 0
1193 388 4 -6.1064158235703205 0.9239886581669936 -6.206852436760461 1 0 0
1192 388 2 -6.4852970403800265 0.625030365075442 -6.076188889660854 1 0 0
591 187 4 -4.333534370325854 0.8982025384854314 -5.584459407416904 0 0 0
200 57 4 -3.9762473049795983 0.04866524854643861 -6.300154809626029 0 0 0
589 187 2 -4.050876806445959 1.303675247057045 -5.508983688241605 0 0 0
584 185 4 -4.601512475090921 0.8375301693366174 -5.307436587755584 0 0 0
34 7 3 -2.360310106880483 1.068855904854681 -6.592222904305117 0 0 1
484 152 2 -2.029155902722164 1.1742885295392465 -5.430822702606251 0 0 0
486 152 4 -1.7646482078826744 0.9043450842964844 -5.75818521686398 0 0 0
735 235 4 -4.076947767425818 0.11031798172688585 -0.26224932935768414 0 0 0
460 144 2 -4.667840489768238 6.7792728883103495 -2.4883127017553917 0 0 0
33 7 3 -3.042359122143061 0.7362468916768024 -6.55002829407623 0 0 1
247 73 2 -3.2293955245099486 0.016765656497768955 -5.211590696653509 0 0 0
1200 390 4 -0.47267935031232766 6.14556885782161 -1.671429763738073 0 0 0
509 160 4 -1.4441124128327167 6.777970593855683 -0.05698744582425394 0 0 0
629 200 4 -5.24984982133523 2.3909215032355666 -5.088295078971532 0 0 0
628 200 2 -5.617171396712411 2.7279677922216794 -5.049893785459643 0 0 0
684 218 4 -5.098350136892283 2.8295184474288395 -6.705705358772189 0 0 1
590 187 4 -3.7682192425660634 1.709147955628659 -5.433507969066306 0 0 0
499 157 2 -1.872522219427291 2.2427935710305955 -6.537474972878781 0 0 0
501 157 4 -1.9905242409686068 2.0890529878649917 -6.076563532361007 0 0 0
548 173 4 -2.193457895747174 3.256542087055432 -5.888323704156186 0 0 0
587 186 4 -2.595134079815496 3.263493347960946 -5.893020441975372 0 0 0
1302 424 4 -0.13180707237846345 2.850375629864095 -5.634142846324229 0 0 0
555 175 4 -5.369423593037661 4.906716765396218 -5.329269172908106 0 0 0
453 141 4 -4.580379284106574 3.5392111032309077 -5.32844359986325 0 0 0
577 183 2 -4.23952774632474 3.639363886176643 -5.871979684752326 0 0 0
578 183 4 -3.780019174592353 3.7206516662169773 -6.051546300024533 0 0 0
579 183 4 -4.699036318057126 3.5580761061363084 -5.692413069480118 0 0 0