LAMMPS data file via write_data, version 29 Aug 2024, timestep = 2000000, units = lj

1530 atoms
4 atom types
1030 bonds
1 bond types

-6.798029 6.798029 xlo xhi
-6.798029 6.798029 ylo yhi
-6.798029 6.798029 zlo zhi

Masses

1 10
2 10
3 10
4 10

Bond Coeffs # zero

1 0

Atoms # bond

87 19 4 -5.689927880004711 -5.492483200249103 -5.313964418607595 0 0 0
109 27 2 -5.075515384294637 -5.745942991144729 -6.0556125910592264 0 0 0
110 27 4 -5.460008940413543 -5.990589036765357 -6.261313873663337 0 0 0
830 267 4 -6.669090515269563 -5.637038198166746 -6.1006455220198355 1 0 0
111 27 4 -4.691021828175732 -5.5012969455241025 -5.849911308455116 0 0 0
145 39 2 -3.0179443932237655 -5.620713819680892 -5.268772577994167 0 0 0
147 39 4 -3.4391495092398605 -5.622745601651045 -5.538183272109429 0 0 0
180 50 4 -1.9605024669719346 -5.612357511609886 -6.369066387745284 0 0 0
136 36 2 -0.4280674631369444 -6.0343823416155065 -5.319485704494528 0 0 0
137 36 4 -0.5179451289075547 -6.343956137098177 -5.701697779585999 0 0 0
178 50 2 -1.5176655230017368 -5.820654899933835 -6.266559612007188 0 0 0
179 50 4 -1.074828579031539 -6.028952288257784 -6.164052836269092 0 0 0
169 47 2 -6.256573438356787 -3.931614427421331 -5.603382005065084 0 0 0
170 47 4 -5.837955842336255 -3.6644801288977056 -5.545084707922585 0 0 0
171 47 4 -6.675191034377319 -4.198748725944956 -5.661679302207585 0 0 0
402 124 4 -6.647505126757979 -4.5338459136088565 -6.726964275749958 0 0 1
239 70 4 -2.1486459462666065 -6.679418252844388 -1.048262685418727 0 0 0
228 66 4 -4.503494702350957 -3.7437809778626137 -5.351175798397769 0 0 0
118 30 2 -3.0854768005548787 -4.430201678668293 -5.524017699687444 0 0 0
120 30 4 -3.047927102244484 -4.349934738052082 -6.016102284286999 0 0 0
82 18 2 -0.27987551768092045 -4.072731746751083 -5.587245347707935 0 0 0
83 18 4 -0.13888005183044635 -4.515602809644324 -5.402893780691791 0 0 0
84 18 4 -0.4208709835313946 -3.629860683857842 -5.771596914724078 0 0 0
344 105 4 -1.4648570465396347 -4.819331729274434 -6.665220219916596 0 0 1
81 17 4 -6.736478676621463 -3.5436680402870735 -6.562002670229136 0 0 0
79 17 2 -6.3957207031256615 -3.2018358191834397 -6.431485483182206 0 0 0
80 17 4 -6.05496272962986 -2.8600035980798055 -6.3009682961352755 0 0 0
100 24 2 -5.339932870538089 -2.735798020215662 -5.177702515485069 0 0 0
217 63 2 -6.281092697683657 -1.642520033445456 -6.721450482412781 0 0 0
218 63 4 -5.795808263611164 -1.6221324916459394 -6.602777123202234 0 0 0
488 153 4 -4.516474989651201 -0.11662502496505518 -1.7044350895744156 0 0 0
102 24 4 -4.933010608441141 -2.793916466824892 -5.462371654615901 0 0 0
534 168 4 -3.3125329003842823 -0.11125835070727569 -4.292411262027098 0 0 0
248 73 4 -2.6737215425303265 -2.2545633799464824 -5.314853864232193 0 0 0
225 65 4 -2.112499090989051 -3.0141938228734437 -5.913766511487229 0 0 0
223 65 2 -1.6181039265563402 -2.9424141632501066 -5.893245745179876 0 0 0
224 65 4 -1.1237087621236292 -2.87063450362677 -5.872724978872523 0 0 0
332 101 4 -1.335392617611954 -1.9143721808122816 -6.594471723751498 0 0 1
127 33 2 -0.9830159182600445 -0.6019700684600999 -1.6698285277871197 0 0 0
141 37 4 -1.4060556386904572 -1.4652271894205264 -1.1329837163579153 0 0 0
815 262 4 -6.477473490344642 -0.4676737273134819 -6.709400539767944 1 0 0
207 59 4 -3.8087083455707633 -1.0018949866701108 -5.775161222067943 0 0 0
341 104 4 -4.740758937213899 -0.7927363388934414 -6.69570191766287 0 0 1
205 59 2 -3.3233199628621897 -0.9812862977147728 -5.893370358223149 0 0 0
206 59 4 -2.837931580153616 -0.9606776087594349 -6.0115794943783545 0 0 0
231 67 4 -2.0583891774631424 -0.19103090239235912 -5.613253585440986 0 0 0
229 67 2 -2.358312933296618 -0.22267960866336256 -5.21445025035236 0 0 0
117 29 4 -0.9848452293133456 -1.2210549507040707 -5.041819199654471 0 0 0
160 44 2 -0.2151252729947162 -1.0774868093315537 -6.160277617869158 0 0 0
161 44 4 -0.12825201094868538 -1.5580295835051472 -6.0528919645873325 0 0 0
162 44 4 -0.30199853504074703 -0.5969440351579602 -6.267663271150984 0 0 0
39 8 3 -5.980249263226429 -6.615676920814281 -3.8893783965104727 0 1 0
85 19 2 -5.356825176806282 -5.54937000262031 -4.945445109971635 0 0 0
86 19 4 -5.023722473607854 -5.606256804991517 -4.576925801335674 0 0 0
146 39 4 -2.596739277207671 -5.61868203771074 -4.999361883878906 0 0 0
199 57 2 -2.9602116471338094 -5.445734381750632 -3.6710474330704685 0 0 0
200 57 4 -3.2087508622271796 -5.877110921172937 -3.7173350102060847 0 0 0
138 36 4 -0.3381897973663338 -5.724808546132836 -4.937273629403056 0 0 0
246 72 4 -1.388245183168657 -6.337659513279602 -4.274653748228571 0 0 0
244 72 2 -1.3493298572823071 -6.4343774698159155 -3.785643283826687 0 0 0
245 72 4 -1.310414531395957 -6.531095426352229 -3.2966328194248025 0 0 0
124 32 2 -6.747441175358467 -3.565351891139601 -4.605964526837493 0 0 0
126 32 4 -6.250266625056298 -3.5959607104028426 -4.562599025395673 0 0 0
153 41 4 -3.442514928471445 -3.4578607137113755 -3.745333131525405 0 0 0
226 66 2 -4.138805547081529 -3.5392618388173713 -5.076997495475874 0 0 0
90 20 4 -1.9040569290540255 -3.6985460148276568 -4.112400010120825 0 0 0
119 30 4 -3.1230264988652734 -4.510468619284505 -5.031933115087888 0 0 0
201 57 4 -2.7116724320404386 -5.014357842328327 -3.624759855934853 0 0 0
88 20 2 -1.777492131692097 -4.125369077793433 -4.340003667800813 0 0 0
89 20 4 -1.6509273343301687 -4.55219214075921 -4.567607325480801 0 0 0
101 24 4 -5.746855132635036 -2.6776795736064316 -4.893033376354237 0 0 0
236 69 4 -6.045423693505941 -1.9578577580219694 -4.21482943170074 0 0 0
227 66 4 -3.7741163918121017 -3.334742699772129 -4.802819192553979 0 0 0
209 60 4 -4.354564335918171 -2.7053626951257987 -3.288545230104291 0 0 0
151 41 2 -3.3848667437549302 -3.05226047793566 -4.031977746924986 0 0 0
247 73 2 -2.581572617534278 -1.8042782460348363 -5.117998907981691 0 0 0
152 41 4 -3.3272185590384153 -2.6466602421599443 -4.318622362324569 0 0 0
148 40 2 -1.0456130395262826 -2.1644204375006635 -3.5756316181010295 0 0 0
149 40 4 -0.7974757070051021 -2.3286538101418555 -3.9774465798928365 0 0 0
235 69 2 -5.948279213779137 -1.662874437499107 -4.6066811774821605 0 0 0
237 69 4 -5.851134734052333 -1.3678911169762444 -4.998532923263581 0 0 0
156 42 4 -5.280438495944041 -0.3817172675180541 -3.292229255641935 0 0 0
184 52 2 -4.389795046322158 -1.25400601981297 -4.277160781217336 0 0 0
185 52 4 -3.8907800133493824 -1.2470322769909485 -4.246577063692628 0 0 0
186 52 4 -4.888810079294933 -1.2609797626349912 -4.307744498742044 0 0 0
249 73 4 -2.4894236925382294 -1.3539931121231903 -4.921143951731189 0 0 0
183 51 4 -1.8916136565162047 -0.285849440757148 -3.493307815301805 0 0 0
230 67 4 -2.6582366891300935 -0.254328314934366 -4.815646915263735 0 0 0
115 29 2 -0.964475251384902 -1.1638945759907213 -4.545515103800255 0 0 0
116 29 4 -0.9441052734564582 -1.1067342012773718 -4.049211007946038 0 0 0
8 2 3 -3.3355641316407563 -0.30838817291061105 -1.4519444593583768 0 0 0
194 55 4 -5.265919320420905 -5.469523379286259 -1.8268423050037375 0 0 0
175 49 2 -4.329150924207509 -6.541765791385989 -1.832133484789284 0 0 0
176 49 4 -4.102011814503912 -6.1015471134867605 -1.9000697819454822 0 0 0
190 54 2 -4.418168280919932 -5.656675638208566 -3.2196121566386604 0 0 0
191 54 4 -4.812292870582783 -5.415031174317292 -3.029155440050816 0 0 0
192 54 4 -4.0240436912570825 -5.89832010209984 -3.4100688732265048 0 0 0
142 38 2 -1.7152449176479712 -5.397267406123218 -3.179279164404089 0 0 0
143 38 4 -2.026614355087932 -5.705146438438879 -2.937908961420375 0 0 0
22 5 3 -0.8811393858212591 -6.624295971798905 -2.172813722363859 0 1 0
23 5 3 -1.572393555580204 -6.584672450573468 -1.8804139115616079 0 1 0
91 21 2 -6.1268770611021885 -3.3244071951888063 -2.882832458666486 0 0 0
92 21 4 -5.736012072819831 -3.636123504668664 -2.8904155543032424 0 0 0
818 263 4 -6.443674642681327 -5.043550455866601 -2.6384155362643966 1 0 0
103 25 2 -3.544586476236454 -4.097666552590795 -1.9601270855114594 0 0 0
105 25 4 -3.952148697661825 -4.363249719828384 -2.0757065687563716 0 0 0
104 25 4 -3.1370242548110823 -3.8320833853532057 -1.8445476022665472 0 0 0
163 45 2 -2.163527349181227 -4.297745056243497 -2.2373243140214516 0 0 0
164 45 4 -1.9581823100240217 -3.9845428276626627 -2.568591244012396 0 0 0
165 45 4 -2.368872388338432 -4.610947284824332 -1.9060573840305068 0 0 0
133 35 2 -0.4790666350207302 -4.894332412885605 -1.9312536006190475 0 0 0
134 35 4 -0.45704767763942494 -4.774871626802109 -2.4162734827934487 0 0 0
144 38 4 -1.4038754802080105 -5.089388373807557 -3.4206493673878033 0 0 0
232 68 2 -0.2677009005701534 -3.9035845895304297 -3.1104635854078366 0 0 0
233 68 4 -0.2799873816275073 -3.4190600312463455 -3.233284572224828 0 0 0
234 68 4 -0.25541441951279953 -4.3881091478145136 -2.9876425985908455 0 0 0
93 21 4 -6.517742049384546 -3.0126908857089476 -2.87524936302973 0 0 0
121 31 2 -6.291723511602323 -2.250625567208853 -2.038923370773294 0 0 0
123 31 4 -6.5576563322520816 -2.0125047999657912 -2.3890351173754745 0 0 0
210 60 4 -4.996007300778034 -2.3061366591789025 -2.633434937822934 0 0 0
112 28 2 -4.492840366540102 -2.751215178638521 -1.8416482626619188 0 0 0
113 28 4 -4.109799059863376 -2.5909692727906535 -2.120217117774563 0 0 0
208 60 2 -4.675285818348103 -2.5057496771523504 -2.9609900839636123 0 0 0
1 1 1 -2.717732393995381 -2.6641079524569085 -3.0450631557979677 0 0 0
2 1 3 -2.6326654274223507 -2.5642822224830457 -2.6041567770357275 0 0 0
3 1 3 -2.55028029246182 -3.0867045157165736 -3.138186398938963 0 0 0
4 1 3 -3.1764089409784697 -2.656571302562734 -3.114769856738595 0 0 0
5 1 3 -2.515083496622972 -2.35465719396486 -3.310720176150199 0 0 0
140 37 4 -0.9973117124475693 -2.1777514688257793 -1.7032797395050272 0 0 0
150 40 4 -1.293750372047463 -2.000187064859471 -3.173816656309223 0 0 0
909 293 4 -0.34966339438038785 -2.426904870501678 -2.8550672789273874 0 0 0
154 42 2 -5.195140812942882 -0.5630188414557747 -2.834130964265471 0 0 0
155 42 4 -5.109843129941724 -0.7443204153934955 -2.376032672889007 0 0 0
6 2 1 -3.03062727778448 -0.18249182089637886 -1.7782320988879692 0 0 0
7 2 3 -3.260403155971955 -0.014888570764720166 -2.1397735160845706 0 0 0
9 2 3 -2.7838446478049725 -0.5508599120655956 -1.914992045322568 0 0 0
128 33 4 -1.3553146027138205 -0.6037927814879575 -2.003580482494676 0 0 0
193 55 2 -5.492884038459618 -5.697803526992025 -1.4442521967554989 0 0 0
195 55 4 -5.7198487564983305 -5.92608367469779 -1.0616620885072603 0 0 0
800 257 4 -6.656616455570794 -5.102988454078853 -0.8217273808830207 1 0 0
189 53 4 -3.5796307886427843 -6.178389397774882 -0.8293926950760193 0 0 0
198 56 4 -4.33397242447236 -5.295384808422832 -1.062138356371384 0 0 0
187 53 2 -3.3292845923492105 -6.039595392109673 -0.4194378122018615 0 0 0
188 53 4 -3.0789383960556367 -5.9008013864444635 -0.009482929327703449 0 0 0
240 70 4 -2.762885840893563 -6.298679478428352 -1.7394553774401966 0 0 0
238 70 2 -2.4557658935800846 -6.48904886563637 -1.3938590314294617 0 0 0
1071 347 4 -0.011489265029239804 -5.684731630041538 -0.451687825227728 0 0 0
159 43 4 -5.468833249897041 -3.643243136972396 -0.2583141301388251 0 0 0
202 58 2 -5.752352823165234 -4.596977355769339 -1.4799243835405433 0 0 0
203 58 4 -5.290220286821466 -4.432198881781128 -1.383583460966607 0 0 0
204 58 4 -6.214485359509002 -4.761755829757551 -1.5762653061144798 0 0 0
196 56 2 -4.074102358658466 -4.89448075825405 -0.9146816120280287 0 0 0
197 56 4 -3.8142322928445727 -4.493576708085269 -0.7672248676846734 0 0 0
76 16 2 -2.0616490142799746 -4.594945121147241 -0.499244979266934 0 0 0
78 16 4 -2.5168160665981785 -4.7957071705798 -0.5494202121141876 0 0 0
77 16 4 -1.606481961961771 -4.394183071714681 -0.44906974641968056 0 0 0
135 35 4 -0.5010855924020354 -5.013793198969101 -1.4462337184446463 0 0 0
132 34 4 -0.44356405074028826 -1.5824563616018457 -1.227850563889333 0 0 0
243 71 4 -1.6632872226532158 -3.748512800088778 -1.517244447916304 0 0 0
214 62 2 -0.40868901760322024 -3.4607631070153944 -0.17748052078945362 0 0 0
216 62 4 -0.5530087507665479 -3.9033041200552216 -0.36004356852188724 0 0 0
122 31 4 -6.025790690952565 -2.488746334451915 -1.6888116241711133 0 0 0
157 43 2 -5.479667589467011 -3.1686501499918607 -0.1013296920732023 0 0 0
174 48 4 -5.544536027242728 -2.011679205910391 -0.7822283455472214 0 0 0
106 26 2 -3.509450609784531 -2.7016238096924488 -0.979878925596913 0 0 0
107 26 4 -3.955792187334863 -2.6902208816828423 -0.7548252222671173 0 0 0
114 28 4 -4.875881673216829 -2.911461084486388 -1.5630794075492749 0 0 0
108 26 4 -3.0631090322342 -2.713026737702055 -1.2049326289267086 0 0 0
211 61 2 -2.4968609036708993 -2.9812814898772744 -0.06098452501605415 0 0 0
213 61 4 -2.1347642293522124 -3.102278093786614 -0.38385573817966734 0 0 0
168 46 4 -0.10024634774529075 -2.792604105783502 -1.4723433476156476 0 0 0
241 71 2 -1.60133114878986 -3.2528159894204434 -1.496122970576541 0 0 0
242 71 4 -1.5393750749265043 -2.7571191787521085 -1.475001493236778 0 0 0
139 37 2 -1.2016836755690132 -1.8214893291231526 -1.4181317279314714 0 0 0
166 46 2 -0.0013972961198899642 -3.2688288035453574 -1.5882696269246357 0 0 0
129 33 4 -0.6107172338062685 -0.6001473554322424 -1.3360765730795632 0 0 0
94 22 2 -6.5786335263120455 -0.7813392590476144 -0.912160444912079 0 0 0
95 22 4 -6.556538760446394 -0.9072410588264704 -0.4287759621926353 0 0 0
96 22 4 -6.600728292177697 -0.6554374592687583 -1.3955449276315228 0 0 0
172 48 2 -5.539924477844781 -1.5787001330933252 -0.5322126338119917 0 0 0
173 48 4 -5.535312928446833 -1.1457210602762595 -0.2821969220767619 0 0 0
220 64 2 -4.093074138180201 -1.2810403987903445 -1.3271493767407154 0 0 0
221 64 4 -4.1412287108249 -1.5208701110118523 -0.8910727249132013 0 0 0
222 64 4 -4.044919565535502 -1.0412106865688369 -1.7632260285682297 0 0 0
440 137 4 -4.630184354092828 -5.630819297936545 -0.0073769244149664015 0 0 0
441 137 4 -4.401855804160533 -6.1754513797637065 0.7996187191487147 0 0 0
640 204 2 -5.391988958112623 -0.03559094810313903 6.2626201694093595 0 0 0
439 137 2 -4.5160200791266805 -5.9031353388501255 0.39612089736687417 0 0 0
379 117 2 -2.409442205048285 -6.630168425927976 1.1387697185127532 0 0 0
381 117 4 -2.7025743515684133 -6.484598483139879 1.516768311675891 0 0 0
280 84 2 -1.4540161160035532 -6.010699773113396 1.4414709256931433 0 0 0
281 84 4 -1.0493666622211235 -5.966580553383435 1.151105097807498 0 0 0
301 91 2 -0.43375908677290537 -6.546777935819722 0.5299122297257822 0 0 0
666 212 4 -6.705578096352407 -6.6586704854111645 0.7140483320179309 0 1 0
303 91 4 -0.3768365492894307 -6.239813651190448 0.9204666467904152 0 0 0
388 120 2 -1.2675446579685246 -1.3458333768696675 5.2630397242684674 0 0 0
325 99 2 -5.711597085373661 -4.766883515708599 0.730230776893499 0 0 0
326 99 4 -5.239988735816811 -4.899374113895821 0.630071873049266 0 0 0
327 99 4 -6.183205434930511 -4.634392917521378 0.830389680737732 0 0 0
397 123 2 -4.592195397032101 -3.5076461483573858 0.9161215523879619 0 0 0
398 123 4 -4.418154902169778 -3.4934503138232116 1.3846387713134956 0 0 0
399 123 4 -4.766235891894423 -3.52184198289156 0.4476043334624284 0 0 0
413 128 4 -3.5528822115450134 -4.36070063568839 1.196481647821538 0 0 0
434 135 4 -2.4302942402926466 -4.170271923147505 0.9268461032819248 0 0 0
433 135 2 -2.6131354360637014 -3.7517508792678913 1.1303386902693704 0 0 0
412 128 2 -3.1822517227570852 -4.667347768751146 1.0600977170766017 0 0 0
414 128 4 -2.8116212339691575 -4.973994901813901 0.9237137863316658 0 0 0
438 136 4 -0.8623995844893625 -4.744122383353336 0.6432966748268977 0 0 0
437 136 4 -0.06983151399072285 -4.187118312174156 0.8914545244192474 0 0 0
436 136 2 -0.4661155492400426 -4.465620347763745 0.7673755996230726 0 0 0
391 121 2 -6.759997514335065 -3.0628426401784723 1.2380727604566724 0 0 0
392 121 4 -6.287790767436625 -3.0266760420849232 1.3984247650141712 0 0 0
158 43 4 -5.490501929036982 -2.6940571630113253 0.055654745992420526 0 0 0
394 122 2 -4.732403084548641 -2.353401026176406 0.7131200425292727 0 0 0
395 122 4 -4.285910049875128 -2.5187765281617414 0.8657467549064127 0 0 0
396 122 4 -5.178896119222154 -2.18802552419107 0.5604933301521328 0 0 0
288 86 4 -1.895270248910263 -2.234015763704901 0.39847767020760905 0 0 0
322 98 2 -2.630112209744965 -2.439649358244502 1.597454799471487 0 0 0
324 98 4 -2.1472649686458563 -2.3241676340748616 1.5381040358217881 0 0 0
435 135 4 -2.795976631834756 -3.333229835388278 1.333831277256816 0 0 0
212 61 4 -2.858957577989586 -2.8602848859679346 0.261886688147559 0 0 0
286 86 2 -1.428643438476555 -2.3542717352114644 0.26506882079541483 0 0 0
287 86 4 -0.9620166280428468 -2.474527706718028 0.13165997138322066 0 0 0
215 62 4 -0.2643692844398926 -3.0182220939755675 0.005082526942980031 0 0 0
253 75 2 -6.603593454617393 -0.3755708921855866 1.35149292684776 0 0 0
255 75 4 -6.538712998520541 -0.26300482398308433 0.86866852118236 0 0 0
361 111 2 -6.356565303851149 -1.503220911699844 0.9882322820209533 0 0 0
362 111 4 -5.8632430549662145 -1.4888571231494792 1.0683998585933083 0 0 0
385 119 2 -5.45226925362547 -0.02285520942322851 0.3680006038753184 0 0 0
364 112 2 -3.6446430786467445 -1.168109036516475 1.409551798762613 0 0 0
366 112 4 -3.616676022290388 -1.39208795759975 0.9634001578722416 0 0 0
386 119 4 -4.980339634874661 -0.13433303600970775 0.48988222318286945 0 0 0
349 107 2 -1.6649451597171183 -1.1026017188152542 0.1691907225243296 0 0 0
351 107 4 -2.132163840960538 -0.9249214332803712 0.15751082401539895 0 0 0
432 134 4 -2.026972975606754 -0.2982811071407102 0.9507402394197251 0 0 0
350 107 4 -1.1977264784736985 -1.280282004350137 0.18087062103326024 0 0 0
431 134 4 -1.1167106005644651 -0.07865779734287173 1.301721735193051 0 0 0
430 134 2 -1.5718417880856095 -0.18846945224179099 1.126230987306388 0 0 0
289 87 2 -6.173502099312835 -6.381304218335984 1.6963943021915773 0 0 0
290 87 4 -5.673879340396368 -6.362071977286148 1.6937073567712289 0 0 0
291 87 4 -6.673124858229302 -6.40053645938582 1.6990812476119257 0 0 0
316 96 2 -6.273604969033425 -5.77876385990553 3.303328400591827 0 0 0
317 96 4 -6.291567343334765 -6.032899838908497 2.8731049036910754 0 0 0
268 80 2 -4.30114104844419 -5.631474963356173 2.0669082174216213 0 0 0
269 80 4 -3.815761421254053 -5.614927972293437 2.1857897323638906 0 0 0
270 80 4 -4.786520675634327 -5.64802195441891 1.9480267024793523 0 0 0
276 82 4 -4.357037242595321 -6.12790769703563 3.0402188637943395 0 0 0
282 84 4 -1.8586655697859829 -6.054818992843358 1.7318367535787886 0 0 0
419 130 4 -2.7356900621761873 -5.419343023372913 2.4077860893122334 0 0 0
636 202 4 -3.1993754818708613 -6.2620305787747075 2.6625883704716413 0 1 0
634 202 2 -3.099106006533136 -6.709154699007858 2.8626534934224592 0 1 0
277 83 2 -0.642390750346369 -6.708992711945693 2.4286846624763716 0 0 0
278 83 4 -0.2295837429957563 -6.443559890032319 2.52426599817018 0 0 0
415 129 2 -6.5957802876566 -3.7478604869478134 2.4544579511529894 0 0 0
416 129 4 -6.131198661413763 -3.609791604300583 2.3315722473384275 0 0 0
319 97 2 -4.022835750249837 -3.943292319222536 2.6598224780581163 0 0 0
320 97 4 -3.5912615266786942 -3.692958331061738 2.692633816353116 0 0 0
321 97 4 -4.45440997382098 -4.193626307383334 2.6270111397631166 0 0 0
420 130 4 -3.4782713319360674 -4.792425277680084 2.6434706198550506 0 0 0
443 138 4 -1.9079971009637426 -3.547155707599387 2.120676610330131 0 0 0
358 110 2 -2.179194965540788 -4.598215013962436 3.5328913785703855 0 0 0
359 110 4 -2.3521066865828875 -5.0603806641816185 3.4522412174831483 0 0 0
360 110 4 -2.0062832444986882 -4.136049363743253 3.6135415396576227 0 0 0
418 130 2 -3.1069806970561276 -5.1058841505264985 2.525628354583642 0 0 0
1038 336 4 -0.06197162909220051 -5.200609829642124 1.9688944067718555 0 0 0
1056 342 4 -0.28677702871422117 -3.460124967332501 3.1590633336874685 0 0 0
410 127 4 -5.579311684038451 -3.1194270895276035 3.27852527466153 0 0 0
427 133 2 -4.566615681106735 -2.467524206771467 2.4750062802752324 0 0 0
428 133 4 -4.118402459016715 -2.6590838920016657 2.3636070229276327 0 0 0
429 133 4 -5.014828903196755 -2.2759645215412685 2.586405537622832 0 0 0
348 106 4 -4.536592055523964 -1.6732006750006245 3.2433658897400806 0 0 0
444 138 4 -2.7727623851926473 -3.1351812152569547 2.407831657039319 0 0 0
442 138 2 -2.340379743078195 -3.341168461428171 2.264254133684725 0 0 0
323 98 4 -3.1129594508440737 -2.555131082414142 1.6568055631211862 0 0 0
295 89 2 -0.7711954865904905 -2.911087932881889 2.006382214733581 0 0 0
296 89 4 -0.27471630596178176 -2.860092923701059 2.0365141287163704 0 0 0
297 89 4 -1.2676746672191992 -2.9620829420627186 1.9762503007507917 0 0 0
254 75 4 -6.668473910714243 -0.48813696038808885 1.8343173325131596 0 0 0
405 125 4 -5.338002153085159 -0.5195813622863825 1.7790198919257183 0 0 0
403 125 2 -5.2375154189652715 -0.9871825532607373 1.9247989798128113 0 0 0
404 125 4 -5.137028684845384 -1.4547837442350922 2.0705780676999046 0 0 0
346 106 2 -4.513517926109029 -1.220813514190317 3.0316740351833262 0 0 0
347 106 4 -4.490443796694094 -0.7684263533800093 2.819982180626572 0 0 0
365 112 4 -3.672610135003101 -0.9441301154332 1.8557034396529843 0 0 0
11 3 1 -2.3366364380938776 -1.187993299938452 2.1072243165927564 0 0 0
12 3 3 -1.939505632302311 -1.3172771038599813 2.300026861012939 0 0 0
13 3 3 -2.6324859744295397 -1.5452470871357713 2.1191735166966086 0 0 0
14 3 3 -2.510248835392306 -0.8304758161521795 2.346682004486465 0 0 0
15 3 3 -2.260455295092556 -1.0636939788939692 1.6757777819689754 0 0 0
371 114 4 -2.6675278044776225 -1.1258984889824626 3.402135193729206 0 0 0
981 317 4 -0.20003865404857907 -1.2186909567507613 2.997796855173399 0 0 0
390 120 4 -1.4915202968110695 -1.6112730921550815 5.62272941101829 0 0 0
318 96 4 -6.255642594732085 -5.524627880902564 3.7335518974925783 0 0 0
674 215 4 -5.394797131183628 -6.4776902007204376 4.957649189941507 0 1 0
274 82 2 -4.436463402870825 -5.952713169805518 3.501736320336066 0 0 0
275 82 4 -4.51588956314633 -5.777518642575408 3.9632537768777927 0 0 0
339 103 4 -3.5628435441339534 -5.591881918745633 4.334041165076153 0 0 0
337 103 2 -3.1139416031221634 -5.397720242595705 4.230174467476065 0 0 0
338 103 4 -2.6650396621103734 -5.203558566445777 4.126307769875977 0 0 0
367 113 2 -1.2502189144484535 -5.961043296302468 4.073129178268615 0 0 0
368 113 4 -0.77188171014243 -5.8375326955777345 4.150191818275938 0 0 0
369 113 4 -1.7285561187544767 -6.0845538970272015 3.996066538261291 0 0 0
1062 344 4 -0.38568547858475494 -6.647992056300157 3.8961697612058908 0 0 0
1060 344 2 -0.030319506167177417 -6.428524360305238 4.171031464726264 0 0 0
352 108 2 -5.668146289468655 -4.268783028246135 3.915497102153177 0 0 0
353 108 4 -5.8228939768779195 -3.9738648548229554 4.2884266185850946 0 0 0
354 108 4 -5.513398602059391 -4.563701201669315 3.5425675857212595 0 0 0
411 127 4 -6.467659787066896 -3.464492121425864 3.581457233368699 0 0 0
250 74 2 -3.6389553797322254 -3.8298732950181726 4.676056402324652 0 0 0
252 74 4 -4.131277199304198 -3.8321120821328094 4.763315864874934 0 0 0
251 74 4 -3.1466335601602524 -3.8276345079035354 4.588796939774371 0 0 0
378 116 4 -1.8635439061225934 -4.961097456237702 5.096968121918106 0 0 0
376 116 2 -1.7132492794856389 -4.946677299545988 4.620309350589312 0 0 0
373 115 2 -1.2108589093149442 -3.640809416524107 4.973806110397455 0 0 0
377 116 4 -1.562954652848684 -4.932257142854274 4.143650579260518 0 0 0
406 126 2 -0.01731295289805236 -4.089694707628623 4.539096167414633 0 0 0
408 126 4 -0.18710023928399744 -3.781215294853828 4.184113450545326 0 0 0
16 4 1 -6.613806015123889 -1.7486527440118844 4.3354112457247185 0 0 0
18 4 3 -6.430532801763857 -1.8084662683670536 4.757469620323324 0 0 0
20 4 3 -6.441521753134032 -2.0554542137597664 4.046290178987842 0 0 0
384 118 4 -5.374390943824426 -1.7257504081158563 3.699878384679005 0 0 0
409 127 2 -6.023485735552674 -3.291959605476734 3.4299912540151145 0 0 0
334 102 2 -4.494292669447756 -1.7502461272335161 4.862861428453034 0 0 0
336 102 4 -4.8253428897292565 -2.08890382962211 4.7024971173844206 0 0 0
283 85 2 -2.6294802971631217 -2.685748663745171 4.204584397408688 0 0 0
284 85 4 -2.737306042969351 -2.295483932330422 3.911212537893885 0 0 0
285 85 4 -2.5216545513568924 -3.07601339515992 4.497956256923491 0 0 0
259 77 2 -1.293616182251441 -2.1612993483820726 4.26769476411763 0 0 0
260 77 4 -0.9458373608222004 -1.8580670650268867 4.075080969968669 0 0 0
261 77 4 -1.6413950036806817 -2.4645316317372585 4.460308558266592 0 0 0
374 115 4 -0.9798296515825632 -3.214446309744415 4.851986640490977 0 0 0
17 4 3 -6.5103543119837335 -1.3257418671190648 4.1869385703832105 0 0 0
382 118 2 -5.407719803022351 -1.517291053795533 4.153126533865487 0 0 0
383 118 4 -5.441048662220276 -1.3088316994752103 4.60637468305197 0 0 0
267 79 4 -4.099014073740105 -0.4230087502326335 4.899589327572722 0 0 0
335 102 4 -4.163242449166255 -1.4115884248449224 5.023225739521647 0 0 0
662 211 4 -3.4234742594262153 -0.28935498586793545 3.6899577827478898 0 0 0
370 114 2 -2.275137158182811 -1.1820658701159394 3.706888874588188 0 0 0
372 114 4 -1.8827465118879991 -1.2382332512494163 4.011642555447169 0 0 0
312 94 4 -0.020236340568298608 -1.1392057692277846 5.291114330486262 0 0 0
389 120 4 -1.0435690191259797 -1.0803936615842535 4.903350037518645 0 0 0
356 109 4 -5.29444891655163 -6.610421255439707 6.0267412849001705 0 0 0
1130 367 4 -6.3987645178147785 -6.3571995606833775 6.679865428747115 1 0 0
314 95 4 -4.657182016952726 -5.379120432079172 5.644678501451609 0 0 0
355 109 2 -4.864383456002141 -6.39592889220029 6.164714926419291 0 0 0
357 109 4 -4.434317995452652 -6.181436528960873 6.302688567938411 0 0 0
328 100 2 -2.007942226491191 -6.343673184833896 5.759557023265711 0 0 0
699 223 4 -0.16047485245096188 -0.18147618698338677 5.445856639169664 0 0 0
330 100 4 -1.9519512863844706 -5.884085855240875 5.94835453676515 0 0 0
304 92 2 -0.15463943961292376 -6.316598074563255 6.0321731447229805 0 0 0
309 93 4 -2.895234299888286 -0.5414062981014737 6.643823228133285 0 0 0
306 92 4 -0.05309880247187525 -5.827257631741567 6.01682941545108 0 0 0
401 124 4 -5.8665836829961115 -5.080432488690307 6.566761432537365 0 0 0
424 132 2 -5.719645428663966 -3.9714422662899653 5.50927781520402 0 0 0
425 132 4 -5.538326055484385 -4.316111118625933 5.195706982473855 0 0 0
426 132 4 -5.900964801843548 -3.626773413953997 5.822848647934185 0 0 0
313 95 2 -4.233456015354381 -5.152894335332136 5.505833160442718 0 0 0
315 95 4 -3.8097300137560373 -4.926668238585101 5.3669878194338265 0 0 0
292 88 2 -4.75694707565163 -4.354142495983153 6.46618609373197 0 0 0
294 88 4 -5.139058059479149 -4.13547319912061 6.2291735737090566 0 0 0
293 88 4 -4.374836091824111 -4.5728117928456955 6.703198613754885 0 0 0
271 81 2 -2.9037686325183194 -4.059759412661423 6.274526201479317 0 0 0
272 81 4 -3.2565817716838734 -3.9508042664600316 6.611648827459778 0 0 0
273 81 4 -2.550955493352766 -4.168714558862814 5.9374035754988554 0 0 0
256 76 2 -0.14828010862616217 -3.6953978868040243 6.530821660870829 0 0 0
258 76 4 -0.6255541157414491 -3.7702857931273708 6.659667784670816 0 0 0
343 105 2 -1.5001793227217979 -4.726398084169953 6.4408217860453965 0 0 0
345 105 4 -1.535501598903961 -4.633464439065473 5.95080579200739 0 0 0
375 115 4 -1.4418881670473251 -4.067172523303799 5.095625580303933 0 0 0
262 78 2 -5.4033969251435385 -2.2739005936415535 5.814097793318483 0 0 0
264 78 4 -5.84792664792234 -2.249252173962827 5.586532899335715 0 0 0
263 78 4 -4.958867202364736 -2.2985490133202795 6.041662687301251 0 0 0
300 90 4 -3.5369237080601517 -2.2601434174619364 5.875568958465487 0 0 0
421 131 2 -4.605116733914634 -3.161184758151146 6.644977208524434 0 0 0
422 131 4 -4.112078429604117 -3.1622346282067437 6.561837998428889 0 0 0
298 90 2 -3.144259210576022 -1.9682531963110128 5.978596582000896 0 0 0
299 90 4 -2.7515947130918925 -1.67636297516009 6.081624205536305 0 0 0
98 23 4 -2.0083649683592784 -3.031936559103831 6.697855422070289 0 0 -1
97 23 2 -2.4920436485963613 -2.9299543456978356 6.622658597456621 0 0 -1
99 23 4 -2.9757223288334442 -2.82797213229184 6.547461772842954 0 0 -1
331 101 2 -1.1472347293160774 -2.0923152439856847 6.573879746791264 0 0 0
333 101 4 -0.9590768410202007 -2.270258307159088 6.146173217334027 0 0 0
641 204 4 -5.777126444904127 -0.3314982968942288 6.143843247411844 0 0 0
265 79 2 -3.8072050071260835 -0.6147025629707972 5.257501259197878 0 0 0
266 79 4 -3.5153959405120614 -0.8063963757089609 5.615413190823034 0 0 0
340 104 2 -4.7801144115899366 -1.1717964696746486 6.576682537096057 0 0 0
342 104 4 -4.819469885965975 -1.5508566004558557 6.253008991854985 0 0 0
307 93 2 -2.4680036095297337 -0.5658988394074627 6.385223049022818 0 0 0
308 93 4 -2.0407729191711814 -0.5903913807134517 6.12662286991235 0 0 0
380 117 4 -2.1163100585281565 -6.775738368716072 0.7607711253496153 0 0 0
400 124 2 -6.257044404877045 -4.807139201149583 6.717927578393703 0 0 0
219 63 4 -6.766377131756149 -1.6629075752449722 6.755934158376671 0 0 -1
423 131 4 -5.09815503822515 -3.1601348880955475 6.7281164186199796 0 0 0
1265 412 4 -6.356808921448637 0.8189270529351154 -6.696103545613043 1 0 0
591 187 4 -0.9158981108288291 5.103699089615974 -0.26857749427939226 0 0 0
603 191 4 -5.092579131021482 0.8917666124480803 -5.313837584050298 0 0 0
791 254 4 -4.875387798402981 0.9238770591831497 -6.535994287524465 0 0 1
181 51 2 -1.5015640792781408 0.020586125934030232 -3.5562249891328785 0 0 0
481 151 2 -1.1536247626265959 1.2656348388654834 -6.226665021348499 0 0 0
482 151 4 -1.3570052916474504 0.8260539894684638 -6.350782051841968 0 0 0
483 151 4 -0.9502442336057412 1.7052156882625031 -6.1025479908550295 0 0 0
1275 415 4 -0.23545864848927148 0.4055475085536836 -5.225959552817075 0 0 0
583 185 2 -5.233972463757353 3.321692285053813 -6.104532004385065 0 0 0
585 185 4 -5.380552474973423 3.403796433927986 -6.575460033970746 0 0 0
777 249 4 -5.658606104317402 2.444270351932378 -6.307153147343885 0 0 1
1185 385 4 -6.501009055651821 2.356117102286338 -5.714421481549089 1 0 0