LAMMPS data file via write_data, version 29 Aug 2024, timestep = 2000000, units = lj

1530 atoms
4 atom types
1030 bonds
1 bond types

-6.932675 6.932675 xlo xhi
-6.932675 6.932675 ylo yhi
-6.932675 6.932675 zlo zhi

Masses

1 10
2 10
3 10
4 10

Bond Coeffs # zero

1 0

Atoms # bond

130 34 2 -5.687601282501869 -5.985174262482476 -6.351289910715858 0 0 0
131 34 4 -5.202898526578168 -6.049479505623907 -6.246752481512419 0 0 0
132 34 4 -6.172304038425569 -5.920869019341046 -6.455827339919296 0 0 0
566 179 4 -6.408238971562418 -6.721050131690519 -5.884533574454266 0 1 0
238 70 2 -4.847160177049911 -6.231679045929421 -5.232553747640469 0 0 0
239 70 4 -4.555138387063823 -5.8338388695016725 -5.312843648581762 0 0 0
746 239 4 -4.350831106484175 -6.822813276101138 -6.786544983743554 0 1 1
184 52 2 -2.2930650513205193 -5.691711409890968 -5.319481302530239 0 0 0
185 52 4 -2.1948457269102537 -5.602196617737387 -5.801497968526187 0 0 0
510 160 4 -1.779485212729963 -6.554963490783741 -5.563438955514461 0 1 0
81 17 4 -5.515969450151552 -3.8432302497202744 -6.667137473807075 0 0 0
124 32 2 -6.7826931096168535 -4.138985723453004 -5.221032999391413 0 0 0
125 32 4 -6.43705534131237 -4.3609110645721225 -5.506135921317299 0 0 0
248 73 4 -4.442240041816444 -6.870953427794756 -2.40860344006363 0 0 0
100 24 2 -4.250089451239849 -5.042359891542822 -6.608479954841542 0 0 0
101 24 4 -4.157956514862856 -4.842022012560082 -6.159730296035003 0 0 0
166 46 2 -0.9124121949492963 -4.151620421444071 -5.80531507200502 0 0 0
167 46 4 -0.5808919158171857 -4.1740471232844065 -6.178934326820865 0 0 0
168 46 4 -1.2439324740814066 -4.129193719603736 -5.4316958171891745 0 0 0
91 21 2 -5.987099174907143 -3.0618387667470723 -6.384135422427519 0 0 0
92 21 4 -5.568617239324595 -3.0291956734278553 -6.112460436370077 0 0 0
93 21 4 -6.405581110489691 -3.094481860066289 -6.655810408484961 0 0 0
223 65 2 -4.143809472900815 -2.9941449901427304 -6.347900156184429 0 0 0
224 65 4 -4.321770793602832 -3.33937573879315 -6.662773938072229 0 0 0
225 65 4 -3.9658481521987974 -2.6489142414923106 -6.033026374296629 0 0 0
111 27 4 -2.7687674165733704 -2.6890791184618634 -5.186220800098588 0 0 0
9 2 3 -0.17024865443844 -2.3548403834766534 -6.749872751192674 0 0 1
117 29 4 -0.26021778104491805 -3.0052530656685876 -5.520084025335257 0 0 0
241 71 2 -6.896624413766061 -0.13111959325719394 -5.3339557755536715 0 0 0
914 295 4 -6.887245067857971 -1.318338825318187 -6.558594458156 1 0 0
237 69 4 -5.269551105055124 -1.5139467796475135 -6.236377587103837 0 0 0
138 36 4 -4.344631378351545 -1.3077790185380893 -5.287861513663511 0 0 0
235 69 2 -5.09434206688008 -1.0933776281854062 -6.442346958079553 0 0 0
236 69 4 -4.919133028705037 -0.672808476723299 -6.64831632905527 0 0 0
584 185 4 -3.5546131921281505 -0.1714605764578541 -5.073992283155621 0 0 0
172 48 2 -2.279380674104417 -0.29670705533367037 -5.625241390176825 0 0 0
173 48 4 -1.8528348899376383 -0.0492107068709807 -5.542753503143988 0 0 0
174 48 4 -2.7059264582711955 -0.5442034037963599 -5.707729277209662 0 0 0
139 37 2 -0.17721033210465456 -0.3523248639529649 -5.436997209339336 0 0 0
843 271 4 -6.9212791897501615 -3.3903824154501274 -1.0275572761856517 1 0 0
175 49 2 -6.826805616423722 -6.2672924052635794 -4.6329930710971805 0 0 0
176 49 4 -6.7427983989340445 -6.2604418464772325 -5.1258377294367925 0 0 0
177 49 4 -6.9108128339134 -6.274142964049926 -4.140148412757569 0 0 0
240 70 4 -5.1391819670359995 -6.629519222357169 -5.152263846699176 0 0 0
95 22 4 -4.658807770258185 -5.228763048311917 -3.6566149318420678 0 0 0
169 47 2 -1.9673462053435966 -6.698554175287663 -3.9699909495897767 0 0 0
186 52 4 -2.3912843757307853 -5.781226202044549 -4.837464636534291 0 0 0
211 61 2 -2.9343624693169614 -6.140953618614187 -3.4082075498026803 0 0 0
212 61 4 -3.097256449961551 -6.065419752042331 -3.8748553678307296 0 0 0
252 74 4 -0.7233225636721612 -5.393687523161286 -4.14988021996773 0 0 0
170 47 4 -1.733643253858012 -6.31007619260646 -4.180864815772748 0 0 0
251 74 4 -1.6980300568867737 -5.44301883524531 -4.367852062916955 0 0 0
250 74 2 -1.2106763102794675 -5.418353179203297 -4.2588661414423425 0 0 0
918 296 4 -0.09672098750455826 -6.732352936194073 -4.154088491586347 0 0 0
254 75 4 -5.926961875341424 -4.29208291581691 -4.162091763032828 0 0 0
253 75 2 -6.129109700229248 -4.398098934096388 -3.717235763004135 0 0 0
180 50 4 -5.621987582539981 -3.802327139039454 -4.841912761721016 0 0 0
178 50 2 -5.18754705572906 -3.910539248015658 -4.6193109465099 0 0 0
179 50 4 -4.753106528918138 -4.018751356991862 -4.396709131298785 0 0 0
87 19 4 -1.8771190172613907 -3.7155180733651574 -4.301488928368723 0 0 0
85 19 2 -1.3813913754914757 -3.7802725395189047 -4.29368096458875 0 0 0
86 19 4 -0.8856637337215607 -3.845027005672652 -4.2858730008087775 0 0 0
220 64 2 -5.339794072937723 -2.9821271284415185 -3.67472152618991 0 0 0
232 68 2 -6.7379546304885976 -2.7178032950224638 -4.547303851237935 0 0 0
233 68 4 -6.711627477738547 -2.8497465374671807 -5.028861596271241 0 0 0
234 68 4 -6.764281783238648 -2.585860052577747 -4.065746106204628 0 0 0
196 56 2 -3.5641292384969523 -2.9395223576586247 -4.17000790197895 0 0 0
198 56 4 -3.7004660617918557 -3.2564168321167113 -3.808082270568492 0 0 0
222 64 4 -4.851956623095426 -2.87252615989454 -3.6762216011413797 0 0 0
109 27 2 -2.2753945984214208 -2.648916729633853 -5.256720763440951 0 0 0
128 33 4 -2.5102584847514917 -1.8249445863369753 -4.593630340664728 0 0 0
197 56 4 -3.4277924152020485 -2.622627883200538 -4.531933533389409 0 0 0
110 27 4 -1.7820217802694713 -2.608754340805843 -5.327220726783313 0 0 0
115 29 2 -0.2676995625757627 -2.981938557072943 -5.020683928585014 0 0 0
116 29 4 -0.2751813441066074 -2.958624048477298 -4.521283831834771 0 0 0
107 26 4 -5.6948665476640326 -0.7973552169223169 -5.167454662079709 0 0 0
106 26 2 -5.795916434250217 -1.1509375565776747 -4.828679737528334 0 0 0
108 26 4 -5.896966320836402 -1.5045198962330324 -4.489904812976959 0 0 0
932 301 4 -6.838799502748349 -1.300751757916787 -4.1812115386624145 1 0 0
136 36 2 -4.313457773440556 -1.1585626415778927 -4.811665462436861 0 0 0
137 36 4 -4.282284168529566 -1.009346264617696 -4.335469411210211 0 0 0
127 33 2 -2.938882577868582 -1.5778491778730115 -4.665916203151798 0 0 0
129 33 4 -3.367506670985672 -1.3307537694090479 -4.738202065638868 0 0 0
194 55 4 -3.270652131876433 -0.3838124048612136 -3.857654834983884 0 0 0
209 60 4 -1.8653877819138507 -1.2496590232187255 -4.015334337020888 0 0 0
140 37 4 -0.19007655501858603 -0.7828514692651394 -5.183065520835284 0 0 0
208 60 2 -1.4185898842690883 -1.1537673821681316 -4.218254104014728 0 0 0
210 60 4 -0.9717919866243256 -1.0578757411175377 -4.421173871008569 0 0 0
96 22 4 -5.557382529663719 -5.322234644481642 -3.2278650484973195 0 0 0
103 25 2 -6.066905574891235 -6.294531874809752 -1.9675614332575753 0 0 0
104 25 4 -5.598775417578608 -6.443610694726905 -2.0604574033894463 0 0 0
105 25 4 -6.535035732203863 -6.145453054892599 -1.874665463125704 0 0 0
181 51 2 -5.808641944549887 -6.712753763819794 -3.1965872557114428 0 0 0
183 51 4 -5.720634271838368 -6.3228539371545995 -3.4969749630333764 0 0 0
94 22 2 -5.108095149960952 -5.275498846396779 -3.4422399901696936 0 0 0
156 42 4 -4.207622788499472 -5.840143043677229 -1.894894028103804 0 0 0
247 73 2 -4.520488457238494 -6.76673065066194 -1.9258873763051656 0 0 0
213 61 4 -2.771468488672372 -6.216487485186043 -2.941559731774631 0 0 0
121 31 2 -1.2023852526993115 -6.359785767024502 -3.213332772046156 0 0 0
122 31 4 -0.7350980522169784 -6.242574685395403 -3.0795260659041896 0 0 0
123 31 4 -1.6696724531816445 -6.476996848653601 -3.3471394781881227 0 0 0
76 16 2 -5.3709235659235945 -4.625161223627039 -2.2720094941063596 0 0 0
78 16 4 -5.857174436683874 -4.545552463125418 -2.1870239898355535 0 0 0
255 75 4 -6.3312575251170715 -4.504114952375866 -3.272379762975442 0 0 0
77 16 4 -4.8846726951633155 -4.70476998412866 -2.3569949983771656 0 0 0
258 76 4 -3.9015334152864685 -3.6864559231975416 -2.1527105454010997 0 0 0
257 76 4 -4.531790171757358 -3.9827897472740657 -2.870319551497498 0 0 0
256 76 2 -4.216661793521913 -3.8346228352358036 -2.511515048449299 0 0 0
119 30 4 -1.928366137187874 -5.0658993632787315 -3.2851446351496247 0 0 0
118 30 2 -2.4208180621076387 -5.139597554828165 -3.2397609574111095 0 0 0
120 30 4 -2.9132699870274035 -5.2132957463775975 -3.194377279672594 0 0 0
199 57 2 -3.0586942336297187 -3.8031938731649286 -2.2271103505337324 0 0 0
201 57 4 -3.200919838753104 -3.575319575276024 -2.648827295425578 0 0 0
145 39 2 -0.13308336060094275 -4.310859685655871 -3.0240950463149114 0 0 0
147 39 4 -0.5633264005261578 -4.564624704618462 -3.0018634978579133 0 0 0
221 64 4 -5.8276315227800195 -3.0917280969884975 -3.6732214512384407 0 0 0
163 45 2 -4.662953569045316 -2.0492695975977937 -2.2904056828049337 0 0 0
164 45 4 -4.439746980061893 -1.8808882914468474 -2.7049253498572607 0 0 0
165 45 4 -4.886160158028738 -2.2176509037487406 -1.8758860157526067 0 0 0
135 35 4 -1.8890706001436044 -2.8010430837774156 -3.32280719621789 0 0 0
227 66 4 -2.277876979141729 -2.056398509277193 -1.8815422089642482 0 0 0
229 67 2 -3.202353024372936 -2.368973650971636 -2.503121477278646 0 0 0
230 67 4 -3.2257571226674067 -2.404933518764127 -2.0049657425014153 0 0 0
231 67 4 -3.1789489260784656 -2.3330137831791453 -3.001277212055877 0 0 0
133 35 2 -1.5639663075314012 -2.6770456923274066 -2.96373638726987 0 0 0
134 35 4 -1.2388620149191976 -2.5530483008773976 -2.6046655783218498 0 0 0
187 53 2 -0.41872658201212487 -3.050640566481155 -2.3485862710176906 0 0 0
188 53 4 -0.25997330404772045 -2.7510368403720458 -2.7160573638085856 0 0 0
189 53 4 -0.5774798599765293 -3.3502442925902645 -1.9811151782267957 0 0 0
152 41 4 -6.241439933136113 -1.666893496407007 -2.507733043995768 0 0 0
97 23 2 -5.4404946925290805 -0.30608855092874554 -3.1471912463679805 0 0 0
98 23 4 -5.8322486879067075 -0.08321301772416351 -3.3636521061202855 0 0 0
151 41 2 -6.635438595623996 -1.4963448333689526 -2.764010642496986 0 0 0
99 23 4 -5.0487406971514535 -0.5289640841333276 -2.9307303866156755 0 0 0
193 55 2 -3.4975823464539415 -0.5679073773283158 -3.4519311373469 0 0 0
195 55 4 -3.72451256103145 -0.7520023497954179 -3.0462074397099164 0 0 0
244 72 2 -4.412001215194571 -0.20415613500915042 -1.7476376348533371 0 0 0
245 72 4 -4.221971471047666 -0.1336644532343395 -2.204714892152447 0 0 0
112 28 2 -3.026636801933548 -0.8052881598923919 -2.176338989517371 0 0 0
113 28 4 -3.0226318103519785 -1.282149601873809 -2.3266291262322762 0 0 0
114 28 4 -3.0306417935151173 -0.32842671791097455 -2.0260488528024663 0 0 0
507 159 4 -1.0897070671405416 -0.40973186639445996 -3.2440758394831875 0 0 0
936 302 4 -0.3188612298018182 -1.411041227371962 -2.1022789699767137 0 0 0
190 54 2 -5.4811782529531525 -5.7743694267587955 -0.6787265148229733 0 0 0
191 54 4 -5.922610598185984 -6.0046647719072155 -0.7245690560427852 0 0 0
154 42 2 -4.092291927189256 -5.3869464361504695 -1.7179431101763156 0 0 0
192 54 4 -5.039745907720321 -5.5440740816103755 -0.6328839736031615 0 0 0
249 73 4 -4.5987368726605435 -6.662507873529124 -1.4431713125467014 0 0 0
332 101 4 -4.136511941706463 -5.815925466038394 -0.018503973521278805 0 0 0
142 38 2 -3.0235107788942184 -6.121696192030392 -0.17501757569006215 0 0 0
143 38 4 -2.6968632281516527 -6.176612666330815 -0.5495647135035013 0 0 0
202 58 2 -1.8926779924693637 -6.704424478884935 -1.5261959607549294 0 0 0
204 58 4 -2.2916858581984574 -6.838889174307873 -1.7958475299531127 0 0 0
419 130 4 -1.7022413563826506 -6.287271811255269 -0.3917154764004271 0 0 0
203 58 4 -1.49367012674027 -6.5699597834619965 -1.2565443915567458 0 0 0
214 62 2 -0.6111409519744452 -5.289690678830423 -1.1947094994261587 0 0 0
215 62 4 -0.5296062735714187 -5.263434832167803 -0.7021014130799036 0 0 0
216 62 4 -0.6926756303774717 -5.315946525493043 -1.6873175857724139 0 0 0
160 44 2 -5.860867649335815 -4.024230509964666 -0.48842163108036946 0 0 0
161 44 4 -5.488816991391695 -4.016838960919284 -0.15447002841019325 0 0 0
162 44 4 -6.2329183072799355 -4.031622059010049 -0.8223732337505456 0 0 0
155 42 4 -3.976961065879041 -4.93374982862371 -1.5409921922488272 0 0 0
556 176 2 -6.742746358744259 -0.004366739554804943 -2.5704691251171026 0 0 0
200 57 4 -2.9164686285063333 -4.031068171053834 -1.8053934056418868 0 0 0
159 43 4 -2.028641705913205 -4.68731226576414 -0.6656916206310262 0 0 0
157 43 2 -1.533563801639179 -4.619831994102461 -0.6471367927967643 0 0 0
158 43 4 -1.0384858973651525 -4.552351722440783 -0.6285819649625024 0 0 0
88 20 2 -6.432750453609768 -2.64264137751716 -0.39142609762032643 0 0 0
89 20 4 -6.231271017616589 -2.4601296222676354 -0.811063436363503 0 0 0
83 18 4 -1.3182313293174035 -1.2098187287058928 -0.7225977592533032 0 0 0
217 63 2 -3.5512042132884414 -2.458898427485765 -0.9154600661643937 0 0 0
219 63 4 -4.045064119012775 -2.5089542467021912 -0.9754334642690571 0 0 0
426 132 4 -4.8780085567834535 -2.1451791307319388 -0.12220971790851698 0 0 0
205 59 2 -1.8264939407333034 -3.3793852219851295 -1.060317304995643 0 0 0
206 59 4 -2.2899090143818226 -3.5603973042961132 -1.1101279019892583 0 0 0
218 63 4 -3.057344307564108 -2.408842608269339 -0.8554866680597303 0 0 0
226 66 2 -1.7901814956737914 -1.989307288498335 -1.7940671639558514 0 0 0
207 59 4 -1.363078867084784 -3.1983731396741457 -1.0105067080020276 0 0 0
228 66 4 -1.3024860122058535 -1.9222160677194768 -1.7065921189474549 0 0 0
150 40 4 -5.365896221908244 -0.5890635179218003 -0.3032841468042581 0 0 0
269 80 4 -6.623697145236951 -0.7519276998390403 -0.15351699715216277 0 0 0
148 40 2 -4.865932755773462 -0.5843132153741859 -0.2995468810710553 0 0 0
149 40 4 -4.365969289638681 -0.5795629128265714 -0.2958096153378526 0 0 0
246 72 4 -4.602030959341476 -0.27464781678396144 -1.2905603775542267 0 0 0
84 18 4 -2.2767451590712047 -1.4115998097623303 -0.9239323898991361 0 0 0
82 18 2 -1.797488244194304 -1.3107092692341116 -0.8232650745762196 0 0 0
630 200 4 -1.1222297298012618 -6.680543697558045 -6.904678636492826 0 1 1
391 121 2 -6.523970856034139 -5.384593579944145 0.6477433698245746 0 0 0
392 121 4 -6.7315872841594 -5.484156599062137 1.091570615492326 0 0 0
393 121 4 -6.316354427908878 -5.2850305608261525 0.20391612415682336 0 0 0
360 110 4 -5.063840429689532 -5.577162149545585 1.154906552032425 0 0 0
295 89 2 -3.747948368110159 -6.192157569773014 1.7259258424026853 0 0 0
297 89 4 -4.166219560837587 -6.397179152984995 1.5442245497504712 0 0 0
331 101 2 -4.022090982751498 -5.694882666552275 0.4529368868678466 0 0 0
333 101 4 -3.907670023796533 -5.573839867066157 0.924377747256972 0 0 0
358 110 2 -4.971279552718085 -6.045621129508165 1.006654509393505 0 0 0
359 110 4 -4.878718675746637 -6.5140801094707435 0.8584024667545848 0 0 0
418 130 2 -1.8375784313625476 -6.03987730101241 0.021176558443557803 0 0 0
420 130 4 -1.9729155063424446 -5.792482790769552 0.4340685932875427 0 0 0
144 38 4 -3.350158329636784 -6.066779717729968 0.199529562123377 0 0 0
283 85 2 -0.27027780283411246 -5.597255615488578 0.6902933514650611 0 0 0
363 111 4 -0.8087785547085753 -0.7839430306187977 6.715426207585066 0 0 0
285 85 4 -0.5606144905767674 -5.6820242363774405 1.088437657795137 0 0 0
325 99 2 -6.8949342788978365 -4.035537885066386 1.4849342536298333 0 0 0
327 99 4 -6.806346024857454 -4.527627271096676 1.4853309935776005 0 0 0
421 131 2 -4.45961232529461 -4.1425046946082436 0.4841533100140069 0 0 0
422 131 4 -4.4113487673378815 -3.936761790401526 0.9372984151867858 0 0 0
271 81 2 -2.0481558357324445 -3.6712408086599493 0.4792586856863969 0 0 0
273 81 4 -2.3589614988857686 -3.9708020912183475 0.22694364898842057 0 0 0
277 83 2 -2.89423593947945 -5.206206460069292 0.5992068784943793 0 0 0
278 83 4 -2.64217310712728 -5.223103418027241 1.0306913177944856 0 0 0
279 83 4 -3.1462987718316198 -5.1893095021113425 0.16772243919427282 0 0 0
367 113 2 -2.8843299357212895 -3.8115993007910354 1.5736654026064645 0 0 0
368 113 4 -2.4292108011120277 -3.630683650390776 1.4729871986437515 0 0 0
369 113 4 -3.3394490703305513 -3.992514951191295 1.6743436065691775 0 0 0
30 6 3 -5.388772896910068 -2.860766267431592 0.3947919667930961 0 0 0
26 6 1 -5.611558123022748 -2.9532492023946157 0.7810737936583834 0 0 0
27 6 3 -5.437384548092886 -2.6974337014268364 1.1214001006941299 0 0 0
28 6 3 -5.56108851546002 -3.40157677143037 0.8894952378232025 0 0 0
29 6 3 -6.061702032286836 -2.8517495844469947 0.7324087290970199 0 0 0
262 78 2 -3.5337217848805134 -2.4489093078819373 1.5912799314808528 0 0 0
264 78 4 -3.8014786033964354 -2.072729714530191 1.7831006803172684 0 0 0
424 132 2 -4.77920984629931 -1.8844671872778147 0.29284220335806266 0 0 0
263 78 4 -3.2659649663645913 -2.8250889012336837 1.399459182644437 0 0 0
432 134 4 -3.08555373083599 -1.7914536770598903 0.6475207965458587 0 0 0
431 134 4 -2.164658096044673 -1.8609914657803868 0.26396411786297846 0 0 0
430 134 2 -2.6251059134403314 -1.8262225714201386 0.4557424572044186 0 0 0
259 77 2 -0.44074677794460365 -2.9198299810802886 0.32049768713762566 0 0 0
260 77 4 -0.7834704346249918 -2.620035082248422 0.5270491668851708 0 0 0
272 81 4 -1.7373501725791203 -3.3716795261015506 0.7315737223843735 0 0 0
340 104 2 -6.268139602526603 -1.2762461767649356 1.1501383078446363 0 0 0
341 104 4 -6.48272072763028 -1.1494667260875873 1.583591778974964 0 0 0
342 104 4 -6.053558477422927 -1.4030256274422839 0.7166848367143086 0 0 0
435 135 4 -5.493950432868991 -0.6321953568224427 1.1162115672970176 0 0 0
321 97 4 -3.57412706583852 -0.9810233532279269 0.17421566128316124 0 0 0
434 135 4 -4.509443281267971 -0.587696566242781 0.9466075399798747 0 0 0
433 135 2 -5.001696857068481 -0.6099459615326118 1.0314095536384462 0 0 0
425 132 4 -4.680411135815166 -1.6237552438236904 0.7078941246246424 0 0 0
319 97 2 -3.262119620719471 -0.882866397036244 0.552390972668832 0 0 0
320 97 4 -2.9501121756004225 -0.7847094408445612 0.9305662840545027 0 0 0
338 103 4 -2.554996252599364 -0.7140121575379089 1.7026786922167458 0 0 0
385 119 2 -1.4455836284621675 -0.24196968517778877 0.2247488402500613 0 0 0
386 119 4 -0.9507788231129861 -0.28257569202324007 0.2840730074267092 0 0 0
427 133 2 -0.5632215605274201 -1.5548609834342615 0.7339972629738878 0 0 0
428 133 4 -0.07213107395285356 -1.5200578526152804 0.8212834364571753 0 0 0
429 133 4 -1.0543120471019867 -1.5896641142532428 0.6467110894906002 0 0 0
1020 330 4 -0.057135696781886736 -5.533591135699172 2.6641965862083867 0 0 0
379 117 2 -6.310059283479558 -5.301225111380413 2.752256533429437 0 0 0
381 117 4 -6.729359147888085 -5.55263253837038 2.647461832411702 0 0 0
437 136 4 -3.95932858955132 -5.306948040677657 3.0066762464353314 0 0 0
328 100 2 -5.034107032780274 -6.65077601221397 3.0699182423230216 0 0 0
330 100 4 -4.68601119347905 -6.305610766577445 3.168357258297335 0 0 0
276 82 4 -2.44080350921622 -5.600254571451038 3.1005459306770238 0 0 0
296 89 4 -3.3296771753827303 -5.987135986561033 1.9076271350548994 0 0 0
375 115 4 -2.030258129168695 -6.290534551949019 2.0348018694584527 0 0 0
274 82 2 -2.2171360898076817 -5.725402524158958 3.5298603555779593 0 0 0
373 115 2 -1.5675271249400857 -6.113943360157185 1.9662776496008485 0 0 0
374 115 4 -1.1047961207114758 -5.937352168365351 1.8977534297432443 0 0 0
412 128 2 -1.0459710797993236 -6.755831974288128 2.7609105793954702 0 0 0
413 128 4 -0.5726657211398507 -6.717030244491111 2.60446102449336 0 0 0
414 128 4 -1.5192764384587967 -6.794633704085145 2.917360134297581 0 0 0
364 112 2 -5.2821108561011725 -4.744812831267039 1.8696253936448284 0 0 0
366 112 4 -5.732232148059814 -4.718595190583884 1.653515565449906 0 0 0
380 117 4 -5.890759419071031 -5.049817684390446 2.8570512344471726 0 0 0
396 122 4 -6.059495277462593 -3.655184088325262 2.1744148166232864 0 0 0
438 136 4 -3.5258807407288724 -4.795395710490722 2.264761712386725 0 0 0
436 136 2 -3.742604665140096 -5.051171875584189 2.6357189794110285 0 0 0
365 112 4 -4.83198956414253 -4.771030471950194 2.085735221839751 0 0 0
316 96 2 -2.0154830178972287 -3.6331114351316565 2.929589235633693 0 0 0
317 96 4 -1.6991927509310427 -3.9263845461785225 3.1824752758949897 0 0 0
21 5 1 -5.877893174531503 -1.9746611564893346 2.205804117964452 0 0 0
23 5 3 -6.21094054563367 -2.1115974861785864 1.9131816816861567 0 0 0
24 5 3 -5.486415322876026 -1.8896880738080166 1.9716574398263256 0 0 0
25 5 3 -5.804594553987775 -2.2966246696539265 2.5194389508790427 0 0 0
394 122 2 -6.334009169745007 -3.3932788895158628 2.5000646128478365 0 0 0
395 122 4 -6.608523062027421 -3.1313736907064635 2.8257144090723867 0 0 0
1064 345 4 -6.753475977911356 -1.9329296009393244 3.1851334591302436 1 0 0
307 93 2 -3.9993339157335566 -3.122153833601909 2.9945789979718405 0 0 0
308 93 4 -3.7036995142738647 -2.9932000704609893 2.61251718668278 0 0 0
309 93 4 -4.294968317193249 -3.2511075967428282 3.376640809260901 0 0 0
318 96 4 -2.3317732848634147 -3.3398383240847913 2.6767031953723963 0 0 0
351 107 4 -2.007311997835689 -1.9025139756310998 1.9784706395140437 0 0 0
357 109 4 -2.573764206217441 -1.8122328878877896 2.8587902121472752 0 0 0
355 109 2 -2.768416180023108 -1.7502827182751788 3.3151593451725065 0 0 0
14 3 3 -1.5877813258645652 -2.343967445904806 3.316312888532845 0 0 0
15 3 3 -0.837622548233098 -2.35548417495816 3.3797886578745753 0 0 0
349 107 2 -1.5163488626488764 -1.9958641890478193 1.9939928024426739 0 0 0
350 107 4 -1.0253857274620637 -2.0892144024645387 2.009514965371304 0 0 0
22 5 3 -6.013242866077633 -1.587770154834552 2.41460022386012 0 0 0
370 114 2 -4.0804721687864705 -0.7761256833505146 2.1808316560465775 0 0 0
371 114 4 -3.683661880520503 -0.8541416920545923 1.8867991790781868 0 0 0
372 114 4 -4.477282457052438 -0.6981096746464368 2.474864133014968 0 0 0
337 103 2 -2.4107094237335454 -0.6253328292082756 2.173122405898514 0 0 0
339 103 4 -2.2664225948677266 -0.5366535008786422 2.6435661195802824 0 0 0
765 245 4 -0.8898948579232223 -0.16269039686282716 2.080970853587072 0 0 0
60 12 3 -6.750722905276568 -6.813640424095044 4.305455199827592 1 1 0
384 118 4 -6.471438077344853 -5.7886246338361875 5.1326397280903375 0 0 0
678 216 4 -5.635995336961778 -6.605654481440503 4.91417863397233 0 1 0
303 91 4 -6.639158397151711 -5.4173948373832 4.028665978619144 0 0 0
280 84 2 -4.688977707828467 -6.590586433607833 4.1725186805707715 0 0 0
281 84 4 -5.0604822239476785 -6.259249919808583 4.125609095984767 0 0 0
282 84 4 -4.317473191709255 -6.921922947407084 4.219428265156776 0 0 0
291 87 4 -4.5348393126522195 -5.1676444095008796 4.535072243171593 0 0 0
267 79 4 -2.3865371181696107 -5.4530483534933865 5.131697751788977 0 0 0
275 82 4 -1.9934686703991433 -5.850550476866878 3.959174780478895 0 0 0
408 126 4 -1.0108161209790458 -5.367195460163496 3.755026766777717 0 0 0
406 126 2 -0.5255354386430923 -5.325378935391621 3.8679605420946355 0 0 0
407 126 4 -0.04025475630713882 -5.283562410619745 3.9808943174115545 0 0 0
409 127 2 -1.0021679528332859 -6.306484298790131 4.728108807451201 0 0 0
410 127 4 -0.8298361059391614 -6.046686694006343 4.337203525963792 0 0 0
411 127 4 -1.17449979972741 -6.566281903573918 5.119014088938608 0 0 0
301 91 2 -6.1818703321044275 -5.219337177234378 3.9879132017645245 0 0 0
302 91 4 -5.724582267057144 -5.0212795170855555 3.9471604249099053 0 0 0
352 108 2 -6.685105111632758 -3.9576504474799608 3.6851004388049664 0 0 0
353 108 4 -6.206447419103788 -3.8801252867239167 3.5631305128721014 0 0 0
289 87 2 -4.042647723793936 -5.133478275288272 4.453954334361827 0 0 0
290 87 4 -3.5504561349356534 -5.099312141075665 4.372836425552061 0 0 0
306 92 4 -4.3784723780215895 -3.7705607533961354 4.440258695691102 0 0 0
334 102 2 -1.937654546134764 -4.116719314933199 4.721254978369151 0 0 0
336 102 4 -2.363306810295117 -4.343356224831915 4.589134347554831 0 0 0
335 102 4 -1.5120022819744114 -3.8900824050344833 4.853375609183471 0 0 0
347 106 4 -0.38524980792033636 -4.317126228334035 4.96547216447976 0 0 0
19 4 3 -5.466352783711165 -1.9412533415909707 4.355868870310177 0 0 0
286 86 2 -6.593995599801508 -2.8970047631411915 4.556711228683814 0 0 0
287 86 4 -6.12070719786243 -2.8994420659910616 4.71793203424143 0 0 0
304 92 2 -4.111354231498437 -3.352221117082491 4.379927571989336 0 0 0
305 92 4 -3.8442360849752837 -2.9338814807688465 4.31959644828757 0 0 0
292 88 2 -1.8788609369003302 -2.372252893938485 4.770174293555421 0 0 0
293 88 4 -2.354850302730946 -2.345550131449164 4.619439141412777 0 0 0
11 3 1 -1.230068022704481 -2.388616354002776 3.6084561200951013 0 0 0
12 3 3 -1.251456581711484 -2.052847759754144 3.9221470199624453 0 0 0
13 3 3 -1.2528410442493623 -2.7981835073844343 3.825334280268592 0 0 0
294 88 4 -1.4028715710697144 -2.3989556564278063 4.920909445698064 0 0 0
313 95 2 -0.2126593682812339 -1.7908673648802909 4.639180354460767 0 0 0
314 95 4 -0.3107684771414895 -2.0662397231786347 4.233539297559318 0 0 0
16 4 1 -5.432448239884753 -1.5774132576768594 4.069912798080209 0 0 0
20 4 3 -5.8480320577639535 -1.4314981827761484 3.9541592614881624 0 0 0
18 4 3 -5.194821772748723 -1.6964695024528083 3.6895718027928304 0 0 0
17 4 3 -5.207740710099586 -1.2390353979076798 4.285799226731419 0 0 0
261 77 4 -0.09802312126421547 -3.219624879912155 0.11394620739008054 0 0 0
377 116 4 -4.613591341883214 -0.24722492619381922 4.705703423196505 0 0 0
356 109 4 -2.9630681538287753 -1.6883325486625682 3.771528478197738 0 0 0
315 95 4 -0.11455025942097834 -1.5154950065819468 5.044821411362216 0 0 0
388 120 2 -0.4318393873826667 -0.16922724178544504 5.242561305250263 0 0 0
389 120 4 -0.20972972213467073 -0.4893286807178697 4.92918873881069 0 0 0
382 118 2 -6.447677900102884 -5.421215178856254 5.470938037824121 0 0 0
405 125 4 -5.597889499743421 -5.990174381810786 5.944342136118223 0 0 0
403 125 2 -5.129006924614361 -5.821487568783427 5.903185243005557 0 0 0
404 125 4 -4.6601243494853 -5.6528007557560676 5.86202834989289 0 0 0
102 24 4 -4.342222387616842 -5.242697770525562 6.808120386351919 0 0 -1
265 79 2 -2.4806345430011203 -5.91164616565507 5.307293085783117 0 0 0
266 79 4 -2.57473196783263 -6.370243977816754 5.482888419777257 0 0 0
400 124 2 -3.3311127171857677 -5.507679231107145 6.265105124646779 0 0 0
401 124 4 -3.345487410496887 -6.0018825457522444 6.339646737091589 0 0 0
783 251 4 -4.614329280137131 -6.923272025820983 5.649279542698793 0 1 0
383 118 4 -6.4239177228609154 -5.053805723876321 5.8092363475579045 0 0 0
80 17 4 -4.74455976240463 -4.060334702782497 6.60005472919408 0 0 -1
402 124 4 -3.3167380238746484 -5.013475916462046 6.19056351220197 0 0 0
310 94 2 -2.4402322833798125 -4.631992567097883 6.488479703020812 0 0 0
311 94 4 -2.451556965739468 -5.123886512507858 6.3995297281015775 0 0 0
312 94 4 -2.4289076010201573 -4.140098621687908 6.577429677940047 0 0 0
441 137 4 -0.7813539065910182 -5.076463693438983 5.8194368960215215 0 0 0
440 137 4 -0.7745815359653379 -4.515537695012984 6.647275140660014 0 0 0
439 137 2 -0.777967721278178 -4.796000694225984 6.233356018340768 0 0 0
346 106 2 -0.3475007481190105 -4.009754102410635 5.358024561860775 0 0 0
348 106 4 -0.3097516883176846 -3.7023819764872337 5.750576959241791 0 0 0
415 129 2 -6.504848664358492 -1.7812973151069724 6.216813511478443 0 0 0
416 129 4 -6.436208839069534 -2.1255621760276693 6.572861654178108 0 0 0
397 123 2 -3.8789698263490138 -2.9340354504393633 5.715419519839561 0 0 0
398 123 4 -3.770180616154681 -2.65058789245742 5.318150858076047 0 0 0
399 123 4 -3.9877590365433466 -3.2174830084213064 6.112688181603076 0 0 0
3 1 3 -3.5881079581487754 -1.8907004911238376 6.329412777646011 0 0 0
1 1 1 -3.1250714282052896 -1.870119137790489 6.351174667103299 0 0 0
2 1 3 -2.9590177526937067 -1.8050781002010043 5.927151271194221 0 0 0
4 1 3 -2.9565023348861468 -2.26860228654725 6.518792210738647 0 0 0
6 2 1 -0.3666910358012318 -2.448970210069158 6.7057822811180685 0 0 0
7 2 3 -0.8239364754818179 -2.4462076781980686 6.755971685464949 0 0 0
8 2 3 -0.24793419399788255 -2.125433739240884 6.395104047943291 0 0 0
10 2 3 -0.23419867218734022 -2.859805621851237 6.5606615106901724 0 0 0
300 90 4 -5.334173635565427 -1.7098258404431068 5.952594603434985 0 0 0
322 98 2 -6.067882433125954 -0.29342313438374024 6.1414856637403235 0 0 0
323 98 4 -5.584545836519511 -0.17224552816851857 6.100233728842676 0 0 0
324 98 4 -6.551219029732397 -0.4146007405989619 6.182737598637971 0 0 0
417 129 4 -6.57348848964745 -1.437032454186276 5.860765368778779 0 0 0
298 90 2 -4.852734152116267 -1.6074112585430453 6.040499536118274 0 0 0
299 90 4 -4.371294668667107 -1.5049966766429839 6.128404468801563 0 0 0
5 1 3 -2.997278976428924 -1.5232418839195692 6.617154478397026 0 0 0
343 105 2 -3.0846757722617997 -0.5946711785242208 5.649689818688193 0 0 0
344 105 4 -3.227496001277342 -0.934274743547146 5.31164869573442 0 0 0
345 105 4 -2.941855543246257 -0.25506761350129553 5.987730941641967 0 0 0
362 111 4 -1.6201754874665244 -1.2980699083779241 6.437382018514035 0 0 0
690 220 4 -1.4175244746426918 -0.21257150110060682 5.994933107797955 0 0 0
361 111 2 -1.21447702108755 -1.0410064694983607 6.57640411304955 0 0 0
79 17 2 -5.130264606278091 -3.9517824762513856 6.8991336276935025 0 0 -1
423 131 4 -4.507875883251338 -4.348247598814961 0.03100820484122796 0 0 0
90 20 4 -6.634229889602947 -2.8251531327666846 0.028211241122850006 0 0 0
387 119 4 -1.9403884338113488 -0.20136367833233754 0.1654246730734134 0 0 0
544 172 2 -6.472166318252209 1.0734304495728566 -6.117212153165293 0 0 0
545 172 4 -6.098391661292535 0.8972120317738188 -6.398707401869639 0 0 0
546 172 4 -6.845940975211883 1.2496488673718944 -5.835716904460948 0 0 0
242 71 4 -6.597384525503715 0.266621813512937 -5.286445117662656 0 0 0
583 185 2 -3.8214435413995997 0.12912605017478032 -5.3713964603239415 0 0 0
585 185 4 -4.088273890671049 0.42971267680741476 -5.668800637492262 0 0 0
526 166 2 -6.287092681709165 2.628422302090549 -6.929587739562965 0 0 0
528 166 4 -6.361004518207053 2.2098570035430267 -6.666262595914644 0 0 0
520 164 2 -4.353210485493555 2.7387001456113325 -6.057243914835405 0 0 0
521 164 4 -4.603165640205153 2.804283161753766 -6.485287474098728 0 0 0