LAMMPS data file via write_data, version 29 Aug 2024, timestep = 2000000, units = lj

1530 atoms
4 atom types
1030 bonds
1 bond types

-6.798029 6.798029 xlo xhi
-6.798029 6.798029 ylo yhi
-6.798029 6.798029 zlo zhi

Masses

1 10
2 10
3 10
4 10

Bond Coeffs # zero

1 0

Atoms # bond

82 18 2 -5.554702525537077 -5.149475480456115 -6.517564822071906 0 0 0
84 18 4 -5.9797658077610745 -5.382472379880599 -6.640176611731924 0 0 0
888 286 4 -6.6465733142012215 -5.691415877983424 -6.253043128512138 1 0 0
187 53 2 -4.082280437100758 -5.631654315419848 -5.196254782211969 0 0 0
188 53 4 -4.562081358187741 -5.734239437163778 -5.29252195689201 0 0 0
189 53 4 -3.6024795160137764 -5.529069193675917 -5.099987607531927 0 0 0
390 120 4 -2.328993455058993 -5.642011746971889 -6.734415550874312 0 0 1
83 18 4 -5.129639243313079 -4.9164785810316305 -6.3949530324118875 0 0 0
239 70 4 -6.224349383877253 -3.6411985718599613 -5.3535920848733305 0 0 0
238 70 2 -6.6646278530450385 -3.8347108683143154 -5.490368766760829 0 0 0
109 27 2 -4.228305665018002 -4.407018451843658 -6.504712013652684 0 0 0
110 27 4 -4.172388461631878 -4.6408689553395135 -6.066320398335829 0 0 0
222 64 4 -4.678419166633483 -3.4995677091168815 -5.372372805410409 0 0 0
7 2 3 -3.5684513448723942 -4.474933875273062 -5.234383226383389 0 0 0
192 54 4 -1.816564966340578 -4.543484212497898 -6.415023182075422 0 0 0
78 16 4 -1.495811699718778 -3.353222234273431 -6.432144390275197 0 0 0
190 54 2 -1.4326279650987206 -4.503101524547481 -6.0972786029067 0 0 0
191 54 4 -1.048690963856863 -4.462718836597064 -5.779534023737977 0 0 0
214 62 2 -0.3034712065720124 -0.7328215110962852 -0.6353623776395034 0 0 0
151 41 2 -5.791105842895617 -2.4779545978959523 -6.516257773631716 0 0 0
152 41 4 -5.878798973544806 -1.989414127271306 -6.576574631963188 0 0 0
153 41 4 -5.703412712246428 -2.966495068520598 -6.4559409153002445 0 0 0
171 47 4 -5.1653674797653135 -2.3902099498086917 -5.515368343047483 0 0 0
169 47 2 -5.4999088971614265 -2.1114779656631755 -5.269623513883041 0 0 0
127 33 2 -4.299358879094765 -1.8708440203320453 -6.457111210332426 0 0 0
129 33 4 -4.527897626560771 -2.3091048052303775 -6.3816292566825235 0 0 0
220 64 2 -4.254703189615247 -3.523791330147668 -5.636717253060742 0 0 0
221 64 4 -3.830987212597012 -3.548014951178454 -5.901061700711075 0 0 0
140 37 4 -3.840145677660889 -2.223061682866033 -5.195075583318443 0 0 0
88 20 2 -2.559400374672388 -1.781132254383846 -6.238684579554453 0 0 0
90 20 4 -2.541839418669833 -2.250638363652789 -6.067641818282673 0 0 0
199 57 2 -0.8251387586781236 -6.5716140352190235 -3.8398130904514045 0 0 0
329 100 4 -3.169332656353549 -2.992989523962696 -6.690516452038384 0 0 1
76 16 2 -1.0717603859043645 -3.113615270261472 -6.545144328545767 0 0 0
77 16 4 -0.647709072089951 -2.8740083062495128 -6.658144266816337 0 0 0
94 22 2 -0.22131249816069878 -2.374144912230682 -5.3584283357095135 0 0 0
172 48 2 -6.182491125389727 -0.14712244446790804 -5.788184652441222 0 0 0
46 10 1 -6.787488230208226 -5.513736561458017 -1.4635333346237411 1 0 0
174 48 4 -6.249058959972225 -0.4214225604449331 -6.200892987435498 0 0 0
170 47 4 -5.8344503145575395 -1.8327459815176588 -5.0238786847186 0 0 0
128 33 4 -4.07082013162876 -1.4325832354337131 -6.532593163982329 0 0 0
136 36 2 -4.447098491651226 -0.5138244921902549 -5.252215575320711 0 0 0
137 36 4 -4.387895290182451 -0.9750911807936391 -5.068563668386208 0 0 0
89 20 4 -2.576961330674943 -1.3116261451149023 -6.409727340826234 0 0 0
115 29 2 -1.0510923249384494 -1.382749755843551 -5.509559932865821 0 0 0
117 29 4 -1.2116318622157511 -1.0400862804793016 -5.836376088558979 0 0 0
401 124 4 -0.11962295403371609 -1.400740409905231 -6.410106976460793 0 0 1
124 32 2 -5.649911836357079 -5.152566038346905 -4.819194903659892 0 0 0
125 32 4 -5.295294284499095 -5.472979530510317 -4.966101629013426 0 0 0
226 66 2 -6.183069558184357 -5.736342511659544 -3.734418112675948 0 0 0
227 66 4 -5.707343034433676 -5.6937896413707065 -3.5865210950255624 0 0 0
228 66 4 -6.658796081935038 -5.778895381948381 -3.8823151303263335 0 0 0
231 67 4 -4.705218203836095 -5.713961686458299 -4.062899282931153 0 0 0
230 67 4 -3.7457030018174926 -5.8586130105307985 -3.8212247672306336 0 0 0
229 67 2 -4.225460602826794 -5.7862873484945485 -3.9420620250808933 0 0 0
103 25 2 -2.877155587498577 -5.841132050663345 -3.927204803313377 0 0 0
104 25 4 -2.6250614136551453 -5.8163988952434575 -4.3582927276826835 0 0 0
105 25 4 -3.1292497613420087 -5.865865206083233 -3.4961168789440693 0 0 0
598 190 2 -2.2579810233899305 -6.631095214571775 -4.824036038166545 0 1 0
599 190 4 -2.1071172814609147 -6.416889248412539 -4.398176982335991 0 1 0
156 42 4 -1.1365909681155557 -5.344069508486384 -4.778305370426771 0 0 0
201 57 4 -1.227467664400216 -6.345317218801353 -3.647664183351384 0 0 0
126 32 4 -6.004529388215064 -4.832152546183494 -4.672288178306358 0 0 0
160 44 2 -5.615978935711466 -3.6039166588780693 -4.091142142097747 0 0 0
161 44 4 -5.515958346153469 -3.9417391864248374 -4.445926332199359 0 0 0
9 2 3 -3.755645844604081 -4.04739533336814 -4.645257590839701 0 0 0
157 43 2 -3.8207272940154176 -3.3106778616452774 -3.9008500037947975 0 0 0
158 43 4 -3.37999316186496 -3.501223607481263 -4.040297999482245 0 0 0
8 2 3 -3.2147201610244 -3.820302547939688 -5.128401742878109 0 0 0
6 2 1 -3.405109505423974 -4.186140442086345 -4.915764651229077 0 0 0
10 2 3 -3.091232359870462 -4.40102086943447 -4.665349916356299 0 0 0
183 51 4 -1.991237190006112 -3.489391795229454 -4.520578998917402 0 0 0
154 42 2 -1.0129943328715418 -4.859643914053754 -4.785769632934153 0 0 0
155 42 4 -0.8893976976275283 -4.375218319621123 -4.793233895441535 0 0 0
162 44 4 -5.715999525269463 -3.266094131331301 -3.7363579519961365 0 0 0
139 37 2 -3.8073563993816015 -2.1985332127949757 -4.696755187001133 0 0 0
141 37 4 -3.774567121102314 -2.1740047427239184 -4.198434790683823 0 0 0
159 43 4 -4.261461426165875 -3.120132115809292 -3.7614020081073503 0 0 0
181 51 2 -1.867370073607194 -3.043001206290811 -4.3324503738177444 0 0 0
182 51 4 -1.7435029572082765 -2.5966106173521677 -4.144321748718087 0 0 0
96 22 4 -0.5755976769280977 -2.6932374630777414 -5.207889450036783 0 0 0
234 68 4 -4.365048803522146 -1.0950148904510801 -3.5308612055417936 0 0 0
496 156 2 -4.247241377021803 -0.028229847817818843 -3.720003749300042 0 0 0
106 26 2 -1.9539603620220767 -0.41986154228406075 -4.196510435064024 0 0 0
108 26 4 -2.2724828200607186 -0.5805357833254237 -3.846185968332227 0 0 0
223 65 2 -3.2316317543477324 -1.0209529602462863 -4.271224912119501 0 0 0
224 65 4 -3.288856236831361 -1.184858862546691 -4.740117451829521 0 0 0
225 65 4 -3.1744072718641037 -0.8570470579458819 -3.8023323724094813 0 0 0
116 29 4 -0.8905527876611478 -1.7254132312078005 -5.182743777172663 0 0 0
107 26 4 -1.6354379039834352 -0.2591873012426981 -4.546834901795821 0 0 0
184 52 2 -0.8188374186152492 -0.21284001871600136 -3.506420686448384 0 0 0
185 52 4 -0.5310867940713841 -0.6208407046623808 -3.5335319081404015 0 0 0
972 314 4 -0.23817485322352613 -1.2652021673318425 -4.764332669699335 0 0 0
49 10 3 -6.538248493033312 -5.40967916221661 -1.8408284592621043 1 0 0
213 61 4 -5.3987774937778035 -5.099072011831206 -2.324958377608117 0 0 0
142 38 2 -4.257957593958511 -6.196382541134398 -2.5227116439665394 0 0 0
143 38 4 -4.688231738348232 -6.0343515380593695 -2.719206210589367 0 0 0
144 38 4 -3.8276834495687897 -6.358413544209426 -2.326217077343711 0 0 0
178 50 2 -1.8642005889790887 -5.616507591362129 -2.6940315628269413 0 0 0
180 50 4 -2.3118817181609885 -5.7693153921525075 -2.5320705101273835 0 0 0
134 35 4 -2.8417551452987158 -6.286014213813475 -1.591227414723983 0 0 0
91 21 2 -0.02121376258225669 -6.421335769494246 -1.8976789880018388 0 0 0
179 50 4 -1.4165194597971889 -5.463699790571751 -2.855992615526499 0 0 0
865 279 2 -6.66437810011908 -4.072385832859059 -2.313855495291874 1 0 0
236 69 4 -6.279682625687679 -4.995394047898521 -3.236861801001453 0 0 0
235 69 2 -6.636628957699389 -5.146744437630729 -2.921136642689746 0 0 0
205 59 2 -5.111809358292241 -3.978654084241533 -3.073834133622378 0 0 0
207 59 4 -5.486154835775868 -3.6668114661471782 -2.9614969401934905 0 0 0
211 61 2 -5.4144095294000625 -4.823172284817869 -1.908263069143686 0 0 0
212 61 4 -5.4300415650223215 -4.547272557804533 -1.4915677606792554 0 0 0
866 279 4 -6.318503501147827 -3.718727453110028 -2.3866326360702503 1 0 0
121 31 2 -4.20731358054788 -4.552239529954028 -1.9318397297979188 0 0 0
123 31 4 -4.446541687633065 -4.843969980977336 -2.259960525734503 0 0 0
206 59 4 -4.7374638808086145 -4.290496702335888 -3.1861713270512655 0 0 0
11 3 1 -1.7491482081571676 -4.41914758341019 -2.8390504902656115 0 0 0
13 3 3 -1.893943815347951 -4.740039130829672 -2.536787613066464 0 0 0
15 3 3 -2.0680174067634254 -4.349806365731128 -3.1567204915416562 0 0 0
216 62 4 -0.7356084367192325 -0.4843392035930195 -0.5964527749958016 0 0 0
12 3 3 -1.3638344952269437 -4.568390221230884 -3.041189001400862 0 0 0
14 3 3 -1.6579271622580263 -4.022079838231389 -2.6169785953229736 0 0 0
130 34 2 -3.9643085670871137 -2.4693391140851175 -2.5524433671158993 0 0 0
131 34 4 -3.6736653761877904 -2.20620428410863 -2.242142550427934 0 0 0
132 34 4 -4.254951757986436 -2.732473944061605 -2.8627441838038643 0 0 0
145 39 2 -2.7547149117565732 -1.8381269131794782 -2.5334788968234543 0 0 0
146 39 4 -2.513302178295593 -2.1765468063732523 -2.2556446512496575 0 0 0
165 45 4 -1.8105337129449843 -2.7963161961835072 -3.0406163576866656 0 0 0
163 45 2 -1.4211613527256113 -3.0778623494121216 -2.9023379114304464 0 0 0
164 45 4 -1.031788992506238 -3.359408502640736 -2.764059465174227 0 0 0
99 23 4 -1.3851213873530615 -3.074376210245858 -1.766170764019816 0 0 0
1 1 1 -6.210148483643729 -1.1296913476908976 -2.981205964429166 0 0 0
2 1 3 -6.597165612792584 -1.37161478492387 -2.923840537014365 0 0 0
3 1 3 -6.06809885361773 -0.973724414769326 -2.567930973116807 0 0 0
4 1 3 -5.886480854654281 -1.4060823579960622 -3.165995778451893 0 0 0
5 1 3 -6.292413966100393 -0.7789257707793147 -3.259766371611849 0 0 0
233 68 4 -4.29007342229281 -1.351180386346646 -2.5671403274231785 0 0 0
232 68 2 -4.327561112907478 -1.2230976383988632 -3.049000766482486 0 0 0
497 156 4 -4.440402510422848 -0.2724715400954039 -3.328807158956442 0 0 0
147 39 4 -2.996127645217554 -1.4997070199857039 -2.8113131423972515 0 0 0
85 19 2 -0.7110007267930472 -1.0849466110781274 -2.3598524219801345 0 0 0
86 19 4 -0.2774206371214793 -1.3337854873438852 -2.350497236295679 0 0 0
87 19 4 -1.144580816464615 -0.8361077348123696 -2.36920760766459 0 0 0
50 10 3 -6.590318476848646 -5.8557729992928484 -1.2365197589213772 1 0 0
118 30 2 -5.646531992769326 -5.612579739320914 -0.7578135469593459 0 0 0
119 30 4 -5.978293066288357 -5.921954802585406 -0.5475240790170068 0 0 0
120 30 4 -5.314770919250295 -5.303204676056422 -0.9681030149016848 0 0 0
135 35 4 -3.729812521518047 -6.482516327855736 -1.1756061740269914 0 0 0
217 63 2 -4.6791113862490326 -5.6927030753207575 -0.19577108532932044 0 0 0
218 63 4 -4.302727130827944 -5.7034870283556955 -0.5247370389293706 0 0 0
133 35 2 -3.2857838334083813 -6.3842652708346055 -1.3834167943754871 0 0 0
200 57 4 -0.42280985295603113 -6.797910851636694 -4.031961997551426 0 0 0
29 6 3 -1.2780220455118463 -6.600919544916489 -0.3679077182148443 0 1 0
204 58 4 -5.3929763955969605 -3.580531090236175 -1.677429967371683 0 0 0
242 71 4 -5.266649788244162 -4.873386239990651 -0.1483260380065523 0 0 0
122 31 4 -3.9680854734626942 -4.2605090789307205 -1.6037189338613353 0 0 0
166 46 2 -4.017709395459056 -4.513103877940402 -0.07731550923454304 0 0 0
138 36 4 -4.506301693120001 -0.052557803586870844 -5.4358674822552135 0 0 0
208 60 2 -0.08136404728851923 -4.548426315733533 -1.1765884281388075 0 0 0
177 49 4 -2.6656832515247 -0.8285328701535709 -0.7280199637979431 0 0 0
210 60 4 -0.433375046801562 -4.893400364688759 -1.260738067289804 0 0 0
306 92 4 -0.697258308523914 -4.991676914509613 -0.16548999500103584 0 0 0
98 23 4 -0.6642570377686106 -3.645005080466084 -1.3728041640532431 0 0 0
952 308 2 -6.676644445627998 -2.6875708418513553 -1.3813246588414019 1 0 0
81 17 4 -5.570933605408936 -2.333237800473259 -0.5267829181234648 0 0 0
953 308 4 -6.186270975282522 -2.772913306045431 -1.333884977284519 1 0 0
202 58 2 -4.982805012310133 -3.311340044288145 -1.5810161866458352 0 0 0
79 17 2 -5.085126126892827 -2.364462699102063 -0.4126947963796892 0 0 0
80 17 4 -4.599318648376718 -2.395687597730867 -0.2986066746359137 0 0 0
203 58 4 -4.572633629023306 -3.042148998340115 -1.4846024059199876 0 0 0
193 55 2 -2.6456596593881123 -2.8904268007057663 -0.4401333305939156 0 0 0
194 55 4 -2.271558853797918 -3.0517932631802562 -0.7299771713865064 0 0 0
97 23 2 -1.024689212560836 -3.359690645355971 -1.5694874640365297 0 0 0
176 49 4 -2.2072426893674235 -0.19203789127640258 -1.3482670055742139 0 0 0
198 56 4 -0.394811938367663 -1.883595222560023 -1.189581754062848 0 0 0
392 121 4 -0.5578519445832466 -2.8605854863612983 -0.1746995363740784 0 0 0
16 4 1 -6.6973289365769935 -0.24363911258459311 -0.5417595463855241 0 0 0
17 4 3 -6.785979936099074 -0.37394733703361793 -0.10960128032470068 0 0 0
20 4 3 -6.251490405124433 -0.2880319612551576 -0.6233516958801552 0 0 0
100 24 2 -5.296696803465806 -1.2710802446287515 -0.9041332203245301 0 0 0
101 24 4 -5.5916214036823835 -1.3934523169952207 -1.2888988062230091 0 0 0
102 24 4 -5.001772203249228 -1.1487081722622823 -0.5193676344260512 0 0 0
112 28 2 -3.975468732477963 -1.0492815308455907 -1.2713589398542375 0 0 0
113 28 4 -3.7342522976162806 -1.4869692002196637 -1.2869837800322252 0 0 0
114 28 4 -4.216685167339645 -0.6115938614715173 -1.2557340996762498 0 0 0
175 49 2 -2.436462970446062 -0.5102853807149867 -1.0381434846860784 0 0 0
167 46 4 -3.7497592014116363 -4.922518772563017 -0.18018502644467455 0 0 0
195 55 4 -3.0197604649783067 -2.7290603382312764 -0.15028948980132473 0 0 0
349 107 2 -5.676309123889423 -5.875297954769081 1.021055678754942 0 0 0
350 107 4 -5.465585117988218 -6.164634333275127 1.3701686309779555 0 0 0
351 107 4 -5.887033129790629 -5.585961576263037 0.6719427265319284 0 0 0
219 63 4 -5.055495641670121 -5.681919122285819 0.13319486827072963 0 0 0
258 76 4 -4.559422912377994 -6.660270207330923 1.515069324060617 0 0 0
370 114 2 -2.8253857416824406 -5.344130668070425 0.3579285499068458 0 0 0
372 114 4 -3.243005007121071 -5.308587986964595 0.630565427372328 0 0 0
423 131 4 -3.2351731636862304 -5.672443997953309 1.4921611322764732 0 0 0
30 6 3 -1.3392987975074386 -6.577158167821375 0.3821459842783475 0 1 0
302 91 4 -0.8329709928299351 -5.743022767676757 1.7265722969196713 0 0 0
241 71 2 -5.47543463300257 -4.957684390401807 0.2981072833713095 0 0 0
243 71 4 -5.684219477760979 -5.041982540812963 0.7445406047491714 0 0 0
332 101 4 -5.954380672907289 -3.877294852455367 1.445369932620631 0 0 0
358 110 2 -6.066741628680258 -3.2359909147613624 0.21902954225742247 0 0 0
360 110 4 -6.550415141606992 -3.3623943325109873 0.2099681475402475 0 0 0
277 83 2 -4.279267452913712 -3.4108081175878775 1.4316563877599435 0 0 0
364 112 2 -3.354872124209837 -4.533169304617611 1.2737093785409364 0 0 0
366 112 4 -3.669731601650858 -4.446275379108601 0.8951424027296089 0 0 0
380 117 4 -0.08643154599017666 -1.0375817335423914 2.4582187392292925 0 0 0
365 112 4 -3.0400126467688158 -4.620063230126621 1.6522763543522636 0 0 0
292 88 2 -1.4571478556361537 -4.114957370536544 0.8041089660172871 0 0 0
293 88 4 -1.5218079790355115 -3.852217449922438 0.38364873893541307 0 0 0
294 88 4 -1.392487732236796 -4.377697291150651 1.224569193099161 0 0 0
304 92 2 -0.36052713839536005 -4.754623286584448 0.1180901463196619 0 0 0
343 105 2 -0.19448129024030597 -3.68246789851819 1.2217838952942828 0 0 0
345 105 4 -0.6110375898358881 -3.9589186541253696 1.2292557753556672 0 0 0
274 82 2 -6.419726929511549 -1.813290188820512 1.4224802078091974 0 0 0
341 104 4 -1.4837857797053078 -0.6554600030424566 5.993630391121855 0 0 0
359 110 4 -5.583068115753523 -3.1095874970117374 0.22809093697459742 0 0 0
279 83 4 -4.038518367173085 -3.2926590124101356 1.0096603372325939 0 0 0
426 132 4 -2.9178260096972384 -2.599236036912567 1.1328330505167752 0 0 0
425 132 4 -2.214164805728963 -2.978885939031127 1.733438463289017 0 0 0
424 132 2 -2.5659954077131006 -2.789060987971847 1.433135756902896 0 0 0
305 92 4 -0.023795968266806133 -4.5175696586592835 0.4016702876403596 0 0 0
391 121 2 -0.852941092525842 -2.579946807682634 0.11541135069485417 0 0 0
393 121 4 -1.1480302404684375 -2.29930812900397 0.4055222377637867 0 0 0
275 82 4 -5.931702101568963 -1.7678922540241813 1.521327538716641 0 0 0
406 126 2 -6.75502774990089 -0.25189964892415206 0.8240856118117104 0 0 0
407 126 4 -6.537548480629274 -0.5885967782482521 1.1229799251435408 0 0 0
645 205 4 -5.080583361177678 -0.28481941665176946 1.4564420165920546 0 0 0
288 86 4 -3.4861743745609686 -1.6641227012868203 1.0607951645663949 0 0 0
416 129 4 -5.070479627297962 -1.0585185227459486 1.3703209748436198 0 0 0
415 129 2 -4.692075491330409 -1.0881779591411058 1.6957908316897958 0 0 0
286 86 2 -3.13598699330209 -1.5399012605781874 0.7262240485458226 0 0 0
287 86 4 -2.785799612043211 -1.4156798198695546 0.3916529325252502 0 0 0
309 93 4 -1.5464250027901905 -1.7161798907623187 0.7759818432675207 0 0 0
348 106 4 -1.651485420104948 -1.10910739136852 1.5669479570325422 0 0 0
307 93 2 -1.132072967316969 -1.446472871663043 0.7013459635067016 0 0 0
308 93 4 -0.7177209318437474 -1.1767658525637676 0.6267100837458827 0 0 0
1173 381 4 -0.24485786702155427 -0.553937424162586 1.3230741836581388 0 0 0
1175 382 4 -6.639068354589133 -5.657644048403561 1.90301774592624 1 0 0
256 76 2 -4.619417433372966 -6.232109110873361 1.7662241228019673 0 0 0
257 76 4 -4.679411954367938 -5.803948014415798 2.0173789215433175 0 0 0
378 116 4 -3.4305474358575365 -6.412357673930247 2.4906898317842967 0 0 0
422 131 4 -2.286250974285332 -5.877341824910536 1.7320852014343822 0 0 0
421 131 2 -2.7607120689857814 -5.774892911431922 1.6121231668554277 0 0 0
376 116 2 -2.9526448037910478 -6.456577694821874 2.6308813579764276 0 0 0
377 116 4 -2.4747421717245586 -6.500797715713501 2.7710728841685586 0 0 0
301 91 2 -0.8440814389574912 -5.510162989934614 2.1688989656799733 0 0 0
303 91 4 -0.8551918850850475 -5.277303212192471 2.611225634440275 0 0 0
385 119 2 -1.2736707532939862 -6.751490771864647 2.1190886996990588 0 0 0
387 119 4 -1.4720591315965545 -6.493492951050788 2.4986663278722827 0 0 0
420 130 4 -6.455538401435744 -5.1216593864252475 2.7266032365881654 0 0 0
331 101 2 -6.126623196728435 -3.797147965319353 1.907872894200347 0 0 0
333 101 4 -6.298865720549581 -3.717001078183339 2.3703758557800625 0 0 0
419 130 4 -5.545018901633091 -4.715026231618105 2.6517452517879394 0 0 0
418 130 2 -6.000278651534417 -4.918342809021676 2.6891742441880524 0 0 0
278 83 4 -4.520016538654339 -3.5289572227656194 1.8536524382872932 0 0 0
322 98 2 -4.357757451422467 -3.962955991385832 3.2170933980568464 0 0 0
323 98 4 -4.54854932239668 -3.6872245468237788 2.846188245153678 0 0 0
373 115 2 -2.355825078074135 -4.070887981354615 2.8649525871566475 0 0 0
374 115 4 -2.433428498750865 -3.6174489415603217 3.060837110000756 0 0 0
375 115 4 -2.278221657397405 -4.52432702114891 2.669068064312539 0 0 0
296 89 4 -0.6681519628878261 -3.4420833274392724 3.203584009869825 0 0 0
394 122 2 -6.04864146313142 -2.441302081418443 2.623799982696272 0 0 0
395 122 4 -6.3560201528442555 -2.662400443331141 2.297251585869778 0 0 0
396 122 4 -5.741262773418585 -2.220203719505745 2.950348379522765 0 0 0
259 77 2 -3.589793949711595 -2.254803853716645 3.0498091990129494 0 0 0
261 77 4 -3.9447161417924876 -2.2334990476133987 3.401343468757414 0 0 0
260 77 4 -3.234871757630702 -2.276108659819891 2.698274929268485 0 0 0
315 95 4 -1.7279239072564252 -2.4595455602924075 2.6231480461165257 0 0 0
313 95 2 -1.286871364971799 -2.669678031647187 2.5167666594627898 0 0 0
314 95 4 -0.8458188226871729 -2.8798105030019663 2.410385272809054 0 0 0
326 99 4 -5.255909115005449 -0.836829368277304 3.041064541916639 0 0 0
1127 366 4 -6.478907262994249 -1.5000403577063564 2.4048806760532866 1 0 0
417 129 4 -4.313671355362857 -1.117837395536263 2.021260688535971 0 0 0
325 99 2 -5.102678074708862 -0.6712917430620172 3.4872904296996103 0 0 0
382 118 2 -2.92981851901147 -0.1480865694200313 2.3165583862743775 0 0 0
384 118 4 -2.54290136483825 -0.462219902364997 2.276366783428537 0 0 0
346 106 2 -1.2041241124024458 -0.9870374730649484 1.7539420623301694 0 0 0
347 106 4 -0.7567628046999435 -0.8649675547613767 1.9409361676277963 0 0 0
379 117 2 -0.49079940389977744 -1.2248259762036942 2.684992258582649 0 0 0
381 117 4 -0.8951672618093782 -1.412070218864997 2.9117657779360053 0 0 0
289 87 2 -5.540514780761985 -5.463844266601596 3.784902492055851 0 0 0
290 87 4 -5.4178533323727605 -5.762067880147885 3.402780985984166 0 0 0
291 87 4 -5.663176229151209 -5.1656206530553055 4.1670239981275365 0 0 0
298 90 2 -4.075373160763353 -6.465288876511097 4.097364871752177 0 0 0
299 90 4 -3.9035273723878987 -6.005294688135169 4.191568755311843 0 0 0
284 85 4 -3.450538002286457 -5.242969613781634 4.45135250060756 0 0 0
316 96 2 -0.3830313164014137 -6.407050440025851 4.57152692670189 0 0 0
318 96 4 -0.11381489783977738 -6.001973123998799 4.687435891053287 0 0 0
339 103 4 -0.8828941513296475 -5.077307997435095 4.181840704175727 0 0 0
337 103 2 -0.383262131499584 -5.07406999778498 4.200744675147115 0 0 0
244 72 2 -6.540229413601859 -4.258467138724749 3.6939196792735127 0 0 0
245 72 4 -6.059033086763251 -4.142406490967219 3.6233504148650195 0 0 0
324 98 4 -4.166965580448253 -4.238687435947886 3.587998550960015 0 0 0
283 85 2 -3.367548805603311 -4.948562620102335 4.846874074364083 0 0 0
368 113 4 -1.444458702343103 -3.5367589874846286 4.5681438127883185 0 0 0
340 104 2 -1.1783322167925074 -0.2596088740340815 5.993697967445858 0 0 0
320 97 4 -5.214934170338606 -3.0046718697971193 4.380641601488016 0 0 0
336 102 4 -6.767584913363648 -2.083869149236546 3.8520540346250454 0 0 0
413 128 4 -6.737517861633651 -2.602560642454688 4.488149440429189 0 0 0
400 124 2 -0.1799356194790031 -1.6554946538298103 6.759966683933817 0 0 0
319 97 2 -4.718877050308363 -3.015972320560197 4.4422827685740875 0 0 0
321 97 4 -4.22281993027812 -3.0272727713232745 4.50392393566016 0 0 0
265 79 2 -2.7400137862969953 -2.4064749406520973 4.607003709317906 0 0 0
266 79 4 -3.0566722482735296 -2.608926531168069 4.277245052182012 0 0 0
267 79 4 -2.423355324320461 -2.2040233501361257 4.9367623664538005 0 0 0
367 113 2 -1.1447164623956947 -3.350336712816589 4.922264307957908 0 0 0
295 89 2 -0.6114906157880459 -3.2017012879367526 3.638332174706845 0 0 0
297 89 4 -0.5548292686882654 -2.9613192484342328 4.073080339543866 0 0 0
334 102 2 -6.4486740726004985 -1.743833848808464 3.6713004174921107 0 0 0
335 102 4 -6.129763231837348 -1.4037985483803819 3.4905468003591764 0 0 0
771 247 4 -6.166867839610425 -0.08041451619331502 4.557006061337934 0 0 0
327 99 4 -4.949447034412276 -0.5057541178467304 3.9335163174825816 0 0 0
357 109 4 -4.870296517148946 -1.1510923741180719 4.89189902804409 0 0 0
247 73 2 -2.003319495988533 -1.1668136690310833 4.123462990214764 0 0 0
249 73 4 -2.333333404988582 -0.9108720529256955 4.398389724113169 0 0 0
248 73 4 -1.673305586988484 -1.4227552851364713 3.848536256316359 0 0 0
280 84 2 -0.4523196075589256 -0.7857994666441477 4.832473454814333 0 0 0
271 81 2 -2.453943715340991 -0.7707444529591656 6.259092392956913 0 0 0
282 84 4 -0.9385775617485425 -0.7663265087836109 4.71769538244046 0 0 0
362 111 4 -5.678937571486572 -5.0167391704998066 5.963873824988794 0 0 0
250 74 2 -4.62391608762731 -5.8844737403435206 6.144457427316545 0 0 0
251 74 4 -4.260039177121805 -5.596530620173423 6.330689415834562 0 0 0
252 74 4 -4.987792998132815 -6.172416860513618 5.958225438798528 0 0 0
409 127 2 -3.687375844149651 -6.4237149407090435 5.690680638996939 0 0 0
410 127 4 -4.032647162266792 -6.248881624991505 6.007257689019111 0 0 0
411 127 4 -3.3421045260325104 -6.598548256426582 5.374103588974767 0 0 0
388 120 2 -2.6928599872613734 -5.47913951525744 6.559858117393213 0 0 0
389 120 4 -3.056726519463754 -5.316267283542992 6.258073785660738 0 0 0
253 75 2 -0.36498854848347406 -6.5962708113954935 6.220290133320185 0 0 0
255 75 4 -0.8382153896193236 -6.465386081695655 6.31476523247048 0 0 0
312 94 4 -1.4589185641069975 -5.179484286104304 5.094361497267312 0 0 0
354 108 4 -0.8013538902931953 -5.098422136569206 6.484589584122313 0 0 0
361 111 2 -5.961879744321969 -4.796841747632782 5.615177896925921 0 0 0
363 111 4 -6.244821917157366 -4.5769443247657575 5.266481968863048 0 0 0
398 123 4 -5.3641556928156975 -3.6015399098965384 5.466081970455912 0 0 0
1031 334 4 -6.604380711328084 -3.819694473378689 5.982502761437087 1 0 0
111 27 4 -4.284222868404126 -4.173167948347803 6.652954371030461 0 0 -1
285 85 4 -3.2845596089201647 -4.6541556264230355 5.242395648120605 0 0 0
311 94 4 -1.9091987409461497 -5.214077817700382 5.986578427120859 0 0 0
330 100 4 -2.941708986717494 -3.8326700855681075 6.4124654691633545 0 0 0
310 94 2 -1.6840586525265737 -5.1967810519023425 5.540469962194086 0 0 0
352 108 2 -0.3253880177740398 -5.108354010517103 6.331756845233007 0 0 0
262 78 2 -5.4022746926487315 -1.9141107534403083 5.6340382812014695 0 0 0
397 123 2 -5.4970619638980365 -3.1568550286579002 5.652069280520196 0 0 0
399 123 4 -5.6299682349803755 -2.7121701474192625 5.838056590584482 0 0 0
263 78 4 -4.991947542059592 -2.197248823241822 5.5957699794558 0 0 0
270 80 4 -3.6001904945242917 -2.4164919589852856 5.810983274058235 0 0 0
268 80 2 -3.169266769134954 -2.589530399144533 5.625612183746375 0 0 0
269 80 4 -2.738343043745616 -2.76256883930378 5.440241093434515 0 0 0
369 113 4 -0.8449742224482863 -3.163914438148549 5.276384803127498 0 0 0
402 124 4 -0.24024828492429012 -1.9102488977543897 6.333982344328427 0 0 0
403 125 2 -0.5514603020282042 -1.8827713333958664 5.068609898718649 0 0 0
405 125 4 -0.9931899979296688 -1.7684529251233148 4.864144309221334 0 0 0
264 78 4 -5.8126018432378705 -1.6309726836387946 5.672306582947138 0 0 0
404 125 4 -0.10973060612673946 -1.9970897416684181 5.273075488215964 0 0 0
356 109 4 -4.602738404942269 -0.8875033115437441 5.818685660815651 0 0 0
355 109 2 -4.736517461045607 -1.019297842830908 5.355292344429871 0 0 0
273 81 4 -2.651314519284502 -1.2276196555196428 6.307152928076247 0 0 0
272 81 4 -2.2565729113974804 -0.3138692503986883 6.211031857837579 0 0 0
328 100 2 -3.055520821535522 -3.4128298047654018 6.659003508562485 0 0 0
371 114 4 -2.40776647624381 -5.3796733491762545 0.08529167244136354 0 0 0
168 46 4 -4.285659589506474 -4.103688983317788 0.02555400797558835 0 0 0
570 180 4 -4.3424894340095115 -0.336613084088883 0.0011364426006159264 0 0 0
92 21 4 -0.2346129899102955 6.7249146554297 -1.8514846682251753 0 -1 0
528 166 4 -4.87582992291412 1.5243406652751479 -6.413622971722519 0 0 0
173 48 4 -6.1159232908072285 0.127177671509117 -5.375476317446946 0 0 0
1226 399 4 -0.11398618288543944 4.51593380702885 -0.6980308958299415 0 0 0
462 144 4 -1.8641097083557927 1.0219367116333595 -5.830196819073258 0 0 0
460 144 2 -1.4552479624217902 0.7985354192465394 -6.011646358261563 0 0 0
461 144 4 -1.0463862164877882 0.5751341268597193 -6.193095897449869 0 0 0
609 193 4 -4.7769178839514 6.37582610369829 -0.26509649712673594 0 0 0
484 152 2 -5.935905673194703 2.1085566816742314 -6.3752739688911255 0 0 0
485 152 4 -5.728488238963963 2.4298265475040113 -6.697397673835027 0 0 0
486 152 4 -6.143323107425443 1.7872868158444517 -6.053150263947224 0 0 0
491 154 4 -6.734199762129252 3.008427108645655 -5.444503079150213 0 0 0
472 148 2 -3.740277013464594 2.4970085313131576 -5.067143850154265 0 0 0
526 166 2 -4.464142354036772 1.8068182121669405 -6.386794234632605 0 0 0
527 166 4 -4.0524547851594255 2.089295759058733 -6.359965497542691 0 0 0
474 148 4 -3.256428340344552 2.56616714941132 -5.172536198369925 0 0 0
583 185 2 -0.9288828388771349 2.4477106872888688 -5.632041033675416 0 0 0
584 185 4 -0.5843713721243944 2.1081083438933805 -5.75846135496934 0 0 0
585 185 4 -1.2733943056298753 2.7873130306843565 -5.505620712381493 0 0 0
786 252 4 -0.31016209976111053 1.835931939480336 -6.659808385738059 0 0 1
1218 396 4 -0.17288055559992654 3.278114855105806 -5.859518534325291 0 0 0
671 214 4 -0.6637281132004755 3.141483060686899 -6.688049520300236 0 0 1
432 134 4 -5.059754877407614 3.9730817786889405 -6.0918049786202335 0 0 0
430 134 2 -4.622075829290826 3.902671368251431 -5.860548789640436 0 0 0
431 134 4 -4.184396781174037 3.8322609578139213 -5.629292600660639 0 0 0
539 170 4 -4.804177766402932 4.218589820048469 -5.016350688842918 0 0 0
35 7 3 -4.0541711144461905 6.242866644346083 -1.7893117694148113 0 0 0
44 9 3 -2.4202689791322856 4.451442599889727 -6.793813587872584 0 0 1
444 138 4 -1.9082864636398515 4.968592635198297 -5.0390982504572115 0 0 0
532 168 2 -1.9225006850700996 4.784696363347578 -6.338027716123872 0 0 0
533 168 4 -1.5988054740331727 4.427244284353807 -6.205931457379265 0 0 0
559 177 2 -0.5599823618236872 4.685294932685031 -5.778687048657766 0 0 0
560 177 4 -0.3532281115117173 5.100556041675233 -5.965263819286518 0 0 0
561 177 4 -0.7667366121356569 4.270033823694829 -5.592110278029016 0 0 0
436 136 2 -6.142962108784102 6.3756318044013565 -6.580933760960876 0 0 0
438 136 4 -6.421923834551053 6.648141246719356 -6.268013708224511 0 0 0
511 161 2 -6.337256627341843 5.335168407993386 -6.143584046876341 0 0 0
512 161 4 -5.880945460453593 5.3313406193973405 -6.347950059235308 0 0 0
513 161 4 -6.793567794230094 5.338996196589432 -5.939218034517373 0 0 0
21 5 1 -4.494836272669161 5.309980157066087 -6.518030608967423 0 0 0
22 5 3 -4.954189023576258 5.322886985935651 -6.497331236933164 0 0 0
23 5 3 -4.3273948151907025 5.238676454713687 -6.0912061247255656 0 0 0
25 5 3 -4.340839722376913 5.706307352817195 -6.681155764618375 0 0 0
477 149 4 -4.229307871383359 6.1382529732271385 -5.350039342158179 0 0 0
518 163 4 -6.341507153832419 6.010345889240885 -0.332126699841369 0 0 0