LAMMPS data file via write_data, version 4 Feb 2025, timestep = 1000, units = lj

8 atoms
4 atom types
6 bonds
1 bond types
7 angles
2 angle types

-1.5 1.5 xlo xhi
-1.5 1.5 ylo yhi
-1.5 1.5 zlo zhi
0 0 0 xy xz yz

Masses

1 1
2 1
3 0.1
4 0.1

Bond Coeffs # harmonic/omp

1 100 0.45

Angle Coeffs # harmonic/omp

1 100 180
2 100 109.471

Atoms # full

2 1 3 0 0.33395809869567605 -0.15837377779920603 -1.2041096108985645 0 0 0
4 1 3 0 0.20851146599895265 -0.8890026305094723 -1.2433169408883615 0 0 0
1 1 1 0 0.5277867329193602 -0.568214829650488 -1.2090981339969074 0 0 0
3 1 3 0 0.7635170502492192 -0.6386259036468022 -0.8144843025607973 0 0 0
6 2 2 0 0.3763918654720293 -0.4791430089686659 0.5369891681025636 0 0 0
8 2 4 0 0.17386566975634699 -0.8266522681675962 0.72018522523395 0 0 0
7 2 4 0 0.5793672166300272 -0.11491338492502257 0.34774974155898675 0 0 0
5 1 3 0 0.810857767329936 -0.6035380321026164 1.4271446185323593 0 0 -1

Velocities

2 -0.2695630628001702 -0.7571392355857167 -0.10252542663147386
4 1.3104900222915987 0.6111696849012407 0.24411820240301815
1 0.5880179846927462 -0.05594588169258176 -0.03125862285277645
3 2.340569197354149 1.277294848422892 -0.07456239471058168
6 0.6284681725483089 -0.13153802551740965 0.033291653123733896
8 1.2795199579304033 1.4799598645973804 -0.8061891035451552
7 -0.17849124809302075 -0.3351607783934241 0.6845585237787694
5 -0.21163721208674524 -0.606583166735344 0.30714320087862346

Bonds

1 1 1 2
2 1 1 3
3 1 1 4
4 1 1 5
5 1 6 7
6 1 6 8

Angles

1 2 2 1 3
2 2 2 1 4
3 2 2 1 5
4 2 3 1 4
5 2 3 1 5
6 2 4 1 5
7 1 7 6 8
