LAMMPS data file via write_data, version 4 Feb 2025, timestep = 4000000, units = lj

2000 atoms
4 atom types
1500 bonds
1 bond types
1750 angles
2 angle types

-8.346487 8.346487 xlo xhi
-8.346487 8.346487 ylo yhi
-8.346487 8.346487 zlo zhi
8.526512829121202e-14 0 0 xy xz yz

Masses

1 1
2 1
3 0.1
4 0.1

Bond Coeffs # harmonic/omp

1 100 0.45

Angle Coeffs # harmonic/omp

1 100 180
2 100 109.471

Atoms # full

1908 470 2 0 -4.205561687312905 -8.019738178083843 -7.897889591887579 9 0 1
1909 470 4 0 -3.9877750572207304 -7.995183228206209 -8.283060156478376 9 0 1
1910 470 4 0 -4.426112389594579 -8.059776704089382 -7.486921452407245 9 0 1
669 134 3 0 6.012355691584029 -8.15461410356727 -8.242110151383942 47 2 1
666 134 1 0 6.454403379083871 -8.238469502404891 -8.129666501369016 47 2 1
667 134 3 0 6.533645355007387 -8.055695289424799 -7.709560579580501 47 2 1
1882 461 4 0 5.862422676177195 -7.790028847917602 -8.319074189407523 47 2 1
33 7 3 0 -7.014281567137571 -5.635358838773003 -7.900262356850104 -2 -1 1
32 7 3 0 -7.642428652105789 -5.468903003032535 -7.559809284974702 -2 -1 1
34 7 3 0 -7.396216336707398 -5.027875634244674 -8.130441344416447 -2 -1 1
31 7 1 0 -7.269698070799455 -5.297547655349993 -7.75780350572909 -2 -1 1
35 7 3 0 -7.056729824191036 -5.057078354750076 -7.474343889755619 -2 -1 1
877 176 3 0 -0.23604453872306586 -5.451172837489714 -7.987153744054582 29 1 1
879 176 3 0 0.09593387369409001 -4.831222939594076 -8.238054380266107 29 1 1
876 176 1 0 0.04618593880460686 -5.290862462872399 -8.305883198222949 29 1 1
880 176 3 0 0.4409040635730168 -5.487573548876218 -8.26972002870713 29 1 1
65 13 3 0 -3.3220115523354288 -2.9696973766782113 -7.736292636885839 22 0 0
63 13 3 0 -3.1076099610739245 -2.32759539160791 -7.555448604850926 22 0 0
64 13 3 0 -2.7556659747522483 -2.6770143487111753 -8.076380067388685 22 0 0
61 13 1 0 -2.978505754247556 -2.714575713186872 -7.688462726098031 22 0 0
82 17 3 0 4.818992593664893 -2.2368737419623486 -7.794850854143656 17 0 0
81 17 1 0 4.596664298079819 -2.099173239953017 -8.167588191472142 17 0 0
84 17 3 0 4.325319333820712 -2.4409642042660167 -8.312213917645495 17 0 0
1920 474 2 0 2.1191354613676943 -1.0253277786001131 -7.557690055675812 20 0 1
85 17 3 0 4.3339265849857505 -1.7181616236857007 -8.071303259386324 17 0 0
194 39 3 0 -1.6051929813976251 -0.9205719744375962 -7.909893278623327 25 0 0
191 39 1 0 -1.7201920010529532 -0.8723200913647347 -8.345659330181526 25 0 0
783 157 3 0 1.517619971917851 -0.10151525647286164 -7.604636673086572 28 0 1
1922 474 4 0 2.416308469246758 -0.8076614405698805 -7.796864254695045 20 0 1
24 5 3 0 2.5533908972074393 -0.10223636863720564 -8.125487659063541 22 0 1
25 5 3 0 2.4729933561632738 -0.8294057381134401 -8.208113960688753 22 0 1
23 5 3 0 3.1324592854969513 -0.4993705345883326 -8.310259280775776 22 0 1
203 41 3 0 5.0594647849632945 -0.7636190387091268 -7.50928043659393 22 0 0
1224 245 3 0 -7.59220194015566 -8.237641494261757 -7.006357592890924 31 1 1
1221 245 1 0 -7.232605017936313 -8.177460257612776 -7.233827027837766 31 1 1
1223 245 3 0 -7.196424159962532 -7.749825060444047 -7.352141474418049 31 1 1
1225 245 3 0 -6.8600415801714405 -8.286318120418601 -6.971824313568361 31 1 1
1728 410 2 0 -6.008496925683666 -8.287189100860578 -7.099774933930804 48 2 0
1730 410 4 0 -6.4566552718652 -8.189101715110244 -7.013029468792563 48 2 0
487 98 3 0 -4.493443049595462 -8.185004158440876 -7.105961371229891 10 0 0
62 13 3 0 -2.6986723771237555 -2.9028597731111763 -7.3650495582223865 22 0 0
494 99 3 0 -0.47737576742135257 -3.040636955228174 -6.8681085752696545 3 -1 2
492 99 3 0 0.2173522820930618 -2.8702204142864662 -6.966921250429139 3 -1 2
491 99 1 0 -0.11146202129481075 -2.9661210879810618 -6.662323780401984 3 -1 2
1840 447 4 0 0.6268280977435925 -2.9329757209294574 -6.939802237369757 22 0 0
1839 447 2 0 0.9979067579793597 -2.655381063749413 -6.886388382500518 22 0 0
902 181 3 0 1.1991164904024174 -2.031615006489047 -6.937603034342567 24 0 -1
1841 447 4 0 1.3522696688256186 -2.3900685584999186 -6.844531813018083 22 0 0
1214 243 3 0 3.7326195432429152 -2.3962260217867177 -7.262341689773592 21 0 1
1211 243 1 0 3.7979097006587885 -2.093250097614825 -6.949597310115788 21 0 1
1212 243 3 0 3.803866933405809 -2.2867946622227864 -6.5408583919158465 21 0 1
1213 243 3 0 4.206198630207815 -1.8863351346393449 -7.018189103181603 21 0 1
904 181 3 0 0.8869477887775634 -1.3762260278032787 -6.754491426581749 24 0 -1
901 181 1 0 1.2892834351534965 -1.604899220658785 -6.799475700597277 24 0 -1
1921 474 4 0 1.8016087443749562 -1.243727102969638 -7.317647944323674 20 0 1
903 181 3 0 1.5426200490143493 -1.4120544116927825 -7.085585158983372 24 0 -1
87 18 3 0 2.8429936273662655 -1.3168695071704217 -7.269225034250108 20 0 1
86 18 1 0 2.9897959035469857 -1.1659806805415416 -6.861243244889868 20 0 1
89 18 3 0 2.6534143260987566 -1.0987977082669769 -6.605456896003267 20 0 1
1215 243 3 0 3.460777122630004 -1.7896475832024512 -6.966219800681301 21 0 1
90 18 3 0 3.2508974848656997 -1.4600974750773004 -6.685184326749725 20 0 1
205 41 3 0 4.827781331257826 -1.01864936380744 -6.883363103517442 22 0 0
785 157 3 0 1.460500050884729 -0.04030066906840091 -6.835450293443105 28 0 1
88 18 3 0 3.2238249928903198 -0.7648563057609934 -6.936980549911844 20 0 1
1768 423 4 0 3.4022144141151998 -0.5965986910619794 -7.246275962863516 22 0 0
1767 423 2 0 3.812099997160482 -0.5003116312663529 -7.186560452799467 22 0 0
1769 423 4 0 4.2695472877542215 -0.39535387036861547 -7.1213646537591 22 0 0
202 41 3 0 4.677659485540689 -0.3244702409366731 -7.097475707627795 22 0 0
201 41 1 0 4.987831990883267 -0.6585386312590984 -7.102265587573986 22 0 0
204 41 3 0 5.392577179565979 -0.5036781279482216 -6.898782060678736 22 0 0
1550 350 4 0 -6.794989542681173 -7.871908807618727 -5.761725452544838 31 1 1
1548 350 2 0 -6.720621444730898 -8.325404465056955 -5.821116252255973 31 1 1
985 197 3 0 -4.366360930516171 -5.828656524168989 -5.707746458157731 14 0 0
981 197 1 0 -4.1988495328811135 -5.461802693280782 -5.885111917553765 14 0 0
984 197 3 0 -4.4923147588519425 -5.143831673582727 -5.878458052754294 14 0 0
982 197 3 0 -4.079987084352263 -5.542576925936142 -6.3098582591520005 14 0 0
983 197 3 0 -3.8343415016506857 -5.336033422867312 -5.655201471256857 14 0 0
495 99 3 0 0.005942701618396384 -3.3376055269054987 -6.437184801529006 3 -1 2
493 99 3 0 -0.16330801374567372 -2.642333782554399 -6.377812975646073 3 -1 2
1406 302 4 0 -0.3445321903041485 -2.2952730249562476 -6.455555452519984 20 0 0
1404 302 2 0 -0.14586427136938696 -1.8865860189668906 -6.351833455989506 20 0 0
1405 302 4 0 0.03611206901393871 -1.480786896189235 -6.255504459459986 20 0 0
1039 208 3 0 0.17430739526366423 -1.1498434714176238 -6.089157083110287 31 1 0
905 181 3 0 1.505290866938724 -1.6075840176636138 -6.417559111852694 24 0 -1
1388 296 4 0 -1.283310050531984 -0.21908155102983962 -6.379040822328766 30 1 0
1386 296 2 0 -1.0203226332977344 -0.5481544370416955 -6.410466504183234 30 1 0
1387 296 4 0 -0.7132054818638096 -0.9260057184205746 -6.441717596448721 30 1 0
1037 208 3 0 -0.42585531423734313 -0.7386319657577971 -6.218818369617449 31 1 0
1036 208 1 0 -0.04192985110852021 -0.7836408808696422 -5.963496636326759 31 1 0
1040 208 3 0 0.22544609373025715 -0.41603779693601073 -6.026978022013439 31 1 0
1713 405 2 0 0.9404342113587401 -0.06288189966118374 -6.3062918517583 24 0 1
1714 405 4 0 0.5422443287345668 -0.17617375534499402 -6.1498058181307655 24 0 1
329 66 3 0 -6.7744380019332535 -7.819715658334432 -4.744392278527672 10 0 0
330 66 3 0 -6.658922753824964 -7.6217031981390635 -5.437134305999209 10 0 0
326 66 1 0 -6.858555215509572 -7.5093367862905 -5.067792816002986 10 0 0
327 66 3 0 -7.302463217457684 -7.488171085736453 -5.138738449537423 10 0 0
285 57 3 0 -5.3216687148813335 -7.781956812233819 -5.09460837989777 29 1 0
281 57 1 0 -5.1937274970307055 -7.905618233075181 -4.696235840600584 29 1 0
282 57 3 0 -4.828223076677981 -8.202122452881937 -4.740938831654004 29 1 0
328 66 3 0 -6.7142866616295205 -7.112408089539593 -4.944358411157296 10 0 0
1663 388 4 0 -6.488506962602793 -6.934185301697121 -4.6620263455533495 10 0 0
1064 213 3 0 4.172015003383061 -5.789582227382061 -4.7081588170927215 3 -1 0
708 142 3 0 -2.896651544222025 -4.708933804465973 -4.65523976071667 29 1 -1
26 6 1 0 1.30063385553861 -4.644727033493917 -4.6804244891499085 9 0 1
1062 213 3 0 3.669316949060361 -5.2501554388004115 -4.7718919934879045 3 -1 0
709 142 3 0 -3.3949423719362812 -4.1405174067553725 -4.694824746245409 29 1 -1
710 142 3 0 -2.675950034645746 -3.9840389147744713 -4.75380765031505 29 1 -1
30 6 3 0 1.3934798636564665 -4.6041704095813465 -5.118098026987362 9 0 1
1504 335 4 0 7.977568645466949 -1.9552102102755446 -4.8369935531267485 23 0 0
1505 335 4 0 -8.184716448367924 -1.6659345556289669 -5.522005541329275 24 0 0
1450 317 4 0 0.12275230499311185 -1.0506141035330385 -5.33583250196885 11 0 0
1449 317 2 0 0.2712872708112357 -1.3491725191369834 -5.0366723949650964 11 0 0
1451 317 4 0 0.40907482176278087 -1.6408680897516916 -4.748767647769576 11 0 0
1503 335 2 0 8.250239738052237 -1.8092911066284945 -5.1843337142591945 23 0 0
1038 208 3 0 -0.1444521129225187 -0.816921590835471 -5.512936674466408 31 1 0
283 57 3 0 -5.529005995568008 -8.117241167648086 -4.490534084800134 29 1 0
284 57 3 0 -5.0543701756572865 -7.51823676583875 -4.438547918150518 29 1 0
794 159 3 0 7.534099595131975 -7.61938010790469 -3.9219870911092247 8 0 0
795 159 3 0 8.225318515175164 -7.432305541581443 -3.764041779478376 8 0 0
792 159 3 0 8.069893259369653 -8.028798194637687 -4.174574496568717 8 0 0
791 159 1 0 7.946006293750489 -7.611915607502744 -4.083447380756013 8 0 0
1662 388 2 0 -6.503487179777377 -6.7293143648671 -4.292942265802624 10 0 0
1664 388 4 0 -6.524975282062963 -6.52264562394461 -3.903039284676515 10 0 0
793 159 3 0 7.963246396559722 -7.364228337065824 -4.449029072500675 8 0 0
1063 213 3 0 3.472078881192065 -5.909215043604485 -4.497709292400049 3 -1 0
1061 213 1 0 3.8060367589897552 -5.603380904284533 -4.519270816573448 3 -1 0
348 70 3 0 -6.177298008992768 -4.834640644565954 -4.261975269673568 9 0 1
346 70 1 0 -6.390206603723742 -4.680746209753069 -3.871519908711501 9 0 1
1866 456 2 0 0.5116987538683162 -5.095333365180233 -3.986801988257909 9 0 1
28 6 3 0 1.1380243438289792 -5.054764083184075 -4.598397476134274 9 0 1
1867 456 4 0 0.8410035298301857 -5.109071301168763 -4.316787791305649 9 0 1
1065 213 3 0 3.89693806624806 -5.467285865778544 -4.134842646844622 3 -1 0
347 70 3 0 -6.76334166502678 -4.476482506970248 -3.985389144785124 9 0 1
1948 483 4 0 -3.0743292782449565 -4.279789393315588 -3.767265927449845 29 1 0
707 142 3 0 -2.9773281362006383 -4.194332150630493 -4.1387049751283 29 1 -1
706 142 1 0 -2.9856565235039394 -4.2527544193711995 -4.550023292658553 29 1 -1
1391 297 4 0 0.15548517506899273 -3.8762850226116115 -3.8062505216451132 6 0 0
1389 297 2 0 0.5252973872230324 -3.939647762974557 -4.089501478063302 6 0 0
1390 297 4 0 0.885418370898492 -4.000306103049049 -4.365183004376025 6 0 0
29 6 3 0 1.0015620869226698 -4.3430593921927585 -4.557298353067914 9 0 1
1432 311 4 0 1.8387277944721685 -4.551082227064185 -4.07416697799235 17 0 1
27 6 3 0 1.6784409943478114 -4.580029493516673 -4.448269334321949 9 0 1
1431 311 2 0 2.207070005009337 -4.439245170560957 -3.8220820927309482 17 0 1
635 127 3 0 0.789639251746264 -2.2802013584726133 -4.003407788241136 12 0 0
99 20 3 0 7.337485929520202 -2.1340142173711314 -4.397698340543419 -15 -2 -1
100 20 3 0 8.030743445333986 -2.034570208473397 -4.440495245799024 -15 -2 -1
98 20 3 0 7.697045543897836 -2.222765820516094 -3.7912196200348234 -15 -2 -1
1885 462 4 0 8.054804037385296 -2.3980788249758573 -3.7996095350394965 29 1 1
96 20 1 0 7.654990043392207 -1.9888617067756993 -4.190416559794251 -15 -2 -1
632 127 3 0 1.2642578254116987 -1.7047431048546962 -4.0576840398782705 12 0 0
634 127 3 0 0.613603996829406 -1.7139548597169245 -4.421619871633438 12 0 0
631 127 1 0 0.816806503054142 -1.836271190618966 -4.048584078567629 12 0 0
97 20 3 0 7.596102497399237 -1.572831404133261 -4.105097304555739 -15 -2 -1
447 90 3 0 -0.46659287371713987 -0.1673901200752539 -3.8157434854896035 23 0 1
446 90 1 0 -0.19094736860625083 -0.37004734822483076 -4.075256271922012 23 0 1
448 90 3 0 -0.41499744316448783 -0.6888366461642956 -4.340898573047323 23 0 1
450 90 3 0 0.10961016108904253 -0.5554677478320604 -3.843389388925674 23 0 1
449 90 3 0 0.01768481127736088 -0.0606441259823054 -4.365121315285769 23 0 1
652 131 3 0 -0.3687976174244998 -8.271550597017454 -3.4499623915490263 30 1 0
1200 240 3 0 -5.997426124384514 -6.849222564696966 -2.9920223158266284 32 1 0
1197 240 3 0 -6.220723971390429 -6.615456224772965 -3.644085637999784 32 1 0
1196 240 1 0 -5.97537782879201 -6.518347727275767 -3.2688001201779286 32 1 0
1691 397 4 0 -5.168045949741575 -6.60247708912515 -3.3246365333992625 30 1 0
605 121 3 0 -4.2304134912270275 -6.665871949886485 -2.8180336775085078 10 0 0
1689 397 2 0 -4.772657024886394 -6.779258365523525 -3.190913061987433 30 1 0
1690 397 4 0 -4.394173183966473 -6.944251762982389 -3.062083299943673 30 1 0
604 121 3 0 -3.5767030031518097 -7.048849811504466 -2.8007691179397582 10 0 0
986 198 1 0 -1.4952340749811324 -6.98075158404531 -2.813828987984661 27 1 1
989 198 3 0 -1.4081888903536832 -6.747224772115083 -3.203205548939181 27 1 1
990 198 3 0 -1.9170379989930462 -7.143235558894107 -2.8308056684645937 27 1 1
1500 334 2 0 -6.563039748800625 -5.622386880142084 -3.0810856770421875 10 0 1
1199 240 3 0 -6.134909615514479 -6.165933948407963 -3.076468314803682 32 1 0
1501 334 4 0 -6.441064097361949 -6.009584163314543 -2.8790895649146275 10 0 1
1198 240 3 0 -5.557016773558447 -6.448190796067169 -3.381193781364403 32 1 0
1502 334 4 0 -6.705132465296874 -5.210520636615768 -3.311547621425852 10 0 1
350 70 3 0 -6.478168818630216 -5.014307647119407 -3.6102949373357145 9 0 1
1949 483 4 0 -2.521347357297956 -4.842820149553603 -3.2219958894686265 29 1 0
599 120 3 0 -2.5283220265571194 -4.924309006265533 -2.8164231883213606 -7 -1 0
1375 292 4 0 -1.3855347269662204 -4.857997332733669 -2.831289777716589 8 0 0
1374 292 2 0 -0.9387612182387404 -4.671358156846427 -2.9237519879526035 8 0 0
1244 249 3 0 0.0822626448512711 -4.79278077321236 -3.4155950671492015 9 0 0
1868 456 4 0 0.19576303041940157 -5.081562644504409 -3.664240176908196 9 0 1
1167 234 3 0 -7.979084934210489 -3.916146721346646 -2.902186359037769 31 1 0
349 70 3 0 -6.107248524542728 -4.377694516330435 -3.654926524645737 9 0 1
1947 483 2 0 -2.7900181536635724 -4.561703974950312 -3.487274567820693 29 1 0
1376 292 4 0 -0.5295255878059875 -4.497016205320201 -3.0139205634687762 8 0 0
1243 249 3 0 -0.18644441974221415 -4.315467704834358 -2.910467295804281 9 0 0
1241 249 1 0 0.16795464729954546 -4.405697436825887 -3.172069061836547 9 0 0
1242 249 3 0 0.23360680342646312 -4.055816370592058 -3.4573785703465223 9 0 0
1245 249 3 0 0.5357662966293368 -4.457296197157945 -2.9028254638610296 9 0 0
1285 262 4 0 0.9170981713863551 -4.569914616096945 -2.805404578387696 10 0 0
1433 311 4 0 2.5469854273572885 -4.332176210885233 -3.578538227441456 17 0 1
368 74 3 0 2.646500954226939 -4.348579663963892 -3.2030267310483325 28 1 0
366 74 1 0 2.546860412080994 -4.079540047870085 -2.8606425296513827 28 1 0
1169 234 3 0 8.187086219153464 -3.874382048869345 -3.3408046770672453 30 1 0
1886 462 4 0 -8.103748698049499 -3.0767932827940863 -3.5714110120027858 30 1 1
1166 234 1 0 -8.272055574152473 -3.6593857861406693 -3.0669481625935706 31 1 0
1168 234 3 0 -8.07607946941332 -3.326084350276874 -3.2730752151980465 31 1 0
367 74 3 0 2.5137564553931604 -3.658927752115382 -3.016936678303008 28 1 0
1622 374 4 0 2.8323714183697124 -3.4037232486800786 -3.0262981860659153 16 0 0
1620 374 2 0 3.0045241882043197 -3.005883758699097 -2.818045148628719 16 0 0
1884 462 2 0 8.318385864672894 -2.729983266643899 -3.6844346408552227 29 1 1
1161 233 1 0 -8.067568586058288 -1.0775643088862967 -2.8798255932820096 19 0 0
1165 233 3 0 -8.334405358398527 -1.0901628879506866 -3.2450578274344863 19 0 0
1163 233 3 0 -7.677414663124021 -1.1874959607887927 -2.995230191776715 19 0 0
633 127 3 0 0.6066769104411271 -1.6272225542084566 -3.697193917266027 12 0 0
1736 412 4 0 0.8451542951515538 -1.3990612146009287 -3.469185084098501 34 1 0
1734 412 2 0 0.8155539130900529 -1.098589534125856 -3.137681758975754 34 1 0
1154 231 3 0 2.8392033052513224 -1.812745116482203 -3.2031914920577336 31 1 1
1735 412 4 0 0.7952892058779337 -0.8100056078657527 -2.8066959763354076 34 1 0
459 92 3 0 2.970153570573009 -0.4764728978158219 -2.8910769659361755 8 -1 0
1266 256 2 0 -1.9006716308040685 -8.312762997899231 -1.8638884760061742 10 0 0
1528 343 4 0 -3.8368533430289355 -7.149489414782274 -1.8791670228617505 11 0 1
602 121 3 0 -3.9416392486346945 -6.902585136345141 -2.1617965021929084 10 0 0
601 121 1 0 -3.837243350272014 -6.744738544532728 -2.574761012782396 10 0 0
1610 370 4 0 -3.2055949943245565 -7.051628850582551 -2.6345513503468485 10 0 0
1608 370 2 0 -2.7820661526409056 -7.117762569745627 -2.6903521057245845 10 0 0
1609 370 4 0 -2.3187318108098536 -7.178654171671226 -2.7420343133247567 10 0 0
988 198 3 0 -1.4536094436265472 -6.693937747127837 -2.457785378736296 27 1 1
1588 363 4 0 -1.6503409652866994 -6.6791563351290515 -2.1226438007187003 10 0 0
987 198 3 0 -1.205344485939995 -7.315062043269417 -2.765540555897683 27 1 1
603 121 3 0 -3.632592232086071 -6.384161671787628 -2.5296555419082756 10 0 0
1337 279 4 0 -3.2321539705550704 -6.38984380900228 -2.472569490792515 10 0 -1
1335 279 2 0 -2.908622935908104 -6.055720221624544 -2.402816017611946 10 0 -1
598 120 3 0 -2.294413928930142 -5.602418043535737 -2.5971375346276915 -7 -1 0
1336 279 4 0 -2.589375532860684 -5.715743343040463 -2.3410546500153755 10 0 -1
1587 363 2 0 -1.9034286707840788 -6.3730065801276625 -1.8963711773130028 10 0 0
597 120 3 0 -2.2311165308321765 -5.023439242511881 -2.1353514981844786 -7 -1 0
596 120 1 0 -2.2111521646936048 -5.155121464851955 -2.5727922879963714 -7 -1 0
600 120 3 0 -1.753524227506932 -5.059461023433809 -2.751716818624299 -7 -1 0
1286 262 4 0 1.7652419121999312 -4.288979783484959 -2.744877323491373 10 0 0
370 74 3 0 2.177074907600126 -4.188559051562548 -2.694847008531534 28 1 0
1284 262 2 0 1.3538365889860948 -4.424584948526196 -2.7713725975027828 10 0 0
369 74 3 0 2.882142711194856 -4.100948231673172 -2.527901981686865 28 1 0
1970 490 4 0 3.2173242557134767 -4.146168687873655 -2.291542047071843 32 1 0
1968 490 2 0 3.6769636707862414 -4.072617172780922 -2.328586744090856 32 1 0
1969 490 4 0 4.127175376335488 -4.011550766704508 -2.359353398536088 32 1 0
647 130 3 0 4.457268162743228 -4.103320087680464 -2.114313439292941 31 1 0
646 130 1 0 4.796852982315935 -3.7893777856861215 -2.078059547790147 31 1 0
649 130 3 0 5.0158003151271355 -3.7494783524257764 -2.479758897925408 31 1 0
1804 435 4 0 7.317488209977816 -4.166936822168047 -1.9929657339304319 33 1 0
1803 435 2 0 7.597339778239414 -3.930695474913632 -2.281596404978597 33 1 0
650 130 3 0 4.62935490916222 -3.3794317578707584 -1.9548531685253376 31 1 0
1170 234 3 0 8.152690137692282 -3.4903390344184793 -2.722148200354747 30 1 0
1805 435 4 0 7.8636995107995205 -3.7011415299681314 -2.564938954043657 33 1 0
1152 231 3 0 3.029685438054443 -2.2659092789041644 -2.681105329210352 31 1 1
1151 231 1 0 2.8538002576778023 -1.8603026831098104 -2.7801535688894203 31 1 1
1621 374 4 0 3.1581667573577583 -2.6432940999811825 -2.624129095515144 16 0 0
1464 322 2 0 -8.017073710790621 -1.7713538745917683 -2.0020850622742037 15 0 1
1465 322 4 0 -8.31706716233755 -1.6957587730662311 -2.3098650599324255 15 0 1
1164 233 3 0 -8.226199987743538 -1.3848350104856078 -2.5543328575026596 19 0 0
1155 231 3 0 2.41140808452986 -1.8305731326749202 -2.6106830813223336 31 1 1
1153 231 3 0 3.097324936617186 -1.5467476869410612 -2.591680948483207 31 1 1
1459 320 4 0 -8.007027467875853 -0.36922595686013615 -2.441218026131211 14 0 0
1162 233 3 0 -8.070646729205432 -0.6361158042392336 -2.696298749613576 19 0 0
741 149 1 0 1.1451147985723686 -0.17404857662857687 -2.4740998745907987 34 1 -1
744 149 3 0 1.2108748013617952 -0.34159547460561157 -2.0775720754815383 34 1 -1
743 149 3 0 1.0532423311750385 -0.5105085214510847 -2.772348345404642 34 1 -1
1315 272 4 0 1.8217053656289064 -0.03544720766645604 -2.3257519068908623 8 -1 0
460 92 3 0 3.5542296811489837 -0.5128763719522249 -2.4309647532016028 8 -1 0
456 92 1 0 3.2868912774422068 -0.23220019935545544 -2.6576789747376415 8 -1 0
1529 343 4 0 -3.4257815424746116 -7.799976693666827 -1.5040028884164602 11 0 1
324 65 3 0 -3.338352314340808 -8.182071449545502 -1.4590810518061028 29 1 1
1527 343 2 0 -3.637908264625657 -7.468688193746582 -1.692699602247563 11 0 1
321 65 1 0 -2.9153448117830836 -8.196257598986007 -1.362163500343934 29 1 1
322 65 3 0 -2.7900287573335705 -7.784960134865036 -1.1537721546685207 29 1 1
325 65 3 0 -2.673205531004183 -8.255061157125933 -1.7313291442602656 29 1 1
1268 256 4 0 -1.4665261027968786 -8.172980218875598 -1.8494664643696161 10 0 0
473 95 3 0 -0.5531547887750579 -8.061167288118206 -1.5555769721267927 -10 -1 1
475 95 3 0 -1.2287462488621994 -8.257031613613234 -1.5484400059235561 -10 -1 1
685 137 3 0 -0.2441152917234728 -7.722790247853956 -1.307079931306097 29 1 -1
1207 242 3 0 -2.3223918868268107 -6.153100251866647 -1.3071266455718167 6 0 0
1206 242 1 0 -2.4210104491734397 -5.887092424582792 -0.9575030278131687 6 0 0
1209 242 3 0 -2.8449410423549644 -5.738225969229313 -0.9896410785585248 6 0 0
1589 363 4 0 -2.1599586431915982 -6.061716612909998 -1.6592407181695261 10 0 0
1963 488 4 0 -3.0836910161141002 -5.446935455841891 -1.1146710112950897 48 2 1
1208 242 3 0 -2.1302909536715706 -5.526828805973034 -0.9539887919053696 6 0 0
1030 206 3 0 0.08783853315240009 -3.856290012222809 -1.18980952966493 7 -1 1
1027 206 3 0 0.8110496731071581 -3.84445691691465 -0.9702303260340566 7 -1 1
648 130 3 0 5.091329250985012 -3.9293547442292676 -1.7563509692888362 31 1 0
1366 289 4 0 5.440498781428252 -3.937671330501388 -1.5575633426077058 9 0 0
1365 289 2 0 5.893680090457309 -4.051422625420102 -1.4670513211829759 9 0 0
1367 289 4 0 6.356731823777849 -4.165853487835976 -1.371312785159124 9 0 0
775 155 3 0 6.699287785110185 -4.119467209001946 -1.1171089706305128 12 0 0
771 155 1 0 7.136065649552997 -3.9957566658034107 -1.1795075113388505 12 0 0
772 155 3 0 7.244477402931322 -4.014517660986752 -1.6240747029869285 12 0 0
773 155 3 0 7.412478666028296 -4.27884738999407 -0.936989850580197 12 0 0
774 155 3 0 7.193726855916877 -3.5673066473886452 -1.0284941221261832 12 0 0
1859 453 4 0 7.606181472454237 -3.552825028841921 -0.9826529096490066 12 0 0
298 60 3 0 -7.50134267261259 -1.8570864377575287 -1.350847589854439 24 0 0
1466 322 4 0 -7.725295208269283 -1.8329809139627322 -1.6990125997310335 15 0 1
296 60 1 0 -7.411023773773322 -1.5654570398183338 -1.031808460426726 24 0 0
297 60 3 0 -7.32381189246269 -1.1651904115781715 -1.2240568936500562 24 0 0
1456 319 4 0 -7.217867037440136 -1.0344100457715717 -1.576102222200431 16 0 -1
934 187 3 0 -3.7701291456163464 -0.9300787703927957 -1.0395690071118349 22 0 0
1130 226 3 0 3.6619186846066416 -1.6420261136701413 -1.0782952750572976 53 2 0
1457 319 4 0 -6.999020438660109 -0.17734030185770067 -1.691445056721082 16 0 -1
1455 319 2 0 -7.1058071534662295 -0.6103837506951706 -1.630277577524759 16 0 -1
932 187 3 0 -4.270859637983489 -0.6479604057662796 -1.4433138287895035 22 0 0
931 187 1 0 -4.088175644046449 -0.6283278179861984 -1.0607130164512721 22 0 0
935 187 3 0 -3.9276409068018907 -0.25581741999896934 -1.000102850553537 22 0 0
1339 280 4 0 1.2758436036281697 -0.6219841394363899 -1.7933928394680603 19 0 0
1338 280 2 0 1.3359195406614877 -0.43260467914797474 -1.3676252582951927 19 0 0
682 137 3 0 -0.42283234315286133 -7.635618840156705 -0.6084012794314546 29 1 -1
684 137 3 0 -0.1596772370127173 -8.268960374104786 -0.826043250462078 29 1 -1
683 137 3 0 0.23872103965698344 -7.708696373701731 -0.8025240636600648 29 1 -1
681 137 1 0 -0.13656288403128336 -7.833193699499056 -0.8817341422250919 29 1 -1
1210 242 3 0 -2.372492469297785 -6.124524433821018 -0.5613033887467171 6 0 0
266 54 1 0 -4.050981925288506 -4.718843497430848 -0.09057386173888204 10 0 0
267 54 3 0 -4.006043748062556 -5.0992860892606675 -0.30364642416271614 10 0 0
1962 488 2 0 -3.366801143127442 -5.277502128126839 -0.808166394768862 48 2 1
1964 488 4 0 -3.6660196363154975 -5.110204433324604 -0.49878050608238134 48 2 1
268 54 3 0 -4.239799710384222 -4.422635008387022 -0.3451103567928051 10 0 0
1028 206 3 0 0.3646104719677048 -4.381556290647504 -0.7118121557950321 7 -1 1
1026 206 1 0 0.39046657199220114 -3.940782240490826 -0.8401751708737857 7 -1 1
1801 434 4 0 1.0063246511551718 -3.8037432642636695 -0.6046768812439991 30 1 1
342 69 3 0 -7.9067799736281605 -3.27380663329597 -0.4044614370943629 4 -1 0
341 69 1 0 -7.645605096112043 -3.3202006148642518 -0.02081481716099276 4 -1 0
1858 453 4 0 -8.269180304293773 -3.2970777329783756 -0.5795453571435099 13 0 0
345 69 3 0 -7.204658101239441 -3.360464425605336 -0.1403761707892297 4 -1 0
1987 496 4 0 -6.944993576978013 -3.0876948042636396 -0.30483230497803504 31 1 1
1986 496 2 0 -6.567828665548469 -2.8201374227812934 -0.3099289337503528 31 1 1
1029 206 3 0 0.28130694516455534 -3.6749871790516098 -0.4947543508362209 7 -1 1
1800 434 2 0 1.3570625333765136 -3.5419087158075726 -0.42805587696328473 30 1 1
407 82 3 0 2.039322134728504 -3.0913648689002926 -0.22283757475531374 14 0 1
1802 434 4 0 1.6856833504669702 -3.2975262679118993 -0.2627002657695314 30 1 1
1857 453 2 0 8.006534139677722 -3.4240057517144917 -0.7897070609176957 12 0 0
729 146 3 0 -6.037044475655353 -2.187099664521707 -0.2131185861991547 19 0 0
1988 496 4 0 -6.200525916389082 -2.560651629811563 -0.3232083566691699 31 1 1
727 146 3 0 -5.346138450985581 -1.9544416291991062 -0.17979618430047672 19 0 0
1581 361 2 0 3.0431544692674493 -2.0770483732386804 -0.07612719221729769 13 0 1
1705 402 4 0 -8.11575974963596 -1.4321077551237904 -0.7582137732837841 13 0 -1
300 60 3 0 -7.757121775456677 -1.530451053234672 -0.7621019757629224 24 0 0
299 60 3 0 -7.037077813884491 -1.6996722314153185 -0.8058257121139825 24 0 0
1372 291 4 0 -6.976414240690089 -1.4269215400704027 -0.49038771905169476 25 0 0
1371 291 2 0 -6.543163278987883 -1.362336579054067 -0.23683543182162303 25 0 0
724 145 3 0 -5.889015726437043 -0.9778169477556178 -0.0587441153647017 29 0 1
1654 385 4 0 -5.159497689556449 -1.6155065935991626 -0.28360964402949307 25 0 0
1653 385 2 0 -4.844456274815597 -1.3551035292736922 -0.5084831450591567 25 0 0
1655 385 4 0 -4.536633569022829 -1.10049312962959 -0.7120883451777624 25 0 0
1127 226 3 0 3.846453327909197 -0.9654265002090154 -0.8434000417334726 53 2 0
1583 361 4 0 3.3246690930582847 -1.7663452295640178 -0.2713941250664025 13 0 1
1126 226 1 0 3.806676734050294 -1.389378113036475 -0.7170108852572721 53 2 0
1129 226 3 0 3.499789424994324 -1.4212784097647715 -0.37816295750700046 53 2 0
1128 226 3 0 4.2067721351881655 -1.5404634903845897 -0.5647966290223447 53 2 0
1454 318 4 0 4.518108719211977 -1.3898699887579786 -0.33625842920562476 17 0 0
1452 318 2 0 4.899153484178317 -1.1273255555586772 -0.4017947390144281 17 0 0
1704 402 2 0 8.320587110221346 -1.0504571614545979 -0.7762349052125384 12 0 -1
1657 386 4 0 -8.041464963626956 -0.36330673808288516 -0.3780028182991879 45 1 -1
414 83 3 0 -8.238692382029816 -0.5239370126560683 -0.08254813635483593 18 0 -1
1656 386 2 0 -7.660769425047826 -0.2459626244622708 -0.5400315605147661 45 1 -1
1658 386 4 0 -7.2659511689165095 -0.12323486017152163 -0.7192362550055433 45 1 -1
722 145 3 0 -5.7060281436205 -0.2813928094110576 -0.0622978940300829 29 0 1
933 187 3 0 -4.4004004335344735 -0.7152786880257658 -0.7379957203493639 22 0 0
1532 344 4 0 -3.598372620780105 -0.08839412030553362 -0.8268915117497846 16 0 1
549 110 3 0 1.6538900561770316 -0.05686815434083492 -0.1010296531528656 1 -1 0
1340 280 4 0 1.3977366755051701 -0.2398958920597174 -0.9153986330710309 19 0 0
550 110 3 0 1.920567171293305 -0.6944308998816586 -0.3783462388114227 1 -1 0
547 110 3 0 1.7646232541743885 -0.1118884121035375 -0.8289908370001235 1 -1 0
546 110 1 0 1.9251871069554447 -0.23278417232956095 -0.4169339862567272 1 -1 0
1555 352 4 0 2.626296535472177 -0.1781983373064886 -0.6483910183302681 20 0 0
548 110 3 0 2.3610093021839855 -0.0674749223783575 -0.35938507171727174 1 -1 0
1453 318 4 0 5.280894230366119 -0.870286412496438 -0.4645216710442899 17 0 0
1247 250 3 0 5.529889124112389 -0.7873801173701693 -0.16180048248175716 25 0 0
1250 250 3 0 6.0556593237987375 -0.28930004030809187 -0.14143231865392458 25 0 0
1312 271 4 0 6.39680470827842 -0.4774320008251811 -0.11288838666390077 15 0 0
1311 271 2 0 6.824322012395488 -0.35567890433910065 -0.19764938382046182 15 0 0
1313 271 4 0 7.250265175097377 -0.2403309173517325 -0.2787540343039261 15 0 0
387 78 3 0 7.965983127148256 -0.24216558033183588 -0.7514760386484545 14 0 0
1706 402 4 0 8.053463375500225 -0.657795466815263 -0.7985085668412708 12 0 -1
524 105 3 0 -5.745358554260472 -7.028921824748421 0.6973878524942272 18 0 0
455 91 3 0 -0.5626281467878123 -6.590751943803251 0.7484803793238779 23 1 0
523 105 3 0 -5.253448194766596 -6.468594678836914 0.690010697480993 18 0 0
732 147 3 0 -2.378279884679703 -5.631841565759183 0.013904132572578831 10 0 -1
733 147 3 0 -2.2680030711026395 -5.943665855687167 0.6735432296428439 10 0 -1
731 147 1 0 -2.063546608402743 -5.790552506769215 0.31230570835184324 10 0 -1
734 147 3 0 -1.817675039943306 -6.1207774214681745 0.12891173721597582 10 0 -1
451 91 1 0 -0.4660059720211658 -6.225865828263974 0.4847899808643117 23 1 0
452 91 3 0 -0.8586271574415516 -6.022222375009541 0.3634499971308376 23 1 0
453 91 3 0 -0.23861504999864458 -6.3645112489588245 0.1217480963080817 23 1 0
454 91 3 0 -0.1995277109908944 -5.922000392486621 0.7176510275943002 23 1 0
1280 260 4 0 -7.733029519012673 -4.662073368201096 0.6965516024758571 19 0 -1
269 54 3 0 -4.2949974805465905 -4.790858108611887 0.27744821603351966 10 0 0