LAMMPS data file via write_data, version 2 Aug 2023, timestep = 2000000, units = lj

15795 atoms
4 atom types
10690 bonds
1 bond types
6305 angles
2 angle types

-16.594292 16.594292 xlo xhi
-16.594292 16.594292 ylo yhi
-16.594292 16.594292 zlo zhi
4.263256414560601e-14 0 0 xy xz yz

Masses

1 1
2 1
3 1
4 1

Bond Coeffs # harmonic

1 100 0.5

Angle Coeffs # harmonic

1 100 180
2 100 109.471

Atoms # full

9561 3027 4 0 -2.002572820193869 -15.386765558002248 -15.359508662690045 10 1 0
9559 3027 2 0 -1.870815817138233 -15.835652584566983 -15.138156792869927 10 1 0
10490 3337 4 0 -0.8183757685941853 -15.237226661162317 -16.47886325811817 10 1 0
10489 3337 2 0 -0.6517448469920879 -15.692900073034096 -16.278941297037882 10 1 0
10491 3337 4 0 -0.4909416314978934 -16.12261679257029 -16.075351073443176 10 1 0
15404 4975 4 0 -0.1350870698894262 -16.024510785340542 -16.190036647640436 10 1 1
14496 4672 4 0 -0.23837001003750657 -16.421098788661286 -16.1899663312193 10 1 1
15403 4975 2 0 0.35133109883247826 -16.008969123727482 -16.01877013778188 10 1 1
15405 4975 4 0 0.8679515266688185 -15.967644326188088 -15.83927427024018 10 1 1
14255 4592 4 0 1.2650134005109912 -15.967582041627184 -15.734795519827005 10 1 1
14910 4810 4 0 1.0384148473600376 -16.281610475091597 -15.69473656114123 10 1 1
14250 4590 4 0 1.1306420645528803 -16.13986027506508 -16.053302878854577 10 1 1
14248 4590 2 0 1.2167192369918602 -16.16028451658459 -16.547985360872644 10 1 1
14908 4810 2 0 0.9450333857015281 -16.510437236264213 -15.266827324775978 10 1 1
14254 4592 2 0 1.7313765189082169 -15.826595384986945 -15.619586051458136 10 1 1
14256 4592 4 0 2.228595624212918 -15.671637834437778 -15.501048928720357 10 1 1
8139 2553 4 0 2.4017357294033417 -15.474571657748372 -15.216237304871205 0 0 1
15635 5052 4 0 2.3908170541815217 -15.332918987713839 -15.604429234795322 10 1 1
8259 2593 4 0 2.6181555067916413 -15.614052245987152 -15.48836621829453 0 0 1
14367 4629 4 0 2.7144337333553246 -15.246298344170944 -15.372951279851971 10 1 1
8257 2593 2 0 2.874818349271745 -16.00533922339976 -15.701621377652287 0 0 1
8258 2593 4 0 3.110436865639162 -16.37792175002099 -15.901381285107465 0 0 1
6922 2148 2 0 5.551901595761699 -15.231160761100291 -16.083140974336143 0 0 1
6923 2148 4 0 5.458554721534362 -15.708601864164605 -16.241554228117042 0 0 1
8084 2535 4 0 5.639395454235213 -16.03584143855339 -16.201783212486184 0 0 1
6527 2016 4 0 5.4198194320719075 -15.986957479788689 -16.53347655252119 0 0 1
8083 2535 2 0 5.4192290957052585 -16.389369685189997 -15.951415558429472 0 0 1
8150 2557 4 0 7.597753364919196 -14.971030899333597 -16.28564070039764 0 0 1
1897 473 2 0 7.612242820644099 -15.298754532850085 -15.679722797412325 0 0 0
1898 473 4 0 7.862088336106677 -15.373563113860046 -15.257007837399447 0 0 0
3195 905 4 0 9.361843724837314 -15.95016762348686 -16.241750535508256 0 0 0
1509 343 4 0 9.597189691334925 -15.635072418701974 -16.36057097590296 0 0 0
3193 905 2 0 9.239507099106167 -16.39788438741327 -16.452449001885064 0 0 0
9831 3117 4 0 -1.9121669120135163 -15.09061202987716 -15.09592493628746 10 1 0
13825 4449 2 0 -0.43964107132711305 -14.600086327861456 -16.02869458251376 10 1 1
15614 5045 4 0 -0.11252462543521702 -14.098413286304153 -15.414389011234443 10 1 1
13827 4449 4 0 -0.7980823853223082 -14.858835816250954 -16.320192927190813 10 1 1
15613 5045 2 0 -0.43502529522672617 -13.791819665426477 -15.131472982220703 10 1 1
13826 4449 4 0 -0.07577537631316744 -14.34170278665616 -15.714082342334615 10 1 1
14643 4721 4 0 -1.070797289672388 -14.961674122810223 -16.58188954456012 10 1 1
14514 4678 4 0 0.09376124711792144 -14.432584623196375 -15.37903769457388 10 1 1
15446 4989 4 0 0.2207622693090876 -14.107650579075614 -15.587103870409663 10 1 1
15445 4989 2 0 0.4305173494166432 -13.670204861070706 -15.833218586503866 10 1 1
14512 4678 2 0 0.5086401381889942 -14.509951185883619 -15.084761943717023 10 1 1
15301 4941 2 0 1.5430151238968186 -14.289600924070392 -15.244377448110265 10 1 1
13677 4399 4 0 1.662939291740141 -13.798250104250977 -15.910585584399556 10 1 1
15302 4941 4 0 1.796402479075077 -14.029887623606488 -15.615072043660131 10 1 1
13675 4399 2 0 1.8402169332655767 -14.076655563220612 -16.248956976519484 10 1 1
15251 4924 4 0 1.9611448152774464 -13.64934110754548 -15.69199598175276 10 1 1
15634 5052 2 0 2.312457884258489 -15.037633704425975 -16.038010489311393 10 1 1
15636 5052 4 0 2.2366500100371347 -14.731256238942969 -16.486030866396703 10 1 1
9068 2863 4 0 -5.812617136635529 -16.52891737267587 -6.259870083444952 9 1 0
14365 4629 2 0 3.104119258948913 -14.903748857838249 -15.259818205730957 10 1 1
14366 4629 4 0 3.457144027766276 -14.598981785085128 -15.161048231119807 10 1 1
14328 4616 4 0 3.712819356741761 -14.583206460156735 -15.461328404682783 10 1 1
14326 4616 2 0 3.9467675982056853 -14.472841541419884 -15.877890191965946 10 1 1
14327 4616 4 0 4.196497975679346 -14.367217022973609 -16.295612853709823 10 1 1
9000 2840 4 0 3.7516628693899854 -14.30566566345073 -15.175962894289848 10 1 0
1757 426 4 0 3.8462014646248406 -14.68681755058805 -15.0737347190607 0 0 0
15531 5017 4 0 4.538128821664401 -14.15413788113895 -16.34188812653922 10 1 1
15529 5017 2 0 4.989657950765434 -14.279724597189796 -16.150246661154025 10 1 1
14359 4627 2 0 5.372010851462246 -14.58924261647196 -15.219115561633876 10 1 1
15530 5017 4 0 5.45852650533827 -14.395926335576853 -15.966689834783608 10 1 1
6924 2148 4 0 5.636101127180584 -14.749637778234941 -15.926700289572972 0 0 1
14052 4524 4 0 5.687336607241864 -14.098102515982399 -15.80352732821159 10 1 1
14361 4627 4 0 5.631354229989363 -14.46044289612203 -15.637288780370296 10 1 1
7202 2241 4 0 5.865332732420619 -14.423026957526503 -15.933372285287529 0 0 1
14050 4524 2 0 5.7176030849193715 -13.601675769292846 -15.713115940504768 10 1 1
1899 473 4 0 7.362226263101157 -15.215776167257367 -16.102669523823003 0 0 0
7201 2241 2 0 6.2451953389125485 -14.406181037519875 -16.302672314790392 0 0 1
8149 2557 2 0 7.249053477246189 -14.744982227351219 -16.581004518759975 0 0 1
15447 4989 4 0 0.6141720990348425 -13.285100112188491 -16.059510023818966 10 1 1
8777 2766 4 0 0.6412905601096988 -12.880014408208448 -16.029353476872487 10 1 0
8776 2766 2 0 0.9030569438466571 -12.4719009207044 -15.866249691427189 10 1 0
15250 4924 2 0 2.1760702680543247 -13.364283223925208 -15.34538696808715 10 1 1
15121 4881 2 0 4.137104441198737 -12.750680880501077 -15.163697199588716 10 1 1
15123 4881 4 0 4.444783206925525 -12.450887234373868 -15.454703057444366 10 1 1
14312 4611 4 0 4.777717921520178 -12.340301626395025 -15.663004725860873 10 1 1
14311 4611 2 0 5.148488836962514 -12.631744706631684 -15.79077841994998 10 1 1
14313 4611 4 0 5.536136924436242 -12.931118975142898 -15.92136201824235 10 1 1
14051 4524 4 0 5.737172328552539 -13.089010037143819 -15.619150686119617 10 1 1
10082 3201 4 0 5.887912555863949 -12.795757766536086 -15.796468264349759 10 1 0
10383 3301 4 0 4.8045669590162845 -12.358882105427675 -15.263996089828602 10 1 0
10081 3201 2 0 6.302902413638385 -12.54589749349811 -15.64954084146021 10 1 0
10083 3201 4 0 6.714134331990831 -12.28687354668468 -15.507941217570812 10 1 0
6438 1986 4 0 7.119605671775339 -12.230767731501137 -15.499508798561523 0 0 1
6436 1986 2 0 7.391046630184494 -12.301338922076956 -15.931868786481733 0 0 1
10593 3371 4 0 6.918847698946667 -12.275076020394508 -15.164899619514259 10 1 0
6437 1986 4 0 7.670318133022882 -12.386675983321108 -16.38439537833026 0 0 1
8778 2766 4 0 1.1586429872251536 -12.084503621535044 -15.698494706510813 10 1 0
13691 4404 4 0 1.0920993459936135 -11.737352007600888 -15.844241840605532 10 1 1
13690 4404 2 0 1.377469029337039 -11.615143899933718 -15.444178612143455 10 1 1
9245 2922 4 0 3.737857015855429 -10.640787078104255 -15.245774643292458 10 1 0
10821 3447 4 0 5.7953339969517295 -10.543875833400328 -15.251875476077364 10 1 0
716 144 1 0 -6.60349313890881 -8.440259581812477 -15.942009026572505 4 0 0
1619 380 4 0 -6.801570780283271 -7.621541958460103 -16.230903189142673 4 0 0
720 144 3 0 -6.609505881450339 -7.943790959903769 -16.092229124321957 4 0 0
719 144 3 0 -6.846240157474904 -8.47727676731938 -15.502563214550792 4 0 0
717 144 3 0 -6.110310029733046 -8.606995322915612 -15.886120070801917 4 0 0
2532 684 4 0 -6.827118443397929 -7.713110447951564 -15.86142507316128 4 0 0
7059 2193 4 0 -6.494560500160636 -7.58517425650437 -15.99012494421171 4 0 1
718 144 3 0 -6.832956688922147 -8.711712255921238 -16.287614758173405 4 0 0
1976 499 4 0 -9.475631926513888 -6.707760473118682 -15.627860661329876 4 0 0
1975 499 2 0 -9.052407192864484 -6.921505701128316 -15.508921863317816 4 0 0
2334 618 4 0 -8.210419914193544 -5.999501125708587 -16.475095714056202 4 0 0
3104 875 4 0 -8.221381990303446 -6.407126043223807 -16.527164232701335 4 0 0
1977 499 4 0 -8.611247905862623 -7.133994055135624 -15.395839586059942 4 0 0
3251 924 4 0 -8.487208622259585 -6.956851687485489 -15.066207988251787 4 0 0
3250 924 2 0 -8.002500115559881 -7.004018102287297 -15.013981664446145 4 0 0
2530 684 2 0 -7.009651141227222 -7.494137727746395 -15.436167581138982 4 0 0
2531 684 4 0 -7.189566299918303 -7.273856824024765 -15.015975698906491 4 0 0
7057 2193 2 0 -6.016677268452678 -7.356816736693702 -15.958616838972402 4 0 1
7058 2193 4 0 -5.544048168344453 -7.129320073929819 -15.93437631719748 4 0 1
2040 520 4 0 -5.207178451701786 -7.080439868732755 -16.152818681038575 4 0 0
2996 839 4 0 -5.193822453257745 -7.112372582257915 -15.729657141645399 4 0 0
2762 761 4 0 -5.340424317262565 -6.79407492745875 -15.915482753917622 4 0 0
2761 761 2 0 -5.422928051973008 -6.299619128323997 -15.976059292195051 4 0 0
2995 839 2 0 -5.168833210865888 -7.1250296639940665 -15.240362539687881 4 0 0
2038 520 2 0 -4.900413675562962 -7.030813522236501 -16.583927179654737 4 0 0
2809 777 2 0 -2.0919366095313663 -6.131592139323036 -15.649658883831838 4 0 0
2810 777 4 0 -1.890408435468622 -6.598039015527494 -15.659689759510664 4 0 0
3555 1025 4 0 2.094946867682218 -16.593625621409927 -8.572867097398499 0 0 0
14324 4615 4 0 16.567673659689174 -4.683450181343499 -16.261188315521522 5 0 1
2332 618 2 0 -8.21925634458204 -5.675763097182365 -16.097795831981347 4 0 0
10583 3368 4 0 -8.162166579410929 -5.076697916602921 -15.458625856378326 4 0 0
2333 618 4 0 -8.22556937694446 -5.354095138252228 -15.716763430773911 4 0 0
3456 992 4 0 -8.065589930713022 -5.032996174703971 -15.850469313983487 4 0 0
3454 992 2 0 -7.874666532175127 -4.592265416990061 -16.03872725439217 4 0 0
1502 341 4 0 -7.853407655999696 -5.222527000821948 -15.62175913578801 4 0 0
1501 341 2 0 -7.39035861901246 -5.4061148996641055 -15.43379194850593 4 0 0
1503 341 4 0 -6.935989027620064 -5.585767551757929 -15.25156990047151 4 0 0
1264 262 2 0 -6.217009647301811 -5.651965923164722 -16.452401357489563 4 0 0
1201 241 2 0 -6.19040714723506 -5.72600591545374 -15.387473756024836 4 0 0
2134 552 2 0 -6.130179324507331 -4.607387245919197 -15.50870562326037 4 0 0
2135 552 4 0 -6.097947277921312 -4.505645940321145 -15.988026506227486 4 0 0
3235 919 2 0 -6.82725837208122 -4.590053749200251 -16.446729769685607 4 0 0
1203 241 4 0 -6.59329889294494 -5.73131633686465 -15.095068118290097 4 0 0
2136 552 4 0 -6.165769013133843 -4.706236542109956 -15.007763769287713 4 0 0
2763 761 4 0 -5.5170351915375235 -5.798315481712375 -16.030987020567704 4 0 0
1202 241 4 0 -5.755347861031304 -5.71659143554189 -15.703594246675488 4 0 0
3123 881 4 0 -5.459369764718636 -5.476982491930386 -15.846769202209126 4 0 0
1266 262 4 0 -5.819498198875866 -5.557946582494212 -16.07171693203 4 0 0
3228 916 4 0 -5.475471908798584 -5.461880992368222 -16.246115871737363 4 0 0
3121 881 2 0 -4.975916864649605 -5.2827615306425315 -15.721874267415856 4 0 0
3122 881 4 0 -4.5052816122746755 -5.0866977620922516 -15.606334471895394 4 0 0
1361 294 4 0 -4.440983017162251 -4.798834285938714 -15.365160744571073 4 0 0
2892 804 4 0 -4.475031177372001 -4.715989397163508 -15.759940012475596 4 0 0
7102 2208 2 0 -3.673441258803205 -4.61632950808308 -15.605964940319952 4 0 1
7103 2208 4 0 -4.15520856375047 -4.917440469804603 -15.611870665303712 4 0 1
2153 558 4 0 -4.297635502537057 -5.15828734224087 -15.27170930611418 4 0 0
2256 592 4 0 -3.3905662195033432 -5.768479509155732 -16.52996640834411 4 0 0
2254 592 2 0 -3.001698451332956 -5.655302994009466 -16.201404173281755 4 0 0
2152 558 2 0 -4.009837895045649 -5.437327846019139 -14.991743695143157 4 0 0
9500 3007 4 0 -4.488141155444396 -16.590745721668963 -8.57274261787311 9 1 0
2811 777 4 0 -2.30765255982344 -5.673365485134628 -15.635885739875754 4 0 0
6156 1892 4 0 -2.6672874410922773 -5.682442658426519 -15.49072719670248 4 0 1
2255 592 4 0 -2.608441686834448 -5.553023883812644 -15.874475210234309 4 0 0
6993 2171 4 0 -2.2284091571928233 -5.407774295797044 -15.89098807397898 4 0 1
6688 2070 2 0 -2.6458366338982877 -4.838338282204775 -15.54399908686078 4 0 1
6690 2070 4 0 -2.4553813477923434 -5.320572232806425 -15.583228700284254 4 0 1
450 90 3 0 -2.0658339409753204 -5.386723693183981 -15.539640354526009 4 0 1
6991 2171 2 0 -1.9731717888365825 -5.276944221642964 -16.298598603995885 4 0 1
446 90 1 0 -1.707485638628281 -5.220238277289926 -15.189257557505616 4 0 1
6154 1892 2 0 -3.0062750511544394 -5.756062805340338 -15.100845024919742 4 0 1
448 90 3 0 -1.916247843756656 -4.869210794475531 -14.868326264424137 4 0 1
449 90 3 0 -1.3076989971824702 -4.994766168864711 -15.42932689126266 4 0 1
7926 2482 4 0 -0.8930524420849935 -4.960502703977403 -15.459724505471605 4 0 1
1149 230 3 0 9.122729323894657 -5.542402443199494 -16.050538780540137 5 0 1
1148 230 3 0 9.909230695677618 -5.271086115494292 -15.946660133969939 5 0 1
1146 230 1 0 9.602476037736341 -5.566806275783849 -16.221605114358297 5 0 1
1150 230 3 0 9.765802558936858 -6.067137060123692 -16.183850655529533 5 0 1
13542 4354 4 0 9.959496490313526 -4.872677940089311 -15.877210092433343 5 0 1
9346 2956 2 0 12.909203896066625 -5.830072988029805 -16.43220724699716 5 0 0
9347 2956 4 0 13.34956985691026 -5.694380261327293 -16.207142620653542 5 0 0
9512 3011 4 0 13.417044770742738 -5.576063009523335 -15.810763657107666 5 0 0
9511 3011 2 0 13.50716394143025 -5.472104335901221 -15.322225715553754 5 0 0
10299 3273 4 0 -4.8467341456278294 -16.581844533124066 -8.494630491403225 9 1 0
7699 2407 2 0 13.645081332261292 -4.9385444463674695 -16.27617112756227 5 0 1
7701 2407 4 0 13.62422341944395 -5.4250750915832775 -16.145411194398935 5 0 1
10134 3218 4 0 13.684500995000722 -5.805057242814005 -16.021582093670865 5 0 0
10132 3218 2 0 14.061310000150542 -5.921822117507258 -16.30903257029168 5 0 0
9688 3070 2 0 15.116138488875233 -5.1668837988510905 -15.267203104085329 5 0 0
8953 2825 2 0 15.124122516443538 -5.6584892728660385 -16.293279245870973 5 0 0
8954 2825 4 0 15.45975742855796 -5.387398282918722 -15.984569427144626 5 0 0
9690 3070 4 0 15.398124265902474 -5.3343908510981315 -15.622874002961503 5 0 0
9251 2924 4 0 15.778109790599995 -5.4368098885532685 -15.719350542716626 5 0 0
9250 2924 2 0 16.082398098119196 -5.066534807469914 -15.821863904906106 5 0 0
9252 2924 4 0 16.391764388736714 -4.676816916378273 -15.922345602205924 5 0 0
10350 3290 4 0 -15.521725190413912 -3.5984133872666764 -15.495805829670235 7 0 0
9122 2881 4 0 -15.83235947830108 -3.8178272017307666 -15.600347034982683 7 0 0
13920 4480 4 0 -15.182235032132095 -3.5767111030219194 -15.254456062413182 7 0 1
9121 2881 2 0 -16.205969409801494 -4.082993456083354 -15.810859483149507 7 0 0
10348 3290 2 0 -15.545838974698379 -3.1124946462813465 -15.575770026887948 7 0 0
9123 2881 4 0 -16.576765324550692 -4.359227164504238 -16.020325966845583 7 0 0
15387 4969 4 0 -13.964438917525209 -3.4285251045498004 -16.150243894848412 7 0 1
14020 4514 2 0 -13.70488846623257 -3.5314689184460697 -15.467102430768369 7 0 1
14021 4514 4 0 -13.628757493630903 -3.5976188152204607 -15.984487955145989 7 0 1
15385 4969 2 0 -14.41041979667623 -3.564264007741828 -16.40061211298307 7 0 1
15512 5011 4 0 -13.611687367832658 -3.3437217206840177 -16.288015931508074 7 0 1
14022 4514 4 0 -13.785850001510829 -3.471418258696124 -14.955224950927233 7 0 1
10297 3273 2 0 -5.199591438662345 -16.568559992948803 -8.875958394896927 9 1 0
1687 403 2 0 -11.402004357419463 -3.4325092104061206 -15.73223726540483 3 0 0
1688 403 4 0 -10.911643019739765 -3.47324752422362 -15.89727445569333 3 0 0
1689 403 4 0 -11.883003884112757 -3.399700985714702 -15.553870535354275 3 0 0
37 8 3 0 -10.59563812204191 -3.274615893647388 -15.706168650104237 3 0 0
2558 693 4 0 -9.573113717202686 -3.628935534417595 -15.774145529923125 3 0 0
2557 693 2 0 -9.548096778794495 -3.871617493930094 -16.21612809439463 3 0 0
3302 941 4 0 -9.419133777811568 -3.309806256982778 -15.606867043582646 3 0 0
40 8 3 0 -9.785752561674235 -3.308704774077187 -15.773318769613518 3 0 0
3301 941 2 0 -9.070267736692266 -3.194200686176851 -15.283780074984506 3 0 0
3455 992 4 0 -7.691387301416148 -4.145291867069464 -16.212656614652996 4 0 0
2427 649 4 0 -7.451771591146629 -3.851351927157637 -16.098046915747965 4 0 0
3 1 3 0 -7.49675157332085 -3.9139389193015184 -16.494336505573916 4 0 0
3236 919 4 0 -6.428131540358894 -4.439423194518692 -16.18010060760942 4 0 0
2425 649 2 0 -7.388417209283226 -3.7127761603845 -15.609308296615891 4 0 0
2426 649 4 0 -7.336232805419501 -3.577166477116119 -15.116053164136673 4 0 0
1559 360 4 0 -6.097674008384674 -4.256219772698913 -16.353652812260307 4 0 0
1558 360 2 0 -5.6410829832604605 -4.045006223326698 -16.405419419580216 4 0 0
1560 360 4 0 -5.178794161252759 -3.831259859627476 -16.44744280175253 4 0 0
1427 316 4 0 -4.876817157486968 -3.6167873330243374 -16.535591224300852 4 0 0
2634 718 4 0 -4.99256047182061 -3.1322369858938437 -15.41293491242437 4 0 0
1426 316 2 0 -4.901973636947897 -3.268277176848178 -16.143684974821237 4 0 0
2891 804 4 0 -4.812226596809847 -3.9214632349795036 -16.322580923473645 4 0 0
2890 804 2 0 -4.642773795732468 -4.307856774786451 -16.050835757291086 4 0 0
7104 2208 4 0 -3.187497469504862 -4.3246039214463 -15.593252396401565 4 0 1
2931 817 4 0 -3.001134500305948 -4.11073895199134 -15.264863446140767 4 0 0
7724 2415 4 0 -2.89034543257125 -4.042957295294572 -15.64700347010718 4 0 1
6689 2070 4 0 -2.8278626307806896 -4.38410317521414 -15.492927600793418 4 0 1
7723 2415 2 0 -2.469528119703325 -3.836147837659947 -15.937716434934377 4 0 1
7725 2415 4 0 -2.042278808116011 -3.633986669282656 -16.231728154120585 4 0 1
7801 2441 2 0 -1.7106988774829954 -4.265004074127695 -16.54677063592138 4 0 1
7803 2441 4 0 -1.7303226482807936 -3.7461417961741574 -16.467859784398787 4 0 1
8127 2549 4 0 -1.7929112667985159 -3.3533420065586466 -16.40145300303661 4 0 1
7924 2482 2 0 -0.6588096039649773 -4.504197853681564 -15.54739818331813 4 0 1
7391 2304 4 0 -1.4184765017074223 -3.5343892984058733 -16.40475196701201 4 0 1
7390 2304 2 0 -0.9431405220946267 -3.6206733357338337 -16.112445524076666 4 0 1
7431 2317 4 0 -0.6065218441450977 -3.7096075527079986 -15.479962655694905 4 0 1
7392 2304 4 0 -0.49854581346598437 -3.6887979365994994 -15.853225767173042 4 0 1
7925 2482 4 0 -0.4429523261674042 -4.035109321751051 -15.64771049600243 4 0 1
1893 471 4 0 -0.2148255358462272 -3.6895147886221853 -15.578389470129782 4 0 0
1891 471 2 0 0.13195356493076105 -3.4003244390700793 -15.258140818008956 4 0 0
6830 2117 4 0 2.014560174239705 -3.184760139956518 -15.311612494679967 4 0 1
6829 2117 2 0 2.213870319966876 -3.626156748373342 -15.29934638959974 4 0 1
6831 2117 4 0 2.4120922422691464 -4.077284153426923 -15.289187672598478 4 0 1
14859 4793 4 0 7.57090428621941 -3.218825760556541 -16.11708921924895 5 0 1
13540 4354 2 0 10.061123064072763 -4.405012837218706 -15.929800919740899 5 0 1
14432 4651 4 0 10.149716150623068 -3.7463825856760202 -16.39174006064228 5 0 1
15438 4986 4 0 10.204288098174121 -3.511136370048625 -16.07663131746172 5 0 1
13541 4354 4 0 10.16853377913024 -3.893019588561513 -15.990851011727107 5 0 1
15395 4972 4 0 10.423009249545725 -3.655195454436903 -15.804875167786385 5 0 1
14855 4792 4 0 10.497147870329123 -3.742770201445211 -16.188625115381853 5 0 1
15394 4972 2 0 10.740245151878153 -3.614404731904287 -15.406383808736496 5 0 1
14854 4792 2 0 10.91174169725274 -3.6668451152501316 -16.512398887512564 5 0 1
6478 2000 2 0 11.7772079108587 -3.898304697924237 -15.278766907741336 5 0 1
14962 4828 2 0 11.959432679782381 -3.7350683111577947 -16.31984855075806 5 0 1
15396 4972 4 0 11.05894138643782 -3.5725388974873535 -15.01393182092048 5 0 1
7250 2257 4 0 11.400187820191853 -3.3215675590505462 -15.0248556447717 5 0 1
6479 2000 4 0 12.137524641308431 -4.0785983395322365 -15.56469407582456 5 0 1
14963 4828 4 0 12.188933497654453 -3.88186847355424 -15.889712161458192 5 0 1
2157 559 4 0 12.359247896978573 -3.725136773572279 -15.558848633591003 5 0 0
8132 2551 4 0 12.48178895217616 -4.063254234194458 -15.734596303603865 5 0 1
2155 559 2 0 12.563922185783216 -3.2407526346778663 -15.617747137393641 5 0 0
8131 2551 2 0 12.8962609666922 -4.202492925396882 -15.967118003049801 5 0 1
8133 2551 4 0 13.329059165658048 -4.346731490566928 -16.214678291759107 5 0 1
13668 4396 4 0 13.494664398252517 -4.128777963017178 -16.516735506257465 5 0 1
7700 2407 4 0 13.668035975994133 -4.46463663286611 -16.41074832443445 5 0 1
15755 5092 4 0 13.674929905791508 -4.214187073157884 -16.140188842467545 5 0 1
15754 5092 2 0 14.104654104760932 -3.955292016684684 -15.972652767230429 5 0 1
15756 5092 4 0 14.515048840830389 -3.7093521575593478 -15.80713467207991 5 0 1
14148 4556 4 0 14.837934809514849 -3.4899989270703955 -15.743643771246024 5 0 1
14693 4738 4 0 14.706066172030742 -3.554269244796176 -16.131439822387495 5 0 1
14692 4738 2 0 14.989127083381415 -3.6691496903079006 -16.522345216258774 5 0 1
14146 4556 2 0 15.193087516796133 -3.244724490591004 -15.506954071071606 5 0 1
9479 3000 4 0 16.270644614141258 -4.41098000803512 -16.222463597632363 5 0 0
14147 4556 4 0 15.566612992807453 -2.97640388125809 -15.25709985986766 5 0 1
9478 3000 2 0 15.8723885997079 -4.261660436664577 -16.51740241818807 5 0 0
9554 3025 4 0 -15.594851123906544 -2.421215984828585 -15.304140665798203 7 0 0
10349 3290 4 0 -15.568123796027855 -2.6206046458567442 -15.657348305284623 7 0 0
13812 4444 4 0 -15.733782000139115 -2.2779666088197317 -15.652124361159185 6 0 1
10277 3266 4 0 -15.354029939162396 -2.2919613917750343 -15.607410711189615 7 0 0
13810 4444 2 0 -16.0556778610205 -1.8869248917932602 -15.784047720638519 6 0 1
10276 3266 2 0 -14.946957374804006 -1.9422385615204298 -15.682140824334626 7 0 0
15415 4979 2 0 -13.833134706165557 -1.852260416545949 -16.10391398343208 7 0 1
15417 4979 4 0 -14.243085294805603 -1.575174657008203 -15.979191586912632 7 0 1
10278 3266 4 0 -14.569446395815962 -1.6200804300291267 -15.753727977896304 7 0 0
15416 4979 4 0 -13.433368467445353 -2.1242641276114522 -16.225047413815243 7 0 1
14878 4800 2 0 -13.044804320455215 -2.190151262525271 -15.423242630251739 7 0 1
15513 5011 4 0 -13.149308775612909 -2.3984493927818953 -16.266269924554162 7 0 1
14879 4800 4 0 -13.1295577405929 -2.1639164212374205 -15.94329544013518 7 0 1
15511 5011 2 0 -13.374228500169377 -2.858095933810157 -16.272415759297505 7 0 1
9470 2997 4 0 -13.065441538920421 -2.0226985648667704 -16.309687550247585 7 0 0
9469 2997 2 0 -12.675715392936862 -1.6809953371120994 -16.33749167683408 7 0 0
14117 4546 4 0 -13.306603126701239 -2.230125871468955 -16.57157582591671 7 0 1
10079 3200 4 0 -11.428241661273134 -2.202088215842057 -15.227588891639774 7 0 0
10419 3313 4 0 -11.67079298441013 -1.9117037036009314 -15.283447339220336 7 0 0
10078 3200 2 0 -10.98923454772832 -2.3205200606324183 -15.409181764528254 7 0 0
10417 3313 2 0 -11.842079178066456 -1.642616533502041 -15.666352187194178 7 0 0
172 35 3 0 -10.681002442070199 -1.52791117411679 -16.372347935736858 3 0 0
10080 3200 4 0 -10.524880551670512 -2.437662561276518 -15.57998946592439 7 0 0
174 35 3 0 -10.63115231478395 -2.3245038563351343 -16.5764875866658 3 0 0
36 8 1 0 -10.206486865229742 -3.03406436395041 -15.869347608486617 3 0 0
173 35 3 0 -10.45352399794491 -2.1112757488346894 -15.81304136475897 3 0 0
38 8 3 0 -10.252987927303037 -2.961169487851736 -16.358631563479932 3 0 0
39 8 3 0 -10.169981193080389 -2.5673554106376546 -15.62055002904729 3 0 0
2313 611 4 0 -10.208895902616241 -2.224848976595183 -15.50266072622581 3 0 0
2311 611 2 0 -9.938654320114185 -1.8783882811520343 -15.304814504812414 3 0 0
171 35 1 0 -10.424125867399225 -1.9740034265481974 -16.294031605693746 3 0 0
175 35 3 0 -9.930954063313031 -1.929335006440386 -16.423264078595086 3 0 0
7931 2484 4 0 -9.549222134470114 -1.8702824716163065 -16.527635404450113 3 0 1
2970 830 4 0 -6.832742376201319 -1.8651683709558835 -15.290754879756134 3 0 0
3512 1011 4 0 -6.584742553395998 -1.6037899435469338 -15.052024985498402 3 0 0
2968 830 2 0 -7.350854713539263 -1.866818233339913 -15.100252572282146 3 0 0
3020 847 4 0 -6.437594650143417 -1.9371316998455068 -15.207006883979457 3 0 0
1428 316 4 0 -4.926283784696633 -2.95504058861801 -15.785930746195632 4 0 0
2672 731 4 0 -5.217797354519986 -2.8242242878345856 -15.540164185768441 4 0 0
2671 731 2 0 -5.090383941198368 -2.450307242735695 -15.173809188196792 4 0 0
1309 277 2 0 -4.077859827059882 -1.4463682705957623 -15.943709907173195 4 0 0
1310 277 4 0 -3.8930688118986527 -1.7422263344338784 -15.575034214084083 4 0 0
3560 1027 4 0 -3.5690411943189275 -1.9543212276887267 -15.508607918157823 4 0 0
3559 1027 2 0 -3.075654577117694 -1.8739790859531578 -15.57869011376983 4 0 0
3075 865 4 0 -3.798714383023521 -1.8697276645711725 -15.205753482383653 4 0 0
3561 1027 4 0 -2.577001189295949 -1.7921562883451578 -15.65716191737146 4 0 0
1890 470 4 0 -2.3234364324885153 -1.557247063227038 -15.47476205879801 4 0 0
6383 1968 4 0 -2.2131442673838855 -1.7526131973207413 -15.821767608968573 4 0 1
8125 2549 2 0 -1.5803993485469743 -2.874078397848054 -16.40262495656135 4 0 1
6382 1968 2 0 -1.7770459360529571 -1.8920132437545796 -16.038972911365097 4 0 1
8126 2549 4 0 -1.3643794356238157 -2.3971623898785346 -16.398324377126993 4 0 1
6384 1968 4 0 -1.3298309314191723 -2.03243210229207 -16.256301971206017 4 0 1
15038 4853 4 0 -1.0060194439782908 -2.185964380678014 -16.404382164067076 4 0 1
15037 4853 2 0 -0.4813081358174003 -2.029781722513814 -16.506677427600376 4 0 1
13 3 3 0 0.14565628240907813 -2.2365257531270792 -15.025220448656222 4 0 0
8107 2543 2 0 0.9302182277980933 -2.1020285116872 -16.568714463926057 4 0 1
2539 687 2 0 1.3474219447508808 -1.4636316196317516 -15.188126832863986 4 0 0
8109 2543 4 0 1.4504144853622094 -2.2283092200341663 -16.484629707067224 4 0 1
7164 2228 4 0 1.8300138302349858 -2.8863072905368448 -15.159266465048878 4 0 1
7389 2303 4 0 2.009046721699363 -2.856018308285128 -15.512304727767697 4 0 1
13430 4317 4 0 2.2386213687078964 -2.861351577746472 -15.194495209353864 4 0 1
7387 2303 2 0 1.9102940539463233 -2.565322855588251 -15.949268148766228 4 0 1
7388 2303 4 0 1.8224318245066762 -2.30113022879509 -16.331623492323814 4 0 1
6816 2112 4 0 1.7503480803436773 -1.9263415283435297 -16.429998695544462 4 0 1
7505 2342 4 0 2.13027087496463 -2.090017491044513 -16.468192822664466 4 0 1
7504 2342 2 0 2.646056874516564 -1.8716854800331593 -16.527551189291994 4 0 1
6814 2112 2 0 1.713596588911912 -1.4954690955980467 -16.165376683415722 4 0 1
6893 2138 4 0 3.4897658593405474 -1.5131953094078447 -16.511064630054427 4 0 1
7506 2342 4 0 3.107202769982006 -1.6653410043785524 -16.584833183092645 4 0 1
15436 4986 2 0 10.09206780662236 -3.0111522460548237 -16.18987383642879 5 0 1
15437 4986 4 0 9.983253496367311 -2.517453527864813 -16.312290294765695 5 0 1
9156 2892 4 0 -6.441671386650604 -16.563687214419037 -8.779695916729146 9 1 0
7249 2257 2 0 11.534797882543582 -2.8296060934642053 -15.271990161795054 5 0 1
10640 3387 4 0 11.491761856503992 -2.008806583324729 -15.443627651215573 5 0 0
8815 2779 2 0 11.532049351319671 -2.065050874145939 -16.227481750725385 5 0 0
8816 2779 4 0 11.671294848452984 -2.1121529855874197 -15.771981077855646 5 0 0
7251 2257 4 0 11.669131153275831 -2.3748458673913664 -15.495795986152027 5 0 1
2642 721 4 0 11.867783074357842 -2.0667303693550796 -15.43063104485173 5 0 0
10224 3248 4 0 -7.973396156974363 -16.55910973163457 -10.354907863415619 9 1 0
10639 3387 2 0 11.432925012725303 -1.7590979254505026 -15.019724540096403 5 0 0
2641 721 2 0 12.370470056200059 -2.2012256331261657 -15.52602100170927 5 0 0
2156 559 4 0 12.763603041420886 -2.7429419369388555 -15.675333309597226 5 0 0
2781 767 4 0 12.938238798564893 -2.503641626267978 -15.95591265451653 5 0 0
2643 721 4 0 12.855090998289757 -2.3343596447465593 -15.610861849984936 5 0 0
2779 767 2 0 13.01353414418772 -2.692945357702584 -16.416988949906344 5 0 0
14603 4708 4 0 15.839910718947774 -2.752817108860418 -14.999452462883564 6 0 1
14944 4822 2 0 -16.223107666079244 -0.8672848458115805 -15.33587985065254 6 0 1
13811 4444 4 0 -16.388242488163804 -1.4848154105211329 -15.911571066355721 6 0 1
9144 2888 4 0 -15.230049900657948 -0.49319863665966324 -15.162419470697072 7 0 0
14945 4822 4 0 -16.263538801475928 -1.2190337680838184 -15.671395882598665 6 0 1
15684 5068 4 0 -16.044658450349054 -0.19169369712833628 -15.248462314171508 6 0 1
10307 3276 4 0 16.589520356710306 -1.1606228664423597 -15.892525064576391 5 0 0
10833 3451 4 0 -15.064534596579879 -0.1370776578949986 -15.116682877167738 7 0 0
10306 3276 2 0 16.5686084822192 -1.1906651248263316 -16.380726150954057 5 0 0
9142 2888 2 0 -14.985206664555834 -0.8557387723713177 -15.379972839127655 7 0 0
9143 2888 4 0 -14.705299708335753 -1.273920932130494 -15.619580990811468 7 0 0
13947 4489 4 0 -14.300990330101945 -1.368460111822058 -15.63159861631947 6 0 1
13427 4316 4 0 -14.496335180564445 -1.295132514581848 -15.955520366908496 7 0 1
13426 4316 2 0 -14.505142507151643 -0.9709809440777448 -16.368721030890878 7 0 1
13945 4489 2 0 -13.978499914803258 -1.1100629702576086 -15.325944658219317 6 0 1
13946 4489 4 0 -13.628416950908733 -0.8390437372027613 -15.017012796011961 6 0 1
10265 3262 4 0 -13.54783809773128 -0.4352036785379667 -15.034810224851785 7 0 0