LAMMPS data file via write_data, version 2 Aug 2023, timestep = 9000000, units = lj

15948 atoms
4 atom types
10792 bonds
1 bond types
6356 angles
2 angle types

-16.594292 16.594292 xlo xhi
-16.594292 16.594292 ylo yhi
-16.594292 16.594292 zlo zhi

Masses

1 1
2 1
3 1
4 1

Bond Coeffs # harmonic

1 100 0.5

Angle Coeffs # harmonic

1 100 180
2 100 109.471

Atoms # full

1246 256 2 0 -15.751517695875599 -15.980161546009242 -16.349696311583035 1 0 0
1248 256 4 0 -16.0870882660635 -16.187708549886878 -16.031448307832296 1 0 0
9920 3147 4 0 -16.211416984250857 -16.041954288753942 -15.674217627218253 1 1 0
9919 3147 2 0 -16.012822091165862 -15.724572352409446 -15.318929963884973 1 1 0
743 149 3 0 -15.472789324400534 -15.238543907868571 -15.104930912973593 1 1 0
3120 880 4 0 -16.42903075797972 -16.32973504422195 -15.830166016492248 1 0 0
1625 382 4 0 -16.078002220113536 -16.41234022367496 -15.710730012882156 0 0 0
8712 2744 4 0 -14.087948809144907 -16.226300774295122 -16.56597587722834 0 1 0
10790 3437 4 0 -13.85963154276381 -16.122779772994395 -16.28713106861953 0 1 0
10789 3437 2 0 -13.725115663123585 -16.20781943394574 -15.849628135888882 0 1 0
11201 3574 4 0 5.835583889229334 -16.416439872406528 -5.989585753577569 0 1 0
10791 3437 4 0 -13.57233752710173 -16.30907118188318 -15.377101105549267 0 1 0
9771 3097 4 0 -12.401768392977091 -16.34554921733287 -5.672882889663847 0 1 0
8955 2825 4 0 -13.358471064132907 -16.43814702253653 -15.04813058802385 0 1 0
15484 5002 2 0 -7.85405302909884 -15.971112511425979 -16.170377346186132 0 1 1
15485 5002 4 0 -7.932753270439977 -16.375273365570035 -15.874703110959809 0 1 1
2883 801 4 0 -8.00942347314141 -16.430142320734504 -15.490699641574027 0 0 0
15486 5002 4 0 -7.7766383778818 -15.545188276601344 -16.482302844730828 0 1 1
13521 4347 4 0 -7.868756943862422 -15.184459929360075 -16.359587893683862 0 1 1
1416 312 4 0 -16.574844946508613 -0.9972556399653499 -6.8172574859126875 1 0 0
2881 801 2 0 -8.120010278809136 -16.099891998265548 -15.089500014409557 0 0 0
15194 4905 4 0 -2.610992933262643 -15.365319453001838 -15.698349847619141 0 1 1
15193 4905 2 0 -2.516039866898904 -15.36555041804149 -16.170983423131496 0 1 1
14593 4705 2 0 2.6123969037513306 -16.431244778598252 -15.326458421668866 0 1 1
8641 2721 2 0 16.24641675432195 -1.4683494861446167 -6.270618915856403 0 0 0
14640 4720 4 0 8.38981439099569 -15.642503472544696 -15.481212733183684 0 1 1
14638 4720 2 0 8.274483028357096 -16.13633723696519 -15.399477478054463 0 1 1
3189 903 4 0 8.676278374749055 -15.365302833375562 -15.45064443936627 0 0 0
3378 966 4 0 16.328012086281372 -0.7152604129846579 -6.756987287442087 0 0 0
2161 561 2 0 12.927113118879468 -15.787562910002197 -16.308031505335304 0 0 0
2163 561 4 0 13.135926741653849 -15.767918907875194 -15.847434207358848 0 0 0
10442 3321 4 0 13.10847685175092 -15.902980386638044 -15.467413898839014 0 1 0
3376 966 2 0 16.184455158647626 -0.35346739132071164 -6.4600058864965595 0 0 0
2581 701 2 0 -15.1156236902525 -15.078470889340442 -16.33643691012519 0 0 0
744 149 3 0 -15.79557953778411 -14.59300937186337 -15.486039528101232 1 1 0
741 149 1 0 -15.403812777657706 -14.746174715584234 -15.266035850214951 1 1 0
2582 701 4 0 -15.016525392671062 -14.732910785238639 -15.996391877934533 0 0 0
745 149 3 0 -15.022314362981882 -14.731727601957397 -15.585702022493798 1 1 0
1899 473 4 0 -14.75121822321455 -14.518994425276055 -15.811357669897312 0 0 0
1897 473 2 0 -14.373357590265265 -14.235348508470004 -15.919963632869472 0 0 0
1898 473 4 0 -13.999637670931982 -13.955407312231754 -16.017058743762576 0 0 0
1760 427 4 0 -13.635015260233821 -13.858450288298565 -16.195396872284025 0 0 0
1759 427 2 0 -13.231530279660786 -13.719137149929546 -16.418994147346336 0 0 0
13519 4347 2 0 -7.951216129388407 -14.915548119011572 -15.966764066183718 0 1 1
2108 543 4 0 -8.118820638119349 -14.629164493284463 -15.16768698240895 0 0 0
1657 393 2 0 -8.406052017101677 -13.923814973533933 -15.245926675083453 0 0 0
1659 393 4 0 -8.155007304173154 -14.316566835426057 -15.37873427820422 0 0 0
13520 4347 4 0 -8.037922651324362 -14.63126971729465 -15.563062147031214 0 1 1
2652 724 4 0 -7.786585293440262 -14.416319434458462 -15.33911289173916 0 0 0
2650 724 2 0 -7.329027128923938 -14.444564763487394 -15.139896436600788 0 0 0
2651 724 4 0 -6.852291788611463 -14.478219368337971 -14.948697036575986 0 0 0
1315 279 2 0 -0.3512307725856182 -13.626372271614974 -16.115694146464843 0 0 0
1317 279 4 0 -0.6070777389934783 -13.861081802164055 -16.458304448725162 0 0 0
171 35 1 0 -0.005326485343193276 -14.008385771742454 -15.136756515774675 0 0 0
173 35 3 0 0.19834102263955858 -14.40289249801042 -15.34619701441157 0 0 0
172 35 3 0 0.04824810737237958 -13.599317709354827 -15.437990364296349 0 0 0
1824 448 4 0 5.242610841866766 -14.010003781153056 -15.504060279176844 0 0 0
1822 448 2 0 5.340366629178209 -14.15952258048396 -15.025120233850581 0 0 0
3441 987 4 0 5.111281996036025 -13.651201820279704 -15.497920376996714 0 0 0
3187 903 2 0 8.765401353645936 -14.893718797499739 -15.564016735884495 0 0 0
2079 533 4 0 8.794858265461942 -14.158513659165491 -15.980670225744538 0 0 0
3188 903 4 0 8.853586652771083 -14.392143089608895 -15.68456626476372 0 0 0
2418 646 4 0 8.614042796933038 -14.079459151761311 -15.630048124574218 0 0 0
2416 646 2 0 8.361370261203108 -13.93405573193392 -15.19177989287403 0 0 0
2077 533 2 0 8.877944591655242 -13.726128597964966 -16.194029773558547 0 0 0
2337 619 4 0 15.782310016575092 -0.14614306579155403 -5.910341242080201 0 0 0
2539 687 2 0 -12.857420807981041 -12.646937062102577 -16.57894106046764 0 0 0
1404 308 4 0 -9.422716835072057 -12.407888893265717 -15.023191947553013 0 0 0
7811 2444 4 0 -9.758248264299088 -12.186071656769416 -15.031251521069088 0 0 1
1402 308 2 0 -9.149015585124118 -12.813239820428912 -14.96185279119731 0 0 0
1658 393 4 0 -8.674179052475434 -13.514363645553175 -15.098689432164724 0 0 0
1403 308 4 0 -8.863742278241745 -13.23873861501819 -14.89739165848319 0 0 0
1316 279 4 0 -0.09234988130068143 -13.37049065003193 -15.76033625952214 0 0 0
1964 495 4 0 0.2691633288078052 -13.329111393987 -15.599978693178715 0 0 0
1963 495 2 0 0.22194748239012527 -12.794617122764413 -15.6047537183362 0 0 0
1965 495 4 0 0.17248671263904344 -12.285532818240345 -15.613871457298774 0 0 0
1611 377 4 0 3.4020458435584917 -13.391135418462559 -14.994465071837267 0 0 0
3439 987 2 0 5.192854413583386 -13.152375782412353 -15.4909282965361 0 0 0
3440 987 4 0 5.271942471282443 -12.637388441883127 -15.483996877156757 0 0 0
7745 2422 4 0 5.1413188872236955 -12.268447797809808 -15.58055884557306 0 0 1
1397 306 4 0 5.345349830675172 -12.354559783368027 -15.238848952122266 0 0 0
3203 908 4 0 4.96976112811473 -12.457190292206572 -15.279300398471866 0 0 0
1396 306 2 0 5.7733765375603365 -12.401981850336561 -15.017440893783606 0 0 0
3202 908 2 0 4.622479671208551 -12.467944264807253 -14.877600928593456 0 0 0
3517 1013 2 0 8.644128043512698 -12.55712623134066 -16.17305662802109 0 0 0
3518 1013 4 0 8.85681671648725 -12.935024938346102 -16.383833808071547 0 0 0
2078 533 4 0 8.96427990923253 -13.297914406069303 -16.40659638297921 0 0 0
3020 847 4 0 9.203658566975923 -13.055261388552283 -16.56660315250243 0 0 0
13166 4229 4 0 12.396493971832083 -16.427209699945678 -7.557909173516705 0 1 0
9376 2966 2 0 -6.450592500682109 -16.5471476957663 -7.611141473032078 0 1 0
2540 687 4 0 -12.856379542458246 -12.116953322276421 -16.510867667899614 0 0 0
2216 579 4 0 -12.976027532896056 -11.83736716393664 -16.253179762241185 0 0 0
2217 579 4 0 -13.347085526606627 -11.192156797524772 -15.61014100858671 0 0 0
2215 579 2 0 -13.168894158722663 -11.505779554642114 -15.922472346766758 0 0 0
2975 832 4 0 -13.177319366763012 -10.950327392580077 -15.341793706224657 0 0 0
2974 832 2 0 -12.765200186130599 -10.746913508093717 -15.198122047572335 0 0 0
1310 277 4 0 -13.51546200640703 -10.853725832212795 -15.52702207034679 0 0 0
2057 526 4 0 -12.612802089797439 -11.815120295077449 -16.42042362518406 0 0 0
2056 526 2 0 -12.163914641644338 -11.689220496657319 -16.355688381957425 0 0 0
2976 832 4 0 -12.355667698189832 -10.521131930684586 -15.05529441607528 0 0 0
1732 418 2 0 -10.851074737340738 -11.489034962229832 -15.989184015547053 0 0 0
1734 418 4 0 -11.303219872767196 -11.59725827164682 -16.2033764389476 0 0 0
2058 526 4 0 -11.679572797739374 -11.552861187091546 -16.28266240155113 0 0 0
3218 913 4 0 -11.40255993134318 -11.418863578349374 -16.538406908079242 0 0 0
7810 2444 2 0 -9.919042682008678 -11.798747291693013 -15.298256427694989 0 0 1
1733 418 4 0 -10.409040373560785 -11.38888955635214 -15.78722129579136 0 0 0
6904 2142 2 0 -10.51362058292571 -10.807924374259754 -15.154776238397394 0 0 1
6906 2142 4 0 -10.324276959527054 -11.102134034875341 -15.533829485407866 0 0 1
7812 2444 4 0 -10.07645656989368 -11.41363098208127 -15.568480732840275 0 0 1
8229 2583 4 0 -10.081927173083763 -11.160614781658655 -15.854023679507266 0 0 1
8227 2583 2 0 -9.816860541661171 -11.159876388142122 -16.28534105437895 0 0 1
2028 516 4 0 0.05922707561339127 -12.065171900772311 -15.290601718519131 0 0 0
2454 658 4 0 0.07101610431795163 -11.914477208257706 -15.654284682718039 0 0 0
2452 658 2 0 0.30106806268284264 -11.754013263733471 -16.0719962913723 0 0 0
2453 658 4 0 0.5118524858369142 -11.58953672394468 -16.465035976481 0 0 0
3085 869 2 0 2.116608475810602 -11.119586101182383 -16.432462281802064 0 0 0
3087 869 4 0 2.299763853636185 -10.858946572203914 -16.036341605652385 0 0 0
3408 976 4 0 2.356940897074193 -10.566139955416823 -15.785347190553193 0 0 0
7744 2422 2 0 5.25708383939767 -12.053811307706026 -16.019672492684563 0 0 1
7746 2422 4 0 5.372396346764774 -11.836537882477481 -16.455437587788335 0 0 1
2233 585 2 0 7.166182090790536 -10.818722411607514 -15.923266672490593 0 0 0
2234 585 4 0 7.120631913296761 -11.299393326929522 -15.722620517328233 0 0 0
2136 552 4 0 7.065907658493269 -11.499035308432168 -15.382614735139962 0 0 0
2134 552 2 0 6.779957823310946 -11.860006340723338 -15.15071373102895 0 0 0
3519 1013 4 0 8.42431562781926 -12.159133129543525 -15.94913240295704 0 0 0
1971 497 4 0 8.414708915562324 -11.74671649233332 -15.986284996085194 0 0 0
1969 497 2 0 8.33326327615301 -11.268118359504607 -16.02471061705069 0 0 0
1970 497 4 0 8.245880943266489 -10.786493969667198 -16.067955252353798 0 0 0
1311 277 4 0 -14.033692029938459 -9.993810095408083 -15.445230575211104 0 0 0
2421 647 4 0 -14.2120363668602 -9.802060451804818 -15.176571787211794 1 0 0
3183 901 4 0 -14.010514978631527 -9.59620296322551 -15.414463663701698 0 0 0
1309 277 2 0 -13.776920664699086 -10.416831676232954 -15.485163237553888 0 0 0
3181 901 2 0 -13.65093391164038 -9.31584238863022 -15.644048555043334 0 0 0
1436 319 4 0 -12.314785250960957 -10.145926104182498 -15.152187368733552 0 0 0
1435 319 2 0 -12.22905677474901 -9.681900867043105 -15.264572055204757 0 0 0
1437 319 4 0 -12.143944377897935 -9.188600743813579 -15.388541303052518 0 0 0
6493 2005 2 0 0.7494120054546443 -9.786425833708394 -16.387615457904122 0 0 1
6495 2005 4 0 0.8918520792983857 -9.46448300315326 -16.012293327662285 0 0 1
1563 361 4 0 0.9447471996853349 -9.28933357859513 -15.654278636594825 0 0 0
1561 361 2 0 0.7950463424961994 -9.064795137690494 -15.23840711326521 0 0 0
3406 976 2 0 2.309436392045982 -10.349213667227149 -15.298645498848195 0 0 0
2445 655 4 0 4.615681777610884 -8.777632699398232 -14.844198561318606 0 0 0
2235 585 4 0 7.2156709218175115 -10.380240764686844 -16.11422057696926 0 0 0
1912 478 2 0 6.726196279099995 -9.799684728772336 -16.295085690343946 0 0 0
1913 478 4 0 7.071515166352007 -10.033304807053677 -15.992669725905351 0 0 0
164 33 3 0 7.444472775576713 -10.038831811846533 -16.107688411725494 0 0 0
2319 613 4 0 8.446857305090028 -10.567976359168004 -15.788057275387782 0 0 0
2317 613 2 0 8.40035186027335 -10.526346504660378 -15.25496939145984 0 0 0
2723 748 4 0 8.484453737834565 -10.521081977092472 -16.155982660432006 0 0 0
163 33 3 0 7.919996745203094 -9.723508345342385 -15.525558104610345 0 0 0
165 33 3 0 8.172577033701536 -10.368526653689146 -16.002968055409678 0 0 0
161 33 1 0 7.9059742095080034 -9.932396509891671 -15.998890331501238 0 0 0
162 33 3 0 8.094046284661001 -9.615076134775585 -16.328277846021226 0 0 0
2160 560 4 0 8.301621078886027 -9.276337338093736 -16.28373792399685 0 0 0
8069 2530 4 0 8.159400269017409 -10.568428378885132 -16.36953256953753 0 0 1
3551 1024 4 0 12.128811725711373 -8.779341908348709 -15.426834091389976 0 0 0
3049 857 2 0 14.809964658495018 -9.389886709898061 -15.846977292119357 0 0 0
3051 857 4 0 14.924477342124554 -9.601443036011847 -16.29141222796791 0 0 0
3653 1058 4 0 14.919830659483681 -9.396050080301428 -15.158145042034413 0 0 0
3642 1054 4 0 14.567458762300022 -9.259287199762985 -15.036510805485797 0 0 0
3050 857 4 0 14.699357430485842 -9.19959093021704 -15.425977641032187 0 0 0
3182 901 4 0 -13.296023823865198 -9.034315548627347 -15.864931419442884 0 0 0
177 36 3 0 -12.977336482335522 -8.933077901684182 -15.643564817813058 0 0 0
176 36 1 0 -12.574855949521774 -8.62765188831631 -15.719127799247543 0 0 0
180 36 3 0 -12.5733629084633 -8.2580393921403 -15.362877272839405 0 0 0
3075 865 4 0 -12.585597207936754 -8.20135161363909 -16.52426795131268 0 0 0
179 36 3 0 -12.62119256931906 -8.399486569184248 -16.18387918984703 0 0 0
178 36 3 0 -12.133841647524484 -8.898002871385792 -15.69311541329604 0 0 0
1856 459 4 0 -12.280166641028668 -8.186668861989466 -16.23017377699334 0 0 0
1652 391 4 0 -11.888234312209828 -8.878983504847254 -15.39237740666349 0 0 0
1651 391 2 0 -11.399687830805203 -8.919906462582835 -15.260232507573956 0 0 0
1855 459 2 0 -11.799381100573605 -8.026988644457678 -16.231951028753365 0 0 0
1857 459 4 0 -11.307284290761377 -7.853874864362285 -16.22627581560438 0 0 0
1653 391 4 0 -10.927115222047304 -8.958362956942974 -15.136563259356363 0 0 0
2447 656 4 0 -10.93115924897236 -7.992856204822521 -16.16858361018029 0 0 0
3000 840 4 0 -6.455574188876279 -8.717043331218575 -16.32446600337405 0 0 0
3371 964 4 0 -6.22212714420508 -8.399436438215687 -16.389673915017113 0 0 0
3370 964 2 0 -6.062010008673578 -7.980495081939087 -16.12820914737376 0 0 0
8219 2580 4 0 -1.648435638064278 -7.611911568763127 -15.494332356868261 0 0 1
6942 2154 4 0 -2.033932372698859 -7.488909752865505 -15.518938196181528 0 0 1
3672 1064 4 0 -0.34789667068038516 -8.025930036724851 -15.421242866609278 0 0 0
8218 2580 2 0 -1.1937173188896018 -7.766746489415498 -15.524055806963368 0 0 1
8220 2580 4 0 -0.7080207905940453 -7.9358500980566395 -15.552916235822252 0 0 1
2036 519 4 0 -0.431223694013046 -8.008190615932397 -15.820320663574869 0 0 0
3670 1064 2 0 0.01183237884603974 -8.278358864126481 -15.142519246161935 0 0 0
2035 519 2 0 -0.09368254526119145 -7.8033920214533925 -16.158403539451555 0 0 0
7827 2449 4 0 2.660004536354839 -7.688336668087337 -15.237693447439504 0 0 1
7825 2449 2 0 2.90203257526565 -7.812486857481657 -15.702666626369258 0 0 1
7721 2414 4 0 3.409562511918119 -7.8844291035179435 -16.457697087693347 0 0 1
7826 2449 4 0 3.140272631231316 -7.932221300884002 -16.161475030920474 0 0 1
2428 650 2 0 5.765453555182313 -9.171753048182778 -16.242088418111848 0 0 0
2443 655 2 0 5.003424778861191 -8.799502288966947 -15.216092389192978 0 0 0
2430 650 4 0 5.5107950309611 -9.020600826569705 -15.851697769947453 0 0 0
2444 655 4 0 5.347180614933405 -8.811861532086663 -15.553919320773945 0 0 0
2916 812 4 0 5.398091402658811 -8.633922573755115 -15.89977105808701 0 0 0
2914 812 2 0 5.169752933249556 -8.269500401590676 -16.1843665387598 0 0 0
2158 560 2 0 8.544280274818863 -8.987361724509244 -15.983216462808386 0 0 0
2159 560 4 0 8.794913791165873 -8.681182578740666 -15.655535087743255 0 0 0
2464 662 2 0 8.790129619954685 -7.8748176379858235 -15.260782722246208 0 0 0
2465 662 4 0 8.775675924551669 -8.359743016803227 -15.440400406584825 0 0 0
1640 387 4 0 8.95464188930476 -8.70698578940402 -15.309415792740458 0 0 0
1639 387 2 0 9.024552982977342 -8.948069117538331 -14.91409687594407 0 0 0
2049 523 4 0 9.136405115331977 -8.496964742958554 -15.569919517033487 0 0 0
2048 523 4 0 9.987164358942053 -8.330703524594988 -16.08039593164637 0 0 0
2047 523 2 0 9.564483666433775 -8.410087919192513 -15.830714951318685 0 0 0
7476 2332 4 0 10.242379841889967 -8.225139568378587 -15.796783228632206 0 0 1
7474 2332 2 0 10.576654617030618 -8.23335542797504 -15.408008571952674 0 0 1
3550 1024 2 0 11.710938244114859 -8.57343783221011 -15.26683088183442 0 0 0
7475 2332 4 0 10.894785545785258 -8.234412365183827 -15.026979002332176 0 0 1
3552 1024 4 0 11.261973636282827 -8.362049173923115 -15.088973279466954 0 0 0
1797 439 4 0 12.293323041354517 -9.132576062261123 -15.353625618676707 0 0 0
1795 439 2 0 12.763645382977945 -9.038655023517299 -15.266287007583616 0 0 0
2767 763 2 0 -11.053830224337318 -6.292848569632118 -16.416135055482506 0 0 0
2769 763 4 0 -10.820082858634928 -6.776863987066467 -16.424014905807436 0 0 0
2446 656 2 0 -10.74863720199786 -7.5611194431589865 -16.28539950104182 0 0 0
2448 656 4 0 -10.547134860691912 -7.0759365998512305 -16.404275406250292 0 0 0
2071 531 2 0 -7.535369204177616 -6.169001553451066 -16.5584252976075 0 0 0
1931 484 4 0 -6.780440245828112 -6.6093686442132435 -16.345742683632935 0 0 0
2073 531 4 0 -7.111400500871594 -6.435061027767434 -16.470675502185383 0 0 0
1930 484 2 0 -6.391781748195722 -6.890185233154793 -16.131948764782166 0 0 0
1932 484 4 0 -6.017229409617847 -7.171770714067423 -15.91877131419826 0 0 0
1771 431 2 0 11.960384915360496 -0.0511283834932438 -8.497090972116617 0 0 0
3372 964 4 0 -5.901875357113736 -7.5579573227599965 -15.863693244693987 0 0 0
3573 1031 4 0 -5.9267129047570615 -7.321046491162431 -15.552001491149754 0 0 0
3590 1037 4 0 -5.620142934495332 -7.293298218503739 -15.831023128221373 0 0 0
3589 1037 2 0 -5.191248062462016 -7.142262308404864 -15.589767158146893 0 0 0
3591 1037 4 0 -4.736101364059093 -6.991237970122784 -15.339588756883742 0 0 0
2042 521 4 0 -4.541869220583634 -6.8556485062433765 -15.014692284831202 0 0 0
1445 322 4 0 -4.337329036500006 -7.070924641377178 -15.305531731594407 0 0 0
1444 322 2 0 -3.8197573846331596 -6.986046433943808 -15.264860850749084 0 0 0
1446 322 4 0 -3.315017013832205 -6.902553616324305 -15.23445533119615 0 0 0
6473 1998 4 0 -3.1220078530181308 -6.581526596297567 -15.392050074709811 0 0 1
6941 2154 4 0 -2.926158343113863 -6.951672594994153 -15.336667988154629 0 0 1
6940 2154 2 0 -2.4871056845828243 -7.216136442565037 -15.43186384772356 0 0 1
2037 519 4 0 0.22480225278948715 -7.60880022502269 -16.4660122376898 0 0 0
7222 2248 2 0 0.488600431512289 -6.8435042994118005 -16.084462680089064 0 0 1
2646 722 4 0 0.7764680164410926 -6.58917468792391 -15.384906817297304 0 0 0
2644 722 2 0 0.9091351037401109 -6.959809331358565 -15.037563162855221 0 0 0
7223 2248 4 0 0.6485672885021405 -6.487906550177769 -15.761770861850687 0 0 1
2780 767 4 0 0.9645909134749479 -6.30806757003664 -15.609685178143012 0 0 0
2231 584 4 0 0.6181782913776797 -6.252831492649778 -15.441652295040928 0 0 0
7224 2248 4 0 0.3248345598711386 -7.212087976545978 -16.414519477188207 0 0 1
2779 767 2 0 1.3360970687453364 -6.16940576450511 -15.918420579206611 0 0 0
3529 1017 2 0 2.2371180767294883 -6.231144314760637 -16.5594482358048 0 0 0
3531 1017 4 0 1.8493360604575138 -6.397596324546414 -16.335197524367125 0 0 0
154 31 3 0 4.835564232766132 -6.731914031296318 -16.546275638235798 0 0 0
1650 390 4 0 8.318598048851722 -6.831902895730826 -16.088063116931142 0 0 0
1648 390 2 0 8.47979938661236 -6.9298177425727765 -15.610489368728519 0 0 0
1649 390 4 0 8.653205245257375 -7.038031902768566 -15.12617827447066 0 0 0
1774 432 2 0 13.490187610490677 -5.931681198420497 -15.406062912580968 0 0 0
1776 432 4 0 13.721635256227776 -5.8205423490331185 -15.819953993373218 0 0 0
2310 610 4 0 -12.11979635121057 -5.317820509008195 -15.141519846169992 0 0 0
1359 293 4 0 -12.088327614514572 -5.3524736600674805 -15.54389705001091 0 0 0
2768 763 4 0 -11.272975382098991 -5.849800938813303 -16.41698564070083 0 0 0
1357 293 2 0 -11.779389435120136 -5.430921970905824 -15.915810566592812 0 0 0
1358 293 4 0 -11.459459054306896 -5.531976049738621 -16.297437890846012 0 0 0
9443 2988 4 0 2.3975328516774312 -16.440433794525976 -9.186137436832288 0 1 0
2592 704 4 0 -11.066479575497784 -5.541551209538302 -16.268308438728848 0 0 0
9231 2917 4 0 7.739815127825089 -16.292856837724724 -10.690019223894982 0 1 0
2590 704 2 0 -10.65740408827989 -5.358621920864452 -15.985604003498446 0 0 0
1662 394 4 0 -9.87181710717906 -5.084685869315306 -15.744329969669346 0 0 0
2591 704 4 0 -10.257912385319708 -5.1792232548293615 -15.71595639944285 0 0 0
1660 394 2 0 -9.544092204018137 -5.43592222709446 -15.603454623387222 0 0 0
1661 394 4 0 -9.204223505848807 -5.7890182539337935 -15.466004495748166 0 0 0
3344 955 4 0 -8.971771954988194 -5.826346550127758 -15.763943642742397 0 0 0
3343 955 2 0 -8.620381096379075 -5.793186993232243 -16.100394144859244 0 0 0
3345 955 4 0 -8.256095844478283 -5.750020578897092 -16.4532926145625 0 0 0
2301 607 4 0 -0.559228411220198 -5.845226262795645 -15.06865801390815 0 0 0
2230 584 2 0 0.22725130584684453 -5.983520936142857 -15.257192495381648 0 0 0
2781 767 4 0 1.711037313735372 -6.038589904180941 -16.227317877029463 0 0 0
3207 909 4 0 4.056587076322878 -4.554133849449834 -16.159489358000666 0 0 0
3205 909 2 0 3.904258284136839 -5.023927105608803 -16.28023567790384 0 0 0
2351 624 4 0 13.947538121335224 -5.760940250843558 -16.1173698250984 0 0 0
7672 2398 2 0 2.611586592196889 -3.707349531944647 -16.08296215846481 0 0 1
7673 2398 4 0 2.914846277559164 -3.7493114381185197 -15.689902676408149 0 0 1
1827 449 4 0 2.9218681764678887 -3.7433346454405703 -15.298919349334534 0 0 0
1825 449 2 0 2.664010912140452 -3.5113093524303145 -14.950282107324709 0 0 0
2925 815 4 0 4.0091374215122935 -4.2285030195337985 -15.972814256695148 0 0 0
2196 572 4 0 4.249218904089563 -4.236814444333354 -16.317996317920556 0 0 0
2923 815 2 0 3.615000091319789 -4.083105592356779 -15.755338971112081 0 0 0
2924 815 4 0 3.2145988058285866 -3.9302400671775577 -15.53234921899997 0 0 0
8404 2642 2 0 -12.771555119888054 -2.4897748912031923 -16.42214696030324 0 0 1
8406 2642 4 0 -12.2525435092966 -2.4910364423084914 -16.46598012277154 0 0 1
8405 2642 4 0 -13.256437334357463 -2.492832673719051 -16.38802792339417 0 0 1
1911 477 4 0 -11.9976350814259 -2.163745391907107 -16.351090797602993 0 0 0
2154 558 4 0 -6.880118031525349 -2.3482655312932885 -16.0879241069136 0 0 0
2613 711 4 0 -6.723144566665885 -2.3611223547132116 -16.464650484615934 0 0 0
3080 867 4 0 -6.935003093807698 -2.042459322405165 -16.358049657471483 0 0 0
2152 558 2 0 -7.041761203211455 -2.3267662489246073 -15.600359035794225 0 0 0
2153 558 4 0 -7.208446646403742 -2.2960096343225227 -15.116939810107146 0 0 0
1765 429 2 0 1.0355600414663924 -1.9669591034051555 -15.156814518202674 0 0 0
1767 429 4 0 1.3807687102817205 -2.161734465010985 -15.478608381713501 0 0 0
10568 3363 4 0 0.6371346270251151 -1.4951565470660078 -14.580956369354832 0 0 0
3488 1003 4 0 1.3340853933308834 -2.7256859731491025 -16.521931705992074 0 0 0
3489 1003 4 0 1.6669131375036292 -2.3487551534559157 -15.672714751312425 0 0 0
1703 408 4 0 1.5641761654459063 -2.4789813759867703 -15.29538637276577 0 0 0
3487 1003 2 0 1.4939210545573178 -2.5302918257560685 -16.096690621181263 0 0 0
1636 386 2 0 5.73607622907814 -1.9321567224319116 -16.221578570406084 0 0 0
1637 386 4 0 5.564281646224701 -2.253619687015055 -16.56388360715829 0 0 0
1638 386 4 0 5.915088182201492 -1.6039283030518332 -15.865004758030022 0 0 0
3452 991 4 0 5.612650482488459 -1.4879671692648904 -15.662872374235045 0 0 0
9486 3002 4 0 7.408340403786963 -16.47954492222218 -10.545240035809256 0 1 0
2364 628 4 0 7.152838675248285 -1.6007402335407805 -15.517372267567474 0 0 0
6292 1938 2 0 7.209880946885966 -1.8467641491083233 -16.316284132283442 0 0 1
2362 628 2 0 7.495160797689876 -1.6080348203043209 -15.126158510600286 0 0 0
6294 1938 4 0 7.017475847124765 -1.7640023293454234 -15.853087061230415 0 0 1
60 12 3 0 6.8186553011235596 -1.4530178000489116 -15.670745194996663 0 0 0
1224 248 4 0 8.970108326341034 -1.6844485504907736 -14.991445667446094 0 0 0
2191 571 2 0 9.72982676983815 -1.7750539991649805 -15.10475985593284 0 0 0
2192 571 4 0 9.268184335006536 -1.901049490091357 -15.12657809859019 0 0 0
2193 571 4 0 10.216491030741604 -1.6402162936098699 -15.095687095519095 0 0 0
3557 1026 4 0 10.608944675374744 -1.6241685539077013 -15.205224286761181 0 0 0
2655 725 4 0 -8.403218724821311 -0.1753874690457831 -15.753091652901 0 0 0
3009 843 4 0 -8.535321095995949 -0.5473471928664251 -15.691749727274978 0 0 0
8957 2826 4 0 -8.155990539874303 -0.5011722306738251 -15.734232705408267 0 0 0
3007 843 2 0 -8.7865314856861 -0.7749861008552806 -16.11412723185575 0 0 0
1253 258 4 0 -8.359822049970365 -0.36334062600679035 -15.399438941094251 0 0 0
8956 2826 2 0 -7.718389776122734 -0.608141793427451 -15.970069514052215 0 0 0
1252 258 2 0 -8.25615303535508 -0.7210413148947815 -15.029932886562571 0 0 0
3079 867 2 0 -7.028470674659976 -1.5318119774934331 -16.35651710490435 0 0 0
8958 2826 4 0 -7.2845338739026575 -0.7222146820776623 -16.193063589044893 0 0 0
9372 2964 4 0 -6.91183212476395 -0.7685186703099218 -16.12083456980917 0 0 0
3081 867 4 0 -7.117338188709698 -1.042160038316279 -16.334624967925127 0 0 0
9370 2964 2 0 -6.556789687265979 -0.5800758858515578 -15.821219535082513 0 0 0
9371 2964 4 0 -6.205878679826449 -0.39885313081093016 -15.523981177439646 0 0 0
2594 705 4 0 -6.150958298340808 -0.5010597058523272 -15.156602254244245 0 0 0
9602 3041 4 0 -5.967090288593529 -0.1681802490647059 -15.273037857206182 0 0 0
2593 705 2 0 -6.025431578642572 -0.8954349659177636 -14.837807474301624 0 0 0
10569 3363 4 0 0.4411620864688994 -0.5392760695325551 -14.897526266087064 0 0 0
10567 3363 2 0 0.5442181233535605 -1.0226640413976131 -14.737411618424538 0 0 0
3451 991 2 0 5.363955094408647 -1.1745953278303538 -15.34062437380311 0 0 0
58 12 3 0 6.0093207621111615 -1.3822679815002998 -15.564476457262904 0 0 0
8718 2746 4 0 6.401061685363112 -0.3716997589734887 -15.480105768812138 0 0 0
59 12 3 0 6.372274788932173 -1.008590527670904 -16.237808595535995 0 0 0
57 12 3 0 6.4979386381443955 -0.7455724133128251 -15.46697993734574 0 0 0
56 12 1 0 6.426097411050009 -1.144578789748349 -15.730011017357215 0 0 0
9311 2944 4 0 6.79165619926103 -0.46978540984941886 -15.444212508783423 0 0 0
3556 1026 2 0 10.740592324348299 -1.1766269812334216 -14.996997618494778 0 0 0
9921 3147 4 0 -15.800450200285768 -15.421862485753275 -14.985047673898517 1 1 0
9806 3109 4 0 -15.532838128583712 -15.300891988500716 -14.724120065382085 1 1 0
9805 3109 2 0 -15.221169539981268 -15.690101971954867 -14.563598573631323 1 1 0
9569 3030 4 0 -13.701600413457573 -16.24301865176657 -15.000712462773162 0 1 0
9807 3109 4 0 -14.936541917515475 -16.04807250322312 -14.433327185575259 1 1 0
9568 3030 2 0 -14.148878517010981 -16.21844309297213 -14.788013587272452 0 1 0
9570 3030 4 0 -14.601476124982023 -16.198964445359547 -14.581816876216596 0 1 0
8643 2721 4 0 16.330343778606892 -1.057196860466978 -6.5455737398686935 0 0 0
2882 801 4 0 -8.22686537713531 -15.787055476972665 -14.696429518583654 0 0 0
2109 543 4 0 -8.371920769053261 -15.427282057390942 -14.570461362161728 0 0 0
1927 483 2 0 -6.12162106642263 -15.611740463873256 -13.684849721232387 0 0 0
1929 483 4 0 -6.0931425419273655 -16.085471250700046 -13.6190334514107 0 0 0
8946 2822 4 0 -6.181309679112909 -16.47530081284324 -13.5732837255408 0 1 0
8136 2552 4 0 2.6397366055262834 -15.786741732058333 -14.856881770984378 0 0 1
8134 2552 2 0 3.05878954510948 -15.459306038333834 -14.896460475819094 0 0 1
14594 4705 4 0 2.4417702861018653 -16.100016848796397 -14.988009240077934 0 1 1
6440 1987 4 0 2.3114526500570336 -15.905960262579375 -14.67225247982228 0 0 1
6439 1987 2 0 2.4233008053534184 -16.063117015662908 -14.19890514441028 0 0 1
6441 1987 4 0 2.536814378439586 -16.216289461776924 -13.721653046366422 0 0 1
2485 669 2 0 4.180222841234593 -15.32110345282034 -14.74345011725329 0 0 0
2487 669 4 0 4.550312399574106 -15.621305671844027 -14.536026146329682 0 0 0
10004 3175 4 0 4.671717930452318 -15.643642855083142 -14.167245976838796 0 1 0
3299 940 4 0 4.927147147868953 -15.539526535795991 -14.451057602282837 0 0 0
10003 3175 2 0 4.722699834628794 -16.052033314094015 -13.867361238062923 0 1 0
3298 940 2 0 5.1939070386719255 -15.074569546058452 -14.389660978864276 0 0 0
10005 3175 4 0 4.779398431586144 -16.466604314615743 -13.564254075032107 0 1 0
755 151 3 0 11.996187681607628 -16.15584933654077 -13.616468611435197 0 1 0
10441 3321 2 0 13.172223962361654 -16.115214660747565 -15.00455427891041 0 1 0
10306 3276 2 0 13.12429483279936 -16.304679910174833 -13.682306014744146 0 1 0
10443 3321 4 0 13.242106234188112 -16.32128225885634 -14.551976025218446 0 1 0
10308 3276 4 0 13.268600999889596 -16.288548215856956 -14.161477211820149 0 1 0
2997 839 4 0 13.510269591876863 -16.544853155392435 -14.353727839005293 0 0 0
742 149 3 0 -15.30510356989371 -14.471359872477175 -14.897549536109878 1 1 0
2107 543 2 0 -8.239924584654897 -15.037237177129464 -14.867684410122902 0 0 0
1928 483 4 0 -6.14003682104251 -15.133406708020152 -13.749968348974173 0 0 0
8763 2761 4 0 -6.33445883477199 -14.810604427991088 -13.85614110569722 0 1 0
8762 2761 4 0 -6.905412461028901 -14.360552637776564 -14.541232459827919 0 1 0
8761 2761 2 0 -6.626871209746178 -14.587458220223466 -14.208658138420017 0 1 0
2438 653 4 0 -6.187632526503434 -14.84185022995122 -13.499854969573034 0 0 0
175 35 3 0 -0.4970430797358821 -14.088530997911649 -15.04239191580076 0 0 0
174 35 3 0 0.22391924914347258 -13.916745314933229 -14.700767480444064 0 0 0
2229 583 4 0 0.6014055034466984 -14.077060402975404 -14.632206795262332 0 0 0
2228 583 4 0 1.239627559843309 -14.525127644470135 -13.964204804384115 0 0 0
2227 583 2 0 0.9326648654071881 -14.3089539674785 -14.282416651641189 0 0 0
1263 261 4 0 0.44887341942209 -13.798469750259438 -14.408619981560678 0 0 0