LAMMPS data file via write_data, version 29 Aug 2024, timestep = 100000, units = lj

664 atoms
4 atom types
476 bonds
1 bond types
438 angles
2 angle types

-4.496439 4.496439 xlo xhi
-4.496439 4.496439 ylo yhi
-4.496439 4.496439 zlo zhi
0 0 0 xy xz yz

Masses

1 1
2 1
3 0.1
4 0.1

Bond Coeffs # harmonic/omp

1 100 0.45

Angle Coeffs # harmonic/omp

1 100 180
2 100 109.471

Atoms # full

59 12 3 0 -3.364648938905381 -1.5989050535366038 -4.333132907984315 1 0 1
318 73 4 0 -3.408679993521999 -1.6299449911028372 -3.94575735656887 1 0 1
317 73 2 0 -3.527945899418827 -1.9730979947250686 -3.643880879949848 1 0 1
319 73 4 0 -3.638640457089523 -2.2993774934120226 -3.3600124066276713 1 0 1
282 61 4 0 -3.1422429270524717 -1.3886429503626827 -4.059897509523627 1 0 0
281 61 2 0 -2.822175700560793 -1.1361130538871769 -3.829549044430074 1 0 0
283 61 4 0 -2.511903551754243 -0.899133967470501 -3.607130182384302 1 0 0
347 83 2 0 -1.6684597255443823 -0.9842151871634304 -3.580196124102638 1 0 1
255 52 4 0 -2.309014070678471 -0.631072530456712 -3.3905365195524833 1 0 0
254 52 2 0 -2.305134010254715 -0.24192671722835168 -3.1354469566513856 1 0 0
348 83 4 0 -2.1238329197394186 -0.9180897078146857 -3.623750339612068 1 0 1
265 55 4 0 -0.2964375780771098 -1.378234093028528 -4.307682675672199 1 0 0
349 83 4 0 -1.2332995034454628 -1.0525698628754068 -3.5312446705055778 1 0 1
259 53 4 0 -1.211058258442165 -0.0917354786144644 -3.4144729452855964 1 0 0
18 4 3 0 -0.9301123592957725 -0.9161694106320075 -3.314654171537635 1 0 0
264 55 4 0 -0.8494839999601957 -1.1118493640785605 -3.63776547854824 1 0 0
263 55 2 0 -0.5801360938222513 -1.2464813352248685 -3.96675918856456 1 0 0
397 99 4 0 -0.2009082199958403 -0.28589439169980935 -3.106050921763835 1 0 0
20 4 3 0 -0.9809899185298696 -0.19836493825435664 -3.121865617553365 1 0 0
16 4 1 0 -0.8356925380543552 -0.5988494935838573 -2.973494321433069 1 0 0
17 4 3 0 -0.4021338366219096 -0.5815970919100466 -2.9189756863360485 1 0 0
260 54 2 0 -1.8970352753564428 -0.02860937655233098 -1.2059257207771035 1 0 0
157 32 3 0 -3.3318774526012067 -4.201224349333422 -2.489889425992187 1 0 0
160 32 3 0 -3.6408237257838154 -4.213560532581861 -1.8397650361111988 1 0 0
156 32 1 0 -3.3756412183879387 -4.429465175473467 -2.117958258103373 1 0 0
159 32 3 0 -2.966000629475381 -4.482258099644637 -1.913477853312584 1 0 0
519 140 4 0 -1.843461040795812 -4.097610475084267 -1.9216223977107383 1 0 0
477 126 4 0 -1.533230188952131 -3.8468788883988685 -1.8925424470445242 1 0 0
518 140 2 0 -2.3006496963747294 -4.149416548014493 -1.7914537815698783 1 0 0
520 140 4 0 -2.7560367418974874 -4.212828327322017 -1.6631608961146518 1 0 0
476 126 2 0 -1.1512132061175637 -3.618073503001482 -1.719437070043786 1 0 0
478 126 4 0 -0.7587325487383465 -3.4028641074223565 -1.5359204692728348 1 0 0
14 3 3 0 -1.2711417957437985 -2.197870202164074 -1.5874730838636486 1 0 0
288 63 4 0 -0.8124662100220856 -1.419491480103492 -1.612809398524342 1 0 0
19 4 3 0 -1.0438916898301307 -0.7020882136361619 -2.5987323984272876 1 0 0
289 63 4 0 -0.8288872699980461 -0.756190894870175 -2.2566871809276563 1 0 0
287 63 2 0 -0.8203008298476338 -1.0901518681672528 -1.9433341233257728 1 0 0
297 66 4 0 -0.06734244570871706 -0.3924511931331738 -2.741949549956339 1 0 0
8 2 3 0 -4.2057544934902396 -4.0198560995463035 -0.5376608178999285 1 0 0
10 2 3 0 -4.285742839892395 -3.3021970461522963 -0.7289564742963277 1 0 0
6 2 1 0 -4.081592199681313 -3.6799737902678564 -0.8326232392066721 1 0 0
273 58 4 0 -3.384987299661943 -3.6830837589077294 -0.4449461728744746 1 0 0
164 33 3 0 -3.0487640657519925 -3.7441499331723476 -0.6619534216361185 1 0 0
280 60 4 0 -3.273534653163051 -3.4401163075213463 -0.720422363681366 1 0 0
9 2 3 0 -3.6107581337664065 -3.6180618265181987 -0.8034285451287246 1 0 0
7 2 3 0 -4.208574616982223 -3.7921880879281664 -1.299215404699083 1 0 0
278 60 2 0 -3.112157759365176 -2.9850449673027337 -0.7534007960497195 1 0 0
163 33 3 0 -2.7668418704558686 -4.421302973338486 -0.6602637391270632 1 0 0
161 33 1 0 -2.715286564896492 -4.011808832641009 -0.8186766937678502 1 0 0
165 33 3 0 -2.7253966369607157 -4.037892765838219 -1.2881659251096318 1 0 0
162 33 3 0 -2.285557586810807 -3.8338010894026944 -0.6763362138011897 1 0 0
553 151 4 0 -1.994174769050149 -3.699564429260526 -0.4442574550122327 1 0 0
551 151 2 0 -1.7813735040320284 -3.3911871092091355 -0.13725348765970313 1 0 0
334 78 4 0 -0.4501060306189615 -3.3148403167299705 -1.3016003281253545 0 0 0
332 78 2 0 -0.06147867525424999 -3.174342639856682 -1.1141588775985904 0 0 0
5 1 3 0 -3.0562144964771543 -2.320341269703143 -0.4218848467267673 1 0 0
2 1 3 0 -3.5280121508928874 -1.8203855449788966 -0.16048676676945028 1 0 0
279 60 4 0 -2.9695491312063593 -2.5370067505617317 -0.7839402240565225 1 0 0
508 136 4 0 -2.678766563901803 -2.3379368888659915 -0.6097618178556186 1 0 0
506 136 2 0 -2.283280182591523 -2.16478785206238 -0.7220994372479312 1 0 0
507 136 4 0 -1.8871360534030606 -1.990868676165353 -0.8203416159783394 1 0 0
271 57 4 0 -1.5637227394391098 -1.7600146335612155 -0.704206783597944 1 0 0
12 3 3 0 -1.6528158314427945 -1.8007198546103513 -1.086345054343643 1 0 0
504 135 4 0 -1.312763155886612 -2.0721292340967885 -0.6036286694248965 1 0 0
503 135 2 0 -1.3395343177233778 -2.426087852408525 -0.2578000279659447 1 0 0
11 3 1 0 -1.2263726508694082 -1.9657308345041553 -1.2315040253423861 1 0 0
13 3 3 0 -1.047819585588723 -2.2375201486829304 -0.8937514024894124 1 0 0
15 3 3 0 -0.9435652920294926 -1.6116363746866131 -1.306400416086814 1 0 0
49 10 3 0 -2.4127269164269936 -0.39650840099851425 -0.6643728865349714 1 0 0
262 54 4 0 -2.1442767794800983 -0.34204846889023166 -0.9515876525180045 1 0 0
46 10 1 0 -2.214908733172165 -0.4766935487305668 -0.27389440587735514 1 0 0
50 10 3 0 -1.9354366092962243 -0.13680766234050967 -0.17189965277184527 1 0 0
48 10 3 0 -1.9706974222814537 -0.8877299048083622 -0.2940806549199282 1 0 0
270 57 4 0 -1.552968270754854 -0.8660722023941991 -0.3054958163173369 1 0 0
269 57 2 0 -1.5585929814878017 -1.3148888723466499 -0.5021777889641346 1 0 0
524 142 2 0 -0.25263833953277004 -1.3301892376367377 -1.0508773380813072 1 0 1
525 142 4 0 -0.6050381437799506 -1.4539582217907459 -1.2553957859592493 1 0 1
110 22 3 0 -0.754536892561251 -0.13094690737144088 -0.6780294239387556 1 0 0
285 62 4 0 -0.4531125692251514 -0.08637352892155636 -0.9792789514989568 1 0 0
284 62 2 0 -0.06805883937264134 -0.20474874711823698 -1.197831863468381 1 0 0
106 22 1 0 -0.8674313567825358 -0.4146866946761829 -0.31838174114967366 1 0 0
108 22 3 0 -1.2970849629184622 -0.5728812173243014 -0.38846629082296147 1 0 0
107 22 3 0 -0.5836215159335816 -0.756509961912303 -0.31026299112989886 1 0 0
465 122 4 0 -4.4186148367618125 -0.3238704494461029 -0.9228231259251474 2 0 0
1 1 1 0 -3.279608435327301 -2.1556895777694147 -0.044529704941692394 1 0 0
300 67 4 0 -2.2132745662040474 -1.099236883106248 -0.02912950654754276 1 0 0
544 148 4 0 -3.032563126668638 -3.584650426975966 0.6623202261183732 1 0 0
213 43 3 0 -3.1516389670031097 -3.977467774407577 0.6129786984635848 2 1 0
274 58 4 0 -3.374177095917929 -3.701269254503666 0.517120725412612 1 0 0
272 58 2 0 -3.3755268198268222 -3.6950110136184082 0.03283137241385692 1 0 0
42 9 3 0 -3.3440252931653003 -3.52375199634849 0.8893789653347959 1 0 0
211 43 1 0 -3.256767791448044 -4.302275387887417 0.9359300719665358 2 1 0
212 43 3 0 -3.587203323891236 -4.126755255886324 1.2376825044483022 2 1 0
41 9 1 0 -3.769384391056196 -3.3119431162419652 0.9509072076239375 1 0 0
663 188 4 0 -3.9201572188307674 -3.947153041226885 1.0881862179120452 2 1 0
43 9 3 0 -4.093139314818405 -3.6296675606513187 0.9650028387867087 1 0 0
45 9 3 0 -3.8426677083099974 -3.022092810618319 0.6010982429192921 1 0 0
662 188 2 0 -4.269935344593341 -4.212280574057332 1.2626595425386853 2 1 0
44 9 3 0 -3.7802746059494536 -3.0679645897870893 1.3630501172928815 1 0 0
214 43 3 0 -2.8708647115444395 -4.421880713636995 1.182479008882627 2 1 0
542 148 2 0 -2.6725648420561066 -3.3183077724030183 0.8187263977711696 1 0 0
543 148 4 0 -2.3138192741039476 -3.061760480079176 0.9492738964002205 1 0 0
552 151 4 0 -1.5700713718697838 -3.0808065268377427 0.16378450176493242 1 0 0
648 183 4 0 -2.4541880507247233 -4.213841418192342 1.2906936602721268 2 1 0
473 125 2 0 -0.7729494221161417 -3.0816947108080006 0.3752665890035072 1 0 0
475 125 4 0 -0.3071710226012687 -3.1341232687154763 0.4377476607433044 1 0 0
474 125 4 0 -1.2181396609414232 -3.0320313035143713 0.3165312439484378 1 0 0
4 1 3 0 -3.549211992835528 -2.495611416203045 0.1283038888171113 1 0 0
268 56 4 0 -3.805489387373879 -2.753359524259395 0.32771276140526684 1 0 0
534 145 4 0 -0.24980908756312825 -1.4233949515517677 4.28384655868492 1 0 0
266 56 2 0 -4.232356480457765 -2.6902183607233265 0.14952754804601742 1 0 0
3 1 3 0 -2.964118063282339 -2.0156098987680555 0.27510466286982727 1 0 0
301 67 4 0 -2.715618510691652 -1.7324819764138848 0.4385275259969408 1 0 0
179 36 3 0 -1.9923248634662696 -2.8357977642629115 1.0268573550050029 1 0 0
180 36 3 0 -1.8397973771549139 -2.1442440726495544 0.7454989001627279 1 0 0
176 36 1 0 -1.6654778142185762 -2.5596117032632613 0.8420138554305243 1 0 0
178 36 3 0 -1.5023209022843762 -2.771983357218132 0.4302132556019638 1 0 0
505 135 4 0 -1.3585076911654737 -2.7628504181156326 0.07005806396967351 1 0 0
153 31 3 0 -0.06272446513128571 -2.797891097848149 0.36748015925947186 1 0 0
177 36 3 0 -1.3075538810869674 -2.509045197740721 1.1457227089857094 1 0 0
471 124 4 0 -1.0550108133711773 -2.2453930942211757 1.3390454079612795 1 0 0
470 124 2 0 -0.6196725053570251 -2.4260259366346246 1.262884645770157 1 0 0
472 124 4 0 -0.21296953712322608 -2.611699833531114 1.2035381019803895 1 0 0
345 82 4 0 -0.38290782232636644 -0.1235729643205099 3.0663624101347216 1 0 0
183 37 3 0 -4.102481495618108 -1.6021819094542917 1.312504217929722 2 0 0
416 106 2 0 -3.251612461151907 -0.5997211770189614 0.6032514060720828 1 0 0
418 106 4 0 -3.61223901155561 -0.6852512174761554 0.8441450492275795 1 0 0
182 37 3 0 -3.7840244102454927 -1.051879162875553 0.9541722440234617 2 0 0
181 37 1 0 -4.164095379350009 -1.198604998387133 1.1128981721944946 2 0 0
184 37 3 0 -4.325745156882853 -0.9125379538663307 1.4134729007531437 2 0 0
185 37 3 0 -4.460969612183316 -1.2395552910406762 0.7740993886240615 2 0 0
299 67 2 0 -2.467626363957762 -1.419239985954031 0.21920316514928473 1 0 0
417 106 4 0 -2.8759758269883986 -0.5144284010713251 0.35092328238648296 1 0 0
47 10 3 0 -2.555308575018726 -0.5125129423378265 0.07363407227814278 1 0 0
312 71 4 0 -2.5022670869420236 -0.44151336511413675 0.4577957756413875 1 0 0
311 71 2 0 -2.164498018638865 -0.3391245924020092 0.7591834700316591 1 0 0
313 71 4 0 -1.8309550063784115 -0.23467110212385833 1.0613029809624859 1 0 0
331 77 4 0 -1.6150653775101427 -0.2607800823970452 1.3893913644785911 1 0 0
328 76 4 0 -2.509653651708381 -0.2934066439923999 3.932176525766539 1 0 0
173 35 3 0 -0.584094536246095 -1.2518441637900417 1.3794171455653963 1 0 0
601 167 4 0 -0.3721250149785913 -0.8758882693565084 1.3081720121958353 1 0 0
599 167 2 0 -0.006197497524991213 -0.7074311037840655 1.0386370584060653 1 0 0
400 100 4 0 -0.7780963271700294 -0.05783854642346942 0.4467997868177065 1 0 0
398 100 2 0 -1.1176536525101692 -0.06681844593723962 0.7451170157638467 1 0 0
399 100 4 0 -1.4689163720350353 -0.07667258907897878 1.0594188391159642 1 0 0
109 22 3 0 -0.852869706563935 -0.183879817192234 0.07290387481904403 1 0 0
342 81 4 0 -4.044700940641562 -2.9847275748569397 1.6479916487264559 1 0 0
341 81 2 0 -4.339891451848658 -3.181089616591975 1.9342384328417062 1 0 0
649 183 4 0 -1.6516786298301387 -3.817204057359099 1.4966791295929722 2 1 0
647 183 2 0 -2.051994462513256 -4.014196062256939 1.394867373642425 2 1 0
556 152 4 0 -1.312780251488261 -3.6974769424406904 1.6682909534771566 1 0 0
554 152 2 0 -0.8674622201689739 -3.5184109018124654 1.7359905725437432 1 0 0
555 152 4 0 -0.43457344944615084 -3.346664236819076 1.7909115378471707 1 0 0
199 40 3 0 -0.11522689388834984 -3.1276915698478374 1.96598592847102 1 0 0
561 154 4 0 -3.8820620074949783 -2.0289112911324754 2.9358623936347845 2 0 0
567 156 4 0 -3.9117795527162165 -1.83538440965224 2.590512284933456 2 0 0
310 70 4 0 -4.201538040229159 -2.0728237375852236 2.7543363471207334 1 0 0
566 156 2 0 -3.964800674563412 -1.8127207653742134 2.0925926702957627 2 0 0
568 156 4 0 -4.005504240924593 -1.7971929315492159 1.6435975500765219 2 0 0
172 35 3 0 -0.9119546449118863 -1.910463075180584 1.5642142315167895 1 0 0
527 143 2 0 -0.3196744147298327 -1.6901460929775403 2.804096520065065 1 0 0
175 35 3 0 -0.464034452085591 -1.505984472432563 2.0468959209908757 1 0 0
435 112 4 0 -3.5609496819904995 -0.32287173993937923 2.947023684913394 1 0 0
536 146 2 0 -4.212158485253316 -0.8247137241620561 2.8672394091225195 2 0 0
329 77 2 0 -1.4189608771437872 -0.5502430680722288 1.6856603660268226 1 0 0
330 77 4 0 -1.2280379655917706 -0.8443696351909011 1.973995917698634 1 0 0
137 28 3 0 -0.9859357301802336 -0.6532804149233882 2.282800638218119 1 0 0
174 35 3 0 -1.1391140098454402 -1.2265815900290815 1.865520589580819 1 0 0
171 35 1 0 -0.7682425041840006 -1.4653660786319995 1.7157728171166653 1 0 0
136 28 1 0 -0.5733395345600591 -0.5999003039239903 2.4644342576582323 1 0 0
139 28 3 0 -0.6052008541744809 -0.4151923304672964 2.862860797307806 1 0 0
140 28 3 0 -0.3653498873915879 -1.004901351177847 2.49730101018565 1 0 0
138 28 3 0 -0.3271207151213895 -0.3272917004965423 2.1948674419101097 1 0 0
528 143 4 0 -0.40095937363976564 -1.4044076270564938 2.4352097756756335 1 0 0
546 149 4 0 -0.19757204156952302 -1.1868498728798471 2.158048680935491 1 0 0
316 72 4 0 -4.276607473333523 -2.25249586027361 4.3557459781003205 1 0 0
57 12 3 0 -3.4154895204387348 -1.6356762877981672 3.92819614570345 1 0 0
560 154 2 0 -3.6234154582334095 -1.7689196718639755 3.2553858417235064 2 0 0
56 12 1 0 -3.647897856218509 -1.5866241208196024 4.324067725997588 1 0 0
58 12 3 0 -3.978233683402236 -1.9364089827974107 4.358956982258362 1 0 0
562 154 4 0 -3.3824054245641864 -1.5306187888327267 3.562961027927069 2 0 0
533 145 2 0 -0.18936745192232074 -1.7042867331507918 3.907758470401874 1 0 0
535 145 4 0 -0.1446523465670193 -1.978481205044603 3.5495916859260292 1 0 0
529 143 4 0 -0.24035657787026743 -1.9636245572906086 3.1605475267562158 1 0 0
253 51 4 0 -3.972861990546468 -0.8443224552975765 4.090591774874043 1 0 -1
537 146 4 0 -3.806901268823074 -0.608728190469626 3.0372651568994664 2 0 0
34 7 3 0 -3.4711740813336793 -0.5529372971144397 3.2710931624502466 1 0 0
33 7 3 0 -3.614494448161899 -0.6074375405440366 4.009107601874589 1 0 0
35 7 3 0 -3.270756591363819 -1.1604523797289366 3.6693349510480457 1 0 0
31 7 1 0 -3.316459219900419 -0.7125153630450325 3.6860997809701948 1 0 0
60 12 3 0 -3.858769154695496 -1.1798846577461504 4.3115881438634736 1 0 0
251 51 2 0 -4.3783790627743135 -0.9089772647893448 3.9343604146436393 1 0 -1
326 76 2 0 -2.1409268339372294 -0.10195837163261245 4.185320773510845 1 0 0
32 7 3 0 -2.875235475987141 -0.4924213988793573 3.792510796444348 1 0 0
457 119 4 0 -2.662392509809287 -0.22299839298625557 3.574655002715132 1 0 0
540 147 4 0 -0.06015205147715541 -1.1366419682066655 4.467206496495867 1 0 0
628 176 4 0 -3.940415275000744 1.3973512234837164 -4.210496725448488 2 0 1
258 53 4 0 -1.5497015979763455 0.2131356279483212 -4.198800897927277 1 0 0
257 53 2 0 -1.3724719262748093 0.05759772232772331 -3.7995340593205933 1 0 0
626 176 2 0 -4.230284910308357 1.4402067909140976 -3.8502405529532537 2 0 1
390 97 4 0 -1.1107101634859133 2.4515002736211287 -1.0715237797556298 1 0 0
372 91 4 0 -2.899870602842867 2.230862386758097 -3.1474046399937943 1 0 0
105 21 3 0 -3.235513716215981 1.1917080412968737 -2.5829230780399053 1 0 0
610 170 4 0 -3.1114156737437533 0.8323677840850809 -1.6104186562957734 2 0 0
101 21 1 0 -3.547064624983866 0.9493716942715329 -2.3367445795104556 1 0 0
103 21 3 0 -3.385344165288995 0.8750035647032615 -1.9165444997405343 1 0 0
104 21 3 0 -3.6145565967659254 0.5510937616447915 -2.543917103390622 1 0 0
102 21 3 0 -3.9517651339333946 1.187985604014993 -2.318496535461199 1 0 0
603 168 4 0 -4.329971676472965 1.1863069121197185 -2.353454932448305 2 0 0
580 160 4 0 -4.1940196703510475 1.4449515948184173 -2.099581046277054 2 0 0
602 168 2 0 -4.477234030557398 1.34363102149464 -2.730340061510258 2 0 0
98 20 3 0 -2.8107000508591655 1.1257486324671078 -1.6341830614875565 1 0 0
99 20 3 0 -2.84757329072263 1.4351175355965191 -2.3447801384939724 1 0 0
96 20 1 0 -2.7338636328613597 1.5125976315285055 -1.891124031743244 1 0 0
376 92 4 0 -2.8562624997324235 1.2157569477386492 -2.671971851168933 1 0 0
374 92 2 0 -2.568298343831131 0.8813916639366743 -2.75362530219547 1 0 0
375 92 4 0 -2.270142943609695 0.5241761130671705 -2.8461015930065643 1 0 0
291 64 4 0 -1.5601574767389446 0.39544816692230533 -1.7948960345022829 1 0 0
290 64 2 0 -1.792497158394509 0.33962723949684115 -2.215389162123171 1 0 0
84 17 3 0 -1.7783959113671357 0.6595744784158981 -1.5426981609112165 1 0 0
292 64 4 0 -2.0202863942195286 0.2811147557728093 -2.629908137704846 1 0 0
256 52 4 0 -2.29465047709761 0.13340060886847382 -2.8831613044262694 1 0 0
30 6 3 0 -1.2675590031152604 0.24687567006336053 -1.5910066678609809 1 0 0
26 6 1 0 -0.8489673507976416 0.3770431983022453 -1.5983056949983743 1 0 0
27 6 3 0 -0.8268162241122119 0.8232362058391587 -1.4781089050125278 1 0 0
28 6 3 0 -0.6901283422618545 0.33768008099171976 -2.0146519882859613 1 0 0
85 17 3 0 -1.1397192196589407 1.0783082753032813 -1.4110230012134966 1 0 0
373 91 4 0 -3.0852537190423526 1.5515753026998151 -2.6108269198603136 1 0 0
371 91 2 0 -2.9911334507033684 1.8981005367356039 -2.8890697330098707 1 0 0
97 20 3 0 -2.979472858728906 1.8348561191702544 -1.7418643325573937 1 0 0
578 160 2 0 -4.1744880482111215 1.4629165459599065 -1.6146808240264656 2 0 0
100 20 3 0 -2.280197416657868 1.6436207466939772 -1.8689710593308497 1 0 0
70 14 3 0 -1.3975699341634091 2.3957890208898878 -0.7727599479159193 1 0 0
391 97 4 0 -0.5831162419143197 2.981033390530336 -1.5555091696620091 1 0 0
158 32 3 0 -3.560114955378909 4.141937355005719 -2.1992581005648466 1 -1 0
463 121 4 0 -3.8668566839695275 3.9264957444162993 -2.3847572621761177 1 -1 0
461 121 2 0 -4.198091889194905 3.655159463027535 -2.5729923405162856 1 -1 0
574 158 4 0 -2.7951882692376513 2.9953245215690325 -1.8267045147163898 2 0 0
585 162 4 0 -2.587461501835988 3.3435479267238053 -1.8973486124858758 2 0 0
584 162 2 0 -2.168745446961279 3.4315397957893614 -2.0716352131083835 2 0 0
586 162 4 0 -1.7335715952085966 3.5295435609960046 -2.256798712975905 2 0 0
495 132 4 0 -1.359376438672427 3.6568302273195483 -2.343254762279769 1 -1 0
494 132 2 0 -1.0365635710391925 3.4184194697888755 -2.115518934960905 1 -1 0
379 93 4 0 -0.4731173608256105 2.8475896586866227 -1.917447040645543 1 0 0
496 132 4 0 -0.7057955587864555 3.1770743937075396 -1.889579267887287 1 -1 0
464 122 2 0 -4.239614701608246 0.11815398455515425 -0.9198674159111913 2 0 0
466 122 4 0 -4.063569848761435 0.5215153025943087 -0.9266518495843803 2 0 0
205 41 3 0 -3.9881230319511634 0.7683178599960234 -0.6576493542598012 2 0 0
608 170 2 0 -3.3948671302667033 0.7415593037488097 -1.2324684850045893 2 0 0
609 170 4 0 -3.681080264243543 0.6646001638702215 -0.8641012894400171 2 0 0
201 41 1 0 -4.176616886541005 1.1792140538842624 -0.5803506033467407 2 0 0
203 41 3 0 -4.418713038292258 1.1583516458866603 -0.2127782161531755 2 0 0
82 17 3 0 -1.834482810726148 1.396943610448787 -1.5113494947158599 1 0 0
261 54 4 0 -1.6517813952514495 0.26669502021483815 -1.4470233071705256 1 0 0
81 17 1 0 -1.6307944806864407 1.0428632690061246 -1.3384901387203336 1 0 0
83 17 3 0 -1.7142632051665112 1.0326297820436992 -0.8801276951456787 1 0 0
204 41 3 0 -4.43545950045646 1.2939467608056736 -0.9174249265174206 2 0 0
401 101 2 0 -0.3189670624532539 1.4684762599900827 -1.4066952168672282 1 0 0
403 101 4 0 -0.7424829660041827 1.1948642665374 -1.382271444689191 1 0 0
576 159 4 0 -1.663004168164274 0.837539373008032 -0.521795887154088 2 0 0
575 159 2 0 -1.551126489246947 1.2202373106688826 -0.2609061497513787 2 0 0
29 6 3 0 -0.6094855396677206 0.1277744577167903 -1.3104008324147456 1 0 0
202 41 3 0 -3.8529873345753924 1.4794632316704641 -0.5341162981382555 2 0 0
579 160 4 0 -4.143469765938317 1.4834879737560858 -1.1215102567207573 2 0 0
583 161 4 0 -3.8683063995123383 1.7260469185376515 -0.8694593276318416 2 0 0
581 161 2 0 -3.555929398419639 2.0412186448655447 -0.8758367572954033 2 0 0
573 158 4 0 -3.0655222987212625 2.6645084737798292 -1.0431974853484078 2 0 0
572 158 2 0 -2.9218551323648168 2.8419812755104754 -1.452658178112852 2 0 0
582 161 4 0 -3.2416974406040433 2.352751155671 -0.887462915938003 2 0 0
607 169 4 0 -2.204291744778159 2.7665586224788417 -0.17695055901803425 2 0 0
606 169 4 0 -2.8959222771817617 2.4510962667215397 -0.7049880515778977 2 0 0
385 95 4 0 -1.9299917987771784 1.7649411944130549 -1.6411946431624092 1 0 0
605 169 2 0 -2.5531945463400034 2.6046823648909845 -0.4418925795214683 2 0 0
383 95 2 0 -1.722072867039084 2.1208631414260983 -1.4084885776049427 1 0 0
384 95 4 0 -1.507936614523489 2.464665281216747 -1.169528331166597 1 0 0
69 14 3 0 -1.8389715652300849 2.593166252913564 -0.17465094462743558 1 0 0
389 97 2 0 -0.8550294707689341 2.71493677568406 -1.310256348552568 1 0 0
67 14 3 0 -1.0889789731522264 2.549557710582582 -0.08964491933335506 1 0 0
68 14 3 0 -1.4916197005800949 1.9263217306571265 -0.17581997089262558 1 0 0
66 14 1 0 -1.4512669932980096 2.3644617669849888 -0.29499128149364306 1 0 0
395 99 2 0 -0.07304943957917232 0.06611301292099458 -3.3928884084502893 1 0 0
577 159 4 0 -1.4571310784408906 1.5416187270654005 -0.030088702385142163 2 0 0
449 117 2 0 -2.598634715161494 1.3240600376413019 1.3038751676883322 1 0 0
415 105 4 0 -1.7415259418077222 0.09879917127319615 1.2991107278630416 1 0 0
451 117 4 0 -2.5990492389606796 1.670570663481441 0.990739739598669 1 0 0
642 181 4 0 -2.3536714779168575 1.8366011742474546 0.7114266108258196 2 0 0
637 179 4 0 -1.9988722183132284 2.7376239038479975 0.15210110262519727 2 0 0
641 181 2 0 -2.0229332836482685 1.8146642277528917 0.432160922355707 2 0 0
643 181 4 0 -1.685858058759767 1.800187328141413 0.13351004626679686 2 0 0
635 179 2 0 -1.9915388151811557 2.9541580760465047 0.5530685676761893 2 0 0
357 86 4 0 -1.2887504996793604 1.7985076410337966 0.1933342526706614 1 0 0
135 27 3 0 -1.5296327656606956 1.6118554100029012 3.1566547236684306 1 0 0
356 86 2 0 -0.935206293355149 1.7521786765761993 0.5235097287491266 1 0 0
358 86 4 0 -0.5876767464348625 1.696793913606096 0.8467486509222093 1 0 0
123 25 3 0 -0.42698998958223733 1.9984029445286238 1.0252162898129749 1 0 0
453 118 4 0 -0.5212898553786776 1.6325933522904394 1.2280759362643208 1 0 0
121 25 1 0 -0.2269009409801077 2.365718269366062 1.195079392503712 1 0 0
125 25 3 0 -0.3469828162260349 2.7425658803187147 0.951996681509792 1 0 0
353 85 2 0 -0.765289351431635 2.9998622648412683 0.49126084827355765 1 0 0
354 85 4 0 -0.9464680197346147 2.926503630871151 0.06796752220464697 1 0 0
132 27 3 0 -1.4041459720704048 2.2761512424948647 3.416044715599683 1 0 0
215 43 3 0 -3.4188597348062193 4.312572323716153 0.7164412988638604 2 0 0
498 133 4 0 -3.715192531983359 4.030348909930203 0.6853548301828711 1 -1 0
497 133 2 0 -4.11553275012588 3.8086467558127888 0.5039491390916604 1 -1 0
636 179 4 0 -1.9817975535916328 3.1669286442448987 0.9420631329569646 2 0 0
511 137 4 0 -1.736180193704488 3.333010772629243 1.1990241682839153 1 -1 0
355 85 4 0 -0.5918299970755756 3.0629282950616084 0.9082294515107021 1 0 0
380 94 2 0 -0.12751161511861575 3.4531617834062267 1.3360557556292312 1 0 0
381 94 4 0 -0.2681522419239206 3.0832083081413293 1.1260201314889624 1 0 0
446 116 2 0 -4.136290109361806 0.6640326767620097 2.0629641401410677 1 0 0
436 112 4 0 -3.4961986695594645 0.4772423720945449 2.4862956188364063 1 0 0
233 47 3 0 -3.272449969075606 0.7489227285383393 2.320814650173843 2 0 0
651 184 4 0 -3.5423258452684725 0.8628104020995035 2.6182847093675923 2 0 0
447 116 4 0 -3.7158236603048223 0.7444525968746794 2.2877008372705294 1 0 0
434 112 2 0 -3.5279404682194846 0.0663239242044984 2.7187391770953377 1 0 0
650 184 2 0 -3.5878381227389538 1.159241634997107 2.977577747978761 2 0 0
450 117 4 0 -2.6035892735853405 0.9844224900028484 1.6064841267892467 1 0 0
413 105 2 0 -2.015263782206126 0.40787267956601614 1.5261655292199565 1 0 0
231 47 1 0 -2.8185745235960136 0.8455537296888469 2.2498149555525275 2 0 0
235 47 3 0 -2.6889083884159093 0.692237216249592 1.846456055197895 2 0 0
414 105 4 0 -2.3027338649565956 0.6998262100847752 1.7406419054318754 1 0 0
232 47 3 0 -2.558834415902006 0.6342898881951715 2.5975628520614666 2 0 0
234 47 3 0 -2.7445670384912013 1.3014657038451407 2.2767323867337383 2 0 0
421 107 4 0 -2.2426855253434823 0.6506804470975549 2.8117319096378903 1 0 0
456 119 4 0 -2.4547409295597538 0.3389098805174733 2.8600897935985135 1 0 0
419 107 2 0 -1.8991646076162065 0.9348521543292456 2.9513835463380778 1 0 0
422 108 2 0 -0.8886580982602021 1.3576483294243138 2.73598701487668 1 0 0
454 118 4 0 -0.41623952448706536 1.277627063072539 2.1216472982920953 1 0 0
424 108 4 0 -0.46956340701132504 1.2775877563757856 2.505623117560524 1 0 0
452 118 2 0 -0.47701340751850996 1.446907090047013 1.6917383525228074 1 0 0
459 120 4 0 -0.09877826663482292 1.3989400047803437 2.344169572384435 1 0 0
430 110 4 0 -2.559947545336143 1.6237283021227276 2.103224146812212 1 0 0
428 110 2 0 -2.1783975028123552 1.8891041800092072 2.2199160544954326 1 0 0
189 38 3 0 -1.8264251390751465 2.528556141785365 2.419367142097302 1 -1 0
429 110 4 0 -1.7998286564430193 2.150194331178712 2.3335680268083285 1 0 0
134 27 3 0 -1.6368909273316525 2.196229739826122 2.6942966067170806 1 0 0
438 113 4 0 -1.4627611012298511 2.3768196641077113 2.4019141883582824 1 0 0
437 113 2 0 -1.0383022517115315 2.382946440179559 2.1561383246101533 1 0 0
124 25 3 0 -0.3603723618889667 2.4334129953489763 1.6358571474978554 1 0 0
439 113 4 0 -0.6289130983404725 2.3910325031788355 1.9209264769096208 1 0 0
340 80 4 0 -0.26904584296053713 2.606874189100359 1.9746856779558426 0 -1 0
509 137 2 0 -1.5370135046591171 3.3280529979175846 1.6049562970539082 1 -1 0
187 38 3 0 -1.8552772596641103 2.9928504156371964 2.979084282522704 1 -1 0
190 38 3 0 -2.297234688277808 3.1064419872474636 2.398623257726749 1 -1 0
186 38 1 0 -1.882878673145874 2.9553852020183786 2.537681640255629 1 -1 0
188 38 3 0 -1.5447254099036103 3.2129455645565113 2.348399893551208 1 -1 0
510 137 4 0 -1.3337859992707144 3.317650113337323 2.0105769825000133 1 -1 0
442 114 4 0 -1.1494722048771928 3.365538776413964 2.3518923482521332 1 0 0
440 114 2 0 -0.6984856496861234 3.485185671892313 2.455366476772503 1 0 0
441 114 4 0 -0.2797343359908151 3.5967948226202635 2.548612048047226 1 0 0
147 30 3 0 -3.134108574011558 1.293887448370013 4.244004235334301 1 -1 -1
149 30 3 0 -3.674942074644801 0.8837775233666303 3.924003654968087 1 -1 -1
146 30 1 0 -3.5636024608958756 1.305490417622849 4.071078143324274 1 -1 -1
150 30 3 0 -3.855883498414349 1.4498940754040737 4.377492482432836 1 -1 -1
455 119 2 0 -2.5589869569583468 0.067213003119587 3.2076894603438424 1 0 0
420 107 4 0 -1.5784975353827 1.202562567433474 3.0786721617565016 1 0 0
327 76 4 0 -1.7531826477960908 0.09898020195364676 4.4560686020578215 1 0 0
423 108 4 0 -1.2774080345654624 1.4294705200539406 2.946138514149003 1 0 0
248 50 3 0 -0.157881741222492 0.34568693443793386 4.247160861214986 1 0 0
407 103 2 0 -0.8946921303645148 0.42255855203523307 4.315798263605909 1 0 0
346 82 4 0 -0.2582611879706942 0.42513107221450763 3.8642286886876756 1 0 0
408 103 4 0 -0.5051280650639942 0.5400538473754128 4.1839726848585235 1 0 0
238 48 3 0 -0.3094372268064909 0.801704724247406 3.969120568264782 1 0 0
239 48 3 0 -0.03651731764949506 1.5350879292430326 3.972026527156216 1 0 0
344 82 2 0 -0.3258043346175805 0.1337828853563039 3.4448273542789467 1 0 0
409 103 4 0 -1.3475083888994486 0.27076281592644236 4.464691574376217 1 0 0
652 184 4 0 -3.619029618086848 1.4630036139277687 3.347799543909738 2 0 0
638 180 2 0 -4.267520924097941 1.8592555809235671 3.4170651076067378 2 0 0
639 180 4 0 -3.8061983773576995 1.7787726112537703 3.4712546744416555 2 0 0
148 30 3 0 -3.57828054873892 1.5934906313329948 3.722128382968914 1 -1 -1
366 89 4 0 -3.3910234252946356 1.7889697848408064 3.4262040162675733 1 0 -1
131 27 1 0 -1.6615239100318684 2.02206681375423 3.1475828304399993 1 0 0
367 89 4 0 -2.4966315527266154 2.0231944021876513 3.3330822759532266 1 0 -1
365 89 2 0 -2.931996330654905 1.9079634341612808 3.380793644567989 1 0 -1
133 27 3 0 -2.0946082880325734 2.0389053334561646 3.291695962743435 1 0 0
305 69 2 0 2.8786388482445604 -3.8220646739351927 -3.839288211728289 0 0 1
307 69 4 0 2.532650509067979 -4.031508859340279 -3.6772158732012046 0 0 1
74 15 3 0 2.182940919376538 -4.122976985566416 -3.551274574022335 1 1 0
72 15 3 0 1.7104069310688104 -4.404694971529796 -3.1028035377681458 1 1 0
306 69 4 0 3.259673667594095 -3.5879464758940514 -4.00606869994472 0 0 1
54 11 3 0 3.2534601972699617 -3.200701891220776 -4.071018151436672 0 0 1
118 24 3 0 3.5246393562988567 -3.7291188095535097 -4.257685908465299 1 1 1
302 68 2 0 2.8677366758240312 -2.0537756203134676 -3.5185803802390474 0 0 0
303 68 4 0 2.5971547174484355 -1.7546519441308321 -3.3036281943733172 0 0 0
53 11 3 0 3.4616414806689644 -2.544771786558634 -3.8210402333746196 0 0 1
304 68 4 0 3.1301984132966103 -2.3403282567798267 -3.7453080601943416 0 0 0
51 11 1 0 3.363908880902195 -2.7998067480649653 -4.190236205558089 0 0 1
52 11 3 0 3.037199239929542 -2.6176785982930753 -4.408710224867074 0 0 1
55 11 3 0 3.724653355699714 -2.8292336660100403 -4.451064353150553 0 0 1
595 165 4 0 1.15404332160072 -0.007375029377794995 -0.22081923103922918 1 0 0
250 50 3 0 0.37494297379998276 -0.1516137427955151 -4.484315930738824 1 0 1
493 131 4 0 1.5789543821396084 -3.112084359058073 -1.710618474538672 1 0 0