LAMMPS data file via write_data, version 29 Aug 2024, timestep = 900000, units = lj

664 atoms
4 atom types
476 bonds
1 bond types
438 angles
2 angle types

-4.496439 4.496439 xlo xhi
-4.496439 4.496439 ylo yhi
-4.496439 4.496439 zlo zhi

Masses

1 1
2 1
3 0.1
4 0.1

Bond Coeffs # harmonic/omp

1 100 0.45

Angle Coeffs # harmonic/omp

1 100 180
2 100 109.471

Atoms # full

319 73 4 0 -2.2172101845947156 -3.187755957970981 -4.452194109337161 0 0 1
321 74 4 0 -0.8895542387592439 -4.470608293542442 -4.414284157548945 0 0 1
281 61 2 0 -2.455613212978408 -1.7372620165325041 -4.0275954187553635 0 0 0
283 61 4 0 -2.25657288056413 -1.4492239339151882 -3.742292338253444 0 0 0
282 61 4 0 -2.653258306680138 -2.029208980494552 -4.31548030688002 0 0 0
265 55 4 0 -0.07391350889002372 -1.2166628812365834 -4.137029164111648 0 0 0
252 51 4 0 -4.290134925187671 -1.4179764359979203 -4.427651313419376 0 0 0
348 83 4 0 -1.922738297894762 -1.3154252906533437 -3.5961469483604693 0 0 1
255 52 4 0 -2.23777789359801 -1.3046872187825154 -3.370231408240419 0 0 0
347 83 2 0 -1.5141115637748965 -1.1544143078850204 -3.5643159513533322 0 0 1
257 53 2 0 -1.439403581397184 -0.03840241189569265 -3.98201606091399 0 0 0
524 142 2 0 -0.014994168574131843 -0.8032751549093017 -1.2583522281977004 0 0 1
264 55 4 0 -0.7991248773828616 -1.1987629400432451 -3.601382021667457 0 0 0
263 55 2 0 -0.44430849633403235 -1.209068942168712 -3.8573919640233645 0 0 0
259 53 4 0 -1.282950280411802 -0.1887809962524292 -3.5994433471717064 0 0 0
349 83 4 0 -1.1005356161255124 -0.9831353288849183 -3.5340054710667883 0 0 1
18 4 3 0 -0.8209778734180069 -0.9357268230476925 -3.2716657344253712 0 0 0
16 4 1 0 -0.7982392402598943 -0.5259794777183306 -3.0500683480160573 0 0 0
17 4 3 0 -0.37066199363441094 -0.3964872907225862 -3.0272240727328312 0 0 0
20 4 3 0 -1.0398755590931674 -0.2206468819010859 -3.278872541275577 0 0 0
397 99 4 0 -0.10056447139579934 -0.09649046558952275 -3.13222936824198 0 0 0
374 92 2 0 -3.3074470363095645 -0.20161847374969777 -2.8707987318819104 0 0 0
375 92 4 0 -3.0432970875273955 -0.5520820520402777 -2.8413992081876804 0 0 0
256 52 4 0 -2.7581859150242316 -0.8716579555673991 -2.750936730990634 0 0 0
292 64 4 0 -2.860295097404033 -0.5933517151579382 -2.4903700944010145 0 0 0
254 52 2 0 -2.509087723719573 -1.0925677917180805 -3.0601104772032244 0 0 0
26 6 1 0 -1.7976696342693015 -0.02341534117762645 -1.503717618814686 0 0 0
30 6 3 0 -2.2121252978369315 -0.2121150582713303 -1.3791116016816312 0 0 0
290 64 2 0 -2.6704841225104436 -0.4695926285833708 -2.0647040652390425 0 0 0
291 64 4 0 -2.486664498440385 -0.3399873315038112 -1.6345761767850764 0 0 0
28 6 3 0 -1.703149790771422 -0.13884452312267792 -1.9407284059992413 0 0 0
297 66 4 0 -0.2148420893300364 -0.13767095684331596 -2.751301142895156 0 0 0
19 4 3 0 -0.9600893634164946 -0.5792739922632716 -2.6055034499168612 0 0 0
288 63 4 0 -0.5970359737852227 -1.2104182096557172 -1.6184534527126309 0 0 0
289 63 4 0 -0.9514777294848658 -0.9180821194962123 -2.380304388694548 0 0 0
287 63 2 0 -0.7702762822035129 -1.0634312206998642 -2.003513473960604 0 0 0
14 3 3 0 -0.13128506846199475 -2.1440829012076934 -1.3988626300566342 0 0 0
2 1 3 0 -1.6599860836158797 -3.5333790488591563 -0.00026972061561492816 0 0 0
278 60 2 0 -0.34644391416373205 -3.709746170892485 -0.49143542687046204 0 0 0
279 60 4 0 -0.661847562897146 -3.404378644049784 -0.40603745099993344 0 0 0
5 1 3 0 -0.9613302240202101 -3.3612230930953118 -0.16343870860533682 0 0 0
104 21 3 0 -4.123704619088341 -0.2611317837504061 -3.4546439210893047 0 0 0
269 57 2 0 -1.3548343501461606 -1.6681614411024492 -0.7000269375677975 0 0 0
508 136 4 0 -0.8416376158511395 -3.03639332327289 -0.3750337749113909 0 0 0
11 3 1 0 -0.35372052620474503 -1.8432716983583004 -1.090138386541419 0 0 0
271 57 4 0 -1.1094739514576837 -1.9111926784579034 -1.0014085068616445 0 0 0
507 136 4 0 -0.9934263938432268 -2.3133747760869707 -0.8912425108778835 0 0 0
506 136 2 0 -0.9242855955006821 -2.6824438673422852 -0.628997067280407 0 0 0
12 3 3 0 -0.740523968732436 -2.0244363074565404 -0.9604456524109131 0 0 0
84 17 3 0 -2.653581892990671 -0.03209686103254034 -1.500844622672938 0 0 0
270 57 4 0 -1.5952545040067518 -1.4407914622397593 -0.42035977475304875 0 0 0
106 22 1 0 -1.3244829587609606 -0.609851087963731 -0.5014617563770541 0 0 0
261 54 4 0 -2.567827284373727 -0.3125603801835817 -1.2535673606372844 0 0 0
46 10 1 0 -2.175014756210285 -1.1276785348834875 -0.05441226384834683 0 0 0
48 10 3 0 -1.8115868066439849 -1.4046400892429316 -0.08393157206594218 0 0 0
109 22 3 0 -1.6524327057381976 -0.3630857594795357 -0.25675206840533815 0 0 0
260 54 2 0 -2.634884763190039 -0.6455826573706546 -0.9622247781955252 0 0 0
262 54 4 0 -2.69767019727356 -0.9779506531675086 -0.6529949312455279 0 0 0
49 10 3 0 -2.389725777649962 -1.1319806375033015 -0.44514248192663636 0 0 0
29 6 3 0 -1.486564960456823 -0.17813967641000644 -1.245886241485169 0 0 0
285 62 4 0 -1.1017661115255133 -0.17077593629268667 -1.2030213622319503 0 0 0
110 22 3 0 -1.2455276915081297 -0.39867562858417005 -0.9180752830485693 0 0 0
15 3 3 0 -0.44245885712515143 -1.4207181171783823 -1.3024059079063424 0 0 0
107 22 3 0 -0.9466488977281715 -0.6211535824038606 -0.2738982996823862 0 0 0
525 142 4 0 -0.394008334707008 -1.0436141483827193 -1.3279645721756677 0 0 1
13 3 3 0 -0.09759988403430767 -1.7849395144004567 -0.7418710640294597 0 0 0
108 22 3 0 -1.4658211826900334 -1.0223287693798078 -0.5629054464651403 0 0 0
280 60 4 0 -0.0004124032245588756 -4.041059700541094 -0.5965615986842114 0 0 0
400 100 4 0 -1.966747315544401 -0.29041311750818294 -0.019519486704160934 0 0 0
120 24 3 0 -2.2990504001681176 -3.567838580578095 -4.4871997861265855 0 1 1
317 73 2 0 -2.3777043919506147 -2.751601595528285 -4.490111918467111 0 0 1
266 56 2 0 -1.4138187691458555 -4.4044683256763735 0.4553213805899422 0 0 0
1 1 1 0 -1.272931687733162 -3.367740399607763 0.1607837460230521 0 0 0
4 1 3 0 -1.1292650672428652 -3.635630885546654 0.504948506956916 0 0 0
268 56 4 0 -1.1909612508705556 -4.030066244320124 0.5542787451163803 0 0 0
45 9 3 0 -0.8588637413214347 -4.112189954963046 0.7679493828616404 0 0 0
41 9 1 0 -0.6050615755948618 -4.01529662976969 1.1345302858673305 0 0 0
42 9 3 0 -0.1806570898629091 -3.9116717615693677 1.006268839070752 0 0 0
3 1 3 0 -1.3423152714334983 -2.942917824705697 0.31740923779262914 0 0 0
299 67 2 0 -1.6329059342213408 -2.1932499582130496 0.2643213739734666 0 0 0
301 67 4 0 -1.5801412394733143 -2.628010520286811 0.3925958967884247 0 0 0
568 156 4 0 -4.149105422340734 -1.6763233526864523 1.5863542756456261 1 0 0
183 37 3 0 -4.252865824934385 -1.558092247280938 1.188719700824672 1 0 0
418 106 4 0 -3.594474006535861 -1.1334483542590177 0.8617893969490495 0 0 0
182 37 3 0 -3.9527727358244693 -0.944476767403385 0.8837584706200431 1 0 0
416 106 2 0 -3.160223183466388 -1.2123458468076558 0.7102708451901227 0 0 0
181 37 1 0 -4.286273495869953 -1.2300407451376 0.856346684335833 1 0 0
312 71 4 0 -2.34917111936649 -1.2398730705132812 0.6874224702873853 0 0 0
311 71 2 0 -2.1263246441656136 -1.0977712091160923 1.0253261770694726 0 0 0
417 106 4 0 -2.729129675991755 -1.2874682045404116 0.5594013762975115 0 0 0
47 10 3 0 -2.447454079632202 -1.2689953504260525 0.2704029719153763 0 0 0
398 100 2 0 -2.026707132517184 -0.07578664462060328 0.351746192543073 0 0 0
331 77 4 0 -1.4852338453106808 -0.8802860906061704 1.3265662924296961 0 0 0
54 11 3 0 -2.901526201685885 -4.163128511386922 4.3293643909151 0 0 0
50 10 3 0 -2.0260974162042746 -0.6798370174085054 0.04415263546210952 0 0 0
309 70 4 0 -3.0831998497906317 -3.0852829330454097 1.9011888023599672 0 0 0
336 79 4 0 -3.267924631029536 -3.4240250182802185 1.9570921794658616 0 0 0
335 79 2 0 -3.1604281804631755 -3.791634218850969 2.195975117232271 0 0 0
337 79 4 0 -3.060693791219852 -4.1520382813110475 2.439727981175314 0 0 0
325 75 4 0 -2.680080657458659 -4.173049451038025 2.6377545015773407 0 0 0
323 75 2 0 -2.4789732055524882 -3.9710292402772507 3.0128857381621947 0 0 0
62 13 3 0 -2.9097540298338695 -4.485962882799882 2.540366405611774 0 0 0
44 9 3 0 -0.7885120691627366 -3.6586084631124725 1.3561577165468353 0 0 0
342 81 4 0 -0.9673031859839128 -3.6904030798593643 1.7232186821045996 0 0 0
341 81 2 0 -1.0821171831496357 -3.783398836543461 2.1542432105820137 0 0 0
343 81 4 0 -1.1910718546263683 -3.8882842004011486 2.588200657081295 0 0 0
38 8 3 0 -1.1880201092208158 -3.799664486163641 2.973503259471201 0 0 0
566 156 2 0 -3.834210300712187 -1.8315894399680752 1.8860207632266783 1 0 0
310 70 4 0 -3.362482318446228 -2.3232980512558448 2.30875261806543 0 0 0
561 154 4 0 -3.3570141724218567 -2.013810096986587 2.548318476031677 1 0 0
567 156 4 0 -3.538043800433376 -1.9977590927555176 2.17731583382809 1 0 0
560 154 2 0 -3.1204748676882446 -1.8411148316308303 2.931927563553788 1 0 0
308 70 2 0 -3.2216859828902034 -2.699818601975249 2.1108173881262324 0 0 0
344 82 2 0 -0.24599923923295858 -0.026101783715212306 3.2249606043854286 0 0 0
434 112 2 0 -3.7337959118278112 -0.31731993325139257 2.840031667257627 0 0 0
435 112 4 0 -3.675496528138661 -0.7174702283283849 3.0611315876663654 0 0 0
481 127 4 0 -4.249047449769415 -1.2328467463218973 0.05924230473304475 1 0 0
313 71 4 0 -1.8848676128277557 -0.9581625281656179 1.372200867695153 0 0 0
455 119 2 0 -2.6576658072430677 -0.08207338617384725 3.093535595836802 0 0 0
329 77 2 0 -1.176828312031882 -0.7592655868096168 1.631573864101756 0 0 0
137 28 3 0 -0.4971183118836247 -0.4920665969246346 1.957484038739461 0 0 0
330 77 4 0 -0.868701738058334 -0.64228742996574 1.9481319924959903 0 0 0
139 28 3 0 -0.07849728241760151 -0.30595639367018296 2.523629815985197 0 0 0
136 28 1 0 -0.1049764482346735 -0.33368803089626514 2.0755492096777464 0 0 0
345 82 4 0 -0.02753091345302546 -0.3148510694184243 2.9210852957164644 0 0 0
55 11 3 0 -3.5186634146229405 -3.9265160874051883 4.01944373612077 0 0 0
315 72 4 0 -3.609389182169027 -3.520129896030264 4.000193727978208 0 0 0
314 72 2 0 -3.6193426120972565 -3.0774656331343033 4.070129226156764 0 0 0
324 75 4 0 -2.2834562733048593 -3.7695912716508633 3.3847158607624017 0 0 0
117 24 3 0 -2.309999893632122 -3.7967301263149658 3.7810655592753015 0 1 0
116 24 1 0 -2.1745893913003895 -3.911937277846058 4.191457963646599 0 1 0
51 11 1 0 -3.2602066731304675 -4.25739181703503 4.02901208730468 0 0 0
37 8 3 0 -1.8956156274688967 -3.7775561332293464 3.270528179115975 0 0 0
119 24 3 0 -1.6974895047267617 -3.9565254517280777 4.1879473235612785 0 1 0
118 24 3 0 -2.3667354486092353 -4.29994117597938 4.307166510954553 0 1 0
39 8 3 0 -1.4192010851339916 -3.1584122374985317 3.268421630935436 0 0 0
36 8 1 0 -1.4378296726679443 -3.6177223628531565 3.302159580397229 0 0 0
322 74 4 0 -1.3180639245652657 -3.8366510056747045 4.0888877013624745 0 0 0
40 8 3 0 -1.2595246120127443 -3.730946993665459 3.707886376967436 0 0 0
320 74 2 0 -1.1083586825567942 -4.1582478144969155 4.328925364150908 0 0 0
58 12 3 0 -3.3301628687388196 -2.3277026553291957 4.093734068196602 0 0 0
316 72 4 0 -3.6305752999952148 -2.589739876935967 4.1504126956974625 0 0 0
60 12 3 0 -3.3019439298990676 -1.6126717850837222 4.282309665617635 0 0 0
56 12 1 0 -3.0853048121162714 -1.9510451499110428 4.072799492150617 0 0 0
57 12 3 0 -3.003952334433028 -1.8536862953907425 3.6430161373084866 0 0 0
562 154 4 0 -2.902376726874746 -1.6830640714034302 3.296546199144318 1 0 0
59 12 3 0 -2.700370734544033 -2.019025808268712 4.275552861176718 0 0 0
52 11 3 0 -3.0949278313719115 -4.330695860766194 3.6234363190158625 0 0 0
318 73 4 0 -2.531777044890014 -2.3246192280471023 4.467052993002997 0 0 0
185 37 3 0 -4.27173513346818 -1.4364054355725473 0.4478047384869875 1 0 0
328 76 4 0 -2.4468845655214357 -0.37751270903024076 3.7947101342562517 0 0 0
33 7 3 0 -3.3098307045031303 -1.028755150480244 3.9976284189038322 0 0 0
253 51 4 0 -3.45634938841956 -1.2590186738140126 4.293054576706549 0 0 -1
537 146 4 0 -3.741420698594289 -0.9552631516686191 3.3971549443229376 1 0 0
536 146 2 0 -4.15949675499332 -1.1359127574268482 3.425303375897955 1 0 0
251 51 2 0 -3.873916617253411 -1.3359238993999938 4.428384248477126 0 0 -1
31 7 1 0 -3.0801548451642624 -0.9447079699486369 3.641139530776333 0 0 0
34 7 3 0 -3.368027407594413 -0.7875873773124723 3.2969227976293327 0 0 0
326 76 2 0 -2.1356585861482276 -0.19224186922013467 4.054774982556189 0 0 0
32 7 3 0 -2.7707473143478425 -0.6285991727355705 3.734718783525617 0 0 0
457 119 4 0 -2.6008394546728666 -0.39105386022080474 3.4242548186323107 0 0 0
327 76 4 0 -1.8178274024198315 -0.008702880685643195 4.296789910282064 0 0 0
35 7 3 0 -2.8646878856085602 -1.330067260997932 3.4926008756166707 0 0 0
43 9 3 0 -0.6060771737839649 -4.385945815408503 1.4077343456750946 0 0 0
306 69 4 0 -2.691637931373723 -4.492941462346104 4.372914635640492 0 0 0
300 67 4 0 -1.6764533802288484 -1.7318148945924114 0.12268199472417837 0 0 0
105 21 3 0 -3.81334687136458 0.3424288448604123 -3.1824359954987536 0 0 0
373 91 4 0 -3.465038468862117 0.5220401192762356 -3.0460287470575684 0 0 0
371 91 2 0 -3.1598869489540298 0.8365556642863761 -3.234163963938317 0 0 0
101 21 1 0 -4.20028628539538 0.15169074628392254 -3.3454957721267946 0 0 0
376 92 4 0 -3.5664813385195906 0.162716550462059 -2.9123426520079985 0 0 0
102 21 3 0 -4.329892542744625 0.3858393777664399 -3.7178098915762563 0 0 0
79 16 3 0 -1.1089802202058905 2.194033529324447 -0.8556386085179436 0 0 0
372 91 4 0 -2.87230913904358 1.132058661146058 -3.428730748125356 0 0 0
6 2 1 0 -0.02614575203826919 4.241037743927873 -0.5297724785666503 0 -1 0
247 50 3 0 -0.12519142602270966 0.28038984564678043 -4.344645862796205 0 0 1
388 96 4 0 -1.7820733876045038 2.8668751873173224 -3.181107557366373 0 0 0
129 26 3 0 -1.3919925263872301 2.7771282771950085 -3.277422202334773 0 0 1
128 26 3 0 -1.0644045265536164 2.3955665414066116 -3.8165673730460887 0 0 1
126 26 1 0 -1.056876160624657 2.7806443280908137 -3.5909845626446213 0 0 1
634 178 4 0 -0.3036762125761408 2.584233444126933 -3.315681276907472 0 0 1
127 26 3 0 -0.669797923367014 2.8022730745697473 -3.380342127195706 0 0 1
10 2 3 0 -0.43972859710901707 4.186003391667789 -0.3997468852181164 0 -1 0
360 87 4 0 -0.5880908328956332 2.5712997154622355 -3.0564333513730477 0 0 0
7 2 3 0 -0.018501152075364964 4.287450208594819 -1.0192966900284162 0 -1 0
72 15 3 0 -1.998488621324476 3.183984853857013 -3.278619113008507 0 0 0
71 15 1 0 -1.919597923926323 3.5912205760800444 -3.492945460398365 0 0 0
74 15 3 0 -2.2713867846744282 3.7081568707678776 -3.7319635605905774 0 0 0
307 69 4 0 -2.3950481033792532 3.815835680591429 -4.077039399939291 0 -1 1
75 15 3 0 -1.8332380582739587 3.8923692767117233 -3.1876179996009313 0 0 0
305 69 2 0 -2.5439261648139326 4.147781329718886 -4.3419112641961055 0 -1 1
73 15 3 0 -1.5900008263316785 3.5398087420743396 -3.748959541752792 0 0 0
444 115 4 0 -1.4741865367537097 3.2269743236689 -4.022808613960015 0 0 1
130 26 3 0 -1.1199694919292027 3.1448581020078987 -3.8863312071864717 0 0 1
276 59 4 0 -1.2609626674953327 3.529133470368256 -3.969400762762233 0 -1 0
275 59 2 0 -0.9953043198690924 3.89576458769298 -4.062565671150283 0 -1 0
277 59 4 0 -0.7148485543846413 4.2626322168988 -4.156301014498213 0 -1 0
99 20 3 0 -3.563839608591122 0.4554293461600518 -2.6556643098376385 0 0 0
98 20 3 0 -4.2558389010378646 0.38161071120352635 -2.382425202281864 0 0 0
100 20 3 0 -3.6628963238181913 0.5766571345389985 -1.9217308224407614 0 0 0
385 95 4 0 -3.4688557269198617 0.8187632926153345 -1.6777171399690527 0 0 0
96 20 1 0 -3.850002322553854 0.6199601409644181 -2.3498107319751074 0 0 0
97 20 3 0 -3.932951472461705 1.0592788422466792 -2.434449017802695 0 0 0
82 17 3 0 -3.191024834759813 0.5004044771534408 -1.5772276684717048 0 0 0
487 129 4 0 -0.29721393258512946 4.176149181121043 -1.2786306458251 1 -1 0
401 101 2 0 -1.802540812908148 1.0968253990422194 -1.5593478913960281 0 0 0
403 101 4 0 -2.093644617755679 0.7477531526499483 -1.5669149889911542 0 0 0
85 17 3 0 -2.4991776961571026 0.6880314113288772 -1.4408320527831173 0 0 0
27 6 3 0 -1.8186469300049117 0.43728275020025087 -1.464524208361491 0 0 0
405 102 4 0 -0.9841783941637352 2.526467048446053 -1.005020554852336 0 0 0
92 19 3 0 -1.1737338921709368 2.414374294404365 -1.3522238977951415 0 0 0
298 66 4 0 -0.18456815494857698 0.26874594565161636 -1.9348971662080563 0 0 0
286 62 4 0 -0.30349426748834585 0.23796105984953286 -1.5384300405091385 0 0 0
391 97 4 0 -3.221336145895454 2.626409549854815 -1.8236421031770043 0 0 0
496 132 4 0 -3.0405373575588106 2.9362660799767837 -1.9854780891566208 1 -1 0
379 93 4 0 -2.8245488104453864 2.673619754141293 -1.7875050812971491 0 0 0
387 96 4 0 -1.7625133588078823 2.567470645119067 -2.2927180521016814 0 0 0
378 93 4 0 -1.9165691525301258 2.6370722597368084 -1.9230972303134577 0 0 0
377 93 2 0 -2.390655926071619 2.658443301142507 -1.8489034033268652 0 0 0
94 19 3 0 -1.5423475284320998 2.4826628097177847 -1.981216876250512 0 0 0
93 19 3 0 -1.3862179273984307 1.8187458326433288 -1.7347330807262715 0 0 0
386 96 2 0 -1.775700984667874 2.719618533802078 -2.741920798604987 0 0 0
402 101 4 0 -1.5078357351551561 1.4905898816927765 -1.552196213548043 0 0 0
91 19 1 0 -1.2406645468196724 2.2449909763955045 -1.7706037821243334 0 0 0
359 87 2 0 -0.5832364037515287 2.4022988420207327 -2.6347567532966476 0 0 0
368 90 2 0 -0.21859794839701413 1.8374110127494503 -1.7203744340091534 0 0 0
361 87 4 0 -0.5802037767986185 2.2343400014170727 -2.235897819288313 0 0 0
370 90 4 0 -0.5511928623727521 2.1100198478731245 -1.8540157678958027 0 0 0
95 19 3 0 -0.8840659972859791 2.2473825625611354 -1.977338540436502 0 0 0
584 162 2 0 -4.358280448714804 3.588220561548586 -2.225624202421014 1 0 0
494 132 2 0 -3.3049432996482975 3.26355134576232 -2.145416311648426 1 -1 0
586 162 4 0 -3.91540503458292 3.8066470502933325 -2.2395118778660352 1 0 0
495 132 4 0 -3.576313146680104 3.600530578230068 -2.31904796155801 1 -1 0
352 84 4 0 -1.7010347352910067 3.8747950317462205 -2.769140505624577 0 0 0
351 84 4 0 -1.3729435563605565 4.12752020553902 -1.9699472470000303 0 0 0
350 84 2 0 -1.5303441071620598 4.004072085635112 -2.3596860619870283 0 0 0
486 129 4 0 -1.0774593259343765 4.017676003196106 -1.7181602080030418 1 -1 0
485 129 2 0 -0.6661405892707178 4.096465122490157 -1.4865342488664315 1 -1 0
383 95 2 0 -3.5458805120146097 1.2229088851462835 -1.4514374924569184 0 0 0
577 159 4 0 -3.121094747730863 1.3683069655103925 -0.269404647217046 1 0 0
643 181 4 0 -3.4199441014649063 1.4005979067581964 -0.02474138118554613 1 0 0
81 17 1 0 -2.8125494451225914 0.3961244059962402 -1.3587528644252658 0 0 0
575 159 2 0 -2.9163568256901953 1.009332992107582 -0.45371309842138696 1 0 0
83 17 3 0 -2.9003050743145558 0.384363916725799 -0.9035178618237215 0 0 0
576 159 4 0 -2.718848830082204 0.6567916836664318 -0.6320673553368072 1 0 0
80 16 3 0 -1.027067246500596 1.4842918606754774 -0.6177771395427839 0 0 0
389 97 2 0 -3.394806155571138 2.2978164547203317 -1.5852116476557174 0 0 0
384 95 4 0 -3.6166259414325115 1.6148405888603115 -1.2221574002771396 0 0 0
68 14 3 0 -3.348627294899451 1.6792809739379384 -0.3139762569654791 0 0 0
607 169 4 0 -4.251592557778745 2.348497311153866 -0.319211697980826 1 0 0
354 85 4 0 -3.215499734672737 2.788498353576917 -0.5011561049205593 0 0 0
390 97 4 0 -3.573376182650233 1.97564828488088 -1.347311914212073 0 0 0
70 14 3 0 -3.612481482456155 1.938922622303823 -0.9658218670949209 0 0 0
69 14 3 0 -3.9038538273371217 2.153937411065431 -0.3182604988352202 0 0 0
66 14 1 0 -3.5203086705776254 2.0419618888019087 -0.5205072480407044 0 0 0
67 14 3 0 -3.237858052700037 2.3829926373872956 -0.5052340890508589 0 0 0
284 62 2 0 -0.7151240286985823 0.03129705071118163 -1.3707680071560473 0 0 0
353 85 2 0 -3.0805546709937706 3.0143422531558324 -0.1280397988265916 0 0 0
78 16 3 0 -1.497302061515625 1.6320566839931618 -1.16471034120258 0 0 0
77 16 3 0 -1.664223909688752 1.8500127060184774 -0.4621451890752988 0 0 0
76 16 1 0 -1.3207551443374352 1.7911339633269803 -0.7716768624022048 0 0 0
404 102 2 0 -0.6110943555668892 2.6249961774122275 -0.7419807753026355 0 0 0
406 102 4 0 -0.23308522455004432 2.717844325722363 -0.4831829294597742 0 0 0
395 99 2 0 -0.009503000355551313 0.05093499097125461 -3.576135063146977 0 0 0
296 66 2 0 -0.20186730673965775 0.0678445244611565 -2.3404486071656208 0 0 0
357 86 4 0 -3.0903515797831322 1.6531223756597269 -0.004886675813013084 0 0 0
258 53 4 0 -1.6055931623628414 0.11280181851251739 -4.3900689502908214 0 0 0
443 115 2 0 -1.679348483347336 3.112655240196231 -4.436303345119927 0 0 1
451 117 4 0 -3.8315010693512095 0.6453063608463566 0.8180656606503808 0 0 0
449 117 2 0 -3.5796317161926154 0.46464038114475925 1.113200696691746 0 0 0
642 181 4 0 -3.8580709855554995 1.0371753070043366 0.6761879195074534 1 0 0
641 181 2 0 -3.646845575767786 1.2191658717015583 0.3317685228740819 1 0 0
450 117 4 0 -3.3119668220526197 0.2725010745349751 1.4319663191456369 0 0 0
399 100 4 0 -2.0977836190300128 0.14576945725475055 0.7560132621589447 0 0 0
413 105 2 0 -2.553904148768018 0.10292537144926978 1.3492430988338007 0 0 0
415 105 4 0 -2.12426929223433 0.13286594479301514 1.1681354683551712 0 0 0
635 179 2 0 -4.19274983882224 2.486263272874997 0.406555336568975 1 0 0
511 137 4 0 -4.253290763904867 2.628828704257613 1.1978210602945827 1 -1 0
636 179 4 0 -4.35168098793138 2.6791144205779918 0.8008042807620842 1 0 0
409 103 4 0 -1.4636848864803225 0.10485684424950258 4.221300136648106 0 0 0
124 25 3 0 -3.0444088314806366 2.6106001548620776 1.0927821080491937 0 0 0
356 86 2 0 -2.7499436736093568 1.872323700757718 0.24503169357530338 0 0 0
453 118 4 0 -2.1801426478316053 2.114789907451942 0.8260412095105939 0 0 0
452 118 2 0 -1.916103840753977 2.01223071362217 1.1430636579704987 0 0 0
358 86 4 0 -2.4288885898108923 2.0770259895969048 0.49090797003307096 0 0 0
123 25 3 0 -2.4362458595811236 2.400134924930959 0.6898096834238675 0 0 0
121 25 1 0 -2.6453128741035097 2.757278144433407 0.8643946371905029 0 0 0
125 25 3 0 -2.7528858681742854 3.041035765894522 0.5396336572880157 0 0 0
122 25 3 0 -2.3726413037589547 2.971808797628232 1.155128295619299 0 0 0
340 80 4 0 -2.6351749076913853 3.031659866993666 1.4621684015550211 0 -1 0
380 94 2 0 -2.31113996112102 3.7410450047711037 0.34996026583135037 0 0 0
381 94 4 0 -2.646326120743417 3.423107437301422 0.3771307056579474 0 0 0
382 94 4 0 -1.967133280531576 4.069246504229804 0.3148562471526966 0 0 0
355 85 4 0 -2.946815630618261 3.217006304020056 0.24374745213364662 0 0 0
267 56 4 0 -1.627957764384817 4.199099743942978 0.35895740041086854 0 -1 0
410 104 2 0 -0.09410527306258508 2.8387264957784097 3.6391671727702675 0 0 0
414 105 4 0 -2.9906308040020333 0.05553269352916161 1.5208782948103092 0 0 0
235 47 3 0 -3.2449657129113256 0.17858670879405378 1.8048646768335488 1 0 0
447 116 4 0 -4.071545183704493 0.2399400976986662 2.3998684173176965 0 0 0
231 47 1 0 -3.27609262017288 0.4078777999869834 2.178029683732568 1 0 0
234 47 3 0 -3.239454121677889 0.846107078030228 2.0926392922437724 1 0 0
233 47 3 0 -3.666118645714707 0.32158989469369054 2.368772167006393 1 0 0
651 184 4 0 -3.8859596881460137 0.43375799843545004 2.6940872195815615 1 0 0
430 110 4 0 -3.569567707361041 1.056304655917495 2.098814563046744 0 0 0
232 47 3 0 -2.9521552643400266 0.28609838551409894 2.451595802675478 1 0 0
456 119 4 0 -2.7061123283676487 0.22420103845499045 2.7636606299926774 0 0 0
421 107 4 0 -2.7094938360940315 0.5800705943129472 2.62744407229935 0 0 0
419 107 2 0 -2.573596018065501 1.003014246223101 2.697187813424577 0 0 0
420 107 4 0 -2.431639449211842 1.4443440914385706 2.7682178074649495 0 0 0
138 28 3 0 -0.05495420990580233 0.08392436349487728 1.9006921378281463 0 0 0
509 137 2 0 -4.227255009536708 2.7411268469010457 1.6230171247978789 1 -1 0
190 38 3 0 -4.161020106619142 2.2329483913429597 2.727001535778523 1 -1 0
428 110 2 0 -3.4675918965921935 1.489737814916706 2.2703837700945138 0 0 0
189 38 3 0 -3.500328096232567 2.279890925344304 2.4157932096672696 1 -1 0
186 38 1 0 -3.8300391061362427 2.497023656472593 2.647577307861827 1 -1 0
188 38 3 0 -3.968406428027585 2.8541602514539806 2.4194640223239934 1 -1 0
429 110 4 0 -3.368972744111116 1.9092043710793634 2.425682267882996 0 0 0
438 113 4 0 -3.2336583548504954 2.15692899781408 2.1453299108774804 0 0 0
187 38 3 0 -3.6551993426985345 2.6325332553903573 3.0408929143134 1 -1 0
134 27 3 0 -3.0100725613376933 2.0726421960939456 2.468890945072311 0 0 0
510 137 4 0 -4.190568840965864 2.861951200041445 2.0537328389403298 1 -1 0
437 113 2 0 -3.108219628493765 2.468758832765131 1.811478645317734 0 0 0
439 113 4 0 -2.9935820215680904 2.7795406463703127 1.4821129576273582 0 0 0
454 118 4 0 -1.6396183800526805 1.9152711390248136 1.471997848115285 0 0 0
459 120 4 0 -1.3368841879766507 2.0694907217796383 1.7002750863468723 0 0 0
131 27 1 0 -2.7680549611910084 2.1118494002608337 2.837693241670797 0 0 0
423 108 4 0 -2.2098787504580653 1.6391977560302686 2.5373678652380858 0 0 0
422 108 2 0 -1.9214789229899558 1.7688135166725822 2.2058065517982186 0 0 0
135 27 3 0 -2.3996558721285224 1.821804456611282 2.8202341719948203 0 0 0
424 108 4 0 -1.6327300034500556 1.898774610316249 1.872615230052249 0 0 0
458 120 2 0 -0.9939269523303584 2.3625540991277356 1.8263047118510298 0 0 0
460 120 4 0 -0.6860561202381676 2.6328776072416313 1.9415989973936867 0 0 0
113 23 3 0 -0.751202272746619 2.762707206695603 2.335821695097676 0 0 0
115 23 3 0 -0.6279271458706126 2.889857644932501 3.066576634257577 0 0 0
440 114 2 0 -3.9836074254996654 3.5978895184026203 2.4008402076635096 0 0 0
442 114 4 0 -4.136145438872973 3.191755771082954 2.280243786856644 0 0 0
441 114 4 0 -3.8341906538144004 3.9935363563307407 2.5248138003036003 0 0 0
65 13 3 0 -3.4354082167694804 4.0308120819226945 2.519033887129092 0 -1 0
64 13 3 0 -2.859813403877017 3.9593675879757146 2.9694796490343487 0 -1 0
338 80 2 0 -2.5226252048297444 3.386076701926408 1.7784142956105522 0 -1 0
61 13 1 0 -2.984403121274485 4.095488335704069 2.570272472145853 0 -1 0
63 13 3 0 -2.7627766548907475 3.8581685968986443 2.2526401974979406 0 -1 0
339 80 4 0 -2.4069885855726136 3.7360021651804125 2.088978424880225 0 -1 0
111 23 1 0 -0.817716262479837 3.055737440144708 2.664984388114249 0 0 0
112 23 3 0 -1.2380446609502076 3.122944219475494 2.7175905760755437 0 0 0
114 23 3 0 -0.620618184716654 3.444731891352311 2.559706748509383 0 0 0
664 188 4 0 -0.689559013014461 3.691219040937069 2.2833470823157023 0 0 0
662 188 2 0 -0.590382674273222 4.017794118835621 1.9581066895586596 0 0 0
663 188 4 0 -0.5001369886262871 4.30553775659587 1.6607296956386854 0 0 0
650 184 2 0 -3.9923361918811704 0.7621895922773322 3.042645455779967 1 0 0
652 184 4 0 -4.08904719088964 1.079001659070498 3.366746855986058 1 0 0
366 89 4 0 -3.8309936007019325 1.3588896178846495 3.4884626791985767 0 0 -1
365 89 2 0 -3.5665702559768584 1.7128449094946907 3.484825445851017 0 0 -1
240 48 3 0 -0.24206952981597996 0.9880700259505225 3.078005689108398 0 0 0
239 48 3 0 -0.732349796142692 1.314432512468288 3.487291149860638 0 0 0
425 109 2 0 -1.210390188288591 2.817911117947565 3.6429812495573377 0 0 0
407 103 2 0 -1.063611288068981 0.20932420216211195 4.025508426609416 0 0 0
236 48 1 0 -0.38791436294330955 1.0233988878681433 3.474342258513188 0 0 0
238 48 3 0 -0.5290597319505003 0.6212973591345984 3.6172867880094954 0 0 0
346 82 4 0 -0.44701595197300265 0.2525379427220245 3.52129767180539 0 0 0
248 50 3 0 -0.3143470919816577 0.2826465675311981 3.906782740536379 0 0 0
408 103 4 0 -0.6753921900397081 0.3191399404450543 3.8238838023965513 0 0 0
133 27 3 0 -3.0194497556920346 1.9995029249890144 3.2066395724149737 0 0 0
367 89 4 0 -3.294320306661784 2.0843858997177196 3.4733035354817683 0 0 -1
132 27 3 0 -2.6045217443166204 2.5518050002849852 2.895058229206779 0 0 0
433 111 4 0 -2.6506012361425744 2.7667130134428874 3.227990279764644 0 0 0
431 111 2 0 -2.2866981540672993 2.8807991733707534 3.4779344782591703 0 0 0
432 111 4 0 -1.9147336415409346 2.9774211253419933 3.732804789119798 0 0 0
644 182 2 0 -0.6379058530716455 2.024032702608795 3.1494186774529016 0 0 0
645 182 4 0 -0.6394957854782648 1.5622223695248096 3.181090473917398 0 0 0
646 182 4 0 -0.6408800220812247 2.4939490521296013 3.121453782532632 0 0 0
411 104 4 0 -0.45125132220511616 2.704391953055669 3.38321038331311 0 0 0
427 109 4 0 -0.8459467330988758 2.7383485520194037 3.3749538062232913 0 0 0
302 68 2 0 -4.150238423257135 3.8769583447340827 4.274688171613428 0 -1 -1
237 48 3 0 -0.0491141605681136 1.1675875536215574 3.7477200944704587 0 0 0
304 68 4 0 -3.7561721260126166 4.113334470225128 4.147399403079462 0 -1 -1
53 11 3 0 -3.4768705179992505 4.374076573273488 4.173116836636203 0 -1 0
212 43 3 0 -0.09392115992941764 4.383995976719138 1.7021221145150507 0 0 0
436 112 4 0 -3.7837426291039753 0.04396127566712807 2.632747020965415 0 0 0
445 115 4 0 -1.8834596668566599 2.98075560395731 4.152278391927955 0 0 0
426 109 4 0 -1.5860133216313 2.8927371551259893 3.910398777934599 0 0 0
637 179 4 0 -4.049657274152471 2.299962690545817 0.032749843426450646 1 0 0
461 121 2 0 1.4587923069186695 -4.3663081118732165 -2.427691544932363 0 0 0
463 121 4 0 1.2093180176362672 -4.2845469236438225 -2.038228546045711 0 0 0
462 121 4 0 1.7010519874556522 -4.445156935924812 -2.824022488055723 0 0 0
157 32 3 0 1.8601031195764166 -3.9900095950069074 -1.4136649667862913 0 0 0
469 123 4 0 1.3339480946820623 -0.962302265752385 -1.8512622521163717 0 0 0
513 138 4 0 1.7168939000380525 -1.0209561818664428 -1.9476365392459705 0 0 0
514 138 4 0 2.487451029375682 -0.5629516714401168 -2.165775514497961 0 0 0
512 138 2 0 2.074322840687557 -0.8075412308285468 -2.0473358969910507 0 0 0
465 122 4 0 2.8603523918204865 -0.6123282343677879 -2.2046216783436434 0 0 0
464 122 2 0 3.149559889650004 -0.3358035512618713 -2.066942995080104 0 0 0
158 32 3 0 1.2468982308346288 -4.304200188239968 -1.6338544152763885 0 0 0
492 131 4 0 1.3619426211730685 -3.2804409348133348 -1.2224080567884659 0 0 0