LAMMPS data file via write_data, version 19 Nov 2024, timestep = 20000, units = lj

79 atoms
4 atom types
54 bonds
1 bond types
35 angles
2 angle types

-2.982675 2.982675 xlo xhi
-2.982675 2.982675 ylo yhi
-2.982675 2.982675 zlo zhi
-0.0002982675016189873 0 0 xy xz yz

Masses

1 1
2 1
3 0.1
4 0.1

Bond Coeffs # harmonic/omp

1 100 0.45

Angle Coeffs # harmonic/omp

1 100 180
2 100 109.471

Atoms # full

70 22 4 0 -1.385188902189422 -1.2082394242913845 -2.730026544383987 1 0 1
11 3 2 0 -1.9099225752807922 -1.7832307291136131 -2.9370605049178367 0 0 1
12 3 4 0 -1.5617621597919724 -1.5253006483711242 -2.879182132398728 0 0 1
68 22 2 0 -0.9653380784878585 -1.0563991346257926 -2.6302898119746336 1 0 1
69 22 4 0 -0.5637890484746793 -0.9128842748003194 -2.533829422278798 1 0 1
57 18 4 0 -0.30846869542492383 -0.5807201256384773 -2.4957065977499884 1 -1 1
36 11 4 0 -0.030546851049956025 -2.30433814540244 -1.5244809298738387 1 1 1
23 7 2 0 -2.636257407790939 -2.659700164190189 2.734046771850809 2 1 0
24 7 4 0 -2.290006383805266 -2.419148022723072 2.852124160693632 2 1 0
13 3 4 0 -2.2667311773600956 -2.047915208420032 2.9620275428642517 0 0 0
30 9 4 0 -1.691245031238302 2.556255892785028 -1.1478037802062777 2 0 0
29 9 2 0 -1.2534629776019814 2.644175080359228 -1.0539499914541435 2 0 0
60 19 4 0 -1.9504978595928475 2.2690211451730895 -1.2309054949842035 2 0 1
61 19 4 0 -2.7568866393365035 2.214871933984409 -0.7625205079046258 2 0 1
59 19 2 0 -2.3635842416212416 2.2415624910658587 -0.9931441845648965 2 0 1
31 9 4 0 -0.8285859648694558 2.729991674684564 -0.9576817591112969 2 0 0
16 4 4 0 -0.11101976939109015 2.244330012828453 -0.15744390371236205 2 -1 0
15 4 4 0 -0.6230098725543436 2.834126263024825 -0.6144286019889433 2 -1 0
14 4 2 0 -0.3642567026202612 2.538547340551561 -0.38055384718883944 2 -1 0
39 12 4 0 1.5696627660901323 -2.506561737099281 -2.119582638385251 0 0 1
38 12 2 0 1.6587951700384838 -2.4507407707074296 -2.5497773533255663 0 0 1
37 11 4 0 0.13543236240793233 -1.706327914951262 -2.1825495876259766 1 1 1
45 14 4 0 0.5000121143581908 -1.6598418467712999 -2.37331265341578 1 1 1
44 14 2 0 0.8753679383721376 -1.4350178299964802 -2.3379460668790664 1 1 1
46 14 4 0 1.2621325627604425 -1.1960236665656783 -2.3067542892581017 1 1 1
56 18 2 0 0.04935942858888609 -0.348061909184457 -2.356021993281307 1 -1 1
58 18 4 0 0.39712898372102856 -0.12743113539175566 -2.224233909295133 1 -1 1
26 8 2 0 0.44232739855231706 -2.5602678120925595 -1.013994859077277 -1 1 1
28 8 4 0 0.012939038721801577 -2.444922370769584 -1.1562560387885945 -1 1 1
35 11 2 0 0.056281732432205356 -2.002041861085876 -1.8560418951299957 1 1 1
49 15 4 0 1.155148381145144 -2.697050396354092 -1.1475915469931317 1 0 1
48 15 4 0 1.751845201934254 -2.7122044827416243 -1.8152473363329917 1 0 1
47 15 2 0 1.4565694227457837 -2.7047660043687767 -1.4782244779436382 1 0 1
8 2 3 0 0.5931465797764961 -0.07702102058528393 -1.8860281699296755 1 0 1
27 8 4 0 0.8647249459559707 -2.676656383849056 -0.8777499398246604 0 1 1
18 5 4 0 2.8595559607953818 -0.5081768430817153 -0.4724291326981134 -1 0 -1
21 6 4 0 2.744451582352325 -0.7319089389189792 -0.15632657665494687 0 0 0
17 5 2 0 2.6624386381240925 -0.1567982715935572 -0.7049194119677789 -1 0 -1
74 24 2 0 0.9613557200123153 -2.525656579890884 0.942871108996417 0 1 0
76 24 4 0 1.0273494178246527 -2.0833204574909656 0.8045071031688771 0 1 0
55 17 4 0 1.3598183339852334 -1.897918201229156 0.955530261346067 0 0 0
53 17 2 0 1.58073542105465 -1.5779189446737427 0.7078325923910902 0 0 0
54 17 4 0 1.7901047789931348 -1.260687044667831 0.4596318674201525 0 0 0
22 6 4 0 2.14964385514935 -1.206398652511187 0.28858671908119593 0 0 0
20 6 2 0 2.443315895443401 -0.9726813235911522 0.0682385936915888 0 0 0
75 24 4 0 0.8934347094110806 -2.974605013308985 1.0775796171970353 1 1 0
4 1 3 0 1.967813069196986 -2.8994529468568198 2.1133878243924538 1 0 0
40 12 4 0 1.755091391408921 -2.3979485268523986 2.960887927310638 1 0 0
25 7 4 0 2.9568197476148046 -2.9098282186125632 2.604397399301901 1 1 0
2 1 3 0 2.5768200053349326 -2.944068162383123 2.526492280725091 1 0 0
3 1 3 0 2.0493250793309277 -2.4931108173843 2.7130819960577486 1 0 0
1 1 1 0 2.136976860585077 -2.8830282553664057 2.5333176378791094 1 0 0
63 20 4 0 0.8862103680221187 0.664071632579792 -2.5160494612158555 1 0 0
10 2 3 0 0.8721729866110004 0.5327231210576189 -2.1288346929824455 1 0 1
62 20 2 0 0.9525734977716955 1.079972668411275 -2.6760919747044234 1 0 0
64 20 4 0 1.020272058096808 1.5025820845271762 -2.839775107927974 1 0 0
66 21 4 0 1.054011700734637 1.8893577143274647 -2.838273559066286 1 0 1
9 2 3 0 0.6108011709240935 0.4835751259721861 -1.4527493404411331 1 0 1
6 2 1 0 0.8210510356538867 0.2634826975240707 -1.7752489928306991 1 0 1
7 2 3 0 1.202737861561364 0.1361736268132323 -1.6411299024777797 1 0 1
34 10 4 0 1.5660340422268866 0.18727995555594612 -1.7796185054244948 0 0 0
32 10 2 0 1.9350893290343918 0.12081949866990493 -1.5370732382174062 0 0 0
33 10 4 0 2.3230444548787665 0.052923057237659776 -1.274373196780492 0 0 0
19 5 4 0 2.4764156805857174 0.17390678027972983 -0.9219940689666815 -1 0 -1
77 25 2 0 0.5108493434330983 1.788680226321119 -0.24701676094205993 2 0 1
78 25 4 0 0.9182061514293687 1.6554002320419356 -0.20640475367237743 2 0 1
79 25 4 0 0.09142207631191557 1.927315105619686 -0.285680769610392 2 0 1
51 16 4 0 1.1829100259649894 1.9481985330054097 -0.14180648353296732 1 -1 1
71 23 2 0 2.575448444530744 2.266155652375051 -0.3109464306606915 1 0 1
73 23 4 0 2.8436324538783766 2.357208487695122 -0.6581047602116579 1 0 1
50 16 2 0 1.5987841036718646 1.9270553233355003 0.004162375154790343 1 -1 1
52 16 4 0 2.0180044854861614 1.9087166411656278 0.1460501052343406 1 -1 1
72 23 4 0 2.3056258870614683 2.172657751764706 0.05024549912769549 1 0 1
43 13 4 0 1.1363501504467517 2.8288678379419303 1.3422791437192827 0 0 0
41 13 2 0 1.5013199865531326 2.785332855674771 1.6242179905662844 0 0 0
42 13 4 0 1.8525763114302527 2.738459421888867 1.9044873819402537 0 0 0
65 21 2 0 1.3546037864324716 2.2041253912502348 2.9775688256213724 1 0 0
67 21 4 0 1.6322531418105402 2.5076530401370545 2.8329067681666467 1 0 0
5 1 3 0 1.9453556741488796 2.7559367758063664 2.783185732990693 1 -1 0

Velocities

70 -0.3502357384924363 0.0023931120814663434 0.21716724227475073
11 0.29923652375692406 0.03856857668394833 0.009650026960617236
12 -0.7596238027469725 0.3493186054415674 0.6115249017241379
68 -0.24293490385184283 -0.05157350492939183 0.14013213056581625
69 0.26972877641460563 0.0527400647367441 -0.07706038521556588
57 0.281979053310982 0.38731066897384564 0.4562481269060755
36 0.4368879974949843 -0.26905062358278176 -0.15773835284334775
23 0.03184892639252952 0.15085553310729277 -0.245448920351625
24 0.3633767294414941 -0.1782994251072061 -0.4353336605637694
13 0.3133589573823425 0.2949544717360155 -0.28625915474608293
30 0.4200937783509361 -0.6513394155076182 -0.36116382601837027
29 0.11093519106604176 -0.15106907892489155 0.0485896499861522
60 -0.7521194442277734 -0.6479955728746492 -0.3855918475660393
61 -0.2843419611231416 0.37677667371371487 -0.18756171631053112
59 -0.374355479320722 0.2858748471453515 -0.09482591026266723
31 -0.22654361168112744 0.8960744542304704 0.22283497031429964
16 -0.49813844444071437 -0.025805272411308904 0.6456948289164304
15 0.7730236444789279 0.796122035958609 0.3842543252406185
14 -0.033028498025193365 -0.06182075759874929 0.1994559427965715
39 0.4056917507801546 0.22403742597212717 1.0273278715456258
38 0.12228522549474709 0.14201132916523554 0.026015613801224507
37 -0.16816319452072798 -0.5362926604174999 -0.462769354083328
45 -0.19732864920612245 -0.6746141032084761 -0.23900772177459775
44 -0.03164154094760372 0.054948318374085314 0.147506604107958
46 0.6621446959297662 -0.25340204821217177 -0.04545502401870421
56 -0.5657536513271111 -0.010093573416260344 -0.1897616301338699
58 -0.8820455842243414 1.319119829455599 -0.011741341035815665
26 -0.022422534204884558 0.21283315256756719 0.04490289278375167
28 0.5418843138707414 -0.7331985060394974 -0.8870198233044123
35 0.15424568471089753 -0.045819229438720716 0.11791863981963821
49 0.0688890907461223 -0.34932900458683364 0.746849816677791
48 0.09145057477071178 0.15644714697698484 0.0486906011724195
47 -0.22594604552858463 0.1057862050740414 0.1211288422311938
8 -0.06993821145835442 -0.2857714494283634 -0.6275515504008434
27 0.2660386066520507 0.61797953700154 0.47550556516452913
18 0.578614886915722 0.32970825367466805 -0.0318966916423815
21 0.14085900311964347 -0.5501021297816807 -0.3320328936242703
17 0.10183644913644153 0.06134859785423307 0.08977285481718679
74 -0.194637943886753 0.08405911355607547 0.020911847106323083
76 -0.10715325911157025 0.2971181240350628 -0.08354002175145467
55 0.5218048598479507 -0.5397102053549515 -0.15146855361979245
53 -0.00038306447136976854 -0.12485631844303427 -0.0005848913014872593
54 -1.0706906515442283 -0.5488458170332741 -0.12298905823079459
22 -0.2410344701611824 -0.4513963482465752 0.5634413550672002
20 0.3286195319362451 -0.2993750230131546 0.36015341595935063
75 -0.4731823622003274 -0.7646626145830611 -0.24658249509110028
4 0.19037242278602695 0.3439960335703426 -0.44071125151222207
40 0.2740015320616396 -0.6284729330732949 -0.25613311805649114
25 -0.11289636694089822 0.22478046829424042 -1.0097935324707434
2 0.17665582074534075 -0.6657224426255042 0.03692552581756621
3 -0.5717556491141152 -0.022137159737696366 0.21942198614945135
1 0.08537276149782598 -0.0719281077218073 -0.08794790628483116
63 -0.5385406298296416 0.6848419542356265 -0.2112200134670979
10 0.1396899096111684 0.7057010322436238 -0.27163366283665863
62 0.13486674366435986 -0.05239590361575745 -0.09028674648707982
64 0.1379666770732435 0.8268553723971941 -0.08770181245079649
66 0.7319688793206278 0.47834749482013506 -0.6763921572080538
9 -0.004189649828945818 0.44306876257238736 -0.5652539740274808
6 -0.10995233275693929 0.03154809654078041 -0.029217882698624225
7 0.43158097494286385 0.06996192268185517 0.4883050422677103
34 -0.2692964510669729 -0.6069747766412181 -1.3196497489719348
32 -0.23728727054402665 -0.04585752578601254 -0.06659777679379099
33 0.18525777271855273 0.5492456293627089 -0.08929648738190873
19 -0.07111428535291464 -0.2630928691089332 0.18620798516907225
77 -0.043628675971653735 -0.08832991321297254 -0.015225277995176232
78 -0.9452670800851876 0.2458512948945006 -0.6484240858296926
79 -0.033083086549583536 -0.15038366976833226 -0.20294052189073003
51 -0.08897905694696266 0.41488512787046733 -0.09208421453138141
71 0.26804040918480904 0.09237819515090283 0.06373334546016955
73 0.10150763873729868 -0.168433479591223 0.27072045332801636
50 0.08032987774139841 -0.2887299169098411 0.3155687678678677
52 -0.18288689378163925 -0.10018911069951271 0.3164846819073204
72 0.41530421784746147 0.030488675213449074 0.46192322439186945
43 -0.6078759915100084 -0.25706539723961364 0.32807443016501786
41 0.19499117987991532 0.22966778394263218 0.14596658692618228
42 0.5459680711042281 0.2097226909477673 -0.838717389006323
65 -0.045533963811356076 -0.008752784283433917 0.10879416915239927
67 0.1950285608234736 -0.047340840017643826 0.12079332055689791
5 0.5606646288786148 0.9366660526944074 0.4327931046212888

Bonds

1 1 11 12
2 1 11 13
3 1 68 69
4 1 68 70
5 1 23 24
6 1 23 25
7 1 29 30
8 1 29 31
9 1 59 60
10 1 59 61
11 1 14 15
12 1 14 16
13 1 38 39
14 1 38 40
15 1 44 45
16 1 44 46
17 1 56 57
18 1 56 58
19 1 26 27
20 1 26 28
21 1 35 36
22 1 35 37
23 1 47 48
24 1 47 49
25 1 17 18
26 1 17 19
27 1 74 75
28 1 74 76
29 1 53 54
30 1 53 55
31 1 20 21
32 1 20 22
33 1 1 2
34 1 1 3
35 1 1 4
36 1 1 5
37 1 62 63
38 1 62 64
39 1 6 7
40 1 6 8
41 1 6 9
42 1 6 10
43 1 32 33
44 1 32 34
45 1 77 78
46 1 77 79
47 1 71 72
48 1 71 73
49 1 50 51
50 1 50 52
51 1 41 42
52 1 41 43
53 1 65 66
54 1 65 67

Angles

1 1 12 11 13
2 1 69 68 70
3 1 24 23 25
4 1 30 29 31
5 1 60 59 61
6 1 15 14 16
7 1 39 38 40
8 1 45 44 46
9 1 57 56 58
10 1 27 26 28
11 1 36 35 37
12 1 48 47 49
13 1 18 17 19
14 1 75 74 76
15 1 54 53 55
16 1 21 20 22
17 2 2 1 3
18 2 2 1 4
19 2 2 1 5
20 2 3 1 4
21 2 3 1 5
22 2 4 1 5
23 1 63 62 64
24 2 7 6 8
25 2 7 6 9
26 2 7 6 10
27 2 8 6 9
28 2 8 6 10
29 2 9 6 10
30 1 33 32 34
31 1 78 77 79
32 1 72 71 73
33 1 51 50 52
34 1 42 41 43
35 1 66 65 67
