LAMMPS data file via write_data, version 4 Feb 2025, timestep = 4000000, units = lj

4650 atoms
4 atom types
3150 bonds
1 bond types
1875 angles
2 angle types

-11.917153 11.917153 xlo xhi
-11.917153 11.917153 ylo yhi
-11.917153 11.917153 zlo zhi
-2.0605739337042905e-13 0 0 xy xz yz

Masses

1 1
2 1
3 0.1
4 0.1

Bond Coeffs # harmonic/omp

1 100 0.45

Angle Coeffs # harmonic/omp

1 100 180
2 100 109.471

Atoms # full

1229 360 4 0 -8.273047631528884 -11.784080018715098 -11.79459535282606 9 0 0
2517 789 4 0 -7.887734600645109 -11.914188924216084 -11.684966113596902 9 0 0
823 225 2 0 -4.2742166200404865 -11.456402742281103 -11.91483940420575 13 0 0
824 225 4 0 -3.8729456081041604 -11.314766941913511 -11.827295861646126 13 0 0
391 81 2 0 -3.072353400030172 -11.003115126866767 -11.903843785247759 13 0 0
392 81 4 0 -3.5084407988559327 -11.152242876154837 -11.901343103425322 13 0 0
393 81 4 0 -2.6531873113039186 -10.872814451394857 -11.895901506097184 13 0 0
2879 910 4 0 -0.22938746117179143 -10.985735388976858 -11.657488156452931 13 0 0
4542 1464 4 0 -6.426474929491818 -9.179031620057467 -11.2879142745101 28 1 1
4540 1464 2 0 -6.198156868517436 -9.516119239813273 -11.412389200597133 28 1 1
4541 1464 4 0 -5.961315813526696 -9.883594729497709 -11.543899376555885 28 1 1
1872 574 4 0 -5.771082546171865 -9.809390174106435 -11.88313804595897 29 1 0
3719 1190 4 0 -10.338698426835219 -8.772632244677242 -11.463889099915637 32 1 0
3718 1190 2 0 -10.634202100107416 -8.800435123423616 -11.115179027318876 32 1 0
3647 1166 4 0 -10.0039963593964 -8.584060686255807 -11.470959040432774 12 0 0
3646 1166 2 0 -9.80276838750727 -8.196389084076623 -11.547807219798749 12 0 0
3648 1166 4 0 -9.610918109385732 -7.798414937787722 -11.621443482870012 12 0 0
3596 1149 4 0 -9.461881339413322 -7.605538079694491 -11.916633730185513 14 0 0
1014 288 4 0 -4.889460774976505 -7.439165684097514 -11.292601704854485 10 0 0
345 69 3 0 -11.872634609999439 -6.48103426049797 -11.063229350978325 30 1 1
380 77 4 0 -4.86307638122858 -7.085758365094805 -11.465172021858482 14 0 0
2072 641 4 0 -11.337991868848306 -6.105932087075267 -11.536437780613946 14 0 1
343 69 3 0 -11.362663328982256 -5.9528121068691 -11.166789180437213 30 1 1
507 119 4 0 -6.49231518148201 -6.239485461462873 -11.039010741041714 16 0 0
2799 883 4 0 -4.040031742800067 -3.6851435869882945 -11.747110905398838 20 0 0
3088 980 2 0 -9.444537833395474 -3.2369551518970034 -11.868828252990207 16 0 1
2660 837 4 0 -8.631136882898007 -3.2633076895405413 -11.658103143720858 16 0 0
3090 980 4 0 -9.013797540577553 -3.174519487359225 -11.744555050906236 16 0 1
2659 837 2 0 -8.235862478526112 -3.104152648090844 -11.561840907402678 16 0 0
2661 837 4 0 -7.8066855606005605 -2.9353234433793336 -11.46192427977362 16 0 0
858 236 4 0 -7.515863583499955 -3.2249989050937735 -11.486479265820517 17 0 0
1532 461 4 0 -6.507954974084007 -3.5981624511692143 -11.790374637696647 19 0 0
856 236 2 0 -7.0619070625206675 -3.2385912007974564 -11.525069205292354 17 0 0
857 236 4 0 -6.614342532017848 -3.266917098502862 -11.560362946765359 17 0 0
1531 461 2 0 -6.051568198874936 -3.580280426301405 -11.770034118399021 19 0 0
1533 461 4 0 -5.628998202432805 -3.5609799296351934 -11.74319194320699 19 0 0
3919 1257 2 0 -4.769038830568472 -3.5360220575739874 -11.859743841682782 41 1 0
3921 1257 4 0 -5.204782010403168 -3.5118572678933937 -11.758811853458162 41 1 0
2797 883 2 0 -3.6246709968819477 -3.6235502380353832 -11.539390188426827 20 0 0
2798 883 4 0 -3.193754819981992 -3.561863871229262 -11.326307751450784 20 0 0
654 168 4 0 -2.842389844082925 -3.4946542845200135 -11.088827838326042 3 -1 0
4375 1409 2 0 -11.635034419791124 -2.6081582035168207 -11.79569086834695 18 0 1
2400 750 4 0 -11.239409342544848 -1.1010387912477189 -11.847509763020732 20 0 1
218 44 3 0 -5.637833082734215 -1.8055654332414584 -11.840349486859882 18 0 0
1253 368 4 0 -5.422841662054239 -1.767028547783113 -11.51116421338233 16 0 1
1252 368 2 0 -5.079100412515327 -1.7774800962291177 -11.246464806525283 16 0 1
2459 770 4 0 -11.355858872282981 -0.8525627221827268 -11.56212694598378 22 0 1
2458 770 2 0 -11.42859354181215 -0.6729228048798284 -11.178798656274232 22 0 1
874 242 2 0 -10.459741813159544 -11.570200018369556 -10.351173024715944 7 0 0
876 242 4 0 -10.863184002124882 -11.785209423501156 -10.405556288940701 7 0 0
1395 415 4 0 -9.68131014769316 -11.510656004372251 -10.282872648041666 7 0 0
875 242 4 0 -10.062818909761452 -11.374740082858658 -10.292762169287325 7 0 0
3372 1074 4 0 -11.15087311328859 -8.511582770457744 -10.659143751218295 16 0 1
3720 1190 4 0 -10.936070864377903 -8.826735209377121 -10.761219298808017 32 1 0
1713 521 4 0 -3.0990495084221994 -8.349968680586413 -10.257506251954267 28 1 0
3370 1074 2 0 -11.36051903262399 -8.237777677650852 -10.346965850747072 16 0 1
4554 1468 4 0 -5.297757330743147 -7.5390766302826675 -10.141805732461393 31 1 0
1013 288 4 0 -5.2927462281317235 -7.704486838460084 -10.518522140130434 10 0 0
1012 288 2 0 -5.087872575273905 -7.568516841405787 -10.906534050908357 10 0 0
344 69 3 0 -11.277832684906716 -6.456793461271486 -10.63227133001093 30 1 1
885 245 4 0 -11.154823103179513 -6.539262706779792 -10.269448758815123 17 0 0
4071 1307 4 0 -2.55179006221646 -7.0064153509073615 -10.218156544690961 31 1 0
1311 387 4 0 -2.1571882400553832 -7.046309543062373 -10.228483612525151 8 0 0
342 69 3 0 -11.797493954170235 -5.929222160713801 -10.551181904803427 30 1 1
341 69 1 0 -11.57369227284105 -6.205412533857821 -10.853964852776185 30 1 1
505 119 2 0 -6.3784393631511325 -5.793369677153131 -10.986725203863276 16 0 0
506 119 4 0 -6.269893789087847 -5.379397564199729 -10.922440975346161 16 0 0
1439 430 4 0 -6.051757406196701 -5.302373696689671 -10.621206277546513 16 0 0
1438 430 2 0 -5.725253841311426 -5.176628692063782 -10.314539752732562 16 0 0
652 168 2 0 -2.6740865439832024 -3.095378525393956 -10.925144974605642 3 -1 0
2258 703 4 0 -11.116438235462189 -1.8797146568265806 -10.120550748289176 24 0 1
1267 373 2 0 -10.306566712397718 -1.991330257010766 -10.33969227586341 3 -1 1
1268 373 4 0 -10.733525246593492 -1.9482430249209202 -10.186945978441841 3 -1 1
1269 373 4 0 -9.875222472625687 -2.0408172758322802 -10.491092033827048 3 -1 1
4042 1298 2 0 -3.047482452250435 -2.061690534296501 -10.666536800597566 18 0 1
4044 1298 4 0 -2.76206976883665 -2.392404861023742 -10.775104942675181 18 0 1
653 168 4 0 -2.5050228396811143 -2.692357578936109 -10.748710456595914 3 -1 0
2257 703 2 0 -11.357513404761178 -1.5078394956511136 -10.152802844357748 24 0 1
2259 703 4 0 -11.600891448200402 -1.1208810697973544 -10.178360940522955 24 0 1
2462 771 4 0 -9.71517536720101 -1.6957948081405032 -10.391841214211714 24 0 1
2461 771 2 0 -9.292903943834979 -1.7208261126816442 -10.584646512904369 24 0 1
2463 771 4 0 -8.905836133332896 -1.7460044561204349 -10.759467517355139 24 0 1
384 78 4 0 -8.562824200323538 -1.5568757909241846 -10.813279085389722 24 0 0
382 78 2 0 -8.17594907978239 -1.64235951447872 -10.602586176480385 24 0 0
383 78 4 0 -7.789239317014657 -1.7330197492186024 -10.392379773427479 24 0 0
2532 794 4 0 -7.481924818874947 -1.4919416776970476 -10.557322989042081 27 0 0
2530 794 2 0 -7.146558644984554 -1.2637210619162094 -10.749119958829114 27 0 0
2531 794 4 0 -6.812924222625494 -1.0374173284892567 -10.934270839356179 27 0 0
1254 368 4 0 -4.7129070342192785 -1.7874402244606422 -10.973468412719592 16 0 1
3480 1110 4 0 -4.533865125571653 -1.6211951587300764 -10.614181479176949 18 0 1
3478 1110 2 0 -4.107415804690224 -1.59980921150904 -10.65981945007603 18 0 1
3479 1110 4 0 -3.6565126009904745 -1.5732789538206493 -10.704754629330775 18 0 1
4043 1298 4 0 -3.324204124204753 -1.7417753817168755 -10.558078152228298 18 0 1
3258 1036 4 0 -11.746598116215937 -0.16571351333515416 -10.772237390785218 21 0 1
2460 770 4 0 -11.507218603992182 -0.48341515376845123 -10.77713631631224 22 0 1
2790 880 4 0 -5.682704560403638 -0.07236298233606853 -10.2699285537293 25 0 0
1393 415 2 0 -9.330874525326044 -11.624917846333423 -10.059104444075045 7 0 0
1394 415 4 0 -8.950281640213575 -11.742197770379276 -9.829024126416671 7 0 0
1712 521 4 0 -2.7727923813524065 -8.99359412957971 -9.645138957179617 28 1 0
1711 521 2 0 -2.9301139929731317 -8.677860155201833 -9.944786702784494 28 1 0
2652 834 4 0 -2.4874650097969333 -8.871560839588819 -9.414321972256237 8 0 0
3371 1074 4 0 -11.571604824481089 -7.9381708188161 -10.020894175557414 16 0 1
1325 392 4 0 -11.81467471174543 -7.616635305584521 -9.990341720574586 13 0 1
4552 1468 2 0 -4.965633560501807 -7.559061310565894 -9.822871107672277 31 1 0
4553 1468 4 0 -4.6310499545174695 -7.5830411551060335 -9.51701520695674 31 1 0
2007 619 4 0 -4.324421508987135 -7.348200669155276 -9.439951176643316 30 1 0
2005 619 2 0 -3.9024674323469757 -7.340399194557538 -9.615764201959827 30 1 0
2006 619 4 0 -3.49751701767501 -7.338284760105234 -9.783321530796064 30 1 0
4069 1307 2 0 -2.9575076913456098 -6.992192990473302 -10.027624458424288 31 1 0
4070 1307 4 0 -3.357724826035941 -6.968748635327134 -9.825712833409554 31 1 0
1309 387 2 0 -1.7628300843459623 -7.015162060205162 -9.966397312584348 8 0 0
1310 387 4 0 -1.3708838076006913 -6.9859769992721965 -9.712944019275868 8 0 0
3572 1141 4 0 -1.3463919739438133 -6.6958467899825465 -9.435255416986115 10 0 0
883 245 2 0 -10.898505147351006 -6.407226861006097 -9.948561425493995 17 0 0
884 245 4 0 -10.62004656932659 -6.2676165315595025 -9.60315282690142 17 0 0
464 105 4 0 -5.583136889110799 -4.9672064709550146 -9.663529381008562 13 0 0
1440 430 4 0 -5.423567400408165 -5.04975463902899 -10.014990615127632 16 0 0
463 105 2 0 -5.3363782795215355 -5.127962902091394 -9.309183508644091 13 0 0
2569 807 2 0 -11.558314461735467 -3.6814918388428115 -9.357018444842257 16 0 0
2570 807 4 0 -11.831488739754809 -3.7896342239524543 -9.687814341246893 16 0 0
2596 816 2 0 -0.8030780525038139 -3.8454063780633447 -9.243779311702367 10 0 0
2598 816 4 0 -0.7759241731745803 -4.074721471543487 -9.643615089237112 10 0 0
3627 1159 4 0 -11.499211295578752 -0.7762707263431388 -9.939843726607574 24 0 0
3625 1159 2 0 -11.728150592023253 -0.48867367759875435 -9.658429288395743 24 0 0
4116 1322 4 0 -6.305603480197618 -0.5597777124320817 -9.289324103344116 23 0 0
2789 880 4 0 -6.241296290314616 -0.26843190964212305 -9.60050079827858 25 0 0
2788 880 2 0 -5.966237895265212 -0.16954272708993123 -9.936539565366072 25 0 0
2011 621 2 0 -2.1658068911638004 -10.148307858824742 -8.277711760533078 28 1 0
2651 834 4 0 -2.2943965548193574 -9.48821973905066 -8.784587123406649 8 0 0
2012 621 4 0 -2.2749075959438922 -9.859288915913739 -8.61424082460512 28 1 0
2650 834 2 0 -2.384238853570764 -9.188662099388072 -9.095066534416116 8 0 0
3571 1141 2 0 -1.1373909140667937 -6.73731607357713 -9.031139712871088 10 0 0
3573 1141 4 0 -0.9247145501301048 -6.794082217907974 -8.600640910358909 10 0 0
4398 1416 4 0 -0.6894707154308719 -6.567714980388224 -8.387287627641497 12 0 0
465 105 4 0 -5.089707446577202 -5.2798328501152545 -8.941951684307115 13 0 0
1094 315 4 0 -4.879520399056214 -5.418441631297975 -8.634049407936152 16 0 1
1093 315 2 0 -4.397754683791367 -5.430700037246504 -8.681668791641144 16 0 1
1095 315 4 0 -3.954482867824492 -5.43298295313178 -8.72873272174299 16 0 1
399 83 4 0 -3.755728077315153 -5.179952530387295 -8.973359491799144 16 0 0
397 83 2 0 -3.473950155859166 -4.863271297189604 -8.748581141677082 16 0 0
3296 1049 4 0 -9.540036937793975 -3.7391091732389423 -8.336646447826478 13 0 0
4223 1358 4 0 -9.42548572353924 -4.125288099983926 -8.257596269232552 34 1 1
398 83 4 0 -3.219789001492815 -4.5654492399503015 -8.550270960561894 16 0 0
3408 1086 4 0 -2.864404668222118 -4.403884776217062 -8.462841365068417 16 0 1
3406 1086 2 0 -2.6358340500238153 -3.9750057736918105 -8.504243128742672 16 0 1
2541 797 4 0 -11.182497482785216 -3.1961250355966655 -8.95147133802776 16 0 0
2571 807 4 0 -11.295736462676688 -3.5815253226044454 -9.033699440529455 16 0 0
2539 797 2 0 -10.82045779072227 -3.0200679727631794 -8.807638478622344 16 0 0
3297 1049 4 0 -10.114504174470364 -3.0972892147595914 -8.612060763332398 13 0 0
2540 797 4 0 -10.430004192564319 -2.8486706406852758 -8.653945661901217 16 0 0
3295 1049 2 0 -9.819656186611327 -3.4271279583004493 -8.47068534886867 13 0 0
3407 1086 4 0 -2.4084609038076117 -3.5722275383641016 -8.536826363043035 16 0 1
4137 1329 4 0 -2.0547127022939478 -3.4066125432027565 -8.450760450103955 15 0 1
4135 1329 2 0 -1.623684320461038 -3.4649340457954345 -8.560934123214476 15 0 1
4136 1329 4 0 -1.1709186582887074 -3.519380995790682 -8.67591000152885 15 0 1
2597 816 4 0 -0.8350711561303594 -3.6144696519331614 -8.85070087751293 10 0 0
595 149 2 0 -9.352909949555091 -1.5203557995360377 -8.384659650780689 16 0 0
596 149 4 0 -8.978948898671229 -1.4603121051057482 -8.643906134420298 16 0 0
3227 1026 4 0 -8.636993509457877 -1.3654150310168536 -8.449792774897263 20 0 0
3226 1026 2 0 -8.187957279380761 -1.3216266000935573 -8.352275113526947 20 0 0
3228 1026 4 0 -7.766836210000738 -1.2797145311998115 -8.264018556950958 20 0 0
4334 1395 4 0 -10.35042950756582 -0.18047724353850292 -9.14538389678262 19 0 1
4333 1395 2 0 -10.296004749307759 -0.20941031381410902 -8.721887408252021 19 0 1
4114 1322 2 0 -6.335678146839109 -0.3448929978686426 -8.892852189102511 23 0 0
4115 1322 4 0 -6.376507212888877 -0.11775903354451778 -8.4829205508811 23 0 0
2013 621 4 0 -2.0662842884229544 -10.445986199229607 -7.933090636811254 28 1 0
1637 496 4 0 -1.6768672955371677 -10.504570088422518 -7.860115266622029 27 1 0
1636 496 2 0 -1.3224826737019342 -10.480748057225265 -7.591767702462251 27 1 0
3917 1256 4 0 -0.7914134594937359 -10.821894478356832 -7.354096842539424 29 1 0
4396 1416 2 0 -0.5502100090483175 -6.421107005476858 -7.989911700422106 12 0 0
4397 1416 4 0 -0.4107689783862689 -6.268418906383691 -7.58744868727913 12 0 0
1837 563 2 0 -11.689836286373806 -5.34356467376636 -8.238719150208352 32 1 0
1839 563 4 0 -11.227934377112254 -5.396248513796404 -8.24510237753912 32 1 0
699 183 4 0 -11.013435781843707 -5.206001242571562 -7.946109657584346 13 0 0
697 183 2 0 -10.601964028980786 -5.064079788522761 -8.054762808141056 13 0 0
698 183 4 0 -10.193541317632373 -4.924456707689765 -8.16920204842165 13 0 0
4224 1358 4 0 -9.936264057224518 -4.815109018769461 -7.895045464882824 34 1 1
4222 1358 2 0 -9.685720808604241 -4.47215286936571 -8.073112031408648 34 1 1
618 156 4 0 -11.611348101044385 -3.2222805672288235 -7.4117461614575415 9 0 0
2962 938 2 0 -11.010404873077993 -2.752537305687209 -7.533287779230026 19 0 0
2964 938 4 0 -10.62934626663524 -2.5891773982199293 -7.747722021287198 19 0 0
3867 1239 4 0 -10.229733543974323 -2.6056537328385243 -7.814442956766073 19 0 0
3865 1239 2 0 -9.942846428927083 -2.2665289778706192 -7.868638436157537 19 0 0
3866 1239 4 0 -9.661662318066638 -1.9267334944599295 -7.927904695128689 19 0 0
597 149 4 0 -9.73746345279392 -1.5815759312065847 -8.115857495386702 16 0 0
3873 1241 4 0 -7.533891636645115 -1.1216620450689607 -7.965600559369912 21 0 0
3871 1241 2 0 -7.249167052017535 -1.320436397618268 -7.701511514976284 21 0 0
3872 1241 4 0 -6.962221840742696 -1.5181144240561917 -7.4366756092571205 21 0 0
3045 965 4 0 -11.215386690106326 -0.34870050566155797 -7.41473342222845 19 0 0
3710 1187 4 0 -11.473590877294859 -0.641732738265631 -7.459542263306274 19 0 0
4335 1395 4 0 -10.240776228190295 -0.23515628498117458 -8.244671391231007 19 0 1
3043 965 2 0 -10.84395375162606 -0.37396338968564535 -7.677811387051227 19 0 0
3044 965 4 0 -10.460288814651008 -0.39462501477662926 -7.938010362940046 19 0 0
3869 1240 4 0 -2.43810434119154 -0.24607053020172565 -7.672495522698744 26 0 0
1638 496 4 0 -0.9600253355487887 -10.45485255117686 -7.320892379708555 27 1 0
3916 1256 2 0 -0.3484255963016878 -10.957414822695183 -7.232115918742989 29 1 0
4049 1300 4 0 -11.670910824467704 -7.368593026953276 -6.759714363611401 31 1 0
4048 1300 2 0 -11.234364144684264 -7.294895170364878 -6.704986281654315 31 1 0
4050 1300 4 0 -10.773524824265687 -7.213576512238374 -6.642655518961941 31 1 0
3879 1243 4 0 -10.453995182022435 -7.330082302577209 -6.509390807826957 30 1 0
3877 1243 2 0 -10.111878502373102 -7.062606817825832 -6.575336005851693 30 1 0
1706 519 4 0 -9.555075586628842 -6.608247260788839 -6.982036325401306 29 1 0
3878 1243 4 0 -9.746041975874636 -6.780819894394277 -6.650274417538091 30 1 0
1705 519 2 0 -9.17109223260357 -6.38818431493604 -7.060312113649829 29 1 0
1707 519 4 0 -8.779939358277002 -6.175021960310252 -7.144568236952122 29 1 0
1488 446 4 0 -8.405335593099824 -6.040934373441887 -7.264390349725978 9 0 0
1486 446 2 0 -8.001193268990868 -5.849333667354147 -7.28241091602812 9 0 0
1487 446 4 0 -7.590003416478801 -5.655750026552946 -7.300847657631479 9 0 0
2396 749 4 0 -7.207435730566746 -5.7423609831218485 -7.175889299546183 9 0 0
2395 749 2 0 -6.780474209835175 -5.646129924699013 -7.089038818631637 9 0 0
2397 749 4 0 -6.339041343063806 -5.548111837804647 -6.994254782555783 9 0 0
4401 1417 4 0 -0.20804844273054712 -6.1371266553408965 -7.264898545741725 12 0 0
1821 557 4 0 -5.970558293593533 -5.3565240093144215 -6.925609085923044 30 1 0
1819 557 2 0 -5.512425887633271 -5.354267606105182 -6.896647635338777 30 1 0
1820 557 4 0 -5.087103022217839 -5.347053361231809 -6.871033091967005 30 1 0
2601 817 4 0 -4.849782570022613 -5.006081395429907 -6.877398191828543 13 0 0
2599 817 2 0 -4.39782615676301 -4.905090730241065 -6.843470939505843 13 0 0
2600 817 4 0 -3.9667087922594657 -4.819477518441479 -6.825624262125668 13 0 0
2553 801 4 0 -3.626234437217521 -4.726499208811286 -6.596493720969468 13 0 0
2551 801 2 0 -3.2044126936542288 -4.5418778785285285 -6.527725402603346 13 0 0
2552 801 4 0 -2.7922328972057056 -4.358215688089004 -6.455161997616908 13 0 0
3947 1266 4 0 -2.3641054251776463 -4.343460345621929 -6.424595819709996 35 1 0
3946 1266 2 0 -1.9413815853544651 -4.201939211821099 -6.5522006252317295 35 1 0
3948 1266 4 0 -1.5243202893660879 -4.063446160454203 -6.6635064981160745 35 1 0
3128 993 4 0 -1.155242026719053 -4.096460098657236 -6.468498242876422 16 0 1
2963 938 4 0 -11.386389871698075 -2.919681139844185 -7.331386750126823 19 0 0
1580 477 4 0 -6.896092014589083 -1.7427013149016464 -7.09413695460872 22 0 0
1579 477 2 0 -7.099102051003672 -1.6875159437039908 -6.685290995731621 22 0 0
3709 1187 2 0 -11.744371148934238 -0.7573892679719858 -7.120697739955718 19 0 0
1919 590 4 0 -8.10678180273569 -0.08634313648468961 -6.753382955064175 25 0 0
4379 1410 4 0 -7.720614482166585 -0.027549471957062366 -6.850444436850767 24 0 1
3119 990 4 0 -11.743587898558916 -9.526683729721036 -5.6390559402108975 8 0 0
1091 314 4 0 -6.675777536367368 -5.894493854549508 -5.5890304669169355 8 0 1
860 237 4 0 -6.280938342116551 -5.821635218444086 -5.7474430863879045 8 0 0
1251 367 4 0 -4.928425365317964 -4.190036599326471 -5.79881818944806 11 0 0
1249 367 2 0 -5.199326150976447 -3.844792613388515 -5.686075597521581 11 0 0
1598 483 4 0 -4.601839824093717 -4.451544212813325 -5.773732975601546 31 1 0
1597 483 2 0 -4.2276396568149535 -4.559288823457661 -5.563035699642199 31 1 0
3127 993 2 0 -0.7564367134238879 -3.9636468908548803 -6.312666924425228 16 0 1
3129 993 4 0 -0.35112673788503024 -3.8384675837179536 -6.160340674118643 16 0 1
1250 367 4 0 -5.474447239624673 -3.4986154349841563 -5.567948551086736 11 0 0
153 31 3 0 -7.353514073930576 -1.864768690952376 -6.0019901362394945 20 0 0
151 31 1 0 -7.444324316380968 -1.6940448947348727 -5.582876974797261 20 0 0
154 31 3 0 -7.877301232029331 -1.6237932225067855 -5.541451187278234 20 0 0
1581 477 4 0 -7.305910239527997 -1.6274734513020963 -6.289387411746016 22 0 0
4144 1332 2 0 -6.540795841922909 -1.0114568712407692 -5.645459700522031 21 0 0
155 31 3 0 -7.225347616003721 -1.3243449504246954 -5.530222557927468 20 0 0
4145 1332 4 0 -6.967144727828492 -1.0526118821011607 -5.692185032071972 21 0 0
4146 1332 4 0 -6.0698859891349235 -0.9773225665881018 -5.599370920184697 21 0 0
2701 851 2 0 -5.404837734327266 -0.5560532904639608 -5.512341108219239 25 0 0
2703 851 4 0 -5.0733680405267885 -0.24714492503449037 -5.603126448551817 25 0 0
551 134 4 0 -9.847340115049573 -10.751955738815614 -5.275390575618286 7 0 0
550 134 2 0 -9.740191372451402 -10.392619235871068 -4.994246130344835 7 0 0
1328 393 4 0 -11.433180848762726 -9.493686270080314 -5.371558440096804 9 0 0
244 49 3 0 -10.13468374603398 -9.38287777256356 -4.8491881027832315 8 0 0
552 134 4 0 -9.63037012710694 -10.048221540510085 -4.721669764984113 7 0 0
243 49 3 0 -9.53716880089448 -9.674919148733682 -4.603371416879809 8 0 0
1327 393 2 0 -11.272421200897632 -9.163225680608413 -5.116463184816775 9 0 0
1329 393 4 0 -11.11892623464145 -8.830993602989848 -4.862562158863329 9 0 0
3786 1212 4 0 -10.734758002587393 -8.71579143238541 -4.937574530617274 8 0 0
3784 1212 2 0 -10.468322655959753 -8.345553249813136 -4.919832889453821 8 0 0
245 49 3 0 -9.564435883498298 -8.973434184948825 -4.709896305865425 8 0 0
3785 1212 4 0 -10.205141553480836 -7.9823759985270275 -4.919387363055754 8 0 0
4610 1487 4 0 -10.132354782627155 -7.593145491063606 -4.822639404158724 28 1 0
4609 1487 2 0 -9.812998425724341 -7.293818183295513 -4.6847012858752715 28 1 0
1810 554 2 0 -9.215962887049212 -6.327818661013823 -4.613952110333859 29 1 0
1811 554 4 0 -8.860958240598166 -6.044379799415208 -4.766876867669452 29 1 0
2700 850 4 0 -8.607559901839728 -5.867753572952742 -5.036130265047234 8 0 0
2698 850 2 0 -8.178730033852649 -5.762721318598281 -5.09446192137098 8 0 0
2699 850 4 0 -7.711160332425213 -5.654703569035939 -5.166221219361022 8 0 0
1092 314 4 0 -7.551240618183292 -5.958421652382368 -5.336185620830478 8 0 1
1090 314 2 0 -7.104808612670971 -5.930708983374573 -5.462227454800269 8 0 1
859 237 2 0 -5.963595375918745 -5.873610186358465 -5.431651492383163 8 0 0
861 237 4 0 -5.6341731412643465 -5.923906386028152 -5.096443553568568 8 0 0
1164 338 4 0 -5.546689844597536 -6.192694081650597 -4.853213683896741 10 0 0
2457 769 4 0 -3.7496303149313466 -6.002279013749187 -4.667010236369917 10 0 0
438 96 4 0 -3.4736646103616593 -6.038957547704395 -4.952284369679056 10 0 0
436 96 2 0 -3.042727065829295 -5.8648474193760585 -4.997082578144103 10 0 0
3293 1048 4 0 -2.227199089085685 -5.561255073638807 -4.918284968531943 12 0 0
437 96 4 0 -2.6004705100655716 -5.692081887431883 -5.027945240639693 10 0 0
3288 1046 4 0 -1.0716540555501517 -5.666508098674232 -5.431059044171787 8 0 0
3286 1046 2 0 -0.6063137463413124 -5.640429312667283 -5.341014973420629 8 0 0
3287 1046 4 0 -0.16706877069515258 -5.6015052400703835 -5.244684652847835 8 0 0
1911 587 4 0 -0.016909488120914418 -5.532571110040694 -4.870336433100015 9 0 0
3993 1281 4 0 -11.646104797024591 -4.864615276776446 -5.112334618509754 34 1 0
3991 1281 2 0 -11.21512610261038 -4.704212910347006 -5.054751021301372 34 1 0
1119 323 4 0 -10.464519470045888 -4.611183510305574 -5.1770968963520145 12 0 1
1117 323 2 0 -10.137080152435537 -4.7611795028493855 -4.890995115206923 12 0 1
4647 1499 4 0 -9.380122700640358 -4.931278861465584 -4.646693316354826 12 0 0
1118 323 4 0 -9.818986744604944 -4.906282814265127 -4.612290136970215 12 0 1
4645 1499 2 0 -8.985234853905435 -4.735710577016545 -4.717150165683508 12 0 0
3196 1016 2 0 -7.842394203462084 -4.60711565423026 -4.673443758768674 12 0 0
1599 483 4 0 -3.8313970289650108 -4.668033163174831 -5.331300945618018 31 1 0
376 76 2 0 -3.265781996850416 -4.632477643123205 -5.016473266005215 11 0 0
377 76 4 0 -3.0792265070910574 -4.703760148963548 -4.612277077019507 11 0 0
3292 1048 2 0 -1.8063530199823123 -5.492046334444099 -5.113948087953268 12 0 0
3294 1048 4 0 -1.353931835717372 -5.422522818012546 -5.306816986099294 12 0 0
3992 1281 4 0 -10.801833483459044 -4.538888213294332 -4.995369071965962 34 1 0
4646 1499 4 0 -8.563404913286668 -4.527345624150045 -4.796237422673454 12 0 0
3198 1016 4 0 -7.418312790148351 -4.507791953358587 -4.783289964097383 12 0 0
864 238 4 0 -7.061129991643354 -4.569724480322031 -4.944235725022762 11 0 0
862 238 2 0 -6.670410103729899 -4.477678648171851 -4.787474428056151 11 0 0
863 238 4 0 -6.246899520476193 -4.3804140036031916 -4.631314692059331 11 0 0
378 76 4 0 -3.4382094093572793 -4.564292000450753 -5.418118215583645 11 0 0
1710 520 4 0 -5.823827850741481 -3.3558116976516708 -5.428837006149479 31 1 0
1708 520 2 0 -5.812589493197925 -3.14855685588158 -5.031776357694051 31 1 0
1709 520 4 0 -5.8132156757258135 -2.9534475627574928 -4.623157438563897 31 1 0
1344 398 4 0 -3.789071329295373 -3.403507094745658 -4.654210168422313 12 0 1
1342 398 2 0 -3.426790444694852 -3.1140540550513727 -4.675440702801233 12 0 1
1343 398 4 0 -3.0727848324056897 -2.8383437421077335 -4.7120507347404965 12 0 1
3057 969 4 0 -1.926272125316336 -2.8085844523658796 -4.866081669439243 13 0 0
4272 1374 4 0 -1.5421916782750245 -2.8716174370128673 -4.824781936132847 35 1 1
4270 1374 2 0 -1.1534546932378564 -3.1189466050937487 -4.840995226677335 35 1 1
181 37 1 0 -0.04568862376739524 -3.302808598033371 -4.969067559838791 33 1 1
4271 1374 4 0 -0.7681097428941026 -3.3606223822600594 -4.859906393689039 35 1 1
183 37 3 0 -0.4555394675685278 -3.392140358170538 -5.1292975681226824 33 1 1
683 178 4 0 -11.397638855450833 -1.9885057562547903 -5.3955125028452935 20 0 0
682 178 2 0 -10.954785068963705 -1.958123859276581 -5.25184694183647 20 0 0
684 178 4 0 -10.515005707254819 -1.9138872443310042 -5.129303470660197 20 0 0
15 3 3 0 -10.139871280471997 -1.89839241025701 -5.235060170094745 20 0 0
12 3 3 0 -9.444978913266185 -1.9846909740852627 -5.0449162904434965 20 0 0
2573 808 4 0 -9.08747142441236 -1.8353125168547741 -5.21564245699803 21 0 0
152 31 3 0 -7.314599102742612 -2.0061861373746623 -5.275940539826718 20 0 0
561 137 4 0 -7.267511092805847 -2.0990600675013056 -4.89112108416925 20 0 0
3056 969 4 0 -2.791553454980253 -2.607720432770833 -4.916883592179111 13 0 0
3055 969 2 0 -2.367853218782651 -2.7017249505458274 -4.886833046924092 13 0 0
2762 871 4 0 -11.746135354344286 -1.8273360420680778 -5.275156346694868 15 0 0
13 3 3 0 -9.861589116435267 -1.6798660190234216 -4.5972651661403505 20 0 0
11 3 1 0 -9.76232691236655 -1.7229741356054262 -5.008936102505225 20 0 0
14 3 3 0 -9.648353104764166 -1.3421411136407784 -5.183948053662164 20 0 0
3075 975 4 0 -9.565322760317555 -0.9469374234690591 -5.244694175826959 21 0 1
2572 808 2 0 -8.670141041093986 -1.6680041702743758 -5.349452357387339 21 0 0
2574 808 4 0 -8.280739121392704 -1.520611815680919 -5.463458502789687 21 0 0
3073 975 2 0 -9.306508195263712 -0.7323842688145028 -4.951207172326101 21 0 1
3074 975 4 0 -9.054357667125583 -0.5240530813760831 -4.653745397030225 21 0 1
2702 851 4 0 -5.738361804254005 -0.8454645658527546 -5.422830584850886 25 0 0
1248 366 4 0 -11.763857008582674 -11.465789783041782 -3.8536869052716245 8 0 0
1246 366 2 0 -11.393102391245339 -11.49682399363907 -4.114001523253483 8 0 0
1247 366 4 0 -11.008993459612066 -11.51691541922502 -4.369720809300189 8 0 0
2229 693 4 0 -10.689363520630312 -11.77707007075855 -4.394230753439037 8 0 1
2227 693 2 0 -10.272664301342479 -11.866138466261175 -4.281912242330155 8 0 1
241 49 1 0 -9.793224507252628 -9.328178172426702 -4.579817149355102 8 0 0
242 49 3 0 -9.934599690124665 -9.281210870223134 -4.176908923234661 8 0 0
3306 1052 4 0 -10.306544565816965 -9.118026973765998 -4.102941457191983 8 0 0
3304 1052 2 0 -10.606276325347492 -9.123828885931315 -3.754939558612307 8 0 0
3788 1213 4 0 -9.351271973564728 -8.79546985703777 -4.4213488694629435 28 1 0
3787 1213 2 0 -9.081066053878498 -8.484518892883449 -4.2805054646024745 28 1 0
2638 830 2 0 -3.8079948094434197 -8.675504404932243 -3.7162595310498183 8 0 0
2640 830 4 0 -3.5446521997011384 -8.320276210845464 -3.821000920476525 8 0 0
3789 1213 4 0 -8.813635254719479 -8.182098562537432 -4.138142264216899 28 1 0
4020 1290 4 0 -8.669993684038047 -7.825896073313731 -4.045755398171974 7 0 0
4018 1290 2 0 -8.3297613934512 -7.58807105481457 -3.9265005186933353 7 0 0
4019 1290 4 0 -7.9769173673688325 -7.352404393227971 -3.8094812321473235 7 0 0
3678 1176 4 0 -3.2540808376793002 -8.083157974648548 -3.679159276267919 30 1 0
1812 554 4 0 -9.5727263811668 -6.600580150883629 -4.470457337699651 29 1 0
4611 1487 4 0 -9.498578802788808 -6.987962834812289 -4.546927749075944 28 1 0
4430 1427 4 0 -7.004682673683322 -6.965444848398845 -3.8253920750015027 28 1 0
2474 775 4 0 -6.621671304380603 -7.114856742645132 -3.917485054677817 29 1 0
2473 775 2 0 -6.280334915441858 -6.932614064719585 -3.717452601903286 29 1 0
3955 1269 2 0 -8.985877034292999 -5.561255656869243 -3.757120568743824 32 1 0
1162 338 2 0 -5.238272551561835 -6.063380638349069 -4.553789251219842 10 0 0
1163 338 4 0 -4.939320869901824 -5.939790089714901 -4.26732899273609 10 0 0
2456 769 4 0 -4.570814794411477 -5.864005735635494 -4.3629206146071295 10 0 0
2455 769 2 0 -4.142129929457912 -5.931303224424981 -4.521468993984474 10 0 0
3957 1269 4 0 -9.173170192265973 -5.333404206272848 -4.082846879918741 32 1 0
3197 1016 4 0 -8.287542869049906 -4.7213768509276175 -4.553310662949978 12 0 0
2781 877 4 0 -5.988456248659184 -4.1978107036900685 -4.400389314021222 11 0 0
2779 877 2 0 -5.559708327728273 -4.033336557937677 -4.431056797018052 11 0 0
4212 1354 4 0 -4.7719596931744785 -3.980651130465306 -4.522072203058384 33 1 1
2780 877 4 0 -5.149020496546851 -3.8832086415255382 -4.454806003810486 11 0 0
4210 1354 2 0 -4.473339820459894 -3.6637587410024732 -4.516135019892193 33 1 1
4211 1354 4 0 -4.1615432477142305 -3.3448653216517457 -4.501728841953033 33 1 1
182 37 3 0 -0.07846889648879873 -3.0632150973866388 -4.578538868322098 33 1 1
559 137 2 0 -7.386760989111834 -2.0057402350702738 -4.468398485181257 20 0 0
560 137 4 0 -7.4921442505368985 -1.9071083291808186 -4.064522096582063 20 0 0
3054 968 4 0 -5.789676080549217 -2.6003451225173553 -4.435651494397081 16 0 0
3052 968 2 0 -5.59077728847947 -2.2184719189655144 -4.284625575072284 16 0 0
3053 968 4 0 -5.386398488927032 -1.8389747271012453 -4.125790615964533 16 0 0
411 87 4 0 -4.988704696904717 -1.8596277617676922 -4.028191033765077 17 0 0