LAMMPS (27 Jun 2024)
OMP_NUM_THREADS environment is not set. Defaulting to 1 thread. (src/comm.cpp:98)
  using 1 OpenMP thread(s) per MPI task
# Compute elastic constant tensor for a crystal
#
# Written by Aidan Thompson (Sandia, athomps@sandia.gov)
#
#  This script uses the following three include files.
#
#   init.mod      (must be modified for different crystal structures)
# 	       	  Define units, deformation parameters and initial
#		  configuration of the atoms and simulation cell.
#
#
#   potential.mod    (must be modified for different pair styles)
# 		     Define pair style and other attributes
#		     not stored in restart file
#
#
#   displace.mod    (displace.mod should not need to be modified)
# 		    Perform positive and negative box displacements
# 		    in direction ${dir} and size ${up}.
# 		    It uses the resultant changes
#		    in stress to compute one
# 		    row of the elastic stiffness tensor
#
#		    Inputs variables:
#		    	   dir = the Voigt deformation component
#		    		    (1,2,3,4,5,6)
#		    Global constants:
#       	    	   up = the deformation magnitude (strain units)
#       		   cfac = conversion from LAMMPS pressure units to
#               	   output units for elastic constants
#
#
#  To run this on a different system, it should only be necessary to
#  modify the files init.mod and potential.mod. In order to calculate
#  the elastic constants correctly, care must be taken to specify
#  the correct units in init.mod (units, cfac and cunits). It is also
#  important to verify that the minimization of energy w.r.t atom
#  positions in the deformed cell is fully converged.
#  One indication of this is that the elastic constants are insensitive
#  to the choice of the variable ${up} in init.mod. Another is to check
#  the final max and two-norm forces reported in the log file. If you know
#  that minimization is not required, you can set maxiter = 0.0 in
#  init.mod.
#

include init.mod
# NOTE: This script can be modified for different atomic structures,
# units, etc. See in.elastic for more info.
#

# Define the finite deformation size. Try several values of this
# variable to verify that results do not depend on it.
variable up equal 1.0e-6

# Define the amount of random jiggle for atoms
# This prevents atoms from staying on saddle points
variable atomjiggle equal 1.0e-5

# Uncomment one of these blocks, depending on what units
# you are using in LAMMPS and for output

# metal units, elastic constants in eV/A^3
#units		metal
#variable cfac equal 6.2414e-7
#variable cunits string eV/A^3

# metal units, elastic constants in GPa
units		metal
variable cfac equal 1.0e-4
variable cunits string GPa

# real units, elastic constants in GPa
#units		real
#variable cfac equal 1.01325e-4
#variable cunits string GPa

# Define minimization parameters
variable etol equal 0.0
variable ftol equal 1.0e-10
variable maxiter equal 100
variable maxeval equal 1000
variable dmax equal 1.0e-2

# generate the box and atom positions using a diamond lattice
variable a equal 5.43

boundary	p p p

lattice         diamond $a
lattice         diamond 5.43
Lattice spacing in x,y,z = 5.43 5.43 5.43
region		box prism 0 2.0 0 3.0 0 4.0 0.0 0.0 0.0
create_box	1 box
Created triclinic box = (0 0 0) to (10.86 16.29 21.72) with tilt (0 0 0)
  1 by 1 by 1 MPI processor grid
create_atoms	1 box
Created 192 atoms
  using lattice units in triclinic box = (0 0 0) to (10.86 16.29 21.72) with tilt (0 0 0)
  create_atoms CPU = 0.001 seconds

# Need to set mass to something, just to satisfy LAMMPS
mass 1 1.0e-20

include potential.mod
# NOTE: This script can be modified for different pair styles
# See in.elastic for more info.

# Choose potential
pair_style	sw
pair_coeff * * Si.sw Si
Reading sw potential file Si.sw with DATE: 2007-06-11

# Setup neighbor style
neighbor 1.0 nsq
neigh_modify once no every 1 delay 0 check yes

# Setup minimization style
min_style	     cg
min_modify	     dmax ${dmax} line quadratic
min_modify	     dmax 0.01 line quadratic

# Setup output
thermo		1
thermo_style custom step temp pe press pxx pyy pzz pxy pxz pyz lx ly lz vol
thermo_modify norm no

# Compute initial state
fix 3 all box/relax  aniso 0.0
minimize ${etol} ${ftol} ${maxiter} ${maxeval}
minimize 0 ${ftol} ${maxiter} ${maxeval}
minimize 0 1e-10 ${maxiter} ${maxeval}
minimize 0 1e-10 100 ${maxeval}
minimize 0 1e-10 100 1000
Neighbor list info ...
  update: every = 1 steps, delay = 0 steps, check = yes
  max neighbors/atom: 2000, page size: 100000
  master list distance cutoff = 4.77118
  ghost atom cutoff = 4.77118
  1 neighbor lists, perpetual/occasional/extra = 1 0 0
  (1) pair sw, perpetual
      attributes: full, newton on
      pair build: full/nsq
      stencil: none
      bin: none
WARNING: Energy due to 3 extra global DOFs will be included in minimizer energies
 (src/min.cpp:219)
Per MPI rank memory allocation (min/avg/max) = 4.178 | 4.178 | 4.178 Mbytes
   Step          Temp          PotEng         Press           Pxx            Pyy            Pzz            Pxy            Pxz            Pyz             Lx             Ly             Lz           Volume    
         0   0             -832.62686      532.56802      532.56802      532.56802      532.56802      2.309951e-11  -1.0106178e-11  6.7391516e-12  10.86          16.29          21.72          3842.4722    
         1   0             -832.62714      227.98084      227.98084      227.98084      227.98084      2.8701459e-10 -1.0031341e-10  4.7146836e-11  10.861086      16.291629      21.722172      3843.625     
         2   0             -832.6272      -0.016514738   -0.016514738   -0.016514738   -0.016514738   -4.8086135e-11  1.0021046e-10 -4.2157868e-11  10.8619        16.292849      21.723799      3844.4889    
         3   0             -832.6272      -1.8901541e-06 -1.8901704e-06 -1.8901198e-06 -1.8901721e-06  1.651315e-10   2.6639791e-11 -3.1664045e-10  10.8619        16.292849      21.723799      3844.4888    
         4   0             -832.6272      -4.1060377e-11 -2.2709669e-11 -8.800783e-11  -1.2463631e-11  5.9162573e-10  1.2434231e-10 -2.2833446e-10  10.8619        16.292849      21.723799      3844.4888    
Loop time of 0.000963766 on 1 procs for 4 steps with 192 atoms

50.0% CPU use with 1 MPI tasks x 1 OpenMP threads

Minimization stats:
  Stopping criterion = force tolerance
  Energy initial, next-to-last, final = 
     -832.626864929171  -832.627199984116  -832.627199984116
  Force two-norm initial, final = 2.2122596 6.8156127e-13
  Force max component initial, final = 1.2772487 2.111415e-13
  Final line search alpha, max atom move = 1 2.111415e-13
  Iterations, force evaluations = 4 7

MPI task timing breakdown:
Section |  min time  |  avg time  |  max time  |%varavg| %total
---------------------------------------------------------------
Pair    | 0.00076187 | 0.00076187 | 0.00076187 |   0.0 | 79.05
Neigh   | 0          | 0          | 0          |   0.0 |  0.00
Comm    | 1.6583e-05 | 1.6583e-05 | 1.6583e-05 |   0.0 |  1.72
Output  | 8.1703e-05 | 8.1703e-05 | 8.1703e-05 |   0.0 |  8.48
Modify  | 0          | 0          | 0          |   0.0 |  0.00
Other   |            | 0.0001036  |            |       | 10.75

Nlocal:            192 ave         192 max         192 min
Histogram: 1 0 0 0 0 0 0 0 0 0
Nghost:            634 ave         634 max         634 min
Histogram: 1 0 0 0 0 0 0 0 0 0
Neighs:              0 ave           0 max           0 min
Histogram: 1 0 0 0 0 0 0 0 0 0
FullNghs:         5376 ave        5376 max        5376 min
Histogram: 1 0 0 0 0 0 0 0 0 0

Total # of neighbors = 5376
Ave neighs/atom = 28
Neighbor list builds = 0
Dangerous builds = 0

variable tmp equal pxx
variable pxx0 equal ${tmp}
variable pxx0 equal -2.2709669199827e-11
variable tmp equal pyy
variable pyy0 equal ${tmp}
variable pyy0 equal -8.80078301266904e-11
variable tmp equal pzz
variable pzz0 equal ${tmp}
variable pzz0 equal -1.24636314952489e-11
variable tmp equal pyz
variable pyz0 equal ${tmp}
variable pyz0 equal -2.2833445772873e-10
variable tmp equal pxz
variable pxz0 equal ${tmp}
variable pxz0 equal 1.24342305137884e-10
variable tmp equal pxy
variable pxy0 equal ${tmp}
variable pxy0 equal 5.9162573177611e-10

variable tmp equal lx
variable lx0 equal ${tmp}
variable lx0 equal 10.8618995568104
variable tmp equal ly
variable ly0 equal ${tmp}
variable ly0 equal 16.2928493352156
variable tmp equal lz
variable lz0 equal ${tmp}
variable lz0 equal 21.7237991136209

# These formulas define the derivatives w.r.t. strain components
# Constants uses $, variables use v_
variable d1 equal -(v_pxx1-${pxx0})/(v_delta/v_len0)*${cfac}
variable d1 equal -(v_pxx1--2.2709669199827e-11)/(v_delta/v_len0)*${cfac}
variable d1 equal -(v_pxx1--2.2709669199827e-11)/(v_delta/v_len0)*0.0001
variable d2 equal -(v_pyy1-${pyy0})/(v_delta/v_len0)*${cfac}
variable d2 equal -(v_pyy1--8.80078301266904e-11)/(v_delta/v_len0)*${cfac}
variable d2 equal -(v_pyy1--8.80078301266904e-11)/(v_delta/v_len0)*0.0001
variable d3 equal -(v_pzz1-${pzz0})/(v_delta/v_len0)*${cfac}
variable d3 equal -(v_pzz1--1.24636314952489e-11)/(v_delta/v_len0)*${cfac}
variable d3 equal -(v_pzz1--1.24636314952489e-11)/(v_delta/v_len0)*0.0001
variable d4 equal -(v_pyz1-${pyz0})/(v_delta/v_len0)*${cfac}
variable d4 equal -(v_pyz1--2.2833445772873e-10)/(v_delta/v_len0)*${cfac}
variable d4 equal -(v_pyz1--2.2833445772873e-10)/(v_delta/v_len0)*0.0001
variable d5 equal -(v_pxz1-${pxz0})/(v_delta/v_len0)*${cfac}
variable d5 equal -(v_pxz1-1.24342305137884e-10)/(v_delta/v_len0)*${cfac}
variable d5 equal -(v_pxz1-1.24342305137884e-10)/(v_delta/v_len0)*0.0001
variable d6 equal -(v_pxy1-${pxy0})/(v_delta/v_len0)*${cfac}
variable d6 equal -(v_pxy1-5.9162573177611e-10)/(v_delta/v_len0)*${cfac}
variable d6 equal -(v_pxy1-5.9162573177611e-10)/(v_delta/v_len0)*0.0001

displace_atoms all random ${atomjiggle} ${atomjiggle} ${atomjiggle} 87287 units box
displace_atoms all random 1e-05 ${atomjiggle} ${atomjiggle} 87287 units box
displace_atoms all random 1e-05 1e-05 ${atomjiggle} 87287 units box
displace_atoms all random 1e-05 1e-05 1e-05 87287 units box
Displacing atoms ...

# Write restart
unfix 3
write_restart restart.equil
System init for write_restart ...

# uxx Perturbation

variable dir equal 1
include displace.mod
# NOTE: This script should not need to be
# modified. See in.elastic for more info.
#
# Find which reference length to use

if "${dir} == 1" then    "variable len0 equal ${lx0}"
variable len0 equal ${lx0}
variable len0 equal 10.8618995568104
if "${dir} == 2" then    "variable len0 equal ${ly0}"
if "${dir} == 3" then    "variable len0 equal ${lz0}"
if "${dir} == 4" then    "variable len0 equal ${lz0}"
if "${dir} == 5" then    "variable len0 equal ${lz0}"
if "${dir} == 6" then    "variable len0 equal ${ly0}"

# Reset box and simulation parameters

clear
OMP_NUM_THREADS environment is not set. Defaulting to 1 thread. (src/comm.cpp:98)
  using 1 OpenMP thread(s) per MPI task
box tilt large

The 'box' command has been removed and will be ignored

read_restart restart.equil
Reading restart file ...
  restart file = 27 Jun 2024, LAMMPS = 27 Jun 2024
  restoring atom style atomic from restart
  triclinic box = (-0.00094977841 -0.0014246676 -0.0018995568) to (10.86095 16.291425 21.7219) with tilt (0 0 0)
  1 by 1 by 1 MPI processor grid
  pair style sw stores no restart info
  192 atoms
  read_restart CPU = 0.000 seconds
include potential.mod
# NOTE: This script can be modified for different pair styles
# See in.elastic for more info.

# Choose potential
pair_style	sw
pair_coeff * * Si.sw Si
Reading sw potential file Si.sw with DATE: 2007-06-11

# Setup neighbor style
neighbor 1.0 nsq
neigh_modify once no every 1 delay 0 check yes

# Setup minimization style
min_style	     cg
min_modify	     dmax ${dmax} line quadratic
min_modify	     dmax 0.01 line quadratic

# Setup output
thermo		1
thermo_style custom step temp pe press pxx pyy pzz pxy pxz pyz lx ly lz vol
thermo_modify norm no

# Negative deformation

variable delta equal -${up}*${len0}
variable delta equal -1e-06*${len0}
variable delta equal -1e-06*10.8618995568104
variable deltaxy equal -${up}*xy
variable deltaxy equal -1e-06*xy
variable deltaxz equal -${up}*xz
variable deltaxz equal -1e-06*xz
variable deltayz equal -${up}*yz
variable deltayz equal -1e-06*yz
if "${dir} == 1" then    "change_box all x delta 0 ${delta} xy delta ${deltaxy} xz delta ${deltaxz} remap units box"
change_box all x delta 0 ${delta} xy delta ${deltaxy} xz delta ${deltaxz} remap units box
change_box all x delta 0 -1.08618995568104e-05 xy delta ${deltaxy} xz delta ${deltaxz} remap units box
change_box all x delta 0 -1.08618995568104e-05 xy delta -0 xz delta ${deltaxz} remap units box
change_box all x delta 0 -1.08618995568104e-05 xy delta -0 xz delta -0 remap units box
Changing box ...
  triclinic box = (-0.00094977841 -0.0014246676 -0.0018995568) to (10.860939 16.291425 21.7219) with tilt (0 0 0)
  triclinic box = (-0.00094977841 -0.0014246676 -0.0018995568) to (10.860939 16.291425 21.7219) with tilt (0 0 0)
  triclinic box = (-0.00094977841 -0.0014246676 -0.0018995568) to (10.860939 16.291425 21.7219) with tilt (0 0 0)
if "${dir} == 2" then    "change_box all y delta 0 ${delta} yz delta ${deltayz} remap units box"
if "${dir} == 3" then    "change_box all z delta 0 ${delta} remap units box"
if "${dir} == 4" then    "change_box all yz delta ${delta} remap units box"
if "${dir} == 5" then    "change_box all xz delta ${delta} remap units box"
if "${dir} == 6" then    "change_box all xy delta ${delta} remap units box"

# Relax atoms positions

minimize ${etol} ${ftol} ${maxiter} ${maxeval}
minimize 0 ${ftol} ${maxiter} ${maxeval}
minimize 0 1e-10 ${maxiter} ${maxeval}
minimize 0 1e-10 100 ${maxeval}
minimize 0 1e-10 100 1000
Neighbor list info ...
  update: every = 1 steps, delay = 0 steps, check = yes
  max neighbors/atom: 2000, page size: 100000
  master list distance cutoff = 4.77118
  ghost atom cutoff = 4.77118
  1 neighbor lists, perpetual/occasional/extra = 1 0 0
  (1) pair sw, perpetual
      attributes: full, newton on
      pair build: full/nsq
      stencil: none
      bin: none
Per MPI rank memory allocation (min/avg/max) = 4.178 | 4.178 | 4.178 Mbytes
   Step          Temp          PotEng         Press           Pxx            Pyy            Pzz            Pxy            Pxz            Pyz             Lx             Ly             Lz           Volume    
         4   0             -832.6272       1.0142978      1.514319       0.76428549     0.76428901     1.6956815      0.16463774     0.16518545     10.861889      16.292849      21.723799      3844.485     
         5   0             -832.6272       1.014232       1.5142476      0.7642248      0.76422355    -0.4032778     -0.039155308   -0.039283879    10.861889      16.292849      21.723799      3844.485     
         6   0             -832.6272       1.0142304      1.5142459      0.76422271     0.76422263     0.35934978     0.034889473    0.035005341    10.861889      16.292849      21.723799      3844.485     
         7   0             -832.6272       1.0142305      1.5142463      0.76422268     0.76422264    -0.25639338    -0.024893208   -0.024976407    10.861889      16.292849      21.723799      3844.485     
         8   0             -832.6272       1.0142306      1.5142464      0.76422275     0.76422268     0.12274263     0.011917024    0.011956629    10.861889      16.292849      21.723799      3844.485     
         9   0             -832.6272       1.0142306      1.5142464      0.76422271     0.7642227     -0.059792249   -0.0058051307  -0.0058244719   10.861889      16.292849      21.723799      3844.485     
        10   0             -832.6272       1.0142306      1.5142464      0.76422272     0.76422269     0.030554279    0.0029663914   0.0029762472   10.861889      16.292849      21.723799      3844.485     
        11   0             -832.6272       1.0142306      1.5142465      0.76422272     0.76422271    -0.01816873    -0.0017638569  -0.0017697208   10.861889      16.292849      21.723799      3844.485     
        12   0             -832.6272       1.0142306      1.5142465      0.76422271     0.7642227      0.010000465    0.00097080761  0.00097404198  10.861889      16.292849      21.723799      3844.485     
        13   0             -832.6272       1.0142306      1.5142465      0.76422271     0.76422271    -0.0056282014  -0.00054631102 -0.00054815235  10.861889      16.292849      21.723799      3844.485     
        14   0             -832.6272       1.0142306      1.5142465      0.76422271     0.76422271     0.0034468898   0.00033452837  0.00033567586  10.861889      16.292849      21.723799      3844.485     
        15   0             -832.6272       1.0142306      1.5142465      0.76422271     0.76422271    -0.0017130197  -0.00016619436 -0.00016678971  10.861889      16.292849      21.723799      3844.485     
        16   0             -832.6272       1.0142306      1.5142465      0.76422271     0.76422271     0.00095082082  9.2184119e-05  9.254159e-05   10.861889      16.292849      21.723799      3844.485     
        17   0             -832.6272       1.0142306      1.5142465      0.76422271     0.76422271    -0.00055167697 -5.3415937e-05 -5.3654203e-05  10.861889      16.292849      21.723799      3844.485     
        18   0             -832.6272       1.0142306      1.5142465      0.76422271     0.76422271     0.00035965684  3.470538e-05   3.4912104e-05  10.861889      16.292849      21.723799      3844.485     
        19   0             -832.6272       1.0142306      1.5142465      0.76422271     0.76422271    -0.00018455566 -1.7723367e-05 -1.786684e-05   10.861889      16.292849      21.723799      3844.485     
        20   0             -832.6272       1.0142306      1.5142465      0.76422271     0.76422271     0.00010502324  9.9616443e-06  1.0097314e-05  10.861889      16.292849      21.723799      3844.485     
        21   0             -832.6272       1.0142306      1.5142465      0.76422271     0.76422271    -6.5226523e-05 -6.0516913e-06 -6.1950275e-06  10.861889      16.292849      21.723799      3844.485     
        22   0             -832.6272       1.0142306      1.5142465      0.76422271     0.76422271     3.6214021e-05  3.239854e-06   3.371679e-06   10.861889      16.292849      21.723799      3844.485     
        23   0             -832.6272       1.0142306      1.5142465      0.76422271     0.76422271    -2.9098257e-05 -2.4579162e-06 -2.6270815e-06  10.861889      16.292849      21.723799      3844.485     
        24   0             -832.6272       1.0142306      1.5142465      0.76422271     0.76422271     3.0508629e-05  2.4488743e-06  2.6818611e-06  10.861889      16.292849      21.723799      3844.485     
        25   0             -832.6272       1.0142306      1.5142465      0.76422271     0.76422271    -2.3449012e-05 -1.8112314e-06 -2.0210844e-06  10.861889      16.292849      21.723799      3844.485     
        26   0             -832.6272       1.0142306      1.5142465      0.76422271     0.76422271     3.6009421e-05  2.7227732e-06  3.0704315e-06  10.861889      16.292849      21.723799      3844.485     
        27   0             -832.6272       1.0142306      1.5142465      0.76422271     0.76422271    -3.6271558e-05 -2.7132412e-06 -3.0762031e-06  10.861889      16.292849      21.723799      3844.485     
        28   0             -832.6272       1.0142306      1.5142465      0.76422271     0.76422271     3.9058312e-05  2.9093315e-06  3.3055896e-06  10.861889      16.292849      21.723799      3844.485     
        29   0             -832.6272       1.0142306      1.5142465      0.76422271     0.76422271    -4.687006e-05  -3.4829048e-06 -3.9620564e-06  10.861889      16.292849      21.723799      3844.485     
        30   0             -832.6272       1.0142306      1.5142465      0.76422271     0.76422271     4.8196426e-05  3.5773711e-06  4.0718087e-06  10.861889      16.292849      21.723799      3844.485     
        31   0             -832.6272       1.0142306      1.5142465      0.76422271     0.76422271    -6.1772776e-05 -4.5835415e-06 -5.2179181e-06  10.861889      16.292849      21.723799      3844.485     
        32   0             -832.6272       1.0142306      1.5142465      0.76422271     0.76422271     5.4181255e-05  4.0195163e-06  4.5762101e-06  10.861889      16.292849      21.723799      3844.485     
        33   0             -832.6272       1.0142306      1.5142465      0.76422271     0.76422271    -5.9469198e-05 -4.4114826e-06 -5.0226506e-06  10.861889      16.292849      21.723799      3844.485     
        34   0             -832.6272       1.0142306      1.5142465      0.76422271     0.76422271     4.0201455e-05  2.9819846e-06  3.3952645e-06  10.861889      16.292849      21.723799      3844.485     
        35   0             -832.6272       1.0142306      1.5142465      0.76422271     0.76422271    -3.2570832e-05 -2.4158072e-06 -2.7507741e-06  10.861889      16.292849      21.723799      3844.485     
        36   0             -832.6272       1.0142306      1.5142465      0.76422271     0.76422271     3.0652796e-05  2.2734178e-06  2.5887636e-06  10.861889      16.292849      21.723799      3844.485     
        37   0             -832.6272       1.0142306      1.5142465      0.76422271     0.76422271    -2.0080791e-05 -1.4892244e-06 -1.6958654e-06  10.861889      16.292849      21.723799      3844.485     
        38   0             -832.6272       1.0142306      1.5142465      0.76422271     0.76422271     1.3135484e-05  9.7408582e-07  1.1092746e-06  10.861889      16.292849      21.723799      3844.485     
        39   0             -832.6272       1.0142306      1.5142465      0.76422271     0.76422271    -8.024546e-06  -5.9500503e-07 -6.7760866e-07  10.861889      16.292849      21.723799      3844.485     
        40   0             -832.6272       1.0142306      1.5142465      0.76422271     0.76422271     3.0761291e-06  2.2806786e-07  2.5968374e-07  10.861889      16.292849      21.723799      3844.485     
        41   0             -832.6272       1.0142306      1.5142465      0.76422271     0.76422271    -1.6721827e-06 -1.2400522e-07 -1.4108305e-07  10.861889      16.292849      21.723799      3844.485     
        42   0             -832.6272       1.0142306      1.5142465      0.76422271     0.76422271     1.1204539e-06  8.3258445e-08  9.4419097e-08  10.861889      16.292849      21.723799      3844.485     
        43   0             -832.6272       1.0142306      1.5142465      0.76422271     0.76422271    -3.9224833e-07 -2.9405142e-08 -3.295206e-08   10.861889      16.292849      21.723799      3844.485     
        44   0             -832.6272       1.0142306      1.5142465      0.76422271     0.76422271     2.0563253e-07  1.5705602e-08  1.723925e-08   10.861889      16.292849      21.723799      3844.485     
        45   0             -832.6272       1.0142306      1.5142465      0.76422271     0.76422271    -1.0744549e-07 -8.5076286e-09 -9.0078336e-09  10.861889      16.292849      21.723799      3844.485     
        46   0             -832.6272       1.0142306      1.5142465      0.76422271     0.76422271     5.4442983e-08  4.6005139e-09  4.6084156e-09  10.861889      16.292849      21.723799      3844.485     
        47   0             -832.6272       1.0142306      1.5142465      0.76422271     0.76422271    -1.7622717e-08 -1.7280614e-09 -1.5494701e-09  10.861889      16.292849      21.723799      3844.485     
        48   0             -832.6272       1.0142306      1.5142465      0.76422271     0.76422271     1.2607276e-08  1.7770229e-09  1.2510577e-09  10.861889      16.292849      21.723799      3844.485     
        49   0             -832.6272       1.0142306      1.5142465      0.76422271     0.76422271    -5.130484e-09  -1.0621539e-09 -6.1752908e-10  10.861889      16.292849      21.723799      3844.485     
        50   0             -832.6272       1.0142306      1.5142465      0.76422271     0.76422271     3.827786e-09   1.0804651e-09  5.6691752e-10  10.861889      16.292849      21.723799      3844.485     
        51   0             -832.6272       1.0142306      1.5142465      0.76422271     0.76422271    -5.1127893e-09 -1.6276998e-09 -8.5306974e-10  10.861889      16.292849      21.723799      3844.485     
        52   0             -832.6272       1.0142306      1.5142465      0.76422271     0.76422271     2.8497476e-09  9.3499208e-10  5.2026664e-10  10.861889      16.292849      21.723799      3844.485     
        53   0             -832.6272       1.0142306      1.5142465      0.76422271     0.76422271    -3.4216627e-09 -1.2220981e-09 -6.5627176e-10  10.861889      16.292849      21.723799      3844.485     
Loop time of 0.00946751 on 1 procs for 49 steps with 192 atoms

88.6% CPU use with 1 MPI tasks x 1 OpenMP threads

Minimization stats:
  Stopping criterion = force tolerance
  Energy initial, next-to-last, final = 
     -832.627199805452  -832.627199982311  -832.627199982311
  Force two-norm initial, final = 0.0030764435 7.4054315e-11
  Force max component initial, final = 0.00032755747 9.6095924e-12
  Final line search alpha, max atom move = 1 9.6095924e-12
  Iterations, force evaluations = 49 98

MPI task timing breakdown:
Section |  min time  |  avg time  |  max time  |%varavg| %total
---------------------------------------------------------------
Pair    | 0.0082447  | 0.0082447  | 0.0082447  |   0.0 | 87.08
Neigh   | 0          | 0          | 0          |   0.0 |  0.00
Comm    | 0.00017718 | 0.00017718 | 0.00017718 |   0.0 |  1.87
Output  | 0.00078068 | 0.00078068 | 0.00078068 |   0.0 |  8.25
Modify  | 0          | 0          | 0          |   0.0 |  0.00
Other   |            | 0.0002649  |            |       |  2.80

Nlocal:            192 ave         192 max         192 min
Histogram: 1 0 0 0 0 0 0 0 0 0
Nghost:            634 ave         634 max         634 min
Histogram: 1 0 0 0 0 0 0 0 0 0
Neighs:              0 ave           0 max           0 min
Histogram: 1 0 0 0 0 0 0 0 0 0
FullNghs:         5376 ave        5376 max        5376 min
Histogram: 1 0 0 0 0 0 0 0 0 0

Total # of neighbors = 5376
Ave neighs/atom = 28
Neighbor list builds = 0
Dangerous builds = 0

# Obtain new stress tensor

variable tmp equal pxx
variable pxx1 equal ${tmp}
variable pxx1 equal 1.51424647230284
variable tmp equal pyy
variable pyy1 equal ${tmp}
variable pyy1 equal 0.764222708820084
variable tmp equal pzz
variable pzz1 equal ${tmp}
variable pzz1 equal 0.764222708945558
variable tmp equal pxy
variable pxy1 equal ${tmp}
variable pxy1 equal -3.421662748334e-09
variable tmp equal pxz
variable pxz1 equal ${tmp}
variable pxz1 equal -1.22209807841043e-09
variable tmp equal pyz
variable pyz1 equal ${tmp}
variable pyz1 equal -6.56271761169045e-10

# Compute elastic constant from pressure tensor

variable C1neg equal ${d1}
variable C1neg equal 151.424647232555
variable C2neg equal ${d2}
variable C2neg equal 76.4222708908092
variable C3neg equal ${d3}
variable C3neg equal 76.4222708958022
variable C4neg equal ${d4}
variable C4neg equal -4.27937303440315e-08
variable C5neg equal ${d5}
variable C5neg equal -1.34644038354831e-07
variable C6neg equal ${d6}
variable C6neg equal -4.01328848011011e-07

# Reset box and simulation parameters

clear
OMP_NUM_THREADS environment is not set. Defaulting to 1 thread. (src/comm.cpp:98)
  using 1 OpenMP thread(s) per MPI task
box tilt large

The 'box' command has been removed and will be ignored

read_restart restart.equil
Reading restart file ...
  restart file = 27 Jun 2024, LAMMPS = 27 Jun 2024
  restoring atom style atomic from restart
  triclinic box = (-0.00094977841 -0.0014246676 -0.0018995568) to (10.86095 16.291425 21.7219) with tilt (0 0 0)
  1 by 1 by 1 MPI processor grid
  pair style sw stores no restart info
  192 atoms
  read_restart CPU = 0.000 seconds
include potential.mod
# NOTE: This script can be modified for different pair styles
# See in.elastic for more info.

# Choose potential
pair_style	sw
pair_coeff * * Si.sw Si
Reading sw potential file Si.sw with DATE: 2007-06-11

# Setup neighbor style
neighbor 1.0 nsq
neigh_modify once no every 1 delay 0 check yes

# Setup minimization style
min_style	     cg
min_modify	     dmax ${dmax} line quadratic
min_modify	     dmax 0.01 line quadratic

# Setup output
thermo		1
thermo_style custom step temp pe press pxx pyy pzz pxy pxz pyz lx ly lz vol
thermo_modify norm no

# Positive deformation

variable delta equal ${up}*${len0}
variable delta equal 1e-06*${len0}
variable delta equal 1e-06*10.8618995568104
variable deltaxy equal ${up}*xy
variable deltaxy equal 1e-06*xy
variable deltaxz equal ${up}*xz
variable deltaxz equal 1e-06*xz
variable deltayz equal ${up}*yz
variable deltayz equal 1e-06*yz
if "${dir} == 1" then    "change_box all x delta 0 ${delta} xy delta ${deltaxy} xz delta ${deltaxz} remap units box"
change_box all x delta 0 ${delta} xy delta ${deltaxy} xz delta ${deltaxz} remap units box
change_box all x delta 0 1.08618995568104e-05 xy delta ${deltaxy} xz delta ${deltaxz} remap units box
change_box all x delta 0 1.08618995568104e-05 xy delta 0 xz delta ${deltaxz} remap units box
change_box all x delta 0 1.08618995568104e-05 xy delta 0 xz delta 0 remap units box
Changing box ...
  triclinic box = (-0.00094977841 -0.0014246676 -0.0018995568) to (10.860961 16.291425 21.7219) with tilt (0 0 0)
  triclinic box = (-0.00094977841 -0.0014246676 -0.0018995568) to (10.860961 16.291425 21.7219) with tilt (0 0 0)
  triclinic box = (-0.00094977841 -0.0014246676 -0.0018995568) to (10.860961 16.291425 21.7219) with tilt (0 0 0)
if "${dir} == 2" then    "change_box all y delta 0 ${delta} yz delta ${deltayz} remap units box"
if "${dir} == 3" then    "change_box all z delta 0 ${delta} remap units box"
if "${dir} == 4" then    "change_box all yz delta ${delta} remap units box"
if "${dir} == 5" then    "change_box all xz delta ${delta} remap units box"
if "${dir} == 6" then    "change_box all xy delta ${delta} remap units box"

# Relax atoms positions

minimize ${etol} ${ftol} ${maxiter} ${maxeval}
minimize 0 ${ftol} ${maxiter} ${maxeval}
minimize 0 1e-10 ${maxiter} ${maxeval}
minimize 0 1e-10 100 ${maxeval}
minimize 0 1e-10 100 1000
Neighbor list info ...
  update: every = 1 steps, delay = 0 steps, check = yes
  max neighbors/atom: 2000, page size: 100000
  master list distance cutoff = 4.77118
  ghost atom cutoff = 4.77118
  1 neighbor lists, perpetual/occasional/extra = 1 0 0
  (1) pair sw, perpetual
      attributes: full, newton on
      pair build: full/nsq
      stencil: none
      bin: none
Per MPI rank memory allocation (min/avg/max) = 4.178 | 4.178 | 4.178 Mbytes
   Step          Temp          PotEng         Press           Pxx            Pyy            Pzz            Pxy            Pxz            Pyz             Lx             Ly             Lz           Volume    
         4   0             -832.6272      -1.0141598     -1.5141706     -0.7641562     -0.76415267     1.6956728      0.1646369      0.16518464     10.86191       16.292849      21.723799      3844.4927    
         5   0             -832.6272      -1.0142257     -1.514242      -0.76421688    -0.76421814    -0.4032768     -0.039155211   -0.039283636    10.86191       16.292849      21.723799      3844.4927    
         6   0             -832.6272      -1.0142272     -1.5142437     -0.76421898    -0.76421906     0.35934904     0.034889401    0.035005031    10.86191       16.292849      21.723799      3844.4927    
         7   0             -832.6272      -1.0142271     -1.5142433     -0.76421901    -0.76421904    -0.25639238    -0.024893111   -0.024976034    10.86191       16.292849      21.723799      3844.4927    
         8   0             -832.6272      -1.014227      -1.5142432     -0.76421894    -0.764219       0.12274198     0.011916961    0.011956316    10.86191       16.292849      21.723799      3844.4927    
         9   0             -832.6272      -1.014227      -1.5142432     -0.76421897    -0.76421899    -0.059791862   -0.0058050934  -0.005824207    10.86191       16.292849      21.723799      3844.4927    
        10   0             -832.6272      -1.014227      -1.5142431     -0.76421897    -0.764219       0.030554051    0.0029663694   0.002976003    10.86191       16.292849      21.723799      3844.4927    
        11   0             -832.6272      -1.014227      -1.5142431     -0.76421897    -0.76421898    -0.018168599   -0.0017638446  -0.0017694712   10.86191       16.292849      21.723799      3844.4927    
        12   0             -832.6272      -1.014227      -1.5142431     -0.76421898    -0.76421898     0.010000413    0.00097080291  0.00097382333  10.86191       16.292849      21.723799      3844.4927    
        13   0             -832.6272      -1.014227      -1.5142431     -0.76421898    -0.76421898    -0.0056281739  -0.00054630868 -0.000547963    10.86191       16.292849      21.723799      3844.4927    
        14   0             -832.6272      -1.014227      -1.5142431     -0.76421898    -0.76421898     0.0034468718   0.00033452687  0.00033549607  10.86191       16.292849      21.723799      3844.4927    
        15   0             -832.6272      -1.014227      -1.5142431     -0.76421898    -0.76421898    -0.0017130159  -0.00016619415 -0.00016662875  10.86191       16.292849      21.723799      3844.4927    
        16   0             -832.6272      -1.014227      -1.5142431     -0.76421898    -0.76421898     0.0009508251   9.2184608e-05  9.2372963e-05  10.86191       16.292849      21.723799      3844.4927    
        17   0             -832.6272      -1.014227      -1.5142431     -0.76421898    -0.76421898    -0.00055168727 -5.3416825e-05 -5.346828e-05   10.86191       16.292849      21.723799      3844.4927    
        18   0             -832.6272      -1.014227      -1.5142431     -0.76421898    -0.76421898     0.00035967787  3.4707017e-05  3.4641876e-05  10.86191       16.292849      21.723799      3844.4927    
        19   0             -832.6272      -1.014227      -1.5142431     -0.76421898    -0.76421898    -0.00018457624 -1.7724901e-05 -1.7620526e-05  10.86191       16.292849      21.723799      3844.4927    
        20   0             -832.6272      -1.014227      -1.5142431     -0.76421898    -0.76421898     0.00010505057  9.963543e-06   9.8005914e-06  10.86191       16.292849      21.723799      3844.4927    
        21   0             -832.6272      -1.014227      -1.5142431     -0.76421898    -0.76421898    -6.5260087e-05 -6.0538329e-06 -5.8403673e-06  10.86191       16.292849      21.723799      3844.4927    
        22   0             -832.6272      -1.014227      -1.5142431     -0.76421898    -0.76421898     3.6247355e-05  3.241835e-06   3.0232486e-06  10.86191       16.292849      21.723799      3844.4927    
        23   0             -832.6272      -1.014227      -1.5142431     -0.76421898    -0.76421898    -2.9142732e-05 -2.4604308e-06 -2.1638434e-06  10.86191       16.292849      21.723799      3844.4927    
        24   0             -832.6272      -1.014227      -1.5142431     -0.76421898    -0.76421898     3.0570629e-05  2.452235e-06   2.0343955e-06  10.86191       16.292849      21.723799      3844.4927    
        25   0             -832.6272      -1.014227      -1.5142431     -0.76421898    -0.76421898    -2.3505091e-05 -1.8142816e-06 -1.4339146e-06  10.86191       16.292849      21.723799      3844.4927    
        26   0             -832.6272      -1.014227      -1.5142431     -0.76421898    -0.76421898     3.6102595e-05  2.7278071e-06  2.0947357e-06  10.86191       16.292849      21.723799      3844.4927    
        27   0             -832.6272      -1.014227      -1.5142431     -0.76421898    -0.76421898    -3.6368569e-05 -2.7184552e-06 -2.0563813e-06  10.86191       16.292849      21.723799      3844.4927    
        28   0             -832.6272      -1.014227      -1.5142431     -0.76421898    -0.76421898     3.9164229e-05  2.915047e-06   2.1918612e-06  10.86191       16.292849      21.723799      3844.4927    
        29   0             -832.6272      -1.014227      -1.5142431     -0.76421898    -0.76421898    -4.6998013e-05 -3.4897742e-06 -2.6150809e-06  10.86191       16.292849      21.723799      3844.4927    
        30   0             -832.6272      -1.014227      -1.5142431     -0.76421898    -0.76421898     4.8328578e-05  3.5843891e-06  2.6814286e-06  10.86191       16.292849      21.723799      3844.4927    
        31   0             -832.6272      -1.014227      -1.5142431     -0.76421898    -0.76421898    -6.1941246e-05 -4.5924634e-06 -3.4337956e-06  10.86191       16.292849      21.723799      3844.4927    
        32   0             -832.6272      -1.014227      -1.5142431     -0.76421898    -0.76421898     5.4327292e-05  4.0271849e-06  3.0102044e-06  10.86191       16.292849      21.723799      3844.4927    
        33   0             -832.6272      -1.014227      -1.5142431     -0.76421898    -0.76421898    -5.9626084e-05 -4.4195458e-06 -3.303062e-06   10.86191       16.292849      21.723799      3844.4927    
        34   0             -832.6272      -1.014227      -1.5142431     -0.76421898    -0.76421898     4.0302676e-05  2.9871526e-06  2.2323406e-06  10.86191       16.292849      21.723799      3844.4927    
        35   0             -832.6272      -1.014227      -1.5142431     -0.76421898    -0.76421898    -3.2650746e-05 -2.4199329e-06 -1.8082112e-06  10.86191       16.292849      21.723799      3844.4927    
        36   0             -832.6272      -1.014227      -1.5142431     -0.76421898    -0.76421898     3.0722505e-05  2.2769337e-06  1.7013632e-06  10.86191       16.292849      21.723799      3844.4927    
        37   0             -832.6272      -1.014227      -1.5142431     -0.76421898    -0.76421898    -2.0121457e-05 -1.4911548e-06 -1.1142453e-06  10.86191       16.292849      21.723799      3844.4927    
        38   0             -832.6272      -1.014227      -1.5142431     -0.76421898    -0.76421898     1.3158679e-05  9.7505122e-07  7.2858785e-07  10.86191       16.292849      21.723799      3844.4927    
        39   0             -832.6272      -1.014227      -1.5142431     -0.76421898    -0.76421898    -8.0366203e-06 -5.9536955e-07 -4.4490553e-07  10.86191       16.292849      21.723799      3844.4927    
        40   0             -832.6272      -1.014227      -1.5142431     -0.76421898    -0.76421898     3.0804084e-06  2.2795325e-07  1.7040919e-07  10.86191       16.292849      21.723799      3844.4927    
        41   0             -832.6272      -1.014227      -1.5142431     -0.76421898    -0.76421898    -1.6742429e-06 -1.2368779e-07 -9.2517916e-08  10.86191       16.292849      21.723799      3844.4927    
        42   0             -832.6272      -1.014227      -1.5142431     -0.76421898    -0.76421898     1.1216131e-06  8.2536504e-08  6.1768369e-08  10.86191       16.292849      21.723799      3844.4927    
        43   0             -832.6272      -1.014227      -1.5142431     -0.76421898    -0.76421898    -3.9259937e-07 -2.8554487e-08 -2.1355002e-08  10.86191       16.292849      21.723799      3844.4927    
        44   0             -832.6272      -1.014227      -1.5142431     -0.76421898    -0.76421898     2.0590893e-07  1.4630403e-08  1.0957904e-08  10.86191       16.292849      21.723799      3844.4927    
        45   0             -832.6272      -1.014227      -1.5142431     -0.76421898    -0.76421898    -1.0790964e-07 -7.2286163e-09 -5.4492446e-09  10.86191       16.292849      21.723799      3844.4927    
        46   0             -832.6272      -1.014227      -1.5142431     -0.76421898    -0.76421898     5.4944615e-08  3.269128e-09   2.5212304e-09  10.86191       16.292849      21.723799      3844.4927    
        47   0             -832.6272      -1.014227      -1.5142431     -0.76421898    -0.76421898    -1.784895e-08  -6.6613214e-10 -6.0106294e-10  10.86191       16.292849      21.723799      3844.4927    
        48   0             -832.6272      -1.014227      -1.5142431     -0.76421898    -0.76421898     1.2813804e-08 -4.500136e-10  -3.864411e-11   10.86191       16.292849      21.723799      3844.4927    
        49   0             -832.6272      -1.014227      -1.5142431     -0.76421898    -0.76421898    -5.2381699e-09  8.8776011e-10  3.3983184e-10  10.86191       16.292849      21.723799      3844.4927    
        50   0             -832.6272      -1.014227      -1.5142431     -0.76421898    -0.76421898     3.9632973e-09 -1.3136119e-09 -5.5250614e-10  10.86191       16.292849      21.723799      3844.4927    
        51   0             -832.6272      -1.014227      -1.5142431     -0.76421898    -0.76421898    -5.3395306e-09  2.3387593e-09  1.0334997e-09  10.86191       16.292849      21.723799      3844.4927    
        52   0             -832.6272      -1.014227      -1.5142431     -0.76421898    -0.76421898     3.1057378e-09 -1.4826588e-09 -7.2268568e-10  10.86191       16.292849      21.723799      3844.4927    
        53   0             -832.6272      -1.014227      -1.5142431     -0.76421898    -0.76421898    -3.769474e-09   1.9274985e-09  9.7287086e-10  10.86191       16.292849      21.723799      3844.4927    
Loop time of 0.00959727 on 1 procs for 49 steps with 192 atoms

91.8% CPU use with 1 MPI tasks x 1 OpenMP threads

Minimization stats:
  Stopping criterion = force tolerance
  Energy initial, next-to-last, final = 
     -832.627199805452  -832.627199982311  -832.627199982311
  Force two-norm initial, final = 0.003076435 7.4038488e-11
  Force max component initial, final = 0.00032755636 9.5247663e-12
  Final line search alpha, max atom move = 1 9.5247663e-12
  Iterations, force evaluations = 49 98

MPI task timing breakdown:
Section |  min time  |  avg time  |  max time  |%varavg| %total
---------------------------------------------------------------
Pair    | 0.0083218  | 0.0083218  | 0.0083218  |   0.0 | 86.71
Neigh   | 0          | 0          | 0          |   0.0 |  0.00
Comm    | 0.00016716 | 0.00016716 | 0.00016716 |   0.0 |  1.74
Output  | 0.00084163 | 0.00084163 | 0.00084163 |   0.0 |  8.77
Modify  | 0          | 0          | 0          |   0.0 |  0.00
Other   |            | 0.0002667  |            |       |  2.78

Nlocal:            192 ave         192 max         192 min
Histogram: 1 0 0 0 0 0 0 0 0 0
Nghost:            634 ave         634 max         634 min
Histogram: 1 0 0 0 0 0 0 0 0 0
Neighs:              0 ave           0 max           0 min
Histogram: 1 0 0 0 0 0 0 0 0 0
FullNghs:         5376 ave        5376 max        5376 min
Histogram: 1 0 0 0 0 0 0 0 0 0

Total # of neighbors = 5376
Ave neighs/atom = 28
Neighbor list builds = 0
Dangerous builds = 0

# Obtain new stress tensor

variable tmp equal pe
variable e1 equal ${tmp}
variable e1 equal -832.627199982311
variable tmp equal press
variable p1 equal ${tmp}
variable p1 equal -1.01422702227959
variable tmp equal pxx
variable pxx1 equal ${tmp}
variable pxx1 equal -1.51424311289495
variable tmp equal pyy
variable pyy1 equal ${tmp}
variable pyy1 equal -0.764218977029279
variable tmp equal pzz
variable pzz1 equal ${tmp}
variable pzz1 equal -0.764218976914539
variable tmp equal pxy
variable pxy1 equal ${tmp}
variable pxy1 equal -3.76947396330054e-09
variable tmp equal pxz
variable pxz1 equal ${tmp}
variable pxz1 equal 1.92749850915559e-09
variable tmp equal pyz
variable pyz1 equal ${tmp}
variable pyz1 equal 9.72870858484827e-10

# Compute elastic constant from pressure tensor

variable C1pos equal ${d1}
variable C1pos equal 151.424311287224
variable C2pos equal ${d2}
variable C2pos equal 76.4218976941271
variable C3pos equal ${d3}
variable C3pos equal 76.4218976902075
variable C4pos equal ${d4}
variable C4pos equal -1.20120531621356e-07
variable C5pos equal ${d5}
variable C5pos equal -1.80315620401771e-07
variable C6pos equal ${d6}
variable C6pos equal 4.36109969507665e-07

# Combine positive and negative

variable C1${dir} equal 0.5*(${C1neg}+${C1pos})
variable C11 equal 0.5*(${C1neg}+${C1pos})
variable C11 equal 0.5*(151.424647232555+${C1pos})
variable C11 equal 0.5*(151.424647232555+151.424311287224)
variable C2${dir} equal 0.5*(${C2neg}+${C2pos})
variable C21 equal 0.5*(${C2neg}+${C2pos})
variable C21 equal 0.5*(76.4222708908092+${C2pos})
variable C21 equal 0.5*(76.4222708908092+76.4218976941271)
variable C3${dir} equal 0.5*(${C3neg}+${C3pos})
variable C31 equal 0.5*(${C3neg}+${C3pos})
variable C31 equal 0.5*(76.4222708958022+${C3pos})
variable C31 equal 0.5*(76.4222708958022+76.4218976902075)
variable C4${dir} equal 0.5*(${C4neg}+${C4pos})
variable C41 equal 0.5*(${C4neg}+${C4pos})
variable C41 equal 0.5*(-4.27937303440315e-08+${C4pos})
variable C41 equal 0.5*(-4.27937303440315e-08+-1.20120531621356e-07)
variable C5${dir} equal 0.5*(${C5neg}+${C5pos})
variable C51 equal 0.5*(${C5neg}+${C5pos})
variable C51 equal 0.5*(-1.34644038354831e-07+${C5pos})
variable C51 equal 0.5*(-1.34644038354831e-07+-1.80315620401771e-07)
variable C6${dir} equal 0.5*(${C6neg}+${C6pos})
variable C61 equal 0.5*(${C6neg}+${C6pos})
variable C61 equal 0.5*(-4.01328848011011e-07+${C6pos})
variable C61 equal 0.5*(-4.01328848011011e-07+4.36109969507665e-07)

# Delete dir to make sure it is not reused

variable dir delete

# uyy Perturbation

variable dir equal 2
include displace.mod
# NOTE: This script should not need to be
# modified. See in.elastic for more info.
#
# Find which reference length to use

if "${dir} == 1" then    "variable len0 equal ${lx0}"
if "${dir} == 2" then    "variable len0 equal ${ly0}"
variable len0 equal ${ly0}
variable len0 equal 16.2928493352156
if "${dir} == 3" then    "variable len0 equal ${lz0}"
if "${dir} == 4" then    "variable len0 equal ${lz0}"
if "${dir} == 5" then    "variable len0 equal ${lz0}"
if "${dir} == 6" then    "variable len0 equal ${ly0}"

# Reset box and simulation parameters

clear
OMP_NUM_THREADS environment is not set. Defaulting to 1 thread. (src/comm.cpp:98)
  using 1 OpenMP thread(s) per MPI task
box tilt large

The 'box' command has been removed and will be ignored

read_restart restart.equil
Reading restart file ...
  restart file = 27 Jun 2024, LAMMPS = 27 Jun 2024
  restoring atom style atomic from restart
  triclinic box = (-0.00094977841 -0.0014246676 -0.0018995568) to (10.86095 16.291425 21.7219) with tilt (0 0 0)
  1 by 1 by 1 MPI processor grid
  pair style sw stores no restart info
  192 atoms
  read_restart CPU = 0.000 seconds
include potential.mod
# NOTE: This script can be modified for different pair styles
# See in.elastic for more info.

# Choose potential
pair_style	sw
pair_coeff * * Si.sw Si
Reading sw potential file Si.sw with DATE: 2007-06-11

# Setup neighbor style
neighbor 1.0 nsq
neigh_modify once no every 1 delay 0 check yes

# Setup minimization style
min_style	     cg
min_modify	     dmax ${dmax} line quadratic
min_modify	     dmax 0.01 line quadratic

# Setup output
thermo		1
thermo_style custom step temp pe press pxx pyy pzz pxy pxz pyz lx ly lz vol
thermo_modify norm no

# Negative deformation

variable delta equal -${up}*${len0}
variable delta equal -1e-06*${len0}
variable delta equal -1e-06*16.2928493352156
variable deltaxy equal -${up}*xy
variable deltaxy equal -1e-06*xy
variable deltaxz equal -${up}*xz
variable deltaxz equal -1e-06*xz
variable deltayz equal -${up}*yz
variable deltayz equal -1e-06*yz
if "${dir} == 1" then    "change_box all x delta 0 ${delta} xy delta ${deltaxy} xz delta ${deltaxz} remap units box"
if "${dir} == 2" then    "change_box all y delta 0 ${delta} yz delta ${deltayz} remap units box"
change_box all y delta 0 ${delta} yz delta ${deltayz} remap units box
change_box all y delta 0 -1.62928493352156e-05 yz delta ${deltayz} remap units box
change_box all y delta 0 -1.62928493352156e-05 yz delta -0 remap units box
Changing box ...
  triclinic box = (-0.00094977841 -0.0014246676 -0.0018995568) to (10.86095 16.291408 21.7219) with tilt (0 0 0)
  triclinic box = (-0.00094977841 -0.0014246676 -0.0018995568) to (10.86095 16.291408 21.7219) with tilt (0 0 0)
if "${dir} == 3" then    "change_box all z delta 0 ${delta} remap units box"
if "${dir} == 4" then    "change_box all yz delta ${delta} remap units box"
if "${dir} == 5" then    "change_box all xz delta ${delta} remap units box"
if "${dir} == 6" then    "change_box all xy delta ${delta} remap units box"

# Relax atoms positions

minimize ${etol} ${ftol} ${maxiter} ${maxeval}
minimize 0 ${ftol} ${maxiter} ${maxeval}
minimize 0 1e-10 ${maxiter} ${maxeval}
minimize 0 1e-10 100 ${maxeval}
minimize 0 1e-10 100 1000
Neighbor list info ...
  update: every = 1 steps, delay = 0 steps, check = yes
  max neighbors/atom: 2000, page size: 100000
  master list distance cutoff = 4.77118
  ghost atom cutoff = 4.77118
  1 neighbor lists, perpetual/occasional/extra = 1 0 0
  (1) pair sw, perpetual
      attributes: full, newton on
      pair build: full/nsq
      stencil: none
      bin: none
Per MPI rank memory allocation (min/avg/max) = 4.178 | 4.178 | 4.178 Mbytes
   Step          Temp          PotEng         Press           Pxx            Pyy            Pzz            Pxy            Pxz            Pyz             Lx             Ly             Lz           Volume    
         4   0             -832.6272       1.0142978      0.76429522     1.5143093      0.76428901     1.6956815      0.16463772     0.16518547     10.8619        16.292833      21.723799      3844.485     
         5   0             -832.6272       1.014232       0.76422382     1.5142486      0.76422355    -0.40327783    -0.039155383   -0.039283809    10.8619        16.292833      21.723799      3844.485     
         6   0             -832.6272       1.0142304      0.76422216     1.5142465      0.76422263     0.35934965     0.034889579    0.03500521     10.8619        16.292833      21.723799      3844.485     
         7   0             -832.6272       1.0142305      0.76422255     1.5142464      0.76422264    -0.25639326    -0.024893334   -0.024976258    10.8619        16.292833      21.723799      3844.485     
         8   0             -832.6272       1.0142306      0.76422265     1.5142465      0.76422268     0.12274257     0.011917143    0.011956498    10.8619        16.292833      21.723799      3844.485     
         9   0             -832.6272       1.0142306      0.76422266     1.5142465      0.7642227     -0.059792179   -0.0058052375  -0.0058243514   10.8619        16.292833      21.723799      3844.485     
        10   0             -832.6272       1.0142306      0.76422269     1.5142465      0.76422269     0.030554247    0.0029664991   0.0029761331   10.8619        16.292833      21.723799      3844.485     
        11   0             -832.6272       1.0142306      0.76422269     1.5142465      0.76422271    -0.018168741   -0.0017639762  -0.0017696035   10.8619        16.292833      21.723799      3844.485     
        12   0             -832.6272       1.0142306      0.7642227      1.5142465      0.7642227      0.010000507    0.00097091814  0.00097393934  10.8619        16.292833      21.723799      3844.485     
        13   0             -832.6272       1.0142306      0.7642227      1.5142465      0.76422271    -0.0056282373  -0.00054640749 -0.00054806252  10.8619        16.292833      21.723799      3844.485     
        14   0             -832.6272       1.0142306      0.7642227      1.5142465      0.76422271     0.003446922    0.00033462009  0.00033558979  10.8619        16.292833      21.723799      3844.485     
        15   0             -832.6272       1.0142306      0.7642227      1.5142465      0.76422271    -0.0017130394  -0.00016627615 -0.00016671099  10.8619        16.292833      21.723799      3844.485     
        16   0             -832.6272       1.0142306      0.76422271     1.5142465      0.76422271     0.00095083198  9.2269132e-05  9.2457737e-05  10.8619        16.292833      21.723799      3844.485     
        17   0             -832.6272       1.0142306      0.76422271     1.5142465      0.76422271    -0.00055168411 -5.3509229e-05 -5.356104e-05   10.8619        16.292833      21.723799      3844.485     
        18   0             -832.6272       1.0142306      0.76422271     1.5142465      0.76422271     0.00035966242  3.4840449e-05  3.4776097e-05  10.8619        16.292833      21.723799      3844.485     
        19   0             -832.6272       1.0142306      0.76422271     1.5142465      0.76422271    -0.00018455832 -1.7846164e-05 -1.7742688e-05  10.8619        16.292833      21.723799      3844.485     
        20   0             -832.6272       1.0142306      0.76422271     1.5142465      0.76422271     0.00010502474  1.0109422e-05  9.9475972e-06  10.8619        16.292833      21.723799      3844.485     
        21   0             -832.6272       1.0142306      0.76422271     1.5142465      0.76422271    -6.5226891e-05 -6.2282151e-06 -6.0159909e-06  10.8619        16.292833      21.723799      3844.485     
        22   0             -832.6272       1.0142306      0.76422271     1.5142465      0.76422271     3.6213846e-05  3.4132792e-06  3.1957843e-06  10.8619        16.292833      21.723799      3844.485     
        23   0             -832.6272       1.0142306      0.76422271     1.5142465      0.76422271    -2.9097411e-05 -2.6884434e-06 -2.3932557e-06  10.8619        16.292833      21.723799      3844.485     
        24   0             -832.6272       1.0142306      0.76422271     1.5142465      0.76422271     3.0506995e-05  2.7710838e-06  2.3550822e-06  10.8619        16.292833      21.723799      3844.485     
        25   0             -832.6272       1.0142306      0.76422271     1.5142465      0.76422271    -2.3447479e-05 -2.1035057e-06 -1.724791e-06   10.8619        16.292833      21.723799      3844.485     
        26   0             -832.6272       1.0142306      0.76422271     1.5142465      0.76422271     3.6006795e-05  3.208558e-06   2.5781145e-06  10.8619        16.292833      21.723799      3844.485     
        27   0             -832.6272       1.0142306      0.76422271     1.5142465      0.76422271    -3.6268812e-05 -3.221243e-06  -2.5616337e-06  10.8619        16.292833      21.723799      3844.485     
        28   0             -832.6272       1.0142306      0.76422271     1.5142465      0.76422271     3.9055299e-05  3.4643042e-06  2.7436411e-06  10.8619        16.292833      21.723799      3844.485     
        29   0             -832.6272       1.0142306      0.76422271     1.5142465      0.76422271    -4.6866309e-05 -4.1541535e-06 -3.2824716e-06  10.8619        16.292833      21.723799      3844.485     
        30   0             -832.6272       1.0142306      0.76422271     1.5142465      0.76422271     4.8192805e-05  4.2702083e-06  3.3704162e-06  10.8619        16.292833      21.723799      3844.485     
        31   0             -832.6272       1.0142306      0.76422271     1.5142465      0.76422271    -6.1767655e-05 -5.4724598e-06 -4.3179385e-06  10.8619        16.292833      21.723799      3844.485     
        32   0             -832.6272       1.0142306      0.76422271     1.5142465      0.76422271     5.4176325e-05  4.7996772e-06  3.7863195e-06  10.8619        16.292833      21.723799      3844.485     
        33   0             -832.6272       1.0142306      0.76422271     1.5142465      0.76422271    -5.946373e-05  -5.268044e-06  -4.1554358e-06  10.8619        16.292833      21.723799      3844.485     
        34   0             -832.6272       1.0142306      0.76422271     1.5142465      0.76422271     4.0197507e-05  3.5612374e-06  2.808957e-06   10.8619        16.292833      21.723799      3844.485     
        35   0             -832.6272       1.0142306      0.76422271     1.5142465      0.76422271    -3.2568847e-05 -2.8854115e-06 -2.2757423e-06  10.8619        16.292833      21.723799      3844.485     
        36   0             -832.6272       1.0142306      0.76422271     1.5142465      0.76422271     3.0651633e-05  2.7155838e-06  2.1417014e-06  10.8619        16.292833      21.723799      3844.485     
        37   0             -832.6272       1.0142306      0.76422271     1.5142465      0.76422271    -2.0080002e-05 -1.7790347e-06 -1.4029562e-06  10.8619        16.292833      21.723799      3844.485     
        38   0             -832.6272       1.0142306      0.76422271     1.5142465      0.76422271     1.3134874e-05  1.163814e-06   9.1761859e-07  10.8619        16.292833      21.723799      3844.485     
        39   0             -832.6272       1.0142306      0.76422271     1.5142465      0.76422271    -8.0241389e-06 -7.1109357e-07 -5.6046479e-07  10.8619        16.292833      21.723799      3844.485     
        40   0             -832.6272       1.0142306      0.76422271     1.5142465      0.76422271     3.0759345e-06  2.7276328e-07  2.1466e-07     10.8619        16.292833      21.723799      3844.485     
        41   0             -832.6272       1.0142306      0.76422271     1.5142465      0.76422271    -1.6719359e-06 -1.4836276e-07 -1.1644782e-07  10.8619        16.292833      21.723799      3844.485     
        42   0             -832.6272       1.0142306      0.76422271     1.5142465      0.76422271     1.1200219e-06  9.9532845e-08  7.7639035e-08  10.8619        16.292833      21.723799      3844.485     
        43   0             -832.6272       1.0142306      0.76422271     1.5142465      0.76422271    -3.9185766e-07 -3.5061288e-08 -2.6758142e-08  10.8619        16.292833      21.723799      3844.485     
        44   0             -832.6272       1.0142306      0.76422271     1.5142465      0.76422271     2.0528464e-07  1.8571004e-08  1.3638146e-08  10.8619        16.292833      21.723799      3844.485     
        45   0             -832.6272       1.0142306      0.76422271     1.5142465      0.76422271    -1.0712216e-07 -9.9492808e-09 -6.5763142e-09  10.8619        16.292833      21.723799      3844.485     
        46   0             -832.6272       1.0142306      0.76422271     1.5142465      0.76422271     5.4145495e-08  5.4218967e-09  2.7678446e-09  10.8619        16.292833      21.723799      3844.485     
        47   0             -832.6272       1.0142306      0.76422271     1.5142465      0.76422271    -1.7351948e-08 -2.1607456e-09 -3.4404853e-10  10.8619        16.292833      21.723799      3844.485     
        48   0             -832.6272       1.0142306      0.76422271     1.5142465      0.76422271     1.1902511e-08  2.5225127e-09 -1.0238693e-09  10.8619        16.292833      21.723799      3844.485     
        49   0             -832.6272       1.0142306      0.76422271     1.5142465      0.76422271    -4.3765803e-09 -1.7295501e-09  1.2645186e-09  10.8619        16.292833      21.723799      3844.485     
        50   0             -832.6272       1.0142306      0.76422271     1.5142465      0.76422271     2.7728876e-09  1.8851e-09    -1.7601422e-09  10.8619        16.292833      21.723799      3844.485     
        51   0             -832.6272       1.0142306      0.76422271     1.5142465      0.76422271    -3.1957178e-09 -3.0356091e-09  3.0698165e-09  10.8619        16.292833      21.723799      3844.485     
        52   0             -832.6272       1.0142306      0.76422271     1.5142465      0.76422271     1.6414969e-09  1.8375209e-09 -1.9463001e-09  10.8619        16.292833      21.723799      3844.485     
        53   0             -832.6272       1.0142306      0.76422271     1.5142465      0.76422271    -1.7583189e-09 -2.313406e-09   2.4678343e-09  10.8619        16.292833      21.723799      3844.485     
Loop time of 0.00947814 on 1 procs for 49 steps with 192 atoms

94.6% CPU use with 1 MPI tasks x 1 OpenMP threads

Minimization stats:
  Stopping criterion = force tolerance
  Energy initial, next-to-last, final = 
     -832.627199805452  -832.627199982311  -832.627199982311
  Force two-norm initial, final = 0.0030764432 7.4070905e-11
  Force max component initial, final = 0.00032755739 9.4927356e-12
  Final line search alpha, max atom move = 1 9.4927356e-12
  Iterations, force evaluations = 49 98

MPI task timing breakdown:
Section |  min time  |  avg time  |  max time  |%varavg| %total
---------------------------------------------------------------
Pair    | 0.0082476  | 0.0082476  | 0.0082476  |   0.0 | 87.02
Neigh   | 0          | 0          | 0          |   0.0 |  0.00
Comm    | 0.00018573 | 0.00018573 | 0.00018573 |   0.0 |  1.96
Output  | 0.0007789  | 0.0007789  | 0.0007789  |   0.0 |  8.22
Modify  | 0          | 0          | 0          |   0.0 |  0.00
Other   |            | 0.0002659  |            |       |  2.81

Nlocal:            192 ave         192 max         192 min
Histogram: 1 0 0 0 0 0 0 0 0 0
Nghost:            634 ave         634 max         634 min
Histogram: 1 0 0 0 0 0 0 0 0 0
Neighs:              0 ave           0 max           0 min
Histogram: 1 0 0 0 0 0 0 0 0 0
FullNghs:         5376 ave        5376 max        5376 min
Histogram: 1 0 0 0 0 0 0 0 0 0

Total # of neighbors = 5376
Ave neighs/atom = 28
Neighbor list builds = 0
Dangerous builds = 0

# Obtain new stress tensor

variable tmp equal pxx
variable pxx1 equal ${tmp}
variable pxx1 equal 0.764222708891461
variable tmp equal pyy
variable pyy1 equal ${tmp}
variable pyy1 equal 1.51424647204756
variable tmp equal pzz
variable pzz1 equal ${tmp}
variable pzz1 equal 0.764222708891217
variable tmp equal pxy
variable pxy1 equal ${tmp}
variable pxy1 equal -1.75831891441504e-09
variable tmp equal pxz
variable pxz1 equal ${tmp}
variable pxz1 equal -2.31340598253786e-09
variable tmp equal pyz
variable pyz1 equal ${tmp}
variable pyz1 equal 2.46783425852162e-09

# Compute elastic constant from pressure tensor

variable C1neg equal ${d1}
variable C1neg equal 76.4222708914171
variable C2neg equal ${d2}
variable C2neg equal 151.424647213557
variable C3neg equal ${d3}
variable C3neg equal 76.4222708903681
variable C4neg equal ${d4}
variable C4neg equal 2.69616871625035e-07
variable C5neg equal ${d5}
variable C5neg equal -2.43774828767574e-07
variable C6neg equal ${d6}
variable C6neg equal -2.34994464619115e-07

# Reset box and simulation parameters

clear
OMP_NUM_THREADS environment is not set. Defaulting to 1 thread. (src/comm.cpp:98)
  using 1 OpenMP thread(s) per MPI task
box tilt large

The 'box' command has been removed and will be ignored

read_restart restart.equil
Reading restart file ...
  restart file = 27 Jun 2024, LAMMPS = 27 Jun 2024
  restoring atom style atomic from restart
  triclinic box = (-0.00094977841 -0.0014246676 -0.0018995568) to (10.86095 16.291425 21.7219) with tilt (0 0 0)
  1 by 1 by 1 MPI processor grid
  pair style sw stores no restart info
  192 atoms
  read_restart CPU = 0.000 seconds
include potential.mod
# NOTE: This script can be modified for different pair styles
# See in.elastic for more info.

# Choose potential
pair_style	sw
pair_coeff * * Si.sw Si
Reading sw potential file Si.sw with DATE: 2007-06-11

# Setup neighbor style
neighbor 1.0 nsq
neigh_modify once no every 1 delay 0 check yes

# Setup minimization style
min_style	     cg
min_modify	     dmax ${dmax} line quadratic
min_modify	     dmax 0.01 line quadratic

# Setup output
thermo		1
thermo_style custom step temp pe press pxx pyy pzz pxy pxz pyz lx ly lz vol
thermo_modify norm no

# Positive deformation

variable delta equal ${up}*${len0}
variable delta equal 1e-06*${len0}
variable delta equal 1e-06*16.2928493352156
variable deltaxy equal ${up}*xy
variable deltaxy equal 1e-06*xy
variable deltaxz equal ${up}*xz
variable deltaxz equal 1e-06*xz
variable deltayz equal ${up}*yz
variable deltayz equal 1e-06*yz
if "${dir} == 1" then    "change_box all x delta 0 ${delta} xy delta ${deltaxy} xz delta ${deltaxz} remap units box"
if "${dir} == 2" then    "change_box all y delta 0 ${delta} yz delta ${deltayz} remap units box"
change_box all y delta 0 ${delta} yz delta ${deltayz} remap units box
change_box all y delta 0 1.62928493352156e-05 yz delta ${deltayz} remap units box
change_box all y delta 0 1.62928493352156e-05 yz delta 0 remap units box
Changing box ...
  triclinic box = (-0.00094977841 -0.0014246676 -0.0018995568) to (10.86095 16.291441 21.7219) with tilt (0 0 0)
  triclinic box = (-0.00094977841 -0.0014246676 -0.0018995568) to (10.86095 16.291441 21.7219) with tilt (0 0 0)
if "${dir} == 3" then    "change_box all z delta 0 ${delta} remap units box"
if "${dir} == 4" then    "change_box all yz delta ${delta} remap units box"
if "${dir} == 5" then    "change_box all xz delta ${delta} remap units box"
if "${dir} == 6" then    "change_box all xy delta ${delta} remap units box"

# Relax atoms positions

minimize ${etol} ${ftol} ${maxiter} ${maxeval}
minimize 0 ${ftol} ${maxiter} ${maxeval}
minimize 0 1e-10 ${maxiter} ${maxeval}
minimize 0 1e-10 100 ${maxeval}
minimize 0 1e-10 100 1000
Neighbor list info ...
  update: every = 1 steps, delay = 0 steps, check = yes
  max neighbors/atom: 2000, page size: 100000
  master list distance cutoff = 4.77118
  ghost atom cutoff = 4.77118
  1 neighbor lists, perpetual/occasional/extra = 1 0 0
  (1) pair sw, perpetual
      attributes: full, newton on
      pair build: full/nsq
      stencil: none
      bin: none
Per MPI rank memory allocation (min/avg/max) = 4.178 | 4.178 | 4.178 Mbytes
   Step          Temp          PotEng         Press           Pxx            Pyy            Pzz            Pxy            Pxz            Pyz             Lx             Ly             Lz           Volume    
         4   0             -832.6272      -1.0141598     -0.76414647    -1.5141803     -0.76415267     1.6956728      0.16463692     0.16518462     10.8619        16.292866      21.723799      3844.4927    
         5   0             -832.6272      -1.0142257     -0.76421787    -1.514241      -0.76421814    -0.40327677    -0.039155136   -0.039283706    10.8619        16.292866      21.723799      3844.4927    
         6   0             -832.6272      -1.0142272     -0.76421952    -1.5142431     -0.76421906     0.35934917     0.034889296    0.035005163    10.8619        16.292866      21.723799      3844.4927    
         7   0             -832.6272      -1.0142271     -0.76421914    -1.5142431     -0.76421904    -0.25639249    -0.024892985   -0.024976183    10.8619        16.292866      21.723799      3844.4927    
         8   0             -832.6272      -1.014227      -0.76421904    -1.5142431     -0.764219       0.12274204     0.011916842    0.011956446    10.8619        16.292866      21.723799      3844.4927    
         9   0             -832.6272      -1.014227      -0.76421903    -1.5142431     -0.76421899    -0.059791932   -0.0058049869  -0.0058243275   10.8619        16.292866      21.723799      3844.4927    
        10   0             -832.6272      -1.014227      -0.764219      -1.5142431     -0.764219       0.030554083    0.0029662621   0.0029761173   10.8619        16.292866      21.723799      3844.4927    
        11   0             -832.6272      -1.014227      -0.76421899    -1.5142431     -0.76421898    -0.018168588   -0.0017637258  -0.0017695888   10.8619        16.292866      21.723799      3844.4927    
        12   0             -832.6272      -1.014227      -0.76421898    -1.5142431     -0.76421898     0.010000371    0.00097069269  0.00097392625  10.8619        16.292866      21.723799      3844.4927    
        13   0             -832.6272      -1.014227      -0.76421899    -1.5142431     -0.76421898    -0.0056281383  -0.00054621234 -0.00054805303  10.8619        16.292866      21.723799      3844.4927    
        14   0             -832.6272      -1.014227      -0.76421898    -1.5142431     -0.76421898     0.0034468401   0.00033443509  0.00033558217  10.8619        16.292866      21.723799      3844.4927    
        15   0             -832.6272      -1.014227      -0.76421898    -1.5142431     -0.76421898    -0.0017129966  -0.00016611219 -0.00016670731  10.8619        16.292866      21.723799      3844.4927    
        16   0             -832.6272      -1.014227      -0.76421898    -1.5142431     -0.76421898     0.00095081458  9.209925e-05   9.2456617e-05  10.8619        16.292866      21.723799      3844.4927    
        17   0             -832.6272      -1.014227      -0.76421898    -1.5142431     -0.76421898    -0.00055168074 -5.3322939e-05 -5.3561287e-05  10.8619        16.292866      21.723799      3844.4927    
        18   0             -832.6272      -1.014227      -0.76421898    -1.5142431     -0.76421898     0.00035967276  3.4570711e-05  3.4777835e-05  10.8619        16.292866      21.723799      3844.4927    
        19   0             -832.6272      -1.014227      -0.76421898    -1.5142431     -0.76421898    -0.00018457377 -1.7600969e-05 -1.7744738e-05  10.8619        16.292866      21.723799      3844.4927    
        20   0             -832.6272      -1.014227      -0.76421898    -1.5142431     -0.76421898     0.00010504888  9.8146425e-06  9.9504944e-06  10.8619        16.292866      21.723799      3844.4927    
        21   0             -832.6272      -1.014227      -0.76421898    -1.5142431     -0.76421898    -6.5259288e-05 -5.8763337e-06 -6.0196866e-06  10.8619        16.292866      21.723799      3844.4927    
        22   0             -832.6272      -1.014227      -0.76421898    -1.5142431     -0.76421898     3.6247151e-05  3.0676964e-06  3.1994347e-06  10.8619        16.292866      21.723799      3844.4927    
        23   0             -832.6272      -1.014227      -0.76421898    -1.5142431     -0.76421898    -2.9143183e-05 -2.229075e-06  -2.3980693e-06  10.8619        16.292866      21.723799      3844.4927    
        24   0             -832.6272      -1.014227      -0.76421898    -1.5142431     -0.76421898     3.0571686e-05  2.1289424e-06  2.3618115e-06  10.8619        16.292866      21.723799      3844.4927    
        25   0             -832.6272      -1.014227      -0.76421898    -1.5142431     -0.76421898    -2.3506156e-05 -1.5210068e-06 -1.7309506e-06  10.8619        16.292866      21.723799      3844.4927    
        26   0             -832.6272      -1.014227      -0.76421898    -1.5142431     -0.76421898     3.6104534e-05  2.2404072e-06  2.5884277e-06  10.8619        16.292866      21.723799      3844.4927    
        27   0             -832.6272      -1.014227      -0.76421898    -1.5142431     -0.76421898    -3.6370701e-05 -2.2091073e-06 -2.5724534e-06  10.8619        16.292866      21.723799      3844.4927    
        28   0             -832.6272      -1.014227      -0.76421898    -1.5142431     -0.76421898     3.9166597e-05  2.3589205e-06  2.7554783e-06  10.8619        16.292866      21.723799      3844.4927    
        29   0             -832.6272      -1.014227      -0.76421898    -1.5142431     -0.76421898    -4.7001132e-05 -2.8175036e-06 -3.296852e-06   10.8619        16.292866      21.723799      3844.4927    
        30   0             -832.6272      -1.014227      -0.76421898    -1.5142431     -0.76421898     4.83318e-05    2.8906318e-06  3.3852675e-06  10.8619        16.292866      21.723799      3844.4927    
        31   0             -832.6272      -1.014227      -0.76421898    -1.5142431     -0.76421898    -6.1946028e-05 -3.7023848e-06 -4.336979e-06   10.8619        16.292866      21.723799      3844.4927    
        32   0             -832.6272      -1.014227      -0.76421898    -1.5142431     -0.76421898     5.4331962e-05  3.2460473e-06  3.8029622e-06  10.8619        16.292866      21.723799      3844.4927    
        33   0             -832.6272      -1.014227      -0.76421898    -1.5142431     -0.76421898    -5.9631276e-05 -3.5620969e-06 -4.1734173e-06  10.8619        16.292866      21.723799      3844.4927    
        34   0             -832.6272      -1.014227      -0.76421898    -1.5142431     -0.76421898     4.0306747e-05  2.4074976e-06  2.8208015e-06  10.8619        16.292866      21.723799      3844.4927    
        35   0             -832.6272      -1.014227      -0.76421898    -1.5142431     -0.76421898    -3.2653071e-05 -1.9500784e-06 -2.2851005e-06  10.8619        16.292866      21.723799      3844.4927    
        36   0             -832.6272      -1.014227      -0.76421898    -1.5142431     -0.76421898     3.0724145e-05  1.8347359e-06  2.1500686e-06  10.8619        16.292866      21.723799      3844.4927    
        37   0             -832.6272      -1.014227      -0.76421898    -1.5142431     -0.76421898    -2.0122165e-05 -1.2014943e-06 -1.4080965e-06  10.8619        16.292866      21.723799      3844.4927    
        38   0             -832.6272      -1.014227      -0.76421898    -1.5142431     -0.76421898     1.3158849e-05  7.8557919e-07  9.2079774e-07  10.8619        16.292866      21.723799      3844.4927    
        39   0             -832.6272      -1.014227      -0.76421898    -1.5142431     -0.76421898    -8.0367422e-06 -4.7971371e-07 -5.6236067e-07  10.8619        16.292866      21.723799      3844.4927    
        40   0             -832.6272      -1.014227      -0.76421898    -1.5142431     -0.76421898     3.080305e-06   1.8384383e-07  2.1555361e-07  10.8619        16.292866      21.723799      3844.4927    
        41   0             -832.6272      -1.014227      -0.76421898    -1.5142431     -0.76421898    -1.6740934e-06 -9.9871555e-08 -1.171675e-07   10.8619        16.292866      21.723799      3844.4927    
        42   0             -832.6272      -1.014227      -0.76421898    -1.5142431     -0.76421898     1.1212502e-06  6.6838699e-08  7.8527389e-08  10.8619        16.292866      21.723799      3844.4927    
        43   0             -832.6272      -1.014227      -0.76421898    -1.5142431     -0.76421898    -3.920631e-07  -2.3320001e-08 -2.7523767e-08  10.8619        16.292866      21.723799      3844.4927    
        44   0             -832.6272      -1.014227      -0.76421898    -1.5142431     -0.76421898     2.0523551e-07  1.2109517e-08  1.4434726e-08  10.8619        16.292866      21.723799      3844.4927    
        45   0             -832.6272      -1.014227      -0.76421898    -1.5142431     -0.76421898    -1.0705548e-07 -6.0929825e-09 -7.5195025e-09  10.8619        16.292866      21.723799      3844.4927    
        46   0             -832.6272      -1.014227      -0.76421898    -1.5142431     -0.76421898     5.4079893e-08  2.843065e-09   3.7344303e-09  10.8619        16.292866      21.723799      3844.4927    
        47   0             -832.6272      -1.014227      -0.76421898    -1.5142431     -0.76421898    -1.7390972e-08 -7.7910527e-10 -1.1193708e-09  10.8619        16.292866      21.723799      3844.4927    
        48   0             -832.6272      -1.014227      -0.76421898    -1.5142431     -0.76421898     1.2311469e-08  3.5549833e-10  5.7268642e-10  10.8619        16.292866      21.723799      3844.4927    
        49   0             -832.6272      -1.014227      -0.76421898    -1.5142431     -0.76421898    -4.9141352e-09 -7.1650523e-11 -7.0259379e-11  10.8619        16.292866      21.723799      3844.4927    
        50   0             -832.6272      -1.014227      -0.76421898    -1.5142431     -0.76421898     3.5108286e-09 -9.3120883e-11 -1.1020047e-10  10.8619        16.292866      21.723799      3844.4927    
        51   0             -832.6272      -1.014227      -0.76421898    -1.5142431     -0.76421898    -4.3968234e-09  2.6411994e-10  3.4012123e-10  10.8619        16.292866      21.723799      3844.4927    
        52   0             -832.6272      -1.014227      -0.76421898    -1.5142431     -0.76421898     2.3202815e-09 -2.4464146e-10 -1.8109774e-10  10.8619        16.292866      21.723799      3844.4927    
        53   0             -832.6272      -1.014227      -0.76421898    -1.5142431     -0.76421898    -2.6970834e-09  3.7858442e-10  1.7540761e-10  10.8619        16.292866      21.723799      3844.4927    
Loop time of 0.0094267 on 1 procs for 49 steps with 192 atoms

92.0% CPU use with 1 MPI tasks x 1 OpenMP threads

Minimization stats:
  Stopping criterion = force tolerance
  Energy initial, next-to-last, final = 
     -832.627199805453  -832.627199982311  -832.627199982311
  Force two-norm initial, final = 0.0030764352 7.4049107e-11
  Force max component initial, final = 0.00032755643 9.6326195e-12
  Final line search alpha, max atom move = 1 9.6326195e-12
  Iterations, force evaluations = 49 98

MPI task timing breakdown:
Section |  min time  |  avg time  |  max time  |%varavg| %total
---------------------------------------------------------------
Pair    | 0.0082205  | 0.0082205  | 0.0082205  |   0.0 | 87.20
Neigh   | 0          | 0          | 0          |   0.0 |  0.00
Comm    | 0.00017798 | 0.00017798 | 0.00017798 |   0.0 |  1.89
Output  | 0.00076361 | 0.00076361 | 0.00076361 |   0.0 |  8.10
Modify  | 0          | 0          | 0          |   0.0 |  0.00
Other   |            | 0.0002646  |            |       |  2.81

Nlocal:            192 ave         192 max         192 min
Histogram: 1 0 0 0 0 0 0 0 0 0
Nghost:            634 ave         634 max         634 min
Histogram: 1 0 0 0 0 0 0 0 0 0
Neighs:              0 ave           0 max           0 min
Histogram: 1 0 0 0 0 0 0 0 0 0
FullNghs:         5376 ave        5376 max        5376 min
Histogram: 1 0 0 0 0 0 0 0 0 0

Total # of neighbors = 5376
Ave neighs/atom = 28
Neighbor list builds = 0
Dangerous builds = 0

# Obtain new stress tensor

variable tmp equal pe
variable e1 equal ${tmp}
variable e1 equal -832.627199982311
variable tmp equal press
variable p1 equal ${tmp}
variable p1 equal -1.01422702214558
variable tmp equal pxx
variable pxx1 equal ${tmp}
variable pxx1 equal -0.764218976804952
variable tmp equal pyy
variable pyy1 equal ${tmp}
variable pyy1 equal -1.51424311282691
variable tmp equal pzz
variable pzz1 equal ${tmp}
variable pzz1 equal -0.764218976804871
variable tmp equal pxy
variable pxy1 equal ${tmp}
variable pxy1 equal -2.69708344069688e-09
variable tmp equal pxz
variable pxz1 equal ${tmp}
variable pxz1 equal 3.78584422711671e-10
variable tmp equal pyz
variable pyz1 equal ${tmp}
variable pyz1 equal 1.75407607294125e-10

# Compute elastic constant from pressure tensor

variable C1pos equal ${d1}
variable C1pos equal 76.4218976782242
variable C2pos equal ${d2}
variable C2pos equal 151.42431127389
variable C3pos equal ${d3}
variable C3pos equal 76.4218976792407
variable C4pos equal ${d4}
variable C4pos equal -4.03742065022855e-08
variable C5pos equal ${d5}
variable C5pos equal -2.54242117573787e-08
variable C6pos equal ${d6}
variable C6pos equal 3.28870917247299e-07

# Combine positive and negative

variable C1${dir} equal 0.5*(${C1neg}+${C1pos})
variable C12 equal 0.5*(${C1neg}+${C1pos})
variable C12 equal 0.5*(76.4222708914171+${C1pos})
variable C12 equal 0.5*(76.4222708914171+76.4218976782242)
variable C2${dir} equal 0.5*(${C2neg}+${C2pos})
variable C22 equal 0.5*(${C2neg}+${C2pos})
variable C22 equal 0.5*(151.424647213557+${C2pos})
variable C22 equal 0.5*(151.424647213557+151.42431127389)
variable C3${dir} equal 0.5*(${C3neg}+${C3pos})
variable C32 equal 0.5*(${C3neg}+${C3pos})
variable C32 equal 0.5*(76.4222708903681+${C3pos})
variable C32 equal 0.5*(76.4222708903681+76.4218976792407)
variable C4${dir} equal 0.5*(${C4neg}+${C4pos})
variable C42 equal 0.5*(${C4neg}+${C4pos})
variable C42 equal 0.5*(2.69616871625035e-07+${C4pos})
variable C42 equal 0.5*(2.69616871625035e-07+-4.03742065022855e-08)
variable C5${dir} equal 0.5*(${C5neg}+${C5pos})
variable C52 equal 0.5*(${C5neg}+${C5pos})
variable C52 equal 0.5*(-2.43774828767574e-07+${C5pos})
variable C52 equal 0.5*(-2.43774828767574e-07+-2.54242117573787e-08)
variable C6${dir} equal 0.5*(${C6neg}+${C6pos})
variable C62 equal 0.5*(${C6neg}+${C6pos})
variable C62 equal 0.5*(-2.34994464619115e-07+${C6pos})
variable C62 equal 0.5*(-2.34994464619115e-07+3.28870917247299e-07)

# Delete dir to make sure it is not reused

variable dir delete

# uzz Perturbation

variable dir equal 3
include displace.mod
# NOTE: This script should not need to be
[...]
        15   0             -832.6272      -1.8125668e-07 -5.843821e-07   1.7951741e-07 -1.3890535e-07 -0.56691461    -0.00034285876 -0.00034394325  10.8619        16.292849      21.723799      3844.4888    
        16   0             -832.6272      -1.8357548e-07 -5.7915915e-07  1.7371002e-07 -1.452773e-07  -0.56314723     0.00019061367  0.00019119729  10.8619        16.292849      21.723799      3844.4888    
        17   0             -832.6272      -1.8149124e-07 -5.8063851e-07  1.7718773e-07 -1.4102294e-07 -0.56527242    -0.00011030623 -0.00011062352  10.8619        16.292849      21.723799      3844.4888    
        18   0             -832.6272      -1.8179997e-07 -5.7789848e-07  1.7561158e-07 -1.43113e-07   -0.56399124     7.1084732e-05  7.125388e-05   10.8619        16.292849      21.723799      3844.4888    
        19   0             -832.6272      -1.8110117e-07 -5.7830884e-07  1.7693118e-07 -1.4192586e-07 -0.56474673    -3.5860189e-05 -3.5920025e-05  10.8619        16.292849      21.723799      3844.4888    
        20   0             -832.6272      -1.8122223e-07 -5.773815e-07   1.7651753e-07 -1.4280272e-07 -0.56435562     1.9483789e-05  1.947819e-05   10.8619        16.292849      21.723799      3844.4888    
        21   0             -832.6272      -1.8100306e-07 -5.7743056e-07  1.7692073e-07 -1.4249934e-07 -0.56457189    -1.1093048e-05 -1.1046753e-05  10.8619        16.292849      21.723799      3844.4888    
        22   0             -832.6272      -1.8106837e-07 -5.771636e-07   1.7677047e-07 -1.4281199e-07 -0.56445603     5.2613932e-06  5.1973861e-06  10.8619        16.292849      21.723799      3844.4888    
        23   0             -832.6272      -1.8101071e-07 -5.7715905e-07  1.7685489e-07 -1.4272795e-07 -0.5645158     -3.1413012e-06 -3.043748e-06   10.8619        16.292849      21.723799      3844.4888    
        24   0             -832.6272      -1.8102805e-07 -5.7706103e-07  1.7679149e-07 -1.428146e-07  -0.56447654     2.334317e-06   2.1913352e-06  10.8619        16.292849      21.723799      3844.4888    
        25   0             -832.6272      -1.8102968e-07 -5.7709911e-07  1.7681112e-07 -1.4280104e-07 -0.5645026     -1.2633371e-06 -1.1309946e-06  10.8619        16.292849      21.723799      3844.4888    
        26   0             -832.6272      -1.8096076e-07 -5.769945e-07   1.7686538e-07 -1.4275317e-07 -0.56448224     1.5013694e-06  1.2795135e-06  10.8619        16.292849      21.723799      3844.4888    
        27   0             -832.6272      -1.8096873e-07 -5.7702916e-07  1.7686847e-07 -1.4274549e-07 -0.56450305    -1.2934242e-06 -1.060558e-06   10.8619        16.292849      21.723799      3844.4888    
        28   0             -832.6272      -1.8100063e-07 -5.7701551e-07  1.768085e-07  -1.4279488e-07 -0.56448358     1.3018791e-06  1.0469563e-06  10.8619        16.292849      21.723799      3844.4888    
        29   0             -832.6272      -1.8099077e-07 -5.7703801e-07  1.7682827e-07 -1.4276257e-07 -0.5645047     -1.5028554e-06 -1.193963e-06   10.8619        16.292849      21.723799      3844.4888    
        30   0             -832.6272      -1.8100591e-07 -5.7702215e-07  1.7679817e-07 -1.4279376e-07 -0.5644819      1.5186157e-06  1.1989172e-06  10.8619        16.292849      21.723799      3844.4888    
        31   0             -832.6272      -1.8095962e-07 -5.7702061e-07  1.7686262e-07 -1.4272087e-07 -0.56450812    -1.9524417e-06 -1.5386009e-06  10.8619        16.292849      21.723799      3844.4888    
        32   0             -832.6272      -1.8098524e-07 -5.7699826e-07  1.7682064e-07 -1.427781e-07  -0.56448026     1.7333436e-06  1.3645212e-06  10.8619        16.292849      21.723799      3844.4888    
        33   0             -832.6272      -1.8097242e-07 -5.7702605e-07  1.7684288e-07 -1.4273409e-07 -0.56450826    -1.969842e-06  -1.5500341e-06  10.8619        16.292849      21.723799      3844.4888    
        34   0             -832.6272      -1.8099307e-07 -5.7701404e-07  1.7681289e-07 -1.4277807e-07 -0.56448254     1.4324816e-06  1.1269846e-06  10.8619        16.292849      21.723799      3844.4888    
        35   0             -832.6272      -1.8097833e-07 -5.770293e-07   1.7684258e-07 -1.4274828e-07 -0.56450275    -1.2401519e-06 -9.7557868e-07  10.8619        16.292849      21.723799      3844.4888    
        36   0             -832.6272      -1.8096978e-07 -5.7699854e-07  1.7684312e-07 -1.4275393e-07 -0.56448304     1.3649334e-06  1.0737985e-06  10.8619        16.292849      21.723799      3844.4888    
        37   0             -832.6272      -1.8098068e-07 -5.7702807e-07  1.7683659e-07 -1.4275057e-07 -0.56450207    -1.1503982e-06 -9.0510247e-07  10.8619        16.292849      21.723799      3844.4888    
        38   0             -832.6272      -1.8100354e-07 -5.7702674e-07  1.7680345e-07 -1.4278732e-07 -0.56448532     1.0639264e-06  8.3713649e-07  10.8619        16.292849      21.723799      3844.4888    
        39   0             -832.6272      -1.8096046e-07 -5.7700378e-07  1.7685775e-07 -1.4273535e-07 -0.56450177    -1.1103554e-06 -8.7378114e-07  10.8619        16.292849      21.723799      3844.4888    
        40   0             -832.6272      -1.8095866e-07 -5.7699148e-07  1.7685733e-07 -1.4274184e-07 -0.56448853     6.3936006e-07  5.0319433e-07  10.8619        16.292849      21.723799      3844.4888    
        41   0             -832.6272      -1.8096365e-07 -5.7700784e-07  1.7685375e-07 -1.4273687e-07 -0.56449728    -5.1782432e-07 -4.0758523e-07  10.8619        16.292849      21.723799      3844.4888    
        42   0             -832.6272      -1.8101165e-07 -5.7703697e-07  1.7679818e-07 -1.4279618e-07 -0.56448992     4.5640368e-07  3.5926592e-07  10.8619        16.292849      21.723799      3844.4888    
        43   0             -832.6272      -1.8100198e-07 -5.7704395e-07  1.7680734e-07 -1.4276933e-07 -0.56449478    -1.8654155e-07 -1.4688824e-07  10.8619        16.292849      21.723799      3844.4888    
        44   0             -832.6272      -1.809932e-07  -5.7702952e-07  1.76821e-07   -1.4277109e-07 -0.56449256     1.0645077e-07  8.3773589e-08  10.8619        16.292849      21.723799      3844.4888    
        45   0             -832.6272      -1.8100658e-07 -5.7704115e-07  1.7680819e-07 -1.4278677e-07 -0.5644938     -5.7547252e-08 -4.5226545e-08  10.8619        16.292849      21.723799      3844.4888    
        46   0             -832.6272      -1.8095256e-07 -5.7698798e-07  1.7686672e-07 -1.4273643e-07 -0.56449314     2.9511576e-08  2.3107256e-08  10.8619        16.292849      21.723799      3844.4888    
        47   0             -832.6272      -1.8094437e-07 -5.7698476e-07  1.7687102e-07 -1.4271937e-07 -0.56449344    -9.4119192e-09 -7.2493386e-09  10.8619        16.292849      21.723799      3844.4888    
        48   0             -832.6272      -1.8097075e-07 -5.7700824e-07  1.7685088e-07 -1.4275489e-07 -0.56449332     6.2324503e-09  4.4860404e-09  10.8619        16.292849      21.723799      3844.4888    
        49   0             -832.6272      -1.8099986e-07 -5.77034e-07    1.768154e-07  -1.4278098e-07 -0.56449338    -2.219067e-09  -1.386725e-09   10.8619        16.292849      21.723799      3844.4888    
        50   0             -832.6272      -1.8095011e-07 -5.7698942e-07  1.7687416e-07 -1.4273508e-07 -0.56449336     1.3326918e-09  6.4191123e-10  10.8619        16.292849      21.723799      3844.4888    
        51   0             -832.6272      -1.8095575e-07 -5.7699482e-07  1.7686424e-07 -1.4273669e-07 -0.56449337    -1.3811859e-09 -4.4650175e-10  10.8619        16.292849      21.723799      3844.4888    
        52   0             -832.6272      -1.8097459e-07 -5.7701467e-07  1.7684478e-07 -1.4275388e-07 -0.56449337     4.5972244e-10  8.1825417e-11  10.8619        16.292849      21.723799      3844.4888    
        53   0             -832.6272      -1.809861e-07  -5.7702128e-07  1.7682452e-07 -1.4276154e-07 -0.56449337    -2.4297812e-10 -1.4814354e-11  10.8619        16.292849      21.723799      3844.4888    
Loop time of 0.00955705 on 1 procs for 49 steps with 192 atoms

98.9% CPU use with 1 MPI tasks x 1 OpenMP threads

Minimization stats:
  Stopping criterion = force tolerance
  Energy initial, next-to-last, final = 
     -832.627199810021  -832.627199983438  -832.627199983438
  Force two-norm initial, final = 0.0030354318 7.4063805e-11
  Force max component initial, final = 0.00031195392 9.6047074e-12
  Final line search alpha, max atom move = 1 9.6047074e-12
  Iterations, force evaluations = 49 98

MPI task timing breakdown:
Section |  min time  |  avg time  |  max time  |%varavg| %total
---------------------------------------------------------------
Pair    | 0.0082873  | 0.0082873  | 0.0082873  |   0.0 | 86.71
Neigh   | 0          | 0          | 0          |   0.0 |  0.00
Comm    | 0.00016573 | 0.00016573 | 0.00016573 |   0.0 |  1.73
Output  | 0.00082346 | 0.00082346 | 0.00082346 |   0.0 |  8.62
Modify  | 0          | 0          | 0          |   0.0 |  0.00
Other   |            | 0.0002806  |            |       |  2.94

Nlocal:            192 ave         192 max         192 min
Histogram: 1 0 0 0 0 0 0 0 0 0
Nghost:            634 ave         634 max         634 min
Histogram: 1 0 0 0 0 0 0 0 0 0
Neighs:              0 ave           0 max           0 min
Histogram: 1 0 0 0 0 0 0 0 0 0
FullNghs:         5376 ave        5376 max        5376 min
Histogram: 1 0 0 0 0 0 0 0 0 0

Total # of neighbors = 5376
Ave neighs/atom = 28
Neighbor list builds = 0
Dangerous builds = 0

# Obtain new stress tensor

variable tmp equal pe
variable e1 equal ${tmp}
variable e1 equal -832.627199983438
variable tmp equal press
variable p1 equal ${tmp}
variable p1 equal -1.80986097755601e-07
variable tmp equal pxx
variable pxx1 equal ${tmp}
variable pxx1 equal -5.7702127647106e-07
variable tmp equal pyy
variable pyy1 equal ${tmp}
variable pyy1 equal 1.76824519148223e-07
variable tmp equal pzz
variable pzz1 equal ${tmp}
variable pzz1 equal -1.42761535943965e-07
variable tmp equal pxy
variable pxy1 equal ${tmp}
variable pxy1 equal -0.564493369497879
variable tmp equal pxz
variable pxz1 equal ${tmp}
variable pxz1 equal -2.42978118392431e-10
variable tmp equal pyz
variable pyz1 equal ${tmp}
variable pyz1 equal -1.48143539177832e-11

# Compute elastic constant from pressure tensor

variable C1pos equal ${d1}
variable C1pos equal 5.7699856680186e-05
variable C2pos equal ${d2}
variable C2pos equal -1.7691252697835e-05
variable C3pos equal ${d3}
variable C3pos equal 1.4274907231247e-05
variable C4pos equal ${d4}
variable C4pos equal -2.13520103810947e-08
variable C5pos equal ${d5}
variable C5pos equal 3.67320423530315e-08
variable C6pos equal ${d6}
variable C6pos equal 56.4493370089505

# Combine positive and negative

variable C1${dir} equal 0.5*(${C1neg}+${C1pos})
variable C16 equal 0.5*(${C1neg}+${C1pos})
variable C16 equal 0.5*(-5.76999914918648e-05+${C1pos})
variable C16 equal 0.5*(-5.76999914918648e-05+5.7699856680186e-05)
variable C2${dir} equal 0.5*(${C2neg}+${C2pos})
variable C26 equal 0.5*(${C2neg}+${C2pos})
variable C26 equal 0.5*(1.76913345365739e-05+${C2pos})
variable C26 equal 0.5*(1.76913345365739e-05+-1.7691252697835e-05)
variable C3${dir} equal 0.5*(${C3neg}+${C3pos})
variable C36 equal 0.5*(${C3neg}+${C3pos})
variable C36 equal 0.5*(-1.42747859341526e-05+${C3pos})
variable C36 equal 0.5*(-1.42747859341526e-05+1.4274907231247e-05)
variable C4${dir} equal 0.5*(${C4neg}+${C4pos})
variable C46 equal 0.5*(${C4neg}+${C4pos})
variable C46 equal 0.5*(-1.77485856567152e-07+${C4pos})
variable C46 equal 0.5*(-1.77485856567152e-07+-2.13520103810947e-08)
variable C5${dir} equal 0.5*(${C5neg}+${C5pos})
variable C56 equal 0.5*(${C5neg}+${C5pos})
variable C56 equal 0.5*(6.36632390818209e-08+${C5pos})
variable C56 equal 0.5*(6.36632390818209e-08+3.67320423530315e-08)
variable C6${dir} equal 0.5*(${C6neg}+${C6pos})
variable C66 equal 0.5*(${C6neg}+${C6pos})
variable C66 equal 0.5*(56.4493354341357+${C6pos})
variable C66 equal 0.5*(56.4493354341357+56.4493370089505)

# Delete dir to make sure it is not reused

variable dir delete

# Output final values

variable C11all equal ${C11}
variable C11all equal 151.424479259889
variable C22all equal ${C22}
variable C22all equal 151.424479243724
variable C33all equal ${C33}
variable C33all equal 151.424479259873

variable C12all equal 0.5*(${C12}+${C21})
variable C12all equal 0.5*(76.4220842848206+${C21})
variable C12all equal 0.5*(76.4220842848206+76.4220842924682)
variable C13all equal 0.5*(${C13}+${C31})
variable C13all equal 0.5*(76.4220842927165+${C31})
variable C13all equal 0.5*(76.4220842927165+76.4220842930048)
variable C23all equal 0.5*(${C23}+${C32})
variable C23all equal 0.5*(76.4220842925863+${C32})
variable C23all equal 0.5*(76.4220842925863+76.4220842848044)

variable C44all equal ${C44}
variable C44all equal 56.4493366256908
variable C55all equal ${C55}
variable C55all equal 56.4493366602675
variable C66all equal ${C66}
variable C66all equal 56.4493362215431

variable C14all equal 0.5*(${C14}+${C41})
variable C14all equal 0.5*(8.2404631955021e-10+${C41})
variable C14all equal 0.5*(8.2404631955021e-10+-8.14571309826938e-08)
variable C15all equal 0.5*(${C15}+${C51})
variable C15all equal 0.5*(1.90933237725186e-09+${C51})
variable C15all equal 0.5*(1.90933237725186e-09+-1.57479829378301e-07)
variable C16all equal 0.5*(${C16}+${C61})
variable C16all equal 0.5*(-6.74058393974051e-11+${C61})
variable C16all equal 0.5*(-6.74058393974051e-11+1.7390560748327e-08)

variable C24all equal 0.5*(${C24}+${C42})
variable C24all equal 0.5*(1.45870487189932e-09+${C42})
variable C24all equal 0.5*(1.45870487189932e-09+1.14621332561375e-07)
variable C25all equal 0.5*(${C25}+${C52})
variable C25all equal 0.5*(1.29937491560021e-09+${C52})
variable C25all equal 0.5*(1.29937491560021e-09+-1.34599520262476e-07)
variable C26all equal 0.5*(${C26}+${C62})
variable C26all equal 0.5*(4.09193694502456e-11+${C62})
variable C26all equal 0.5*(4.09193694502456e-11+4.6938226314092e-08)

variable C34all equal 0.5*(${C34}+${C43})
variable C34all equal 0.5*(1.18602647674996e-09+${C43})
variable C34all equal 0.5*(1.18602647674996e-09+3.74735771260471e-08)
variable C35all equal 0.5*(${C35}+${C53})
variable C35all equal 0.5*(2.00279275845036e-09+${C53})
variable C35all equal 0.5*(2.00279275845036e-09+-1.76461056819731e-08)
variable C36all equal 0.5*(${C36}+${C63})
variable C36all equal 0.5*(6.06485471999963e-11+${C63})
variable C36all equal 0.5*(6.06485471999963e-11+-1.86456290730905e-08)

variable C45all equal 0.5*(${C45}+${C54})
variable C45all equal 0.5*(1.29513911085182e-08+${C54})
variable C45all equal 0.5*(1.29513911085182e-08+2.85191095346471e-07)
variable C46all equal 0.5*(${C46}+${C64})
variable C46all equal 0.5*(-9.94189334741234e-08+${C64})
variable C46all equal 0.5*(-9.94189334741234e-08+1.20987947782913e-07)
variable C56all equal 0.5*(${C56}+${C65})
variable C56all equal 0.5*(5.01976407174262e-08+${C65})
variable C56all equal 0.5*(5.01976407174262e-08+-1.40534088794709e-07)

# Average moduli for cubic crystals

variable C11cubic equal (${C11all}+${C22all}+${C33all})/3.0
variable C11cubic equal (151.424479259889+${C22all}+${C33all})/3.0
variable C11cubic equal (151.424479259889+151.424479243724+${C33all})/3.0
variable C11cubic equal (151.424479259889+151.424479243724+151.424479259873)/3.0
variable C12cubic equal (${C12all}+${C13all}+${C23all})/3.0
variable C12cubic equal (76.4220842886444+${C13all}+${C23all})/3.0
variable C12cubic equal (76.4220842886444+76.4220842928607+${C23all})/3.0
variable C12cubic equal (76.4220842886444+76.4220842928607+76.4220842886953)/3.0
variable C44cubic equal (${C44all}+${C55all}+${C66all})/3.0
variable C44cubic equal (56.4493366256908+${C55all}+${C66all})/3.0
variable C44cubic equal (56.4493366256908+56.4493366602675+${C66all})/3.0
variable C44cubic equal (56.4493366256908+56.4493366602675+56.4493362215431)/3.0

variable bulkmodulus equal (${C11cubic}+2*${C12cubic})/3.0
variable bulkmodulus equal (151.424479254495+2*${C12cubic})/3.0
variable bulkmodulus equal (151.424479254495+2*76.4220842900668)/3.0
variable shearmodulus1 equal ${C44cubic}
variable shearmodulus1 equal 56.4493365025005
variable shearmodulus2 equal (${C11cubic}-${C12cubic})/2.0
variable shearmodulus2 equal (151.424479254495-${C12cubic})/2.0
variable shearmodulus2 equal (151.424479254495-76.4220842900668)/2.0
variable poissonratio equal 1.0/(1.0+${C11cubic}/${C12cubic})
variable poissonratio equal 1.0/(1.0+151.424479254495/${C12cubic})
variable poissonratio equal 1.0/(1.0+151.424479254495/76.4220842900668)

# For Stillinger-Weber silicon, the analytical results
# are known to be (E. R. Cowley, 1988):
#               C11 = 151.4 GPa
#               C12 = 76.4 GPa
#               C44 = 56.4 GPa

print "========================================="
=========================================
print "Components of the Elastic Constant Tensor"
Components of the Elastic Constant Tensor
print "========================================="
=========================================

print "Elastic Constant C11all = ${C11all} ${cunits}"
Elastic Constant C11all = 151.424479259889 GPa
print "Elastic Constant C22all = ${C22all} ${cunits}"
Elastic Constant C22all = 151.424479243724 GPa
print "Elastic Constant C33all = ${C33all} ${cunits}"
Elastic Constant C33all = 151.424479259873 GPa

print "Elastic Constant C12all = ${C12all} ${cunits}"
Elastic Constant C12all = 76.4220842886444 GPa
print "Elastic Constant C13all = ${C13all} ${cunits}"
Elastic Constant C13all = 76.4220842928607 GPa
print "Elastic Constant C23all = ${C23all} ${cunits}"
Elastic Constant C23all = 76.4220842886953 GPa

print "Elastic Constant C44all = ${C44all} ${cunits}"
Elastic Constant C44all = 56.4493366256908 GPa
print "Elastic Constant C55all = ${C55all} ${cunits}"
Elastic Constant C55all = 56.4493366602675 GPa
print "Elastic Constant C66all = ${C66all} ${cunits}"
Elastic Constant C66all = 56.4493362215431 GPa

print "Elastic Constant C14all = ${C14all} ${cunits}"
Elastic Constant C14all = -4.03165423315718e-08 GPa
print "Elastic Constant C15all = ${C15all} ${cunits}"
Elastic Constant C15all = -7.77852485005246e-08 GPa
print "Elastic Constant C16all = ${C16all} ${cunits}"
Elastic Constant C16all = 8.6615774544648e-09 GPa

print "Elastic Constant C24all = ${C24all} ${cunits}"
Elastic Constant C24all = 5.80400187166372e-08 GPa
print "Elastic Constant C25all = ${C25all} ${cunits}"
Elastic Constant C25all = -6.66500726734379e-08 GPa
print "Elastic Constant C26all = ${C26all} ${cunits}"
Elastic Constant C26all = 2.34895728417711e-08 GPa

print "Elastic Constant C34all = ${C34all} ${cunits}"
Elastic Constant C34all = 1.93298018013985e-08 GPa
print "Elastic Constant C35all = ${C35all} ${cunits}"
Elastic Constant C35all = -7.82165646176137e-09 GPa
print "Elastic Constant C36all = ${C36all} ${cunits}"
Elastic Constant C36all = -9.29249026294525e-09 GPa

print "Elastic Constant C45all = ${C45all} ${cunits}"
Elastic Constant C45all = 1.49071243227495e-07 GPa
print "Elastic Constant C46all = ${C46all} ${cunits}"
Elastic Constant C46all = 1.07845071543948e-08 GPa
print "Elastic Constant C56all = ${C56all} ${cunits}"
Elastic Constant C56all = -4.51682240386414e-08 GPa

print "========================================="
=========================================
print "Average properties for a cubic crystal"
Average properties for a cubic crystal
print "========================================="
=========================================

print "Bulk Modulus = ${bulkmodulus} ${cunits}"
Bulk Modulus = 101.422882611543 GPa
print "Shear Modulus 1 = ${shearmodulus1} ${cunits}"
Shear Modulus 1 = 56.4493365025005 GPa
print "Shear Modulus 2 = ${shearmodulus2} ${cunits}"
Shear Modulus 2 = 37.5011974822141 GPa
print "Poisson Ratio = ${poissonratio}"
Poisson Ratio = 0.335410300252873
Total wall time: 0:00:00
