LAMMPS data file via write_data, version 19 Nov 2024, timestep = 1000000, units = lj

79 atoms
4 atom types
54 bonds
1 bond types
35 angles
2 angle types

-3.045986 3.045986 xlo xhi
-3.045986 3.045986 ylo yhi
-3.045986 3.045986 zlo zhi

Masses

1 1
2 1
3 0.1
4 0.1

Bond Coeffs # harmonic/omp

1 100 0.45

Angle Coeffs # harmonic/omp

1 100 180
2 100 109.471

Atoms # full

68 22 2 0 -2.075038739446551 -2.2935805228787416 -1.4798713268647092 0 1 1
70 22 4 0 -2.3039003390613155 -2.674853350687924 -1.5596310407513245 0 1 1
75 24 4 0 -2.1538930590689263 -2.9855988140875596 -1.7996903765082692 0 1 1
27 8 4 0 -1.60833036327919 -0.796271085463383 -1.900036141782468 -1 1 1
26 8 2 0 -1.530099189243226 -0.5919767859789109 -2.2831210498941346 -1 1 1
79 25 4 0 -1.428950051903036 -0.22946351692226402 -3.022764416042829 1 1 1
18 5 4 0 -0.02010213855690844 -1.8787116655989389 -1.0862441420952176 -1 0 0
28 8 4 0 -1.4610998412647513 -0.38793724460031115 -2.6643061506098524 -1 1 1
69 22 4 0 -1.859101120353431 -1.9275664011256923 -1.4126675499966248 0 1 1
34 10 4 0 -1.5797442218545483 -1.707508921055875 -1.2563875307901275 -1 1 1
39 12 4 0 -0.23194636345264036 -1.5363048127545207 -1.181809417998954 -1 0 2
32 10 2 0 -1.618372682277882 -1.28238520354864 -1.3799353898251399 -1 1 1
33 10 4 0 -1.6671444823025605 -0.82656183480331 -1.503596795011756 -1 1 1
6 2 1 0 -0.3780178449951088 -0.07622390179361639 -0.806970530071745 0 0 0
40 12 4 0 -0.5453008170457504 -0.7286536384303196 -1.0826212986411201 -1 0 2
38 12 2 0 -0.38738979322212347 -1.148847706893829 -1.136979908081324 -1 0 2
7 2 3 0 -0.5222192505061888 -0.4951791988649517 -0.7453016283097363 0 0 0
9 2 3 0 -0.08855503277116052 -0.07186541396811938 -1.1633291927809066 0 0 0
29 9 2 0 -0.6710410678942884 1.0423645211307202 -2.656307748798215 0 0 1
30 9 4 0 -0.6744859296211604 0.7053267111569049 -2.919831659367761 0 0 1
31 9 4 0 -0.6577965751984819 1.4093659892630093 -2.3797342709443843 0 0 1
72 23 4 0 -0.9156614314942926 1.4942459461063426 -2.111413005259566 0 0 1
74 24 2 0 -1.9562150492219865 2.687237836444264 -1.7633340097446863 0 0 1
76 24 4 0 -1.7747462817399637 2.2995716007785725 -1.7262786049820662 0 0 1
73 23 4 0 -1.5393789873597525 1.9485939017178642 -1.6671912905917625 0 0 1
71 23 2 0 -1.240306461716675 1.7316510870820117 -1.8803792243243023 0 0 1
77 25 2 0 -1.0424126974052907 0.04294248672862803 -3.011565224079749 1 1 1
8 2 3 0 -0.16825885926870693 0.04739086235945508 -0.44356380192893735 0 0 0
10 2 3 0 -0.737528250620946 0.18978845535615377 -0.8890196026545071 0 0 0
66 21 4 0 -0.08448065673383252 0.09950068540677055 -1.5223654566866716 0 0 0
78 25 4 0 -0.6845084268821099 0.30191038455467745 -2.9979503882699547 1 1 1
13 3 4 0 1.5473068842057507 -2.8509462760422335 -1.8319558566567835 -1 0 0
35 11 2 0 1.6880343848580037 -1.1800925732238408 -0.5787893345659352 -1 0 1
65 21 2 0 0.13955523216794755 -0.12972842922428526 -1.8184618748516335 0 0 0
20 6 2 0 0.8707290867835036 -0.09541265337048876 -2.6348753255301327 0 0 1
21 6 4 0 0.6868196545747206 -0.16454383978627535 -2.229935228779737 0 0 1
67 21 4 0 0.370026686355329 -0.37001057930954323 -2.1147808726834385 0 0 0
22 6 4 0 1.0418062368233005 -0.03251681000986364 -3.021860212374172 0 0 1
19 5 4 0 0.8029487489024016 -2.001551474040469 -1.385149741667375 -1 0 0
12 3 4 0 1.153173910593696 -2.1886508547243877 -1.2834862507607243 -1 0 0
17 5 2 0 0.3856991634193035 -1.9428390345765236 -1.2234146448362662 -1 0 0
37 11 4 0 1.697995362056019 -1.6264320070251834 -0.4322598229878599 -1 0 1
11 3 2 0 1.3376466860339695 -2.5189866218563406 -1.5544186100995254 -1 0 0
36 11 4 0 1.6884692760289077 -0.7553998597515368 -0.7158457069177511 -1 0 1
51 16 4 0 1.6013290940945704 -0.40242715913769983 -0.5425133750447325 0 0 0
55 17 4 0 1.8980457574855327 -1.7235825876041482 -0.12038391220798958 0 0 1
54 17 4 0 1.9351395828446045 -2.3689585814448355 0.5469626670460566 0 0 1
53 17 2 0 1.9148885038919237 -2.0476360687715984 0.21311857863831452 0 0 1
49 15 4 0 0.89468886032667 -0.9233482276903447 2.1806457948978544 0 0 0
41 13 2 0 0.9915582269493215 -2.759130383995729 2.0747186884030744 0 1 1
42 13 4 0 0.8667559026314007 -2.3393537553540362 2.0409655745202153 0 1 1
56 18 2 0 1.0701838139857396 -1.6014150382102832 2.049585452086797 0 0 0
57 18 4 0 0.9680825024499973 -1.9893032038793934 1.8930442875622324 0 0 0
58 18 4 0 1.1850851904910027 -1.1866964858018199 2.213016972987785 0 0 0
48 15 4 0 1.1665657674879184 -0.2997286193169949 2.7954598197444427 0 0 0
47 15 2 0 1.0304768523102015 -0.6096967363495455 2.484919834396107 0 0 0
64 20 4 0 1.7806482352367181 1.348652943123666 -2.7652236062594637 0 -1 1
63 20 4 0 2.329350145944495 1.9127991973535783 -2.318253670262421 0 -1 1
45 14 4 0 2.155681716874719 2.3003195384205957 -2.258885820313961 0 -1 1
62 20 2 0 2.0550397287323245 1.6326024530242045 -2.5365694190276153 0 -1 1
44 14 2 0 2.0296505723565144 2.662843157123703 -2.0343274166348504 0 -1 1
15 4 4 0 1.2868319086221676 0.6154499662552549 -0.46124780415744293 0 -1 0
52 16 4 0 1.6723128211622775 0.48703523810524946 -0.47596073466901506 0 0 0
14 4 2 0 1.174077422284688 0.9812774250278207 -0.17099326923641517 0 -1 0
50 16 2 0 1.6349097567918698 0.051515542955615466 -0.5121423550165722 0 0 0
46 14 4 0 1.8981881271407142 3.0308504052428185 -1.816963868258658 0 -1 1
16 4 4 0 1.0643176346615275 1.3240584149194852 0.10532760901290908 0 -1 0
23 7 2 0 0.8953960853184978 1.6941241319681433 0.8256895448857503 0 -1 1
25 7 4 0 0.8635891321529425 1.4886972945175343 0.3974541099194022 0 -1 1
24 7 4 0 0.9052241457886911 1.8858321667008773 1.2265498404492208 0 -1 1
5 1 3 0 0.9047897840391307 2.1546554913969005 1.5195974175231841 0 -1 0
60 19 4 0 1.0037360588678932 1.703349150177832 2.3236079205638713 0 -1 0
61 19 4 0 1.5891418783558218 1.5063360290434835 3.0048528750122068 0 -1 0
59 19 2 0 1.3001376653010177 1.605457104068129 2.6654044587061843 0 -1 0
1 1 1 0 0.6459041320040528 2.277165361156287 1.8905360013761368 0 -1 0
4 1 3 0 0.8019619902840283 2.6578176371623035 2.0635799861410664 0 -1 0
3 1 3 0 0.24515832459113823 2.337346909098508 1.7547814490577622 0 -1 0
2 1 3 0 0.6650787489140481 1.9355312542485437 2.2131773717084537 0 -1 0
43 13 4 0 1.1059322467163448 2.9237291123458062 2.113021088422688 0 0 1

Velocities

68 0.018950198954331476 -0.04259741384083789 0.28770099807047406
70 -0.059057420690006995 0.2551642649744966 0.32917437377770264
75 -0.7455133314136523 0.8413638793651453 0.8134213956638365
27 0.003655079691633041 -1.0423132408323639 -0.8199040725187189
26 0.06269686627296249 0.0800002431336948 0.038931882502140795
79 0.4011808649823031 -1.2009123597935893 -0.6481925383173547
18 1.3355164379038837 1.6239365085405708 -0.0716382807622951
28 0.9886554280378875 0.31819122603521305 -1.0919362735523492
69 0.3269972752983942 0.3836689798973347 -0.7755827148909427
34 -1.3143274476782454 -0.5391689062768463 -0.6142716521836494
39 0.9024105945692851 0.835140345990761 -0.09735449729328527
32 -0.22314669822096933 0.09209033861243504 0.07916050956163483
33 -1.178144983214707 -0.09706790720316144 -1.1794531915405095
6 -0.14644301119418385 -0.10561290220669335 -0.0031825381408160016
40 0.23551578630897363 -0.011174028263736162 0.475008215591268
38 -0.16636752042817868 0.2083498051537497 -0.43024243842678156
7 -0.7066704673312167 -0.19855723073413073 0.24388143557525768
9 0.3606324112128832 0.1417716890430272 -0.6064289502859572
29 -0.1908603639721747 0.12429616737821336 0.10574976726880451
30 -0.47579276115604896 -0.4298617117969148 -0.48470718232299437
31 0.22069582091020987 0.9399667662617727 0.8432223359224295
72 -0.4420346448106869 0.6445071655811534 0.4005678592397933
74 -0.062271527325821016 -0.008578752789416081 -0.17146147626583075
76 -1.4647831677314842 0.24139397601773468 0.5406705665251418
73 0.33731513500412114 -0.282710805084805 0.5963757437402816
71 0.17907138991519828 -0.024364063158245648 0.049984014261662456
77 -0.3873333986849382 0.05649760501226589 0.352031989019569
8 -0.18234705339535343 0.9178895337751685 1.070094015432824
10 1.5853151374515724 0.7394885310994085 0.4700347908603002
66 0.2557307395956547 -0.42408960056080247 0.02731133768937322
78 0.8565224398344783 0.11615602901649594 0.18711906490280114
13 0.32037309019905436 -0.1472459059479019 0.9815679427446633
35 -0.4138647272379568 0.10606839195304377 0.04878623279781098
65 -0.2762220846582187 -0.012264722114940375 -0.3998296461669049
20 -0.2331605246179115 -0.10171367326184882 0.008988131395915672
21 0.6779256223578585 0.2136501249266935 0.6424605446822597
67 -0.11545009695138668 0.7519741044609367 1.124397858963377
22 0.2035973297327824 0.1829355095145223 -1.253872618435994
19 0.25516243714967346 0.2712420174122315 -0.582460253651208
12 0.03268325454422848 -0.03959610584993081 -1.0633141579584104
17 0.12235356085092416 0.11369611831203848 0.3180415263581504
37 -0.669756135058176 -0.5006036991188954 0.37449147905089
11 0.05598739921423266 -0.09407023324288254 -0.2978353834728541
36 -1.2441757366926696 -1.3417482412086232 1.155281838754011
51 0.5378119984802152 0.962137976313386 0.11596740601912488
55 -0.4284438793416627 -0.8350874572507339 0.4547871793716383
54 -0.48138475602041536 0.2726005238883903 0.48109722429723534
53 0.16263327972945732 -0.004570841085793751 0.176187899000501
49 0.29761460724064925 1.0699089272162794 -0.3467847098021967
41 0.12648189887604455 0.010689687650312222 0.19779899794859673
42 -1.406207648880838 -0.29011467173520245 -0.1275403564136432
56 0.24306845135816407 0.025679229299433448 -0.2651594509153873
57 0.6874883208407164 0.8109580206706068 -0.09958224008305908
58 0.7835786048863399 0.39913291287926467 1.186889272024369
48 0.4687789592776865 -0.5586963386039995 -0.7648662626180553
47 0.028718200314976017 0.03763445107427075 0.4534407700652897
64 0.6568030528759251 0.10574397880535961 -0.25217934685855253
63 0.726629511626254 1.3551613592955642 0.98172936298559
45 0.2660193151408578 -0.2601281145592367 0.09440612601622471
62 0.13757881918472703 0.17812709134512725 -0.09907646472152964
44 0.28765307862637396 -0.25526039819426805 0.272730113297171
15 0.3230875192438924 0.03438185882304286 0.5085952455110208
52 1.0987307461151385 1.1738219366291565 -0.5631426462123753
14 0.04622528832704335 0.2118826419821561 -0.02511434740051815
50 0.16602674365492168 0.18482783969555838 -0.40993687791071937
46 -0.7540091804879742 0.8746546765463122 0.2282656519283613
16 -1.2236898425400893 -0.06421766350754389 -0.8054614071441224
23 -0.2628236803005187 -0.1832538530060026 -0.012212744060866126
25 1.2523508626205866 -0.2581224881953395 0.21024150418566082
24 0.7325690850369573 -0.48753821760452104 -0.465682922964336
5 0.5708189506219764 0.0867863767348585 -0.300610850871587
60 0.5497812212224564 0.11587289415708185 0.04381757275330088
61 0.8208764135846839 0.0005651151259024323 -0.24510364482109426
59 -0.15290900990209758 0.035706053792364446 0.007588899253471171
1 -0.01230198035905616 -0.036056106341383266 0.42754516972692624
4 -0.20243562311337507 -0.3111841251897316 1.6219041577699838
3 -0.17026549005917094 0.5771168833101146 -0.4144781516000006
2 -0.8985067066410418 0.5854057959966732 0.8929307989915997
43 0.7056577450048225 0.6283712447944519 -0.6625713739194331

Bonds

1 1 68 69
2 1 68 70
3 1 26 27
4 1 26 28
5 1 32 33
6 1 32 34
7 1 6 7
8 1 6 8
9 1 6 9
10 1 6 10
11 1 38 39
12 1 38 40
13 1 29 30
14 1 29 31
15 1 74 75
16 1 74 76
17 1 71 72
18 1 71 73
19 1 77 78
20 1 77 79
21 1 35 36
22 1 35 37
23 1 65 66
24 1 65 67
25 1 20 21
26 1 20 22
27 1 17 18
28 1 17 19
29 1 11 12
30 1 11 13
31 1 53 54
32 1 53 55
33 1 41 42
34 1 41 43
35 1 56 57
36 1 56 58
37 1 47 48
38 1 47 49
39 1 62 63
40 1 62 64
41 1 44 45
42 1 44 46
43 1 14 15
44 1 14 16
45 1 50 51
46 1 50 52
47 1 23 24
48 1 23 25
49 1 59 60
50 1 59 61
51 1 1 2
52 1 1 3
53 1 1 4
54 1 1 5

Angles

1 1 69 68 70
2 1 27 26 28
3 1 33 32 34
4 2 7 6 8
5 2 7 6 9
6 2 7 6 10
7 2 8 6 9
8 2 8 6 10
9 2 9 6 10
10 1 39 38 40
11 1 30 29 31
12 1 75 74 76
13 1 72 71 73
14 1 78 77 79
15 1 36 35 37
16 1 66 65 67
17 1 21 20 22
18 1 18 17 19
19 1 12 11 13
20 1 54 53 55
21 1 42 41 43
22 1 57 56 58
23 1 48 47 49
24 1 63 62 64
25 1 45 44 46
26 1 15 14 16
27 1 51 50 52
28 1 24 23 25
29 1 60 59 61
30 2 2 1 3
31 2 2 1 4
32 2 2 1 5
33 2 3 1 4
34 2 3 1 5
35 2 4 1 5
