LAMMPS data file via write_data, version 19 Nov 2024, timestep = 2000000, units = lj

400 atoms
4 atom types
300 bonds
1 bond types
350 angles
2 angle types

-4 4 xlo xhi
-4 4 ylo yhi
-4 4 zlo zhi

Masses

1 1
2 1
3 1
4 1

Bond Coeffs # harmonic/omp

1 100 0.45

Angle Coeffs # harmonic/omp

1 100 180
2 100 109.471

Atoms # full

32 7 3 0 -3.1296740062076243 -2.582527603408356 -2.695086460484526 0 0 0
351 84 4 0 -3.020338733442474 -2.926081565898663 -2.7762136857669284 0 1 0
350 84 2 0 -3.230551649037356 -3.2663453497479176 -2.9347272483425866 0 1 0
352 84 4 0 -3.4673909832825283 -3.6312762499098135 -3.1039251430025794 0 1 0
130 26 3 0 -3.778480255212974 -3.762469730677043 -2.9239632287726103 0 1 0
35 7 3 0 -3.6541638192915276 -2.2878421498750083 -2.359064416906143 0 0 0
31 7 1 0 -3.2618680436540557 -2.2406197972021404 -2.484302049458755 0 0 0
280 60 4 0 3.987973549129494 -2.2192254929029382 -2.2218940644603546 -1 0 0
34 7 3 0 -3.2235883353834933 -1.8649254236070782 -2.742788782800433 0 0 0
208 42 3 0 2.967101860768873 -0.48226343890066703 -0.006460288027031315 0 0 0
340 80 4 0 -0.9494794494454342 -3.6485064357485846 -2.017655259071007 0 1 0
50 10 3 0 -0.7942345527268241 -3.2693904213884957 -1.9898545272499732 0 0 0
6 2 1 0 1.4526094695427558 -2.6530488273630817 -2.6672749069103125 0 0 0
10 2 3 0 1.1387501175727741 -2.8103914948389637 -2.8806048458262956 0 0 0
8 2 3 0 1.8120229212315198 -2.544313523306542 -2.968670935861566 0 0 0
20 4 3 0 1.976392556894018 -3.6465178012446477 -3.644544844284555 0 0 1
9 2 3 0 1.593268293791861 -2.984569856350391 -2.345136593582843 0 0 0
7 2 3 0 1.3096832594311398 -2.259290148783807 -2.4445113925110213 0 0 0
346 82 4 0 1.911313244010037 -3.185077378542546 -2.2241793117817408 0 1 0
154 31 3 0 1.2911661031706718 -2.3270599268613 -3.718897761038485 0 0 0
334 78 4 0 1.2398246019407904 -1.9136939218989677 -2.248638606416188 0 0 0
18 4 3 0 2.6539601676413604 -3.791538958585489 -3.8397351054179008 0 0 1
121 25 1 0 3.5353124409558982 -3.9106937824736523 -0.6441667678929032 0 0 -1
16 4 1 0 2.2818366183727115 -3.58951667834704 -3.955422753745021 0 0 1
278 60 2 0 3.5832393590020337 -2.1577830203548296 -1.9748881826592133 -1 0 0
279 60 4 0 3.2049754734426696 -2.0946252814066684 -1.730385217050215 -1 0 0
30 6 3 0 2.956013017236293 -2.36969538731323 -1.961694611578105 0 0 0
29 6 3 0 2.758756821954893 -3.0181681548409904 -2.3705650503430813 0 0 0
263 55 2 0 -2.9929751871560475 -0.4268372174117974 -2.2818514463042607 0 0 0
264 55 4 0 -3.3618002847954433 -0.3695808437206431 -2.5386462706788167 0 0 0
284 62 2 0 -3.9526452787459805 -0.9217808446372837 -1.1846174709993875 1 0 0
68 14 3 0 -1.7744920537609232 -0.6338349933540848 -2.2768484435526366 0 0 0
308 70 2 0 -1.5402772335067125 -0.3570199190732346 -2.9294721438930638 1 0 0
310 70 4 0 -1.387658581914491 -0.40507479265791624 -3.3662935351092993 1 0 0
110 22 3 0 -1.2812453773230925 -0.40045547710994994 -3.738935796428856 0 0 0
309 70 4 0 -1.6960389806606422 -0.30498356221870976 -2.478737250360949 1 0 0
106 22 1 0 -0.8299608912585061 -0.4725758006412974 -3.7525620437168796 0 0 0
107 22 3 0 -0.7261544083971738 -0.8190251755901014 -3.4866560468920307 0 0 0
108 22 3 0 -0.6134620111940033 -0.11685651138455327 -3.611916525156256 0 0 0
155 31 3 0 0.7737860644646419 -1.9630337778347116 -3.387433715043252 0 0 0
151 31 1 0 1.0919595888039968 -1.9343490160929397 -3.6809949006958136 0 0 0
152 31 3 0 1.3964660890196823 -1.6177933209434976 -3.54711502763761 0 0 0
332 78 2 0 0.8617624849340755 -1.8048843702256532 -2.0673177866862593 0 0 0
318 73 4 0 -2.884670656470326 -3.025701855607871 -0.24236733851895587 0 0 0
317 73 2 0 -2.91513116106323 -3.4987905646058297 -0.2029038289973584 0 0 0
89 18 3 0 -2.632794771862627 -2.7607105099249365 -0.05298400307307744 0 0 0
33 7 3 0 -3.0009556302913274 -2.1851798122244595 -2.129333861792332 0 0 0
47 10 3 0 -1.189761471686773 -3.0115344953771714 -1.421660085854123 0 0 0
266 56 2 0 -1.1256290716052804 -2.4940602180966445 -0.19069362763939648 0 0 0
267 56 4 0 -1.3375835311927802 -2.091332145343938 -0.15155912482549644 0 0 0
49 10 3 0 -0.5844630639774641 -3.3876289755656503 -1.302184368271111 0 0 0
48 10 3 0 -0.5387378336964181 -2.7166900895047403 -1.5739601702319324 0 0 0
46 10 1 0 -0.7776201656580363 -3.094521411484202 -1.5709728869331039 0 0 0
27 6 3 0 2.227269206889461 -2.6725583860403637 -1.9547910383165017 0 0 0
63 13 3 0 1.4693998174568565 -2.436154890766775 -0.6747374175510553 0 0 0
62 13 3 0 1.4438838725671574 -3.099917730944504 -0.39345188895434713 0 0 0
344 82 2 0 1.832303019914879 -3.5010748208759925 -1.8905961282551191 0 1 0
345 82 4 0 1.76254563312723 -3.8041185861536033 -1.5787100180758844 0 1 0
65 13 3 0 2.063176376969274 -2.75679177659927 -0.4471640587797858 0 0 0
61 13 1 0 1.642491757451478 -2.708382593381642 -0.37076756260685606 0 0 0
357 86 4 0 2.3175698268003915 -2.992738757634015 -0.23107321833633584 0 1 0
26 6 1 0 2.6704354722606793 -2.7830121783055355 -1.974380634098139 0 0 0
122 25 3 0 3.7903480718167204 -3.812366925384233 -0.2912348594483515 0 0 -1
28 6 3 0 2.7676273309461563 -3.027931726708683 -1.6381173770492081 0 0 0
356 86 2 0 2.630261976786892 -3.2067539905644487 -0.47264546308771027 0 1 0
358 86 4 0 2.932343544109331 -3.4052282442728075 -0.7013436922230109 0 1 0
124 25 3 0 3.307542075611169 -3.5411709917648193 -0.7724339163875932 0 0 -1
265 55 4 0 -2.6067839116704064 -0.4940207153984891 -2.001638926192332 0 0 0
98 20 3 0 -2.823018751593474 -0.3726223593257108 -0.4399501269147227 0 0 1
286 62 4 0 -3.668099677012708 -0.5893245377270516 -1.121783589966233 1 0 0
100 20 3 0 -2.827698135287625 -1.076101298468145 -0.6573118040629906 0 0 1
97 20 3 0 -2.628376494906412 -0.5486496732949955 -1.1024171091252248 0 0 1
99 20 3 0 -3.333181142455984 -0.584659601249043 -0.9305904233861169 0 0 1
96 20 1 0 -2.9025608715679496 -0.6414992639484293 -0.7842601292991669 0 0 1
69 14 3 0 -2.333041697240176 -0.7033699534629669 -1.792343871498607 0 0 0
70 14 3 0 -1.684160224776662 -0.4440145130559613 -1.5819862265198197 0 0 0
66 14 1 0 -1.8818877640467262 -0.7317910175055937 -1.8529426938603741 0 0 0
67 14 3 0 -1.7321482788285094 -1.1684439176021197 -1.7490678961457689 0 0 0
269 57 2 0 -0.9861763986557007 -0.2999625521167828 -0.2805920452131467 0 0 0
333 78 4 0 0.46470812402354283 -1.6943266893353355 -1.880867026789627 0 0 0
380 94 2 0 0.3784247646781101 -0.29796052248707183 -0.8625585638759752 0 0 0
197 40 3 0 -0.10806090146994905 -1.2523508259678326 -1.1204174642981652 0 1 0
198 40 3 0 0.4692293371713963 -1.5534252728531166 -1.4787326625897654 0 1 0
285 62 4 0 3.759013568715819 -1.2541688410732994 -1.2450323862463566 0 0 0
200 40 3 0 0.27673585492210817 -1.7756850151442167 -0.802461831730538 0 1 0
83 17 3 0 -0.5368655041402901 -0.11377216030369389 -1.2082132975319322 0 0 0
381 94 4 0 0.5550438894781826 -0.7115146768282453 -0.8862220528282838 0 0 0
199 40 3 0 0.5643537711657817 -1.1151056782142519 -0.8984575043490646 0 1 0
196 40 1 0 0.30162330159994843 -1.4237779729762892 -1.0754057295888062 0 1 0
319 73 4 0 -2.9275537919118126 -3.958923389694708 -0.16946598097323712 0 0 0
268 56 4 0 -0.9221495591442682 -2.8767108083065067 -0.23273643374117117 0 0 0
372 91 4 0 0.5136629866474002 -0.2682547379132053 -3.957880696357406 0 0 1
164 33 3 0 -2.7330365137016988 -2.6029656135801984 2.0799907868540046 1 1 0
90 18 3 0 -3.0998614473609325 -2.3788966611772224 0.3222936162983771 0 0 0
162 33 3 0 -3.3395635331104954 -3.0436937686299204 1.9722226965573586 1 1 0
161 33 1 0 -3.0088541467260677 -2.9356522977414787 2.2661974066289443 1 1 0
86 18 1 0 -2.681046330360756 -2.416197581149553 0.21465807680498025 0 0 0
88 18 3 0 -2.549703684843726 -2.0568953751517975 0.0018210471035320656 0 0 0
378 93 4 0 -2.5647409085628765 -2.5292020554412584 1.7390896349911817 0 1 0
87 18 3 0 -2.439355673465474 -2.4734744456035185 0.5896346638490988 0 0 0
377 93 2 0 -2.424363482084115 -2.4309275282055673 1.327056249646254 0 1 0
379 93 4 0 -2.2606841997027054 -2.322373726882736 0.9003441315024687 0 1 0
250 50 3 0 -1.4950322039149515 -3.9418455719222623 2.4959946320642024 0 1 0
231 47 1 0 1.0053419405250654 -2.4986788026187368 0.9662873450919298 0 1 0
235 47 3 0 0.7191728006085862 -2.789225109777822 1.0570452807878346 0 1 0
234 47 3 0 1.0189671008480947 -2.438361517168321 0.5111842600296025 0 1 0
300 67 4 0 1.7397311577582824 -2.818728843847916 1.013028475665489 0 0 0
232 47 3 0 1.400040041589729 -2.6352758496380777 1.099479088934984 0 1 0
299 67 2 0 1.8209450286443778 -3.229434084166254 0.8619722794639502 0 0 0
301 67 4 0 1.9068185966506006 -3.637129794383941 0.7115034398118016 0 0 0
192 39 3 0 2.471887550686237 -1.5873206201073 2.4630715711142326 0 1 0
64 13 3 0 1.575937014439194 -2.5361644788571756 0.045016936082613035 0 0 0
233 47 3 0 0.9011501157548728 -2.1374316598687324 1.155875204611779 0 1 0
194 39 3 0 2.074011835183436 -2.087764604313161 2.0785813157977158 0 1 0
116 24 1 0 -2.969648966749302 -1.4427577782516747 0.9543427050290358 1 1 0
118 24 3 0 -3.399023162155535 -1.551919787069768 1.0038289963038476 1 1 0
120 24 3 0 -2.912457180791822 -0.9922800084663413 1.0338641101747925 1 1 0
117 24 3 0 -2.8383066122933713 -1.547364228028378 0.5289194764094222 1 1 0
119 24 3 0 -2.7304227377619927 -1.6704073756806928 1.2394679181184804 1 1 0
324 75 4 0 -2.969148958304182 -0.691578593199916 1.3040018081580045 0 0 0
323 75 2 0 -2.602470584986219 -0.48914198490921307 1.3295638960131873 0 0 0
138 28 3 0 -1.7850948903815735 -0.4308810664245769 0.8237572765357191 0 0 0
140 28 3 0 -1.3995680080976336 -0.782111107764663 0.2822132987649435 0 0 0
136 28 1 0 -1.8083081873757612 -0.7587626176719975 0.5004546719287241 0 0 0
137 28 3 0 -2.1349972623853692 -0.6686823527018827 0.21809787860867802 0 0 0
139 28 3 0 -1.8924766434263425 -1.1557256948025185 0.7078764106242202 0 0 0
271 57 4 0 -1.1713845365785724 -0.6408747872982085 0.0028644426743178637 0 0 0
182 37 3 0 -0.5253820803999893 -0.14436559860631162 1.2305547994463149 0 0 0
181 37 1 0 -0.4464907787910958 -0.2075098731371838 0.8018888912237492 0 0 0
184 37 3 0 -0.030923907667790265 -0.2434585008481072 0.7394232510922684 0 0 0
185 37 3 0 -0.6478835017068678 -0.5901844054463652 0.6671683722549431 0 0 0
307 69 4 0 0.2815949673524241 -0.2944162841509417 1.002781492580821 0 0 0
305 69 2 0 0.5951077315893215 -0.06978379328949257 1.2133327163939767 0 0 0
295 65 4 0 1.0166038058581606 -2.040120580440608 1.522130723011732 0 0 0
293 65 2 0 0.9818670931295046 -2.0729044291965324 1.9834694304012317 0 0 0
389 97 2 0 2.066784014933818 -0.32065480982099953 1.1513522378345056 0 0 0
391 97 4 0 1.7740677597534105 -0.22027999715122093 1.4759363553443414 0 0 0
390 97 4 0 2.3806345618570584 -0.429578478114262 0.8112163575184801 0 0 0
207 42 3 0 2.3834104324335867 -0.31008139956400815 0.43462114183280043 0 0 0
153 31 3 0 0.9005108437724819 -1.8074102630718272 3.8873539522039215 0 0 -1
277 59 4 0 1.0711151979707938 -2.019641199115625 3.585837614600656 0 0 -1
276 59 4 0 1.2238804522781734 -2.014845177864477 2.695948786368619 0 0 -1
294 65 4 0 0.9459919319887716 -2.108911394368427 2.4448867520666067 0 0 0
195 39 3 0 2.6701945035304786 -1.8027212078341337 1.768387827002673 0 1 0
206 42 1 0 2.7569553052454996 -0.1448479611284364 0.1733033999339266 0 0 0
163 33 3 0 -2.7731593126401486 -3.3104690589272208 2.3491230620761776 1 1 0
363 88 4 0 -2.768635102424006 -3.711893861504076 2.217748480223542 0 1 0
165 33 3 0 -3.1900355511441076 -2.786801161632675 2.649913617568264 1 1 0
362 88 2 0 -2.324320258562794 -3.8185384186303164 2.2894202984044734 0 1 0
364 88 4 0 -1.8724883589730676 -3.9250641271160394 2.3553444295332935 0 1 0
191 39 1 0 2.4853151232604884 -1.9439324552035848 2.153512158983653 0 1 0
193 39 3 0 2.715269534558975 -2.2746185189059496 2.3164254011518306 0 1 0
17 4 3 0 2.1234550369459715 -3.7672873529120956 3.6406267003408157 0 0 0
78 16 3 0 -2.60434703602064 -1.7464767122973297 3.4565966851825 0 0 0
80 16 3 0 -1.9108853712103164 -1.9326710051112683 3.556028600553569 0 0 0
79 16 3 0 -2.21548341595508 -2.032178144651328 2.9244466891065346 0 0 0
76 16 1 0 -2.1959964272864614 -1.7699566870593983 3.271613965418854 0 0 0
315 72 4 0 -2.0978578027074466 -0.954627176468889 3.222814355098278 0 0 0
314 72 2 0 -2.049804679688198 -0.6020706609015876 3.4690852654950906 0 0 0
77 16 3 0 -2.0621995500934256 -1.341166182159566 3.13913197510997 0 0 0
316 72 4 0 -1.9934012823957945 -0.22616850582056477 3.7381710576910083 0 0 0
261 54 4 0 3.3936645445891234 -0.09606484258995794 0.4354796780847294 0 0 0
109 22 3 0 -0.6996717475245509 -0.5722044797953361 3.8094266234480196 0 0 -1
3 1 3 0 0.6231720855961898 -0.8953272850417464 3.605093778971415 0 0 -1
5 1 3 0 0.6449380128105934 -0.37349619794474864 3.068289766385439 0 0 -1
1 1 1 0 0.387129249481306 -0.5773760928784403 3.3969867094724835 0 0 -1
4 1 3 0 0.0008640968259085849 -0.7813246875670228 3.2119223154037675 0 0 -1
2 1 3 0 0.2661315739617321 -0.2854249217407756 3.6860474855843646 0 0 -1
275 59 2 0 1.1435639210121533 -2.016433734874622 3.1294991796566607 0 0 -1
325 75 4 0 -2.2417512262883954 -0.29013045760672407 1.3617453974057012 0 0 0
19 4 3 0 2.35330671540436 -3.1513815188150054 3.989732344826435 0 0 0
174 35 3 0 -3.4568148410952686 1.9591561056126 -3.6712067654970455 0 0 0
171 35 1 0 -3.8288480883311977 1.7132512725207714 -3.6001093694788575 0 0 0
175 35 3 0 -3.751446182392907 1.2788709516903185 -3.778336231843604 0 0 0
239 48 3 0 -3.688677105025726 0.1197922952821697 -3.2880916359451797 0 0 0
172 35 3 0 -3.924870502681974 1.6849630504448991 -3.1421011503007783 0 0 0
238 48 3 0 -3.475296453601568 0.6695829928610941 -2.8267780222462884 0 0 0
236 48 1 0 -3.701935393370829 0.29387704854408575 -2.856586353266056 0 0 0
14 3 3 0 -2.3926997251932995 0.7020049453512489 -3.7915946358205783 0 0 1
382 94 4 0 0.20743605574493787 0.11428527622079522 -0.836258093217098 0 0 0
321 74 4 0 -0.9612897054947899 1.4711196215322613 -3.5128195246596174 0 0 1
320 74 2 0 -1.3064636991943173 1.2602484128924856 -3.684335604887218 0 0 1
37 8 3 0 -1.2005618618842087 1.5728923865105962 -2.5025849227593064 0 0 0
38 8 3 0 -0.8832162064099068 1.591326958658579 -3.1483465636045214 0 0 0
36 8 1 0 -0.8265883307581675 1.4847728168343934 -2.7373919858659037 0 0 0
371 91 2 0 0.624617226757451 0.14708959783883915 -3.765431976544619 0 0 1
40 8 3 0 -0.7392973689616152 1.0674932685443355 -2.7056892235503542 0 0 0
39 8 3 0 -0.505022175823576 1.7065746973233062 -2.573701556920117 0 0 0
274 58 4 0 -0.6201859475770134 0.7070251747840505 -2.741953119587676 0 0 0
258 53 4 0 0.04190563150912256 1.4036740888061066 -3.4703434297643816 0 0 0
202 41 3 0 0.06175507355666345 1.1434936206824198 -3.160613377014551 0 0 1
272 58 2 0 -0.6835946778336762 0.4654481619315266 -3.130775652667607 0 0 0
205 41 3 0 0.26333122549321797 0.7901006884393579 -2.529732655050749 0 0 1
201 41 1 0 0.4116741633351937 0.9894404796357477 -2.937787632716318 0 0 1
257 53 2 0 -0.17345334927208825 1.3000511347366448 -3.853541210187646 0 0 0
337 79 4 0 -0.0994178018559141 0.9202057584725317 -2.422251294295943 0 0 0
360 87 4 0 0.8094942568761443 1.4736673017720576 -2.484310027824277 0 0 1
203 41 3 0 0.6242077978820555 0.6809249472851598 -3.1836738728478937 0 0 1
204 41 3 0 0.7154937487311342 1.3413429463372772 -2.8481269148263073 0 0 1
273 58 4 0 -0.7627210730266714 0.22498749027497816 -3.5307231793278286 0 0 0
373 91 4 0 0.7321022123438391 0.5627808206172241 -3.5742996643832448 0 0 1
359 87 2 0 1.0252459697603955 1.8912835237118721 -2.455257367410861 0 0 1
173 35 3 0 3.844082547216721 1.8979185538116612 -3.815394237306517 -1 0 0
240 48 3 0 3.8319434870514995 0.3872547235228914 -2.73330692815261 -1 0 0
386 96 2 0 3.9188762038107354 2.5263567701838134 -1.9217953170142803 -1 0 0
24 5 3 0 -3.025466994724653 3.2118923963056556 -2.8012307378529977 1 -1 0
129 26 3 0 -3.731536326318698 3.8975027107548734 -3.5590686664185465 0 0 0
21 5 1 0 -3.146993043489205 3.1274362133276696 -2.3581427610590264 1 -1 0
22 5 3 0 -3.4692240801053655 2.796974439293886 -2.3598129402501646 1 -1 0
23 5 3 0 -2.800527886419104 2.9984167068657923 -2.1286008494780915 1 -1 0
25 5 3 0 -3.3137152305432283 3.485577530556337 -2.1908254376342082 1 -1 0
388 96 4 0 -3.786682204345958 2.8243757083232413 -2.100197584891398 0 0 0
128 26 3 0 -3.7484387393611134 3.5149218508442535 -2.9221885061179624 0 0 0
126 26 1 0 -3.902186718815014 3.886301384658394 -3.1388960201219906 0 0 0
252 51 4 0 -3.5748488897795654 3.6252813752889907 -1.9167728818246184 1 -1 0
211 43 1 0 -1.1681321917942258 2.7799650163404896 -2.4689292199912884 0 0 1
212 43 3 0 -1.0220744906221237 2.639586516684521 -2.0841493042036734 0 0 1
214 43 3 0 -1.5245379041595168 2.511860843478621 -2.611298952901472 0 0 1
354 85 4 0 -1.644899025360745 2.6820463425130994 -2.9632334650286447 0 0 0
353 85 2 0 -1.930815699088344 2.5270485956678983 -3.293682382409288 0 0 0
213 43 3 0 -0.8408907157873209 2.766599119872065 -2.754051086447176 0 0 1
215 43 3 0 -1.3183556231136895 3.215572450927643 -2.4188388305895425 0 0 1
339 80 4 0 -1.1447169347567783 3.5688440616050094 -2.4149955112961328 0 0 0
355 85 4 0 -2.195079640240508 2.3781349194642716 -3.6138540242178125 0 0 0
256 52 4 0 -0.500192852113145 2.9361196603715234 -2.6060949555497537 0 -1 0
255 52 4 0 0.41870232708380517 2.809093224842289 -2.5830209601098946 0 -1 0
187 38 3 0 0.6961820603666459 3.0148203551641384 -2.776620078113406 0 0 1
254 52 2 0 -0.0391026394933808 2.875059593227603 -2.5923758126638945 0 -1 0
186 38 1 0 1.0983673941367076 2.914361249147578 -2.9326084175938356 0 0 1
188 38 3 0 1.0414524171942157 2.7472671052965496 -3.346606313864104 0 0 1
189 38 3 0 1.3516561941759984 3.28808960748551 -2.9364101765980446 0 0 1
361 87 4 0 1.2129331679510784 2.2897727239535 -2.4225972617221445 0 0 1
190 38 3 0 1.2856819956794006 2.59717691272621 -2.657589130739671 0 0 1
127 26 3 0 3.653993000790619 3.8685332112834394 -3.167278012881012 -1 0 0
59 12 3 0 -3.750031542932567 0.8187211045321484 -1.0482590538589054 1 0 0
82 17 3 0 -0.792787329040429 0.3714341270205169 -0.7144032649960204 0 0 0
85 17 3 0 -0.06519488893121593 0.39361465638459964 -0.8914412273423529 0 0 0
84 17 3 0 -0.5947518508660911 0.6103710894517348 -1.387085675461932 0 0 0
336 79 4 0 -0.31092972967864096 0.6015143885772818 -1.6415963491239065 0 0 0
335 79 2 0 -0.20483160644389592 0.757911952548449 -2.0360456945044656 0 0 0
81 17 1 0 -0.5059385814202143 0.30805454292613627 -1.0578290155258456 0 0 0
209 42 3 0 2.6132168252771373 0.13812406118307669 -0.15466881058844778 0 0 0
56 12 1 0 3.9619995521608593 0.8444589251837461 -0.6960254514493688 0 0 0
58 12 3 0 -3.840157983349311 0.6668993491085499 -0.3351064172546929 1 0 0
57 12 3 0 3.594645263018167 0.6189149566993482 -0.7735140433542104 0 0 0
45 9 3 0 3.0101923432314877 1.340385184024464 -1.7647833445217107 0 0 0
60 12 3 0 3.849477600263852 1.2715740262991575 -0.606764988214517 0 0 0
42 9 3 0 3.5832095120898733 1.8130247012659633 -1.7644022906728218 0 0 0
41 9 1 0 3.171844292703023 1.7560646244166318 -1.6223973027812624 0 0 0
43 9 3 0 3.152367238197889 1.786040956487041 -1.1517092154870274 0 0 0
282 61 4 0 -2.435340912906316 2.9155960742249403 -1.9586811880054713 0 -1 0
44 9 3 0 2.894436164469873 2.0997970329789415 -1.8118158053116782 0 0 0
253 51 4 0 -3.509629852187434 3.6277470699570533 -1.0132480955228675 1 -1 0
251 51 2 0 -3.5464190691317414 3.6292270805622215 -1.4673917196628739 1 -1 0
281 61 2 0 -2.4454580301244953 2.883124989583142 -1.4939278373401055 0 -1 0
51 11 1 0 -2.855415572251205 3.368646203944415 -0.54373767818743 1 -1 0
54 11 3 0 -2.486067343005754 3.1541470993760536 -0.7576759404158834 1 -1 0
55 11 3 0 -3.1897282304661116 3.459943721150708 -0.8637242437495178 1 -1 0
52 11 3 0 -3.0030002975019565 3.102770024759606 -0.22827199577860022 1 -1 0
53 11 3 0 -2.714322850777432 3.762644883087313 -0.3486812401300229 1 -1 0
348 83 4 0 -2.988577855889457 2.7544931288339214 -0.04986324783969155 1 0 0
283 61 4 0 -2.450338826932011 2.8481232075798846 -1.0471368413050723 0 -1 0
270 57 4 0 -0.813970223921962 0.018089221775033422 -0.541621018856998 0 0 0
222 45 3 0 -0.2536614645645463 3.3336413250773598 -0.32795954495128987 0 0 0
397 99 4 0 0.08884417244559666 3.1162960457652447 -0.37278356719872 0 0 0
237 48 3 0 -3.5326793109652335 0.0031593689699454023 -2.5730940594015794 0 0 0
395 99 2 0 0.4669282189669596 3.2152547354177297 -0.633658470805341 0 0 0
133 27 3 0 1.6653660682191485 3.828883854567689 -1.5148284293376646 0 0 0
132 27 3 0 1.2740231612790915 3.318098313353592 -1.8582682912662625 0 0 0
131 27 1 0 1.4732982774719316 3.407448032176287 -1.4945238315693237 0 0 0
396 99 4 0 0.8515365242030768 3.2868853038064096 -0.8966308987058383 0 0 0
134 27 3 0 1.1924843754025947 3.3824312830180894 -1.1560234576088748 0 0 0
135 27 3 0 1.8108491926669137 3.089759872590736 -1.4309891317626775 0 0 0
288 63 4 0 2.198372749415669 3.0172168410620346 -1.3421273108025715 0 0 0
387 96 4 0 3.6225833588002887 2.2343553922453556 -1.7424650487423177 -1 0 0
125 25 3 0 3.794359606831499 3.947579930461548 -0.9718498875176514 0 -1 -1
327 76 4 0 2.8822768558667775 3.5500036415545404 -0.4503902642890827 0 -1 0
289 63 4 0 2.7993075141419186 2.481145953840731 -1.7766592558177934 0 0 0
123 25 3 0 3.224626560150223 3.744266291113318 -0.5156798285254608 0 -1 -1
287 63 2 0 2.506352937644575 2.755593661936506 -1.5668805040880047 0 0 0
338 80 2 0 -1.043403058245137 3.958595968262708 -2.2150729061452923 0 0 0
326 76 2 0 2.574045552098713 3.4011583523344693 -0.18653487700353003 0 -1 0
322 74 4 0 -1.675314983158229 1.0247284019814649 -3.8723211999755076 0 0 1
180 36 3 0 -2.039695058727127 2.1110944313621482 -3.8647116885434425 0 0 0
375 92 4 0 -2.586465361492895 1.3974233849278417 0.6879934369789106 0 0 0
374 92 2 0 -2.934890643584641 1.153468362575987 0.694094036829194 0 0 0
376 92 4 0 -3.3240859712930413 0.8969411599605217 0.7065459108488307 0 0 0
111 23 1 0 -3.5666235576532297 0.5458413871215914 1.416013510818556 0 0 0
114 23 3 0 -3.5239600270355385 0.7284085910713871 0.9922999361258344 0 0 0
113 23 3 0 -3.6586616053537955 0.8597626874417112 1.6985278911596138 0 0 0
115 23 3 0 -3.889719638975523 0.2556797458183989 1.4094952526639946 0 0 0
229 46 3 0 -2.572387460329631 1.7755198837161577 0.7921166893537794 1 0 0
262 54 4 0 3.8683004773346576 0.37402395638802105 1.0813745393230683 0 0 0
112 23 3 0 -3.198792059747318 0.3470687588786224 1.5273910038781604 0 0 0
304 68 4 0 -1.3831957357188462 1.0942088550122995 0.8482291359402215 0 0 0
216 44 1 0 -1.704535602837205 0.29458871468376496 1.6595884363994753 0 0 0
217 44 3 0 -1.7480917529771456 0.6988464527183248 1.4654902193882107 0 0 0
302 68 2 0 -1.0824509257289576 0.7517802944505863 0.8189978440616622 0 0 0
75 15 3 0 -1.9653901645195029 1.5704964064499705 1.9916824735117697 0 0 0
220 44 3 0 -1.2993483985959795 0.14580863360052135 1.6033601557082806 0 0 0
91 19 1 0 3.2436663459250594 3.1080555558057537 2.1932177394928285 0 -1 0
219 44 3 0 -1.9839189609169783 0.011463792355064508 1.4694615119790029 0 0 0
303 68 4 0 -0.7743125747750588 0.4049116515610152 0.7903342429529184 0 0 0
183 37 3 0 -0.5939495974685455 0.1267271488230462 0.5797480007223222 0 0 0
306 69 4 0 0.9232256122134078 0.14962127758177696 1.4420040665507083 0 0 0
167 34 3 0 1.4918989300211114 0.5929199770795328 1.965193872991079 0 0 0
260 54 2 0 3.6310608876421635 0.14285894654658488 0.7587363757326444 0 0 0
93 19 3 0 3.4852327562791823 3.143999933686308 2.575439414544743 0 -1 0
230 46 3 0 -2.8840689381147193 2.331137434452858 1.2211496858973334 1 0 0
342 81 4 0 -3.2470946063343664 2.383639062625106 1.411016239452762 1 0 0
341 81 2 0 -3.6572066436885464 2.388662632540562 1.2824902275594317 1 0 0
226 46 1 0 -2.5275456149498434 2.2308854997262615 0.9493243833063246 1 0 0
347 83 2 0 -3.3828707138185603 2.6477147500415454 0.11272769052451338 1 0 0
228 46 3 0 -2.5158035545711885 2.513970695595546 0.604689268250823 1 0 0
349 83 4 0 -3.785626662345112 2.5336723127037684 0.2891925007138204 1 0 0
393 98 4 0 -1.9499009928076478 2.932279979232808 1.3349919283917757 0 0 0
227 46 3 0 -2.1465790215994227 2.2775807758138042 1.1880796979881043 1 0 0
143 29 3 0 0.12574636424867258 2.092981612852585 1.3531424618712424 0 0 0
142 29 3 0 0.39174248123903394 2.763557716482671 1.4101473379936658 0 0 0
144 29 3 0 -0.297327746586056 2.6079062496553367 1.693783857066181 0 0 0
141 29 1 0 0.015579429129068414 2.5081004341511086 1.3449241222460242 0 0 0
145 29 3 0 -0.1545947401271909 2.605648846198809 0.9600523080651302 0 0 0
365 89 2 0 0.5920863240451307 3.275957242002363 0.5507514884905039 0 0 0
367 89 4 0 0.21627804136011386 3.2335253600463085 0.2981504253910845 0 0 0
369 90 4 0 0.5940422881858584 2.7535380179011146 1.7478835929852177 0 0 0
223 45 3 0 -0.1691668496438974 3.175702098571351 0.3852114358539736 0 0 0
224 45 3 0 -0.4878682357262243 3.810162005407352 0.17332942896527834 0 0 0
366 89 4 0 0.9688017545241776 3.325031894060918 0.8022270676585422 0 0 0
105 21 3 0 1.3629542599982647 3.3794777253726784 0.7493517856348757 0 -1 0
312 71 4 0 2.301907972682888 3.6910363556723906 1.1827386741997665 0 -1 0
102 21 3 0 1.965210094028383 3.3114489603869792 0.36754679304338667 0 -1 0
103 21 3 0 2.009165684032955 3.41698239594347 1.089526165146724 0 -1 0
101 21 1 0 1.7724473752457206 3.5147624352512326 0.7115869877292568 0 -1 0
328 76 4 0 2.2524041831513992 3.2402995286131255 0.08970159256306133 0 -1 0
368 90 2 0 1.0216170278822956 2.7301322864991424 1.899792171021236 0 0 0
292 64 4 0 3.1929393670184547 2.26954861043116 2.08016201625929 -1 -1 0
343 81 4 0 3.9365885551425075 2.401822595580817 1.1557282518949752 0 0 0
311 71 2 0 2.7266150375363116 3.6613471546643543 1.3039451581555357 0 -1 0
244 49 3 0 3.1903969217141497 2.6706332335263467 0.41407760409090827 -1 0 0
245 49 3 0 3.8556891416408057 2.6080242908848152 0.10803349573536969 -1 0 0
243 49 3 0 3.782244042372319 2.672798165961166 0.8694416936132962 -1 0 0
241 49 1 0 3.6088956293393153 2.8030238177859608 0.44377147440835557 -1 0 0
313 71 4 0 3.1682397563529396 3.631610157257945 1.4289402579791306 0 -1 0
95 19 3 0 3.438133987426204 3.331441104310589 1.8741968753055327 0 -1 0
242 49 3 0 3.6228775171475025 3.249325568951507 0.4000467157649434 -1 0 0
210 42 3 0 3.033913482490052 0.07233693674517158 0.43804148710664487 0 0 0
331 77 4 0 -2.778430932383753 0.694876220273262 2.4188307805487734 1 0 0
329 77 2 0 -2.7386287188248204 0.8009931464603053 2.8493991281854676 1 0 0
149 30 3 0 -3.9779797777288626 1.3146850064809288 2.5074339614653507 0 0 -1
13 3 3 0 -2.469214041784145 0.6651183459484072 3.504788008305511 0 0 0
383 95 2 0 -3.726341034654068 1.0490978546037055 3.5185649673717037 1 0 0
384 95 4 0 -3.553247587409666 1.1138513542445208 3.890251151178562 1 0 0
218 44 3 0 -1.7888248514182028 0.3300186451391005 2.065553312563514 0 0 0
330 77 4 0 -2.700987258567125 0.916102240655291 3.2984409658323166 1 0 0
73 15 3 0 -1.4647934383024814 1.6842069412812195 2.4990036895379686 0 0 0
71 15 1 0 -1.8747349920162506 1.80456836575761 2.3321905109535015 0 0 0
15 3 3 0 -1.8108000862390117 0.7811589887672749 3.810455766784317 0 0 0
11 3 1 0 -2.200635862483176 0.5717300239207865 3.8539431103928945 0 0 0
12 3 3 0 -2.1177085382531557 0.10956015356958214 3.886840040972394 0 0 0
74 15 3 0 -2.207671397225896 1.7372738186881216 2.6655099490834324 0 0 0
157 32 3 0 -0.9482755995686066 1.6815607324667259 2.9170761722291663 0 0 -1
166 34 1 0 1.514126003391063 0.16396514442066368 1.960248634232246 0 0 0
156 32 1 0 -0.5216091762074963 1.5203924569787588 2.9540674581620845 0 0 -1
159 32 3 0 -0.45063925708893776 1.1848367433284048 2.6607421777896314 0 0 -1
158 32 3 0 -0.44527385068885855 1.3657485516500951 3.3895131415114195 0 0 -1
259 53 4 0 -0.40136647114407836 1.1965530317920832 3.7447436030541805 0 0 -1
385 95 4 0 -3.89637846910066 0.9822661661494184 3.124242202152827 1 0 0
148 30 3 0 3.7721052467527243 0.7661589827056613 2.994893970250448 -1 0 -1
290 64 2 0 3.2567401486757044 1.8315528222766613 2.1531149490434713 -1 -1 0
291 64 4 0 3.3283280138626856 1.4085143179279236 2.2301616992108304 -1 -1 0
147 30 3 0 3.8065657550032026 0.6436542897762254 2.2442281088037768 -1 0 -1
146 30 1 0 3.7201745049398185 0.9535949048178064 2.559687701480794 -1 0 -1
150 30 3 0 3.279266630219695 1.1065455441579386 2.5080097063315057 -1 0 -1
178 36 3 0 -2.5310346994819017 1.9889776871652 3.5870390947240134 0 0 -1
177 36 3 0 -1.8397383314719173 2.073411210902734 3.445377589952595 0 0 -1
392 98 2 0 -1.8751532366330108 2.989511955280787 1.7817721502372428 0 0 0
394 98 4 0 -1.8020469498688567 3.0439372776753246 2.230283947089832 0 0 0
247 50 3 0 -0.9811311224483621 3.5939492992480946 2.6803877707329318 0 0 0
72 15 3 0 -1.8659233376207744 2.251798636655675 2.201818169548258 0 0 0
176 36 1 0 -2.1054594330988907 1.9124675084681069 3.732863039296496 0 0 -1
168 34 3 0 1.5165521346534065 0.0021185314365244415 2.402120429044646 0 0 0
248 50 3 0 -1.5229429673922943 3.3491319061453018 2.262990041593714 0 0 0
246 50 1 0 -1.4029036272057365 3.631487877819422 2.605955623708342 0 0 0
249 50 3 0 -1.6214354260364203 3.5202719848826542 2.9931632709198985 0 0 0
298 66 4 0 2.531330468425225 3.059799783504271 2.411605599115667 0 -1 0
399 100 4 0 -0.25430648694847535 2.943858511452821 1.8434580457002363 0 0 0
160 32 3 0 -0.23166071121127782 1.85168090472065 2.866015987267078 0 0 -1
400 100 4 0 -0.7908421389699104 3.3454691199366313 2.4212160810631214 0 0 0
398 100 2 0 -0.524024236782018 3.1462441608431093 2.1374229843860415 0 0 0
296 66 2 0 2.136735668343153 3.0266254553808367 2.2395833075593825 0 -1 0
297 66 4 0 1.723862562279256 2.992639335871654 2.053956708798804 0 -1 0
370 90 4 0 1.4356150272619306 2.70607418061186 2.055200106354508 0 0 0
94 19 3 0 3.210123393721902 2.6753305022982077 2.0696304285892673 0 -1 0
92 19 3 0 2.8394861167677714 3.264657831837541 2.252549263875236 0 -1 0
104 21 3 0 1.7802039231053597 3.9797145760250396 0.6374036004455061 0 -1 0
170 34 3 0 1.881195658179976 0.027784354191739413 1.7545808490736303 0 0 0
169 34 3 0 1.171916359343616 0.007959232248698564 1.7562079362830514 0 0 0