LAMMPS data file via write_data, version 4 Feb 2025, timestep = 20000, units = lj

1600 atoms
4 atom types
1100 bonds
1 bond types
750 angles
2 angle types

-8.27226 8.27226 xlo xhi
-8.27226 8.27226 ylo yhi
-8.27226 8.27226 zlo zhi
0 0 0 xy xz yz

Masses

1 1
2 1
3 0.1
4 0.1

Bond Coeffs # harmonic/omp

1 100 0.45

Angle Coeffs # harmonic/omp

1 100 180
2 100 109.471

Atoms # full

67 14 3 0 -1.9628235709251634 -5.874786957850218 -7.865454189551206 0 0 0
69 14 3 0 -1.5157377604125415 -6.428622751370687 -7.773228955458791 0 0 0
66 14 1 0 -1.6232886918290843 -6.10902835316831 -8.04928520884423 0 0 0
68 14 3 0 -1.2696900841079302 -5.8491822587767555 -8.103779143257588 0 0 0
921 274 4 0 -0.9002771560474301 -5.703629867451223 -8.201601019307622 0 0 1
920 274 2 0 -0.5925600614914712 -5.39633789154048 -8.224131102597422 0 0 1
922 274 4 0 -0.28902779976028903 -5.088280840371205 -8.252597408577346 0 0 1
1374 425 4 0 -4.61105972535251 -3.827280872658524 -8.214395911055824 2 0 0
608 170 2 0 -4.318674990328515 -3.7262047303884387 -7.47979903043094 2 0 1
1251 384 4 0 -0.9286262204743627 -4.28609540248174 -8.24840082596805 1 0 1
609 170 4 0 -4.5320283751854795 -3.6262326921774655 -7.867779762957223 2 0 1
1090 330 4 0 -6.9420066682813975 -6.794764544225464 -6.911564724473949 1 0 0
1088 330 2 0 -6.832631076438524 -6.5024437886209245 -6.563540636698444 1 0 0
1041 314 4 0 -3.872617819143584 -3.8589917338403623 -6.764593744934203 2 0 0
610 170 4 0 -4.111900707715863 -3.8258968457248255 -7.092326252670907 2 0 1
1089 330 4 0 -6.736909210064994 -6.228775433118091 -6.249468536644829 1 0 0
1413 438 4 0 -6.947380747274066 -6.020342546714788 -5.949211798238768 3 1 0
1412 438 2 0 -7.0740186875322575 -6.080868974879093 -5.550566789177639 3 1 0
1040 314 2 0 -3.7156964893429567 -3.7496871509591756 -6.344744294415251 2 0 0
699 200 4 0 -3.357502841154476 -4.528540169212851 -5.746909592939188 3 1 0
698 200 2 0 -2.993796974845524 -4.499053809876791 -6.000541624893012 3 1 0
399 100 4 0 -3.2383436477821856 -3.710854351008125 -5.688364560836657 1 0 0
700 200 4 0 -2.611166288773358 -4.470344819469784 -6.26874071921934 3 1 0
1042 314 4 0 -3.5497018000168366 -3.635751744664627 -5.924930084167856 2 0 0
334 78 4 0 -1.579222720562261 -8.18828967376768 -4.611459965228839 1 0 1
1283 395 2 0 -0.10057206838169996 -7.978368490843267 -4.9846807923051735 3 1 1
1285 395 4 0 -0.41016965626825197 -8.250104462987192 -4.800009145220178 3 1 1
168 34 3 0 -8.00804011122912 -6.844083167125039 -5.039003186470632 1 0 1
166 34 1 0 -7.750050016251124 -6.635718497610326 -4.725072241649518 1 0 1
170 34 3 0 -7.573123730634107 -6.258172446601198 -4.909300030581711 1 0 1
1414 438 4 0 -7.207313392047658 -6.144474560220416 -5.109031386739392 3 1 0
520 140 4 0 -3.586749417056706 -4.676875290827709 -5.460782202753011 1 0 1
519 140 4 0 -3.5774076528466994 -4.979196523138915 -4.619095498217618 1 0 1
518 140 2 0 -3.581086934631081 -4.8275064187857675 -5.0319486034367955 1 0 1
400 100 4 0 -2.7932043848996155 -3.515344947347627 -4.9085709205694394 1 0 0
398 100 2 0 -3.012647515901949 -3.6120876402096282 -5.284819941324602 1 0 0
1402 434 4 0 -2.390936774879176 -3.6163105607673813 -4.885759228839837 2 0 0
1400 434 2 0 -1.9884502635065155 -3.472784367332448 -4.71144098369189 2 0 0
1064 322 2 0 -7.9510127866006775 -0.3524126185345091 -4.734853148351056 1 -1 0
1065 322 4 0 -8.243065149709551 -0.3446675172921916 -5.05610321564065 1 -1 0
626 176 2 0 -4.4373516144341885 -7.597123766484153 -4.014004914003708 3 1 0
628 176 4 0 -4.125835913615228 -7.934119485853872 -4.058073708740447 3 1 0
245 49 3 0 -3.773369968216736 -8.088173002619962 -4.028014571779881 3 1 0
241 49 1 0 -3.404044357574336 -8.047772399803712 -3.790254325681288 3 1 0
242 49 3 0 -3.084622132783741 -7.872550830105675 -4.043322398032423 3 1 0
1194 365 4 0 -1.9318832991660146 -8.241460504163237 -4.3987030101107605 1 0 1
1195 365 4 0 -2.733628754943 -7.91889858566877 -4.276186975406378 1 0 1
1193 365 2 0 -2.320848941493197 -8.082881905205726 -4.33790203366226 1 0 1
169 34 3 0 -8.025903853213913 -6.510893121516839 -4.351757045881573 1 0 1
167 34 3 0 -7.434834924602486 -6.90639431487701 -4.58706221494084 1 0 1
451 117 4 0 -7.329225612880184 -7.043286958985365 -4.229448743841731 1 0 1
449 117 2 0 -7.333414077162583 -7.191625850881576 -3.8116445522135987 1 0 1
627 176 4 0 -4.7357619219721645 -7.265223987681581 -3.9733384290054 3 1 0
634 178 4 0 -4.675069351982592 -6.886698000489993 -4.052275038978638 3 1 0
632 178 2 0 -4.5121418609194635 -6.504879146006129 -3.8723733828358204 3 1 0
633 178 4 0 -4.345444033799042 -6.131304358049222 -3.698929790968645 3 1 0
1052 318 2 0 -3.9191086450312413 -5.092674790782843 -3.8358156141291957 1 0 0
1053 318 4 0 -3.7804436947720648 -4.95418034492873 -4.264912436639942 1 0 0
273 58 4 0 -2.085256143501109 -5.057837728942321 -3.6836170026756694 1 0 0
1001 301 2 0 -1.3008026656026095 -4.893144929810041 -3.7916755375063858 1 0 0
1003 301 4 0 -0.905359543446 -4.754443769885944 -3.9698942546508356 1 0 0
1323 408 4 0 -0.5076404798630243 -4.733395168639063 -3.958887208740549 3 1 0
1322 408 2 0 -0.08258683111841414 -4.829644957320866 -4.084985607398669 3 1 0
1432 444 4 0 -1.2630581714125757 -3.131292490630085 -4.389337889403071 2 0 1
1401 434 4 0 -1.5882550336353463 -3.3153897484725396 -4.5401111394674505 2 0 0
1430 444 2 0 -0.8897164448230654 -3.063374060709058 -4.134169783381635 2 0 1
1431 444 4 0 -0.5315127676689162 -3.0011799628371962 -3.9014351858703957 2 0 1
1066 322 4 0 -7.6373605251122525 -0.35645476985139624 -4.400474461864885 1 -1 0
923 275 2 0 -7.069149115885287 -0.25418570434817944 -3.8202472878253957 4 1 1
925 275 4 0 -7.300917757644521 -0.24704130761423215 -4.224771071401951 4 1 1
44 9 3 0 -7.411556072820236 -7.904511048026476 -2.8629989470556687 1 0 1
1516 472 4 0 -8.218365643963367 -8.229798050805341 -3.4359895977580823 4 1 0
521 141 2 0 -3.8956412946237062 -7.615759836485259 -2.7986681926866845 0 0 0
523 141 4 0 -3.842867748332636 -7.778835866317359 -3.2378779039607055 0 0 0
244 49 3 0 -3.4736402390654177 -7.752551249306756 -3.4369319801284703 3 1 0
450 117 4 0 -7.33602751215895 -7.349728794557523 -3.369304959416617 1 0 1
42 9 3 0 -7.262844130475573 -7.211090028839308 -2.99575631300043 1 0 1
1138 346 4 0 -4.216409695027328 -6.233809558088156 -3.3195282721676422 1 0 0
1136 346 2 0 -4.072327569737443 -6.2697061838074974 -2.8645087028833407 1 0 0
274 58 4 0 -2.7100670739283306 -5.586505269900014 -3.2497930028336928 1 0 0
1054 318 4 0 -4.049637291855773 -5.22442936440045 -3.4296098255190515 1 0 0
20 4 3 0 -3.960692307898035 -5.27946755014101 -3.0017959906836733 1 0 0
272 58 2 0 -2.402685021649825 -5.321650447502421 -3.4669318148636536 1 0 0
1002 301 4 0 -1.6699554772456082 -5.0188417430252645 -3.619466046104513 1 0 0
1019 307 2 0 -2.867922438634591 -4.23439079415578 -2.9877563468730397 1 0 0
1021 307 4 0 -3.1378953267811376 -4.587567753347353 -2.898946960256591 1 0 0
1020 307 4 0 -2.5700860972288453 -3.865288257919077 -3.090819742150856 1 0 0
735 212 4 0 -2.1613124866217355 -3.7639110394519086 -3.0469523006835137 1 0 0
734 212 2 0 -1.6889124447650863 -3.700592783251741 -3.0214405030135385 1 0 0
736 212 4 0 -1.267297353231796 -3.6416543869992095 -2.994815337819089 1 0 0
1440 447 4 0 -0.8754432525638212 -3.5279582181549944 -2.8417462587207183 3 1 1
1024 308 4 0 -0.21974598376186805 -2.9466022028001593 -3.635641370848144 2 0 0
1171 357 4 0 -3.4662613803610762 -2.572050559227753 -3.50163093897201 2 0 1
1169 357 2 0 -3.2562274543282843 -2.1859888508752032 -3.485363997351053 2 0 1
1170 357 4 0 -3.040736879827298 -1.7890686244032015 -3.467965882466121 2 0 1
534 145 4 0 -6.943109745975283 -0.3737598329210794 -3.0559898628862587 2 0 1
924 275 4 0 -6.852767873767991 -0.2688440826092364 -3.4449093466417136 4 1 1
43 9 3 0 -7.640148276466425 -7.389527715821482 -2.3910387474214607 1 0 1
41 9 1 0 -7.305148343010437 -7.515143417112794 -2.6819849496948374 1 0 1
45 9 3 0 -6.917725240502876 -7.5530595549201776 -2.454680075858338 1 0 1
522 141 4 0 -3.950704467504176 -7.448209263823718 -2.3792729706203506 0 0 0
150 30 3 0 -3.7316130887036723 -7.362739118790836 -2.047976010863003 1 0 0
975 292 4 0 -7.623349319406306 -7.184946462178685 -2.012468929759624 1 0 0
146 30 1 0 -3.7188409036411407 -6.902167095637773 -1.9549424238309152 1 0 0
149 30 3 0 -3.792221983591377 -6.661416120674179 -2.336261769586123 1 0 0
465 122 4 0 -2.9882309759692385 -7.028997532663709 -1.9160525135795572 3 1 0
464 122 2 0 -2.5620882347059304 -6.9352924214862774 -1.9775139121910685 3 1 0
466 122 4 0 -2.099666422927534 -6.823556125349116 -2.0369509789161224 3 1 0
367 89 4 0 -2.044175084532312 -6.5408832313926135 -2.322462056051057 2 1 0
365 89 2 0 -1.6051370951857198 -6.528645843331936 -2.326731887933315 2 1 0
366 89 4 0 -1.165155835203599 -6.515010000364694 -2.3262997013276703 2 1 0
321 74 4 0 -6.499394580844842 -5.763580183038818 -2.0625258156195727 1 0 0
433 111 4 0 -6.2945421439646765 -5.583911407879246 -2.3348479783855804 1 0 0
1137 346 4 0 -3.9388429195390566 -6.300141686358821 -2.4343371814336443 1 0 0
639 180 4 0 -0.9691590102875853 -6.225762491722366 -2.5142218238267535 2 1 -1
638 180 2 0 -0.5397038691166474 -6.129000539984024 -2.617650615032291 2 1 -1
640 180 4 0 -0.09262047792883621 -6.0265101831191705 -2.7191562906914566 2 1 -1
252 51 4 0 -8.001459434210034 -5.471330172641035 -2.191413821007367 1 0 0
397 99 4 0 -7.67178905217047 -5.267197386729249 -2.032392681699392 1 0 0
395 99 2 0 -7.237827308565501 -5.096520574990188 -1.9089054155130132 1 0 0
431 111 2 0 -6.019397732616628 -5.263096925814015 -2.5363663280468174 1 0 0
432 111 4 0 -5.7722214700589545 -4.966950234371609 -2.7190436778577904 1 0 0
269 57 2 0 -4.940253489990781 -4.912741779559439 -2.5335129596266004 1 0 0
271 57 4 0 -5.368080030118532 -4.930866282783279 -2.654380325398394 1 0 0
18 4 3 0 -4.206593602530053 -4.728319444087081 -2.587010372537736 1 0 0
270 57 4 0 -4.493529993549302 -4.902989403002687 -2.4078789097575113 1 0 0
16 4 1 0 -3.8710651233122997 -5.031871635618383 -2.648756359814616 1 0 0
693 198 4 0 -4.119482261057624 -5.232704751690713 -2.024319428702645 3 1 0
17 4 3 0 -3.8296789282599777 -5.290837028207118 -2.289037319701281 1 0 0
19 4 3 0 -3.4705929605649732 -4.811825865482172 -2.717033415763371 1 0 0
1441 447 4 0 -0.01716405229746165 -3.6170128977256235 -2.5749735475124 3 1 1
1439 447 2 0 -0.4497891188583294 -3.568930483942877 -2.706817839345632 3 1 1
174 35 3 0 -0.01747078111827527 -2.24715382952588 -2.40602506447752 2 0 0
171 35 1 0 -0.11528479674650605 -2.184994154003366 -1.9732011045172424 2 0 0
173 35 3 0 -0.5434598096933918 -2.403637749221156 -1.8688196625953726 2 0 0
1599 500 4 0 -1.217222986187858 -1.1514685255121098 -1.853302043143346 2 0 0
172 35 3 0 -0.14235256876753866 -1.7269095570951958 -1.8841777592746896 2 0 0
1598 500 2 0 -0.8407849672220955 -1.3229873923288116 -1.9594852854105431 2 0 0
1600 500 4 0 -0.42012797498303467 -1.5236637087819593 -2.0797298204692174 2 0 0
126 26 1 0 -8.205818122636474 -0.5959207991279758 -2.055873650596732 2 0 0
535 145 4 0 -7.603159038779455 -0.3230246232963019 -2.442467806353024 2 0 1
129 26 3 0 -8.002874071836747 -0.4050601612370519 -2.381951480150163 2 0 0
533 145 2 0 -7.277559444298938 -0.3526361103743998 -2.7483235908128947 2 0 1
864 255 4 0 -1.9951588122205148 -0.1463850385299228 -2.1719911179376403 2 0 0
863 255 2 0 -1.592304996430661 -0.2584501420908776 -2.3016823572979614 2 0 0
865 255 4 0 -1.1584918813359657 -0.3751635194532863 -2.4329877421603285 2 0 0
461 121 2 0 -0.35977214261097323 -0.16179910771423422 -2.5682133403008613 2 0 0
463 121 4 0 -0.8079613280021238 -0.175787446189954 -2.3926700202266176 2 0 0
976 292 4 0 -8.111949544002252 -7.643633528694553 -1.3990107803807454 1 0 0
974 292 2 0 -7.876740379302603 -7.418752763940474 -1.7009800434556412 1 0 0
1087 329 4 0 -4.1220654378853805 -6.562289618385816 -1.3279082708381722 1 0 0
148 30 3 0 -4.060487578775262 -6.8043114758882925 -1.6361136074571299 1 0 0
147 30 3 0 -3.3171189927425866 -6.796798981085089 -1.785622527596245 1 0 0
984 295 4 0 -6.927020258556347 -6.260821404012282 -0.9716133186280116 1 0 0
322 74 4 0 -6.666052702353528 -6.233719244395538 -1.262501187158727 1 0 0
320 74 2 0 -6.585990657344137 -5.999201633066589 -1.6692081077134047 1 0 0
1085 329 2 0 -4.013978072045241 -6.384208381469325 -0.9342432749044427 1 0 0
694 198 4 0 -4.445364182946131 -5.524541486110769 -1.2585495061621934 3 1 0
396 99 4 0 -6.821170930677396 -4.935633237286254 -1.7738947090737858 1 0 0
265 55 4 0 -6.430515747790583 -4.766339203992716 -1.688452133205275 1 0 -1
263 55 2 0 -6.009265624289949 -4.69732493611198 -1.4583733968393364 1 0 -1
264 55 4 0 -5.6100534944319165 -4.639091305115836 -1.2336848948713088 1 0 -1
692 198 2 0 -4.278365694455985 -5.378341720546181 -1.642071900743682 3 1 0
27 6 3 0 -5.227481808606424 -4.537936850159486 -1.1469480790116302 1 0 0
28 6 3 0 -4.774151594813667 -3.947605685934871 -0.9863560622412608 1 0 0
1152 351 4 0 -4.356893036680312 -3.819456949295949 -1.0495859119137814 2 0 0
1151 351 2 0 -3.920696431684167 -3.6092894774107744 -1.1586487467307034 2 0 0
1153 351 4 0 -3.5071673095493603 -3.4133468174329513 -1.2557580291627755 2 0 0
514 138 4 0 -3.085916730053426 -3.2557457620602896 -1.2929043274609544 1 0 0
512 138 2 0 -2.6403174804679708 -3.1195451476166296 -1.4207752601557484 1 0 0
513 138 4 0 -2.201773298458124 -3.0005158000253225 -1.5408073444411468 1 0 0
540 147 4 0 -1.7987898451308553 -2.922827624887052 -1.6401485670501312 1 0 0
1057 319 4 0 -3.8953521710895487 -2.6648663873475265 -1.0642458725747375 2 0 0
1055 319 2 0 -3.536175780994961 -2.4752379954026438 -1.2982715491417007 2 0 0
1056 319 4 0 -3.1911022537019136 -2.2842647715562903 -1.5032755719862205 2 0 0
280 60 4 0 -2.9135291249378676 -2.0543819754895125 -1.6561182787257698 2 0 0
539 147 2 0 -1.3887893453065532 -2.737576996272402 -1.7202407490652485 1 0 0
541 147 4 0 -0.9548544447926233 -2.549134247434681 -1.796049886479885 1 0 0
278 60 2 0 -2.646648445150955 -1.7081782028700712 -1.4975549725001507 2 0 0
279 60 4 0 -2.3918427467550174 -1.3721508080850473 -1.3333335240807305 2 0 0
115 23 3 0 -2.0924256843508573 -1.1200153508512507 -1.3463941807274953 2 0 0
111 23 1 0 -1.6469503709194004 -1.1185103355085895 -1.2606480044648327 2 0 0
112 23 3 0 -1.4493696076212235 -1.3365806067361792 -1.5787838456147645 2 0 0
127 26 3 0 -7.932806040257392 -0.6085725138655684 -1.6959448333683484 2 0 0
441 114 4 0 -7.763274958491428 -0.5211917215395667 -1.3431217129034199 2 0 1
440 114 2 0 -7.3538511743830295 -0.3632949875663707 -1.1772298716914698 2 0 1
702 201 4 0 -6.600269602173846 -0.04147348793613226 -0.96239106311128 2 0 0
442 114 4 0 -6.9609243257057924 -0.21434693678546068 -1.0199697839084791 2 0 1
114 23 3 0 -1.486735507970102 -0.6887815066369019 -1.237531625976418 2 0 0
276 59 4 0 -1.1357691750526469 -0.5620966005229873 -1.0962875719885066 1 0 0
275 59 2 0 -0.7107917615885517 -0.3772056468350238 -1.1535158442983402 1 0 0
277 59 4 0 -0.29004217612903194 -0.2011714669189626 -1.214506090535 1 0 0
994 298 4 0 -7.239812067398093 -8.212821045494907 -0.20313121290834424 2 0 0
897 266 4 0 -4.211459411193388 -7.791457648019381 -0.1174155451213057 2 1 0
1539 480 4 0 -4.150371056408755 -8.16521439909316 -0.29385699848696056 3 1 0
983 295 2 0 -6.96012171908828 -6.468165429844828 -0.5612711897947333 1 0 0
985 295 4 0 -6.987971118670533 -6.661309336263035 -0.15942288635695157 1 0 0
896 266 2 0 -4.157838339264294 -7.341556024868635 -0.019978490245033953 2 1 0
1086 329 4 0 -3.893205915709779 -6.205081701644099 -0.5320787298669245 1 0 0
189 38 3 0 -3.916268821523901 -6.187738264374296 -0.12307824220864205 1 0 0
1061 321 2 0 -6.001730979609551 -4.564641547042811 -0.11523797492860588 1 0 0
1062 321 4 0 -5.6543255167835795 -4.347098221597328 -0.33294914842466916 1 0 0
29 6 3 0 -5.328941301405514 -4.133883338512965 -0.5305459959538492 1 0 0
26 6 1 0 -5.023771283453074 -4.292587519355429 -0.8056764143317832 1 0 0
30 6 3 0 -4.759209475993954 -4.565605863770424 -0.5866481223327336 1 0 0
370 90 4 0 -4.6100805976782 -4.285509294651877 -0.30084521878916437 1 0 0
368 90 2 0 -4.22852957015508 -4.255498077151186 -0.04547387855206608 1 0 0
1353 418 4 0 -7.903346350903941 -1.9790519900053658 -0.18908244041829292 4 1 0
1352 418 2 0 -8.20363109596984 -1.8895129728311701 -0.5058893359554384 4 1 0
1482 461 4 0 -4.646915712586697 -1.4457250525606113 -0.8830448182168507 2 0 0
1483 461 4 0 -5.08372804271359 -1.300146068398588 -0.11537273066312714 2 0 0
1481 461 2 0 -4.8622103138864485 -1.3736301887124327 -0.5073090470948962 2 0 0
1255 385 4 0 -1.8908485659284002 -1.4414004857711644 -0.643527866422537 2 0 0
1253 385 2 0 -1.8411798959700807 -1.3630758072892784 -0.2047651313934331 2 0 0
113 23 3 0 -1.5693847697804744 -1.3265209593761043 -0.8535525100178338 2 0 0
701 201 2 0 -6.29393844307825 -0.017808676013146396 -0.5940888773946709 2 0 0
1566 489 4 0 -4.1354845227730666 -0.1489908428014921 -0.007537042611742706 3 0 0
1044 315 4 0 -6.621548086058695 -7.399079998705097 0.8467783224659193 1 0 0
155 31 3 0 -2.2301675456936225 -7.599493283076421 0.382019000836916 1 0 0
1473 458 4 0 -2.341198316953335 -7.985675776537248 0.27655797407976124 2 1 0
1472 458 2 0 -2.665487911612953 -8.183160588913319 0.07801186849813035 2 1 0
1045 315 4 0 -6.799484926836605 -6.836398029553394 0.16941758668488482 1 0 0
1043 315 2 0 -6.712218034359407 -7.114215946040299 0.5035300725105749 1 0 0
898 266 4 0 -4.108335929526241 -6.92877338628419 0.07592638851750166 2 1 0
187 38 3 0 -3.819457547247037 -6.7942494381030105 0.3043184562410435 1 0 0
151 31 1 0 -2.1875903350356074 -7.317719321923728 0.7223010281075037 1 0 0
555 152 4 0 -2.113620788461617 -6.559230236121986 0.3947947755002019 0 0 0
153 31 3 0 -2.2875525140216633 -6.898525364045663 0.584353807806794 1 0 0
154 31 3 0 -1.7451245037627805 -7.326321648149837 0.8737471058041208 1 0 0
687 196 4 0 -7.849889892836831 -5.543739787714994 0.5929611148193068 1 0 0
686 196 2 0 -8.222705891505925 -5.773276525887398 0.7483477672922447 1 0 0
190 38 3 0 -3.7280341620365354 -6.100033055408911 0.6106879746715315 1 0 0
188 38 3 0 -3.2224903620303467 -6.385338033146231 0.10710576704998331 1 0 0
186 38 1 0 -3.6735084423271465 -6.368011664344512 0.22335735880100493 1 0 0
556 152 4 0 -2.8504232660191784 -6.203372583292532 0.020287324035587417 0 0 0
554 152 2 0 -2.4737645415203087 -6.382166280025361 0.21720279125054986 0 0 0
967 289 4 0 -7.567001975529477 -5.336815853430994 0.4062212543088872 1 0 -1
966 289 4 0 -6.704774373293847 -4.9535690983447225 0.23625211988091088 1 0 -1
965 289 2 0 -7.136966014608224 -5.1453257148112375 0.3242968697813673 1 0 -1
1063 321 4 0 -6.3404420102327785 -4.790350042899382 0.11082910107566413 1 0 0
369 90 4 0 -3.8419700041615163 -4.228426352074883 0.21409581955764878 1 0 0
669 190 4 0 -3.5441833474330524 -3.986475493448838 0.27717806978891524 3 1 0
668 190 2 0 -3.098375034022209 -3.885280168802682 0.41406817276655694 3 1 0
670 190 4 0 -2.6713790834551254 -3.784701406094239 0.5524299682412526 3 1 0
1392 431 4 0 -2.385004411375805 -3.7500344398853986 0.839877911260027 3 1 0
65 13 3 0 -7.678018134013366 -2.021741065568846 0.8080188968892692 2 0 0
63 13 3 0 -8.042954783545259 -1.8767865234531893 0.16052028622739734 2 0 0
1542 481 4 0 -7.348557287870021 -2.2506611034188495 0.7727187800761879 2 0 0
1541 481 2 0 -6.914488287275946 -2.115893468222481 0.6376082817954103 2 0 0
1543 481 4 0 -6.504515220608732 -1.9726258292948424 0.5119167946210474 2 0 0
918 273 4 0 -6.161736061054935 -2.079950451673165 0.713040249873206 4 1 0
917 273 2 0 -5.741570910662115 -2.016601942587105 0.8611100771262521 4 1 0
64 13 3 0 -7.6187097875435565 -1.3716109546635575 0.49259312372506514 2 0 0
62 13 3 0 -8.251991421381312 -1.5442568240555374 0.8160057510863226 2 0 0
61 13 1 0 -7.890962493528192 -1.6997878943328626 0.5733912199754982 2 0 0
405 102 4 0 -7.263196855070637 -1.1517390237030174 0.43673741228180774 2 0 0
404 102 2 0 -6.821436391193356 -0.9922411884394062 0.44516296195157956 2 0 0
32 7 3 0 -5.354297411680541 -0.9672622561923703 0.6854793472448186 2 0 0
35 7 3 0 -5.4477092464769505 -1.1520345717554124 0.005980016206915906 2 0 0
165 33 3 0 -1.932481266414391 -1.5896256711481245 0.4897359155879233 2 0 0
1254 385 4 0 -1.7920348451058317 -1.2936872507682846 0.22669616556563454 2 0 0
406 102 4 0 -6.420337145926805 -0.8308917326210148 0.44066091892899095 2 0 0
33 7 3 0 -6.018624609194441 -0.8319914737168599 0.3615271028321345 2 0 0
31 7 1 0 -5.552941071768457 -0.8536958605698981 0.310043044866827 2 0 0
34 7 3 0 -5.396175207071932 -0.4519954869861005 0.191551990072524 2 0 0
1567 489 4 0 -5.026281829924431 -0.2838622321831128 0.149062499956095 3 0 0
1565 489 2 0 -4.574517591349355 -0.20907344990272492 0.06826195258202539 3 0 0
379 93 4 0 -1.544117922561755 -0.7473464192708557 0.8169123519925545 2 0 0
377 93 2 0 -1.130260777415967 -0.658708842107476 0.6391340389972964 2 0 0
378 93 4 0 -0.6972141112512489 -0.5670200023572258 0.45754095197528244 2 0 0
458 120 2 0 -7.4505159597419315 -8.032578006586135 1.1597284567901216 1 0 0
459 120 4 0 -7.860579858019292 -7.866868959159702 1.1304480882857693 1 0 0
492 131 4 0 -8.26580207008789 -7.866031612727823 1.1479845706607303 1 0 0
460 120 4 0 -7.003468898793087 -8.20851680613234 1.20270737621391 1 0 0
184 37 3 0 -6.593956662341634 -8.248965858130633 1.2845100212653744 1 0 0
181 37 1 0 -6.276808182766111 -8.102040955054663 1.0036108683954783 1 0 0
185 37 3 0 -5.821219758786796 -8.202155770571192 1.1932113695853133 1 0 0
183 37 3 0 -6.317980077871901 -7.661178055792456 0.9463401181276332 1 0 0
1203 368 4 0 -5.400064943411302 -8.256717772008033 1.2452950116867836 1 0 0
1525 475 4 0 -2.8349845141614667 -7.362991167392411 1.2040716077982534 1 0 0
152 31 3 0 -2.465235131340167 -7.441773067050113 1.0568118588907165 1 0 0
1530 477 4 0 -1.1840580467251263 -8.215398984269047 0.9771329209922595 4 1 1
1523 475 2 0 -3.0462752624528804 -7.2998207027319175 1.5919281178271572 1 0 0
517 139 4 0 -3.542105329222756 -6.047175075589454 0.9807483660126017 0 0 0
515 139 2 0 -3.2731079517890764 -6.130198128509591 1.3146174273554792 0 0 0
516 139 4 0 -2.9802093780499828 -6.207559897397091 1.65612526212111 0 0 0
1391 431 2 0 -1.9389133333970117 -3.609614481237637 0.9591710519237466 3 1 0
943 281 4 0 -1.1015825947537117 -3.381129700606106 1.161451827674023 2 0 0
1393 431 4 0 -1.5083713852802454 -3.4820669058095692 1.089844503691955 3 1 0
941 281 2 0 -0.6606973038919506 -3.3498477865528695 1.1419315700418142 2 0 0
942 281 4 0 -0.2118506756058114 -3.3252361221346387 1.1351599290902197 2 0 0
919 273 4 0 -5.302618504838279 -1.9516857200518354 1.0146675434417336 4 1 0
742 214 4 0 -4.94013885126963 -1.802349185283565 1.024516647758018 4 1 -1
427 109 4 0 -5.456566181301378 -1.070950971993697 1.7873769663880736 2 0 0
425 109 2 0 -5.3090720447170465 -0.9427290960983603 1.3892534491013961 2 0 0
740 214 2 0 -4.501248276064281 -1.8069785815208705 1.0660316196457522 4 1 -1
741 214 4 0 -4.01781471967119 -1.8171881221143602 1.1064296177540207 4 1 -1
1464 455 4 0 -3.643037616297989 -1.7264200707029618 1.120031833757137 2 0 0
1463 455 2 0 -3.183876096369837 -1.7398363467500655 1.1786247184666205 2 0 0
1465 455 4 0 -2.702182116459399 -1.7494085966105697 1.2322459192699036 2 0 0
164 33 3 0 -2.3752341327777406 -1.5082221010805528 1.1008561617417634 2 0 0
161 33 1 0 -1.9329920291412792 -1.4673586387256998 0.9230848149006068 2 0 0
162 33 3 0 -1.7849967089078556 -1.0274734971483248 0.9665833231797798 2 0 0
163 33 3 0 -1.662152139064804 -1.7283788133677724 1.1382374198248009 2 0 0
868 256 4 0 -1.3382850356190987 -1.6801875760943243 1.3681261669912992 1 0 0
866 256 2 0 -0.9567115010301528 -1.6361460071749594 1.5890887375576526 1 0 0
867 256 4 0 -0.5656586299109385 -1.5834096703765166 1.814139080766676 1 0 0
426 109 4 0 -5.174875923743526 -0.8086921082696534 1.006119509259559 2 0 0
524 142 2 0 -4.347752166810983 -8.130874827502467 2.445454132622281 1 0 0
525 142 4 0 -4.592586819341355 -7.892963809912617 2.129059393144331 1 0 0
696 199 4 0 -5.576468865762251 -7.344399538060494 2.733859838227584 3 1 0
695 199 2 0 -5.129953483067238 -7.337512247894959 2.6446200253382397 3 1 0
697 199 4 0 -4.696870050577811 -7.330203320103966 2.5723531499326757 3 1 0
1108 336 4 0 -4.353068480225312 -7.156406879166061 2.409358166330838 1 0 0
1106 336 2 0 -3.982810674351181 -7.109853216685929 2.1605153573842575 1 0 0
1524 475 4 0 -3.2718895143151414 -7.23681560727442 2.002485974915178 1 0 0
1107 336 4 0 -3.6071735014743167 -7.073819517837578 1.9075177145393845 1 0 0
810 237 4 0 -2.8689297684764403 -6.673938979386553 2.6167635921523225 2 1 0
809 237 2 0 -2.8928393138601898 -6.330828433946093 2.3095825559843117 2 1 0
811 237 4 0 -2.9080320314846198 -6.022148045476929 2.0136446270563386 2 1 0
24 5 3 0 -7.477691229667898 -1.8914733589911936 2.649613585871389 2 0 -1
23 5 3 0 -7.373251843181368 -1.2063264538077032 2.440334933585625 2 0 -1
22 5 3 0 -6.78870897159808 -1.6544476811665874 2.3677040236084004 2 0 -1
21 5 1 0 -7.176145872637189 -1.5263480564791507 2.6238918365851287 2 0 -1
316 72 4 0 -6.56399671697692 -1.322075918832451 2.2588113651890556 2 0 -1
315 72 4 0 -5.832630745383018 -0.9484645506814777 1.8746132947780598 2 0 -1
314 72 2 0 -6.185923511721967 -1.1283912363446529 2.062419595531468 2 0 -1
1176 359 4 0 -0.34179309102186206 -1.7169381922866167 2.125068645724607 2 0 0
1142 348 2 0 -7.839036946814579 -0.6387237819116436 2.558037501833457 3 0 0
1144 348 4 0 -7.5994268348090595 -0.9079852802952226 2.245949194204046 3 0 0
1007 303 2 0 -4.994441870612421 -0.09644991664076841 2.431954126275688 3 0 0
1275 392 4 0 -5.740771683868866 -7.421214177827624 3.0789626960431864 3 1 0
1274 392 2 0 -5.790238691064449 -7.234262314601657 3.516249362859785 3 1 0
1179 360 4 0 -2.7971018696922734 -6.886033476608779 2.9425350894440196 1 0 0
1178 360 2 0 -2.487570023488203 -7.06040143024984 3.1810189457175824 1 0 0
1180 360 4 0 -2.1548966639033047 -7.252579513086233 3.4436919050093238 1 0 0
1121 341 2 0 -7.598781266586191 -5.566253401973139 3.20286047358233 1 0 0
1123 341 4 0 -8.01121450435247 -5.607933400418809 3.041031830062998 1 0 0
1122 341 4 0 -7.179393177081666 -5.5360416861393755 3.368070303179561 1 0 0
1398 433 4 0 -6.836251781139138 -5.429507395689345 3.596844406376002 1 0 -1
343 81 4 0 -4.824865587088738 -3.7194457926311397 3.001732168973291 1 0 0
341 81 2 0 -4.419370088052331 -3.4985612243539332 3.001970924228189 1 0 0
342 81 4 0 -4.048240551316003 -3.301504810014891 3.0102440488911117 1 0 0
891 264 4 0 -3.7329380753545065 -3.0650908942632613 3.1232215843685296 3 1 0
890 264 2 0 -3.321956683578101 -3.0749405709460724 3.3198504317027258 3 1 0
892 264 4 0 -2.918739732137567 -3.0815696948308524 3.5181224315295765 3 1 0
622 174 4 0 -2.598516093909308 -3.257337074315232 3.357966764130751 3 1 -1
620 174 2 0 -2.2288855968343952 -2.946555923072294 3.4305619651651167 3 1 -1
621 174 4 0 -1.8781276123385107 -2.6642947095298375 3.500998381932064 3 1 -1
681 194 4 0 -1.565119946041536 -2.5004836471563436 3.3259027830228547 3 1 -1
680 194 2 0 -1.2406585181899885 -2.4758808277235005 3.6548060458656035 3 1 -1
776 226 2 0 -8.237316750641396 -1.737289577937088 2.9481830978497516 2 0 -1
777 226 4 0 -7.80526807286134 -1.695804319812118 2.7895774729845044 2 0 -1
25 5 3 0 -7.041454166620223 -1.414446981900583 3.037606956220648 2 0 -1
877 259 4 0 -6.724512506579669 -1.3663804201333472 3.289535900079297 2 0 0
875 259 2 0 -6.318087235409685 -1.4418874250835998 3.436779170005508 2 0 0
876 259 4 0 -5.894640689999656 -1.5315021697347229 3.601767286146366 2 0 0
762 221 4 0 -5.543819864992791 -1.3654129386333587 3.5522270567306737 2 0 -1
761 221 2 0 -5.112721604335599 -1.2567915134287295 3.4525999662425626 2 0 -1
763 221 4 0 -4.6398462498900095 -1.1338972413866824 3.3536923458874526 2 0 -1
1143 348 4 0 -8.09160617704438 -0.3819204861332022 2.880462999411389 3 0 0
247 50 3 0 -7.952716195578196 -0.5457731770872192 3.2137325093231563 3 0 0
246 50 1 0 -7.852867316053355 -0.43290677698384705 3.6282566802284677 3 0 0
1113 338 4 0 -7.087254557218806 -0.229973815538834 3.6489189706510476 0 -1 0
1008 303 4 0 -5.145536040202552 -0.24713723086714445 2.8525299242098647 3 0 0
97 20 3 0 -5.3941409538027045 -0.2603376966702893 3.163071237281489 2 0 0
718 206 4 0 -4.498237316430373 -0.8282880641898922 3.529701677098142 2 0 -1
716 206 2 0 -4.065041862164134 -0.8030414582311813 3.4750567805916006 2 0 -1
717 206 4 0 -3.594356936976572 -0.7764018692927053 3.4144938706368 2 0 -1
744 215 4 0 -3.2105337894122314 -0.7432450560291146 3.5522606727698687 2 0 -1
603 168 4 0 -1.5457306443655021 -7.6792312936201235 4.41518751130368 2 1 0
602 168 2 0 -1.8076413043325035 -7.495154634006106 4.124871411696256 2 1 0
1276 392 4 0 -5.8283161632502205 -7.049681409822859 3.923879225809859 3 1 0
301 67 4 0 -5.461319089332014 -6.938389809570895 3.943379060579348 0 0 -1
299 67 2 0 -5.022554826187935 -6.75509689696941 4.0743581419596495 0 0 -1
300 67 4 0 -4.623727999767333 -6.590644996375888 4.179741585233348 0 0 -1
1396 432 4 0 -4.452618144294595 -6.712952977835436 4.520336957065524 1 0 -1
586 162 4 0 -2.8016748750420897 -6.9191228528896715 4.366129965288042 3 1 -1
584 162 2 0 -3.0044615935537706 -7.262438771652159 4.555985690682595 3 1 -1
604 168 4 0 -2.0707773841410457 -7.30130565684261 3.8189243977775185 2 1 0
649 183 4 0 -4.42919231598078 -5.543798097235522 4.240568102210254 3 1 -1
766 222 4 0 -5.599832760744226 -5.190879583640139 3.783494108427096 1 0 -1
1397 433 2 0 -6.424200151206568 -5.332680624848306 3.7656628620706805 1 0 -1
1399 433 4 0 -5.995985828064141 -5.224916041467079 3.9354446440916 1 0 -1
764 222 2 0 -5.183613862446855 -5.3368503371303415 3.877279912197528 1 0 -1
765 222 4 0 -4.748432258173446 -5.481660320845467 3.975445699936751 1 0 -1
682 194 4 0 -0.9204211486802176 -2.4481168076626947 3.9853587915232094 3 1 -1
78 16 3 0 -1.1490169739162273 -2.589323424559894 4.283456153301184 3 1 -1
250 50 3 0 -8.070367792379589 -0.7059583517273094 3.9193941796170293 3 0 0
248 50 3 0 -7.4061419258273915 -0.475572540086187 3.683390354104384 3 0 0