LAMMPS data file via write_data, version 4 Feb 2025, timestep = 8500000, units = lj

4800 atoms
4 atom types
3300 bonds
1 bond types
2250 angles
2 angle types

-11.930663 11.930663 xlo xhi
-11.930663 11.930663 ylo yhi
-11.930663 11.930663 zlo zhi

Masses

1 1
2 1
3 0.1
4 0.1

Bond Coeffs # harmonic/omp

1 100 0.45

Angle Coeffs # harmonic/omp

1 100 180
2 100 109.471

Atoms # full

1190 297 4 0 -7.889510363295958 -10.294711280441962 -11.132570911951987 0 0 0
1189 297 2 0 -7.779895785683778 -10.101949684112745 -10.736133770495435 0 0 0
1008 236 4 0 -4.694826266938126 -9.891397411567947 -10.564282381069564 0 0 0
1006 236 2 0 -4.731566508419666 -9.901590173354355 -11.012319144845442 0 0 0
815 172 4 0 -4.454015641934076 -9.956005098414577 -11.749962655437006 0 0 0
1007 236 4 0 -4.7658610782579505 -9.918533338240323 -11.468790420408721 0 0 0
1455 385 4 0 -8.918693279751924 -7.631850037989214 -11.314629025941203 0 0 1
1453 385 2 0 -8.84835466780657 -8.012594251703955 -11.539816932498773 0 0 1
1454 385 4 0 -8.790143618491019 -8.417479986382157 -11.775063916307596 0 0 1
2939 880 4 0 -0.5940761955311898 -5.936113637826786 -11.073182590809187 1 0 0
2940 880 4 0 -0.2860645119474287 -6.365130341418283 -11.82158434367367 1 0 0
2938 880 2 0 -0.438265058618378 -6.1583978794893435 -11.458777961956 1 0 0
4042 1248 2 0 -11.219077409748982 -0.00970910713744774 -7.309901660208106 1 0 0
4044 1248 4 0 -11.51386977380392 -0.23489810175147668 -7.598852588779499 1 0 0
1001 234 4 0 -0.807644566430042 -5.962364388639893 -10.767249967508377 0 0 0
2875 859 2 0 -4.637940811828099 -2.995497747488203 -10.83941452838323 0 0 0
2877 859 4 0 -4.750433550607544 -3.288138574560341 -10.472212873991634 0 0 0
913 205 2 0 -0.8718762524316206 -3.3030586284099344 -11.044201682632162 0 0 0
914 205 4 0 -0.46571973250351884 -3.4819146956300076 -10.97695106597268 0 0 0
915 205 4 0 -1.2784336631977873 -3.1325521806847583 -11.107960711928962 0 0 0
2232 644 4 0 -11.819397397857564 -2.3263486582645685 -11.227809572576572 0 0 0
2230 644 2 0 -11.67677977474428 -1.9997655638725482 -10.917312813764989 0 0 0
1330 344 2 0 -11.828151873216287 -3.0685696521311314 -1.1558300978816105 0 0 0
2231 644 4 0 -11.528700868127956 -1.6905408230051944 -10.617623117387364 0 0 0
2876 859 4 0 -4.539334200552043 -2.723791984562295 -11.170550925363914 0 0 0
828 176 4 0 -4.583165655318274 -2.4379345576525266 -11.433580475582337 0 0 0
826 176 2 0 -4.799930002390461 -2.0204797287447946 -11.4561245631464 0 0 0
827 176 4 0 -5.017803007298637 -1.6203241274487152 -11.482077919048459 0 0 0
329 66 3 0 -3.0935955609914325 -1.406502484366513 -10.348225005090525 0 0 1
3228 976 4 0 -2.0629994096624844 -2.3529219671169415 -11.273754955793262 0 0 0
330 66 3 0 -2.7307770511821077 -1.5359894235691334 -10.972508695842475 0 0 1
2710 804 2 0 -2.5024488272527043 -1.4686961775175866 -11.782400491725896 0 0 1
326 66 1 0 -2.847655252683765 -1.6937049981404875 -10.56655933284208 0 0 1
328 66 3 0 -3.0964056558845554 -2.062426817045128 -10.622618142474037 0 0 1
3226 976 2 0 -1.6962990492436774 -2.5608531640182917 -11.112217224788772 0 0 0
2711 804 4 0 -2.7249097327849414 -1.462656391797981 -11.376045169275281 0 0 1
3227 976 4 0 -1.317246263412038 -2.772580436464742 -10.957937596921754 0 0 0
2523 741 4 0 -4.885018130873469 -1.483554137581966 -11.87336545410531 0 0 1
2014 572 2 0 -11.90768075602468 -5.1725603301993 -8.185226143889693 0 1 0
3201 967 4 0 -4.576259559221835 -0.04062577654309744 -11.201332346514414 0 0 0
3200 967 4 0 -4.2254685203350375 -0.3621076900886763 -10.437855453504428 0 0 0
3199 967 2 0 -4.4017838221002314 -0.20676003836682402 -10.817827885460787 0 0 0
1268 323 4 0 -7.733117360173608 -9.721110505595837 -10.001946164270947 0 0 1
1191 297 4 0 -7.680319349710053 -9.915974959350976 -10.346927963862012 0 0 0
1267 323 2 0 -7.5640476032564745 -9.419820356648863 -9.7149114089894 0 0 1
4596 1432 4 0 -7.1379077428687205 -9.076860926057568 -9.11295447229463 1 1 1
1269 323 4 0 -7.3927665206826845 -9.113029680385287 -9.415406990174786 0 0 1
1245 315 4 0 -4.6781857057182545 -9.515313472677683 -10.400135167008976 0 0 0
1243 315 2 0 -4.703557498072833 -9.357389798628239 -9.966739727139199 0 0 0
1351 351 2 0 -11.693288949348569 -7.832228346624709 -9.731367800425737 0 0 1
1353 351 4 0 -11.606405053553633 -7.394861609052134 -9.663579853670079 0 0 1
1352 351 4 0 -11.777888397760995 -8.259624906135118 -9.792613248927545 0 0 1
1244 315 4 0 -4.732658179339582 -9.210883620959907 -9.565144330136146 0 0 0
2933 878 4 0 -4.635764172001983 -8.832104633600254 -9.458669807156719 0 0 0
2932 878 2 0 -4.4892604340796325 -8.409622022829115 -9.43494958146744 0 0 0
2934 878 4 0 -4.334233538759092 -7.990633342642868 -9.419614554099983 0 0 0
1289 330 4 0 -4.279484970312418 -7.722391366170065 -9.136572569389026 0 0 1
80 16 3 0 -11.348089241717414 -7.326868740023274 -9.363462019447585 0 0 0
76 16 1 0 -11.101457573231611 -7.1017971853343695 -9.037578415272375 0 0 0
79 16 3 0 -10.789289124981016 -6.83647099530367 -9.23209521992035 0 0 0
756 152 4 0 -10.466674350523355 -6.626444867102174 -9.342636820161115 0 0 0
1288 330 2 0 -4.106555949473339 -7.313275444712828 -9.103619085281185 0 0 1
1290 330 4 0 -3.919557607552968 -6.896901185382704 -9.066905087296231 0 0 1
3625 1109 2 0 -3.4332471459388483 -6.407296826591363 -9.18677817625011 0 0 1
3626 1109 4 0 -3.5491051328501766 -6.819445898051244 -9.074708323844794 0 0 1
1031 244 4 0 -7.434759511071546 -4.704149476797912 -9.093883367303208 0 0 0
45 9 3 0 -6.529240586209555 -5.263283455498883 -8.709275294617052 0 0 0
44 9 3 0 -6.767794784556631 -5.408349652012795 -9.367121585128979 0 0 0
42 9 3 0 -7.171280874293837 -4.966961871736683 -8.952905005849894 0 0 0
41 9 1 0 -6.888662570098293 -5.336197691783493 -8.957666094661276 0 0 0
462 93 3 0 -3.2473526312600436 -4.952857255581657 -9.700433150740244 0 0 0
846 182 4 0 -3.3499696684660107 -4.668877916200087 -9.951800760497438 0 0 0
3627 1109 4 0 -3.3208489704598674 -6.024215486029913 -9.295375158997475 0 0 1
465 93 3 0 -3.3612188485217813 -5.629170444420655 -9.418119904780463 0 0 0
461 93 1 0 -3.114354340411093 -5.248001255725565 -9.3895398122963 0 0 0
1259 320 4 0 -1.5133573561148972 -5.563631542132287 -9.930108667821933 0 0 1
1260 320 4 0 -2.434779543686922 -5.4565052380679875 -9.75929489129099 0 0 1
1258 320 2 0 -1.9890627267140393 -5.511752577357076 -9.83891266664926 0 0 1
463 93 3 0 -2.6759291662141673 -5.348674429521369 -9.458775065381415 0 0 0
919 207 2 0 -1.6738543291836703 -4.5576643308602325 -9.229146392022779 0 0 0
1000 234 2 0 -1.1093726059695426 -5.938407418823813 -10.44741323349636 0 0 0
1002 234 4 0 -1.4257323405484814 -5.916008571332903 -10.11166766865912 0 0 0
1776 492 4 0 -9.401553402396456 -3.213441586767771 -9.191879711490902 0 0 0
1166 289 4 0 -8.992730945486256 -3.2216408126742597 -9.124232886971837 0 0 0
1167 289 4 0 -8.344931028905389 -3.847221560494253 -9.089236426929164 0 0 0
1165 289 2 0 -8.663966753324033 -3.5369206845042833 -9.10350996566577 0 0 0
1032 244 4 0 -8.17486552204943 -4.18590681133333 -9.218026259697304 0 0 0
1030 244 2 0 -7.809054911385475 -4.442702984666623 -9.161398337826544 0 0 0
1238 313 4 0 -4.526391313334217 -3.4245997151089256 -9.189561499645302 0 0 0
598 120 3 0 -4.502308906815135 -3.53126614846979 -10.265303127798937 0 0 0
844 182 2 0 -3.4995012297943546 -4.279119627019186 -9.81175914797874 0 0 0
599 120 3 0 -4.530045684022447 -3.301957640820796 -9.563356436003621 0 0 0
845 182 4 0 -3.6587611511428633 -3.872958733376597 -9.670575105506384 0 0 0
597 120 3 0 -4.041559263825995 -3.8105216916086264 -9.751627979277549 0 0 0
596 120 1 0 -4.258604025822878 -3.4394602631233346 -9.88335470133229 0 0 0
600 120 3 0 -3.9493325942180535 -3.1144585288659794 -9.967867578669603 0 0 0
921 207 4 0 -1.7372442019129999 -4.113715379624544 -9.166060859704494 0 0 0
3383 1028 4 0 -0.1529643111034718 -3.2841194959250983 -9.961891448131235 0 0 1
3382 1028 2 0 -0.05866988459706827 -3.3460881628676966 -9.532204317040614 0 0 1
1079 260 4 0 -4.144398159164565 -0.4258108524317303 -0.8138935510193076 0 0 0
3767 1156 4 0 -4.502125287137464 -0.25746664274901765 -0.6801642206258376 1 0 0
1973 558 4 0 -3.5607269579727907 -3.0804042963601286 -10.0010658365958 0 0 0
1972 558 2 0 -3.348386183309629 -2.706522447571672 -10.134774295778792 0 0 0
327 66 3 0 -2.4846608701121924 -1.7989745856991528 -10.336118052915115 0 0 1
1974 558 4 0 -3.110567516916452 -2.295045606666395 -10.288105787195223 0 0 0
2427 709 4 0 -2.581793822605907 -1.9850616658792026 -10.023174494130178 0 0 1
2425 709 2 0 -2.146696532727166 -2.0511444833204657 -9.815073268859837 0 0 1
2426 709 4 0 -1.7531365634130902 -2.1150718166969686 -9.621468584041246 0 0 1
4062 1254 4 0 -1.3859731482684818 -2.0231826380503573 -9.463159640989725 0 0 0
4060 1254 2 0 -1.0824637929371461 -1.9208782742690307 -9.153444769936543 0 0 0
1760 487 4 0 -11.534413145018 -1.4015691353682118 -10.346511752745979 1 0 0
1759 487 2 0 -11.515957663359806 -1.0384460101647215 -10.078749757147044 1 0 0
1761 487 4 0 -11.492670887644838 -0.6976764013409011 -9.82865159240708 1 0 0
203 41 3 0 -11.487435928185196 -0.40266114674254927 -9.550372133807741 0 0 0
201 41 1 0 -11.166599213344037 -0.30095918770535324 -9.234409244983743 0 0 0
204 41 3 0 -10.800537959037374 -0.5791227061953135 -9.303006689310632 0 0 0
205 41 3 0 -11.322234624534694 -0.3541386929874464 -8.841755507093206 0 0 0
1765 489 2 0 -3.8045999881525603 -1.0604740467953921 -10.394835728941404 0 0 0
1766 489 4 0 -4.158699304158612 -0.7476854340673567 -10.388233624500177 0 0 0
1767 489 4 0 -3.478896315770073 -1.3553510760055254 -10.393255641974019 0 0 0
923 208 4 0 -11.878181539064018 -5.938964930423283 -8.399471555837641 0 0 0
2808 836 4 0 -0.2960297846253455 -0.15400666007340005 -9.447478545401122 0 0 0
890 197 4 0 -10.363780207572512 -10.603142750955417 -7.342090657571537 0 0 0
4011 1237 4 0 -7.19072045116678 -11.687926828906887 -7.5589668510235395 0 1 0
4009 1237 2 0 -7.212381520518701 -11.801368788225743 -8.002182373582581 0 1 0
4010 1237 4 0 -7.218423790689868 -11.911986681783823 -8.438258380261406 0 1 0
510 102 3 0 -0.06642638942596214 -3.4041612074751715 -11.03998381182374 0 0 1
2601 767 4 0 -4.616272393317432 -11.29462100723027 -7.517051267143494 0 1 1
2599 767 2 0 -4.446874522099805 -11.193657932489863 -7.9223082992434355 0 1 1
2600 767 4 0 -4.27630846831509 -11.08184951986747 -8.348628870336157 0 1 1
242 49 3 0 -11.387970396407976 -9.128478384690183 -8.075799738898917 0 0 0
243 49 3 0 -10.817961882112572 -9.293411557999987 -7.621668272112984 0 0 0
996 232 4 0 -10.463020955931789 -9.451622600053943 -7.750457584172215 0 0 0
994 232 2 0 -10.338314152599162 -9.858248964186961 -7.591346357181556 0 0 0
995 232 4 0 -10.22589483637215 -10.246327163947528 -7.455229341376471 0 0 0
4594 1432 2 0 -7.006686881006147 -9.011030650505756 -8.702073809923581 1 1 1
4595 1432 4 0 -6.870855218167427 -8.950574664266647 -8.275069526505973 1 1 1
241 49 1 0 -11.116982119424307 -8.965027458871036 -7.74857613249383 0 0 0
1149 283 4 0 -10.786948894417357 -7.56604560176183 -8.429566715510301 0 0 0
1147 283 2 0 -10.726930801586535 -8.023066996094911 -8.30515213534777 0 0 0
1148 283 4 0 -10.67383640824461 -8.458472141239579 -8.191221040705397 0 0 0
244 49 3 0 -10.893296778746928 -8.619671344241606 -7.907387472977848 0 0 0
245 49 3 0 -11.369079698406981 -8.839129404918278 -7.402081893286523 0 0 0
78 16 3 0 -11.399952189989559 -6.82315435714466 -8.780707666131315 0 0 0
924 208 4 0 -11.729316402679716 -6.6364428164001 -8.935794314285019 0 0 0
77 16 3 0 -10.899463983803848 -7.407281665355709 -8.754969007057847 0 0 0
922 208 2 0 -11.810857602541274 -6.279072178865375 -8.661375348479202 0 0 0
754 152 2 0 -10.275633054321444 -6.397822579731414 -8.982880718300512 0 0 0
755 152 4 0 -10.079219270344124 -6.184592834670472 -8.62966532526836 0 0 0
1528 410 2 0 -9.962392153412 -5.8812606230739215 -7.852318520722628 0 0 1
1530 410 4 0 -10.003948053293191 -6.078193152071609 -8.25318636671226 0 0 1
2965 889 2 0 -0.28650456661716733 -6.067878885577693 -8.303227743613299 0 0 0
2016 572 4 0 -11.718555927417963 -5.586140055368976 -8.24834821799354 0 1 0
4340 1347 4 0 -11.920667291230112 -4.4014053268974305 -8.109526970058582 1 0 1
822 174 4 0 -6.1793838879876395 -5.08087647908391 -8.680317278876954 0 0 0
43 9 3 0 -7.101776364665415 -5.686696455414276 -8.802506212827378 0 0 0
820 174 2 0 -5.733338975975633 -4.992119701133202 -8.64010714305332 0 0 0
821 174 4 0 -5.247894535346435 -4.896401058142581 -8.599464340042404 0 0 0
47 10 3 0 -4.879959162327028 -4.8759325965772975 -8.449675596650199 0 0 0
46 10 1 0 -4.7209183825220435 -4.576160903346542 -8.11982628023938 0 0 0
50 10 3 0 -5.050688569288946 -4.338667154583393 -7.93991091693064 0 0 0
48 10 3 0 -4.51031917082983 -4.814599050794525 -7.768638706207591 0 0 0
4719 1473 4 0 -4.209019858509811 -4.994905275675274 -7.623348968680159 0 1 1
4717 1473 2 0 -3.7671543335989206 -5.102218558929851 -7.595593272331532 0 1 1
4718 1473 4 0 -3.3215714525807147 -5.222220631602653 -7.559599453755624 0 1 1
464 93 3 0 -3.1662597072912866 -5.06734860798527 -8.981512521191755 0 0 0
920 207 4 0 -1.606138879243123 -5.008893401685005 -9.305163365851401 0 0 0
2882 861 4 0 -1.619577567806623 -5.276954267674589 -8.993281787424353 0 0 0
899 200 4 0 -2.9057790748791694 -5.27367148759463 -7.560363789279404 0 0 0
3290 997 4 0 -1.7352390073997839 -5.6699598993999745 -7.696198581538246 0 0 1
898 200 2 0 -2.501656084861793 -5.369621650343412 -7.667209433011427 0 0 0
900 200 4 0 -2.078143068256948 -5.4765549240126425 -7.783801300831423 0 0 0
2967 889 4 0 -0.7215569539513234 -5.939407600246609 -8.441074999027977 0 0 0
2881 861 2 0 -1.3246283752029082 -5.559333816849275 -8.816112658451953 0 0 0
2883 861 4 0 -1.031784132872618 -5.839061751467244 -8.64075518053352 0 0 0
4339 1347 2 0 -11.723635000013676 -4.041568889117955 -8.28466129001422 1 0 1
1725 475 4 0 -11.16083735917035 -3.5289775326080504 -8.520922232542551 1 0 0
4341 1347 4 0 -11.542509019856329 -3.6914118967708385 -8.4558553944626 1 0 1
1723 475 2 0 -10.799281405789527 -3.2815133131998855 -8.568876454294506 1 0 0
1724 475 4 0 -10.402616193411253 -3.006433121979003 -8.6242269736507 1 0 0
1774 492 2 0 -9.709456001407169 -3.101310324970651 -8.889047234718308 0 0 0
1775 492 4 0 -9.998886997588416 -2.9897388735807224 -8.600244613175587 0 0 0
1179 293 4 0 -5.403288852480348 -4.11328338976193 -7.9232097886334385 0 0 0
1177 293 2 0 -5.606809853305612 -3.767538709015812 -7.687972538130697 0 0 0
49 10 3 0 -4.429002939635324 -4.305173921642519 -8.30974378981045 0 0 0
1239 313 4 0 -4.540822063889097 -3.993679133511898 -8.49683406540165 0 0 0
1237 313 2 0 -4.538491163941203 -3.7189226606650085 -8.831916756837808 0 0 0
1101 267 4 0 -10.373469555706027 -2.0405035414085395 -7.711777482832352 0 0 0
210 42 3 0 -4.684389598195571 -1.4488832228462003 -7.473897355720371 0 0 0
207 42 3 0 -4.472318274470353 -2.168849144008849 -7.3659896726209135 0 0 0
4061 1254 4 0 -0.7575899091834883 -1.821433690577296 -8.808944579013708 0 0 0
3908 1203 4 0 -0.45738729283496327 -1.5934682970188498 -8.880462166197079 0 1 0
3907 1203 2 0 -0.18535245831757413 -1.677793353057745 -8.515047566964029 0 1 0
3843 1181 4 0 -10.464444595541478 -0.7650871845838654 -9.200110153775283 1 0 0
1826 509 4 0 -11.715618043065557 -0.3123738793232919 -8.700755244863197 0 0 0
3841 1181 2 0 -10.298198895303612 -0.8308734838558531 -8.802809153834485 1 0 0
1825 509 2 0 -11.71163072594165 -0.151573171788161 -8.287098299016478 0 0 0
3818 1173 4 0 -8.564382086792028 -0.8378417859326568 -1.4306402648659586 1 0 0
3842 1181 4 0 -10.117624601306899 -0.9106429300381647 -8.381756721339396 1 0 0
15 3 3 0 -10.284769778004959 -0.9401579944996399 -8.016462538671103 0 0 0
949 217 2 0 -9.16682545219196 -0.7072249627633 -7.587924314256791 0 0 0
950 217 4 0 -9.569677876193987 -0.9064013919631462 -7.5450603809279935 0 0 0
13 3 3 0 -9.760299669051227 -1.273615733895443 -7.665721801474063 0 0 0
11 3 1 0 -10.189307526687319 -1.2297011062157048 -7.694905232303979 0 0 0
3203 968 4 0 -8.367666126208748 -0.6101759752153091 -7.72661135229996 1 0 0
3202 968 2 0 -8.103620234389812 -0.5490879297009189 -8.062794198592751 1 0 0
3204 968 4 0 -7.847206852213861 -0.48081889075172585 -8.393389086232567 1 0 0
951 217 4 0 -8.755487904086108 -0.5016821556848505 -7.62343170322622 0 0 0
2943 881 4 0 -7.72738186538901 -0.22434326059518866 -8.704253758766498 1 0 0
1522 408 2 0 -4.338547777498202 -0.9153701807031783 -7.908322397656779 0 0 1
1523 408 4 0 -4.6240463389684585 -1.2655595762312626 -7.8126750433517245 0 0 1
1524 408 4 0 -4.035892663888372 -0.567122868591132 -8.006891472524211 0 0 1
1161 287 4 0 -4.254783929463309 -0.250361646254217 -8.110255497627945 0 0 0
889 197 2 0 -10.002989461501624 -10.866380464711456 -7.291406179257392 0 0 0
891 197 4 0 -9.648278412656047 -11.12478837904516 -7.247518058628966 0 0 0
940 214 2 0 -8.936356187482675 -11.123028139888792 -6.999475843482427 0 0 0
942 214 4 0 -9.382838042691013 -11.16292298872943 -6.951553164160049 0 0 0
3978 1226 4 0 -7.403915407408623 -11.458619451424537 -7.3218143325581 0 1 0
3976 1226 2 0 -7.833537803519447 -11.43146826218973 -7.163564429412902 0 1 0
941 214 4 0 -8.48755500334882 -11.069406484097156 -7.048415523785708 0 0 0
3977 1226 4 0 -8.227319794381495 -11.416170047490603 -7.01962035812618 0 1 0
1222 308 2 0 -4.679213755296961 -11.800085315763827 -7.012628223585866 0 0 0
1223 308 4 0 -4.57826684409825 -11.395932819734417 -7.166822162186752 0 0 0
4752 1484 4 0 -11.008530627738576 -0.5236233479478287 -0.6006849327163958 1 0 0
870 190 4 0 -1.8344356402950357 -7.642040140460202 -6.5494007223243305 0 0 0
4269 1323 4 0 -1.96685622143726 -8.01216923382732 -6.4840347447392315 0 1 0
4267 1323 2 0 -2.226811124189883 -8.303431748116832 -6.25329890911173 0 1 0
1529 410 4 0 -9.922927946186332 -5.682549305544586 -7.432333540033824 0 0 1
868 190 2 0 -1.465673170227469 -7.375437046308136 -6.502986838689439 0 0 0
3131 944 4 0 -0.2162171747998792 -6.953099147229196 -7.336268352069677 0 0 0
3132 944 4 0 -0.993457585822755 -6.951053544255474 -6.794543652679665 0 0 0
3130 944 2 0 -0.6081610276985279 -6.948982485177904 -7.063589234944192 0 0 0
869 190 4 0 -1.1008780749575409 -7.116304417129853 -6.460952328954932 0 0 0
3000 900 4 0 -9.815574294270426 -5.79419272979917 -7.072568213740225 1 0 0
2998 900 2 0 -9.561714991089424 -5.497801745169789 -6.830429174715895 1 0 0
2999 900 4 0 -9.312846187041753 -5.209697027898883 -6.590619889607725 1 0 0
2768 823 4 0 -9.160102153106147 -4.9411084052242495 -6.873960757972843 1 0 0
2767 823 2 0 -8.774468349827819 -4.732332399543445 -6.6993923218011275 1 0 0
3289 997 2 0 -1.423872871231667 -5.519009067307269 -7.422406471053552 0 0 1
2102 601 4 0 -0.7860642468852737 -5.300649391692407 -6.976562578282095 0 0 0
3291 997 4 0 -1.1203131093377316 -5.362868706333367 -7.164499895742919 0 0 1
2101 601 2 0 -0.5738020137629866 -4.922207252064049 -7.081576009160979 0 0 0
2103 601 4 0 -0.37139118798763154 -4.569049186593241 -7.175950438195848 0 0 0
946 216 2 0 -9.465948179918987 -3.3263707265787503 -7.20815777617247 0 0 0
947 216 4 0 -9.80099880953399 -3.1316277654917646 -7.449418863901978 0 0 0
948 216 4 0 -9.106278846131486 -3.539232495422012 -6.958705162119104 0 0 0
2769 823 4 0 -8.39600181413939 -4.522835733111024 -6.519699075054523 1 0 0
491 99 1 0 -8.373825913370867 -3.7325323348982304 -6.608010526202288 1 0 0
495 99 3 0 -8.275969532016221 -4.168663504242707 -6.629089100984469 1 0 0
493 99 3 0 -8.803084809809976 -3.6662895057024563 -6.740123523953873 1 0 0
492 99 3 0 -8.328599000497274 -3.5864787573408603 -6.158636499565184 1 0 0
494 99 3 0 -8.086480648479368 -3.499155744305534 -6.875570623680795 1 0 0
1016 239 4 0 -8.538413862415489 -3.887731035284586 -5.96678966819067 0 0 0
753 151 4 0 -5.556624777622708 -3.1065182098279713 -7.3542444769402735 0 0 0
1178 293 4 0 -5.801236224562267 -3.4327234151792663 -7.4557109574580736 0 0 0
1080 260 4 0 -3.774601650568043 -1.1921984683183326 -1.0784991139435658 0 0 0
1078 260 2 0 -3.9579895475808073 -0.8186775928787732 -0.952441260716084 0 0 0
1736 479 4 0 -0.1997112943429148 -4.162258248786328 -6.244965158053613 0 0 0
14 3 3 0 -10.38061361102863 -1.6476372101596344 -7.793863081596673 0 0 0
1099 267 2 0 -10.235199058185179 -2.470257375424797 -7.627203942049001 0 0 0
1100 267 4 0 -10.095759734949043 -2.885294518604281 -7.538190536491378 0 0 0
752 151 4 0 -5.147936944882904 -2.3317513663423974 -7.132847369208066 0 0 0
751 151 2 0 -5.345978824392064 -2.7165479379778468 -7.240677325643036 0 0 0
208 42 3 0 -5.161966969054164 -1.94452117438081 -7.198924528542748 0 0 0
206 42 1 0 -4.724808659160641 -1.8211918680886805 -7.2070652324138464 0 0 0
209 42 3 0 -4.593092778286872 -1.7204255093945142 -6.792408302231592 0 0 0
12 3 3 0 -10.357894922428892 -1.0853079177481253 -7.323563667647756 0 0 0
3065 922 4 0 -11.846986698314055 -10.342395313740143 -4.902030744281138 0 0 0
3040 914 2 0 -11.299683129698575 -0.08851852369334162 -1.069950822327283 1 0 0
1860 520 4 0 -11.426517741243416 -11.351352528753772 -5.200965281616937 0 1 0
1858 520 2 0 -11.237110885322265 -11.757386273800634 -5.155716097564061 0 1 0
69 14 3 0 -11.831418156166999 -11.362343192845639 -5.212501292662156 0 0 0
3042 914 4 0 -11.362679842582727 -0.43957983632796027 -0.7997190468798422 1 0 0
2870 857 4 0 -2.2839444428815026 -11.667156892057859 -4.997166475003792 0 0 0
2869 857 2 0 -2.5013016811386426 -11.312008907840232 -4.836895319731213 0 0 0
3388 1030 2 0 -0.5903423780512105 -11.060147868738111 -4.955571531699084 0 0 0
3390 1030 4 0 -0.7149713234581283 -11.279172158605588 -5.3236197461670915 0 0 0
938 213 4 0 -0.7585973673073441 -11.192481777290551 -5.725395381629386 0 1 0
937 213 2 0 -0.8671358000965504 -11.606981729763472 -5.894854729031733 0 1 0
3389 1030 4 0 -0.4579250224270315 -10.843761923215506 -4.6105930065376715 0 0 0
766 156 2 0 -6.765906219991955 -7.627991447583021 -5.439830960789377 0 0 0
768 156 4 0 -6.3633027216122695 -7.614592546295344 -5.206949377627221 0 0 0
3222 974 4 0 -6.025407784450571 -7.82584464782461 -5.232149284460117 1 0 0
3221 974 4 0 -5.794115766486739 -8.569679700182123 -4.858312125197834 1 0 0
3220 974 2 0 -5.907822020098353 -8.196497348894573 -5.052350377715953 1 0 0
2409 703 4 0 -5.742573219815009 -8.718923461047746 -4.492288652150406 0 0 1
1052 251 4 0 -4.790192978792928 -8.441414157940834 -4.519022959015904 0 0 0
3491 1064 4 0 -3.5730841182580058 -8.652140214643538 -4.992098739607614 0 0 0
3490 1064 2 0 -3.9874051033168305 -8.601050444030548 -4.759104597493705 0 0 0
1970 557 4 0 -3.254109863300944 -8.742486230408764 -5.161434311693234 0 1 0
1969 557 2 0 -2.9491197937568012 -8.825759793709464 -5.4833385137625585 0 1 0
4268 1323 4 0 -2.471037506502321 -8.589225319666992 -6.037397759594561 0 1 0
1971 557 4 0 -2.6371068569341065 -8.899953050992252 -5.813639669676613 0 1 0
808 170 2 0 -7.746782541336591 -7.015559386447654 -5.701936058314764 0 0 0
810 170 4 0 -8.060372748828097 -6.676897958336542 -5.66035366642207 0 0 0
2798 833 4 0 -8.378833126672388 -6.835665179491175 -5.463193965868563 1 0 0
2797 833 2 0 -8.638608808620738 -6.525564454519854 -5.17768987000842 1 0 0
2799 833 4 0 -8.887345649454826 -6.241791130989171 -4.911656500101006 1 0 0
430 86 3 0 -8.84885932830625 -6.086403177221092 -4.533479779648975 1 0 0
767 156 4 0 -7.168622810462673 -7.633555518797989 -5.664522539561413 0 0 0
809 170 4 0 -7.439061680586975 -7.350901935639783 -5.741114457272588 0 0 0
1153 285 2 0 -8.708393126951496 -5.094490027541004 -4.94323879768334 0 0 0
1154 285 4 0 -8.69610496901031 -4.796711794965205 -5.273757300594566 0 0 0
1017 239 4 0 -8.56420593354077 -4.387042948248332 -5.224828886465898 0 0 0
1155 285 4 0 -8.73905891486145 -5.377405484825312 -4.622826357580011 0 0 0
1543 415 2 0 -0.8843943780235408 -4.649999379626971 -4.857871902484333 0 0 0
1545 415 4 0 -0.748311517748728 -4.470203562228306 -5.236966857847922 0 0 0
1544 415 4 0 -1.024504940462996 -4.824143238677638 -4.469417961393817 0 0 0
1015 239 2 0 -8.552494521252834 -4.14894499659043 -5.585359768708008 0 0 0
1735 479 2 0 -0.42453169694224974 -4.373173014226771 -5.927028968573014 0 0 0
1737 479 4 0 -0.6657827055453661 -4.601828095350895 -5.621830128696972 0 0 0
2852 851 4 0 -0.05301298120639051 -2.1267333782655555 -4.883723393297797 0 0 0
3911 1204 4 0 -11.35532744968463 -0.9659521557866184 -5.189258057210602 1 0 0
3910 1204 2 0 -11.690592774255446 -0.7074170626313511 -5.3657561194586805 1 0 0
3182 961 4 0 -11.640263510896727 -10.95259158723143 -3.271627752134775 1 0 0
3064 922 2 0 -11.514552672514698 -10.304904102369065 -4.602910187726692 0 0 0
73 15 3 0 -11.49553725059842 -10.60267423055956 -3.2988157654333277 0 0 0
1935 545 4 0 -10.561885834361831 -10.540783370055669 -3.033240350246818 0 1 0
75 15 3 0 -11.177897907340578 -10.277359452022713 -3.8888030892313377 0 0 0
1933 545 2 0 -10.180920375063375 -10.741737290913038 -3.1920901855098918 0 1 0
1934 545 4 0 -9.797673397862436 -10.957708362145597 -3.3512949549095064 0 1 0
1293 331 4 0 -9.507233366914866 -11.109115356937556 -3.1271474744963452 0 0 0
1872 524 4 0 -8.005617423453977 -11.780555686523659 -3.5996048405146492 0 1 0
1220 307 4 0 -8.71572467073487 -10.868691968772684 -4.354650904038525 0 0 0
1870 524 2 0 -7.8867058342253715 -11.485691306826865 -3.2846062168153 0 1 0
1871 524 4 0 -7.757350569595569 -11.179540584497376 -2.969252509067074 0 1 0
4187 1296 4 0 -6.149097082768971 -11.469903916486444 -4.418718786767184 0 1 0
4186 1296 2 0 -5.850703580931557 -11.796637973643946 -4.430402586173331 0 1 0
2105 602 4 0 -6.279732919374616 -11.099577125151612 -4.34556520117063 0 1 0
2104 602 2 0 -6.18301785083413 -10.816296550910005 -4.054511028074585 0 1 0
2106 602 4 0 -6.07844433889449 -10.494974384066031 -3.6994785049665913 0 1 0
1944 548 4 0 -5.73708228416737 -10.59392856094226 -3.489670097438004 0 1 0
2871 857 4 0 -2.7038064308982634 -10.97014666590674 -4.687866201978086 0 0 0
3078 926 4 0 -2.6130098293198323 -10.786707978840145 -4.342993671407558 0 0 0
3076 926 2 0 -2.37551933153132 -10.64096174167821 -3.9676757457136733 0 0 0
384 77 3 0 -1.9148498904598896 -10.4339970380338 -3.3075425841711086 0 0 0
72 15 3 0 -10.804436668489918 -10.305218438336725 -3.2335442475560408 0 0 0
3066 922 4 0 -11.193220224575631 -10.256754937094948 -4.300225141613402 0 0 0
71 15 1 0 -11.227145422904112 -10.26328527408271 -3.440758173542568 0 0 0
74 15 3 0 -11.422719268332802 -9.859848510032261 -3.316113478458905 0 0 0
859 187 2 0 -11.662958138350993 -9.091083282341875 -3.461407975128388 0 0 0
860 187 4 0 -11.563117992777281 -9.541184548919746 -3.5147024080492946 0 0 0
1219 307 2 0 -8.76560129038628 -10.48705462988864 -4.120930451009149 0 0 0
1221 307 4 0 -8.812913415534469 -10.088437890416207 -3.8906553477578987 0 0 0
3631 1111 2 0 -8.522158144902969 -9.33745208101091 -4.003278094906327 1 0 1
3632 1111 4 0 -8.75405132228179 -9.726300529461847 -4.01871469862508 1 0 1
3633 1111 4 0 -8.300661819398556 -8.975608742905418 -3.9816576819301104 1 0 1
2407 703 2 0 -5.763211224697915 -8.963424634825484 -4.125708129394128 0 0 1
2408 703 4 0 -5.774857597595137 -9.21733925225413 -3.736951985414819 0 0 1
1230 310 4 0 -4.527504623933729 -9.585773929279238 -3.0774122382926725 0 0 0
1229 310 4 0 -3.890335072304678 -8.990525998298686 -3.34147246354841 0 0 0
2540 747 4 0 -3.513552557825763 -8.889427095329388 -3.3715041221675848 0 1 0
1228 310 2 0 -4.20334060556085 -9.280937123394432 -3.213715280032434 0 0 0
3077 926 4 0 -2.1541720674394 -10.50749296842716 -3.619703971013972 0 0 0
381 77 1 0 -1.5566566626572287 -10.242457592600676 -3.2061403148996934 0 0 0
385 77 3 0 -1.6469515912489756 -9.801401827150906 -3.0706457270065055 0 0 0
4794 1498 4 0 -1.6064154714848569 -9.405261446979807 -3.008252376520801 1 1 0
4792 1498 2 0 -2.0194778367284396 -9.18451377700473 -2.9320692005964437 1 1 0
3707 1136 4 0 -0.7548699324883782 -10.732970973044816 -4.361659689052411 0 0 0
3706 1136 2 0 -0.9337305812893301 -10.394411758105555 -4.111144237766049 0 0 0
3708 1136 4 0 -1.0950422575361893 -10.077055793034035 -3.868268565174003 0 0 0
383 77 3 0 -1.2994878468317328 -10.234717616953974 -3.551432967164656 0 0 0
2092 598 2 0 -11.185545168462431 -8.02179941285666 -3.4360702548596302 0 1 0
2093 598 4 0 -10.87668115788986 -7.705875767212022 -3.382091021460255 0 1 0
3014 905 4 0 -10.58919094886173 -7.502275856461488 -3.2142165570209875 1 0 0
861 187 4 0 -11.750709840027405 -8.674817791657858 -3.4142879590531656 0 0 0
2094 598 4 0 -11.494248425297823 -8.342865065990376 -3.489690824374981 0 1 0
3013 905 2 0 -10.171138716630562 -7.468536276059048 -3.2941728294355066 1 0 0
542 109 3 0 -9.409339657387706 -7.563240383762919 -3.1657337725474717 1 0 0
541 109 1 0 -9.020188787627497 -7.529254879297704 -2.941293124662081 1 0 0
3645 1115 4 0 -8.173711778713896 -8.663585838916234 -3.754162728972931 1 0 0
3643 1115 2 0 -8.370915249556365 -8.289774890263221 -3.656879572991985 1 0 0
3644 1115 4 0 -8.587735560120931 -7.89143665099055 -3.5369449647848645 1 0 0
545 109 3 0 -8.686242094872325 -7.766389150399324 -3.1745533221295696 1 0 0
1051 251 2 0 -4.918700329695773 -8.036947257255845 -4.3969957694525155 0 0 0
1053 251 4 0 -5.045450271505816 -7.6266083154902065 -4.268606828682648 0 0 0
3492 1064 4 0 -4.383625305571714 -8.548408405196676 -4.528681011369219 0 0 0
2539 747 2 0 -3.1663682854544515 -8.911943623947797 -3.087944107009735 0 1 0
2541 747 4 0 -2.8302218014953198 -8.928349238669254 -2.820645452069948 0 1 0
1384 362 2 0 -1.103797302106586 -7.5121996017335 -3.0347178691100956 0 0 0
1385 362 4 0 -0.681856261329795 -7.661334705586002 -3.1488004347320926 0 0 0
4054 1252 2 0 -0.2515343226350885 -8.23342450095309 -3.512826396725092 0 1 0
4056 1252 4 0 -0.6334416896922216 -7.95906012879298 -3.428753378361999 0 1 0
2919 873 4 0 -11.660234958665272 -6.33754668239655 -3.614142758973756 1 0 0
2558 753 4 0 -11.334459799733413 -6.316759362766604 -3.8576546892305665 0 1 0
787 163 2 0 -8.585884502107302 -6.465175664634914 -3.1980165927837314 0 0 0
788 163 4 0 -8.55303674921442 -6.152429195031364 -3.500296623055807 0 0 0