LAMMPS data file via write_data, version 4 Feb 2025, timestep = 8500000, units = lj

452 atoms
4 atom types
302 bonds
1 bond types
155 angles
2 angle types

-5.526003 5.526003 xlo xhi
-5.526003 5.526003 ylo yhi
-5.526003 5.526003 zlo zhi

Masses

1 1
2 1
3 0.1
4 0.1

Bond Coeffs # harmonic/omp

1 100 0.45

Angle Coeffs # harmonic/omp

1 100 180
2 100 109.471

Atoms # full

147 49 2 0 -4.869996102840013 -4.7567733956488745 -4.307726730389333 0 1 1
149 49 4 0 -4.829873147536394 -5.112773060452919 -4.591192466065759 0 1 1
154 51 4 0 -4.588745407851726 -5.1036115222091345 -4.934213871502186 0 1 1
148 49 4 0 -4.910125755798053 -4.418675695435797 -4.052744808700671 0 1 1
92 30 4 0 -4.900278653483704 -4.150458974413367 -3.7708170482010392 1 0 1
153 51 2 0 -4.527967205893172 -5.019215502737836 -5.371827196845548 0 1 1
62 20 4 0 -2.484799848277438 -4.706445449703267 -3.7960022689810895 0 0 1
60 20 2 0 -2.700462233686125 -4.756100132671211 -4.172073816965744 0 0 1
374 124 4 0 -2.108883542771618 -4.607246580184435 -3.8006564679778827 0 0 0
61 20 4 0 -2.9153380719051145 -4.815558567513519 -4.561871276342782 0 0 1
214 71 4 0 -2.8542264316440225 -5.075573369228115 -4.841811634864515 -1 0 1
213 71 2 0 -3.1836203230987308 -5.229553092291454 -5.071376240999658 -1 0 1
215 71 4 0 -3.5180503922680026 -5.384995900933793 -5.309161215412218 -1 0 1
252 84 2 0 -3.7668527498872835 -2.095409284252776 -5.406313759439035 0 -1 1
265 88 4 0 -3.3853699708255918 -1.7713542410003382 -3.831769986490038 0 0 0
254 84 4 0 -4.039401726016888 -1.9947244087822171 -5.022785575527108 0 -1 1
428 142 4 0 -4.137076934251482 -1.7174076813850774 -4.726036542363607 0 0 1
50 16 4 0 -3.257844147656609 -1.1655853066056412 -0.06015728527632665 0 0 0
422 140 4 0 -5.482616292619932 -0.6231040443122942 -3.6440316580065826 1 -1 1
420 140 2 0 -5.3449197835622195 -0.28487213926931104 -3.921719240368688 1 -1 1
426 142 2 0 -3.8676324046064736 -1.6124393981703007 -4.379067862900568 0 0 1
427 142 4 0 -3.606820922347368 -1.5077372705126284 -4.036352678054231 0 0 1
295 98 4 0 -0.900850335300227 -1.8487068852844533 -4.03589243953464 0 0 1
281 93 4 0 -1.1719995964869268 -1.8152256879283828 -4.358506647120766 0 -1 0
279 93 2 0 -1.068555190231883 -1.4530235328192156 -4.637160796260087 0 -1 0
189 63 2 0 -0.7743712038307891 -0.46354199120530293 -5.092441749612237 1 0 0
190 63 4 0 -0.6299061925279404 -0.8969756827878839 -5.01160687524617 1 0 0
280 93 4 0 -0.9649644089397476 -1.0935722404431218 -4.897373790076443 0 -1 0
191 63 4 0 -0.9005397848750846 -0.04866071337746484 -5.168780868666594 1 0 0
294 98 2 0 -0.6956192637653714 -1.7958648261905508 -3.633675278439531 0 0 1
90 30 2 0 -5.329446300270747 -3.997834665828989 -3.670272502779102 1 0 1
434 144 4 0 -3.9065550167334604 -5.251299195353254 -1.7226643533437007 1 1 1
432 144 2 0 -4.287583976114638 -5.484445213184198 -1.8332456146440368 1 1 1
372 124 2 0 -1.9130124546997447 -4.421252448012374 -3.418252076043428 0 0 0
373 124 4 0 -1.7272875839593114 -4.237579968294185 -3.045786162108759 0 0 0
323 107 4 0 -1.5738305583604806 -4.074272284209521 -2.721302567068217 0 0 0
321 107 2 0 -1.1692270532906321 -4.053047153141815 -2.5266281989291337 0 0 0
322 107 4 0 -0.7481270166710347 -4.017548098322377 -2.33488754644332 0 0 0
356 118 4 0 -0.4968380753399419 -3.684918297734257 -2.3962072050038707 0 0 0
24 8 2 0 -5.2961850453729635 -3.201607884489653 -2.4848659182274453 0 0 0
25 8 4 0 -4.892852207812445 -2.969326905839815 -2.4250464774476748 0 0 0
193 64 4 0 -4.568426039003513 -2.7482905482756164 -2.3830810837204273 0 0 0
192 64 2 0 -4.476933051300607 -2.4752616284953604 -2.0267552550582866 0 0 0
194 64 4 0 -4.392025888516677 -2.1972123578616163 -1.6613175844380452 0 0 0
287 95 4 0 -2.275713598019143 -1.8214692299102007 -3.3871431063428767 1 -1 0
266 88 4 0 -2.487447848110514 -1.7500786873390055 -3.7291548105354955 0 0 0
264 88 2 0 -2.9254855144836394 -1.7615928990581275 -3.782283165495629 0 0 0
286 95 4 0 -1.6581452102230851 -2.4843768103547834 -3.3583049714770596 1 -1 0
285 95 2 0 -1.9591852988289675 -2.163647786912123 -3.3766973061532193 1 -1 0
354 118 2 0 -0.3338368824311191 -3.2772166275670056 -2.3202692870181205 0 0 0
355 118 4 0 -0.1720884046214904 -2.850776949360785 -2.252999845379795 0 0 0
96 32 2 0 -0.32018886366926613 -2.2060591720315275 -2.599792569815646 0 0 1
98 32 4 0 -0.39006393256660304 -2.518807938021717 -2.2601976949153437 0 0 1
97 32 4 0 -0.24870564893883637 -1.8942613252507743 -2.9484767095948974 0 0 1
296 98 4 0 -0.4840943658238001 -1.7461444630822547 -3.228920587018846 0 0 1
82 27 4 0 -3.8716608501283503 -5.073252682857425 -1.3791824718818748 0 0 1
81 27 2 0 -3.746566135838212 -4.834226958063206 -1.0656877366266932 0 0 1
158 52 4 0 -2.4346722932506224 -5.34794495060226 -0.13307545544104257 0 1 -2
83 27 4 0 -3.60119807693873 -4.564825419701714 -0.715601339582076 0 0 1
310 103 4 0 -3.423279517400201 -4.259520954322576 -0.5587128205414832 0 0 1
309 103 2 0 -3.233891996049204 -4.1008623964501885 -0.21063238685112512 0 0 1
184 61 4 0 -4.21972802364478 -1.8487748376241233 -1.7852887207021362 -1 0 0
371 123 4 0 -4.052114374226065 -1.091883730706977 -0.9435276464802898 1 1 -1
185 61 4 0 -4.157353457640576 -1.0699275050059054 -1.3256806264766732 -1 0 0
183 61 2 0 -4.184499676922904 -1.4658679602536018 -1.556471511605817 -1 0 0
369 123 2 0 -3.841931112961025 -1.0973885837698079 -0.573662524958332 1 1 -1
370 123 4 0 -3.6131499699521332 -1.0932759436494557 -0.17168889479971755 1 1 -1
22 7 4 0 -2.362479231786437 -5.452087721472253 -0.5211462454578034 0 0 -1
165 55 2 0 -5.375716203352562 -5.44771674595628 0.41327930830926934 0 0 0
231 77 2 0 -0.529167827802952 -3.3394066368611717 3.9058389506852347 1 0 -1
167 55 4 0 -5.490485568983551 -5.144682147409169 0.11038515508483623 0 0 0
32 10 4 0 -3.4867248860113333 -4.424063590151917 1.5039634019430015 1 0 0
170 56 4 0 -3.4340312637165877 -4.807006996441008 1.360292735226344 0 1 -1
168 56 2 0 -3.018757320950422 -4.858264418697704 1.1889924955850648 0 1 -1
169 56 4 0 -2.59128806037271 -4.895116176498011 1.015392149063006 0 1 -1
157 52 4 0 -2.573704812904629 -5.213330210042812 0.7472561452279025 0 1 -2
156 52 2 0 -2.4975742855655367 -5.2760798562477405 0.30899002941592646 0 1 -2
289 96 4 0 -2.8869202844643715 -4.064450695348532 0.5058852516428076 0 -1 0
311 103 4 0 -3.0287898272287954 -3.9425107940329087 0.15512617450119334 0 0 1
221 73 4 0 -2.701474916557937 -2.9660872290102995 0.6613302894148938 0 0 0
219 73 2 0 -2.7943820265832175 -2.5555130821650835 0.4561504098951096 0 0 0
220 73 4 0 -2.8859495343550794 -2.145588869801663 0.24692822207536327 0 0 0
290 96 4 0 -2.710049307971262 -3.2733070736489336 0.8846598988706248 0 -1 0
288 96 2 0 -2.7987363208639673 -3.653271913581922 0.7094610755962341 0 -1 0
49 16 4 0 -3.1514988408606213 -1.9092191897497817 0.4451124513015185 0 0 0
48 16 2 0 -3.2061583018943454 -1.5441233277314133 0.19713617955146395 0 0 0
30 10 2 0 -3.6444101326235776 -4.286047905999178 1.896162208193063 1 0 0
122 40 4 0 -5.362222307632166 -5.343288290278705 1.9938782129717325 1 0 0
363 121 2 0 -4.720642138528538 -4.897404348101355 3.3837136278300597 1 0 0
121 40 4 0 -5.127308988961766 -4.797065484870579 2.7205961581008236 1 0 0
364 121 4 0 -5.030806045454842 -4.768728492608679 3.1257409873899853 1 0 0
120 40 2 0 -5.249624898491521 -5.069838846118907 2.3596232002169093 1 0 0
272 90 4 0 -4.050751744757699 -3.9586167730362356 2.5387040098784497 0 -1 0
31 10 4 0 -3.797388347030258 -4.140830638708301 2.2965426037830867 1 0 0
270 90 2 0 -3.832224461430472 -3.7232139326469866 2.8460643518636695 0 -1 0
134 44 4 0 -5.443145254426142 -2.3768810094689403 3.223928317094892 0 0 0
132 44 2 0 -5.38130470826031 -1.964960983683007 3.120742628831302 0 0 0
271 90 4 0 -3.599253830374822 -3.4840899865080712 3.1627100559483603 0 -1 0
314 104 4 0 -3.5374774584429907 -3.6976447710540787 3.494105151799701 1 -1 -1
312 104 2 0 -3.487567395316525 -3.4423600082329626 3.8491186152338543 1 -1 -1
233 77 4 0 -0.2171577055813619 -3.023539794916958 3.803408050703452 1 0 -1
203 67 4 0 -0.15860733381759273 -2.6399545567868983 3.748072591855266 0 0 0
201 67 2 0 -0.05882199072567973 -2.166744549991297 3.7524894483449533 0 0 0
133 44 4 0 -5.316490240662587 -1.5269577159341556 3.0138896391317944 0 0 0
389 129 4 0 -5.206218983769664 -0.4637566608246288 2.6166544634959563 1 -1 0
388 129 4 0 -5.161921300178417 -1.1782846597730463 3.1338369980972542 1 -1 0
387 129 2 0 -5.178175663013767 -0.8292863031178088 2.8728283122604528 1 -1 0
230 76 4 0 -5.316862545766069 -0.08064992318652425 2.5328020855046587 0 0 0
330 110 2 0 -3.621013333944309 -2.6076875391546825 4.59126375340997 0 -1 0
94 31 4 0 -4.398360991454709 -5.133206323626017 4.877428099056578 0 0 -1
155 51 4 0 -4.460287484626058 -4.933967799911862 5.231357556307333 0 1 0
93 31 2 0 -4.4568661060763155 -5.131043713473376 4.444829711712859 0 0 -1
95 31 4 0 -4.512549175038908 -5.127161768542485 4.0245199406182754 0 0 -1
365 121 4 0 -4.373106395349365 -5.0430979973597685 3.670589663932314 1 0 0
399 133 2 0 -2.08991785391963 -5.167045919033443 3.6254848764294785 0 0 1
313 104 4 0 -3.4319036132454923 -3.1733172143552313 4.238732382337131 1 -1 -1
331 110 4 0 -3.5837496319797664 -2.8027172867800827 4.157305260360348 0 -1 0
400 133 4 0 -1.8195050000238908 -4.809380724692878 3.521565000825565 0 0 1
336 112 2 0 -1.380406066811051 -4.125683189647604 3.7187103428725465 0 0 0
338 112 4 0 -1.1994727611611817 -3.739861608774783 3.843526299976529 0 0 0
232 77 4 0 -0.8288024450313921 -3.6618826253511676 3.99822127748708 1 0 -1
337 112 4 0 -1.5636674421872798 -4.507299696012089 3.6089762266592875 0 0 0
253 84 4 0 -3.5214508879815516 -2.196257864422255 5.309664978868833 0 -1 0
34 11 4 0 -5.3975789608551885 -2.481912397122645 3.6003034541608168 0 0 -1
33 11 2 0 -5.460508611586854 -2.8154608439618403 3.8428846818810927 0 0 -1
332 110 4 0 -3.6588072671300065 -2.424319269761019 5.004968679884644 0 -1 0
401 133 4 0 -2.3449868180398488 -5.49754790546183 3.729191941951742 0 0 1
366 122 2 0 -3.8884564989665313 1.6468164299239059 -4.8374156049584505 1 0 1
349 116 4 0 -4.309328094064061 0.6311138108338942 -4.8160302716959045 1 -1 1
348 116 2 0 -4.572674694730869 0.38134381209212015 -4.52711555573582 1 -1 1
299 99 4 0 -4.493848927028853 0.6939638678672412 -5.183343566201015 1 -1 1
350 116 4 0 -4.832178672149372 0.14326445380652378 -4.2534239459118215 1 -1 1
367 122 4 0 -3.543100857744046 1.501628586808993 -5.084546068530491 1 0 1
408 136 2 0 -2.7212553796357613 1.2825645678682245 -5.224430365116529 1 0 0
395 131 4 0 -2.007275506138215 1.5164889442329468 -5.098984593699947 1 0 1
440 146 4 0 -2.0084764586020745 1.2656800156610928 -3.7262402957889322 0 -1 0
410 136 4 0 -2.286245804996358 1.2691177220742198 -5.229115059142034 1 0 0
438 146 2 0 -1.7950677733845384 1.104225107858783 -4.1005140183568445 0 -1 0
439 146 4 0 -1.577863249898615 0.9546557406337395 -4.476304860046186 0 -1 0
217 72 4 0 -1.210517643670818 0.7777767659802519 -4.387515519382203 0 0 1
216 72 2 0 -1.1160992497684035 0.5553065315580745 -4.775516971175958 0 0 1
218 72 4 0 -1.0110409908499913 0.33771557890643417 -5.185537196768409 0 0 1
394 131 4 0 -1.1192308802159399 1.5948457065998938 -5.257742052754038 1 0 1
393 131 2 0 -1.5536958027600998 1.5595733771676077 -5.1799555253207705 1 0 1
29 9 4 0 -0.7406705726681156 1.469823129273647 -5.337892905102804 0 -1 1
368 122 4 0 -4.238850168211194 1.7860204773445951 -4.5898152047079055 1 0 1
145 48 4 0 -4.367571033407181 2.0852097262824576 -4.385412954287279 0 0 0
146 48 4 0 -4.703277849897893 2.8776219137759957 -4.3550865933373295 0 0 0
144 48 2 0 -4.536146109582292 2.490480321847266 -4.3719521670239745 0 0 0
329 109 4 0 -4.979603052466079 3.087038897599088 -4.154901083387433 1 -1 1
327 109 2 0 -5.400396024466443 3.353002366844714 -4.101612072439927 1 -1 1
128 42 4 0 -1.3734444658334832 3.809859722828898 -1.4150292110222498 0 -1 0
262 87 4 0 -1.2275709632464424 4.087961764086191 -1.6233945024191325 0 -1 0
412 137 4 0 -5.367363219546982 5.13930758468305 -3.6921298973355685 2 -1 1
324 108 2 0 -1.7252620193756691 1.6760475252566585 -3.084679380107476 0 -1 0
325 108 4 0 -1.7489216026425527 1.3719041688643003 -3.433198030936141 0 -1 0
375 125 2 0 -1.9556099302744598 2.084750256359513 -2.0320121546404155 0 -1 0
376 125 4 0 -1.742602232100468 2.1723642290518184 -2.3924241568755336 0 -1 0
326 108 4 0 -1.6916007678038627 1.9758970984475748 -2.7357195975621735 0 -1 0
433 144 4 0 -4.631865486558796 5.362560737212313 -1.9333396316825295 1 0 1
283 94 4 0 -4.9419607225849544 5.124306624996951 -1.947185930209473 1 -2 1
282 94 2 0 -5.372379060372067 4.975244662039356 -2.0025355503646076 1 -2 1
109 36 4 0 -0.002361341868066944 5.108658699106182 -3.306877201622354 0 -1 1
425 141 4 0 -0.3251161290135584 4.963631381084512 -3.087657769188035 0 -1 1
263 87 4 0 -0.7834052279230951 4.807948585768937 -2.0150472457361914 0 -1 0
423 141 2 0 -0.4752612877311486 5.013228688453227 -2.6626834031398023 0 -1 1
424 141 4 0 -0.6225230595227246 5.0730718107587105 -2.25741734131312 0 -1 1
261 87 2 0 -0.9920291462081222 4.471090968880713 -1.8290683096099654 0 -1 0
67 22 4 0 -2.3701545442771033 1.9365361054101125 -1.3069164117265581 0 -1 1
118 39 4 0 -3.896818936070169 3.413501710803209 -1.1934390835200768 0 0 0
242 80 4 0 -4.02429469175188 3.525552371968515 -0.8397102052821942 1 -1 0
117 39 2 0 -3.656695477440804 3.776610640510013 -1.3478928393839273 0 0 0
377 125 4 0 -2.1850148613699987 1.978090068205174 -1.6480277744979592 0 -1 0
4 1 3 0 -2.3434641614082277 3.460925097227509 -0.2393171622706511 0 -1 0
66 22 2 0 -2.305928823674078 2.1642843052625937 -0.9245171940755607 0 -1 1
277 92 4 0 -2.571439159449665 3.7446566904908702 -0.4260693236037999 0 -1 0
68 22 4 0 -2.240647191371802 2.396776454571087 -0.5376099815441988 0 -1 1
2 1 3 0 -2.1996303885885506 2.7397678494945765 -0.319494460985867 0 -1 0
1 1 1 0 -2.012743347443626 3.1460150431522984 -0.23751230460036393 0 -1 0
276 92 2 0 -2.9666534463621983 3.668237454274446 -0.2208878819982446 0 -1 0
3 1 3 0 -1.717041603729191 3.232700547158267 -0.5612254151446904 0 -1 0
127 42 4 0 -1.357391982840734 3.246463770774741 -0.7444932692513456 0 -1 0
126 42 2 0 -1.3682719453123042 3.5341570677313197 -1.0896793353483123 0 -1 0
240 80 2 0 -4.252234386952727 3.356135463075421 -0.47747639252487517 1 -1 0
241 80 4 0 -4.4789017044271615 3.194746406821194 -0.10937613783365728 1 -1 0
21 7 2 0 -2.5268353692721783 5.29303152072901 -0.7702806116028926 0 -1 -1
119 39 4 0 -3.4183070545142296 4.150270888571314 -1.4939669104669124 0 0 0
450 150 2 0 -2.9379404950248578 4.646448629755718 -1.5824705930116212 0 -1 1
23 7 4 0 -2.701298702941195 4.974914547764564 -1.0223324681012163 0 -1 -1
451 150 4 0 -3.2394403926086444 4.334958882798054 -1.7882346481369793 0 -1 1
452 150 4 0 -2.6761661163702244 4.91250822968572 -1.3978910156919653 0 -1 1
421 140 4 0 -5.210019515782394 0.050448585426048506 -4.188523698831549 1 -1 1
278 92 4 0 -3.3483767140983867 3.5914260326553644 -0.028858869830082623 0 -1 0
409 136 4 0 -3.188065652025911 1.2864913737061063 -5.227563158214625 1 0 0
27 9 2 0 -0.37193101325036604 1.70349205560438 -5.507087950290754 0 -1 1
131 43 4 0 -0.9519020082422588 5.224069686735187 3.7426740708077775 0 0 0
248 82 4 0 -1.4626911587136548 3.2378702522487375 0.4016362758412361 0 -1 0
208 69 4 0 -1.7402354674817722 3.3311719961531603 1.6611721762027034 0 0 0
247 82 4 0 -1.6978833167920193 3.2730311660221805 1.2405940504237023 0 -1 0
246 82 2 0 -1.5792181253880049 3.2519465150593554 0.8226223125956386 0 -1 0
5 1 3 0 -1.7939624800294527 3.14597288663642 0.17300332627606 0 -1 0
54 18 2 0 -4.633186418781272 4.790774449834874 0.775518277012676 0 -2 1
55 18 4 0 -4.17462183377501 4.65069511692173 0.7776443936369248 0 -2 1
56 18 4 0 -5.095046068679376 4.925938696578903 0.7660739789309703 0 -2 1
142 47 4 0 -3.9077776009841423 4.689641414971482 0.490590350826454 0 0 1
141 47 2 0 -3.7155716974322317 4.334922502557817 0.27202097545838866 0 0 1
143 47 4 0 -3.5199982673795325 3.9673570036358465 0.04756516896410844 0 0 1
209 69 4 0 -1.4282300290192522 2.8526724967498693 2.350195995226894 0 0 0
139 46 4 0 -1.2564648116115227 2.89917636613194 2.714613331378462 1 -1 0
140 46 4 0 -1.2853512254801613 2.9466209869570523 3.6224641976116887 1 -1 0
207 69 2 0 -1.5707372539768127 3.0831033130347785 2.025991644462143 0 0 0
138 46 2 0 -1.2708730975363662 2.919337184296611 3.1680125261625167 1 -1 0
129 43 2 0 -1.051652836014168 5.242697495147242 4.181588993365505 0 0 0
113 37 4 0 -0.9898315678756999 5.205487696488531 3.347885774717935 -1 -1 1
130 43 4 0 -1.1445161200230047 5.258371208460063 4.610922691766335 0 0 0
112 37 4 0 -0.11305965651514895 5.2146455065605615 3.091113416857735 -1 -1 1
111 37 2 0 -0.5507263355030485 5.207873378039092 3.2176343919538506 -1 -1 1
315 105 2 0 -5.167119907696013 1.6089821365775945 4.732341450479445 1 -1 1
316 105 4 0 -5.063593430883979 1.2356972362763372 4.931207653841443 1 -1 1
298 99 4 0 -4.772287981585219 1.0379983405668651 5.121917175907814 1 -1 0
297 99 2 0 -4.636040342542314 0.8711744750527153 5.485788297726895 1 -1 0
351 117 2 0 -3.654905683511836 5.4235693622122545 5.000128805256473 0 -1 0
317 105 4 0 -5.272594660564197 2.008650254734066 4.526572210153251 1 -1 1
341 113 4 0 -5.437544513025225 2.291055545074398 4.30201932977852 1 -1 0
339 113 2 0 -5.250196452207489 2.6903269701040258 4.188981058630369 1 -1 0
340 113 4 0 -5.061503625129186 3.102237246358137 4.077414310347383 1 -1 0
13 4 4 0 -4.683371888019111 3.15051325911007 4.038226916304385 0 -2 -1
12 4 2 0 -4.24669545883285 3.229116457599304 4.047920239548361 0 -2 -1
77 25 4 0 -3.49819830518622 3.2469046635552137 4.339785907445198 0 0 1
14 4 4 0 -3.801016610847916 3.30463556828699 4.063896329185017 0 -2 -1
75 25 2 0 -3.1579110623035027 3.205109914793615 4.624136969264435 0 0 1
258 86 2 0 -2.1848190556930076 2.8768350059696646 5.017021622456836 1 -1 0
76 25 4 0 -2.810272499629059 3.155134585966406 4.91096773664204 0 0 1
260 86 4 0 -1.782642534652277 2.6935435028241534 4.870154222378176 1 -1 0
259 86 4 0 -2.546730666451227 3.0491437064996143 5.155025451797964 1 -1 0
28 9 4 0 -0.0054798205004064435 1.916885178405187 5.388373468214033 0 -1 0
445 148 4 0 -1.383631817231137 2.7932720588405737 4.773376977302967 1 0 1
353 117 4 0 -3.7526790291617904 5.492810879823026 5.444313471376379 0 -1 0
446 148 4 0 -1.0564257112438067 2.8888558999381915 3.9411634038518804 1 0 1
444 148 2 0 -1.226720440013565 2.839285956431155 4.353881966212685 1 0 1
352 117 4 0 -3.561736838619275 5.3496919432048085 4.553814921298333 0 -1 0
53 17 4 0 -2.5048868444888166 5.253239497050811 3.9614743033313897 0 -1 -1
51 17 2 0 -2.8429297051875344 5.282279015621581 4.2337544388280195 0 -1 -1
52 17 4 0 -3.166298775397337 5.317719120831397 4.51409566318979 0 -1 -1
166 55 4 0 -5.250568403390004 5.297513129905402 0.73227902272125 0 -1 0
110 36 4 0 0.26594476572802583 -5.22234228773119 -3.7976589211681437 0 0 1
106 35 4 0 2.2747487631199754 -3.9505559820640186 -5.025433654390204 -1 0 0
105 35 2 0 2.1949622361202628 -4.396014859795128 -5.043921080415004 -1 0 0
107 35 4 0 2.101913601576179 -4.859733108494342 -5.075043265999318 -1 0 0
436 145 4 0 2.072431382109202 -5.244491610082033 -4.97692065629926 0 1 1
345 115 2 0 4.9150793382816325 -5.341637205935661 -5.018485611359863 0 0 1
346 115 4 0 4.661297557571486 -5.015661934321391 -5.244478343303584 0 0 1
58 19 4 0 4.529507709374734 -1.802854535412369 -0.5579611252906931 -1 0 1
57 19 2 0 4.6670584128411825 -1.5448224811419407 -0.9177884373392496 -1 0 1
187 62 4 0 2.004947119506517 -3.6585354376140224 -4.939444998136439 0 1 0
186 62 2 0 1.9871765814693443 -3.240920804561026 -5.120635012417006 0 1 0
188 62 4 0 1.9704619432069232 -2.821565815823092 -5.304340363285714 0 1 0
416 138 4 0 2.039241964451425 -2.432782586637392 -5.302213266378167 0 1 0
414 138 2 0 2.3323729712389163 -2.176963055572901 -5.136529734686839 0 1 0
415 138 4 0 2.6378806631848857 -1.8976070255939232 -4.963169098390361 0 1 0
359 119 4 0 2.9378152982413934 -1.8210501236457106 -4.717865691238354 0 0 0
245 81 4 0 2.0204031714823367 -0.5660161326167225 -4.47391556865494 0 -1 0
243 81 2 0 1.910892407534785 -0.30245862353183384 -4.105679569458294 0 -1 0
405 135 2 0 2.1998446372177103 -1.065433532100603 -5.003447089843984 0 0 1
406 135 4 0 2.071333621704918 -0.9523532481488772 -4.561634784706604 0 0 1
357 119 2 0 3.2193903966016353 -1.561967734869674 -4.500993364637327 0 0 0
358 119 4 0 3.489816490170015 -1.300609062115135 -4.285701890427024 0 0 0
275 91 4 0 3.8826872516795596 -1.2550924641004724 -4.3613990408341 -1 0 1
273 91 2 0 4.296316244215441 -1.3127193161351498 -4.285516985008281 -1 0 1
274 91 4 0 4.754851991098186 -1.3727235009283005 -4.2164685983614 -1 0 1
163 54 4 0 3.4671353782737433 -3.954396644122647 -1.9783167220206803 -1 1 0
162 54 2 0 3.729351684550177 -4.2958496853779415 -2.0560051160147053 -1 1 0
164 54 4 0 3.9856394897327694 -4.633114447290721 -2.1226859163120535 -1 1 0
136 45 4 0 4.188640131577486 -4.900361068554467 -1.8998523895639075 -1 0 0
65 21 4 0 4.954233266498098 -3.708649954068848 -3.5583332289057754 -1 -1 1
91 30 4 0 5.326491217158659 -3.8522485282899583 -3.5683478819519205 0 0 1
26 8 4 0 5.353658848719319 -3.416813119733607 -2.5439936564962156 -1 0 0
63 21 2 0 4.72253826225105 -3.5564419723337686 -3.1749275156023846 -1 -1 1
64 21 4 0 4.508898278691979 -3.3965151979369113 -2.7865554663646104 -1 -1 1
431 143 4 0 4.640835753209924 -2.9834180135174333 -2.682568416381137 -1 0 1
429 143 2 0 4.743751680927424 -2.5393151442619826 -2.73823651028253 -1 0 1
449 149 4 0 4.681742890004991 -3.3081485742537704 -2.441186859257056 0 1 0
447 149 2 0 4.607844304428672 -3.4499387588058363 -2.037801574920224 0 1 0
430 143 4 0 4.856925801902095 -2.0807223935049644 -2.780244099222834 -1 0 1
344 114 4 0 4.817226804299652 -1.8817475179104666 -2.428815456492307 -1 -1 1
237 79 2 0 3.8228276160422343 -1.9352737161921012 -0.1374645992497241 0 0 1
244 81 4 0 1.7975994589626367 -0.04105064328145997 -3.7585602089143486 0 -1 0
342 114 2 0 4.822334828743292 -1.6405274407041848 -2.0072983048239963 -1 -1 1
391 130 4 0 0.9921436069696647 -3.961434974046653 -0.3256064676778108 0 0 0
390 130 2 0 1.1966238601464476 -3.5804222611810195 -0.4612825317795287 0 0 0
135 45 2 0 4.444872889255412 -4.924684100898666 -1.55891354735299 -1 0 0
19 6 4 0 4.96259563948845 -4.818354951666519 -0.9490284128335552 -1 -1 0
137 45 4 0 4.705860396020081 -4.959455697048683 -1.1983514943822697 -1 0 0
18 6 2 0 5.253170630914398 -4.896697182627128 -0.5942209841243089 -1 -1 0
224 74 4 0 4.436015715683012 -3.9484144518514808 -1.3785146112255533 0 0 1
222 74 2 0 4.428483825588792 -3.883351270728636 -0.9312847655103944 0 0 1
20 6 4 0 5.525743179033768 -4.9726446981945225 -0.2546570352783459 -1 -1 0
392 130 4 0 1.4066323049996534 -3.180111739722364 -0.6109829222453063 0 0 0
382 127 4 0 1.7842772392722013 -3.2619086676699465 -0.700346647968197 0 -1 1
115 38 4 0 2.443549926303751 -2.3003235484369293 -0.39114021246560743 -1 0 1
381 127 2 0 2.126730832381835 -2.9743816521300435 -0.6104671515990934 0 -1 1
383 127 4 0 2.4696649693347177 -2.6966535025198763 -0.5279588304993029 0 -1 1
114 38 2 0 2.754751723505515 -2.1807145577062474 -0.12135566582098466 -1 0 1
448 149 4 0 4.544203071634518 -3.6113128120671267 -1.601315507233131 0 1 0
223 74 4 0 4.417733747033244 -3.8057382974054077 -0.4716589423057219 0 0 1
181 60 4 0 4.636621546711784 -3.6920628389511583 -0.18223476753649195 0 0 0
343 114 4 0 4.844937685485929 -1.4358784921638512 -1.6293429480749906 -1 -1 1
238 79 4 0 4.171014783421948 -1.7401714381082127 -0.35262927881288236 0 0 1
59 19 4 0 4.801999288197346 -1.2859058014146179 -1.2538587262661036 -1 0 1
175 58 4 0 1.0362956710486626 -4.2835831782021145 -0.08704310877491787 0 0 -1
407 135 4 0 2.306279105510132 -1.1630626789867746 -5.425511553403176 0 0 1
380 126 4 0 1.383197951080053 -4.524209274979936 1.0915060225515427 0 0 0
176 58 4 0 1.107468789729504 -4.32048609535414 0.8737002312619889 0 0 -1
174 58 2 0 1.0729844065508714 -4.297512263671466 0.41065134989180835 0 0 -1
442 147 4 0 2.032005276435083 -0.0546641306210656 4.764206447207993 0 0 0
378 126 2 0 1.5318502817812092 -4.700233292518576 1.484019979364371 0 0 0
202 67 4 0 0.03272951954974915 -1.7371206955695273 3.7519575658129054 0 0 0
418 139 4 0 3.3530058903586917 -5.487319376986326 0.9712470874209113 0 1 0
300 100 2 0 4.027103257189493 -5.409207243640612 1.0382179865398886 0 0 0
302 100 4 0 4.370547181084774 -5.1568209849688325 0.9089482558093761 0 0 0
293 97 4 0 4.725659437142607 -5.22875091327949 1.0751342596773064 0 0 0
291 97 2 0 5.100865772652679 -5.272573700374319 1.3698383237089942 0 0 0
304 101 4 0 3.7789589271214474 -1.014808306625604 4.211650764432932 0 -1 0
182 60 4 0 4.213337857544842 -3.28569505832775 0.5509173458229792 0 0 0
205 68 4 0 4.364322138878038 -3.2881893676746783 0.9250635151795487 -1 0 0
204 68 2 0 4.59140388328875 -3.3558819947982346 1.3068922104889837 -1 0 0
206 68 4 0 4.81985489254909 -3.4241715243239472 1.685872467043425 -1 0 0
180 60 2 0 4.42500005783642 -3.4954147204465262 0.18634881207347603 0 0 0
379 126 4 0 1.678197612723354 -4.879326583324555 1.8873784064921633 0 0 0
80 26 4 0 1.7620445741600683 -4.680556959492032 3.346714743740846 0 0 -1
160 53 4 0 1.9529477558324282 -4.505969198672113 3.058044826289429 -1 0 0
159 53 2 0 1.931676594510072 -4.614340256638054 2.6221820322421032 -1 0 0
161 53 4 0 1.9094354266054119 -4.718629391829379 2.18800156915242 -1 0 0
384 128 2 0 4.235775663664186 -3.1314364770393954 3.416946797074395 0 0 0
386 128 4 0 4.463525252181987 -2.918842738781431 3.0707917861585887 0 0 0
124 41 4 0 4.372061466499375 -3.141743385118897 2.7664372314621435 0 0 0
125 41 4 0 4.900379094311151 -3.213562269108132 2.0276192334031586 0 0 0
123 41 2 0 4.636000125880493 -3.1784274353299615 2.404618710711786 0 0 0
292 97 4 0 5.452926692452984 -5.305043331412691 1.6404398537266376 0 0 0
78 26 2 0 1.615307876434155 -4.810847608656661 3.7326086726081975 0 0 -1
79 26 4 0 1.4734557217857907 -4.9386717719363995 4.117475943567939 0 0 -1
256 85 4 0 1.1353464553586265 -4.885555611587185 4.267789209521643 0 1 0
255 85 2 0 0.74119047703662 -4.975550870098655 4.461357083607163 0 1 0
257 85 4 0 0.3382097333475666 -5.0633616463168964 4.648989576505743 0 1 0
37 12 4 0 0.2702858786000479 -5.289242138005813 4.967628837797894 0 0 0
251 83 4 0 4.348813973841856 -4.149751933119984 4.583868581085848 0 0 0
362 120 4 0 4.338284451925867 -4.556947789665244 4.6663423495550695 1 0 0
360 120 2 0 4.407847057694302 -4.761314538083014 5.0635848724208445 1 0 0
249 83 2 0 4.293184796295791 -3.7777832690745954 4.358009196558211 0 0 0
35 11 4 0 5.504140115063346 -3.1920553372555887 4.112204641825924 -1 0 -1
42 14 2 0 5.1369055980846925 -3.0089359022922215 4.798777852925804 -1 0 -1
385 128 4 0 4.021343189358681 -3.3537676140011814 3.769074688557636 0 0 0
250 83 4 0 4.227076024375494 -3.404200888669521 4.121133575643326 0 0 0
396 132 2 0 4.297473233145628 -2.3153892959146782 5.003404554382879 0 0 0
398 132 4 0 4.159592029534243 -1.9027644554047822 4.951537901609771 0 0 0
43 14 4 0 4.8567451713089165 -2.7860441663986704 5.088739821285145 -1 0 -1
397 132 4 0 4.445673301959487 -2.7345839590276917 5.069163440173771 0 0 0
305 101 4 0 3.859441549834763 -1.7174740926767313 4.791727896883147 0 -1 0
44 14 4 0 5.420761778711897 -3.241285033212108 4.50062622878501 -1 0 -1
89 29 4 0 1.488477409631441 -0.21072190199167323 4.562384487691288 1 0 1
226 75 4 0 0.9787324847124065 -1.319077168074685 4.450517155062784 0 0 0
225 75 2 0 0.6110211957218632 -1.4151154674432507 4.237527620465124 0 0 0
88 29 4 0 1.1548399687060664 -1.0559978084181703 4.65193704758727 1 0 1
87 29 2 0 1.3154215242208074 -0.6398364260486578 4.612827701385146 1 0 1
227 75 4 0 0.22837411100580715 -1.5090848605438845 4.01649651146425 0 0 0
151 50 4 0 1.181022598504677 -0.01355066737806054 4.357946888242737 1 0 0
70 23 4 0 2.282701684199069 -0.34584940927903723 4.7432172840885976 -1 0 1
69 23 2 0 2.397345917167283 -0.6787199397417035 5.044546114345225 -1 0 1
303 101 2 0 3.8213869939303615 -1.36051652442132 4.498969041358356 0 -1 0
196 65 4 0 3.556942004746146 -0.7415669900236248 4.4114646229687136 0 0 1
417 139 2 0 2.9901450611141325 -5.510676529811601 0.7303317898087379 0 1 0
71 23 4 0 2.5100779892895795 -0.9915361263040698 5.3326887098107845 -1 0 1
195 65 2 0 3.42261113148667 -0.31044027771960403 4.312093188422344 0 0 1
361 120 4 0 4.473402521309128 -4.958103511739729 5.453271674834673 1 0 0
116 38 4 0 3.092250361244706 -2.064811248501367 0.17026346629320208 -1 0 1
239 79 4 0 3.464427620438856 -2.141939320334177 0.08401754848812223 0 0 1
45 15 2 0 3.32470597611137 3.5699596728895004 -4.332679317518916 -1 -1 1
47 15 4 0 3.690232304470771 3.3267533344108595 -4.366640866810836 -1 -1 1
178 59 4 0 4.638084068817012 2.5868890788036545 -3.365067337726282 -1 0 1
177 59 2 0 4.568774555524845 2.157425870450725 -3.380488023282928 -1 0 1
318 106 2 0 4.1976121537924405 3.0273932023959915 -3.8560729754470926 0 -1 1
320 106 4 0 4.5258869343740145 2.7774749209775975 -3.707359946300203 0 -1 1
319 106 4 0 3.878577825657695 3.276588337990247 -4.005785623586912 0 -1 1
199 66 4 0 2.251435111446551 4.630917748613223 -4.948488065286514 0 0 1
198 66 2 0 2.444435351877814 4.32220656275623 -4.639901575347455 0 0 1
200 66 4 0 2.6153149257240824 4.038222055835832 -4.358378250559227 0 0 1
46 15 4 0 2.950883268950066 3.812711039800803 -4.303713862467619 -1 -1 1
437 145 4 0 1.9511773469678753 4.892186967067538 -5.009539255139995 0 0 1
435 145 2 0 2.0097581237313147 5.3248197642521236 -4.993071964219068 0 0 1
347 115 4 0 5.176949265464636 5.389752239025108 -4.797695753878998 0 -1 1
411 137 2 0 5.4352127926789215 5.190208898307211 -4.058070640137189 1 -1 1
72 24 2 0 1.8288630236715773 0.5989761110289227 -3.424259190300909 -1 0 1
403 134 4 0 3.4796159861143483 1.2662514035467136 -3.8934240001849445 -1 0 1
73 24 4 0 2.048440031914358 0.9707178306060481 -3.32800004244311 -1 0 1
333 111 2 0 2.8154260636409263 1.0940821818954687 -3.437711067997127 0 0 1