LAMMPS data file via write_data, version 4 Feb 2025, timestep = 30000, units = lj

4800 atoms
4 atom types
3300 bonds
1 bond types
2250 angles
2 angle types

-11.930663 11.930663 xlo xhi
-11.930663 11.930663 ylo yhi
-11.930663 11.930663 zlo zhi
7.105427357601002e-15 0 0 xy xz yz

Masses

1 1
2 1
3 0.1
4 0.1

Bond Coeffs # harmonic/omp

1 100 0.45

Angle Coeffs # harmonic/omp

1 100 180
2 100 109.471

Atoms # full

1738 480 2 0 -0.33070412873647825 -11.213061260410779 -11.694502711500704 4 1 0
1739 480 4 0 -0.16681250309489926 -11.646550713621261 -11.691593652232035 4 1 0
1740 480 4 0 -0.4905818271102955 -10.796277564739501 -11.689686580454069 4 1 0
2073 591 4 0 -0.5584387093950909 -10.409951426410883 -11.690712030516606 3 1 1
2071 591 2 0 -0.2051139080509028 -10.121296021475533 -11.693322363040082 3 1 1
3150 950 4 0 -0.234298035488834 -7.681267105487128 -11.903128784987976 1 0 0
1007 236 4 0 -2.5585246316595587 -7.16751175270157 -11.866227995392983 1 0 0
1006 236 2 0 -2.1522620015309517 -7.057808602980438 -11.777658215577 1 0 0
1008 236 4 0 -1.7270355813583134 -6.949549901314844 -11.674357243087647 1 0 0
1245 315 4 0 -1.3563331226839157 -6.833284292225197 -11.63860821412467 1 0 0
1243 315 2 0 -0.9301664496890858 -6.80010838704224 -11.501182884661212 1 0 0
1244 315 4 0 -0.5043693092518282 -6.766682827405206 -11.370510861832567 1 0 0
2933 878 4 0 -0.1522579023561228 -6.87427263333045 -11.298405563122124 1 0 0
4175 1292 4 0 -5.430187774495091 -5.595518590766367 -11.12647513023267 5 1 0
4174 1292 2 0 -5.161232973121869 -5.465125090694171 -11.446452656010527 5 1 0
4176 1292 4 0 -4.895079884347557 -5.324371083203737 -11.768678023339302 5 1 0
3602 1101 4 0 -4.766585675902095 -4.976862759930238 -11.859511395318535 2 0 1
3601 1101 2 0 -4.401248337931498 -4.671768272174349 -11.890001384750157 2 0 1
3756 1152 4 0 -3.234950906858547 -5.478875324702552 -11.134647259981927 2 0 1
1527 409 4 0 -2.9740672561738357 -5.338712749091762 -11.395837363460728 2 0 1
1525 409 2 0 -2.7922879678029418 -5.1648143540419875 -11.764693061941681 2 0 1
3603 1101 4 0 -4.038822535669475 -4.373083838876397 -11.923607735631682 2 0 1
1753 485 2 0 -10.299866311473595 -1.1632305625057313 -11.682009915951703 3 0 0
1755 485 4 0 -10.627504794082515 -1.3673039393559598 -11.451574981779661 3 0 0
2196 632 4 0 -10.824878856602536 -1.3795771766206855 -11.101194009216101 3 0 0
1754 485 4 0 -9.966377776220446 -0.9650162854509361 -11.907617150383128 3 0 0
1608 436 4 0 -0.17166909792690888 -0.5883697073766712 -11.152927210047112 3 0 1
3945 1215 4 0 -0.13311774787329256 -0.653156205511161 -11.569361065805168 3 0 0
864 188 4 0 -11.901341616228551 -7.706038550754893 -10.229586011980096 1 0 0
3271 991 2 0 -4.803340750219452 -5.577594373944601 -10.31036107831989 2 0 1
3273 991 4 0 -5.2317109799255395 -5.623645587697696 -10.126180832075805 2 0 1
3272 991 4 0 -4.3834374939166825 -5.52085494095029 -10.48562897100683 2 0 1
508 102 3 0 -5.565198545935039 -5.3899328296450495 -10.107933067498472 2 0 1
3755 1152 4 0 -4.023163890147477 -5.47921033791304 -10.680961730420526 2 0 1
3754 1152 2 0 -3.633371269712203 -5.481301436944912 -10.90482915502492 2 0 1
915 205 4 0 -4.404655959745486 -4.3645387987368585 -10.148746424788865 2 0 0
3227 976 4 0 -4.007714263582112 -4.276641459742866 -10.249953203008637 2 0 0
3226 976 2 0 -3.5854935273290245 -4.115389274819224 -10.19272859583977 2 0 0
3228 976 4 0 -3.1922848993214306 -3.96991572153519 -10.132683580198028 2 0 0
2712 804 4 0 -11.622406671293534 -2.2811730815142575 -10.666746363838191 3 0 1
2710 804 2 0 -11.893868521227038 -2.1686407977111966 -10.305747821006793 3 0 1
2195 632 4 0 -11.501357550381723 -1.9216118154631392 -10.856099447249285 3 0 0
2194 632 2 0 -11.160743357547592 -1.6492747637727483 -10.98133226187789 3 0 0
862 188 2 0 -11.830644798156579 -7.924578559402706 -9.826179227181994 1 0 0
863 188 4 0 -11.752652725930885 -8.137278078074827 -9.426566833500493 1 0 0
4672 1458 2 0 -10.235896873289544 -6.921356343943289 -9.205135050460365 2 0 1
4674 1458 4 0 -9.832161997826361 -6.986258529920383 -9.350637188843605 2 0 1
4041 1247 4 0 -9.581033975510538 -6.770252029725614 -9.574183945465977 2 0 0
4039 1247 2 0 -9.165039843581361 -6.656870987390492 -9.536412640448336 2 0 0
4040 1247 4 0 -8.767993220287185 -6.536561563214793 -9.498761228527542 2 0 0
2091 597 4 0 -8.404426872348406 -6.664207977222315 -9.630558684713094 2 0 0
2089 597 2 0 -7.980592007372447 -6.592381456502877 -9.762382242402092 2 0 0
2090 597 4 0 -7.551275843176178 -6.51994042970657 -9.894384598596513 2 0 0
3397 1033 2 0 -8.393917071381367 -5.3979665833187775 -9.181494290122993 2 0 1
3399 1033 4 0 -7.96470523388842 -5.340729630453258 -9.362371260819916 2 0 1
2778 826 4 0 -7.571854981333539 -5.331573404219848 -9.432936443410387 2 0 0
2776 826 2 0 -7.102273520550348 -5.28079068204151 -9.566731710369723 2 0 0
2777 826 4 0 -6.657677287916179 -5.238161247077336 -9.67879408177494 2 0 0
509 102 3 0 -6.182870700738223 -5.156069014932129 -9.80644509286102 2 0 1
506 102 1 0 -5.75466417436211 -5.11255683821957 -9.8003893796481 2 0 1
507 102 3 0 -5.587628744310976 -5.215652897218503 -9.355189864911972 2 0 1
510 102 3 0 -5.650619763839007 -4.688407318782948 -9.899015087431028 2 0 1
914 205 4 0 -5.251349895140557 -4.612488944421004 -9.911207061335377 2 0 0
913 205 2 0 -4.814882955173132 -4.482799999694204 -10.034324180562118 2 0 0
2427 709 4 0 -11.560057973765316 -1.0933965105819574 -9.285207579487661 3 0 1
327 66 3 0 -11.924304496717628 -1.127952445490557 -9.432837625420676 3 0 1
1940 547 4 0 -8.276674793998001 -0.1410021424076966 -9.94186575619633 3 0 0
1223 308 4 0 -7.085268275337228 -11.685572072956083 -8.453692454301809 1 0 0
2600 767 4 0 -6.771732193855247 -11.68506714005551 -8.717563556681556 4 1 1
2997 899 4 0 -11.830266216697705 -8.018129928610787 -8.293831599532103 2 0 0
242 49 3 0 -8.919768901862295 -7.704822306173492 -8.284755405740514 1 0 0
1728 476 4 0 -8.716429853369654 -7.720234162453108 -8.629141005101532 1 0 0
1726 476 2 0 -8.346900140685912 -7.7669623433023505 -8.86807013018779 1 0 0
1727 476 4 0 -7.9631160907653555 -7.828025463381596 -9.13025926143663 1 0 0
1352 351 4 0 -7.637619033323963 -7.633077404732639 -8.983478937619612 1 0 1
1351 351 2 0 -7.252345873553031 -7.646845346921986 -8.714070991827949 1 0 1
1353 351 4 0 -6.891952618854181 -7.662477650113501 -8.452986956655872 1 0 1
80 16 3 0 -6.527197710299422 -7.756934631714384 -8.35875120416095 1 0 0
470 94 3 0 -10.869545418229558 -6.492093820196997 -9.08135042870961 2 0 0
4673 1458 4 0 -10.662549723174298 -6.8473547770059815 -9.049707218604555 2 0 1
922 208 2 0 -5.527752237394923 -6.909379553906526 -8.317982964835938 1 0 0
924 208 4 0 -5.980618860773195 -7.043526497174903 -8.285849556551762 1 0 0
923 208 4 0 -5.0755131516296235 -6.778122140814475 -8.360380488421457 1 0 0
2016 572 4 0 -4.780843348972161 -6.590482384871831 -8.535690705682343 4 1 0
2014 572 2 0 -4.327427804460374 -6.517977128026972 -8.475332989699998 4 1 0
2015 572 4 0 -3.8565850416607184 -6.452443733963067 -8.42881886180445 4 1 0
4340 1347 4 0 -3.4771592389910566 -6.510646576924652 -8.565404704662273 2 0 1
468 94 3 0 -11.352632528693984 -5.931244190145555 -8.770277163832382 2 0 0
2976 892 4 0 -11.741693743692904 -6.090207395310651 -8.750417131470442 2 0 0
469 94 3 0 -10.567011626676356 -5.819983684982491 -8.773365720223461 2 0 0
466 94 1 0 -10.924667131769182 -6.158570983312732 -8.734470086489791 2 0 0
3039 913 4 0 -10.174827598029092 -5.742423302633917 -8.8886759060475 2 0 0
467 94 3 0 -10.892847822414371 -6.370419859114197 -8.317444732757803 2 0 0
3037 913 2 0 -9.715483005546776 -5.612370951032219 -8.927758675303709 2 0 0
4339 1347 2 0 -3.121662079215257 -6.29733201238106 -8.371925125616055 2 0 1
3038 913 4 0 -9.269750648691863 -5.4884650330142115 -8.969821923783396 2 0 0
1031 244 4 0 -9.352601568010307 -4.627270464860565 -8.31165064238288 2 0 0
3398 1033 4 0 -8.83214131590527 -5.4529742744225365 -9.000566920859644 2 0 1
42 9 3 0 -8.99598302481705 -4.742026663345323 -8.493813897635077 2 0 0
3383 1028 4 0 -5.530054480014013 -4.896508725899436 -9.120021880548128 2 0 1
3382 1028 2 0 -5.262657696388656 -5.028656669282563 -8.805858353432956 2 0 1
3384 1028 4 0 -4.9906829117447895 -5.1734490144967955 -8.461684925275078 2 0 1
414 83 3 0 -4.673373674884352 -5.023722799137246 -8.30068411625291 2 0 0
1776 492 4 0 -11.585317424193674 -3.97055697950658 -8.899468099597062 2 0 0
1166 289 4 0 -11.185389547064565 -4.0134154706017595 -8.852861324407579 2 0 0
1032 244 4 0 -10.14447059568589 -4.440413090948019 -8.715848078937007 2 0 0
1165 289 2 0 -10.861026285848762 -4.287555982609964 -8.729503258120738 2 0 0
1167 289 4 0 -10.514324428452753 -4.5576334695932745 -8.596136088964068 2 0 0
1030 244 2 0 -9.740457806238835 -4.538088530752418 -8.513889478992915 2 0 0
43 9 3 0 -8.38975950892067 -4.45532488814412 -8.826598494440498 2 0 0
44 9 3 0 -8.792660616901522 -4.0249950246180095 -8.41853842725939 2 0 0
41 9 1 0 -8.63688402065204 -4.440003262716992 -8.464349711438906 2 0 0
454 91 3 0 -8.748088725619922 -1.8448443967123165 -8.514571808350526 3 0 0
455 91 3 0 -8.71467807732039 -2.57043570006652 -8.473502991649598 3 0 0
2425 709 2 0 -11.14325282451124 -1.021187288559977 -9.13110698382958 3 0 1
4062 1254 4 0 -10.373679147455649 -1.1046100722465635 -8.904526577933105 3 0 0
2426 709 4 0 -10.726644153565978 -0.9569956386134688 -8.980244516006529 3 0 1
4061 1254 4 0 -9.483540299976278 -1.146213731107391 -8.619895624542082 3 0 0
4060 1254 2 0 -9.937566083207255 -1.128212114623354 -8.766839516904856 3 0 0
3908 1203 4 0 -9.125294567787185 -0.962441307928513 -8.677813552224437 6 1 0
3907 1203 2 0 -8.670816063050658 -1.0179952890604298 -8.528534287527751 6 1 0
3909 1203 4 0 -8.236714758667045 -1.0583492293023475 -8.388692783774463 6 1 0
3179 960 4 0 -7.85916505109047 -1.1571885752077211 -8.277012477706771 3 0 0
1222 308 2 0 -7.25981087141009 -11.318499103753858 -8.175764146497121 1 0 0
1224 308 4 0 -7.430929190748458 -10.978200671743389 -7.911888463943602 1 0 0
1152 284 4 0 -7.1922493625679484 -10.685285798724466 -7.760583846158941 1 0 0
1150 284 2 0 -6.834319428998476 -10.409485709761132 -7.613790754139967 1 0 0
1151 284 4 0 -6.497347470519821 -10.146905218611996 -7.462405812180482 1 0 0
4368 1356 4 0 -6.124893286082562 -9.968893776822247 -7.437336662258332 4 1 1
4366 1356 2 0 -5.670037151317871 -9.924843654593225 -7.392992073691522 4 1 1
4367 1356 4 0 -5.234475729389568 -9.883573609079223 -7.352309885995352 4 1 1
889 197 2 0 -11.330899545436885 -8.602760353655617 -7.899050171871003 1 0 0
891 197 4 0 -11.752243236173696 -8.64516844335696 -7.96002920783304 1 0 0
890 197 4 0 -10.86859371486347 -8.558882807749828 -7.818367368784105 1 0 0
995 232 4 0 -10.579416810964272 -8.351869878168634 -7.635904926098853 1 0 0
994 232 2 0 -10.10335530100729 -8.271147666953372 -7.652710147677726 1 0 0
1056 252 4 0 -1.9235019869273735 -8.402344136207082 -7.560787286019036 1 0 0
1054 252 2 0 -2.39156203316281 -8.448496469326884 -7.423768792173335 1 0 0
996 232 4 0 -9.648056646224914 -8.188320479190907 -7.669156589393378 1 0 0
243 49 3 0 -9.267904609386871 -8.084732655820085 -7.787548842158449 1 0 0
245 49 3 0 -9.061387711249282 -7.392818701304563 -7.62987885545882 1 0 0
241 49 1 0 -8.951946220411632 -7.785869986618308 -7.856519431311623 1 0 0
244 49 3 0 -8.560016887349335 -7.94691110308231 -7.693709244352506 1 0 0
1148 283 4 0 -8.141852440848332 -7.78718123041465 -7.645962505222756 1 0 0
1147 283 2 0 -7.6672624242682215 -7.729998856494018 -7.6466823574827805 1 0 0
1149 283 4 0 -7.181168571501185 -7.670190175946362 -7.638704358871569 1 0 0
76 16 1 0 -6.434525749216601 -7.549992480973851 -7.9474542815351334 1 0 0
77 16 3 0 -6.804218065765111 -7.528556749725692 -7.7009360071028805 1 0 0
79 16 3 0 -6.1080827118796135 -7.789235844910101 -7.734831484191251 1 0 0
756 152 4 0 -5.710907569864916 -7.817317278327531 -7.694245533341922 1 0 0
754 152 2 0 -5.2906563590575555 -7.725399513119234 -7.526037311144426 1 0 0
755 152 4 0 -4.88897279531568 -7.63547426537616 -7.373416525443035 1 0 0
1530 410 4 0 -4.496325599999423 -7.505013273960936 -7.353794382458947 1 0 1
3122 941 4 0 -1.527664845524976 -8.257844285178484 -7.586463511175755 1 0 0
3121 941 2 0 -1.0951419603514054 -8.140314039812097 -7.723041690576835 1 0 0
3123 941 4 0 -0.6549434739872737 -8.016066113099109 -7.854030275612768 1 0 0
2840 847 4 0 -0.2510288821127791 -8.077290887483933 -7.861660358557318 1 0 0
78 16 3 0 -6.290357453708328 -7.1334673729578775 -8.028390698103747 1 0 0
4341 1347 4 0 -2.790430738392139 -6.105936941111038 -8.18913563521641 2 0 1
2931 877 4 0 -6.155814552538516 -4.9806458465582075 -7.649234371166129 2 0 0
2929 877 2 0 -5.732982111132283 -4.78958831508713 -7.684391701571433 2 0 0
3341 1014 4 0 -6.381279771587385 -4.84486176242927 -7.3491032668156 2 0 1
2930 877 4 0 -5.3337187097583545 -4.614200568899846 -7.7194197252789 2 0 0
412 83 3 0 -4.926922775337716 -4.5929793081587915 -7.714766198317428 2 0 0
411 83 1 0 -4.569649940984628 -4.835138603140619 -7.863235653719382 2 0 0
413 83 3 0 -4.4921020516923775 -5.1859948736650905 -7.585433668327845 2 0 0
45 9 3 0 -8.386626940773638 -4.545654992680695 -8.099145278487057 2 0 0
415 83 3 0 -4.211507140207784 -4.574574946616197 -7.885814887546927 2 0 0
2101 601 2 0 -3.8411651965520637 -3.8139091715661166 -7.699383910245504 2 0 0
2102 601 4 0 -3.496857960125963 -4.007838328172747 -7.5597663394461865 2 0 0
3291 997 4 0 -3.14086670503014 -3.8693240470222037 -7.636318169277017 2 0 1
3289 997 2 0 -2.71321319600281 -3.931155395322312 -7.651703146407526 2 0 1
3290 997 4 0 -2.2650462315359032 -4.006989587477827 -7.671326590816325 2 0 1
900 200 4 0 -2.0940706080461062 -3.676592132410411 -7.7973920391807985 2 0 0
2951 884 4 0 -8.91732552651741 -3.1993203434216433 -7.52829906682152 3 0 0
1124 275 4 0 -8.664559687396869 -3.4114658823595683 -7.772138157791322 2 0 0
4167 1289 4 0 -7.4686636036925655 -2.9977148637749806 -7.946858849243677 3 0 0
1123 275 2 0 -8.241296444846144 -3.2931276625572448 -7.801172761989272 2 0 0
1125 275 4 0 -7.811343538228168 -3.1659018467829405 -7.832935870036697 2 0 0
2103 601 4 0 -4.215881489207436 -3.599762951901992 -7.838146934918377 2 0 0
899 200 4 0 -1.3646075546473142 -3.2110864303540936 -8.025810744255969 2 0 0
898 200 2 0 -1.723657817213331 -3.43525577528837 -7.913450023674136 2 0 0
1043 248 4 0 -10.555452420336357 -1.8805204334942864 -7.362234607619607 3 0 0
453 91 3 0 -9.192758969338085 -2.1914031843806523 -8.010578425253138 3 0 0
795 165 4 0 -9.488519521589653 -1.9525955544944136 -7.8715742871741385 3 0 0
451 91 1 0 -8.765919102553259 -2.1866312059953756 -8.234467711519253 3 0 0
452 91 3 0 -8.442117724933608 -2.1451149342715414 -7.935564257418612 3 0 0
1851 517 4 0 -8.03733807620365 -2.154967036099503 -7.815929865245202 3 0 0
1849 517 2 0 -7.8726083889098675 -1.8568500180699417 -7.480677586788344 3 0 0
4165 1289 2 0 -7.141599612665472 -2.6736291251470163 -7.992650281099877 3 0 0
4166 1289 4 0 -6.823542244710953 -2.3539056312987707 -8.025824067753307 3 0 0
4088 1263 4 0 -6.725269376690772 -2.127112253775529 -7.700493593596729 3 0 0
4087 1263 2 0 -6.291172707618411 -1.9790556734259663 -7.5607388407466205 3 0 0
794 165 4 0 -10.188097728474581 -1.6923830144832976 -7.375825116331905 3 0 0
793 165 2 0 -9.828267947381432 -1.8220550794217782 -7.62907645001218 3 0 0
3178 960 2 0 -7.49191274810416 -1.0061301928239743 -8.114679459505794 3 0 0
4089 1263 4 0 -5.88561900993537 -1.8317072634843132 -7.426199219313427 3 0 0
3204 968 4 0 -9.814899285050105 -0.13237356610407147 -7.407878023213511 4 0 0
2941 881 2 0 -9.23180906867797 -0.48741646561301266 -7.703411873159683 4 0 0
2943 881 4 0 -9.58387065573297 -0.45377672329489727 -7.400841519354257 4 0 0
984 228 4 0 -8.530937105892791 -0.4175706325817483 -7.82280962770395 3 0 0
2942 881 4 0 -8.901718464171678 -0.5077611078410271 -7.982671173525093 4 0 0
982 228 2 0 -8.148175593971901 -0.16241942029741452 -7.791733143811215 3 0 0
1073 258 4 0 -6.690467351135751 -0.9015904246951987 -7.863238111457565 3 0 0
3180 960 4 0 -7.0708250766727145 -0.8317384967659613 -7.9372941209647365 3 0 0
1072 258 2 0 -6.294879372140657 -0.8716437683370284 -7.6933706138680815 3 0 0
1074 258 4 0 -5.894794272553021 -0.8448987431454 -7.526661456708144 3 0 0
3086 929 4 0 -4.843945297176502 -11.616705691188333 -6.73517823588965 1 0 0
3615 1105 4 0 -5.196276458425205 -11.446662617626014 -6.738973582411095 1 0 0
3613 1105 2 0 -5.442393113410038 -11.097704760078294 -6.597245039697059 1 0 0
3087 929 4 0 -3.9304569125474504 -11.681757764298037 -6.746146220210558 1 0 0
3085 929 2 0 -4.384275694859131 -11.652979595999707 -6.738737245213979 1 0 0
2117 606 4 0 -3.5992172608752124 -11.890046731329237 -6.791999829460108 4 1 0
2116 606 2 0 -3.1719664891655626 -11.767082207056868 -6.726433203649357 4 1 0
2118 606 4 0 -2.726281929087712 -11.640138570024899 -6.663926144262127 4 1 0
3614 1105 4 0 -5.684395057845167 -10.756692152204202 -6.44385627819804 1 0 0
2753 818 4 0 -4.846503907827975 -9.777723058116475 -7.295265670224365 1 0 0
2752 818 2 0 -4.483868473525285 -9.505982290864097 -7.165821879674856 1 0 0
2754 818 4 0 -4.108061060395353 -9.225847878707603 -7.026441386984499 1 0 0
2792 831 4 0 -4.096817662363143 -8.338785593623976 -6.533851580865788 1 0 0
438 88 3 0 -3.7054489165702122 -9.157427612149105 -7.171026262821991 1 0 0
439 88 3 0 -3.8269378106937673 -8.53833910442421 -6.778765517397296 1 0 0
1055 252 4 0 -2.8262364301415683 -8.501259715675781 -7.313239372514406 1 0 0
436 88 1 0 -3.5077868015859774 -8.845189694274795 -6.925566130690506 1 0 0
437 88 3 0 -3.309780783966776 -9.018940645665927 -6.592770529735271 1 0 0
440 88 3 0 -3.2006216054536853 -8.629105598375965 -7.186525217213849 1 0 0
1528 410 2 0 -4.02399938365092 -7.511166215466947 -7.3229922056488 1 0 1
1529 410 4 0 -3.559620211750971 -7.522550703008379 -7.290280512342646 1 0 1
3000 900 4 0 -3.2234682883055576 -7.305141027187583 -7.20153938530632 2 0 0
2998 900 2 0 -2.8021999974012015 -7.098108022578521 -7.206406184027381 2 0 0
2999 900 4 0 -2.4104591938943436 -6.904968219467059 -7.220333315455444 2 0 0
2768 823 4 0 -2.1526917454231658 -7.01644271408387 -6.9476357377513835 2 0 0
2767 823 2 0 -1.698673287355998 -6.9311056757446 -6.981671721694634 2 0 0
2769 823 4 0 -1.2844688629786543 -6.845912410475922 -7.013993464150808 2 0 0
494 99 3 0 -0.4591259547050992 -7.313431073783879 -7.22896054785857 2 0 0
495 99 3 0 -0.9107273848141872 -6.815321484633525 -6.88063376457458 2 0 0
491 99 1 0 -0.4808136762552948 -6.906150273093038 -7.007468005593486 2 0 0
492 99 3 0 -0.2255216861458269 -6.924934857545961 -6.61443960133337 2 0 0
493 99 3 0 -0.3261535199271144 -6.577499434981234 -7.259527916363421 2 0 0
1736 479 4 0 -7.311511742328292 -5.057630949814143 -6.498559159436633 2 0 0
3340 1014 2 0 -6.669901008403188 -4.956330542239651 -7.013730389956612 2 0 1
3342 1014 4 0 -6.953433624160751 -5.062950408525583 -6.690947434029336 2 0 1
4052 1251 4 0 -11.271384149656294 -3.1771658629339097 -7.08507864454989 3 0 0
4051 1251 2 0 -11.716950846386457 -3.119520950687523 -7.115223911216645 3 0 0
4032 1244 4 0 -10.977951819325657 -3.3859091969080914 -7.304313275498541 3 0 0
4031 1244 4 0 -10.099265244186237 -3.072911610054435 -7.241461754986859 3 0 0
4030 1244 2 0 -10.549260270781572 -3.227724585814487 -7.273122811348696 3 0 0
2950 884 2 0 -9.307110550834448 -3.183821031984168 -7.335533828153458 3 0 0
2952 884 4 0 -9.72888484294097 -3.16851123959065 -7.131177206903155 3 0 0
1044 248 4 0 -11.04030721066203 -2.3832423210423954 -6.795264078666125 3 0 0
1077 259 4 0 -11.409121372078765 -2.4616459235525348 -6.6629919557059 3 0 0
1042 248 2 0 -10.790311285520112 -2.1277931638942 -7.080863903223797 3 0 0
1365 355 4 0 -11.412246750647864 -1.1687206691616439 -6.596734169157827 3 0 1
1160 287 4 0 -11.802521972259793 -1.1827353896607633 -6.747720983585075 3 0 0
1363 355 2 0 -10.974878056841876 -1.017367799839839 -6.47793991763338 3 0 1
1850 517 4 0 -7.721431690281764 -1.5654563632765939 -7.176832831084063 3 0 0
583 117 3 0 -5.7406683950063195 -1.3853828985611774 -6.529911036156968 3 0 0
581 117 1 0 -5.551484097942442 -1.3450583221306935 -6.92555126488588 3 0 0
584 117 3 0 -5.597842620049374 -1.7241641666031242 -7.168062631608717 3 0 0
582 117 3 0 -5.753049021540078 -1.0008118780113957 -7.149735311466644 3 0 0
585 117 3 0 -5.080324346562275 -1.244261649753133 -6.874903218096847 3 0 0
4079 1260 4 0 -4.686226706057373 -1.2040341852195162 -6.798475694027567 3 0 0
4078 1260 2 0 -4.301481054049747 -1.0711891449039115 -6.541230420259918 3 0 0
4361 1354 4 0 -5.751028835158737 -10.432682063634505 -6.228151893168287 4 1 0
4360 1354 2 0 -5.614086944873801 -10.24619855311553 -5.849811317913285 4 1 0
881 194 4 0 -3.9342678737462666 -10.998839252270889 -6.311252236305102 1 0 0
880 194 2 0 -3.6903927197561988 -10.676391479936632 -6.18139746219513 1 0 0
882 194 4 0 -3.433766063574799 -10.33572297280817 -6.035683098605251 1 0 0
2838 846 4 0 -3.2109820193093075 -10.100935106161579 -5.798150760178584 1 0 0
1215 305 4 0 -0.21583354580521785 -10.906939381647868 -5.6520645379796335 0 0 0
2793 831 4 0 -4.794634670463462 -8.266693787883153 -5.934942534798684 1 0 0
4532 1411 4 0 -5.06886555886034 -8.299148955008807 -5.641656766438855 1 0 0
2791 831 2 0 -4.429727417757536 -8.300042612126855 -6.244315440473711 1 0 0
2819 840 4 0 -3.157901223169496 -8.930311858720986 -6.251114977484406 1 0 0
2818 840 2 0 -3.060787703707552 -8.807257287775217 -5.841773171282822 1 0 0
2409 703 4 0 -7.156850141800237 -7.535237849312741 -5.815258315463311 1 0 1
3221 974 4 0 -6.834352909794086 -7.3687727548566455 -5.673256904847195 2 0 0
2947 883 2 0 -11.236763306176083 -6.997033889770125 -5.656575451879201 2 0 0
2948 883 4 0 -11.597327396048106 -7.147443053559337 -5.80541464154516 2 0 0
2407 703 2 0 -7.499547259418073 -7.294822190333232 -5.6602987908360385 1 0 1
3220 974 2 0 -6.367432233392551 -7.306591250796875 -5.803139066063213 2 0 0
3222 974 4 0 -5.954333184201205 -7.237669087111565 -5.907443664980074 2 0 0
768 156 4 0 -5.6857729473979886 -7.204510706114806 -5.636933909297535 1 0 0
1017 239 4 0 -0.3165716553967002 -7.061544871648548 -5.594167823944365 1 0 0
1015 239 2 0 -0.11051529796674586 -7.05255869689518 -5.994244965447287 1 0 0
1154 285 4 0 -0.7022314569327808 -7.0489773389111585 -5.703987229958705 1 0 0
2987 896 4 0 -3.802075889040273 -5.6408485515718425 -5.589393530182394 2 0 0
2986 896 2 0 -3.340290654469415 -5.679582637226735 -5.6760616594181545 2 0 0
2988 896 4 0 -2.899127414790467 -5.715754269919785 -5.758712922887254 2 0 0
2887 863 2 0 -2.068799080906132 -5.521470300037897 -5.8036481109080045 2 0 0
2888 863 4 0 -2.498006863077837 -5.669108042149673 -5.7673610405932365 2 0 0
1735 479 2 0 -7.541199328136179 -5.170805885733283 -6.14078234275715 2 0 0
1737 479 4 0 -7.78372140580584 -5.289562347810785 -5.763286295414855 2 0 0
2889 863 4 0 -1.623710034627166 -5.377279204429567 -5.851052339530653 2 0 0
3258 986 4 0 -1.2079113742882797 -5.3641760910661676 -5.825243508563482 2 0 0
3256 986 2 0 -0.7692060004255161 -5.322588581008226 -5.869878827231202 2 0 0
3257 986 4 0 -0.30875895715921864 -5.271394178719937 -5.92305546764822 2 0 0
1076 259 4 0 -11.313749695199204 -2.433615201368873 -5.758004547050933 3 0 0
1075 259 2 0 -11.368667050457008 -2.4455242870251155 -6.231198709570995 3 0 0
2189 630 4 0 -10.970930203464496 -2.29768808298061 -5.602696648551464 3 0 0
1563 421 4 0 -10.15527704789847 -0.9986961086908064 -6.3291618163489005 3 0 0
1561 421 2 0 -9.724118971804083 -0.955079074837597 -6.287652258346922 3 0 0
1119 273 4 0 -8.963761266695627 -0.9541274325895603 -5.957399064130565 3 0 0
3545 1082 4 0 -6.564965481120758 -1.5870815825484925 -5.509774008007443 3 0 1
3544 1082 2 0 -6.29108834376236 -1.5075364119321382 -5.869431808167204 3 0 1
3546 1082 4 0 -6.005797642018006 -1.4171437846837769 -6.233018140731666 3 0 1
4080 1260 4 0 -3.9278739460419114 -0.9385138829896267 -6.299792808377737 3 0 0
1752 484 4 0 -3.533087689365054 -0.9704611914993269 -6.201439952181543 3 0 0
1750 484 2 0 -3.0703405507095454 -0.9359999996219948 -6.110661268159662 3 0 0
1364 355 4 0 -10.5396623168013 -0.8611445552907142 -6.350970779947272 3 0 1
1562 421 4 0 -9.27203299743974 -0.9165547284994133 -6.236768489304777 3 0 0
1117 273 2 0 -8.510102705521017 -0.8036888331637044 -5.875312007698133 3 0 0
1118 273 4 0 -8.06674104879837 -0.6428684435633354 -5.7963725364097485 3 0 0
2373 691 4 0 -7.772643200349225 -0.4610581617308487 -5.621503382533836 3 0 0
1751 484 4 0 -2.6171562009910563 -0.9108265258219781 -6.014517698628316 3 0 0
3281 994 4 0 -2.239251215004847 -0.8293474975337816 -5.890905388001158 3 0 0
3280 994 2 0 -1.8443434100883298 -0.7214330133648019 -5.729671244086415 3 0 0
3282 994 4 0 -1.4208399989875087 -0.6111981145894134 -5.562708497762549 3 0 0
3219 973 4 0 -5.817921223278153 -11.132277600430971 -5.128513939735531 1 0 0
1768 490 2 0 -5.5434195650717975 -11.730832149134963 -5.488699013130934 3 1 0
1769 490 4 0 -5.904315011128254 -11.496093053404199 -5.316373472527343 3 1 0
4523 1408 4 0 -4.88153270059487 -11.716946457149662 -5.464045370968087 5 1 1
4522 1408 2 0 -4.534546763092434 -11.512916471537993 -5.219748954712067 5 1 1
4524 1408 4 0 -4.1997962303892065 -11.319939240632186 -4.9788239795421765 5 1 1
3217 973 2 0 -5.5864704372518155 -10.892340894284589 -4.79839245653493 1 0 0
1214 305 4 0 -0.34693555325848635 -10.99692524829519 -4.742210441030405 0 0 0
1213 305 2 0 -0.28338167735511455 -10.95815152940428 -5.203633659247963 0 0 0
4362 1354 4 0 -5.48211878643294 -10.049269611977486 -5.474453843934098 4 1 0
386 78 1 0 -5.160210699552954 -9.597550870078202 -4.848097970492296 1 0 0
388 78 3 0 -5.187708760804111 -9.933729821699481 -5.206453629629876 1 0 0
389 78 3 0 -4.733566574367157 -9.560521078806463 -4.711746217546172 1 0 0
387 78 3 0 -5.300017177667056 -9.187483308351862 -5.019474312311835 1 0 0
2836 846 2 0 -2.981816372004145 -9.840728035701966 -5.459793413401286 1 0 0
2837 846 4 0 -2.747884047822506 -9.581753675241965 -5.122620500398651 1 0 0
445 89 3 0 -2.5174633603099217 -9.34695456689058 -4.813557772749326 1 0 0
4531 1411 2 0 -5.082902493718998 -8.566733244423425 -5.268589423140991 1 0 0
4533 1411 4 0 -5.083195333512464 -8.83577533283886 -4.901099161621473 1 0 0
2820 840 4 0 -2.9533053289810045 -8.66724428635071 -5.382292064612074 1 0 0
444 89 3 0 -2.8942871514191033 -8.71753998568014 -4.993180881598354 1 0 0
441 89 1 0 -2.7281938566916555 -8.964245258252333 -4.645377877740132 1 0 0
3973 1225 2 0 -10.180981372226451 -6.68421946759919 -5.154735910400706 2 0 0
3974 1225 4 0 -10.584566523566918 -6.6257397505001165 -5.328340293628012 2 0 0
2949 883 4 0 -10.849198342109764 -6.834299276652453 -5.494471895651918 2 0 0
3975 1225 4 0 -9.775911588971166 -6.747784196667981 -4.971740657157583 2 0 0
999 233 4 0 -9.417171587676306 -6.853477942967991 -4.908454691810988 1 0 0
997 233 2 0 -8.955682247353238 -6.851810012406666 -4.898236779350955 1 0 0
998 233 4 0 -8.478666424126455 -6.838973935293221 -4.8897620055080955 1 0 0
2408 703 4 0 -7.8327220243225595 -7.062364072872782 -5.501843102731981 1 0 1
3151 951 2 0 -7.65041615581622 -6.598676337948407 -4.770193760862131 2 0 0
3153 951 4 0 -8.087477793958305 -6.6900803695263225 -4.854906867236306 2 0 0
3152 951 4 0 -7.205764402010119 -6.498880179619463 -4.684434016836408 2 0 0
766 156 2 0 -5.322477737601971 -7.088714343649619 -5.415585103028523 1 0 0
767 156 4 0 -4.9626355030941545 -6.972210702081674 -5.198436249533632 1 0 0
809 170 4 0 -4.628736018833201 -6.824910078472497 -5.390226130275284 1 0 0
810 170 4 0 -3.764690255016202 -7.119937108367699 -5.444651871182024 1 0 0
808 170 2 0 -4.1884526821777746 -6.97571609230743 -5.409946363329321 1 0 0
2797 833 2 0 -3.002943087138675 -6.96576018946307 -5.178180855173357 2 0 0
2798 833 4 0 -3.4078696758092306 -6.9694261448159365 -5.2882636517400945 2 0 0
2799 833 4 0 -2.5714730240280357 -6.961292599385778 -5.070424385790732 2 0 0
430 86 3 0 -2.252413844343147 -6.776114374230668 -4.927653251398939 2 0 0
426 86 1 0 -1.9697281709322212 -7.034666142553882 -4.668131233717377 2 0 0
1155 285 4 0 -1.4505997343073567 -7.123053811130202 -5.279751085427023 1 0 0
427 86 3 0 -1.5921482243055678 -7.1117086210489235 -4.8998436409703405 2 0 0
1153 285 2 0 -1.066554326727502 -7.089395476482125 -5.4899368914808555 1 0 0
2766 822 4 0 -4.811246016567706 -5.742525450303678 -4.747808481569959 2 0 0
2764 822 2 0 -4.464115287566574 -5.694861895727648 -5.0384564558415255 2 0 0
2765 822 4 0 -4.120202204549443 -5.64931604731757 -5.322275373919099 2 0 0
1545 415 4 0 -7.768191196453716 -5.063489691493552 -5.417655517112565 2 0 0
1543 415 2 0 -7.638011220335868 -4.8014502604384655 -5.05630464865295 2 0 0
1544 415 4 0 -7.519163398177488 -4.550492040453512 -4.710807641847906 2 0 0
2188 630 2 0 -10.553679958855252 -2.267887806027325 -5.4208959726475285 3 0 0
2190 630 4 0 -10.111714693719858 -2.237031550014036 -5.230169025020204 3 0 0
3248 983 4 0 -9.704259468842096 -2.321107137045219 -5.19156662387352 3 0 0
3247 983 2 0 -9.249033881351611 -2.4457508917780135 -5.126803196992277 3 0 0
173 35 3 0 -8.64258293574984 -2.296767423698997 -4.841520930476066 3 0 0
3249 983 4 0 -8.82561069591891 -2.5600115809814668 -5.060928676553136 3 0 0
172 35 3 0 -8.024308929198876 -1.8806646610433049 -4.773655365532586 3 0 0
4691 1464 4 0 -7.658501596164291 -1.8417066589006854 -4.860620744643392 3 0 1
4690 1464 2 0 -7.275823756081815 -1.8024613401120426 -5.087537702726338 3 0 1
4692 1464 4 0 -6.890961859860257 -1.7652194856807366 -5.329239412399856 3 0 1
2371 691 2 0 -7.371407468756829 -0.5388950895831819 -5.394619238133677 3 0 0
2372 691 4 0 -6.969713608759236 -0.6182919282813959 -5.183561315156262 3 0 0
4577 1426 4 0 -6.598678302378064 -0.660342972076327 -5.009574938996432 4 0 0
4576 1426 2 0 -6.287836918381127 -0.5504433006329172 -4.708359786905968 4 0 0
3948 1216 4 0 -1.0390451202053779 -0.561073163856026 -5.365550569519589 3 0 0
3946 1216 2 0 -0.6204085950975173 -0.48493584786655397 -5.168088075858474 3 0 0
3947 1216 4 0 -0.22265414751607793 -0.4199944539200029 -4.991866138715548 3 0 0