LAMMPS data file via write_data, version 4 Feb 2025, timestep = 8500000, units = lj

1600 atoms
4 atom types
1100 bonds
1 bond types
750 angles
2 angle types

-8.27226 8.27226 xlo xhi
-8.27226 8.27226 ylo yhi
-8.27226 8.27226 zlo zhi

Masses

1 1
2 1
3 0.1
4 0.1

Bond Coeffs # harmonic/omp

1 100 0.45

Angle Coeffs # harmonic/omp

1 100 180
2 100 109.471

Atoms # full

651 184 4 0 -5.3865533707505415 -8.116187568924245 -8.128754876913321 0 1 0
650 184 2 0 -4.991678573524922 -8.137484944324656 -7.906979617065127 0 1 0
1217 373 2 0 -3.82558418608304 -8.2025921167271 -7.937310239337486 0 0 1
1571 491 2 0 -2.634755077065685 -7.574407139699394 -7.020964362860898 0 1 1
1572 491 4 0 -2.2598552619236747 -7.763909317783618 -7.134256501692456 0 1 1
1573 491 4 0 -3.0231371103294973 -7.3748615856180795 -6.894534279494673 0 1 1
37 8 3 0 -2.156917415041221 -7.986758857677738 -7.481245076575447 0 0 1
435 112 4 0 -1.1535999091363305 -8.17579212796664 -7.80458696543996 0 0 1
434 112 2 0 -1.119016057302005 -7.749218762595384 -7.721786415976485 0 0 1
436 112 4 0 -1.0890481176457703 -7.3351325579777065 -7.647450375267012 0 0 1
608 170 2 0 -6.621840042778407 -4.550549673192796 -7.696287132549522 1 0 1
609 170 4 0 -6.603220399523372 -4.886311647379206 -8.017934368520837 1 0 1
1041 314 4 0 -6.497327906003393 -3.855115504253612 -7.3752371013525355 1 0 0
610 170 4 0 -6.645318039963312 -4.229639726861967 -7.396271057808218 1 0 1
1040 314 2 0 -6.452987554366774 -3.7542276382201014 -6.930018443349692 1 0 0
454 118 4 0 -4.165162913319514 -4.0417123647793245 -7.7404086374645615 0 0 1
307 69 4 0 -4.019429669197682 -3.940505308820505 -8.118106276908277 0 0 0
452 118 2 0 -4.188200191019783 -3.74299959928587 -7.390955269209953 0 0 1
453 118 4 0 -4.204287563900791 -3.4619808497727482 -7.065673908789759 0 0 1
550 150 4 0 -4.263241001646244 -3.0655025660240116 -6.954545806370957 0 0 1
1000 300 4 0 -7.137710431194814 -1.466707622869272 -8.257539437785452 1 0 0
998 300 2 0 -7.106273257927381 -1.2457133753213634 -7.855699512971428 1 0 0
538 146 4 0 -7.112002821184766 -0.7985052613313218 -7.101097114552617 0 0 1
999 300 4 0 -7.068841040098534 -1.0186652978463113 -7.46228761890845 1 0 0
636 179 4 0 -3.30739553226234 -6.664184051150694 -5.920193967262232 0 1 0
637 179 4 0 -3.041136484948868 -7.364295482493328 -6.495942626354256 0 1 0
635 179 2 0 -3.17727478290806 -7.019946615299277 -6.214435102476206 0 1 0
775 225 4 0 -2.9862933461110477 -6.539694309236551 -5.716934727558901 0 1 0
773 225 2 0 -2.9855344137531494 -6.228469075755403 -5.372800813502128 0 1 0
398 100 2 0 -5.97172121352945 -3.5758724709714906 -5.804511126707281 0 0 0
399 100 4 0 -6.2185142237607485 -3.5666833012245944 -6.1628032879373125 0 0 0
1042 314 4 0 -6.4177786516616955 -3.658848737989272 -6.496212729301366 1 0 0
1402 434 4 0 -5.775344885097426 -3.298043305363024 -5.123884788844658 1 0 0
400 100 4 0 -5.7087735832767885 -3.583481771913468 -5.41556752529161 0 0 0
548 150 2 0 -4.278843065382293 -2.716604112147243 -6.689505665374309 0 0 1
549 150 4 0 -4.2954653200434585 -2.3682658232117024 -6.427772300010646 0 0 1
417 106 4 0 -4.1107146046623395 -2.196556538954985 -6.127198418679777 0 0 1
416 106 2 0 -4.053431189392765 -1.843366945737942 -5.843708057837028 0 0 1
536 146 2 0 -7.113013861073082 -0.847034015890902 -6.646612287809046 0 0 1
537 146 4 0 -7.114536724884321 -0.9034766967739689 -6.198923348166379 0 0 1
582 161 4 0 -7.004274807830428 -0.7147341988481095 -5.859956496154722 0 -1 0
592 164 4 0 -6.045672052360135 -0.562073619479558 -5.05296205847714 0 0 0
581 161 2 0 -6.675609001557733 -0.6318007006389019 -5.554557698554068 0 -1 0
583 161 4 0 -6.370076511909209 -0.5525598072537793 -5.279579330335712 0 -1 0
418 106 4 0 -3.9981342703452745 -1.4843087358239953 -5.549862994089055 0 0 1
336 79 4 0 -4.038785232474388 -1.0559094654862011 -5.552848769884248 0 0 0
335 79 2 0 -3.814679143154836 -0.8675673014618962 -5.2298286495115125 0 0 0
735 212 4 0 -0.013578354313230864 -3.9221596158921077 -3.4014817072479984 0 0 0
1080 327 4 0 -1.5911525111056626 -0.09658370588409208 -4.929855580857236 0 -1 0
750 217 4 0 -0.8921931982623359 -0.808693343652217 -5.299031508565363 0 0 1
749 217 2 0 -0.5215155035054408 -1.0480203538695456 -5.437950325578812 0 0 1
1081 327 4 0 -1.1286029650427507 -0.8734414958319672 -4.973836667751535 0 -1 0
1079 327 2 0 -1.3653103127849946 -0.47976923674455735 -4.949817295371993 0 -1 0
751 217 4 0 -0.1695130760547769 -1.2679501711844385 -5.574755438509328 0 0 1
652 184 4 0 -4.59120482602696 -8.151865840662111 -7.689130450887234 0 1 0
271 57 4 0 -0.5259405513630797 -6.576862725961767 -3.5141708106748584 0 0 0
564 155 4 0 -3.6656575393007618 -5.738293018132365 -4.102212913802803 0 0 0
253 51 4 0 -3.9422764737483376 -5.534980710344582 -3.902395181052134 0 0 0
251 51 2 0 -4.238689254252621 -5.343978558859119 -3.614333533218556 0 0 0
252 51 4 0 -4.537365116020482 -5.148923036364166 -3.3151225071703605 0 0 0
563 155 2 0 -3.298580101631123 -5.766066939673957 -4.395433999386091 0 0 0
565 155 4 0 -2.945143640630512 -5.788240402336254 -4.669079089036976 0 0 0
774 225 4 0 -2.982843449267919 -5.940367660313195 -5.046469440506148 0 1 0
269 57 2 0 -0.23321595473874493 -6.316434794677477 -3.7550663549542733 0 0 0
1400 434 2 0 -5.931765093640819 -3.2296840216603586 -4.720474131192551 1 0 0
1401 434 4 0 -6.089915319500605 -3.1406206246728954 -4.298424641487025 1 0 0
1432 444 4 0 -6.1117141840349705 -2.814622366541793 -4.0746202699768475 1 0 1
1430 444 2 0 -5.91963258368228 -2.8329275457260152 -3.6518928172574534 1 0 1
590 164 2 0 -5.7173710980739285 -0.7902640805771775 -4.88320778822203 0 0 0
591 164 4 0 -5.37301707074533 -1.0309392731440838 -4.707512196044227 0 0 0
1064 322 2 0 -5.00678425410985 -0.8847417173297953 -4.005151184072109 1 -1 0
1065 322 4 0 -5.092932267866909 -1.0503504915630764 -4.401450603601375 1 -1 0
1066 322 4 0 -4.928114329845819 -0.7056589283662092 -3.5880275029554443 1 -1 0
1047 316 4 0 -3.17749902168113 -1.3018452571822108 -3.4329240189089223 1 0 0
337 79 4 0 -3.5727200931158363 -0.6594166498834665 -4.8993236540202485 0 0 0
1018 306 4 0 -3.263747946113095 -1.0340534957602996 -3.7285046862802482 1 0 0
1016 306 2 0 -3.324064264354227 -0.9238129405161555 -4.171393250870541 1 0 0
1017 306 4 0 -3.3744133155870006 -0.8200832830147701 -4.611834609588787 1 0 0
408 103 4 0 -3.906092616852885 -7.238570388004222 -2.0427822911433777 0 0 0
224 45 3 0 -4.454861667691429 -8.219268808490822 -2.5677178015609807 1 1 0
409 103 4 0 -4.3489776270878195 -7.842168196015441 -2.550474370994473 0 0 0
407 103 2 0 -4.140610185433917 -7.551897623081192 -2.305764890742623 0 0 0
432 111 4 0 -0.5223434384757694 -6.8777012296848135 -3.2509646189676005 0 0 0
431 111 2 0 -0.8302952662508297 -6.819241034495271 -2.9223916556567784 0 0 0
433 111 4 0 -1.1317843417455564 -6.764941388406194 -2.5884855536343623 0 0 0
396 99 4 0 -5.237411601368395 -5.567173872895635 -2.323065528753435 0 0 0
265 55 4 0 -5.292155570456649 -5.500104681403968 -1.9184292772092761 0 0 -1
395 99 2 0 -4.983407951444499 -5.334511240765027 -2.641313850211375 0 0 0
397 99 4 0 -4.727077019337868 -5.104384810671631 -2.960857217821614 0 0 0
321 74 4 0 -1.3587702878493557 -6.438816930698011 -2.463369447594857 0 0 0
320 74 2 0 -1.347782574084861 -5.995368616551394 -2.3351688872316676 0 0 0
322 74 4 0 -1.3485566920873933 -5.556540001956096 -2.202560628349568 0 0 0
984 295 4 0 -1.0433988985437508 -5.52317042970855 -1.9348134395632373 0 0 0
410 104 2 0 -8.19783490636356 -4.902933083724608 -3.0201577273500075 0 0 -1
412 104 4 0 -7.953299247859278 -4.534271035580641 -2.9253686602675475 0 0 -1
734 212 2 0 -0.3379222343346105 -3.699840127098724 -3.142943109599073 0 0 0
1431 444 4 0 -5.732130584930586 -2.837123982416026 -3.235509195087052 1 0 1
1024 308 4 0 -5.54972494244714 -2.8682250246990635 -2.891821933924646 1 0 0
1023 308 4 0 -5.735299574007305 -2.813290038452285 -2.0440809015128334 1 0 0
1022 308 2 0 -5.632824159422701 -2.844087847320346 -2.495850294877616 1 0 0
358 86 4 0 -5.722110322049588 -2.9224089537731586 -1.6472216724971815 0 0 0
736 212 4 0 -0.6404527655607839 -3.476541105353917 -2.9114817672628535 0 0 0
1440 447 4 0 -0.8078791124204405 -3.1568909182467695 -2.7814008553607055 0 1 1
1439 447 2 0 -0.9496317634681102 -2.940016248430996 -2.4024198999526587 0 1 1
1441 447 4 0 -1.0987237223803807 -2.712428832042639 -2.0149376209703034 0 1 1
1354 418 4 0 -1.2318139435220306 -2.6702530983466954 -1.6425964784467968 0 1 0
534 145 4 0 -5.549198378582178 -0.22702446167753923 -2.162041809168204 0 0 1
923 275 2 0 -5.154816713243914 -0.3567222691605377 -2.873445370067648 0 1 1
924 275 4 0 -5.237435167061951 -0.19171727124353483 -2.4479341071051506 0 1 1
533 145 2 0 -5.372383829687098 -0.39572554257140496 -1.7605380343915755 0 0 1
925 275 4 0 -5.077307311854446 -0.4995733345981884 -3.2742035987600313 0 1 1
1046 316 2 0 -3.263915245497348 -1.2767999940379196 -3.0063624227243353 1 0 0
705 202 4 0 -3.5284967889516694 -1.0527517623672615 -2.2527337763322897 0 0 0
1048 316 4 0 -3.3497742160342123 -1.2357553996674449 -2.5702166936869597 1 0 0
704 202 2 0 -3.7515182633992477 -1.0222221012806725 -1.8426050723194554 0 0 0
706 202 4 0 -3.968113534700249 -0.9957050422522388 -1.4427859647012173 0 0 0
756 219 4 0 -1.757408815414606 -0.30426311329873656 -1.6839889394592855 0 0 0
755 219 2 0 -1.487973594785379 -0.0921298217598302 -1.9608273777193392 0 0 0
966 289 4 0 -4.530978115603664 -6.495418026356002 -0.3746756252946948 0 0 -1
1074 325 4 0 -1.1462253245955727 -7.565097472734538 -0.5365897986750887 0 0 0
1073 325 2 0 -0.998830089474961 -7.988937571213219 -0.5428544061913617 0 0 0
1531 477 4 0 -0.9114385610219475 -7.369231941791319 -0.29288250995943865 1 1 1
263 55 2 0 -5.481736543668272 -5.2064188326989775 -1.6202134616747614 0 0 -1
29 6 3 0 -5.514988902643594 -5.57528189617634 -0.48470303490539324 0 0 0
264 55 4 0 -5.67863206507457 -4.916906885501727 -1.3204606317734162 0 0 -1
27 6 3 0 -5.783291102017742 -5.095043127029164 -0.9897690488421939 0 0 0
26 6 1 0 -5.7581089949555055 -5.16777614546613 -0.5670491053726772 0 0 0
1062 321 4 0 -5.555170750596564 -5.8510636335965085 -0.204502728004655 0 0 0
1061 321 2 0 -5.144477599518137 -6.028359741496942 -0.16942698839861325 0 0 0
28 6 3 0 -6.189338771456838 -5.201601113963693 -0.3887954501903258 0 0 0
965 289 2 0 -4.186479814745057 -6.695304830540603 -0.14236915824930338 0 0 -1
1063 321 4 0 -4.723961261308774 -6.216480234825027 -0.1383554380893114 0 0 0
1044 315 4 0 -0.34770604124545795 -5.7970527099400915 -0.21665252516736178 0 0 0
1043 315 2 0 -0.3404107772530421 -5.52844214710943 -0.5662803829287005 0 0 0
983 295 2 0 -0.7742605003503937 -5.350993230564456 -1.612298705445276 0 0 0
1045 315 4 0 -0.3288609885780637 -5.236847119044939 -0.9217591996045983 0 0 0
985 295 4 0 -0.49502386194145126 -5.174530273339715 -1.2762764911682924 0 0 0
1153 351 4 0 -6.99647662701139 -4.2967146856662355 -0.8490966492973058 1 0 0
512 138 2 0 -7.522411066442879 -3.793155883352096 -1.0617618909328188 0 0 0
514 138 4 0 -7.162472148514912 -4.04301963878488 -1.1397711241083424 0 0 0
1151 351 2 0 -6.692056544638042 -4.568935878614803 -0.6205067107484763 1 0 0
513 138 4 0 -7.868025237374912 -3.539582703657312 -0.9757027794368686 0 0 0
30 6 3 0 -5.541470824307739 -4.813696687970444 -0.36003186409798404 0 0 0
1152 351 4 0 -6.38027040744898 -4.853166696754941 -0.39345059887383443 1 0 0
370 90 4 0 -5.491716916601972 -4.410883655274562 -0.33960358006645197 0 0 0
368 90 2 0 -5.137767710688782 -4.276910349720974 -0.08058955080869207 0 0 0
540 147 4 0 -8.05701586683403 -3.2309325158200566 -1.1165978443311089 0 0 0
356 86 2 0 -5.756144862339412 -2.725963649970121 -1.2723976455889174 0 0 0
357 86 4 0 -5.783779359181909 -2.5242262512227684 -0.8919417626285905 0 0 0
1071 324 4 0 -5.60249359903488 -2.214356544389571 -0.7542406225446742 0 0 0
1070 324 2 0 -5.341102386700533 -1.9108364080286317 -0.7062687366570439 0 0 0
61 13 1 0 -0.20943944365749398 -2.7441803108444174 -0.40111979083998406 0 0 0
1352 418 2 0 -0.9977523101260072 -2.7398852471854696 -1.2531640058524058 0 1 0
1353 418 4 0 -0.7654738403551171 -2.816671735206542 -0.864896748813989 0 1 0
63 13 3 0 -0.6697079630254333 -2.797997337610153 -0.4898408183897687 0 0 0
405 102 4 0 -0.42126494660544267 -2.145132183420016 -0.5658836866611759 0 0 0
404 102 2 0 -0.7677435037372218 -1.8372160130035187 -0.6088417444051696 0 0 0
64 13 3 0 -0.08101121970058962 -2.317617120732102 -0.5023785344022674 0 0 0
1218 373 4 0 -4.181930000811816 -8.105915560184364 -7.674542921560904 0 0 1
440 114 2 0 -5.034676916669494 -0.4142269972178984 -0.41512029684006446 0 0 1
535 145 4 0 -5.204477190972876 -0.5609144186854987 -1.3645019370929103 0 0 1
129 26 3 0 -4.937246822559079 -0.8651690179663883 -1.390124873157743 0 0 0
442 114 4 0 -5.321785546186427 -0.054036420396453046 -0.3509199323666452 0 0 1
1072 324 4 0 -5.034468389214293 -1.554644057011395 -0.6522670924168505 0 0 0
441 114 4 0 -4.765041073747407 -0.7681879725474219 -0.46980994659257946 0 0 1
128 26 3 0 -4.858727853963495 -1.493579739911014 -1.025931295413244 0 0 0
127 26 3 0 -4.533564028069908 -0.8669403693841454 -0.7959099850790186 0 0 0
130 26 3 0 -4.296927673451996 -1.2004654319117825 -1.4247264177717005 0 0 0
126 26 1 0 -4.664096171204387 -1.1014560833387923 -1.159637927760832 0 0 0
864 255 4 0 -3.0279479345768245 -1.4928505543892039 -0.3835526361205618 0 0 0
462 121 4 0 -2.039464452731979 -0.27631819295819754 -1.4209337147115226 0 0 0
35 7 3 0 -1.5223410208535566 -0.6105894775519853 -0.5938434874842093 0 0 0
863 255 2 0 -2.804907164188212 -1.3271760885803214 -0.7407069187505612 0 0 0
463 121 4 0 -2.610583581178396 -0.905101141004171 -1.3963738333322127 0 0 0
461 121 2 0 -2.338792296200149 -0.5948146602009057 -1.401979096046845 0 0 0
1567 489 4 0 -2.3724591569044535 -0.762763887961088 -0.16445318373886628 1 0 0
865 255 4 0 -2.582465886091399 -1.170846142591639 -1.1100038672135963 0 0 0
34 7 3 0 -2.0682221041517463 -1.0065144700365356 -0.2758535150975164 0 0 0
1483 461 4 0 -1.3918928598772349 -0.22352153311079048 -0.6481030951701144 0 0 0
406 102 4 0 -1.1221726232156213 -1.5248658444359844 -0.6540854296040306 0 0 0
33 7 3 0 -1.4839266048390811 -1.3459739937966915 -0.610107382353726 0 0 0
31 7 1 0 -1.6118187628821061 -0.9841056353124242 -0.36243929651821244 0 0 0
1529 477 2 0 -0.6783810158011497 -7.057859714887552 -0.030485323789442027 1 1 1
687 196 4 0 -3.482680757186171 -6.789699103515191 0.24795739762824603 0 0 0
967 289 4 0 -3.8425145815500383 -6.882156934696549 0.08119119011947772 0 0 -1
686 196 2 0 -3.248191222546584 -6.6617588192008075 0.6063458454899624 0 0 0
160 32 3 0 -2.7412793806454663 -6.502422681260259 1.270644469814747 0 0 0
156 32 1 0 -2.5681585227474573 -6.748991352582728 1.6091436933754952 0 0 0
1168 356 4 0 -2.5928733591320015 -7.5316653102786155 1.5635486929985165 0 0 0
157 32 3 0 -2.4902593599703495 -7.158374929703711 1.4681644343264804 0 0 0
1530 477 4 0 -0.444196872779984 -6.764794887464817 0.23529989590853304 1 1 1
595 165 4 0 -5.417995656892482 -8.115565033006808 7.217875667555478 0 1 0
688 196 4 0 -3.0023429579659453 -6.52166010911111 0.9749313691453974 0 0 0
492 131 4 0 -1.8838713937542269 -5.32981347424283 1.5849793809434922 0 0 0
459 120 4 0 -1.6768940394161251 -5.452604955002854 1.253624889467574 0 0 0
460 120 4 0 -0.954885226012751 -5.417473998718941 0.7060903782023257 0 0 0
458 120 2 0 -1.314900322909811 -5.439252118811201 0.9789608090616382 0 0 0
184 37 3 0 -0.7337463319817654 -5.755465273173913 0.6260160356883285 0 0 0
182 37 3 0 -0.6658633528480152 -6.427860487808091 0.32690748110609097 0 0 0
181 37 1 0 -0.4395598871903584 -6.052168831202899 0.4800017034298027 0 0 0
183 37 3 0 -0.2131827297328089 -5.882524738816013 0.15147491407918606 0 0 0
185 37 3 0 -0.16753936170312517 -6.161665366696997 0.8058201207728694 0 0 0
369 90 4 0 -4.794273552022748 -4.1389712784801285 0.17910746237396843 0 0 0
669 190 4 0 -4.4489821517078765 -4.230175064414562 0.3369929626983986 0 1 0
668 190 2 0 -4.302773780866681 -4.402197569163492 0.7544866892472214 0 1 0
670 190 4 0 -4.161306870622593 -4.5710218847136925 1.1632208202334662 0 1 0
1392 431 4 0 -4.317727519910431 -4.338647663857765 1.4451870519308418 0 1 0
314 72 2 0 -1.430815912437865 -2.026257082528065 1.588319999606942 0 0 -1
315 72 4 0 -1.3126152765043595 -2.0216240834855856 1.138240065214234 0 0 -1
568 156 4 0 -0.14515209374614677 -2.9302713488375702 0.4210164903636082 0 0 0
427 109 4 0 -1.2642922660771925 -1.6252279945395436 1.0110112371188806 0 0 0
425 109 2 0 -1.3450620148791352 -1.5003146073105578 0.5845602117858457 0 0 0
426 109 4 0 -1.418531116378429 -1.3681373501402025 0.1552108137784789 0 0 0
526 142 4 0 -0.036441403747274406 -6.626655086392308 2.199949334585027 0 0 0
857 253 2 0 -4.846572328221461 -8.02487873733438 3.096081771629023 0 1 0
1166 356 2 0 -2.5759352286097945 -7.901037393088274 1.8384021449752868 0 0 0
158 32 3 0 -2.85672350303256 -6.754647291839842 1.9496072690617574 0 0 0
1129 343 4 0 -3.5593152856696775 -6.312746727332719 2.753396095243203 0 0 0
1105 335 4 0 -3.4721948968395293 -6.296996927550232 3.122318848863949 0 0 0
491 131 2 0 -2.0187804235031477 -5.756759042108684 1.7276324640870235 0 0 0
493 131 4 0 -2.1548140075790543 -6.178816568793949 1.860662060280382 0 0 0
1127 343 2 0 -3.2729071030719257 -6.355255507615797 2.394127134245285 0 0 0
1128 343 4 0 -3.0096787124871596 -6.39349136575599 2.0463972590141815 0 0 0
159 32 3 0 -2.1849646161341174 -6.561532708531555 1.7495017758806615 0 0 0
891 264 4 0 -6.418902299393169 -3.959453800661023 3.5555588702798135 0 1 0
941 281 2 0 -5.225965235359489 -3.5129900140369936 2.595667143777549 1 0 0
943 281 4 0 -5.027845867354044 -3.892543343760695 2.4091690053144825 1 0 0
1393 431 4 0 -4.688729370368892 -3.8635779514404063 2.189354439718202 0 1 0
1391 431 2 0 -4.503078059931678 -4.109655336761372 1.8035302515160698 0 1 0
942 281 4 0 -5.4218286799415845 -3.1472111927119335 2.7704744342465775 1 0 0
1119 340 4 0 -5.201702741499473 -2.8195461438040264 2.845891466334779 1 0 1
22 5 3 0 -1.6669476520607511 -1.9669502939834178 2.4334706924796903 0 0 -1
24 5 3 0 -2.095354711503735 -2.1071302144006707 3.048559871659829 0 0 -1
21 5 1 0 -1.9497139035184479 -1.7793019388390576 2.751631979164165 0 0 -1
316 72 4 0 -1.5542888581506402 -2.0358792368125846 2.062324360235499 0 0 -1
884 262 2 0 -4.864737150026038 -1.5568600027581077 3.2480681916487244 0 0 0
885 262 4 0 -4.7076731496320265 -1.193872201833767 3.079593303005514 0 0 0
247 50 3 0 -3.6161197042417 -0.9757630681423134 2.6832683516107534 1 0 0
249 50 3 0 -4.30515239315379 -1.1405640076136783 2.967270700235708 1 0 0
248 50 3 0 -4.043674717661141 -0.43791751525910777 3.0141913077059788 1 0 0
246 50 1 0 -3.9302743463800702 -0.889645730864978 3.028569644908349 1 0 0
1143 348 4 0 -3.401683745081548 -0.8273128311489798 2.3926701603894505 1 0 0
23 5 3 0 -2.293344737602215 -1.5897300639318093 2.5622517555334396 0 0 -1
1144 348 4 0 -2.5924349352083986 -1.3094082662541295 2.5220678664435296 1 0 0
1142 348 2 0 -2.991937748040007 -1.070176066374587 2.456467009397233 1 0 0
25 5 3 0 -1.7207302333006125 -1.4674879857787726 2.9797567206759683 0 0 -1
877 259 4 0 -1.4872451268786813 -1.1927558142986823 2.78439082331414 0 0 0
875 259 2 0 -1.2308558043764446 -0.9729019636619199 3.0788351797549676 0 0 0
859 253 4 0 -4.8679611602800446 -7.696536282948988 3.398851565446233 0 1 0
585 162 4 0 -4.201050357677365 -8.157267190781544 5.0649472681666285 0 1 -1
343 81 4 0 -6.244086090072056 -5.067389512010196 3.9610430631825437 0 0 0
1103 335 2 0 -3.8771132418779484 -6.188907182663031 3.320615833282274 0 0 0
1104 335 4 0 -4.264075983945705 -6.086990387656307 3.511950159045392 0 0 0
1123 341 4 0 -4.398134293415878 -5.714219056977068 3.6322813269300775 0 0 0
1121 341 2 0 -4.544634390645791 -5.326023974407409 3.8158037468986987 0 0 0
1122 341 4 0 -4.7046595530072155 -4.913007669892822 4.018162720763183 0 0 0
890 264 2 0 -6.542628003531032 -3.516272571245589 3.486328589633685 0 1 0
341 81 2 0 -6.4009257527501 -4.6873937311178855 3.709301557188734 0 0 0
342 81 4 0 -6.55854872141056 -4.32160017231214 3.4663779824165633 0 0 0
1398 433 4 0 -4.450349638122168 -4.589402949679175 3.91241370140607 0 0 -1
1397 433 2 0 -4.205963889350865 -4.171082858756884 3.9901705148712083 0 0 -1
1399 433 4 0 -3.984249942462965 -3.7862638158228545 4.049752644460835 0 0 -1
766 222 4 0 -3.848255629011595 -3.4864363125712003 4.2909169963701945 0 0 -1
764 222 2 0 -3.9156624783735015 -3.3739027712526326 4.716315297175707 0 0 -1
892 264 4 0 -6.665105465953847 -3.100480898442049 3.434029942241435 0 1 0
622 174 4 0 -6.823750620677381 -2.8331107338398063 3.660273758200872 0 1 -1
620 174 2 0 -7.099534474483134 -2.613346241139117 3.865365267087253 0 1 -1
621 174 4 0 -7.410389352881071 -2.361766068720239 4.089921011341069 0 1 -1
681 194 4 0 -7.588158093006624 -2.0454353653630504 4.270289045025906 0 1 -1
680 194 2 0 -7.471071570400131 -1.8322497005813232 4.636616446351723 0 1 -1
886 262 4 0 -5.032117532521729 -1.9533538410991789 3.4293040629285203 0 0 0
1118 340 2 0 -5.245466395838059 -2.5460105333838783 3.1934156711249173 1 0 1
1120 340 4 0 -5.290451066708475 -2.2585430013204255 3.5650615749543073 1 0 1
715 205 4 0 -4.140525743892099 -1.817286301287973 4.838635130709045 0 0 -1
663 188 4 0 -3.942991467335521 -1.6617436068065987 4.533696699369855 0 0 -1
776 226 2 0 -1.8510294918976509 -2.2141788565560825 3.822487231782871 0 0 -1
778 226 4 0 -1.6443605554620786 -2.154011444348838 4.217400136827275 0 0 -1
777 226 4 0 -2.0686969601833693 -2.268634912689876 3.415229041469964 0 0 -1
382 94 4 0 -1.4161995448780351 -1.8500414416861406 4.304531274194339 0 0 -1
380 94 2 0 -1.1011347971537362 -1.7351340381619658 4.599610636906081 0 0 -1
682 194 4 0 -7.34389958718898 -1.6101672769832955 5.025501974362509 0 1 -1
1113 338 4 0 -4.071935673603298 -0.2610037662800414 3.371524025899454 0 -1 0
250 50 3 0 -3.729044033976322 -0.9753208756667422 3.462134293331963 1 0 0
662 188 2 0 -3.9157456856045925 -1.4096834326310939 4.15457964399296 0 0 -1
664 188 4 0 -3.892397377834172 -1.1623296364195879 3.782161725235226 0 0 -1
876 259 4 0 -0.972465234573328 -0.7388542359215641 3.3947749902367206 0 0 0
761 221 2 0 -0.6779215387344717 -0.2919512743713957 3.933558771466442 0 0 -1
762 221 4 0 -0.6560054161072757 -0.5508732957487923 3.5623727703071792 0 0 -1
1362 421 4 0 -6.218953346213206 -6.925011490187054 5.590209561968919 1 1 -1
1356 419 4 0 -5.5109924558141605 -7.837441449547632 5.686863816851088 1 1 -1
1357 419 4 0 -5.864516230923815 -6.972968003156026 5.780626568162609 1 1 -1
1355 419 2 0 -5.694619959230729 -7.391590729738029 5.732397566357543 1 1 -1
9 2 3 0 -5.1928026665221605 -7.801533555891142 5.450877029102341 0 0 -1
6 2 1 0 -4.877260628396741 -8.12548043174633 5.491631827288677 0 0 -1
7 2 3 0 -4.4814923281968335 -7.970195171891187 5.315671452008884 0 0 -1
473 125 2 0 -4.973193365750997 -8.109199304268115 6.712891971313859 0 0 0
8 2 3 0 -4.81193540634953 -8.224711346698975 5.9178236990004685 0 0 -1
474 125 4 0 -4.902932780553998 -8.218896402933746 6.31029029690229 0 0 0
770 224 2 0 -7.13141896061541 -5.605370519527229 5.365212591562397 1 1 -1
772 224 4 0 -7.528749070308628 -5.35704743412534 5.440403550689122 1 1 -1
1012 304 4 0 -7.543515452985162 -5.019438222072105 5.653886296441565 1 0 -1
771 224 4 0 -6.782284249378508 -5.836446729273818 5.291227359753691 1 1 -1
1363 421 4 0 -6.494928922659022 -6.048317561068439 5.4689344987680775 1 1 -1
1361 421 2 0 -6.35987481467204 -6.483358304744833 5.531497995462766 1 1 -1
1010 304 2 0 -7.516831754839283 -4.59028492067934 5.572014284281523 1 0 -1
1011 304 4 0 -7.482702277295979 -4.167831258463258 5.490269252287476 1 0 -1
1388 430 2 0 -7.522663743575297 -3.4179230323515526 5.552329275986738 1 0 -1
1390 430 4 0 -7.356231871980321 -3.8100019803067 5.397889707927952 1 0 -1
648 183 4 0 -3.8187438722771945 -3.5055058747161367 6.34912463586517 0 1 -1
647 183 2 0 -3.7702303997855307 -3.4254411249546988 5.895009317504591 0 1 -1
298 66 4 0 -3.948731732351807 -3.77958991271648 6.613533801813201 0 0 -1
893 265 2 0 -0.07353913242931776 -3.477909371641384 6.4184844408445585 0 1 0
1560 487 4 0 -0.057199267707506656 -3.923783138028603 5.7858803683613145 0 0 0
1031 311 2 0 -6.722204277212468 -1.683088615538038 7.568111587872187 1 0 -1
1389 430 4 0 -7.701405003074083 -3.0101227974572855 5.695980591982213 1 0 -1
292 64 4 0 -7.4955580855838235 -2.732245337769875 5.881534677927466 0 0 -1
290 64 2 0 -7.226554223497641 -2.415995134193512 5.9256030018597246 0 0 -1
79 16 3 0 -6.689761737653264 -1.773528569820255 5.812617557958606 0 1 -1
291 64 4 0 -6.9311795373571226 -2.0592299257683 5.96747929981672 0 0 -1
484 128 4 0 -5.181514246994088 -2.131248887321263 5.33123341642571 0 0 0
77 16 3 0 -6.434291327097253 -1.884764956480797 5.112487091411834 0 1 -1
483 128 4 0 -6.023151630988094 -1.856297476515141 5.066930112531518 0 0 0
482 128 2 0 -5.5889724575281186 -1.9999991545456255 5.1981407243260715 0 0 0
1060 320 4 0 -5.485527278337457 -2.5181149565042182 6.478544902956839 0 0 0
1058 320 2 0 -5.042672028139423 -2.5016460196864956 6.415777407850777 0 0 0
597 166 4 0 -5.859818104047555 -2.3960670599820793 6.341612156516912 0 0 -1
713 205 2 0 -4.481710984623467 -2.0504486038528276 5.058822681516206 0 0 -1
649 183 4 0 -3.7335928769124163 -3.351201198579635 5.48324500414971 0 1 -1
714 205 4 0 -4.8257961971705985 -2.2859278835769143 5.279295220112467 0 0 -1
765 222 4 0 -3.979837319940752 -3.252253771011877 5.172364118423854 0 0 -1
1059 320 4 0 -4.588349698214903 -2.4805878976833013 6.354042452700051 0 0 0
1173 358 4 0 -4.305472095165285 -2.2794877369616886 6.211122875240532 0 0 -1
1172 358 2 0 -3.9562162216444285 -2.283964876108866 6.511581054046091 0 0 -1
78 16 3 0 -7.047129786157364 -1.4825448373973187 5.238893839252662 0 1 -1
76 16 1 0 -6.650067542162692 -1.5790347903392374 5.401265230799233 0 1 -1
80 16 3 0 -6.388304075543502 -1.1925707977562194 5.444108350934263 0 1 -1
381 94 4 0 -0.783669036363236 -1.618972061531614 4.900930967907868 0 0 -1
850 250 4 0 -0.48318725884487085 -1.408156210634631 5.0120652714490825 0 0 0
848 250 2 0 -0.09856151235043363 -1.6178375981975062 5.048737765434163 0 0 0
475 125 4 0 -5.042626387183213 -7.989756786794798 7.149288781257077 0 0 0
594 165 4 0 -5.598218935054867 -8.058091058219661 8.105002717610022 0 1 0
593 165 2 0 -5.501355846764662 -8.089087594955739 7.658974062934732 0 1 0
1032 311 4 0 -6.979195713213877 -1.5390312586183388 7.932643992940474 1 0 -1
1374 425 4 0 -6.412117575946563 -4.743343457922141 8.221787718631168 1 0 -1
1375 425 4 0 -6.004399470616866 -4.650594434259958 7.436984251759986 1 0 -1
310 70 4 0 -5.734398108647943 -4.648156770731919 7.1445843584910955 0 0 -1
308 70 2 0 -5.41864005712525 -4.372624350935408 7.099483820424722 0 0 -1
1373 425 2 0 -6.20714198191781 -4.695297060754673 7.835070605149045 1 0 -1
309 70 4 0 -5.095815563445182 -4.071481431683772 7.042527916515135 0 0 -1
296 66 2 0 -4.373070213500295 -3.9275222036048443 6.688869439423027 0 0 -1
297 66 4 0 -4.795700000439142 -4.063503033686552 6.76297311091875 0 0 -1
305 69 2 0 -3.7929907567041132 -3.7780226778377015 8.075036977464425 0 0 -1
306 69 4 0 -3.5576101444308734 -3.608149866131219 7.716416990370292 0 0 -1
1033 311 4 0 -6.496231516092665 -1.8081478900650867 7.246727642571681 1 0 -1
596 166 2 0 -6.125971149918588 -2.1432681573355463 6.6057739844939825 0 0 -1
598 166 4 0 -6.391529796305099 -1.8888167531946753 6.8697109829418865 0 0 -1
1288 396 4 0 -3.7245728836498913 -3.2396292689493627 7.674381185146612 0 0 0
1174 358 4 0 -3.6323281328223813 -2.2925787260185357 6.790403967205566 0 0 -1
1286 396 2 0 -3.6726936036613727 -2.9471654246130656 7.32366536153551 0 0 0
1287 396 4 0 -3.635789091399581 -2.66462848789037 6.988989245783058 0 0 0
895 265 4 0 -0.3017313597976594 -3.2562438529095674 6.744933969323157 0 1 0
1252 384 4 0 -0.17730965581537253 -3.0853498315042263 7.076715454859341 0 0 0
1566 489 4 0 -2.5760772594279424 -0.004578357738517883 0.16877703606097497 1 0 0
1167 356 4 0 -2.558366170128854 -8.252655324958013 2.0867149638477525 0 0 0
763 221 4 0 -0.7090340081248477 -0.03700938098987894 4.292020615711949 0 0 -1
345 82 4 0 -3.2716602930264655 -8.106102458196867 8.090614893810374 0 0 -1
32 7 3 0 -1.3787284103956572 -0.980662001513758 0.043019328209435256 0 0 0
62 13 3 0 -0.13585854393753438 -2.820172384215006 0.03941870821477133 0 0 0
1565 489 2 0 -2.4732896730800547 -0.3847455311939818 0.005387959769528682 1 0 0
1569 490 4 0 -7.96820006781028 2.786776025056068 -6.814362610387618 1 0 0
1075 325 4 0 -0.8625703201251238 8.113513721833584 -0.5385113585920828 0 -1 0
1035 312 4 0 -5.529647706641085 2.5201324566407846 -7.548001499716169 1 0 0
1034 312 2 0 -5.886996184239037 2.629685263393353 -7.809992212326782 1 0 0
1329 410 4 0 -5.364822790437015 2.7300075325053506 -7.240165316763743 1 0 0
1446 449 4 0 -1.9998230701087083 0.011630960253967912 -4.949270856215701 1 0 1
1036 312 4 0 -6.224911819686476 2.733710375551923 -8.061534209121623 1 0 0
1328 410 2 0 -5.079295828825838 2.745649317820704 -6.872910068194192 1 0 0
1198 366 4 0 -2.4100635385557645 6.332403333288915 -7.698011620584576 0 -1 1
1196 366 2 0 -2.6014312296902222 6.0550820183883785 -8.000632702728433 0 -1 1
490 130 4 0 -2.557594394307734 6.644041581325864 -7.44558144178571 0 -1 1
351 84 4 0 -8.226033000953294 7.420377611759959 -1.233092834674115 1 0 0
294 65 4 0 -0.05564404008140303 0.16934889195511027 -2.654663572571696 0 0 0
488 130 2 0 -2.3035869559598563 7.024357587504311 -7.430968024232759 0 -1 1
38 8 3 0 -2.0699057998555075 7.802726996809632 -7.408006563290667 0 -1 1
489 130 4 0 -2.0523444283618644 7.39860017910811 -7.426282657714805 0 -1 1
36 8 1 0 -2.0082231376198587 8.172310585421252 -7.684535966704515 0 -1 1
39 8 3 0 -2.2277768259935735 8.108419913233778 -8.077246798170469 0 -1 1
40 8 3 0 -1.5396861075868513 8.217209958061853 -7.781398284751652 0 -1 1
47 10 3 0 -3.756116281648896 1.2826363816819037 -5.907726728766559 0 -1 0
46 10 1 0 -3.4665034524852527 1.622472086555932 -5.9580748439854725 0 -1 0