LAMMPS data file via write_data, version 4 Feb 2025, timestep = 1000000, units = lj

452 atoms
4 atom types
302 bonds
1 bond types
155 angles
2 angle types

-5.526003 5.526003 xlo xhi
-5.526003 5.526003 ylo yhi
-5.526003 5.526003 zlo zhi
0 0 0 xy xz yz

Masses

1 1
2 1
3 0.1
4 0.1

Bond Coeffs # harmonic/omp

1 100 0.45

Angle Coeffs # harmonic/omp

1 100 180
2 100 109.471

Atoms # full

283 94 4 0 -2.789316794801103 -5.072351908442727 -4.714697915519912 0 -1 1
130 43 4 0 -2.587403015136606 -5.349282335629804 -4.968128807504889 2 1 1
100 33 4 0 -2.3729014840912313 -3.291543456163152 -4.661110544288089 1 0 1
412 137 4 0 -2.2442556732730092 -3.25642112394808 -5.036970751584572 2 0 1
411 137 2 0 -2.489469009559862 -3.043100924929099 -5.349340186713979 2 0 1
442 147 4 0 -1.034145343478949 -1.1967887463099283 -5.367681861606167 1 0 1
443 147 4 0 -0.13557322098598323 -1.2814782057367973 -5.226645106762252 1 0 1
441 147 2 0 -0.5901965747289832 -1.2357796073114207 -5.296561010970723 1 0 1
282 94 2 0 -2.5720829180991887 -4.777025505421934 -4.4498492523463495 0 -1 1
99 33 2 0 -2.4008889200520125 -3.6890710271411153 -4.438208585439508 1 0 1
101 33 4 0 -2.431174679977052 -4.089187354371991 -4.219908074240351 1 0 1
284 94 4 0 -2.3479003289897276 -4.469940112271926 -4.159915977239213 0 -1 1
223 74 4 0 -1.240394952571128 -1.8450611228486062 -4.342563860213383 1 0 1
224 74 4 0 -0.3491511577212547 -1.8931307373471018 -4.4784208609593055 1 0 1
222 74 2 0 -0.7937201539052205 -1.86621733461239 -4.414190611476167 1 0 1
181 60 4 0 -1.3022304555528663 -1.6979819924286215 -3.952574473199968 1 0 0
180 60 2 0 -1.5271055775023248 -1.4468634129298463 -3.6646392517835684 1 0 0
182 60 4 0 -1.7651635855457015 -1.1818597714103776 -3.374343688919001 1 0 0
243 81 2 0 -5.199111964212031 -0.6976613602349984 -2.9923653456506503 1 -1 0
244 81 4 0 -4.833619227007249 -0.7068752310028872 -3.2641688087695564 1 -1 0
74 24 4 0 -4.4421578271087405 -0.784688661133174 -3.2068839964942035 1 0 1
72 24 2 0 -4.015618853791669 -0.5944399748481315 -3.0579646643082206 1 0 1
73 24 4 0 -3.625617455687783 -0.4197525029998985 -2.909263852604564 1 0 1
449 149 4 0 -1.5182674979499104 -3.4418356866013284 -2.5787562550264744 2 1 0
447 149 2 0 -1.2381938297595418 -3.3277313336216947 -2.2685693698256704 2 1 0
448 149 4 0 -0.9458248661541155 -3.2108662336891274 -1.9452023755883294 2 1 0
296 98 4 0 -3.2810777107412257 -0.3888655504536498 -2.7018724301063672 1 0 1
294 98 2 0 -2.910010540670821 -0.5480200660931507 -2.4718471761492564 1 0 1
295 98 4 0 -2.5081893870834437 -0.7274799102650542 -2.2369062443172174 1 0 1
281 93 4 0 -2.441036052263803 -0.4845352487642396 -1.9296412556491456 0 -1 0
65 21 4 0 -3.5525609643911586 -5.255157618364842 -1.0096062988302377 -1 -1 1
163 54 4 0 -0.6079062954329384 -3.0097848143092967 -1.7811544866356233 1 1 0
162 54 2 0 -0.16245959914146102 -3.1033884947262194 -1.7214079401970994 1 1 0
176 58 4 0 -4.774197428128791 -0.6325585270645595 -1.0185500860958214 1 0 -1
241 80 4 0 -5.128778349837983 -0.4932040357914369 -1.1631390643557014 2 0 0
174 58 2 0 -4.561986427490534 -0.2777526304633158 -1.1396664852410279 1 0 -1
279 93 2 0 -2.1743979672723484 -0.3930341430895865 -1.6114453205449206 0 -1 0
280 93 4 0 -1.9019484564085478 -0.3135650071877807 -1.2684404159498142 0 -1 0
190 63 4 0 -1.7438864601588082 -0.01734273783781859 -1.099167657233191 2 0 0
161 53 4 0 -5.249532104451704 -4.928977384755553 -0.036653887094082904 0 0 0
159 53 2 0 -5.446991399552009 -5.2675924280728745 -0.22575432751527735 0 0 0
63 21 2 0 -3.6527198853431466 -4.857443353897718 -0.832266588090909 -1 -1 1
81 27 2 0 -0.9656029963003014 -5.388185275541656 -0.4406863051153458 0 0 1
83 27 4 0 -1.3403040160499202 -5.215311000723219 -0.24648864848166951 0 0 1
379 126 4 0 -5.347924822491237 -4.531623135915087 -0.08257764058429728 1 0 0
64 21 4 0 -3.7539899901833915 -4.455924418266631 -0.6502221728668198 -1 -1 1
205 68 4 0 -3.4427479475088716 -4.356519679033432 -0.40949137005383296 0 0 0
452 150 4 0 -4.653710873797509 -4.891449399340264 0.7383325784322397 1 0 1
450 150 2 0 -4.599604864510781 -5.288997251837296 0.5000525713032458 1 0 1
18 6 2 0 -1.535071320680549 -5.49141793271035 0.493047463221723 -1 -1 0
20 6 4 0 -1.3812524321543291 -5.43660375094613 0.07257257600511835 -1 -1 0
23 7 4 0 -4.796752766775271 -4.509596498970476 0.7275791696448026 1 0 -1
380 126 4 0 -4.687407745641987 -3.868224832946216 0.0932204540558823 1 0 0
378 126 2 0 -5.010167013859019 -4.194736640961652 0.008436377001816986 1 0 0
206 68 4 0 -3.238737660593854 -4.0002157701888095 0.41877792381145795 0 0 0
204 68 2 0 -3.3414309288467776 -4.183251301183629 0.007904199644835685 0 0 0
391 130 4 0 -4.437064571775848 -3.603619948311003 0.24940255283924628 1 0 0
390 130 2 0 -4.1857991770865315 -3.2410182907630345 0.31723570130389955 1 0 0
392 130 4 0 -3.922819920747677 -2.8787207921242626 0.3744683751609541 1 0 0
125 41 4 0 -3.1541279272344602 -3.610565278574111 0.5261260627783777 1 0 0
123 41 2 0 -2.8008120587461693 -3.6054256574113155 0.7912846912591425 1 0 0
382 127 4 0 -3.685419667873888 -2.6088305582836657 0.22897892084512428 0 -1 1
381 127 2 0 -3.3050479283280905 -2.5988719999186003 0.4789067715532038 0 -1 1
383 127 4 0 -2.9200440084989054 -2.5880129917778603 0.7235582334045896 0 -1 1
57 19 2 0 -0.03511914511930225 -2.170631142462103 0.7634886054012622 0 0 1
169 56 4 0 -1.6275218592661274 -5.4471824455540485 1.3212170622137105 1 1 -1
168 56 2 0 -1.4051494584643178 -5.192512855631674 1.6471232611330118 1 1 -1
21 7 2 0 -4.515805359121578 -4.266904254748002 0.9842260280303803 1 0 -1
22 7 4 0 -4.237691815969882 -4.029347833500443 1.2481468275095304 1 0 -1
386 128 4 0 -2.35854923640392 -3.9041721499410182 1.3233971353053287 1 0 0
384 128 2 0 -2.3354225048049235 -3.962960285535795 1.787787725623705 1 0 0
124 41 4 0 -2.4422935687811815 -3.6148127701631925 1.0539382438912703 1 0 0
115 38 4 0 -2.581916182259233 -2.5088559474991543 0.9296582673325036 0 0 1
114 38 2 0 -2.174422408949187 -2.5055445417199964 1.0586200460837327 0 0 1
239 79 4 0 -1.427850073875896 -2.63286756545503 1.466518719152913 1 0 1
237 79 2 0 -1.0434900631226744 -2.670651512460928 1.2127156344478003 1 0 1
116 38 4 0 -1.7298006202610057 -2.5078835968332807 1.200748938581568 0 0 1
238 79 4 0 -0.6380559350294828 -2.7106183039515748 0.9393207471243734 1 0 1
58 19 4 0 -0.38199838835953503 -2.410280084590448 0.9305509411877413 0 0 1
170 56 4 0 -1.1938231742741472 -4.955117704462073 1.960682318987903 1 1 -1
32 10 4 0 -1.0245694519900423 -5.106468019568712 2.304543201970806 1 0 0
30 10 2 0 -0.6023331207128377 -5.294845187675142 2.381948300669702 1 0 0
31 10 4 0 -0.17708605365709218 -5.471619743584636 2.4741336913285012 1 0 0
385 128 4 0 -2.3251083667620907 -4.012330330181995 2.221906252309071 1 0 0
250 83 4 0 -2.4647879921408795 -3.8547023466115675 2.5625668127354695 1 0 0
231 77 2 0 -4.195345232025039 -0.8143481773134447 2.743070719825851 2 0 -1
233 77 4 0 -3.7852261669101708 -0.6967623791379669 2.587825825332451 2 0 -1
203 67 4 0 -3.403900630694371 -0.5789716131448479 2.587022334468851 1 0 0
201 67 2 0 -2.9934375960329094 -0.5833913901352723 2.396032151467237 1 0 0
225 75 2 0 -1.9833431842207623 -0.9057181852835328 2.7366494155283414 1 0 0
227 75 4 0 -2.246497499050683 -0.6942927718693319 2.4398697556727953 1 0 0
202 67 4 0 -2.5861943570503123 -0.5910612896892227 2.2154266378401593 1 0 0
251 83 4 0 -2.7392688158639014 -3.117739919311161 3.0192286123717205 1 0 0
362 120 4 0 -2.7037546535565675 -2.957055508343089 3.3912358810553007 2 0 0
249 83 2 0 -2.600799136526511 -3.477017295451445 2.7999214515382045 1 0 0
338 112 4 0 -4.627630999733268 -0.9280447840186676 3.3248380644910087 1 0 0
232 77 4 0 -4.62480533881631 -0.9365025191112002 2.9102525339652248 2 0 -1
88 29 4 0 -1.479834833516315 -1.290330401633665 3.3154274667495374 2 0 1
226 75 4 0 -1.706700333514847 -1.1186979986581624 3.035173798804011 1 0 0
92 30 4 0 -0.1911908481104616 -5.407589890860633 4.477903805592754 1 0 0
360 120 2 0 -2.7872584593547494 -2.7369764583999046 3.7960606718386485 2 0 0
361 120 4 0 -2.8774260299067027 -2.534756086280059 4.178285782566866 2 0 0
346 115 4 0 -2.997136713024454 -2.350534309761286 4.545081567300655 1 0 0
336 112 2 0 -4.723764865978798 -1.0529013662542441 3.7410506385318074 1 0 0
337 112 4 0 -4.825551925315156 -1.192377731993571 4.176669316823257 1 0 0
97 32 4 0 -4.659001320886526 -1.2685564412330512 4.5348995081458225 1 0 0
87 29 2 0 -1.2874712817998217 -1.237205422308687 3.721273793264401 2 0 1
89 29 4 0 -1.0956624417614593 -1.1783417364514612 4.116644879390921 2 0 1
71 23 4 0 -1.3450669816990057 -1.1666404239433508 4.45495920778779 0 0 1
348 116 2 0 -4.999017577895974 -0.07686106469266729 4.291264188959867 1 -1 0
350 116 4 0 -5.450223690889417 -0.2282233236973088 4.319762832451992 1 -1 0
299 99 4 0 -4.32267922243824 -0.2039198465894616 4.36462727924192 1 -1 0
297 99 2 0 -3.967479476858813 -0.345587427648419 4.600373166604235 1 -1 0
341 113 4 0 -2.196837280171118 -0.09151904400284216 4.452405997197958 1 -1 0
38 12 4 0 -5.290948200551301 -3.4411844718730302 5.363336880574429 1 0 0
266 88 4 0 -5.127920687884613 -3.193383283056812 5.095927429163562 1 0 -1
264 88 2 0 -4.917195419276219 -2.8220460276746695 4.89975543556745 1 0 -1
347 115 4 0 -3.0932786319695302 -2.914591786992636 5.249052324679297 1 0 0
413 137 4 0 -2.727705495512814 -2.8180370924853686 5.382268401094616 2 0 0
265 88 4 0 -4.720249872219361 -2.4597993374782137 4.704773684914611 1 0 -1
98 32 4 0 -4.451537788183025 -2.1830841787811757 4.77395627002164 1 0 0
345 115 2 0 -3.042669376674086 -2.6313858882463967 4.906948998079341 1 0 0
96 32 2 0 -4.55582246467751 -1.7209461573110372 4.6617159464072975 1 0 0
69 23 2 0 -1.2564782608102885 -1.1453837803176015 4.881638961091073 0 0 1
70 23 4 0 -1.1635761059927718 -1.1328706445555579 5.318605877113833 0 0 1
298 99 4 0 -3.6186752234624 -0.4887397042426329 4.839350509617819 1 -1 0
316 105 4 0 -3.3586248644900847 -0.194203854035214 4.83668598685079 1 -1 1
315 105 2 0 -2.8862438137248754 -0.16778159670782955 4.797715695229701 1 -1 1
317 105 4 0 -2.4241978115244502 -0.14494848661133197 4.76789429199838 1 -1 1
129 43 2 0 -2.9053202840597727 5.49469211835267 -5.199918233622801 2 0 1
131 43 4 0 -3.2363607939619876 5.280769202469764 -5.442071410395236 2 0 1
335 111 4 0 -3.990495705257265 0.8350581126285492 -2.196959441242681 2 0 1
333 111 2 0 -4.067611915006479 0.4888103093767535 -1.874918502746715 2 0 1
403 134 4 0 -3.7481771935459007 1.0821882686788316 -1.9912328851458132 1 0 1
402 134 2 0 -3.4786328560664663 1.3823726099523048 -2.2460897354467786 1 0 1
404 134 4 0 -3.2238247885312745 1.6714312489173047 -2.486197505546078 1 0 1
179 59 4 0 -2.856501810613364 1.7395913223724513 -2.3214253733968127 1 0 1
177 59 2 0 -2.441604110871507 1.9363769017158656 -2.2499501803174247 1 0 1
320 106 4 0 -1.9786649622563237 2.5029519135036695 -2.2411433176415456 1 -1 1
178 59 4 0 -2.073410174432759 2.11052272904013 -2.1804522630495415 1 0 1
318 106 2 0 -1.8017337413129102 2.915508011215455 -2.2647389510570433 1 -1 1
319 106 4 0 -1.6366822546210935 3.313637670034187 -2.2866956806212646 1 -1 1
47 15 4 0 -1.7463469070319775 3.5195779334356248 -1.9661845315874413 0 -1 1
334 111 4 0 -4.125212985535101 0.1652818886654961 -1.5731145317967594 2 0 1
175 58 4 0 -4.3367114784046645 0.08000228036855095 -1.2594163618140017 1 0 -1
189 63 2 0 -1.331171020597373 0.09686992532571725 -0.9828205579251899 2 0 0
218 72 4 0 -0.5715014398119784 0.4408271124105676 -0.9392419629581212 1 0 1
216 72 2 0 -0.398417894685835 0.8557337038925015 -0.9946445522512315 1 0 1
217 72 4 0 -0.23464021115477074 1.2530310214386455 -1.0335465746692067 1 0 1
45 15 2 0 -1.658512117585241 3.8824169239426043 -1.7358447957975573 0 -1 1
46 15 4 0 -1.563319429043494 4.263655410774594 -1.4955060465716477 0 -1 1
434 144 4 0 -0.17085353581433793 4.5931015707127605 -1.2353273771571267 2 0 1
435 145 2 0 -2.948689080115931 5.401755754446259 -1.1752755640889978 2 0 1
436 145 4 0 -3.4047842758554263 5.479756972762281 -1.2179432620898831 2 0 1
199 66 4 0 -2.2478488871537508 5.246549786400046 -1.4359646566050603 2 0 1
198 66 2 0 -1.9220799187273991 4.924110258742611 -1.39253548631343 2 0 1
437 145 4 0 -2.4840791113410505 5.320915393196711 -1.1264506908403566 2 0 1
200 66 4 0 -1.5926758942150192 4.614249815506908 -1.3418748813359462 2 0 1
432 144 2 0 -0.39137466866189374 4.838837305202563 -0.9330876136961086 2 0 1
191 63 4 0 -0.9174176256096356 0.22344120171292925 -0.8610645948756872 2 0 0
439 146 4 0 -0.21172330936238737 1.626013500085726 -0.8826552646005235 0 -1 0
82 27 4 0 -0.5997660245308953 5.4957134836044945 -0.6211535217663577 0 -1 1
433 144 4 0 -0.6296504258715192 5.091802849727418 -0.6079085814131835 2 0 1
167 55 4 0 -1.4615327932248983 0.8026811015050965 0.7262784336102159 0 -1 0
165 55 2 0 -1.025104440341262 0.9557418727701705 0.8027012943720147 0 -1 0
166 55 4 0 -0.5983884220206424 1.1043878635017954 0.8782956397155868 0 -1 0
118 39 4 0 -4.606633081520664 4.159947191780762 0.3255854780861185 2 0 0
117 39 2 0 -4.6813539685506225 4.620778547302243 0.3874120626092177 2 0 0
119 39 4 0 -4.753276824269701 5.071338532276001 0.4565244627678666 2 0 0
451 150 4 0 -4.53627740988209 5.373130295584308 0.267286993675123 1 -1 1
56 18 4 0 -0.33444315789181633 0.8168022353049453 0.966972490085225 -1 -2 1
418 139 4 0 -5.383581751433199 2.207975672857674 1.1026145705868888 2 0 0
301 100 4 0 -4.992550879959186 2.251698482722169 1.172413216718212 1 -1 0
300 100 2 0 -4.66850289226455 2.5096013852546895 1.3372730121632763 1 -1 0
302 100 4 0 -4.345267663221635 2.761358351981378 1.496331062114911 1 -1 0
293 97 4 0 -4.105881553057181 3.0611411228613 1.351252079027355 1 -1 0
291 97 2 0 -3.6863533495327605 3.170496321771471 1.4007416093375031 1 -1 0
292 97 4 0 -3.2566507101935187 3.2868351571342016 1.4524275484186253 1 -1 0
122 40 4 0 -3.161729625309149 3.6814736811933537 1.5280184321567658 1 -1 0
120 40 2 0 -2.867827778481218 4.0108733507958325 1.3631101722448475 1 -1 0
121 40 4 0 -2.590042191823558 4.302006697782642 1.2039448159519415 1 -1 0
364 121 4 0 -2.2264409906224087 4.337079911972126 1.0472762416811614 1 -1 0
363 121 2 0 -1.846789599384182 4.501252620300352 1.1720732948051227 1 -1 0
365 121 4 0 -1.474067630803706 4.65286506592065 1.3011486634037315 1 -1 0
95 31 4 0 -1.2151859691227562 4.752076918359076 1.606042724733327 0 -1 -1
19 6 4 0 -1.6805149052620183 5.507946425489517 0.9241078310180546 -1 -2 0
259 86 4 0 -1.5861636334279599 1.9236153808765168 2.4412282868110298 1 -1 0
258 86 2 0 -1.5735224588986405 2.386217933008494 2.320519685835764 1 -1 0
260 86 4 0 -1.5578395066203554 2.809823120400364 2.208825260456189 1 -1 0
445 148 4 0 -1.5033817206397693 3.0477652674993108 1.8977603391176103 2 0 1
444 148 2 0 -1.2585896410981956 3.4453719958798255 1.8773520278543883 2 0 1
446 148 4 0 -1.0291715178806191 3.813347303281474 1.849223668864182 2 0 1
140 46 4 0 -0.6844840131919696 3.926139435194524 2.097639279494909 1 -1 0
138 46 2 0 -0.35599350594091206 4.236692905227922 2.1338096648294487 1 -1 0
139 46 4 0 -0.029459339981515953 4.548330776537349 2.1655838878727014 1 -1 0
94 31 4 0 -1.4143750208552772 4.783723807124487 2.5191300473072724 0 -1 -1
93 31 2 0 -1.3184212894550855 4.772347343399038 2.067753328513355 0 -1 -1
12 4 2 0 -1.1287686360147973 0.4716528773974753 3.4550621487938313 -1 -2 -1
14 4 4 0 -0.9910250194968118 0.8637776248125171 3.2814994773662454 -1 -2 -1
13 4 4 0 -1.2914828908854448 0.06687487891317101 3.628407362177726 -1 -2 -1
76 25 4 0 -1.6711059152980483 1.7542044608562612 2.8012199166076313 1 0 1
75 25 2 0 -1.4456749144176646 1.4150292704673246 2.8821623932693337 1 0 1
77 25 4 0 -1.1887474601232713 1.046558196111989 2.9661445279158256 1 0 1
155 51 4 0 -1.598777303032465 4.657748408643077 2.849174068314709 1 0 0
153 51 2 0 -1.4371951126132707 4.916584756183712 3.1813833298571614 1 0 0
154 51 4 0 -1.2726592657133535 5.159689103515478 3.5000531962156094 1 0 0
349 116 4 0 -4.585491992110093 0.06404188718882509 4.264680393062622 1 -1 0
339 113 2 0 -1.9403976778137344 0.03734716279040917 4.094867801226267 1 -1 0
340 113 4 0 -1.6631025737491516 0.1656906860876708 3.7233541468815536 1 -1 0
235 78 4 0 -4.263507404167381 4.584531838476599 4.535386771970939 1 -1 0
236 78 4 0 -5.154556606099431 4.792810733660992 4.591837966199692 1 -1 0
234 78 2 0 -4.7103459180737755 4.697170550445498 4.565463960447514 1 -1 0
149 49 4 0 -1.1637104798223685 5.330167496643875 3.8615202913786133 1 0 0
148 49 4 0 -0.5402154977450113 5.486688908436462 4.419539244139677 1 0 0
147 49 2 0 -0.8486056689956287 5.4078597192723725 4.137429360235179 1 0 0
268 89 4 0 -5.420968696275533 4.553307109849867 4.767461530026455 2 -1 0
112 37 4 0 -4.1204914764978495 4.729158625160127 4.905369884885235 0 -1 1
111 37 2 0 -3.8121443574093976 4.850189128844952 5.219616082965682 0 -1 1
113 37 4 0 -3.518168574829246 4.9675085543726345 5.516566677423838 0 -1 1
399 133 2 0 3.644557724955617 -4.144894189405136 -4.702207275534424 0 0 2
401 133 4 0 3.646190612953693 -4.485642960682835 -5.02417539955376 0 0 2
37 12 4 0 4.9347853187126125 -3.7160547394337513 -5.416792506723934 0 0 1
252 84 2 0 1.8067436471370808 -3.477483902548579 -5.514553916487856 -1 -1 1
428 142 4 0 2.1013111614204067 -3.475307425003909 -4.814513817169139 0 0 1
254 84 4 0 2.1213513442794536 -3.402125827400663 -5.221478645405541 -1 -1 1
257 85 4 0 4.575969233297212 -3.5119415943627996 -5.474011733970768 1 1 1
414 138 2 0 2.5510580595513064 -1.915568305355705 -5.117200126642715 2 1 0
415 138 4 0 2.820465712087173 -2.1210311786235754 -5.420447001179397 2 1 0
186 62 2 0 1.469165973659833 -1.7611599774716846 -4.675626109664316 2 1 0
188 62 4 0 1.8624025924202225 -1.6375951998205815 -4.847670549423087 2 1 0
416 138 4 0 2.2747356797218465 -1.7062685428068982 -4.813982739843112 2 1 0
427 142 4 0 1.8562378860789863 -3.685256576712295 -3.9804172505349857 0 0 1
400 133 4 0 3.639546308939763 -3.797511831685178 -4.374327274051838 0 0 2
79 26 4 0 3.826465916308721 -3.9770289360805773 -4.04976277924051 0 0 0
78 26 2 0 4.0803933918220805 -4.175650930773146 -3.6851255776579697 0 0 0
426 142 2 0 1.9827801703435615 -3.575794449242756 -4.395325689094451 0 0 1
26 8 4 0 1.980857139500264 -3.403556962378778 -3.707687671228946 0 0 0
106 35 4 0 0.8031292267552699 -1.9580843188557289 -4.17155721044305 0 0 0
105 35 2 0 0.4081883850841219 -1.9148401652616598 -4.368536183943028 0 0 0
107 35 4 0 0.03235796757722387 -1.8830688740814487 -4.561089817607602 0 0 0
187 62 4 0 1.0583053701937253 -1.880283192675642 -4.5046584503922205 2 1 0
156 52 2 0 4.218353135198282 -5.135940250198003 -3.11840210198993 1 1 -2
157 52 4 0 4.116822557335474 -5.51324593149785 -2.8994701392691673 1 1 -2
158 52 4 0 4.314321946597938 -4.771182084021823 -3.320130766184963 1 1 -2
25 8 4 0 1.7256310025456267 -3.6905276155011366 -2.885745824786697 0 0 0
80 26 4 0 4.297282253438474 -4.354620367581884 -3.363136211546018 0 0 0
24 8 2 0 1.8516871891411704 -3.543271061927064 -3.293414989397642 0 0 0
309 103 2 0 0.7172691004568597 -2.5295635970537145 -3.1523987723314932 0 0 1
310 103 4 0 0.28799757746210286 -2.559579736475071 -3.0672126881403887 0 0 1
311 103 4 0 1.17529351313771 -2.503255093107824 -3.2286981656208846 0 0 1
289 96 4 0 1.5043611912607142 -2.6014689537261035 -3.481910956753698 -1 -1 0
288 96 2 0 1.9080076372334034 -2.4244524039174484 -3.3399924491017936 -1 -1 0
290 96 4 0 2.329770319286129 -2.239657704699154 -3.206124177793007 -1 -1 0
41 13 4 0 2.413805672550825 -2.060946686256219 -2.8465889309950145 2 0 1
39 13 2 0 2.8507963364400632 -2.1286741532824633 -2.8273804355758125 2 0 1
152 50 4 0 3.6546417492339396 -2.068361566651066 -2.8294933823522226 2 0 1
40 13 4 0 3.2936481089994443 -2.2107776207928764 -2.8088215876386347 2 0 1
150 50 2 0 3.9229743388084044 -1.6952446074887995 -2.878014913523363 2 0 1
151 50 4 0 4.19038969181567 -1.322651042544348 -2.9240916982873637 2 0 1
405 135 2 0 4.8086550011373435 -1.0614619095043878 -2.766676023113011 1 0 1
406 135 4 0 5.156100360884332 -0.8335521263957038 -2.9320779199439606 1 0 1
262 87 4 0 4.774277054956104 -4.392998256094236 -1.861153314684 0 0 0
193 64 4 0 2.073586527624496 -3.5489323629043863 -2.6913840264253164 0 0 0
192 64 2 0 2.363018363464911 -3.3663949552392545 -2.3367206509919893 0 0 0
194 64 4 0 2.6312767959466834 -3.2013740495209215 -2.000922162425996 0 0 0
407 135 4 0 4.4543713623356735 -1.298591350961658 -2.599680306484979 1 0 1
245 81 4 0 5.485630343442248 -0.6937328396511031 -2.728965052732501 0 -1 0
261 87 2 0 4.693417574316052 -3.9565444064840043 -1.6848547454386136 0 0 0
135 45 2 0 0.8984394325354677 -3.3422339844736992 -1.2686302113230896 0 0 0
136 45 4 0 0.46048382826427847 -3.3185563474818633 -1.3059485966273945 0 0 0
164 54 4 0 0.26759241508581066 -3.179939038555124 -1.661219160307407 1 1 0
137 45 4 0 1.3410998546746642 -3.363463782065982 -1.2272977595940278 0 0 0
184 61 4 0 2.585593342126022 -3.145605363169867 -1.6192765748502982 -1 0 0
183 61 2 0 2.422226012846794 -2.836829613386543 -1.3673168389282546 -1 0 0
424 141 4 0 4.55909363538617 -3.1310520304746707 -1.5109570766576672 0 0 1
263 87 4 0 4.625810590016973 -3.5523830613320433 -1.514472802139541 0 0 0
185 61 4 0 2.252512227838859 -2.5115781209246237 -1.0890780299346288 -1 0 0
109 36 4 0 4.677655748537796 -2.0040014379073168 -1.1408455961360824 0 0 1
425 141 4 0 4.750945391650956 -2.232772089222174 -1.4787874683776812 0 0 1
423 141 2 0 4.652857479291652 -2.6604955867113387 -1.494870779044903 0 0 1
108 36 2 0 4.886554844247642 -1.6009011849910788 -1.2211024648552717 0 0 1
110 36 4 0 5.092035596366034 -1.1983644880790116 -1.3010861276322503 0 0 1
242 80 4 0 5.1015906836514935 -0.8054468991053314 -1.3497589892415798 1 0 0
240 80 2 0 5.49207044823929 -0.6570457524978677 -1.2653828747852414 1 0 0
370 123 4 0 1.577168750766707 -2.5805785972846964 -0.04255096174990669 2 1 -1
369 123 2 0 1.7315856267967273 -2.56841511011764 -0.46904136287541487 2 1 -1
371 123 4 0 1.9042828678027819 -2.5508236412088783 -0.9087569294836895 2 1 -1
59 19 4 0 0.30287886507755957 -1.9241025232013063 0.5855381954274934 0 0 1
50 16 4 0 1.7783982800127633 -2.6066859828394886 0.2899237274875528 0 0 0
48 16 2 0 1.9463281684105391 -2.69780473029124 0.7245214844302428 0 0 0
342 114 2 0 0.8410378723245131 -1.3152540541479691 0.47857432520204224 -1 -1 1
343 114 4 0 0.5944033321424387 -1.6534056115392657 0.6588820411546461 -1 -1 1
344 114 4 0 1.090002209833692 -0.9847751921340988 0.3135075998957797 -1 -1 1
430 143 4 0 1.3402386109692763 -0.678405204439902 0.26083144521326496 0 0 1
429 143 2 0 1.7970455263849754 -0.6528510925297697 0.24519660672297316 0 0 1
431 143 4 0 2.269293365834436 -0.6398296960956715 0.22148602024843722 0 0 1
248 82 4 0 2.5670433703663003 -0.3987941641613082 0.24285897810342671 0 -1 0
246 82 2 0 2.86120399771655 -0.08612009680249244 0.09277065807299945 0 -1 0
49 16 4 0 2.1172507027224983 -2.7895487915258235 1.1494785174247033 0 0 0
220 73 4 0 2.229474588525597 -2.6062962871995854 1.4844060749299475 0 0 0
219 73 2 0 2.418086729458383 -2.2600129757834053 1.6837183841756875 0 0 0
272 90 4 0 0.15201998076947199 -5.2996333932391275 2.5129869346681124 -1 -1 0
221 73 4 0 2.6067436281149474 -1.9013804371507042 1.8767165458831716 0 0 0
388 129 4 0 3.525258400278692 -0.5202047385331943 2.762192587095698 0 -1 0
387 129 2 0 3.747221817923564 -0.23463437569719314 2.4862390893114563 0 -1 0
270 90 2 0 0.4012989350538261 -5.129967622876441 2.8326560101601794 -1 -1 0
271 90 4 0 0.6566336314968311 -4.952384943651488 3.156360267387405 -1 -1 0
314 104 4 0 0.8016164526733025 -4.5991403699896445 3.3134868884703463 0 -1 -1
312 104 2 0 1.0176789762758878 -4.420261910649426 3.632276951662724 0 -1 -1
132 44 2 0 3.260833955368523 -0.9244020559794572 3.4886468882000967 0 0 0
133 44 4 0 3.3217901639321346 -0.7226963737919192 3.0869082867477387 0 0 0
91 30 4 0 0.6977401123393392 -5.320620666126086 4.283828120986143 1 0 0
90 30 2 0 0.2502531958280345 -5.360851254358488 4.3797519650336545 1 0 0
287 95 4 0 0.7995912739955395 -5.312854542906401 3.8980523977232293 0 -1 -1
331 110 4 0 1.1577663695022382 -3.998347360252281 4.312571535888096 -1 -1 0
313 104 4 0 1.2634315238996754 -4.2262075964960575 3.98292316888094 0 -1 -1
44 14 4 0 1.8487519297858386 -1.605626444112974 4.5239615250066825 0 0 -1
35 11 4 0 2.063971400487384 -1.7507962726374786 4.219897414452844 0 0 -1
33 11 2 0 2.4723226617386507 -1.5409060420448437 4.099745009162656 0 0 -1
34 11 4 0 2.880806041340711 -1.3481662023715861 3.9817723412803963 0 0 -1
134 44 4 0 3.2005664195474965 -1.1206568711898255 3.8634158497567297 0 0 0
274 91 4 0 4.531751312303336 -1.3077986950919565 4.505030117311793 0 0 0
422 140 4 0 4.892556240898371 -1.1370548182845281 4.5841317860221045 0 -1 0
304 101 4 0 3.646434697369723 -0.08043693288563425 4.309116022001869 0 -1 0
303 101 2 0 3.910842215785922 -0.44018674816181136 4.2752586328127 0 -1 0
305 101 4 0 4.196911623191856 -0.8286486312528627 4.240253965973188 0 -1 0
52 17 4 0 3.4556248723632814 -5.194499431060295 5.2006491999110755 0 0 -1
51 17 2 0 3.5644949222153857 -4.787207266859721 5.330044430244604 0 0 -1
352 117 4 0 3.72983503032878 -5.323147037852954 4.941769816666201 0 0 0
330 110 2 0 1.2310954648063817 -3.6866621418691383 4.62246505866002 -1 -1 0
53 17 4 0 3.675520898295768 -4.377982604758054 5.463502702218709 0 0 -1
256 85 4 0 3.9094344007999604 -4.066544639300692 5.31912623627841 1 1 0
255 85 2 0 4.232381868787326 -3.8002913112298655 5.445116083804122 1 1 0
332 110 4 0 1.3032317660773085 -3.357210391684855 4.94020393235935 -1 -1 0
253 84 4 0 1.4681274122869548 -3.5517730490124406 5.2284845699643645 -1 -1 0
36 12 2 0 5.349990266141657 -3.5795777968896747 5.496433737839301 0 0 0
359 119 4 0 2.7894277848673577 -2.1241117782835426 5.252568893525283 1 0 -1
357 119 2 0 3.181557387915535 -2.074026374881612 5.041621061609628 1 0 -1
358 119 4 0 3.591436540746213 -2.0199733740871104 4.814473183229944 1 0 -1
275 91 4 0 4.004067776289273 -2.00625380966653 4.815000510301259 0 0 0
397 132 4 0 0.7863431821521081 -1.2024365993896158 5.025068748657584 1 0 0
396 132 2 0 0.40985390805562627 -1.2815388462895774 5.226698981863907 1 0 0
398 132 4 0 0.0007381299542021935 -1.3688930170974087 5.441901280395142 1 0 0
42 14 2 0 1.4561583810775032 -1.5518693753184047 4.75424988016741 0 0 -1
43 14 4 0 1.0377814005434 -1.5033202744311245 4.980520910976927 0 0 -1
273 91 2 0 4.279733734033949 -1.6463812340614608 4.654567022444524 0 0 0
420 140 2 0 5.153044038473555 -0.7432344440837504 4.6068546348988315 0 -1 0
421 140 4 0 5.396004584911679 -0.37216656282862637 4.63213967052537 0 -1 0
145 48 4 0 0.517900240270591 2.611114906804306 -4.2691375780811285 1 0 0
368 122 4 0 0.52763723932497 2.2702711750621374 -4.05495165131329 2 0 1
144 48 2 0 0.6993862716144719 2.9732066248774034 -4.427177541207182 1 0 0
146 48 4 0 0.9103858801226234 3.3877967307919326 -4.60414397695434 1 0 0
329 109 4 0 1.2138451632141036 3.4811065112368196 -4.354174748699643 1 -1 1
327 109 2 0 1.273819834847739 3.9453119410641273 -4.290552085922427 1 -1 1
328 109 4 0 1.3349663430793113 4.37939347477815 -4.24921351609103 1 -1 1
409 136 4 0 0.8639239725291397 1.4073898803140663 -3.278177506452161 2 0 0
367 122 4 0 0.5432601562715638 1.6550517877476985 -3.3116985847927913 2 0 1
408 136 2 0 0.9301171711211991 1.165336074342206 -2.934269787465122 2 0 0
366 122 2 0 0.5365320535728895 1.9571310110628124 -3.6749906677979824 2 0 1
410 136 4 0 0.99966295161083 0.9006315248298105 -2.5630173066106225 2 0 0
395 131 4 0 1.0930295691241794 0.9508937007491811 -2.1797688922504808 2 0 1
127 42 4 0 3.6232877892505035 4.851476627772203 -2.0459417395687867 0 -1 0
126 42 2 0 3.8127077149263693 5.150852624592551 -2.287711477522908 0 -1 0
128 42 4 0 4.000078530186609 5.459466031284523 -2.5320648418677183 0 -1 0
393 131 2 0 1.2094956210812704 0.7478690150699396 -1.8015895955400945 2 0 1
394 131 4 0 1.3219455147191637 0.541344796691619 -1.429353141816109 2 0 1
29 9 4 0 1.645180202201054 0.33518946552275164 -1.253954672063462 0 -1 1
27 9 2 0 2.041159773113619 0.37122162094552813 -1.0259740487093305 0 -1 1
377 125 4 0 2.4493287693929267 3.238102231047468 -1.0020200573432465 0 -1 0
67 22 4 0 2.7227682190905833 3.582133620194214 -1.0037178447584827 0 -1 1
372 124 2 0 0.4946044799300955 4.446265820092125 -1.46178418722124 0 -1 0
374 124 4 0 0.06015842055545306 4.490782318755968 -1.5504751944096435 0 -1 0
373 124 4 0 0.9459218412184232 4.408315719156728 -1.3682630135426423 0 -1 0
323 107 4 0 1.1213871683219052 4.582311870709993 -1.065654250369568 0 -1 0
66 22 2 0 3.018783774789937 3.8058571343572103 -1.2454154231632097 0 -1 1
68 22 4 0 3.3358414225312183 4.0389986586756015 -1.5005190222095273 0 -1 1
2 1 3 0 3.483968674207623 4.315840068997004 -1.2492875296398411 0 -1 0
321 107 2 0 1.490915059828204 4.837316083962905 -1.180921501628596 0 -1 0
356 118 4 0 2.257083258225718 5.073316138843189 -1.319605241203103 0 -1 0
354 118 2 0 2.6743170263220586 5.093063118690764 -1.1625291704318617 0 -1 0
322 107 4 0 1.8491213255903345 5.079219790772275 -1.2927436550581826 0 -1 0
355 118 4 0 3.0920197975445474 5.111223020367453 -1.0095286959048408 0 -1 0
4 1 3 0 3.5052836421066944 5.027962579852672 -1.0696885208386773 0 -1 0
1 1 1 0 3.728117416741113 4.69927809603488 -1.2593264813769354 0 -1 0
3 1 3 0 3.8157175812410093 4.803843884608161 -1.689690319681148 0 -1 0
5 1 3 0 4.136454507642548 4.633776121735827 -1.0354833348989496 0 -1 0
28 9 4 0 2.4508593130483227 0.4040500079894951 -0.8187294429848464 0 -1 1
247 82 4 0 3.142274742058752 0.21349462274208175 -0.041653870463704834 0 -1 0
438 146 2 0 0.14379050991247855 1.8955183003150937 -0.8868296659553421 0 -1 0
440 146 4 0 0.4907812717777773 2.1643070194442444 -0.8844011314361202 0 -1 0
325 108 4 0 0.7802518896937309 2.4350767242868354 -0.8202663334562326 0 -1 0
324 108 2 0 1.2097260231934595 2.4336496884701777 -0.8056968307248331 0 -1 0
326 108 4 0 1.648972436459041 2.4290423805451695 -0.7895552488021851 0 -1 0
376 125 4 0 2.0558805712884745 2.4787046511504363 -0.7589953004405041 0 -1 0