LAMMPS data file via write_data, version 4 Feb 2025, timestep = 8500000, units = lj

4530 atoms
4 atom types
3030 bonds
1 bond types
1575 angles
2 angle types

-11.906313 11.906313 xlo xhi
-11.906313 11.906313 ylo yhi
-11.906313 11.906313 zlo zhi

Masses

1 1
2 1
3 0.1
4 0.1

Bond Coeffs # harmonic/omp

1 100 0.45

Angle Coeffs # harmonic/omp

1 100 180
2 100 109.471

Atoms # full

1591 521 2 0 -8.936885240525633 -10.985375531421031 -11.286404521880614 0 1 0
1592 521 4 0 -9.362913575034295 -10.846569989075979 -11.479560436178708 0 1 0
1458 476 4 0 -9.599296355885071 -10.525472812249557 -11.484323911568179 0 1 0
1593 521 4 0 -8.521639248777127 -11.121004654673682 -11.089783835390822 0 1 0
775 249 2 0 -8.066793057821478 -11.713395440210551 -11.257695416562848 0 1 1
777 249 4 0 -8.430709747450305 -11.51794384488659 -11.054981624264244 0 1 1
1693 555 2 0 -7.211552675600687 -11.80264351441283 -10.536108496512178 0 1 0
1269 413 4 0 -5.884326261300762 -11.471940744868464 -11.464222755559708 0 1 0
1267 413 2 0 -6.254650360990461 -11.667621259837272 -11.299819003482245 0 1 0
1268 413 4 0 -6.6508689623687385 -11.856606028272918 -11.146313423630234 0 1 0
1811 594 4 0 -5.510057071896355 -11.603776835995534 -11.461184652665773 0 1 1
1810 594 2 0 -5.188393685754292 -11.896148228255829 -11.25479420029403 0 1 1
1709 560 4 0 -3.509559405239313 -11.309360389322805 -10.651262479305096 0 0 0
1708 560 2 0 -3.6911918970642965 -11.728842507407775 -10.563490986722778 0 0 0
217 63 2 0 -10.915082158632062 -9.743587223491103 -11.194588486944848 0 0 0
219 63 4 0 -11.365439965759819 -9.75488144732102 -11.361803153188578 0 0 0
218 63 4 0 -10.499489613139371 -9.737574672663218 -11.052522279277492 0 0 0
3348 1106 4 0 -11.479853774860596 -10.041300887591612 -11.62996142400642 1 0 1
1456 476 2 0 -9.85236647632207 -10.224104976466561 -11.248094889587556 0 1 0
1457 476 4 0 -10.129367258651149 -9.910828028413984 -11.012620918861321 0 1 0
2412 794 4 0 -5.520128253523601 -10.354584081724258 -11.633287909440726 1 0 0
2410 794 2 0 -5.150980888358917 -10.374116579155348 -11.84632935846894 1 0 0
3311 1094 4 0 -5.891700134974472 -10.290458162649571 -11.795827521333365 1 0 1
3330 1100 4 0 -0.8293679228389855 -8.905042511151104 -11.459166371707184 0 1 1
1802 591 4 0 -0.6147221452643382 -9.155236242656386 -11.65560830582867 0 1 1
859 277 2 0 -6.159664445464074 -8.428789168428564 -10.51570405734026 0 0 1
1768 580 2 0 -6.071381407927262 -8.214504196214039 -11.654708463188024 0 0 1
861 277 4 0 -6.162716619587242 -8.481741821391692 -10.947321002954999 0 0 1
1770 580 4 0 -6.250691028032874 -8.211619015778913 -11.247086002812003 0 0 1
4121 1364 4 0 -1.697050575356082 -8.13356924864075 -11.42334927972748 0 1 1
4120 1364 2 0 -1.9625110730603095 -7.827307749483074 -11.64789140212701 0 1 1
3329 1100 4 0 -1.4701879928385826 -8.332063300413692 -11.67575684224516 0 1 1
3328 1100 2 0 -1.1524986229194625 -8.606018007815445 -11.5664605604645 0 1 1
930 300 4 0 -11.31154961972016 -6.281468091723364 -10.933683596447807 0 0 1
129 33 4 0 -11.18857832560565 -6.356563158947761 -11.30040782498981 0 0 0
127 33 2 0 -10.967061742574382 -6.589663147458188 -11.636932453614257 0 0 0
928 300 2 0 -11.6804206344487 -6.084951105188503 -10.744205216851853 0 0 1
3406 1126 2 0 -11.203237897836969 -11.767977158640127 -0.5000419230571741 0 0 0
211 61 2 0 -6.880531064177192 -5.969614571626562 -10.877812940403269 -1 0 0
2808 926 4 0 -6.046027656970264 -6.115527402857443 -10.922421666305805 0 0 0
213 61 4 0 -6.4275864163247824 -6.065176700837464 -10.841721421949066 -1 0 0
212 61 4 0 -7.304769780577278 -5.8688530196944475 -10.907018112271224 -1 0 0
2806 926 2 0 -5.605527808764537 -6.188268452303177 -10.852490682607796 0 0 0
2415 795 4 0 -4.819877940618629 -6.335143292401892 -10.853003819651349 0 0 0
2807 926 4 0 -5.198876400491788 -6.264797476500522 -10.785570436121974 0 0 0
2413 795 2 0 -4.476082471098679 -6.381025790545663 -11.108157619715788 0 0 0
2414 795 4 0 -4.102047674119486 -6.407871923204303 -11.37937205459529 0 0 0
3932 1301 4 0 -3.9491437061154144 -6.556785036354188 -11.716997750396605 0 1 0
3931 1301 2 0 -3.8855380921894924 -6.9765742738831635 -11.841834020241334 0 1 0
2621 864 4 0 -9.561655268197594 -4.7855880037518235 -11.689114367439718 1 0 0
4146 1372 4 0 -9.242081632665267 -4.98246261764399 -11.60875246526565 1 0 1
4144 1372 2 0 -9.019251600014615 -5.242249918953764 -11.302223465201697 1 0 1
2582 851 4 0 -7.6297569409724 -6.015961843552595 -11.055451792483305 0 0 0
2581 851 2 0 -8.017374064682043 -5.811785971388124 -10.97205380148054 0 0 0
2583 851 4 0 -8.405842675481617 -5.598447148426583 -10.877896927489637 0 0 0
4145 1372 4 0 -8.786163849627306 -5.503916988074465 -10.995157397933937 1 0 1
323 98 4 0 -1.967353850080326 -5.314600565291115 -11.134140222755025 0 0 0
3733 1235 2 0 -2.4638260772863037 -4.634056537365001 -11.146568811973657 0 1 0
3734 1235 4 0 -2.276881324109644 -5.040167985379995 -11.043664612178835 0 1 0
322 98 2 0 -1.8813475021650117 -5.5395945494747805 -10.76355555775179 0 0 0
148 40 2 0 -7.922684761262562 -3.2413100534567403 -10.353817188731956 0 0 0
149 40 4 0 -7.868838572191464 -3.142218167202657 -10.769060253116253 0 0 0
3735 1235 4 0 -2.639023460103038 -4.247652021144735 -11.241884563175057 0 1 0
4209 1393 4 0 -2.4066859156190263 -3.202671282288684 -11.21440184369882 0 0 1
3520 1164 2 0 -2.6718122221644465 -3.4909472301156033 -10.528992328480047 0 1 0
3522 1164 4 0 -2.6893064520567345 -3.253981320399041 -10.928349707473082 0 1 0
4207 1393 2 0 -1.9758602185877026 -3.2584496991857383 -11.315425629141263 0 0 1
1370 447 4 0 -2.637169916440335 -4.132509614426698 -11.625594556731938 0 1 0
4208 1393 4 0 -1.5308212866945168 -3.3192489842677744 -11.420384645091428 0 0 1
158 43 4 0 -7.761294242184183 -2.8291612908840116 -11.025710831516838 0 0 0
157 43 2 0 -7.527268077768843 -2.5932813284620506 -11.315007078303289 0 0 0
159 43 4 0 -7.281414600777517 -2.346659742187099 -11.619874849796792 0 0 0
1352 441 4 0 -8.80343831201119 -0.11202248495312858 -5.8095859980814355 0 0 0
2218 730 2 0 -6.912921305237582 -1.804122958971549 -11.865639640158353 0 0 1
3549 1173 4 0 -3.84481380366514 -1.756561790457311 -11.841504698219437 0 0 0
3547 1173 2 0 -3.620379939784946 -1.7575999322859048 -11.47023462681695 0 0 0
3548 1173 4 0 -3.384951834252745 -1.763498146465661 -11.087754036540602 0 0 0
313 95 2 0 -4.652399025783172 -0.4248345232386298 -11.496953443835418 0 0 0
315 95 4 0 -4.903121272877006 -0.5488320061215908 -11.861262724137571 0 0 0
3794 1255 4 0 -3.5513509767277935 -1.5216152629969915 -10.805697715303976 0 0 0
1746 572 4 0 -4.008778809949967 -0.33480394802794256 -11.093251583715926 0 0 1
314 95 4 0 -4.42167294441285 -0.3073110218790109 -11.158963477673412 0 0 0
3793 1255 2 0 -3.2579988210255832 -1.3136403921221136 -10.498813987634177 0 0 0
1695 555 4 0 -7.610674775652683 -11.803597967356163 -10.294173988836288 0 1 0
4178 1383 4 0 -3.566680306856939 -10.927577690423947 -10.520008204527295 0 0 1
4177 1383 2 0 -3.3242173636349754 -10.67509291313226 -10.19988086485235 0 0 1
3527 1166 4 0 -11.656477988717597 -3.4395463731368543 -1.2486508690975278 1 0 0
3526 1166 2 0 -11.762497413723386 -3.833917836250471 -1.3906119406008532 1 0 0
1138 370 2 0 -0.4007494289653714 -0.2939412971744428 -1.1422053418610874 0 0 0
3807 1259 4 0 -8.70291502552363 -9.879961764740704 -10.369878864718912 1 1 0
3882 1284 4 0 -8.457957836530891 -9.682271250526812 -9.26014634036179 0 1 0
3805 1259 2 0 -8.683160406450845 -9.683371980962054 -9.96545319529912 1 1 0
3806 1259 4 0 -8.652786130428229 -9.475686909030284 -9.557150728160742 1 1 0
814 262 2 0 -7.066481266903799 -9.698312375933508 -9.083761180039794 0 0 1
815 262 4 0 -7.078886341026586 -9.255736131354002 -9.115326839960437 0 0 1
924 298 4 0 -6.917728553656472 -9.134723939139228 -9.451381378028131 0 0 1
816 262 4 0 -7.0620987366459325 -10.160865432532573 -9.055540202377484 0 0 1
4179 1383 4 0 -3.0868697567507266 -10.412700801225323 -9.904494437874055 0 0 1
2721 897 4 0 -3.0862234999044733 -10.039619941865778 -9.817126313213485 0 0 0
2719 897 2 0 -2.766777030160281 -9.735090480208699 -9.817841486138661 0 0 0
2720 897 4 0 -2.4449186481888323 -9.420250483347575 -9.819042175660021 0 0 0
4187 1386 4 0 -2.083341900365305 -9.36619460077896 -9.62015040703421 0 1 1
4186 1386 2 0 -1.6537928453499142 -9.43524717452043 -9.459540627321777 0 1 1
4375 1449 2 0 -0.48017239976512 -9.518015551166885 -9.396002675491232 0 1 1
4377 1449 4 0 -0.8758665123194109 -9.526236865223053 -9.184804221802235 0 1 1
4188 1386 4 0 -1.2482566311599004 -9.50570204156373 -9.309772306586577 0 1 1
4376 1449 4 0 -0.09196455570570956 -9.506785547206542 -9.617546804158483 0 1 1
922 298 2 0 -6.573693906098703 -8.860845423460098 -9.594573660633785 0 0 1
923 298 4 0 -6.210631678455017 -8.578959763134149 -9.730893394699937 0 0 1
860 277 4 0 -6.155834287136055 -8.379564965219162 -10.068679593535716 0 0 1
1688 553 4 0 -3.038485427452682 -7.947498751401522 -9.29502598513311 0 1 0
1687 553 2 0 -3.079023006770457 -8.278732572575915 -8.993012496333767 0 1 0
3360 1110 4 0 -3.016449906205092 -7.569202706273496 -9.393029763930098 0 0 1
3358 1110 2 0 -2.736051220598535 -7.218771849085979 -9.481092333194804 0 0 1
2989 987 2 0 -2.24398999250269 -6.17893082079591 -9.859665005324839 0 0 1
2991 987 4 0 -2.36805752618725 -6.494875569728497 -9.5549521048731 0 0 1
3359 1110 4 0 -2.4657413218071627 -6.889363040300292 -9.57675844223826 0 0 1
193 55 2 0 -10.984018550708903 -4.537952293886523 -9.14689039824813 0 0 0
194 55 4 0 -11.06702889651405 -4.285215391221155 -9.493670538041625 0 0 0
2990 987 4 0 -2.128860010978339 -5.892196293138911 -10.156810590032187 0 0 1
324 98 4 0 -1.7957914481885782 -5.7620581859046105 -10.397060157088092 0 0 0
3011 994 4 0 -11.393403678033915 -4.054395703323454 -9.618777404534944 1 0 1
3010 994 2 0 -11.677173195589909 -3.7833293561645984 -9.840214556736527 1 0 1
514 162 2 0 -5.846620451051429 -0.35145421727486953 -0.5258457206342645 0 0 0
150 40 4 0 -7.9924965262714895 -3.335874136364637 -9.923192749581053 0 0 0
1005 325 4 0 -7.9114047762568935 -3.558474328515817 -9.604787605667891 0 0 0
1004 325 4 0 -7.814212294462651 -4.342353743684301 -9.140016795852794 0 0 0
1003 325 2 0 -7.8575492048723605 -3.9552409481435595 -9.371926130973321 0 0 0
3188 1053 4 0 -2.0108441476674086 -3.8069903562263665 -9.171563407197167 0 0 0
3521 1164 4 0 -2.655537321936598 -3.7111555317498883 -10.154332191120528 0 1 0
3189 1053 4 0 -2.4655916942348175 -3.987744241423784 -9.951208409602222 0 0 0
3187 1053 2 0 -2.2426651051623154 -3.895128536679224 -9.562352756717017 0 0 0
191 54 4 0 -0.257304681350844 -3.222656321093337 -10.183284130929177 0 0 0
3959 1310 4 0 -11.574701091608256 -1.4870170765081137 -9.754795925395984 1 0 0
123 31 4 0 -11.793085910812852 -1.6934655685650728 -10.016816019216968 0 0 0
3795 1255 4 0 -2.979425160011166 -1.116411697941074 -10.207758479664038 0 0 0
110 27 4 0 -1.8290367975501798 -2.076437430746225 -10.316051329187463 0 0 0
3486 1152 4 0 -1.9545154942471779 -1.846119792747558 -10.018281866722857 0 0 0
109 27 2 0 -1.497623011367875 -2.3156317388792047 -10.157670323278554 0 0 0
3484 1152 2 0 -2.3004071466958647 -1.5504591792354834 -10.020455275673617 0 0 0
111 27 4 0 -1.1573956725612051 -2.5556875517949833 -9.989386736945203 0 0 0
192 54 4 0 -1.1472741426488025 -2.932010390484127 -10.126902948037907 0 0 0
190 54 2 0 -0.6964752847262335 -3.079090374714318 -10.162127354863586 0 0 0
3958 1310 2 0 -11.247101634269049 -1.2321091832053812 -9.568837557141544 1 0 0
3960 1310 4 0 -10.922243845915393 -0.9769825434501356 -9.373996418962655 1 0 0
1836 602 4 0 -10.610035235980288 -0.7003166069051832 -9.331306188695326 0 0 0
1834 602 2 0 -10.177714633414686 -0.751173109143119 -9.218212801891012 0 0 0
1835 602 4 0 -9.751355109608921 -0.7961864467907607 -9.11392907928843 0 0 0
204 58 4 0 -9.383852681493087 -0.6974577765509986 -8.965523292464631 0 0 0
202 58 2 0 -9.028305195011527 -0.9473570137513494 -8.86613887646767 0 0 0
203 58 4 0 -8.658861701326183 -1.2149337626719594 -8.768848686204652 0 0 0
3485 1152 4 0 -2.6587320652843207 -1.2547138158351447 -10.022075778968297 0 0 0
3792 1254 4 0 -8.723890769061333 -11.651225889543113 -8.003152092499297 1 1 0
2772 914 4 0 -9.04571285013209 -11.805364674947835 -8.210260534622629 1 0 0
3790 1254 2 0 -8.494903802409521 -11.317602795936958 -8.152871237462334 1 1 0
3791 1254 4 0 -8.26178698362762 -10.982709668591303 -8.303676638628763 1 1 0
2670 880 4 0 -7.92110267717521 -10.780473808514008 -8.36604627091844 1 0 0
2668 880 2 0 -7.585866248395354 -10.600509772239645 -8.568036559463227 1 0 0
2669 880 4 0 -7.2281385903044155 -10.398788210691096 -8.779019797657162 1 0 0
1954 642 2 0 -3.1360426063126723 -11.371473605810635 -7.76173049190436 0 1 1
1955 642 4 0 -3.196964385965932 -11.815356431665858 -7.652655217302733 0 1 1
1956 642 4 0 -3.0683315950344925 -10.937943239945284 -7.862987666916707 0 1 1
1049 340 4 0 -3.012236637811582 -10.547168325434551 -7.915595810644611 0 0 1
1436 469 4 0 -8.790969049705895 -9.568466653172209 -8.159349286111663 0 1 0
3880 1284 2 0 -8.695427377688112 -9.717093863606776 -8.87099352839107 0 1 0
3881 1284 4 0 -8.92102942837317 -9.752795899791131 -8.488746257120814 0 1 0
1435 469 2 0 -8.659527503686691 -9.433330433779535 -7.7574629095532615 0 1 0
2442 804 4 0 -6.617783978372808 -9.392601515089398 -7.836337941465597 1 0 0
2440 804 2 0 -6.876609115543585 -9.553481113568353 -7.52220754694314 1 0 0
1048 340 2 0 -2.7553952926148235 -10.202563878539413 -8.02224508484551 0 0 1
3728 1233 4 0 -2.4507918960046067 -9.446451634457482 -8.181346648947917 0 1 0
3727 1233 2 0 -2.6067771825158648 -9.11900672789973 -8.39420558767855 0 1 0
1050 340 4 0 -2.50814991868685 -9.852771951351714 -8.137029280266352 0 0 1
481 151 2 0 -4.504125606855265 -1.2691196290122622 -0.7106715505467147 0 0 0
3438 1136 4 0 -0.11435593144807596 -9.524736884839818 -7.72937421669241 0 1 0
1689 553 4 0 -3.1205018483394524 -8.611090821956326 -8.685076463321815 0 1 0
3729 1233 4 0 -2.7544406505831303 -8.782749619583964 -8.616682111078207 0 1 0
195 55 4 0 -10.900707913108617 -4.796088119770651 -8.810625347201974 0 0 0
2903 958 4 0 -11.754561647603618 -5.5818461531013055 -7.924459111971978 1 0 1
939 303 4 0 -11.39375318300642 -5.592030446175539 -8.13159066170047 0 0 1
938 303 4 0 -11.079166069156134 -4.805713375765823 -8.440757990042314 0 0 1
937 303 2 0 -11.229242545482624 -5.1898041975437055 -8.288742068185956 0 0 1
3135 1035 4 0 -9.404416378270392 -4.4984393645717375 -7.660894679133603 1 0 0
1037 336 4 0 -8.356565056308227 -4.520273731226793 -8.068417207701822 0 0 0
1036 336 2 0 -8.088586391446054 -4.523184802402928 -8.434434529673748 0 0 0
3855 1275 4 0 -9.271295834819721 -4.1984711982931024 -7.862125031194061 1 0 0
3853 1275 2 0 -9.209634182754044 -3.8053533140194262 -8.025644031794261 1 0 0
3854 1275 4 0 -9.147573188603404 -3.381277304241786 -8.194310256794708 1 0 0
1038 336 4 0 -7.8227231969790525 -4.528709904018057 -8.796049106420348 0 0 0
2351 774 4 0 -8.812873414691557 -3.1773605842052026 -8.199746660497805 1 0 0
3799 1257 2 0 -7.234607866323577 -4.24069137729904 -7.611393237933687 1 1 0
3800 1257 4 0 -6.83390440287989 -4.279132912810457 -7.84055300556337 1 1 0
1479 483 4 0 -1.746455543671123 -3.850997579242174 -8.882730506768766 0 0 0
1477 483 2 0 -1.5112139029027334 -3.785774262277118 -8.510732275771105 0 0 0
1478 483 4 0 -1.2644425453873136 -3.7213117947634493 -8.140572094441769 0 0 0
230 67 4 0 -1.2073081409145516 -3.9247646907534413 -7.787121645205601 0 0 0
229 67 2 0 -1.2695864588647072 -3.669514824214476 -7.428702990984582 0 0 0
1343 438 4 0 -11.900277980231873 -3.0158539024250213 -7.6976936190021075 0 0 0
768 246 4 0 -11.545718503218042 -2.985764895676579 -7.5035003680652 0 0 0
2350 774 2 0 -8.673747122635517 -2.8030570171806843 -8.29234160751567 1 0 0
2352 774 4 0 -8.519062148769363 -2.406631805263971 -8.39591028668187 1 0 0
3970 1314 2 0 -8.28517243720985 -1.719856344478838 -8.487705135174894 1 0 0
3971 1314 4 0 -8.286353619275872 -2.1040159517598394 -8.256507290728306 1 0 0
3578 1183 4 0 -5.161062724902231 -2.415376498606441 -7.791405691429442 1 1 0
605 192 4 0 -5.012532109540681 -2.064675878592105 -7.902948668812831 0 0 0
604 192 2 0 -4.762882165006165 -1.7203850827480727 -8.000374914154662 0 0 0
3972 1314 4 0 -8.268296566940306 -1.3436327352257165 -8.729928770636171 1 0 0
606 192 4 0 -4.507858018661462 -1.3781251411847346 -8.095194531705388 0 0 0
1221 397 4 0 -4.533782995114414 -1.0022663936965843 -7.998192483365972 0 0 0
1219 397 2 0 -4.184122299528818 -0.7207771161715812 -8.063677073823156 0 0 0
3905 1292 4 0 -3.692444808891423 -0.27861279989339865 -7.805282486711358 1 0 0
1220 397 4 0 -3.841807021461984 -0.4373481772262761 -8.135711634551763 0 0 0
3904 1292 2 0 -3.2329842541994296 -0.20833794063197822 -7.735823102241082 1 0 0
1146 372 4 0 -1.9461086115562882 -0.7665546741763754 -8.131018721926967 0 0 0
1144 372 2 0 -1.7690628136066109 -0.39429023239681554 -8.29886859790119 0 0 0
1145 372 4 0 -1.590512969564128 -0.013585454464693829 -8.462124865252452 0 0 0
3528 1166 4 0 -11.879913317856273 -4.275535033788974 -1.5531088950645593 1 0 0
772 248 2 0 -4.4169149343084815 -10.827880673307853 -6.283969360656149 0 0 0
773 248 4 0 -4.677539440546754 -11.17481818878794 -6.47686607369131 0 0 0
1271 414 4 0 -4.7799842715724505 -11.504161899005453 -6.228933737717824 0 1 0
1154 375 4 0 -0.13953813997711337 -11.582958221102935 -6.878732495043196 0 1 0
1153 375 2 0 -0.3567157757306028 -11.190579546133478 -6.701071906630925 0 1 0
1155 375 4 0 -0.5560102241938536 -10.824784212635185 -6.546047071340742 0 1 0
1878 616 4 0 -0.7466548686111013 -10.550662499603224 -6.255933139572298 0 1 1
693 221 4 0 -10.708160959255853 -9.00640956298761 -7.168341000376347 0 0 1
1437 469 4 0 -8.527299494156718 -9.315652968310326 -7.363306093556155 0 1 0
1629 533 4 0 -8.338704724527858 -9.503063747115698 -7.060719545533808 0 1 0
1627 533 2 0 -7.867269889853231 -9.500580856404719 -7.021382603809345 0 1 0
1628 533 4 0 -7.444472689865509 -9.50050516834501 -6.986820824660794 0 1 0
2441 804 4 0 -7.161854465318981 -9.7137935166002 -7.19047822108752 1 0 0
774 248 4 0 -4.166832337201924 -10.510263266942317 -6.107424851454412 0 0 0
1 1 1 0 -4.768143704636731 -0.23205958398515622 -0.24224780148625089 0 0 0
482 151 4 0 -4.526601866749537 -0.9280107343894888 -0.39136333401008166 0 0 0
5 1 3 0 -5.012179881407896 -0.2866112115334884 -0.6081932408472848 0 0 0
4 1 3 0 -4.500968943441711 -0.5646799483458864 -0.19402285727599092 0 0 0
691 221 2 0 -11.093867366817781 -8.925911237343275 -6.961479260988639 0 0 1
692 221 4 0 -11.474369716226622 -8.848635934745838 -6.744301914321631 0 0 1
746 239 4 0 -11.803465778009485 -8.701295844763985 -6.970455915867451 0 0 1
1055 342 4 0 -10.361248720046628 -8.863607768316488 -7.0115559735958675 0 0 1
2646 872 4 0 -9.19473252280484 -8.939651257426211 -7.0026064672288095 1 0 0
1056 342 4 0 -9.489126430725172 -8.690780972392256 -7.1404449340562435 0 0 1
1054 342 2 0 -9.929425833458943 -8.779351458617436 -7.077393414581745 0 0 1
2644 872 2 0 -8.852136398127461 -8.759005298294795 -6.780540181310829 1 0 0
2645 872 4 0 -8.49872389446131 -8.58914493793006 -6.567899131832333 1 0 0
170 47 4 0 -8.162379706839566 -8.349275434670885 -6.6114589640604 0 0 0
169 47 2 0 -7.841165297850223 -8.042952784118294 -6.729072729237278 0 0 0
171 47 4 0 -7.516449714614548 -7.722872338742653 -6.855689311922115 0 0 0
103 25 2 0 -6.88780754083577 -7.925728414897579 -6.1382958565364305 0 0 0
105 25 4 0 -6.580734462564496 -7.606570937181628 -6.290593242861993 0 0 0
2343 771 4 0 -6.16866931177027 -7.645530894449812 -6.232059934702244 0 0 0
104 25 4 0 -7.194702269917411 -8.234105629891436 -5.981013228790503 0 0 0
3945 1305 4 0 -7.712849734556451 -7.391553038552928 -6.958465757614875 1 1 0
3943 1305 2 0 -7.642241612911681 -6.94795850978163 -6.94476032421152 1 1 0
3944 1305 4 0 -7.583921397387452 -6.503178113119247 -6.925169429921883 1 1 0
2750 907 4 0 -7.4224942025955585 -6.164865450079343 -6.876550276682016 1 0 0
2633 868 4 0 -4.493854322303587 -6.640094871486489 -6.208462597463123 0 0 0
2632 868 2 0 -4.883486415932853 -6.497544570272443 -6.046196104871272 0 0 0
2341 771 2 0 -5.8093458771495445 -7.490138336279581 -5.9963882193598 0 0 0
2634 868 4 0 -5.278441226755671 -6.367885135199074 -5.885618676015737 0 0 0
4212 1394 4 0 -3.159111343870277 -6.561872515983351 -6.085643540674471 0 0 0
2353 775 2 0 -3.7916241071976002 -6.5729275334133215 -6.328946948271716 0 0 0
2354 775 4 0 -4.209053239371613 -6.404691875418905 -6.298432657928391 0 0 0
2355 775 4 0 -3.367517029637346 -6.742135257702904 -6.355288863657584 0 0 0
4210 1394 2 0 -2.7273068108347096 -6.4486246852555595 -6.2019370388788575 0 0 0
4211 1394 4 0 -2.3026315216341326 -6.331893804187228 -6.333090390289114 0 0 0
3984 1318 4 0 -0.10644010786040421 -6.73535601229108 -7.0968918144162 0 0 0
4067 1346 4 0 -0.20745807156262328 -6.336802964390235 -7.052093527435032 0 0 1
4066 1346 2 0 -0.639284013135023 -6.175970057744076 -7.111235425698299 0 0 1
3133 1035 2 0 -9.538401857801805 -4.619431244526338 -7.217780326312823 1 0 0
3134 1035 4 0 -9.657976166489568 -4.722715092080568 -6.812529440743278 1 0 0
356 109 4 0 -9.397068316379986 -4.814571238981253 -6.526205643459723 0 0 0
355 109 2 0 -9.131257693518243 -4.947402555820222 -6.183513133948152 0 0 0
2749 907 2 0 -7.26972949903892 -5.851625188041894 -7.127783543262738 1 0 0
2751 907 4 0 -7.113504292969682 -5.50330881899844 -7.402172642274641 1 0 0
2372 781 4 0 -6.807594360958512 -5.235666577797308 -7.307474896260166 0 0 0
2371 781 2 0 -6.477257371166919 -4.990663870323288 -7.094308999698769 0 0 0
2373 781 4 0 -6.16593558029633 -4.767813554851824 -6.880188147319639 0 0 0
3140 1037 4 0 -5.812842711421279 -4.691324962016187 -6.748696300923479 0 0 0
3076 1016 2 0 -1.6943467116573119 -5.961597907241204 -6.745974168233747 0 0 0
3078 1016 4 0 -1.9716620619840026 -6.1447267511155985 -6.47389052443426 0 0 0
997 323 2 0 -2.535636285903425 -4.773105623919545 -6.312291115400055 0 0 1
999 323 4 0 -2.764684195141701 -4.667909720690671 -6.681347033106371 0 0 1
998 323 4 0 -2.315431879354723 -4.863874837748032 -5.943927950035474 0 0 1
3077 1016 4 0 -1.387356835147321 -5.771972704842015 -7.040318899289795 0 0 0
4068 1346 4 0 -1.0697460081509096 -6.011077864306203 -7.167196530492274 0 0 1
767 246 4 0 -10.83581094507289 -3.054170627808906 -6.929893926108175 0 0 0
3890 1287 4 0 -10.779425733464574 -3.333766659060719 -6.668808342157302 1 0 0
3889 1287 2 0 -10.594139035511388 -3.2464186646113657 -6.262683985661876 1 0 0
3801 1257 4 0 -7.612288103145699 -4.206694984901725 -7.397846890890395 1 1 0
468 146 4 0 -7.5466777142557735 -4.401633410435777 -7.0289753672026185 0 0 0
467 146 4 0 -8.212862839352589 -4.068218727863357 -6.493319787922492 0 0 0
456 142 4 0 -8.251377920981035 -3.7449122081342527 -6.219882677118683 0 0 0
466 146 2 0 -7.893175801022008 -4.2272568879087435 -6.758172378608405 0 0 0
454 142 2 0 -8.115345443813585 -3.339718175366356 -6.037614594511206 0 0 0
3139 1037 2 0 -5.469795210490412 -4.384807875692516 -6.652212327003953 0 0 0
3141 1037 4 0 -5.149557724858013 -4.083526400729965 -6.5648500711305475 0 0 0
2480 817 4 0 -4.862354001511302 -3.8789373582598663 -6.774095960943579 0 0 0
2479 817 2 0 -4.449136360157281 -3.872756236615465 -6.902003988212788 0 0 0
2683 885 2 0 -3.4224862022669273 -4.217710211161348 -6.645287389544409 0 0 0
2685 885 4 0 -3.7954789005947345 -3.9830589190726737 -6.719265246051674 0 0 0
2481 817 4 0 -4.009380997472749 -3.8626032465933835 -7.0466264775578695 0 0 0
2684 885 4 0 -3.057703890775085 -4.4379214085428655 -6.582329640355333 0 0 0
530 167 4 0 -1.4103476635027692 -3.0574291675087975 -7.164672943622421 0 0 0
231 67 4 0 -1.3347122423064612 -3.41324499847318 -7.048172231934119 0 0 0
766 246 2 0 -11.181756198068276 -3.023988580914625 -7.207788038173271 0 0 0
3577 1183 2 0 -5.246880411669562 -2.4951289130740406 -7.353360610708047 1 1 0
3579 1183 4 0 -5.327921838773232 -2.5690510113386806 -6.944351311255022 1 1 0
556 176 2 0 -4.908769041450543 -2.7955251450679945 -6.371031960688137 0 0 0
558 176 4 0 -4.9407112451398 -2.577142210457972 -6.774144454785021 0 0 0
529 167 2 0 -1.6606899620879128 -2.704522337739447 -7.030205879334177 0 0 0
2920 964 2 0 -1.9093215601585811 -1.6304848815736712 -6.876183073479907 0 0 1
531 167 4 0 -1.905026190038821 -2.3593392245116527 -6.901704932324211 0 0 0
2922 964 4 0 -1.8703750901145135 -2.018715806143794 -6.663928571500309 0 0 1
1353 441 4 0 -9.730793816807068 -0.07416438156676915 -5.916859753127137 0 0 0
3906 1292 4 0 -2.782285592306089 -0.14511513067375575 -7.6702624054808535 1 0 0
2921 964 4 0 -1.945075166852905 -1.2217971987734901 -7.09435896551509 0 0 1
1086 352 4 0 -2.0933298751945233 -0.8551083808623315 -7.111086318064839 0 0 0
1085 352 4 0 -2.5197807268231793 -0.142567816243799 -7.384682740883611 0 0 0
1084 352 2 0 -2.2965709938805676 -0.5144383149380399 -7.239051179573574 0 0 0
1270 414 2 0 -4.738008862715281 -11.836367782049226 -5.896111683015958 0 1 0
3898 1290 2 0 -0.2767859810217469 -10.549626224610524 -4.792043022357963 0 1 0
1876 616 2 0 -0.6182910385636369 -10.48019058495756 -5.82270485194513 0 1 1
1552 508 2 0 -7.67646843791537 -9.34908995923297 -4.794317467078572 0 1 0
1554 508 4 0 -7.757869182283766 -9.584825428739316 -4.428375446675653 0 1 0
3171 1047 4 0 -7.700779351019184 -9.081727648494374 -5.566197835855326 1 0 0
1553 508 4 0 -7.595114641091868 -9.087107211125243 -5.168909415283985 0 1 0
2934 968 4 0 -4.255462242681895 -10.127900243974882 -6.001422550780925 0 0 0
2932 968 2 0 -4.09742357950569 -9.739835559127338 -5.831058627307067 0 0 0
2933 968 4 0 -3.952460223757491 -9.392683101306611 -5.668772652921272 0 0 0
942 304 4 0 -3.894638956856124 -9.028864496470204 -5.811076448017113 0 1 0
1877 616 4 0 -0.49010838376262783 -10.402135874219525 -5.400831862574239 0 1 1
3899 1290 4 0 -0.27014580576188546 -10.211263795740363 -5.101312494428418 0 1 0
440 137 4 0 -0.14172654629583778 -9.0646704223237 -5.727478735389689 0 0 0
2380 784 2 0 -0.23782519011697595 -9.14269637618914 -4.934829058810167 1 0 0
2382 784 4 0 -0.2931843351263915 -9.14341321248265 -5.362538518262472 1 0 0
1297 423 2 0 -11.513398442065945 -7.601453253644062 -5.137987272224843 0 0 0
516 162 4 0 -5.4015114256696135 -0.308814109196735 -0.45243154627151766 0 0 0
3169 1047 2 0 -7.577488659457319 -8.767847500181269 -5.851800005254343 1 0 0
3170 1047 4 0 -7.472737113342395 -8.478914688533226 -6.108967081254447 1 0 0
569 180 4 0 -5.1168777390816675 -7.442073412599126 -5.538027425913507 0 0 0
568 180 2 0 -4.780843028407366 -7.699484834560546 -5.506073172611509 0 0 0
570 180 4 0 -4.419245029081031 -7.9788678302478955 -5.4740966564407225 0 0 0
940 304 2 0 -4.027555981549536 -8.670197870121022 -5.638343760446032 0 1 0
941 304 4 0 -4.174717061156104 -8.282715700154288 -5.4466639472609115 0 1 0
1298 423 4 0 -11.089551154081967 -7.42421730904194 -5.018210565207321 0 0 0
160 44 2 0 -5.9434909672757765 -5.967864591104105 -5.593687815967104 0 0 0
2342 771 4 0 -5.452062347355554 -7.332702765961712 -5.771383311630514 0 0 0
161 44 4 0 -5.676153914668074 -6.265604924182258 -5.802991885697156 0 0 0
357 109 4 0 -8.873037383866725 -5.0888594057901715 -5.839101170747305 0 0 0
2709 893 4 0 -8.660102063333584 -5.2303298409621695 -5.510843127416283 1 0 0
2707 893 2 0 -8.22603020743054 -5.261555573529206 -5.448301572450398 1 0 0
2708 893 4 0 -7.774637784628944 -5.288173511250147 -5.380644778611895 1 0 0
2274 748 4 0 -6.508470823709677 -5.519625425296816 -5.220952522670697 1 0 0
162 44 4 0 -6.210437568330738 -5.684426900876147 -5.39754712717781 0 0 0
2273 748 4 0 -7.385931779085609 -5.261775227919208 -5.360814912033438 1 0 0
2272 748 2 0 -6.925107576666362 -5.397739247895398 -5.288046412856013 1 0 0
273 81 4 0 -2.1472434825949183 -5.050701372631757 -5.645456111415294 0 0 0
271 81 2 0 -1.9412794162348703 -4.875130579337978 -5.306964277390983 0 0 0
272 81 4 0 -1.724853592739849 -4.6830029987005615 -4.950593261030668 0 0 0
3576 1182 4 0 -1.7047625864522402 -4.739047765299781 -4.551924988498997 0 0 0
660 210 4 0 -0.10330347301602896 -5.37103216111516 -4.786757855568677 0 0 0
135 35 4 0 -7.443320817910221 -0.7986524700503437 -0.666563994519201 0 0 0
658 210 2 0 -0.061928024511395396 -4.992385026690371 -5.0419708174349855 0 0 0
245 72 4 0 -11.873584534436375 -3.4950260365150565 -3.958939263927913 0 0 0
3891 1287 4 0 -10.398386373740442 -3.165058823254611 -5.845643052604531 1 0 0
2243 738 4 0 -10.753864927338725 -1.683810890696874 -5.332113642269511 0 0 0
3707 1226 4 0 -10.345946710554472 -2.8346046543477668 -5.644572747196971 1 0 0
3706 1226 2 0 -10.509519463126006 -2.4542428331656514 -5.45520224566796 1 0 0
3708 1226 4 0 -10.685667357110024 -2.062791093939567 -5.2639732703802045 1 0 0
455 142 4 0 -7.976882108365306 -2.9442011008703073 -5.857912767579441 0 0 0
264 78 4 0 -7.6546680812225105 -2.80838291127187 -5.670508893983472 0 0 0
262 78 2 0 -7.461227063539487 -2.7829389111647753 -5.251994336436193 0 0 0
263 78 4 0 -7.287876347813284 -2.759044924847694 -4.85955594891687 0 0 0
1832 601 4 0 -4.950085078072641 -2.7644800346533223 -5.6637789604152085 0 0 1
557 176 4 0 -4.874934523187095 -3.029159229365609 -5.944972912932137 0 0 0
1833 601 4 0 -4.778869030242861 -2.6662938555969395 -4.763818558125868 0 0 1
1831 601 2 0 -4.864742476542974 -2.715047418526582 -5.218486571334449 0 0 1
2244 738 4 0 -10.685077695522226 -0.8120591962512168 -5.035639440622761 0 0 0
3483 1151 4 0 -10.626744185249771 -0.6066650089754445 -4.673807417190412 0 0 0
2242 738 2 0 -10.717325004992263 -1.2470780942347954 -5.184877285123854 0 0 0
1351 441 2 0 -9.27545781715088 -0.09059832078547624 -5.869722879932313 0 0 0
659 210 4 0 -0.01739275505283002 -4.623131088392052 -5.288518910896915 0 0 0
3200 1057 4 0 -7.512046161625426 -10.472279426335257 -3.3082561179594143 1 0 0
3900 1290 4 0 -0.2763607955766767 -10.882250724151113 -4.485848188961123 0 1 0
523 165 2 0 -0.14614729638959534 -11.649054881214242 -4.252215593171365 0 0 0