LAMMPS data file via write_data, version 4 Feb 2025, timestep = 10000, units = lj

452 atoms
4 atom types
302 bonds
1 bond types
155 angles
2 angle types

-5.526003 5.526003 xlo xhi
-5.526003 5.526003 ylo yhi
-5.526003 5.526003 zlo zhi
0 0 0 xy xz yz

Masses

1 1
2 1
3 0.1
4 0.1

Bond Coeffs # harmonic/omp

1 100 0.45

Angle Coeffs # harmonic/omp

1 100 180
2 100 109.471

Atoms # full

345 115 2 0 -3.6228982377058787 -5.364074280216037 -5.517412876669034 1 0 1
347 115 4 0 -3.3552407796537285 -5.440107319820247 -5.152607535707316 1 0 1
413 137 4 0 -2.9403881150564968 -5.372996213307656 -5.177542188830639 2 0 1
411 137 2 0 -2.553694287611773 -5.201479081181673 -5.34678036462601 2 0 1
412 137 4 0 -2.182106661191786 -5.056930595792366 -5.507137444397859 2 0 1
149 49 4 0 -2.383723891516943 -3.7733031105581523 -5.044978904735702 1 1 1
147 49 2 0 -2.5423118489976426 -3.9014090882621666 -4.634393855535349 1 1 1
154 51 4 0 -2.1967315110969485 -4.003945851467512 -5.2856098148367785 1 1 1
188 62 4 0 -3.3942208901505335 -3.3225739304616586 -4.666242892037238 2 1 0
416 138 4 0 -3.1334169915154213 -3.0642015749413627 -4.827536550461776 2 1 0
414 138 2 0 -2.794523983730479 -2.7861831574413567 -4.647286101530867 2 1 0
105 35 2 0 -3.827118606600146 -4.683107953493583 -4.140812387967645 0 0 0
107 35 4 0 -3.623701057158972 -5.021973999586646 -3.979690118314381 0 0 0
436 145 4 0 -3.330655523109883 -5.158311606217523 -4.2589515490557295 2 1 1
435 145 2 0 -2.993621791991447 -5.444029962992763 -4.362614381305603 2 1 1
106 35 4 0 -4.049955055028916 -4.309514684539663 -4.32346197469519 0 0 0
187 62 4 0 -3.915867799440782 -3.931898690491084 -4.227431655926694 2 1 0
148 49 4 0 -2.6938646104917394 -4.0290511344944875 -4.2234232311101 1 1 1
92 30 4 0 -2.4478812308769924 -4.251350535115658 -3.990290454268351 1 0 1
186 62 2 0 -3.6543836944925037 -3.624566997089435 -4.449225072515894 2 1 0
359 119 4 0 -2.073630558876325 -2.6578327104744828 -4.424769013999557 1 0 0
415 138 4 0 -2.470386930367046 -2.514189675322974 -4.482648685360762 2 1 0
357 119 2 0 -1.6163819319089976 -2.7046713653525276 -4.37682594867106 1 0 0
358 119 4 0 -1.1550964178692071 -2.7529455860209806 -4.314879383292811 1 0 0
275 91 4 0 -1.0887959188958733 -2.447861638533767 -4.010564026260802 0 0 1
273 91 2 0 -0.6538239501588619 -2.3329629865919608 -4.046496029582455 0 0 1
274 91 4 0 -0.20030986071604762 -2.20679780285249 -4.085779491063102 0 0 1
295 98 4 0 -4.488789495686449 -1.715468236160223 -3.706334624044642 1 0 1
280 93 4 0 -3.251774611850378 -1.1813266897075145 -3.711717418117102 0 -1 0
422 140 4 0 -4.500186940360475 -0.19394781117799464 -4.418119963086128 1 -1 1
91 30 4 0 -2.7923337708536398 -4.15164917690369 -3.133829656593935 1 0 1
90 30 2 0 -2.623421221278043 -4.206734629249546 -3.572022459582823 1 0 1
294 98 2 0 -4.936145528878158 -1.9200746811981606 -3.6521232635801733 1 0 1
296 98 4 0 -5.364997744764878 -2.1222278046303944 -3.600458239241733 1 0 1
431 143 4 0 -0.5414242208924538 -2.1644992486765884 -2.774376712169488 0 0 1
281 93 4 0 -4.140330896134611 -1.507371096242779 -3.6713697052362475 0 -1 0
279 93 2 0 -3.7086958559213663 -1.3498337348863059 -3.678820060084793 0 -1 0
190 63 4 0 -2.8854362404820733 -0.9538798957900472 -3.6810572204897163 2 0 0
189 63 2 0 -2.50039429559884 -0.7065548597836324 -3.587267817767783 2 0 0
191 63 4 0 -2.1020601251827644 -0.4462712421062971 -3.492659174364577 2 0 0
218 72 4 0 -1.7644567457747948 -0.17400998728928663 -3.421216927029694 1 0 1
449 149 4 0 -1.5887127922531041 -2.806418887574118 -2.049888745351264 2 1 0
26 8 4 0 -0.14284400518875184 -2.8909582438132118 -2.059941276467227 0 0 0
65 21 4 0 -1.4549284090983345 -2.762424020601552 -2.4097935467637677 -1 -1 1
63 21 2 0 -1.0946917807683132 -2.4865682252796897 -2.4163431705276115 -1 -1 1
64 21 4 0 -0.7520158107887012 -2.2262987446311073 -2.4270368744145867 -1 -1 1
429 143 2 0 -0.15900450233234942 -1.9352079872104193 -2.6914024585748355 0 0 1
162 54 2 0 -3.5308428748851775 -5.11649505408447 -1.1163311057345187 1 1 0
164 54 4 0 -3.169368177488473 -5.215165147764631 -1.377449461763061 1 1 0
136 45 4 0 -2.823184633851279 -5.072092643979633 -1.2088678400866106 0 0 0
135 45 2 0 -2.3861988606875064 -5.240379325726954 -1.117543098942777 0 0 0
137 45 4 0 -1.9448819543977258 -5.409792123994005 -1.0274497452559554 0 0 0
19 6 4 0 -1.548725356894629 -5.503551626315685 -1.0822569432538094 -1 -1 0
447 149 2 0 -1.9501918735523356 -2.9082023113010975 -1.8089007104172756 2 1 0
224 74 4 0 -2.290641794094228 -2.9726247701169335 -1.168212858988765 1 0 1
448 149 4 0 -2.3286363298410664 -3.0059609878144915 -1.5543920882896511 2 1 0
163 54 4 0 -3.8781884848687156 -5.009402168291191 -0.8598754778231967 1 1 0
181 60 4 0 -2.574263646859982 -3.490751244865317 -0.18086943189039406 1 0 0
222 74 2 0 -2.5337508454836817 -3.259020748576042 -0.8564704233913165 1 0 1
223 74 4 0 -2.753053986667421 -3.5302794353665377 -0.5585243169599492 1 0 1
383 127 4 0 -2.9840201898925907 -2.678483832689101 -0.031323679090577095 0 -1 1
114 38 2 0 -2.18955349195052 -2.3496659319038327 -0.1571777450662255 0 0 1
115 38 4 0 -2.587177400791325 -2.542090444940334 -0.051020307816589394 0 0 1
239 79 4 0 -1.4594216131622835 -1.925975944093052 -0.43543681381786836 1 0 1
116 38 4 0 -1.7739947609854871 -2.148062306563002 -0.28093670784550273 0 0 1
58 19 4 0 -0.32367781850707456 -1.9830894564081625 -0.7052301267177503 0 0 1
237 79 2 0 -1.0228663595754304 -1.838957917230426 -0.4686112205751911 1 0 1
238 79 4 0 -0.5998618765888386 -1.7550934017679314 -0.5122239212538053 1 0 1
301 100 4 0 -2.079495215917961 -5.244621620994588 0.9086715533461467 1 0 0
418 139 4 0 -1.73109245733453 -5.486102797643193 0.838935583908178 2 1 0
391 130 4 0 -5.009427569604988 -3.329760788797437 0.35778771732346293 1 0 0
175 58 4 0 -5.307316169838455 -3.5616129830051215 0.4603652820555615 1 0 -1
390 130 2 0 -4.5557061082930375 -3.203987720221236 0.35729719530586923 1 0 0
392 130 4 0 -4.100776754730148 -3.073910254610399 0.3624668028681084 1 0 0
382 127 4 0 -3.792182166613638 -3.0244903692730087 0.11339748349334844 0 -1 1
381 127 2 0 -3.381672657479028 -2.8478173409188985 0.04562222756301004 0 -1 1
180 60 2 0 -2.426109418453458 -3.555115777001902 0.28140741176599526 1 0 0
182 60 4 0 -2.2827524745583188 -3.6176828737916917 0.7238433687951478 1 0 0
292 97 4 0 -3.879907562929234 -4.934561870770363 1.6488889119638683 1 0 0
293 97 4 0 -3.292346404945626 -5.236204012887928 1.07647348079814 1 0 0
291 97 2 0 -3.587918879474306 -5.080529294404041 1.365892395174483 1 0 0
302 100 4 0 -2.9288520195622936 -5.408528670445588 1.0115963699341384 1 0 0
300 100 2 0 -2.4960097301601802 -5.322192787653965 0.9577223368910222 1 0 0
170 56 4 0 -0.6277608847165368 -4.706233948089756 1.6582322601837438 1 1 -1
168 56 2 0 -0.3165761157148257 -4.790027394134167 1.3187492171353288 1 1 -1
169 56 4 0 -0.013433815588340892 -4.878566108963625 0.9907285290693268 1 1 -1
205 68 4 0 -2.5850719505471615 -3.7631542284767363 0.9706600157268452 0 0 0
204 68 2 0 -2.432263001369172 -3.741290855142243 1.4058340357382884 0 0 0
206 68 4 0 -2.2751123002350373 -3.720946181699973 1.832231298727491 0 0 0
122 40 4 0 -3.7503507926104542 -5.039928080190311 2.024779121063859 1 0 0
120 40 2 0 -3.761337621074671 -4.93116270677489 2.4647839942338496 1 0 0
32 10 4 0 -0.5395502966823953 -4.4334543188142055 1.931211902465237 1 0 0
31 10 4 0 -0.19699804922799302 -3.924490166151629 2.586223638850501 1 0 0
30 10 2 0 -0.3729469605957618 -4.179325641621286 2.25450943008365 1 0 0
123 41 2 0 -2.3233940311447303 -3.264512447320462 2.5263610173001316 1 0 0
125 41 4 0 -2.2999895599358045 -3.4120456498008567 2.0868323180791384 1 0 0
121 40 4 0 -3.77478524376904 -4.80471771583784 2.906744322323056 1 0 0
364 121 4 0 -3.446896751561955 -4.822619890898933 3.154921275299283 1 0 0
363 121 2 0 -3.232687192649919 -4.938520415841215 3.558514406431491 1 0 0
112 37 4 0 -2.0597519153975297 -5.515017940647838 3.4007586059289645 0 0 1
235 78 4 0 -1.6977281818009802 -5.518805161105256 3.249452845113029 1 0 0
384 128 2 0 -2.8561217707007756 -3.329665785421133 3.533616543202908 1 0 0
124 41 4 0 -2.345592429347425 -3.1224478513590124 2.9656364253163607 1 0 0
386 128 4 0 -2.693052617562343 -3.1764984923094945 3.1661418434399087 1 0 0
360 120 2 0 -4.17058408433906 -4.838374335657288 4.583270549095412 2 0 0
365 121 4 0 -3.0269735461591663 -5.062318994613841 3.9692285583907987 1 0 0
95 31 4 0 -3.0410167755918263 -4.8427183116748145 4.280027545108353 0 0 -1
93 31 2 0 -2.7352049642366025 -4.719335189788813 4.5371129025577455 0 0 -1
362 120 4 0 -4.22380415340631 -4.496390514676744 4.305735410756973 2 0 0
251 83 4 0 -3.9398461712024293 -4.20945136226264 4.321176432099407 1 0 0
249 83 2 0 -3.5382862753881827 -3.9965986223946306 4.258041912494348 1 0 0
250 83 4 0 -3.1413098330378566 -3.7907678892465704 4.185650971838281 1 0 0
385 128 4 0 -3.03047720478261 -3.4977543746625424 3.9314259239199254 1 0 0
233 77 4 0 -5.312624063153372 -2.748375022228767 4.005040366287694 2 0 -1
203 67 4 0 -5.011855842973882 -2.5104304721023216 4.12254675187826 1 0 0
201 67 2 0 -4.593143300811964 -2.3347240115919194 4.1572270374721745 1 0 0
202 67 4 0 -4.149952886168512 -2.1652271106838357 4.198763609989396 1 0 0
227 75 4 0 -3.828437901052153 -1.8950242710250373 4.230275207936457 1 0 0
225 75 2 0 -3.4090045212718407 -1.7239493506727923 4.315786292566631 1 0 0
226 75 4 0 -2.9631899518369815 -1.530877923761579 4.408554545200659 1 0 0
88 29 4 0 -2.6261212283908986 -1.2879834057963526 4.447609474327833 2 0 1
87 29 2 0 -2.200900723852772 -1.1039799577995906 4.433128097851003 2 0 1
89 29 4 0 -1.7754850808351788 -0.9268673997255092 4.417073580414107 2 0 1
151 50 4 0 -1.4089558889358322 -0.7455635791018782 4.53601684444985 2 0 0
150 50 2 0 -0.9811767694691449 -0.6159739418025474 4.48319058714923 2 0 0
152 50 4 0 -0.524416595310802 -0.48684651009552304 4.422858080880299 2 0 0
361 120 4 0 -4.115347643927137 -5.164499568707012 4.8493583466123065 2 0 0
346 115 4 0 -3.892786763652922 -5.281276811980086 5.174508177885248 1 0 0
155 51 4 0 -2.1241950262157405 -4.326724969437982 4.909112626313823 1 1 0
153 51 2 0 -2.160927358830162 -4.171062628854242 5.326792817650525 1 1 0
94 31 4 0 -2.4068244378468426 -4.586829770609324 4.801491146861223 0 0 -1
40 13 4 0 -0.17406449229166387 -0.4138278581653605 4.619928832403672 2 0 0
420 140 2 0 -4.403099951002498 0.19261411575670273 -4.631424941761335 1 -1 1
421 140 4 0 -4.300904674119256 0.562489231662731 -4.8353358048014625 1 -1 1
350 116 4 0 -4.00667232629613 0.7886422063392651 -4.82019820124539 1 -1 1
348 116 2 0 -3.616999078881376 0.9682108730875818 -4.977284288697237 1 -1 1
299 99 4 0 -2.9508043041956347 1.1795635351948581 -5.44938562464327 1 -1 1
349 116 4 0 -3.21084134597883 1.150697175503197 -5.127498796274267 1 -1 1
367 122 4 0 -0.01015364279893749 2.1721346134590993 -5.283893463438254 2 0 1
366 122 2 0 -0.07228990625043785 2.567444083879912 -5.050643402907961 2 0 1
368 122 4 0 -0.12667783225363394 2.928527794442622 -4.824667577673599 2 0 1
404 134 4 0 -4.703675327843342 1.5856511362557502 -4.174632874134325 1 0 1
402 134 2 0 -5.114847157325306 1.4185167098140115 -4.234835203813253 1 0 1
179 59 4 0 -4.298864769032824 1.6416487065569267 -4.188626112329686 1 0 1
177 59 2 0 -3.9710992014836304 1.949320992452087 -4.169560789718794 1 0 1
320 106 4 0 -3.3614629674270184 2.4309562973079073 -4.361547450115028 1 -1 1
178 59 4 0 -3.655014782263918 2.2668197075919183 -4.15913821687776 1 0 1
318 106 2 0 -2.959385649784875 2.5877968875273902 -4.329057275838066 1 -1 1
319 106 4 0 -2.4928695071654636 2.765838118226964 -4.285647799756858 1 -1 1
47 15 4 0 -2.320006376158752 3.0071069088860467 -4.549410996356444 0 -1 1
45 15 2 0 -2.162620151193534 3.42015435367568 -4.419658105967724 0 -1 1
200 66 4 0 -2.0498355768463825 4.218856925445304 -4.217734848627346 2 0 1
46 15 4 0 -2.007652496463647 3.833840890409678 -4.279483588602204 0 -1 1
437 145 4 0 -2.6551006848416803 5.320141079707038 -4.457723487312094 2 0 1
199 66 4 0 -2.373170525767326 5.045887761248674 -4.499671393739503 2 0 1
198 66 2 0 -2.214785534124013 4.641096787104522 -4.3566897622579805 2 0 1
216 72 2 0 -1.356810672285584 0.08354541383928815 -3.3550230271453567 1 0 1
217 72 4 0 -0.9484695012822186 0.34565515010012415 -3.2802681118635677 1 0 1
439 146 4 0 -0.6181362418868179 0.59521894133574 -3.1437224262160575 0 -1 0
438 146 2 0 -0.18894221131339073 0.7400752782530207 -2.984335419584045 0 -1 0
108 36 2 0 -2.373440581754026 4.584123083400281 -2.227682696775803 1 -1 1
109 36 4 0 -2.757481151693978 4.547325977238169 -1.9203596047429765 1 -1 1
110 36 4 0 -2.0192648315835964 4.62611778499775 -2.5125185675157793 1 -1 1
262 87 4 0 -5.231144196091897 4.212729485038298 -0.9616751752490709 1 -1 0
261 87 2 0 -4.777839841905259 4.247916561246487 -1.154775073217782 1 -1 0
263 87 4 0 -4.366300542109217 4.28244918147115 -1.3243505244245588 1 -1 0
424 141 4 0 -4.0106032843143264 4.393467107686139 -1.5073549586244628 1 -1 1
425 141 4 0 -3.131593454466986 4.520729031666298 -1.755237728474845 1 -1 1
423 141 2 0 -3.5617592296775946 4.461159136229457 -1.632560774965932 1 -1 1
18 6 2 0 -1.1145988681863255 5.490658329268945 -0.9479121886451694 -1 -2 0
212 70 4 0 -2.3907522505023824 3.4450016525051117 -0.7468004717846393 2 0 0
128 42 4 0 -5.4854848528557625 3.916866479021155 -0.8982208226991304 1 -1 0
210 70 2 0 -2.0808534614185388 3.760393345163105 -0.653209220871859 2 0 0
308 102 4 0 -1.4178433189234463 4.274650247895543 -0.402305446786726 1 -1 1
306 102 2 0 -1.228765910432739 4.521418326418121 -0.053137900932045845 1 -1 1
211 70 4 0 -1.7564526839146577 4.0996003894127275 -0.5566332887966858 2 0 0
20 6 4 0 -0.6861376395263408 5.423941907519365 -0.8130234135701908 -1 -2 0
167 55 4 0 -0.287579750602994 5.29533391198069 -0.7177703121476728 0 -1 0
419 139 4 0 -1.0230364014461957 5.0036114000568395 0.6128651086596539 2 0 0
417 139 2 0 -1.379466841373901 5.281293283859198 0.7276336795492941 2 0 0
307 102 4 0 -1.057742536538778 4.766847453259882 0.2830863032782913 1 -1 1
10 3 4 0 -1.5281345548259369 3.6464507874816183 3.66246264650347 1 -1 0
269 89 4 0 -1.207933184260149 3.845980554798495 3.551745837519335 2 -1 0
267 89 2 0 -1.136804872414741 4.21403982003165 3.2979047129390784 2 -1 0
268 89 4 0 -1.073949417102825 4.596218097432373 3.049596682035422 2 -1 0
111 37 2 0 -2.385314512995735 5.359492610510443 3.607894556922022 0 -1 1
234 78 2 0 -1.3287990149426347 5.249996448498339 3.2275415932106393 1 -1 0
236 78 4 0 -0.9674149583663576 4.969719997249412 3.197203779714248 1 -1 0
104 34 4 0 -5.06812394752569 2.0738898067173803 4.314451366585216 3 0 0
8 2 4 0 -4.676485165020448 2.2314108706708717 4.287723134984877 1 -1 0
102 34 2 0 -5.502326921787687 1.9169708746371006 4.336009489858333 3 0 0
6 2 2 0 -4.281086945610603 2.438151105502281 4.272201316984064 1 -1 0
7 2 4 0 -3.871948958933314 2.643384389990165 4.250794616791208 1 -1 0
85 28 4 0 -3.4633207214087753 2.7015198481290197 4.243786468404571 0 -1 0
341 113 4 0 -0.839308299253152 2.2065681875361944 4.490540741023614 1 -1 0
339 113 2 0 -0.45555523517610474 2.313036370514217 4.30731976309744 1 -1 0
340 113 4 0 -0.05870090496021785 2.426390400823945 4.115871851751844 1 -1 0
84 28 2 0 -3.0438555422094455 2.9094146584221674 4.1606113533104105 0 -1 0
11 3 4 0 -2.27411136115177 3.230567433015657 3.9257186242659836 1 -1 0
86 28 4 0 -2.622880028675516 3.1234067634945175 4.0905298087771085 0 -1 0
9 3 2 0 -1.9014164338295148 3.4369846325334032 3.795743518198143 1 -1 0
130 43 4 0 -3.783349207263777 4.494161157523318 3.958214143352051 2 0 0
131 43 4 0 -2.986501164038972 4.929321859013455 4.018445630522462 2 0 0
129 43 2 0 -3.3792835226037576 4.711421898478391 3.9823590077604036 2 0 0
113 37 4 0 -2.7232596583382898 5.1639565073826885 3.8199100152119696 0 -1 1
298 99 4 0 -2.126569366960071 1.3579679589054763 5.296248602577406 1 -1 0
297 99 2 0 -2.5499944353967297 1.263121606781783 5.449258236562458 1 -1 0
315 105 2 0 -1.4607163959402083 1.8198633831259858 4.935959708504659 1 -1 1
316 105 4 0 -1.811519407677935 1.551505434628674 5.066685176059525 1 -1 1
317 105 4 0 -1.0910675781920283 2.0921481262658865 4.781881609428971 1 -1 1
213 71 2 0 0.8056172627424232 -5.44379956993985 -4.816117978635326 -1 0 1
214 71 4 0 0.4482327164455153 -5.254239168616559 -4.640701531592869 -1 0 1
254 84 4 0 3.053869454114566 -2.2647990090176537 -5.393135293208778 -1 -1 1
428 142 4 0 3.2375044242620747 -2.004404164724878 -5.14013576958128 0 0 1
426 142 2 0 3.452976930951027 -1.9073090524908816 -4.773517433349048 0 0 1
61 20 4 0 0.4692789450120234 -4.89042895274745 -4.4711204354754335 0 0 1
62 20 4 0 0.5648583826024431 -4.264509377372828 -3.833725206138546 0 0 1
60 20 2 0 0.5208843373910668 -4.584461416478287 -4.1648681190989 0 0 1
265 88 4 0 3.778603298141559 -1.8589360217730793 -4.000632385592995 0 0 0
264 88 2 0 4.127247748210677 -1.8472454304523542 -3.7271236651886057 0 0 0
427 142 4 0 3.6781174444334956 -1.8130154648666679 -4.384125022394987 0 0 1
374 124 4 0 0.8068181899652158 -3.999036135684201 -3.6648775402232454 0 0 0
372 124 2 0 1.215759046281125 -3.8209976201052633 -3.561591293754672 0 0 0
373 124 4 0 1.6514098972259434 -3.639499964325195 -3.4663671486103036 0 0 0
323 107 4 0 1.9638421756194582 -3.377645854171073 -3.530634610332416 0 0 0
321 107 2 0 2.4176296691048496 -3.260709817359691 -3.5661882827808675 0 0 0
322 107 4 0 2.849264370003552 -3.1496446892274905 -3.6062792721638175 0 0 0
356 118 4 0 3.2173888175759684 -3.032489309963256 -3.5036216322436715 0 0 0
354 118 2 0 3.6698104065699786 -2.9084994332820204 -3.524199840922454 0 0 0
355 118 4 0 4.119176055502664 -2.7804325969488497 -3.539089143875425 0 0 0
98 32 4 0 4.511727429860389 -2.6985434346193373 -3.501641869957267 0 0 1
96 32 2 0 4.95735120540943 -2.5429504216329315 -3.539719837297012 0 0 1
97 32 4 0 5.398609472887039 -2.3891096503166467 -3.582229554433096 0 0 1
287 95 4 0 4.526233545153137 -1.7981168715905245 -3.100746385564337 0 -1 0
266 88 4 0 4.4576450547525726 -1.841373011427525 -3.4753520856669975 0 0 0
24 8 2 0 0.23026157757362142 -2.8174631260453733 -1.878465315375303 0 0 0
285 95 2 0 4.571427126934927 -1.957316743472143 -2.669775050663599 0 -1 0
286 95 4 0 4.609959242281666 -2.1022577919764145 -2.263574075164103 0 -1 0
430 143 4 0 0.24296140554546408 -1.6998207520498747 -2.611297555791883 0 0 1
342 114 2 0 0.47436358961087066 -1.501944972522427 -1.8958694758018906 -1 -1 1
344 114 4 0 0.5182274942867657 -1.657261172853365 -2.3034269835993744 -1 -1 1
432 144 2 0 0.5324082863774047 -5.115618813832765 -1.2201803980550512 2 1 1
433 144 4 0 0.8843945009569874 -5.307907352803997 -1.446315956191425 2 1 1
434 144 4 0 0.19527275902683883 -4.92220955097951 -0.9905451300228707 2 1 1
283 94 4 0 1.228854191350548 -5.516587625155517 -1.4889122842013842 0 -1 1
82 27 4 0 0.10258334650499101 -4.5341206373763585 -0.9245840358348358 0 0 1
25 8 4 0 0.6106102252280499 -2.7317232093713897 -1.6922327021181731 0 0 0
193 64 4 0 1.0088214369137338 -2.6945562376753602 -1.6331248774156863 0 0 0
192 64 2 0 1.308426709664614 -2.346532999539139 -1.6114313527140145 0 0 0
194 64 4 0 1.6132305517656995 -1.9882739471902884 -1.584946284178546 0 0 0
184 61 4 0 1.9797779026784985 -2.078224551032482 -1.6849370752245636 -1 0 0
59 19 4 0 0.3600539295824312 -1.552691116456304 -1.1371590390347794 0 0 1
343 114 4 0 0.4364433051728991 -1.3541307778453682 -1.4960863260041792 -1 -1 1
183 61 2 0 2.3550619055667434 -1.8164132978215797 -1.7278465035006607 -1 0 0
185 61 4 0 2.739421547159222 -1.5435868515730866 -1.7671359266839106 -1 0 0
371 123 4 0 2.8618775395463727 -1.4243757262144907 -1.4228748864824547 2 1 -1
369 123 2 0 3.1305397047391343 -1.3521692380313945 -1.0725763303799853 2 1 -1
21 7 2 0 1.7353806499383504 -5.370220202302598 -0.15648595738636217 0 0 -1
23 7 4 0 2.1584488067539684 -5.453679313938219 -0.32849431410309116 0 0 -1
310 103 4 0 0.4570152155797853 -3.7842665167334735 -0.014186899164740474 0 0 1
81 27 2 0 0.14328981403109697 -4.2222607273109265 -0.6001993016652039 0 0 1
83 27 4 0 0.17495989163311876 -3.906559687708066 -0.2642452097343053 0 0 1
48 16 2 0 3.61360691959901 -1.853778157523689 -0.06683210389222882 0 0 0
57 19 2 0 0.007415799966236314 -1.7662861072366498 -0.9190378505426553 0 0 1
50 16 4 0 3.5924120177858354 -1.5328547085410928 -0.377452199404523 0 0 0
370 123 4 0 3.41069383526452 -1.2849619589578447 -0.7026258372534704 2 1 -1
157 52 4 0 0.2572769833954007 -4.9743738063876295 0.677081122297845 1 1 -2
156 52 2 0 0.6255633794350324 -5.1170877149928735 0.41597961834885844 1 1 -2
158 52 4 0 0.9728678838832492 -5.250675860450969 0.1666852697636969 1 1 -2
22 7 4 0 1.32142488516212 -5.286173349802188 0.005231718572107802 0 0 -1
380 126 4 0 4.5393662744661265 -3.9240679853160962 0.703683707424144 0 0 0
176 58 4 0 4.856353049480309 -3.8326536871620593 0.4695331300969219 0 0 -1
174 58 2 0 5.312893301189853 -3.695817798450555 0.4663357897104019 0 0 -1
309 103 2 0 0.8897347553181376 -3.6706233805293023 0.1302920993525225 0 0 1
289 96 4 0 1.4976050073627434 -3.2192842599120657 0.43679486280051805 -1 -1 0
311 103 4 0 1.3099375536640974 -3.5477671962636075 0.2656646250339856 0 0 1
288 96 2 0 1.848784315495931 -3.009692696859438 0.5850540285279067 -1 -1 0
290 96 4 0 2.2305520285751594 -2.7990635210013672 0.7334808074153658 -1 -1 0
221 73 4 0 2.6162846106599487 -2.7207728052681945 0.7959980458922784 0 0 0
219 73 2 0 2.9735879802700014 -2.4896856892848183 0.6465447233232364 0 0 0
220 73 4 0 3.3368924074494393 -2.265084591557425 0.5041082607212166 0 0 0
49 16 4 0 3.635188401334605 -2.1727329175126 0.24716587315787564 0 0 0
159 53 2 0 3.4362013337440738 -4.666245129946841 1.62420045389978 -1 0 0
378 126 2 0 4.240702919608283 -4.045073719727969 0.9891174575407344 0 0 0
161 53 4 0 3.7687336526694954 -4.5442860794942055 1.2872231831273693 -1 0 0
379 126 4 0 3.9375463373327415 -4.163337438736933 1.2837520104559772 0 0 0
80 26 4 0 3.0688338306327383 -4.875804290627499 2.32137935686281 0 0 -1
160 53 4 0 3.1241054467554923 -4.776172193561938 1.9412408221807231 -1 0 0
230 76 4 0 4.011341816331671 -1.7717952378305255 2.677386848137499 0 0 0
228 76 2 0 4.224300972986964 -1.3585024387357771 2.733173260292326 0 0 0
79 26 4 0 3.202241326907184 -4.7529019983632415 3.2070146362811007 0 0 -1
78 26 2 0 3.136323214495433 -4.810294910918464 2.7719249185431822 0 0 -1
256 85 4 0 3.529043254701583 -4.673461694374891 3.4422189148844753 1 1 0
272 90 4 0 0.07273458834315427 -3.790308654223712 2.849109078607486 -1 -1 0
271 90 4 0 0.34647996704352835 -3.508098760747031 3.6453796371148135 -1 -1 0
270 90 2 0 0.21109610402212464 -3.650512013653624 3.2531417921774386 -1 -1 0
35 11 4 0 0.58617920065167 -2.4710752042632684 2.815257628032639 0 0 -1
44 14 4 0 0.2799665854718185 -2.483062485925532 3.101298556152792 0 0 -1
42 14 2 0 0.1510166735127454 -2.4313483295991545 3.5356399535076912 0 0 -1
33 11 2 0 1.0255848545236237 -2.4785902745267823 2.8744520299258047 0 0 -1
34 11 4 0 1.484968278537563 -2.5031590053342243 2.9409854765398 0 0 -1
134 44 4 0 1.8542801286865052 -2.4715572839705056 3.110379184208285 0 0 0
132 44 2 0 2.1903737903927167 -2.1561694974756636 3.1879944462904772 0 0 0
133 44 4 0 2.4971202872981584 -1.8636453490340168 3.2713726734257262 0 0 0
388 129 4 0 2.7327961503564877 -1.8404228549600452 2.9655837154546445 0 -1 0
387 129 2 0 3.1762954857697165 -1.7998036923381395 2.9113056519508964 0 -1 0
389 129 4 0 3.6468058127221914 -1.7613630315361584 2.8601278527126963 0 -1 0
229 76 4 0 4.436764647250366 -0.9551957152941037 2.7903641744122334 0 0 0
15 5 2 0 4.357530664170192 -0.33575068340565295 3.1951595410386693 0 0 -1
17 5 4 0 4.521094586528467 -0.5463807373954692 2.845706219185659 0 0 -1
16 5 4 0 4.196255524323116 -0.12061234384918507 3.5538074917871585 0 0 -1
53 17 4 0 2.516971283237438 -4.63088338424163 4.299030769513254 0 0 -1
255 85 2 0 3.7279247587545106 -4.9443157025776365 3.7375794855205866 1 1 0
257 85 4 0 3.927308507659208 -5.229322295085296 4.037063440980261 1 1 0
37 12 4 0 4.21999995018644 -5.066510873743852 4.278635325775345 0 0 0
401 133 4 0 2.657034028710714 -4.304823389484138 4.139481951192368 0 0 1
399 133 2 0 2.9927978144152148 -4.053841798940992 4.0836822033410085 0 0 1
400 133 4 0 3.35652206416603 -3.776435225225489 4.022144535104224 0 0 1
337 112 4 0 3.736489463009689 -3.723197166982738 4.012151897432779 0 0 0
314 104 4 0 0.3568963261278002 -3.3991165727455517 4.015544238026002 0 -1 -1
312 104 2 0 0.6732167878392232 -3.290954161622387 4.306466174119676 0 -1 -1
336 112 2 0 4.115186653513134 -3.465537012713113 4.048489453966574 0 0 0
338 112 4 0 4.510448712295811 -3.187684975007341 4.079588429007868 0 0 0
232 77 4 0 4.89450958871137 -3.143549944513044 3.9601377306507173 1 0 -1
231 77 2 0 5.299355951097488 -2.949878041774985 3.9748212947022816 1 0 -1
397 132 4 0 0.09057858395975238 -2.0269728467646533 4.155773979625251 1 0 0
43 14 4 0 0.013204792823843903 -2.3650581798415176 3.957930215352195 0 0 -1
398 132 4 0 0.42086850853132063 -1.2610374744449082 4.505176146292508 1 0 0
396 132 2 0 0.26063688104737537 -1.6412126736451027 4.322451993625941 1 0 0
305 101 4 0 0.7646812327786474 -1.0278552021530727 4.38573696653881 0 -1 0
303 101 2 0 1.165020880581718 -0.9318220620353523 4.260509992576556 0 -1 0
39 13 2 0 0.244462648099657 -0.19680489231026055 4.596147381073094 2 0 0
304 101 4 0 1.5566037603992173 -0.8324322917247615 4.1343900503009605 0 -1 0
196 65 4 0 1.8692641021094234 -0.6111118506723008 4.012676426469663 1 0 1
195 65 2 0 2.298704608126375 -0.510466310051652 3.9956562929891843 1 0 1
197 65 4 0 2.746566204038202 -0.4123714267315499 3.9786333143749593 1 0 1
173 57 4 0 3.0316984268322082 -0.12750105744128426 3.9387630193267205 0 0 0
171 57 2 0 3.5106021190141687 -0.08514363212350329 3.921457585356266 0 0 0
172 57 4 0 3.968406099052353 -0.055082653909820145 3.9028028405812085 0 0 0
51 17 2 0 2.3027454391805877 -4.794838886381011 4.641281256845445 0 0 -1
52 17 4 0 2.0738403598651898 -4.982729969921455 4.98196461987897 0 0 -1
352 117 4 0 2.0149336503018507 -5.371228513082923 5.083292243424508 0 0 0
36 12 2 0 4.232836636052826 -5.225928128665384 4.694706488271705 0 0 0
38 12 4 0 4.235397958488066 -5.380052700703789 5.085696994844349 0 0 0
313 104 4 0 0.9864554097785252 -3.1707500597733653 4.607696505793064 0 -1 -1
331 110 4 0 1.3800129982326048 -3.288079927025196 4.745135190343702 -1 -1 0
330 110 2 0 1.8142238810885356 -3.1441267681086167 4.87414722538601 -1 -1 0
332 110 4 0 2.205935733000188 -3.0082144227100764 4.997260745653494 -1 -1 0
252 84 2 0 2.719169141716521 -2.469504761284643 5.3919782312456315 -1 -1 0
253 84 4 0 2.395912188601817 -2.675516359090799 5.133542269911739 -1 -1 0
245 81 4 0 2.6561322860259677 0.12879938146046932 -4.856070236289264 0 -1 0
406 135 4 0 2.410117006141143 0.04683502251236149 -5.174396761095112 1 0 1
408 136 2 0 0.6948448830231744 1.7827139616783327 -5.196400424358156 2 0 0
410 136 4 0 1.1468148849572533 1.684749412558503 -5.19882508060767 2 0 0
395 131 4 0 1.4677969919953107 1.7296080124425925 -5.465298401312062 2 0 1
409 136 4 0 0.25486770707729267 1.8722150751151458 -5.203214616165189 2 0 0
215 71 4 0 1.1743738807003776 5.41273712297171 -4.989996806604493 -1 -1 1
353 117 4 0 1.4649968590785498 5.334033110564911 -5.270894679370147 0 -1 1
243 81 2 0 2.812393704097828 0.1960582718093642 -4.422255674064524 0 -1 0
74 24 4 0 3.262859732719197 0.5019468703670089 -3.842580290570207 0 0 1
72 24 2 0 3.6801579376212716 0.5181732875028393 -3.7756649308731793 0 0 1
244 81 4 0 2.9726584591891188 0.27683042128015956 -3.9962982876213227 0 -1 0
334 111 4 0 4.299238339645947 0.7887732932300118 -3.9516842779393633 1 0 1
73 24 4 0 4.118856793048443 0.5471990952498542 -3.6964650959418233 0 0 1
333 111 2 0 4.727129756676999 0.983866795426275 -4.031427971549019 1 0 1
335 111 4 0 5.174423909348561 1.1949456722600456 -4.122434469177882 1 0 1
403 134 4 0 5.513095856501876 1.2498276213593318 -4.302434813379109 0 0 1
146 48 4 0 0.6082551207084466 3.4342173077930935 -3.8931952064529334 1 0 0
144 48 2 0 0.33503713924190315 3.2139308148011674 -4.178375804498926 1 0 0
145 48 4 0 0.043350716411795887 2.977179612610338 -4.48027890929943 1 0 0
440 146 4 0 0.25450830625180654 0.884588439156456 -2.8321422129353375 0 -1 0
329 109 4 0 0.7916778448209563 3.2827865754253365 -3.571287871435773 1 -1 1
327 109 2 0 1.1352812097801914 3.553556563589768 -3.4566525509888737 1 -1 1
328 109 4 0 1.4741472353271492 3.837067144772562 -3.3333427075833537 1 -1 1
325 108 4 0 0.5478222408729945 1.1779824969210182 -2.7131997414347095 0 -1 0
324 108 2 0 0.8989191786525854 1.351105131788076 -2.463770383897388 0 -1 0
326 108 4 0 1.2443665624941582 1.5094470652123766 -2.201494135649216 0 -1 0
376 125 4 0 1.6324799313268636 1.613879534896304 -2.0158862146358594 0 -1 0
375 125 2 0 2.0155667841637337 1.869213187120419 -1.8842193264261113 0 -1 0
67 22 4 0 2.671629739980413 2.3476424948755437 -1.5184678971831422 0 -1 1
377 125 4 0 2.408657579380841 2.118640444373776 -1.7525787649059827 0 -1 0
66 22 2 0 3.067066432552422 2.5582004775486764 -1.2906944214260756 0 -1 1
68 22 4 0 3.429459107267161 2.7441981013396672 -1.0832186033850606 0 -1 1
242 80 4 0 2.950667383205201 3.5874944011783034 -1.02278095381293 1 -1 0
99 33 2 0 2.1132810184649333 4.155133498195798 -1.7324544046699204 1 -1 1
100 33 4 0 2.3442595976204625 3.7839258784388816 -1.6868886271547572 1 -1 1
101 33 4 0 1.8730859125007884 4.535156645563647 -1.7728298139317218 1 -1 1
118 39 4 0 3.3039153218989936 3.8238955310027327 -1.0089335109692303 1 0 0
284 94 4 0 1.758224673421556 4.851561261209066 -1.5970433071921502 0 -2 1
282 94 2 0 1.496009812402213 5.183699504767232 -1.5460217163441836 0 -2 1
241 80 4 0 2.1583661644920547 3.488104511356764 -0.6360693654384555 1 -1 0
240 80 2 0 2.5539658534771545 3.5412451971863588 -0.8279790496809127 1 -1 0
2 1 3 0 3.714883403288879 2.969002862034446 -0.802268506216337 0 -1 0
4 1 3 0 3.791316260018113 3.6520936037187957 -0.4577693086953811 0 -1 0
5 1 3 0 4.056524552328923 3.043824061719671 -0.11246141477339666 0 -1 0