LAMMPS data file via write_data, version 4 Feb 2025, timestep = 10000000, units = lj

4530 atoms
4 atom types
3030 bonds
1 bond types
1575 angles
2 angle types

-11.906313 11.906313 xlo xhi
-11.906313 11.906313 ylo yhi
-11.906313 11.906313 zlo zhi
3.552713678800501e-14 0 0 xy xz yz

Masses

1 1
2 1
3 0.1
4 0.1

Bond Coeffs # harmonic/omp

1 100 0.45

Angle Coeffs # harmonic/omp

1 100 180
2 100 109.471

Atoms # full

4178 1383 4 0 -3.7164882055173116 -11.154578526405269 -11.5248855124813 5 0 1
3045 1005 4 0 -3.585113067534987 -11.358750750825626 -11.847290459467322 5 0 1
4177 1383 2 0 -3.579370965885145 -11.142116609332506 -11.10724559630308 5 0 1
1709 560 4 0 -7.5659178110211105 -10.212186122571856 -11.01824501411428 4 0 0
71 15 1 0 -8.325833089604005 -9.89116162503037 -11.081065470287005 14 1 1
72 15 3 0 -8.511627325072606 -9.924356253176898 -11.514078171434063 14 1 1
1415 462 4 0 -8.654791776327755 -9.595920571881516 -11.73623218597207 14 1 0
1414 462 2 0 -8.972493719045248 -9.262754810974071 -11.743633314506017 14 1 0
74 15 3 0 -7.903830951186031 -10.019062952968065 -11.083779468945513 14 1 1
1708 560 2 0 -7.164759372613225 -9.98751673471398 -11.107448419509668 4 0 0
3344 1105 4 0 -6.585823531806887 -9.454143836887733 -11.073919733099396 5 0 1
1710 560 4 0 -6.793958754997859 -9.77820115095977 -11.184633724193187 4 0 0
1416 462 4 0 -9.285646775971665 -8.933327291017601 -11.752013684672045 14 1 0
2532 834 4 0 -9.428902705500821 -7.617716121950566 -11.592035906645847 6 0 1
1272 414 4 0 -9.58066295717846 -7.907174218036704 -11.83888441040713 16 1 0
2530 834 2 0 -9.0977173205878 -7.333514480063581 -11.623912230335046 6 0 1
3357 1109 4 0 -3.9376486063311376 -8.134300723527796 -11.633794585366322 7 0 1
3355 1109 2 0 -4.108479725099563 -8.108306978602645 -11.205417659198869 7 0 1
750 240 4 0 -3.62560268219854 -7.972586312215945 -11.852381906169537 6 0 1
3556 1176 2 0 -2.224226961314434 -7.595727398079619 -11.791339651424181 15 1 0
3520 1164 2 0 -10.603950624115495 -6.93978413364022 -11.124072044794426 16 1 0
3522 1164 4 0 -10.2812401335047 -6.88513713261211 -11.430893635296865 16 1 0
1049 340 4 0 -10.468791020943737 -6.9760476197237535 -11.767010613591067 4 0 1
2804 925 4 0 -8.746619064048971 -6.693801132805839 -11.453149363245075 5 0 1
2531 834 4 0 -8.752892338401494 -7.042493970494341 -11.658559371794228 6 0 1
2803 925 2 0 -8.620689759769919 -6.453838862503547 -11.103958980802824 5 0 1
584 185 4 0 -2.0029706524777495 -6.876208391303238 -11.515679498356647 5 0 0
583 185 2 0 -2.0057649078837425 -6.792025255447407 -11.067719019439773 5 0 0
3557 1176 4 0 -1.996909846803618 -7.262952689716202 -11.615964191584006 15 1 0
3592 1188 2 0 -7.560417958638971 -5.550522382130751 -11.476916228832184 15 1 1
3594 1188 4 0 -7.52943259843442 -5.607302628092226 -11.903915480976963 15 1 1
3574 1182 2 0 -11.69699120213189 -4.92535561557698 -11.71049207407179 7 0 0
3576 1182 4 0 -11.363880509343952 -4.905143995881008 -11.365974840965958 7 0 0
2529 833 4 0 -11.345152491373668 -4.6659224010045195 -11.045632034921123 7 0 0
3593 1188 4 0 -7.602023402159953 -5.484286311753495 -10.99778212303488 15 1 1
1634 535 4 0 -5.254476307733084 -4.179599371565567 -11.522331089437865 8 0 0
1633 535 2 0 -5.153189403329048 -3.8973586624132928 -11.172593544278755 8 0 0
279 83 4 0 -5.3012725067042075 -4.009877142321049 -11.882158227022101 8 0 0
316 96 2 0 -5.6105244990110945 -2.84477803704646 -11.758056850707877 7 0 0
318 96 4 0 -5.5252003586052005 -2.9999110287878086 -11.363198772540567 7 0 0
40 8 3 0 -5.553684657631396 -2.8513191148075343 -11.011013995688634 7 0 0
18 4 3 0 -0.9029092211835366 -3.12829124673679 -11.095020260776618 5 0 1
1983 651 4 0 -0.6292292278405469 -3.269826241231689 -11.353296663880034 14 1 1
1981 651 2 0 -0.32198178926932286 -3.0208775793410094 -11.60390712447024 14 1 1
1982 651 4 0 -0.024252254105411097 -2.7804143460784765 -11.850789024630322 14 1 1
2886 952 4 0 -11.336695396245439 -0.6756596772662569 -11.255914529469338 9 0 1
2884 952 2 0 -11.784390216627845 -0.6461044939539065 -11.14223392995008 9 0 1
1037 336 4 0 -11.266229349747501 -0.370436931248868 -11.508330628404067 8 0 0
1036 336 2 0 -10.822889196923787 -0.3115740651622936 -11.57777002733856 8 0 0
1038 336 4 0 -10.375739172360031 -0.25176915002228917 -11.640372430082605 8 0 0
1936 636 2 0 -9.65393037371863 -0.05606669359318772 -11.560719711691243 13 0 1
1937 636 4 0 -9.9970596244343 -0.3352077028472351 -11.740475211221922 13 0 1
2593 855 2 0 -6.492241977425498 -0.17938790987378184 -11.169709567659778 11 0 0
4175 1382 4 0 -8.511115770101732 -11.903594542897602 -10.105192616014808 15 1 1
824 265 4 0 -3.694683343109862 -11.037369753951808 -10.403515183838836 5 0 1
4179 1383 4 0 -3.4387915916225413 -11.141316259846478 -10.664155189087223 5 0 1
73 15 3 0 -8.558141354022402 -10.153132148217704 -10.794892290854781 14 1 1
1321 431 2 0 -8.805579741776825 -10.616823959785032 -10.16872092829279 7 0 0
1323 431 4 0 -8.556736862044055 -10.365591398439712 -10.450237494328338 7 0 0
1470 480 4 0 -0.929529629475212 -10.20816872561686 -10.088477629850713 13 1 0
1469 480 4 0 -0.44729377538782344 -10.893188945399537 -10.440593439553073 13 1 0
1468 480 2 0 -0.6886653161158378 -10.55746366410782 -10.270842175491227 13 1 0
3618 1196 4 0 -0.13115108078974025 -10.882282565799668 -10.661027321484026 16 1 0
2942 971 4 0 -8.455255546544603 -9.200539842368922 -10.65270576779172 15 1 1
75 15 3 0 -8.343372970316295 -9.444708603881105 -10.950264489705628 14 1 1
3343 1105 2 0 -6.364984565238477 -9.425667733908876 -10.674611584069558 5 0 1
3345 1105 4 0 -6.124491712290524 -9.3711207986161 -10.270428440077788 5 0 1
2057 676 4 0 -5.746072873731 -9.369496919524927 -10.202129273976878 5 0 1
3846 1272 4 0 -1.0726375710299116 -9.827580437131473 -10.07555691859206 14 1 0
2941 971 2 0 -8.582542578576874 -9.047094907965347 -10.241970380396397 15 1 1
595 189 2 0 -4.597896538523005 -8.413053671804253 -10.140309151182983 5 0 0
596 189 4 0 -4.254384048447383 -8.338151608431815 -10.426843380083245 5 0 0
3356 1109 4 0 -4.2706662818101755 -8.072783851806467 -10.75284069112728 7 0 1
3189 1053 4 0 -11.18386647129341 -6.710382920095813 -10.659492836276694 6 0 0
3187 1053 2 0 -11.605587134133634 -6.770836681475848 -10.745433757888884 6 0 0
3521 1164 4 0 -10.932090197315508 -6.994834366530609 -10.811929818822126 16 1 0
585 185 4 0 -2.0174447351030267 -6.704783274709479 -10.63013216384711 5 0 0
1503 491 4 0 -2.065338962584523 -6.5143108280074165 -10.261685284678155 14 1 0
528 166 4 0 -1.2801037827137058 -7.21400243573304 -10.099305463791268 5 0 1
2805 925 4 0 -8.488655641238104 -6.202063955804393 -10.739517599991235 5 0 1
1583 518 4 0 -8.081236713792677 -6.115318057721118 -10.607394717360402 6 0 0
1582 518 2 0 -8.111172064107748 -5.756935914622162 -10.386333364703452 6 0 0
1501 491 2 0 -2.073034247445346 -6.065978162916895 -10.263261177480928 14 1 0
1502 491 4 0 -2.08994164962594 -5.595477223955778 -10.248723839002757 14 1 0
1097 356 4 0 -7.357518729501001 -5.185068864464717 -10.885283959108019 7 0 1
1584 518 4 0 -8.143249758362751 -5.38566948200656 -10.155243993221392 6 0 0
1096 356 2 0 -7.195340416939802 -5.126433166955244 -10.452844512447136 7 0 1
1627 533 2 0 -2.263700108800087 -4.944177608828591 -10.239375454227671 16 1 0
2527 833 2 0 -11.212983976901537 -4.41745580825845 -10.671791517577816 7 0 0
2528 833 4 0 -11.09998523084392 -4.166500316540072 -10.309212288282437 7 0 0
3438 1136 4 0 -1.8660927389755084 -4.455882531542391 -10.615982566131246 15 1 0
1629 533 4 0 -2.238893675970818 -4.551316052268585 -10.455606460880666 16 1 0
3436 1136 2 0 -1.4896042627127777 -4.214670535941735 -10.62384320747081 15 1 0
3437 1136 4 0 -1.1291802120156458 -3.983664128186537 -10.614579701109736 15 1 0
38 8 3 0 -5.666380369470498 -3.1457095176877736 -10.37375246839085 7 0 0
1635 535 4 0 -5.062888699134054 -3.6190253997179056 -10.843023618994593 8 0 0
36 8 1 0 -5.363860697248359 -2.956459595071255 -10.639655333824772 7 0 0
37 8 3 0 -5.059075842784978 -3.2231426060331874 -10.708934138039169 7 0 0
4019 1330 4 0 -2.49894967866455 -3.3034326153216913 -10.10219838553007 15 1 0
20 4 3 0 -1.1717744168925517 -3.594666368337762 -10.644696803250508 5 0 1
2632 868 2 0 -1.8288298234007918 -2.9739747313521345 -10.103162762686877 5 0 0
17 4 3 0 -1.0737933443942946 -2.9137997502697957 -10.443346018187487 5 0 1
2634 868 4 0 -1.3846979716446217 -2.954365387172947 -10.212262244053811 5 0 0
16 4 1 0 -0.9199463443136597 -3.2483556684145825 -10.685528441042687 5 0 1
19 4 3 0 -0.5055385937185459 -3.3502251061371133 -10.538967963044254 5 0 1
1575 515 4 0 -0.2634476705937807 -3.651607644265571 -10.578761875775694 15 1 0
39 8 3 0 -5.209314381238085 -2.599260308973067 -10.452619712317267 7 0 0
2697 889 4 0 -5.067145523865609 -2.25233760951442 -10.561725306691528 5 0 0
2695 889 2 0 -4.649293448490587 -2.190991304153929 -10.377184923821144 5 0 0
2696 889 4 0 -4.237193007067716 -2.1251907202309646 -10.18798423203727 5 0 0
158 43 4 0 -7.045349854774404 -0.6335808135456453 -10.743994206177446 11 0 0
2595 855 4 0 -6.70062223456646 -0.4867873350683105 -10.885343180466599 11 0 0
157 43 2 0 -7.147353319627683 -0.431809056392197 -10.335521733775533 11 0 0
1702 558 2 0 -10.146911589100062 -11.457127974376284 -9.179690106286579 5 0 0
1704 558 4 0 -9.870974413695999 -11.833685474736809 -9.323538576453956 5 0 0
4176 1382 4 0 -7.748745068534658 -11.593104411384395 -9.754278445230039 15 1 1
4174 1382 2 0 -8.12589381466061 -11.744524533433486 -9.93004111271107 15 1 1
1637 536 4 0 -7.405857799731823 -11.741513741614947 -9.568145323541955 14 1 0
2832 934 4 0 -9.048987472796897 -10.88469545910448 -9.492895535697242 7 0 0
1322 431 4 0 -9.04678918962285 -10.862706856630028 -9.897381196927471 7 0 0
1753 575 2 0 -4.675383958218791 -10.17379630524537 -9.542756892970985 15 1 1
823 265 2 0 -3.8731724297864716 -10.85623423010838 -10.016582709050029 5 0 1
825 265 4 0 -4.058717137944901 -10.683051900429597 -9.633610426773469 5 0 1
1755 575 4 0 -4.275364295197174 -10.33410187370633 -9.748847163436972 15 1 1
2056 676 2 0 -5.50112416952657 -9.525979778853317 -9.8517386665706 5 0 1
1754 575 4 0 -5.057520719571192 -10.018662113643808 -9.357919682177132 15 1 1
2058 676 4 0 -5.255348235002476 -9.675830291369586 -9.515089157237181 5 0 1
3844 1272 2 0 -1.0688803425644249 -9.583404584983445 -9.72678826929044 14 1 0
3845 1272 4 0 -1.043007266811788 -9.317177560410867 -9.337345703255403 14 1 0
2767 913 2 0 -9.374377584788878 -8.54937623907423 -9.609364263633731 5 0 0
2769 913 4 0 -9.052053146949351 -8.863519761938845 -9.608544774603603 5 0 0
2943 971 4 0 -8.695423833398621 -8.902789065215332 -9.847317993431643 15 1 1
4204 1392 2 0 -6.654207170391663 -8.607238572766114 -9.298706869845416 4 0 1
4205 1392 4 0 -6.399262486485561 -8.332768835248041 -9.516572842590243 4 0 1
1648 540 2 0 -5.56425535379206 -8.282084189018759 -9.526838334847247 5 0 0
597 189 4 0 -4.9419336482431415 -8.476636857382305 -9.867888253539604 5 0 0
1650 540 4 0 -5.090404230934584 -8.33237058014306 -9.546244032222633 5 0 0
4241 1404 4 0 -10.098732706169457 -8.10652346459819 -9.577701300689473 15 1 1
4240 1404 2 0 -10.383676743221223 -8.033382376498919 -9.270691032635396 15 1 1
2768 913 4 0 -9.71993876575064 -8.218759440872983 -9.609219398291279 5 0 0
1649 540 4 0 -6.009842275557913 -8.240594830836995 -9.514863669153883 5 0 0
3385 1119 2 0 -2.5791522735944987 -7.516400851757571 -9.39152591512157 6 0 1
3387 1119 4 0 -2.3658325136570415 -7.299625694114559 -9.720745497524845 6 0 1
527 166 4 0 -2.1405719534469227 -6.988198877784576 -9.7830969223018 5 0 1
526 166 2 0 -1.7053437494417185 -7.096416735526752 -9.943841836965984 5 0 1
3402 1124 4 0 -0.9055309504355495 -7.145187786754019 -9.980471459178117 7 0 1
3400 1124 2 0 -0.48040617866605473 -7.212649918649604 -9.838469253113256 7 0 1
3401 1124 4 0 -0.06563730095622411 -7.277787007988488 -9.706376497147469 7 0 1
1946 639 4 0 -6.1655015480819495 -5.752516874815564 -9.162317251721321 8 0 0
2516 829 4 0 -5.933476546219605 -5.7964853001795476 -9.473230633070091 4 0 0
2515 829 2 0 -5.618966777757994 -5.4986295261899345 -9.61543483985164 4 0 0
2807 926 4 0 -8.043709292806803 -5.239595078749921 -9.776726227606689 7 0 0
2806 926 2 0 -7.862298914823249 -5.435861625022654 -9.357520102299475 7 0 0
1098 356 4 0 -7.043717125261357 -5.0733283733956185 -10.027238168771987 7 0 1
2615 862 4 0 -6.9741693078920095 -4.7070161648038225 -9.863078606735987 7 0 0
2517 829 4 0 -5.308010384869938 -5.201792031669711 -9.746730265281562 4 0 0
2049 673 4 0 -5.005565306609124 -5.2436709697886394 -9.519076273402112 16 1 1
2047 673 2 0 -4.698872583012927 -4.940389621777932 -9.525733243955132 16 1 1
2048 673 4 0 -4.3566774139843725 -4.60034981508228 -9.511132264565987 16 1 1
2354 775 4 0 -4.008484164197952 -4.60620102295653 -9.290672897792001 5 0 0
1628 533 4 0 -2.281020811630272 -5.352558862145623 -10.010962406966138 16 1 0
999 323 4 0 -11.212695788814747 -4.145708910105825 -9.912531999602486 6 0 1
997 323 2 0 -11.206016617222609 -3.710049955576931 -9.83246882513745 6 0 1
2614 862 2 0 -6.836710441362143 -4.274311049257865 -9.753900732020844 7 0 0
2616 862 4 0 -6.690976172795754 -3.8440421068486916 -9.650824588849897 7 0 0
1232 401 4 0 -6.315704723951043 -3.7287049361177047 -9.564798566337066 6 0 0
2353 775 2 0 -3.6106637006676117 -4.384997110639276 -9.413803573554766 5 0 0
4020 1330 4 0 -2.9862335108357456 -3.9510530189360447 -9.736325412189442 15 1 0
2355 775 4 0 -3.2323333617798067 -4.172534197725365 -9.543021350137678 5 0 0
998 323 4 0 -11.203887889943351 -3.231191083892334 -9.740909855937332 6 0 1
1362 444 4 0 -11.197308174200652 -3.08249030673592 -9.387675435604999 5 0 0
1233 401 4 0 -5.878876195857049 -3.166001372726372 -10.054442715358366 6 0 0
1231 401 2 0 -6.090385514205133 -3.438454049718702 -9.81639193244836 6 0 0
4018 1330 2 0 -2.743432192832943 -3.627486517786826 -9.922893522899969 15 1 0
2633 868 4 0 -2.265054194836221 -3.003605647933391 -9.987930628996017 5 0 0
2240 737 4 0 -3.8615742753545295 -2.065702886313842 -10.046479043334923 18 1 1
2239 737 2 0 -3.5332024669308897 -2.1542883971016025 -9.787460618725834 18 1 1
2241 737 4 0 -3.1920976302631754 -2.256278404693333 -9.516273554391105 18 1 1
3317 1096 4 0 -2.8918422464017155 -2.5166050258012422 -9.463775323610893 9 0 1
159 43 4 0 -7.258007804373086 -0.23325905968882665 -9.903227906495717 11 0 0
2274 748 4 0 -7.156739199804273 -0.265700760100712 -9.507515140868438 12 0 0
1703 558 4 0 -10.400838323690184 -11.120410071659768 -9.04892923030569 5 0 0
3724 1232 2 0 -0.28588406799569555 -11.231256273799119 -8.385313478936965 16 1 0
3726 1232 4 0 -0.1298346303199942 -11.307919945749552 -8.776958191632565 16 1 0
483 151 4 0 -10.658724640425788 -10.86788805566324 -8.895522182006639 8 0 0
481 151 2 0 -10.713210849458207 -10.426735378621366 -8.755881641655904 8 0 0
2830 934 2 0 -8.810242545362291 -10.803697647357556 -9.107443112114645 7 0 0
2831 934 4 0 -8.570213168214337 -10.72002764705258 -8.731178659685822 7 0 0
1148 373 4 0 -8.226374963124162 -10.534532960977934 -8.690012746181033 7 0 1
1147 373 2 0 -7.818801608928177 -10.365231268932863 -8.628074397352428 7 0 1
1149 373 4 0 -7.396569725178569 -10.190367755294629 -8.562896996988338 7 0 1
482 151 4 0 -10.772021866795908 -9.979146168233504 -8.62703256514481 8 0 0
1016 329 4 0 -10.620797239356492 -9.618542215784645 -8.668970233673448 14 1 1
1015 329 2 0 -10.862122978687129 -9.349438030510104 -8.442364594911922 14 1 1
3360 1110 4 0 -7.284529192922975 -9.903381964073974 -8.802150205188653 5 0 1
3358 1110 2 0 -7.0640430443964615 -9.5150112517118 -8.784951841209296 5 0 1
2385 785 4 0 -1.9137823090267752 -9.402348183969417 -8.511809481807271 4 0 0
2383 785 2 0 -1.5593747224322616 -9.245913596169322 -8.776075905150135 4 0 0
4206 1392 4 0 -6.921886441696049 -8.894829772999021 -9.082041719909546 4 0 1
3359 1110 4 0 -6.852487203530251 -9.141727123139482 -8.774339640517297 5 0 1
2384 785 4 0 -1.224205868754387 -9.113410789214335 -9.034789567400587 4 0 0
4242 1404 4 0 -10.701508510919803 -7.947252695240282 -8.934490502790782 15 1 1
1626 532 4 0 -10.914807512511103 -7.638634984963089 -8.823798234787583 15 1 0
3205 1059 2 0 -2.8596195313727364 -8.153549987959556 -8.387133024665232 6 0 1
3386 1119 4 0 -2.787155088259368 -7.752097292686515 -9.051205987998232 6 0 1
3206 1059 4 0 -2.698606088962899 -7.946208972936713 -8.728495620476997 6 0 1
3389 1120 4 0 -11.415000795911396 -6.509953383874921 -9.011845666782786 5 0 1
1625 532 4 0 -11.121507102876254 -6.761293395628881 -8.95370434047166 15 1 0
1624 532 2 0 -11.021630829480088 -7.192854758422294 -8.887061482978496 15 1 0
3388 1120 2 0 -11.847406647630123 -6.44668570680113 -9.032017897227854 5 0 1
3435 1135 4 0 -6.249725963702855 -6.796281206362572 -8.497075809857247 9 0 0
2808 926 4 0 -7.694071467100258 -5.615896690033119 -8.990026446264975 7 0 0
2280 750 4 0 -7.588778402953032 -5.617564479901099 -8.62411995470558 5 0 0
1947 639 4 0 -6.328659236918323 -6.406901618462538 -8.55861342625373 8 0 0
1945 639 2 0 -6.247845582396596 -6.074014866614988 -8.861412356758345 8 0 0
4370 1447 4 0 -0.5826597860377785 -6.042193438115913 -8.406239791185937 15 1 0
3503 1158 4 0 -11.119269689961328 -4.767198259229568 -8.403073236043182 11 0 0
4138 1370 2 0 -10.452655974173025 -4.21023800247088 -8.327988457203617 11 0 1
4140 1370 4 0 -10.821740016475324 -4.49383758900105 -8.30983127711936 11 0 1
4139 1370 4 0 -10.113332592195016 -3.9509513024599014 -8.342665794365569 11 0 1
1360 444 2 0 -10.954525391903857 -2.9407051259150787 -9.02792886860342 5 0 0
1361 444 4 0 -10.716108840419812 -2.803911650034399 -8.662723676091233 5 0 0
767 246 4 0 -10.051220923368692 -3.545945100354727 -8.37865450686791 9 0 0
766 246 2 0 -9.633765113746334 -3.3661594196592706 -8.50332011083057 9 0 0
768 246 4 0 -9.222822121581043 -3.1967006938224625 -8.621293915883887 9 0 0
216 62 4 0 -9.040203256399217 -2.8281991097204973 -8.620566326336114 0 -1 0
3318 1096 4 0 -2.5611744105282117 -2.8587150999548143 -8.700628151592909 9 0 1
4067 1346 4 0 -2.2081390569623096 -3.0747226234832787 -8.75837325839458 4 0 1
4066 1346 2 0 -1.7460458859089218 -3.123157576014073 -8.72994777074901 4 0 1
836 269 4 0 -1.0114103344655252 -3.2020778947753676 -8.413702278719965 6 0 1
4068 1346 4 0 -1.3213770446302622 -3.166805537109809 -8.688957844502788 4 0 1
3881 1284 4 0 -10.709086547431617 -2.470494486904135 -8.465031020930706 18 1 0
3880 1284 2 0 -10.72632929910932 -2.037662256214624 -8.402638438569776 18 1 0
214 62 2 0 -8.914130678014827 -2.4323224508197185 -8.744875096394964 0 -1 0
215 62 4 0 -8.80226891424477 -2.0423439440467615 -8.857766702608465 0 -1 0
3316 1096 2 0 -2.733743341430557 -2.684699051248792 -9.098810581339166 9 0 1
3805 1259 2 0 -10.900885018480633 -1.0129926159647233 -8.820846611108529 19 1 0
3882 1284 4 0 -10.739995140053075 -1.5565395769062285 -8.3327706676995 18 1 0
3806 1259 4 0 -10.944646108918105 -1.4360043007706285 -8.68523751177364 19 1 0
4169 1380 4 0 -8.524611714487415 -1.758474962787167 -8.876635117572013 11 0 1
4168 1380 2 0 -8.560194630349157 -1.3837626154280862 -8.60018177507214 11 0 1
4170 1380 4 0 -8.59994930298938 -1.0067711172142815 -8.324022685341335 11 0 1
3807 1259 4 0 -10.853276047446025 -0.5797203913045692 -8.945338364069514 19 1 0
1953 641 4 0 -10.548860618086987 -0.3213862767975151 -8.82880577108601 10 0 0
2585 852 4 0 -8.649722906426739 -0.6046166894540246 -8.394606616292887 9 0 0
2273 748 4 0 -6.787535965446576 -0.15036080289755738 -8.673597953918698 12 0 0
2272 748 2 0 -6.975463522426259 -0.2071012648426489 -9.092495623363003 12 0 0
2073 681 4 0 -8.196148969435157 -11.153421948303963 -7.476704155308423 15 1 0
2072 681 4 0 -7.436321574121003 -11.610924523758229 -7.50861117141688 15 1 0
2071 681 2 0 -7.811740995641808 -11.385566694251644 -7.495653218642239 15 1 0
3055 1009 2 0 -3.3892220769625006 -11.528060353298262 -8.065505921441208 6 0 0
3057 1009 4 0 -3.232675918944773 -11.08655790568528 -8.081768458614718 6 0 0
3725 1232 4 0 -0.45776833795544825 -11.146585705036323 -7.951704111064732 16 1 0
991 321 2 0 -0.2874425573002526 -11.747130781361935 -7.425011659192971 6 0 1
993 321 4 0 -0.32768789251367636 -11.519767120502792 -7.802272312419284 6 0 1
4070 1347 4 0 -8.506379630987421 -10.919815489496855 -7.382151235785579 16 1 1
3796 1256 2 0 -4.580136215258176 -10.86406743886292 -7.432094456014525 16 1 0
3798 1256 4 0 -4.28926436583678 -10.564712408042563 -7.600731338704412 16 1 0
3953 1308 4 0 -3.4424639114679163 -10.821427844247248 -7.85158911324466 16 1 0
3952 1308 2 0 -3.2397610510973145 -10.435173157222453 -7.797155051039112 16 1 0
3954 1308 4 0 -3.0392691406264944 -10.062483052396352 -7.741193174078745 16 1 0
3464 1145 4 0 -1.9687586652469218 -9.565695437724658 -8.132593251465888 14 1 0
3465 1145 4 0 -2.6693631247213894 -9.916059330994157 -7.657368371069111 14 1 0
3463 1145 2 0 -2.305293144255815 -9.730024717732192 -7.902962289363304 14 1 0
1017 329 4 0 -11.1039228550369 -9.070869548856555 -8.20943265400523 14 1 1
642 204 4 0 -11.105732721414519 -8.961941045295598 -7.797672470831418 4 0 1
640 204 2 0 -11.2147399483474 -8.83843320495126 -7.398983979989363 4 0 1
1588 520 2 0 -3.689945283986667 -8.483839064369171 -7.498825225818855 14 1 0
3207 1059 4 0 -3.025615139647714 -8.36607010093878 -8.015091996564083 6 0 1
1589 520 4 0 -3.361669108661202 -8.37768413496325 -7.795863274817995 14 1 0
1287 419 4 0 -7.616870735315267 -7.686138478391633 -7.392512557731992 15 1 0
5 1 3 0 -6.705088812407225 -7.1468565817200504 -7.4721745415658445 8 0 0
3434 1135 4 0 -6.356893698857414 -7.160971848119686 -7.653037410915429 9 0 0
3433 1135 2 0 -6.309385037949385 -6.9803283687643285 -8.06170771400365 9 0 0
2403 791 4 0 -5.892934494682255 -6.438967225959351 -7.972517946573692 4 0 0
3042 1004 4 0 -1.715984201105659 -6.471663264774894 -8.09507906100523 11 0 0
161 44 4 0 -10.938301035131751 -5.722748167467585 -7.5149794509756305 5 0 0
1908 626 4 0 -8.215913848431452 -5.536990123970009 -7.678438741958702 15 1 1
2278 750 2 0 -7.720860199185279 -5.670980339379524 -8.225627280535207 5 0 0
2279 750 4 0 -7.86452530814107 -5.731886013725566 -7.8120566600108345 5 0 0
2401 791 2 0 -5.4785995942467025 -6.2860993732500745 -7.866085805734789 4 0 0
435 135 4 0 -4.68579250123978 -6.206903491788879 -7.635298831428054 5 0 0
2402 791 4 0 -5.06919922670053 -6.134866400682331 -7.746953491924795 4 0 0
433 135 2 0 -4.320113179591327 -5.954542426705696 -7.70737763630204 5 0 0
434 135 4 0 -3.9466555651120885 -5.697120505781392 -7.783113047421444 5 0 0
287 86 4 0 -2.7868073986383184 -5.785024424382278 -8.203469658751237 8 0 0
288 86 4 0 -3.573154709411165 -5.772123948136412 -7.753326945479056 8 0 0
286 86 2 0 -3.159696561296304 -5.773046664625283 -7.991168960680097 8 0 0
3040 1004 2 0 -2.1476395406000357 -6.287318593452612 -8.107793299834908 11 0 0
3041 1004 4 0 -2.5483324160482326 -6.110807452869556 -8.120250507306357 11 0 0
4369 1447 2 0 -0.9569948538686983 -6.231511421303712 -8.231491454663312 15 1 0
4371 1447 4 0 -1.3127368988150376 -6.406085848719607 -8.057099631054243 15 1 0
3502 1158 2 0 -11.509484993514882 -4.765050111632854 -8.174457525632029 11 0 0
3504 1158 4 0 -11.90151164421093 -4.764025553092097 -7.949694960751835 11 0 0
421 131 2 0 -6.340380259372565 -3.973782024887277 -7.386961130692974 5 0 0
422 131 4 0 -6.349706913455299 -3.621024007891357 -7.649036230143868 5 0 0
3410 1127 4 0 -6.20678196740288 -3.226615401058467 -7.7063568595020655 5 0 0
3409 1127 2 0 -6.130721431513214 -2.7530084990129833 -7.6097931641600205 5 0 0
835 269 2 0 -0.8670402846749496 -3.0749828678756934 -7.997729754927367 6 0 1
837 269 4 0 -0.7172122893704795 -2.963080149303975 -7.590665061903392 6 0 1
3411 1127 4 0 -6.061446784005671 -2.32879274528082 -7.5301419337987205 5 0 0
3227 1066 4 0 -0.8358990641258579 -2.6446034582363502 -7.372217950054749 -1 -1 0
623 198 4 0 -9.23042217549407 -0.9255018244115423 -7.5123663500286995 6 0 1
3698 1223 4 0 -8.925679259129035 -1.113332828331675 -7.684017142155858 16 1 0
3697 1223 2 0 -8.666009731483449 -1.3672560523554242 -7.405874480843656 16 1 0
2773 915 2 0 -5.717459143333834 -1.6521802190630552 -7.413777182096817 6 0 0
2775 915 4 0 -5.530138610319834 -1.248980358758935 -7.509205158046109 6 0 0
2553 841 4 0 -5.134910568441237 -1.2829564784398215 -7.541764832646789 8 0 0
2551 841 2 0 -4.736552743032005 -1.11989546848198 -7.421560744717838 8 0 0
2584 852 2 0 -8.36531701013064 -0.4168833674783077 -8.103760331542581 9 0 0
2586 852 4 0 -8.102477444965224 -0.20873857715254118 -7.810740361038594 9 0 0
1010 327 4 0 -5.785908822663749 -11.625864104615944 -6.915484802607657 14 1 0
1009 327 2 0 -5.402549223827161 -11.40611224120344 -6.902556407305844 14 1 0
1011 327 4 0 -5.0248844087568125 -11.173723310755403 -6.890887195129213 14 1 0
3797 1256 4 0 -4.857944988537362 -11.166457700889616 -7.26598199157008 16 1 0
4069 1347 2 0 -8.421518190466047 -10.44443725264313 -7.295017271992553 16 1 1
174 48 4 0 -2.9406279385761014 -10.34876234048998 -6.514517623931828 5 0 0
4071 1347 4 0 -8.34253157482325 -10.02307670395265 -7.214673760426826 16 1 1
3862 1278 2 0 -8.34433966275847 -9.255472352922729 -7.136180262589432 15 1 0
3864 1278 4 0 -8.2012805584435 -9.668821875075865 -7.159238202048904 15 1 0
172 48 2 0 -3.264311905935033 -10.01779841508195 -6.452148850486973 5 0 0
641 204 4 0 -11.340831587703928 -8.71597035110597 -6.967694832855467 4 0 1
3753 1241 4 0 -11.121850107203702 -8.708500622833382 -6.613643941619897 14 1 0
3863 1278 4 0 -8.489938667226376 -8.823858196469123 -7.118874593010979 15 1 0
2452 808 2 0 -4.0987782574966936 -9.127844711522613 -6.698478648845956 5 0 0
2453 808 4 0 -4.263541433842437 -8.839768551638805 -6.971556571256567 5 0 0
1590 520 4 0 -4.018151397865609 -8.599626940565742 -7.194959646801096 14 1 0
564 178 4 0 -9.705989344855306 -7.458783537187443 -7.247717540961374 5 0 0
562 178 2 0 -9.296498980450295 -7.50843246888196 -7.09331927274013 5 0 0
1286 419 4 0 -8.529209537329011 -7.527962667933164 -7.146474171523659 15 1 0
563 178 4 0 -8.856092210496085 -7.5675261240629785 -6.931798996206004 5 0 0
1285 419 2 0 -8.073856060759006 -7.605788764995121 -7.266260206515026 15 1 0
4 1 3 0 -7.303286789185374 -7.493116160768318 -7.243918798941114 8 0 0
3612 1194 4 0 -10.669764776012626 -6.684806000147871 -6.977644064589529 15 1 0
3610 1194 2 0 -10.339864332704051 -6.987220778889156 -7.035112221296837 15 1 0
3611 1194 4 0 -10.029593194613923 -7.276950281317226 -7.087423691669291 15 1 0
2 1 3 0 -7.243651980141955 -6.753998058516996 -7.218999994857039 8 0 0
1460 477 4 0 -7.076015928636021 -7.066372594974373 -6.444333005793989 10 0 -1
1 1 1 0 -7.018045522166703 -7.129861901606996 -7.183453344758494 8 0 0
3 1 3 0 -6.834422582481254 -7.151257411503046 -6.761627777459465 8 0 0
162 44 4 0 -10.691113510789604 -6.297450560307394 -6.856801599243811 5 0 0
160 44 2 0 -10.820649642362994 -5.996734176067627 -7.199502898945611 5 0 0
1906 626 2 0 -8.395670526044057 -5.3774140527961345 -7.272726685602857 15 1 1
1907 626 4 0 -8.577040486454072 -5.210890867615189 -6.883814124985765 15 1 1
3338 1103 4 0 -8.747547835013492 -5.4900509598951786 -6.6328708886802605 7 0 1
2089 687 2 0 -5.736645229913649 -4.776923879839933 -6.685724969955699 16 1 1
2091 687 4 0 -6.07661181804569 -4.633220258580206 -6.956578286785282 16 1 1
2090 687 4 0 -5.4090487517298484 -4.923638308946903 -6.422646314153135 16 1 1
423 131 4 0 -6.328850950043222 -4.348349000763066 -7.111879084239448 5 0 0
3452 1141 4 0 -4.823374955547513 -3.7975343826791956 -6.895916150188729 14 1 0
3900 1290 4 0 -4.418885754696711 -3.7573831191627587 -6.919668971254727 15 1 0
3453 1141 4 0 -5.689265603119123 -3.507254961353164 -6.852072807706305 14 1 0
3451 1141 2 0 -5.269721860910206 -3.6517453708872836 -6.87578308040403 14 1 0
3898 1290 2 0 -4.050914532491635 -3.630291720998649 -6.6516447937523155 15 1 0
1877 616 4 0 -3.63989642121121 -3.165635723206158 -6.58711942970428 15 1 1
1876 616 2 0 -3.4352052199481804 -2.7539972864442426 -6.512056840431555 15 1 1
2774 915 4 0 -5.897142927738628 -2.0292914113980665 -7.3186649333188845 6 0 0
1685 552 4 0 -3.4283815462962846 -1.9935782889059723 -6.511777009059683 16 1 0
1878 616 4 0 -3.246851693640828 -2.3521179817980062 -6.44085326585703 15 1 1
3226 1066 2 0 -1.08520491597751 -2.2621229099964957 -7.261252490287747 -1 -1 0
3228 1066 4 0 -1.3047623785343507 -1.9101422227337768 -7.159803084731868 -1 -1 0
506 159 4 0 -11.614825823973572 -1.163814528457097 -7.144287953466503 11 0 0
3699 1223 4 0 -8.390382553693403 -1.623460996063537 -7.112727148836419 16 1 0
2786 919 4 0 -8.070404327296838 -1.5055691013152828 -6.9321608397785495 8 0 1
2785 919 2 0 -7.814081638226909 -1.3602303022088176 -6.5840356326554526 8 0 1
2552 841 4 0 -4.333383567290541 -0.9731621851546084 -7.28889478627694 8 0 0
1686 552 4 0 -3.144257799335403 -1.1395899913549243 -6.515890575558595 16 1 0
1684 552 2 0 -3.285736064692742 -1.5645014820430294 -6.511251577119429 16 1 0
2561 844 4 0 -2.0766561444871474 -1.2313296587670752 -6.625182678607566 1 -1 0
2562 844 4 0 -1.3465940650389303 -1.5922426611519764 -6.943074879943825 1 -1 0
2560 844 2 0 -1.7165387261987526 -1.415618136101596 -6.778339724063038 1 -1 0
1997 656 4 0 -9.860186175235125 -0.01948863038417592 -6.792255300105091 9 0 1
622 198 2 0 -9.465939152560209 -0.6270557554659248 -7.259887215627713 6 0 1
624 198 4 0 -9.701013540714213 -0.32393139097174206 -7.003378648266963 6 0 1
1517 496 4 0 -2.98641803123296 -0.7844616150927912 -6.481503400863509 16 1 0
2771 914 4 0 -0.9813570049731233 -0.04059657478445011 -6.58448577018455 9 0 0
2770 914 2 0 -0.6332814931636612 -0.31991046538787593 -6.5788574747414765 9 0 0
2772 914 4 0 -0.27976664895714976 -0.5991810138401537 -6.58748697013714 9 0 0
2109 693 4 0 -10.890110059101257 -11.103252374591666 -5.8534671028996845 16 1 1
2954 975 4 0 -3.1915977172623666 -11.781581187991787 -5.58791443256031 6 0 1
2108 693 4 0 -11.67829675134591 -10.748826420323335 -6.2119384997906115 16 1 1
2107 693 2 0 -11.281887828257647 -10.926610677706405 -6.031050876191541 16 1 1
164 45 4 0 -10.58891057739219 -10.911031174946972 -5.663304111454294 6 0 0