LAMMPS data file via write_data, version 4 Feb 2025, timestep = 500000, units = lj

4800 atoms
4 atom types
3300 bonds
1 bond types
2250 angles
2 angle types

-11.930663 11.930663 xlo xhi
-11.930663 11.930663 ylo yhi
-11.930663 11.930663 zlo zhi
7.105427357601002e-15 0 0 xy xz yz

Masses

1 1
2 1
3 0.1
4 0.1

Bond Coeffs # harmonic/omp

1 100 0.45

Angle Coeffs # harmonic/omp

1 100 180
2 100 109.471

Atoms # full

1794 498 4 0 -1.7541190693143953 -11.154564095733788 -11.711238302374854 7 1 0
1902 534 4 0 -1.3677775820211142 -11.036397068515504 -11.720216233947264 7 1 0
1900 534 2 0 -0.9425099570959521 -11.16514399690073 -11.666123783656989 7 1 0
1901 534 4 0 -0.5195462264702009 -11.290916482106939 -11.618722918893383 7 1 0
1889 530 4 0 -0.11639910078701021 -11.465938864316719 -11.598848540589414 7 1 0
1792 498 2 0 -2.1156368787524222 -11.009810517171077 -11.924716098803044 7 1 0
806 169 4 0 -7.569484865230937 -5.935465794701495 -11.025333948734858 3 0 0
3210 970 4 0 -0.5462168571996386 -5.566316178888726 -11.52198090025393 3 0 0
3208 970 2 0 -0.31125022460121876 -5.658705830864893 -11.898276963896322 3 0 0
864 188 4 0 -1.802981027826334 -5.228459740906817 -11.085808721908949 2 0 0
2894 865 4 0 -1.5068282977443985 -4.9700209629525895 -11.028791404054685 3 0 0
2893 865 2 0 -1.0920271790883458 -5.073270583927076 -11.25950239823531 3 0 0
2895 865 4 0 -0.6876011238976982 -5.173228173368627 -11.494860903313986 3 0 0
1547 416 4 0 -10.461747676734932 -3.675341790377921 -11.875580205264049 3 0 1
3637 1113 2 0 -10.160872752799381 -3.718051403975865 -11.121240304440333 4 0 1
3638 1113 4 0 -10.301146575670977 -3.607270680919635 -11.53894595383792 4 0 1
2170 624 2 0 -0.05274618078771809 -2.7628696966932527 -11.603153089787538 8 1 0
1111 271 2 0 -10.200025654736578 -2.2369096607047734 -11.876789796708954 4 0 0
1112 271 4 0 -9.770855480408061 -2.230145998784181 -11.741050481153671 4 0 0
1538 413 4 0 -9.404132957977353 -2.1947344034361134 -11.609735036943334 4 0 1
1537 413 2 0 -8.979648553239988 -2.093314207707822 -11.59345953282578 4 0 1
1539 413 4 0 -8.535574710933256 -1.990153356794604 -11.581218241567633 4 0 1
338 68 3 0 -8.149387457959426 -1.9765288060847706 -11.687192947851804 4 0 1
336 68 1 0 -7.757319908099558 -1.9678468480961477 -11.897716777105915 4 0 1
337 68 3 0 -7.55921859144836 -2.3729541268557206 -11.880651773491204 4 0 1
3367 1023 2 0 -6.726165160731277 -2.4747201583936036 -11.902695131072909 5 0 1
1359 353 4 0 -5.98303651726157 -2.659534127677748 -11.720718430759947 4 0 1
1357 353 2 0 -5.55038192027679 -2.5836181102333047 -11.648487854859779 4 0 1
3369 1023 4 0 -6.276139460328214 -2.4293293480849556 -11.841366110299248 5 0 1
1358 353 4 0 -5.106167753995698 -2.4890162546663532 -11.574016258290936 4 0 1
1550 417 4 0 -4.680391546608815 -2.43450036166084 -11.5254451688157 4 0 1
1549 417 2 0 -4.304068451052369 -2.4662716004240153 -11.27257953678736 4 0 1
1551 417 4 0 -3.9577079875759287 -2.498082255392724 -11.031598680532857 4 0 1
2171 624 4 0 -0.4609470914433622 -2.6136095200761567 -11.661900866192788 8 1 0
339 68 3 0 -7.473484889250743 -1.6493638125796721 -11.693615359651762 4 0 1
2522 741 4 0 -7.3861326306593424 -1.5665338044553625 -11.305703054154623 4 0 1
2521 741 2 0 -6.9570168267460675 -1.6031844382020157 -11.138823642340022 4 0 1
197 40 3 0 -0.208049900669117 -1.3291167150031793 -11.547942695682192 4 0 1
196 40 1 0 -0.23616829497729874 -1.102715469068201 -11.163062420156185 4 0 1
198 40 3 0 -0.22124478864175146 -0.654894642102688 -11.253734780334558 4 0 1
942 214 4 0 -3.5206276482668493 -11.60152267072595 -10.235641075802654 2 0 0
940 214 2 0 -3.0753279054308464 -11.726062919147624 -10.348062753884033 2 0 0
941 214 4 0 -2.633037196656817 -11.851513536651035 -10.462042127364718 2 0 0
755 152 4 0 -7.356529607951557 -7.344577939409279 -10.19062706706266 2 0 0
2231 644 4 0 -7.41193841158373 -7.059808069917815 -10.47980876445952 3 0 0
2230 644 2 0 -7.384957903801964 -6.674465922787719 -10.722876246286294 3 0 0
2232 644 4 0 -7.367809275076642 -6.289228249943778 -10.960934223577473 3 0 0
805 169 2 0 -7.629190041517309 -5.551304940170884 -10.773033347717996 3 0 0
2996 899 4 0 -2.581279060886285 -6.056311202338048 -10.50446033429795 3 0 0
2995 899 2 0 -2.701029723823563 -6.280588487142505 -10.129861797935774 3 0 0
863 188 4 0 -2.2554508195182486 -5.820568118626287 -10.559598814242284 2 0 0
862 188 2 0 -2.037350458398299 -5.524960477186457 -10.814993256572397 2 0 0
3058 920 2 0 -8.31151130559454 -4.695196019043846 -10.605210687862245 4 0 0
3060 920 4 0 -8.0384002538888 -5.002888433536378 -10.46236179727662 4 0 0
807 169 4 0 -7.690952893021908 -5.1733308426122635 -10.537029056588077 3 0 0
2016 572 4 0 -0.18551914391247415 -5.2290334263742935 -10.191299139136962 7 1 0
3470 1057 4 0 -9.752983335769152 -3.9977058923647775 -10.465670132020508 4 0 1
3639 1113 4 0 -10.031046005370527 -3.821386541557274 -10.703253510247784 4 0 1
3469 1057 2 0 -9.296921360988952 -4.108808203106701 -10.446758348115395 4 0 1
3471 1057 4 0 -8.84802799621453 -4.223745802948783 -10.417607364794348 4 0 1
3059 920 4 0 -8.593786876321614 -4.37032061678089 -10.755894679543337 4 0 0
596 120 1 0 -7.373080902188595 -3.586680045902286 -10.109744021511686 4 0 0
3383 1028 4 0 -8.194869394616942 -3.3603086223893968 -10.198970655167535 4 0 1
597 120 3 0 -7.8164379039647995 -3.50779133373368 -10.143999330161176 4 0 0
598 120 3 0 -7.156980568554641 -3.4064207667873863 -10.470609081394413 4 0 0
2877 859 4 0 -6.766813759068237 -3.452567649359949 -10.568151484887276 4 0 0
2875 859 2 0 -6.377229218618383 -3.211074391122617 -10.610674940418068 4 0 0
2876 859 4 0 -6.006992055789366 -2.980617989590323 -10.652606192708046 4 0 0
826 176 2 0 -6.098887129202501 -2.144956411099095 -10.71270628511109 4 0 0
828 176 4 0 -5.955494887961812 -2.596901103160402 -10.771920671623583 4 0 0
2357 686 4 0 -3.5566922788435047 -2.5064609754791753 -10.976765751404228 4 0 1
2356 686 2 0 -3.193993922610275 -2.455894848088704 -10.737029077110702 4 0 1
2358 686 4 0 -2.8288755793502 -2.4131781795270975 -10.503896684176409 4 0 1
1754 485 4 0 -2.4595538850869154 -2.3366623465785246 -10.320330441284918 4 0 0
1753 485 2 0 -2.03129178496574 -2.1507349746942523 -10.212112858030112 4 0 0
1755 485 4 0 -1.6093085605112503 -1.9711057256447617 -10.095257063754238 4 0 0
2523 741 4 0 -6.497137282195837 -1.6389939222105134 -10.950646850365487 4 0 1
827 176 4 0 -6.232532468691212 -1.7107679070281492 -10.661899642304538 4 0 0
3622 1108 2 0 -4.054431080045487 -1.1996898214576532 -10.210977023324793 5 0 1
3624 1108 4 0 -3.6339163950633573 -1.2356478763856202 -10.326071515340848 5 0 1
3752 1151 4 0 -3.2378416790469124 -1.199153377833433 -10.431104883115045 5 0 1
3751 1151 2 0 -2.7730383054510312 -1.1883590662304293 -10.483903154378622 5 0 1
3753 1151 4 0 -2.3137569350967393 -1.184658501861131 -10.537009300097958 5 0 1
1679 460 4 0 -1.9191448007225897 -1.1788898588854586 -10.589869008751522 4 0 1
1678 460 2 0 -1.4942438516415297 -1.1550087213248617 -10.757852920344144 4 0 1
1680 460 4 0 -1.058838893079045 -1.1301139346794482 -10.930340944112421 4 0 1
199 40 3 0 -0.6332585370146759 -1.2110416365866943 -10.949246493691277 4 0 1
891 197 4 0 -3.797404215015707 -11.415114535030925 -10.030959675272186 2 0 0
889 197 2 0 -4.085157704062859 -11.088111558406005 -10.025994019676409 2 0 0
995 232 4 0 -4.631176674666629 -10.406837572643147 -10.031277096329354 2 0 0
994 232 2 0 -4.794923422402979 -10.105321652096427 -9.707673573606309 2 0 0
890 197 4 0 -4.3915357224174265 -10.73843458567897 -10.015242734978228 2 0 0
4724 1475 4 0 -11.790424253298648 -9.557557127863758 -9.823868347976257 8 1 1
2934 878 4 0 -11.404003454818673 -9.598797563776873 -9.981534482876251 2 0 0
2932 878 2 0 -10.996390735231113 -9.542426256489154 -9.808875130194618 2 0 0
2933 878 4 0 -10.59019906361201 -9.493373025008554 -9.645389724462799 2 0 0
1244 315 4 0 -10.182503051181543 -9.488704529572539 -9.49481086554513 2 0 0
1243 315 2 0 -9.73177933407652 -9.392357778483172 -9.407808656618148 2 0 0
1245 315 4 0 -9.291817183480694 -9.292423843797268 -9.32705786827432 2 0 0
1351 351 2 0 -8.514858402938824 -9.263756840371068 -9.237108559093132 2 0 1
996 232 4 0 -4.9393605795702 -9.808301434094526 -9.393495273484985 2 0 0
1353 351 4 0 -8.102557326773873 -9.145636146131041 -9.338751348472906 2 0 1
80 16 3 0 -7.763771750440363 -9.059961095715797 -9.542002616118006 2 0 0
79 16 3 0 -7.352003656493174 -8.46022161312259 -9.640084473188494 2 0 0
76 16 1 0 -7.413862736893741 -8.826892138614726 -9.389466239568147 2 0 0
77 16 3 0 -7.057451342274614 -9.074878930110193 -9.395331754154125 2 0 0
1149 283 4 0 -6.691450770015594 -9.067338902560143 -9.551502146898386 2 0 0
1147 283 2 0 -6.234380783362175 -9.095252112611925 -9.595584117093662 2 0 0
1148 283 4 0 -5.7632296777607985 -9.138187703501663 -9.62531527085477 2 0 0
241 49 1 0 -5.113743017849343 -9.145082786813314 -9.182174238878986 2 0 0
242 49 3 0 -5.360376387205336 -9.159708471548546 -9.565534404982694 2 0 0
244 49 3 0 -4.777933298736551 -8.862675569901256 -9.238188935815861 2 0 0
4125 1275 4 0 -3.1701855481674333 -8.383960732889726 -9.182243039754242 3 0 0
756 152 4 0 -7.289967770239413 -8.072253824235938 -9.695437089944996 2 0 0
754 152 2 0 -7.322782876277413 -7.713588762746875 -9.939828568809094 2 0 0
2997 899 4 0 -2.817588991544607 -6.510322960204847 -9.753877071839883 3 0 0
4109 1270 4 0 -2.652552367868971 -6.379170539884233 -9.412327639970831 8 1 0
922 208 2 0 -0.016220258207106042 -5.692685370575082 -9.482234034677024 2 0 0
1367 356 4 0 -7.482175457345733 -5.119999802186305 -9.611823445462093 4 0 1
1366 356 2 0 -7.439347553010299 -4.721564388699718 -9.711836094553842 4 0 1
923 208 4 0 -0.18759819070439399 -5.407255860800033 -9.823993985934155 2 0 0
1368 356 4 0 -7.390767948771485 -4.290899330103676 -9.8244715393922 4 0 1
600 120 3 0 -7.301946227804063 -4.038604692575583 -10.093156897549225 4 0 0
507 102 3 0 -11.368636537525818 -2.9936619147520975 -9.519562753336553 4 0 1
3382 1028 2 0 -8.321437094047823 -2.9645204888040038 -10.008051285428735 4 0 1
599 120 3 0 -7.2191767406276135 -3.3977834108699785 -9.743088534321332 4 0 0
1638 446 4 0 -7.056424479282401 -3.156754035661077 -9.473050370175432 4 0 1
506 102 1 0 -11.41307830166854 -2.5642887966035524 -9.428640196251093 4 0 1
510 102 3 0 -11.460956485749897 -2.327095738948419 -9.808254160276988 4 0 1
509 102 3 0 -11.045009901160247 -2.42964171935445 -9.212341869505902 4 0 1
753 151 4 0 -10.62451696996491 -2.42988179980056 -9.218221505481925 4 0 0
751 151 2 0 -10.202756486545226 -2.247510401809153 -9.271642073381322 4 0 0
208 42 3 0 -9.34304598824538 -2.021835489295773 -9.390499845154185 4 0 0
752 151 4 0 -9.769154353891093 -2.070789141810309 -9.328206732547713 4 0 0
3384 1028 4 0 -8.43790289365963 -2.59340133707647 -9.82990562862705 4 0 1
209 42 3 0 -8.789443721509176 -2.410294905050378 -9.738155726017103 4 0 0
206 42 1 0 -8.895043799959954 -2.151435084338683 -9.36838469320473 4 0 0
1636 446 2 0 -6.823315384161087 -2.748267232419318 -9.455062736623178 4 0 1
1637 446 4 0 -6.611824468030297 -2.3611063830187415 -9.450723981485242 4 0 1
2196 632 4 0 -1.252081694554498 -2.0899601061887374 -10.05075528646742 4 0 0
2194 632 2 0 -0.8218567511614605 -2.0694278510507864 -9.917003856197583 4 0 0
2195 632 4 0 -0.38348539602926834 -2.05419815629174 -9.788017785045534 4 0 0
207 42 3 0 -8.63543957774378 -1.7959798990968157 -9.349861856237943 4 0 0
3171 957 4 0 -8.252848653940243 -1.6962428630359216 -9.379685441167126 5 0 0
3169 957 2 0 -7.838223515195567 -1.6829636429856691 -9.47914640997675 5 0 0
3170 957 4 0 -7.380558930472855 -1.6701861979060126 -9.584048113296895 5 0 0
1607 436 4 0 -7.0010693650263605 -1.6838416679597543 -9.712700010373256 5 0 1
1606 436 2 0 -6.524167757655654 -1.6608666253837736 -9.685481180419407 5 0 1
1608 436 4 0 -6.081591720702026 -1.62717138236866 -9.667142086166836 5 0 1
3945 1215 4 0 -5.774858787268191 -1.5083998986733285 -9.872076439700765 5 0 0
3943 1215 2 0 -5.35101332900245 -1.3702477152435932 -9.940955376607963 5 0 0
3944 1215 4 0 -4.9098744493336195 -1.2295382214641357 -10.019954840403182 5 0 0
3623 1108 4 0 -4.515410604953659 -1.155852135751367 -10.070891873477203 5 0 1
1352 351 4 0 -8.940052012396945 -9.374076292812429 -9.141348675484952 2 0 1
243 49 3 0 -4.951843832504775 -9.553338519183418 -9.100229182856113 2 0 0
78 16 3 0 -7.494379665700859 -8.684394095885628 -8.953824976639305 2 0 0
245 49 3 0 -5.3731493269788295 -9.00147114150674 -8.828896557956412 2 0 0
1460 387 4 0 -4.422709557819753 -8.871061085966208 -9.13094719316805 3 0 0
1459 387 2 0 -3.988850533669841 -8.736231058561938 -9.12786470234933 3 0 0
1461 387 4 0 -3.5362727897332977 -8.5932291374774 -9.12830733578299 3 0 0
4123 1275 2 0 -2.8382244687356835 -8.096556541094738 -9.164556384276503 3 0 0
4124 1275 4 0 -2.4821755907924814 -7.784646145625539 -9.13343732408486 3 0 0
4214 1305 4 0 -2.0878207265291255 -7.6853713773601795 -9.080872843475412 3 0 0
4213 1305 2 0 -1.7033242798166253 -7.477484207341059 -9.026134920110303 3 0 0
4108 1270 2 0 -2.472660137558183 -6.5785034296669656 -9.058448097439737 8 1 0
4110 1270 4 0 -2.2929984964219017 -6.785550910449218 -8.712213850462211 8 1 0
618 124 3 0 -2.2405940727422973 -7.12247579189274 -8.503309721628368 8 1 0
4215 1305 4 0 -1.3036061042166125 -7.255344009271424 -8.961795155038923 3 0 0
3893 1198 4 0 -1.0154418871259452 -7.073430935665728 -8.77170021407639 3 0 0
3892 1198 2 0 -0.5721827234717995 -7.085993932624759 -8.627933640904743 3 0 0
3894 1198 4 0 -0.150287060943608 -7.081647075220821 -8.487091587304748 3 0 0
2976 892 4 0 -3.0788602576629334 -4.797802150408495 -8.38779079121407 3 0 0
468 94 3 0 -2.7708189176053946 -5.011441032883224 -8.52785351514307 3 0 0
469 94 3 0 -2.1107996108202336 -5.305258560260975 -8.318990871989355 3 0 0
3039 913 4 0 -1.7790073651880807 -5.074242836779492 -8.416857253322156 3 0 0
3037 913 2 0 -1.338942644637621 -4.939038294955462 -8.306199369295218 3 0 0
3397 1033 2 0 -0.08941895084130103 -4.686357639615692 -8.272061876491307 3 0 1
1123 275 2 0 -11.505921636054298 -3.891015401913437 -9.122278121860408 3 0 0
1125 275 4 0 -11.802113154097178 -4.214474321759865 -9.07966531455735 3 0 0
1124 275 4 0 -11.19500638230102 -3.549377777597927 -9.155266055652037 3 0 0
2951 884 4 0 -11.100667848933472 -3.471483373895749 -8.776097208597823 4 0 0
2950 884 2 0 -10.822845445730136 -3.373134324383919 -8.445019945453728 4 0 0
508 102 3 0 -11.783789202930167 -2.5017908534542617 -9.155162761204284 4 0 1
210 42 3 0 -8.824496275061572 -2.4083121109590433 -8.988791599780368 4 0 0
1523 408 4 0 -8.52785205990769 -2.1906024070148096 -8.767458899688485 4 0 1
1522 408 2 0 -8.217590316971112 -2.096836653634263 -8.456887646876586 4 0 1
4278 1326 4 0 -1.2235437039552952 -0.4368471917922374 -8.377463896830502 5 0 0
4276 1326 2 0 -0.8034797063471988 -0.6065511300105495 -8.512611638265676 5 0 0
4277 1326 4 0 -0.40721433792006856 -0.7779549960663861 -8.642930367626088 5 0 0
4427 1376 4 0 -0.03948737220601295 -0.8857501135240611 -8.672882940941054 5 0 1
3827 1176 4 0 -11.693144849623959 -11.813550314672923 -7.556442228960992 9 1 0
3424 1042 2 0 -10.89645030171803 -11.92216681416829 -7.801160742196224 3 0 0
3425 1042 4 0 -10.466016796305636 -11.916381276025973 -7.8999242315566525 3 0 0
604 121 3 0 -9.644991304326304 -11.774203345776106 -7.3892606009839845 9 1 0
2998 900 2 0 -2.8233449600542446 -9.172577926559654 -7.370056641302046 3 0 0
1529 410 4 0 -2.603017555523749 -8.576494653297662 -7.837823551665045 2 0 1
3000 900 4 0 -2.7279709272517625 -8.767800830477741 -7.514612525243775 3 0 0
1528 410 2 0 -2.6399067983059226 -8.107394324971803 -7.785679137045711 2 0 1
1530 410 4 0 -2.6826768596219583 -7.661066753040565 -7.743280125227731 2 0 1
617 124 3 0 -2.379052051523324 -7.478207291100795 -7.881309970669432 8 1 0
1126 276 2 0 -1.0658997260613567 -7.475070621287481 -7.530080786515001 2 0 0
1127 276 4 0 -1.4637786923137615 -7.405146900964733 -7.776344609329849 2 0 0
2948 883 4 0 -0.3172793194784429 -7.628836339390513 -7.462967741070501 3 0 0
619 124 3 0 -2.372555072933654 -6.745250536698574 -7.841246828690526 8 1 0
616 124 1 0 -2.1840250966605623 -7.135457944011614 -8.044250072279963 8 1 0
620 124 3 0 -1.765417033064228 -7.161008923122266 -7.948646406112837 8 1 0
4040 1247 4 0 -5.035099285668582 -6.111320703269081 -7.424883192441614 3 0 0
2091 597 4 0 -5.444601526596125 -6.13747569002504 -7.455004029445567 3 0 0
4041 1247 4 0 -4.130340126609957 -5.946878275295111 -7.388756014318191 3 0 0
4674 1458 4 0 -3.795350949937493 -5.726862318212288 -7.428678356011625 3 0 1
4039 1247 2 0 -4.577084056539755 -6.02904455252391 -7.406778622945976 3 0 0
4672 1458 2 0 -3.423302843740087 -5.787735560032313 -7.683570008179185 3 0 1
4673 1458 4 0 -3.041128400887434 -5.844070354762358 -7.9488109206918 3 0 1
470 94 3 0 -2.7617785974299736 -5.6488417776347815 -8.168737297444425 3 0 0
466 94 1 0 -2.5630411301541045 -5.244973270042878 -8.20038777342284 3 0 0
467 94 3 0 -2.59562335072426 -5.020091960405367 -7.809521954397114 3 0 0
3038 913 4 0 -0.9341785678097647 -4.824627993986839 -8.203662818137987 3 0 0
3398 1033 4 0 -0.5432518496454879 -4.766381871610089 -8.212679815634555 3 0 1
2975 892 4 0 -3.806086762209695 -4.338475286976945 -8.029911850681664 3 0 0
2974 892 2 0 -3.457599392094874 -4.559647957091685 -8.203982993404447 3 0 0
2952 884 4 0 -10.538665640191153 -3.2891493974693233 -8.109582737410568 4 0 0
4031 1244 4 0 -10.370943658546613 -3.1914938201593195 -7.760887298912766 4 0 0
4030 1244 2 0 -10.388327290198568 -2.892822996511253 -7.426528341508489 4 0 0
1524 408 4 0 -7.9006314950126875 -1.9959679984348355 -8.149100055589743 4 0 1
1161 287 4 0 -7.564971585737544 -2.1896145499879403 -8.132305350641891 4 0 0
1159 287 2 0 -7.161989504769672 -2.39301993600721 -8.064468170400353 4 0 0
1160 287 4 0 -6.728579374198404 -2.603583819451284 -7.9936438380152595 4 0 0
1365 355 4 0 -6.579416519227907 -2.558034444834272 -7.62038679038337 4 0 1
4372 1358 2 0 -1.828936343399981 -0.17369563652822784 -8.108427328322371 5 0 1
4373 1358 4 0 -1.503248193731178 -0.47667514409238976 -8.098750109887837 5 0 1
1768 490 2 0 -11.755176212188811 -9.326010636836132 -6.814282842767237 7 1 0
1769 490 4 0 -11.720721892144267 -9.713936545323106 -6.612761367870859 7 1 0
2768 823 4 0 -3.172134246092657 -9.574219610273516 -6.911747258796966 3 0 0
2767 823 2 0 -3.4221040736574704 -9.714803481518151 -6.585798122674022 3 0 0
2999 900 4 0 -2.9235596713941714 -9.572107132513226 -7.224795824246432 3 0 0
1770 490 4 0 -11.791421640553445 -8.923760152331813 -7.016422664348728 7 1 0
3632 1111 4 0 -9.182099250106162 -8.30250072111287 -6.4886260685686405 3 0 1
3631 1111 2 0 -8.884015299213715 -8.026427975048305 -6.661806005790645 3 0 1
3633 1111 4 0 -8.585653107265122 -7.756628768590833 -6.8361169073062324 3 0 1
3645 1115 4 0 -8.420484884167506 -7.5311471018000935 -7.111725060063128 3 0 0
3643 1115 2 0 -8.005751183366076 -7.420361566239183 -7.034082462163531 3 0 0
1128 276 4 0 -0.6841679496877209 -7.537427745397489 -7.302137587533647 2 0 0
3644 1115 4 0 -7.5917016326602225 -7.319254580128669 -6.95973701935015 3 0 0
2408 703 4 0 -7.251665099743147 -7.126051812134549 -6.992532012060786 2 0 1
2407 703 2 0 -6.955010258240062 -6.806085381969155 -7.094619227147656 2 0 1
2409 703 4 0 -6.660878207230572 -6.49515774924653 -7.1968106353542245 2 0 1
1728 476 4 0 -2.3044416371773515 -6.434991422846285 -6.442791620920886 2 0 0
3341 1014 4 0 -2.0076120723825994 -6.6865815060665765 -6.568936678300132 3 0 1
3340 1014 2 0 -1.6024087218635277 -6.545070644896198 -6.590508137399082 3 0 1
2090 597 4 0 -6.298607674929317 -6.298853681415835 -7.201619791194801 3 0 0
2089 597 2 0 -5.8835395743092915 -6.220607151473458 -7.323378137232501 3 0 0
3342 1014 4 0 -1.1869606750580726 -6.3965756939146035 -6.6120073836853885 3 0 1
48 10 3 0 -1.0368747937155796 -5.682895430155904 -6.646173820875872 3 0 0
47 10 3 0 -0.7768319415248062 -6.367254369465667 -6.664129933206051 3 0 0
46 10 1 0 -0.6659220282663618 -5.937619563722153 -6.667262144599258 3 0 0
50 10 3 0 -0.4346684558335365 -5.838780211824831 -7.060130298113877 3 0 0
1179 293 4 0 -0.04067849747637098 -5.677454753626471 -7.079588360193031 3 0 0
900 200 4 0 -2.166128006406792 -5.291549086632465 -6.486134676399565 3 0 0
2814 838 4 0 -2.553230826711193 -5.310014844178118 -6.457787025378372 4 0 0
899 200 4 0 -1.3180884233318313 -5.461666605448397 -6.447246474942648 3 0 0
898 200 2 0 -1.7432163102529081 -5.376156453899963 -6.467638418900896 3 0 0
1939 547 2 0 -5.63625228501205 -2.9029573450563824 -6.445914782739071 4 0 0
4052 1251 4 0 -10.370574483630254 -2.6966879634359664 -6.676141075001173 4 0 0
4032 1244 4 0 -10.40800462612808 -2.5938364313069275 -7.079581288891028 4 0 0
1940 547 4 0 -6.0013509709664214 -2.694959617708376 -6.554905844624188 4 0 0
1363 355 2 0 -6.270796801651132 -2.5799052606699213 -7.277935577127555 4 0 1
1364 355 4 0 -5.983805724970855 -2.5886951493583386 -6.940896141517374 4 0 1
1291 331 2 0 -10.649830521812774 -11.085926091094015 -5.660800849695887 2 0 0
1292 331 4 0 -10.319808701811587 -11.397340997362999 -5.510857572648515 2 0 0
1219 307 2 0 -11.402715239481168 -10.271105404763293 -6.0449214758996925 2 0 0
1220 307 4 0 -11.181374431033152 -10.500567215296368 -5.731815983469125 2 0 0
1293 331 4 0 -10.950473810233902 -10.80025515413942 -5.798745374199967 2 0 0
494 99 3 0 -3.131709500302419 -10.495266674746375 -5.564192062521102 3 0 0
491 99 1 0 -3.3705471822048203 -10.133545623339138 -5.51070605053655 3 0 0
1221 307 4 0 -11.640899682221855 -10.030018830277422 -6.369672011145942 2 0 0
2769 823 4 0 -3.6863282431046915 -9.86450538190492 -6.239225699676036 3 0 0
495 99 3 0 -3.544367413492841 -10.002144818166425 -5.906710162117459 3 0 0
3221 974 4 0 -10.452492609697305 -8.632932626438834 -5.910228537885965 3 0 0
3220 974 2 0 -10.023523622836262 -8.626650669378723 -5.808327430611363 3 0 0
3222 974 4 0 -9.60797706631368 -8.61775941197247 -5.715872467108245 3 0 0
768 156 4 0 -9.251350224070393 -8.725081981069097 -5.8362296222395775 2 0 0
766 156 2 0 -8.848498665321173 -8.591047858930642 -5.701143998662122 2 0 0
767 156 4 0 -8.454408583786 -8.454504426232225 -5.564051135067075 2 0 0
808 170 2 0 -7.80352642830895 -8.074858320600798 -5.62028035523002 2 0 0
810 170 4 0 -7.522812269672624 -7.767408996019446 -5.756265161945382 2 0 0
2798 833 4 0 -7.202113931935254 -7.570721686419207 -5.839813368335543 3 0 0
2797 833 2 0 -6.807549001740957 -7.414892126677157 -5.692779888490005 3 0 0
427 86 3 0 -5.5413976631312565 -7.676316721945269 -5.515484467677189 3 0 0
1155 285 4 0 -5.2250273123144115 -7.41019474195875 -5.536457734262375 2 0 0
2799 833 4 0 -6.401334676690663 -7.247517079671323 -5.548754417631298 3 0 0
1153 285 2 0 -4.80249112821795 -7.230178515463623 -5.56349178774952 2 0 0
1154 285 4 0 -4.389654633186335 -7.05315381749142 -5.583023729514444 2 0 0
1015 239 2 0 -3.6818021594721078 -6.958570543934237 -5.798715295538503 2 0 0
1017 239 4 0 -4.0128512247200705 -7.222339711116005 -5.642575161057105 2 0 0
1016 239 4 0 -3.337742734529673 -6.68446775870334 -5.9512332863715685 2 0 0
1726 476 2 0 -2.671107724080361 -6.429296941461132 -6.1920619331105655 2 0 0
4269 1323 4 0 -11.909053098122671 -5.772960000903448 -5.60475818906284 8 1 0
1736 479 4 0 -7.53179749335769 -5.991181089826832 -5.527733735995108 3 0 0
1727 476 4 0 -3.0520043457520263 -6.419041655817437 -5.943331062149216 2 0 0
49 10 3 0 -0.3968409320936779 -5.847217825413954 -6.304535581671909 3 0 0
1239 313 4 0 -0.05499003029200722 -6.050353956906119 -6.2936317556543395 3 0 0
2813 838 4 0 -2.9396491490444205 -4.731363046850664 -5.887780021367809 4 0 0
2812 838 2 0 -2.753379877094188 -5.011051653435293 -6.15928982619623 4 0 0
2759 820 4 0 -3.2009682885466457 -4.713845955459527 -5.582152445294896 4 0 0
4053 1251 4 0 -10.921740080671452 -2.814925417118568 -5.975992348516349 4 0 0
4051 1251 2 0 -10.64369949448144 -2.75485205787313 -6.3374666305154586 4 0 0
1941 547 4 0 -5.272059458872851 -3.0990911885104246 -6.337995995130156 4 0 0
581 117 1 0 -0.17703046276726297 -2.9296687014578175 -5.619454193272317 4 0 0
585 117 3 0 -0.27661476305314814 -2.976255077408469 -6.0692386526235556 4 0 0
3929 1210 4 0 -11.262619013454607 -2.6162716949072706 -5.853448072096059 4 0 0
3928 1210 2 0 -11.7050522124575 -2.6335312293371285 -5.853983817784911 4 0 0
2885 862 4 0 -11.3511634204164 -11.076680634868447 -4.623408686571442 2 0 0
6 2 1 0 -9.78539728044692 -11.261875050092225 -4.974901945775724 2 0 0
10 2 3 0 -10.006548231689962 -11.497704490717128 -5.296822965914471 2 0 0
7 2 3 0 -9.420478776031695 -11.485898734328135 -4.840983538319801 2 0 0
8 2 3 0 -10.061284650840111 -11.194072317205217 -4.608253856713347 2 0 0
2162 621 4 0 -9.035250662437198 -11.511126206265246 -4.808952415530227 8 1 0
2161 621 2 0 -8.619154169574424 -11.561591143552418 -4.608130679118696 8 1 0
9 2 3 0 -9.665994518996108 -10.870671403125412 -5.143701203597141 2 0 0
771 157 4 0 -9.459602936136722 -10.54451899644905 -5.038916643803716 2 0 0
769 157 2 0 -9.447807403408014 -10.103722164834963 -4.968792806871629 2 0 0
3074 925 4 0 -7.373662249625232 -10.795290791466781 -4.800370188984385 3 0 0
3073 925 2 0 -7.138261140345234 -10.44120793988947 -4.59425557368021 3 0 0
492 99 3 0 -3.6930360712349817 -10.22564823557523 -5.2210573504629485 3 0 0
770 157 4 0 -9.430019094773442 -9.659652338453984 -4.889622435791322 2 0 0
2061 587 4 0 -9.111039302073912 -9.453145764881066 -4.7636800487079105 7 1 0
2059 587 2 0 -8.768656763538445 -9.238955963532002 -4.603795122773675 7 1 0
493 99 3 0 -3.0936975867994043 -9.783376719368619 -5.334284570586574 3 0 0
948 216 4 0 -2.765974109223743 -9.558693850937356 -5.370591433737623 2 0 0
809 170 4 0 -8.094908634738255 -8.389331952299388 -5.466518043109901 2 0 0
789 163 4 0 -7.185908189554598 -8.294142549921967 -4.621182551568839 2 0 0
946 216 2 0 -2.8225828126171315 -9.107672723720757 -5.274627729825552 2 0 0
947 216 4 0 -2.8843023899175417 -8.669580627880672 -5.200586652421905 2 0 0
1100 267 4 0 -2.9277775415882505 -8.468940054445774 -4.867857428593729 2 0 0
543 109 3 0 -7.579582517895882 -8.257143114569823 -4.612100691915215 3 0 0
787 163 2 0 -6.83658768465207 -8.113247735003732 -4.790050100683106 2 0 0
788 163 4 0 -6.462088221478191 -7.921734106155319 -4.965283806656284 2 0 0
428 86 3 0 -6.083679919599514 -7.882593306288065 -5.068672994414242 3 0 0
426 86 1 0 -5.816703061684929 -7.545801480913623 -5.18199025953311 3 0 0
429 86 3 0 -5.582030114114688 -7.414700141680536 -4.837934989872356 3 0 0
1099 267 2 0 -3.141402257626881 -8.087454629660515 -4.879731872189625 2 0 0
1101 267 4 0 -3.3678167281119613 -7.675789024904036 -4.888195151186948 2 0 0
1545 415 4 0 -8.429412325391695 -6.430827810081991 -4.608413081711494 3 0 0
430 86 3 0 -6.060727273465865 -7.208674590194447 -5.321373325133135 3 0 0
4267 1323 2 0 -11.54135032389005 -5.609392734179964 -5.352921261813924 8 1 0
1737 479 4 0 -8.164999606553428 -6.209040134358828 -4.834637526458521 3 0 0
1735 479 2 0 -7.859332905850601 -6.102194690800913 -5.171540512984333 3 0 0
2103 601 4 0 -7.200403838685609 -6.006179308848049 -5.289919740488418 3 0 0
2101 601 2 0 -6.7386730015955605 -5.983126743136069 -5.3727302666059975 3 0 0
3291 997 4 0 -6.08198035706798 -5.789190329206223 -5.135847482567223 3 0 1
2102 601 4 0 -6.313321155852212 -5.957720310675609 -5.454235436034729 3 0 0
4268 1323 4 0 -11.183384941798845 -5.44743687581812 -5.109819111086804 8 1 0
1971 557 4 0 -10.79266994664161 -5.458506965281565 -5.0046710076905985 8 1 0
1969 557 2 0 -10.351660148151208 -5.390388476083617 -4.838573177633541 8 1 0
1970 557 4 0 -9.91037881574407 -5.323452671255097 -4.6858291191447226 8 1 0
3289 997 2 0 -5.827898887232759 -5.468980914743949 -4.946665343903958 3 0 1
3290 997 4 0 -5.5581048299881 -5.137260050608917 -4.7376366227772975 3 0 1
455 91 3 0 -3.824046488663134 -3.75907960482942 -4.9846307798955225 4 0 0
2760 820 4 0 -3.5237900731977376 -3.938809363362041 -5.161076086041332 4 0 0
2758 820 2 0 -3.3620568186117836 -4.328757063251243 -5.3751340232226985 4 0 0
1042 248 2 0 -6.30407922173117 -3.42755147266595 -4.709813679116805 4 0 0
794 165 4 0 -5.541064332288281 -3.34740952003456 -4.753286360131761 4 0 0
1043 248 4 0 -5.899514455394729 -3.417813321789044 -4.899938950404934 4 0 0
793 165 2 0 -5.077818130788893 -3.3036286005752427 -4.789661848846892 4 0 0
795 165 4 0 -4.63263887549475 -3.2647185193875057 -4.814889675660579 4 0 0
453 91 3 0 -4.231935909896677 -3.1862737963121166 -4.7727365443064995 4 0 0
454 91 3 0 -3.9514614745481937 -3.2319105661518908 -5.4348525569217605 4 0 0
451 91 1 0 -3.8706855053061187 -3.326447294116221 -5.028801787676002 4 0 0
452 91 3 0 -3.5009931981008613 -3.1179014945405843 -4.90305164063226 4 0 0
1851 517 4 0 -3.114975419109655 -3.0086123499786765 -4.949064427644431 4 0 0
1849 517 2 0 -2.6676817692547576 -3.0754451763502324 -4.979005928643639 4 0 0
1850 517 4 0 -2.2204705864769476 -3.146023162226843 -5.013857772942533 4 0 0
4088 1263 4 0 -1.864565503231029 -2.9905662712643455 -4.991287250813546 4 0 0
4087 1263 2 0 -1.42107014981306 -2.9141356354067263 -5.098143434356308 4 0 0
4089 1263 4 0 -0.999492970771005 -2.8393222160868223 -5.217247354195469 4 0 0
584 117 3 0 -0.5986249573813591 -2.9466639845214555 -5.356272970988177 4 0 0
2208 636 4 0 -3.6910706507566253 -1.2139950826206096 -4.684446965008956 9 1 0
3183 961 4 0 -11.75355086139272 -11.109180348138986 -4.508978559123608 3 0 0
2886 862 4 0 -10.476366435370496 -11.22859746063582 -4.52013983219045 2 0 0
2884 862 2 0 -10.907354400294519 -11.159843470476234 -4.56936005560066 2 0 0
4289 1330 4 0 -7.797178015953118 -11.5768423456064 -4.343282339874662 8 1 0
2163 621 4 0 -8.207286495719236 -11.611797755120861 -4.399397896984237 8 1 0
4290 1330 4 0 -6.8575059539354015 -11.38986971336371 -4.251383707889487 8 1 0
4288 1330 2 0 -7.302894780504664 -11.47840319932072 -4.298453479570714 8 1 0
3914 1205 4 0 -6.4541267587564075 -11.473814650732638 -4.347852714140531 8 1 0
3913 1205 2 0 -6.049903260774216 -11.656753932794553 -4.255703863004684 8 1 0