LAMMPS data file via write_data, version 4 Feb 2025, timestep = 5000000, units = lj

4800 atoms
4 atom types
3300 bonds
1 bond types
2250 angles
2 angle types

-11.930663 11.930663 xlo xhi
-11.930663 11.930663 ylo yhi
-11.930663 11.930663 zlo zhi
7.105427357601002e-15 0 0 xy xz yz

Masses

1 1
2 1
3 0.1
4 0.1

Bond Coeffs # harmonic/omp

1 100 0.45

Angle Coeffs # harmonic/omp

1 100 180
2 100 109.471

Atoms # full

1889 530 4 0 -7.841856648709216 -11.705993737623752 -11.847993960635515 8 1 0
1900 534 2 0 -7.236335777225876 -11.484366323264455 -11.68506499471474 8 1 0
1902 534 4 0 -7.018663410126621 -11.180022395606303 -11.413350264639487 8 1 0
4126 1276 2 0 -11.73855509074481 -10.96259268230898 -11.455264851987948 8 1 0
4128 1276 4 0 -11.30521800941415 -10.82566831522657 -11.5147033086122 8 1 0
3024 908 4 0 -10.953616782782053 -10.667470210391786 -11.575720580491284 3 0 0
3022 908 2 0 -10.579474185578912 -10.531659864154042 -11.790582312077625 3 0 0
1275 325 4 0 -8.125580334466404 -10.37896452026206 -11.091041984054332 2 0 1
1148 283 4 0 -7.090449003813019 -10.868613074140589 -11.163326309906846 2 0 0
1274 325 4 0 -8.57500611914032 -9.608459077481205 -11.31292727857708 2 0 1
1454 385 4 0 -8.585582622242242 -9.380253798685038 -11.65794617994843 2 0 1
1273 325 2 0 -8.341177807235525 -10.007827186717783 -11.19731000587807 2 0 1
1453 385 2 0 -8.980703855437783 -9.290020879592284 -11.835232149224442 2 0 1
3405 1035 4 0 -2.124702492049934 -9.774331180484308 -11.16746249099684 3 0 1
3289 997 2 0 -10.22749000230701 -6.735240577492784 -11.778925173536035 4 0 1
3291 997 4 0 -9.927148864104103 -6.587117797354489 -11.499230602246223 4 0 1
1584 428 4 0 -9.779975784060204 -6.895257192579096 -11.310247675353821 3 0 1
1582 428 2 0 -9.443707418610122 -6.951618167317209 -11.034254353684197 3 0 1
3683 1128 4 0 -7.370649195496563 -6.5448022020058145 -11.085888910200765 3 0 0
3682 1128 2 0 -7.27520590907117 -6.597150003600507 -11.514483706419961 3 0 0
1539 413 4 0 -1.3112625571447243 -6.566319901181357 -11.470204970804357 4 0 1
1537 413 2 0 -1.167038308693856 -6.130708486878976 -11.507880900583388 4 0 1
1538 413 4 0 -1.0235175262169633 -5.690077625737924 -11.55217291185044 4 0 1
2334 678 4 0 -2.7988293383046425 -4.809263939827743 -11.20192243370623 8 1 1
2333 678 4 0 -1.986372007986711 -5.140880597706388 -11.43810869263457 8 1 1
2332 678 2 0 -2.398129998566173 -4.971939437953996 -11.323980961905662 8 1 1
1251 317 4 0 -1.649872749008896 -5.2226686416690695 -11.635586157412583 3 0 1
1112 271 4 0 -0.8331866801545953 -5.406265800715694 -11.296843749594622 4 0 0
1111 271 2 0 -0.45628601115546097 -5.270273032803138 -11.10329198041064 4 0 0
3398 1033 4 0 -10.167259277521476 -4.338129884320585 -11.863448009520967 3 0 1
3397 1033 2 0 -9.798525488822317 -4.5655901123744 -11.922500567442116 3 0 1
2963 888 4 0 -6.902326146577871 -3.7613605388733973 -11.180611666464964 4 0 0
2763 821 4 0 -5.161741035887178 -3.945302492139364 -11.50058942941863 5 0 0
2661 787 4 0 -4.901410576374235 -3.700270081532544 -11.688822949266395 5 0 1
2761 821 2 0 -5.280846330590638 -4.088435730664313 -11.07401407946553 5 0 0
3626 1109 4 0 -7.765060649539532 -3.6057785838660035 -11.367873411830463 4 0 1
138 28 3 0 -7.4767850341582776 -3.5848687567152293 -11.643179061752825 4 0 1
3625 1109 2 0 -7.973647975647745 -3.423776756816153 -11.026314061854439 4 0 1
139 28 3 0 -6.776730306083702 -3.6195340097533517 -11.561139906931562 4 0 1
136 28 1 0 -7.117375537582541 -3.5937251574981346 -11.84897807078171 4 0 1
2659 787 2 0 -4.81945758636375 -3.2725374614424716 -11.817284091358962 5 0 1
2211 637 4 0 -2.816393385757424 -3.4935924745235276 -11.284857568678884 8 1 0
2045 582 4 0 -3.116375479973282 -3.365332870998053 -11.564766196564793 8 1 0
2044 582 2 0 -3.3520386601280414 -3.2283588563130543 -11.925871764154262 8 1 0
465 93 3 0 -9.813084183427257 -2.1344054533460444 -11.477119481934277 4 0 0
461 93 1 0 -9.3889017368546 -2.0439964101186963 -11.338626393000965 4 0 0
464 93 3 0 -9.091344001526442 -2.1169882143332437 -11.693866720980832 4 0 0
3754 1152 2 0 -6.755397582929903 -1.9858562400476707 -11.292030509683926 4 0 1
930 210 4 0 -5.410450565695313 -1.9649561051759221 -11.776943065919445 5 0 0
463 93 3 0 -9.357600503372279 -1.615739339310931 -11.206805059699429 4 0 0
4426 1376 2 0 -9.861391099349092 -1.0081063296396113 -11.107007603340696 5 0 1
4427 1376 4 0 -9.553181016741195 -1.307774929523184 -11.066455498124773 5 0 1
3755 1152 4 0 -7.010782731389974 -1.834401217967157 -11.643287086845959 4 0 1
4159 1287 2 0 -0.42047644742278045 -1.1060684020907896 -11.900442344973692 5 0 1
4428 1376 4 0 -10.184660790401724 -0.6916080294834508 -11.154760687491061 5 0 1
3453 1051 4 0 -9.086339487803674 -0.0667376420397634 -11.923319199672536 4 0 1
1620 440 4 0 -8.241694663042354 -0.046476081871071884 -11.13654401970866 4 0 1
1521 407 4 0 -5.935705703359694 -0.3360278989275418 -11.48836811861967 5 0 1
1519 407 2 0 -5.869382460896987 -0.2876135452085453 -11.924153304219727 5 0 1
197 40 3 0 -6.052295453787816 -0.0038277652167142406 -11.28803246420847 5 0 1
2425 709 2 0 -0.5093387071938711 -0.056393210791320314 -11.40478369155714 4 0 1
2427 709 4 0 -0.4725681675833773 -0.34205141841506226 -11.791799001250466 4 0 1
4160 1287 4 0 -0.38567446998557564 -0.6986660512805543 -11.685380331572322 5 0 1
2848 850 2 0 -4.473758020932373 -11.803833681466397 -10.172768194469377 3 0 0
1147 283 2 0 -7.438806647217206 -10.63839063680284 -11.007151847906245 2 0 0
1149 283 4 0 -7.784445607987616 -10.40608679149468 -10.8659184084412 2 0 0
889 197 2 0 -1.2608492269324802 -10.622787281542097 -10.256056942411378 2 0 0
890 197 4 0 -1.5377861257473082 -10.61333451366071 -10.620083621304609 2 0 0
3404 1035 4 0 -1.7345064161993697 -10.250836263500679 -10.49623004661257 3 0 1
3403 1035 2 0 -1.9376915865647444 -10.005443698620265 -10.850681212146592 3 0 1
1391 364 4 0 -7.152723497380481 -7.345101740630422 -10.123010213012048 2 0 1
1583 428 4 0 -9.109274822461643 -7.003786370452053 -10.758757144855261 3 0 1
2319 673 4 0 -9.056445854728922 -6.753861401867195 -10.482478725051301 3 0 1
2317 673 2 0 -8.688842857197226 -6.643546387642642 -10.252943744452235 3 0 1
1392 364 4 0 -7.429504282805113 -6.722494888530834 -10.750195421887843 2 0 1
1390 364 2 0 -7.297736965990248 -7.023062174015618 -10.451096806624827 2 0 1
4580 1427 4 0 -8.148336503446162 -6.183241931826775 -10.188327392109338 3 0 1
4579 1427 2 0 -7.755429181875996 -5.916188151011176 -10.11216929643668 3 0 1
2711 804 4 0 -7.061756519028186 -5.432104581870654 -10.109047744792443 4 0 1
2710 804 2 0 -6.7480960073675185 -5.151626844215778 -10.273185201533325 4 0 1
2712 804 4 0 -6.436092333488819 -4.867684723329238 -10.43804624936129 4 0 1
1113 271 4 0 -0.07240902472857869 -5.130214714670113 -10.905007215557287 4 0 0
2962 888 2 0 -6.827347920725582 -3.813453302957168 -10.778270267057824 4 0 0
2964 888 4 0 -6.741957436103385 -3.8722908766183846 -10.33327946495612 4 0 0
340 68 3 0 -6.336300969801854 -3.8702930185530118 -10.184450062867187 4 0 1
338 68 3 0 -5.62817129787249 -4.043972193153924 -10.360133838450514 4 0 1
339 68 3 0 -6.169510034305663 -4.576612561073416 -10.330249951653453 4 0 1
336 68 1 0 -6.016908215651008 -4.186451275077719 -10.146954223267413 4 0 1
2762 821 4 0 -5.389404033424163 -4.216496835313667 -10.661426041080057 5 0 0
2996 899 4 0 -11.397603848525941 -3.149589868733024 -10.518178334703446 4 0 0
183 37 3 0 -11.77089547165125 -3.269069625790145 -10.615154050635667 4 0 0
2995 899 2 0 -10.999594367977327 -3.3815767419956817 -10.587982481966556 4 0 0
2997 899 4 0 -10.637726865641289 -3.6086659202704823 -10.64307222019105 4 0 0
3383 1028 4 0 -10.299118483582944 -3.5078260984116767 -10.847224577314867 4 0 1
3382 1028 2 0 -9.8942271638087 -3.304077568603276 -10.839937284179712 4 0 1
3384 1028 4 0 -9.506944631407555 -3.109697523870963 -10.824610143036947 4 0 1
492 99 3 0 -9.276308721146133 -2.951787768262239 -10.535760892807867 5 0 0
493 99 3 0 -8.595878969752745 -3.2287302536464964 -10.77152274072638 5 0 0
491 99 1 0 -8.815699598816478 -2.9923734650878906 -10.437682164280814 5 0 0
3627 1109 4 0 -8.180074750313324 -3.243293642834656 -10.680966772096854 4 0 1
2209 637 2 0 -2.7129111557795227 -3.428890008552955 -10.847625155199124 8 1 0
1551 417 4 0 -2.218310223535145 -3.3969321807422617 -10.233279680619349 5 0 1
2210 637 4 0 -2.6084086992340367 -3.371025973869205 -10.413459466830727 8 1 0
462 93 3 0 -9.288329892880483 -2.299968530630913 -11.00899959849038 4 0 0
494 99 3 0 -8.637296435959883 -2.5853258046768097 -10.401240612163523 5 0 0
1032 244 4 0 -8.300429513531101 -2.519457750667975 -10.221750367576066 4 0 0
1030 244 2 0 -7.841367340259526 -2.518331444415665 -10.180974142526182 4 0 0
1031 244 4 0 -7.394252186036634 -2.510391224353233 -10.129791805119877 4 0 0
3756 1152 4 0 -6.508605980283566 -2.13682086172345 -10.96972619405361 4 0 1
43 9 3 0 -6.651297654821489 -2.1951411965463716 -10.58608060438229 4 0 0
41 9 1 0 -6.751722191134902 -2.2395237425355585 -10.16360004943628 4 0 0
42 9 3 0 -7.010604721855338 -2.628104998086867 -10.104932712571646 4 0 0
820 174 2 0 -6.661992907054357 -1.182320439479808 -10.478675977003908 4 0 0
822 174 4 0 -6.788099095360092 -1.5741872071407244 -10.280527207833664 4 0 0
1352 351 4 0 -10.40701899712081 -0.42071585812926315 -10.940904069083333 4 0 1
3548 1083 4 0 -7.937231927106064 -0.2434902783590065 -10.904000226069984 5 0 0
3547 1083 2 0 -7.517880398149058 -0.10966347383411623 -10.876466522450057 5 0 0
821 174 4 0 -6.537735856802957 -0.8162602691543697 -10.666796678054087 4 0 0
1680 460 4 0 -6.269397076293063 -0.019331730080491383 -10.212646012792806 5 0 1
198 40 3 0 -6.353824259442097 -0.557441408558228 -10.87786733262595 5 0 1
196 40 1 0 -6.297833096372034 -0.10678340462849789 -10.902560109258559 5 0 1
1851 517 4 0 -5.79205535115335 -11.031854183713062 -9.350825642866484 3 0 0
2849 850 4 0 -4.829620691160006 -11.65057239890394 -9.95478067075883 3 0 0
1850 517 4 0 -5.168954110380446 -11.444028243040934 -9.915478782301813 3 0 0
1849 517 2 0 -5.478871173117422 -11.2331949282285 -9.64069054832409 3 0 0
3950 1217 4 0 -6.0329074650454215 -10.736225664906195 -9.181079293509498 7 1 0
891 197 4 0 -0.993827663370098 -10.644119785152576 -9.895281112355153 2 0 0
940 214 2 0 -0.23672938400771315 -10.738551853758015 -9.749754846446697 2 0 0
942 214 4 0 -0.6755350115027898 -10.745249654657757 -9.660754116644151 2 0 0
2709 803 4 0 -6.806591705848595 -8.289893527701533 -9.674497452152357 7 1 1
2112 604 4 0 -11.74735346579433 -7.6333765296137335 -9.642897563149424 8 1 0
3644 1115 4 0 -11.447855487410997 -7.418339705318196 -9.802987275935028 4 0 0
3643 1115 2 0 -10.982740078738782 -7.375991401638581 -9.713535423850047 4 0 0
2708 803 4 0 -6.793482594587866 -7.486646391280642 -10.062598090594763 7 1 1
2707 803 2 0 -6.802085223432416 -7.888990306215947 -9.858828545812989 7 1 1
3645 1115 4 0 -10.530135318873352 -7.3233994175406805 -9.622653490657145 4 0 0
810 170 4 0 -10.170582974415883 -7.26112954039213 -9.824765171533278 3 0 0
808 170 2 0 -9.798477222154373 -7.224078312582545 -9.534997549262204 3 0 0
809 170 4 0 -9.435171706191012 -7.197502469354905 -9.228931800668269 3 0 0
2792 831 4 0 -9.04049573986567 -7.148018109723955 -9.199119412851035 3 0 0
2318 673 4 0 -8.281640413910441 -6.523645043937582 -10.017402300914126 3 0 1
4581 1427 4 0 -7.38942029602943 -5.678741776387593 -10.057136340629723 3 0 1
3053 918 4 0 -0.2519797700491484 -5.5694425969985195 -9.214189571480553 3 0 0
2999 900 4 0 -8.617144140037801 -4.718498324210368 -9.253536373233903 5 0 0
2768 823 4 0 -8.73253271368209 -4.411877546145467 -9.479844503204763 5 0 0
2767 823 2 0 -8.716335554980521 -4.015663335245257 -9.688804143576213 5 0 0
337 68 3 0 -5.936552121608627 -4.264142365857561 -9.714447571355924 4 0 1
2090 597 4 0 -5.6187714319285735 -4.392560940389587 -9.495281550222662 3 0 0
2089 597 2 0 -5.33046895101008 -4.1397409481538805 -9.278061095663302 3 0 0
2769 823 4 0 -8.698859889660831 -3.6196664307034148 -9.909306873174794 5 0 0
495 99 3 0 -8.756263852480881 -3.239363302796944 -10.01544265094668 5 0 0
1549 417 2 0 -1.8551641717467593 -3.28888116797231 -10.031159238684385 5 0 1
1550 417 4 0 -1.4856578054030027 -3.163238520196643 -9.828152647013857 5 0 1
1358 353 4 0 -1.2778816999101732 -2.8033627234208573 -9.795694455600476 5 0 1
1001 234 4 0 -0.1353824592148989 -2.7893996190990826 -9.820220534865152 4 0 0
4607 1436 4 0 -0.07209075032438683 -3.128345902779314 -9.874909614958733 4 0 1
1357 353 2 0 -0.8536561476205051 -2.9039088914740674 -9.874752560750492 5 0 1
1359 353 4 0 -0.44601475827375836 -3.002211669666007 -9.927017346941396 5 0 1
44 9 3 0 -6.981908789326788 -1.8683621505910715 -10.025922866850799 4 0 0
45 9 3 0 -6.3803704873278155 -2.2740944473912386 -9.922700606548458 4 0 0
1290 330 4 0 -6.101672141952728 -1.9940070625682829 -9.977821954853146 4 0 1
1288 330 2 0 -5.657473952691556 -2.0663805761607463 -9.90029607887786 4 0 1
1289 330 4 0 -5.223285705257348 -2.1355862694693855 -9.817907913789337 4 0 1
1097 266 4 0 -4.813557672984553 -2.239748742558856 -9.763332688069461 4 0 0
1096 266 2 0 -4.633524047771811 -2.1410351032243113 -9.35989364143922 4 0 0
3078 926 4 0 -9.907733951151805 -0.6803212630903985 -9.435402675571641 2 -1 0
3752 1151 4 0 -6.705750585184743 -0.07148626678947068 -9.257510219317181 6 0 1
2230 644 2 0 -0.07723375594108894 -0.02445026411403184 -9.279385609571897 4 0 0
3949 1217 2 0 -6.209172878049168 -10.632963785894104 -8.797408844182117 7 1 0
3951 1217 4 0 -6.39728923331375 -10.524116019517681 -8.400190427683563 7 1 0
454 91 3 0 -7.107537591374265 -9.86876360372441 -8.344649334984803 3 0 0
2791 831 2 0 -8.625137122427974 -7.121616939950459 -9.008229455111238 3 0 0
3465 1055 4 0 -7.9489471392261635 -7.153111531201388 -8.532394235247173 3 0 0
2793 831 4 0 -8.203634343870355 -7.088458087865693 -8.809683763627548 3 0 0
4145 1282 4 0 -5.206480931558838 -6.4841591848980356 -8.282172640538057 8 1 0
1202 301 4 0 -1.0217661144347652 -5.763585855390226 -8.266173831653937 2 0 0
1203 301 4 0 -0.4707022790231541 -5.799282657989709 -8.991126488502912 2 0 0
1201 301 2 0 -0.7483478083912782 -5.782804767156725 -8.629203452354345 2 0 0
1755 485 4 0 -11.754731918236084 -4.743132238148012 -8.69369463391049 4 0 0
1420 374 2 0 -11.060536252557888 -4.833358975592223 -8.478417027096809 4 0 0
1421 374 4 0 -10.758394833810641 -5.09613288101448 -8.33265018138287 4 0 0
2998 900 2 0 -8.60399668947768 -4.866568055457285 -8.815660619262584 5 0 0
3000 900 4 0 -8.59159396782855 -5.0010660902738255 -8.386652862117339 5 0 0
1496 399 4 0 -0.2778993190935761 -4.690178316366158 -8.883305105560174 3 0 1
1422 374 4 0 -11.393419837045053 -4.5541434532595435 -8.649254166570767 4 0 0
2091 597 4 0 -5.0311186826763485 -3.887431287835904 -9.063021025327266 3 0 0
432 87 3 0 -4.901987670975023 -3.9197375550221167 -8.684603853747817 3 0 0
431 87 1 0 -4.602184006373028 -3.882069434117838 -8.347937811583185 3 0 0
433 87 3 0 -4.229594723792458 -4.084150297118862 -8.458983316676301 3 0 0
1475 392 4 0 -1.2064599337337363 -4.256123039967209 -8.315017491958368 3 0 1
1495 399 2 0 -0.5590349604449258 -4.5082043009447865 -8.572918979004154 3 0 1
1497 399 4 0 -0.8202218145129425 -4.331549898515382 -8.275937333852331 3 0 1
2738 813 4 0 -9.015894069499181 -2.753489007906321 -9.0094184519353 4 0 0
3392 1031 4 0 -7.990451510783379 -2.800539035781039 -8.32699546157782 5 0 0
434 87 3 0 -4.526714909224513 -3.4569843351227068 -8.274397009518331 3 0 0
1234 312 2 0 -10.445536863837674 -1.8485083521928 -9.00891752001551 2 -1 0
1235 312 4 0 -10.165954596362004 -2.1958406579847196 -8.982657935402388 2 -1 0
2739 813 4 0 -9.800530493528196 -2.2495315347486073 -8.816626503074554 4 0 0
2737 813 2 0 -9.41725430382156 -2.493544221019743 -8.908266242013633 4 0 0
3391 1031 2 0 -8.35120348955126 -2.6985801597056707 -8.575648303466128 5 0 0
3393 1031 4 0 -8.710226941583084 -2.6004102655080104 -8.822185061378164 5 0 0
1098 266 4 0 -4.451015616564767 -2.0355106432447556 -8.938614858097278 4 0 0
4691 1464 4 0 -4.093413017601325 -1.8653424729849561 -8.97456118945316 5 0 1
1029 243 4 0 -11.754885004108795 -1.0373145871762297 -8.95679649966198 4 0 0
1027 243 2 0 -11.294308825497746 -1.100547266510132 -8.885442333140938 4 0 0
1236 312 4 0 -10.72007456887055 -1.5021740513034043 -9.014371762912704 2 -1 0
1028 243 4 0 -10.848587937313741 -1.1699838139010996 -8.8245469005599 4 0 0
4690 1464 2 0 -3.6273255258723083 -1.7425338802366248 -8.919107415261184 5 0 1
4692 1464 4 0 -3.194840185022752 -1.6226632130320482 -8.864966365699193 5 0 1
3545 1082 4 0 -3.0940826418063327 -1.2905537445273065 -8.660099788811062 5 0 1
3544 1082 2 0 -2.679995782883573 -1.2148546266717233 -8.513900347069296 5 0 1
3546 1082 4 0 -2.2625915815881203 -1.1502817945763155 -8.363005529022972 5 0 1
3076 926 2 0 -9.917496157283033 -0.45538192138184286 -9.073810329465823 2 -1 0
3077 926 4 0 -9.913052980593434 -0.20941218978865273 -8.685389684680272 2 -1 0
3753 1151 4 0 -7.332221288598463 -0.32016920851870445 -8.68383019082905 6 0 1
1367 356 4 0 -7.289113921197245 -0.2678677177703701 -8.28203563143656 5 0 1
3751 1151 2 0 -7.019583955246577 -0.1889137141481143 -8.975097525375025 6 0 1
4249 1317 2 0 -8.816721519180437 -10.375573932312458 -7.370980705077518 3 0 0
4250 1317 4 0 -8.447149184831694 -10.35260870834174 -7.668343100373342 3 0 0
2906 869 4 0 -8.32394196967496 -10.185516731796794 -8.010920407597041 3 0 0
2905 869 2 0 -7.86503447404328 -10.097908410958105 -8.124289677581888 3 0 0
452 91 3 0 -6.568532805828113 -10.30282588807419 -8.069373511270168 3 0 0
2907 869 4 0 -7.447218430999145 -10.020944074604646 -8.230125167900782 3 0 0
453 91 3 0 -6.451258412398953 -9.550294719790356 -8.214061796234658 3 0 0
451 91 1 0 -6.767169267214745 -9.866744935788308 -8.06778300887981 3 0 0
455 91 3 0 -6.898836847615895 -9.761251399174284 -7.637513226199452 3 0 0
795 165 4 0 -6.236685741211013 -9.192882598023427 -8.233719197720571 3 0 0
793 165 2 0 -5.921709273101855 -8.862739494197248 -8.177687934367066 3 0 0
794 165 4 0 -5.597437447926795 -8.525220063841646 -8.115760855476251 3 0 0
864 188 4 0 -5.216054490768404 -8.4852363520374 -8.217840002745262 2 0 0
2562 754 4 0 -6.908729061602729 -7.481148630346819 -8.095496224744283 8 1 0
2560 754 2 0 -6.472383380590154 -7.421350916869776 -8.115577211130416 8 1 0
2561 754 4 0 -6.0309140107384485 -7.353163114726051 -8.143646511494268 8 1 0
862 188 2 0 -5.029221885471154 -8.146854453946816 -7.946452333248233 2 0 0
4674 1458 4 0 -4.649983614383679 -7.50604625064929 -7.494494271037504 3 0 1
863 188 4 0 -4.855988085915918 -7.79998975352248 -7.678098539630145 2 0 0
3463 1055 2 0 -7.6018575427333825 -7.236041150190932 -8.257428035713339 3 0 0
3464 1055 4 0 -7.265074408383846 -7.3179246316931925 -7.993651865622733 3 0 0
4146 1282 4 0 -5.840251635148317 -7.060904884645858 -7.909411893474009 8 1 0
4144 1282 2 0 -5.540996554570201 -6.78450826114661 -8.085541660643692 8 1 0
554 111 3 0 -5.109702002403485 -6.1849926686035746 -8.044077671353103 8 1 0
552 111 3 0 -5.132318607294313 -5.522226326057508 -7.687792717777723 8 1 0
551 111 1 0 -4.893513179580367 -5.924278430224663 -7.739327022376712 8 1 0
555 111 3 0 -4.454509745614804 -5.834883061960646 -7.892003979605113 8 1 0
3130 944 2 0 -3.878696024219334 -5.510003433474894 -7.91186732960948 3 0 0
3131 944 4 0 -3.4645765655169463 -5.553076439327628 -7.91634294582459 3 0 0
1553 418 4 0 -3.179986625820238 -5.768898279858489 -8.066667113679673 3 0 1
1552 418 2 0 -2.750557438291086 -5.857696302956447 -8.050603676527869 3 0 1
870 190 4 0 -2.076825132153111 -5.747204859880155 -7.779802903068162 3 0 0
1554 418 4 0 -2.323617257886326 -5.949434738765969 -8.04373651366937 3 0 1
869 190 4 0 -1.1640753870191478 -5.847862343264255 -7.904387572890731 3 0 0
868 190 2 0 -1.6294210792377015 -5.797400825009863 -7.837937468293825 3 0 0
4075 1259 2 0 -10.167279650119156 -4.764832299329594 -7.830774886123326 5 0 0
4077 1259 4 0 -10.375499133615449 -4.912080608937437 -8.188326921771445 5 0 0
4076 1259 4 0 -9.96948975125046 -4.6341409176129975 -7.494361514041832 5 0 0
1529 410 4 0 -8.461886197171673 -4.947497713536763 -7.993476945640573 4 0 1
1528 410 2 0 -8.23090817037632 -4.670783142019179 -7.673365311900599 4 0 1
3004 902 2 0 -5.003410224518177 -4.7004856601250475 -7.764819938450774 3 0 0
3005 902 4 0 -5.018804794681843 -5.160558912832594 -7.838951295958301 3 0 0
3132 944 4 0 -4.330301125376575 -5.453572170114161 -7.910944614503167 3 0 0
1530 410 4 0 -8.023635790796455 -4.4198885777318875 -7.381262354630047 4 0 1
3061 921 2 0 -7.4772305479999694 -3.902803908213084 -7.383960931336237 5 0 0
3006 902 4 0 -4.9841749106554 -4.241005264522962 -7.700537699422461 3 0 0
435 87 3 0 -4.773158529134801 -4.083309211757674 -7.968629521288459 3 0 0
1476 392 4 0 -2.0143450706025625 -3.869647664712673 -8.185621237284048 3 0 1
1474 392 2 0 -1.598344564525421 -4.070966643466037 -8.25772221200841 3 0 1
805 169 2 0 -7.384056964324426 -2.9773667715707575 -7.984765264578103 4 0 0
806 169 4 0 -7.114577879206827 -3.3151838920572096 -7.817046919915456 4 0 0
3062 921 4 0 -7.307617298788142 -3.496912463478081 -7.513285295335405 5 0 0
3207 969 4 0 -2.2950250002990806 -3.620163380489407 -8.03250390751769 5 0 0
3205 969 2 0 -2.1810182385954153 -3.189712400981332 -7.946665283135998 5 0 0
3206 969 4 0 -2.0776999980746336 -2.7553862952099806 -7.852094963656819 5 0 0
807 169 4 0 -7.65012470081421 -2.6334712726832965 -8.158358316137223 4 0 0
4065 1255 4 0 -2.0786518921154027 -2.4137835294667553 -7.688236495814008 10 1 0
4063 1255 2 0 -2.2549023467424067 -2.0089830575391527 -7.763689745115754 10 1 0
3174 958 4 0 -10.569563401151443 -1.1681351564055564 -7.726481518981695 7 0 0
3172 958 2 0 -10.92469508556094 -1.0732924666444568 -7.482862754485651 7 0 0
4064 1255 4 0 -2.440876134925313 -1.5748191385294614 -7.843121390457759 10 1 0
583 117 3 0 -2.203467907814879 -1.00827679215711 -8.01042113819103 5 0 0
1366 356 2 0 -7.534257476253439 -0.31497073645154394 -7.886489084002569 5 0 1
1368 356 4 0 -7.763782180553426 -0.3535978833128155 -7.506750386302417 5 0 1
3624 1108 4 0 -8.139273728751174 -0.47483305946459353 -7.425647064483338 6 0 1
4079 1260 4 0 -2.934052518873674 -0.7551024703432638 -7.657806837196377 5 0 0
4080 1260 4 0 -3.6181677943609856 -0.22819471506593736 -7.918499057483333 5 0 0
4078 1260 2 0 -3.27523078099183 -0.4923349289656045 -7.79034486517607 5 0 0
581 117 1 0 -2.2085037137512202 -0.8546138389512059 -7.581224706253579 5 0 0
585 117 3 0 -2.602939947163863 -0.8141511923524813 -7.46383662395553 5 0 0
582 117 3 0 -2.003155384315132 -0.4492504841427074 -7.565246207423278 5 0 0
4089 1263 4 0 -1.8525332819365445 -0.10245679841688116 -7.433156022184008 5 0 0
4251 1317 4 0 -9.15093813020339 -10.392192476845997 -7.107042792374166 3 0 0
3183 961 4 0 -10.185438380723234 -9.436510662780806 -7.33440522505818 3 0 0
4013 1238 4 0 -9.342030998026306 -10.046952464181336 -6.946092716502116 8 1 0
4014 1238 4 0 -10.001352075923288 -9.446885488313974 -6.977276486872141 8 1 0
4012 1238 2 0 -9.660736173329784 -9.749784976203422 -6.962542245834995 8 1 0
2829 843 4 0 -7.046568166119653 -9.801453860715363 -7.262932278434611 3 0 0
2827 843 2 0 -7.050544595002405 -9.386031232280965 -7.05926119348489 3 0 0
3181 961 2 0 -10.315064854408512 -8.967006898833892 -7.291321940211034 3 0 0
4694 1465 4 0 -10.325266274054252 -8.498395594166883 -6.859890144529503 8 1 0
3182 961 4 0 -10.437846045413226 -8.507980633170297 -7.2470107781106705 3 0 0
2828 843 4 0 -7.049859337586778 -8.965496833607082 -6.851468811310024 3 0 0
3674 1125 4 0 -7.260480228431906 -8.638939334226329 -6.970697674416981 3 0 1
4693 1465 2 0 -10.283511199161508 -8.196010985386291 -6.50790372765342 8 1 0
3673 1125 2 0 -7.098565012909282 -8.237029781523235 -6.813770240213707 3 0 1
3675 1125 4 0 -6.942471214862846 -7.84490175972262 -6.650710612989988 3 0 1
4672 1458 2 0 -4.500341065199552 -7.477971492065443 -7.0891450824033395 3 0 1
4673 1458 4 0 -4.333008604062141 -7.451320949621644 -6.6693038788982975 3 0 1
1042 248 2 0 -0.08192816793179603 -7.35771170114582 -6.532497933614222 3 0 0
1043 248 4 0 -0.5312457880717023 -7.509090036787385 -6.466207533671441 3 0 0
2840 847 4 0 -5.82282660884995 -6.255479210975336 -6.490273695180104 3 0 0
553 111 3 0 -4.87526806239355 -6.13522380905461 -7.337984091721825 8 1 0
2839 847 2 0 -5.462680222382059 -6.164004238797661 -6.73922051887695 3 0 0
2841 847 4 0 -5.0966193977877055 -6.067182103593902 -6.988432728648177 3 0 0
3063 921 4 0 -7.6400359673005775 -4.301208743073335 -7.266936791464051 5 0 0
3173 958 4 0 -11.2841988342341 -0.982973954458064 -7.239097834750521 7 0 0
3890 1197 4 0 -11.6421039543488 -0.9467154341344184 -7.070806457121082 8 0 0
584 117 3 0 -2.0037125425373805 -1.1452712931836544 -7.314836255502512 5 0 0
1848 516 4 0 -1.7825895507854774 -1.0868989387178427 -6.974149962486642 5 0 0
1846 516 2 0 -1.5959038099942155 -1.3781696160879715 -6.6999176236680915 5 0 0
1847 516 4 0 -1.406829060586114 -1.6580752053580934 -6.434453164439968 5 0 0
3623 1108 4 0 -8.274431695471623 -0.46063676065027614 -6.545037265785966 6 0 1
3622 1108 2 0 -8.204547984527851 -0.469731316584614 -6.981954642214392 6 0 1
1859 520 4 0 -0.5366928233892541 -10.190301995364052 -6.021647852866328 7 1 0
1969 557 2 0 -1.1661123166678138 -9.726049065338193 -5.823009954650688 8 1 0
1970 557 4 0 -1.4271490761509646 -9.44404736365225 -5.584492878012677 8 1 0
1971 557 4 0 -0.8759441460393251 -10.015667766292012 -6.077417878454539 8 1 0
1858 520 2 0 -0.13296387097369688 -10.000177817535008 -6.004686183575946 7 1 0
469 94 3 0 -1.1807497426860394 -8.510234940640037 -5.610690536480177 3 0 0
4695 1465 4 0 -10.237586481792317 -7.902975957463998 -6.160283137109425 8 1 0
3870 1190 4 0 -9.963390984429202 -7.642302328526246 -6.043649896792734 8 1 0
3868 1190 2 0 -9.630730791582192 -7.469582065864566 -5.819092650691332 8 1 0
3998 1233 4 0 -6.661186478879972 -7.801449847305164 -6.411133910940149 8 1 0
3997 1233 2 0 -6.268137512758744 -7.810852521471022 -6.154561356894651 8 1 0
3999 1233 4 0 -5.88428080317498 -7.81056194317613 -5.894895247378046 8 1 0
2967 889 4 0 -5.806478470043181 -7.659333265246238 -5.538955321828628 3 0 0
3146 949 4 0 -3.2485708771445054 -8.253169130628196 -5.626397856893619 3 0 0
3039 913 4 0 -1.1036401476805686 -8.143666884101236 -5.585270081050407 3 0 0
3038 913 4 0 -0.4855292078124105 -7.632527043743489 -6.074054048799927 3 0 0
3037 913 2 0 -0.8063156723848284 -7.893364052561101 -5.826164603168145 3 0 0
3869 1190 4 0 -9.27593695105961 -7.290481360504342 -5.570127397314488 8 1 0
622 125 3 0 -8.403324663886293 -6.622674586162428 -5.582489546553911 8 1 0
2072 591 4 0 -8.07391027271726 -6.443898034782931 -5.667921705585976 7 1 1
3221 974 4 0 -4.991995047503457 -7.301961843598682 -5.6455019284594945 3 0 0
3220 974 2 0 -4.728192010340674 -7.239957059927982 -6.055294998018385 3 0 0
3222 974 4 0 -4.477606482528069 -7.1781485204136635 -6.418810561286279 3 0 0
2071 591 2 0 -7.614941159889895 -6.398548781520032 -5.633366168379535 7 1 1
3347 1016 4 0 -6.813500407688156 -6.3303209579945 -5.814173323102862 3 0 0
2073 591 4 0 -7.164261249551641 -6.35027654176499 -5.602393167653674 7 1 1
3346 1016 2 0 -6.382892855432629 -6.345320399738986 -5.977185749100744 3 0 0
3348 1016 4 0 -5.959566802111182 -6.367880169477786 -6.130615923942226 3 0 0
2803 835 2 0 -0.2016182000368012 -2.9648583971972258 -5.646711435053976 1 -1 0
4044 1248 4 0 -1.209256777149907 -1.9533752870123795 -6.227362821671459 6 0 0
4042 1248 2 0 -0.9568804399073549 -2.0962661241155125 -5.909800767822104 6 0 0
2805 835 4 0 -0.42672296966196654 -2.5592071622766976 -5.619500972611166 1 -1 0
4043 1248 4 0 -0.6895783534490825 -2.240990998170421 -5.577644877313794 6 0 0
3531 1077 4 0 -8.004783634876818 -0.22914370810798879 -6.346853455193327 6 0 1
3529 1077 2 0 -7.932760120739262 -0.054544415384343736 -5.9135977659215175 6 0 1
4793 1498 4 0 -10.386370509123543 -11.2180455531153 -5.2030429774059135 9 1 0
1770 490 4 0 -10.231357737279613 -11.56518869767009 -5.325579520939974 8 1 0
2499 733 4 0 -1.1898534111217405 -11.481445300228579 -4.65029667507742 6 1 0
4792 1498 2 0 -10.180246454375947 -10.893435808575544 -5.02785388974836 9 1 0
3008 903 4 0 -10.13321528022988 -10.193943423431554 -4.815790559408642 3 0 0
4794 1498 4 0 -9.955442783358816 -10.544664071019609 -4.823544208431174 9 1 0
3007 903 2 0 -10.365218852487846 -9.863374649817183 -4.627773409347256 3 0 0
3153 951 4 0 -6.998807071315197 -8.725851984890053 -4.634143401698143 3 0 0
3151 951 2 0 -6.738793793939441 -8.809826324284977 -4.98251568752743 3 0 0
3152 951 4 0 -6.471553033445937 -8.886669135793834 -5.334384971651108 3 0 0
2910 870 4 0 -6.112950711312572 -8.726832611576878 -5.21335373703841 3 0 0
2908 870 2 0 -5.670963319433855 -8.713323526538748 -5.328599182165421 3 0 0
2909 870 4 0 -5.248100599120251 -8.690350197441674 -5.435531966483881 3 0 0
478 96 3 0 -5.003605367695384 -8.398166297690127 -5.312828149663616 3 0 0
2974 892 2 0 -2.5971514033587972 -8.491488727883386 -5.472610079867288 3 0 0
470 94 3 0 -1.861474376039407 -8.660369043189506 -5.397193505505342 3 0 0
2976 892 4 0 -2.2309718922031703 -8.822280374732124 -5.502731222715155 3 0 0
467 94 3 0 -1.3514246309465552 -9.151194309564762 -5.294620485547051 3 0 0
466 94 1 0 -1.4358604364384373 -8.719873841092516 -5.296542536399089 3 0 0
468 94 3 0 -1.3451164656463437 -8.543781938013442 -4.876654180409201 3 0 0
2965 889 2 0 -5.850590507821843 -7.438338668186296 -5.159041271632777 3 0 0
479 96 3 0 -4.905325515424145 -7.670216820049924 -5.499937644217236 3 0 0
476 96 1 0 -4.742147165109177 -8.034888199683799 -5.251337303027768 3 0 0
477 96 3 0 -4.740173159403406 -7.920880052669679 -4.801886736839635 3 0 0
3147 949 4 0 -3.997696658982485 -7.910041421709656 -5.318005085422599 3 0 0
480 96 3 0 -4.325631697934884 -8.124908308723032 -5.37260321019991 3 0 0
2975 892 4 0 -2.9343112668818794 -8.193068781180791 -5.437125542635176 3 0 0
3145 949 2 0 -3.614998739373311 -8.085309961872829 -5.479369805838151 3 0 0
625 125 3 0 -8.418608008374383 -7.332980279614031 -5.447065402532356 8 1 0