LAMMPS data file via write_data, version 4 Feb 2025, timestep = 500000, units = lj

4650 atoms
4 atom types
3150 bonds
1 bond types
1875 angles
2 angle types

-11.917153 11.917153 xlo xhi
-11.917153 11.917153 ylo yhi
-11.917153 11.917153 zlo zhi
7.105427357601002e-15 0 0 xy xz yz

Masses

1 1
2 1
3 0.1
4 0.1

Bond Coeffs # harmonic/omp

1 100 0.45

Angle Coeffs # harmonic/omp

1 100 180
2 100 109.471

Atoms # full

2804 885 4 0 -11.895107442683685 -7.849684718744824 -11.500225387977892 3 0 0
2803 885 2 0 -11.446860227650225 -7.699979170697253 -11.48145597654247 3 0 0
2805 885 4 0 -10.988552903467445 -7.551970158931984 -11.466185851671348 3 0 0
3609 1153 4 0 -10.643345073269712 -7.4506974801619155 -11.60063858660965 8 1 0
3607 1153 2 0 -10.194378152939255 -7.4553957645975135 -11.626098176341529 8 1 0
3608 1153 4 0 -9.753247726935577 -7.445731550283492 -11.658427329273229 8 1 0
3404 1085 4 0 -10.371365556661015 -6.432952428079625 -11.105624209897192 3 0 1
1952 601 4 0 -9.485131106461488 -7.284757677276109 -11.910964015374192 2 0 0
48 10 3 0 -8.451252964808901 -6.6015789727459 -11.430484644390882 2 0 1
1951 601 2 0 -9.139042877561106 -7.030893967446076 -11.739559592601662 2 0 0
1953 601 4 0 -8.801779476240773 -6.777745231281479 -11.566579184599995 2 0 0
46 10 1 0 -8.126272043166566 -6.570932156857065 -11.111621212071876 2 0 1
47 10 3 0 -7.718769868188281 -6.525091245861179 -11.302403162599749 2 0 1
583 145 2 0 -5.818036645230064 -6.523125320061259 -11.694858000981533 2 0 0
547 133 2 0 -4.679948459090829 -6.815910956430631 -11.663082005268107 2 0 0
548 133 4 0 -5.111312602845165 -6.94962768403825 -11.681977951600336 2 0 0
585 145 4 0 -5.40118799795454 -6.674612450841963 -11.578977233930942 2 0 0
549 133 4 0 -4.2423136356680615 -6.669886050647774 -11.656475839005378 2 0 0
2775 875 4 0 -3.976486902388367 -6.434539888183804 -11.47149039835723 3 0 0
2773 875 2 0 -3.6303559341535863 -6.574568797237347 -11.27006539580595 3 0 0
2774 875 4 0 -3.2707609282600547 -6.717957319792653 -11.058258029363214 3 0 0
2215 689 2 0 -2.4603609104428124 -6.784681791301709 -11.15428134888529 2 0 1
2217 689 4 0 -2.029127173392993 -6.766502673948343 -11.305805421715501 2 0 1
4334 1395 4 0 -1.700539296376789 -6.9677729014584315 -11.145451522293218 3 0 1
4333 1395 2 0 -1.2935823293628896 -6.757303733777112 -11.235249586115177 3 0 1
4335 1395 4 0 -0.9052183309029438 -6.560095102533357 -11.327172723952097 3 0 1
531 127 4 0 -7.395582317931958 -6.297813709300504 -11.232354236055562 2 0 0
529 127 2 0 -6.999066795152057 -6.3529045796851 -11.419114187235667 2 0 0
530 127 4 0 -6.570788376470862 -6.407733299148946 -11.627734702103602 2 0 0
584 145 4 0 -6.242868722336824 -6.370576621540068 -11.818949654340333 2 0 0
3044 965 4 0 -0.6548098083886735 -6.264655220749931 -11.305336410025964 3 0 0
3043 965 2 0 -0.3127916800725874 -6.227661785870118 -11.587460375208723 3 0 0
3369 1073 4 0 -7.2071568259736285 -4.138225398744659 -11.197786388748032 4 0 1
3367 1073 2 0 -6.776403460994867 -4.217635109465128 -11.043533463253013 4 0 1
1263 371 4 0 -0.2060952710891808 -3.135352578184831 -11.135179272254973 3 0 1
3576 1142 4 0 -11.390841336785378 -1.1059896138216896 -11.402757749274869 5 0 0
1230 360 4 0 -11.034153464447726 -1.072238849468624 -11.204506514983315 5 0 0
3574 1142 2 0 -11.767882534243446 -1.07780424234587 -11.657727861999122 5 0 0
941 264 4 0 -10.060800906485468 -1.1423179822526244 -11.644394218149138 5 0 1
4542 1464 4 0 -11.786097656668549 -8.312857432213004 -10.1338201440106 7 1 1
1370 407 4 0 -11.883731520867622 -8.650644481464433 -10.294081873871175 2 0 1
2796 882 4 0 -9.19816092165601 -7.631828963926063 -10.620722063478352 3 0 0
2794 882 2 0 -8.781184396374966 -7.436130018355423 -10.646021165610993 3 0 0
3979 1277 2 0 -11.155666626979158 -6.582006995028763 -10.843510949087726 8 1 0
3980 1277 4 0 -11.592145229860463 -6.611747962406726 -10.715487009204109 8 1 0
3981 1277 4 0 -10.741914202623073 -6.557558244092965 -10.959609602238489 8 1 0
2795 882 4 0 -8.378135188729786 -7.233933378209098 -10.676697173997658 3 0 0
49 10 3 0 -8.133978806917698 -6.956197203469932 -10.844367866745312 2 0 1
2216 689 4 0 -2.8930223253039706 -6.792225293159794 -10.990301430212536 2 0 1
3403 1085 2 0 -9.985633276131122 -6.216485669442259 -10.92959097185634 3 0 1
3405 1085 4 0 -9.609154925849616 -6.01613207818605 -10.771867155613078 3 0 1
3260 1037 4 0 -9.326597479697055 -5.7676612099181765 -10.94074368918074 3 0 1
3261 1037 4 0 -8.470214117239301 -5.892778694034227 -10.886229646110477 3 0 1
3259 1037 2 0 -8.906634427762533 -5.821278891597748 -10.916002661338121 3 0 1
50 10 3 0 -8.213388995019532 -6.193274625289292 -10.836674961011937 2 0 1
760 204 2 0 -3.4982946207821435 -4.738656579916596 -10.121350558892948 2 0 0
761 204 4 0 -3.1839110499022016 -5.03348224162052 -10.141888704427684 2 0 0
650 167 4 0 -2.801883202280564 -4.984195839187149 -10.224837265187748 3 0 0
2962 938 2 0 -11.401999232524837 -4.190138423204929 -10.345425696559808 4 0 0
2963 938 4 0 -11.812748540416724 -4.17843600937814 -10.57138098278929 4 0 0
2964 938 4 0 -10.994663168972199 -4.205763840319278 -10.120972022453458 4 0 0
3865 1239 2 0 -10.193261192412793 -4.038289197420935 -10.213842562510004 4 0 0
3866 1239 4 0 -9.770793772862065 -4.005062698286052 -10.387610646415286 4 0 0
449 100 4 0 -9.473956245781277 -3.778489183280522 -10.390760886827584 4 0 0
4379 1410 4 0 -8.350592856236869 -3.763170690316432 -10.657167109157976 4 0 1
448 100 2 0 -9.053399933629265 -3.698290424489267 -10.406343948412795 4 0 0
4380 1410 4 0 -7.527351867688527 -4.0910404586288855 -10.966540128722352 4 0 1
4378 1410 2 0 -7.917084982913786 -3.9369327546654604 -10.81496995312675 4 0 1
3368 1073 4 0 -6.354880916254778 -4.310254895830924 -10.907840928620093 4 0 1
4454 1435 4 0 -6.061613280819397 -4.253565512059166 -10.661824634701022 4 0 1
4453 1435 2 0 -5.8032806561255015 -3.929741666167251 -10.490188673221853 4 0 1
762 204 4 0 -3.8430083929210266 -4.420705716190424 -10.098432124014634 2 0 0
1282 378 2 0 -1.267994297420941 -4.450620404330998 -10.185278022566818 3 0 1
1284 378 4 0 -0.9524565755760044 -4.307614670362444 -10.456467876787759 3 0 1
2709 853 4 0 -0.8922350095447182 -3.9963637692637572 -10.692751127041085 3 0 0
2707 853 2 0 -0.5654645384113834 -3.678554227024186 -10.741397313954652 3 0 0
450 100 4 0 -8.625436894985391 -3.6165653338626527 -10.418688377160219 4 0 0
4455 1435 4 0 -5.535177766217687 -3.598996472337255 -10.320600239796914 4 0 1
2708 853 4 0 -0.2318400647424088 -3.3547949574172584 -10.801544385878973 3 0 0
3343 1065 2 0 -11.169099322574414 -2.0998435475003525 -10.315148963666442 5 0 1
3345 1065 4 0 -11.133203085480664 -2.2551023244724657 -10.710465626987721 5 0 1
1228 360 2 0 -10.692368706399431 -0.8803195355712568 -10.96780316106037 5 0 0
1229 360 4 0 -10.362192794970811 -0.6898422253889187 -10.733853486366476 5 0 0
2517 789 4 0 -9.976156395336194 -0.6725306883725288 -10.607684299065417 5 0 0
2515 789 2 0 -9.571341786583783 -0.609756571146935 -10.499294094489844 5 0 0
2516 789 4 0 -9.119292006139666 -0.531273604608117 -10.388034532985856 5 0 0
1035 295 4 0 -8.721599902868022 -0.4620234428467924 -10.383673332820397 5 0 1
1033 295 2 0 -8.377176385925067 -0.3508527394613914 -10.11891090891416 5 0 1
1394 415 4 0 -9.74080498423563 -11.236408632476676 -9.667507556267726 2 0 0
3413 1088 4 0 -0.4265304444732223 -11.795362986338764 -9.529867711603274 2 0 1
3412 1088 2 0 -0.8652773257862538 -11.89805971963858 -9.429313191609936 2 0 1
1393 415 2 0 -9.550022731098103 -10.879346087134877 -9.488112363143655 2 0 0
1395 415 4 0 -9.369707112194579 -10.504547856306996 -9.315277145256633 2 0 0
912 254 4 0 -9.00588783190212 -10.342216813465134 -9.240224430121069 2 0 0
4540 1464 2 0 -11.568627042402673 -8.314653307336808 -9.742513869775754 7 1 1
4541 1464 4 0 -11.353725754777994 -8.315739488471797 -9.342700982132387 7 1 1
649 167 2 0 -2.3742253156355293 -4.865119755963338 -10.075734401946107 3 0 0
651 167 4 0 -1.9619537445217752 -4.742689579565032 -9.928169234835602 3 0 0
1283 378 4 0 -1.5941253466867487 -4.606644828356069 -9.8932904786431 3 0 1
3867 1239 4 0 -10.608926472290976 -4.080963767223833 -10.04941176517805 4 0 0
2788 880 2 0 -5.052350796351283 -3.7267004382897166 -9.714515767229287 4 0 0
2789 880 4 0 -4.855881255289745 -3.92363540767305 -9.390488040668052 4 0 0
2790 880 4 0 -5.241934768747186 -3.535377289925332 -10.042727897178683 4 0 0
3344 1065 4 0 -11.211417711906932 -1.939142934649377 -9.891740384103304 5 0 1
2882 911 4 0 -11.159010039197536 -2.0299384832857186 -9.504095180779947 5 0 0
2881 911 2 0 -11.210029083667862 -1.6436410924811664 -9.27922632256477 5 0 0
1034 295 4 0 -8.03933151828183 -0.23530642677330427 -9.85214104533506 5 0 1
99 20 3 0 -7.645430798624021 -0.139144092331696 -9.788111506543357 5 0 0
1946 599 4 0 -0.20768112376214098 -0.15492936525493484 -9.99070006586245 6 0 0
3852 1234 4 0 -5.522609392720025 -10.314379396311946 -8.347717723254812 8 1 0
910 254 2 0 -9.043825892325788 -9.960252523178305 -9.026653030865521 2 0 0
911 254 4 0 -9.090312625770686 -9.587653131461881 -8.806340839797032 2 0 0
3872 1241 4 0 -9.058218749311703 -9.197624468314732 -8.740099811546195 3 0 0
2831 894 4 0 -11.192603656183758 -8.252846485792146 -8.967843581121219 3 0 0
2830 894 2 0 -10.830984669169247 -8.406023095333559 -8.75635846646247 3 0 0
2832 894 4 0 -10.460127643151608 -8.564069132636183 -8.542068116267126 3 0 0
2388 746 4 0 -10.07126448808336 -8.648657456546076 -8.513182016933337 7 1 0
2386 746 2 0 -9.694564137965072 -8.51553414615354 -8.277858796594455 7 1 0
3871 1241 2 0 -8.677769379350089 -8.961309167009704 -8.781498787293993 3 0 0
3873 1241 4 0 -8.288239965253572 -8.726549555899869 -8.822065112466264 3 0 0
3029 960 4 0 -8.037984702298223 -8.698344486506297 -8.534305464111494 2 0 0
3028 960 2 0 -7.714789029014229 -8.828543956923154 -8.257429275912104 2 0 0
1597 483 2 0 -11.540461881861518 -2.482646985505454 -8.376959890503727 9 1 0
2883 911 4 0 -11.254635782355098 -1.27222415456421 -9.052175716731318 5 0 0
1391 414 4 0 -11.532464395387578 -0.9966797625252859 -8.926542461009712 5 0 0
1009 287 2 0 -9.377359148117266 -0.41242073887764796 -8.519348166953687 5 0 1
1011 287 4 0 -9.788838716957887 -0.4307212432846548 -8.321540471969604 5 0 1
1010 287 4 0 -8.994063666512234 -0.40398968516585754 -8.717909158312915 5 0 1
1413 421 4 0 -8.639663145585953 -0.5268340495599428 -8.616544134728885 5 0 0
1411 421 2 0 -8.249876542992595 -0.3557492881638282 -8.828572362165039 5 0 0
97 20 3 0 -7.482195052989605 -0.11702310794896853 -9.073410421055524 5 0 0
1412 421 4 0 -7.891454248803821 -0.1920913950086387 -9.015661154575476 5 0 0
430 94 2 0 -6.593326751078368 -11.87725231562594 -7.905614990027212 7 1 0
432 94 4 0 -6.2923787440761485 -11.747253580756025 -7.624476125234655 7 1 0
3936 1262 4 0 -5.887028419650073 -11.740468821205143 -7.754455007038818 7 1 0
3934 1262 2 0 -5.451911839179887 -11.860007180525637 -7.8250047622833785 7 1 0
3851 1234 4 0 -6.227194200468652 -10.1085673338532 -7.814466253158005 8 1 0
3850 1234 2 0 -5.872205681943182 -10.210605808329927 -8.080486937162007 8 1 0
4273 1375 2 0 -6.844542112406807 -9.547425882080297 -8.04730437780809 3 0 0
4275 1375 4 0 -6.429244203216563 -9.772726405335504 -7.9689798858748055 3 0 0
4274 1375 4 0 -7.232812136318146 -9.324956075381237 -8.11766680256706 3 0 0
2387 746 4 0 -9.335203815569118 -8.388187993431938 -8.055155117045418 7 1 0
3030 960 4 0 -7.379381034061229 -8.964880887916797 -7.983746139630673 2 0 0
2856 902 4 0 -11.306645617998683 -7.481875102832718 -7.703267430178085 3 0 0
1020 290 4 0 -11.1731945377516 -7.868372446149673 -7.564563996275919 2 0 0
2854 902 2 0 -11.67993282204049 -7.486145382675223 -7.949467668938862 3 0 0
2020 624 2 0 -8.646221141821098 -8.186125200382191 -7.652083668534242 3 0 1
2021 624 4 0 -8.971865454454587 -8.227347482619473 -7.959912823883016 3 0 1
2022 624 4 0 -8.322958566723493 -8.145479953717857 -7.369368963434278 3 0 1
1598 483 4 0 -11.144933697265417 -2.611791983833374 -8.227651764700337 9 1 0
1251 367 4 0 -11.048257341374114 -2.679862423266435 -7.852438098245383 4 0 0
1249 367 2 0 -10.707269693790735 -2.5280647484356447 -7.587728628506236 4 0 0
1686 512 4 0 -11.297082291599763 -0.34157785958269393 -7.813343843817658 5 0 0
1684 512 2 0 -11.644108660632924 -0.49962291328718145 -7.576468962013054 5 0 0
579 143 4 0 -10.904377216026669 -0.20379439116190312 -7.816927257996155 5 0 0
577 143 2 0 -10.508203846024632 -0.21278894034507623 -7.977495078925857 5 0 0
578 143 4 0 -10.090306903704466 -0.21218407269284612 -8.153121814461862 5 0 0
874 242 2 0 -10.468231097243127 -11.335321078205077 -6.8630044743133825 1 0 0
875 242 4 0 -10.787073627069418 -11.135229645983385 -6.604424233230751 1 0 0
876 242 4 0 -10.17451595675274 -11.523367715852158 -7.0970305215324885 1 0 0
3474 1108 4 0 -9.851153860348413 -11.68823596079607 -7.291444394962933 2 0 0
3472 1108 2 0 -9.428161366940383 -11.59228351938413 -7.1535391475151915 2 0 0
3473 1108 4 0 -9.021405521850905 -11.506643586801175 -7.0289713813100265 2 0 0
894 248 4 0 -8.961619054634692 -11.11760897001064 -7.126602935707811 2 0 0
3004 952 2 0 -11.160670742362038 -10.498433686706466 -6.730672794966247 2 0 0
3005 952 4 0 -11.076129022025242 -10.924225555465997 -6.790308744958419 2 0 0
892 248 2 0 -8.625281229610152 -10.828520436768597 -7.094735147102516 2 0 0
893 248 4 0 -8.274819488291811 -10.523967960846479 -7.051481402980089 2 0 0
2196 682 4 0 -8.211895781847034 -10.230576484409212 -6.79975491140793 2 0 0
195 39 3 0 -11.710600928164704 -9.354519200488175 -7.2501770520429085 2 0 0
191 39 1 0 -11.44262181389508 -9.383703275178844 -6.892781158917243 2 0 0
192 39 3 0 -11.682480918455516 -9.395177484006775 -6.533832984218137 2 0 0
194 39 3 0 -11.194583425545677 -9.742118644536001 -6.922061326936348 2 0 0
3006 952 4 0 -11.250778630136075 -10.057457400925502 -6.670467629526838 2 0 0
2195 682 4 0 -7.920109447166835 -9.420664289171912 -7.030263971285817 2 0 0
2194 682 2 0 -8.062939276181542 -9.83628636936668 -6.908660614647581 2 0 0
193 39 3 0 -11.168904884256595 -9.015552472469361 -6.875568725340661 2 0 0
1019 290 4 0 -11.110139351096485 -8.607160762328936 -7.025866213430332 2 0 0
3312 1054 4 0 -9.889816374372376 -9.15002469144726 -7.311796122398606 2 0 0
3310 1054 2 0 -9.690631131425466 -9.040953002914518 -6.9258179854555255 2 0 0
3311 1054 4 0 -9.498008329424044 -8.941291171942273 -6.538009688006808 2 0 0
3490 1114 2 0 -8.839078242881758 -8.529362249233758 -6.447733186182485 3 0 0
2991 947 4 0 -7.842054004849164 -9.077378374071424 -6.813857274527713 3 0 0
2990 947 4 0 -7.942914666797859 -8.282690678855486 -7.236770831081113 3 0 0
2989 947 2 0 -7.891483464513941 -8.67739797341232 -7.027644852758152 3 0 0
1018 290 2 0 -11.144039171392004 -8.240793321470004 -7.29264922930106 2 0 0
618 156 4 0 -11.877678962120504 -7.430446603348072 -6.692196818997008 2 0 0
3492 1114 4 0 -8.524501902179875 -8.20118012591059 -6.551376784374103 3 0 0
872 241 4 0 -11.583480528367925 -7.178947701490244 -6.6848322917153915 2 0 0
871 241 2 0 -11.153684995179594 -7.1161694255128 -6.603462894842347 2 0 0
873 241 4 0 -10.714501946119405 -7.052313246629871 -6.535230779003261 2 0 0
2026 626 2 0 -1.5597306208851496 -6.381197803552546 -6.496429204895852 3 0 0
2028 626 4 0 -1.1910758786912385 -6.21751047584102 -6.672403617218556 3 0 0
935 262 4 0 -0.8603660852406048 -6.059598016828874 -6.523065794561595 3 0 0
934 262 2 0 -0.4692998343567574 -5.876968360761136 -6.471209476524977 3 0 0
1250 367 4 0 -10.351321738875614 -2.3960128504905835 -7.320694827912983 4 0 0
1710 520 4 0 -10.08997751820447 -2.412148992454938 -7.0200768214680265 9 1 0
1708 520 2 0 -10.05425469022948 -2.230584860317933 -6.638187662671953 9 1 0
2013 621 4 0 -11.614685861591497 -8.377273314758634 -6.094236737895871 7 1 0
3491 1114 4 0 -9.144379260149629 -8.851850014808434 -6.358474347991162 3 0 0
758 203 4 0 -8.233219729501517 -8.096943439997364 -6.312497070638278 2 0 0
757 203 2 0 -7.926320198787819 -7.8973707569485 -6.035209461846938 2 0 0
759 203 4 0 -7.626921877989826 -7.698529360873005 -5.76430904175914 2 0 0
2781 877 4 0 -7.351501664914026 -7.45339810271625 -5.900612493394019 3 0 0
2779 877 2 0 -6.9031024165612465 -7.458805002758318 -5.773533858988063 3 0 0
2780 877 4 0 -6.45837152927591 -7.463245254803713 -5.650269161158635 3 0 0
3707 1186 4 0 -4.008068161056055 -7.7132710922920475 -5.5303798537641065 8 1 0
3706 1186 2 0 -3.6618043958044595 -7.561724334466032 -5.740060317265042 8 1 0
3708 1186 4 0 -3.3136350794498153 -7.410100698791348 -5.950508841434851 8 1 0
755 202 4 0 -10.404177838818702 -6.993259926697032 -6.278125109094334 2 0 0
754 202 2 0 -10.088127220535183 -7.058745071894899 -5.979453080937696 2 0 0
756 202 4 0 -9.76510015372222 -7.129854651389813 -5.67571780464142 2 0 0
861 237 4 0 -9.360104076947405 -7.170360451117283 -5.760570181902397 2 0 0
1286 379 4 0 -3.0738864674393103 -7.173837052384584 -6.184223264217061 2 0 0
2027 626 4 0 -1.9328913572165813 -6.547309891930227 -6.318848464715325 3 0 0
1287 379 4 0 -2.308121323595005 -6.759377468811862 -6.407822867074974 2 0 0
1285 379 2 0 -2.7063192990892944 -6.9712288489215295 -6.291971673061832 2 0 0
936 262 4 0 -0.07078538002129697 -5.692022414691169 -6.4074273405994076 3 0 0
841 231 2 0 -10.29875888097227 -1.987656228808957 -5.536607490300227 4 0 0
1709 520 4 0 -10.008000786458739 -2.0519313834616426 -6.238237505299327 9 1 0
3841 1231 2 0 -5.5670729821383516 -1.9508729190477165 -5.610182120599398 6 0 0
1410 420 4 0 -4.889830164665451 -2.21854046622326 -5.587852839264903 6 0 0
3843 1231 4 0 -5.248086177048886 -2.215403338067116 -5.773649464384953 6 0 0
1408 420 2 0 -4.519541920934095 -2.5056474479192037 -5.54567848577232 6 0 0
843 231 4 0 -10.102923838373947 -1.826749995243059 -5.908663221866327 4 0 0
1265 372 4 0 -5.692253030499031 -8.732029640854485 -4.584889537814947 2 0 0
1264 372 2 0 -5.339664697540219 -8.443299056900916 -4.678298707873239 2 0 0
1706 519 4 0 -3.5201709205907274 -8.468339906298882 -4.696701185698355 6 1 0
3878 1243 4 0 -3.138567090408719 -8.364913107891903 -4.794762785607854 7 1 0
1452 434 4 0 -1.2838321709931435 -8.367129643501553 -4.588797648958102 6 1 0
1091 314 4 0 -8.640944454679934 -7.425121686060085 -4.765912949931507 2 0 1
860 237 4 0 -8.79807445003025 -7.470475689790263 -5.126511587580806 2 0 0
947 266 4 0 -6.126476346880845 -7.539838980255129 -5.449539058175513 2 0 0
946 266 2 0 -5.692137780028252 -7.4714558606857 -5.26911477720292 2 0 0
1266 372 4 0 -5.005652084127967 -8.158818478898807 -4.770904567760158 2 0 0
948 266 4 0 -5.298884511803998 -7.4048298699328114 -5.098718205126673 2 0 0
222 45 3 0 -4.641768854389578 -8.049298707910749 -4.6355256469851405 3 0 0
224 45 3 0 -4.9062420150319275 -7.497457078976838 -5.077585047237189 3 0 0
221 45 1 0 -4.542229985462313 -7.641285314349091 -4.8632533509211235 3 0 0
223 45 3 0 -4.203022446661209 -7.715087413217619 -5.1743307203260045 3 0 0
3877 1243 2 0 -2.8526877513447957 -8.050930543248903 -4.6209391975054235 7 1 0
1636 496 2 0 -1.7663539456956734 -7.799787241103614 -4.651168583029105 6 1 0
1637 496 4 0 -1.347352638167587 -7.948069658113831 -4.713649667446389 6 1 0
859 237 2 0 -9.07888993277397 -7.322466836968989 -5.450805888135882 2 0 0
1311 387 4 0 -7.914368883742423 -4.041959877227314 -4.680267181694298 2 0 0
1409 420 4 0 -4.132682711222326 -2.78601645918671 -5.499752999887572 6 0 0
2581 811 2 0 -0.3660817298517216 -3.4949120364093176 -4.685395449122773 4 0 0
2583 811 4 0 -0.7685422033370575 -3.373962510700304 -4.814977233045335 4 0 0
2678 843 4 0 -11.692722011075292 -2.482781054758332 -5.338294136580938 3 0 0
2677 843 2 0 -11.241374731155412 -2.4762624367154356 -5.2774551296965315 3 0 0
2679 843 4 0 -10.77543344124847 -2.4690360581220236 -5.209355843241575 3 0 0
842 231 4 0 -10.505562728292258 -2.154686879201357 -5.1403235006171855 4 0 0
1579 477 2 0 -6.111199874577829 -1.3100652096271421 -4.852528805510424 6 0 0
1581 477 4 0 -5.901630040413978 -1.6231293518665861 -5.046075644863036 6 0 0
3842 1231 4 0 -5.899950989703174 -1.6734103198296157 -5.43385245919357 6 0 0
1580 477 4 0 -6.346863705112437 -0.9750088632086857 -4.650909227516007 6 0 0
1047 299 4 0 -1.5296076199030129 -0.7306796413568808 -5.210808817454953 5 0 0
1045 299 2 0 -1.4015704976506385 -0.31058746880266064 -5.086159077574974 5 0 0
2700 850 4 0 -7.001975115362711 -8.344455438150023 -4.118897756284037 2 0 0
855 235 4 0 -6.862446763985493 -8.418376514975542 -4.485828106002563 2 0 0
854 235 4 0 -5.960725130657135 -8.515656522117567 -4.453070213194076 2 0 0
853 235 2 0 -6.409838799386376 -8.466515524871342 -4.47052563271805 2 0 0
1660 504 2 0 -4.782836921169641 -8.905258063632516 -3.858680306825759 6 1 0
1662 504 4 0 -4.663815352705932 -8.681413216562387 -4.226241452206137 6 1 0
1707 519 4 0 -4.271032242878103 -8.594889955554319 -4.258080795781701 6 1 0
1705 519 2 0 -3.889006797492847 -8.527172659652173 -4.487918316674287 6 1 0
1450 434 2 0 -0.9488982568351698 -8.496016204079467 -4.314995956620466 6 1 0
2120 657 4 0 -0.2836299801080493 -8.457594463260193 -3.896893637867942 6 1 1
1451 434 4 0 -0.6128015429698657 -8.628755466673939 -4.033766399151449 6 1 0
1090 314 2 0 -8.29506822725386 -7.606666618474123 -4.468574621651809 2 0 1
2698 850 2 0 -7.339140975768792 -8.085235993118895 -4.009994102672771 2 0 0
1092 314 4 0 -7.9759566479470845 -7.7698353294711255 -4.198510382298162 2 0 1
2699 850 4 0 -7.69097353696065 -7.819048167991876 -3.9018435717036706 2 0 0
3879 1243 4 0 -2.5630811972313765 -7.733371348471102 -4.436728625452863 7 1 0
1638 496 4 0 -2.189449789851018 -7.659188796248289 -4.582626692041418 6 1 0
225 45 3 0 -4.401681584651805 -7.317619108588809 -4.557143488637563 3 0 0
551 134 4 0 -4.0675992203782005 -7.121789655266775 -4.41348705068174 2 0 0
550 134 2 0 -3.758647325969166 -7.000324659531858 -4.09530394885305 2 0 0
552 134 4 0 -3.456239165600522 -6.883015284324251 -3.780923899234958 2 0 0
405 85 4 0 -3.1103773407356297 -6.735220811186577 -3.7194601702516135 2 0 0
3818 1223 4 0 -8.72459422784864 -4.807602325983278 -4.034239591783812 8 1 0
1310 387 4 0 -8.438274279291123 -4.556507916727429 -4.190333460119506 2 0 0
1309 387 2 0 -8.162382090218713 -4.288663141899308 -4.446347924245873 2 0 0
2703 851 4 0 -6.169927615614163 -0.8179873112966352 -4.337284322446858 6 0 0
2701 851 2 0 -5.90646988655085 -0.6304440960738837 -3.996049119525229 6 0 0
2702 851 4 0 -5.664755922840147 -0.4491777473427021 -3.6713083418133774 6 0 0
992 281 4 0 -3.9083379793844024 -11.713423262926458 -2.8536191139467473 1 0 0
993 281 4 0 -3.243207402480415 -11.2898041636861 -3.26755964702477 1 0 0
991 281 2 0 -3.5763838642837698 -11.50018171423635 -3.0579841066260904 1 0 0
4253 1368 4 0 -2.870516724658165 -11.14933766272072 -3.306545858365766 1 0 0
4252 1368 2 0 -2.517157544942787 -11.124939728693926 -3.074887167383146 1 0 0
4254 1368 4 0 -2.1389063178465317 -11.087513863322053 -2.8128867803224917 1 0 0
1795 549 2 0 -6.5338630576785635 -10.993977814787602 -2.983159344053611 6 1 0
2271 707 4 0 -6.741606572263408 -10.276066105463219 -3.17842316433536 6 1 0
1796 549 4 0 -6.561967900238974 -10.6426477278862 -3.2387727772408166 6 1 0
2269 707 2 0 -6.481684062400911 -9.926130158935504 -3.0471628876702344 6 1 0
2270 707 4 0 -6.21608405030908 -9.569095317518888 -2.917584325457156 6 1 0
3678 1176 4 0 -5.867526319967703 -9.760236655868265 -3.0198040085725175 7 1 0
3676 1176 2 0 -5.458029868935333 -9.530392342508701 -3.076119160652862 7 1 0
3677 1176 4 0 -5.052865272243423 -9.289558621262218 -3.1215057866156624 7 1 0
1661 504 4 0 -4.908640714350982 -9.147386753109567 -3.4671319670857343 6 1 0
403 85 2 0 -2.7919896290442665 -6.614629431165174 -3.3707208382469283 2 0 0
404 85 4 0 -2.5025499727542027 -6.5068285648478446 -3.042605282511973 2 0 0
4227 1359 4 0 -2.1028770410203137 -6.480571007603788 -2.9560549823768607 2 0 0
3788 1213 4 0 -9.300926931691818 -5.155739692844419 -3.222759244397805 8 1 0
3787 1213 2 0 -9.549164162811728 -5.187951146073574 -2.8383779545696832 8 1 0
3817 1223 2 0 -8.866591925514138 -4.83813835598216 -3.64833662368331 8 1 0
3819 1223 4 0 -9.021235758245547 -4.8652071304143965 -3.229567337236478 8 1 0
595 149 2 0 -6.028230797653329 -0.03154029827159377 -3.098836857718199 5 0 0
597 149 4 0 -5.9838904071767285 -0.3491436137985122 -3.438984208398759 5 0 0
1797 549 4 0 -6.508354223408269 -11.349775406256404 -2.734481170315819 6 1 0
1986 612 4 0 -6.083356519222237 -11.359527931332838 -2.700327416535311 6 1 0
1984 612 2 0 -5.6655463865888205 -11.495351486355311 -2.5952304689630967 6 1 0
1985 612 4 0 -5.259423646245707 -11.615327388336015 -2.4913504488653366 6 1 0
1169 340 4 0 -4.949322545612107 -11.436115890792555 -2.2274851774197337 1 0 0
1168 340 2 0 -4.538398327831196 -11.553564502954451 -2.3673818160330224 1 0 0
1170 340 4 0 -4.106624203284058 -11.678232369695424 -2.508868518725418 1 0 0
1086 312 4 0 -1.9103219596725456 -11.187205215184179 -2.5293329989327056 1 0 0
1084 312 2 0 -1.6665743692502488 -11.13819772697597 -2.159551244422362 1 0 0
740 197 4 0 -4.225392431656888 -10.583094832253636 -2.409697263444576 2 0 0
739 197 2 0 -3.912009734053811 -10.525701078362378 -2.1067668580517314 2 0 0
1373 408 4 0 -3.1720727428082984 -10.50172736599 -1.8429513584369062 2 0 1
4225 1359 2 0 -1.885450904075194 -6.447189267553396 -2.540464326986603 2 0 0
4226 1359 4 0 -1.687827781887945 -6.411514795990253 -2.13884516358776 2 0 0
705 185 4 0 -1.3163797141540279 -6.312755742249097 -1.985236597193932 2 0 0
3821 1224 4 0 -9.752355709968231 -4.864361522342109 -2.2753279477297497 3 0 0
3789 1213 4 0 -9.781571696010822 -5.217031067718841 -2.4757278969047256 8 1 0
3820 1224 2 0 -9.800188848211095 -4.674527154860106 -1.8657603926698236 3 0 0
3301 1051 2 0 -3.6463023407387087 -4.020866210156251 -1.9784747109999703 3 0 0
3303 1051 4 0 -3.329590098106662 -3.824914664805897 -2.2705282034362266 3 0 0
816 222 4 0 -3.1320720230125474 -3.468545943214142 -2.296865126811296 3 0 0
815 222 4 0 -2.2905251736008445 -3.4186401784855693 -1.9401627805005752 3 0 0
814 222 2 0 -2.7154335690087166 -3.4444815170266008 -2.1221052330955974 3 0 0
1351 401 2 0 -4.834054740662552 -1.5246344917001178 -1.861184234396445 5 0 0
1353 401 4 0 -5.270337146244674 -1.4867212168885526 -1.9730511578997998 5 0 0
478 110 2 0 -3.581399050586274 -1.2828997166554057 -1.9324713299917544 6 0 0
479 110 4 0 -3.1690684603949304 -1.1996237105638432 -2.064811386998594 6 0 0
839 230 4 0 -2.932885708720722 -1.2372789694892088 -2.3888869883777506 5 0 0
838 230 2 0 -2.4780707914361635 -1.226647897341829 -2.4260520637129765 5 0 0
840 230 4 0 -2.0294530623038654 -1.2105207380268919 -2.460738193671528 5 0 0
2456 769 4 0 -1.6612142286379044 -1.0379832039951236 -2.367208616902971 5 0 0
2455 769 2 0 -1.3346829178677293 -1.0193637807420775 -2.0449167654187566 5 0 0
553 135 2 0 -11.39661654703379 -0.5632083684313915 -2.210265235926954 5 0 0
554 135 4 0 -11.011394028915998 -0.40535485480383393 -2.3741037971927827 5 0 0
555 135 4 0 -11.78984686971165 -0.7267145315261772 -2.0376037183340525 5 0 0
1275 375 4 0 -10.630055155041658 -0.5218348969034228 -2.3034839770106768 5 0 0
1273 375 2 0 -10.233458464087269 -0.2852387780790977 -2.3600842236544946 5 0 0
1274 375 4 0 -9.812726790565147 -0.038389615480827644 -2.4192141042761968 5 0 0
30 6 3 0 -9.453002219149385 -0.012910298795540953 -2.5905638391298904 5 0 0
3330 1060 4 0 -3.3761924247965265 -11.761490085488937 -1.530136700930539 3 0 0
1085 312 4 0 -1.4284348026057962 -11.101581850764813 -1.7869213281055725 1 0 0
741 197 4 0 -3.567220643982587 -10.462142090796302 -1.7883142438602473 2 0 0
1372 408 2 0 -2.876730563070131 -10.688824527792713 -1.597313412554593 2 0 1
1374 408 4 0 -2.5559406701043716 -10.887770968981714 -1.3372747220086794 2 0 1
3824 1225 4 0 -2.171419875050315 -10.942876325866683 -1.2246013289016808 7 1 0
3557 1136 4 0 -9.045003648578739 -7.34351682296557 -1.415414849072599 3 0 0
3143 998 4 0 -8.691218103637043 -7.350848720658577 -1.2189701704889853 3 0 0
4399 1417 2 0 -7.1424271525752605 -7.411879530791719 -1.2858716568492667 3 0 0
4400 1417 4 0 -6.723585687085135 -7.554566530301349 -1.243139796594118 3 0 0
2646 832 4 0 -6.4912409845394485 -7.554053093459491 -1.5704611624720926 3 0 0
2644 832 2 0 -6.071790544200132 -7.456698814949319 -1.4841948793621818 3 0 0
2645 832 4 0 -5.604064362136291 -7.361151121414952 -1.3988898458719952 3 0 0
3432 1094 4 0 -11.541268328266478 -7.187088341026943 -1.7068657655733208 3 0 0
3572 1141 4 0 -11.157453037358165 -7.303064428892811 -1.6038221721270833 3 0 0
3571 1141 2 0 -10.708176614317729 -7.221884513165881 -1.523218521997105 3 0 0
3573 1141 4 0 -10.277182238744345 -7.136611621765522 -1.441235610150411 3 0 0
3558 1136 4 0 -9.905334932056398 -7.044041970540308 -1.5380892169976406 3 0 0
3556 1136 2 0 -9.474366239915039 -7.1902063588679495 -1.475137944506855 3 0 0
3142 998 2 0 -8.287665158505952 -7.261100258011402 -1.3696389988701032 3 0 0
3144 998 4 0 -7.878059646262042 -7.168297397871249 -1.5356924179618794 3 0 0
4401 1417 4 0 -7.545232771477506 -7.281623707015625 -1.315857881228677 3 0 0
1776 542 4 0 -5.226854411407752 -7.280523808574117 -1.3949510165553853 7 1 0
1774 542 2 0 -4.787053916904329 -7.305492418387429 -1.4904190570833702 7 1 0
1775 542 4 0 -4.364229568228403 -7.33183031655535 -1.5826696017116841 7 1 0
1809 553 4 0 -3.9949588792387214 -7.26170487146627 -1.761918989264526 7 1 0
1807 553 2 0 -3.6398788638021458 -7.267888735289965 -1.480663308860498 7 1 0
8 2 3 0 -3.006725590485548 -7.047392469523067 -1.1584381039383391 2 0 0
1808 553 4 0 -3.309378512160718 -7.278026862034614 -1.2226922220171321 7 1 0
636 162 4 0 -1.9137641265605119 -7.28367858245302 -1.146187538003721 2 0 0
7 2 3 0 -2.275909689202109 -7.147291179035055 -1.23681340250676 2 0 0
6 2 1 0 -2.6292146734963175 -7.087505202704689 -0.940889122535939 2 0 0
634 162 2 0 -1.4323572252888326 -7.239827493432159 -1.0145127134918575 2 0 0
704 185 4 0 -0.7142232404767164 -6.471456289489715 -1.3861761458760267 2 0 0
19 4 3 0 -0.43830035343154883 -6.649284999523939 -1.1576635690383572 2 0 0