LAMMPS data file via write_data, version 29 Aug 2024, timestep = 1001000, units = lj

3400 atoms
4 atom types
2400 bonds
1 bond types

-10.791198 10.791198 xlo xhi
-10.791198 10.791198 ylo yhi
-10.791198 10.791198 zlo zhi

Masses

1 1
2 1
3 1
4 1

Bond Coeffs # zero

1 0

Atoms # bond

53 11 3 -4.753897572235737 -10.564358871828052 -9.991473063245605 0 0 0
1010 204 2 -5.378017152184883 -10.460933539651032 -10.165264348640198 0 0 0
1011 204 4 -5.038146126096937 -10.449719146584338 -10.248101073672844 0 0 0
1012 204 4 -5.71788817827283 -10.472147932717725 -10.08242762360755 0 0 0
55 11 3 -4.168263617449563 -10.131528457161004 -9.800186097823529 0 0 0
51 11 1 -4.370845263391402 -10.533564783266582 -9.731429503820287 0 0 0
1668 423 4 -3.9679659330037143 -9.803029280936022 -9.717011510360283 0 1 0
1667 423 2 -3.869515826687888 -9.468374593497588 -9.688484036903617 0 1 0
2171 591 2 -1.776172413111352 -9.773870453383733 -9.648477850718363 0 1 1
2173 591 4 -1.5245292736506115 -9.69792543774951 -9.879579743749671 0 1 1
2172 591 4 -2.0278155525720925 -9.849815469017956 -9.417375957687055 0 1 1
3067 889 4 -0.5250597663317358 -10.618423766500968 -9.69188196433297 0 1 0
3065 889 2 -0.43347213023641357 -10.711068573880118 -9.36703023726327 0 1 0
2742 781 4 -1.381673713203006 -9.528299263729446 -10.216889205454361 0 0 1
2741 781 2 -1.1545448573647141 -9.39481008265238 -10.447308652075053 0 0 1
1669 423 4 -3.7710657203720617 -9.133719906059154 -9.65995656344695 0 1 0
3103 901 4 -3.487002216515866 -8.867781751169241 -9.549761048034306 0 1 0
3101 901 2 -3.2795948526897605 -8.587741981675231 -9.582317352070412 0 1 0
3102 901 4 -3.072187488863655 -8.307702212181221 -9.614873656106518 0 1 0
32 7 3 -2.84217559722719 -8.082033353353115 -9.363777302576631 0 0 0
2743 781 4 -0.9274160015264222 -9.261320901575315 -10.677728098695745 0 0 1
1424 342 2 -6.268026543985636 -6.261010749673322 -10.010939159259136 0 0 1
1426 342 4 -6.2740612078029425 -6.3265944192703945 -10.354686690326327 0 0 1
64 13 3 -6.257296420077535 -6.281716646109407 -9.280768589683657 0 0 0
1425 342 4 -6.261991880168329 -6.19542708007625 -9.667191628191945 0 0 1
1453 351 4 -6.428315200595272 -6.3243405970383035 -10.767516163968148 0 0 1
23 5 3 -3.8062554767074763 -6.435937910344907 -9.66691237134461 0 0 0
22 5 3 -4.120417336588787 -6.664341133102871 -10.310367337623958 0 0 0
1103 235 2 -3.199567683867299 -7.073605963655369 -10.132880654094082 0 0 0
1105 235 4 -3.358027039074681 -7.076339037759783 -10.444943409086001 0 0 0
1104 235 4 -3.041108328659917 -7.070872889550957 -9.820817899102163 0 0 0
21 5 1 -3.9962109260478638 -6.294895763005729 -10.066066526953435 0 0 0
24 5 3 -3.6871543614259146 -6.050188877917529 -10.310816563224034 0 0 0
35 7 3 -3.0337018454135287 -7.3839884395344 -9.545576627514029 0 0 0
1220 274 2 -1.8278294422734584 -7.347773255571948 -9.582594290286224 0 0 0
1222 274 4 -1.6136538923654566 -7.331487732298471 -9.85893396451585 0 0 0
2503 701 4 -1.3857317571200851 -7.159055349935233 -10.15597065893387 0 0 0
2501 701 2 -1.1853917187226308 -7.096354503026421 -10.436028640094584 0 0 0
2502 701 4 -0.9850516803251765 -7.033653656117609 -10.716086621255299 0 0 0
1379 327 2 -9.673241124725589 -5.109069971402553 -10.482214539918818 0 0 1
1381 327 4 -9.858262919804405 -4.910989428435631 -10.260785016494893 0 0 1
1380 327 4 -9.488219329646773 -5.307150514369475 -10.703644063342743 0 0 1
242 49 3 -10.16375350755691 -4.749193990599178 -10.048701814038262 0 0 1
1232 278 2 -4.9184143565051155 -6.018107734620582 -9.516094795983848 0 0 0
1281 294 4 -5.109527960715486 -4.826962543558191 -10.1457103197197 0 0 0
1233 278 4 -4.665558289981449 -5.958407823576322 -9.750615008851312 0 0 0
25 5 3 -4.364216490802158 -6.040266503904018 -9.981592597725914 0 0 0
241 49 1 -10.349942071499546 -4.329128709371856 -10.070587383817358 0 0 1
245 49 3 -10.28099250799047 -4.155956298105192 -10.48610786907429 0 0 1
244 49 3 -10.148950639860573 -4.059141354417949 -9.751198478917898 0 0 1
1803 468 4 -4.558560678407849 -0.40641407766747295 -0.7599945327003055 0 0 0
1298 300 2 -6.235468503823854 -4.036333131019638 -10.520946716230755 0 0 0
1300 300 4 -5.987064144998116 -4.208657095619778 -10.344595572937516 0 0 0
1280 294 2 -5.387337071311553 -4.651975315873321 -10.266960343295226 0 0 0
1282 294 4 -5.6651461819076205 -4.47698808818845 -10.388210366870751 0 0 0
1334 312 2 -9.786639498993795 -2.748821358726705 -9.541703240084967 0 0 1
1335 312 4 -9.790092930138886 -2.645988469054789 -9.876237947723801 0 0 1
720 144 3 -9.609048686086943 -2.415818771528303 -10.13604959670745 1 0 1
716 144 1 -9.694187903125046 -2.307958179327617 -10.570235508929532 1 0 1
717 144 3 -10.141765955801727 -2.3695868843336223 -10.656698156826158 1 0 1
719 144 3 -9.586448950815248 -1.8632000125495765 -10.646932909402329 1 0 1
1001 201 2 -0.04573819549719034 -2.822363142055278 -10.607880498716781 0 0 0
1029 210 4 -6.9693376411488535 -0.515893715989324 -9.625739112112136 0 0 0
1028 210 2 -6.6945252602763725 -0.32234054216490415 -9.528192588741552 0 0 0
1030 210 4 -6.4197128794038925 -0.12878736834048407 -9.430646065370969 0 0 0
1974 525 4 -1.459153296941813 -0.17317671447166746 -9.49572285340118 0 0 1
1780 460 4 -1.092762460285077 -0.30417066427654865 -9.503372386828561 0 0 0
1778 460 2 -0.7795126955456022 -0.3558718922018643 -9.356057866424722 0 0 0
1779 460 4 -0.46626293080612746 -0.40757312012717994 -9.208743346020883 0 0 0
1120 240 4 -0.06835239183915859 -0.3708144700917293 -9.16191998541781 0 0 0
54 11 3 -4.479617791801623 -10.581384045595591 -9.282896500337316 0 0 0
1061 221 2 -4.211411379885244 -10.749451678807295 -8.58953209468292 0 0 0
1062 221 4 -4.375016032122838 -10.634445559367878 -8.876772604112976 0 0 0
530 106 3 -10.691490531737248 -6.7020539959365575 -5.482775421014677 1 0 0
122 25 3 -0.23436326897405937 -10.771668703303776 -8.67992692971074 0 0 0
1173 258 4 -0.08108369892525541 -6.331408562320556 -7.555896166360344 0 0 0
1165 255 4 -6.8854760096360055 -1.4359319046296004 -0.4507693880695992 0 0 0
1690 430 4 -3.3417169966804914 -7.5345976738482845 -7.804730704441181 0 1 0
1082 228 2 -5.996483786002102 -6.537531711926355 -7.867667855719134 0 0 0
1083 228 4 -6.024291646978556 -6.578469684956495 -8.21415134050898 0 0 0
63 13 3 -6.0183495120402215 -6.457720638587129 -8.58110655000238 0 0 0
61 13 1 -5.959011469943344 -6.172757413200449 -8.942458119719738 0 0 0
1311 304 4 -3.796603915399544 -6.6589561214561765 -9.317236358695853 0 0 0
1016 206 2 -4.240402023231695 -6.360524241959577 -8.010194050332059 0 0 0
1310 304 2 -3.8344640944253596 -6.562959377361699 -8.982794686699902 0 0 0
1312 304 4 -3.872324273451176 -6.466962633267222 -8.648353014703952 0 0 0
1018 206 4 -4.014733541732825 -6.444169331995192 -8.26431456381142 0 0 0
1688 430 2 -3.2688142005309455 -7.624281891953291 -8.135097051602145 0 1 0
1689 430 4 -3.1959114043814 -7.713966110058296 -8.46546339876311 0 1 0
1221 274 4 -2.0420049921814605 -7.3640587788454255 -9.306254616056599 0 0 0
33 7 3 -3.0879108236372224 -7.612997960491058 -8.830373141790314 0 0 0
31 7 1 -2.8435311979963465 -7.643916000658638 -9.22359403818813 0 0 0
34 7 3 -2.4058947630164855 -7.508890939694384 -9.14914550771375 0 0 0
1234 278 4 -5.171270423028781 -6.077807645664841 -9.281574583116383 0 0 0
65 13 3 -5.531489915961428 -6.20381863794661 -9.09627788827383 0 0 0
62 13 3 -6.03999882718762 -5.740938674023523 -8.806173034467857 0 0 0
1626 409 4 -5.94505378116492 -4.787995859019101 -8.787474306998394 0 0 1
1627 409 4 -6.151394708571249 -5.4278897934429455 -8.59264316378724 0 0 1
1625 409 2 -6.048224244868084 -5.107942826231024 -8.690058735392817 0 0 1
1313 305 2 -4.419264407826884 -4.58104004228881 -8.362781985428489 0 0 0
1151 251 2 -3.471314671947417 -5.0787008240687195 -8.648050378785188 0 0 0
1152 251 4 -3.789009809237674 -4.932063106818727 -8.639854061202815 0 0 0
1314 305 4 -4.1088545866788575 -4.698341059758061 -8.474075355561627 0 0 0
1153 251 4 -3.1536195346571603 -5.225338541318713 -8.65624669636756 0 0 0
1237 279 4 -2.117846301984818 -5.490283064093601 -8.994293487247898 0 0 0
1235 279 2 -2.445134882823844 -5.399555009549535 -8.909732237428244 0 0 0
1236 279 4 -2.772423463662871 -5.308826955005468 -8.82517098760859 0 0 0
1315 305 4 -4.729674228974912 -4.463739024819558 -8.25148861529535 0 0 0
1087 229 4 -5.535743493065103 -3.7691484170110625 -8.639674469191533 0 0 0
1086 229 4 -5.792718482769551 -4.39898186267663 -8.80482193477102 0 0 0
1085 229 2 -5.664230987917327 -4.084065139843846 -8.722248201981277 0 0 0
1534 378 4 -1.5459471695004328 -3.9513695498212593 -7.982188916389487 0 0 1
1532 378 2 -1.2263859194825748 -3.8314114755216777 -7.904789511370104 0 0 1
1533 378 4 -0.9068246694647164 -3.711453401222096 -7.827390106350721 0 0 1
1336 312 4 -9.783186067848703 -2.8516542483986216 -9.207168532446133 0 0 1
1891 497 4 -9.684402369452023 -3.0925154388833036 -8.152337291269067 0 0 0
1890 497 4 -9.702160948268546 -2.9075769329767986 -8.82723163997237 0 0 0
1889 497 2 -9.693281658860284 -3.000046185930051 -8.489784465620717 0 0 0
1238 280 2 -5.997075473388459 -2.2888836842526668 -7.8299327591258026 0 0 0
1239 280 4 -5.764100484938899 -2.3062405866442734 -8.090550089125557 0 0 0
1052 218 2 -0.05654964954445621 -2.6686791733130515 -7.719673260285954 0 0 0
1164 255 4 -7.270134008399359 -1.3687178208691815 -1.0317345255192754 0 0 0
2950 850 4 -0.37714589714322677 -10.77803542172014 -7.539776895173114 0 1 0
1163 255 2 -7.077805009017682 -1.402324862749391 -0.7412519567944372 0 0 0
48 10 3 -0.3637128741484227 -10.178923451452535 -6.1583788526099354 0 0 0
49 10 3 -1.0188024714170725 -10.556138802384222 -6.079853706497854 0 0 0
2256 619 4 -10.761168192671471 -6.81873018121584 -7.193022043986666 1 0 0
2255 619 2 -10.772749151905339 -6.673831159453742 -6.8746352432621025 1 0 0
528 106 3 -10.697700072683043 -6.412235497061516 -6.177661511903797 1 0 0
2257 619 4 -10.784330111139207 -6.528932137691643 -6.556248442537539 1 0 0
1060 220 4 -6.705891421973841 -6.327977519365831 -6.266509933769309 0 0 0
12 3 3 -6.597141553896421 -6.266469207637317 -6.640697675691689 0 0 0
14 3 3 -6.14932275321385 -6.264168102472226 -7.244314297953073 0 0 0
1084 228 4 -5.968675925025648 -6.496593738896214 -7.521184370929287 0 0 0
11 3 1 -6.164896898918676 -6.202869042010982 -6.7846406407003075 0 0 0
13 3 3 -5.889769142491954 -6.511639821933277 -6.5742473824676 0 0 0
1090 230 4 -5.759155476134854 -6.9011529588708465 -6.542445696560085 0 0 0
1088 230 2 -5.588742970074177 -7.205791238409606 -6.5680405479535295 0 0 0
1089 230 4 -5.4183304640135015 -7.510429517948365 -6.593635399346974 0 0 0
1136 246 2 -4.905917946685496 -6.439880339870328 -7.163046989314925 0 0 0
1137 246 4 -4.708691958129131 -6.36111523109872 -7.441251890562488 0 0 0
1138 246 4 -5.103143935241861 -6.518645448641936 -6.884842088067361 0 0 0
1017 206 4 -4.466070504730564 -6.2768791519239615 -7.756073536852698 0 0 0
1158 253 4 -0.477679691130516 -7.522088506164292 -6.251933886196897 0 0 0
1157 253 2 -0.35161665831427397 -7.319410313114108 -6.507921506637904 0 0 0
1159 253 4 -0.22555362549803182 -7.116732120063925 -6.76390912707891 0 0 0
1172 258 2 -0.09874225498206311 -6.58302054638756 -7.31324500755002 0 0 0
1174 258 4 -0.11640081103887102 -6.834632530454565 -7.070593848739697 0 0 0
15 3 3 -6.032550695958992 -5.779935016689838 -6.679705933439996 0 0 0
28 6 3 -0.7989749417363747 -3.627945591387111 -7.4324972948449055 0 0 0
29 6 3 -0.3194509536126115 -3.5828458589470396 -6.844600400017594 0 0 0
26 6 1 -0.6538420268140939 -3.3635115822434827 -7.07991951361877 0 0 0
30 6 3 -1.0025962956849948 -3.269067630341251 -6.802699745396213 0 0 0
2377 659 4 -1.186055937135063 -3.134108712187414 -6.483138473239725 0 0 0
2375 659 2 -1.1863660934482694 -3.133988816995514 -6.133138631199605 0 0 0
1306 302 4 -10.55340763324347 -3.029319969572956 -6.77177012660522 0 0 0
1167 256 4 -10.3055621851684 -2.7719168427457257 -6.609758711209714 0 0 0
1166 256 2 -10.100541220994817 -2.5859601667076957 -6.395547322889241 0 0 0
1168 256 4 -9.895520256821234 -2.4000034906696657 -6.181335934568769 0 0 0
1277 293 2 -6.6395040758249175 -2.1907013321813245 -6.962457170460368 0 0 0
1279 293 4 -6.769838438175604 -2.1561798832944516 -6.639469208521481 0 0 0
98 20 3 -6.967858508010615 -2.070567223805962 -6.303510403543979 0 0 0
1278 293 4 -6.509169713474231 -2.2252227810681973 -7.285445132399256 0 0 0
1240 280 4 -6.230050461838019 -2.27152678186106 -7.569315429126047 0 0 0
27 6 3 -0.4838286918815584 -2.970824858779063 -7.248717034808661 0 0 0
1053 218 4 -0.22515836022479802 -2.7062248539797857 -7.415269869132002 0 0 0
1655 419 2 -9.716332988530683 -0.994050943879454 -6.447172912283897 0 0 0
1657 419 4 -9.947192310571443 -0.735319536288502 -6.4947337381048085 0 0 0
1656 419 4 -9.485473666489924 -1.252782351470406 -6.399612086462986 0 0 0
1782 461 4 -7.333497963579607 -1.1057460673074455 -7.654042677008714 0 0 0
1781 461 2 -7.0960691572944254 -0.9333354045057534 -7.463249267011656 0 0 0
1783 461 4 -6.858640351009244 -0.7609247417040613 -7.272455857014597 0 0 0
2266 622 4 -6.565203514695461 -0.5243513136426662 -7.1232057016401145 1 0 0
2264 622 2 -6.2531210904728205 -0.3890769594956292 -7.040710795121635 1 0 0
2265 622 4 -5.941038666250179 -0.2538026053485922 -6.958215888603156 1 0 0
79 16 3 -9.356450573312706 -10.00484049907563 -4.612589385718941 0 0 0
76 16 1 -9.182252656093386 -10.420760339220006 -4.721977557889571 0 0 0
77 16 3 -8.939316363563862 -10.38266588312021 -5.1107329696674295 0 0 0
1930 510 4 -3.0655771490024986 -9.880906528018356 -4.806760508201942 0 1 0
1014 205 4 -2.839983831701074 -10.105252655454622 -5.07686004240002 0 0 0
1015 205 4 -2.297963702670877 -10.353430357382104 -5.44376876128284 0 0 0
1204 268 4 -1.9726930542424856 -10.513799337273282 -5.643920233415613 0 0 0
1013 205 2 -2.5689737671859754 -10.229341506418363 -5.2603144018414305 0 0 0
1202 268 2 -1.6980956322515477 -10.502549846178585 -5.860645185338771 0 0 0
1203 268 4 -1.4234982102606093 -10.491300355083887 -6.07737013726193 0 0 0
46 10 1 -0.5573172724637568 -10.59723991609425 -6.105193588084616 0 0 0
20 4 3 -9.180687318730971 -7.90038998816946 -5.237694749357234 0 0 0
1802 468 2 -4.24233837902479 -0.507792040675425 -0.8705656229057958 0 0 0
526 106 1 -10.59103528324011 -6.3348793990342696 -5.732758537322674 1 0 0
529 106 3 -10.139635670749641 -6.235037278427817 -5.693136058900695 1 0 0
1308 303 4 -9.847471998182622 -6.489474360829468 -5.56393296717291 0 0 0
1307 303 2 -9.60393076219693 -6.70971691638228 -5.4427682730662115 0 0 0
1309 303 4 -9.360389526211238 -6.929959471935091 -5.321603578959513 0 0 0
16 4 1 -8.900137606974331 -7.586556554114353 -5.063912026100207 0 0 0
1284 295 4 -8.09212758107477 -7.624643342111069 -5.0788052720791335 0 0 0
17 4 3 -8.467746235742391 -7.685963199597963 -5.185386389313378 0 0 0
19 4 3 -9.009786748953024 -7.167161430021754 -5.2293955465814985 0 0 0
1283 295 2 -7.822555315609794 -7.473653495423258 -4.914388545772752 0 0 0
1058 220 2 -6.81052374326926 -6.441656904599055 -5.952457271444559 0 0 0
1285 295 4 -7.5529830501448165 -7.322663648735446 -4.749971819466371 0 0 0
107 22 3 -7.175911293752291 -7.169580466846497 -4.743496124992991 0 0 0
106 22 1 -6.931332761589957 -6.801467116550588 -4.871065333421199 0 0 0
1059 220 4 -6.91515606456468 -6.555336289832279 -5.63840460911981 0 0 0
110 22 3 -6.920514919389714 -6.778794460365066 -5.325783845196769 0 0 0
109 22 3 -6.500291418725886 -6.842622217342411 -4.704303172183972 0 0 0
108 22 3 -7.132327175685946 -6.420609499602282 -4.698297509118108 0 0 0
1128 243 4 -6.154039561341138 -6.70608032593088 -4.5485052474166565 0 0 0
1246 282 4 -0.06507563643504988 -6.864526914048777 -5.627982147255726 0 0 0
1244 282 2 -0.3155402300459055 -6.7304930323202745 -5.423525780526461 0 0 0
1245 282 4 -0.5660048236567612 -6.596459150591772 -5.219069413797196 0 0 0
1192 264 4 -0.8958974443972958 -6.464913808390786 -5.051340588989582 0 0 0
1190 264 2 -1.0880883226308737 -6.207466281603462 -4.912475772442022 0 0 0
1804 468 4 -3.926116079641733 -0.6091700036833766 -0.9811367131112859 0 0 0
1191 264 4 -1.2802792008644512 -5.950018754816136 -4.773610955894463 0 0 0
2454 685 4 -9.801024292863456 -2.986664945078254 -4.7566081600718615 1 0 0
2505 702 4 -1.1394763699051582 -3.5097415914759225 -4.787951731617313 0 0 0
2504 702 2 -1.170239273271555 -3.324396912345996 -5.083249875354693 0 0 0
2506 702 4 -1.2010021766379515 -3.13905223321607 -5.378548019092073 0 0 0
2376 659 4 -1.1866762497614753 -3.133868921803614 -5.783138789159485 0 0 0
7 2 3 -9.630461411132458 -2.162166634446765 -6.011545024969983 0 0 0
2453 685 2 -9.99922171922346 -2.8871628999344576 -5.027379508623523 1 0 0
2455 685 4 -10.197419145583464 -2.787660854790661 -5.298150857175184 1 0 0
1004 202 2 -10.040780583954815 -1.5392587789183831 -4.950828227774529 0 0 0
1005 202 4 -9.833067611698617 -1.717038861582924 -5.1693449625211905 0 0 0
8 2 3 -9.549099380893438 -1.7124910331371532 -5.414827274587012 0 0 0
6 2 1 -9.36549825224157 -1.8372383532914514 -5.822293508368463 0 0 0
9 2 3 -8.93956128494461 -2.009686893239362 -5.7579568861408355 0 0 0
2336 646 2 -8.294766139248935 -2.256038974649599 -5.8081910797370435 1 0 0
2337 646 4 -7.94795762982392 -2.2534655215975197 -5.761103553471278 1 0 0
2338 646 4 -8.64157464867395 -2.258612427701678 -5.855278606002808 1 0 0
99 20 3 -6.95741873284404 -1.936895008204169 -5.555431029499578 0 0 0
96 20 1 -7.200085435308543 -1.8845847183658493 -5.947446979547617 0 0 0
100 20 3 -7.607176406502191 -2.0844917437127677 -5.906045018367153 0 0 0
1102 234 4 -6.14467038329598 -1.6454875524664507 -4.853191762395363 0 0 0
1044 215 4 -5.9543312217718025 -2.002905283461637 -4.727040059930248 0 0 0
10 2 3 -9.34705068751962 -1.4775727599097173 -6.1010413304104585 0 0 0
1006 202 4 -10.248493556211013 -1.361478696253842 -4.732311493027867 0 0 0
1631 411 2 -7.93339246715437 -0.3136205219947026 -5.62472634077496 0 0 0
1287 296 4 -8.657586914062032 -0.17942520545590485 -5.798419010273566 0 0 0
97 20 3 -7.2592584988850275 -1.435377042282313 -6.026888859526834 0 0 0
1633 411 4 -7.587533154345292 -0.363561924459784 -5.6444035373009545 0 0 0
1095 232 4 -6.615941494561094 -0.7356594177688551 -5.316270417590904 0 0 0
1094 232 2 -6.9218027766442685 -0.5985672073998247 -5.417040462636802 0 0 0
1096 232 4 -7.227664058727443 -0.4614749970307943 -5.5178105076827 0 0 0
1101 234 4 -6.376996063062865 -1.0448927593073898 -5.1276196635843725 0 0 0
1100 234 2 -6.260833223179423 -1.3451901558869197 -4.990405712989868 0 0 0
80 16 3 -9.520447363967467 -10.719162382586134 -4.785069237855989 0 0 0
2430 677 4 -9.404098275630616 -9.690696487597588 -4.34475308843357 1 0 0
2429 677 2 -9.407260673999701 -9.407690189453016 -4.138846715421165 1 0 0
78 16 3 -8.901492393927368 -10.568893755512793 -4.383554499919225 0 0 0
1703 435 2 -8.335491647981454 -10.142394718169504 -4.107923857506632 0 1 0
1705 435 4 -8.628227429261088 -10.324351846308256 -4.168729826606016 0 1 0
1704 435 4 -8.042755866701823 -9.96043759003075 -4.047117888407249 0 1 0
1928 510 2 -3.272576825694868 -9.886627547869413 -4.5245931752573885 0 1 0
388 78 3 -3.649779253252337 -9.693906749387313 -3.9551654788698216 0 1 0
389 78 3 -3.737872468720818 -9.883832020835696 -3.224571216194967 0 1 0
386 78 1 -3.85092218359138 -9.576940463120824 -3.5537175875420073 0 1 0
1929 510 4 -3.479576502387238 -9.89234856772047 -4.2424258423128345 0 1 0
390 78 3 -4.303264248777568 -9.563338535492745 -3.6047238972281583 0 1 0
1302 301 4 -3.8064102101340196 -10.27598031196953 -3.1374242582966025 0 0 0
387 78 3 -3.7001184463030508 -9.161114558569077 -3.4274359581436764 0 1 0
1113 238 4 -10.430307838585383 -8.195869873119145 -4.148567077376457 0 0 0
102 21 3 -9.858039227251638 -8.39088680143984 -3.269159351220441 0 0 0
2431 677 4 -9.410423072368788 -9.124683891308443 -3.9329403424087603 1 0 0
101 21 1 -9.725723111457715 -8.380674303944584 -3.7096002103562413 0 0 0
105 21 3 -9.51178043551321 -8.76970468225012 -3.8110097570730925 0 0 0
103 21 3 -10.101126421148615 -8.331850133597513 -3.977907041173505 0 0 0
104 21 3 -9.438794801925317 -8.021352945572671 -3.7717315760808905 0 0 0
1112 238 2 -10.589293514215376 -7.970658267958648 -4.36421328727942 0 0 0
1114 238 4 -10.748279189845368 -7.745446662798151 -4.579859497182384 0 0 0
1071 224 4 -3.849348665538668 -8.848255746488578 -3.2181075215369375 0 0 0
1070 224 2 -3.9647562216256738 -8.517835873592078 -3.21615724127394 0 0 0
42 9 3 -4.350392053310879 -7.898725409417716 -3.237868993189619 0 0 0
1072 224 4 -4.08016377771268 -8.18741600069558 -3.214206961010942 0 0 0
1254 285 4 -9.184351857074843 -7.722165687577321 -3.6662046254362264 0 0 0
18 4 3 -8.929684904483429 -7.586820318641442 -4.60084951667154 0 0 0
1253 285 2 -9.084090558108455 -7.563716795504149 -3.9617407831738776 0 0 0
1255 285 4 -8.983829259142068 -7.405267903430977 -4.257276940911527 0 0 0
1563 388 4 -7.2550794543170785 -6.382313887888389 -4.329845446804992 0 0 0
1562 388 2 -7.4026461572705795 -6.357171285379696 -4.01347237949592 0 0 0
1564 388 4 -7.550212860224081 -6.332028682871003 -3.6970993121868485 0 0 0
182 37 3 -7.4306841505814445 -6.239657435695254 -3.308652273792283 0 0 0
1127 243 2 -5.815936929571783 -6.771096647333007 -4.485580782048084 0 0 0
1129 243 4 -5.477834297802428 -6.836112968735133 -4.422656316679511 0 0 0
1242 281 4 -5.069497757032764 -6.842369270729473 -4.295968132946322 0 0 0
1241 281 2 -4.808352335983534 -6.9557627867897 -4.092387732169211 0 0 0
1243 281 4 -4.5472069149343035 -7.069156302849927 -3.8888073313921003 0 0 0
45 9 3 -4.316684130727551 -7.2412481915068785 -3.589419108938605 0 0 0
41 9 1 -4.295268324720668 -7.445363512024477 -3.1828747704182003 0 0 0
183 37 3 -7.02976021885877 -5.613348206211713 -3.1995800498492666 0 0 0
1449 350 4 -7.075859323103594 -5.227949515764733 -3.18886556004986 0 0 0
5 1 3 -1.7583749882594315 -5.197971926128831 -3.6327159380954726 0 0 0
1 1 1 -1.8223567814951138 -4.7828398428697465 -3.456728201070128 0 0 0
1144 248 4 -1.777311511113545 -5.373349890046557 -3.9866886862866187 0 0 0
1143 248 4 -1.563638454090424 -5.809175804779208 -4.491069095055578 0 0 0
1142 248 2 -1.6704749826019845 -5.5912628474128825 -4.238878890671098 0 0 0
1076 226 2 -3.2575634336580745 -3.135528451929779 -3.4401682076257067 0 0 0
4 1 3 -2.2750927342395824 -4.681363703991903 -3.4510054105807804 0 0 0
1057 219 4 -2.7547891862384044 -3.6846381972150537 -3.496982636741363 0 0 0
1056 219 4 -2.421096842329407 -4.299606317419456 -3.4754505502527273 0 0 0
1055 219 2 -2.5879430142839057 -3.992122257317255 -3.486216593497045 0 0 0
1077 226 4 -2.974945762904197 -3.3390471497761025 -3.4054206637606477 0 0 0
2410 670 4 -1.2429599343250435 -3.7978412862772446 -4.507993979983169 0 0 0
2408 670 2 -1.3258609455386683 -4.0079443444695 -4.240628822795383 0 0 0
2 1 3 -1.603721988634231 -4.472699111503027 -3.716750419539969 0 0 0
2409 670 4 -1.408761956752293 -4.218047402661756 -3.973263665607597 0 0 0
1045 215 4 -5.70938680813528 -2.462917122026911 -4.259716464754355 0 0 0
1043 215 2 -5.831859014953541 -2.2329112027442735 -4.4933782623423015 0 0 0
1275 292 4 -4.977855305015408 -2.5096773209195087 -3.569348441534586 0 0 0
1274 292 2 -5.249152243342223 -2.355350148035297 -3.410978321360236 0 0 0
1276 292 4 -5.520449181669038 -2.2010229751510852 -3.2526082011858857 0 0 0
1009 203 4 -4.578433938867897 -2.6138539165189 -3.6005576863079223 0 0 0
1078 226 4 -3.540181104411952 -2.9320097540834538 -3.4749157514907667 0 0 0
1007 203 2 -4.25162884555161 -2.7390952698708095 -3.6041680038940296 0 0 0
1008 203 4 -3.924823752235324 -2.864336623222719 -3.607778321480137 0 0 0
1821 474 4 -1.9699279923724096 -0.19493930524346897 -4.388357316536361 0 0 0
1820 474 2 -1.7419600586895132 -0.3460316360331581 -4.169950062103586 0 0 0
1822 474 4 -1.513992125006617 -0.4971239668228471 -3.951542807670812 0 0 0
2547 716 4 -1.2687415776421587 -0.4990175643874817 -3.6095646652572144 0 0 0
2546 716 2 -1.005063975342095 -0.5949079100746206 -3.4003299557815385 0 0 0
2548 716 4 -0.7413863730420309 -0.6907982557617597 -3.1910952463058626 0 0 0
1794 465 4 -8.8281377540162 -9.676448256796144 -2.981519996239478 0 1 0
1793 465 2 -8.77768197777192 -9.893220308472973 -2.711401332953629 0 1 0
1795 465 4 -8.727226201527639 -10.109992360149802 -2.44128266966778 0 1 0
1719 440 4 -8.76742642700424 -10.369214318789135 -2.145104510484974 0 1 0
1718 440 2 -8.612417993380602 -10.518486237202008 -1.8690786423513641 0 1 0
1301 301 2 -3.65196061033073 -10.58637511003233 -3.0894618724490073 0 0 0
383 77 3 -1.4611095142539394 -10.766438273857302 -2.9982619058282456 0 1 0
2939 847 2 -1.6997560696765124 -10.267249136631683 -2.5157127379736908 0 1 0
2941 847 4 -1.5702912008361933 -10.438888038618435 -2.7918991515805924 0 1 0
2940 847 4 -1.8292209385168317 -10.095610234644932 -2.2395263243667896 0 1 0
2500 700 4 -9.808577087900657 -8.200512066862052 -2.9137809315396175 1 0 0
2499 700 4 -9.41037194704789 -8.192213070205844 -2.3381388618011587 1 0 0
2498 700 2 -9.609474517474274 -8.196362568533948 -2.625959896670388 1 0 0
1353 318 4 -9.150474984767067 -8.26782611375074 -2.0348172571835415 0 0 0
1352 318 2 -8.908148224331148 -8.250247106426839 -1.7828872675472165 0 0 0
1354 318 4 -8.66582146389523 -8.232668099102938 -1.5309572779108915 0 0 0
1025 209 2 -0.18228275767074714 -8.47726197765152 -2.3904457109152486 0 0 0
1027 209 4 -0.38602638538721823 -8.61740860663989 -2.1427615237975184 0 0 0
2350 650 4 -0.527791956013966 -8.902856076413723 -1.8664548949817217 0 0 0
2348 650 2 -0.7675889731636959 -9.053272370097973 -1.6606094938660583 0 0 0
1040 214 2 -6.3489983056590225 -6.686628774933221 -2.9588147172171757 0 0 0
1042 214 4 -6.64590528845692 -6.5756958126476235 -2.81035555972115 0 0 0
185 37 3 -6.864915395843795 -6.243516944364905 -2.821937962973762 0 0 0
1041 214 4 -6.052091322861125 -6.797561737218819 -3.1072738747132016 0 0 0
1035 212 4 -5.647237342189003 -6.944512294569213 -3.083792651882007 0 0 0
1034 212 2 -5.317225028572078 -7.0457948696099475 -3.026054338308044 0 0 0
1036 212 4 -4.987212714955152 -7.147077444650685 -2.968316024734082 0 0 0
43 9 3 -4.6327919334677645 -7.285532054268639 -2.907499174822121 0 0 0
44 9 3 -3.881487455048976 -7.367112921656352 -2.988035767647464 0 0 0
1828 476 4 -3.668893208799462 -7.138567701927877 -2.7513505607506237 0 1 0
1826 476 2 -3.547020401544672 -7.1391995386731955 -2.4232551178773636 0 1 0
1827 476 4 -3.4251475942898826 -7.139831375418514 -2.0951596750041035 0 1 0
1798 466 4 -3.323299019951799 -7.0527904859539285 -1.715420806912952 0 1 0
1261 287 4 -8.013847866956764 -5.1460344592323395 -2.107948536361555 0 0 0
1259 287 2 -7.801423995915603 -5.336804703263661 -2.310390658964753 0 0 0
1260 287 4 -7.589000124874442 -5.527574947294983 -2.5128327815679508 0 0 0
1448 350 2 -7.043559875294722 -4.904360746841013 -3.05945514973603 0 0 0
181 37 1 -7.2029245455253 -5.992069474774682 -2.9949234674771734 0 0 0
184 37 3 -7.4974231942827725 -5.869412481332729 -2.6579875568949896 0 0 0
1450 350 4 -7.01126042748585 -4.580771977917292 -2.9300447394222 0 0 0
3 1 3 -1.6506304321822638 -4.7652801322272245 -3.0260290978509383 0 0 0
1140 247 4 -1.590389265692507 -4.814449878672418 -2.616718343897207 0 0 0
1139 247 2 -1.7021949196705308 -4.838602161379915 -2.2859372032944782 0 0 0
1141 247 4 -1.8140005736485547 -4.862754444087411 -1.9551560626917497 0 0 0
1575 392 4 -6.879225083303212 -4.293411455376786 -2.6717680966232966 0 0 0
1576 392 4 -6.482883020351941 -3.728260898648871 -2.555501947785101 0 0 0
1574 392 2 -6.6810540518275765 -4.010836177012829 -2.613635022204199 0 0 0
57 12 3 -8.686479139958964 -1.7071161157864538 -2.42427135760595 0 0 0
60 12 3 -8.107388138243056 -1.318095696765741 -2.1590983474477077 0 0 0
1064 222 2 -8.666290323542734 -0.27200041270948255 -2.121550477881109 0 0 0
1549 383 4 -7.766409062862403 -1.1682421198489814 -1.9947057446318235 0 0 0
58 12 3 -8.223389999029635 -1.35749989653751 -2.9019919315727583 0 0 0
59 12 3 -8.694780016529105 -0.9564571098183052 -2.4609067531524134 0 0 0
56 12 1 -8.425236848108336 -1.3333807155875461 -2.484887490662313 0 0 0
1065 222 4 -8.661343116498776 -0.5598555378207106 -2.320585530295528 0 0 0
118 24 3 -6.904465074162567 -1.37821610861347 -0.04477890423063663 0 0 0
1770 457 4 -7.135150647888594 -0.09777313871147528 -2.7065282054885507 0 0 0
1547 383 2 -7.577664266361457 -1.2681521901876522 -1.7174091892281904 0 0 0
1953 518 4 -6.247583559181212 -0.6133649617896997 -3.08597522878477 0 0 0
1954 518 4 -6.812890238383234 -0.34245684856945763 -2.774467359476181 0 0 0
1952 518 2 -6.530236898782223 -0.4779109051795786 -2.9302212941304755 0 0 0
2419 673 4 -0.4360278391207376 -0.8617399211129542 -3.007229460817745 0 0 0
1767 456 4 -4.826224583505179 -0.14213660262157862 -0.6279899111903444 0 0 0
2417 673 2 -0.19324863952432444 -0.9528069286090378 -2.7721442413992334 0 0 0
117 24 3 -6.37056251713436 -0.8492570242773492 -0.0518744448386812 0 0 0
1720 440 4 -8.457409559756963 -10.667758155614882 -1.593052774217754 0 1 0
454 91 3 -8.210070537972111 -10.776728580079181 -1.306214257065181 0 1 0
451 91 1 -7.8555919571445765 -10.657843979587007 -1.0314209028874342 0 1 0
1199 267 2 -9.027937725838191 -10.72920871353163 -0.31244248768450267 0 0 0
455 91 3 -7.768812101525357 -10.212765259275503 -1.073542030418969 0 1 0
2764 788 4 -7.98565032113899 -9.880824887046852 -0.9574624582263209 1 0 0
2762 788 2 -7.929359848377178 -9.58967610163718 -0.7715491251092821 1 0 0
1201 267 4 -8.753576420292482 -10.665684482829821 -0.5202658408790392 0 0 0
2763 788 4 -7.873069375615367 -9.298527316227506 -0.5856357919922435 1 0 0
1691 431 2 -10.701153936166236 -9.05488459398359 -0.9876911898706863 0 1 0
787 158 3 -10.311278217971221 -9.028637985525307 -0.4808912278896923 1 1 0
1693 431 4 -10.390592022955609 -9.15431957545674 -0.8605535380030072 0 1 0
786 158 1 -9.970070674307596 -8.932976324758062 -0.18758889444119445 1 1 0
790 158 3 -9.714378519676545 -8.597469340017104 -0.3592181030573462 1 1 0
1359 320 4 -7.789448553247362 -9.024630075060289 -0.2831324031610648 0 0 0