LAMMPS data file via write_data, version 29 Aug 2024, timestep = 10000, units = lj

3400 atoms
4 atom types
2400 bonds
1 bond types

-10.791198 10.791198 xlo xhi
-10.791198 10.791198 ylo yhi
-10.791198 10.791198 zlo zhi
0 0 0 xy xz yz

Masses

1 1
2 1
3 1
4 1

Bond Coeffs # zero

1 0

Atoms # bond

53 11 3 -5.119749062721083 -10.209002072355975 -9.910310851905122 0 0 0
1010 204 2 -5.709152920528307 -10.25921183605679 -10.337552583947573 0 0 0
1011 204 4 -5.480944075486683 -10.153284769835576 -10.09424171348225 0 0 0
51 11 1 -4.997943438384093 -10.207655886762945 -9.46258149429707 0 0 0
52 11 3 -4.939830330464679 -10.642089592426524 -9.322974108850413 0 0 0
55 11 3 -4.607713960429807 -9.97921571502081 -9.408396233664206 0 0 0
1012 204 4 -5.937361765569933 -10.365138902278003 -10.580863454412896 0 0 0
1668 423 4 -4.499400112303778 -9.586142501218347 -9.406811043352048 0 1 0
1667 423 2 -4.225352243595776 -9.369951991638887 -9.43249039739957 0 1 0
2171 591 2 -1.4901373677189707 -9.9132576809937 -9.838748009211026 0 1 1
2173 591 4 -1.6246334937398306 -9.671104928702842 -10.052693882373694 0 1 1
2742 781 4 -1.8402379596429572 -9.613368688728809 -10.426933830788656 0 0 1
2741 781 2 -2.0051569363049193 -9.424635976216557 -10.671232202384886 0 0 1
2172 591 4 -1.3556412416981107 -10.155410433284557 -9.62480213604836 0 1 1
1669 423 4 -3.9513043748877754 -9.153761482059426 -9.458169751447095 0 1 0
3103 901 4 -3.613906395034059 -8.909027363366851 -9.497678212216359 0 1 0
3101 901 2 -3.4137933395081292 -8.622230360570478 -9.483456953652585 0 1 0
3102 901 4 -3.213680283982203 -8.335433357774106 -9.46923569508881 0 1 0
32 7 3 -2.893577257571625 -8.100570598843573 -9.31612927288693 0 0 0
1453 351 4 -6.478275776093216 -6.724358208166428 -10.764120720687618 0 0 1
64 13 3 -6.4840874037284095 -6.346794727593843 -9.33383937228952 0 0 0
1426 342 4 -6.54978319896206 -6.711546383099973 -10.368428613040678 0 0 1
1424 342 2 -6.543404594304432 -6.619089971726244 -10.03092139030537 0 0 1
1425 342 4 -6.537025989646804 -6.526633560352516 -9.693414167570062 0 0 1
1311 304 4 -3.8270946349697716 -6.309458438603194 -9.50371236501137 0 0 0
1103 235 2 -3.0530974978112173 -7.270710529594345 -10.154835749215081 0 0 0
1104 235 4 -3.1343208032304846 -7.230963011993019 -9.816719039333364 0 0 0
1105 235 4 -2.97187419239195 -7.31045804719567 -10.492952459096799 0 0 0
35 7 3 -3.029865010522504 -7.382863359044065 -9.468844584284126 0 0 0
22 5 3 -4.093532502706641 -6.387691517835201 -10.52786110186598 0 0 0
1222 274 4 -1.5859315044583386 -7.694213686278747 -9.87888081880282 0 0 0
1221 274 4 -2.03670293477278 -7.614784208679977 -9.349262016549018 0 0 0
1220 274 2 -1.8113172196155585 -7.654498947479361 -9.614071417675918 0 0 0
2503 701 4 -1.3182867839739032 -7.845193824224392 -10.190401018458527 0 0 0
2501 701 2 -1.2336878126137272 -7.730571859057995 -10.510095902912736 0 0 0
242 49 3 -10.24345100480275 -5.056866512988875 -10.273414239166225 0 0 1
1381 327 4 -10.022689887376638 -5.25972306630511 -10.537254004732812 0 0 1
1379 327 2 -9.742112492068376 -5.427721478086776 -10.66196510640732 0 0 1
1380 327 4 -9.461535096760112 -5.595719889868444 -10.786676208081829 0 0 1
1232 278 2 -5.221722680004768 -6.026849174280613 -9.64413766700948 0 0 0
1281 294 4 -5.246722663825786 -4.728097466764315 -9.81632452487692 0 0 0
1280 294 2 -5.401112556362593 -4.569452619736447 -10.0874251954664 0 0 0
1233 278 4 -4.995802578030295 -6.095318707802089 -9.902540512394557 0 0 0
1234 278 4 -5.447642781979238 -5.958379640759137 -9.3857348216244 0 0 0
25 5 3 -4.630463966526183 -6.191393801071474 -10.048098859131272 0 0 0
23 5 3 -3.9080481878745648 -6.145517896913244 -9.840949530933662 0 0 0
21 5 1 -4.20862681684016 -6.09635338993991 -10.191000011669207 0 0 0
24 5 3 -4.191023201920943 -5.662724200698571 -10.355182346223298 0 0 0
1052 218 2 -0.0780803698569077 -2.7907252907976954 -7.809371018521551 0 0 0
241 49 1 -10.397043361152924 -4.623403535248163 -10.26249476119635 0 0 1
245 49 3 -10.420188642330023 -4.461712531031294 -10.687606881836006 0 0 1
244 49 3 -10.10351096687637 -4.366541759450614 -10.011176712412379 0 0 1
1282 294 4 -5.555502448899402 -4.410807772708583 -10.358525866055881 0 0 0
1300 300 4 -5.7132357169301615 -4.113745514540079 -10.612371071960021 0 0 0
1159 253 4 -0.18951836030435842 -6.827804010509793 -6.9237651580454855 0 0 0
1490 364 2 -10.715269199036658 -2.9613550632198296 -10.664687886105666 0 0 1
720 144 3 -9.533667590346882 -2.727846007895442 -10.370065631928334 1 0 1
1335 312 4 -9.473121628304943 -2.930194994653517 -10.015769736432745 0 0 1
1334 312 2 -9.523234465864256 -2.9537284826822745 -9.670176220213312 0 0 1
1336 312 4 -9.573347303423569 -2.9772619707110337 -9.32458270399388 0 0 1
2417 673 2 -0.4930962665843328 -1.0914619989866008 -2.6468336982004868 0 0 0
1053 218 4 -0.33578900127400324 -2.779864910440727 -7.572794786765964 0 0 0
1780 460 4 -0.9714620889683037 -0.15980555066910185 -9.693076695006779 0 0 0
1778 460 2 -0.6594605453771063 -0.24417483393955663 -9.558775314383668 0 0 0
1063 221 4 -5.825337164956626 -9.69229811687938 -8.362267460387216 0 0 0
1061 221 2 -5.729354606791543 -9.857731828443294 -8.655386950708506 0 0 0
54 11 3 -5.33273287159125 -10.011778448167934 -9.20792866304993 0 0 0
1062 221 4 -5.63337204862646 -10.023165540007207 -8.948506441029796 0 0 0
1690 430 4 -3.9406213367587917 -7.762662464610555 -8.33837827392223 0 1 0
1688 430 2 -3.597135632340729 -7.779060405927052 -8.403560160831159 0 1 0
63 13 3 -6.2235799936096114 -6.293342356514567 -8.621885207122382 0 0 0
1082 228 2 -6.146391150677745 -6.311557062940808 -7.932556190015671 0 0 0
1083 228 4 -6.211184977544736 -6.453785081880485 -8.245722201307522 0 0 0
1689 430 4 -3.2536499279226625 -7.795458347243548 -8.468742047740086 0 1 0
1016 206 2 -3.865959129813543 -6.109617143990316 -8.106204795866335 0 0 0
1310 304 2 -3.813831416596412 -6.337009040626463 -9.155050564169057 0 0 0
1312 304 4 -3.8005681982230533 -6.364559642649732 -8.806388763326744 0 0 0
1018 206 4 -3.785407853386519 -6.1717905997784595 -8.441086794877073 0 0 0
1017 206 4 -3.9465104062405665 -6.047443688202172 -7.771322796855598 0 0 0
33 7 3 -3.0382658703451018 -7.6219886837804225 -8.754947879834425 0 0 0
31 7 1 -2.837070660805611 -7.66789344728124 -9.170535704904363 0 0 0
34 7 3 -2.3828908064123677 -7.578904607670579 -9.13734464755233 0 0 0
1804 468 4 -4.328040867797702 -1.2983403748369788 -0.6262178228807898 0 0 0
62 13 3 -6.299772320535003 -5.677456980432278 -9.045889844886306 0 0 0
61 13 1 -6.1898183703519045 -6.124072271837576 -9.052591361278916 0 0 0
1627 409 4 -6.3423077003270345 -5.25226684962953 -8.99089139736402 0 0 1
1625 409 2 -6.106358588355972 -5.012623900914055 -8.893941545940276 0 0 1
1626 409 4 -5.870409476384909 -4.77298095219858 -8.796991694516532 0 0 1
65 13 3 -5.763309061221708 -6.171275124240417 -9.205109228921332 0 0 0
1315 305 4 -4.7202287811463695 -5.044411797961094 -8.093580631000364 0 0 0
1152 251 4 -3.604177677459827 -5.064335843052091 -7.989436151677639 0 0 0
1314 305 4 -4.033799083946745 -4.991991234057012 -7.966827503691217 0 0 0
1313 305 2 -4.377013932546557 -5.018201516009053 -8.03020406734579 0 0 0
1151 251 2 -3.2709931606137594 -5.159195009289808 -8.039334210906484 0 0 0
1153 251 4 -2.937808643767694 -5.254054175527526 -8.089232270135328 0 0 0
1235 279 2 -2.284067740281385 -5.598102388692516 -8.241675154387105 0 0 0
1236 279 4 -2.564927431640946 -5.42257933194112 -8.128496135491773 0 0 0
1237 279 4 -2.0032080489218274 -5.773625445443913 -8.354854173282437 0 0 0
1087 229 4 -5.343340070872559 -3.816457498412851 -8.763034494721953 0 0 0
1086 229 4 -5.631174911673999 -4.453683946181712 -8.72996549587771 0 0 0
1085 229 2 -5.487257491273279 -4.1350707222972805 -8.746499995299832 0 0 0
1534 378 4 -1.450952657542297 -4.2882765899930835 -7.74163609261069 0 0 1
1891 497 4 -9.602454080335574 -2.996369707523561 -8.20937465198263 0 0 0
1889 497 2 -9.609778570994601 -2.997003584536171 -8.559297429230062 0 0 0
1890 497 4 -9.617103061653628 -2.9976374615487806 -8.909220206477496 0 0 0
1239 280 4 -5.637803074176091 -2.1382974291834724 -7.897610297487926 0 0 0
1029 210 4 -6.812598344771232 -0.4819484251841448 -9.390770320142456 0 0 0
1028 210 2 -6.716750086627656 -0.15747819209175518 -9.301147894110693 0 0 0
47 10 3 -2.0205032850992364 -9.473045514030764 -6.979515511155883 0 0 0
46 10 1 -1.7775473921623242 -9.863425478540837 -6.992778896709984 0 0 0
48 10 3 -1.3413936784441347 -9.773152353998666 -6.862699301864211 0 0 0
49 10 3 -1.9695237563212729 -10.169544400250324 -6.701683927025263 0 0 0
1244 282 2 -0.24432670683572866 -6.610808939429825 -5.417131073165447 0 0 0
50 10 3 -1.7821021383091633 -10.028592446919147 -7.417159771449024 0 0 0
2257 619 4 -10.500155768876555 -6.677878816196448 -6.537147402555429 1 0 0
2255 619 2 -10.493395860724835 -6.913402671496511 -6.795957791115063 1 0 0
2256 619 4 -10.486635952573115 -7.148926526796575 -7.054768179674697 1 0 0
12 3 3 -6.151484045823002 -6.209819759452871 -6.495501377644199 0 0 0
14 3 3 -6.176048199301565 -6.146709936359868 -7.244042460413251 0 0 0
1084 228 4 -6.081597323810755 -6.16932904400113 -7.619390178723821 0 0 0
11 3 1 -5.900743100708499 -6.23238428051177 -6.880494651393849 0 0 0
13 3 3 -5.718835180992763 -6.657738795100347 -6.916314278189978 0 0 0
1090 230 4 -5.479618208854589 -7.005938773151225 -6.941429462586816 0 0 0
1088 230 2 -5.439422210138829 -7.2893604143516875 -7.142815795257486 0 0 0
1089 230 4 -5.399226211423072 -7.57278205555215 -7.344202127928155 0 0 0
1138 246 4 -4.490714596311772 -6.219216583331961 -6.843711686379974 0 0 0
1136 246 2 -4.369951570552874 -6.174314369073016 -7.169134615449502 0 0 0
1137 246 4 -4.249188544793978 -6.12941215481407 -7.494557544519031 0 0 0
1158 253 4 -0.365310026629869 -7.4947772603196 -6.804417036616956 0 0 0
1157 253 2 -0.2774141934671146 -7.161290635414696 -6.864091097331221 0 0 0
15 3 3 -5.567895045969051 -5.922163647577537 -6.861121180923836 0 0 0
1802 468 2 -4.543710095391729 -1.0424397626279251 -0.5237402109843003 0 0 0
1532 378 2 -1.2290553326867286 -4.024954045082186 -7.67900371628992 0 0 1
1533 378 4 -1.0071580078311602 -3.761631500171293 -7.616371339969151 0 0 1
28 6 3 -0.8658174514546975 -3.4571346415609456 -7.38807754997664 0 0 0
2419 673 4 -0.7738173865311655 -0.9277835409621655 -2.7768529859794864 0 0 0
1491 364 4 -10.419432243506705 -2.7743345410771116 -10.662733393752589 0 0 1
1306 302 4 -10.721374060079306 -2.3512475445112866 -7.236855662866214 0 0 0
1167 256 4 -10.388189342380427 -2.2536000404418335 -7.02386509018902 0 0 0
1166 256 2 -10.070875420132552 -2.203574347633081 -6.884907165598046 0 0 0
1168 256 4 -9.753561497884679 -2.1535486548243306 -6.745949241007071 0 0 0
7 2 3 -9.572599536788976 -2.2008149309583533 -6.363313431319013 0 0 0
1277 293 2 -6.506525305594643 -1.9818410449209 -6.736742135429938 0 0 0
1279 293 4 -6.698293901335303 -1.9647343981516823 -6.444454317818561 0 0 0
1278 293 4 -6.314756709853983 -1.998947691690116 -7.029029953041316 0 0 0
1240 280 4 -6.051598490689608 -1.9899408727981491 -7.352850088359588 0 0 0
1238 280 2 -5.84470078243285 -2.064119150990811 -7.625230192923758 0 0 0
30 6 3 -0.9329654035516626 -3.100103171357622 -6.728593143933894 0 0 0
2377 659 4 -1.1603519155105335 -2.9792516774767828 -6.420099630004852 0 0 0
2418 673 4 -0.21237514663750368 -1.2551404570110378 -2.516814410421487 0 0 0
97 20 3 -7.392564136529833 -1.47733665493074 -6.431292026154205 0 0 0
1782 461 4 -6.9284373223771585 -0.7714782584718591 -7.469498125247365 0 0 0
1783 461 4 -6.880941222662123 -0.21536560589281706 -7.047025832483096 0 0 0
1781 461 2 -6.904689272519641 -0.4934219321823381 -7.258261978865231 0 0 0
77 16 3 -8.902000609422997 -10.427350473620493 -4.952211554939873 0 0 0
1705 435 4 -8.08209892556757 -10.17444128419155 -4.666318149435355 0 1 0
78 16 3 -8.435230377518677 -10.185689685584741 -4.414972674985935 0 0 0
1014 205 4 -2.7107812896692813 -10.048164683089768 -4.356471838640306 0 0 0
1015 205 4 -2.2478461894566824 -10.286458317271643 -4.824347075107981 0 0 0
1204 268 4 -1.279306404114969 -10.130998244413945 -5.858379150474435 0 0 0
1013 205 2 -2.479313739562981 -10.167311500180706 -4.590409456874144 0 0 0
1202 268 2 -1.4331521335459811 -9.830732212376995 -5.765256642235617 0 0 0
1930 510 4 -3.124995272055111 -9.203296094410822 -4.535432859177874 0 1 0
1203 268 4 -1.5869978629769932 -9.530466180340046 -5.672134133996797 0 0 0
1174 258 4 -0.05983130606179898 -6.485399738880925 -7.090821389878588 0 0 0
20 4 3 -8.978282160933006 -7.987250229059271 -5.601923247018151 0 0 0
18 4 3 -8.91599767540907 -8.003373499077096 -4.851749478463537 0 0 0
528 106 3 -10.516009410930653 -6.456763893547759 -6.1924372074393155 1 0 0
27 6 3 -0.382978552271096 -2.9136331815098524 -7.197361110314467 0 0 0
26 6 1 -0.63713405089727 -3.26104489822513 -7.035157282964452 0 0 0
1615 405 4 -0.2694109630897117 -3.827729507303233 -6.551924781191783 0 0 1
530 106 3 -10.76132058901592 -6.741005381993711 -5.539804690510712 1 0 0
526 106 1 -10.536428721162077 -6.395304641352585 -5.732974682210842 1 0 0
529 106 3 -10.107713003559732 -6.367670792183645 -5.557648689098412 1 0 0
1308 303 4 -9.814640940197034 -6.629342070972752 -5.626552533662936 0 0 0
1307 303 2 -9.589516299288876 -6.87355888424277 -5.516202888570368 0 0 0
1309 303 4 -9.364391658380718 -7.117775697512787 -5.405853243477799 0 0 0
19 4 3 -9.09990838018819 -7.3574907115000965 -5.207575668308952 0 0 0
16 4 1 -8.852529838731144 -7.749115526336736 -5.234665548909229 0 0 0
17 4 3 -8.40669556381446 -7.641283206006493 -5.2693641079843365 0 0 0
1284 295 4 -8.018164831770786 -7.634804015916295 -5.420476360134144 0 0 0
1283 295 2 -7.7406754776401625 -7.501652724591073 -5.253831852385968 0 0 0
1285 295 4 -7.463186123509536 -7.368501433265852 -5.087187344637792 0 0 0
1060 220 4 -6.424381698658623 -6.374614306239109 -6.243948549271084 0 0 0
1058 220 2 -6.3804989569482 -6.446792869196319 -5.904294960994233 0 0 0
107 22 3 -7.089218453023314 -7.198714415862671 -5.02531800518884 0 0 0
106 22 1 -6.718911786595718 -6.93730388881675 -4.9469757487200745 0 0 0
1059 220 4 -6.336616215237778 -6.518971432153528 -5.564641372717381 0 0 0
110 22 3 -6.55714312525806 -6.78353914983423 -5.343948424422608 0 0 0
109 22 3 -6.396640935293314 -7.193875912365227 -4.733405397002371 0 0 0
108 22 3 -6.841648649532903 -6.580362453721798 -4.677108236061633 0 0 0
1245 282 4 -0.44804463833524366 -6.410351625750798 -5.215101694662872 0 0 0
1192 264 4 -0.7313966600552693 -6.2014762738528475 -4.979490590613464 0 0 0
527 106 3 -10.758586641428234 -6.002173899689232 -5.645258786147008 1 0 0
1190 264 2 -1.0017403936434945 -6.109500130815473 -4.777118026214423 0 0 0
2455 685 4 -9.440852898288458 -3.437049286008228 -4.47727374791122 1 0 0
2506 702 4 -1.6085176273936295 -3.378437910181738 -5.494288115172441 0 0 0
2505 702 4 -1.6632210276822939 -3.5433415674219724 -4.8161920144420165 0 0 0
2504 702 2 -1.6358693275379625 -3.460889738801855 -5.155240064807229 0 0 0
2376 659 4 -1.458895373742136 -3.2186583110663527 -5.833962899079323 0 0 0
2375 659 2 -1.3096236446263347 -3.0989549942715664 -6.127031264542087 0 0 0
1006 202 4 -10.363833253643472 -1.5950339151376678 -4.926995372139937 0 0 0
8 2 3 -9.67526980789016 -2.0818848439973596 -5.628320608328631 0 0 0
1004 202 2 -10.131885105949893 -1.7396108219833941 -5.145621936830762 0 0 0
1005 202 4 -9.899936958256314 -1.8841877288291222 -5.364248501521586 0 0 0
6 2 1 -9.441721177160188 -1.9440117877846692 -6.004812384407066 0 0 0
9 2 3 -8.986044323089693 -2.0006683503328073 -5.938114269106756 0 0 0
2337 646 4 -8.048192149487999 -2.3062376298234266 -5.989499150309268 1 0 0
2338 646 4 -8.745213116363013 -2.337951553572525 -5.933320873571832 1 0 0
2336 646 2 -8.396702632925507 -2.322094591697976 -5.96141001194055 1 0 0
100 20 3 -7.7585528217048365 -2.0723244745937137 -6.168534006720589 0 0 0
98 20 3 -7.0075892882765105 -2.0875408571318435 -6.220709031046451 0 0 0
99 20 3 -7.347171111465776 -1.6491455401444544 -5.701003603517463 0 0 0
96 20 1 -7.378628883739471 -1.8242568609716425 -6.1295434895044885 0 0 0
1657 419 4 -10.018155857267905 -0.6166192297378004 -5.802371705429282 0 0 0
10 2 3 -9.532707750525516 -1.5064892012739968 -6.092535983057693 0 0 0
1656 419 4 -9.572419400572784 -1.1454731576475705 -5.910225931618281 0 0 0
1655 419 2 -9.795287628920343 -0.8810461936926846 -5.856298818523782 0 0 0
1632 411 4 -8.131094692395399 -0.08583230610917347 -6.1965894990903685 0 0 0
1631 411 2 -7.800234942006793 -0.1649435155346719 -6.114289790001604 0 0 0
1633 411 4 -7.46937519161819 -0.2440547249601721 -6.0319900809128395 0 0 0
1095 232 4 -6.496032824861213 -0.6696927235153378 -5.756782568951843 0 0 0
1094 232 2 -6.817403627870117 -0.5774041407820043 -5.860240891335664 0 0 0
1096 232 4 -7.13877443087902 -0.48511555804867434 -5.963699213719486 0 0 0
1101 234 4 -6.201727981999621 -0.9078101493719117 -5.596888436854552 0 0 0
1100 234 2 -5.978358773251955 -1.0316484877894556 -5.357576375893564 0 0 0
1102 234 4 -5.754989564504288 -1.1554868262070013 -5.118264314932575 0 0 0
1044 215 4 -5.606213996930345 -1.312692165028416 -4.771263129465772 0 0 0
79 16 3 -9.14870290309596 -9.926129577567204 -4.449403846510227 0 0 0
2429 677 2 -9.679479221061108 -9.53760066702113 -4.141278143391634 1 0 0
2431 677 4 -9.912903330253837 -9.29279399995972 -4.051373299195497 1 0 0
76 16 1 -8.875367403943093 -10.295777990144243 -4.512235016976944 0 0 0
80 16 3 -9.012718525611726 -10.637849573008566 -4.2447996012722315 0 0 0
2430 677 4 -9.44605511186838 -9.78240733408254 -4.231182987587774 1 0 0
1703 435 2 -7.7333023710842195 -10.186526527677747 -4.6399569948621675 0 1 0
1704 435 4 -7.3845058166008695 -10.19861177116394 -4.613595840288979 0 1 0
390 78 3 -4.377629003098058 -9.430314104953409 -3.7055698485219946 0 1 0
1929 510 4 -3.074584880703415 -9.121687743874968 -3.8420362413852622 0 1 0
386 78 1 -3.987300338788228 -9.345393388661932 -3.486864554204365 0 1 0
389 78 3 -3.804810274876739 -9.741722413730484 -3.3290017008736923 0 1 0
388 78 3 -3.6878844507799284 -9.135997807712767 -3.7728778697808814 0 1 0
1302 301 4 -3.644945481933542 -10.075128966508958 -3.261557759196407 0 0 0
1928 510 2 -3.0997900763792625 -9.162491919142896 -4.18873455028157 0 1 0
1301 301 2 -3.5812550533521597 -10.364842337093272 -3.0757899142612892 0 0 0
1112 238 2 -10.677427628863471 -8.065582965496361 -4.545127353226092 0 0 0
103 21 3 -10.431931926579058 -8.350630898085639 -3.907024885600137 0 0 0
1113 238 4 -10.533618976159563 -8.240011499588073 -4.277931249395763 0 0 0
105 21 3 -10.006294503070507 -8.969688085911239 -3.857015067455211 0 0 0
104 21 3 -9.685164713634009 -8.31473363250156 -4.043590313122268 0 0 0
101 21 1 -10.015736928857015 -8.519294443073454 -3.790258741262609 0 0 0
102 21 3 -9.938685444758958 -8.430392413429065 -3.3455571582616574 0 0 0
1254 285 4 -9.275443681716506 -8.22143959437223 -4.037199959686046 0 0 0
1253 285 2 -9.018365160714113 -8.187887536704723 -4.272327358058653 0 0 0
2500 700 4 -9.6898686906621 -8.178932160902885 -3.138043515137551 1 0 0
1255 285 4 -8.761286639711718 -8.154335479037217 -4.507454756431259 0 0 0
1072 224 4 -4.32710076513219 -8.009362115135003 -3.152805775001122 0 0 0
1070 224 2 -4.230713795533824 -8.341023264501226 -3.2094664676613647 0 0 0
1071 224 4 -4.134326825935459 -8.672684413867449 -3.2661271603216075 0 0 0
387 78 3 -4.070984829216054 -9.067632423409576 -3.1298691029114574 0 1 0
1562 388 2 -7.019896341288465 -6.075016260570431 -4.1767121593581535 0 0 0
1563 388 4 -6.854067638788761 -6.253183267026781 -4.428222316683218 0 0 0
1128 243 4 -6.0291082547127735 -7.366539096318874 -4.732719307527985 0 0 0
1127 243 2 -5.729628942644533 -7.333218726253147 -4.5546690489441355 0 0 0
1241 281 2 -4.97307765238899 -7.0056903186211565 -3.8470745579155308 0 0 0
1242 281 4 -5.16624659823765 -7.130628870155444 -4.110847408490184 0 0 0
1129 243 4 -5.4301496305762935 -7.299898356187419 -4.376618790360285 0 0 0
1243 281 4 -4.779908706540331 -6.880751767086868 -3.5833017073408735 0 0 0
45 9 3 -4.5634036761110615 -7.1013490866179625 -3.2886743478374827 0 0 0
182 37 3 -7.286712479198458 -5.9067158469799805 -3.5026826710439813 0 0 0
1564 388 4 -7.185725043788169 -5.8968492541140805 -3.925202002033089 0 0 0
1 1 1 -1.6734785641022327 -4.572690636580637 -3.5204047246539023 0 0 0
1142 248 2 -1.583544046730026 -5.536231994865416 -4.103673961648213 0 0 0
5 1 3 -1.6479890933703594 -4.8843711857977 -3.851471971782857 0 0 0
1144 248 4 -1.6876677635417217 -5.258159875676806 -3.9183792015298957 0 0 0
1143 248 4 -1.4794203299183302 -5.814304114054026 -4.288968721766531 0 0 0
3 1 3 -1.5528212364945322 -4.762560575182083 -3.1145830696008048 0 0 0
1191 264 4 -1.272084127231718 -6.017523987778096 -4.574745461815385 0 0 0
2453 685 2 -9.424920124286173 -3.654869313506878 -4.203776796679421 1 0 0
2454 685 4 -9.408987350283889 -3.8726893410055307 -3.9302798454476218 1 0 0
1077 226 4 -3.202581296450081 -3.499235404198788 -3.518567400793044 0 0 0
1076 226 2 -3.4537381774210028 -3.271157589413084 -3.4325398962168876 0 0 0
1057 219 4 -2.869701427881979 -3.673728268074216 -3.6758374868736787 0 0 0
1078 226 4 -3.7048950583919265 -3.0430797746273814 -3.3465123916407284 0 0 0
4 1 3 -2.1050568498598548 -4.404273581942939 -3.4944070522646653 0 0 0
1055 219 2 -2.614796242270627 -3.9117916013238405 -3.6466965241158817 0 0 0
1056 219 4 -2.3598910566592703 -4.149854934573463 -3.6175555613580856 0 0 0
2408 670 2 -1.4531877501711694 -3.693059113685891 -4.118571356133239 0 0 0
2410 670 4 -1.568584534108055 -3.5166515060211756 -4.3979706013273985 0 0 0
2409 670 4 -1.337790966234282 -3.869466721350607 -3.839172110939077 0 0 0
2 1 3 -1.384549863353909 -4.227421284736729 -3.614793710034384 0 0 0
1275 292 4 -5.041200987657439 -2.4060994222039334 -3.1748859199444492 0 0 0
1045 215 4 -5.526424469638463 -1.7643843145598321 -4.242483559714559 0 0 0
1009 203 4 -4.708939843167085 -2.6346916311776205 -3.2116364209361237 0 0 0
1008 203 4 -4.080423651145455 -2.932050125727115 -3.292539585804577 0 0 0
1007 203 2 -4.39468174715627 -2.7833708784523683 -3.2520880033703508 0 0 0
1246 282 4 -0.04060877533621188 -6.811266253108853 -5.619160451668022 0 0 0
1043 215 2 -5.566319233284404 -1.538538239794125 -4.506873344590165 0 0 0
2547 716 4 -1.5172276616185023 -0.7304142969013103 -3.5608290928040773 0 0 0
1820 474 2 -2.100329545973052 -0.4349758917751245 -3.9142709085846388 0 0 0
1822 474 4 -1.806685013899969 -0.5827130584504872 -3.7940768223479022 0 0 0
1821 474 4 -2.3939740780461385 -0.28723872509976367 -4.034464994821374 0 0 0
2546 716 2 -1.2772762770901558 -0.8242643897935071 -3.323942003398284 0 0 0
2548 716 4 -1.0373248925618093 -0.9181144826857022 -3.087054913992495 0 0 0
1794 465 4 -9.609100084689379 -9.027514652054155 -2.5957631246420387 0 1 0
1795 465 4 -9.287964175386866 -9.542152972891932 -2.2464507623050736 0 1 0
1793 465 2 -9.448532130038123 -9.284833812473043 -2.421106943473557 0 1 0
1719 440 4 -9.264219737777337 -9.918408817312171 -2.063841986969379 0 1 0
1718 440 2 -9.057622895688436 -10.136486406547826 -1.8842315476511313 0 1 0
1720 440 4 -8.851026053599535 -10.35456399578348 -1.7046211083328888 0 1 0
1303 301 4 -3.517564624770782 -10.654555707677588 -2.8900220693261707 0 0 0
2941 847 4 -1.9428068860515637 -9.712541609986923 -2.6495871027645457 0 1 0
2939 847 2 -1.6962628632112953 -9.484471779358145 -2.7480766816995637 0 1 0
2940 847 4 -1.449718840371025 -9.256401948729366 -2.84656626063458 0 1 0
2244 615 4 -1.0831972969455261 -9.889257509028704 -1.6985297790590241 0 0 0
2245 615 4 -0.9393633829631511 -10.465080244872798 -2.0696631541055517 0 0 0
2243 615 2 -1.0112803399543395 -10.17716887695075 -1.884096466582287 0 0 0
2498 700 2 -9.569723815183666 -8.116630288915829 -2.8152685383454408 1 0 0
2499 700 4 -9.449578939705232 -8.054328416928772 -2.4924935615533332 1 0 0
1353 318 4 -9.248313287598856 -8.20718361038123 -2.1664657978708277 0 0 0
1352 318 2 -9.133465776369036 -8.294247696325618 -1.84751455692167 0 0 0
1354 318 4 -9.018618265139215 -8.381311782270005 -1.528563315972514 0 0 0
1027 209 4 -0.34684867775104067 -8.986113443732517 -2.1184634517637217 0 0 0
2350 650 4 -0.5422945343813463 -9.020496829018072 -1.7684225572408092 0 0 0
1025 209 2 -0.1527780940438177 -8.93008587291854 -2.4042912318136374 0 0 0
1041 214 4 -6.303788232204837 -7.101262042483629 -2.9963645929923777 0 0 0
1035 212 4 -5.920633428132696 -7.292328287451315 -3.0775286909102366 0 0 0
1040 214 2 -6.516148435842963 -6.8298656412174905 -2.935150727809729 0 0 0
185 37 3 -7.0891955691463036 -6.401664056488185 -2.980175886257255 0 0 0
1042 214 4 -6.728508639481089 -6.558469239951352 -2.8739368626270823 0 0 0
1034 212 2 -5.594303599308175 -7.38883781860479 -2.995707219303309 0 0 0
43 9 3 -4.952618735702664 -7.376083149107282 -2.7056367570296693 0 0 0
1036 212 4 -5.267973770483653 -7.485347349758268 -2.9138857476963818 0 0 0
41 9 1 -4.529492999342499 -7.291420745145261 -2.8762148581591704 0 0 0
42 9 3 -4.300866849909325 -7.689066731531432 -2.9109676034642202 0 0 0
1798 466 4 -3.3112570873946545 -6.946810366329201 -1.6715981015947694 0 1 0
1827 476 4 -3.6016076375951407 -6.935491201114596 -1.9511125897708457 0 1 0
1826 476 2 -3.826847228457906 -6.836431238522845 -2.200018697609366 0 1 0
1828 476 4 -4.052086819320667 -6.737371275931098 -2.448924805447886 0 1 0
44 9 3 -4.2970577491376 -7.009233246848661 -2.590480593032984 0 0 0
1259 287 2 -7.695356510757225 -5.627508209980776 -2.1265883127081615 0 0 0
1261 287 4 -7.661075112112252 -5.491895882759726 -1.8057548942296613 0 0 0
1260 287 4 -7.729637909402198 -5.763120537201826 -2.4474217311866617 0 0 0
184 37 3 -7.58193799939848 -5.857382045755319 -2.8132567734455227 0 0 0
181 37 1 -7.201035564860521 -5.966535640683679 -3.054708275982377 0 0 0
1448 350 2 -6.713954296652309 -5.035557871811721 -2.6313621710061863 0 0 0
1449 350 4 -6.806664938012873 -5.367854169654153 -2.690386805004584 0 0 0
183 37 3 -6.850109959628221 -5.689414556205511 -2.93079248146843 0 0 0
1450 350 4 -6.621243655291744 -4.703261573969288 -2.5723375370077903 0 0 0
1141 247 4 -1.1423431904799983 -5.313004913247547 -2.308863151726925 0 0 0
1140 247 4 -1.2663753772188908 -4.919847279729664 -2.8745866635760606 0 0 0
1139 247 2 -1.2043592838494455 -5.116426096488604 -2.5917249076514945 0 0 0
1575 392 4 -6.368084380166326 -4.408233038459736 -2.578040882590482 0 0 0
1574 392 2 -6.221521043430483 -4.092226893093533 -2.543992322919845 0 0 0
1576 392 4 -6.074957706694642 -3.776220747727332 -2.5099437632492094 0 0 0
57 12 3 -8.684515580344545 -1.5141928100670192 -2.170086335567966 0 0 0
1549 383 4 -7.577074578425595 -1.833835640481725 -2.086793590086808 0 0 0
60 12 3 -7.9882028238024905 -1.7674895782356081 -2.0807034943066878 0 0 0
1547 383 2 -7.341068549848483 -1.8674565765241518 -1.8305304691839392 0 0 0
1548 383 4 -7.105062521271371 -1.9010775125665784 -1.5742673482810705 0 0 0
1276 292 4 -5.615906171801577 -2.0568204325202313 -2.9806743376861364 0 0 0
1274 292 2 -5.328553579729508 -2.231459927362083 -3.0777801288152933 0 0 0
1064 222 2 -8.24769416292911 -0.3864133232993492 -2.0937405669277442 0 0 0
1065 222 4 -8.229841066445424 -0.7196884442848344 -2.1991396213732273 0 0 0
56 12 1 -8.259236965197903 -1.5147607086660795 -2.3454082594396137 0 0 0
59 12 3 -8.102864265682687 -1.0781805133005538 -2.361070694143077 0 0 0
58 12 3 -8.273688432482777 -1.6932944784802615 -2.7734466317021607 0 0 0
1066 222 4 -8.265547259412793 -0.05313820231386224 -1.9883415124822612 0 0 0
1201 267 4 -9.876542629650071 -9.801936471053956 -0.26966939943900137 0 0 0
1199 267 2 -9.77738795547253 -10.063498615366115 -0.4800347845468824 0 0 0
1200 267 4 -9.678233281294991 -10.325060759678276 -0.6904001696547653 0 0 0
789 158 3 -10.102952184578708 -9.45678726067601 -0.29413449141275727 1 1 0
2764 788 4 -8.070717475303685 -9.852453950334695 -0.6649713862140505 1 0 0
455 91 3 -8.181352766139607 -10.175149037343248 -0.9154571164161069 0 1 0
451 91 1 -8.204485116713395 -10.527819159909987 -1.2026655407452633 0 1 0
454 91 3 -8.627904204629742 -10.551100815822144 -1.3910116065019373 0 1 0
453 91 3 -7.885119026275714 -10.481668005849354 -1.536095250365392 0 1 0
2762 788 2 -8.074221705424934 -9.507512954781632 -0.6057816070448947 1 0 0
1767 456 4 -5.076604572196069 -0.6432099480853815 -0.24481264620603405 0 0 0
1691 431 2 -10.71043607461462 -8.912767823638363 -1.0614803938471358 0 1 0
1693 431 4 -10.49700483374103 -8.869844070948432 -0.7874281052702905 0 1 0
787 158 3 -10.427191339627726 -8.783775709488904 -0.3767445531603961 1 1 0
790 158 3 -9.693383659194781 -8.826718407532885 -0.24758491231834157 1 1 0
786 158 1 -10.097538171876112 -9.014530061130019 -0.15385171301055678 1 1 0
1359 320 4 -8.076492327468332 -8.776339457417558 -0.3617928223750084 0 0 0
1358 320 2 -8.043528987051463 -8.492634620889268 -0.15949357887893534 0 0 0
2763 788 4 -8.077725935546184 -9.16257195922857 -0.5465918278757425 1 0 0
142 29 3 -2.6841290290985995 -7.701121972064761 -0.5597981578093876 0 0 0
2349 650 4 -0.829864620163308 -8.978091890942135 -1.1316296026704542 0 0 0
2348 650 2 -0.6860795772723272 -8.999294359980103 -1.4500260799556326 0 0 0
1431 344 4 -8.877806712530687 -6.774762542043227 -0.1492139096797409 0 0 0
29 6 3 -0.35629724515711203 -3.5721335688299725 -6.836022837016632 0 0 0
144 29 3 -3.161102920429375 -7.256950259807466 -0.1854889313412631 0 0 0
1796 466 2 -3.133977815047384 -6.914607542050444 -1.3715397111029795 0 1 0
141 29 1 -2.747812168495015 -7.2761950523282275 -0.3955374788876611 0 0 0
143 29 3 -2.7354403796792166 -6.975453110347267 -0.7486680824538272 0 0 0
1797 466 4 -2.9566985427001136 -6.882404717771686 -1.071481320611193 0 1 0
145 29 3 -2.4173598032650236 -7.179518306951833 -0.09745218703762681 0 0 0
1164 255 4 -7.007107267800927 -1.7879694548034362 -1.1735893540366664 0 0 0
1163 255 2 -6.84548557777611 -1.6713230567189825 -0.88588803821151 0 0 0
1165 255 4 -6.683863887751293 -1.5546766586345289 -0.5981867223863517 0 0 0
118 24 3 -6.4824405329344925 -1.3167941162617414 -0.3345772246341596 0 0 0