LAMMPS data file via write_data, version 19 Nov 2024, timestep = 1000000, units = lj

79 atoms
4 atom types
54 bonds
1 bond types
35 angles
2 angle types

-2.982675 2.982675 xlo xhi
-2.982675 2.982675 ylo yhi
-2.982675 2.982675 zlo zhi

Masses

1 1
2 1
3 0.1
4 0.1

Bond Coeffs # harmonic/omp

1 100 0.45

Angle Coeffs # harmonic/omp

1 100 180
2 100 109.471

Atoms # full

45 14 4 0 -0.9901549567467639 -1.321606771865161 -1.258218418541279 1 1 1
56 18 2 0 -2.5988773954329116 -0.11353891220831808 -2.272033280563723 1 -1 1
69 22 4 0 -2.649302128627606 -0.7040995278177767 -2.678724778029179 1 0 1
57 18 4 0 -2.828051447746007 -0.3722930897882367 -2.5381183199083557 1 -1 1
73 23 4 0 -2.9168889142711634 -2.915873596674587 -1.0290515859078582 1 1 1
46 14 4 0 -0.8635213394918563 -0.8281983018214402 -1.997006556994078 1 1 1
44 14 2 0 -0.9302861627808097 -1.067928504491076 -1.6386337031991305 1 1 1
36 11 4 0 -0.3122261373780458 -2.4201989463385942 -0.9762883560594038 1 1 1
35 11 2 0 -0.5245978515880424 -1.995091373158657 -1.0481600016679105 1 1 1
37 11 4 0 -0.7179004510521089 -1.5922933325882447 -1.1093468028640645 1 1 1
20 6 2 0 -0.3442818611320658 -0.33009147356413615 0.42736271096744277 0 0 0
70 22 4 0 -2.8906533345839276 -1.2028143481595175 2.6175611002796417 1 0 0
13 3 4 0 -2.567143027002115 -2.2472729132975795 2.3161867983576263 0 0 0
22 6 4 0 -0.21771261645820195 -0.7034793889744045 0.5871326114701539 0 0 0
11 3 2 0 -2.6684638730437813 -1.814356508492641 2.2914047562745234 0 0 0
24 7 4 0 -2.7260697054494725 -2.603822639014178 2.4375315800604147 1 1 0
12 3 4 0 -2.7821182624506 -1.3766009152097896 2.2702073002279937 0 0 0
68 22 2 0 -2.769453830602665 -0.9515782689589479 2.9511637018537735 1 0 0
8 2 3 0 -2.6378386910538074 0.29801867083539313 -1.7517849755947184 1 0 1
7 2 3 0 -2.123961916759091 0.6955128880511138 -1.3944166935497777 1 0 1
63 20 4 0 -2.958490313273909 1.1902457781089169 -1.9006470529800885 1 0 0
60 19 4 0 -1.7600281124550547 2.7373264848621246 -1.4280644826622644 1 0 1
30 9 4 0 -1.3822692212517158 2.6132965167502493 -1.536107355302862 1 0 0
10 2 3 0 -2.7797136212248663 1.0101205572488674 -1.5850039780259009 1 0 1
6 2 1 0 -2.571966961958156 0.6195371471224006 -1.4453260927455465 1 0 1
34 10 4 0 -1.7594745824727824 0.7524018589635959 -1.5316302725297557 0 0 0
9 2 3 0 -2.7387678122950416 0.48679786455699864 -1.0476829383614161 1 0 1
32 10 2 0 -1.4425741594081907 0.596690017860663 -1.2411339947778666 0 0 0
33 10 4 0 -1.1537333711754678 0.45934789870934234 -0.9680232490394735 0 0 0
19 5 4 0 -0.9381047311595737 0.6098386813944253 -0.6781841115135789 -1 0 -1
17 5 2 0 -0.6633508279070587 0.4113332830745849 -0.41712657768047057 -1 0 -1
59 19 2 0 -2.210707110939048 2.8080016217517665 -1.3521375916856175 1 0 1
61 19 4 0 -2.6266640952051716 2.872148220257969 -1.2802371055226465 1 0 1
29 9 2 0 -1.166632679456706 2.4230844747412243 -1.194716433497966 1 0 0
14 4 2 0 -0.2918019309314171 2.1187359407329676 -0.42687204453796784 1 -1 0
15 4 4 0 -0.636711125909279 2.0191957752471303 -0.7324558252010198 1 -1 0
31 9 4 0 -0.955715901361101 2.226231175110558 -0.8485764493255008 1 0 0
58 18 4 0 -2.357135541810439 0.16694200484524094 -2.006286467963003 1 -1 1
18 5 4 0 -0.3558760032153027 0.18747231287140673 -0.12963935970420304 -1 0 -1
21 6 4 0 -0.46986229710308036 0.04489204468311495 0.25725118914918854 0 0 0
47 15 2 0 1.2637787899961643 -2.842685698855825 -1.541875199670154 0 0 1
28 8 4 0 0.03875920344583208 -2.6016526197968433 -0.833189641993448 -1 1 1
39 12 4 0 1.472228191469074 -2.7817382139227314 -2.1806597863286616 0 0 1
38 12 2 0 1.5195887100723826 -2.833274535916294 -2.609432580072153 0 0 1
27 8 4 0 0.965236484659028 -2.5252922547113226 -0.851757600997039 -1 1 1
49 15 4 0 0.9978079334980497 -2.658140095431822 -1.2227607661189932 0 0 1
26 8 2 0 0.5009696337793588 -2.566605214016141 -0.8485499216050432 -1 1 1
74 24 2 0 0.5936959786597594 -2.3890734653834333 0.7032715146874321 0 1 0
43 13 4 0 1.0130940161702566 -2.9065461481786063 0.965578680165382 -1 1 0
75 24 4 0 0.8471897468854718 -2.725671345210139 0.6539751375813644 0 1 0
76 24 4 0 0.3274236418326786 -2.020418112581155 0.7599817953470642 0 1 0
55 17 4 0 0.10724801528682287 -1.731107366379658 0.9446090897057228 0 0 0
53 17 2 0 0.11748239837318622 -1.3296577286997386 0.7291133684968941 0 0 0
54 17 4 0 0.11293189697613802 -0.9352717834144754 0.5288644129017225 0 0 0
40 12 4 0 1.5583171700383422 -2.898855390619145 2.8966874627148167 0 0 0
23 7 2 0 2.863889344631808 -2.8403941024223616 2.4066674945606406 0 1 0
62 20 2 0 2.603444899937401 1.3006553685759976 -1.9980120114383446 0 0 0
64 20 4 0 2.1407833375413796 1.4406816660024746 -2.1076765937862643 0 0 0
66 21 4 0 1.8751347957940954 1.5507595475038711 -2.3881857463586793 0 0 1
65 21 2 0 1.899628227973724 1.730875902534737 -2.8057856610673695 0 0 1
78 25 4 0 1.2155937951080622 2.457487243964359 -0.28113050615402746 1 0 1
77 25 2 0 0.7314584715224347 2.4734724817102434 -0.172836210512325 1 0 1
16 4 4 0 0.03685497490454374 2.211859428076841 -0.14303526909847994 1 -1 0
79 25 4 0 0.2840768690701983 2.4963649981586746 -0.07135488816580729 1 0 1
51 16 4 0 1.372106738645036 2.830350011831012 -0.23546729940106292 0 -1 1
72 23 4 0 2.5382656830586092 2.6218927637478218 -0.4032789108219578 0 0 1
71 23 2 0 2.7983057806911353 2.8468430172207393 -0.7198334764249675 0 0 1
52 16 4 0 2.266875183926402 2.8441751564413145 -0.175515496519558 0 -1 1
50 16 2 0 1.829366937182081 2.8376797074595554 -0.20629496908508108 0 -1 1
48 15 4 0 1.5410838468986727 2.933986369479014 -1.8640623914105838 0 -1 1
41 13 2 0 1.2349539654088098 2.7878978922354847 1.2517516058290894 -1 0 0
4 1 3 0 1.500843257219651 2.4602026487369475 1.9396679428390258 0 -1 0
42 13 4 0 1.4545563757980695 2.5149435991889004 1.5485404352458791 -1 0 0
25 7 4 0 2.455198016198486 2.870639398975008 2.3753107321520908 0 0 0
5 1 3 0 1.711133439415025 2.2056141748255684 2.5971560975473365 0 -1 0
2 1 3 0 2.149893298033212 2.664587122464775 2.24507710103364 0 -1 0
1 1 1 0 1.7276766238440966 2.5565487171853265 2.334572134740816 0 -1 0
3 1 3 0 1.527720937062579 2.9001333248068257 2.547401309233562 0 -1 0
67 21 4 0 1.918971374701474 1.902727110987392 2.75571062632268 0 0 0

Velocities

45 1.2111472645560375 0.6116458905258552 -0.6007253963644329
56 -0.18123183490818287 0.3617320670307031 -0.19421607484113407
69 -0.6512440587695094 0.1376876265435414 -0.5989868710038447
57 -1.6653891948795811 0.284163448930483 -0.2913298518288495
73 0.6116555025376591 -0.5328084342799222 -0.3104286175377178
46 -0.5231062418933398 -0.06038842816798726 -0.23764617068025917
44 -0.2887191488090503 0.4497977018543314 -0.04380482670324642
36 -1.0552686337072605 -0.6051384204050124 1.0828551642999664
35 -0.31945528043690863 -0.10891597538658393 -0.17127716011039598
37 0.007048054450695035 0.7564077990645657 0.2923158731201994
20 0.6516060774142325 -0.045969006146425344 -0.1265198414773611
70 1.7929039028566618 1.6808208103092752 0.7696168957956242
13 1.0736938650026977 0.014108616510517272 -0.1413359997094551
22 0.2967770757189016 -1.8329032813272945 1.0016348439984244
11 0.41142809461691227 0.05312323886938497 0.24041813071987075
24 -0.5017556129851954 0.614419102722991 1.310342168683493
12 -0.4176682986406465 0.5948095686783531 0.6287095721323287
68 -0.3523663134633379 0.07400364981997654 0.29336728241814836
8 -0.12538688350046584 -1.2033107893746045 -0.26286009115759856
7 -0.32484713389506586 -0.42455113413636353 0.9902676897120203
63 0.7361000015680026 -0.814874170797735 0.6624085941659321
60 0.11377706634321298 -0.09033730818879897 1.1191441149978107
30 -0.9178161731085585 -0.7728607988518061 0.3098969190073193
10 0.5334365929266576 -1.044935386392957 -0.5569268711190205
6 0.13931904996979333 0.1588737780301726 0.21485445942332784
34 -0.9182451902875711 -1.0032712303175124 -1.8740405059404661
9 0.6194302487576576 -0.46444471508244606 0.34680644485210466
32 0.19744419772848995 0.03179169703898693 -0.12728412288393195
33 0.5313761178925646 -0.40404469333064896 -0.5211758409137642
19 -0.38761984848636216 -1.2606440616092076 0.38226196196324047
17 -0.11776937244195239 -0.26309454014022676 0.08723542812212645
59 0.05829340699132616 -0.049284455403040196 -0.005712631504579301
61 -1.0041589193158291 -0.3135852184286211 -0.1507213551844719
29 -0.2501406193617245 0.006593508999683565 0.12351017796144524
14 -0.2058760623345561 0.21165507869399197 0.42983260940275747
15 1.4146852513236685 0.1429716138372316 -0.492781887350352
31 -0.0009633834708308447 0.5614966434804196 0.12677982629049284
58 1.0490281116407885 0.2599058544058749 0.5993200113735005
18 1.4246011190891514 -1.11768171007141 0.19272714755327505
21 0.11248153046189474 -0.4677405315173173 -1.2252901214491545
47 0.10671238758257752 0.4014265446836125 0.23755821856118509
28 -0.05301445035107943 -1.3518793361888455 -0.7969267767828313
39 -0.8533696643766766 -0.11798434935250597 0.16742508529829156
38 0.28938191570701716 0.22016699702690432 0.21545181552492562
27 0.7035345008453866 0.9337205843268237 0.9985260893950908
49 0.8420157280882582 0.5705185507429454 0.8644725076843485
26 0.02861915514971602 -0.3607504555450753 0.24910816029702115
74 0.20568414328274376 -0.14852146860484364 -0.010939673178000054
43 -0.20204746708207438 0.16548262217247772 -0.4311857575046686
75 -0.002763475030651795 0.6234611216551761 -0.06747830371920599
76 0.22638204379451585 1.057351025096977 -1.8805989214844525
55 -0.9934836598690253 0.6165444208246997 0.8616226071207044
53 -0.038842459527566625 -0.2123530493588347 -0.04394327622831877
54 0.7803194880319003 -0.6249846217351887 -0.5313288734670721
40 0.688834349241838 0.3936259834421417 -1.118674870920289
23 -0.12660957217533084 0.4163343077439995 0.22315834608039967
62 -0.3388655811552997 -0.04226112945512847 0.1415362612278321
64 -0.5150464401359349 1.4105972265977265 0.7639516295701858
66 -0.8448489207024894 0.5544214626450592 0.04482996208186764
65 0.4004518792412649 -0.009593015298876621 0.002282338416799397
78 0.250032100331051 0.10916251416630951 1.3296754585578379
77 0.41867332315168904 0.052965777238669236 0.20438178459620024
16 0.6347974303573595 -2.380196341472856 0.8548077288595746
79 1.0346150530947726 0.07036614183034862 1.1705678627169518
51 -0.49093060451229864 -1.508791273370039 -0.6457646450817116
72 -1.4334228551018264 0.07581032460935215 0.1595708029832666
71 -0.17760710572831515 -0.04255332071929469 0.17220971516149647
52 0.7291342894886917 0.09588784357976145 -0.8126864971644147
50 -0.07565695371462762 0.03635683048964529 0.1711313904151209
48 -0.7282296340427619 0.565347031930756 0.8111007679582233
41 -0.15558666085255496 -0.19321198073257378 -0.03400009581277405
4 -0.17732220515861613 -1.2849175465236196 -0.2827578381778109
42 -0.04322421826305057 0.7917224545149324 -0.3646656669004427
25 -0.044165760257730106 0.9075738415660443 -0.021347275994144013
5 -1.2099958299824636 0.47738082430030815 -0.42660180784457613
2 -0.26765563940613485 -0.11943800583550823 -0.021221568823643195
1 -0.3023642931431642 -0.04287764500220381 -0.007922259426931127
3 -0.5609476859226569 -0.8718791979809937 -0.11608587390989483
67 0.041807665102885944 0.4942140718841962 -0.5208752989201876

Bonds

1 1 56 57
2 1 56 58
3 1 44 45
4 1 44 46
5 1 35 36
6 1 35 37
7 1 20 21
8 1 20 22
9 1 11 12
10 1 11 13
11 1 68 69
12 1 68 70
13 1 6 7
14 1 6 8
15 1 6 9
16 1 6 10
17 1 32 33
18 1 32 34
19 1 17 18
20 1 17 19
21 1 59 60
22 1 59 61
23 1 29 30
24 1 29 31
25 1 14 15
26 1 14 16
27 1 47 48
28 1 47 49
29 1 38 39
30 1 38 40
31 1 26 27
32 1 26 28
33 1 74 75
34 1 74 76
35 1 53 54
36 1 53 55
37 1 23 24
38 1 23 25
39 1 62 63
40 1 62 64
41 1 65 66
42 1 65 67
43 1 77 78
44 1 77 79
45 1 71 72
46 1 71 73
47 1 50 51
48 1 50 52
49 1 41 42
50 1 41 43
51 1 1 2
52 1 1 3
53 1 1 4
54 1 1 5

Angles

1 1 57 56 58
2 1 45 44 46
3 1 36 35 37
4 1 21 20 22
5 1 12 11 13
6 1 69 68 70
7 2 7 6 8
8 2 7 6 9
9 2 7 6 10
10 2 8 6 9
11 2 8 6 10
12 2 9 6 10
13 1 33 32 34
14 1 18 17 19
15 1 60 59 61
16 1 30 29 31
17 1 15 14 16
18 1 48 47 49
19 1 39 38 40
20 1 27 26 28
21 1 75 74 76
22 1 54 53 55
23 1 24 23 25
24 1 63 62 64
25 1 66 65 67
26 1 78 77 79
27 1 72 71 73
28 1 51 50 52
29 1 42 41 43
30 2 2 1 3
31 2 2 1 4
32 2 2 1 5
33 2 3 1 4
34 2 3 1 5
35 2 4 1 5
