LAMMPS data file via write_data, version 19 Nov 2024, timestep = 10000, units = lj

32 atoms
4 atom types
22 bonds
1 bond types
15 angles
2 angle types

-2.068243 2.068243 xlo xhi
-2.068243 2.068243 ylo yhi
-2.068243 2.068243 zlo zhi

Masses

1 1
2 1
3 0.1
4 0.1

Bond Coeffs # harmonic/omp

1 100 0.45

Angle Coeffs # harmonic/omp

1 100 180
2 100 109.471

Atoms # full

6 2 2 0 -0.5890401911770601 -0.41843864987257207 -1.9953062657555019 0 0 0
8 2 4 0 -0.9944199928217727 -0.29110882243407205 -1.8501566885127645 0 0 0
18 6 2 0 -1.960339877017679 -1.8135847473362015 -1.0131586641322932 1 0 0
7 2 4 0 -0.16876936997766007 -0.5558911855652776 1.9928173989512437 0 0 -1
12 4 2 0 -1.9762706581089173 0.28081843541701296 -2.0101621146554254 0 0 0
20 6 4 0 -1.716794141682919 2.010785590381628 -0.8170073750160564 1 -1 0
24 8 2 0 -0.19548826596936003 1.0265095115123979 -1.18379156381402 0 0 0
21 7 2 0 -2.0582714735957994 1.6905805603160626 -2.0618645404897933 1 -1 1
17 5 4 0 -0.03973086795116907 1.2028460850942786 -1.8595143617848806 0 0 1
31 10 4 0 -1.556583451060377 1.7339020471271538 -0.5660284030863738 1 0 0
26 8 4 0 -0.48811315574262487 0.9153184981985163 -0.8897222021433735 0 0 0
11 3 4 0 -0.4197422825969596 0.15968814110840876 -0.4209598072595498 0 0 0
13 4 4 0 -1.7804454649222559 0.5660020120792438 -1.7418690528003449 0 0 0
30 10 2 0 -1.7466362307157328 1.4398976446693734 -0.2776249761686478 1 0 0
9 3 2 0 -0.04674900292828043 0.006144306146483484 -0.21317182849397773 0 0 0
32 10 4 0 -1.946722134883473 1.1449716241618435 0.005803552603548298 1 0 0
23 7 4 0 -1.6756118794001507 1.4742473337026722 2.0343794876359147 1 -1 0
3 1 3 0 1.0213724054346385 -0.48822225240788003 -0.6580122671763173 0 0 0
5 1 3 0 1.0407582156778774 -1.066632795169414 -0.23356433479529612 0 0 0
4 1 3 0 1.3744611330867957 -1.0763928822744546 -0.852778867526613 0 0 0
1 1 1 0 1.2749141078690434 -0.8240014545463894 -0.5181554098548591 0 0 0
2 1 3 0 1.6551923147699927 -0.669838426623275 -0.3199346146637728 0 0 0
19 6 4 0 1.9456429597824942 -1.517510206182113 -1.1922839408115289 0 0 0
10 3 4 0 0.32745361549624913 -0.13454586109047145 -0.011136982757800366 0 0 0
28 9 4 0 0.5205682292240713 -0.02398086047255462 0.32714580033039964 0 0 0
25 8 4 0 0.0927059872449671 1.1248869259716858 -1.4827068104470205 0 0 0
22 7 4 0 1.6837497549212872 1.9172006255611467 -2.016670639829537 0 -1 1
29 9 4 0 1.4047075634581718 0.13685066222612724 0.5345283150407137 0 0 0
27 9 2 0 0.9514798660636141 0.04866890718558143 0.42644709565337974 0 0 0
14 4 4 0 1.981462110500681 0.013425012834586064 1.8698035959047894 -1 0 -1
15 5 2 0 0.031887996687959864 1.5135587524156524 1.9636729661585524 0 0 0
16 5 4 0 0.09711235553478448 1.8269944359904138 1.6468064314013238 0 0 0

Velocities

6 -0.5557148157110119 0.23572478393635402 0.03827858078243171
8 1.0364975838415578 -0.6844356892041625 1.0234590957495546
18 0.0006117286733224956 -0.12670980929655085 0.016243048116935135
7 0.5573341222560441 1.4607667995808482 -0.32639440931340125
12 -0.3637110113896542 0.3224825315722761 -0.09389656087710099
20 -0.592433292174179 -0.589120415754063 -0.03611891980019284
24 0.12947984307348562 -0.19449538563702415 -0.12318900519328846
21 -0.18639571681658826 0.06871597085216997 -0.04524737009331846
17 0.29721733698225833 -1.2581162682099205 -0.161199374042695
31 0.16382015535202554 0.06938139493284118 0.8864343653121817
26 -0.4508783810199726 -0.12925133513404585 0.21739381026005322
11 0.3333906106249212 0.5969972499535946 -0.08752775348030167
13 -0.4807912289007176 1.0224910307120065 -0.27936149771619034
30 0.208981888242526 -0.0933599366620242 -0.3858951579601413
9 -0.2549173600668405 -0.05380221829392813 -0.30441722798375787
32 1.2185345267772967 -0.34088125392566004 0.8167868782471115
23 -0.01020280171965443 -0.8076287162942439 -1.2021501298947903
3 0.23908172225194682 0.1058309508534631 0.41979543730884805
5 1.2453207414177478 -0.3669132890392871 0.006237151646031211
4 -0.6779474482376289 0.7834257196777743 0.0432531719573862
1 -0.14564162740218858 -0.15077057045553163 -0.15139313088873513
2 0.643063870672106 1.19234405271507 -0.26211705420612613
19 0.0893163250038313 -0.7526994003953601 -0.237672207013957
10 -0.8241973317279195 -0.5705916905685442 -0.20888194943220065
28 1.011601305358954 0.44610621770571846 -0.8783021700854499
25 -0.0743984143662873 -0.3982340173236819 -1.0432282417443246
22 -0.3799886550768572 0.6382904316367207 0.57364215140571
29 -0.3816237727203801 -0.0606163671676578 0.3598798882246522
27 0.10581122949661313 -0.062289874994494496 0.05690583888953689
14 0.8129466418238033 0.16930078986706748 1.1132878291489199
15 -0.005955708282156682 0.3034168157884869 0.2905977902218492
16 0.5036504943093134 -1.2332809745868232 0.35529698309092644

Bonds

1 1 6 7
2 1 6 8
3 1 18 19
4 1 18 20
5 1 12 13
6 1 12 14
7 1 24 25
8 1 24 26
9 1 21 22
10 1 21 23
11 1 30 31
12 1 30 32
13 1 9 10
14 1 9 11
15 1 1 2
16 1 1 3
17 1 1 4
18 1 1 5
19 1 27 28
20 1 27 29
21 1 15 16
22 1 15 17

Angles

1 1 7 6 8
2 1 19 18 20
3 1 13 12 14
4 1 25 24 26
5 1 22 21 23
6 1 31 30 32
7 1 10 9 11
8 2 2 1 3
9 2 2 1 4
10 2 2 1 5
11 2 3 1 4
12 2 3 1 5
13 2 4 1 5
14 1 28 27 29
15 1 16 15 17
