LAMMPS data file via write_data, version 4 Feb 2025, timestep = 1000, units = lj

8 atoms
4 atom types
6 bonds
1 bond types
7 angles
2 angle types

-1.5 1.5 xlo xhi
-1.5 1.5 ylo yhi
-1.5 1.5 zlo zhi
0 0 0 xy xz yz

Masses

1 1
2 1
3 0.1
4 0.1

Bond Coeffs # harmonic/omp

1 100 0.45

Angle Coeffs # harmonic/omp

1 100 180
2 100 109.471

Atoms # full

3 1 3 0 0.17161114805759015 -0.5396703481640233 -0.9059228012856609 0 0 0
1 1 1 0 0.556752335145998 -0.5312413092915812 -1.129953878853015 0 0 0
2 1 3 0 0.9010712472483666 -0.7326417131858065 -0.8627547062406129 0 0 0
4 1 3 0 0.6771728522769509 -0.1041112407441287 -1.2303184349172012 0 0 0
6 2 2 0 0.3401974476497811 -0.5200681268600913 0.44576008162165004 0 0 0
8 2 4 0 0.027333134029199346 -0.705083310100379 0.17334704339878382 0 0 0
7 2 4 0 0.6516500411804147 -0.3317438827983108 0.7162057793643588 0 0 0
5 1 3 0 0.5135270018235394 -0.7783395268331978 1.463460164027997 0 0 -1

Velocities

3 0.5253664571816618 -0.17746582038600953 -0.923627465131498
1 0.6486430518024048 0.028676678471172126 0.009562516772955693
2 -0.4820565054322161 -1.2832420382031802 0.1274507136576075
4 0.9836929489556143 -0.3522331098865679 -0.1576294921678182
6 0.8541916618543927 0.04575693960598101 0.11397466957104106
8 2.289608222576032 0.44650370066882294 1.1608195613428123
7 -1.486291625179498 -0.016512935772419274 -1.6469127454107724
5 -0.42291740766285724 0.43331616791492994 0.47740086915248864

Bonds

1 1 1 2
2 1 1 3
3 1 1 4
4 1 1 5
5 1 6 7
6 1 6 8

Angles

1 2 2 1 3
2 2 2 1 4
3 2 2 1 5
4 2 3 1 4
5 2 3 1 5
6 2 4 1 5
7 1 7 6 8
