LAMMPS data file via write_data, version 4 Feb 2025, timestep = 10500000, units = lj

4000 atoms
4 atom types
3000 bonds
1 bond types
3500 angles
2 angle types

-10.515914 10.515914 xlo xhi
-10.515914 10.515914 ylo yhi
-10.515914 10.515914 zlo zhi
2.1316282072803006e-14 0 0 xy xz yz

Masses

1 1
2 1
3 0.1
4 0.1

Bond Coeffs # harmonic/omp

1 100 0.45

Angle Coeffs # harmonic/omp

1 100 180
2 100 109.471

Atoms # full

3193 731 4 0 -9.563702745838668 -9.928352591839626 -9.991856743014731 7 0 1
48 10 3 0 -9.235138564376735 -10.150577840846443 -10.114757651582558 6 0 0
3430 810 4 0 -7.366453755420515 -10.174542794015265 -10.105148923531797 17 1 0
2238 448 3 0 -7.291344829621993 -10.025289637096064 -10.493747904365804 17 1 1
3428 810 2 0 -6.93651877516602 -10.129665150617939 -9.912826591198515 17 1 0
3429 810 4 0 -6.517025512936087 -10.087409071422252 -9.726364312478246 17 1 0
980 196 3 0 -4.4403248555615304 -9.78829649247976 -9.710029980846718 4 0 1
978 196 3 0 -4.668140600548456 -10.425547681917985 -9.947410554261461 4 0 1
977 196 3 0 -4.301576805644247 -10.008326788987112 -10.411949577974694 4 0 1
976 196 1 0 -4.3452168074332675 -10.145574072692707 -9.975127314430354 4 0 1
979 196 3 0 -3.955952727884993 -10.335706245874439 -9.8321756796424 4 0 1
2343 469 3 0 -0.49820023853622786 -10.46897013299289 -10.489743177340207 17 1 1
187 38 3 0 7.4865926011737525 -9.658591421411716 -9.937284491534617 3 0 0
1203 241 3 0 9.706752848259038 -9.802978774567517 -10.27827647988856 4 0 1
3191 731 2 0 -9.661224962269086 -9.599446831882101 -9.720996299829675 7 0 1
2635 545 4 0 -7.072556824356067 -9.106668653313722 -10.438147326418271 7 0 0
2633 545 2 0 -6.637061247519528 -9.049917059173179 -10.360748840791134 7 0 0
2634 545 4 0 -6.200909378565932 -8.988707699183129 -10.291322325466366 7 0 0
1402 281 3 0 -5.561564443004519 -9.615497764416508 -9.800243639778504 17 1 0
2576 526 2 0 -4.461354846494024 -9.105109135624762 -9.696419302430094 5 0 0
1410 282 3 0 -3.1891918030838147 -8.916857243660273 -10.04652548397766 16 1 0
189 38 3 0 8.109680824426269 -9.390940567844693 -10.227418569449643 3 0 0
186 38 1 0 7.891231074577574 -9.482432102011503 -9.847647791527349 3 0 0
3949 983 4 0 9.502414966163764 -8.879430636322374 -9.806684868393658 14 1 1
1201 241 1 0 9.77128515621411 -9.347461351093978 -10.381937075026899 4 0 1
1205 241 3 0 9.774221257771424 -9.114555003476934 -10.004850755940739 4 0 1
2244 449 3 0 -4.114479076297477 -8.280932096173922 -10.302534911800182 16 1 1
2241 449 1 0 -3.802626035037373 -8.267023952321264 -9.972422924141563 16 1 1
2577 526 4 0 -4.2139107264057465 -8.734022903346448 -9.789143621255626 5 0 0
2245 449 3 0 -3.4046816110496865 -8.51660053833666 -10.108249153670572 16 1 1
3156 719 4 0 7.818627524998783 -8.756652290111067 -9.759366703597312 4 0 1
3155 719 2 0 7.952536874651509 -8.392711464539413 -9.943624355515242 4 0 1
3157 719 4 0 8.093770628345931 -8.018706604629335 -10.141251541528034 4 0 1
2229 446 3 0 -6.292334878473564 -7.3380032312058265 -10.021698114053144 13 1 1
2226 446 1 0 -6.030088765128071 -7.381887428180486 -10.383719007288041 13 1 1
2230 446 3 0 -5.614131309379794 -7.2715954409676815 -10.281193653511904 13 1 1
3104 702 2 0 -4.776739691269069 -7.069205689390257 -10.313209002502969 4 0 1
3105 702 4 0 -5.201310912136174 -7.24877447076123 -10.279861044222665 4 0 1
2242 449 3 0 -3.693411435541477 -7.843804378510337 -9.881881395051648 16 1 1
1909 382 3 0 8.067904359577375 -7.691139190917582 -9.921324970743292 13 1 1
1906 382 1 0 8.193281312561352 -7.307667911668862 -9.715840064135618 13 1 1
1910 382 3 0 8.627636709169908 -7.18829915162227 -9.864044467956598 13 1 1
3106 702 4 0 -4.366061981266035 -6.899491164506531 -10.352561129041609 4 0 1
2264 453 3 0 -4.03456502908312 -6.774920958945381 -10.151670743177874 14 1 1
2261 453 1 0 -3.7845070444754754 -6.421646075148103 -10.141949469198973 14 1 1
2653 551 4 0 -3.168019041786355 -6.862358181371301 -10.011980243613651 5 0 0
2263 453 3 0 -3.3876135177222713 -6.52512171912764 -9.97680569602357 14 1 1
2651 551 2 0 -2.706818550783634 -6.843341076291059 -9.962595123032838 5 0 0
2652 551 4 0 -2.2625585765528182 -6.831376311844116 -9.913662802399745 5 0 0
1539 308 3 0 -1.8794186057197333 -6.832036627475392 -10.064475702250943 15 1 0
1536 308 1 0 -1.5754715324097806 -6.636535769653963 -10.351092185509621 15 1 0
1538 308 3 0 -1.1775383893879106 -6.635445321753022 -10.162739084733778 15 1 0
1537 308 3 0 -1.710895367387085 -6.18328397507006 -10.44888957856877 15 1 0
2928 643 4 0 -0.8591811349811707 -6.41167234654094 -10.26689375168783 5 0 0
2927 643 2 0 -0.4385224006632633 -6.231952744693796 -10.247563183197881 5 0 0
2234 447 3 0 1.0027775376902994 -6.3314734542548345 -10.186714151425859 17 1 1
1907 382 3 0 7.9163971593264915 -6.9851466211314674 -9.829491012481501 13 1 1
2262 453 3 0 -3.9886043598305267 -6.103798297878303 -9.883218818694315 14 1 1
2996 666 2 0 -1.301683647461342 -5.546127463161234 -10.158081662191407 6 0 1
2997 666 4 0 -1.6233270911146462 -5.79681002416717 -10.366730819524335 6 0 1
2998 666 4 0 -0.9946339344296522 -5.301961073209259 -9.947075952865031 6 0 1
2929 643 4 0 -0.02111760465505519 -6.046386202438265 -10.222709842761871 5 0 0
385 77 3 0 -0.6875505009341296 -5.270710720078108 -9.691320431651489 7 0 0
2232 447 3 0 0.3602527470210255 -5.963752329330172 -10.372761092002808 17 1 1
2231 447 1 0 0.8348534427951257 -5.916374532621226 -10.293250639492564 17 1 1
2233 447 3 0 0.8988973611630744 -5.639322108994125 -9.962557292703266 17 1 1
175 35 3 0 -4.789516626845083 -4.591658057043973 -9.807089793428247 8 0 0
1116 224 1 0 -3.8668257316870287 -4.585369888510869 -9.967624146642617 5 0 1
1117 224 3 0 -4.206933611899883 -4.8085553318728635 -9.834615929769612 5 0 1
1118 224 3 0 -3.8463728245424518 -4.599305206059444 -10.402750373156929 5 0 1
1120 224 3 0 -3.499304107440106 -4.767097717671048 -9.78877004574167 5 0 1
384 77 3 0 -0.012024335296979771 -5.003087996442085 -9.744805506952009 7 0 0
2689 563 4 0 0.3006850569889359 -5.028761292793109 -10.000350151440669 7 0 0
2687 563 2 0 0.3172843421035694 -4.802582679129686 -10.358731424303304 7 0 0
3172 724 4 0 -6.455401320362458 -3.5290389846896177 -9.640683273407884 6 0 1
3170 724 2 0 -6.045411856780145 -3.772535860210956 -9.755901761665992 6 0 1
3171 724 4 0 -5.684901101425818 -3.996596050699128 -9.862053536581683 6 0 1
58 12 3 0 -5.553436049055464 -3.7375611102817192 -10.123241611308607 7 0 0
60 12 3 0 -4.819986998205143 -3.814913027063291 -10.296747475659657 7 0 0
2676 559 4 0 -4.432851366872358 -3.6855875563828207 -10.330074051364681 7 0 0
56 12 1 0 -5.231191292042424 -3.7366824454100946 -10.469843353878984 7 0 0
1119 224 3 0 -3.9094696291357316 -4.160942003484163 -9.822175328126317 5 0 1
2675 559 2 0 -3.982859546648008 -3.5874654407352358 -10.35867719727983 7 0 0
37 8 3 0 2.7851234679658035 -4.042983397878457 -10.42039499974981 8 0 0
1149 230 3 0 4.997493190220865 -4.159200172200247 -10.370457275219822 5 0 1
2677 559 4 0 -3.5420118941337666 -3.493006716956497 -10.405822751035068 7 0 0
2560 520 4 0 -3.1041444727388754 -2.307211853505864 -10.159968002461687 9 0 0
2558 520 2 0 -3.2043813345194234 -1.868506185820582 -10.032981860671086 9 0 0
888 178 3 0 -3.230649805525842 -2.562847349011397 -10.440380257115644 6 0 0
2632 544 4 0 -0.5141166825731549 -1.8640141904156682 -9.85313671842136 7 0 0
2107 422 3 0 1.7029543298445002 -2.2029824699065337 -9.798957202543829 11 0 1
2109 422 3 0 2.3787984712480768 -1.9597483106410039 -9.830655584453542 11 0 1
2106 422 1 0 1.951173318759615 -1.844536403567039 -9.818692670812265 11 0 1
2559 520 4 0 -3.3159706204901536 -1.4440236073576855 -9.908921877080042 9 0 0
1825 365 3 0 -3.089786600613283 -1.1417182800783525 -9.782375850203426 8 0 0
3433 811 4 0 -1.8514554905317304 -1.3816117613785508 -9.993749656893092 8 0 0
3431 811 2 0 -2.2031188173006964 -1.487013906963151 -10.255526416061024 8 0 0
2319 464 3 0 -1.5490600723160703 -1.0989861956583695 -10.039042021100498 10 0 1
2316 464 1 0 -1.3386710160430564 -1.14163475001323 -9.645212184629534 10 0 1
2317 464 3 0 -0.9151813335394525 -1.2245874990552394 -9.711973382610159 10 0 1
2379 476 3 0 -0.2746532730528326 -1.6423335058605613 -10.047007414024117 10 0 1
2380 476 3 0 -0.1924999174489379 -1.020757799347086 -10.43153173439954 10 0 1
2376 476 1 0 0.029524517585789667 -1.3759194159895731 -10.261212082520066 10 0 1
2377 476 3 0 0.3356734982205811 -1.2527511364972685 -9.958347283201265 10 0 1
3342 781 4 0 1.4716413008250022 -1.602481543754882 -10.371915579874123 9 0 0
2110 422 3 0 1.8390273728148543 -1.6196721888916983 -10.180628224035061 11 0 1
3311 771 2 0 -9.108861802091969 -0.24332531035244997 -9.68768936866317 10 0 0
2666 556 2 0 -5.313792234045658 -0.0814298486978089 -9.78856358213655 9 0 0
3213 738 4 0 -4.44165264409885 -0.21719172354227823 -9.899429821267733 8 0 1
1332 267 3 0 -4.273837231721734 -0.11427416531641299 -10.255364083074772 9 0 0
3212 738 2 0 -4.034158796726466 -0.3102156364520159 -9.649517694347322 8 0 1
1822 365 3 0 -2.6345194815854915 -0.5940108142244576 -9.774052773610125 8 0 0
2601 534 4 0 -2.37992340728168 -0.32645496236100513 -9.968197546762436 9 0 0
2600 534 2 0 -1.9298155642767458 -0.22471853568582922 -9.896085829509122 9 0 0
2602 534 4 0 -1.4710269469093404 -0.11958805136280226 -9.823776201069323 9 0 0
3748 916 4 0 0.2633443191295477 -0.8731231059601487 -9.813246665591908 10 0 1
3746 916 2 0 0.36952166401047215 -0.4604167212282917 -9.680408948601047 10 0 1
3419 807 2 0 5.911169775467178 -0.1898815859212597 -10.32779686287286 10 0 0
2283 457 3 0 -8.412028025383774 -10.249165955867662 -8.828080099658234 17 1 1
1405 281 3 0 -6.281116762223198 -9.79808662306399 -9.62489263338696 17 1 0
1401 281 1 0 -5.838121565234769 -9.854572564098268 -9.511872167439789 17 1 0
1403 281 3 0 -5.740880312973835 -10.25156186698914 -9.536400592695271 17 1 0
1404 281 3 0 -5.771689936233483 -9.706005663371837 -9.08628222270046 17 1 0
188 38 3 0 8.125562253027956 -9.783737071519212 -9.60561513710227 3 0 0
2580 527 4 0 8.450617566591928 -10.03626868336689 -9.503195724607519 3 0 0
2579 527 2 0 8.896003205573232 -10.107106972518327 -9.463917723868349 3 0 0
2581 527 4 0 9.3528914808167 -10.196428807352891 -9.42689763379545 3 0 0
414 83 3 0 10.45499727986426 -10.485524261957648 -9.137874248973143 3 0 0
415 83 3 0 9.747524863695029 -10.297773692308015 -9.339889072406928 3 0 0
411 83 1 0 10.029080433438862 -10.382753475789 -8.979230477768272 3 0 0
3192 731 4 0 -9.769059184541778 -9.261713788594964 -9.450073957366266 7 0 1
2925 642 4 0 -5.471384435961446 -9.587399315159379 -8.849957274019463 5 0 0
2578 526 4 0 -4.716271421604189 -9.493751776830806 -9.608576147152158 5 0 0
1406 282 1 0 -3.142030706214382 -9.064413058862797 -9.615817891064896 16 1 0
1408 282 3 0 -3.143431318636517 -9.507581116939726 -9.625368400051888 16 1 0
1407 282 3 0 -2.757344172972621 -8.919917477062965 -9.442373595147417 16 1 0
1409 282 3 0 -3.4649738614814103 -8.929241577125925 -9.375501941402744 16 1 0
190 38 3 0 7.837096935776378 -9.115245065481181 -9.618939427416189 3 0 0
1050 210 3 0 8.45301717209655 -9.035926817253417 -9.08586789221542 3 0 1
1046 210 1 0 8.149784644739162 -8.934208563851795 -8.78767767868136 3 0 1
3948 983 4 0 8.843207521366677 -8.949032677263705 -9.173141224522126 14 1 1
3947 983 2 0 9.168094328105964 -8.917595281017682 -9.479378642649527 14 1 1
2243 449 3 0 -3.982422346786329 -8.476256033607923 -9.590138570741642 16 1 1
1049 210 3 0 7.772907400602209 -8.757612117407255 -9.009335078043902 3 0 1
1908 382 3 0 8.19935673615401 -7.359071066041731 -9.252908467941518 13 1 1
2973 658 4 0 8.35201938549727 -7.415758669328689 -8.884454593893137 3 0 1
320 64 3 0 1.0305149377882614 -6.379654281837054 -8.77427902611958 5 0 0
2545 515 4 0 -4.094881223919607 -5.936927870726893 -9.522100020551909 4 0 0
2543 515 2 0 -4.2061954099893 -5.538774772041478 -9.57033514581083 4 0 0
382 77 3 0 -0.12602319729347222 -5.708416207788873 -9.549806914334221 7 0 0
381 77 1 0 -0.28663499822717675 -5.285329987284735 -9.517141000789268 7 0 0
319 64 3 0 1.7292956332591434 -6.107045794176574 -8.878181162059281 5 0 0
174 35 3 0 -5.020986685010561 -4.978421697369186 -9.288201684448527 8 0 0
171 35 1 0 -4.80413044599368 -4.6440135709215475 -9.377274486886279 8 0 0
2544 515 4 0 -4.314928899158819 -5.118190381616428 -9.610297023866897 4 0 0
173 35 3 0 -4.3812225220667305 -4.691430905425571 -9.210056018385028 8 0 0
383 77 3 0 -0.30400865111514364 -5.157530723425826 -9.0676376682103 7 0 0
172 35 3 0 -4.988850688943509 -4.287732848796658 -9.196090644477005 8 0 0
2 1 3 0 -7.131456963404504 -2.9126643306352236 -9.521147184858938 6 0 0
3 1 3 0 -6.876538557059179 -3.432437050336814 -9.025435397376917 6 0 0
4 1 3 0 -6.436498737454661 -3.143918456158147 -9.569648526489555 6 0 0
1 1 1 0 -6.7729745107905215 -3.049123132166767 -9.277849413545807 6 0 0
5 1 3 0 -6.6466246090792325 -2.7239304256784544 -9.002567386110382 6 0 0
1162 233 3 0 -1.3301108246629063 -2.8829581875379855 -8.925811504111188 7 0 1
1163 233 3 0 -0.6300885410989565 -2.866816488802309 -9.071822030262434 7 0 1
2531 511 2 0 -1.9600572864878352 -1.8094849816393914 -8.868617365642706 9 0 0
2533 511 4 0 -1.6992877611919823 -1.836475211421666 -9.25561553068156 9 0 0
2630 544 2 0 -0.5189357074426173 -2.205594690715909 -9.58862542293178 7 0 0
2631 544 4 0 -0.5298347958388465 -2.566892797046391 -9.32911686531269 7 0 0
1445 289 3 0 -9.460550569008186 -1.1594677217381104 -9.057463458532851 9 0 0
1441 289 1 0 -9.063943196209872 -1.0883650960393112 -8.931225557181554 9 0 0
1444 289 3 0 -8.839958672288095 -1.4748279385393612 -8.934724568162354 9 0 0
955 191 3 0 -7.748782990499781 -1.672469781176071 -9.165940628949501 9 0 1
951 191 1 0 -7.3910075484766535 -1.3966704955698912 -9.104349134718456 9 0 1
952 191 3 0 -7.013693404975173 -1.592153623095827 -9.262516579308102 9 0 1
954 191 3 0 -7.448854602240438 -1.0280776828648062 -9.32226084366704 9 0 1
3946 982 4 0 -6.675099760644362 -1.3508494110702163 -9.28812499620785 9 0 1
3944 982 2 0 -6.234021380001138 -1.3764204485800118 -9.208269485679358 9 0 1
3945 982 4 0 -5.786332396009929 -1.395740918243657 -9.133202618993204 9 0 1
140 28 3 0 -5.5631883104863284 -1.0745378365813885 -9.242007573132272 8 0 0
136 28 1 0 -5.224685821113444 -0.8843151377292013 -9.024685651640668 8 0 0
137 28 3 0 -4.8166360426504236 -1.020524165044007 -9.20568044510916 8 0 0
1823 365 3 0 -2.7412369980270928 -0.9907219470179989 -9.196202349279913 8 0 0
2320 464 3 0 -1.5400975705445887 -1.492637729174092 -9.39728008729882 10 0 1
3397 799 4 0 -0.722502678530871 -1.072204012801384 -9.365431218368355 11 0 0
3395 799 2 0 -0.41955752309350736 -0.9576426017960102 -9.047940478259038 11 0 0
2108 422 3 0 1.8823634600380323 -1.6022626275770708 -9.469309914440373 11 0 1
1253 251 3 0 5.065229067493597 -0.9691674268784993 -9.020495378593942 8 0 0
1255 251 3 0 5.443314463724704 -1.5872657815955264 -9.154363232018888 8 0 0
1251 251 1 0 5.401736634522496 -1.2414289100684108 -8.882064471251711 8 0 0
1254 251 3 0 5.79486070751277 -0.9970727046691099 -8.872527710569056 8 0 0
3312 771 4 0 -9.149384733379387 -0.5447135016909712 -9.359335875532196 10 0 0
1443 289 3 0 -8.860184361515392 -0.781020327321059 -9.225278553423188 9 0 0
2667 556 4 0 -5.422492457016523 -0.25845846261625915 -9.372653958730446 9 0 0
139 28 3 0 -5.249617300517437 -0.44630759116493657 -9.070377320470756 8 0 0
3214 738 4 0 -3.658803228234154 -0.39413690867848317 -9.426422398796074 8 0 1
1821 365 1 0 -2.9349479464551607 -0.8219113123301902 -9.541491351702922 8 0 0
1824 365 3 0 -3.287293301872526 -0.5314438294644326 -9.409283682018414 8 0 0
2318 464 3 0 -1.3668516918846407 -0.7672000590717651 -9.432583468084097 10 0 1
2755 585 4 0 -1.4133393968777597 -0.6121829878348457 -9.061459774023714 10 0 0
1578 316 3 0 -0.7659968729746129 -0.23131513434420548 -9.242399915783075 10 0 0
3747 916 4 0 0.4841942752144739 -0.0038289451320423495 -9.525718788471819 10 0 1
247 50 3 0 1.0842757748651533 -0.32518265439178684 -9.064476817018186 9 0 0
469 94 3 0 3.4650460070353937 -0.010031034635233027 -9.499124824719846 9 0 0
178 36 3 0 -10.514337029927423 -10.379135802145614 -8.169511553696639 5 0 0
2738 580 2 0 -8.811111644031676 -9.779604594927674 -8.27949809403222 5 0 0
2739 580 4 0 -8.57319211584725 -10.025276433445953 -8.560356375555175 5 0 0
2924 642 2 0 -5.113703693240735 -9.76615050616824 -8.683723035662462 5 0 0
2926 642 4 0 -4.749559796438014 -9.952951577929646 -8.51994696040377 5 0 0
355 71 3 0 -4.373633367256419 -10.076972104538626 -8.536915852775516 5 0 0
351 71 1 0 -3.9097023350546403 -9.948654679844603 -8.439203901200893 5 0 0
354 71 3 0 -3.660611796702402 -10.290238981087871 -8.485445964952712 5 0 0
352 71 3 0 -3.8826001686212743 -9.799478646327332 -7.973018220533594 5 0 0
2665 555 4 0 -3.273834779084937 -10.26269508940685 -8.45265155426852 5 0 0
2663 555 2 0 -2.817291855585445 -10.349784685334381 -8.44065353758597 5 0 0
2664 555 4 0 -2.360795533332656 -10.434791610788242 -8.426628889861743 5 0 0
413 83 3 0 10.058131506436757 -10.03052386808893 -8.746742268210257 3 0 0
2740 580 4 0 -9.088378851564814 -9.514703026839413 -7.969250810440489 5 0 0
353 71 3 0 -3.77703469149664 -9.63091792419668 -8.711283481068714 5 0 0
1048 210 3 0 8.0311313410184 -9.282267379601215 -8.5718126327581 3 0 1
1047 210 3 0 8.309007525522619 -8.635879479174214 -8.521125673358954 3 0 1
2974 658 4 0 8.162158882589965 -8.241300276524413 -8.523211958253011 3 0 1
254 51 3 0 -10.452635292603016 -7.213145355414994 -7.956110473826108 4 0 0
2972 658 2 0 8.25426058098398 -7.831658446414859 -8.696372846170249 3 0 1
317 64 3 0 1.4367169683790362 -6.183720470989722 -8.202250895526458 5 0 0
251 51 1 0 10.490016550257698 -6.779561722685607 -8.004212489395881 3 0 0
255 51 3 0 10.453504770883944 -6.688872983382455 -8.422110546319251 3 0 0
316 64 1 0 1.3366601110233596 -6.088455499632476 -8.611336171443135 5 0 0
318 64 3 0 1.1543289552064664 -5.659859735942933 -8.63891609192974 5 0 0
342 69 3 0 4.689859909792826 -6.06324538420815 -7.889417186939279 4 0 0
2874 625 4 0 -7.034201706863103 -3.6189326642986765 -8.646092320266654 10 0 0
2873 625 2 0 -6.799910649815678 -3.5224488808049843 -8.243479005745959 10 0 0
1364 273 3 0 -5.653593874335099 -3.3524750468889355 -8.17585630670358 10 0 0
1161 233 1 0 -0.9361967304988568 -2.8134781669944298 -8.754776692345246 7 0 1
1165 233 3 0 -0.8597848074244006 -3.1085408685097153 -8.422628297713397 7 0 1
2712 571 4 0 -0.8581839888321667 -3.043662969784166 -8.042418112591857 9 0 0
2596 532 4 0 -6.607798349448245 -2.549719774762611 -8.641200042314914 8 0 0
2594 532 2 0 -6.262534156407973 -2.4142681353167994 -8.39755316804985 8 0 0
2595 532 4 0 -5.9077245313549875 -2.283539073792893 -8.153714701394666 8 0 0
1270 254 3 0 -5.857407931870667 -1.8701375242539378 -8.104270646281279 9 0 0
1267 254 3 0 -5.14433235784289 -1.8693244362637493 -8.077312014882663 9 0 0
2532 511 4 0 -2.196058657387022 -1.7712986688247963 -8.497812298555056 9 0 0
1164 233 3 0 -0.9122529325066733 -2.3944129183173413 -8.59101717470955 7 0 1
3570 857 4 0 -0.9288815738107292 -2.269705591122934 -8.204525251653774 9 0 0
3569 857 2 0 -0.5485338302618334 -2.0280610175035942 -8.086514985888572 9 0 0
3571 857 4 0 -0.17280626112303388 -1.7882040490852802 -7.964789425843018 9 0 0
54 11 3 0 0.11404618389256171 -1.8144800014297289 -8.227595215207392 9 0 0
1442 289 3 0 -9.073661401582624 -0.917670436984956 -8.537548168909991 9 0 0
953 191 3 0 -7.345467629046102 -1.2979508785976428 -8.653662771811977 9 0 1
3672 891 4 0 -4.796103100888378 -1.6777462802169367 -8.065166642175665 10 0 0
138 28 3 0 -5.242403960469635 -1.0054988938699605 -8.542184520373912 8 0 0
275 55 3 0 -2.3861913750328334 -1.6175145511133486 -8.16539623432446 10 0 0
271 55 1 0 -2.2771701605870067 -1.2279194197505205 -7.933065311260033 10 0 0
274 55 3 0 -2.371739749328956 -0.8783823375238651 -8.19940572916133 10 0 0
55 11 3 0 0.06128525563199716 -1.160430311589156 -8.520254432462792 9 0 0
51 11 1 0 0.34821787318723807 -1.4597305839060528 -8.361193836203944 9 0 0
53 11 3 0 0.6354725275743753 -1.5741546989782318 -8.675123213272602 9 0 0
52 11 3 0 0.5665813642080764 -1.2823501420444785 -8.019022535102968 9 0 0
3469 823 4 0 0.7756726039938027 -0.9452515106874682 -7.9721736694872085 10 0 0
1252 251 3 0 5.3069045295365225 -1.3953072849976529 -8.465108958405942 8 0 0
2574 525 4 0 5.5037818707559705 -1.1775166887553397 -8.181991550740056 9 0 0
2732 578 2 0 -9.591945854356172 -0.7752799896228719 -7.9854004235059035 9 0 0
3330 777 4 0 -8.798289497053384 -0.7054896620427424 -8.321278822551438 10 0 0
2734 578 4 0 -9.187584138035785 -0.7319158594650226 -8.20497495220423 9 0 0
3329 777 2 0 -8.376862680485571 -0.5220945760421376 -8.22319175945874 10 0 0
3331 777 4 0 -7.948693164824361 -0.3154923896312365 -8.12063578391238 10 0 0
2170 434 3 0 -7.6607450995325 -0.065946965301098 -8.045411422593084 11 0 1
2167 434 3 0 -6.987506431505694 -0.07739859311268837 -8.336522550651003 11 0 1
2913 638 4 0 -6.626627328894463 -0.2344723908929378 -8.463602579559574 10 0 0
3252 751 4 0 -4.45095509098135 -0.4464050257905505 -8.120158275837573 9 0 0
3251 751 2 0 -4.026182045674324 -0.29598726613169823 -8.048344654275555 9 0 0
3253 751 4 0 -3.6045347171117488 -0.13505771561794866 -7.983578908148972 9 0 0
2753 585 2 0 -1.752645202307205 -0.6508634341794881 -8.751977747364165 10 0 0
2754 585 4 0 -2.076794619725243 -0.6890920774044691 -8.456476362331736 10 0 0
3396 799 4 0 -0.10163339207446853 -0.8420533597970419 -8.722360414723033 11 0 0
3885 962 4 0 -8.026396446307725 -9.85553096699552 -7.2754349564369 15 1 1
568 114 3 0 -8.398722618593109 -9.646258335866387 -7.22174233865908 5 0 0
3886 962 4 0 -7.128113923949325 -10.070886021246963 -7.2811186713998115 15 1 1
3884 962 2 0 -7.574464425776004 -9.96490026287367 -7.279449199162628 15 1 1
1360 272 3 0 -6.758173208412996 -10.2637619786188 -7.405747265759874 16 1 0
1356 272 1 0 -6.44179714109877 -10.08016776951962 -7.14525858489087 16 1 0
1359 272 3 0 -6.397180168340859 -9.644592919791322 -7.255596788422433 16 1 0
1357 272 3 0 -6.030628128158883 -10.299357858989975 -7.210760286549194 16 1 0
3889 963 4 0 -5.66011588710527 -10.464406058087793 -7.182548024581441 17 1 1
3888 963 4 0 -4.762594681055997 -10.507909264707298 -7.2689182023821495 17 1 1
3887 963 2 0 -5.2050677926914615 -10.480503865977568 -7.226250388237724 17 1 1
418 84 3 0 -3.705475455654165 -10.318540489887837 -7.52953508300707 5 0 0
567 114 3 0 -9.049731274187499 -9.591926341157988 -7.582495167807167 5 0 0
566 114 1 0 -8.800802134570379 -9.437654074030744 -7.2291652222505824 5 0 0
569 114 3 0 -8.736045932597353 -8.966995047239871 -7.2877001001421595 5 0 0
1622 325 3 0 -1.5539115836622166 -8.713307200503102 -7.706410948714376 14 1 0
1621 325 1 0 -1.476375592037245 -8.565135552202499 -7.311410353600591 14 1 0
1623 325 3 0 -1.0280192637136132 -8.563947749353613 -7.24582583125613 14 1 0
1624 325 3 0 -1.639060401157172 -8.1352868712647 -7.267815175393505 14 1 0
2710 570 4 0 -0.6327216129931355 -8.475939707788353 -7.137511748286565 4 0 0
2932 644 4 0 1.7252594845225726 -8.372348848707881 -7.196192105784643 4 0 0
574 115 3 0 2.3998234968820604 -8.473184604850227 -7.7026725168687245 4 0 0
571 115 1 0 2.422584250760817 -8.115517652096974 -7.397121294742504 4 0 0
573 115 3 0 2.0255688957289752 -8.09328928774581 -7.1689983080640545 4 0 0
575 115 3 0 2.7712257282809745 -8.196333033055978 -7.089881058419495 4 0 0
2678 560 2 0 3.478719200713762 -8.36072233022693 -7.153892777809375 4 0 0
2679 560 4 0 3.026936851584596 -8.46586007474086 -7.142673166247263 4 0 0
2680 560 4 0 3.9104601420605842 -8.245713552737655 -7.174024692733151 4 0 0
169 34 3 0 4.0731628459997555 -7.900654375496836 -7.143087424958166 3 0 0
572 115 3 0 2.4938282084267094 -7.706756917518759 -7.627829905243706 4 0 0
166 34 1 0 4.381155913644733 -7.600261841937831 -7.057468809778492 3 0 0
170 34 3 0 4.447098454932689 -7.341584103944002 -7.403122524776476 3 0 0
253 51 3 0 -10.19647434548021 -6.52046397419862 -7.812680166205887 4 0 0
252 51 3 0 10.093043726048576 -6.680801489042906 -7.7992206627809155 3 0 0
344 69 3 0 4.193939729605303 -5.563629744944157 -7.609880298933039 4 0 0
341 69 1 0 4.611733773435255 -5.744067963001667 -7.555562507186956 4 0 0
345 69 3 0 4.643390483427083 -5.947387353928115 -7.141590513695851 4 0 0
343 69 3 0 4.931087757393938 -5.410474163741023 -7.583255865824595 4 0 0
1363 273 3 0 -5.536190098508047 -3.78195160258565 -7.594408777189994 10 0 0
2875 625 4 0 -6.56779584253004 -3.430116038556675 -7.842824968920581 10 0 0
1362 273 3 0 -6.169473896539013 -3.4871406644459775 -7.697094477568516 10 0 0
1361 273 1 0 -5.751669591564339 -3.418406725019456 -7.7368631350515376 10 0 0
1365 273 3 0 -5.6272319648385025 -3.0275891814564293 -7.47980198500632 10 0 0
2713 571 4 0 -0.47236001387629933 -3.1700010425030065 -7.25231210676478 9 0 0
2711 571 2 0 -0.6632511108839338 -3.1030797542223922 -7.647253424358988 9 0 0
1584 317 3 0 -0.2531821060203061 -3.4684774989183467 -7.089243107618208 9 0 0
100 20 3 0 -6.713036109009787 -2.280805403453577 -7.164467184600108 10 0 0
1268 254 3 0 -5.548542161244204 -2.036367451549703 -7.4926743400624 9 0 0
1266 254 1 0 -5.5240649590263216 -1.7830465239874922 -7.849758384238376 9 0 0
97 20 3 0 -6.031654280438236 -2.5032266648806676 -7.021901781962234 10 0 0
462 93 3 0 -3.8809290765816113 -2.478131524728436 -7.119653967929662 10 0 0
1616 324 1 0 0.8049747494923611 -2.3159718849094446 -7.031625063272297 9 0 0
1619 324 3 0 0.7782757770241115 -2.239925448785872 -7.485015730453533 9 0 0
331 67 1 0 6.064504945675553 -2.1327305961227374 -7.07181506463483 9 0 0
332 67 3 0 6.235541661840918 -2.2324405432988907 -7.498214826111089 9 0 0
123 25 3 0 -10.329705937524476 -0.9630242597884635 -7.57425824988781 10 0 0
1269 254 3 0 -5.521192131542464 -1.3363936660441045 -7.717832643895386 9 0 0
3671 891 2 0 -4.460663205099303 -1.5873285940133322 -7.770929961060055 10 0 0
3673 891 4 0 -4.118789568894959 -1.4960111660544069 -7.47126793036811 10 0 0
2662 554 4 0 -3.7531283512186313 -1.5287977542097622 -7.359215509412227 10 0 0
464 93 3 0 -4.033735212602667 -1.7495833798538083 -7.177469059788258 10 0 0
2660 554 2 0 -3.382745044561841 -1.258125485803106 -7.390865373585392 10 0 0
2661 554 4 0 -3.0088603270546015 -1.0007555151942764 -7.431591152672164 10 0 0
273 55 3 0 -2.5278767077236832 -1.1936144349936928 -7.551615984906323 10 0 0
272 55 3 0 -1.8430333455480845 -1.2380797563122385 -7.820874352884454 10 0 0
333 67 3 0 5.822572504266224 -1.74034138193573 -7.096933874114628 9 0 0
2573 525 2 0 5.575043643160418 -1.4058486642395334 -7.816093011486851 9 0 0
2575 525 4 0 5.666428220451854 -1.6436107005227694 -7.4373390872269916 9 0 0
798 160 3 0 7.950621329594318 -1.4406437495838986 -7.15804363362672 8 0 0
2588 530 2 0 9.329121784487173 -1.5255883017698153 -7.063876514244022 9 0 0
2590 530 4 0 9.688737653299613 -1.351392110573327 -7.2696739190335 9 0 0
124 25 3 0 10.093438224812479 -1.2138896462204123 -7.221216020633812 9 0 0
2733 578 4 0 -10.003076483873153 -0.80994184507135 -7.762855376736648 9 0 0
1560 312 3 0 -5.347771392936056 -0.7544913904671429 -7.512191129573079 9 0 0
1559 312 3 0 -5.1427207347067005 -0.04129295311763137 -7.600865735101816 9 0 0
1556 312 1 0 -4.995078974219775 -0.4734964015186591 -7.521944580178567 9 0 0
1557 312 3 0 -4.727465319666409 -0.5974519937824851 -7.857506219880447 9 0 0
1558 312 3 0 -4.771509045850418 -0.49817685648453214 -7.119898895349727 9 0 0
3378 793 4 0 -3.7013342013232418 -0.15030243583248648 -7.053584939217132 9 0 0
707 142 3 0 -3.27599094143868 -0.023498271514029057 -7.7827978398727815 9 0 0
706 142 1 0 -3.1052375283852163 -0.16728044222743144 -7.415461172911047 9 0 0
708 142 3 0 -3.1234220460905266 -0.613903688135915 -7.392990924713394 9 0 0
709 142 3 0 -2.6798213760709038 -0.03171706226547144 -7.391359716143642 9 0 0
3264 755 4 0 -1.474649915053643 -0.012323850331352304 -7.730550520253962 9 0 0
3467 823 2 0 0.9248850037993108 -0.6435887198515022 -7.660636056778833 10 0 0
3468 823 4 0 1.084107841125034 -0.34454558867555285 -7.349320779296159 10 0 0
121 25 1 0 10.31453529293943 -0.8426012365275657 -7.378903815732629 9 0 0
125 25 3 0 10.062034364590813 -0.632496113486333 -7.667784317239081 9 0 0
122 25 3 0 10.403744393755607 -0.5746135014381988 -7.05071594066403 9 0 0
2788 596 4 0 -9.003489782788503 -10.256335362142222 -6.4066932934581935 5 0 0
1358 272 3 0 -6.560761630652855 -10.113501393134978 -6.730251167513814 16 1 0
3776 926 2 0 -4.461140212104902 -10.332645922748839 -6.20133293766908 15 1 1
419 84 3 0 -3.912135710947326 -10.410832616536561 -6.828456378396725 5 0 0
3778 926 4 0 -4.267906385991571 -10.431802536217877 -6.608846346822709 15 1 1
570 114 3 0 -9.023932676196344 -9.522654197535447 -6.837083103549399 5 0 0
2860 620 4 0 -2.6381782877660473 -9.036263477146406 -6.3537644457265205 4 0 0
2858 620 2 0 -2.1906315087925368 -8.9596130654613 -6.496992942977288 4 0 0
2859 620 4 0 -1.785982605083987 -8.888597314663329 -6.633530808707716 4 0 0
1625 325 3 0 -1.665437632945057 -8.83223546166342 -7.001013937934709 14 1 0
2709 570 4 0 -0.1400947027152828 -8.93508244707027 -6.60106081317876 4 0 0
16 4 1 0 0.4678484515787833 -8.781593123030815 -6.149091851960686 3 0 0
17 4 3 0 0.1869929846893843 -9.033230101064508 -6.395720123135741 3 0 0
390 78 3 0 -2.8380564134920485 -8.722166612782864 -6.210643679500769 4 0 0
2708 570 2 0 -0.37823668455953197 -8.713593752816847 -6.859073709912979 4 0 0
18 4 3 0 0.6685225060671858 -8.477684228514441 -6.42120549623239 3 0 0
2930 644 2 0 1.337274516797189 -8.391390154925626 -6.927631226756609 4 0 0
2931 644 4 0 0.960902507511431 -8.403027639903847 -6.679145636212963 4 0 0
374 75 3 0 2.1399341348250527 -7.893816915692204 -6.564594381518646 4 0 0
2603 535 2 0 5.0350954288690755 -8.023095668493356 -6.22504947763467 3 0 0
2552 518 2 0 0.7093154790278273 -7.715218126246345 -6.26615843321481 3 0 0
2554 518 4 0 1.0786551025342384 -7.8096996174304545 -6.529797992367188 3 0 0
373 75 3 0 1.42841569795128 -7.647075458873234 -6.596187441770324 4 0 0