LAMMPS data file via write_data, version 4 Feb 2025, timestep = 2000000, units = lj

4650 atoms
4 atom types
3150 bonds
1 bond types
1875 angles
2 angle types

-11.917153 11.917153 xlo xhi
-11.917153 11.917153 ylo yhi
-11.917153 11.917153 zlo zhi
2.1316282072803006e-14 0 0 xy xz yz

Masses

1 1
2 1
3 0.1
4 0.1

Bond Coeffs # harmonic/omp

1 100 0.45

Angle Coeffs # harmonic/omp

1 100 180
2 100 109.471

Atoms # full

607 153 2 0 -10.348663044186967 -11.013767212173452 -11.506490639691942 5 0 0
608 153 4 0 -10.134583585625508 -11.36710385624822 -11.707459894530055 5 0 0
4294 1382 2 0 -6.576067225382671 -11.419220229323038 -11.820510018025589 16 1 0
4295 1382 4 0 -6.188525540322459 -11.486533829408097 -11.602050481261394 16 1 0
1494 448 4 0 -5.950271185878393 -11.785863703725559 -11.508268886343664 15 1 -1
1374 408 4 0 -5.344303989688921 -11.18062662528677 -11.726022764045565 14 1 0
2247 699 4 0 -5.246700047187157 -11.021539642445466 -11.385000301575683 14 1 0
609 153 4 0 -10.566509770449898 -10.653028033403224 -11.303271263163753 5 0 0
2433 761 4 0 -10.770050814226291 -10.839873777601362 -11.040306455754692 16 1 1
2245 699 2 0 -5.573489454811681 -10.818773321377515 -11.152798712422891 14 1 0
1250 367 4 0 -1.4984296905105357 -10.258397029904911 -11.639603918300953 5 0 0
3077 976 4 0 -11.817760307989456 -9.412083480939364 -11.36822390875943 5 0 0
3076 976 2 0 -11.447544692647977 -9.626901894962153 -11.459960185476568 5 0 0
3078 976 4 0 -11.059532685825962 -9.85096451254908 -11.558895685882502 5 0 0
2951 934 4 0 -10.656214093456398 -9.966346895198566 -11.627868159986443 5 0 0
2950 934 2 0 -10.283700371676435 -9.861593560614962 -11.386642178989536 5 0 0
2952 934 4 0 -9.915216511730922 -9.758459027452407 -11.155625013671584 5 0 0
3311 1054 4 0 -3.094628513896902 -10.022369733405881 -11.692826970588321 15 1 1
4460 1437 4 0 -3.074495193922015 -9.616511486580473 -11.64599968029054 25 2 1
4459 1437 2 0 -3.1006201899414627 -9.312410391337076 -11.293154755043803 25 2 1
4112 1321 4 0 -1.2523494756552864 -9.98544620998441 -11.471616788163292 15 1 0
4111 1321 2 0 -1.1313434926076287 -9.571588219585447 -11.333474473889892 15 1 0
2877 909 4 0 -11.755151551848112 -9.06890307403734 -11.215774019497212 5 0 0
4113 1321 4 0 -1.0006874819160085 -9.152807591277718 -11.20552288044271 15 1 0
1958 603 4 0 -1.1483378114014702 -8.764231306815422 -11.232192170381431 15 1 0
1957 603 2 0 -0.8652862830623693 -8.473917820269468 -11.025947179879086 15 1 0
4183 1345 2 0 -6.934718039291359 -8.193738819360535 -11.514635040215401 15 1 1
4185 1345 4 0 -6.945156441236568 -8.16275194349007 -11.044539919836955 15 1 1
2848 900 2 0 -0.10558279814634908 -7.336665430670227 -11.844715253882947 4 0 0
3948 1266 4 0 -7.8388046323715574 -7.26943017780046 -11.77966207833196 14 1 0
2850 900 4 0 -0.025767542589653303 -7.1206476505981895 -11.417281363668963 4 0 0
1098 316 4 0 -0.3245011747362643 -6.986394619284683 -11.190615470634565 5 0 1
4037 1296 4 0 -3.354546473277745 -5.8530444808436455 -11.08601209177507 4 0 0
722 191 4 0 -4.617860950755052 -4.958951848906846 -11.067053700662045 8 0 0
721 191 2 0 -4.189759035302493 -4.9047866053005915 -11.267402230636216 8 0 0
723 191 4 0 -3.793851475226152 -4.853074419271676 -11.464638869612637 8 0 0
2931 927 4 0 -3.4304124420904323 -5.451233296641285 -11.120370987689654 6 0 0
2929 927 2 0 -3.118548968040127 -5.324076323737543 -11.41006188623312 6 0 0
2930 927 4 0 -2.782548826679321 -5.187876643494795 -11.722111751663235 6 0 0
662 171 4 0 -2.388345685984209 -5.16613110427559 -11.57969727064534 4 0 0
661 171 2 0 -2.033395848250672 -5.2739191338678655 -11.787786110550966 4 0 0
2466 772 4 0 -3.734168560699983 -4.453035890657979 -11.583167244043162 8 0 0
3445 1099 2 0 -11.590564003222244 -1.09432048229632 -11.318580428108444 12 0 1
3447 1099 4 0 -11.165300620488175 -0.9403089907501538 -11.29637517790497 12 0 1
1955 602 4 0 -10.792150161411442 -1.02349833246633 -11.39970218924915 23 1 0
1954 602 2 0 -10.331936837164921 -1.084089058016085 -11.409001426318426 23 1 0
1956 602 4 0 -9.886609837547512 -1.1372182590142224 -11.413259527796267 23 1 0
896 249 4 0 -9.527160825814933 -1.0986318301785456 -11.593695383454032 4 -1 0
895 249 2 0 -9.213360265560093 -1.391038800535009 -11.751672980880938 4 -1 0
897 249 4 0 -8.920083800089206 -1.6770266859389338 -11.89752868292168 4 -1 0
2893 915 2 0 -8.096671079036785 -1.7644705008843147 -11.872470165467112 12 0 1
2895 915 4 0 -7.650237770995638 -1.8307699840295157 -11.776110793549655 12 0 1
3139 997 2 0 -6.89475800009119 -1.7331590191097934 -11.873667137551678 2 -1 2
3140 997 4 0 -6.496761270139778 -1.6227779657150183 -11.765380954766544 2 -1 2
1434 428 4 0 -6.251648013968066 -1.4989543951273134 -11.470565004391235 12 0 0
1432 428 2 0 -5.939902163617835 -1.374667371728922 -11.235326883420095 12 0 0
1705 519 2 0 -0.9502888403732488 -0.2655489330384597 -11.03462076996023 13 0 0
2432 761 4 0 -11.22748179074259 -10.319529529390353 -10.451279902186444 16 1 1
2431 761 2 0 -10.999890076050852 -10.575990096809905 -10.741065259702808 16 1 1
2246 699 4 0 -5.9079449113067914 -10.613934205926876 -10.918749060117017 14 1 0
4121 1324 4 0 -6.276383702661058 -10.459952018746678 -10.998608961788637 13 1 0
1230 360 4 0 -11.092763866203732 -9.97120977717104 -10.313304225399676 16 1 1
1228 360 2 0 -11.086094593447319 -9.533198658075642 -10.236996231105907 16 1 1
4122 1324 4 0 -6.50358511910421 -9.659890410628636 -10.612350774824732 13 1 0
1548 466 4 0 -6.580904965741733 -9.273079848408377 -10.480332726244761 15 1 0
4120 1324 2 0 -6.391946810588377 -10.051965638758231 -10.800226370372847 13 1 0
1229 360 4 0 -11.062415169879005 -9.080240214748736 -10.165898458171949 16 1 1
3849 1233 4 0 -11.1841470406461 -8.771346783807243 -10.390356702844766 17 1 0
3847 1233 2 0 -10.993755420891533 -8.356352771052219 -10.464758246921036 17 1 0
1547 466 4 0 -6.799588313405678 -8.465257558226053 -10.84273672917565 15 1 0
1546 466 2 0 -6.683178703426213 -8.886430141121181 -10.65265276869645 15 1 0
4461 1437 4 0 -3.127558327335196 -9.009766331798795 -10.944309871951459 25 2 1
1969 607 2 0 -3.325688938379887 -8.435455203322753 -10.689087823127094 14 1 1
1971 607 4 0 -3.48802272084618 -8.857642520625289 -10.778058823426397 14 1 1
3848 1233 4 0 -10.806076243532583 -7.972036116192438 -10.538669094700863 17 1 0
4200 1350 4 0 -3.30755059767805 -7.676560313541213 -10.432189825647535 14 1 1
1970 607 4 0 -3.1355072858653283 -7.998609627423546 -10.591995792440494 14 1 1
1959 603 4 0 -0.605222867304466 -8.201459634021045 -10.8287995468129 15 1 0
1854 568 4 0 -0.21881645394506322 -8.208482516165915 -10.920199447996342 15 1 0
4038 1296 4 0 -3.700923059285916 -6.5570051898006065 -10.683833512805798 4 0 0
4199 1350 4 0 -3.6305998394848853 -6.932707885842779 -10.67974856113164 14 1 1
4198 1350 2 0 -3.4646402859288283 -7.317771231547375 -10.549533206393656 14 1 1
1097 316 4 0 -0.5260195758801949 -6.991460606066903 -10.323701387448107 5 0 1
1096 316 2 0 -0.42634468267788783 -6.990779146619688 -10.74847402501257 5 0 1
4036 1296 2 0 -3.5253438350048913 -6.209464895442501 -10.887581944557466 4 0 0
4047 1299 4 0 -4.996219168664391 -5.000948294995028 -10.928327554492096 9 0 0
4045 1299 2 0 -5.0719848131990215 -4.856749019877972 -10.504899483171934 9 0 0
1926 592 4 0 -3.057382652909258 -3.905592734751105 -10.239161834466994 8 0 -1
1924 592 2 0 -2.6654024689465228 -3.700051473324029 -10.181298169778868 8 0 -1
3379 1077 2 0 -3.7038916620316336 -3.574768003830993 -10.377702142053328 -3 -1 1
3380 1077 4 0 -4.121922782141127 -3.543475273957865 -10.299716766420428 -3 -1 1
3591 1147 4 0 -4.508597395232311 -3.449652950290899 -10.152705165057952 7 0 1
3381 1077 4 0 -3.2419820209154544 -3.611161571698167 -10.455925326714663 -3 -1 1
1925 592 4 0 -2.2774879421192207 -3.500417478323479 -10.13594918278347 8 0 -1
1419 423 4 0 -1.9327807738539722 -3.314124956720642 -10.186834956319107 10 0 0
1417 423 2 0 -1.503864477657828 -3.1333048009535798 -10.160114926649065 10 0 0
1418 423 4 0 -1.088196647957238 -2.944405924018838 -10.135402735433559 10 0 0
3288 1046 4 0 -0.9237387387217151 -2.8554552912828974 -10.48987187011384 9 0 1
2189 680 4 0 -8.49183748763754 -2.1793808819516496 -10.109771783870595 12 0 1
2188 680 2 0 -8.089042062610599 -2.0751568126724855 -10.147309477142377 12 0 1
2190 680 4 0 -7.6443539421497615 -1.9533991721186137 -10.184121195104348 12 0 1
4577 1476 4 0 -0.20776656528701487 -2.0145789411057393 -10.723378288716345 9 0 0
3286 1046 2 0 -0.7071183928072422 -2.5464099135832523 -10.70574918833383 9 0 1
3287 1046 4 0 -0.4795156391595974 -2.214453735524808 -10.937613419806778 9 0 1
1433 428 4 0 -5.597645495118777 -1.2456021011183633 -10.99421097850149 12 0 0
3744 1198 4 0 -5.447757209000191 -1.2003072548904168 -10.609349990432948 13 0 0
3742 1198 2 0 -4.976127183982094 -1.2734300403141425 -10.529340409587874 13 0 0
3743 1198 4 0 -4.523604811364441 -1.3357519285766326 -10.447497665422667 13 0 0
4576 1476 2 0 -0.04440631903619163 -1.6221437742349245 -10.690527435081625 9 0 0
1212 354 4 0 -5.8200077633276415 -0.5024646326118418 -10.226465383649854 11 0 1
1210 354 2 0 -6.205365819047805 -0.6967371352286591 -10.138554648433857 11 0 1
3318 1056 4 0 -5.493675864159513 -0.24289266572801083 -10.182343173751132 12 0 1
3316 1056 2 0 -5.055766452494431 -0.15133687701018061 -10.105140343849 12 0 1
2771 874 4 0 -2.2886023641382227 -0.36622650634288334 -10.359648517150086 8 0 0
2770 874 2 0 -1.9006272854223418 -0.5626385894976504 -10.523687565218728 8 0 0
3651 1167 4 0 -2.5071702402894935 -0.15175120448198953 -10.08649483017461 8 0 0
2772 874 4 0 -1.5200062335150832 -0.7497470559924917 -10.679687111443412 8 0 0
1707 519 4 0 -1.1684738601084224 -0.5861000991053196 -10.757739275642296 13 0 0
3805 1219 2 0 -11.508815284928628 -11.451709523525983 -9.46341581503438 16 1 0
3806 1219 4 0 -11.087827260118349 -11.542632029804153 -9.590930260989595 16 1 0
4235 1362 4 0 -10.728678101819806 -11.609616501978318 -9.37204525266531 16 1 1
4234 1362 2 0 -10.327028250742243 -11.776531279887907 -9.3365192552537 16 1 1
1841 564 4 0 -9.49711711167659 -6.885035815640303 -9.603370266035173 15 1 0
1840 564 2 0 -9.102985620754996 -6.683812581639234 -9.49078776573071 15 1 0
1842 564 4 0 -8.70361668098875 -6.492271882182042 -9.385352854971362 15 1 0
3571 1141 2 0 -8.277000252239008 -6.003291444426207 -9.213332028404938 6 0 1
3572 1141 4 0 -7.991300580872659 -5.6893411589554646 -9.377259185161543 6 0 1
4334 1395 4 0 -7.615731297213715 -5.693643710194708 -9.549275127272132 8 0 0
4333 1395 2 0 -7.350799615588884 -5.340033151538111 -9.565101360441394 8 0 0
1785 545 4 0 -6.8033617910958055 -4.705677403168824 -9.485458464889053 7 0 0
4335 1395 4 0 -7.067247487367506 -4.97521947473811 -9.580372896128017 8 0 0
3666 1172 4 0 -4.918567878936794 -4.604966715822211 -9.763382446066228 9 0 0
4046 1299 4 0 -5.146599162413722 -4.707693078053708 -10.071282159254498 9 0 0
3664 1172 2 0 -4.820428272977835 -4.679037243247595 -9.33362345416475 9 0 0
1783 545 2 0 -6.603676180903535 -4.393463991732781 -9.248390704749937 7 0 0
597 149 4 0 -6.156319266904829 -3.9536904166029547 -9.317830266495303 7 0 0
595 149 2 0 -5.836330881424252 -3.643320446638805 -9.371425411335021 7 0 0
596 149 4 0 -5.54090171932856 -3.337398643235616 -9.434944224929122 7 0 0
3590 1147 4 0 -5.183455269075589 -3.311163521368478 -9.655926375904436 7 0 1
3589 1147 2 0 -4.864757906518724 -3.372215255148946 -9.891362738268592 7 0 1
4203 1351 4 0 -9.583488598602928 -1.8766685320881127 -9.701844179170994 12 0 1
4201 1351 2 0 -9.21051562062146 -2.0996983942131937 -9.874162936776466 12 0 1
4202 1351 4 0 -8.836931755497837 -2.3219655177736005 -10.031463267552127 12 0 1
4533 1461 4 0 -11.431662075156463 -1.3060594925326345 -9.575458430002639 12 0 0
4531 1461 2 0 -11.016905339076143 -1.458219038288572 -9.379907519770912 12 0 0
4532 1461 4 0 -10.614916861152302 -1.5939558521379986 -9.18364271556369 12 0 0
3951 1267 4 0 -9.654143630812065 -1.4702623074884666 -9.645748579332052 12 0 0
3949 1267 2 0 -9.945577612088638 -1.113281400039634 -9.549621733771355 12 0 0
3971 1274 4 0 -7.564344129253686 -1.7109602402253827 -9.846463633199525 22 1 1
3972 1274 4 0 -6.879353827912046 -1.097475546593543 -9.810285710335712 22 1 1
3970 1274 2 0 -7.216701167289807 -1.3932013294522623 -9.826791127317417 22 1 1
3950 1267 4 0 -10.228999051595789 -0.779832736178621 -9.451630335044856 12 0 0
1211 354 4 0 -6.616413655307121 -0.9051068142073504 -10.0474437807399 11 0 1
3317 1056 4 0 -4.628865312417918 -0.065649834592584 -10.034070227035942 12 0 1
3648 1166 4 0 -9.614265251264474 -11.829979411822485 -9.079815817695604 4 0 1
3646 1166 2 0 -9.192035081609703 -11.73524732210881 -8.968929901277756 4 0 1
3647 1166 4 0 -8.74313721277796 -11.64473058279402 -8.846787059229415 4 0 1
819 223 4 0 -8.39030231079751 -11.546829517509073 -8.969720378740986 6 0 0
818 223 4 0 -7.578543301774677 -11.907603413497835 -8.771892823315927 6 0 0
817 223 2 0 -8.00007480478815 -11.721114563984736 -8.872632764579794 6 0 0
3474 1108 4 0 -2.946101765218982 -11.822111523452742 -8.532431283447266 5 0 1
3472 1108 2 0 -2.6995100229632563 -11.503750541622699 -8.467207025254798 5 0 1
3473 1108 4 0 -2.406072513615152 -11.1375572458833 -8.387196857912434 5 0 1
3573 1141 4 0 -8.558171508049229 -6.31555302266166 -9.043930710471525 6 0 1
2276 709 4 0 -10.15713593691634 -4.799477292990842 -8.351701188272157 10 0 0
3665 1172 4 0 -4.726075459164802 -4.749628518195397 -8.9078860356154 9 0 0
3509 1120 4 0 -4.465153340211898 -4.864386967821016 -8.617932338550192 6 0 0
2451 767 4 0 -0.9025194078375094 -5.373237001222061 -8.272671489276473 8 0 1
2450 767 4 0 -0.5653742546682654 -4.693235068629872 -8.772361374768195 8 0 1
2449 767 2 0 -0.7297157243478694 -5.0192478802933875 -8.530663760247565 8 0 1
100 20 3 0 -10.472097460801935 -3.793268548543505 -8.26266064214171 8 0 0
1784 545 4 0 -6.389807196222026 -4.076063214215524 -9.006659711555207 7 0 0
4292 1381 4 0 -0.4913192409849838 -4.329362000378936 -8.63427110695436 9 0 1
4291 1381 2 0 -0.07228832868907631 -4.160865857654699 -8.631068822257008 9 0 1
3611 1154 4 0 -10.185398031474861 -3.5133055812861738 -8.297902055475957 12 0 0
3610 1154 2 0 -9.960418101725743 -3.0693787661920098 -8.2756834068054 12 0 0
4087 1313 2 0 -10.138908946291604 -2.0571774322861938 -8.733233153911033 12 0 0
4089 1313 4 0 -9.936705705613846 -2.3846889164390213 -8.475876682903396 12 0 0
3612 1154 4 0 -9.757333855692202 -2.6555346173923997 -8.25486588703039 12 0 0
3772 1208 2 0 -0.054004757383525615 -2.37426057762603 -9.039692830531564 19 1 0
3774 1208 4 0 -0.4810158569534533 -2.309467208041525 -9.134428086998602 19 1 0
4088 1313 4 0 -10.328871507473622 -1.7430670252029348 -8.975717610146814 12 0 0
3263 1038 4 0 -1.2107155012227508 -1.108878937946404 -8.445649948770951 9 0 0
3262 1038 2 0 -0.7752649097242124 -1.1284413365206216 -8.379309319011162 9 0 0
3264 1038 4 0 -0.319512088552365 -1.1497570476605699 -8.308415125955602 9 0 0
1532 461 4 0 -4.309595764708989 -0.06087391720361168 -8.935628592696185 15 0 0
3960 1270 4 0 -1.4994725419761412 -0.8496210494702119 -8.3361003290089 9 0 0
3765 1205 4 0 -6.759405414090589 -8.44255101616157 -7.8060199381191975 13 1 0
3763 1205 2 0 -6.894779797527807 -8.272411403877406 -7.402842619305736 13 1 0
2277 709 4 0 -9.893078132471196 -5.6044027668250935 -7.94524956744489 10 0 0
2275 709 2 0 -10.023103300569222 -5.200429826459816 -8.14645674610448 10 0 0
3508 1120 2 0 -4.629511891379598 -4.794931262324803 -8.213124365045479 6 0 0
3510 1120 4 0 -4.785934447300699 -4.726666659637367 -7.800580689407223 6 0 0
3966 1272 4 0 -4.498304305344907 -4.7155936250942565 -7.51469097343589 7 0 0
1403 418 4 0 -2.0261854897919864 -5.095684290546965 -7.645943817069645 15 1 0
1402 418 2 0 -1.5984951392774853 -5.209346070026648 -7.807216176087645 15 1 0
1404 418 4 0 -1.1860011921538245 -5.31154627323453 -7.98774640739669 15 1 0
1543 465 2 0 -11.658008744541474 -4.092476935604845 -7.70435291477012 8 0 0
1545 465 4 0 -11.230004203125647 -4.198419530053078 -7.7859140279551555 8 0 0
97 20 3 0 -10.227789295418889 -4.486261255365784 -8.111857412973892 8 0 0
98 20 3 0 -10.843954900557886 -4.272855053371682 -7.884080015685845 8 0 0
96 20 1 0 -10.467537272684112 -4.151909222454003 -7.954323657553299 8 0 0
99 20 3 0 -10.28400849055445 -4.009625400327305 -7.571157001552041 8 0 0
3273 1041 4 0 -11.121394990182761 -1.1464018764089783 -7.525589815320039 9 0 0
3271 1041 2 0 -10.885533929479935 -0.8686420436273536 -7.799501873103417 9 0 0
3272 1041 4 0 -10.657672206777475 -0.6032641224403754 -8.061218201276276 9 0 0
2573 808 4 0 -10.478494198265395 -0.2768703610252867 -7.877147436926938 12 0 0
3958 1270 2 0 -1.6296162852602283 -0.42422861680114465 -8.239038598583008 9 0 0
3767 1206 4 0 -0.06503070102840702 -0.8546870300549614 -8.217690383701814 19 1 0
2865 905 4 0 -10.495936816741786 -11.58693182762399 -6.423198685200121 7 0 0
2864 905 4 0 -9.630862725016351 -11.654993313124823 -6.69781618012735 7 0 0
2863 905 2 0 -10.065517374044651 -11.618450632954438 -6.5612270260919985 7 0 0
2781 877 4 0 -9.312322700753441 -11.85167395858766 -6.602222118642574 7 0 0
2779 877 2 0 -8.8781338968827 -11.868514462320471 -6.762546631868998 7 0 0
2780 877 4 0 -8.428595160207053 -11.88999983562048 -6.926131870996976 7 0 0
3764 1205 4 0 -7.041437690009151 -8.11708621793658 -7.012984882169349 13 1 0
1634 495 4 0 -7.042586138433144 -8.034638362342417 -6.610305236449542 3 0 0
4161 1337 4 0 -0.18698511663594353 -6.656095567738711 -6.428110094604325 14 1 0
960 270 4 0 -11.639959417905429 -6.276284195824134 -6.587287423449023 5 0 1
3575 1142 4 0 -3.7136013898558407 -6.127529489503604 -6.845690325040807 7 0 0
3574 1142 2 0 -3.4877727130280487 -6.131242043002888 -6.470990135022746 7 0 0
406 86 2 0 -11.566752932822347 -5.141631029007745 -6.443178549847096 15 1 1
3964 1272 2 0 -4.301507330032926 -4.857880967588904 -7.118785427589876 7 0 0
3965 1272 4 0 -4.111767009916402 -4.996270418225368 -6.755257283232933 7 0 0
42 9 3 0 -3.7831637093750725 -5.064695806656957 -6.512403426122201 6 0 0
43 9 3 0 -3.090560573787359 -4.887900967600532 -6.433595192334059 6 0 0
2603 818 4 0 -2.1797661468397784 -4.908766947965492 -7.3153889232518345 6 0 0
2604 818 4 0 -2.748879262476901 -4.769771837674245 -6.638315088790168 6 0 0
2602 818 2 0 -2.4614952540648574 -4.839241370914462 -6.978874981366502 6 0 0
4049 1300 4 0 -10.523012081562385 -3.872059655770437 -7.268507627111877 18 1 0
4050 1300 4 0 -11.013617493173106 -3.4510135558782853 -6.63044326974101 18 1 0
4398 1416 4 0 -11.21848648635019 -3.1180139465556937 -6.759726480697086 8 0 0
4048 1300 2 0 -10.774946105695323 -3.6513165035084754 -6.9382392513893985 18 1 0
4396 1416 2 0 -11.268450093300387 -2.6762855478953327 -6.853968348852513 8 0 0
4397 1416 4 0 -11.31824037794641 -2.227693839229982 -6.938401715404963 8 0 0
60 12 3 0 -11.296585931144904 -1.900055818360899 -7.158079696617043 8 0 0
2008 620 2 0 -3.269472514236865 -2.0469746173498766 -6.629795532188985 5 0 0
2010 620 4 0 -3.0184281178452377 -2.360953792436989 -6.419119401944368 5 0 0
57 12 3 0 -11.137717874959462 -1.1856576639291418 -7.1385433849222295 8 0 0
58 12 3 0 -11.296285275765843 -1.5460848965246026 -6.504782630939863 8 0 0
56 12 1 0 -11.388445890713067 -1.5131053362200042 -6.9605130097277845 8 0 0
59 12 3 0 -11.79731139125903 -1.4233887174749835 -7.021956859753758 8 0 0
392 81 4 0 -5.901920596687162 -1.0002779977227512 -6.920160049282262 8 0 0
1647 499 4 0 -5.741550140418783 -1.3616901586967938 -6.886521561860029 15 1 1
1645 499 2 0 -5.337692056659054 -1.431602695679791 -7.055193466462716 15 1 1
1646 499 4 0 -4.9409754046821135 -1.5117736137729647 -7.212808152961629 15 1 1
1056 302 4 0 -4.636623617253241 -1.4149106172581956 -6.9523155147082445 5 0 1
1054 302 2 0 -4.219520478923255 -1.5892323751982769 -7.028566236581254 5 0 1
1055 302 4 0 -3.810911079553536 -1.7561385429622636 -7.094888149750074 5 0 1
2009 620 4 0 -3.5039397968493304 -1.752160015446183 -6.823936394656412 5 0 0
1947 599 4 0 -11.440751015068052 -0.1402118979065321 -6.500844770295083 12 0 0
391 81 2 0 -6.15412860880754 -0.6044672902548172 -6.830820520940691 8 0 0
393 81 4 0 -6.396942955690028 -0.23971595603067186 -6.742815943920734 8 0 0
4633 1495 2 0 -11.242054176418444 -11.472872146813431 -6.261031217067258 18 1 0
4634 1495 4 0 -11.651322460180976 -11.31969525243838 -6.2971492694901885 18 1 0
4635 1495 4 0 -10.8284563566357 -11.629479140676397 -6.228539795488034 18 1 0
1633 495 2 0 -6.698167095421909 -7.926808569587898 -6.34097230300513 3 0 0
1635 495 4 0 -6.35587698626005 -7.818652055669873 -6.077563075789306 3 0 0
4159 1337 2 0 -0.48814859225700147 -6.4441512468589215 -6.128306205433567 14 1 0
3576 1142 4 0 -3.2440310447248297 -6.12835639424676 -6.067075115124407 7 0 0
377 76 4 0 -3.025523283564631 -5.826730673419578 -5.924594125923113 7 0 0
376 76 2 0 -2.579582136177306 -5.747523733725931 -5.855747085780539 7 0 0
378 76 4 0 -2.1291664107901216 -5.659820098535996 -5.781146964517931 7 0 0
1688 513 4 0 -1.8191231352419681 -5.779674195440198 -5.592702049205327 17 1 0
1687 513 2 0 -1.365441208165608 -5.8557401784097225 -5.625317086726665 17 1 0
1689 513 4 0 -0.9180819219028695 -5.925344007089186 -5.662049235754004 17 1 0
4160 1337 4 0 -0.7830568724194951 -6.249599674447648 -5.86233680576341 14 1 0
407 86 4 0 -11.170805918997146 -5.081789806503474 -6.229088739806068 15 1 1
2910 920 4 0 -10.994839465621558 -4.787747778698409 -6.016429371506004 6 0 0
2908 920 2 0 -10.736679239749611 -4.997421959772911 -5.732678182274371 6 0 0
446 99 4 0 -3.6949303933140207 -5.285904372077516 -5.686919720246547 6 0 0
41 9 1 0 -3.47974632798525 -4.825886436779696 -6.274393290085813 6 0 0
45 9 3 0 -3.4968293477441375 -4.9494150908305805 -5.835131177282267 6 0 0
44 9 3 0 -3.568151065564127 -4.394163040471416 -6.30960477767301 6 0 0
3411 1087 4 0 -3.496970658917821 -4.036739807817093 -6.101221181144691 6 0 0
3409 1087 2 0 -3.685493229707239 -3.6238331523808114 -6.2227761658087095 6 0 0
3410 1087 4 0 -3.8706901522333936 -3.216869932331548 -6.342563151359386 6 0 0
3390 1080 4 0 -1.7090740333251233 -2.9852168763170344 -5.814434621005432 -1 -1 1
3819 1223 4 0 -2.65839375091816 -2.2585913387585634 -6.2273520409648295 16 1 0
3817 1223 2 0 -2.2734233099869066 -2.443466122587349 -6.093703370642319 16 1 0
3818 1223 4 0 -1.879641675009852 -2.6343378692575588 -5.956328852271063 16 1 0
1661 504 4 0 -11.396418445460942 -1.5581265649272869 -6.107728253806644 7 0 0
1660 504 2 0 -11.523633253638812 -1.2691294021952118 -5.740092393855039 7 0 0
3210 1020 4 0 -0.7899866574648016 -1.4119508012801845 -5.911827605114547 0 -1 1
3208 1020 2 0 -0.6730705222827673 -0.9857711830246778 -6.037909995272529 0 -1 1
1377 409 4 0 -10.472076836384327 -0.05375470013960815 -5.935847032515652 3 -1 1
4523 1458 4 0 -10.349645912599836 -0.07624622614479115 -5.538612773935095 13 0 0
4524 1458 4 0 -9.480822782329376 -0.24520636634223614 -5.555014067825513 13 0 0
4522 1458 2 0 -9.912999753434542 -0.16643300754320478 -5.549957703512292 13 0 0
401 84 4 0 -9.165960997094263 -0.5296135538911848 -5.5632993603777114 3 -1 0
2882 911 4 0 -0.3166839656377878 -0.4003735281341232 -5.882599652466813 8 0 0
3209 1020 4 0 -0.5599545293507262 -0.5739666974376672 -6.151173829104937 0 -1 1
2686 846 2 0 -0.1389787066171575 -10.77785954338929 -4.6519951159102 6 0 0
3228 1026 4 0 -10.466091729139869 -7.381360224882094 -5.175622978493667 6 0 0
4482 1444 4 0 -10.161213214471763 -7.578658265969975 -5.09992493532312 15 1 0
4481 1444 4 0 -9.238424516935316 -7.751274237432733 -5.216775200119612 15 1 0
4480 1444 2 0 -9.683245899195878 -7.665520176252823 -5.162770353984371 15 1 0
3227 1026 4 0 -11.214931752887699 -7.0028957447801075 -4.856682899713318 6 0 0
4562 1471 4 0 -11.615283798252278 -6.968165876181305 -4.832907000243325 15 1 1
4561 1471 2 0 -11.913697384073885 -7.248198173632027 -4.594903815538687 15 1 1
3226 1026 2 0 -10.840329867668796 -7.195373065039404 -5.01554272302851 6 0 0
2909 920 4 0 -10.482309941192284 -5.208071170175039 -5.450653525225456 6 0 0
3074 975 4 0 -10.09485475753154 -5.234972856396935 -5.320728639617829 7 0 0
3073 975 2 0 -9.784127257234132 -5.3752440329532485 -4.9800906326507 7 0 0
3075 975 4 0 -9.478095254801968 -5.497470333693619 -4.65648265823766 7 0 0
445 99 2 0 -3.5581512020334536 -5.257571175901486 -5.24763993089845 6 0 0
447 99 4 0 -3.4066207926676686 -5.225687275532948 -4.793436882871518 6 0 0
3389 1080 4 0 -1.9055441404655458 -3.561843820228013 -5.1618681393923325 -1 -1 1
3388 1080 2 0 -1.8052539946111672 -3.2771506265143397 -5.478916716160669 -1 -1 1
1557 469 4 0 -1.74279134556385 -3.5572937420705255 -4.790068165488664 18 1 0
1662 504 4 0 -11.646379460726388 -0.9938337134637205 -5.3848189519694865 7 0 0
2983 945 2 0 -11.880348260077703 -1.0133412896968803 -4.671419283109828 7 0 0
1895 582 4 0 -8.27853648147113 -1.1011323562272892 -4.9863622330943835 13 0 0
402 84 4 0 -8.683194329992599 -1.051109840100997 -4.939051773195331 3 -1 0
1894 582 2 0 -8.045955267754852 -1.209106111457272 -4.622279153514977 13 0 0
2984 945 4 0 -11.835416851695374 -0.8222994452996542 -5.091470161566439 7 0 0
400 84 2 0 -8.916749723342981 -0.7939494874025357 -5.247848446682094 3 -1 0
3769 1207 2 0 -8.31887896488167 -11.068937366175225 -3.945923005783608 6 0 0
3770 1207 4 0 -7.9532614347999 -11.314126413729904 -4.062486480558056 6 0 0
2114 655 4 0 -7.949482810529913 -11.717366746313198 -4.1200937600150045 6 0 0
2113 655 2 0 -7.564834627872895 -11.902867937609052 -4.079901839187756 6 0 0
2364 738 4 0 -9.040460586533936 -10.990383220519567 -3.856361014881763 16 1 1
3771 1207 4 0 -8.678263156590226 -10.81673435527436 -3.8269155554120857 6 0 0
3334 1062 2 0 -0.955671417496367 -10.489100393668915 -3.7807085397777556 14 1 0
2687 846 4 0 -0.4595059668045387 -10.633036146387822 -4.38218012217549 6 0 0
3336 1062 4 0 -0.7592624693067549 -10.494656498488718 -4.17443784476312 14 1 0
1713 521 4 0 -2.6567220579388664 -9.441973029969478 -3.7173292327079412 5 0 0
1711 521 2 0 -2.5533189891853976 -9.008854581586812 -3.7624828216522133 5 0 0
1712 521 4 0 -2.448449673844854 -8.570338453983663 -3.8045663174718563 5 0 0
783 211 4 0 -9.421200137040655 -5.550702265163153 -4.282778418964478 6 0 -1
781 211 2 0 -9.691603669502975 -5.595272579651249 -3.864945097123746 6 0 -1
388 80 2 0 -8.02243637409243 -6.2431353825073 -3.716507000710104 5 0 0
389 80 4 0 -8.217481511531929 -5.823436896957744 -3.7721533172985158 5 0 0
4409 1420 4 0 -6.688978372487384 -6.0273383936996225 -4.53063062202731 16 1 0
4408 1420 2 0 -6.505621428549604 -5.942081315363128 -4.132689968113953 16 1 0
4410 1420 4 0 -6.323235362457981 -5.852895241503678 -3.712633684645054 16 1 0
3899 1250 4 0 -3.2784876266929306 -4.9623654542692295 -4.509640703992256 8 0 0
3898 1250 2 0 -2.9645772336174563 -4.632133701621353 -4.415052006921691 8 0 0
1555 469 2 0 -2.039321558933681 -3.7978157135809614 -4.522677889410902 18 1 0
1556 469 4 0 -2.3299228154222558 -4.046107812746325 -4.257504018076954 18 1 0
3900 1250 4 0 -2.657838722746261 -4.287584456108277 -4.324189995910611 8 0 0
1896 582 4 0 -7.81689054031496 -1.3210954882409531 -4.2629109677948165 13 0 0
4591 1481 2 0 -5.581334908381043 -11.886497655423648 -2.9533505567265284 16 1 0
884 245 4 0 -4.797518497194476 -11.87435576293107 -2.7725906653217773 4 0 0
4593 1481 4 0 -5.156945613252923 -11.737594058714347 -2.9643898684029306 16 1 0
883 245 2 0 -4.44878316474797 -11.644125316959965 -2.8001919072036667 4 0 0
885 245 4 0 -4.069225222529293 -11.405010994478706 -2.827809430477938 4 0 0
4607 1486 4 0 -3.7207878629033253 -11.646506483531205 -2.7946621756336523 16 1 0
4606 1486 2 0 -3.39363889267333 -11.505200384032428 -3.0736812266607014 16 1 0
4608 1486 4 0 -3.0726436284777545 -11.35928931715081 -3.3511849667069065 16 1 0
4434 1428 4 0 -2.7057428050033376 -11.501432906285794 -3.2607144573690334 5 0 1
4432 1428 2 0 -2.2677260326669355 -11.390235594331461 -3.139937289661363 5 0 1
4433 1428 4 0 -1.8458466976997485 -11.274954256565882 -3.0112178225725277 5 0 1
210 42 3 0 -1.478782488270486 -11.248768813179447 -2.9141122252442138 5 0 0
3043 965 2 0 -10.28673561802506 -10.81365453011847 -2.824577185283493 6 0 0
2363 738 4 0 -9.634714687095833 -10.59750621730321 -3.3157594588028054 16 1 1
3044 965 4 0 -9.963481531061 -10.7950475525634 -3.170232933649249 6 0 0
2362 738 2 0 -9.335380073851908 -10.785029310736908 -3.5929608896422582 16 1 1
208 42 3 0 -1.151543621841368 -10.58637673836294 -2.9881079901291336 5 0 0
3335 1062 4 0 -1.1626292007636323 -10.48827585791777 -3.3692074766103577 14 1 0
4362 1404 4 0 -9.852505467163567 -9.662123199016294 -3.3122429810739877 6 0 0
4360 1404 2 0 -9.512895365923258 -9.420667994457098 -3.148913138253942 6 0 0
4361 1404 4 0 -9.156797534864113 -9.172708252654553 -2.9884279580736504 6 0 0
4605 1485 4 0 -8.938702146923312 -8.862006173478248 -3.094154805540132 6 0 1
4603 1485 2 0 -8.751391129079572 -8.481932580277261 -3.131364311504072 6 0 1
4604 1485 4 0 -8.554751260997932 -8.084267762534509 -3.1749952753745845 6 0 1
2600 817 4 0 -8.426225902101391 -7.709715945362102 -3.2201734243522306 6 0 0
2599 817 2 0 -8.18904972988716 -7.342367435370545 -3.310542964767814 6 0 0
390 80 4 0 -7.853106289332753 -6.643426223140078 -3.6570789031669317 5 0 0
2601 817 4 0 -7.9509838044664765 -6.959411881500038 -3.408460730205272 6 0 0
782 211 4 0 -9.946872110598816 -5.648655708868269 -3.479883404903333 6 0 -1
2237 696 4 0 -6.156879986533427 -5.521498451829039 -3.5249527091405817 15 1 1
1339 397 2 0 -10.118323437651833 -5.095854275852051 -2.912700735702307 6 0 0
1341 397 4 0 -9.915874890587721 -5.313084941311377 -3.2745536589845 6 0 0
2236 696 2 0 -6.178281895354161 -5.113831141726877 -3.379327137820706 15 1 1
2238 696 4 0 -6.2039840570375 -4.678416563325113 -3.2288607467683956 15 1 1
1379 410 4 0 -5.811031842797983 -4.546208373621469 -3.2194268152662655 5 0 0
1378 410 2 0 -5.505663450267328 -4.227559678207921 -3.0766975093766167 5 0 0
1380 410 4 0 -5.203038257438792 -3.89393320070419 -2.9204470950558488 5 0 0
209 42 3 0 -0.9211955367329434 -11.040474293990865 -2.467832134484585 5 0 0