LAMMPS data file via write_data, version 4 Feb 2025, timestep = 8500000, units = lj

4650 atoms
4 atom types
3150 bonds
1 bond types
1875 angles
2 angle types

-11.917153 11.917153 xlo xhi
-11.917153 11.917153 ylo yhi
-11.917153 11.917153 zlo zhi

Masses

1 1
2 1
3 0.1
4 0.1

Bond Coeffs # harmonic/omp

1 100 0.45

Angle Coeffs # harmonic/omp

1 100 180
2 100 109.471

Atoms # full

4482 1444 4 0 -11.184648204859963 -10.838050809978277 -11.701513313476827 1 1 0
3587 1146 4 0 -10.185372954976653 -0.05814164468654742 -0.1511567034035363 1 -1 0
4340 1397 4 0 -7.722860083608707 -11.893382957077069 -5.5422289611725954 0 1 1
4480 1444 2 0 -10.922372472106256 -10.63080322355983 -11.401382046327539 1 1 0
2353 735 2 0 -9.37263372542103 -11.62708631602458 -11.05159334730021 0 1 1
1443 431 4 0 -8.924432503335122 -10.963173444083361 -11.05660734378696 0 1 0
2355 735 4 0 -9.179076847810114 -11.255796740352524 -10.966531883336057 0 1 1
1441 431 2 0 -8.787525073993695 -10.557290828749935 -11.000134786421231 0 1 0
3647 1166 4 0 -4.143730324036935 -10.942626362011797 -10.61962770116449 0 0 1
777 209 4 0 -4.261740355007172 -10.630262197860784 -10.889393275485142 0 0 0
801 217 4 0 -10.438467937582331 -10.120126038352312 -11.219135169693278 0 0 0
4481 1444 4 0 -10.664313487546618 -10.435772280132916 -11.112506959884387 1 1 0
799 217 2 0 -10.420112904922249 -9.809004962028048 -10.896618185648753 0 0 0
800 217 4 0 -10.405559083693667 -9.494325766338843 -10.564453845266618 0 0 0
4023 1291 4 0 -8.514652477867998 -9.847302653055868 -10.677715585035745 1 0 1
1442 431 4 0 -8.63603418180078 -10.125456739056045 -10.939044476117616 0 1 0
775 209 2 0 -4.1999239812030735 -10.305802217294273 -11.160902054231245 0 0 0
776 209 4 0 -4.126546474298707 -9.948601855470184 -11.458538741196708 0 0 0
4262 1371 4 0 -3.9480494723414745 -9.6832974748402 -11.699097443742776 0 0 1
1907 586 4 0 -4.619716876329095 -8.241744480492967 -11.674780040713616 0 1 0
3161 1004 4 0 -4.417767110086818 -8.033042275269999 -11.401234147817966 0 0 1
3160 1004 2 0 -4.464774596575697 -8.100997942249492 -10.968133330826545 0 0 1
3162 1004 4 0 -4.5142434994315455 -8.166883322852234 -10.526576046428461 0 0 1
2787 879 4 0 -1.323059566447061 -7.904736473971745 -11.722776971326272 0 0 0
2785 879 2 0 -1.0304910418667876 -7.6574856425021505 -11.530931718441444 0 0 0
2786 879 4 0 -0.7207210318840848 -7.393110789578516 -11.32825068661666 0 0 0
1325 392 4 0 -0.4764262235444573 -7.5687340034492365 -11.087176965644009 0 0 1
1324 392 2 0 -0.14768405211430657 -7.558486238211764 -10.76229353870253 0 0 1
1042 298 2 0 -11.470488190073235 -6.409854359045642 -11.671243802777036 0 0 0
1044 298 4 0 -11.557477330103533 -6.461023172284933 -11.229940878355077 0 0 0
3503 1118 4 0 -11.504599228069829 -6.195032414202881 -10.927908890364362 1 0 1
1587 479 4 0 -9.761742963545487 -7.0094494122556465 -11.253154808230763 0 1 1
1585 479 2 0 -9.665561821116743 -6.881947759907926 -11.654680480750768 0 1 1
1365 405 4 0 -9.732691105646879 -6.77055966667743 -10.961232119534232 0 0 1
1363 405 2 0 -9.642037942683066 -6.564862047777933 -10.573953069261444 0 0 1
904 252 2 0 -5.13005045992571 -6.793666473343382 -10.544727666213975 -1 0 1
905 252 4 0 -5.317584101706536 -6.5928904415956495 -10.906886862284619 -1 0 1
3502 1118 2 0 -11.75462308481461 -5.870514219010771 -10.73172738175689 1 0 1
4423 1425 2 0 -10.105094385707902 -4.582411564954527 -10.70504081692798 1 0 1
527 126 4 0 -3.4413971320120442 -4.559606686728322 -11.017759109246319 0 0 0
3665 1172 4 0 -3.3139027592015897 -4.94379059757202 -11.006310152964044 1 0 0
3664 1172 2 0 -3.332035285409127 -5.310843522726666 -10.745571652915876 1 0 0
2659 837 2 0 -0.3560608760447974 -5.174919619798811 -11.456310713603704 0 0 0
2661 837 4 0 -0.5775316201095465 -5.289444482293546 -11.091296427310011 0 0 0
4061 1304 4 0 -0.7213073794577689 -5.18118341066768 -10.72340275414303 1 0 0
2660 837 4 0 -0.12739470906369127 -5.065819070055785 -11.84137357945371 0 0 0
4425 1425 4 0 -10.25450231408572 -4.383379337905438 -11.067602433002397 1 0 1
836 229 4 0 -10.06986903507487 -4.380149749321837 -11.418334673705123 0 0 1
835 229 2 0 -10.29905941066707 -4.18259729550632 -11.74449965468065 0 0 1
4333 1395 2 0 -7.454306837676073 -3.532080684669669 -11.07886535182042 1 0 0
4335 1395 4 0 -7.6631489914728785 -3.173981445396794 -10.897186677836064 1 0 0
2201 684 4 0 -6.954164870729755 -4.104257230692654 -11.47916283378227 0 0 1
4334 1395 4 0 -7.2294045988066555 -3.9041097373588958 -11.264474169300478 1 0 0
2200 684 2 0 -6.513788202680992 -4.035478493873616 -11.35808936335068 0 0 1
2202 684 4 0 -6.074257232861117 -3.9749566802274585 -11.253750475009666 0 0 1
2591 814 4 0 -5.117597368897997 -3.300233110060702 -11.024579779730423 0 0 0
2590 814 2 0 -5.51220152740441 -3.5528815898482473 -10.996090526435495 0 0 0
2592 814 4 0 -5.881000188568276 -3.7931017400702296 -10.97080233588892 0 0 0
105 21 3 0 -4.793523854068489 -3.5239035649448747 -11.136121540153917 0 1 0
104 21 3 0 -4.621773275578934 -3.361044812288508 -11.833521568634627 0 1 0
2882 911 4 0 -4.963829629829723 -3.161426217761626 -11.78859764158516 0 0 0
526 126 2 0 -3.760214350069434 -4.382859846615605 -11.244317253822139 0 0 0
528 126 4 0 -4.089445134418772 -4.217043037786817 -11.480078324777546 0 0 0
102 21 3 0 -4.417472789468547 -4.008037338495126 -11.550369422621706 0 1 0
101 21 1 0 -4.473542419102564 -3.574049162073769 -11.461717179425323 0 1 0
103 21 3 0 -4.104514442904291 -3.4073650176718004 -11.338489639731447 0 1 0
2861 904 4 0 -3.800942837166265 -3.293991190836327 -11.12177630538167 1 0 0
595 149 2 0 -9.204197311651416 -2.196234593632743 -10.73883143029163 0 0 0
4343 1398 4 0 -9.882473976569058 -2.5984625802518377 -10.783698534668792 0 0 0
596 149 4 0 -9.65516146954278 -2.261727738419362 -10.814068341079551 0 0 0
4342 1398 2 0 -10.249265510691195 -2.8258664069304227 -10.63842142613922 0 0 0
1785 545 4 0 -7.913027644970826 -2.986360819900491 -11.182843086249203 0 0 0
597 149 4 0 -8.767162276210433 -2.129175479606665 -10.6608247343639 0 0 0
1784 545 4 0 -8.437610419415963 -2.357538174625063 -10.749436825362725 0 0 0
1783 545 2 0 -8.169265365918996 -2.680931763022992 -10.971618069858641 0 0 0
829 227 2 0 -6.089661024150079 -1.9464100511145892 -11.440668954267744 0 0 0
830 227 4 0 -6.34920053317855 -1.6030728995979326 -11.313355708771963 0 0 0
2881 911 2 0 -5.277669723141676 -2.8297606311577277 -11.81622229028822 0 0 0
2883 911 4 0 -5.5866866843164855 -2.4950075728731944 -11.842007125490877 0 0 0
831 227 4 0 -5.829583585725887 -2.295587861419003 -11.571626436136697 0 0 0
2860 904 2 0 -3.6235207038040227 -2.956833622490177 -10.901902564769756 1 0 0
2862 904 4 0 -3.435104139738013 -2.602403953325131 -10.675752937941375 1 0 0
2139 663 4 0 -9.086888311196931 -0.8510847805513508 -10.550034327056007 0 1 0
4066 1306 2 0 -7.995574504364118 -0.5250894238880293 -11.673931337719758 1 0 0
2138 663 4 0 -8.60625034048656 -0.7984329231856648 -11.329107432342713 0 1 0
4068 1306 4 0 -8.270423346700419 -0.5910306647569705 -11.348619898547058 1 0 0
2137 663 2 0 -8.85504150773155 -0.8318207148035281 -10.935205344320403 0 1 0
4227 1359 4 0 -6.63628560389742 -1.337500543385656 -11.346680907649592 0 0 1
2999 950 4 0 -6.378099807487336 -0.14959897861774282 -11.000156165776874 1 0 -1
4226 1359 4 0 -6.370804752228477 -0.5202559806264387 -11.15691915647076 0 0 1
4225 1359 2 0 -6.5108317403206515 -0.9415347153411673 -11.257818687423958 0 0 1
1162 338 2 0 -6.974712923853478 -10.526115088121237 -9.648600361426444 0 0 1
1164 338 4 0 -6.870820610491044 -10.950564742597562 -9.54374647809131 0 0 1
9 2 3 0 -6.8822789124266714 -11.2548618946032 -9.29057030628396 0 0 1
6 2 1 0 -6.4900420621492065 -11.293595889633878 -9.031352021132353 0 0 1
8 2 3 0 -6.1725464844600735 -10.989088488784116 -9.17809921203296 0 0 1
7 2 3 0 -6.32968610388396 -11.689521328086148 -9.084759985637605 0 0 1
3648 1166 4 0 -4.689996273824611 -10.989514834994546 -9.920693653218414 0 0 1
648 166 4 0 -5.867122310187158 -11.140143147307565 -9.397179430752912 1 0 1
646 166 2 0 -5.426013969302114 -11.152734958315046 -9.546154962778377 1 0 1
647 166 4 0 -4.985983427046261 -11.18044440916302 -9.70989579376606 1 0 1
3646 1166 2 0 -4.400828808615937 -10.967320728443955 -10.284230488178816 0 0 1
4021 1291 2 0 -8.454601632159774 -9.81033510211528 -10.226085981906353 1 0 1
4022 1291 4 0 -8.396882254858843 -9.785439022029344 -9.77731546280233 1 0 1
143 29 3 0 -8.004328378770238 -9.844770812090875 -9.721819727184966 0 1 0
141 29 1 0 -7.702739672474946 -9.721488188472748 -9.391623923210512 0 1 0
144 29 3 0 -7.725422569959366 -9.271646185055598 -9.329189530011474 0 1 0
142 29 3 0 -7.820005972067824 -9.933056727363205 -9.006572836748457 0 1 0
1163 338 4 0 -7.076829114311356 -10.121292728685315 -9.75074212625121 0 0 1
145 29 3 0 -7.275530011923843 -9.834051069419417 -9.515225084265396 0 1 0
2359 737 2 0 -5.3764192031045726 -9.561514653161547 -9.354404853269479 0 0 1
2360 737 4 0 -5.544007312235176 -9.5718982083623 -9.750228293855766 0 0 1
2361 737 4 0 -5.200617395460306 -9.55038074821945 -8.939069302129635 0 0 1
1303 385 2 0 -0.28922543302297415 -9.225102113589852 -9.630027736459798 -1 0 1
1304 385 4 0 -0.6974098732675225 -9.066027514707487 -9.517771997810113 -1 0 1
1055 302 4 0 -11.267553855184783 -8.044113020776914 -8.945651321713965 0 0 1
1635 495 4 0 -7.639366852399853 -8.898190832534583 -9.455960740905953 0 0 0
1633 495 2 0 -7.444195521363821 -8.57055833791151 -9.238225164325007 0 0 0
3763 1205 2 0 -6.521902545906788 -7.84942089042418 -9.222095324904718 0 1 0
3765 1205 4 0 -6.200805310191021 -7.578468453658236 -9.398979366856528 0 1 0
1634 495 4 0 -7.225009688926112 -8.232395272901677 -9.018307378773772 0 0 0
3764 1205 4 0 -6.835287325874497 -8.102481620150243 -9.056666691858958 0 1 0
2454 768 4 0 -5.841151149445396 -7.6093002462797985 -9.503189278773819 0 0 1
1320 390 4 0 -4.440208975255169 -7.940514314335568 -10.178554322493204 0 0 1
1318 390 2 0 -4.172887898997806 -7.7071444684364465 -9.911196359556936 0 0 1
1112 321 4 0 -2.4183369708837352 -7.550092605605474 -9.48822836547213 0 0 1
1113 321 4 0 -1.6499696502701666 -7.946923787004826 -9.395841870719915 0 0 1
1111 321 2 0 -2.0246911186525085 -7.753001970275683 -9.446411795881216 0 0 1
3266 1039 4 0 -2.7423081219443097 -7.448482606923118 -9.28928857456895 1 -1 1
4259 1370 4 0 -1.426172906140114 -8.11310357193018 -9.119277731795043 0 0 0
4258 1370 2 0 -1.1525926040267018 -8.492669102495162 -9.20757066796578 0 0 0
4260 1370 4 0 -0.8958314466274181 -8.855663707915681 -9.289388717534626 0 0 0
2602 818 2 0 -11.443878462161763 -7.2836783246161625 -9.0885221125588 1 0 0
2604 818 4 0 -11.66379455164998 -6.91731730690823 -9.198102662763512 1 0 0
1364 405 4 0 -9.545788441446119 -6.357247713112766 -10.209839579725232 0 0 1
906 252 4 0 -4.938641473200631 -6.9854174846456 -10.194264520922886 -1 0 1
2452 768 2 0 -5.546867522463048 -7.383420450173368 -9.750362995368384 0 0 1
2453 768 4 0 -5.252730271152141 -7.160458175883081 -10.000185168823762 0 0 1
3265 1039 2 0 -3.1789825668671967 -7.394966903977147 -9.334745152701746 1 -1 1
1319 390 4 0 -3.9101106775136136 -7.4707472591076405 -9.6456004457501 0 0 1
3267 1039 4 0 -3.6420612532398247 -7.341117969803526 -9.378992625542654 1 -1 1
1722 524 4 0 -3.72906284728243 -6.441522114908044 -9.20858055926708 0 0 0
3639 1163 4 0 -3.7269525921463638 -6.306359732086213 -9.596668067525327 0 0 0
3573 1141 4 0 -9.51409376616409 -5.968839776441814 -10.071612096642985 1 0 1
3571 1141 2 0 -9.617060685695643 -5.504693789582376 -10.086507487789213 1 0 1
4424 1425 4 0 -9.94058358275739 -4.785452666922237 -10.321039334611644 1 0 1
3572 1141 4 0 -9.722356816019062 -5.045145155503739 -10.109493799268087 1 0 1
3637 1163 2 0 -3.5613369289268517 -5.940133271577982 -9.824882739971638 0 0 0
3638 1163 4 0 -3.4019997904100765 -5.58856194154046 -10.0456958559555 0 0 0
3666 1172 4 0 -3.345955726104689 -5.675139708441106 -10.478682625150203 1 0 0
4060 1304 2 0 -0.4713687432893813 -5.018340502026337 -10.364876686465482 1 0 0
4062 1304 4 0 -0.22347067684712552 -4.847373557210608 -10.009270201038351 1 0 0
4344 1398 4 0 -10.589418902143528 -3.044220481858368 -10.486515729244147 0 0 0
740 197 4 0 -10.804068277308456 -3.1825494655229183 -10.136201181655643 1 0 0
739 197 2 0 -11.19255693235756 -3.0935391234229157 -9.98941731641968 1 0 0
4107 1319 4 0 -11.69149141837849 -3.080636826548545 -9.437965948429927 1 0 0
741 197 4 0 -11.607183756259536 -2.9954003794091726 -9.833650192845868 1 0 0
1915 589 2 0 -6.012646767049874 -2.3925709354070044 -9.192526941357885 0 0 0
1916 589 4 0 -6.071942737594834 -2.0063774562970296 -9.392570456889667 0 0 0
377 76 4 0 -6.033434288802977 -1.6670749347430094 -9.152789226693521 0 0 0
1917 589 4 0 -5.9530356093883645 -2.7995910064961156 -8.996660163714216 0 0 0
2072 641 4 0 -3.468557793047686 -2.268943658976741 -10.45615024223117 0 0 1
2071 641 2 0 -3.455738110007906 -2.2414727423139538 -9.999948669927367 0 0 1
2073 641 4 0 -3.4548856167285287 -2.2028474371884825 -9.531562188826175 0 0 1
2777 876 4 0 -3.3449441295948126 -2.5031459110945153 -9.298041718573431 0 0 0
2776 876 2 0 -3.159381731051857 -2.7483333013894917 -8.96699389288877 0 0 0
393 81 4 0 -9.12809971383651 -0.9477182452665904 -9.233226797642919 0 0 0
391 81 2 0 -9.146994360291332 -0.9531645089085108 -9.695506545370604 0 0 0
392 81 4 0 -9.163663324558026 -0.9662132183180657 -10.16983975429984 0 0 0
376 76 2 0 -5.943897800320295 -1.249917598722569 -8.972593268585525 0 0 0
1020 290 4 0 -7.525480323300575 -10.574152716542443 -8.032755905955522 0 0 0
2079 643 4 0 -7.283766564707933 -10.780002510294564 -7.830167236429173 0 1 0
963 271 4 0 -6.736603897937512 -11.684642719438541 -7.493272650369669 1 0 1
962 271 4 0 -6.616679018215527 -11.573989963447627 -8.40388638195755 1 0 1
961 271 2 0 -6.679629432304732 -11.634555740521057 -7.922155246102696 1 0 1
10 2 3 0 -6.586876302198468 -11.209764840321487 -8.562516350019722 0 0 1
4441 1431 2 0 -4.170557948591124 -11.685427960613268 -7.5766213953672805 1 1 1
2469 773 4 0 -4.179312155284403 -11.906642248081466 -8.382305354433422 0 1 0
1251 367 4 0 -1.3713326502196275 -11.757305495350511 -8.637966601425934 0 0 0
3045 965 4 0 -0.16584542843195002 -11.71687819487428 -8.700507784099562 0 0 0
3043 965 2 0 -0.625161384280537 -11.725416425550973 -8.56299287389214 0 0 0
3044 965 4 0 -1.034200515863914 -11.740941058152202 -8.435892449322857 0 0 0
865 239 2 0 -0.03621351789397495 -10.959355481264481 -7.797877722686211 0 0 0
867 239 4 0 -0.13160705619224058 -10.63995644790841 -8.093296944162306 0 0 0
2337 729 4 0 -10.919777829418667 -9.022702906953445 -8.274289316652906 0 1 0
2335 729 2 0 -10.622340076050598 -9.189394361792155 -7.972075948742559 0 1 0
2336 729 4 0 -10.326416258201304 -9.331544448087485 -7.683929127386622 0 1 0
1018 290 2 0 -7.733109044510906 -10.381716098872507 -8.383999767373133 0 0 0
1019 290 4 0 -7.928393227273504 -10.197608296717846 -8.729302241464328 0 0 0
1445 432 4 0 -5.331593481891875 -9.386688540134458 -8.603399710019666 0 1 0
1444 432 2 0 -5.182708313391174 -9.491560651060132 -8.183128250608247 0 1 0
1446 432 4 0 -5.033552789785938 -9.598810096169604 -7.776168765478155 0 1 0
2603 818 4 0 -11.206654986038474 -7.666978279658731 -8.979624827146818 1 0 0
1054 302 2 0 -11.097753553735345 -8.336190205412441 -8.623597293828196 0 0 1
1056 302 4 0 -10.944406864665984 -8.618261440496505 -8.323420833554245 0 0 1
212 43 3 0 -10.515903630910099 -7.678916773014033 -8.61975884914821 1 0 0
1876 576 2 0 -9.198710635374137 -8.209241845067536 -8.684868493165968 0 1 0
1877 576 4 0 -9.58305119756898 -8.100168829364023 -8.474942613739593 0 1 0
213 43 3 0 -9.941605151387092 -8.052794896505446 -8.325050043525362 1 0 0
211 43 1 0 -10.217317111277328 -7.669838135590631 -8.287550124766188 1 0 0
215 43 3 0 -10.44250021165509 -7.675974741985867 -7.889783021436786 1 0 0
1878 576 4 0 -8.826559542272562 -8.304797283076939 -8.898145224867894 0 1 0
3021 957 4 0 -10.339984334788884 -7.383688652759739 -7.6147874167321055 1 0 0
214 43 3 0 -9.970993513559062 -7.309874884197382 -8.325919971585037 1 0 0
4019 1290 4 0 -9.660595927474407 -7.425707031528346 -8.08079845032038 1 0 0
4018 1290 2 0 -9.298318589777312 -7.242108678236456 -7.914991868681919 1 0 0
780 210 4 0 -8.629270596440863 -6.820164270461695 -7.591900722621835 0 0 0
4020 1290 4 0 -8.925195083759574 -7.05483830263277 -7.745476762417455 1 0 0
778 210 2 0 -8.387081405192543 -6.459694466581493 -7.471011803891105 0 0 0
779 210 4 0 -8.14555387753959 -6.100321054983777 -7.349806724888114 0 0 0
1720 524 2 0 -3.9238883721673625 -6.687586848596417 -8.910590435229496 0 0 0
4561 1471 2 0 -3.9101873313691127 -7.153221313581487 -7.844666162034889 0 1 1
4562 1471 4 0 -3.9158955092278314 -7.0447965907435 -8.285796763055266 0 1 1
1721 524 4 0 -4.130374050656731 -6.941730301257809 -8.598226720449844 0 0 0
452 101 4 0 -1.5439799108092718 -6.3291324914056215 -7.4848364435128705 0 0 0
858 236 4 0 -1.537142011367284 -6.0640836447763435 -7.764357015118533 0 0 0
44 9 3 0 -8.23453688914915 -5.027327788932576 -7.564206626572638 0 0 0
2946 932 4 0 -8.52334718356754 -4.775436294210058 -7.480628426342969 0 0 0
445 99 2 0 -6.8011938753985435 -5.299615921839117 -7.5403678504166916 0 0 0
447 99 4 0 -6.41625666573953 -5.206021479191079 -7.714858374083219 0 0 0
1766 539 4 0 -6.281805387307517 -4.837228019803187 -7.752249422510027 0 0 0
1765 539 2 0 -6.161294320364024 -4.567554968453842 -8.083943364274196 0 0 0
2648 833 4 0 -1.6977509370698738 -4.959780062391927 -8.296944052230224 0 0 0
857 236 4 0 -1.5295096949416866 -5.174015164733379 -8.01642438971752 0 0 0
2647 833 2 0 -1.7325056478991494 -4.522427434425796 -8.354008791447015 0 0 0
856 236 2 0 -1.5331029914068028 -5.605746546198158 -7.892433455469738 0 0 0
2944 932 2 0 -8.612429933230414 -4.354076254373462 -7.579169038126984 0 0 0
2945 932 4 0 -8.699122903642024 -3.8986996995724192 -7.681020432156765 0 0 0
97 20 3 0 -8.538416096296801 -3.55329058750073 -7.583834908960646 0 0 0
3439 1097 2 0 -6.156216228491328 -3.5578506298589017 -8.716315202505122 1 0 0
1767 539 4 0 -6.029093732598674 -4.292649179927088 -8.415799890233888 0 0 0
3441 1097 4 0 -6.214768265913791 -4.035159181599845 -8.659655475712286 1 0 0
3440 1097 4 0 -6.1096099459057 -3.1003427030531987 -8.78234061222007 1 0 0
4001 1284 4 0 -2.698870167171264 -3.302514358490234 -8.63538657349912 0 1 0
4000 1284 2 0 -2.3151594997068914 -3.5193477377002114 -8.466567878651528 0 1 0
4002 1284 4 0 -1.9499183853069937 -3.7224041569219235 -8.309818214602453 0 1 0
2649 833 4 0 -1.7733804968532665 -4.0843968243654105 -8.419403278131663 0 0 0
4125 1325 4 0 -9.19845997681947 -1.6887206552504974 -7.9595362732779575 1 0 0
4123 1325 2 0 -9.051584666750072 -2.1152762626597013 -7.924152250078769 1 0 0
4124 1325 4 0 -8.907506162156096 -2.5366670040575174 -7.889059444215914 1 0 0
100 20 3 0 -8.794865958153196 -2.8708679223580607 -7.705324038579318 0 0 0
3867 1239 4 0 -5.88885138275087 -1.5731420002017478 -7.757530428837195 0 0 -1
2778 876 4 0 -2.968079693519426 -2.993430649736179 -8.64508109157454 0 0 0
2901 917 4 0 -10.944848977204554 -0.8712762588452114 -8.16397493963355 1 0 -1
1604 485 4 0 -10.67815317134582 -0.8600338224737026 -8.459724409177706 0 0 0
2899 917 2 0 -11.141693435325825 -1.0086235269470194 -7.789848445133235 1 0 -1
249 50 3 0 -9.1350640915071 -1.0750502682148761 -8.848667402281041 0 0 1
247 50 3 0 -9.152701515935014 -1.3660733263890803 -8.188226256337153 0 0 1
1605 485 4 0 -9.842616743599377 -0.5172550551721014 -8.294852447298652 0 0 0
250 50 3 0 -9.61541054498694 -0.8425577879661105 -8.339528656476203 0 0 1
246 50 1 0 -9.204371966387535 -1.0033639631240814 -8.40958372649429 0 0 1
1603 485 2 0 -10.268187715705176 -0.696535291501665 -8.381560984047438 0 0 0
248 50 3 0 -8.902455618606705 -0.7062374027510244 -8.261608399663166 0 0 1
4308 1386 4 0 -8.653623476685285 -0.44555875985775856 -8.453969391868496 0 0 1
4306 1386 2 0 -8.218976777892689 -0.33407963682314323 -8.485776092751982 0 0 1
4307 1386 4 0 -7.7805353259150865 -0.2202093894766411 -8.514175251821307 0 0 1
1572 474 4 0 -7.4173894378866825 -0.13478220898184945 -8.41616993602347 0 1 0
3865 1239 2 0 -6.255585550400286 -1.3380144780557126 -7.889871763458148 0 0 -1
1570 474 2 0 -7.129309127156611 -0.4622653658092186 -8.218547789589977 0 1 0
1571 474 4 0 -6.8654058544464895 -0.7708475153676545 -8.017017625123607 0 1 0
3866 1239 4 0 -6.624433084742219 -1.1061228431106176 -8.008333879462151 0 0 -1
1687 513 2 0 -5.613912034040125 -0.1851940450370108 -8.886634308189349 0 1 0
1688 513 4 0 -5.852419881703507 -0.4724800154429798 -8.677296457282747 0 1 0
378 76 4 0 -5.862120946775248 -0.839643890258846 -8.792016367880109 0 0 0
2077 643 2 0 -7.151512389949977 -10.557472129324573 -7.446218410886099 0 1 0
429 93 4 0 -6.554834826818826 -11.663864046597705 -7.119233992106374 0 1 -1
2798 883 4 0 -4.150404961976778 -11.3653699996445 -6.80206027710059 0 0 0
2797 883 2 0 -4.06237301806103 -11.077370769268509 -6.495869404973156 0 0 0
2799 883 4 0 -3.970453538634865 -10.778873079196572 -6.176313855602652 0 0 0
4443 1431 4 0 -4.138831128974778 -11.495602726078957 -7.167641458000705 1 1 1
2586 812 4 0 -0.025161830335692952 -11.685064730790943 -7.433837324717471 0 0 0
2145 665 4 0 -10.020990168342555 -9.295652253342316 -7.409872218125738 0 1 0
2143 665 2 0 -10.03674732447496 -9.05708137719666 -7.029501917667779 0 1 0
1200 350 4 0 -10.108919761214562 -9.087916206044055 -6.34364267268524 0 0 0
2078 643 4 0 -7.032694705799876 -10.345299183390841 -7.084668593122835 0 1 0
4130 1327 4 0 -6.975841145255038 -10.153471980452046 -6.734331419963721 1 1 0
4129 1327 2 0 -6.988931388450309 -9.703573867027702 -6.666769072435617 1 1 0
4131 1327 4 0 -7.001946530212166 -9.255823687762032 -6.605100474247664 1 1 0
2307 719 4 0 -6.727733564371319 -8.948006824777604 -6.548287203253286 0 1 0
419 90 4 0 -5.038617624307527 -9.70234187522925 -7.3789834377719625 0 0 0
418 90 2 0 -4.918522901927549 -9.69651419877512 -6.950021347575525 0 0 0
420 90 4 0 -4.793330948446388 -9.691492956214773 -6.526954609039101 0 0 0
690 180 4 0 -4.54000624094612 -9.5199570230975 -6.258744205483462 0 0 0
688 180 2 0 -4.260505655130136 -9.231427702462351 -6.099848286323757 0 0 0
3746 1199 4 0 -1.8569291859152486 -10.342269237920917 -6.049683479136595 0 1 0
4439 1430 4 0 -2.9379401914045977 -8.950583302060513 -6.790603834300946 0 1 1
3745 1199 2 0 -2.158885667419829 -10.160067836948995 -6.345793461728014 0 1 0
3747 1199 4 0 -2.43342472391978 -9.990313225727013 -6.620709086329508 0 1 0
4438 1430 2 0 -2.856209189163703 -9.386640142880985 -6.773126561039166 0 1 1
4440 1430 4 0 -2.7721581410106717 -9.808555222467367 -6.7546525498864 0 1 1
2144 665 4 0 -10.068949024614486 -8.810435224467184 -6.639109617080391 0 1 0
2305 719 2 0 -6.371425718285149 -8.683254769112025 -6.410089091098768 0 1 0
2306 719 4 0 -6.021961280535379 -8.407960276253238 -6.274395833777523 0 1 0
684 178 4 0 -5.229991013741011 -7.810399118494558 -5.932464417497887 0 0 0
689 180 4 0 -3.9721122974765515 -8.944857613030115 -5.940207306539376 0 0 0
1541 464 4 0 -3.2495409961908654 -8.721089391239243 -6.702028259074973 0 1 0
1540 464 2 0 -3.05276231379601 -8.330456064771266 -6.578800044965167 0 1 0
1542 464 4 0 -2.854140971024092 -7.930399568315175 -6.438898249766222 0 1 0
3704 1185 4 0 -2.5444443817986726 -7.68386558794469 -6.519212045322459 0 1 1
1691 514 4 0 -11.469694469676904 -6.38315647034144 -6.350836870435315 0 1 0
3019 957 2 0 -10.508835273720326 -7.245196015864489 -7.21863558215235 1 0 0
3020 957 4 0 -10.694961103809298 -7.1051411657105215 -6.7949211722666 1 0 0
1690 514 2 0 -11.110133770851693 -6.658626406490091 -6.3949362035582675 0 1 0
1692 514 4 0 -10.731026570338319 -6.949094646968625 -6.445729686859912 0 1 0
1373 408 4 0 -11.713903920435776 -6.078481816930231 -6.4605370117132 0 1 0
4563 1471 4 0 -3.905064126272792 -7.266688958233267 -7.404503165371904 0 1 1
2825 892 4 0 -3.7561337311491108 -7.415699988656275 -5.8789617534242735 0 0 0
2629 827 2 0 -3.742219048634481 -7.109830941091006 -6.723854799402539 0 -1 0
2631 827 4 0 -3.746304870377767 -7.226314795230623 -6.271298962057111 0 -1 0
2630 827 4 0 -3.741075616960551 -6.983265319858326 -7.16844253342817 0 -1 0
3703 1185 2 0 -2.2794687858400096 -7.320220202966952 -6.527065117282776 0 1 1
3705 1185 4 0 -2.0039897382027023 -6.94916251310938 -6.5287957629864195 0 1 1
453 101 4 0 -1.87598870477771 -6.900305009623825 -6.896540686159669 0 0 0
451 101 2 0 -1.7105400230065995 -6.621800219340759 -7.184173226333045 0 0 0
1372 408 2 0 -11.69955919364754 -5.646733582730732 -6.283305535842909 0 1 0
1374 408 4 0 -11.681885188472396 -5.209733886971288 -6.111117005816374 0 1 0
43 9 3 0 -8.261661043133332 -5.7323322684999045 -7.315734913653264 0 0 0
45 9 3 0 -7.59294803359633 -5.420792229539949 -7.4769830597661375 0 0 0
3964 1272 2 0 -8.183301777105884 -4.908858194844316 -6.309209604923392 1 0 0
3965 1272 4 0 -7.831338062702352 -4.895854652174196 -6.620480511316625 1 0 0
42 9 3 0 -7.9830728118938366 -5.184403332734257 -6.872312709304706 0 0 0
41 9 1 0 -8.019901268088752 -5.33287579975136 -7.3065031589167395 0 0 0
3966 1272 4 0 -8.507968311752773 -4.913455372871937 -6.0229750398112865 1 0 0
446 99 4 0 -7.213901280361724 -5.40305034385536 -7.35505721346565 0 0 0
3958 1270 2 0 -9.907522426276362 -3.047357456002541 -6.250286867819982 1 0 0
3809 1220 4 0 -9.174500307247088 -3.465182866223013 -6.279254618821276 1 0 0
3960 1270 4 0 -9.460056445314972 -3.1958417962824446 -6.250341693952384 1 0 0
98 20 3 0 -8.960669119141976 -3.2193901387524937 -7.082997458328422 0 0 0
96 20 1 0 -8.647885334315008 -3.148927613585087 -7.3916124646567685 0 0 0
99 20 3 0 -8.271079615027057 -2.954365103481014 -7.1864799878886165 0 0 0
3808 1220 2 0 -8.819528859987354 -3.3945544642600347 -6.007755580688616 1 0 0
3574 1142 2 0 -6.142992708991023 -3.0768584144845663 -6.6087789239837385 0 0 0
1758 536 4 0 -6.362349887036004 -3.5572322475553126 -5.986721367797209 0 1 -1
3575 1142 4 0 -6.183867595049963 -3.233061229059669 -6.197941594581843 0 0 0
1756 536 2 0 -6.308945790935007 -4.022720492513922 -5.97374928226137 0 1 -1
3314 1055 4 0 -1.7840163350300369 -3.740055001803289 -6.722808780058894 0 -1 1
1592 481 4 0 -2.0871607694256418 -3.8872769638021185 -6.5068401193908905 0 1 0
1591 481 2 0 -2.2795533158632537 -3.897072679534941 -6.105530806364429 0 1 0
3313 1055 2 0 -1.448746264590026 -3.4511778207818513 -6.892877259919592 0 -1 1
3315 1055 4 0 -1.1317123163845069 -3.1733400261381655 -7.066646569334756 0 -1 1
1544 465 4 0 -11.139417514128937 -2.292691588050731 -6.610085388773635 0 0 0
1543 465 2 0 -10.933610002638778 -2.5682557401778032 -6.345997215334533 0 0 0
2582 811 4 0 -11.255250987286407 -1.9394039685007605 -6.516807218172288 1 -1 0
1545 465 4 0 -10.718038576141165 -2.8522628512891037 -6.07548595621648 0 0 0
2581 811 2 0 -11.391864862913993 -1.6817241293743455 -6.866344470840349 1 -1 0
3959 1270 4 0 -10.351246026542956 -2.9044795190949277 -6.260415742072724 1 0 0
3576 1142 4 0 -6.092130761058532 -2.9104453855474417 -7.035844366582425 0 0 0
410 87 4 0 -5.8125207257974 -1.7814024824329493 -7.432311512192445 0 0 0
409 87 2 0 -5.7998268579934855 -2.2347443361146357 -7.2955190742178235 0 0 0
411 87 4 0 -5.788648359063974 -2.6615620872550085 -7.173590076551095 0 0 0
2772 874 4 0 -0.590833564405341 -1.8208134680518264 -7.138541162474644 0 0 0
838 230 2 0 -0.9339447631960319 -2.465268872109526 -6.875348270571107 0 0 0
839 230 4 0 -0.6793120535894513 -2.098628510939656 -6.882743788984981 0 0 0
840 230 4 0 -1.2056345679875338 -2.8293684331078137 -6.873501966140181 0 0 0
2900 917 4 0 -11.342591746960236 -1.1490215449289591 -7.404513815002024 1 0 -1
2583 811 4 0 -11.540794259496842 -1.4295129547919387 -7.226923458346324 1 -1 0
2010 620 4 0 -0.030273093321466004 -9.209300319874563 -3.061145160187611 0 0 0
3766 1206 2 0 -5.852711520102434 -0.3012847386739631 -6.711715105218627 0 1 0
3262 1038 2 0 -4.829743515465106 -0.7155632995225925 -6.694975387767316 0 0 0
3264 1038 4 0 -5.254900210049567 -0.8858247512826107 -6.741802727462473 0 0 0
3767 1206 4 0 -5.597595445444279 -0.6664118272403863 -6.831757628167375 0 1 0
3263 1038 4 0 -4.416685139296962 -0.5469501810892243 -6.651051544235697 0 0 0
1870 574 2 0 -3.7412986412294265 -0.1997278525812004 -6.764798501423993 0 1 0
1872 574 4 0 -4.045432909564528 -0.411368610084977 -6.552885474882091 0 1 0
3651 1167 4 0 -0.16626402240402866 -0.7607889390553034 -7.290818067756788 0 0 0
2770 874 2 0 -0.5547856491167653 -1.3505241618383321 -7.239060632734679 0 0 0
2771 874 4 0 -0.5229636074414392 -0.945457815694892 -7.338686420669125 0 0 0
4341 1397 4 0 -8.600818457155837 -11.727368810738067 -5.710654647248884 0 1 1
4339 1397 2 0 -8.157589329692703 -11.81203331174171 -5.62267585065518 0 1 1
1613 488 4 0 -3.7400463933611183 -10.518476350678004 -4.924475424825315 0 1 0
1612 488 2 0 -3.76420207565679 -10.631852503483424 -5.406383859354508 0 1 0
1614 488 4 0 -3.785236073676734 -10.728778143693642 -5.826356060798064 0 1 0
1843 565 2 0 -1.5609431370713531 -10.635170332317953 -5.457715671230866 0 1 0
1844 565 4 0 -1.5318097699057605 -10.983277429777274 -5.178898956748485 0 1 0
3721 1191 2 0 -1.3048070987469174 -11.554389717786101 -4.601472680049331 0 1 0
3722 1191 4 0 -1.329338629774079 -11.257793510685875 -4.9460819112203005 0 1 0
803 218 4 0 -9.785565268852709 -9.643521451289079 -5.272398049746938 0 0 0
802 218 2 0 -9.66147090233842 -9.82567605334603 -4.9073802475763495 0 0 0
804 218 4 0 -9.53525731881108 -10.01568163407069 -4.523234943272824 0 0 0
2820 890 4 0 -9.680652804377239 -10.408147427719385 -4.513385724448135 1 0 -1
1198 350 2 0 -10.02794771687138 -9.226586149544978 -5.9066512011518 0 0 0
1199 350 4 0 -9.94709196993741 -9.35803024060472 -5.504943582685951 0 0 0
2415 755 4 0 -3.7631911086188445 -10.310741372780685 -4.596849922496744 0 1 0
1845 565 4 0 -1.6085123902777383 -10.282031966511374 -5.7392039458319495 0 1 0
2001 617 4 0 -0.28344198290151296 -8.985023851101454 -4.9744818427563455 0 0 1
683 178 4 0 -5.893458619102673 -8.425028110007231 -5.89852957922775 0 0 0