LAMMPS data file via write_data, version 19 Nov 2024, timestep = 100000, units = lj

904 atoms
4 atom types
636 bonds
1 bond types
518 angles
2 angle types

-4.999999 4.999999 xlo xhi
-4.999999 4.999999 ylo yhi
-4.999999 4.999999 zlo zhi
0 0 0 xy xz yz

Masses

1 1
2 1
3 0.1
4 0.1

Bond Coeffs # harmonic/omp

1 100 0.45

Angle Coeffs # harmonic/omp

1 100 180
2 100 109.471

Atoms # full

587 163 2 0 -3.316370009250819 -4.222140480656601 -4.175089463587253 1 0 0
589 163 4 0 -3.0991574423349317 -4.455767710333946 -4.485127928521721 1 0 0
645 182 4 0 -2.794196443915193 -4.6512412142715895 -4.689875537538174 1 0 0
129 26 3 0 -1.830795714972207 -4.103515030992945 -4.752132605143141 1 0 0
600 167 4 0 -1.6692319121435104 -4.461120688275184 -4.768114545986776 1 0 0
599 167 2 0 -1.8347284810370037 -4.819339908461476 -4.534079938812443 1 0 0
362 88 2 0 -0.23628118197730075 -4.035038644873102 -4.041090948504586 0 0 1
640 180 4 0 -0.06451005562150769 -0.16520110023479084 -0.2915824271741485 1 0 0
128 26 3 0 -2.1778299617169194 -3.6098267118520404 -4.331700516484649 1 0 0
126 26 1 0 -2.0341987589416735 -3.691467196484009 -4.742885860495325 1 0 0
790 230 4 0 -4.316695848538956 -0.1582709707453569 -3.405360172870545 2 0 0
603 168 4 0 -1.0256488013312866 -2.9601898466011414 -4.114211300188216 1 0 0
364 88 4 0 -0.35271053791681606 -3.663510157033681 -4.319275099892694 0 0 1
1 1 1 0 -0.28621937873740233 -3.0168083045780483 -4.509891392685789 0 0 0
3 1 3 0 -0.07596324177030045 -3.367285519294513 -4.297915874220597 0 0 0
701 201 2 0 -3.4456376575098826 -2.255594556427212 -4.009053386876007 1 0 1
702 201 4 0 -3.2544307240042922 -2.6219395477273313 -4.1945839520557415 1 0 1
735 212 4 0 -2.9757680364743657 -2.563522929577046 -4.505306107581298 1 0 1
734 212 2 0 -2.69486486136333 -2.3250215664833913 -4.757029202109581 1 0 1
706 202 4 0 -4.956520505132718 -4.925530168038852 -1.1143883129756125 1 0 0
2 1 3 0 -0.7482033205423955 -3.014262720481492 -4.389850771386007 0 0 0
5 1 3 0 -0.10424523486486237 -2.623887158901879 -4.381307168840049 0 0 0
192 39 3 0 -3.1443429601522044 -1.126146193301151 -4.452958250914324 1 0 0
703 201 4 0 -3.646027533457105 -1.8765329051003898 -3.831077640828755 1 0 1
631 177 4 0 -1.5513855216727692 -3.0210335761338545 -4.971744304827675 1 0 0
369 90 4 0 -2.8879254492967092 -1.0215057653848816 -4.718900816659114 1 0 1
340 80 4 0 -4.617226615215227 -4.597502982234821 -3.3375438684807106 1 0 0
272 58 2 0 -2.691119453003179 -0.12068010019471664 -0.19681748967641433 1 0 0
588 163 4 0 -3.548211488754635 -3.9856307123041033 -3.848625587443015 1 0 0
815 239 2 0 -1.2982605195107593 -4.391740249224524 -3.1961821664729544 2 1 0
816 239 4 0 -1.2388195128207098 -4.685774720121311 -2.8273618270341023 2 1 0
273 58 4 0 -3.0136515814517333 -0.34379520999194035 -0.4537604917640463 1 0 0
363 88 4 0 -0.12506577942606611 -4.390867844333607 -3.7763265386029548 0 0 1
647 183 2 0 -4.278554560793545 -3.7686326287620866 -3.416651642832634 1 0 0
649 183 4 0 -3.8641790387460913 -3.815390257167135 -3.6795440261016528 1 0 0
648 183 4 0 -4.610405862038936 -3.72899610382456 -3.193821662662953 1 0 0
585 162 4 0 -2.3324085280785525 -3.3933512447429197 -4.014957835279683 1 0 0
584 162 2 0 -2.3176821589641903 -3.199462555898398 -3.6099918475708326 1 0 0
586 162 4 0 -2.2893228641291374 -3.0000562464696285 -3.185160296244517 1 0 0
817 239 4 0 -1.3588489965241681 -4.116810064019102 -3.5299587132284196 2 1 0
604 168 4 0 -1.2551322618907865 -3.7670377728897892 -3.6934472401185956 1 0 0
602 168 2 0 -1.138480284496668 -3.380154562503404 -3.900077460412952 1 0 0
328 76 4 0 -3.2888948956068194 -0.6278268420141773 -0.42171518032606414 1 0 0
633 178 4 0 -4.797766653264171 -1.1453769652615389 -3.678810566425251 1 0 0
632 178 2 0 -4.3407580973817 -1.0081780178464808 -3.8138407657281834 1 0 0
331 77 4 0 -4.9194678327246955 -1.5450005830906903 -3.646280931483339 1 0 0
194 39 3 0 -3.4266444308184756 -1.5513176938452258 -3.9529556362296137 1 0 0
191 39 1 0 -3.2532403878214473 -1.1686173052756494 -4.018286726532844 1 0 0
831 244 4 0 -2.68159934502402 -1.260670810018437 -3.441237498966746 1 0 0
195 39 3 0 -2.8633609844668597 -1.1307916885828004 -3.758808736488811 1 0 0
830 244 2 0 -2.3804488012361147 -1.5570096637905575 -3.296230223275608 1 0 0
832 244 4 0 -2.073812408353265 -1.863704074921849 -3.1448645254907954 1 0 0
634 178 4 0 -3.9411610982926217 -0.8834251314107089 -3.9278633261752764 1 0 0
193 39 3 0 -3.545481093656199 -0.8443550392350758 -3.8988691025164153 1 0 0
145 29 3 0 -1.2348910843481513 -0.21859200651660515 -2.8872849025570075 1 0 0
437 113 2 0 -4.158476170699088 -4.757008571953253 -2.630665577025639 2 1 0
439 113 4 0 -4.379487402554076 -4.63527982458001 -3.0199841923329487 2 1 0
438 113 4 0 -3.938781461184904 -4.890480824394493 -2.2446351765054326 2 1 0
151 31 1 0 -4.727479904481724 -3.6873050790024937 -2.3800420413102175 1 0 0
153 31 3 0 -4.69976650278039 -3.764202472940044 -2.824678144339146 1 0 0
155 31 3 0 -4.757456739205549 -3.230000897583619 -2.3082637870275335 1 0 0
152 31 3 0 -4.373612336777202 -3.837861134634197 -2.1861841850163066 1 0 0
651 184 4 0 -4.613785358581625 -2.903665732173549 -2.1240332099444403 1 0 0
664 188 4 0 -2.0426792272820005 -2.9431624785351156 -2.8733950352987905 1 0 0
662 188 2 0 -1.9605038766910705 -2.5062540785741696 -2.8447243858633744 1 0 0
663 188 4 0 -1.8724093470486918 -2.05841336549184 -2.826273547573721 1 0 0
138 28 3 0 -3.4765511889727527 -1.894407450170391 -2.3204622113920017 1 0 0
623 175 2 0 -0.5530492862099514 -0.8759063717196165 -1.074081582000789 1 0 0
144 29 3 0 -1.6090490535035116 -0.6874667198862614 -2.420860341278337 1 0 0
141 29 1 0 -1.5936480471475067 -0.25800469579495644 -2.5709860313574793 1 0 0
478 126 4 0 -1.9117241937290061 -4.956697959625159 -1.4094888214439 2 1 0
615 172 4 0 -4.274771456226855 -3.7697940662738483 -1.7985364564552815 1 0 0
614 172 2 0 -3.97367126700155 -3.544386927255091 -1.524338776928071 1 0 0
650 184 2 0 -4.327999999721833 -2.5474327740772114 -1.9983856557828719 1 0 0
652 184 4 0 -4.033290955361894 -2.1921057912433572 -1.8829048466534775 1 0 0
139 28 3 0 -3.7203337792688327 -2.1584256704726723 -1.668554938324815 1 0 0
137 28 3 0 -3.0148892690527376 -2.2372466224363197 -1.8442514595765784 1 0 0
598 166 4 0 -2.624775237483736 -2.1881080999239213 -1.7794177662691415 1 0 0
140 28 3 0 -3.2674835959282182 -1.5832745010802745 -1.670732214179917 1 0 0
136 28 1 0 -3.3685001021775607 -1.9677906802147471 -1.8731351516997607 1 0 0
596 166 2 0 -2.2500728512543406 -2.1807498811411876 -1.5688682660859277 1 0 0
597 166 4 0 -1.8468549993553434 -2.1618756178602494 -1.3452743408514185 1 0 0
148 30 3 0 -1.5928826373563525 -1.9298287643840775 -1.1177553617037477 1 0 0
625 175 4 0 -0.12866235666181947 -0.7116606639292984 -1.0482409465187574 1 0 0
616 172 4 0 -3.6550561741004475 -3.3193611357216524 -1.2583399097596533 1 0 0
628 176 4 0 -0.9702273573693354 -2.845391241397101 -0.20134683354385086 1 0 0
626 176 2 0 -0.9894519680525784 -2.4168634270531792 -0.21364577526942075 1 0 0
627 176 4 0 -1.007071439676118 -1.9669115731902886 -0.2161925789199417 1 0 0
325 75 4 0 -4.4280042495548315 -1.1732089925544784 -0.6771768083293086 1 0 0
327 76 4 0 -4.077677720705997 -0.9688668933236322 -0.7466032361055825 1 0 0
323 75 2 0 -4.868694118043308 -1.3426355410405217 -0.7557439034495426 1 0 0
635 179 2 0 -2.619218542275589 -1.5130923969328673 -0.35871660676036665 1 0 0
636 179 4 0 -2.2728420478201588 -1.6218149237870305 -0.638630653032461 1 0 0
146 30 1 0 -1.51508998101697 -1.6422664391028428 -0.8148833441356755 1 0 0
147 30 3 0 -1.9232894004400727 -1.4598121089935852 -0.6853916506023925 1 0 0
149 30 3 0 -1.241822710032206 -1.3098949666730046 -0.9958988648087646 1 0 0
150 30 3 0 -1.3075990492664844 -1.832140967328031 -0.45782848935144393 1 0 0
624 175 4 0 -0.9455610707827828 -1.0272039966313224 -1.0942560954011906 1 0 0
326 76 2 0 -3.696564791703252 -0.805102696155827 -0.5911745224679654 1 0 0
142 29 3 0 -1.9863635419969907 -0.15564858720628116 -2.769582964663912 1 0 0
637 179 4 0 -2.925762156375052 -1.4189194646478853 -0.10438390803991293 1 0 0
4 1 3 0 -0.23580308590269006 -3.0540603560778097 -4.948400966164524 0 0 0
520 140 4 0 -0.013266800485483898 -2.3273601795755705 -4.62357963753353 1 1 1
130 26 3 0 -1.7411480216194613 -3.36345897297827 -4.8718126409214815 1 0 0
904 268 4 0 -0.04037962302206477 -4.9819502775718645 -2.5873888929729847 2 1 1
388 96 4 0 -4.087181695326528 -1.4549980691783366 0.5089754490948453 1 0 0
404 102 2 0 -4.8773951198707675 -1.4956234899862864 0.8772902935591542 1 0 0
406 102 4 0 -4.445638009709508 -1.4334713829107235 0.6931591245413458 1 0 0
386 96 2 0 -3.6779033434177086 -1.4354434467752997 0.2814403378304142 1 0 0
387 96 4 0 -3.2723088104277185 -1.4154770922795792 0.06426985304535293 1 0 0
33 7 3 0 -1.3308177177282503 -0.2012690269993751 3.2009004286662295 1 0 0
219 44 3 0 -4.689307792007101 -0.3565216130229105 0.6905508545770838 2 0 0
220 44 3 0 -4.05825287734873 -0.036833334198407286 0.7602303816744369 2 0 0
244 49 3 0 -0.9759169452853378 -0.9306725292251166 0.883600348457767 1 0 0
747 216 4 0 -0.674554456950168 -0.7205752786050095 0.6982163936080168 1 0 0
746 216 2 0 -0.4213519813599671 -0.5084605469447325 0.3732050921239578 1 0 0
748 216 4 0 -0.1867627812862631 -0.2987969079506083 0.07232027195816126 1 0 0
403 101 4 0 -2.784043847578433 -0.512652277507736 4.030175604736679 1 0 0
398 100 2 0 -4.646287192674696 -1.3624381747275889 4.4717861821870555 1 0 0
724 208 4 0 -4.034761160183022 -4.944429383726176 1.872812083595397 1 0 0
744 215 4 0 -4.789197852409814 -3.184028023258524 1.9100680322743848 1 0 0
400 100 4 0 -4.256599653903717 -1.0937046942169313 4.519951916379131 1 0 0
710 204 2 0 -1.8148480896161057 -1.6562581792789794 1.888012767293941 1 0 0
245 49 3 0 -1.292228519723936 -1.4783424351421504 1.2348572726327482 1 0 0
712 204 4 0 -1.5887832593073132 -1.6635745074444426 1.4648364365929947 1 0 0
241 49 1 0 -0.9499013770808977 -1.1901926290675906 1.2459400020276803 1 0 0
242 49 3 0 -0.5519230798389438 -1.4251967260911438 1.233341211488007 1 0 0
888 263 4 0 -0.21633203978116544 -1.2181355897707147 1.2843692246624299 1 0 0
218 44 3 0 -4.417151180182219 -0.22188261542113352 1.3571398832087231 2 0 0
687 196 4 0 -4.70938614424978 -0.3834016458978642 1.6066597863043262 2 0 0
243 49 3 0 -0.9750151157304847 -0.9342807718921122 1.6170335261921336 1 0 0
127 26 3 0 -2.3750919476025065 -3.6951306919042572 4.985992936146849 1 0 -1
691 197 4 0 -1.0676102462102746 -4.030682568291264 2.412379550985384 1 0 0
670 190 4 0 -1.0576399371833691 -4.391084731388314 2.595592134673618 1 0 0
668 190 2 0 -0.813586337417056 -4.770126776163186 2.5711293169168723 1 0 0
730 210 4 0 -4.336885981420302 -2.9857827756865962 2.6006270645880045 1 0 0
157 32 3 0 -4.5050714796285245 -3.322686901895657 2.6706056273417804 1 0 0
156 32 1 0 -4.939855308913357 -3.399311046132558 2.5989537067897857 1 0 0
401 101 2 0 -2.343468889139242 -0.41578868841843164 4.042063251848302 1 0 0
690 197 4 0 -0.5801468828702445 -3.2855104968062654 2.451489153522611 1 0 0
689 197 2 0 -0.8172673418535537 -3.6358878546921862 2.4357125513743236 1 0 0
162 33 3 0 -0.6808269759336865 -3.069883011295567 2.7668944254433905 1 0 0
353 85 2 0 -3.581329503674816 -0.7727351223106513 4.159542660384726 1 0 0
728 210 2 0 -4.054067032379389 -2.6985969146900572 2.7812531516060464 1 0 0
729 210 4 0 -3.760036286834359 -2.401261135668676 2.961783655570124 1 0 0
47 10 3 0 -2.5591614425099336 -2.333828178500556 2.8413961726277632 1 0 0
164 33 3 0 -0.9973758317791264 -2.431270106383074 2.9407086077837548 1 0 0
607 169 4 0 -1.3525156427236462 -2.2831448855712675 3.0900113588893054 1 0 -1
161 33 1 0 -0.6614765712404527 -2.7069100728073483 3.039729698920154 1 0 0
163 33 3 0 -0.2732601361489202 -2.487396604820134 2.9635431202442826 1 0 0
370 90 4 0 -2.2761132826238892 -1.206789333620058 4.639462724527845 1 0 0
50 10 3 0 -3.0950321125260034 -1.933732437714442 2.427347435671268 1 0 0
46 10 1 0 -2.715924460099832 -1.8966408561666808 2.7202709385620567 1 0 0
49 10 3 0 -2.380323558309822 -1.6711027227585027 2.508642978009523 1 0 0
711 204 4 0 -2.0388296879020174 -1.6508680150631259 2.308145386187179 1 0 0
357 86 4 0 -1.1404430130305547 -0.02541857981060147 2.8946647909459875 1 0 0
897 266 4 0 -4.108984114977374 -4.569531013801541 3.6392193679929674 2 1 0
896 266 2 0 -3.753066412569991 -4.835671411635765 3.6582355245457068 2 1 0
698 200 2 0 -4.9398831221991415 -2.758599968092998 3.4697645818322984 1 0 0
674 192 2 0 -2.2493315605509814 -4.206273944444111 4.042757181794719 1 0 0
676 192 4 0 -1.956085045112303 -3.9802673990925537 3.7770473202231925 1 0 0
612 171 4 0 -2.9915781849221346 -3.0575978664046666 3.777949568864858 1 0 -1
642 181 4 0 -3.0063101427859125 -3.3147551784114104 4.097127677496096 1 0 -1
732 211 4 0 -1.6643170600056756 -3.683903004287627 3.792927385423961 1 0 0
731 211 2 0 -1.2929002311662883 -3.435192283339536 3.6566222577271263 1 0 0
733 211 4 0 -0.9189135713991492 -3.182552264801063 3.5202142406593984 1 0 0
700 200 4 0 -4.628170061480609 -2.6503139971410907 3.804938796757482 1 0 0
673 191 4 0 -4.423015432144025 -2.795368758479716 4.125376987067962 1 0 0
613 171 4 0 -2.5774451265941467 -2.584715508281012 3.1366069489576427 1 0 -1
611 171 2 0 -2.785417886205542 -2.8226010382169036 3.457889661187731 1 0 -1
165 33 3 0 -0.6881297761746934 -2.837467258895965 3.4800719052387725 1 0 0
48 10 3 0 -2.8287485623090047 -1.679647471971263 3.0938008084999096 1 0 0
708 203 4 0 -2.8081317579472613 -1.5535432928228126 3.481268590265878 1 0 0
707 203 2 0 -2.6090330953021126 -1.457323803893693 3.878748755030668 1 0 0
605 169 2 0 -1.6010988791801908 -2.1575424963581558 3.4612659570127766 1 0 -1
606 169 4 0 -1.8539699939042893 -2.029505039957189 3.8266698159446184 1 0 -1
694 198 4 0 -1.640337128651462 -1.985044790055729 4.165777672158442 1 0 0
402 101 4 0 -1.8969283797860417 -0.3262699982246984 4.049503170875082 1 0 0
32 7 3 0 -1.5708254128655894 -0.16967636748189108 3.8927812572328557 1 0 0
240 48 3 0 -4.0604705235707765 -4.5040324571885195 4.6913166374370965 2 1 0
236 48 1 0 -4.338167522967526 -4.2693220125023155 4.429237042570647 2 1 0
239 48 3 0 -4.76657486299629 -4.413528201304714 4.517016532755613 2 1 0
592 164 4 0 -3.9584467202397446 -4.838243167203607 4.883200885727571 1 0 -1
354 85 4 0 -3.156593627432091 -0.6752666213569007 3.9745869897148642 1 0 0
237 48 3 0 -4.22720525831839 -4.356081182871885 3.9600688496547365 2 1 0
646 182 4 0 -2.9040023161457844 -4.445226910167687 4.423034886292039 1 0 -1
644 182 2 0 -2.8419961919053875 -4.548591360428934 4.865122333270132 1 0 -1
675 192 4 0 -2.5279903007071933 -4.42842914606161 4.301544959760668 1 0 0
238 48 3 0 -4.303009855583226 -3.8290194537203854 4.513621738589619 2 1 0
671 191 2 0 -4.445309971995627 -3.1539726775838233 4.423109618952911 1 0 0
672 191 4 0 -4.47755119268598 -3.517813506267013 4.719071212444379 1 0 0
641 181 2 0 -2.8338811961226265 -3.3801510487753994 4.503474948184151 1 0 -1
643 181 4 0 -2.6692456137099456 -3.4465850456696785 4.885649542521631 1 0 -1
355 85 4 0 -4.001882629572571 -0.8699462917782004 4.344304254515069 1 0 0
629 177 2 0 -1.1823410587140297 -3.1291539694865804 4.761442796136925 1 0 -1
630 177 4 0 -0.8233029691161882 -3.224360488285437 4.506265086842009 1 0 -1
216 44 1 0 -4.450943118246911 -0.07470968155085345 0.9349844710477688 2 0 0
709 203 4 0 -2.407234583954113 -1.343690573561601 4.273549393816427 1 0 0
692 198 2 0 -1.8382463976076768 -2.0639285742020155 4.585173402233436 1 0 0
396 99 4 0 -0.0781380982972788 -2.7811946039101283 4.812563659599038 0 0 0
368 90 2 0 -2.5838737460065317 -1.111757588661265 4.961861221528095 1 0 0
736 212 4 0 -2.4169833687604707 -2.095045928988982 4.998353906832036 1 0 0
399 100 4 0 -4.999336858797579 -1.6123076847529587 4.429267265349764 1 0 0
693 198 4 0 -2.0250669782436344 -2.1396902785959355 4.998399544308268 1 0 0
836 246 2 0 -4.439065490331576 0.5206072344918145 -4.972142807798042 2 0 0
837 246 4 0 -4.247510515547964 0.24914291362135277 -4.5863550260637505 2 0 0
789 230 4 0 -4.412681772453627 0.28770696179429844 -4.224260366088425 2 0 0
879 260 4 0 -3.1709307525595865 1.866567641718209 -4.332794737429777 2 0 1
411 104 4 0 -2.6408689994346273 1.4217681097323283 -4.0761750553639065 1 0 1
204 41 3 0 -2.097997564174741 2.0516859621302013 -4.643706681203623 2 0 1
202 41 3 0 -2.776639192408016 1.6988394921974797 -4.36353375175247 2 0 1
336 79 4 0 -1.812037405667875 2.2160047421350715 -4.441939540335872 1 0 0
878 260 2 0 -3.449652134559924 1.812588777698875 -4.0119059443855365 2 0 1
201 41 1 0 -2.545664378853884 2.06789689976003 -4.680860224376016 2 0 1
203 41 3 0 -2.6934355930746436 2.4881551369149904 -4.568047500409805 2 0 1
335 79 2 0 -1.4530530183883377 2.317115066997837 -4.6913379791555085 1 0 0
337 79 4 0 -1.0973361889783182 2.4185181943718552 -4.934145653619983 1 0 0
704 202 2 0 -4.748104323274533 4.807346389654039 -0.7897228130332756 1 -1 0
590 164 2 0 -3.853995118226098 4.910178508986845 -4.757031890995938 1 -1 0
591 164 4 0 -3.7327425149736944 4.63753486985184 -4.378568510897291 1 -1 0
418 106 4 0 -3.808862445833147 4.326249524369948 -4.160316813465077 2 0 0
416 106 2 0 -3.548917352564195 3.941615782378997 -4.120069606838685 2 0 0
869 257 2 0 -1.7443268006523547 4.225572944575386 -4.049728381178575 2 0 1
870 257 4 0 -1.6779513217635174 4.58742408074336 -4.248169800894967 2 0 1
601 167 4 0 -1.9919340345435699 4.833886065880587 -4.299194681274856 1 -1 0
788 230 2 0 -4.3706584691331525 0.07610815757792189 -3.8181706071046264 2 0 0
70 14 3 0 -0.9184587268657589 0.5934018758628179 -0.01421103718312633 1 0 0
254 52 2 0 -2.5174279008715477 0.2527246102484524 -3.209624598162088 1 0 0
255 52 4 0 -2.9089071664242208 0.40482707707980214 -3.36246563986214 1 0 0
261 54 4 0 -1.2045849650519842 0.12927584077614895 -3.134509474072968 1 0 0
451 117 4 0 -0.09951176255124494 0.210094018575969 -3.7306201828315126 1 0 0
260 54 2 0 -0.8628161985872831 0.18904655072033894 -3.38131251884857 1 0 0
262 54 4 0 -0.4943968195810218 0.2587823528808082 -3.6594687259961813 1 0 0
892 264 4 0 -4.793564191069793 2.144381239869083 -3.776471578508773 2 0 1
410 104 2 0 -2.439420727325348 1.495846141154881 -3.6781652249148125 1 0 1
412 104 4 0 -2.230540445799932 1.5811852079037898 -3.271279133992775 1 0 1
378 93 4 0 -2.1968596906811393 1.3569761349512257 -2.9483159339123475 1 0 1
377 93 2 0 -1.7622249403222958 1.3146044688309333 -2.8756259458740936 1 0 1
94 19 3 0 -0.5480714691906767 1.5339276321662725 -3.25180786234452 1 0 0
890 264 2 0 -4.424654719118176 2.022598738004711 -3.5887139190863953 2 0 1
891 264 4 0 -4.032915295010818 1.8910306332452773 -3.399271528813111 2 0 1
880 260 4 0 -3.7453061872053715 1.7599506798603217 -3.6674674768344877 2 0 1
19 4 3 0 -4.528439899152157 3.391595142400768 -4.102104007137159 2 0 1
16 4 1 0 -4.940058265748098 3.531904737525177 -3.970419956561702 2 0 1
764 222 2 0 -3.163055928433203 3.274774619566796 -3.312408566693386 2 0 0
766 222 4 0 -3.354321199874322 3.3710687656404223 -3.7307569459137855 2 0 0
417 106 4 0 -3.296419669352475 3.5906208700039786 -4.0819179805479555 2 0 0
833 245 2 0 -1.9222570166373343 3.7257955770706976 -3.007067650034298 2 0 0
835 245 4 0 -1.8285578767274342 3.8897431866162036 -3.4153878079156668 2 0 0
871 257 4 0 -1.8078945256191163 3.84185873808532 -3.831035490202119 2 0 1
178 36 3 0 -0.06987931063608244 3.7634581625048797 -2.2912836019468243 2 0 0
307 69 4 0 -1.2512278478636443 0.25972388471001473 -2.0807403216557603 1 0 0
143 29 3 0 -1.5161761206294253 0.02653992794553961 -2.2094064790637207 1 0 0
379 93 4 0 -1.3013021178622077 1.2622221976193826 -2.792674748494389 1 0 1
92 19 3 0 -0.9159089938093601 1.202754947987902 -2.6800418637130465 1 0 0
93 19 3 0 -0.23151889361070488 0.9491914035294391 -2.91404868910241 1 0 0
91 19 1 0 -0.49031375175966296 1.3238005171639982 -2.8598552736417355 1 0 0
95 19 3 0 -0.2736626245969198 1.6099427121434031 -2.5674624591072512 1 0 0
800 234 2 0 -0.2739778273466946 2.4007697557958387 -2.69695459835251 2 0 0
801 234 4 0 -0.31440544943966753 1.9951113620708236 -2.5257865640132726 2 0 0
802 234 4 0 -0.2243101614807408 2.846242256452358 -2.8796670222845058 2 0 0
765 222 4 0 -2.9679500259280998 3.189059494345707 -2.892075935365576 2 0 0
184 37 3 0 -2.8933897769248675 3.942981716059694 -2.3490032698002175 2 0 0
185 37 3 0 -3.0746556971325854 3.2233808777670765 -2.5121909629545622 2 0 0
181 37 1 0 -2.7631177531738538 3.4901976265706045 -2.300092240373999 2 0 0
834 245 4 0 -2.0092670146136333 3.5710690611841036 -2.594498298525581 2 0 0
182 37 3 0 -2.360247339161472 3.4270958085720613 -2.488153699833097 2 0 0
804 235 4 0 -0.830346268460354 3.7314721318013353 -2.0622932040154778 2 0 0
177 36 3 0 -0.22408362459586062 3.2139417621970905 -2.7780649663139094 2 0 0
176 36 1 0 -0.39364665818544786 3.5688167191685585 -2.5968554824774093 2 0 0
180 36 3 0 -0.7774242725781866 3.457938055054801 -2.3762034619145425 2 0 0
810 237 4 0 -3.822981188380019 4.744687437557107 -2.247355292012712 2 0 0
809 237 2 0 -3.4492384844347974 4.508612650396695 -2.208751884236164 2 0 0
811 237 4 0 -3.07909251719097 4.274364076409809 -2.166244610289693 2 0 0
617 173 2 0 -0.7866575258556363 4.594803111592227 -2.9463074041529578 1 -1 0
619 173 4 0 -0.49655244827252076 4.22406679184033 -2.969943635857089 1 -1 0
902 268 2 0 -0.05565932663679529 4.890621391129183 -2.144186354533149 2 0 1
179 36 3 0 -0.49112861708250666 3.856352368138899 -2.9103304448589253 2 0 0
305 69 2 0 -0.9159709397678322 0.4390539153693842 -1.8888747530454308 1 0 0
306 69 4 0 -0.5519882127689906 0.6430978106791514 -1.6883951370770047 1 0 0
298 66 4 0 -0.14753879825091598 0.6293711081662074 -1.7519451776731945 1 0 0
443 115 2 0 -1.212156989453745 1.6831488011154727 -1.270542233891459 1 0 0
445 115 4 0 -1.6446465008230748 1.5371897254670817 -1.1732629263261174 1 0 0
444 115 4 0 -0.8185440324818556 1.8218448661652973 -1.3637520988566498 1 0 0
459 120 4 0 -0.682189598810047 2.1829675830708757 -1.5090489966277172 1 0 0
458 120 2 0 -0.25619920701363696 2.3056111809279196 -1.3507085707690898 1 0 0
90 18 3 0 -4.6989458144771925 3.2913168154017187 -1.7648317700359222 2 0 0
827 243 2 0 -3.059291106940525 3.2053970126882616 -1.1842037454905823 2 0 0
828 243 4 0 -3.060435917060639 3.4171590414102733 -1.5875564158924576 2 0 0
183 37 3 0 -2.7530974750133206 3.3864196798474238 -1.856066901774477 2 0 0
803 235 2 0 -0.9794768958549183 3.6543045407307266 -1.653240158052085 2 0 0
805 235 4 0 -1.131429053206788 3.578366101918218 -1.2267264259987534 2 0 0
903 268 4 0 -0.07802920857972051 4.755824617946284 -1.7018116728705497 2 0 1
682 194 4 0 -3.3539139262726714 4.043310559182886 -0.12239867556852246 1 -1 0
762 221 4 0 -2.1147177761927756 3.574118358611467 -0.06574369386171153 2 0 0
761 221 2 0 -2.045849936936949 3.9856309132129644 -0.2678178163160254 2 0 0
618 173 4 0 -1.0619512561987094 4.960276354253309 -2.921178591173237 1 -1 0
322 74 4 0 -2.114973057505384 1.2468195916609401 -0.12246368269171448 1 0 0
320 74 2 0 -2.0407559095015273 1.4532272522687686 -0.53199897365994 1 0 0
321 74 4 0 -1.9638789215980252 1.6670478652913578 -0.9305976756293441 1 0 0
763 221 4 0 -1.9604042967174817 4.398672585786621 -0.4727966286131293 2 0 0
422 108 2 0 -0.2136387623966307 1.9629537871022578 -0.15675510407743865 1 0 0
476 126 2 0 -1.9188417868239482 4.920031223247194 -0.9681199610896014 2 0 0
781 227 4 0 -3.8425957892482683 2.324161399933865 -0.09806811737282839 2 0 0
780 227 4 0 -3.4067291726752753 2.9304242419480557 -0.6379519202407007 2 0 0
779 227 2 0 -3.616323199607259 2.6318960496727444 -0.36789412815157707 2 0 0
256 52 4 0 -2.1047977014587653 0.1015791318198076 -3.0556795855238224 1 0 0
175 35 3 0 -4.185544639369437 3.9051096370913525 -0.694121670578209 1 -1 0
171 35 1 0 -4.0885094654190475 4.076535157160545 -0.27135707185375946 1 -1 0
829 243 4 0 -3.0496721874195045 3.0003961354599253 -0.785870334107079 2 0 0
783 228 4 0 -0.8486596562857533 3.655656504506033 -0.9512476184461818 2 0 0
784 228 4 0 -0.3602841333460889 3.3774311204221723 -0.25573251155569654 2 0 0
782 228 2 0 -0.6051301706901464 3.5088489662500875 -0.6018258007457336 2 0 0
705 202 4 0 -4.547401213598 4.5525325294474746 -0.48573324049635414 1 -1 0
173 35 3 0 -4.39039550928048 4.408573852706801 -0.16498634965770442 1 -1 0
174 35 3 0 -3.6829069443718074 4.241755110213279 -0.2630845735866556 1 -1 0
477 126 4 0 -1.9355834392860283 4.802830234056688 -0.5586183058591221 2 0 0
200 40 3 0 -4.9782156099515324 1.9014942093470388 -4.063981348796829 2 0 0
471 124 4 0 -1.107086322731809 0.19023707581990035 -0.064313231036774 1 0 0
18 4 3 0 -4.935565829942008 3.6137513025167225 -3.529624546537311 2 0 1
750 217 4 0 -4.821815572627386 1.5605825231089288 -0.036242575812432065 2 0 0
820 240 4 0 -4.550463858420712 0.7290613733200226 0.9001553761214796 2 0 0
217 44 3 0 -4.660630663041271 0.3372407846717982 0.9248053322465237 2 0 0
755 219 2 0 -4.877988508101576 2.9505290050122897 4.488638301765202 2 0 -1
767 223 2 0 -3.3792065278843726 0.3151219615960086 0.7001888125115574 2 0 0
37 8 3 0 -4.827146412338492 4.041181409346998 2.8772619524198317 1 -1 0
769 223 4 0 -2.98811383664131 0.4751601178516962 0.4913396766677849 2 0 0
27 6 3 0 -2.7389774538376446 0.735295768841727 0.6652303208464918 1 0 0
26 6 1 0 -2.3439513309137574 0.7651005315195869 0.447505520168229 1 0 0
28 6 3 0 -2.0151722292750893 0.849989690403568 0.7484788382214287 1 0 0
29 6 3 0 -2.265463835542303 0.42208761483640167 0.27477292669031783 1 0 0
343 81 4 0 -1.864986880428809 1.1515873463233506 0.9135074910894163 1 0 0
67 14 3 0 -0.8760518865924256 0.8975493811483881 0.6419736933183424 1 0 0
66 14 1 0 -0.676394927628734 0.8646872387574129 0.24573941049481984 1 0 0
69 14 3 0 -0.26565203325250053 0.686435409186994 0.30939454243258613 1 0 0
751 217 4 0 -4.029017073054062 2.032057053126371 0.06251325699004529 2 0 0
768 223 4 0 -3.7428127288115802 0.16354567854772917 0.9001485132725762 2 0 0
722 208 2 0 -4.182139723250493 4.865152608964176 2.246408572280642 1 -1 0
818 240 2 0 -4.323212546710063 1.1202763518865577 0.9265009905324382 2 0 0
749 217 2 0 -4.425190536862226 1.7971962501185468 0.020761731528764926 2 0 0
30 6 3 0 -2.367752332613843 1.0888498976175187 0.12855920173515045 1 0 0
341 81 2 0 -1.5202494239640894 1.4518310871340177 0.9986112154825681 1 0 0
342 81 4 0 -1.17274835500631 1.744981537343544 1.0871633311990117 1 0 0
68 14 3 0 -0.6479912744520373 1.299335694396225 0.05377975576715066 1 0 0
885 262 4 0 -2.6848329012929786 2.8533774809781685 0.9815649170895124 2 0 0
849 250 4 0 -4.079659287676457 3.69184113390478 0.407964009915216 2 0 0
848 250 2 0 -4.090817566339379 3.438130710106706 0.7863578553212172 2 0 0
172 35 3 0 -4.108817545828066 3.747712512652222 0.034565268627474666 1 -1 0
131 27 1 0 -2.1561554945897616 3.36169853092903 0.6252710506329704 1 -1 0
135 27 3 0 -2.0775722624664823 3.26523428694962 0.17822965259122192 1 -1 0
133 27 3 0 -2.44618587445256 3.685699543630167 0.6553829184112479 1 -1 0
132 27 3 0 -2.3308696717185136 2.983198434599718 0.8315473954105297 1 -1 0
898 266 4 0 -3.4099337750322833 4.896304861243716 3.6710238594303144 2 0 0
134 27 3 0 -1.7635281735511636 3.4804739957699455 0.827307728333551 1 -1 0
684 195 4 0 -1.5692460968761024 3.8150217798165373 0.8514308928851859 1 -1 0
545 149 2 0 -0.46045625985725014 2.9550389511039574 0.44401712616340916 1 0 0
546 149 4 0 -0.5623101467490628 2.824722131431817 0.8620057142455346 1 0 0
680 194 2 0 -3.0496729044028443 3.98120304137045 0.21780194722293356 1 -1 0
551 151 2 0 -0.24656762835698753 3.513478013732258 4.570647499402727 1 0 0
681 194 4 0 -2.758410508755406 3.909531894130324 0.5424260575102435 1 -1 0
683 195 2 0 -1.1946226439754555 4.084423992254732 0.7710180561190407 1 -1 0
685 195 4 0 -0.846380018578686 4.331258403870424 0.6831997543590731 1 -1 0
547 149 4 0 -0.3595195223499008 3.0859926042311008 0.04013645778571551 1 0 0
573 158 4 0 -0.45939896095242183 4.486768966503203 0.7895681773838099 1 0 0
448 116 4 0 -0.7912215945260188 0.6356505638906258 0.9193729246520981 1 0 0
447 116 4 0 -0.8641980379590404 0.28181335991331125 1.7750897385586368 1 0 0
446 116 2 0 -0.8339119982858518 0.4551990936217365 1.3506017618073516 1 0 0
819 240 4 0 -4.0821544608541265 1.514159546375132 0.9457147715422032 2 0 0
223 45 3 0 -3.9572772602573862 1.6031218368819236 1.2904239103017767 2 0 0
225 45 3 0 -3.7238293227339367 1.8639951007769477 1.8956532462428903 2 0 0
120 24 3 0 -0.8625588486884235 1.9977237734108906 1.059289523118581 1 0 0
462 121 4 0 -0.5117905676920964 1.4798697952548174 1.987817080550431 1 0 0
118 24 3 0 -0.5466859311311261 1.5622032527093115 1.575504865156745 1 0 0
874 258 4 0 -4.764126548621794 1.8636049575827522 1.793191671042245 2 0 0
222 45 3 0 -4.395702778988741 2.007103791277957 1.7147183689303578 2 0 0
221 45 1 0 -3.9710881241681526 1.9380977323939872 1.5701600521172843 2 0 0
224 45 3 0 -3.8219964045579555 2.3055462697757214 1.3587298976947517 2 0 0
886 262 4 0 -3.4924381213968267 2.525850264100767 1.3249056008418298 2 0 0
884 262 2 0 -3.0813920957761507 2.6940663353843677 1.1518050158930766 2 0 0
852 251 4 0 -0.9817730229440134 2.5315291868008325 2.020067873068351 2 0 0
119 24 3 0 -0.7634529299087278 2.2525353767493934 1.744589814368049 1 0 0
116 24 1 0 -0.5823226558390067 1.9957543716354609 1.416682578161386 1 0 0
117 24 3 0 -0.19323358545701108 2.1285103560285714 1.3046502590410958 1 0 0
723 208 4 0 -4.332406362100169 4.654627663529896 2.634503579641975 1 -1 0
850 250 4 0 -4.1082362305944145 3.188060477023801 1.1739588148107067 2 0 0
109 22 3 0 -4.2154467731277645 3.4321476208800012 1.4375596444794594 2 0 0
106 22 1 0 -4.068873646183674 3.326340781980085 1.8537956467556258 2 0 0
868 256 4 0 -0.44073019773367594 3.630933781125969 1.8051213349855209 2 0 0
867 256 4 0 -0.6347434542502413 3.082028313712134 1.1433033499833938 2 0 0
866 256 2 0 -0.5386600347936046 3.3587704349950434 1.4786289071118714 2 0 0
358 86 4 0 -1.1137200231391637 0.05096327712899651 1.9618237411181676 1 0 0