LAMMPS data file via write_data, version 19 Nov 2024, timestep = 100000, units = lj

904 atoms
4 atom types
636 bonds
1 bond types
518 angles
2 angle types

-4.999999 4.999999 xlo xhi
-4.999999 4.999999 ylo yhi
-4.999999 4.999999 zlo zhi

Masses

1 1
2 1
3 0.1
4 0.1

Bond Coeffs # harmonic/omp

1 100 0.45

Angle Coeffs # harmonic/omp

1 100 180
2 100 109.471

Atoms # full

863 255 2 0 -3.657385540230499 -3.4518785024460956 -4.399102610916861 1 1 1
864 255 4 0 -3.616198006731092 -3.852854226968781 -4.187685207994392 1 1 1
904 268 4 0 -3.393528398520047 -4.1541925955377845 -4.356038935898458 1 1 1
902 268 2 0 -3.3466143423851986 -4.485345333779304 -4.673390460738877 1 1 1
278 60 2 0 -1.7022349423455 -3.3614002417997257 -3.3382003588032156 0 0 0
7 2 3 0 -1.3120653553151786 -3.531433267406711 -4.8662687111554215 0 0 0
393 98 4 0 -0.9527676643372821 -3.567613887735254 -4.983547617947916 0 0 1
256 52 4 0 -1.0650425285620062 -1.1771753531874645 -0.6987162263486792 0 0 0
418 106 4 0 -0.12105272847663572 -4.846582038936868 -4.568902126759382 0 1 0
44 9 3 0 -3.6257343765866734 -2.0244972542650315 -4.862444653515591 0 0 1
42 9 3 0 -3.836040543076271 -2.705154820442264 -4.751503082463445 0 0 1
865 255 4 0 -3.7022741597929416 -3.0515423580884486 -4.606620176905837 1 1 1
41 9 1 0 -3.907313943924764 -2.3330354976764602 -4.994185541179899 0 0 1
43 9 3 0 -4.342380391582854 -2.1962744414393023 -4.938044535673877 0 0 1
280 60 4 0 -1.7123757577773864 -3.3151129574495193 -3.8026067682472364 0 0 0
9 2 3 0 -1.5214526471377245 -3.404770952321559 -4.153169214498868 0 0 0
8 2 3 0 -1.6668708071486162 -2.9286871543618376 -4.691587690582024 0 0 0
145 29 3 0 -1.652792865880602 -1.9874032793548013 -3.6033000354091795 0 0 0
142 29 3 0 -1.1577721616145233 -1.4316011709052026 -3.6900793618292678 0 0 0
6 2 1 0 -1.3650559727885254 -3.2138682950248967 -4.54787027183641 0 0 0
10 2 3 0 -0.9909647189771872 -2.996251055369874 -4.4717081914972185 0 0 0
330 77 4 0 -0.6497216860903832 -3.137906655502767 -4.31557277506083 0 0 0
329 77 2 0 -0.46018524274643163 -2.867295777917725 -3.9867183284062726 0 0 0
331 77 4 0 -0.27796751936685443 -2.59950671811587 -3.655441354176851 0 0 0
633 178 4 0 -0.1428094289287015 -2.1968263390096197 -3.5813765277906984 0 0 0
141 29 1 0 -1.4313002429014339 -1.6506079559186002 -3.3908959104789385 0 0 0
519 140 4 0 -4.806130208400215 -4.2291673800820675 -1.3741730798244483 0 1 1
377 93 2 0 -3.4055772429479414 -0.16376565032060744 -4.1979140295820745 0 0 1
378 93 4 0 -3.2165445904404453 -0.3923358425667553 -4.527182589667523 0 0 1
412 104 4 0 -2.867736575105775 -0.5525756955979879 -4.437106972401092 0 0 1
639 180 4 0 -0.3687153723582958 -0.5450222401495043 -0.5831268975821273 0 0 0
410 104 2 0 -2.6100834103913164 -0.6182175311052681 -4.801155124902023 0 0 1
144 29 3 0 -1.7349056433337962 -1.3606860669339746 -3.2089082814157424 0 0 0
368 90 2 0 -0.48902822042138505 -0.8586416224465355 -4.396396724442717 0 0 1
369 90 4 0 -0.22106042285665414 -0.6774087242718793 -4.0390217434154945 0 0 1
370 90 4 0 -0.7565779196906488 -1.0471113227714075 -4.75196020326779 0 0 1
296 66 2 0 -0.761203191790206 -0.8343103278707837 -1.2525643751589473 0 0 0
362 88 2 0 -3.952537087414629 -3.526438421817925 -3.221669493713715 0 0 1
2 1 3 0 -4.707284509141665 -4.675845754607395 -3.282708432535445 0 0 0
364 88 4 0 -4.422290732543283 -3.635992830693007 -3.1966125850286677 0 0 1
3 1 3 0 -4.564643845703211 -3.9773962129128413 -3.0876720318475206 0 0 0
1 1 1 0 -4.752217443832006 -4.355977668014213 -2.9460676882513823 0 0 0
5 1 3 0 -4.549206652824231 -4.497740030479607 -2.570394268375777 0 0 0
520 140 4 0 -4.769518116925141 -4.5317374873412275 -2.242808999224007 0 1 1
518 140 2 0 -4.783772947992146 -4.384651471225536 -1.8328033645573139 0 1 1
473 125 2 0 -2.290498191640811 -3.5150582511085484 -2.0782837553264395 0 1 0
474 125 4 0 -2.3976462868006245 -3.9719226667646117 -2.1924767491453965 0 1 0
415 105 4 0 -2.1890977390740534 -4.322706536278593 -2.2008530986621833 0 1 0
413 105 2 0 -2.076977567749928 -4.570421521043634 -1.8706198724348067 0 1 0
340 80 4 0 -0.15183481883868635 -3.970581662791742 -3.084440391945143 0 0 0
281 61 2 0 -1.1183824014973256 -3.861379229914582 -2.535224315559473 0 0 0
282 61 4 0 -0.9126507891499192 -4.078589209134126 -2.195746489030752 0 0 0
283 61 4 0 -1.346479091195843 -3.631734423472895 -2.8995444915801456 0 0 0
279 60 4 0 -1.6929730915290138 -3.4050334374246876 -2.8908901813869776 0 0 0
439 113 4 0 -0.04411777838444598 -4.390269794987039 -2.2864507686701327 0 1 0
363 88 4 0 -3.5143060077645694 -3.4212229816758573 -3.245389189396149 0 0 1
475 125 4 0 -2.1966733826427203 -3.1011210157919677 -1.9747963091670717 0 1 0
310 70 4 0 -2.7033539774496282 -2.018798516646449 -1.644386667188785 0 0 0
143 29 3 0 -1.1654435896942839 -1.8340535940745137 -3.053510718226499 0 0 0
307 69 4 0 -1.153247016429111 -1.6727931484791272 -2.7003794638510077 0 0 0
14 3 3 0 -3.978469503091414 -1.45268414628002 -2.4043706147904045 0 0 0
11 3 1 0 -3.954123674776025 -1.1384725552950667 -2.0734426276576507 0 0 0
15 3 3 0 -4.259206579186493 -0.8177371576766946 -2.143668645143743 0 0 0
257 53 2 0 -4.659211803541531 -0.222401311264741 -1.7905886615411641 0 0 0
258 53 4 0 -4.549371469419217 -0.6644653780641246 -1.8974792417688948 0 0 0
12 3 3 0 -4.032330287418226 -1.3278970797449074 -1.6744142332104766 0 0 0
13 3 3 0 -3.5399628405891916 -0.9545869291391643 -2.0745828635487307 0 0 0
318 73 4 0 -3.1240855199360853 -0.9906913926083217 -2.0857585833382815 0 0 0
317 73 2 0 -2.9067221008147675 -1.2986716830707086 -1.8406408665319038 0 0 0
261 54 4 0 -2.6108108671249464 -0.3696472410109499 -2.6784395685459916 0 0 0
260 54 2 0 -2.405496633513185 -0.012532677677385534 -2.8174573546534694 0 0 0
319 73 4 0 -2.6869491872747684 -1.607902995846141 -1.5869676576436842 0 0 0
306 69 4 0 -1.0113432813771812 -1.3967086336832886 -1.862167013695911 0 0 0
305 69 2 0 -1.0808409931374319 -1.5379903515458262 -2.2895024678687292 0 0 0
298 66 4 0 -0.9045767961318849 -1.0751582414467378 -1.6238925668386515 0 0 0
254 52 2 0 -1.2830882679735456 -1.5514825713297429 -0.5134879860570065 0 0 0
57 12 3 0 -3.5193766166960785 -4.840858229420337 -0.40856096568182826 0 1 0
414 105 4 0 -1.9420749034963416 -4.842418420331498 -1.508664180450683 0 1 0
464 122 2 0 -2.3799429785329003 -4.7854023295819035 -0.35956777564300074 0 1 0
465 122 4 0 -2.7374048545542697 -4.556249480038586 -0.2004919456421167 0 1 0
102 21 3 0 -1.6067884058389872 -4.84589876032736 -1.3070718479817127 0 1 0
105 21 3 0 -1.299243783406749 -4.990829689827921 -0.650220545796199 0 1 0
786 229 4 0 -1.0115720132603663 -4.120897474349213 -1.7944299828306425 0 1 0
312 71 4 0 -1.3837787136289958 -4.686786893855536 -0.4155365049316246 0 0 0
785 229 2 0 -1.1089616778448559 -3.8352924267145796 -1.4208632255372544 0 1 0
311 71 2 0 -1.0115296996296215 -4.581492033039016 -0.17309111009182598 0 0 0
787 229 4 0 -1.1990249318822466 -3.544960518043477 -1.0710599955923445 0 1 0
315 72 4 0 -3.4214658154709103 -2.3391186595575424 -0.001794792072662293 0 0 0
325 75 4 0 -3.1649189954612043 -2.2318448430660003 -0.3287299499897563 0 0 0
323 75 2 0 -3.4321026766503833 -2.021522914042246 -0.6538795215935442 0 0 0
308 70 2 0 -2.5624900394081296 -2.4159695504286325 -1.7261205512673947 0 0 0
309 70 4 0 -2.4268668599570438 -2.8230361771426113 -1.8143681582733948 0 0 0
324 75 4 0 -3.678682646498118 -1.8186588475626195 -0.9553284796254805 0 0 0
406 102 4 0 -1.6759978311895676 -2.079723479945363 -0.03554052002207545 0 0 0
297 66 4 0 -0.6169841983600315 -0.6021474321972689 -0.887492017726622 0 0 0
255 52 4 0 -1.50438587278242 -1.9193294409453108 -0.34144294276242065 0 0 0
388 96 4 0 -1.0050358147931924 -2.3954130258758735 -0.07499812075590723 0 0 0
321 74 4 0 -4.230302998070104 -1.0894639761703322 -1.4390056746183584 0 0 0
320 74 2 0 -4.29634131138441 -1.0114090926340256 -1.0031811259268923 0 0 0
322 74 4 0 -4.3746536432932785 -0.9211851888403625 -0.5567063827804324 0 0 0
30 6 3 0 -4.414517408128056 -0.969891258762224 -0.1556833981100421 0 0 0
472 124 4 0 -1.8300574262753182 -0.25383421908735804 -0.0267620750581037 0 0 0
470 124 2 0 -1.7002084125916892 -0.05775303979709786 -0.4256641339455297 0 0 0
638 180 2 0 -0.050933402309189524 -0.592209995176683 -0.2685812741444424 0 0 0
903 268 4 0 -3.2860224469995614 -4.809507081643957 -4.981066234609185 1 1 1
399 100 4 0 -1.9236667489786012 -2.6311745629926415 -4.781699392006993 0 0 1
302 68 2 0 -3.9594125240622713 -3.773001166268206 0.2884840257391391 0 0 0
304 68 4 0 -3.8828078021820236 -3.3794148973872615 0.4052523132629916 0 0 0
303 68 4 0 -4.042015385981021 -4.1828068426214315 0.17281234567548126 0 0 0
58 12 3 0 -3.742417180054588 -4.478567494528099 0.19259649439333015 0 1 0
407 103 2 0 -2.1249967235392244 -4.237733238075943 0.8594282341439828 0 0 0
408 103 4 0 -2.1668895442398917 -3.898121444736208 1.1260538886806017 0 0 0
54 11 3 0 -2.178859407519191 -3.9396032495616002 1.5251438022072625 0 0 0
409 103 4 0 -2.086549120150548 -4.6106331373734735 0.585624368244848 0 0 0
113 23 3 0 -2.0904263929665556 -4.903325975407801 0.33388710566439866 0 1 0
60 12 3 0 -3.0410373384986866 -4.554407331482044 0.05212764772022105 0 1 0
366 89 4 0 -0.6332243683668141 -3.6136520347486893 1.199069041193478 0 0 0
276 59 4 0 -0.8889401261604643 -3.911396042815074 1.1871730374676221 0 0 0
275 59 2 0 -0.7487880211024006 -4.171844007888588 0.8310194859719745 0 0 0
277 59 4 0 -0.6069887089995976 -4.443236962314737 0.469462743169606 0 0 0
313 71 4 0 -0.6312485631589158 -4.476324417272144 0.0711532984989579 0 0 0
316 72 4 0 -3.9349332764818223 -3.005407667534015 0.36156594499426165 0 0 0
314 72 2 0 -3.679989758280882 -2.672107688726291 0.17746995922260747 0 0 0
169 34 3 0 -4.943823022323029 -1.806080393449998 1.6719391944373039 1 0 0
404 102 2 0 -1.6583814308859353 -2.3086077956939004 0.3662588297947371 0 0 0
405 102 4 0 -1.6437690574464614 -2.5250418897691733 0.7522141817770563 0 0 0
284 62 2 0 -1.9061233491336713 -2.693414573132446 1.3623670647909956 0 0 0
286 62 4 0 -1.9479187570179552 -2.4289018320487608 0.9821491702678714 0 0 0
53 11 3 0 -1.8798220891632216 -3.3158344263342943 1.7226419074533366 0 0 0
285 62 4 0 -1.8618765915705155 -2.933508566888817 1.7144364606941531 0 0 0
365 89 2 0 -0.45910233966654923 -3.309980183256619 1.3847987319268515 0 0 0
387 96 4 0 -0.1648776982957758 -2.7023320016941335 0.08053605994381417 0 0 0
327 76 4 0 -3.7157116690932903 -1.2194406404650997 0.5939089205403842 0 0 0
326 76 2 0 -3.3141141261187856 -1.3077994398380453 0.5293390685764829 0 0 0
27 6 3 0 -4.7668624607461085 -0.9002526402859018 0.5178586003428647 0 0 0
385 95 4 0 -4.879318392378681 -1.466204375148617 1.4731865992958397 0 0 0
28 6 3 0 -4.309954804975278 -0.37167530358336337 0.2737332735879115 0 0 0
294 65 4 0 -0.03511512362747436 -3.976401556859407 4.498392984291336 0 0 -1
26 6 1 0 -4.374380279961407 -0.8157787547368264 0.2838016760251529 0 0 0
29 6 3 0 -4.036562432427255 -1.0093581884371254 0.4907040020001402 0 0 0
328 76 4 0 -2.8734515223739123 -1.4147668540068206 0.4568603387538922 0 0 0
273 58 4 0 -2.5627897589403665 -1.155308818859013 0.4717042595514711 0 0 0
272 58 2 0 -2.292779759284123 -0.8187745363306757 0.22768666990931025 0 0 0
274 58 4 0 -2.0716844582741896 -0.5492293258489599 0.019213022502811813 0 0 0
244 49 3 0 -0.37792859843472626 -0.634850385525152 1.3326605848810487 0 0 0
714 205 4 0 -4.6177901736216045 -4.2971431892071195 1.8133177818321429 1 0 0
713 205 2 0 -4.8265460369688835 -4.463152734312822 2.1735865703048862 1 0 0
348 83 4 0 -4.273084868160179 -3.2266493885735135 2.6884208625088086 0 0 0
347 83 2 0 -4.105776973904871 -3.310565552122995 3.1238732281172736 0 0 0
707 203 2 0 -0.7620146468696295 -0.9771948704862959 4.434714729629943 0 0 0
877 259 4 0 -4.750356198377435 -4.888033785586051 2.659823390987692 1 1 0
51 11 1 0 -2.135049642304407 -3.6637994267532474 1.8518185511475362 0 0 0
55 11 3 0 -2.547496288905399 -3.501978087665958 1.9739122245610472 0 0 0
52 11 3 0 -1.941778746079449 -3.8832494135323725 2.2119551595480007 0 0 0
381 94 4 0 -1.5468773301792542 -3.9828281945557986 2.273717212773266 0 0 0
380 94 2 0 -1.3599157544704854 -4.014967795591762 2.698956161682778 0 0 0
382 94 4 0 -1.1682210693863944 -4.05481296875933 3.1269499011722957 0 0 0
742 214 4 0 -4.198458398675073 -3.189104612525993 2.299029520333999 1 0 0
741 214 4 0 -4.864952205774727 -2.716556705312612 1.9267402602047325 1 0 0
46 10 1 0 -0.8838609837642891 -0.6696776060887892 3.2844379015037806 0 0 0
740 214 2 0 -4.524498784703808 -2.95766294956842 2.113678467146755 1 0 0
372 91 4 0 -2.9758682012914206 -2.2881828550858576 3.2169858744779605 0 0 0
371 91 2 0 -2.8507792034900326 -2.2817912549744626 2.7716007971934253 0 0 0
373 91 4 0 -2.716870410695106 -2.275986760716501 2.3164815613356775 0 0 0
367 89 4 0 -0.26040166796757025 -2.97223737049821 1.5897074160181353 0 0 0
745 215 4 0 -0.035502867764859725 -2.687826124779362 1.4245295165135523 0 0 0
21 5 1 0 -4.2131438263344005 -0.6423236819309607 2.5811394947695545 0 0 0
23 5 3 0 -4.140878838017663 -0.19941208687327885 2.568999587805438 0 0 0
383 95 2 0 -4.597390997998618 -1.2044464983963379 1.6367903103462471 0 0 0
384 95 4 0 -4.300583350603496 -0.919921324544877 1.7934367644218725 0 0 0
24 5 3 0 -4.200831529411764 -0.808272808574664 2.167662273391919 0 0 0
22 5 3 0 -3.900945533410101 -0.8201258827910031 2.809998120384004 0 0 0
25 5 3 0 -4.600849681823287 -0.7227117428230003 2.7685087622539983 0 0 0
559 153 4 0 -3.4447837368234087 -0.9877680305847186 3.564981758389215 0 0 0
401 101 2 0 -2.0350122150263936 -1.1623712831860704 2.9420086864778776 0 0 0
402 101 4 0 -2.0400436203612244 -0.852359600433304 2.605411440821269 0 0 0
403 101 4 0 -2.032282622597598 -1.4551163670712368 3.2734845699402486 0 0 0
32 7 3 0 -2.181096599745582 -0.4597206326270959 2.606133886246403 0 0 0
243 49 3 0 -0.23800938650104633 -0.4575723542099546 2.028789589828006 0 0 0
708 203 4 0 -0.6254586555552156 -0.8472629083248517 4.05842361177468 0 0 0
245 49 3 0 -0.4515613062945822 -1.145854138100938 1.8633868341647593 0 0 0
712 204 4 0 -0.6623928534898309 -1.4637674570984827 2.031145672892832 0 0 0
710 204 2 0 -0.78672748656621 -1.4360913868387908 2.4596493023858907 0 0 0
711 204 4 0 -0.9170168871683972 -1.4023447399105065 2.928073242755128 0 0 0
49 10 3 0 -0.9308632287595997 -1.0643367285490486 3.1161847702637875 0 0 0
241 49 1 0 -0.21252132549803526 -0.7847497110775895 1.7178176791522268 0 0 0
50 10 3 0 -0.5055753271859801 -0.4720033075343941 3.118810456077356 0 0 0
352 84 4 0 -3.5691332144865036 -3.537606037346531 3.6088783097545494 0 0 0
350 84 2 0 -3.285441703118943 -3.658277481327006 3.90493431133167 0 0 0
349 83 4 0 -3.944068965069159 -3.3946423008641937 3.553847599393187 0 0 0
31 7 1 0 -1.9748123889907416 -0.052569829693169035 2.5775493198704718 0 0 0
529 143 4 0 -2.3455183417094907 -4.863827198123024 4.0836300059554285 0 1 0
351 84 4 0 -2.9828779263832774 -3.7894790990690006 4.20432711102044 0 0 0
528 143 4 0 -2.8174004376353214 -4.132260393859398 4.3102841502994655 0 1 0
527 143 2 0 -2.5894286824243267 -4.489801585955319 4.207087821417834 0 1 0
345 82 4 0 -0.9027520924696009 -4.160986469761745 3.4140156341983796 0 0 0
344 82 2 0 -0.7408286647729041 -4.519127143673609 3.6190630543933255 0 0 0
346 82 4 0 -0.572200230667536 -4.8896204678988 3.833695460828833 0 0 0
394 98 4 0 -0.36987108301821875 -4.121946397648618 4.608243811555798 0 0 0
45 9 3 0 -3.8286612685473553 -2.428319454719745 4.53820915401914 0 0 0
717 206 4 0 -3.678569201921635 -2.2354924158434097 4.254027636892705 1 0 0
716 206 2 0 -3.425934548864656 -2.278828283784616 3.8998493212915952 1 0 0
718 206 4 0 -3.167889466808112 -2.3159811270896737 3.548486571557837 1 0 0
397 99 4 0 -4.599803825163983 -2.395907680775894 4.821474270208571 0 0 0
355 85 4 0 -1.8972402252077067 -1.7248460315383707 4.5256668721165525 0 0 0
400 100 4 0 -1.9161470996221772 -2.1223153799952996 4.567278308994168 0 0 0
398 100 2 0 -1.9177668176826075 -2.3832475103309942 4.896543086101623 0 0 0
35 7 3 0 -1.648009541733415 -0.03427206251404996 2.9002719908930636 0 0 0
557 153 2 0 -3.274812579909247 -0.607630323046845 3.5177252439929134 0 0 0
48 10 3 0 -0.8331354850826708 -0.707906147276839 3.746698052222896 0 0 0
353 85 2 0 -1.9215045663584824 -1.6019295111530487 4.085749182957138 0 0 0
354 85 4 0 -1.9480608577800302 -1.4733230716613435 3.651902436498817 0 0 0
558 153 4 0 -3.0886227779547686 -0.19230909366577656 3.458719946778171 0 0 0
47 10 3 0 -1.2424950426565906 -0.4062625340722743 3.1890053910539646 0 0 0
709 203 4 0 -0.910763598223886 -1.120701437860089 4.863557808585358 0 0 0
392 98 2 0 -0.6769067164437863 -3.837952643189438 4.81823418955169 0 0 0
411 104 4 0 -2.3500761824378227 -0.6875453394941923 4.8415214380951594 0 0 0
56 12 1 0 -3.417002990603485 -4.745938883458208 0.02297019906224782 0 1 0
386 96 2 0 -0.5825734584264308 -2.5470959372235606 0.008237164441376106 0 0 0
95 19 3 0 -4.3573034727575015 0.8572980080475784 -3.5167648562084803 0 0 0
91 19 1 0 -3.9020407886481374 0.7545483231871695 -3.525031393924732 0 0 0
94 19 3 0 -3.697599222303962 1.029198635832601 -3.8415544448920516 0 0 0
531 144 4 0 -3.474543972499415 1.332090041369512 -3.8402687422971438 0 0 1
92 19 3 0 -3.837313610597514 0.325083413151215 -3.642944136585959 0 0 0
530 144 2 0 -3.0423038283503483 1.4441504148769284 -3.909148130881874 0 0 1
449 117 2 0 -1.7667872353541314 0.8682139565261864 -3.3332308336486833 0 0 0
62 13 3 0 -1.7114746438329667 1.5635713391723485 -3.795038608657866 0 0 0
450 117 4 0 -1.7072065255715558 1.2368288701974364 -3.6039251904387886 0 0 0
16 4 1 0 -0.26766853080192604 0.6098823312688438 -3.6824876655054326 0 0 1
19 4 3 0 -0.0023680137115142715 0.5396475615306453 -4.050603640509097 0 0 1
18 4 3 0 -0.33625255896912265 1.0375897431151277 -3.6340670142683864 0 0 1
441 114 4 0 -0.6425774215626266 1.2569661302655042 -3.4352726484107405 0 0 0
532 144 4 0 -2.609158518014491 1.5513537455254716 -3.9715269666240136 0 0 1
20 4 3 0 -0.6386902390377927 0.40496716605294397 -3.7342781054267458 0 0 1
524 142 2 0 -2.9769695090588084 2.2253944118471205 -4.910408877050281 0 0 1
97 20 3 0 -3.1205363837637385 2.938537311491096 -4.543152929735794 0 0 0
61 13 1 0 -1.9431904521763683 1.9209164710813957 -3.7722706310277525 0 0 0
521 141 2 0 -1.9179154207458369 2.8112964952968014 -4.45392174153869 0 0 1
65 13 3 0 -1.7740869343169972 2.2313651447093275 -4.068090568220707 0 0 0
523 141 4 0 -2.020739097085473 2.5737754703758537 -4.086817926197611 0 0 1
525 142 4 0 -3.104751062835644 2.5674800172944776 -4.684765354927102 0 0 1
96 20 1 0 -2.949397497819093 3.360120853898223 -4.470838465825936 0 0 0
63 13 3 0 -2.3702236230574165 1.824009219972459 -3.880917992311928 0 0 0
100 20 3 0 -2.537019008250229 3.3783612212677396 -4.601319856090775 0 0 0
64 13 3 0 -1.9264633496921435 2.078743539150308 -3.3754253792631714 0 0 0
522 141 4 0 -1.8167804195149895 3.0471167533459718 -4.8203174755219464 0 0 1
88 18 3 0 -0.9814304485818479 2.7366805559627023 -3.6305312815395636 0 0 0
87 18 3 0 -0.27368269288842456 2.8719799303357267 -3.666240345391882 0 0 0
560 154 2 0 -3.7037626584558003 3.558884376434526 -3.6749523609472576 0 0 1
562 154 4 0 -4.022665714892777 3.6513742326972474 -3.3667486546292773 0 0 1
561 154 4 0 -3.375688759213183 3.464355937738174 -3.9872711746776304 0 0 1
98 20 3 0 -3.2017284312008965 3.6535186980078107 -4.718615591198761 0 0 0
99 20 3 0 -2.9780038004804648 3.4743446457102722 -4.025226688604422 0 0 0
379 93 4 0 -3.6025267679816695 0.0856038628307058 -3.8410292369363876 0 0 1
790 230 4 0 -4.645311548757467 1.034518836953429 -3.2963041559434334 1 0 0
93 19 3 0 -3.7282696397727006 0.8272180705344221 -3.126780484593218 0 0 0
445 115 4 0 -3.755898875755664 0.6795025696900128 -2.7455995152395505 0 0 0
443 115 2 0 -3.936886663265017 0.9674069411199191 -2.449866209033716 0 0 0
444 115 4 0 -4.118269173085098 1.2509317726008191 -2.1658229920306855 0 0 0
459 120 4 0 -3.975574558710152 1.4737594165102121 -1.8624123093892304 0 0 0
84 17 3 0 -4.752743049946318 0.5640669143234304 -1.5790657636924559 0 0 0
451 117 4 0 -1.8287845435935963 0.4869792177115953 -3.043680093520325 0 0 0
262 54 4 0 -2.2025659418601897 0.3589724318069457 -2.964844652552577 0 0 0
440 114 2 0 -0.6667004882744602 1.6964538530222655 -3.2788797167412524 0 0 0
17 4 3 0 -0.05626145157172757 0.45169469046903515 -3.3282697433195962 0 0 1
458 120 2 0 -3.9817063768093544 1.926819345502815 -1.8520174684517237 0 0 0
812 238 2 0 -4.710079845406358 2.7155694823180694 -1.8799269857880228 1 0 0
460 120 4 0 -3.9848213984004457 2.3879815308335086 -1.8441590578047142 0 0 0
453 118 4 0 -4.331168696427948 3.476986950469969 -2.2363861282499324 0 0 0
425 109 2 0 -1.770806525538264 1.8956199749753524 -2.5850390591860544 0 0 0
427 109 4 0 -1.7540445179716342 2.047848565852158 -3.014325192888734 0 0 0
426 109 4 0 -1.7924910666036549 1.7529330247784278 -2.1863775903325715 0 0 0
442 114 4 0 -0.6841106979144517 2.1152971791906823 -3.130298485381465 0 0 0
89 18 3 0 -0.5258743547188452 2.511468181509715 -3.097090090856653 0 0 0
86 18 1 0 -0.603326250928302 2.834716376603723 -3.3906025965459965 0 0 0
90 18 3 0 -0.6625044566081019 3.2184384540992275 -3.1767816930421224 0 0 0
424 108 4 0 -1.474959032704576 1.8283818717928833 -1.936932844094802 0 0 0
452 118 2 0 -4.297822142780537 3.453489515091972 -2.664417834262069 0 0 0
75 15 3 0 -4.396235109765331 3.5597370519707443 -1.8507230488354804 0 0 0
454 118 4 0 -4.258396990102944 3.4292283089764113 -3.137592535110313 0 0 0
259 53 4 0 -4.755888205485385 0.199917186311406 -1.6864777332718606 0 0 0
422 108 2 0 -1.3980479350160084 1.672185265968274 -1.5459202968881698 0 0 0
471 124 4 0 -1.5779162271789227 0.12963549905547292 -0.8132888289177651 0 0 0
67 14 3 0 -0.9988815615807002 0.8613610947078782 -0.3704927118497692 0 0 0
68 14 3 0 -1.4223868026064657 1.2667187170856768 -0.8521922679011125 0 0 0
70 14 3 0 -1.468210454682993 0.5091095417390963 -0.8366039184719322 0 0 0
66 14 1 0 -1.1785276808741392 0.8664853072625888 -0.7871863491983422 0 0 0
69 14 3 0 -0.8536888944100006 0.835617402406864 -1.0865463153200015 0 0 0
423 108 4 0 -1.3006967779269745 1.5153836173112467 -1.1335216465934186 0 0 0
813 238 4 0 -4.295683930906334 2.582971536881757 -2.053740220303564 1 0 0
420 107 4 0 -3.043023721697855 3.614526203889033 -0.6582211773103211 0 0 0
480 127 4 0 -1.0056336477837438 3.2809341124003657 -1.2950352764565682 0 0 0
78 16 3 0 -0.70925128420454 3.0650419353787575 -1.1284646228965625 0 0 0
79 16 3 0 -1.19873804531935 2.5834385829489697 -0.8442596397666067 0 0 0
76 16 1 0 -0.7654130809125979 2.73493412395319 -0.8274340793299996 0 0 0
80 16 3 0 -0.6843807145680015 2.9062668111313728 -0.40482594500304964 0 0 0
77 16 3 0 -0.4846681640339957 2.407513705004589 -0.9115329051687371 0 0 0
567 156 4 0 -0.6483966419282827 2.745005920134156 -0.04735468980419702 0 0 0
289 63 4 0 -3.6385328805763706 4.901287467829455 -0.7053397298054104 0 -1 0
71 15 1 0 -4.289366802236637 3.6765619840068746 -1.4369402691669488 0 0 0
73 15 3 0 -4.615809696616249 3.576530197777253 -1.162076975504596 0 0 0
74 15 3 0 -4.203996370195324 4.100585769157254 -1.4281220330178337 0 0 0
287 63 2 0 -3.8153268654314916 4.69719954688631 -1.0537691641116071 0 -1 0
419 107 2 0 -3.4102185789120396 3.4270671503409473 -0.8324001173669119 0 0 0
288 63 4 0 -4.014443648106343 4.4720838152297855 -1.4091173821438283 0 -1 0
421 107 4 0 -3.79019131692412 3.232809789585068 -1.019410396555329 0 0 0
72 15 3 0 -3.925595516144332 3.448733664449377 -1.3122794612575182 0 0 0
103 21 3 0 -1.957488480480428 4.735595847939419 -0.8088265795218407 0 0 0
466 122 4 0 -2.033240043107301 4.995799477139609 -0.5201725030972721 0 0 0
479 127 2 0 -1.0268379512611827 3.7317960888257544 -1.2862392418696145 0 0 0
101 21 1 0 -1.5533194401757442 4.841668018300412 -0.980271320559268 0 0 0
104 21 3 0 -1.355294648736084 4.443872956985474 -1.1653067073027996 0 0 0
481 127 4 0 -1.052973455285263 4.201552785560496 -1.2773860519213638 0 0 0
788 230 2 0 -4.985854239597372 1.0372146179758377 -3.5864176437245114 1 0 0
85 17 3 0 -4.991106580115591 1.1995074299454718 -1.7964360567244404 0 0 0
448 116 4 0 -1.0986564445112244 0.6343950640666121 -0.055928415706346414 0 0 0
116 24 1 0 -4.252182203182119 1.5555409612501305 0.860616310478324 0 0 0
119 24 3 0 -4.601728243600128 1.5696408619412765 1.1268695078372541 0 0 0
546 149 4 0 -4.866172233793579 1.525223239540543 1.4230502521088475 0 0 0
118 24 3 0 -3.8873354873095693 1.4681702171206348 1.0977042662725456 0 0 0
120 24 3 0 -4.302045459603643 1.2523786498960328 0.5715699592108592 0 0 0
462 121 4 0 -3.68525399464579 1.2295623470007084 1.3334015721622567 0 0 0
342 81 4 0 -4.41141420144272 0.871202095750316 0.5702452604678011 0 0 0
341 81 2 0 -4.335350497343076 0.4588959896572742 0.5107863371313895 0 0 0
447 116 4 0 -1.0893084962542183 0.4334187777529267 0.7963350813505329 0 0 0
446 116 2 0 -1.093088374605147 0.5343205228087566 0.3632986927056141 0 0 0
358 86 4 0 -1.1189228304718122 0.4279426051608472 1.1863549487580443 0 0 0
356 86 2 0 -1.314616063981067 0.32748825284609695 1.5640710872616344 0 0 0
507 136 4 0 -3.1554231056304975 0.19996567639630264 3.455327973127787 0 0 0
117 24 3 0 -4.207380924675721 1.9551717717916042 0.6577510748295708 0 0 0
429 110 4 0 -4.335095873377519 3.0810342724856903 0.7543285655102614 0 0 0
428 110 2 0 -4.2544462958245415 2.664404451891002 0.575135542023409 0 0 0
430 110 4 0 -4.173879639985819 2.264792879548931 0.40924481006910884 0 0 0
235 47 3 0 -4.437017088068217 3.398813595329764 0.9688579331611713 1 0 0
509 137 2 0 -0.8357556231484627 1.9784569496314692 1.4423058646274318 0 0 0
511 137 4 0 -0.6855220134790959 2.0939709693877453 1.0399212095981893 0 0 0
568 156 4 0 -0.7242401464050761 2.4279675346510743 0.7725357186518563 0 0 0
566 156 2 0 -0.6869289296572153 2.5948958110399376 0.35030642926515787 0 0 0
231 47 1 0 -4.196042573279836 3.5834541099901185 1.310976382812819 1 0 0
233 47 3 0 -4.413158499137161 3.9337484403197904 1.4763158400310628 1 0 0
467 123 2 0 -3.678275061032942 4.426037312071665 0.7581068744375882 0 0 0
234 47 3 0 -3.767855678457068 3.7237473530752734 1.15061836669992 1 0 0
468 123 4 0 -3.846154237002655 4.008082996016141 0.8649921787826015 0 0 0
574 158 4 0 -4.71875450789775 4.1069824810158915 1.6411750255505748 0 0 0
572 158 2 0 -4.947895336797802 4.391455199661777 1.3889941217011335 0 0 0
469 123 4 0 -3.5123373847241637 4.841588029651214 0.6485364693503333 0 0 0
59 12 3 0 -3.4049919661076 4.87568169738347 0.2543655552609337 0 0 0
514 138 4 0 -2.1971221852211302 3.2430124702390972 1.3227002614548566 0 0 0
495 132 4 0 -2.112639928357203 3.4438080866418184 1.0021170199190166 0 0 0
494 132 2 0 -1.9129961997818654 3.8429284820946075 0.9185598078065059 0 0 0
496 132 4 0 -1.7061076867881222 4.2525097554980915 0.8287366701523623 0 0 0
112 23 3 0 -1.8807084116169654 4.406565573850491 0.4818304194237694 0 0 0
579 160 4 0 -1.882774781845799 4.791232828968873 1.1991353478474693 0 0 0
578 160 2 0 -1.8170867933717787 4.7288757699027855 1.6450124045909142 0 0 0
111 23 1 0 -1.752278995814753 4.820882544148094 0.4886032222384083 0 0 0
114 23 3 0 -1.6485771523145643 4.94264993641078 0.9063250823230573 0 0 0
115 23 3 0 -1.3807463171026473 4.863770427745418 0.2030228906784148 0 0 0
543 148 4 0 -1.0889098436282267 4.636291135473292 0.07217828204339802 0 0 0
542 148 2 0 -0.759128475572318 4.406588729087209 0.2533840127215643 0 0 0
544 148 4 0 -0.4337015037707901 4.177435879662328 0.43615858399274005 0 0 0
849 250 4 0 -0.06907793796414782 4.278871439471012 1.4015997727932419 0 0 0
538 146 4 0 -0.26248499482011717 3.7941118246504186 0.44326011282763456 0 0 0
461 121 2 0 -3.5280039147681133 1.1919080845436247 1.7494597232160194 0 0 0
545 149 2 0 -4.772559000583524 1.294602151716964 1.815490623391682 0 0 0
547 149 4 0 -4.6771548046487315 1.073431570106223 2.194449073787922 0 0 0
361 87 4 0 -4.607661214855829 0.7848788591404072 2.42887934042795 0 0 0
359 87 2 0 -4.334575851006007 0.4697670516393759 2.591727883921634 0 0 0
463 121 4 0 -3.362494742629333 1.1522229506468624 2.1694652451722662 0 0 0
360 87 4 0 -4.036947512998255 0.14945108286897923 2.7605112632252964 0 0 0
375 92 4 0 -2.9742470695709415 1.1065963732325859 2.230927628076667 0 0 0
374 92 2 0 -2.6683159841059205 0.8683659338644921 2.466527335204958 0 0 0
376 92 4 0 -2.3702603082376132 0.6342119911555846 2.7002767314032248 0 0 0
34 7 3 0 -2.279117762469829 0.2730672394033515 2.652382035070205 0 0 0
491 131 2 0 -1.7581151022895998 1.7485215529778544 3.0441319643379328 0 0 0
229 46 3 0 -4.970989509329199 4.293763499199317 4.174438476738262 1 0 0
493 131 4 0 -2.063312016075987 1.693669472620581 2.6692449098798345 0 0 0
564 155 4 0 -0.05174903465735689 1.2098612175915597 2.30911718579376 0 0 0
33 7 3 0 -1.7909884643426208 0.007006246442702519 2.1637838180869795 0 0 0
555 152 4 0 -1.538215691362408 0.36624392465342837 2.942048863735754 0 0 0
210 42 3 0 -0.8798637895017041 1.239186660610472 2.7705819492389514 0 0 0
556 152 4 0 -0.8221170453729252 0.8981275128968793 2.9865166785722614 0 0 0
554 152 2 0 -1.1665447437164884 0.6430783053040672 2.967008714579723 0 0 0
206 42 1 0 -0.6852822208208442 1.5608018278105271 2.5404819109970314 0 0 0
209 42 3 0 -0.24807070452004565 1.4848639431974289 2.5153852495133444 0 0 0
357 86 4 0 -1.5105815332116732 0.22130442948677465 1.9562069069162977 0 0 0
208 42 3 0 -0.855526387250378 1.5647169240336802 2.1155183997240785 0 0 0
492 131 4 0 -1.4826040887317895 1.8032255413868232 3.3943897982233264 0 0 0
36 8 1 0 -0.12909925257139568 4.4356402218746025 3.9104661371653466 0 -1 0
512 138 2 0 -2.3833570671670303 3.105590528151466 1.6812853320812453 0 0 0
513 138 4 0 -2.5851515347557745 2.9570572342544246 2.065457398101858 0 0 0
484 128 4 0 -2.4421919271594987 2.5861472923816873 2.042225240677857 0 0 0
483 128 4 0 -2.410707593288764 1.8562575327824156 2.5902181494406062 0 0 0
482 128 2 0 -2.4247670761021416 2.210682851993653 2.3232737776222505 0 0 0
207 42 3 0 -0.7547523917804999 1.951943115314505 2.734159436427381 0 0 0