LAMMPS data file via write_data, version 19 Nov 2024, timestep = 9000000, units = lj

682 atoms
4 atom types
488 bonds
1 bond types
444 angles
2 angle types

-4.496439 4.496439 xlo xhi
-4.496439 4.496439 ylo yhi
-4.496439 4.496439 zlo zhi

Masses

1 1
2 1
3 0.1
4 0.1

Bond Coeffs # harmonic/omp

1 100 0.45

Angle Coeffs # harmonic/omp

1 100 180
2 100 109.471

Atoms # full

325 75 4 0 -3.5677585460494825 -4.3822207421216826 -4.300130753294682 0 1 1
64 13 3 0 -3.5193511247088667 -4.063798546459448 -4.063188157761468 0 0 1
61 13 1 0 -3.2306618503891613 -3.9812795583506424 -3.7308105584364317 0 0 1
381 94 4 0 -3.7100682184382308 -4.408639622447445 -3.400667280597323 -1 0 0
63 13 3 0 -3.402588251155353 -4.118763425369752 -3.334988459664637 0 0 1
615 172 4 0 -1.7028081350150526 -3.676808722101875 -3.710613671763685 0 0 1
62 13 3 0 -3.1495609055485048 -3.5460481194876623 -3.7022622080186216 0 0 1
622 174 4 0 -1.9494929379073827 -3.346840593727896 -3.69632623644656 1 1 0
614 172 2 0 -1.3273084232054895 -3.8811383777983886 -3.56516237647593 0 0 1
616 172 4 0 -0.9426272833086732 -4.0897852931896415 -3.420899966995186 0 0 1
128 26 3 0 -0.7149096189710982 -4.413116942180897 -3.3580583551103818 0 0 1
383 95 2 0 -3.1515041951761553 -2.1836035915598164 -4.246604457370668 0 1 0
385 95 4 0 -3.530070511661868 -1.9368620313654223 -4.291371790693385 0 1 0
52 11 3 0 -3.8920105892072367 -1.7474823473984409 -4.40042838454002 1 0 1
69 14 3 0 -1.1694180248694344 -0.13214407787053004 -1.1807012193478679 0 0 0
620 174 2 0 -2.2004199370783093 -3.0161107023568023 -3.9081640705765337 1 1 0
384 95 4 0 -2.8004347013815325 -2.4168814108131675 -4.204042259690536 0 1 0
621 174 4 0 -2.463357481408376 -2.66638139527522 -4.119074748201603 1 1 0
541 147 4 0 -0.4380350839689833 -2.0695096027859647 -3.7738075275317438 1 -1 1
635 179 2 0 -1.4504956480100886 -2.2940839128199917 -3.348126984399723 0 0 1
636 179 4 0 -1.2618895792049591 -2.0421145513941186 -3.6916395742268873 0 0 1
33 7 3 0 -1.2930622392791031 -1.8330173566558354 -4.0249262907052525 0 -1 1
31 7 1 0 -0.9270792022172143 -1.7138133180685007 -4.284458192826046 0 -1 1
35 7 3 0 -0.5581500687004514 -1.923924153494599 -4.128961299422625 0 -1 1
539 147 2 0 -0.07483766234330398 -2.038961350377148 -3.4897702871050846 1 -1 1
287 63 2 0 -0.06297027977923131 -0.7936277525280806 -4.158751327795925 0 1 0
630 177 4 0 -2.4746989800281503 -0.6776705734422059 -0.5050047867734428 1 0 0
453 118 4 0 -2.2632979800436797 -0.12860875680062228 -4.127964407341104 1 0 1
452 118 2 0 -2.407356361614611 -0.49345676344983835 -4.340132356663393 1 0 1
250 50 3 0 -1.6695358528913498 -0.14711197401857687 -3.552465146879081 0 0 1
17 4 3 0 -0.03046357553386308 -1.034044197397647 -3.352910634401633 0 0 0
289 63 4 0 -0.1637109640893202 -0.9414474451464373 -3.7379877034847606 0 1 0
588 163 4 0 -1.2802213233828938 -0.32431263145586553 -3.596951834862752 0 0 1
32 7 3 0 -0.8721318882373367 -1.2790554770663074 -4.254537137088666 0 -1 1
587 163 2 0 -1.0904848646352145 -0.6927918229487332 -3.7355045323045024 0 0 1
589 163 4 0 -0.8748197920710795 -1.0731670670126348 -3.8933968826888146 0 0 1
16 4 1 0 -0.024233713097186495 -0.7601963711963539 -2.9859378330958792 0 0 0
602 168 2 0 -0.3500498804268088 -0.08360324849301319 -0.5966528709601565 1 0 0
132 27 3 0 -3.552451517964326 -3.177231388573572 -2.1630554710131364 1 0 0
131 27 1 0 -3.8901473284588772 -3.269019759366947 -1.8590172400903695 1 0 0
135 27 3 0 -3.8497223554682978 -3.715993094012386 -1.715326922102202 1 0 0
570 157 4 0 -3.435220003392502 -3.0552303485220116 -2.5194543413805057 1 0 1
489 130 4 0 -4.045053213978659 -3.831494720301096 -1.3697540977085596 0 0 -1
134 27 3 0 -4.304606701400001 -3.2157574242944715 -2.0859807103492827 1 0 0
133 27 3 0 -3.866876270613298 -2.981371154274987 -1.50582063310291 1 0 0
7 2 3 0 -1.3785053146186201 -3.512616796098569 -1.7771803899759127 0 -1 -1
396 99 4 0 -1.369074317990744 -3.194949692109373 -2.019422984411793 1 0 0
569 157 2 0 -3.163009455786592 -2.6870205059650916 -2.558406662072201 1 0 1
160 32 3 0 -3.004076782371446 -1.9554986991949113 -2.7065185750331753 0 0 0
571 157 4 0 -2.911139376978831 -2.33952268184415 -2.606703411954088 1 0 1
158 32 3 0 -3.2669613720143835 -1.5972627038132194 -2.1041585443430573 0 0 0
156 32 1 0 -3.1888498405928822 -1.5550995363507247 -2.540092791611228 0 0 0
159 32 3 0 -3.564210935637202 -1.4637941553939158 -2.7599693116347432 0 0 0
295 65 4 0 -3.2690288764101685 -1.9641853624163632 -1.8793319511646875 0 -1 0
637 179 4 0 -1.627170138237241 -2.5196709428998703 -3.020584303306501 0 0 1
395 99 2 0 -1.429861281592981 -2.9301435382515937 -2.3489500752413126 1 0 0
397 99 4 0 -1.488356171150355 -2.6642768106707475 -2.6871121986594773 1 0 0
601 167 4 0 -3.8509019976253147 -1.240178754603409 -2.5914808130697367 2 0 0
599 167 2 0 -4.118394875515661 -0.8690539386285177 -2.6556256804020006 2 0 0
227 46 3 0 -4.213110034626167 -0.1490096889934886 -2.8366933754664334 1 0 1
600 167 4 0 -4.368638703590772 -0.5264481134516783 -2.7146744347892877 2 0 0
157 32 3 0 -2.9053118753321394 -1.2335963995002523 -2.5970434298446565 0 0 0
247 50 3 0 -2.2811591611068405 -0.225074716169837 -3.0842061235941935 0 0 1
304 68 4 0 -2.3964219498069776 -0.24447264465826934 -2.7011425160768274 0 0 1
303 68 4 0 -2.979812196783721 -0.8533903464898815 -2.4265967604968735 0 0 1
302 68 2 0 -2.6983692020407575 -0.5557065443786974 -2.5591997839031873 0 0 1
68 14 3 0 -1.3748012360109851 -0.6402267160646314 -1.6378956268324345 0 0 0
457 119 4 0 -1.4791151141154557 -0.6706960478540082 -2.034466657502889 0 0 0
19 4 3 0 -0.4215039644262517 -0.713700726753992 -2.8215332598237293 0 0 0
456 119 4 0 -0.7111922274739085 -0.6237191708335321 -2.5309151736659645 0 0 0
455 119 2 0 -1.0873713589901002 -0.6448947167546533 -2.286697134161586 0 0 0
414 105 4 0 -2.3362062468359386 -0.28848424620166957 -0.4485027158769239 0 0 0
488 130 2 0 -3.9125321113714224 -4.252733795096993 -1.2191474643149551 0 0 -1
612 171 4 0 -3.8633845766026877 -3.0134498257818696 -0.3455781187200545 1 0 0
611 171 2 0 -3.7472090496392485 -3.088373428394057 -0.7749624709162448 1 0 0
613 171 4 0 -3.6299791915309845 -3.163249917733662 -1.2230409668176 1 0 0
517 139 4 0 -1.8546858685647587 -3.266036274287818 -0.8352661085874318 1 0 0
9 2 3 0 -1.6878334024663644 -4.117020173559367 -1.492589917883034 0 -1 -1
8 2 3 0 -1.8279278523906917 -3.4538290994961423 -1.1957778854657106 0 -1 -1
292 64 4 0 -1.828775781594792 -4.422102614985671 -1.2677006702027016 0 1 0
6 2 1 0 -1.5165086655826905 -3.714147102810548 -1.3978765716290733 0 -1 -1
10 2 3 0 -1.1601538404774034 -3.763145715451963 -1.1159603365989514 0 -1 -1
546 149 4 0 -1.1471742542574723 -3.556426857044783 -0.7738422666777646 0 0 1
545 149 2 0 -0.9091829904372857 -3.6649845830367056 -0.43210299799887997 0 0 1
547 149 4 0 -0.65173428902995 -3.766377391148437 -0.08381779400680128 0 0 1
380 94 2 0 -3.994507396529781 -4.472075911612882 -3.0199427392760967 -1 0 0
184 37 3 0 -3.9281351281451657 -2.7927492036134636 -0.02235179026487534 1 0 0
293 65 2 0 -3.4018195327895167 -2.0374467692240104 -1.4261203814849173 0 -1 0
294 65 4 0 -3.5188279110027745 -2.1026067519109413 -1.0154560560381767 0 -1 0
662 188 2 0 -3.4438816077945824 -1.7796767562680518 -0.22028357475108953 0 0 0
515 139 2 0 -1.8688431827909808 -2.86175701078667 -0.677901562762131 1 0 0
516 139 4 0 -1.8938595279892676 -2.4506022639453597 -0.5158416258420186 1 0 0
119 24 3 0 -1.6782042994530797 -2.151441965273397 -0.3987602671042714 0 0 0
116 24 1 0 -1.7587556440888439 -1.8156092602203457 -0.09646041893718141 0 0 0
664 188 4 0 -3.4416378799530514 -1.3587649056556668 -0.3587127151353971 0 0 0
629 177 2 0 -2.900843927747682 -0.8209554149160447 -0.47467156728508736 1 0 0
631 177 4 0 -3.3213604146869535 -0.9721154620994624 -0.4452765069716582 1 0 0
118 24 3 0 -1.9612918445828935 -1.4659180343951874 -0.31299839106673655 0 0 0
70 14 3 0 -1.4762977937750585 -0.7190972927766114 -0.9056155922072546 0 0 0
66 14 1 0 -1.4674650810123568 -0.42103655484626773 -1.2546295719983975 0 0 0
67 14 3 0 -1.8436716849795196 -0.23574906235701684 -1.2864839453613552 0 0 0
65 13 3 0 -2.8239714715220603 -4.207362895385261 -3.8176430550420446 0 0 1
663 188 4 0 -3.452176224806512 -2.202881947313181 -0.08116333986349014 0 0 0
54 11 3 0 -4.259445154370797 -1.073440097894979 -4.458732456719589 1 0 1
183 37 3 0 -3.473680068876989 -3.0622960152618695 0.5319335248135474 1 0 0
647 183 2 0 -2.6990844222935997 -3.282997184188361 0.796186513131922 1 1 1
649 183 4 0 -2.319227804563328 -3.414275708343074 1.0273728512748304 1 1 1
285 62 4 0 -2.123856872520063 -3.549675294682471 1.3333876776450675 0 0 0
284 62 2 0 -2.1234490904099825 -4.004083352029255 1.4349334854235076 0 0 0
262 54 4 0 -0.24526879227617246 -3.8890934788108917 1.0948419908241547 0 0 0
260 54 2 0 -0.4140364774155676 -3.497670629197119 1.2505164447377934 0 0 0
648 183 4 0 -3.0719613090261118 -3.153925598324247 0.5643737768826053 1 1 1
182 37 3 0 -3.993017038651149 -2.582157788909248 0.6910487198347263 1 0 0
181 37 1 0 -3.703113104286241 -2.697246298426198 0.381374597579898 1 0 0
364 88 4 0 -4.3646421105957565 -2.6112282593823837 0.7915997445758616 1 0 -1
266 56 2 0 -3.418489155548217 -1.9816943597491647 1.2847713004846997 0 0 0
185 37 3 0 -3.4143527995706475 -2.3571811036346735 0.3069191499371077 1 0 0
267 56 4 0 -3.2776290193148103 -1.867408120558639 0.8567332561649107 0 0 0
268 56 4 0 -3.5580807628606443 -2.0983323757318306 1.7106313836698683 0 0 0
379 93 4 0 -2.4589253827747237 -4.486585705866371 3.417517530586845 0 1 0
623 175 2 0 -2.460285880040786 -1.8758566124499625 0.7640843386904871 0 1 -1
624 175 4 0 -2.898948537654923 -1.9287311482408294 0.8967289851589438 0 1 -1
625 175 4 0 -2.0567088024723112 -1.8269633124039495 0.631086736024921 0 1 -1
120 24 3 0 -2.024836382638632 -1.9531700107803196 0.2295867545176747 0 0 0
25 5 3 0 -0.0637986635715082 -1.8756944144804273 1.4152078078429835 0 0 0
117 24 3 0 -1.3809362846921835 -1.675805142765141 0.07601695657483527 0 0 0
271 57 4 0 -4.470400184888344 -3.4775593334889257 2.810033006340149 0 -1 -1
269 57 2 0 -4.085388035296712 -3.26155870710303 2.724004385528796 0 -1 -1
543 148 4 0 -4.435019469569416 -0.9721206310308983 1.7531156174729776 0 0 0
286 62 4 0 -2.115964844561507 -4.429084097879011 1.5328698161856995 0 0 0
44 9 3 0 -1.688684831656541 -3.432445287616896 2.6445486012004347 0 0 0
43 9 3 0 -2.2454022625131564 -3.0626502179756745 2.937423802015872 0 0 0
560 154 2 0 -1.159535009137811 -3.2858915048984976 2.0183589885437416 1 0 -1
261 54 4 0 -0.5852191855168796 -3.091966123508581 1.419658426186137 0 0 0
561 154 4 0 -0.9375677308431947 -3.14561501579185 1.6200126943432178 1 0 -1
562 154 4 0 -1.3810994584386225 -3.412862278833505 2.3959941443879056 1 0 -1
85 17 3 0 -3.5854021628900314 -2.4349484564361945 1.9489592944233707 0 0 0
83 17 3 0 -3.692757653110676 -2.6512381443577553 2.635154080967224 0 0 0
81 17 1 0 -3.6145142534526 -2.2863032864620596 2.3456182568324135 0 0 0
270 57 4 0 -3.700376885414703 -3.0453104163609024 2.632534844080705 0 -1 -1
84 17 3 0 -3.9708896824365008 -1.9963231827384667 2.3854868568934133 0 0 0
82 17 3 0 -3.2365644357271517 -2.077364286393045 2.4527551919816246 0 0 0
558 153 4 0 -2.8967642444596327 -1.9068658803508487 2.2824638503461543 1 0 0
544 148 4 0 -4.000524599941838 -1.6067433959287558 2.2905670970198786 0 0 0
557 153 2 0 -2.583785127817553 -1.6174589124718384 2.393697463249187 1 0 0
98 20 3 0 -1.3957176289800928 -1.442635410914584 2.8222889663974375 0 0 0
575 159 2 0 -0.7240816133983813 -1.4498473679246258 1.7202457428224414 1 -1 0
576 159 4 0 -1.0915450465767222 -1.2414477579904306 1.8730732814084594 1 -1 0
577 159 4 0 -0.3556641795673164 -1.6587804166315143 1.5738662939589703 1 -1 0
542 148 2 0 -4.228206928493058 -1.2846506418882606 2.015399294140873 0 0 0
559 153 4 0 -2.2787281648472137 -1.3332186834101805 2.507001496683091 1 0 0
100 20 3 0 -1.9368708990773602 -1.1181966228644793 2.4832225000308115 0 0 0
96 20 1 0 -1.5203102225798613 -1.1922735891861918 2.4569105003754226 0 0 0
643 181 4 0 -0.910440113011991 -0.6658931840828546 2.4438933951957265 1 0 0
641 181 2 0 -0.8772102021963041 -0.2752950908256355 2.660647127365425 1 0 0
97 20 3 0 -1.4147456917769072 -1.4305923199888428 2.06952750920541 0 0 0
99 20 3 0 -1.3001452502548034 -0.7975047533219097 2.4578801574431157 0 0 0
73 15 3 0 -0.0822357783687177 -3.7872912838920616 0.7404719277929437 0 0 0
454 118 4 0 -2.5614147301982264 -0.8705598015984783 4.4507460015570475 1 0 0
123 25 3 0 -2.8001520126630446 -1.1839447077318397 3.669409696868391 0 0 0
377 93 2 0 -2.1723987847236588 -4.156569218519276 3.53349311206904 0 1 0
378 93 4 0 -1.8769376673644662 -3.8184658428817895 3.6631792991579193 0 1 0
45 9 3 0 -1.873043318134013 -3.5592373577994048 3.355076246380982 0 0 0
41 9 1 0 -1.8391716826331101 -3.2391628668918266 3.0112220886010563 0 0 0
42 9 3 0 -1.5354402151732767 -2.8914260550966002 3.1452608323464815 0 0 0
51 11 1 0 -4.216581144869722 -1.4948224074753929 4.350035851484197 1 0 0
55 11 3 0 -4.093727841871419 -1.467577001076985 3.9159621606009996 1 0 0
358 86 4 0 -4.010241347766492 -1.177803698609519 3.6716156561271007 1 0 0
348 83 4 0 -2.355569153522137 -2.7460641695019254 3.1285919183320687 0 0 0
347 83 2 0 -2.482226609894792 -2.345267702244517 3.317040271652968 0 0 0
349 83 4 0 -2.6139990932414827 -1.9367798152109381 3.49324344902486 0 0 0
125 25 3 0 -2.5790222833194774 -1.8541898696032466 3.894702705869876 0 0 0
311 71 2 0 -1.3641915416020918 -1.5015006092224232 3.7030993432609995 0 0 -1
312 71 4 0 -1.0380941050427532 -1.6419114340620142 3.872038165813118 0 0 -1
34 7 3 0 -0.9975192976014438 -1.834629375688419 4.258260813291149 0 -1 0
356 86 2 0 -3.562282880124293 -1.085119734998922 3.59457746287796 1 0 0
122 25 3 0 -2.497365521168962 -1.2387157003051776 4.302458790580421 0 0 0
357 86 4 0 -3.1108275206345173 -0.9768502906370854 3.518274224216979 1 0 0
313 71 4 0 -1.7284512512748285 -1.3317758448902857 3.5124182987873707 0 0 -1
121 25 1 0 -2.496738707117444 -1.387300410754785 3.9046700480022616 0 0 0
124 25 3 0 -2.077941274608112 -1.2996301308220806 3.7086285197317115 0 0 0
74 15 3 0 -0.281036009496777 -3.7949674573165173 0.025876027534842402 0 0 0
230 46 3 0 -4.0743245033161095 0.5467135557141074 -3.042680936051747 1 0 1
567 156 4 0 -1.9186292895641848 0.8004885803468688 -3.244855204596697 1 -1 0
566 156 2 0 -1.9817432506581796 1.1642070505706212 -3.4868518011942324 1 -1 0
249 50 3 0 -2.0433393781799163 0.4346021792357094 -3.2739102399871913 0 0 1
568 156 4 0 -2.0482715303980883 1.530235029282747 -3.734370358142889 1 -1 0
172 35 3 0 -2.2339372276640512 1.742171890164804 -4.014043144720312 0 0 1
171 35 1 0 -1.9270121622353986 2.013373540694074 -4.186471943525315 0 0 1
174 35 3 0 -1.7191254602387167 2.274965790976305 -3.8373306503615905 0 0 1
370 90 4 0 -1.3610457195939745 2.4058987773035123 -4.0193739225980805 0 0 0
368 90 2 0 -1.196919102406302 2.512426628588648 -3.6117646434288164 0 0 0
369 90 4 0 -1.0246501259142178 2.6298755184918092 -3.2214025069169647 0 0 0
668 190 2 0 -2.903728685769798 3.9848682178238812 -4.107321194553384 1 0 2
670 190 4 0 -2.7967294192177867 4.412859279516511 -3.978604017086613 1 0 2
513 138 4 0 -0.23156857292087737 2.0940322704907572 -0.16842037068237475 0 0 0
592 164 4 0 -0.096458955455214 3.216010365376307 -2.9985884527862106 0 0 0
126 26 1 0 -0.8013948570463676 4.1693866310601955 -3.218597669669012 0 -1 1
130 26 3 0 -0.6848519195795301 3.8780580199866526 -3.5469881545121744 0 -1 1
644 182 2 0 -0.5000597670144348 3.7557556771284646 -4.305647179386996 0 -1 2
646 182 4 0 -0.47063460680441915 3.900565128055827 -3.8698724167148475 0 -1 2
127 26 3 0 -1.2696973396754911 4.141741601263964 -3.1104359284815515 0 -1 1
129 26 3 0 -0.549762553660074 4.08929093394588 -2.845274324580786 0 -1 1
590 164 2 0 -0.4097327168397186 2.9311836431386054 -2.970118416961251 0 0 0
226 46 1 0 -4.3446258713152375 0.25849279003015696 -2.7883359395286247 1 0 1
229 46 3 0 -4.300060072359622 0.3712995321144849 -2.3529284575272045 1 0 1
605 169 2 0 -3.744021464885958 0.7529820102410247 -1.9420599392685967 1 0 1
606 169 4 0 -3.4815038898459814 0.8987923903329199 -1.5711959261795059 1 0 1
607 169 4 0 -3.998688024025255 0.626217481177506 -2.3066343565213963 1 0 1
627 176 4 0 -2.0503368116617393 1.0206480704908651 -2.030837605001317 0 0 1
626 176 2 0 -1.8935503899978572 1.396542604784696 -2.2567266472281315 0 0 1
475 125 4 0 -2.3015205159578813 0.8754440423274654 -1.7514338440785049 1 0 0
628 176 4 0 -1.7426053148908958 1.7588997737001717 -2.476946193710657 0 0 1
443 115 2 0 -2.1235279059568954 2.8403743454946486 -2.211476522554747 0 0 0
444 115 4 0 -2.235674000497563 2.6096978145036105 -1.8255738804704722 0 0 0
591 164 4 0 -0.7339078881750222 2.641567207467887 -2.948900555364681 0 0 0
580 160 4 0 -0.23535178604665896 1.5134111238301502 -1.349753192802417 1 0 1
382 94 4 0 -4.2524159506804775 4.455964835503829 -2.676773272696753 -1 -1 0
445 115 4 0 -2.0117405958816152 3.0565099222123413 -2.576449483776082 0 0 0
596 166 2 0 -1.7091276816578456 3.68583756473759 -2.747679356734345 1 0 0
598 166 4 0 -2.0797595688840187 3.429579085926098 -2.6831218612830168 1 0 0
597 166 4 0 -1.3497187392500036 3.9294273690906865 -2.805734441172927 1 0 0
214 43 3 0 -0.45471907998134775 3.860178718902512 -0.9721939587712297 0 0 0
265 55 4 0 -3.2143749289753 0.9696893462512435 -1.3003380771241317 0 -1 0
263 55 2 0 -3.193758410543083 0.778605760967097 -0.8616493859466574 0 -1 0
264 55 4 0 -3.171547757714585 0.5902312643211897 -0.4332425284476183 0 -1 0
330 77 4 0 -3.147955365829906 0.5556664287184371 -0.03896299014640653 0 -1 0
473 125 2 0 -2.1266619500008286 0.49769827611114603 -1.567534025782081 1 0 0
413 105 2 0 -2.202373969694926 0.1196101558997714 -0.41530937706907795 0 0 0
415 105 4 0 -2.0631323952799816 0.5126456597382132 -0.37928368246412203 0 0 0
253 51 4 0 -1.882069830058213 0.8602611672336176 -0.49281550494095017 1 0 1
251 51 2 0 -1.479001644298297 1.0036887343781506 -0.5545531986002575 1 0 1
603 168 4 0 -0.7454909195234409 0.14205931864672974 -0.5429974785054682 1 0 0
79 16 3 0 -0.13357700209352447 1.4688193052397764 -0.9543556079590225 -1 0 0
252 51 4 0 -1.0599573283824757 1.15696220166178 -0.6142403105516476 1 0 1
77 16 3 0 -0.704039276895226 1.2320354289199826 -0.49953378496528095 -1 0 0
343 81 4 0 -1.4960736098023413 2.621578675992674 -1.4566899467313204 0 -1 1
474 125 4 0 -1.9462605564144297 0.12272452613567074 -1.3856690052584724 1 0 0
237 48 3 0 -2.2262965402251997 2.8329863022289445 -1.4985807962947748 0 0 0
478 126 4 0 -2.46293579164132 2.8381068655501274 -0.42279107364522805 1 0 0
76 16 1 0 -0.5328673587883931 1.5969089887056613 -0.7496157160627619 -1 0 0
341 81 2 0 -1.3163807830402046 2.2271427817718643 -1.3642685142331936 0 -1 1
342 81 4 0 -1.1276536122970395 1.8308636550691029 -1.2686577430797354 0 -1 1
80 16 3 0 -0.8212354796783029 1.717556854930657 -1.0551765142049043 -1 0 0
78 16 3 0 -0.4510721978413538 1.9290585256599884 -0.4858105621798207 -1 0 0
593 165 2 0 -3.253095415567724 3.7200289604642736 -0.9891505805902817 1 0 0
595 165 4 0 -3.5660488082842114 4.030906518125668 -1.0085858587869267 1 0 0
594 165 4 0 -2.9384836029455212 3.400061949407587 -0.9576869277405772 1 0 0
239 48 3 0 -2.304956923966308 2.8347524782231477 -0.7757814098714468 0 0 0
236 48 1 0 -2.2649373854087487 3.091563357289252 -1.146983866815334 0 0 0
291 64 4 0 -2.0335511959167083 3.6934127619838315 -1.2786719470327643 0 0 0
238 48 3 0 -2.6367384235718014 3.352215107530937 -1.191132522973875 0 0 0
290 64 2 0 -1.924024086457461 4.1428498261335935 -1.2695076120458166 0 0 0
240 48 3 0 -1.9384152460308708 3.3222382197238436 -1.1132949587005583 0 0 0
211 43 1 0 -0.047418224119045435 3.93840865627242 -1.0618866799285354 0 0 0
656 186 2 0 -0.8660528528832202 3.6949904083268543 -0.33784075775096767 1 0 -1
658 186 4 0 -0.5134316947171182 3.685230489920617 -0.6078176056425858 1 0 -1
640 180 4 0 -4.492072613723132 4.416248215992949 -2.358165411503344 0 0 0
248 50 3 0 -2.386526749362217 0.03462735059981503 -3.791174138613018 0 0 1
246 50 1 0 -2.102611699549291 0.03298832680786913 -3.41780036986371 0 0 1
490 130 4 0 -3.79080930521615 4.331427714674909 -1.0873169943085421 0 -1 -1
657 186 4 0 -1.2086835542991383 3.6955505877503465 -0.05117655294394813 1 0 -1
323 75 2 0 -3.90909824374091 4.35972177389173 -4.4810286151868 0 0 1
175 35 3 0 -1.5875261884328002 1.7734548436035087 -4.411282915736406 0 0 1
173 35 3 0 -2.1344807007045707 2.316438485403115 -4.484985797030588 0 0 1
301 67 4 0 -3.171237667626093 3.3067747807460606 -4.4907711718602155 0 -1 0
669 190 4 0 -3.003501768458173 3.5738414893736654 -4.244025203480236 1 0 2
329 77 2 0 -2.8981029592994276 0.6085641716968972 0.3353276862636538 0 -1 0
331 77 4 0 -2.6450602731274375 0.6617614049038973 0.722049185085878 0 -1 0
257 53 2 0 -0.1460001616078339 0.8566478716332993 1.0092814180093495 0 -1 1
259 53 4 0 -0.522411863302418 0.6833261276551615 1.1697970706553347 0 -1 1
651 184 4 0 -2.5239950258435577 2.5100691524837977 0.7828369086602927 1 0 1
477 126 4 0 -2.3293871523466514 2.7026304644116492 0.48290107347853517 1 0 0
650 184 2 0 -2.286455607210441 2.33342603598639 1.1025118294567078 1 0 1
652 184 4 0 -2.027246663492652 2.146287058808001 1.4503697091852572 1 0 1
481 127 4 0 -1.825868000562785 2.2197840110715368 1.8076849125518057 1 -1 -1
583 161 4 0 -0.6036569874565586 3.8091663365174964 3.913448882603808 0 -1 0
504 135 4 0 -1.2958924885707463 3.606154466427637 1.2351968535451787 1 -1 0
503 135 2 0 -1.2612994912756428 3.5997131841447474 0.7948961817501716 1 -1 0
505 135 4 0 -1.2136568329587696 3.6017294893415093 0.324839517090562 1 -1 0
642 181 4 0 -0.8489572997923625 0.12746895260145077 2.8727215456905357 1 0 0
585 162 4 0 -0.5102533879691267 0.6853634458967246 1.5499729722050313 0 0 0
584 162 2 0 -0.6352010483393539 0.624733207052557 1.997399979677979 0 0 0
586 162 4 0 -0.7599327702574024 0.5651294920585503 2.4239417410570563 0 0 0
148 30 3 0 -0.9531459291511307 0.8483465912658112 2.6305701830253736 1 -1 -1
416 106 2 0 -3.200699431673182 2.1532558866034486 2.594757617474151 0 0 0
417 106 4 0 -3.4149616077879945 2.3120442388763998 2.965777034196247 0 0 0
418 106 4 0 -2.9835974681578485 2.0064412802693363 2.248819075507786 0 0 0
327 76 4 0 -4.380235457889768 1.9251003031475997 3.110715940054652 0 0 0
479 127 2 0 -1.3836587463943884 2.277687590205307 1.763735630894961 1 -1 -1
480 127 4 0 -0.9414152485506471 2.3490547814308482 1.7187901485830064 1 -1 -1
155 31 3 0 -0.5824940252043579 2.249023901870923 1.8663747145886023 1 -1 0
151 31 1 0 -0.2051096060889719 2.5163651810215932 1.843177396463406 1 -1 0
581 161 2 0 -0.32806010650499184 3.751238219183146 3.515220197802787 0 -1 0
152 31 3 0 -0.3224902399045568 2.939044816069298 1.8443103656333788 1 -1 0
138 28 3 0 -1.6267630191171387 3.708535924361591 1.4594881866462914 1 -1 0
409 103 4 0 -2.1710676560935793 3.679740562238821 2.4798613351943897 1 -1 0
139 28 3 0 -1.9779499238327323 3.670512681259207 2.10265893839882 1 -1 0
407 103 2 0 -2.2835607851912014 3.992444861181723 2.7704875150658985 1 -1 0
136 28 1 0 -1.6955268199555653 3.9236938258474705 1.8565097332423828 1 -1 0
391 97 4 0 -0.12765627692483006 3.647182879109662 2.3179042703054265 0 0 -1
137 28 3 0 -1.303508746290332 3.967906326195752 2.0714584500911775 1 -1 0
390 97 4 0 -1.0266845478475004 3.739222914982207 2.263361247993033 0 0 -1
389 97 2 0 -0.5812041104407634 3.6880276240326553 2.2971457995523994 0 0 -1
632 178 2 0 -3.2685394077412493 1.1376842538289649 3.8301662141863564 1 0 -1
485 129 2 0 -2.2111983210584385 0.8972836714041952 3.3237104795676298 0 -1 0
486 129 4 0 -2.483523133385328 1.0588683035786621 3.6704756905337925 0 -1 0
634 178 4 0 -2.8724136551130526 0.9491557164570893 3.6964946643931076 1 0 -1
487 129 4 0 -1.9475110110462157 0.745572347018029 2.9854153739291993 0 -1 0
150 30 3 0 -1.5835716051321822 0.5661358562005274 2.9224632690663017 1 -1 -1
149 30 3 0 -0.927657307554273 0.37237438114671567 3.175878328453569 1 -1 -1
146 30 1 0 -1.1520002032571246 0.7004454086838167 3.014649221113763 1 -1 -1
147 30 3 0 -1.1730140305507593 1.0300754807428576 3.3223629552072618 1 -1 -1
394 98 4 0 -1.4819658559231839 1.1123118018240845 3.568409008962147 0 0 -1
392 98 2 0 -1.4137874502271528 1.3724462882191668 3.9342307044281757 0 0 -1
633 178 4 0 -3.6601617849891204 1.3359430295249868 3.9662586442420924 1 0 -1
108 22 3 0 -4.210203346628503 2.1966602449662638 3.371617210259608 0 0 0
107 22 3 0 -3.4995374985663608 2.07808013673905 3.2754376067673765 0 0 0
300 67 4 0 -3.565223565042163 2.814337778921894 3.9001769601371876 0 -1 -1
109 22 3 0 -3.85053031971699 1.657334116094241 3.7646485518022184 0 0 0
106 22 1 0 -3.808473197313163 2.0854381145256715 3.5756622271591114 0 0 0
110 22 3 0 -3.706417887545499 2.4068359129386296 3.908173635383097 0 0 0
393 98 4 0 -1.3432785062156551 1.624862142173164 4.2933424213005 0 0 -1
140 28 3 0 -1.8849803403796432 4.352171476024332 1.7740665787402747 1 -1 0
645 182 4 0 -0.5331322463171282 3.594385765046095 4.236799328850849 0 -1 1
299 67 2 0 -3.3682158945037655 3.061326637910332 4.1909558763418495 0 -1 -1
324 75 4 0 -4.241508722933425 4.1174900498908205 4.347943480036496 0 0 0
408 103 4 0 -2.38561082418744 4.30171456977728 3.0837030622822055 1 -1 0
582 161 4 0 -0.05594379185394602 3.690782249844215 3.1261178792217126 0 -1 0
476 126 2 0 -2.3906517290826526 2.7657897214103646 0.044050908657185486 1 0 0
536 146 2 0 0.9706591069029288 -3.32099252781162 -3.1215212835823523 0 -1 1
538 146 4 0 0.7544279961721228 -2.922595380777014 -3.084951638332893 0 -1 1
537 146 4 0 1.1898221051663698 -3.7198255420307746 -3.165103807216862 0 -1 1
167 34 3 0 1.073922358603547 -4.093123022159838 -3.2130371496467895 0 -1 0
3 1 3 0 3.838375318845601 -4.286664351164775 -4.397024904176602 -1 0 1
442 114 4 0 3.8941545774794495 -4.120633193845049 -4.035305843858368 -1 1 0
440 114 2 0 3.7107292602105564 -4.234312389530895 -3.6471302828383765 -1 1 0
316 72 4 0 4.39595494311164 -3.1804686981879504 -3.2177607995214537 0 0 1
441 114 4 0 3.532688049064615 -4.344105816571539 -3.2780677284885247 -1 1 0
555 152 4 0 3.024685457728184 -3.0507326458708817 -4.364338258221784 0 0 2
540 147 4 0 0.2650946774898071 -2.0027310435403285 -3.226923102312018 1 -1 1
219 44 3 0 0.6511138830654557 -2.0447856778455127 -3.139439940140557 0 0 1
216 44 1 0 1.0541280917561908 -2.249561180099555 -3.2561923174929683 0 0 1
218 44 3 0 1.062842210441974 -2.694538723088665 -3.0747452854316712 0 0 1
220 44 3 0 1.0853319354684587 -2.2682429902874652 -3.7130031292641026 0 0 1
309 70 4 0 1.0095663244932467 -1.9829470117594767 -3.9872543259717115 0 0 0
518 140 2 0 2.127772262489908 -1.839776141626233 -2.982471740199871 1 0 0
332 78 2 0 3.6585092867518294 -1.6114460486968132 -4.451000394979588 -1 0 1
500 134 2 0 4.3695167960189005 -2.557740878314079 -3.697891334947975 0 0 1
501 134 4 0 4.452857927681957 -2.9787733026824808 -3.557603443862104 0 0 1
334 78 4 0 3.2201571318524347 -1.723376148083438 -4.3925746038449605 -1 0 1
222 45 3 0 3.0294256658653835 -1.5196565637214512 -4.103018923980479 0 -1 1
308 70 2 0 0.977751687306102 -1.5610044334321536 -4.174187702854441 0 0 0
530 144 2 0 0.769935227681204 -0.039821125337502206 -3.399304445556204 0 -1 1
18 4 3 0 0.1500219937743573 -0.3498693379190533 -3.1038284890415877 0 0 0
37 8 3 0 1.4636436104837487 -0.07500428836981886 -3.280349960772707 -1 -1 1
608 170 2 0 3.5470820459844417 -1.301684527852318 -0.8947281127445021 -1 0 1
532 144 4 0 0.39903527299036873 -0.24583228496397197 -3.4120954916951 0 -1 1
315 72 4 0 4.45704842698545 -3.399328280094816 -2.3404128498084757 0 0 1
166 34 1 0 1.1651624469754416 -4.493079959103969 -3.0172159954958464 0 -1 0
502 134 4 0 4.300102131041117 -2.135107319449931 -3.8328943603520926 0 0 1
671 191 2 0 1.6849365080969971 -0.07696120728660896 -4.489641513591594 0 0 1
40 8 3 0 2.1939979539908583 -0.14722156011006637 -3.064624213940249 -1 -1 1
520 140 4 0 2.53150659743307 -1.649893214572749 -3.0808263863344636 1 0 0
223 45 3 0 2.704848715103466 -1.6987759160614404 -3.466725685579366 0 -1 1
225 45 3 0 2.3273227790503532 -1.3980887392598909 -4.024569291881901 0 -1 1
672 191 4 0 1.9863002511013175 -0.03696841902244241 -4.184317708763346 0 0 1
221 45 1 0 2.7148542345938096 -1.399494310364983 -3.820635731787794 0 -1 1
224 45 3 0 2.7979415319531706 -0.978860889111609 -3.6619791093486262 0 -1 1
38 8 3 0 2.038863325231526 -0.11556025438059746 -3.7949603763742843 -1 -1 1
550 150 4 0 2.2068516640663076 -1.4394062397512182 -4.423688218417165 0 -1 1
170 34 3 0 1.0468958823029084 -4.482539190626125 -2.581104630987392 0 -1 0
314 72 2 0 4.43086569422737 -3.3016888314036197 -2.7643455401531076 0 0 1
217 44 3 0 1.387411201922009 -2.0141406519149503 -3.0937079827229375 0 0 1
519 140 4 0 1.7424195147984467 -2.0235129667588234 -2.882645328337103 1 0 0
20 4 3 0 0.23999525761427243 -0.9397195802820436 -2.6771736635641914 0 0 0
400 100 4 0 0.4835607437997799 -1.1134749137637325 -2.409059166012114 0 0 0
398 100 2 0 0.4363913823960448 -1.1293500514492705 -1.9566397743357966 0 0 0
399 100 4 0 0.3890702108637049 -1.1426936596121118 -1.5103640918224126 0 0 0
471 124 4 0 2.3086823973447013 -0.5014320726689327 -2.9342831895509813 0 0 0
470 124 2 0 2.571441582703251 -0.7432621842940829 -2.654105799377143 0 0 0
472 124 4 0 2.8593006502639566 -0.9922319151689426 -2.379855113456003 0 0 0
526 142 4 0 2.6382280876507958 -1.2931342116535585 -2.1923789650502736 0 0 0
524 142 2 0 2.8974691238102186 -1.405050435665417 -1.8390225613068547 0 0 0
610 170 4 0 3.3885635305674877 -1.2195043255501556 -1.3405520528255128 -1 0 1
428 110 2 0 0.793576086953389 -4.379577882306636 -0.9448159877585959 -1 0 1
430 110 4 0 1.1797441463164071 -4.177260795852282 -1.0538877131003432 -1 0 1
276 59 4 0 1.377018819192083 -3.8289915791650295 -1.062737660904544 0 0 0
165 33 3 0 3.7518674464888315 -0.12719287294250348 -4.4481101785982 0 0 1
277 59 4 0 2.133587278143978 -3.323561715617469 -0.828208532982222 0 0 0
275 59 2 0 1.7611884130043631 -3.5758013617173585 -0.9472455723013125 0 0 0