LAMMPS data file via write_data, version 27 Jun 2024, timestep = 250000, units = lj

15 atoms
4 atom types
12 bonds
1 bond types

-2 2 xlo xhi
-2 2 ylo yhi
-2 2 zlo zhi

Masses

1 1
2 1
3 0.5
4 0.5

Bond Coeffs # zero

1 0

Atoms # bond

38 10 2 1.166550721389629 0.5321342262051846 0.9764199776255054 1 0 -2
11 3 1 -0.19422373918272148 -0.7419952638726237 -1.9505317709734478 0 0 1
32 8 2 -0.03500258481450326 1.2399343924079935 0.17892687372803726 -1 0 1
47 13 2 0.9367339921716193 -0.9584386192867282 -0.019668107385472342 0 1 0
6 2 1 -1.7579716051141046 -1.4502917633199632 -1.0210345329612633 -1 -1 0
26 6 2 1.434076451507934 -0.5297096576256286 1.1392260963794048 0 1 -1
50 14 2 -0.6350753249415897 -0.40281269835168904 1.0742333867465794 2 1 1
44 12 2 1.1721041270446497 0.7446098168846976 -1.171840075624013 -1 0 1
35 9 2 0.2820182345518083 -0.013852024431234044 -0.9623891025791635 -1 1 0
16 4 1 0.009994629533478763 -1.7230078834992044 -0.1383357140883287 0 2 1
41 11 2 -0.6361983920225963 -0.3534605465938376 -0.4331764640448171 -1 0 -2
53 15 2 -1.6929679085115406 1.2434301899285174 -0.8568720317427965 4 0 1
21 5 1 -1.1109542332767597 1.8985142634187357 -0.21152873808822117 2 0 1
1 1 1 0.8842239334474505 -0.8032998096867796 -1.730858655830515 -4 0 1
29 7 2 1.5977878597052064 -0.47899587870578103 -0.91686801356093 -1 0 2

Velocities

38 0.3612759668013614 0.20421498867220148 0.04174863120855628
11 -0.15967422567012635 0.22942130884631437 -0.07419019882055665
32 0.3060907434323505 -0.22893208804273996 0.13585655013160278
47 0.1507425126209623 0.29026969809303 -0.2449301942428537
6 -0.11992601735885836 0.13716988834710522 -0.02063198851760405
26 -0.1435908405935525 0.14786859903453403 0.24617538237512857
50 -0.06699599944557423 -0.20737969606808193 0.0014809034149942215
44 0.20795981810442066 0.12243488408514205 -0.12224877829916439
35 0.21193337858954062 -0.23308615881954564 -0.37083592572521146
16 -0.053997014174758995 -0.21098679880256696 0.10472218886971668
41 -0.4729323488906183 0.2079514360861238 -0.04204046318594378
53 -0.031409495425754066 -0.3908567963490867 0.2724707143374976
21 -0.07730942631445856 -0.0777914767630244 0.1481335429747977
1 -0.10257681303790327 0.035400411141489584 -0.3465946202194323
29 0.1845520198968471 -0.0142558598695133 0.3980066712638404

Bonds

1 1 11 50
2 1 11 35
3 1 6 53
4 1 6 29
5 1 16 41
6 1 16 47
7 1 16 32
8 1 21 53
9 1 21 32
10 1 1 26
11 1 1 35
12 1 1 29
