LAMMPS data file via write_data, version 2 Aug 2023, timestep = 250000, units = lj

15 atoms
4 atom types
11 bonds
1 bond types

-2 2 xlo xhi
-2 2 ylo yhi
-2 2 zlo zhi

Masses

1 1
2 1
3 0.5
4 0.5

Bond Coeffs # zero

1 0

Atoms # bond

26 6 2 0.4635907444112424 1.3509444076647772 1.6184976821540387 1 2 -3
32 8 2 0.020985560840753096 -1.724867821438096 -1.2616898433075596 -1 0 3
16 4 1 1.75223938385722 1.9840678629294457 1.3746327280448747 1 1 0
38 10 2 -0.6309786850197575 1.4683602900071722 0.8754860684786425 -3 -2 -1
21 5 1 1.502771756393125 -1.7702152755440448 -1.3901106504280614 0 -2 2
1 1 1 -0.800530677135461 0.4648078754629664 1.339327538835229 0 1 0
35 9 2 1.543530873160486 -0.9641049352344674 0.5697527864942403 0 3 1
53 15 2 0.9271242359078501 -0.37237637051862227 -1.7262859451656374 2 0 0
41 11 2 -1.5249048541836863 -0.1949956714040803 0.45873471023578877 2 0 -2
44 12 2 -1.2941641372337602 -1.250718205632231 -0.1027538148829901 0 0 -1
11 3 1 0.5862171396221836 -1.216604796872393 -0.4492354133045284 -1 2 1
47 13 2 -1.3213596138941746 -1.6535904255789668 1.8309152021152015 -1 -1 1
6 2 1 0.626660799669706 0.5937537494211863 -0.028021973124143985 -1 1 -1
50 14 2 -0.48556293694078095 0.21652177612965684 -1.4334369172287411 -1 -3 3
29 7 2 -0.7192187324565026 1.5819384706024944 -0.8021742775848498 0 1 0

Velocities

26 -0.10880771765921926 0.39583847474506534 0.14875880359242982
32 -0.01707960433109652 0.08989348608410666 0.20953868369403753
16 -0.041194037784284585 -0.013845703922787205 -0.25742767580539605
38 0.0639209533745651 -0.1776113830499192 -0.20890922173554627
21 0.00736471070929103 -0.04955894227773476 0.11268302570401599
1 -0.08557817262004952 0.015384779375520855 -0.4195817633869631
35 -0.2237330231657187 0.6003905700437622 0.09693186412897045
53 0.05739852535519351 -0.27666895903152244 -0.035980753916624066
41 0.3165335619243646 0.09400282251231806 0.1416045021127056
44 -0.09865385284449792 0.07852743235680706 -0.13388826468852974
11 -0.17966491786931768 0.01254371210660573 0.12666990333178266
47 -0.35820834923012096 0.007344819418685931 0.15863501209406558
6 0.2996770506801537 -0.4172199474884425 0.15690805021199847
50 0.02406166386802658 -0.03583034203092824 -0.006967851008027062
29 0.29889313468482603 -0.06962687597563404 0.09553597511533905

Bonds

1 1 16 26
2 1 16 35
3 1 16 47
4 1 21 47
5 1 21 32
6 1 21 53
7 1 1 41
8 1 1 38
9 1 1 50
10 1 11 32
11 1 11 35
