LAMMPS (27 Jun 2024)
OMP_NUM_THREADS environment is not set. Defaulting to 1 thread. (src/comm.cpp:98)
  using 1 OpenMP thread(s) per MPI task
package omp 0
using multi-threaded neighbor list subroutines
units lj
dimension 3
boundary p p p

atom_style bond
bond_style zero nocoeff
pair_style hybrid/overlay/omp zero 0.0 lj/cut/omp 1.12 table/omp linear 5000000 threebody/table
newton on

region simulation_box block -10 10 -10 10 -10 10
create_box 4 simulation_box bond/types 1 extra/bond/per/atom 4 extra/special/per/atom 5
Created orthogonal box = (-10 -10 -10) to (10 10 10)
  1 by 2 by 2 MPI processor grid

mass 1 1.0
mass 2 1.0
mass 3 0.5
mass 4 0.5

bond_coeff * nocoeff
pair_coeff 1 3 zero
pair_coeff 1 4 zero
pair_coeff 2 3 zero
pair_coeff 2 4 zero
pair_coeff 3 3 zero
pair_coeff 1 1 lj/cut/omp 1.0 1.0 1.12
pair_coeff 2 2 lj/cut/omp 1.0 1.0 1.12
pair_coeff 1 2 lj/cut/omp 1.0 1.0 1.12
pair_modify shift yes
pair_coeff 3 4 table/omp pachTab.table POT 0.6
Reading pair table potential file pachTab.table with DATE: 2024-07-08
WARNING: 2 of 5000000 force values in table POT are inconsistent with -dE/dr.
WARNING:  Should only be flagged at inflection points (src/pair_table.cpp:466)
pair_coeff 4 4 table/omp pachTab.table POT 0.6
Reading pair table potential file pachTab.table with DATE: 2024-07-08
WARNING: 2 of 5000000 force values in table POT are inconsistent with -dE/dr.
WARNING:  Should only be flagged at inflection points (src/pair_table.cpp:466)
pair_coeff * * threebody/table swapMech.3b NULL NULL PA PB

molecule CL molecule.patchy.CL
Read molecule template CL:
# Patchy Cross-Linker
  1 molecules
  0 fragments
  5 atoms with max type 3
  4 bonds with max type 1
  0 angles with max type 0
  0 dihedrals with max type 0
  0 impropers with max type 0
molecule MO molecule.patchy.MO
Read molecule template MO:
# Patchy Monomer
  1 molecules
  0 fragments
  3 atoms with max type 4
  2 bonds with max type 1
  0 angles with max type 0
  0 dihedrals with max type 0
  0 impropers with max type 0

region spawn_box block -10 10 -10 10 -10 10

create_atoms 0 random 50 34512 spawn_box mol CL 34512 overlap 1.0 maxtry 5000
Created 250 atoms
  using lattice units in orthogonal box = (-10 -10 -10) to (10 10 10)
  create_atoms CPU = 0.002 seconds
create_atoms 0 random 450 31245 spawn_box mol MO 31245 overlap 1.0 maxtry 5000
Created 1350 atoms
  using lattice units in orthogonal box = (-10 -10 -10) to (10 10 10)
  create_atoms CPU = 0.009 seconds

group CrossLinker type 1 3
250 atoms in group CrossLinker
group Monomer type 2 4
1350 atoms in group Monomer
group Patches type 3 4
1100 atoms in group Patches
group CL type 1
50 atoms in group CL
group MO type 2
450 atoms in group MO
group CM type 1 2
500 atoms in group CM
group Energy empty
0 atoms in group Energy

fix pCL CrossLinker rigid/small/omp molecule
  create bodies CPU = 0.000 seconds
  50 rigid bodies with 250 atoms
  0.46400431 = max distance from body owner to body atom
fix pMO Monomer rigid/small/omp molecule
  create bodies CPU = 0.000 seconds
  450 rigid bodies with 1350 atoms
  0.5 = max distance from body owner to body atom

neighbor 1.8 bin
neigh_modify exclude molecule/intra CrossLinker
neigh_modify exclude molecule/intra Monomer

fix langevinFix all langevin 0.05 0.05 0.5 12345
thermo 1000

compute t all temp
compute ep all pe
compute ek all ke
compute cluster all aggregate/atom 0.6
compute cc1 all chunk/atom c_cluster compress yes pbc yes
compute size all property/chunk cc1 count
compute vorCompSimple CM voronoi/atom only_group
compute vorCompHisto CM voronoi/atom only_group edge_histo 18 edge_threshold 0

dump dumpID all atom 1000 info/patchyParticles_assembly.dumpf
dump_modify dumpID pbc yes
dump dumpNew all custom 10000000 newdata_assembly.dumpf id type mol x y z c_cluster
dump_modify dumpNew delay 10000000
dump dumpVor CM custom 10000000 info/voronoiSimple_assembly.dumpf c_vorCompSimple[1] c_vorCompSimple[2]
dump_modify dumpVor delay 10000000

fix fixvorHisto CM ave/time 1 1 10000000 c_vorCompHisto file info/vorHisto_assembly.fixf mode vector
fix fixEng Energy ave/time 1 1 10 c_t c_ep c_ek file info/energy_assembly.fixf
fix 1 all ave/time 1 1 10000000 c_size file info/sizeCluster_assembly.fixf mode vector

timestep 0.005
 run 10000000
WARNING: Using a manybody potential with bonds/angles/dihedrals and special_bond exclusions (src/pair.cpp:242)
Hybrid pair style last /omp style table/omp
Last active /omp style is pair_style table/omp
WARNING: More than one fix rigid command (src/RIGID/fix_rigid_small.cpp:529)
WARNING: More than one fix rigid command (src/RIGID/fix_rigid_small.cpp:529)
Neighbor list info ...
  update: every = 1 steps, delay = 0 steps, check = yes
  max neighbors/atom: 2000, page size: 100000
  master list distance cutoff = 2.92
  ghost atom cutoff = 2.92
  binsize = 1.46, bins = 14 14 14
  7 neighbor lists, perpetual/occasional/extra = 6 1 0
  (1) pair zero, perpetual, skip from (6)
      attributes: half, newton on, omp
      pair build: skip/omp
      stencil: none
      bin: none
  (2) pair lj/cut/omp, perpetual, skip from (6)
      attributes: half, newton on, omp
      pair build: skip/omp
      stencil: none
      bin: none
  (3) pair table/omp, perpetual, skip from (6)
      attributes: half, newton on, omp, cut 2.4
      pair build: skip/omp
      stencil: none
      bin: none
  (4) pair threebody/table, perpetual, skip from (7)
      attributes: full, newton on, omp, cut 2.4
      pair build: skip/omp
      stencil: none
      bin: none
  (5) compute aggregate/atom, occasional
      attributes: full, newton on, omp
      pair build: full/bin/omp
      stencil: full/bin/3d
      bin: standard
  (6) neighbor class addition, perpetual
      attributes: half, newton on, omp
      pair build: half/bin/newton/omp
      stencil: half/bin/3d
      bin: standard
  (7) neighbor class addition, perpetual
      attributes: full, newton on, omp, cut 2.4
      pair build: full/bin/omp
      stencil: full/bin/3d
      bin: standard
WARNING: Dump dumpVor includes no atom IDs and is not sorted by ID. This may complicate post-processing tasks or visualization (src/dump.cpp:219)
Per MPI rank memory allocation (min/avg/max) = 20.29 | 20.3 | 20.3 Mbytes
   Step          Temp          E_pair         E_mol          TotEng         Press     
         0   0              4.7648482e-05  0              4.7648482e-05  0.0023423259 
      1000   0.051112892   -0.0089011285   0              0.031781539    0.0057203282 
      2000   0.050820922   -0.027981416    0              0.012468861    0.00012762806
      3000   0.051778501   -0.041485638    0             -0.00027318755  0.0051830376 
      4000   0.051504309   -0.055611017    0             -0.014616807    0.0024240367 
      5000   0.053194313   -0.069144948    0             -0.026805599    0.0038968488 
      6000   0.051052328   -0.082807591    0             -0.042173129    0.0027605348 
      7000   0.050371262   -0.097403154    0             -0.057310778    0.0062749156 
      8000   0.049680777   -0.10403375     0             -0.064490961    0.002665788  
      9000   0.05130619    -0.10302057     0             -0.062184048    0.0032444164 
     10000   0.051560672   -0.11751627     0             -0.0764772      0.0017206809 
     11000   0.049386794   -0.12471853     0             -0.085409725    0.0065871474 
     12000   0.051471138   -0.13040384     0             -0.089436028    0.00025361115
     13000   0.049039277   -0.13072711     0             -0.091694914    0.005720144  
     14000   0.04934839    -0.13931364     0             -0.1000354      0.0059034687 
     15000   0.051799365   -0.14458677     0             -0.10335771     0.011987863  
     16000   0.051576415   -0.14478535     0             -0.10373375    -0.0050236911 
     17000   0.051775523   -0.15371121     0             -0.11250113    -0.00019544072
     18000   0.050913997   -0.15581579     0             -0.11529143     0.0052307182 
     19000   0.048938961   -0.15888569     0             -0.11993333     0.0018419679 
     20000   0.052017942   -0.16071374     0             -0.11931071     0.0061442985 
     21000   0.049875486   -0.16150461     0             -0.12180684     0.0074463732 
     22000   0.050021393   -0.16546202     0             -0.12564812    -0.0040823722 
     23000   0.0486849     -0.1693333      0             -0.13058316     0.0052573743 
     24000   0.051986225   -0.17348959     0             -0.1321118      0.0094576973 
     25000   0.050030196   -0.18147813     0             -0.14165722     0.0056529749 
     26000   0.050912595   -0.18328378     0             -0.14276054    -0.0024893642 
     27000   0.050967998   -0.18487221     0             -0.14430487     0.0019091889 
     28000   0.051447708   -0.1889311      0             -0.14798194     0.0019361071 
     29000   0.052334701   -0.18973384     0             -0.14807869    -0.0024163846 
     30000   0.050835753   -0.19192018     0             -0.1514581      0.0027474984 
     31000   0.048902753   -0.19447547     0             -0.15555194     0.0021890006 
     32000   0.051137517   -0.19398246     0             -0.15328019     0.00013888264
     33000   0.051864156   -0.19906061     0             -0.15777999    -0.0012925444 
     34000   0.049354732   -0.20379782     0             -0.16451454     0.0011232389 
     35000   0.051321428   -0.20657386     0             -0.16572521     0.0031281778 
     36000   0.04712328    -0.20834403     0             -0.17083685    -0.00088157267
     37000   0.050306297   -0.21060383     0             -0.17056316     0.0018456689 
     38000   0.048420735   -0.21233822     0             -0.17379834    -0.0040697683 
     39000   0.051730991   -0.21566658     0             -0.17449195     0.0043512954 
     40000   0.048334697   -0.21801641     0             -0.17954501     0.0011331973 
     41000   0.049489475   -0.21843747     0             -0.17904694     0.0019318229 
     42000   0.050529054   -0.21988263     0             -0.17966466     0.00067354399
     43000   0.051179961   -0.22169629     0             -0.18096024     0.0029271633 
     44000   0.051915118   -0.2210956      0             -0.17977441     0.00025102854
     45000   0.052680688   -0.22589429     0             -0.18396376     0.0047228194 
     46000   0.05110243    -0.20567878     0             -0.16500444     9.0366525e-05
     47000   0.050563291   -0.22974379     0             -0.18949857     0.0039839397 
     48000   0.052392783   -0.23003297     0             -0.18833159     0.0029804085 
     49000   0.047598465   -0.23264327     0             -0.19475787     0.0037545825 
     50000   0.050166414   -0.23308669     0             -0.19315736     0.0022109941 
     51000   0.049801434   -0.23504931     0             -0.19541048    -0.0028369129 
     52000   0.050032694   -0.23493677     0             -0.19511387     0.0018522246 
     53000   0.051550983   -0.22955465     0             -0.18852329     0.0019921688 
     54000   0.049883385   -0.23716157     0             -0.19745751     0.0063865626 
     55000   0.049001969   -0.23855097     0             -0.19954846    -0.0056994498 
     56000   0.050749124   -0.23866856     0             -0.19827543    -0.0063700438 
     57000   0.050588465   -0.23814968     0             -0.19788442     0.0033915123 
     58000   0.049074788   -0.23990245     0             -0.20084198     0.0083085441 
     59000   0.051100477   -0.24068673     0             -0.20001394     0.00052716946
     60000   0.048599315   -0.23721478     0             -0.19853277     0.0018175074 
     61000   0.052802703   -0.24247463     0             -0.20044698     0.0055814351 
     62000   0.046951483   -0.24231235     0             -0.20494191     0.00621392   
     63000   0.050747879   -0.23483724     0             -0.1944451      0.0018752293 
     64000   0.047765386   -0.24177296     0             -0.20375469     0.0053425108 
     65000   0.051856898   -0.24252057     0             -0.20124572     0.0010863955 
     66000   0.050330941   -0.24564832     0             -0.20558804     0.0030825718 
     67000   0.049366217   -0.24370668     0             -0.20441426    -0.0038182014 
     68000   0.051931944   -0.2441589      0             -0.20282432     0.0019060427 
     69000   0.048936618   -0.24487838     0             -0.20592789     0.01100131   
     70000   0.0513836     -0.24716817     0             -0.20627004    -0.0059819984 
     71000   0.051792241   -0.24763798     0             -0.20641459    -0.0013268096 
     72000   0.05318111    -0.24945585     0             -0.20712701     0.0046700908 
     73000   0.050972446   -0.25031723     0             -0.20974635    -0.0071529045 
     74000   0.051292536   -0.25144916     0             -0.2106235      0.0027809005 
     75000   0.048773384   -0.25359227     0             -0.2147717      0.0096373462 
     76000   0.049216411   -0.25363203     0             -0.21445884    -0.0013081295 
     77000   0.049833022   -0.25439449     0             -0.21473052     0.0039983606 
     78000   0.047649618   -0.25436946     0             -0.21644334     0.0025943452 
     79000   0.050916347   -0.25321598     0             -0.21268975     0.0023199691 
     80000   0.050258083   -0.25355659     0             -0.2135543      0.0041023198 
     81000   0.050247178   -0.25365154     0             -0.21365793    -0.0024343286 
     82000   0.050119867   -0.25282927     0             -0.21293699     0.0023300725 
     83000   0.050916968   -0.2570164      0             -0.21648967    -0.004847922  
     84000   0.050032031   -0.25770639     0             -0.21788402     0.0014133487 
     85000   0.048386691   -0.25896037     0             -0.22044759     0.0020606243 
     86000   0.046137577   -0.25879322     0             -0.22207059    -0.0019239242 
     87000   0.049678865   -0.25897735     0             -0.21943608    -0.0058512764 
     88000   0.048408034   -0.24775648     0             -0.20922671     0.0019988656 
     89000   0.050430132   -0.24953036     0             -0.20939112     0.0055876883 
     90000   0.04969503    -0.25645914     0             -0.216905      -0.0024384241 
     91000   0.049723261   -0.26291957     0             -0.22334297     0.00013494916
     92000   0.050601005   -0.26211291     0             -0.22183767     0.0030319645 
     93000   0.049965542   -0.26161639     0             -0.22184694    -0.0061433375 
     94000   0.047275533   -0.26383055     0             -0.22620218     0.0067523021 
     95000   0.049151344   -0.26465773     0             -0.22553633    -0.0010160429 
     96000   0.048024473   -0.26461647     0             -0.22639199    -0.0016630004 
     97000   0.051498591   -0.25952008     0             -0.21853042     0.0067573687 
     98000   0.049881955   -0.25976791     0             -0.22006499     0.00014198835
     99000   0.053725318   -0.26552124     0             -0.22275924    -0.003060616  
    100000   0.048825236   -0.26560064     0             -0.2267388      0.005232665  
    101000   0.050676286   -0.26559175     0             -0.2252566     -0.0018907419 
    102000   0.050395283   -0.26610084     0             -0.22598935     0.0051517432 
    103000   0.051695987   -0.2666614      0             -0.22551462     0.0097405775 
    104000   0.051383756   -0.26840504     0             -0.22750678    -0.0012679955 
    105000   0.050652068   -0.26915585     0             -0.22883997     0.003296987  
    106000   0.050962516   -0.26848902     0             -0.22792604     0.0037825192 
    107000   0.050633243   -0.26890196     0             -0.22860106    -0.0055326654 
    108000   0.047400012   -0.26938838     0             -0.23166093     0.0040359037 
    109000   0.051956916   -0.26524698     0             -0.22389252     0.0032334785 
    110000   0.050349765   -0.26988812     0             -0.22981285     0.0014530902 
    111000   0.049804277   -0.27087869     0             -0.23123759     0.0090758255 
    112000   0.048097139   -0.26867606     0             -0.23039374     0.0074164386 
    113000   0.050702455   -0.27062287     0             -0.23026688    -0.0040488409 
    114000   0.049357552   -0.26789849     0             -0.22861296     0.001885483  
    115000   0.051373519   -0.2707002      0             -0.22981009     0.011986984  
    116000   0.049880455   -0.26772076     0             -0.22801904     0.0027715047 
    117000   0.051351954   -0.26936343     0             -0.22849048    -0.0064765786 
    118000   0.052737533   -0.27166357     0             -0.22968779    -0.0022277414 
    119000   0.053425465   -0.27087678     0             -0.22835345     0.0044955596 
    120000   0.052093136   -0.27145959     0             -0.22999671    -0.0013484785 
    121000   0.047830297   -0.27207448     0             -0.23400456    -0.0033050182 
    122000   0.050141025   -0.27420752     0             -0.2342984      0.0015901834 
    123000   0.051131978   -0.2730083      0             -0.23231044    -0.00098452089
    124000   0.049828624   -0.27466036     0             -0.23499989     0.00021530846
    125000   0.051592674   -0.27345739     0             -0.23239284    -0.00032508699
    126000   0.052645842   -0.27365583     0             -0.23175303     0.0039776609 
    127000   0.048698954   -0.27437        0             -0.23560868     0.00086381872
    128000   0.048444129   -0.2732248      0             -0.2346663     -0.0015942069 
    129000   0.052009576   -0.27400188     0             -0.23260551    -0.0040241591 
    130000   0.051895235   -0.27414191     0             -0.23283655     0.0043594241 
    131000   0.047811349   -0.2749674      0             -0.23691256    -0.00018644041
    132000   0.051657928   -0.274776       0             -0.23365952     0.0020021283 
    133000   0.050057279   -0.2756606      0             -0.23581814     0.0026550923 
    134000   0.049693908   -0.27773692     0             -0.23818367    -0.0041461715 
    135000   0.048568436   -0.27237928     0             -0.23372184    -0.0033326926 
    136000   0.047059418   -0.27664582     0             -0.23918947    -0.0013532172 
    137000   0.049709622   -0.27566639     0             -0.23610064    -0.0082519859 
    138000   0.05289542    -0.27616454     0             -0.2340631     -0.0039506147 
    139000   0.049625459   -0.27699517     0             -0.23749641     0.0021237001 
    140000   0.051491071   -0.27671997     0             -0.23573629    -0.00093277692
    141000   0.049339393   -0.27709536     0             -0.23782429    -6.3799242e-05
    142000   0.051879046   -0.27638167     0             -0.23508919     0.0021370867 
    143000   0.050759801   -0.27667753     0             -0.23627591    -0.00053537137
    144000   0.051437003   -0.27688408     0             -0.23594344     0.0030080313 
    145000   0.053016792   -0.27207721     0             -0.22987916     0.0020211713 
    146000   0.049124927   -0.27300241     0             -0.23390204     0.0099334481 
    147000   0.049213082   -0.27769676     0             -0.23852622     0.00030039717
    148000   0.051858057   -0.27776715     0             -0.23649138    -0.0020111946 
    149000   0.050254569   -0.2764352      0             -0.2364357      0.0062673772 
    150000   0.048727707   -0.27855442     0             -0.23977021     0.0011114432 
    151000   0.050395644   -0.2802513      0             -0.24013951    -0.000987888  
    152000   0.052608735   -0.27954133     0             -0.23766806    -0.0034920884 
    153000   0.051201676   -0.27284197     0             -0.23208864    -0.0056068143 
    154000   0.050505871   -0.27904422     0             -0.2388447      0.0036119065 
    155000   0.049069788   -0.2796323      0             -0.24057582     0.00041731364
    156000   0.051901158   -0.27908362     0             -0.23777354     0.0054563945 
    157000   0.049939328   -0.28077496     0             -0.24102638    -0.00029756244
    158000   0.0503746     -0.27149459     0             -0.23139956     0.002838499  
    159000   0.053773435   -0.27838403     0             -0.23558373     0.0029321056 
    160000   0.053350868   -0.2838644      0             -0.24140044     0.0060375118 
    161000   0.04853105    -0.27757635     0             -0.23894867    -0.0018310286 
    162000   0.049056799   -0.28171492     0             -0.24266877    -0.0041056334 
    163000   0.051190092   -0.28325263     0             -0.24250852     0.0092914321 
    164000   0.049852034   -0.28271837     0             -0.24303927     0.0049329766 
    165000   0.04944286    -0.28197784     0             -0.24262441     0.002710275  
    166000   0.052263117   -0.2824828      0             -0.24088463     0.00012101083
    167000   0.052577686   -0.28263981     0             -0.24079126    -0.0041507404 
    168000   0.050595568   -0.28265175     0             -0.24238084    -0.0012347094 
    169000   0.04965066    -0.28476129     0             -0.24524246    -0.001641014  
    170000   0.053296466   -0.28358806     0             -0.24116741    -4.7312978e-05
    171000   0.051528961   -0.27337581     0             -0.23236198     0.0058083046 
    172000   0.049522344   -0.28463775     0             -0.24522106     0.00033221672
    173000   0.049488784   -0.28412676     0             -0.24473678    -0.0018624631 
    174000   0.049794596   -0.282805       0             -0.24317161     0.0030251203 
    175000   0.047705508   -0.27842309     0             -0.24045249     0.00024377594
    176000   0.049016025   -0.28014858     0             -0.24113489     0.0056479804 
    177000   0.052015632   -0.28396501     0             -0.24256382    -0.0044034564 
    178000   0.047546808   -0.28438027     0             -0.24653598     0.0085980203 
    179000   0.048977436   -0.28347643     0             -0.24449345    -0.004995981  
    180000   0.049948211   -0.28450242     0             -0.24474676    -0.0013112215 
    181000   0.049379881   -0.27839839     0             -0.23909509    -0.0093580415 
    182000   0.049272019   -0.28427746     0             -0.24506001     0.0068132594 
    183000   0.048256821   -0.28514348     0             -0.24673407     0.0030863318 
    184000   0.052196894   -0.28566128     0             -0.24411582    -0.0023758696 
    185000   0.051731424   -0.28515077     0             -0.24397578     0.00027885765
    186000   0.050302178   -0.28491234     0             -0.24487495     0.0017663117 
    187000   0.050450251   -0.28515687     0             -0.24500162     0.001688108  
    188000   0.049507746   -0.28630606     0             -0.24690099     0.0018868379 
    189000   0.050316432   -0.28178013     0             -0.2417314      0.00075405308
    190000   0.049706667   -0.28667498     0             -0.24711158    -0.0028641653 
    191000   0.05076642    -0.28087393     0             -0.24046703    -0.0025902049 
    192000   0.049332074   -0.28599333     0             -0.24672808    -0.0016843798 
    193000   0.050156316   -0.28657129     0             -0.24665       -0.00028111061
    194000   0.048969062   -0.28391492     0             -0.24493861    -0.0065193297 
    195000   0.048720894   -0.2874918      0             -0.24871301    -0.0047739128 
    196000   0.051433245   -0.28575135     0             -0.2448137     -0.0086799876 
    197000   0.050320304   -0.28574272     0             -0.24569091     0.0099526211 
    198000   0.050724942   -0.28495355     0             -0.24457967     0.00016137832
    199000   0.050908862   -0.28757978     0             -0.2470595      0.0039536288 
    200000   0.050127698   -0.28815003     0             -0.24825152    -0.00031050818
    201000   0.05072855    -0.28622871     0             -0.24585196     0.0011210266 
    202000   0.051708159   -0.28603244     0             -0.24487598     0.0014876121 
    203000   0.050472038   -0.28670764     0             -0.24653505     0.0054453711 
    204000   0.05209727    -0.28077633     0             -0.23931016    -0.00067370322
    205000   0.047654556   -0.28254276     0             -0.24461271    -0.00043127515
    206000   0.04817983    -0.28736704     0             -0.24901891    -0.0020159943 
    207000   0.051147965   -0.28808867     0             -0.24737809    -0.0022555237 
    208000   0.049996861   -0.28736295     0             -0.24756858    -0.0021617155 
    209000   0.049274458   -0.28682205     0             -0.24760267    -0.0031411811 
    210000   0.048632659   -0.28879944     0             -0.25009089    -0.0072157109 
    211000   0.047001537   -0.28688109     0             -0.2494708      0.0024170223 
    212000   0.047754168   -0.28754234     0             -0.249533      -0.0037233022 
    213000   0.051265077   -0.28782307     0             -0.24701927     0.0044725305 
    214000   0.04851755    -0.28575314     0             -0.24713621    -0.00056629906
    215000   0.050833894   -0.29018553     0             -0.24972492    -0.0012945951 
    216000   0.048298114   -0.28905094     0             -0.25060866     0.00242317   
    217000   0.050913174   -0.28295007     0             -0.24242637    -0.0049166974 
    218000   0.049052356   -0.2877066      0             -0.24866399    -0.0067170621 
    219000   0.049475177   -0.28853215     0             -0.249153       0.0037920245 
    220000   0.049803074   -0.28808892     0             -0.24844878     0.0025802084 
    221000   0.051969464   -0.2885204      0             -0.24715596    -0.0017503975 
    222000   0.051761794   -0.28794737     0             -0.24674821    -0.0027071229 
    223000   0.048163237   -0.28826026     0             -0.24992533     0.0008270488 
    224000   0.049642334   -0.28826403     0             -0.24875183     0.0024949606 
    225000   0.051197591   -0.28753797     0             -0.24678788    -0.0023433995 
    226000   0.051877895   -0.28902986     0             -0.2477383      0.00080504277
    227000   0.050724299   -0.2882094      0             -0.24783603     0.00057372881
    228000   0.048071495   -0.28869549     0             -0.25043359    -0.0063141288 
    229000   0.050084785   -0.28904185     0             -0.24917749     0.0086649918 
    230000   0.05128526    -0.28876784     0             -0.24794798     0.00063298669
    231000   0.049108422   -0.2889702      0             -0.24988297    -0.0042389932 
    232000   0.050196477   -0.28777499     0             -0.24782173    -0.0017473581 
    233000   0.052944584   -0.28876017     0             -0.24661959     0.0019112593 
    234000   0.051383364   -0.28438273     0             -0.24348479     0.0040945024 
    235000   0.052107675   -0.2846819      0             -0.24320745    -0.0055345039 
    236000   0.051931893   -0.28786858     0             -0.24653404    -0.0015642305 
    237000   0.049382645   -0.29120674     0             -0.25190124     0.00059325368
    238000   0.052033135   -0.28590336     0             -0.24448824     0.0050368134 
    239000   0.051004717   -0.29197886     0             -0.25138229    -0.0075251911 
    240000   0.048646189   -0.29098006     0             -0.25226074     0.0051532222 
    241000   0.049484499   -0.2862351      0             -0.24684853    -0.0030893256 
    242000   0.048000994   -0.29266718     0             -0.25446139     0.0046822968 
    243000   0.052045603   -0.29146426     0             -0.25003921     0.0024402094 
    244000   0.050165382   -0.28764499     0             -0.24771648    -0.0069349458 
    245000   0.04932816    -0.28903301     0             -0.24977088    -0.0018918224 
    246000   0.051374794   -0.28860822     0             -0.2477171     -0.0036902125 
    247000   0.05059095    -0.28664694     0             -0.2463797      0.0017765445 
    248000   0.048099531   -0.28689344     0             -0.24860921     1.6545819e-05
    249000   0.05032659    -0.29294081     0             -0.25288399     0.0019066721 
    250000   0.048261321   -0.29389963     0             -0.25548664     0.00056485679
    251000   0.049291248   -0.29298216     0             -0.25374941     0.0081853579 
    252000   0.04879225    -0.2941558      0             -0.25532022    -0.00051874084
    253000   0.053425027   -0.28824916     0             -0.24572618    -0.0018870836 
    254000   0.049249946   -0.29306749     0             -0.25386762     0.0095751649 
    255000   0.049221457   -0.29361592     0             -0.25443872    -0.00064767711
    256000   0.049125236   -0.29326385     0             -0.25416323     0.0043448123 
    257000   0.0470373     -0.29323868     0             -0.25579993    -0.0070556148 
    258000   0.049172334   -0.29334143     0             -0.25420333     0.0055816555 
    259000   0.051651063   -0.29396099     0             -0.25284997    -0.0023075601 
    260000   0.050367186   -0.29437432     0             -0.25428519     0.0034854062 
    261000   0.052737296   -0.29268948     0             -0.25071389    -0.0016152753 
    262000   0.049069509   -0.29359786     0             -0.2545416     -0.0051261463 
    263000   0.052873279   -0.29383055     0             -0.25174673    -0.0036347968 
    264000   0.052866086   -0.29394437     0             -0.25186627     0.0083524202 
    265000   0.051160007   -0.29406213     0             -0.25334196     0.0017573561 
    266000   0.053108931   -0.29356721     0             -0.25129582    -0.0037259077 
    267000   0.052220501   -0.29306001     0             -0.25149575    -0.0014480841 
    268000   0.051114245   -0.28366795     0             -0.2429842      0.0026622348 
    269000   0.048191843   -0.29339672     0             -0.25503902    -0.0024572824 
    270000   0.049961891   -0.29328205     0             -0.25351551    -0.0013810769 
    271000   0.049592037   -0.29315088     0             -0.25367872    -0.0031044934 
    272000   0.049038023   -0.2928106      0             -0.2537794     -0.0024251057 
    273000   0.049407487   -0.29340184     0             -0.25407657     0.0023370306 
    274000   0.050782752   -0.29447383     0             -0.25405394    -0.0046163321 
    275000   0.049232937   -0.29260784     0             -0.2534215      0.0012403993 
    276000   0.04995712    -0.2934729      0             -0.25371015     0.00089820836
    277000   0.051698739   -0.29403935     0             -0.25289038     0.0014254747 
    278000   0.050178296   -0.29266858     0             -0.25272979     6.8275605e-06
    279000   0.0488355     -0.29378845     0             -0.25491844    -0.0029214616 
    280000   0.051426416   -0.29352252     0             -0.25259031     0.00063742936
    281000   0.05210475    -0.29212575     0             -0.25065363     0.0026935877 
    282000   0.050556424   -0.28749072     0             -0.24725097    -0.002871598  
    283000   0.051641745   -0.2911566      0             -0.250053       0.0018104846 
    284000   0.051522266   -0.29506687     0             -0.25405836    -0.0028891798 
    285000   0.051113969   -0.29501454     0             -0.25433102     0.0046821087 
    286000   0.048656172   -0.28824252     0             -0.24951525    -0.0022784733 
    287000   0.050555519   -0.2951046      0             -0.25486556     0.00086337716
    288000   0.05115134    -0.29543858     0             -0.25472531     0.0038294943 
    289000   0.048260422   -0.29585641     0             -0.25744414     0.0064006076 
    290000   0.051488473   -0.29568694     0             -0.25470533    -0.0023819495 
    291000   0.04870256    -0.29558599     0             -0.2568218      0.0030977935 
    292000   0.049245694   -0.29384201     0             -0.25464551     0.0076876798 
    293000   0.04766716    -0.29706049     0             -0.25912041     0.0058634158 
    294000   0.049271048   -0.29645346     0             -0.25723678     0.0037052527 
    295000   0.051504233   -0.29604597     0             -0.25505182     0.0010201818 
    296000   0.047745885   -0.29794731     0             -0.25994457    -0.0027584368 
    297000   0.050667234   -0.29696312     0             -0.25663517     0.0027515321 
    298000   0.051436768   -0.29602501     0             -0.25508456     0.001065593  
    299000   0.049989198   -0.29677027     0             -0.25698199    -0.0055868058 
    300000   0.050420062   -0.29771102     0             -0.2575798      0.010479158  
    301000   0.049209657   -0.29818782     0             -0.25902001     0.0012037662 
    302000   0.053357749   -0.29782786     0             -0.25535842    -0.001739266  
    303000   0.047697749   -0.29792921     0             -0.25996479     0.0012173049 
    304000   0.051168621   -0.29785215     0             -0.25712513    -0.0048653185 
    305000   0.051595968   -0.29826042     0             -0.25719325    -0.0059823516 
    306000   0.049860404   -0.29798387     0             -0.2582981     -0.0007067745 
    307000   0.051254654   -0.29839982     0             -0.25760432     0.0034124531 
    308000   0.051232737   -0.2978592      0             -0.25708114    -0.002814114  
    309000   0.050248062   -0.29860964     0             -0.25861532     0.0018418268 
    310000   0.048298035   -0.29725276     0             -0.25881054     0.0022316929 
    311000   0.049048874   -0.29869228     0             -0.25965245     0.0010250384 
    312000   0.050952404   -0.29843433     0             -0.2578794      0.0022695065 
    313000   0.050127159   -0.29813968     0             -0.25824159     0.0032706419 
    314000   0.050988032   -0.29865956     0             -0.25807627     0.0018718935 
    315000   0.050324249   -0.29843074     0             -0.25837578     0.0023861568 
    316000   0.051935558   -0.29689275     0             -0.25555529     0.003533054  
    317000   0.049447811   -0.29800631     0             -0.25864894     0.00022586906
    318000   0.050650977   -0.29704341     0             -0.2567284     -0.0044223121 
    319000   0.050271488   -0.29296509     0             -0.25295213     0.00081829967
    320000   0.048890315   -0.29680292     0             -0.25788928     0.0011836056 
    321000   0.04884369    -0.29756263     0             -0.25868611     0.0024126618 
    322000   0.050166677   -0.29708985     0             -0.25716031     0.0013923637 
    323000   0.048906278   -0.2974803      0             -0.25855396     0.0016792161 
    324000   0.050763222   -0.29689944     0             -0.25649509     0.0043774606 
    325000   0.048598933   -0.2973179      0             -0.25863619    -0.0025724493 
    326000   0.050173441   -0.29044873     0             -0.25051381    -0.0014293737 
    327000   0.050313339   -0.29675031     0             -0.25670403     0.0038852331 
    328000   0.051518947   -0.29686002     0             -0.25585416     0.0038208513 
    329000   0.047820286   -0.29742126     0             -0.25935931    -0.0006473201 
    330000   0.051371699   -0.2952225      0             -0.25433384     0.0013581051 
    331000   0.05082364    -0.29434234     0             -0.2538899     -0.01228996   
    332000   0.050434936   -0.29870254     0             -0.25855948     0.0021547486 
    333000   0.049123661   -0.29316643     0             -0.25406707     0.0061242763 
    334000   0.052734659   -0.29890754     0             -0.25693404    -0.0073339351 
    335000   0.051647422   -0.29838196     0             -0.25727385    -0.0010102385 
    336000   0.048562662   -0.29791152     0             -0.25925868     0.0048167255 
    337000   0.049701752   -0.29924074     0             -0.25968125    -0.0044374474 
    338000   0.04953371    -0.29842891     0             -0.25900318    -0.0073329965 
    339000   0.052786852   -0.29832158     0             -0.25630655    -0.0016387809 
    340000   0.049460802   -0.29929789     0             -0.25993018    -0.0012809215 
    341000   0.051239854   -0.29907193     0             -0.25828821     0.0019372257 
    342000   0.050323626   -0.29954986     0             -0.2594954      0.0053924533 
    343000   0.051293507   -0.29986725     0             -0.25904082     0.0010282991 
    344000   0.050150776   -0.29322595     0             -0.25330907     0.0020973844 
    345000   0.047933656   -0.3003458      0             -0.26219361    -0.002892769  
    346000   0.049129132   -0.29937448     0             -0.26027076     0.0090187214 
    347000   0.049641229   -0.2940119      0             -0.25450058     0.0057998126 
    348000   0.049939913   -0.30120297     0             -0.26145392    -0.001324914  
    349000   0.04906338    -0.29882755     0             -0.25977616     0.0020210837 
    350000   0.052925139   -0.30000614     0             -0.25788103     0.0075275513 
    351000   0.04884214    -0.2998856      0             -0.26101031    -0.0026341413 
    352000   0.050854112   -0.29986393     0             -0.25938724    -0.0020530744 
    353000   0.049256664   -0.29983873     0             -0.26063351     0.0019947229 
    354000   0.049905014   -0.30053919     0             -0.26081792     0.0037667133 
    355000   0.048926568   -0.29702928     0             -0.25808679     0.0015735936 
    356000   0.049603793   -0.29968672     0             -0.2602052     -0.0037850114 
    357000   0.050530277   -0.29941322     0             -0.25919428    -0.0088457297 
    358000   0.051536567   -0.2929266      0             -0.25190672    -0.010787127  
    359000   0.04889951    -0.29938984     0             -0.26046889     0.00017283232
    360000   0.0492548     -0.29952473     0             -0.26032099    -0.0046389826 
    361000   0.051884926   -0.29966063     0             -0.25836347    -0.0010444751 
    362000   0.048980946   -0.30020616     0             -0.26122038    -0.00079269882
    363000   0.049010161   -0.29953287     0             -0.26052384     0.0037528947 
    364000   0.046407606   -0.29964932     0             -0.26271176    -0.00048837382
    365000   0.049693697   -0.29870432     0             -0.25915124     0.0019935597 
    366000   0.050218379   -0.29831483     0             -0.25834414     0.0076032057 
    367000   0.050600273   -0.29379895     0             -0.25352429    -0.0015892229 
    368000   0.047176731   -0.29858215     0             -0.26103242    -0.0014806983 
    369000   0.048536724   -0.29906672     0             -0.26043453    -8.0311535e-05
    370000   0.049193871   -0.29682623     0             -0.25767098     0.0029816883 
    371000   0.050428451   -0.29909954     0             -0.25896164     0.0084786866 
    372000   0.050660339   -0.29809309     0             -0.25777063     0.003912425  
    373000   0.051681398   -0.2975621      0             -0.25642694     0.0043811203 
    374000   0.050741819   -0.29869989     0             -0.25831257    -0.0046596547 
    375000   0.049927631   -0.29892457     0             -0.25918529    -0.001733095  
    376000   0.049124417   -0.29874273     0             -0.25964276     0.0049214521 
    377000   0.051267489   -0.29505986     0             -0.25425414    -0.0054257912 
    378000   0.051425632   -0.29950089     0             -0.2585693     -0.0033524646 
    379000   0.05465281    -0.29968063     0             -0.25618041     0.0091367367 
    380000   0.049370774   -0.29720919     0             -0.25791314    -0.0020576919 
    381000   0.049953684   -0.30003092     0             -0.26027091    -0.0024715823 
    382000   0.05262631    -0.29929628     0             -0.25740903     0.0003766639 
    383000   0.047478582   -0.30082803     0             -0.26303804    -0.0031297241 
    384000   0.04779658    -0.30136727     0             -0.26332418    -0.00024197685
    385000   0.049131685   -0.30205309     0             -0.26294734    -0.0066693589 
    386000   0.050396086   -0.30168924     0             -0.26157711     0.0036523876 
    387000   0.050542175   -0.30211252     0             -0.2618841      0.0055075191 
    388000   0.050293169   -0.30215375     0             -0.26212354    -0.0012116354 
    389000   0.051535988   -0.30224008     0             -0.26122066    -0.0024836549 
    390000   0.052792041   -0.29706186     0             -0.2550427     -0.00029271781
    391000   0.052703674   -0.30231279     0             -0.26036396    -0.0021557742 
    392000   0.049621669   -0.30081602     0             -0.26132027     0.00666475   
    393000   0.05156677    -0.30388399     0             -0.26284007    -0.0040789434 
    394000   0.050799557   -0.30171405     0             -0.26128078    -0.00098989236
    395000   0.050273978   -0.29750492     0             -0.25748998     0.0079331117 
    396000   0.051749544   -0.3021802      0             -0.26099079     0.00031304086
    397000   0.051398251   -0.30164461     0             -0.26073482     0.0034707306 
    398000   0.05255918    -0.30259244     0             -0.26075862     0.0021100578 
    399000   0.049771283   -0.30193881     0             -0.26232398    -0.0044088878 
    400000   0.051402827   -0.30191501     0             -0.26100158     0.0012706654 
    401000   0.050804681   -0.30260632     0             -0.26216897     0.0021849871 
    402000   0.05223655    -0.30247135     0             -0.26089433     0.0085425043 
    403000   0.053432499   -0.30338796     0             -0.26085903     0.0029341053 
    404000   0.048443967   -0.30209034     0             -0.26353197    -0.00047785171
    405000   0.048876973   -0.30265477     0             -0.26375175     0.00096039995
    406000   0.048391332   -0.30268056     0             -0.26416408    -0.0063832987 
    407000   0.048928185   -0.30195467     0             -0.26301089    -0.0016737392 
    408000   0.048403947   -0.3022195      0             -0.26369298     0.00052591902
    409000   0.050867343   -0.3018008      0             -0.26131358    -0.0060046095 
    410000   0.051032234   -0.3027576      0             -0.26213913     0.001627724  
    411000   0.04999351    -0.30356642     0             -0.26377471     0.0053276618 
    412000   0.051857443   -0.30188925     0             -0.26061397    -0.0043108557 
    413000   0.04884074    -0.30250014     0             -0.26362596     0.0084850354 
    414000   0.050439931   -0.30333522     0             -0.26318819    -0.0019996399 
    415000   0.05062373    -0.30335063     0             -0.26305731     0.0006631692 
    416000   0.0492987     -0.30246392     0             -0.26322524     0.0032020778 
    417000   0.050555727   -0.30264047     0             -0.26240127     0.005749852  
    418000   0.050193007   -0.30343094     0             -0.26348045    -0.002072632  
    419000   0.048863355   -0.30208617     0             -0.26319399     0.0028434062 
    420000   0.050700198   -0.30129688     0             -0.26094269    -0.0031492696 
    421000   0.049369231   -0.30185077     0             -0.26255595     0.010748336  
    422000   0.051620481   -0.30203962     0             -0.26095294    -0.0021913171 
    423000   0.05199469    -0.30292209     0             -0.26153756     0.0016847907 
    424000   0.049588314   -0.30215899     0             -0.26268979     0.013045385  
    425000   0.049943296   -0.30210378     0             -0.26235204    -0.0050394394 
    426000   0.050453214   -0.3010887      0             -0.2609311     -0.0094214964 
    427000   0.053381043   -0.30164972     0             -0.25916174    -0.0021704994 
    428000   0.051064094   -0.30325274     0             -0.26260891    -0.00038738899
    429000   0.049152057   -0.30285382     0             -0.26373185    -8.5900078e-05
    430000   0.049106214   -0.30179075     0             -0.26270527     0.0024180215 
    431000   0.047978451   -0.30144081     0             -0.26325296    -0.0092250904 
    432000   0.048923159   -0.3015922      0             -0.26265242    -0.0062154085 
    433000   0.052877786   -0.30235169     0             -0.26026427    -0.0088884896 
    434000   0.048025655   -0.29933041     0             -0.26110499    -0.0077513134 
    435000   0.051394581   -0.30262038     0             -0.2617135     -4.9995355e-06
    436000   0.054245073   -0.30271613     0             -0.25954045    -0.0088182014 
    437000   0.049860834   -0.30270475     0             -0.26301864    -0.00027655584
    438000   0.047865118   -0.30416061     0             -0.26606297     0.0013002908 
    439000   0.051627989   -0.30274572     0             -0.26165307    -0.0025824693 
    440000   0.045887645   -0.30412709     0             -0.26760339    -0.006124401  
    441000   0.049033013   -0.29758063     0             -0.25855342    -0.0022546421 
    442000   0.052086778   -0.30431149     0             -0.26285367    -0.00066821014
    443000   0.048913879   -0.29520573     0             -0.25627334    -0.00033089364
    444000   0.050175629   -0.30419186     0             -0.26425519     0.00019055568
    445000   0.048667875   -0.29710816     0             -0.25837158    -0.0037153881 
    446000   0.050901026   -0.30345535     0             -0.26294132     0.0090899156 
    447000   0.050614189   -0.29970454     0             -0.2594188      0.0041489046 
    448000   0.047675969   -0.30306137     0             -0.26511428    -0.0049120032 
    449000   0.050401277   -0.30297595     0             -0.26285968    -0.0033277141 
    450000   0.049187184   -0.30227228     0             -0.26312236    -0.0052496884 
    451000   0.049312258   -0.3032021      0             -0.26395262    -0.0013045286 
    452000   0.051027279   -0.30171341     0             -0.26109889     0.0033990933 
    453000   0.050900691   -0.30248548     0             -0.26197171    -0.00024161619
    454000   0.051649681   -0.30235254     0             -0.26124262     0.0087560413 
    455000   0.049732368   -0.30190868     0             -0.26232483    -0.00080414664
    456000   0.048093814   -0.29570209     0             -0.25742242     0.0038131172 
    457000   0.049492617   -0.30176632     0             -0.26237329    -0.00069220706
    458000   0.047854185   -0.30207491     0             -0.26398597    -0.00071368674
    459000   0.05038359    -0.30160493     0             -0.26150274    -0.0092191245 
    460000   0.048102694   -0.30197119     0             -0.26368445    -0.002868133  
    461000   0.049512604   -0.3012013      0             -0.26179236     0.0029062713 
    462000   0.04946281    -0.30079443     0             -0.26142512    -0.00074149939
    463000   0.052483624   -0.30096024     0             -0.25918656     3.3457733e-05
    464000   0.049307726   -0.30040531     0             -0.26115944    -0.0034398368 
    465000   0.048710178   -0.30109938     0             -0.26232912    -0.0056807288 
    466000   0.047317538   -0.30254184     0             -0.26488004     0.0011776667 
    467000   0.052578547   -0.30110911     0             -0.25925987     0.0032621482 
    468000   0.050332503   -0.2969256      0             -0.25686408     0.00091018468
    469000   0.0505409     -0.29852513     0             -0.25829773     0.001210315  
    470000   0.050226502   -0.30138086     0             -0.2614037     -0.0038745691 
    471000   0.05172805    -0.30092837     0             -0.25975608    -0.0045946508 
    472000   0.051288618   -0.30111425     0             -0.26029172    -0.0013292373 
    473000   0.0528626     -0.29433819     0             -0.25226287     0.0055961751 
    474000   0.050354575   -0.30059077     0             -0.26051167     0.0075104289 
    475000   0.050213786   -0.30162598     0             -0.26165894     0.0050525788 
    476000   0.048011451   -0.30035972     0             -0.2621456     -0.0058221131 
    477000   0.049513635   -0.30191957     0             -0.26250981    -0.0038227677 
    478000   0.049844993   -0.30048133     0             -0.26080783     0.0006781161 
    479000   0.051290722   -0.30131062     0             -0.26048642     0.0018210673 
    480000   0.048023285   -0.30095098     0             -0.26272745    -0.0062572243 
    481000   0.052248241   -0.29894271     0             -0.25735638     0.0018918552 
    482000   0.052385841   -0.30011723     0             -0.25842138     0.00060892896
    483000   0.049695781   -0.30146077     0             -0.26190604     0.0072591336 
    484000   0.050283084   -0.30151666     0             -0.26149446    -0.0017775378 
    485000   0.050163507   -0.30055364     0             -0.26062663     0.0020776649 
    486000   0.048005786   -0.29530603     0             -0.25709643     0.0026035708 
    487000   0.049715487   -0.30065511     0             -0.26108469    -0.0088757739 
    488000   0.049887693   -0.29877796     0             -0.25907047    -0.0035382326 
    489000   0.049973585   -0.30028979     0             -0.26051394     0.0078019868 
    490000   0.051266994   -0.30060526     0             -0.25979994     0.0023593215 
    491000   0.048128641   -0.30114997     0             -0.26284258     0.0054603285 
    492000   0.048755759   -0.30145259     0             -0.26264605    -0.0029626054 
    493000   0.051350453   -0.30162315     0             -0.2607514     -0.0025560342 
    494000   0.051952583   -0.30177144     0             -0.26042043    -0.003941759  
    495000   0.051671907   -0.30238301     0             -0.2612554     -0.0013312018 
    496000   0.048865692   -0.30149243     0             -0.26259839     0.0070771402 
    497000   0.051370132   -0.29442188     0             -0.25353447    -0.004383106  
    498000   0.048948082   -0.30105037     0             -0.26209076    -0.00016248469
    499000   0.049583993   -0.30011007     0             -0.26064431     0.004886741  
    500000   0.049090091   -0.30247878     0             -0.26340614    -0.0026896582 
    501000   0.049587395   -0.30088234     0             -0.26141388     0.005620486  
    502000   0.049106179   -0.3004333      0             -0.26134785    -4.0396332e-05
    503000   0.050659248   -0.30086523     0             -0.26054363     0.0080940632 
    504000   0.0507395     -0.30051686     0             -0.26013139     0.0067381812 
    505000   0.052284588   -0.30116065     0             -0.25954538     0.0018275741 
    506000   0.048737203   -0.30078462     0             -0.26199285     1.8442716e-05
    507000   0.04891407    -0.29981397     0             -0.26088143     0.0065825461 
    508000   0.049404081   -0.2993371      0             -0.26001454    -0.0014689754 
    509000   0.05159748    -0.29503078     0             -0.25396241    -0.011434367  
    510000   0.049173543   -0.29831648     0             -0.25917742    -0.003788676  
    511000   0.051718058   -0.28313797     0             -0.24197362    -0.0022964918 
    512000   0.048405569   -0.29960082     0             -0.26107302    -0.0011220946 
    513000   0.049664841   -0.29926358     0             -0.25973347    -0.0030988439 
    514000   0.050860476   -0.29719893     0             -0.25671717     0.00078457271
    515000   0.052304158   -0.29693662     0             -0.25530578    -0.0003693988 
    516000   0.053172351   -0.29877869     0             -0.25645683    -0.0065856904 
    517000   0.051995675   -0.29964485     0             -0.25825954     0.0013723582 
    518000   0.051203791   -0.2993759      0             -0.25862088    -0.0047514624 
    519000   0.049037862   -0.29254508     0             -0.25351401     0.0062380435 
    520000   0.04904955    -0.29805536     0             -0.25901498    -0.0027141767 
    521000   0.049613494   -0.2999283      0             -0.26043906    -0.0027525496 
    522000   0.05232043    -0.30049263     0             -0.25884884     0.0093348137 
    523000   0.048325711   -0.29941418     0             -0.26094994     0.006127435  
    524000   0.050239016   -0.30054143     0             -0.26055431     0.0041398918 
    525000   0.052560685   -0.29956274     0             -0.25772772    -0.0019442232 
    526000   0.052367477   -0.29981118     0             -0.25812994    -0.0037023117 
    527000   0.050204932   -0.3000385      0             -0.26007851    -0.0049309284 
    528000   0.052541985   -0.30040262     0             -0.25858248    -0.0044988983 
    529000   0.050488545   -0.30088612     0             -0.26070039    -0.0036294736 
    530000   0.049404252   -0.29822503     0             -0.25890234     0.0012876289 
    531000   0.047478042   -0.30108418     0             -0.26329463     0.0019005049 
    532000   0.049756392   -0.30042058     0             -0.2608176     -0.0033952501 
    533000   0.049539498   -0.30047297     0             -0.26104262    -0.0007756126 
    534000   0.050677925   -0.29263304     0             -0.25229658     0.0016954706 
    535000   0.050148456   -0.28538387     0             -0.24546884     8.9960464e-05
    536000   0.051564398   -0.30210467     0             -0.26106263    -0.0019939563 
    537000   0.049409788   -0.30216001     0             -0.2628329     -0.00066152666
    538000   0.051506259   -0.30294279     0             -0.26194703     0.00043778657
    539000   0.049277604   -0.30312984     0             -0.26390795    -0.0020160481 
    540000   0.047940509   -0.30272877     0             -0.26457112    -0.0034235048 
    541000   0.050127094   -0.30291354     0             -0.26301551    -3.1453815e-05
    542000   0.049899161   -0.29628052     0             -0.2565639      0.00058787624
    543000   0.048207962   -0.30255286     0             -0.26418233     0.0037881623 
    544000   0.051505526   -0.30246135     0             -0.26146617    -0.0045266221 
    545000   0.049952617   -0.30276585     0             -0.26300669    -0.0030762319 
    546000   0.047664883   -0.30283155     0             -0.26489328     0.0015931742 
    547000   0.05071932    -0.30389279     0             -0.26352338     0.0042590698 
    548000   0.049724817   -0.30267229     0             -0.26309444     0.0016390295 
    549000   0.050890227   -0.30343558     0             -0.26293014    -0.0094441496 
    550000   0.053848873   -0.30365931     0             -0.26079898    -0.0027596731 
    551000   0.051321129   -0.30348571     0             -0.2626373     -0.0037346902 
    552000   0.050269808   -0.30262486     0             -0.26261323    -0.0022312746 
    553000   0.050676437   -0.29890415     0             -0.25856888     0.0034091814 
    554000   0.050499781   -0.29777603     0             -0.25758136    -0.0038671856 
    555000   0.049298383   -0.3031995      0             -0.26396107    -0.0015857207 
    556000   0.049976894   -0.29879073     0             -0.25901225     0.00012706523
    557000   0.051160341   -0.29995129     0             -0.25923086     0.00078000989
    558000   0.049062095   -0.29734256     0             -0.2582922      8.7306101e-05
    559000   0.048176176   -0.29921453     0             -0.26086931     0.0027075868 
    560000   0.0494132     -0.30167471     0             -0.2623449      0.0090900128 
    561000   0.050268223   -0.30136162     0             -0.26135125     0.0065130009 
    562000   0.050304011   -0.30144632     0             -0.26140747     0.0011775117 
    563000   0.048600303   -0.30089232     0             -0.26220952    -0.0070784626 
    564000   0.051631628   -0.29934195     0             -0.2582464     -0.0042520374 
    565000   0.048175902   -0.30194077     0             -0.26359576    -0.0036434548 
    566000   0.0510744     -0.30189794     0             -0.26124591    -0.0023656558 
    567000   0.051289171   -0.30256934     0             -0.26174636    -0.0031265854 
    568000   0.047557457   -0.30126331     0             -0.26341054     0.0047688234 
    569000   0.048380197   -0.29449625     0             -0.25598864     0.0036864532 
    570000   0.049846838   -0.30057499     0             -0.26090002     0.0080531713 
    571000   0.054538052   -0.30070289     0             -0.25729401     0.0077689728 
    572000   0.049788765   -0.30190589     0             -0.26227714    -0.0053958415 
    573000   0.049982169   -0.29138486     0             -0.25160217     0.0025491983 
    574000   0.047014243   -0.30167554     0             -0.26425514    -0.0033762005 
    575000   0.050322267   -0.30215676     0             -0.26210338     0.0012045587 
    576000   0.048241273   -0.30140941     0             -0.26301237     0.0022301845 
    577000   0.051713602   -0.30192713     0             -0.26076633    -0.0093132243 
    578000   0.049113945   -0.30159123     0             -0.2624996      0.0046781716 
    579000   0.04970022    -0.30150839     0             -0.26195012    -0.0044389136 
    580000   0.050006897   -0.30286373     0             -0.26306136    -0.0016336208 
    581000   0.051651632   -0.3033304      0             -0.26221893     0.003510289  
    582000   0.05154653    -0.30293227     0             -0.26190445    -0.0030272264 
    583000   0.049716467   -0.30318915     0             -0.26361795    -0.0065868379 
    584000   0.049919152   -0.30313198     0             -0.26339946     0.001142206  
    585000   0.048718641   -0.30212443     0             -0.26334744     0.0016889817 
    586000   0.050009349   -0.3036063      0             -0.26380199     0.002351938  
    587000   0.052461928   -0.30519207     0             -0.26343565     0.0018922342 
    588000   0.05037801    -0.30401509     0             -0.26391734    -0.0021311474 
    589000   0.051718029   -0.303839       0             -0.26267468     0.0037740184 
    590000   0.047869542   -0.30290032     0             -0.26479916    -0.0089694889 
    591000   0.052512187   -0.30358641     0             -0.26178999     0.0030599931 
    592000   0.04854335    -0.30289084     0             -0.26425337     0.0041947431 
    593000   0.052283324   -0.30411504     0             -0.26250078     0.0016388823 
    594000   0.04934744    -0.30415517     0             -0.26487769    -0.0074147823 
    595000   0.048592926   -0.30083323     0             -0.2621563      0.0010089669 
    596000   0.047666781   -0.30347057     0             -0.26553079    -0.002012707  
    597000   0.048910927   -0.30412174     0             -0.2651917     -0.00047495308
    598000   0.051173945   -0.30433887     0             -0.2636076     -0.009178056  
    599000   0.05210007    -0.3038898      0             -0.2624214     -0.0009320918 
    600000   0.047545989   -0.30420336     0             -0.26635973    -0.0033677245 
    601000   0.048492058   -0.30264427     0             -0.26404763    -0.0077441084 
    602000   0.049551447   -0.29923182     0             -0.25979196    -0.00033144318
    603000   0.050790729   -0.30421684     0             -0.26379059     0.00025843744
    604000   0.050869728   -0.30338964     0             -0.26290051     0.0055317662 
    605000   0.05022022    -0.30327969     0             -0.26330753    -0.00048925741
    606000   0.051192584   -0.30162348     0             -0.26087738     0.0012895253 
    607000   0.050696618   -0.30318481     0             -0.26283347    -0.0047365935 
    608000   0.050285333   -0.30427874     0             -0.26425476     0.00093349822
    609000   0.051374704   -0.30410474     0             -0.26321369    -0.0059251621 
    610000   0.048448894   -0.29973082     0             -0.26116853    -0.00013345754
    611000   0.0510882     -0.30299572     0             -0.26233271     0.0020743707 
    612000   0.049466034   -0.29806344     0             -0.25869157     0.0012270922 
    613000   0.051322899   -0.30316211     0             -0.26231229     0.003152765  
    614000   0.0491483     -0.30294276     0             -0.26382379    -0.00734504   
    615000   0.049639007   -0.30218043     0             -0.26267088     0.0060720502 
    616000   0.050272426   -0.30217809     0             -0.26216438    -0.0067011897 
    617000   0.051008605   -0.30294159     0             -0.26234193    -0.0039552196 
    618000   0.047741397   -0.30204729     0             -0.26404812     0.0064290131 
    619000   0.047799065   -0.30172551     0             -0.26368044    -0.00010224804
    620000   0.050311816   -0.29682469     0             -0.25677963    -0.0039902021 
    621000   0.048478637   -0.30255704     0             -0.26397108    -0.0037209879 
    622000   0.052689967   -0.30261276     0             -0.26067484    -0.0052634858 
    623000   0.05029695    -0.3007374      0             -0.26070418     0.00034585861
    624000   0.050455259   -0.30229658     0             -0.26213735    -0.00092139033
    625000   0.049049876   -0.30305347     0             -0.26401283    -0.0005103391 
    626000   0.048752596   -0.30351927     0             -0.26471525    -0.002058884  
    627000   0.051003711   -0.30317498     0             -0.26257921     0.0021701819 
    628000   0.052419971   -0.3022269      0             -0.26050388     0.0017913784 
    629000   0.049717606   -0.30227554     0             -0.26270343     0.0021497444 
    630000   0.050666337   -0.30195454     0             -0.2616273      0.0086466746 
    631000   0.048611393   -0.30108714     0             -0.26239551    -0.0013984091 
    632000   0.051379997   -0.30154186     0             -0.26064659     0.0025388838 
    633000   0.048248464   -0.30258571     0             -0.26418295     0.0041962913 
    634000   0.051891331   -0.30180273     0             -0.26050047    -0.00542028   
    635000   0.048296374   -0.3015813      0             -0.2631404     -0.0017323807 
    636000   0.050732886   -0.30167747     0             -0.26129726     0.0015523656 
    637000   0.047722543   -0.29372731     0             -0.25574315    -0.0025559896 
    638000   0.052048299   -0.30315296     0             -0.26172577     0.00044982241
    639000   0.051994723   -0.30220837     0             -0.26082382    -0.0026824955 
    640000   0.051405721   -0.293847       0             -0.25293125    -0.003390179  
    641000   0.049285452   -0.30349019     0             -0.26426205    -0.00041266811
    642000   0.050543276   -0.29802514     0             -0.25779585     0.0073085597 
    643000   0.049431041   -0.30403705     0             -0.26469303     0.0048969679 
    644000   0.04995951    -0.30389533     0             -0.26413068    -0.0048324238 
    645000   0.050374072   -0.30530674     0             -0.26521213    -0.00096722629
    646000   0.04986029    -0.30369277     0             -0.2640071      0.01096813   
    647000   0.050542431   -0.30370768     0             -0.26347907    -0.0045579413 
    648000   0.049135379   -0.30292439     0             -0.2638157      0.0024309576 
    649000   0.049555744   -0.30525877     0             -0.2658155      0.0013892791 
    650000   0.052360977   -0.3034606      0             -0.26178454     0.0060022724 
    651000   0.051098677   -0.29794147     0             -0.25727011    -0.00093430459
    652000   0.048037138   -0.30362895     0             -0.26539439    -0.0074861126 
    653000   0.050563737   -0.30452708     0             -0.2642815     -0.0087862252 
    654000   0.049797388   -0.30313121     0             -0.2634956      0.0030311477 
    655000   0.05191071    -0.30450634     0             -0.26318866     0.00020127935
    656000   0.048565352   -0.30515006     0             -0.26649508    -0.0081060925 
    657000   0.050708732   -0.30406435     0             -0.26370337     0.008931236  
    658000   0.05145273    -0.30483264     0             -0.26387948     0.001901521  
    659000   0.052222019   -0.30121621     0             -0.25965075    -0.013303335  
    660000   0.048510425   -0.30267585     0             -0.26406458    -0.00014166439
    661000   0.049760817   -0.2982076      0             -0.2586011      0.0021602283 
    662000   0.04971866    -0.30371266     0             -0.26413971    -0.0020939739 
    663000   0.050392741   -0.30355892     0             -0.26344945    -0.0031420674 
    664000   0.051704782   -0.30512208     0             -0.26396831    -0.00071578999
    665000   0.050110608   -0.30477044     0             -0.26488553    -0.0002211779 
    666000   0.049724487   -0.30454858     0             -0.26497099    -0.0048689761 
    667000   0.047911673   -0.30498679     0             -0.26685209    -0.0088861022 
    668000   0.051730135   -0.30446664     0             -0.26329268     0.0035456798 
    669000   0.048657339   -0.30433298     0             -0.26560478     0.00069343411
    670000   0.053195977   -0.30425134     0             -0.26191067    -0.003223017  
    671000   0.053222759   -0.30354988     0             -0.26118789    -0.0037745929 
    672000   0.050885268   -0.30460566     0             -0.26410417    -0.0014391473 
    673000   0.052102158   -0.30426817     0             -0.26279811    -0.0037975654 
    674000   0.05108627    -0.30440804     0             -0.26374657    -0.0052844585 
    675000   0.049740955   -0.30387651     0             -0.26428581     0.0014572045 
    676000   0.049146394   -0.30459175     0             -0.26547429    -0.0042031384 
    677000   0.047907972   -0.30409894     0             -0.26596718     0.0011701218 
    678000   0.051920167   -0.3033642      0             -0.26203899    -0.0025522695 
    679000   0.048756324   -0.30302285     0             -0.26421587     0.00087242198
    680000   0.049704469   -0.30261495     0             -0.2630533      0.0040812951 
    681000   0.048183245   -0.3006131      0             -0.26226225     0.005193702  
    682000   0.05117439    -0.30305849     0             -0.26232687    -0.0043724708 
    683000   0.050872262   -0.30272015     0             -0.26222901     0.007617167  
    684000   0.049677226   -0.30228672     0             -0.26274675    -0.0027879501 
    685000   0.050884667   -0.30072163     0             -0.26022062     0.0082810538 
    686000   0.049037447   -0.30453601     0             -0.26550526     0.0018585098 
    687000   0.050396594   -0.29679414     0             -0.2566816     -0.0010162905 
    688000   0.049086196   -0.30426817     0             -0.26519863     0.0038981022 
    689000   0.050944246   -0.30324185     0             -0.26269342     0.003462316  
    690000   0.04948383    -0.30377565     0             -0.26438961     0.005547394  
    691000   0.05116341    -0.30305035     0             -0.26232748     0.002364731  
    692000   0.052763247   -0.30465488     0             -0.26265863     0.0048954313 
    693000   0.04899895    -0.3050969      0             -0.2660968      0.0010397935 
    694000   0.049698532   -0.30419185     0             -0.26463492     0.0060784763 
    695000   0.052019565   -0.30370996     0             -0.26230564     0.002164928  
    696000   0.049627982   -0.30246625     0             -0.26296548    -0.0016682983 
    697000   0.051072224   -0.30281559     0             -0.26216529     0.0028370461 
    698000   0.050603495   -0.30101338     0             -0.26073616     0.0026935347 
    699000   0.048860326   -0.30121274     0             -0.26232298     0.0049879089 
    700000   0.050621024   -0.30247071     0             -0.26217954    -0.0021554886 
    701000   0.049555896   -0.30268706     0             -0.26324366    -0.0056847049 
    702000   0.052275085   -0.3020657      0             -0.260458       0.0027679767 
    703000   0.04898901    -0.30208236     0             -0.26309017     0.00080920404
    704000   0.051644105   -0.30175182     0             -0.26064634     0.0051815838 
    705000   0.051168917   -0.30029469     0             -0.25956743     0.0069777395 
    706000   0.049611749   -0.30172906     0             -0.26224121     0.00510753   
    707000   0.049161306   -0.30131564     0             -0.26218632     0.0092540818 
    708000   0.052225658   -0.30145579     0             -0.25988743     0.0066648298 
    709000   0.049811782   -0.29512763     0             -0.25548056     0.00025219105
    710000   0.048933258   -0.30310589     0             -0.26415807    -0.005489249  
    711000   0.053473224   -0.29578877     0             -0.25322743    -0.0029775084 
    712000   0.051358225   -0.30222079     0             -0.26134285    -0.00074860309
    713000   0.048717703   -0.30349047     0             -0.26471422     0.0032399773 
    714000   0.049568038   -0.30344964     0             -0.26399658     0.0078233816 
    715000   0.051255375   -0.3018835      0             -0.26108743     0.0089740806 
    716000   0.050365892   -0.30065163     0             -0.26056353     0.0085593851 
    717000   0.050425718   -0.29925459     0             -0.25911887     0.0023436346 
    718000   0.049521481   -0.30336886     0             -0.26395286    -0.0010134472 
    719000   0.048349779   -0.3019386      0             -0.2634552      0.004922526  
    720000   0.048672967   -0.30311643     0             -0.26437579     0.003760964  
    721000   0.053184389   -0.30411075     0             -0.2617793     -0.0069782153 
    722000   0.051391603   -0.30154225     0             -0.26063775     0.00053448256
    723000   0.051745141   -0.30226495     0             -0.26107905     0.0033003792 
    724000   0.049229687   -0.3039518      0             -0.26476805     0.00051906015
    725000   0.048016685   -0.30412398     0             -0.2659057      0.0038742218 
    726000   0.053837376   -0.30287008     0             -0.26001889    -0.0040090434 
    727000   0.052564604   -0.30279416     0             -0.26095602    -0.0015969589 
    728000   0.050506839   -0.30183879     0             -0.2616385     -0.0037083274 
    729000   0.051074356   -0.30347321     0             -0.26282121     0.0051896941 
    730000   0.050791403   -0.30298142     0             -0.26255464     0.00050648422
    731000   0.0508516     -0.30460699     0             -0.26413229    -0.011932153  
    732000   0.050498029   -0.30215642     0             -0.26196314     0.00047778142
    733000   0.052789807   -0.30340255     0             -0.26138517    -0.00048563948
    734000   0.050677894   -0.3021574      0             -0.26182097     0.0031408927 
    735000   0.048660537   -0.30110613     0             -0.26237538     0.00061572842
    736000   0.053077299   -0.29563254     0             -0.25338633    -0.002610623  
    737000   0.049092242   -0.30087506     0             -0.26180071    -0.0015909973 
    738000   0.047657006   -0.30274515     0             -0.26481315     0.0041099063 
    739000   0.049029524   -0.30365346     0             -0.26462903     0.0082593618 
    740000   0.048151158   -0.30488315     0             -0.26655783    -0.00556776   
    741000   0.053116935   -0.30290669     0             -0.26062893    -0.00023669374
    742000   0.050821863   -0.30311355     0             -0.26266252     0.0058065656 
    743000   0.053158466   -0.30196662     0             -0.25965581    -0.0026739552 
    744000   0.0505526     -0.30310876     0             -0.26287205    -0.0057987163 
    745000   0.049110361   -0.30334107     0             -0.26425229     0.0060059889 
    746000   0.050054164   -0.30427294     0             -0.26443295    -0.0011782055 
    747000   0.047345892   -0.3025884      0             -0.26490403     0.0081785538 
    748000   0.049582967   -0.3027626      0             -0.26329766     0.0015433928 
    749000   0.049877918   -0.30215677     0             -0.26245707     0.0002873615 
    750000   0.05101668    -0.30391964     0             -0.26331355    -0.0029212059 
    751000   0.050556351   -0.30303099     0             -0.26279129     0.0014461689 
    752000   0.050501859   -0.30432417     0             -0.26412785    -0.0017515721 
    753000   0.048529506   -0.30432643     0             -0.26569998     0.00167154   
    754000   0.049626314   -0.30317339     0             -0.26367395     4.3534802e-05
    755000   0.051814997   -0.30399923     0             -0.26275773    -0.0034902361 
    756000   0.048391361   -0.30399718     0             -0.26548068     0.0012503553 
    757000   0.052217689   -0.29845965     0             -0.25689763    -0.0028740682 
    758000   0.048091076   -0.29792768     0             -0.25965019     0.011162055  
    759000   0.052024442   -0.29878053     0             -0.25737233     0.0048169301 
    760000   0.049629104   -0.30506061     0             -0.26555894     0.0029185941 
    761000   0.048450891   -0.30249062     0             -0.26392673    -0.00069945026
    762000   0.049802271   -0.30314323     0             -0.26350374     0.0069745334 
    763000   0.052653649   -0.30399908     0             -0.26209007     0.0056312096 
    764000   0.051876529   -0.30302861     0             -0.26173814     0.0030393914 
    765000   0.050510661   -0.3024042      0             -0.26220087     0.010267226  
    766000   0.048854794   -0.3044124      0             -0.26552704     0.0026401559 
    767000   0.049907052   -0.30381532     0             -0.26409243     0.0045504424 
    768000   0.051683915   -0.30260646     0             -0.2614693     -0.0038434042 
    769000   0.051435219   -0.29683305     0             -0.25589383     0.00084116271
    770000   0.050102465   -0.30405938     0             -0.26418095     0.0062679187 
    771000   0.050755376   -0.30252595     0             -0.26212785     0.0040630568 
    772000   0.048404505   -0.30431957     0             -0.2657926     -0.0052354686 
    773000   0.051572023   -0.30529563     0             -0.26424752    -0.00042512668
    774000   0.048815158   -0.30492595     0             -0.26607214    -0.001318114  
    775000   0.049108822   -0.30455641     0             -0.26546886     0.0020541911 
    776000   0.049297742   -0.30452588     0             -0.26528796     0.0055910852 
    777000   0.051459574   -0.3038237      0             -0.2628651     -0.0016951859 
    778000   0.048116537   -0.30390099     0             -0.26560324     0.0015443206 
    779000   0.050919741   -0.30392069     0             -0.26339176    -0.00026605372
    780000   0.050456615   -0.30524576     0             -0.26508545    -0.0042127491 
    781000   0.051169549   -0.30357987     0             -0.26285211    -0.0064797078 
    782000   0.052572677   -0.30284562     0             -0.26100105     0.0072248963 
    783000   0.049829957   -0.30444254     0             -0.264781      -0.00080327909
    784000   0.048670595   -0.30493445     0             -0.2661957      0.0019556708 
    785000   0.049282963   -0.30346398     0             -0.26423782    -0.0059746376 
    786000   0.049621017   -0.30352758     0             -0.26403235     0.00062411003
    787000   0.050484241   -0.30363184     0             -0.26344954     0.0042090726 
    788000   0.050782658   -0.30384727     0             -0.26342745     0.0029441481 
    789000   0.049884978   -0.30239276     0             -0.26268744    -4.7959885e-05
    790000   0.050357549   -0.30321258     0             -0.26313111     0.0016658126 
    791000   0.05021559    -0.30183053     0             -0.26186206    -0.0044621221 
    792000   0.048204353   -0.30159838     0             -0.26323073     0.003569039  
    793000   0.047829339   -0.30263381     0             -0.26456465    -0.0021560858 
    794000   0.0479122     -0.30275723     0             -0.26462211    -0.00058109225
    795000   0.04924631    -0.30191156     0             -0.26271458     0.0019248618 
    796000   0.050129107   -0.30330848     0             -0.26340885    -0.0029453433 
    797000   0.050884209   -0.30271114     0             -0.26221049    -0.0028484699 
    798000   0.050909309   -0.30300847     0             -0.26248784    -0.0033886966 
    799000   0.05120524    -0.30295733     0             -0.26220116     0.0029097108 
    800000   0.049727327   -0.30349993     0             -0.26392009     0.0026488824 
    801000   0.051913105   -0.30249467     0             -0.26117509     0.0024463688 
    802000   0.051656208   -0.30342964     0             -0.26231453    -0.0042344731 
    803000   0.048515753   -0.30317366     0             -0.26455815    -0.00055012689
    804000   0.050842553   -0.30292388     0             -0.26245639    -0.0087670997 
    805000   0.050072287   -0.30256063     0             -0.26270622     0.0051738075 
    806000   0.04889284    -0.30327307     0             -0.26435743     0.0073288559 
    807000   0.051157591   -0.30297547     0             -0.26225723    -0.0021673934 
    808000   0.051877309   -0.30301474     0             -0.26172365     0.0011904811 
    809000   0.051197978   -0.30412235     0             -0.26337196     0.0062250875 
    810000   0.049229896   -0.30399996     0             -0.26481604     0.0084628671 
    811000   0.04946451    -0.30289594     0             -0.26352528    -2.6951914e-05
    812000   0.048800745   -0.30384392     0             -0.26500158     0.0040228153 
    813000   0.051059522   -0.29934275     0             -0.25870256    -0.0059046866 
    814000   0.048960126   -0.30405039     0             -0.26508119    -0.0031728262 
    815000   0.052144924   -0.30249663     0             -0.26099253    -0.0028337675 
    816000   0.048602963   -0.30337281     0             -0.26468789     0.003391259  
    817000   0.049823761   -0.30379245     0             -0.26413585    -0.0091626057 
    818000   0.049935595   -0.30351149     0             -0.26376588    -0.0010887324 
    819000   0.049753578   -0.30184875     0             -0.26224802     0.0052060318 
    820000   0.049678924   -0.30177457     0             -0.26223325    -0.0011220232 
    821000   0.050384195   -0.3007547      0             -0.26065203     0.0020921391 
    822000   0.052615571   -0.29098208     0             -0.24910337    -0.0029266846 
    823000   0.051156004   -0.2985474      0             -0.25783042     0.0026694854 
    824000   0.050610591   -0.3016357      0             -0.26135283     0.00021212025
    825000   0.049582078   -0.3015173      0             -0.26205307     0.003426652  
    826000   0.049359992   -0.29474647     0             -0.255459      -0.008876235  
    827000   0.051197836   -0.30090291     0             -0.26015263    -0.0046463991 
    828000   0.052255555   -0.30074846     0             -0.2591563      0.0012402676 
    829000   0.050155136   -0.3011587      0             -0.26123834    -0.0020580903 
    830000   0.049180961   -0.30326733     0             -0.26412236     0.0023773268 
    831000   0.051555741   -0.30241827     0             -0.26138312    -0.0055126377 
    832000   0.05224246    -0.30260256     0             -0.26102083    -0.0011589141 
    833000   0.051789353   -0.30219205     0             -0.26097097    -0.0054201073 
    834000   0.04997518    -0.30254813     0             -0.26277101     0.00071702205
    835000   0.052067856   -0.30277545     0             -0.26133269     0.003305294  
    836000   0.050338715   -0.30236179     0             -0.26229532     0.0043008021 
    837000   0.050894187   -0.30321208     0             -0.26270349    -0.0025251736 
    838000   0.049219551   -0.30260683     0             -0.26343114    -0.0096477016 
    839000   0.049442345   -0.30305191     0             -0.26369889    -0.004461408  
    840000   0.048796931   -0.30441646     0             -0.26557715     0.0059939573 
    841000   0.048153984   -0.30373031     0             -0.26540275    -0.0010359075 
    842000   0.048636251   -0.3033123      0             -0.26460088     0.0029110752 
    843000   0.049993461   -0.29770122     0             -0.25790955    -0.0061730921 
    844000   0.051504631   -0.30280468     0             -0.26181021     0.0021049429 
    845000   0.049713031   -0.3033483      0             -0.26377984    -0.0039008819 
    846000   0.051061574   -0.30337605     0             -0.26273423    -0.00034947486
[...]
   9787000   0.048757456   -0.30965004     0             -0.27084215    -0.0026142173 
   9788000   0.052547238   -0.31055362     0             -0.2687293      0.0005516827 
   9789000   0.050457398   -0.31042231     0             -0.27026137    -0.0092024286 
   9790000   0.052308335   -0.31072429     0             -0.26909012     0.0029904334 
   9791000   0.052193512   -0.30459423     0             -0.26305145    -0.0015201976 
   9792000   0.050409742   -0.31048143     0             -0.27035843     0.0011381374 
   9793000   0.050727679   -0.31152201     0             -0.27114595    -0.0047234466 
   9794000   0.04927466    -0.31174956     0             -0.27253001     0.0044114692 
   9795000   0.049328631   -0.31106119     0             -0.27179868    -0.0034488146 
   9796000   0.051276848   -0.31138197     0             -0.27056881     0.010821616  
   9797000   0.049424278   -0.31161002     0             -0.27227138    -0.0028045984 
   9798000   0.047527915   -0.31089191     0             -0.27306266     0.0054874925 
   9799000   0.048169462   -0.31160403     0             -0.27326415     0.002041528  
   9800000   0.048439973   -0.30975155     0             -0.27119636     0.0034462488 
   9801000   0.050716561   -0.31124782     0             -0.27088061    -0.0083830799 
   9802000   0.051119324   -0.3112729      0             -0.27058511    -0.0015218206 
   9803000   0.047035889   -0.31145878     0             -0.27402115     0.0039156876 
   9804000   0.049532753   -0.31161807     0             -0.27219309     1.949107e-06 
   9805000   0.050224047   -0.31136236     0             -0.27138715     0.0018514549 
   9806000   0.053789004   -0.31088133     0             -0.26806864     0.0010010033 
   9807000   0.049258116   -0.31171482     0             -0.27250844     0.0075377174 
   9808000   0.047632019   -0.31145386     0             -0.27354175    -0.0037789179 
   9809000   0.053405974   -0.31170901     0             -0.26920119    -0.0035395025 
   9810000   0.049293551   -0.31269107     0             -0.27345648    -0.00093592108
   9811000   0.051286156   -0.30875459     0             -0.26793401    -0.006412705  
   9812000   0.049537373   -0.31062504     0             -0.27119638    -0.011944733  
   9813000   0.04951528    -0.31242719     0             -0.27301612     0.00199538   
   9814000   0.050831161   -0.31223529     0             -0.27177686    -0.0052357285 
   9815000   0.050232984   -0.31161855     0             -0.27163623    -0.005595546  
   9816000   0.051989702   -0.31048511     0             -0.26910456    -0.0042657859 
   9817000   0.047234635   -0.30689479     0             -0.26929898     0.0033543769 
   9818000   0.05024529    -0.30970577     0             -0.26971366    -0.004477173  
   9819000   0.050940743   -0.31176997     0             -0.27122432     0.0018679131 
   9820000   0.050235129   -0.31394412     0             -0.2739601      0.001344102  
   9821000   0.050544797   -0.31177905     0             -0.27154855     0.0022666562 
   9822000   0.050685849   -0.30511575     0             -0.26477298     0.012427397  
   9823000   0.055487049   -0.30656516     0             -0.26240094     0.0046999027 
   9824000   0.049725128   -0.31160546     0             -0.27202736    -0.0010972133 
   9825000   0.048983654   -0.31103431     0             -0.27204638    -0.0015137005 
   9826000   0.049773287   -0.31047774     0             -0.27086131     0.0079682376 
   9827000   0.052249175   -0.31237844     0             -0.27079136     0.0063874746 
   9828000   0.049828099   -0.31271463     0             -0.27305458    -0.00095846184
   9829000   0.049224708   -0.31140933     0             -0.27222954     0.0021031023 
   9830000   0.049781955   -0.31208624     0             -0.27246292    -0.00030854467
   9831000   0.050542826   -0.31225383     0             -0.2720249     -0.0098166522 
   9832000   0.05060283    -0.31320199     0             -0.2729253      0.002722109  
   9833000   0.051006714   -0.3131142      0             -0.27251604     0.0068698855 
   9834000   0.049229767   -0.31237247     0             -0.27318865    -0.0021130563 
   9835000   0.051317149   -0.31149041     0             -0.27064517    -0.0013343975 
   9836000   0.049260969   -0.3125225      0             -0.27331385     0.0068071336 
   9837000   0.049622412   -0.31218856     0             -0.27269222    -0.0024534962 
   9838000   0.050585707   -0.31095962     0             -0.27069656     0.0029540249 
   9839000   0.048693163   -0.31144611     0             -0.2726894     -0.0018238702 
   9840000   0.050135468   -0.31047068     0             -0.27056598     0.0040773274 
   9841000   0.050143039   -0.31214212     0             -0.27223139     0.00079598461
   9842000   0.049567806   -0.31111157     0             -0.2716587      0.0028303316 
   9843000   0.051032388   -0.31201015     0             -0.27139156    -0.0013750762 
   9844000   0.049530717   -0.31211108     0             -0.27268773     0.0028464718 
   9845000   0.049300872   -0.31156487     0             -0.27232445    -0.0045959036 
   9846000   0.050763987   -0.30866024     0             -0.26825528    -0.003083998  
   9847000   0.048803898   -0.31115942     0             -0.27231457    -0.0063915435 
   9848000   0.0508447     -0.31195641     0             -0.27148721     0.0026909228 
   9849000   0.047787126   -0.3101903      0             -0.27215473     0.0050646568 
   9850000   0.049971184   -0.31061825     0             -0.27084431     0.01037112   
   9851000   0.051451881   -0.31153274     0             -0.27058026    -0.0044276238 
   9852000   0.0523336     -0.30808967     0             -0.26643539    -0.0079578646 
   9853000   0.053747188   -0.31103272     0             -0.26825331     0.0042798656 
   9854000   0.049571547   -0.30701084     0             -0.26755499    -0.00056995406
   9855000   0.051752128   -0.31303195     0             -0.27184049     0.0005594882 
   9856000   0.050957162   -0.31192256     0             -0.27136385     0.00013529285
   9857000   0.048873943   -0.31095539     0             -0.27205479     0.0021703697 
   9858000   0.050578293   -0.31305416     0             -0.272797       0.0027607745 
   9859000   0.051561644   -0.31157455     0             -0.2705347      0.003985988  
   9860000   0.050546879   -0.31074688     0             -0.27051472    -0.0076790134 
   9861000   0.048169448   -0.31206833     0             -0.27372846     0.0022270455 
   9862000   0.052254474   -0.30424471     0             -0.26265342     0.0083113485 
   9863000   0.051479474   -0.31141236     0             -0.27043792    -0.0013410392 
   9864000   0.049980183   -0.30659402     0             -0.26681292    -0.0013794112 
   9865000   0.050129331   -0.31129499     0             -0.27139518    -0.00012303073
   9866000   0.051535953   -0.31143744     0             -0.27041804    -0.0046290251 
   9867000   0.049555912   -0.31135162     0             -0.27190821     0.0040656633 
   9868000   0.050736255   -0.30788121     0             -0.26749832    -0.0068732287 
   9869000   0.051815419   -0.3054206      0             -0.26417876     0.0036194755 
   9870000   0.052792957   -0.31205785     0             -0.27003795     0.0079107095 
   9871000   0.049049903   -0.31273261     0             -0.27369195    -0.0031656152 
   9872000   0.048136478   -0.31145916     0             -0.27314553     0.00057086677
   9873000   0.048051881   -0.30516893     0             -0.26692264    -0.0058809128 
   9874000   0.05215813    -0.31117998     0             -0.26966537     0.00058705022
   9875000   0.052457203   -0.31020966     0             -0.268457       0.0057595811 
   9876000   0.050926438   -0.31117518     0             -0.27064092    -0.003164591  
   9877000   0.049634656   -0.31112928     0             -0.2716232      0.0014770006 
   9878000   0.04812118    -0.30988621     0             -0.27158476     0.003093226  
   9879000   0.047652315   -0.31095899     0             -0.27303072    -0.0081321469 
   9880000   0.051229706   -0.31138925     0             -0.27061361     0.0030836755 
   9881000   0.051084007   -0.31145463     0             -0.27079495     0.0032562162 
   9882000   0.054022166   -0.3067003      0             -0.26370204    -0.0014329714 
   9883000   0.051386164   -0.31137102     0             -0.27047084     0.0094984451 
   9884000   0.052603479   -0.29976819     0             -0.25789911    -0.0030864173 
   9885000   0.053123988   -0.31197569     0             -0.26969231     0.0028016617 
   9886000   0.049230012   -0.31199634     0             -0.27281233     0.0011372925 
   9887000   0.050498443   -0.3127785      0             -0.2725849      0.00013300708
   9888000   0.052435291   -0.3128224      0             -0.27108718     0.003315486  
   9889000   0.050770421   -0.31156703     0             -0.27115695    -0.0058131942 
   9890000   0.050304989   -0.31212129     0             -0.27208166    -0.0072941272 
   9891000   0.050433943   -0.31146392     0             -0.27132165     0.0021131874 
   9892000   0.048165457   -0.31154644     0             -0.27320974    -0.0028102218 
   9893000   0.05024659    -0.31109708     0             -0.27110394     0.0014278901 
   9894000   0.048667088   -0.31144892     0             -0.27271296     0.0044896172 
   9895000   0.049778408   -0.31300397     0             -0.27338347    -0.0072653428 
   9896000   0.049855367   -0.31094622     0             -0.27126446     0.006863114  
   9897000   0.05151298    -0.31217845     0             -0.27117734    -0.0030761009 
   9898000   0.050081787   -0.31223692     0             -0.27237495     0.0010774314 
   9899000   0.049643757   -0.31048708     0             -0.27097375     0.0023943854 
   9900000   0.049815123   -0.31268771     0             -0.27303799     0.0065374087 
   9901000   0.049165595   -0.31252419     0             -0.27339145     0.0013031644 
   9902000   0.051481583   -0.31362013     0             -0.272644       0.0048884408 
   9903000   0.046316321   -0.31219232     0             -0.27532742     0.0020429092 
   9904000   0.050468071   -0.31343275     0             -0.27326332    -0.0024752059 
   9905000   0.050018394   -0.31211089     0             -0.27229937     0.00093076256
   9906000   0.050627439   -0.31348202     0             -0.27318575    -0.0053991438 
   9907000   0.051056498   -0.31265163     0             -0.27201385     0.0066476127 
   9908000   0.051572019   -0.31311935     0             -0.27207124     0.001910939  
   9909000   0.050911788   -0.3125229      0             -0.2720003      3.1738651e-05
   9910000   0.05118444    -0.31227412     0             -0.2715345     -0.0043747446 
   9911000   0.048818237   -0.31206978     0             -0.27321351    -0.0026799423 
   9912000   0.051785368   -0.31029898     0             -0.26908106    -0.0052542564 
   9913000   0.047479859   -0.31114646     0             -0.27335546     0.00028478738
   9914000   0.048739913   -0.30998408     0             -0.27119015    -0.00070979586
   9915000   0.051384157   -0.31143993     0             -0.27054135     0.0010223681 
   9916000   0.048909067   -0.31037663     0             -0.27144807    -0.0083508754 
   9917000   0.048612369   -0.30359038     0             -0.26489798     0.0031090893 
   9918000   0.050556699   -0.30980068     0             -0.26956071    -0.010383794  
   9919000   0.050858152   -0.30945402     0             -0.26897411     0.0047729096 
   9920000   0.053298269   -0.31025666     0             -0.26783457     0.0086321565 
   9921000   0.049120591   -0.31276359     0             -0.27366667    -0.00079218161
   9922000   0.052253063   -0.31149619     0             -0.26990602     0.0045977243 
   9923000   0.050484395   -0.31204254     0             -0.27186012    -0.0035333192 
   9924000   0.049859646   -0.31277175     0             -0.27308659    -0.0084478271 
   9925000   0.050192295   -0.31189721     0             -0.27194729     0.0045485113 
   9926000   0.049300496   -0.31080489     0             -0.27156478     0.0015024347 
   9927000   0.051576502   -0.30513888     0             -0.26408721    -0.0048850253 
   9928000   0.050642987   -0.31150242     0             -0.27119377    -0.0050574309 
   9929000   0.048341057   -0.31024749     0             -0.27177103     0.0024580509 
   9930000   0.050475501   -0.31084887     0             -0.27067353    -0.0042199692 
   9931000   0.050140187   -0.3116917      0             -0.27178325     0.0019207524 
   9932000   0.047483995   -0.30173033     0             -0.26393604    -0.0037394275 
   9933000   0.048797861   -0.30548224     0             -0.26664219     0.0037654176 
   9934000   0.050344001   -0.31097928     0             -0.27090861    -0.0031173609 
   9935000   0.047352514   -0.30959154     0             -0.2719019      0.0061808759 
   9936000   0.048500276   -0.31043161     0             -0.27182842    -0.0027808368 
   9937000   0.050790425   -0.30893448     0             -0.26850848     0.0022229579 
   9938000   0.050794225   -0.30920398     0             -0.26877495    -0.0043778964 
   9939000   0.049157647   -0.31188601     0             -0.2727596     -0.00027205296
   9940000   0.049054598   -0.31056591     0             -0.27152151     0.0040378303 
   9941000   0.050296536   -0.31028588     0             -0.27025298     0.0084438583 
   9942000   0.050634789   -0.30989081     0             -0.26958869     0.004884162  
   9943000   0.051296535   -0.31098708     0             -0.27015824    -0.0046781413 
   9944000   0.049079193   -0.30925103     0             -0.27018706     0.0032245789 
   9945000   0.052503852   -0.31065005     0             -0.26886027    -0.00042653785
   9946000   0.049602429   -0.30497066     0             -0.26549023    -0.010474478  
   9947000   0.048791938   -0.31039353     0             -0.27155819     0.0066501539 
   9948000   0.052252221   -0.3118628      0             -0.2702733      0.0013132974 
   9949000   0.047454997   -0.298951       0             -0.26117979     0.0024078812 
   9950000   0.051633471   -0.31121042     0             -0.27011341    -0.0023693392 
   9951000   0.049690054   -0.31090441     0             -0.27135424     0.00439455   
   9952000   0.048122844   -0.31241886     0             -0.27411609     0.001083276  
   9953000   0.050388462   -0.31066459     0             -0.27055852    -0.0017481984 
   9954000   0.049569653   -0.31226339     0             -0.27280904    -0.0029829193 
   9955000   0.046930526   -0.29882003     0             -0.26146627    -0.0021680432 
   9956000   0.051857398   -0.31331263     0             -0.27203739     0.0044648912 
   9957000   0.050826298   -0.31106057     0             -0.27060601    -0.010690108  
   9958000   0.050508978   -0.31028442     0             -0.27008243    -0.0082462115 
   9959000   0.050068867   -0.31204805     0             -0.27219636     0.0011586736 
   9960000   0.051399422   -0.30638596     0             -0.26547523    -0.0002272691 
   9961000   0.050946614   -0.31138838     0             -0.27083806    -0.0030350646 
   9962000   0.051044435   -0.3078565      0             -0.26722832     0.0053439606 
   9963000   0.048435431   -0.31192182     0             -0.27337024    -0.0023841336 
   9964000   0.049140288   -0.31255155     0             -0.27343896     0.00055612392
   9965000   0.0524039     -0.31255556     0             -0.27084533    -0.0062955273 
   9966000   0.049429488   -0.31182212     0             -0.27247934    -0.0073397333 
   9967000   0.051797473   -0.3120013      0             -0.27077375    -0.0010803057 
   9968000   0.048083399   -0.31260823     0             -0.27433685    -0.001806807  
   9969000   0.050711942   -0.31195737     0             -0.27159384    -0.0019782164 
   9970000   0.048618907   -0.31193159     0             -0.27323398     0.0050039768 
   9971000   0.050498074   -0.31028574     0             -0.27009243     0.0027837425 
   9972000   0.0503508     -0.31203256     0             -0.27195647     0.0056309956 
   9973000   0.049495902   -0.31115072     0             -0.27175507     0.0077464855 
   9974000   0.050868136   -0.31144493     0             -0.27095708     0.0038240474 
   9975000   0.050839517   -0.30572136     0             -0.26525629     0.0040824649 
   9976000   0.048403772   -0.31193301     0             -0.27340663    -0.0022125157 
   9977000   0.05187699    -0.31221838     0             -0.27092753    -0.00089881154
   9978000   0.050325946   -0.30815406     0             -0.26809775    -0.0013240764 
   9979000   0.049499538   -0.31216886     0             -0.27277033     0.0012936802 
   9980000   0.05313305    -0.31159162     0             -0.26930103     0.0011465792 
   9981000   0.050511746   -0.31146049     0             -0.2712563     -0.0036494024 
   9982000   0.050000732   -0.31237398     0             -0.27257652    -0.0054948806 
   9983000   0.05112399    -0.30366533     0             -0.26297383     0.0017174455 
   9984000   0.050965575   -0.30554151     0             -0.2649761      0.0019907063 
   9985000   0.050068582   -0.31313741     0             -0.27328594    -0.0077288679 
   9986000   0.048698931   -0.31350134     0             -0.27474004    -0.0034534489 
   9987000   0.047619062   -0.31258204     0             -0.27468024    -0.0044743042 
   9988000   0.051012187   -0.3134378      0             -0.27283528     0.00072365522
   9989000   0.048558469   -0.31291255     0             -0.27426304     0.005355751  
   9990000   0.051228443   -0.30597286     0             -0.26519822    -0.0055938191 
   9991000   0.050231454   -0.31416115     0             -0.27418006     0.0012194554 
   9992000   0.049668443   -0.31369642     0             -0.27416344    -0.0014517812 
   9993000   0.050676334   -0.3133572      0             -0.273022       0.0070836928 
   9994000   0.050186801   -0.31347339     0             -0.27352783     0.0011478951 
   9995000   0.046678251   -0.31383316     0             -0.27668019     0.0016470396 
   9996000   0.049474316   -0.31330959     0             -0.27393113     0.0043579309 
   9997000   0.049516241   -0.3119912      0             -0.27257937    -0.0029805143 
   9998000   0.051566527   -0.31268794     0             -0.27164421     0.0006962346 
   9999000   0.048583388   -0.31274391     0             -0.27407457     0.0028297974 
  10000000   0.048269727   -0.3126976      0             -0.27427792    -0.0042117129 
Loop time of 1762.56 on 4 procs for 10000000 steps with 1600 atoms

Performance: 2450986.846 tau/day, 5673.581 timesteps/s, 9.078 Matom-step/s
89.5% CPU use with 4 MPI tasks x 1 OpenMP threads

MPI task timing breakdown:
Section |  min time  |  avg time  |  max time  |%varavg| %total
---------------------------------------------------------------
Pair    | 280.34     | 322.5      | 412.08     | 291.6 | 18.30
Bond    | 0.58798    | 0.60817    | 0.6314     |   2.4 |  0.03
Neigh   | 29.353     | 29.39      | 29.417     |   0.5 |  1.67
Comm    | 232.29     | 314.08     | 349.71     | 268.4 | 17.82
Output  | 3.4265     | 3.6489     | 3.8123     |   8.0 |  0.21
Modify  | 1050.1     | 1060.8     | 1070.8     |  22.5 | 60.19
Other   |            | 31.47      |            |       |  1.79

Nlocal:            400 ave         491 max         279 min
Histogram: 1 0 0 0 1 0 0 1 0 1
Nghost:         849.75 ave         927 max         763 min
Histogram: 1 0 0 0 1 0 1 0 0 1
Neighs:              0 ave           0 max           0 min
Histogram: 4 0 0 0 0 0 0 0 0 0
FullNghs:       4807.5 ave        6046 max        3035 min
Histogram: 1 0 0 0 1 0 0 0 0 2

Total # of neighbors = 19230
Ave neighs/atom = 12.01875
Ave special neighs/atom = 2.3125
Neighbor list builds = 26210
Dangerous builds = 0
Total wall time: 0:29:39
