LAMMPS (27 Jun 2024)
OMP_NUM_THREADS environment is not set. Defaulting to 1 thread. (src/comm.cpp:98)
  using 1 OpenMP thread(s) per MPI task
package omp 0
using multi-threaded neighbor list subroutines
# Script to create a Polymer using Patchy Particles (PP)
# It saves the last position of the particles with a cluster ID
# Types of Particles:
#   Cross linker:   PPA
#   Monomer:        PPB

# Parallel configuration with pacakge OPENMP
# RUN: env OMP_NUM_THREADS=Nthreads mpirun -np NProcs lmp -sf omp -in

# Initialization
units lj
dimension 3
boundary p p p

# Styles of atoms and that stuff
atom_style bond
bond_style zero nocoeff
#pair_style hybrid/overlay lj/cut 1.12 sw threebody off threebody/table
pair_style hybrid/overlay/omp lj/cut/omp 1.12 sw/omp threebody off threebody/table
newton on

# Varaibles
variable L equal 5
variable NCL equal 10
variable NMO equal 90
variable seed1 equal 1234
variable seed2 equal 4321
variable seed3 equal 3124
variable steps equal 60000000
variable tstep equal 0.005
variable sstep equal 10000

# Create simulaiton box
region simulation_box block -$L $L -$L $L -$L $L
region simulation_box block -5 $L -$L $L -$L $L
region simulation_box block -5 5 -$L $L -$L $L
region simulation_box block -5 5 -5 $L -$L $L
region simulation_box block -5 5 -5 5 -$L $L
region simulation_box block -5 5 -5 5 -5 $L
region simulation_box block -5 5 -5 5 -5 5
# N-atom-types region-ID keyword value Is necesesary the extra/special/per/atom (# of special neighbors per atom)
create_box 4 simulation_box     bond/types 1     extra/bond/per/atom 4     extra/special/per/atom 5
Created orthogonal box = (-5 -5 -5) to (5 5 5)
  1 by 1 by 2 MPI processor grid

# Atom types
mass 1 1.0      # CL
mass 2 1.0      # MO
mass 3 0.5      # PA
mass 4 0.5      # PB

# Coefficients
bond_coeff * nocoeff
pair_coeff * * threebody/table swapMech.3b NULL NULL PA PB
pair_coeff 1 1 lj/cut/omp 1.0 1.0 1.12 # i-type j-type pair-style eps sigma cutoff
pair_coeff 2 2 lj/cut/omp 1.0 1.0 1.12 # i-type j-type pair-style eps sigma cutoff
pair_coeff 1 2 lj/cut/omp 1.0 1.0 1.12 # i-type j-type pair-style eps sigma cutoff
pair_coeff 1 3 none
pair_coeff 1 4 none
pair_coeff 2 3 none
pair_coeff 2 4 none
pair_coeff 3 4 sw/omp patchyPot.ws NULL NULL PA PB # i-type j-type pair-style
  disabling sw potential three-body terms
pair_coeff 3 3 sw/omp patchyPot.ws NULL NULL PA PA
pair_coeff 4 4 sw/omp patchyPot.ws NULL NULL PB PB # i-type j-type eps sigma cutoff wca

pair_modify shift yes

# Molecules
molecule CL molecule.patchy.CL
Read molecule template CL:
# Patchy Cross-Linker
  1 molecules
  0 fragments
  5 atoms with max type 3
  4 bonds with max type 1
  0 angles with max type 0
  0 dihedrals with max type 0
  0 impropers with max type 0
molecule MO molecule.patchy.MO
Read molecule template MO:
# Patchy Monomer
  1 molecules
  0 fragments
  3 atoms with max type 4
  2 bonds with max type 1
  0 angles with max type 0
  0 dihedrals with max type 0
  0 impropers with max type 0

# Introduce the molecules
# ID style args keyword arg
region spawn_box block -$L $L -$L $L -$L $L
region spawn_box block -5 $L -$L $L -$L $L
region spawn_box block -5 5 -$L $L -$L $L
region spawn_box block -5 5 -5 $L -$L $L
region spawn_box block -5 5 -5 5 -$L $L
region spawn_box block -5 5 -5 5 -5 $L
region spawn_box block -5 5 -5 5 -5 5

# create_atoms type style args keyword values
# style_random: N seed region-ID
# keyword_mol: template-ID seed
# keyword_overlap: overlap value = only insert if at least this distance from all existing atoms
# keyword_maxtry: maxtry value = number of attempts to insert a particle before failure
create_atoms 0 random ${NCL} ${seed1} spawn_box mol CL ${seed1} overlap 0.5 maxtry 5000 #xls
create_atoms 0 random 10 ${seed1} spawn_box mol CL ${seed1} overlap 0.5 maxtry 5000 
create_atoms 0 random 10 1234 spawn_box mol CL ${seed1} overlap 0.5 maxtry 5000 
create_atoms 0 random 10 1234 spawn_box mol CL 1234 overlap 0.5 maxtry 5000 
Created 50 atoms
  using lattice units in orthogonal box = (-5 -5 -5) to (5 5 5)
  create_atoms CPU = 0.002 seconds
create_atoms 0 random ${NMO} ${seed2} spawn_box mol MO ${seed2} overlap 0.5 maxtry 5000 #mon
create_atoms 0 random 90 ${seed2} spawn_box mol MO ${seed2} overlap 0.5 maxtry 5000 
create_atoms 0 random 90 4321 spawn_box mol MO ${seed2} overlap 0.5 maxtry 5000 
create_atoms 0 random 90 4321 spawn_box mol MO 4321 overlap 0.5 maxtry 5000 
Created 270 atoms
  using lattice units in orthogonal box = (-5 -5 -5) to (5 5 5)
  create_atoms CPU = 0.000 seconds

# Create patchy particles
group CrossLinker type 1 3
50 atoms in group CrossLinker
group Monomer type 2 4
270 atoms in group Monomer
group Patches type 3 4
220 atoms in group Patches
group CL type 1
10 atoms in group CL
group MO type 2
90 atoms in group MO
fix pCL CrossLinker rigid/small/omp molecule #langevin 1.0 1.0 100.0 ${seed3}
  create bodies CPU = 0.000 seconds
  10 rigid bodies with 50 atoms
  0.46400431 = max distance from body owner to body atom
fix pMO Monomer rigid/small/omp molecule #langevin 1.0 1.0 100.0 ${seed3}
  create bodies CPU = 0.000 seconds
  90 rigid bodies with 270 atoms
  0.5 = max distance from body owner to body atom

# Neighbor list
neighbor 1.8 bin # extra-distance style
neigh_modify exclude molecule/intra CrossLinker
neigh_modify exclude molecule/intra Monomer

fix langevinFix all langevin 0.05 0.05 0.5 12345 # ID group-ID langevin Tstart Tstop damp seed

thermo ${sstep}
thermo 10000

# COMPUTES

# Compute global kinetic and potential energy and temperature
compute t all temp
compute ep all pe
compute ek all ke

# Compute Cluster sizes
# compute ID group-ID cluster/atom cutoff
# compute ID group-ID chunk/atom style args keyword value
# compute ID group-ID property/chunk chunkID input1 input2
compute cluster all aggregate/atom 0.75
compute cc1 all chunk/atom c_cluster compress yes pbc yes
compute size all property/chunk cc1 count

# DUMPS and FIXES

# Save atom positions
dump dumpID all atom ${sstep} info/patchyParticles_assembly.dumpf
dump dumpID all atom 10000 info/patchyParticles_assembly.dumpf
dump_modify dumpID pbc yes # remap atoms via periodic boundary conditions
#dump dumpCID all custom 1 info/patchyParticlesCluster_assembly.dumpf id type mol xs ys zs c_cluster
#dump_modify dumpCID pbc yes # remap atoms via periodic boundary conditions

# Write dump file of the last configuration
dump dumpNew all custom ${steps} newdata_assembly.dumpf id type mol x y z c_cluster
dump dumpNew all custom 60000000 newdata_assembly.dumpf id type mol x y z c_cluster
dump_modify dumpNew delay ${steps}
dump_modify dumpNew delay 60000000

# Save global energies and temperature
group Energy empty
0 atoms in group Energy
fix fixEng Energy ave/time 1 1 10 c_t c_ep c_ek file info/energy_assembly.fixf

# Save the cluster sizes
#fix ID group-ID style Nevery Nrepeat Nfreq lo hi Nbin value1 value2
fix 1 all ave/time 1 1 ${sstep} c_size file info/sizeCluster_assembly.fixf mode vector
fix 1 all ave/time 1 1 10000 c_size file info/sizeCluster_assembly.fixf mode vector

# RUN SIMULATION

timestep ${tstep}
timestep 0.005
run ${steps}
run 60000000
WARNING: Using a manybody potential with bonds/angles/dihedrals and special_bond exclusions (src/pair.cpp:242)
Hybrid pair style last /omp style sw/omp
Last active /omp style is pair_style sw/omp
WARNING: More than one fix rigid command (src/RIGID/fix_rigid_small.cpp:529)
WARNING: More than one fix rigid command (src/RIGID/fix_rigid_small.cpp:529)
Neighbor list info ...
  update: every = 1 steps, delay = 0 steps, check = yes
  max neighbors/atom: 2000, page size: 100000
  master list distance cutoff = 2.92
  ghost atom cutoff = 2.92
  binsize = 1.46, bins = 7 7 7
  6 neighbor lists, perpetual/occasional/extra = 5 1 0
  (1) pair lj/cut/omp, perpetual, skip from (5)
      attributes: half, newton on, omp
      pair build: skip/omp
      stencil: none
      bin: none
  (2) pair sw/omp, perpetual, skip from (5)
      attributes: half, newton on, omp, cut 2.55
      pair build: skip/omp
      stencil: none
      bin: none
  (3) pair threebody/table, perpetual, skip from (6)
      attributes: full, newton on, omp, cut 2.425
      pair build: skip/omp
      stencil: none
      bin: none
  (4) compute aggregate/atom, occasional
      attributes: full, newton on, omp
      pair build: full/bin/omp
      stencil: full/bin/3d
      bin: standard
  (5) neighbor class addition, perpetual
      attributes: half, newton on, omp
      pair build: half/bin/newton/omp
      stencil: half/bin/3d
      bin: standard
  (6) neighbor class addition, perpetual
      attributes: full, newton on, omp, cut 2.425
      pair build: full/bin/omp
      stencil: full/bin/3d
      bin: standard
Per MPI rank memory allocation (min/avg/max) = 19.37 | 19.37 | 19.37 Mbytes
   Step          Temp          E_pair         E_mol          TotEng         Press     
         0   0              2.6302494      0              2.6302494      22.611792    
     10000   0.05496405    -0.12841464     0             -0.084872808   -0.0031975802 
     20000   0.061192933   -0.16084544     0             -0.11236916    -0.037799725  
     30000   0.067922828   -0.15650952     0             -0.1027019      0.0014802179 
     40000   0.067434839   -0.15143994     0             -0.0980189     -0.040714513  
     50000   0.063331062   -0.13289894     0             -0.082728862    0.017960377  
     60000   0.066342405   -0.14985202     0             -0.097296394   -0.043425244  
     70000   0.065607418   -0.16179044     0             -0.10981706    -0.075883421  
     80000   0.064288885   -0.14347714     0             -0.092548287    0.035106959  
     90000   0.071233544   -0.1565903      0             -0.10015997    -0.059187563  
    100000   0.062009212   -0.14894637     0             -0.09982345    -0.0060722093 
    110000   0.071403272   -0.15505911     0             -0.098494333   -0.032695365  
    120000   0.075305602   -0.14841689     0             -0.088760729   -0.0024142909 
    130000   0.070653983   -0.13855252     0             -0.08258132    -0.043682248  
    140000   0.069298033   -0.13992839     0             -0.085031359    0.018191759  
    150000   0.074639573   -0.14965952     0             -0.09053098    -0.0046767226 
    160000   0.074911606   -0.14530471     0             -0.085960673    0.01181459   
    170000   0.072267244   -0.13724333     0             -0.079994127   -0.032486342  
    180000   0.068525465   -0.15184043     0             -0.097555417    0.018360625  
    190000   0.076351191   -0.1483349      0             -0.087850436   -0.011518019  
    200000   0.07170279    -0.159608       0             -0.10280594    -0.028466685  
    210000   0.073951566   -0.15955108     0             -0.10096758    -0.015820774  
    220000   0.078316946   -0.15337197     0             -0.091330268   -0.0041403525 
    230000   0.070889408   -0.1532981      0             -0.097140393    0.0016202456 
    240000   0.072551449   -0.14828896     0             -0.090814613   -0.065885194  
    250000   0.077103136   -0.15196624     0             -0.090886104    0.044969018  
    260000   0.070394782   -0.14898896     0             -0.093223092   -0.002132215  
    270000   0.072495197   -0.14749767     0             -0.090067879    0.010145353  
    280000   0.081496207   -0.1632263      0             -0.098666023   -0.052624173  
    290000   0.070409459   -0.12985963     0             -0.074082135   -0.04195602   
    300000   0.063051172   -0.14994631     0             -0.099997958   -0.083237979  
    310000   0.073205711   -0.14418069     0             -0.086188045   -0.054046517  
    320000   0.0726478     -0.1563978      0             -0.09884712    -0.036696195  
    330000   0.065441484   -0.15400851     0             -0.10216659    -0.020049058  
    340000   0.082626639   -0.14437267     0             -0.078916877    0.038999368  
    350000   0.072275362   -0.14154889     0             -0.084293251    0.014885067  
    360000   0.072335246   -0.13340276     0             -0.076099681    0.021981303  
    370000   0.06742228    -0.14759221     0             -0.094181127    0.025078533  
    380000   0.07783113    -0.14650359     0             -0.084846738   -0.11268896   
    390000   0.077439931   -0.14777913     0             -0.086432186    0.0020983555 
    400000   0.0651982     -0.1439065      0             -0.092257302   -0.017238617  
    410000   0.069903444   -0.14327399     0             -0.08789736    -0.055152846  
    420000   0.067348971   -0.14574035     0             -0.09238734    -0.067706533  
    430000   0.067277147   -0.13728464     0             -0.083988527   -0.032413094  
    440000   0.063839909   -0.13186695     0             -0.081293775    0.035947009  
    450000   0.064982722   -0.1446192      0             -0.093140696   -0.017751171  
    460000   0.070193504   -0.14772693     0             -0.092120515   -0.0059850569 
    470000   0.072414287   -0.13029167     0             -0.072925981    0.013091476  
    480000   0.07028479    -0.13382548     0             -0.078146746    0.0068176355 
    490000   0.067727489   -0.14220622     0             -0.088553354   -0.047499724  
    500000   0.073538925   -0.13660088     0             -0.078344261   -0.088439251  
    510000   0.076063461   -0.14972757     0             -0.08947105    -0.020591481  
    520000   0.060946477   -0.15028648     0             -0.10200545     0.011606537  
    530000   0.064978656   -0.1553127      0             -0.10383742    -0.042898949  
    540000   0.068313152   -0.13989951     0             -0.08578268    -0.070647368  
    550000   0.062183107   -0.14423191     0             -0.094971228   -0.027004291  
    560000   0.064670669   -0.13726903     0             -0.086037733    0.06126544   
    570000   0.07121164    -0.14917862     0             -0.092765646   -0.046160263  
    580000   0.080564521   -0.14264431     0             -0.078822107    0.056102047  
    590000   0.073864862   -0.14772145     0             -0.089206634   -0.045417978  
    600000   0.073463367   -0.14013493     0             -0.081938167   -0.023530564  
    610000   0.076080504   -0.14311414     0             -0.082844113   -0.010172744  
    620000   0.075410931   -0.14704766     0             -0.087308064   -0.006514445  
    630000   0.073661225   -0.14351752     0             -0.085164018   -0.068565772  
    640000   0.074850756   -0.14232011     0             -0.083024272   -0.064681745  
    650000   0.068068332   -0.13611786     0             -0.082194974    0.02733317   
    660000   0.069414274   -0.14085499     0             -0.085865868    0.034335769  
    670000   0.069873067   -0.14089053     0             -0.085537958   -0.010986566  
    680000   0.062824243   -0.13826617     0             -0.088497586   -0.10067083   
    690000   0.064473422   -0.14145768     0             -0.090382639    0.0020535121 
    700000   0.067079988   -0.15519046     0             -0.10205053    -0.046525486  
    710000   0.067381217   -0.15755182     0             -0.10417326    -0.076474642  
    720000   0.076250977   -0.14975145     0             -0.089346377    0.0012339603 
    730000   0.071620847   -0.13695935     0             -0.080222209   -0.010466342  
    740000   0.069302359   -0.14909597     0             -0.094195506   -0.055750294  
    750000   0.075289037   -0.15388894     0             -0.094245904   -0.083504998  
    760000   0.072034204   -0.14694841     0             -0.08988381     0.039129357  
    770000   0.071245449   -0.1510805      0             -0.094640747   -0.036915762  
    780000   0.072757757   -0.16365425     0             -0.10601646    -0.037275804  
    790000   0.061599914   -0.1580273      0             -0.10922862    -0.0035330388 
    800000   0.078334257   -0.13802154     0             -0.075966117   -0.013101031  
    810000   0.068766506   -0.15068811     0             -0.096212142    0.017372949  
    820000   0.063727501   -0.1447225      0             -0.094238372    0.0010636823 
    830000   0.071628456   -0.17825108     0             -0.12150792    -0.053444009  
    840000   0.074923801   -0.16186447     0             -0.10251077    -0.02097463   
    850000   0.067533241   -0.15011942     0             -0.096620431   -0.016349173  
    860000   0.067335653   -0.1497346      0             -0.096392134    0.0040964302 
    870000   0.064307937   -0.14779404     0             -0.096850099    0.068690149  
    880000   0.075039212   -0.15299744     0             -0.093552309    0.065143291  
    890000   0.076904116   -0.13373113     0             -0.072808649   -0.057059219  
    900000   0.072957721   -0.14737035     0             -0.089574157   -0.0025628491 
    910000   0.072649202   -0.14192772     0             -0.084375929   -0.069985335  
    920000   0.074684589   -0.1376399      0             -0.078475699   -0.040261678  
    930000   0.071286274   -0.1447023      0             -0.088230208   -0.034257742  
    940000   0.071595935   -0.1397764      0             -0.083058996   -0.084843786  
    950000   0.06989261    -0.14231983     0             -0.086951775   -0.051979154  
    960000   0.073134627   -0.15078598     0             -0.09284964    -0.019528372  
    970000   0.067129359   -0.15431199     0             -0.10113295    -0.063203039  
    980000   0.068696862   -0.14877441     0             -0.094353612    0.039088603  
    990000   0.07043298    -0.15095971     0             -0.095163582    0.0099223996 
   1000000   0.068182408   -0.14663373     0             -0.092620478   -0.015816543  
   1010000   0.064004605   -0.14209869     0             -0.091395044   -0.029720828  
   1020000   0.064099327   -0.13498948     0             -0.084210791   -0.022396086  
   1030000   0.070670996   -0.15078987     0             -0.094805195   -0.047277364  
   1040000   0.06734491    -0.1400146      0             -0.086664806    0.029487508  
   1050000   0.068280766   -0.15200989     0             -0.097918723   -0.0024909665 
   1060000   0.070566502   -0.16452785     0             -0.10862595    -0.061236143  
   1070000   0.075472729   -0.16274827     0             -0.10295972     0.0091575137 
   1080000   0.070693976   -0.15050889     0             -0.094506009   -0.076162747  
   1090000   0.073685367   -0.15446074     0             -0.096088109    0.021554211  
   1100000   0.063046696   -0.15549991     0             -0.1055551     -0.028277623  
   1110000   0.074445988   -0.14232965     0             -0.083354468    0.039809457  
   1120000   0.074297417   -0.15650177     0             -0.097644283   -0.076744638  
   1130000   0.073355621   -0.15943208     0             -0.10132067    -0.053603926  
   1140000   0.072115778   -0.14902324     0             -0.091894018   -0.02798381   
   1150000   0.056188402   -0.15471856     0             -0.11020681     0.025868678  
   1160000   0.069545492   -0.16059088     0             -0.10549781    -0.086796579  
   1170000   0.064207987   -0.17229027     0             -0.1214255     -0.057391874  
   1180000   0.068303836   -0.15744646     0             -0.10333702    -0.041547773  
   1190000   0.071184212   -0.13753311     0             -0.081141864   -0.053601322  
   1200000   0.069571846   -0.13819324     0             -0.083079297   -0.062832089  
   1210000   0.068756908   -0.14844831     0             -0.093979945   -0.11029175   
   1220000   0.066856967   -0.14142446     0             -0.08846121    -0.016490521  
   1230000   0.069923653   -0.16440966     0             -0.10901702    -0.07603805   
   1240000   0.073224818   -0.15452099     0             -0.0965132      0.041472426  
   1250000   0.074236655   -0.13994715     0             -0.081137796   -0.010911245  
   1260000   0.069925097   -0.14827306     0             -0.092879271    0.0031897903 
   1270000   0.071736828   -0.14591877     0             -0.089089756    0.032894302  
   1280000   0.070815282   -0.16865869     0             -0.11255971     0.043049833  
   1290000   0.067309521   -0.15434326     0             -0.1010215     -0.052060606  
   1300000   0.069707854   -0.16433477     0             -0.10911308    -0.029908385  
   1310000   0.06745702    -0.15099777     0             -0.097559158   -0.0076431448 
   1320000   0.067275321   -0.16421456     0             -0.11091989    -0.032617306  
   1330000   0.066848372   -0.17435991     0             -0.12140347     0.0040105869 
   1340000   0.070738221   -0.17701626     0             -0.12097832    -0.14891653   
   1350000   0.068052558   -0.17813278     0             -0.12422239    -0.036355783  
   1360000   0.060596384   -0.15590208     0             -0.10789838     0.013008365  
   1370000   0.07257195    -0.14800914     0             -0.090518549    0.079594881  
   1380000   0.072414738   -0.14949858     0             -0.092132534   -0.048650403  
   1390000   0.069815404   -0.15034917     0             -0.095042275   -0.010925722  
   1400000   0.071442924   -0.15673923     0             -0.10014304     0.014239572  
   1410000   0.061271604   -0.16064176     0             -0.11210316     0.00065460547
   1420000   0.063659959   -0.15014517     0             -0.099714551   -0.0093299337 
   1430000   0.065034135   -0.1434087      0             -0.091889468   -0.060303979  
   1440000   0.077973848   -0.14218798     0             -0.080418074   -0.041800071  
   1450000   0.074293691   -0.15375137     0             -0.094896834    0.033458352  
   1460000   0.071135581   -0.15519806     0             -0.098845341    0.013817021  
   1470000   0.070815168   -0.15427044     0             -0.098171553   -0.0036517626 
   1480000   0.073049245   -0.15166008     0             -0.093791385   -0.0055239141 
   1490000   0.080513755   -0.14385708     0             -0.080075087   -0.029564508  
   1500000   0.069928422   -0.14557132     0             -0.090174896    0.022304641  
   1510000   0.060798556   -0.14737845     0             -0.09921459    -0.0080290038 
   1520000   0.068199169   -0.15335431     0             -0.099327783   -0.0041580009 
   1530000   0.068392073   -0.15569764     0             -0.10151829    -0.055898693  
   1540000   0.068139968   -0.15077599     0             -0.096796355   -0.051266353  
   1550000   0.071430923   -0.12679711     0             -0.070210426    0.0082250156 
   1560000   0.071909357   -0.13617067     0             -0.079204972    0.073402109  
   1570000   0.069965006   -0.14552073     0             -0.09009533     0.0038097783 
   1580000   0.070375902   -0.149938       0             -0.094187092   -0.071071123  
   1590000   0.078418659   -0.14124601     0             -0.079123733    0.015955124  
   1600000   0.078298578   -0.14245742     0             -0.080430261    0.038851418  
   1610000   0.078837677   -0.15410254     0             -0.091648317   -0.021208224  
   1620000   0.067761684   -0.15560701     0             -0.10192705    -0.048664388  
   1630000   0.071665005   -0.14796466     0             -0.091192541    0.027293205  
   1640000   0.070258206   -0.16000604     0             -0.10434837    -0.11102106   
   1650000   0.069620703   -0.13414439     0             -0.078991737   -0.083316467  
   1660000   0.068385213   -0.14360007     0             -0.089426159   -0.015173953  
   1670000   0.067180549   -0.14461941     0             -0.091399816    0.004568691  
   1680000   0.066510868   -0.15039623     0             -0.097707151   -0.01475953   
   1690000   0.07517487    -0.1403032      0             -0.080750609    0.049984646  
   1700000   0.069325453   -0.14915547     0             -0.094236715    0.02075003   
   1710000   0.076664319   -0.14719927     0             -0.086466759   -0.044206548  
   1720000   0.087550656   -0.14308839     0             -0.073731855   -0.025481344  
   1730000   0.067546757   -0.1302946      0             -0.076784907   -0.015886468  
   1740000   0.069631963   -0.12020193     0             -0.065040356   -0.072853614  
   1750000   0.072087012   -0.13106065     0             -0.073954218   -0.029807622  
   1760000   0.069109544   -0.13709742     0             -0.082349704   -0.093308137  
   1770000   0.074895183   -0.13930687     0             -0.079975846    0.0092043968 
   1780000   0.079222348   -0.14938566     0             -0.086626702   -0.003888135  
   1790000   0.080027279   -0.14053419     0             -0.077137585   -0.088074244  
   1800000   0.072184356   -0.13704587     0             -0.079862326   -0.036269082  
   1810000   0.062269263   -0.13674668     0             -0.087417753   -0.073793934  
   1820000   0.065664576   -0.13063627     0             -0.078617618   -0.0067115724 
   1830000   0.068014525   -0.13130958     0             -0.077429326    0.0016610515 
   1840000   0.069627368   -0.14745087     0             -0.092292942    0.023642142  
   1850000   0.069407315   -0.13047087     0             -0.075487261   -0.01755719   
   1860000   0.066249144   -0.14337228     0             -0.090890534   -0.012046724  
   1870000   0.068105156   -0.16085038     0             -0.10689832    -0.061056596  
   1880000   0.068398051   -0.14861923     0             -0.094435146    0.0053142985 
   1890000   0.067963505   -0.1349221      0             -0.081082263   -0.054768341  
   1900000   0.07407372    -0.14378334     0             -0.085103067   -0.042184285  
   1910000   0.072007925   -0.15308114     0             -0.096037363    0.063497643  
   1920000   0.063090198   -0.16590794     0             -0.11592868     0.0025730476 
   1930000   0.061657849   -0.15801985     0             -0.10917527     0.0028846906 
   1940000   0.075677135   -0.14846913     0             -0.088518652   -0.082717235  
   1950000   0.071521078   -0.15151826     0             -0.094860153   -0.074742673  
   1960000   0.061427674   -0.1517453      0             -0.10308306     0.010450655  
   1970000   0.073279216   -0.15265453     0             -0.09460365     0.033680847  
   1980000   0.07195196    -0.15223726     0             -0.095237821    0.021849289  
   1990000   0.06314557    -0.1669409      0             -0.11691777    -0.049600912  
   2000000   0.069795169   -0.1697964      0             -0.11450554    -0.010348957  
   2010000   0.06523302    -0.1607565      0             -0.10907972    -0.029072341  
   2020000   0.071568805   -0.14401392     0             -0.087318005   -0.033028001  
   2030000   0.065227087   -0.16450422     0             -0.11283213    -0.00799618   
   2040000   0.069661129   -0.15431148     0             -0.0991268      0.034618472  
   2050000   0.071699479   -0.13772104     0             -0.080921611    0.097501054  
   2060000   0.070802432   -0.14941298     0             -0.093324183   -0.07060952   
   2070000   0.078702199   -0.15580804     0             -0.093461143    0.0016951422 
   2080000   0.07840305    -0.14873267     0             -0.086622755    0.032254242  
   2090000   0.072324152   -0.14759405     0             -0.090299765   -0.029800908  
   2100000   0.063120407   -0.14920431     0             -0.099201109   -0.0008086873 
   2110000   0.083165253   -0.15164293     0             -0.085760455   -0.046307089  
   2120000   0.075211163   -0.14606885     0             -0.086487509    0.041524492  
   2130000   0.068184808   -0.17521553     0             -0.12120038    -0.029725692  
   2140000   0.064133716   -0.13866553     0             -0.087859603   -0.085238099  
   2150000   0.075955194   -0.1366103      0             -0.076439546    0.014380152  
   2160000   0.077229562   -0.13401881     0             -0.072838516   -0.060439669  
   2170000   0.062291373   -0.13400899     0             -0.084662545   -0.029203414  
   2180000   0.074611298   -0.12651621     0             -0.067410074   -0.046756428  
   2190000   0.073711906   -0.14696013     0             -0.088566484    0.0022062339 
   2200000   0.065282809   -0.14491518     0             -0.093198954   -0.042158873  
   2210000   0.068527799   -0.13789781     0             -0.083610946   -0.029199264  
   2220000   0.066124026   -0.1371967      0             -0.084814068   -0.0056519062 
   2230000   0.063511397   -0.13364142     0             -0.083328489    0.041454015  
   2240000   0.067620609   -0.15556227     0             -0.10199407     0.030036197  
   2250000   0.066195991   -0.1565631      0             -0.10412346     0.037416568  
   2260000   0.067736211   -0.1755509      0             -0.12189112    -0.048589176  
   2270000   0.075910128   -0.1719668      0             -0.11183174    -0.00085590452
   2280000   0.077453874   -0.17004393     0             -0.10868594    -0.054658742  
   2290000   0.070207894   -0.17052342     0             -0.11490561    -0.043419069  
   2300000   0.069198894   -0.13865535     0             -0.083836852    0.070683858  
   2310000   0.062806936   -0.14419462     0             -0.094439751   -0.0080102557 
   2320000   0.069565475   -0.13430483     0             -0.079195926   -0.054855901  
   2330000   0.070901904   -0.14172721     0             -0.085559605   -0.033166534  
   2340000   0.063000029   -0.15111061     0             -0.10120278    -0.0062696368 
   2350000   0.081697441   -0.15531866     0             -0.090598972    0.022687375  
   2360000   0.074857201   -0.1558443      0             -0.096543366   -0.014698871  
   2370000   0.072205642   -0.16111176     0             -0.10391135     0.10233954   
   2380000   0.066362756   -0.16958488     0             -0.11701314     0.0098807483 
   2390000   0.071006902   -0.17063849     0             -0.11438771    -0.059312759  
   2400000   0.062770255   -0.1651544      0             -0.11542859     0.018904751  
   2410000   0.07243704    -0.15406658     0             -0.096682865   -0.047441739  
   2420000   0.072599927   -0.15740999     0             -0.099897239    0.0090701184 
   2430000   0.065734348   -0.15006479     0             -0.097990858   -0.10943263   
   2440000   0.070906359   -0.14363987     0             -0.087468734   -0.0053202212 
   2450000   0.0753728     -0.15039246     0             -0.090683068   -0.076700814  
   2460000   0.067905218   -0.16245976     0             -0.10866609    -0.03852419   
   2470000   0.07650719    -0.13217678     0             -0.071568742   -0.02440858   
   2480000   0.067377702   -0.16173176     0             -0.10835599    -0.021477152  
   2490000   0.075954683   -0.1549079      0             -0.094737548   -0.080209926  
   2500000   0.078267175   -0.14648845     0             -0.084486175    0.062646198  
   2510000   0.075677196   -0.13969034     0             -0.079739814    0.037168716  
   2520000   0.076520854   -0.15389997     0             -0.093281102   -0.033333127  
   2530000   0.073985662   -0.14735309     0             -0.08874257    -0.027654509  
   2540000   0.066243786   -0.15205655     0             -0.099579055   -0.022615485  
   2550000   0.071794165   -0.14309879     0             -0.086224352    0.027136421  
   2560000   0.068148577   -0.1456148      0             -0.091628345    0.011865753  
   2570000   0.066763065   -0.1444013      0             -0.09151243     0.029703727  
   2580000   0.072298289   -0.13663554     0             -0.079361742    0.029552959  
   2590000   0.066976506   -0.13269421     0             -0.079636259    0.082882883  
   2600000   0.071852563   -0.12427211     0             -0.067351405    0.0025794775 
   2610000   0.073110361   -0.14977882     0             -0.091861701   -0.081332316  
   2620000   0.084100736   -0.14385125     0             -0.077227697   -0.064431788  
   2630000   0.075209205   -0.12801292     0             -0.068433128    0.085704537  
   2640000   0.079977282   -0.13247228     0             -0.069115274   -0.02236448   
   2650000   0.074766615   -0.13374341     0             -0.074514236    0.029797263  
   2660000   0.0723076     -0.13486242     0             -0.077581245   -0.038586951  
   2670000   0.065008198   -0.14855258     0             -0.097053897   -0.0035417746 
   2680000   0.0830031     -0.14112556     0             -0.075371546   -0.066120522  
   2690000   0.068615633   -0.13647067     0             -0.082114219   -0.0044793077 
   2700000   0.079955766   -0.13277779     0             -0.069437833   -0.0014936117 
   2710000   0.073002051   -0.14688837     0             -0.089057052    0.011537399  
   2720000   0.074881242   -0.1579562      0             -0.098636214    0.030795021  
   2730000   0.068116311   -0.15499245     0             -0.10103156    -0.024520539  
   2740000   0.070664688   -0.15889068     0             -0.10291099     0.061605902  
   2750000   0.074892615   -0.15161901     0             -0.092290018   -0.046095856  
   2760000   0.078337156   -0.145866       0             -0.083808284   -0.01448718   
   2770000   0.073484361   -0.13644573     0             -0.07823234     0.0087307418 
   2780000   0.074662713   -0.14541577     0             -0.086268902   -0.023121675  
   2790000   0.071183219   -0.15733233     0             -0.10094188     0.028576297  
   2800000   0.068814166   -0.15972397     0             -0.10521025     0.018383854  
   2810000   0.076479639   -0.13420287     0             -0.073616657    0.021932952  
   2820000   0.079207806   -0.16074001     0             -0.097992576   -0.073521647  
   2830000   0.075913375   -0.14035881     0             -0.080221184   -0.015482451  
   2840000   0.077850412   -0.15217023     0             -0.090498102    0.021470971  
   2850000   0.068301737   -0.1565231      0             -0.10241532    -0.094491213  
   2860000   0.070656757   -0.14412616     0             -0.088152765   -0.076346679  
   2870000   0.068488082   -0.14304632     0             -0.088790914   -0.041227488  
   2880000   0.063708988   -0.15267551     0             -0.10220604    -0.01894335   
   2890000   0.063064191   -0.15326078     0             -0.10330212    -0.021104388  
   2900000   0.0772567     -0.16228211     0             -0.10108032     0.01834122   
   2910000   0.068899854   -0.16367452     0             -0.10909291    -0.00010987285
   2920000   0.074495372   -0.15485847     0             -0.095844172   -0.03331505   
   2930000   0.059252302   -0.16271811     0             -0.11577918    -0.017697933  
   2940000   0.071816247   -0.16426716     0             -0.10737523    -0.017097521  
   2950000   0.073503031   -0.15816214     0             -0.099933958   -0.088787716  
   2960000   0.068316904   -0.14957618     0             -0.095456379   -0.064170186  
   2970000   0.070601146   -0.14118635     0             -0.085257003   -0.012763347  
   2980000   0.072716443   -0.15614868     0             -0.098543618   -0.013310562  
   2990000   0.070681117   -0.15271193     0             -0.096719232    0.012378706  
   3000000   0.071385268   -0.16251916     0             -0.10596864    -0.015849209  
   3010000   0.074650508   -0.17103945     0             -0.11190225    -0.011349774  
   3020000   0.066363233   -0.15835543     0             -0.10578331    -0.048557631  
   3030000   0.071461088   -0.1446493      0             -0.08803872    -0.014485567  
   3040000   0.071364207   -0.15516358     0             -0.09862975    -0.010119694  
   3050000   0.056953047   -0.12757007     0             -0.082452575   -0.026809718  
   3060000   0.064482863   -0.14712791     0             -0.096045395    0.0093004002 
   3070000   0.06430754    -0.1483778      0             -0.097434171   -0.01612816   
   3080000   0.079183041   -0.14012658     0             -0.077398769   -0.018973529  
   3090000   0.07378334    -0.14243109     0             -0.083980852   -0.09443456   
   3100000   0.069253473   -0.12827493     0             -0.073413195   -0.049324448  
   3110000   0.084363118   -0.13463068     0             -0.067799272   -0.016845139  
   3120000   0.066095601   -0.13603951     0             -0.083679403    0.0076948207 
   3130000   0.069622562   -0.13816153     0             -0.083007405   -0.075989529  
   3140000   0.069423723   -0.15331843     0             -0.098321826   -0.090964165  
   3150000   0.080780123   -0.14724734     0             -0.083254338   -0.031924137  
   3160000   0.070628733   -0.14116767     0             -0.085216471   -0.0559089    
   3170000   0.071433461   -0.1636564      0             -0.1070677     -0.048471476  
   3180000   0.073159865   -0.16151506     0             -0.10355873    -0.048238158  
   3190000   0.071379216   -0.15054428     0             -0.093998553   -0.053618213  
   3200000   0.066962594   -0.13936175     0             -0.086314818   -0.052521592  
   3210000   0.069601802   -0.14689657     0             -0.091758891   -0.02588798   
   3220000   0.071001862   -0.15059671     0             -0.094349927   -0.0048289434 
   3230000   0.068872861   -0.13476198     0             -0.080201757    0.030118192  
   3240000   0.071475084   -0.13672058     0             -0.080098913    0.012970071  
   3250000   0.082091228   -0.13466682     0             -0.069635176   -0.099827877  
   3260000   0.071624227   -0.13003122     0             -0.0732914     -0.078123491  
   3270000   0.070048833   -0.14235168     0             -0.086859868   -0.013079181  
   3280000   0.069962363   -0.16007        0             -0.10464669    -0.0046693381 
   3290000   0.063348123   -0.13707778     0             -0.086894189   -0.016663557  
   3300000   0.084737629   -0.14856879     0             -0.081440694   -0.088682248  
   3310000   0.072618652   -0.14070566     0             -0.083178075   -0.033626512  
   3320000   0.079495853   -0.1410474      0             -0.078071775    0.032809447  
   3330000   0.068975632   -0.14974453     0             -0.095102892   -0.10000435   
   3340000   0.074025472   -0.14323523     0             -0.084593172    0.01465206   
   3350000   0.074830128   -0.14324976     0             -0.083970264    0.0039224452 
   3360000   0.074825223   -0.14621906     0             -0.086943456   -0.0088270014 
   3370000   0.071819326   -0.13250199     0             -0.075607622   -0.045678554  
   3380000   0.073067581   -0.14062199     0             -0.082738764   -0.0026991532 
   3390000   0.078237343   -0.15506695     0             -0.093088306    0.042437826  
   3400000   0.073448976   -0.15503647     0             -0.096851107   -0.00090758978
   3410000   0.064145855   -0.14776592     0             -0.096950375   -0.058923772  
   3420000   0.070813632   -0.1303781      0             -0.074280421   -0.08234554   
   3430000   0.06434634    -0.14297471     0             -0.092000339   -0.047480841  
   3440000   0.066467301   -0.14980565     0             -0.097151085   -0.054356956  
   3450000   0.075698781   -0.15100823     0             -0.091040597   -0.040552339  
   3460000   0.068842998   -0.14740306     0             -0.092866503   -0.013412224  
   3470000   0.073061357   -0.13174193     0             -0.073863638   -0.010907678  
   3480000   0.067363339   -0.15191401     0             -0.098549616    0.0090568203 
   3490000   0.073250743   -0.12858523     0             -0.070556908   -0.042040461  
   3500000   0.072410076   -0.14892561     0             -0.091563257    0.081529327  
   3510000   0.062511989   -0.14941597     0             -0.099894756   -0.035248823  
   3520000   0.066127806   -0.13249844     0             -0.080112814   -0.047433229  
   3530000   0.076176745   -0.13902367     0             -0.078677405   -0.12391646   
   3540000   0.070254149   -0.15609042     0             -0.10043597    -0.013403896  
   3550000   0.068206643   -0.14915226     0             -0.095119813    0.0022550095 
   3560000   0.06531291    -0.15124421     0             -0.099504142   -0.097794926  
   3570000   0.071995423   -0.15492409     0             -0.097890219   -0.086649836  
   3580000   0.074873085   -0.14056125     0             -0.081247728    0.014582228  
   3590000   0.072942161   -0.14725408     0             -0.089470216    0.036802888  
   3600000   0.069261766   -0.15440889     0             -0.09954058     0.015805435  
   3610000   0.071356733   -0.14295305     0             -0.086425134   -0.043351612  
   3620000   0.074253707   -0.15742093     0             -0.098598067   -0.054741705  
   3630000   0.077614993   -0.13800029     0             -0.076514663   -0.083373794  
   3640000   0.075893938   -0.1359131      0             -0.075790871   -0.0067733528 
   3650000   0.085335135   -0.12966722     0             -0.062065794    0.021707395  
   3660000   0.073847049   -0.13837722     0             -0.079876508   -0.015864241  
   3670000   0.069968517   -0.15374875     0             -0.098320567   -0.033230939  
   3680000   0.070078214   -0.14860944     0             -0.093094351    0.0026907755 
   3690000   0.067853148   -0.14798009     0             -0.094227671   -0.0080082251 
   3700000   0.069698692   -0.15472535     0             -0.099510913    0.01500562   
   3710000   0.066958615   -0.1530966      0             -0.10005282    -0.055951402  
   3720000   0.069246811   -0.14483663     0             -0.089980172   -0.076917278  
   3730000   0.072277255   -0.13238371     0             -0.075126571   -0.071733896  
   3740000   0.070969247   -0.13570191     0             -0.079480956   -0.00019099701
   3750000   0.069976881   -0.13946778     0             -0.084032969   -0.0035159029 
   3760000   0.074599058   -0.15601318     0             -0.09691674    -0.00236503   
   3770000   0.059765626   -0.14003406     0             -0.092688476    0.053812811  
   3780000   0.06533226    -0.14732399     0             -0.095568588   -0.0086104103 
   3790000   0.068070179   -0.12838906     0             -0.074464712   -0.031380161  
   3800000   0.074174313   -0.1450502      0             -0.086290237    0.07244471   
   3810000   0.071426633   -0.14797263     0             -0.091389344   -0.033794046  
   3820000   0.069833657   -0.14459454     0             -0.089273192   -0.023236834  
   3830000   0.070172392   -0.14493487     0             -0.089345176   -0.048376148  
   3840000   0.064021829   -0.16524846     0             -0.11453117    -0.02239273   
   3850000   0.066797872   -0.14646475     0             -0.093548306   -0.066623576  
   3860000   0.070336147   -0.13589656     0             -0.08017714    -0.02373505   
   3870000   0.070929115   -0.15182996     0             -0.095640807   -0.034910811  
   3880000   0.073524034   -0.14040584     0             -0.082161023   -0.0098584524 
   3890000   0.074550289   -0.15350048     0             -0.094442669   -0.081891257  
   3900000   0.075628812   -0.14532301     0             -0.085410814    0.0064450255 
   3910000   0.070127533   -0.14945681     0             -0.093902652   -0.081410745  
   3920000   0.075190298   -0.14216339     0             -0.082598577    0.020779522  
   3930000   0.070551461   -0.14376056     0             -0.087870574   -0.038278845  
   3940000   0.070968974   -0.13975279     0             -0.083532053    0.0013763568 
   3950000   0.070618705   -0.13927923     0             -0.08333597    -0.01586172   
   3960000   0.060598967   -0.14853533     0             -0.10052958     0.0020726697 
   3970000   0.066616289   -0.15575289     0             -0.10298029     0.023731201  
   3980000   0.072294174   -0.14826891     0             -0.090998366   -0.02387389   
   3990000   0.067140384   -0.16442825     0             -0.11124048     0.012739702  
   4000000   0.072407744   -0.13873599     0             -0.081375484    0.0094939807 
   4010000   0.076610845   -0.15177825     0             -0.091088097   -0.10950863   
   4020000   0.084238225   -0.14451996     0             -0.077787487   -0.049425374  
   4030000   0.071752108   -0.13821849     0             -0.081377364   -0.011042048  
   4040000   0.059731111   -0.14996166     0             -0.10264342    -0.038434252  
   4050000   0.075494455   -0.17387571     0             -0.11406995    -0.03281449   
   4060000   0.068420904   -0.15768378     0             -0.10348159    -0.047919369  
   4070000   0.071564673   -0.15082766     0             -0.094135022    0.021257775  
   4080000   0.066922852   -0.15623479     0             -0.10321934     0.032962832  
   4090000   0.072822796   -0.17402893     0             -0.11633962    -0.097830054  
   4100000   0.070925368   -0.16586611     0             -0.10967992    -0.020150777  
   4110000   0.067542501   -0.15253728     0             -0.099030953   -0.057690706  
   4120000   0.074089327   -0.13551606     0             -0.07682342     0.027551105  
   4130000   0.071755634   -0.13047766     0             -0.07363374    -0.09578932   
   4140000   0.066355888   -0.14167643     0             -0.08911012    -0.065115931  
   4150000   0.069009728   -0.14055112     0             -0.085882476   -0.0048275403 
   4160000   0.068174239   -0.13283272     0             -0.078825944    0.0096445844 
   4170000   0.072397098   -0.13850257     0             -0.081150495   -0.067321176  
   4180000   0.073979085   -0.13788596     0             -0.079280655   -0.025630991  
   4190000   0.06746303    -0.15252387     0             -0.099080498   -0.03078405   
   4200000   0.070289589   -0.1504465      0             -0.094763971   -0.012670687  
   4210000   0.068320901   -0.15619825     0             -0.10207528     0.0079690754 
   4220000   0.064484626   -0.15314803     0             -0.10206412    -0.0087655373 
   4230000   0.07938329    -0.14692281     0             -0.084036359   -0.0020556761 
   4240000   0.077151884   -0.13465265     0             -0.073533896   -0.046701229  
   4250000   0.070005045   -0.14035691     0             -0.084899792   -0.025490879  
   4260000   0.081249568   -0.14106116     0             -0.076696267   -0.0065256521 
   4270000   0.06030442    -0.16421682     0             -0.11644441     0.0024026818 
   4280000   0.067108394   -0.15993483     0             -0.1067724      0.018057202  
   4290000   0.074389971   -0.16289294     0             -0.10396213    -0.01502686   
   4300000   0.066256073   -0.16235546     0             -0.10986822     0.026367738  
   4310000   0.072837271   -0.16245388     0             -0.1047531     -0.030377099  
   4320000   0.077473102   -0.14641717     0             -0.085043949   -0.042595622  
   4330000   0.069030334   -0.15361635     0             -0.098931383   -0.014106679  
   4340000   0.071825335   -0.15779058     0             -0.10089144    -0.0084195909 
   4350000   0.071497568   -0.15946709     0             -0.10282761     0.013405591  
   4360000   0.078939629   -0.14850315     0             -0.085968166   -0.054924784  
   4370000   0.071137231   -0.15606675     0             -0.099712728    0.019961384  
   4380000   0.069869209   -0.15238765     0             -0.097038132   -0.036127548  
   4390000   0.071613348   -0.14636294     0             -0.08963174     0.012502416  
   4400000   0.077052385   -0.13359749     0             -0.072557554   -0.009528907  
   4410000   0.066082594   -0.15951145     0             -0.10716165    -0.0011129821 
   4420000   0.069467204   -0.12959794     0             -0.074566889   -0.11878001   
   4430000   0.073575347   -0.1507632      0             -0.092477734   -0.023527665  
   4440000   0.065380877   -0.14333729     0             -0.09154338     0.037003854  
   4450000   0.062137262   -0.1561474      0             -0.10692303    -0.042504423  
   4460000   0.07328547    -0.15424082     0             -0.096184983    0.0039258817 
   4470000   0.07499114    -0.15045661     0             -0.091049568   -0.0046109141 
   4480000   0.070593645   -0.13268311     0             -0.076759703   -0.058759541  
   4490000   0.069119521   -0.14528951     0             -0.090533887   -0.084230385  
   4500000   0.07487777    -0.15351682     0             -0.094199589   -0.044093139  
   4510000   0.068856104   -0.15422539     0             -0.09967844     0.11359092   
   4520000   0.066141883   -0.14315664     0             -0.090759867    0.026990015  
   4530000   0.067744419   -0.1368319      0             -0.083165614    0.00084196295
   4540000   0.062242419   -0.14061119     0             -0.091303524   -0.045827637  
   4550000   0.075932534   -0.14948376     0             -0.089330957    0.0049776917 
   4560000   0.072723051   -0.17478538     0             -0.11717508    -0.030226788  
   4570000   0.068038916   -0.16939143     0             -0.11549185     0.0016064568 
   4580000   0.066657439   -0.17333726     0             -0.12053207    -0.048382884  
   4590000   0.071655947   -0.14695102     0             -0.090186078   -0.049195441  
   4600000   0.070432695   -0.15487461     0             -0.099078707   -0.049167761  
   4610000   0.070869295   -0.17426666     0             -0.11812489    -0.088225227  
   4620000   0.069585036   -0.15168353     0             -0.096559135   -0.0060525528 
   4630000   0.071013816   -0.14685656     0             -0.090600305    0.017028213  
   4640000   0.065347919   -0.14566659     0             -0.093898785    0.0012545944 
   4650000   0.068537606   -0.15008919     0             -0.095794555    0.032413074  
   4660000   0.07322807    -0.14207081     0             -0.084060446   -0.073551391  
   4670000   0.074244059   -0.14997142     0             -0.091156201   -0.084730743  
   4680000   0.071698956   -0.13477629     0             -0.077977268   -0.090518212  
   4690000   0.072539907   -0.16124973     0             -0.10378452    -0.036574211  
   4700000   0.073039792   -0.16485498     0             -0.10699377    -0.0054810387 
   4710000   0.067262484   -0.16705375     0             -0.11376925    -0.015883542  
   4720000   0.067453621   -0.15111619     0             -0.097680276   -0.020120079  
   4730000   0.074317056   -0.13246776     0             -0.073594722    0.10822975   
   4740000   0.071815562   -0.14091754     0             -0.084026146   -0.070996435  
   4750000   0.070852756   -0.14092483     0             -0.08479616    -0.057422172  
   4760000   0.068618933   -0.14428633     0             -0.089927269    0.019496695  
   4770000   0.076937144   -0.14490646     0             -0.083957819   -0.0022064762 
   4780000   0.06715129    -0.15770963     0             -0.10451322     0.01576442   
   4790000   0.071669432   -0.16059852     0             -0.10382289     0.086009915  
   4800000   0.083643445   -0.16176009     0             -0.095498798    0.060506284  
   4810000   0.073046174   -0.15695139     0             -0.099085124    0.0021351437 
   4820000   0.067898998   -0.13659955     0             -0.08281081     0.053163199  
   4830000   0.070584093   -0.14568111     0             -0.089765276   -0.11895547   
   4840000   0.067348672   -0.16603594     0             -0.11268317    -0.079747526  
   4850000   0.068503155   -0.15355082     0             -0.099283475    0.021126551  
   4860000   0.066005513   -0.14232374     0             -0.090035      -0.08815175   
   4870000   0.076985071   -0.14901117     0             -0.08802456    -0.062853182  
   4880000   0.071837956   -0.14658137     0             -0.089672244   -0.025617358  
   4890000   0.066113163   -0.16593387     0             -0.11355985    -0.0062671906 
   4900000   0.067464858   -0.15881444     0             -0.10536962    -0.038606495  
   4910000   0.068019455   -0.1512943      0             -0.097410136   -0.047032916  
   4920000   0.071266417   -0.15028876     0             -0.093832391   -0.034209713  
   4930000   0.078218082   -0.14007915     0             -0.078115762    0.010023742  
   4940000   0.075730222   -0.16218935     0             -0.10219682    -0.0045980477 
   4950000   0.061147924   -0.14985082     0             -0.1014102     -0.066260966  
   4960000   0.070566057   -0.15690906     0             -0.10100751    -0.042836631  
   4970000   0.066313842   -0.15570856     0             -0.10317557    -0.075524357  
   4980000   0.069918285   -0.14827414     0             -0.092885745   -0.005642476  
   4990000   0.076153325   -0.15288794     0             -0.092560223   -0.051286464  
   5000000   0.059061125   -0.14927339     0             -0.1024859     -0.0189857    
   5010000   0.070372497   -0.13523035     0             -0.079482139   -0.0010467626 
   5020000   0.07151895    -0.16933187     0             -0.11267545    -0.030930046  
   5030000   0.072594367   -0.14218228     0             -0.084673935    0.0019167747 
   5040000   0.068244017   -0.14960543     0             -0.095543374   -0.064220167  
   5050000   0.068133586   -0.13793942     0             -0.083964842    0.037897839  
   5060000   0.065383397   -0.15719179     0             -0.10539588    -0.079110631  
   5070000   0.073367971   -0.14145818     0             -0.083336986   -0.042614734  
   5080000   0.073729826   -0.14005917     0             -0.081651325   -0.041609831  
   5090000   0.063372232   -0.13921174     0             -0.089009048    0.055761351  
   5100000   0.072115214   -0.13157265     0             -0.074443877   -0.10294855   
   5110000   0.072295928   -0.15576268     0             -0.098490753   -0.012908652  
   5120000   0.072210889   -0.14893469     0             -0.091730128   -0.085963389  
   5130000   0.069888957   -0.15342874     0             -0.098063586    0.018014119  
   5140000   0.064344216   -0.15512449     0             -0.10415181     0.0054953563 
   5150000   0.067563171   -0.15919548     0             -0.10567278    -0.036708373  
   5160000   0.0734492     -0.15809996     0             -0.099914426   -0.1569013    
   5170000   0.071275197   -0.16697188     0             -0.11050856    -0.0016086023 
   5180000   0.060622966   -0.1720817      0             -0.12405695    -0.055032406  
   5190000   0.06581738    -0.17318044     0             -0.12104074    -0.034053226  
   5200000   0.068055258   -0.17205929     0             -0.11814676     0.06333235   
   5210000   0.065406598   -0.16409145     0             -0.11227716    -0.031672759  
   5220000   0.065970401   -0.14470743     0             -0.092446502   -0.035909165  
   5230000   0.067001065   -0.16229841     0             -0.109221      -0.097457146  
   5240000   0.072454447   -0.14650716     0             -0.089109654    0.0065087577 
   5250000   0.073512888   -0.14203071     0             -0.083794716    0.013205357  
   5260000   0.070022165   -0.14159178     0             -0.086121093   -0.018189625  
   5270000   0.067370093   -0.15256032     0             -0.099190572   -0.022648558  
   5280000   0.068852802   -0.14459704     0             -0.090052712   -0.046415311  
   5290000   0.070495783   -0.14312527     0             -0.087279389   -0.038336715  
   5300000   0.069895742   -0.13247029     0             -0.077099756   -0.01910717   
   5310000   0.064666138   -0.14569561     0             -0.094467907   -0.045095487  
   5320000   0.074589779   -0.13062962     0             -0.071540531   -0.074659822  
   5330000   0.068668723   -0.14855405     0             -0.094155542   -0.033395516  
   5340000   0.079101277   -0.12706047     0             -0.064397427   -0.0068031462 
   5350000   0.062747166   -0.14172826     0             -0.092020738   -0.065089137  
   5360000   0.068513047   -0.14041266     0             -0.086137477   -0.050304484  
   5370000   0.076656756   -0.1377429      0             -0.077016374    0.0023348493 
   5380000   0.068943101   -0.12616382     0             -0.071547961   -0.032956938  
   5390000   0.072826527   -0.13740901     0             -0.079716749   -0.069660128  
   5400000   0.062901183   -0.1528102      0             -0.10298067    -0.039471112  
   5410000   0.071834545   -0.16002977     0             -0.10312334    -0.032569109  
   5420000   0.071119489   -0.15250783     0             -0.096167858   -0.006386131  
   5430000   0.086978832   -0.15477212     0             -0.085868578   -0.0010703179 
   5440000   0.06755191    -0.13487292     0             -0.081359143   -0.025146651  
   5450000   0.067490146   -0.15329002     0             -0.099825172   -0.02153105   
   5460000   0.073323611   -0.1517609      0             -0.093674856   -0.0087011675 
   5470000   0.076329508   -0.15577331     0             -0.095306028    0.038600236  
   5480000   0.080306233   -0.14790085     0             -0.084283251   -0.032745096  
   5490000   0.074834911   -0.14610879     0             -0.086825512   -0.040836761  
   5500000   0.070298954   -0.1585829      0             -0.10289295    -0.056614355  
   5510000   0.076028587   -0.14874647     0             -0.088517576    0.015825333  
   5520000   0.080567547   -0.15596206     0             -0.092137453    0.017784949  
   5530000   0.077606485   -0.14372553     0             -0.082246647   -0.0032463235 
   5540000   0.076616817   -0.13444209     0             -0.073747205   -0.044158365  
   5550000   0.081285695   -0.15044795     0             -0.086054438   -0.11816266   
   5560000   0.07142756    -0.14941813     0             -0.092834112   -0.011812951  
   5570000   0.064549474   -0.13425178     0             -0.083116495   -0.061900862  
   5580000   0.07011461    -0.14343139     0             -0.087887476   -0.037507644  
   5590000   0.068249956   -0.1387082      0             -0.084641437   -0.056573437  
   5600000   0.072778538   -0.14948127     0             -0.091827023    0.048099816  
   5610000   0.071297091   -0.13446949     0             -0.07798883    -0.017653987  
   5620000   0.076374255   -0.13726732     0             -0.076764587    0.0024152447 
   5630000   0.077222572   -0.13960826     0             -0.078433499   -0.087919803  
   5640000   0.07079304    -0.12517583     0             -0.069094467    0.0008631833 
   5650000   0.079603522   -0.12268161     0             -0.059620694   -0.0046540793 
   5660000   0.069056783   -0.14353365     0             -0.088827733   -0.046782968  
   5670000   0.069718064   -0.1387665      0             -0.083536724   -0.020075714  
   5680000   0.072385102   -0.13322316     0             -0.075880589    0.04938088   
   5690000   0.071263341   -0.13361212     0             -0.077158189    0.012349417  
   5700000   0.073194412   -0.13473579     0             -0.076752089   -0.049325579  
   5710000   0.070161277   -0.14337654     0             -0.087795649   -4.0962197e-05
   5720000   0.063403933   -0.13784119     0             -0.087613384   -0.045222113  
   5730000   0.072528132   -0.13197543     0             -0.074519555   -0.038405558  
   5740000   0.069931724   -0.13790704     0             -0.082508006    0.0084200037 
   5750000   0.063710313   -0.15348106     0             -0.10301055    -0.011104847  
   5760000   0.065838727   -0.14324825     0             -0.091091636    0.036842136  
   5770000   0.077247146   -0.13070643     0             -0.069512207    0.080618019  
   5780000   0.077384984   -0.13403889     0             -0.07273547    -0.0076056706 
   5790000   0.073250666   -0.15849038     0             -0.10046212     0.099186063  
   5800000   0.073555569   -0.15239932     0             -0.094129514   -0.087402488  
   5810000   0.075011808   -0.15470426     0             -0.095280843    0.014291728  
   5820000   0.079744437   -0.15727679     0             -0.094104245   -0.14642474   
   5830000   0.066828675   -0.13223621     0             -0.079295368   -0.050629563  
   5840000   0.069764091   -0.15860896     0             -0.10334272    -0.046042561  
   5850000   0.077489028   -0.15457105     0             -0.093185213   -0.062336767  
   5860000   0.075839223   -0.14992506     0             -0.089846176   -0.053913855  
   5870000   0.068447231   -0.14793974     0             -0.093716703    0.033013503  
   5880000   0.078518882   -0.16163919     0             -0.099437509   -0.062603603  
   5890000   0.087425788   -0.12990862     0             -0.060651006   -0.13233558   
   5900000   0.07533435    -0.13197453     0             -0.072295597   -0.054866582  
   5910000   0.069845777   -0.15995725     0             -0.1046263      0.016470266  
   5920000   0.069302198   -0.14489542     0             -0.089995088    0.023815989  
   5930000   0.06560901    -0.14205783     0             -0.090083189   -0.088344133  
   5940000   0.073038602   -0.14293526     0             -0.085074994    0.069752524  
   5950000   0.075634697   -0.13958151     0             -0.079664648    0.024049579  
   5960000   0.078215782   -0.13892797     0             -0.076966401   -0.027927461  
   5970000   0.070942659   -0.1629222      0             -0.10672231    -0.047490349  
   5980000   0.072716243   -0.15974462     0             -0.10213972    -0.0021402226 
   5990000   0.068840055   -0.15834712     0             -0.10381289    -0.02540031   
   6000000   0.073448357   -0.14397112     0             -0.085786251   -0.0037680316 
   6010000   0.065277748   -0.15450472     0             -0.1027925      0.0023160105 
   6020000   0.075306534   -0.144026       0             -0.084369108   -0.037182221  
   6030000   0.07097891    -0.1316695      0             -0.075440894    0.055520062  
   6040000   0.072790674   -0.13765608     0             -0.079992218    0.089453506  
   6050000   0.072422007   -0.13366842     0             -0.076296612    0.070305122  
   6060000   0.067535482   -0.13892645     0             -0.085425686    0.13653661   
   6070000   0.072557949   -0.16191247     0             -0.10443297    -0.028449961  
   6080000   0.067598736   -0.1549026      0             -0.10135172    -0.098500163  
   6090000   0.068995444   -0.14769408     0             -0.093036752   -0.071787358  
   6100000   0.061046655   -0.14678957     0             -0.09842917     0.0036069011 
   6110000   0.071054311   -0.1474732      0             -0.091184867   -0.089228451  
   6120000   0.066517235   -0.15352172     0             -0.1008276      0.0085886679 
   6130000   0.068292138   -0.16068508     0             -0.10658491     0.0019635887 
   6140000   0.073444135   -0.16086318     0             -0.10268165    -0.02592453   
   6150000   0.070224706   -0.1611079      0             -0.10547676     0.018267699  
   6160000   0.075133241   -0.15575325     0             -0.096233634   -0.015781269  
   6170000   0.064811401   -0.1461813      0             -0.094838516    0.11819798   
   6180000   0.08372464    -0.14548766     0             -0.079162047   -0.049020013  
   6190000   0.079076251   -0.14315637     0             -0.080513157    0.065231681  
   6200000   0.077901772   -0.14081614     0             -0.07910333    -0.05131427   
   6210000   0.065359878   -0.14443651     0             -0.092659235    0.022212624  
   6220000   0.077246842   -0.15540764     0             -0.094213658   -0.021279589  
   6230000   0.074623159   -0.15992496     0             -0.10080943    -0.065423574  
   6240000   0.069478414   -0.13181369     0             -0.076773758   -0.052713215  
   6250000   0.075410378   -0.12348335     0             -0.063744191   -0.13152533   
   6260000   0.08042008    -0.14189239     0             -0.078184607   -0.024345321  
   6270000   0.079967582   -0.13065654     0             -0.067307218    0.0008962061 
   6280000   0.072540629   -0.13072981     0             -0.073264035   -0.042049995  
   6290000   0.07030454    -0.12368433     0             -0.067989951    0.053271661  
   6300000   0.075145352   -0.12892016     0             -0.069390954   -0.012856614  
   6310000   0.069148526   -0.14949793     0             -0.094719334   -0.067495765  
   6320000   0.06501634    -0.13714513     0             -0.085639997   -0.069292237  
   6330000   0.073245947   -0.13649116     0             -0.078466637   -0.042600051  
   6340000   0.073845068   -0.13575964     0             -0.077260505   -0.073524953  
   6350000   0.068679487   -0.13785113     0             -0.0834441      0.0043299853 
   6360000   0.069226693   -0.14423094     0             -0.089390417    0.056967651  
   6370000   0.067087726   -0.13557895     0             -0.082432892   -0.057753693  
   6380000   0.07252247    -0.14326409     0             -0.085812693   -0.093148786  
   6390000   0.067421735   -0.14699272     0             -0.093582063    0.023821549  
   6400000   0.07411791    -0.13304435     0             -0.074329072    0.089906757  
   6410000   0.065709486   -0.14447413     0             -0.092419898   -0.017084662  
   6420000   0.073768872   -0.15314012     0             -0.094701345    0.020596777  
   6430000   0.070070779   -0.15555626     0             -0.10004706    -0.0083057077 
   6440000   0.073541764   -0.14825196     0             -0.089993095    0.030949774  
   6450000   0.072036258   -0.13336589     0             -0.076299668   -0.038394617  
   6460000   0.069395172   -0.147767       0             -0.092793009   -0.024538233  
   6470000   0.070470235   -0.13540348     0             -0.079577838   -0.018988059  
   6480000   0.066595151   -0.13331724     0             -0.080561394    0.0081848882 
   6490000   0.07249656    -0.11488687     0             -0.057456004   -0.068624967  
   6500000   0.071475632   -0.13133204     0             -0.074709936   -0.11165515   
   6510000   0.065715327   -0.13487502     0             -0.082816162   -0.027569843  
   6520000   0.06430423    -0.13441719     0             -0.083476186   -0.012855577  
   6530000   0.064598425   -0.12655116     0             -0.075377099    0.0077181069 
   6540000   0.066418183   -0.1356767      0             -0.083061041    0.0093512183 
   6550000   0.077986703   -0.14091676     0             -0.079136666   -0.050043081  
   6560000   0.074691087   -0.14755252     0             -0.088383176   -0.043904949  
   6570000   0.068165562   -0.14731485     0             -0.093314946   -0.067850257  
   6580000   0.072276225   -0.13743817     0             -0.080181848    0.003704303  
   6590000   0.069205818   -0.13215268     0             -0.077328694   -0.076892661  
   6600000   0.071149762   -0.11920644     0             -0.062842486   -0.091907988  
   6610000   0.073614903   -0.12231504     0             -0.063998229   -0.062164348  
   6620000   0.06949752    -0.13589361     0             -0.080838542   -0.037110716  
   6630000   0.070046767   -0.12799643     0             -0.072506252   -0.0056110119 
   6640000   0.063386124   -0.13546192     0             -0.085248223    0.083736667  
   6650000   0.066946739   -0.13267937     0             -0.079645003    0.019304529  
   6660000   0.077651175   -0.15427352     0             -0.09275923    -0.025170667  
   6670000   0.067647016   -0.13402286     0             -0.080433743    0.048801917  
   6680000   0.065158767   -0.1387028      0             -0.087084843    0.052166718  
   6690000   0.074048257   -0.14197425     0             -0.083314151   -0.069891029  
   6700000   0.074264144   -0.13955015     0             -0.080719025   -0.040318707  
   6710000   0.064433663   -0.1444731      0             -0.093429557    0.00019895461
   6720000   0.067649757   -0.15590331     0             -0.10231202    -0.098957388  
   6730000   0.069204962   -0.14660902     0             -0.091785711   -0.013285209  
   6740000   0.071647868   -0.14404584     0             -0.087287295   -0.034016797  
   6750000   0.07299827    -0.14631784     0             -0.088489523    0.017930923  
   6760000   0.083279715   -0.15300161     0             -0.087028461   -0.014058394  
   6770000   0.065385802   -0.16792882     0             -0.11613101     0.0021905143 
   6780000   0.073079985   -0.14564002     0             -0.087746974   -0.094859091  
   6790000   0.077264107   -0.15124436     0             -0.090036701    0.053866246  
   6800000   0.079189981   -0.14478058     0             -0.082047268    0.070264078  
   6810000   0.070915296   -0.13684134     0             -0.080663126   -0.016942266  
   6820000   0.081172729   -0.14409841     0             -0.079794384   -0.092622378  
   6830000   0.069389667   -0.13483958     0             -0.079869949   -0.035086817  
   6840000   0.069977951   -0.126695       0             -0.071259345   -0.08162525   
   6850000   0.076889039   -0.13949211     0             -0.078581575   -0.051304796  
   6860000   0.07152672    -0.12497529     0             -0.068312721    0.06960768   
   6870000   0.07554876    -0.14533213     0             -0.085483343   -0.011201658  
   6880000   0.067461792   -0.13637979     0             -0.082937401   -0.075255257  
   6890000   0.070718881   -0.14899004     0             -0.09296743    -0.039916581  
   6900000   0.064216125   -0.1461424      0             -0.095271186   -0.026587546  
   6910000   0.073562076   -0.15231819     0             -0.094043237   -0.024289037  
   6920000   0.07749998    -0.14819643     0             -0.086801915   -0.090735219  
   6930000   0.063031642   -0.13468003     0             -0.084747155   -0.0037349727 
   6940000   0.074213744   -0.14928134     0             -0.090490143    0.029335132  
   6950000   0.067457894   -0.15893414     0             -0.10549483    -0.026116563  
   6960000   0.071771443   -0.15895308     0             -0.10209664    -0.045859374  
   6970000   0.085341687   -0.13006267     0             -0.062456052   -0.015397023  
   6980000   0.067392854   -0.14170508     0             -0.088317307   -0.0063740485 
   6990000   0.065239119   -0.15460624     0             -0.10292462     0.020406832  
   7000000   0.068077096   -0.15328535     0             -0.099355528   -0.036019411  
   7010000   0.065447545   -0.15433656     0             -0.10248983    -0.056730655  
   7020000   0.064437557   -0.15557965     0             -0.10453303     0.012955294  
   7030000   0.063502257   -0.14957365     0             -0.099267955   -0.034677388  
   7040000   0.062397991   -0.15663862     0             -0.10720771    -0.017635571  
   7050000   0.063430614   -0.14471935     0             -0.094470406    0.08219272   
   7060000   0.071882588   -0.14422946     0             -0.087284968    0.0088931178 
   7070000   0.064774398   -0.14820623     0             -0.096892763   -0.00012208223
   7080000   0.077765774   -0.15620661     0             -0.094601536    0.027920486  
   7090000   0.06945816    -0.15499603     0             -0.099972148   -0.035034448  
   7100000   0.073396331   -0.16233731     0             -0.10419365    -0.059116839  
   7110000   0.070116847   -0.14397141     0             -0.08842572     0.026984479  
   7120000   0.071290153   -0.1545259      0             -0.098050731    0.0050500925 
   7130000   0.079147245   -0.14064176     0             -0.077942302   -0.0074510376 
   7140000   0.071673645   -0.14517578     0             -0.088396811   -0.022927389  
   7150000   0.077330147   -0.14493663     0             -0.083676655   -0.074923027  
   7160000   0.064843207   -0.16159853     0             -0.11023056    -0.028115707  
   7170000   0.065953869   -0.13573871     0             -0.083490877   -0.028508312  
   7180000   0.071558212   -0.14475029     0             -0.088062765    0.098517117  
   7190000   0.07392276    -0.13763025     0             -0.079069568   -0.011695815  
   7200000   0.078515044   -0.13377708     0             -0.07157844     0.064273054  
   7210000   0.070262148   -0.13720383     0             -0.081543038    0.028357049  
   7220000   0.074501449   -0.1346442      0             -0.075625085   -0.055855429  
   7230000   0.075005486   -0.1385868      0             -0.079168393    0.046320606  
   7240000   0.068088193   -0.14528051     0             -0.09134189    -0.057988955  
   7250000   0.078521522   -0.14326954     0             -0.081065771   -0.021475489  
   7260000   0.07725629    -0.138118       0             -0.076916529   -0.04210856   
   7270000   0.072109046   -0.14519334     0             -0.088069456    0.037930827  
   7280000   0.070139256   -0.15450321     0             -0.098939768    0.023608064  
   7290000   0.073919      -0.14266127     0             -0.084103565    0.0095688574 
   7300000   0.068014483   -0.13011402     0             -0.076233799    0.029398188  
   7310000   0.073363006   -0.14436239     0             -0.086245135   -0.080003716  
   7320000   0.075850526   -0.14901517     0             -0.088927327    0.021314051  
   7330000   0.075834745   -0.15262774     0             -0.092552407    0.073874548  
   7340000   0.065050439   -0.15358151     0             -0.10204936     0.031869675  
   7350000   0.073975094   -0.14283097     0             -0.08422882    -0.03062266   
   7360000   0.066415388   -0.15146888     0             -0.098855439   -0.039737011  
   7370000   0.078261271   -0.1603375      0             -0.098339895   -0.010263394  
   7380000   0.065050062   -0.14212937     0             -0.090597526   -0.099027539  
   7390000   0.077256961   -0.13861176     0             -0.077409759   -0.013236334  
   7400000   0.075698982   -0.15286201     0             -0.092894222   -0.082686958  
   7410000   0.073322486   -0.16104957     0             -0.10296441    -0.0099444103 
   7420000   0.065264196   -0.16321207     0             -0.11151059    -0.018341186  
   7430000   0.074184443   -0.16403414     0             -0.10526615    -0.0010108339 
   7440000   0.071553983   -0.13861513     0             -0.081930963   -0.01771667   
   7450000   0.067329176   -0.15337844     0             -0.10004111    -0.041246154  
   7460000   0.071075075   -0.15694447     0             -0.10063969    -0.095459957  
   7470000   0.067113514   -0.15281902     0             -0.099652533    0.012124891  
   7480000   0.069540364   -0.15979125     0             -0.10470225    -0.035316687  
   7490000   0.072427016   -0.15055737     0             -0.093181594   -0.047104444  
   7500000   0.072644093   -0.15174489     0             -0.094197152   -0.064755585  
   7510000   0.066647506   -0.16200932     0             -0.109212      -0.10590053   
   7520000   0.071112765   -0.15531198     0             -0.098977333    0.0417105    
   7530000   0.07777205    -0.13297777     0             -0.071367723   -0.037382029  
   7540000   0.082963684   -0.13749525     0             -0.071772456    0.050119551  
   7550000   0.071492342   -0.16051852     0             -0.10388318    -0.0056390513 
   7560000   0.063465329   -0.1553334      0             -0.10505696     0.04081656   
   7570000   0.071814937   -0.14728015     0             -0.090389254   -0.057286093  
   7580000   0.062358054   -0.1468779      0             -0.097478629   -0.088944674  
   7590000   0.075115687   -0.14480771     0             -0.085301999   -0.038172134  
   7600000   0.071528234   -0.15917434     0             -0.10251057    -0.010319984  
   7610000   0.075033925   -0.14526529     0             -0.085824356   -0.0028894262 
   7620000   0.074517788   -0.16363302     0             -0.10460096    -0.051167712  
   7630000   0.075408218   -0.16130529     0             -0.10156785     0.018849217  
   7640000   0.074952841   -0.14796534     0             -0.08858864    -0.078640134  
   7650000   0.073311932   -0.14850508     0             -0.090428289    0.053559352  
   7660000   0.061884449   -0.15731351     0             -0.10828942     0.030805516  
   7670000   0.075096662   -0.15350539     0             -0.09401475    -0.041030883  
   7680000   0.072407765   -0.15936203     0             -0.1020015     -0.0097837157 
   7690000   0.069446051   -0.15633125     0             -0.10131695     0.041388055  
   7700000   0.070949923   -0.16143816     0             -0.10523252    -0.090210361  
   7710000   0.070368281   -0.14800642     0             -0.092261548    0.020175881  
   7720000   0.070273696   -0.16063174     0             -0.1049618      0.014704133  
   7730000   0.075756855   -0.16690807     0             -0.10689443    -0.0061959026 
   7740000   0.073574506   -0.13710858     0             -0.078823772    0.04256872   
   7750000   0.068769117   -0.15298895     0             -0.098510919   -0.029819083  
   7760000   0.065280647   -0.15691328     0             -0.10519876    -0.0025863777 
   7770000   0.067036645   -0.14200602     0             -0.088900429   -0.11010612   
   7780000   0.064491048   -0.15981496     0             -0.10872596     0.020854745  
   7790000   0.070786184   -0.15676935     0             -0.10069342    -0.053665011  
   7800000   0.069554928   -0.15860004     0             -0.10349949    -0.095012151  
   7810000   0.071688756   -0.15797287     0             -0.10118193    -0.048835058  
   7820000   0.063605734   -0.15583897     0             -0.1054513     -0.073194486  
   7830000   0.065028759   -0.16110274     0             -0.10958777    -0.036931827  
   7840000   0.068429786   -0.1505876      0             -0.09637838    -0.032322236  
   7850000   0.06221441    -0.15027977     0             -0.10099429    -0.0057817668 
   7860000   0.066858264   -0.14774064     0             -0.094776362    0.00065898892
   7870000   0.073012089   -0.14722814     0             -0.08938888    -0.0086677229 
   7880000   0.072838828   -0.15845129     0             -0.10074928     0.0057321807 
   7890000   0.075710979   -0.16387205     0             -0.10389476     0.0077097974 
   7900000   0.067497567   -0.14405662     0             -0.090585889   -0.023654471  
   7910000   0.068688189   -0.15465463     0             -0.1002407     -0.14274593   
   7920000   0.076256954   -0.15843101     0             -0.098021207   -0.13568539   
   7930000   0.074714453   -0.14188458     0             -0.082696725   -0.049277924  
   7940000   0.072284992   -0.14207345     0             -0.084810179    0.035417419  
   7950000   0.068928212   -0.15675338     0             -0.10214932     0.013765743  
   7960000   0.069983967   -0.15078978     0             -0.095349359    0.03119202   
   7970000   0.073452269   -0.13915305     0             -0.080965085   -0.049893397  
   7980000   0.076986589   -0.13937197     0             -0.078384156    0.043046228  
   7990000   0.073835761   -0.15265983     0             -0.09416806    -0.019401682  
   8000000   0.074950235   -0.15056559     0             -0.091190952   -0.036209485  
   8010000   0.075174137   -0.14605304     0             -0.086501026    0.087284928  
   8020000   0.071282582   -0.15169059     0             -0.095221418   -0.081910953  
   8030000   0.072619252   -0.16044475     0             -0.10291669    -0.0094666072 
   8040000   0.075534081   -0.15159885     0             -0.091761698    0.0039150666 
   8050000   0.072618824   -0.17379903     0             -0.11627131    -0.10112934   
   8060000   0.071865047   -0.15030242     0             -0.093371832   -0.06864005   
   8070000   0.074497254   -0.15634154     0             -0.097325746   -0.062821169  
   8080000   0.069992641   -0.15923063     0             -0.10378333     0.088799092  
   8090000   0.075960277   -0.16041714     0             -0.10024236    -0.070731996  
   8100000   0.069872049   -0.15467113     0             -0.099319362   -0.011680277  
   8110000   0.071801261   -0.14856947     0             -0.091689407    0.014130726  
   8120000   0.073316699   -0.15071471     0             -0.092634138   -0.05466485   
   8130000   0.071054916   -0.16140529     0             -0.10511647    -0.075951713  
   8140000   0.07650745    -0.14279994     0             -0.082191695   -0.062148187  
   8150000   0.073774614   -0.14434209     0             -0.085898759    0.019483519  
   8160000   0.072156346   -0.13912982     0             -0.081968467    0.0083253173 
[...]
  57880000   0.063883512   -0.15255956     0             -0.10195184    -0.046043426  
  57890000   0.066948544   -0.13967681     0             -0.086641013    0.053954097  
  57900000   0.07155532    -0.14768393     0             -0.090998696   -0.045425816  
  57910000   0.075385352   -0.14314174     0             -0.083422405    0.047501195  
  57920000   0.069012142   -0.15379244     0             -0.099121884   -0.009753389  
  57930000   0.066912974   -0.14842174     0             -0.095414119   -0.069803781  
  57940000   0.059933964   -0.1570048      0             -0.10952586    -0.0094231212 
  57950000   0.07107886    -0.14562851     0             -0.089320724   -0.072503195  
  57960000   0.078631506   -0.15184631     0             -0.089555415   -0.01120253   
  57970000   0.071780725   -0.16269907     0             -0.10583528    -0.03056249   
  57980000   0.075186751   -0.13888913     0             -0.079327121   -0.013838009  
  57990000   0.071415814   -0.13613161     0             -0.079556895   -0.020794014  
  58000000   0.065407611   -0.15198076     0             -0.10016567    -0.042407633  
  58010000   0.062991948   -0.1354174      0             -0.085515964   -0.047606457  
  58020000   0.068816658   -0.15190781     0             -0.097392115    0.015904195  
  58030000   0.070435954   -0.15275241     0             -0.096953931   -0.10205456   
  58040000   0.076927267   -0.15481326     0             -0.093872439   -0.057658324  
  58050000   0.068922652   -0.15887962     0             -0.10427995    -0.0071289769 
  58060000   0.0649655     -0.14513662     0             -0.093671763    0.042413267  
  58070000   0.065964837   -0.1502679      0             -0.098011377    0.0025307581 
  58080000   0.06655359    -0.16615487     0             -0.11343195     0.018779211  
  58090000   0.058550863   -0.15724203     0             -0.11085877    -0.047895705  
  58100000   0.061572715   -0.16460471     0             -0.11582757     0.0026812574 
  58110000   0.081930646   -0.16732433     0             -0.1024199     -0.049298753  
  58120000   0.069501018   -0.15233499     0             -0.097277157   -0.01127764   
  58130000   0.070958471   -0.14663509     0             -0.090422675    0.027328062  
  58140000   0.075783969   -0.13115006     0             -0.071114947   -0.042978545  
  58150000   0.070288091   -0.1380098      0             -0.082328448   -0.010400709  
  58160000   0.071637021   -0.13929821     0             -0.082548255    0.0046906056 
  58170000   0.071838846   -0.13429013     0             -0.077380298    0.012824417  
  58180000   0.065879957   -0.13391477     0             -0.081725489    0.015173952  
  58190000   0.065707365   -0.15265962     0             -0.10060707    -0.063052729  
  58200000   0.072607634   -0.14904517     0             -0.091526306   -4.7250277e-06
  58210000   0.069969085   -0.12812041     0             -0.072691773   -0.019808935  
  58220000   0.074479868   -0.16389512     0             -0.10489309     0.082759573  
  58230000   0.079642743   -0.16289439     0             -0.099802404    0.039922973  
  58240000   0.070232572   -0.16758421     0             -0.11194685     0.044566712  
  58250000   0.068647852   -0.15018048     0             -0.095798506   -0.075546807  
  58260000   0.064963732   -0.13405666     0             -0.082593206   -0.042464613  
  58270000   0.066261294   -0.14937365     0             -0.096882276   -0.030475681  
  58280000   0.071920317   -0.14193176     0             -0.084957381    0.055607344  
  58290000   0.069601658   -0.15469827     0             -0.099560709   -0.015627938  
  58300000   0.065919802   -0.17028177     0             -0.11806093    -0.1329502    
  58310000   0.06660629    -0.16461125     0             -0.11184658     0.04223181   
  58320000   0.066847464   -0.15570035     0             -0.10274463     0.03796908   
  58330000   0.069821191   -0.14336041     0             -0.088048933   -0.050274295  
  58340000   0.063864126   -0.15151254     0             -0.10092018    -0.018491334  
  58350000   0.061732285   -0.14545638     0             -0.096552834    0.0032599984 
  58360000   0.071770865   -0.15109913     0             -0.094243145   -0.078134457  
  58370000   0.0743087     -0.13351984     0             -0.074653414   -0.028220419  
  58380000   0.074675003   -0.12206097     0             -0.062904363    0.025897973  
  58390000   0.068616248   -0.14310876     0             -0.088751831   -0.051638371  
  58400000   0.073601342   -0.13800337     0             -0.079697303   -0.020264203  
  58410000   0.072128007   -0.13185772     0             -0.074718815    0.049148408  
  58420000   0.071762149   -0.14541537     0             -0.088566297    0.029938781  
  58430000   0.068576166   -0.14132873     0             -0.087003553   -0.064737745  
  58440000   0.076962152   -0.16479148     0             -0.10382302     0.035962737  
  58450000   0.074108114   -0.15321136     0             -0.09450384    -0.040829985  
  58460000   0.072252385   -0.17388478     0             -0.11664734    -0.07785962   
  58470000   0.070032785   -0.15793718     0             -0.10245809    -0.03222814   
  58480000   0.071735525   -0.14601209     0             -0.089184105   -0.048204871  
  58490000   0.077513155   -0.15259049     0             -0.091185535   -0.1033561    
  58500000   0.076823185   -0.14198517     0             -0.081126801    0.065298256  
  58510000   0.068561215   -0.14256413     0             -0.088250793    0.033926245  
  58520000   0.08211985    -0.15454767     0             -0.089493352   -0.075493879  
  58530000   0.069049551   -0.16405707     0             -0.10935688    -0.052375108  
  58540000   0.07023941    -0.14779955     0             -0.092156765   -0.00024238362
  58550000   0.07996109    -0.14580687     0             -0.082462694    0.00036680874
  58560000   0.065390796   -0.14938833     0             -0.097586562   -0.090095052  
  58570000   0.07425045    -0.14593192     0             -0.087111644   -0.022893183  
  58580000   0.070169251   -0.16500384     0             -0.10941664     0.077184953  
  58590000   0.083657878   -0.14539625     0             -0.07912352    -0.039318039  
  58600000   0.074472712   -0.13806426     0             -0.079067912   -0.025676255  
  58610000   0.069053713   -0.14213287     0             -0.087429382   -0.079201741  
  58620000   0.077175941   -0.14990031     0             -0.088762499   -0.002266801  
  58630000   0.078553188   -0.15041241     0             -0.088183556   -0.014939318  
  58640000   0.066471562   -0.13998043     0             -0.087322491   -0.050292106  
  58650000   0.072842994   -0.13409291     0             -0.076387598   -0.00062952553
  58660000   0.080485802   -0.1286892      0             -0.064929351   -0.028187289  
  58670000   0.071343008   -0.15798599     0             -0.10146895     0.0062065342 
  58680000   0.066490422   -0.14500633     0             -0.092333453    0.023374047  
  58690000   0.068787084   -0.13553274     0             -0.081040472   -0.0081784453 
  58700000   0.083556457   -0.15300936     0             -0.086816979    0.021933094  
  58710000   0.075869135   -0.14470516     0             -0.08460258    -0.040836781  
  58720000   0.071871905   -0.15285395     0             -0.09591793    -0.11325578   
  58730000   0.075917699   -0.158601       0             -0.098459948    0.0050990164 
  58740000   0.07065018    -0.14664596     0             -0.090677769   -0.0011327953 
  58750000   0.072424046   -0.14644799     0             -0.089074563   -0.0061932148 
  58760000   0.074114357   -0.14765824     0             -0.08894577    -0.029540162  
  58770000   0.080185322   -0.13094744     0             -0.067425634   -0.10228845   
  58780000   0.078090164   -0.12935192     0             -0.067489867   -0.06783691   
  58790000   0.073288646   -0.14119627     0             -0.083137919   -0.057582811  
  58800000   0.066906973   -0.16909278     0             -0.11608992    -0.0042605045 
  58810000   0.071143984   -0.1554317      0             -0.099072322   -0.018289908  
  58820000   0.064782824   -0.15476661     0             -0.10344646     0.019015683  
  58830000   0.070641762   -0.16203638     0             -0.10607486     0.047580304  
  58840000   0.070865493   -0.15018614     0             -0.094047384    0.055217883  
  58850000   0.070515654   -0.13145912     0             -0.075597496    0.0045189878 
  58860000   0.068792933   -0.14052491     0             -0.08602801    -0.017910395  
  58870000   0.06633754    -0.13255811     0             -0.08000634    -0.026975469  
  58880000   0.076033272   -0.12877376     0             -0.068541149    0.11324541   
  58890000   0.069586557   -0.1509953      0             -0.095869699   -0.033113482  
  58900000   0.083412581   -0.1386189      0             -0.0725405     -0.052905171  
  58910000   0.071413418   -0.14632637     0             -0.089753551    0.031116699  
  58920000   0.073601857   -0.13815207     0             -0.079845597    0.026948491  
  58930000   0.067593858   -0.14258164     0             -0.089034629   -0.099524162  
  58940000   0.069504805   -0.14264795     0             -0.087587109    0.040139319  
  58950000   0.063670277   -0.16264632     0             -0.11220753    -0.00054972702
  58960000   0.071255613   -0.15131777     0             -0.094869961   -0.0065394389 
  58970000   0.063549956   -0.15176641     0             -0.10142293    -0.021139117  
  58980000   0.078106618   -0.16015323     0             -0.098278145   -0.092041184  
  58990000   0.079936108   -0.17022429     0             -0.10689991    -0.033479049  
  59000000   0.073365876   -0.14657006     0             -0.088450528   -0.024720305  
  59010000   0.075195439   -0.14343888     0             -0.083869996   -0.037729204  
  59020000   0.067505741   -0.14530078     0             -0.091823578    0.043128721  
  59030000   0.06888333    -0.14152299     0             -0.086954478   -0.0026537233 
  59040000   0.067736673   -0.14408242     0             -0.090422275    0.025836083  
  59050000   0.075140313   -0.1478037      0             -0.088278481   -0.049971686  
  59060000   0.071634105   -0.17702884     0             -0.1202812     -0.081198746  
  59070000   0.069945885   -0.17548105     0             -0.12007079    -0.14990572   
  59080000   0.08462262    -0.14608712     0             -0.079050137    0.016901866  
  59090000   0.071929884   -0.14575459     0             -0.08877264    -0.037769913  
  59100000   0.071304582   -0.14998862     0             -0.09350202    -0.11061766   
  59110000   0.061590548   -0.12770812     0             -0.078916862   -0.046601407  
  59120000   0.07496054    -0.1437656      0             -0.084382801   -0.0034280322 
  59130000   0.073615653   -0.13677011     0             -0.078452706    0.03981805   
  59140000   0.070338392   -0.13663443     0             -0.080913236   -0.0090910207 
  59150000   0.082468439   -0.13324706     0             -0.067916598    0.068758815  
  59160000   0.07153597    -0.13689616     0             -0.080226256   -0.034995807  
  59170000   0.069929694   -0.14240319     0             -0.08700576    -0.039223509  
  59180000   0.076916696   -0.14527545     0             -0.084343       0.071190305  
  59190000   0.070521911   -0.13846253     0             -0.08259595     0.07265731   
  59200000   0.064347556   -0.14754996     0             -0.096574627   -0.047717286  
  59210000   0.06939022    -0.13657239     0             -0.081602328   -0.0081779004 
  59220000   0.068027717   -0.13821199     0             -0.084321282   -0.071489597  
  59230000   0.075323107   -0.15137773     0             -0.091707709    0.031984519  
  59240000   0.069341762   -0.15716786     0             -0.10223618    -0.081539425  
  59250000   0.074376768   -0.14295551     0             -0.084035165    0.078540269  
  59260000   0.078741355   -0.16234288     0             -0.099964958   -0.045230145  
  59270000   0.056589215   -0.14551006     0             -0.10068079    -0.015129669  
  59280000   0.079688864   -0.14672992     0             -0.083601396    0.040342437  
  59290000   0.077425018   -0.13135253     0             -0.070017401    0.023197793  
  59300000   0.07613165    -0.13497138     0             -0.07466084     0.02107094   
  59310000   0.07608642    -0.129553       0             -0.069278292    0.013898632  
  59320000   0.067627115   -0.14275387     0             -0.089180514   -0.0016174808 
  59330000   0.068735974   -0.14807679     0             -0.093625014   -0.044795093  
  59340000   0.064646794   -0.13385984     0             -0.082647453   -0.011321865  
  59350000   0.069878096   -0.14390183     0             -0.088545275   -0.038625764  
  59360000   0.074660997   -0.12950084     0             -0.070355333   -0.052852129  
  59370000   0.072348636   -0.13811283     0             -0.080799141    0.010908574  
  59380000   0.066422576   -0.13932247     0             -0.086703337   -0.13858506   
  59390000   0.069294123   -0.15026362     0             -0.095369684    0.013476191  
  59400000   0.074246251   -0.15290002     0             -0.094083065   -0.013158734  
  59410000   0.071414699   -0.15192091     0             -0.095347074   -0.090284578  
  59420000   0.065774962   -0.15334278     0             -0.10123668    -0.043326221  
  59430000   0.068543767   -0.15164548     0             -0.097345964   -0.054301534  
  59440000   0.064626204   -0.16499159     0             -0.11379552    -0.1233578    
  59450000   0.073720056   -0.14421025     0             -0.085810144   -0.098384726  
  59460000   0.070505277   -0.13754489     0             -0.081691488   -0.028923661  
  59470000   0.075141071   -0.14793251     0             -0.088406696    0.040570591  
  59480000   0.069609939   -0.13843622     0             -0.083292098   -0.059405354  
  59490000   0.062628098   -0.15059166     0             -0.10097846     0.00092436865
  59500000   0.075626266   -0.13619133     0             -0.076281151   -0.14599268   
  59510000   0.064581696   -0.12884133     0             -0.077680521    0.019923951  
  59520000   0.074226059   -0.12861378     0             -0.069812827    0.0045837526 
  59530000   0.066928537   -0.13717786     0             -0.084157911   -0.021648664  
  59540000   0.073662491   -0.13839247     0             -0.080037965    0.017775744  
  59550000   0.065519583   -0.13676541     0             -0.084861619    0.015994445  
  59560000   0.076911669   -0.1506206      0             -0.089692133    0.026654895  
  59570000   0.073605871   -0.13401941     0             -0.07570976     0.051070524  
  59580000   0.079334331   -0.15114976     0             -0.088302095    0.0084530399 
  59590000   0.066570146   -0.14763231     0             -0.094896271    0.051918987  
  59600000   0.079938132   -0.14114994     0             -0.077823951   -0.012216716  
  59610000   0.074186463   -0.14690289     0             -0.088133302    0.013199298  
  59620000   0.069097392   -0.14033594     0             -0.085597849    0.0071701235 
  59630000   0.075267628   -0.15003885     0             -0.090412775   -0.028449157  
  59640000   0.070270432   -0.14210531     0             -0.086437951    0.018549079  
  59650000   0.068287481   -0.12968902     0             -0.075592531   -0.0054990874 
  59660000   0.072580834   -0.1199673      0             -0.062469673    0.04629144   
  59670000   0.075510495   -0.14574018     0             -0.08592171    -0.016532178  
  59680000   0.071926653   -0.12101649     0             -0.064037094   -0.057302285  
  59690000   0.069048778   -0.13282562     0             -0.07812604     0.028211699  
  59700000   0.077020968   -0.12541649     0             -0.064401444   -0.078331131  
  59710000   0.066664263   -0.14072306     0             -0.087912469    0.0085840371 
  59720000   0.080369332   -0.15176429     0             -0.08809671    -0.00093924228
  59730000   0.071139079   -0.1512563      0             -0.094900808   -0.042533863  
  59740000   0.07676669    -0.14767613     0             -0.08686252    -0.050289025  
  59750000   0.076615476   -0.13492131     0             -0.074227482   -0.018894434  
  59760000   0.073014535   -0.13044584     0             -0.072604635   -0.03186333   
  59770000   0.067770625   -0.13351928     0             -0.079832241   -0.058133259  
  59780000   0.0739747     -0.12924093     0             -0.070639096    0.071766101  
  59790000   0.073713144   -0.12577364     0             -0.067379012    0.05011404   
  59800000   0.072732232   -0.15917289     0             -0.10155533     0.023736424  
  59810000   0.061515415   -0.15689245     0             -0.10816071    -0.062317567  
  59820000   0.06422604    -0.15775149     0             -0.10687243    -0.07552522   
  59830000   0.072068703   -0.14009444     0             -0.083002517    0.015262272  
  59840000   0.063308926   -0.15383708     0             -0.10368454    -0.070216158  
  59850000   0.076369088   -0.14039877     0             -0.07990013     0.045915804  
  59860000   0.072349019   -0.17459935     0             -0.11728536    -0.13824051   
  59870000   0.065199022   -0.16484867     0             -0.11319882    -0.080291844  
  59880000   0.077709091   -0.15475697     0             -0.093196802   -0.036533893  
  59890000   0.072129979   -0.15389562     0             -0.096755154   -0.049073322  
  59900000   0.064764144   -0.1465331      0             -0.095227755   -0.014314175  
  59910000   0.075991152   -0.15047769     0             -0.09027845     0.032170674  
  59920000   0.075679406   -0.16031327     0             -0.10036099    -0.067664341  
  59930000   0.069674785   -0.15879906     0             -0.10360357    -0.064997633  
  59940000   0.063720306   -0.17155632     0             -0.12107789    -0.035755783  
  59950000   0.072367468   -0.16670254     0             -0.10937394    -0.040262385  
  59960000   0.076075909   -0.17059183     0             -0.11032545    -0.070312349  
  59970000   0.072431165   -0.15361256     0             -0.096233497   -0.012301084  
  59980000   0.068114624   -0.17039601     0             -0.11643646    -0.02213649   
  59990000   0.078009486   -0.16565788     0             -0.10385974    -0.080514252  
  60000000   0.067695749   -0.15737281     0             -0.10374509    -0.049022733  
Loop time of 7135.04 on 2 procs for 60000000 steps with 320 atoms

Performance: 3632773.559 tau/day, 8409.198 timesteps/s, 2.691 Matom-step/s
91.1% CPU use with 2 MPI tasks x 1 OpenMP threads

MPI task timing breakdown:
Section |  min time  |  avg time  |  max time  |%varavg| %total
---------------------------------------------------------------
Pair    | 2362.9     | 2407.5     | 2452       |  90.8 | 33.74
Bond    | 2.3272     | 2.4708     | 2.6143     |   9.1 |  0.03
Neigh   | 91.998     | 92.003     | 92.008     |   0.1 |  1.29
Comm    | 1489.5     | 1532.5     | 1575.5     | 109.9 | 21.48
Output  | 0.84833    | 0.85859    | 0.86886    |   1.1 |  0.01
Modify  | 3043.1     | 3044.2     | 3045.3     |   2.0 | 42.67
Other   |            | 55.54      |            |       |  0.78

Nlocal:            160 ave         235 max          85 min
Histogram: 1 0 0 0 0 0 0 0 0 1
Nghost:            716 ave         843 max         589 min
Histogram: 1 0 0 0 0 0 0 0 0 1
Neighs:              0 ave           0 max           0 min
Histogram: 2 0 0 0 0 0 0 0 0 0
FullNghs:         5265 ave        7733 max        2797 min
Histogram: 1 0 0 0 0 0 0 0 0 1

Total # of neighbors = 10530
Ave neighs/atom = 32.90625
Ave special neighs/atom = 2.3125
Neighbor list builds = 140363
Dangerous builds = 0

#delete_atoms group Patches compress yes bond yes
#create_bonds many CL MO 1 0.0 1.56
#reset_atoms id
#resete_atoms mol all
#write_data data.test
Total wall time: 1:58:55
