LAMMPS (27 Jun 2024)
  using 2 OpenMP thread(s) per MPI task
package omp 0
using multi-threaded neighbor list subroutines
# Script to create a Polymer using Patchy Particles (PP)
# It saves the last position of the particles with a cluster ID
# Types of Particles:
#   Cross linker:   PPA
#   Monomer:        PPB

# Parallel configuration with pacakge OPENMP
# RUN: env OMP_NUM_THREADS=Nthreads mpirun -np NProcs lmp -sf omp -in

# Initialization
units lj
dimension 3
boundary p p p

# Styles of atoms and that stuff
atom_style bond
bond_style zero nocoeff
#pair_style hybrid/overlay lj/cut 1.12 sw threebody off
pair_style hybrid/overlay/omp lj/cut/omp 1.12 sw/omp threebody off
newton on

# Varaibles
variable L equal 5
variable NCL equal 10
variable NMO equal 90
variable seed1 equal 1234
variable seed2 equal 4321
variable seed3 equal 3124
variable steps equal 60000000
variable tstep equal 0.005
variable sstep equal 10000

# Create simulaiton box
region simulation_box block -$L $L -$L $L -$L $L
region simulation_box block -5 $L -$L $L -$L $L
region simulation_box block -5 5 -$L $L -$L $L
region simulation_box block -5 5 -5 $L -$L $L
region simulation_box block -5 5 -5 5 -$L $L
region simulation_box block -5 5 -5 5 -5 $L
region simulation_box block -5 5 -5 5 -5 5
# N-atom-types region-ID keyword value Is necesesary the extra/special/per/atom (# of special neighbors per atom)
create_box 4 simulation_box     bond/types 1     extra/bond/per/atom 4     extra/special/per/atom 5
Created orthogonal box = (-5 -5 -5) to (5 5 5)
  1 by 1 by 3 MPI processor grid

# Atom types
mass 1 1.0      # CL
mass 2 1.0      # MO
mass 3 0.5      # PA
mass 4 0.5      # PB

# Coefficients
bond_coeff * nocoeff
pair_coeff 1 1 lj/cut/omp 1.0 1.0 1.12 # i-type j-type pair-style eps sigma cutoff
pair_coeff 2 2 lj/cut/omp 1.0 1.0 1.12 # i-type j-type pair-style eps sigma cutoff
pair_coeff 1 2 lj/cut/omp 1.0 1.0 1.12 # i-type j-type pair-style eps sigma cutoff
pair_coeff 1 3 none
pair_coeff 1 4 none
pair_coeff 2 3 none
pair_coeff 2 4 none
pair_coeff 3 4 sw/omp patchyPot.ws NULL NULL PA PB # i-type j-type pair-style
  disabling sw potential three-body terms
pair_coeff 3 3 sw/omp patchyPot.ws NULL NULL PA PA
pair_coeff 4 4 sw/omp patchyPot.ws NULL NULL PB PB # i-type j-type eps sigma cutoff wca

pair_modify shift yes

# Molecules
molecule CL molecule.patchy.CL
Read molecule template CL:
# Patchy Cross-Linker
  1 molecules
  0 fragments
  5 atoms with max type 3
  4 bonds with max type 1
  0 angles with max type 0
  0 dihedrals with max type 0
  0 impropers with max type 0
molecule MO molecule.patchy.MO
Read molecule template MO:
# Patchy Monomer
  1 molecules
  0 fragments
  3 atoms with max type 4
  2 bonds with max type 1
  0 angles with max type 0
  0 dihedrals with max type 0
  0 impropers with max type 0

# Introduce the molecules
# ID style args keyword arg
region spawn_box block -$L $L -$L $L -$L $L
region spawn_box block -5 $L -$L $L -$L $L
region spawn_box block -5 5 -$L $L -$L $L
region spawn_box block -5 5 -5 $L -$L $L
region spawn_box block -5 5 -5 5 -$L $L
region spawn_box block -5 5 -5 5 -5 $L
region spawn_box block -5 5 -5 5 -5 5

# create_atoms type style args keyword values
# style_random: N seed region-ID
# keyword_mol: template-ID seed
# keyword_overlap: overlap value = only insert if at least this distance from all existing atoms
# keyword_maxtry: maxtry value = number of attempts to insert a particle before failure
create_atoms 0 random ${NCL} ${seed1} spawn_box mol CL ${seed1} overlap 0.5 maxtry 5000 #xls
create_atoms 0 random 10 ${seed1} spawn_box mol CL ${seed1} overlap 0.5 maxtry 5000 
create_atoms 0 random 10 1234 spawn_box mol CL ${seed1} overlap 0.5 maxtry 5000 
create_atoms 0 random 10 1234 spawn_box mol CL 1234 overlap 0.5 maxtry 5000 
Created 50 atoms
  using lattice units in orthogonal box = (-5 -5 -5) to (5 5 5)
  create_atoms CPU = 0.001 seconds
create_atoms 0 random ${NMO} ${seed2} spawn_box mol MO ${seed2} overlap 0.5 maxtry 5000 #mon
create_atoms 0 random 90 ${seed2} spawn_box mol MO ${seed2} overlap 0.5 maxtry 5000 
create_atoms 0 random 90 4321 spawn_box mol MO ${seed2} overlap 0.5 maxtry 5000 
create_atoms 0 random 90 4321 spawn_box mol MO 4321 overlap 0.5 maxtry 5000 
Created 270 atoms
  using lattice units in orthogonal box = (-5 -5 -5) to (5 5 5)
  create_atoms CPU = 0.000 seconds

# Create patchy particles
group CrossLinker type 1 3
50 atoms in group CrossLinker
group Monomer type 2 4
270 atoms in group Monomer
group Patches type 3 4
220 atoms in group Patches
group CL type 1
10 atoms in group CL
group MO type 2
90 atoms in group MO
fix pCL CrossLinker rigid/small/omp molecule #langevin 1.0 1.0 100.0 ${seed3}
  create bodies CPU = 0.000 seconds
  10 rigid bodies with 50 atoms
  0.31 = max distance from body owner to body atom
fix pMO Monomer rigid/small/omp molecule #langevin 1.0 1.0 100.0 ${seed3}
  create bodies CPU = 0.000 seconds
  90 rigid bodies with 270 atoms
  0.33 = max distance from body owner to body atom

# Neighbor list
neighbor 1.8 bin # extra-distance style
neigh_modify exclude molecule/intra CrossLinker
neigh_modify exclude molecule/intra Monomer

fix langevinFix all langevin 0.05 0.05 0.5 12345 # ID group-ID langevin Tstart Tstop damp seed

thermo ${sstep}
thermo 10000

# COMPUTES

# Compute global kinetic and potential energy and temperature
compute t all temp
compute ep all pe
compute ek all ke

# Compute Cluster sizes
# compute ID group-ID cluster/atom cutoff
# compute ID group-ID chunk/atom style args keyword value
# compute ID group-ID property/chunk chunkID input1 input2
compute cluster all aggregate/atom 0.625
compute cc1 all chunk/atom c_cluster compress yes pbc yes
compute size all property/chunk cc1 count

# DUMPS and FIXES

# Save atom positions
dump dumpID all atom ${sstep} info/patchyParticles_assembly.dumpf
dump dumpID all atom 10000 info/patchyParticles_assembly.dumpf
dump_modify dumpID pbc yes # remap atoms via periodic boundary conditions
#dump dumpCID all custom 1 info/patchyParticlesCluster_assembly.dumpf id type mol xs ys zs c_cluster
#dump_modify dumpCID pbc yes # remap atoms via periodic boundary conditions

# Write dump file of the last configuration
dump dumpNew all custom ${steps} newdata_assembly.dumpf id type mol x y z c_cluster
dump dumpNew all custom 60000000 newdata_assembly.dumpf id type mol x y z c_cluster
dump_modify dumpNew delay ${steps}
dump_modify dumpNew delay 60000000

# Save global energies and temperature
group Energy empty
0 atoms in group Energy
fix fixEng Energy ave/time 1 1 10 c_t c_ep c_ek file info/energy_assembly.fixf

# Save the cluster sizes
#fix ID group-ID style Nevery Nrepeat Nfreq lo hi Nbin value1 value2
fix 1 all ave/time 1 1 ${sstep} c_size file info/sizeCluster_assembly.fixf mode vector
fix 1 all ave/time 1 1 10000 c_size file info/sizeCluster_assembly.fixf mode vector

# RUN SIMULATION

timestep ${tstep}
timestep 0.005
run ${steps}
run 60000000
Generated 0 of 6 mixed pair_coeff terms from geometric mixing rule
Hybrid pair style last /omp style sw/omp
Last active /omp style is pair_style sw/omp
WARNING: More than one fix rigid command (src/RIGID/fix_rigid_small.cpp:529)
WARNING: More than one fix rigid command (src/RIGID/fix_rigid_small.cpp:529)
Neighbor list info ...
  update: every = 1 steps, delay = 0 steps, check = yes
  max neighbors/atom: 2000, page size: 100000
  master list distance cutoff = 2.92
  ghost atom cutoff = 2.92
  binsize = 1.46, bins = 7 7 7
  4 neighbor lists, perpetual/occasional/extra = 3 1 0
  (1) pair lj/cut/omp, perpetual, skip from (4)
      attributes: half, newton on, omp
      pair build: skip/omp
      stencil: none
      bin: none
  (2) pair sw/omp, perpetual, skip from (4)
      attributes: half, newton on, omp, cut 2.55
      pair build: skip/omp
      stencil: none
      bin: none
  (3) compute aggregate/atom, occasional
      attributes: full, newton on, omp
      pair build: full/bin/omp
      stencil: full/bin/3d
      bin: standard
  (4) neighbor class addition, perpetual
      attributes: half, newton on, omp
      pair build: half/bin/newton/omp
      stencil: half/bin/3d
      bin: standard
Per MPI rank memory allocation (min/avg/max) = 20.1 | 20.11 | 20.12 Mbytes
   Step          Temp          E_pair         E_mol          TotEng         Press     
         0   0              2.7545242      0              2.7545242      23.843487    
     10000   0.049998343   -0.058191588    0             -0.018583526    0.0019423481 
     20000   0.050901414   -0.084906091    0             -0.044582627   -0.011049324  
     30000   0.052766061   -0.10188926     0             -0.060088647   -0.00065151664
     40000   0.05431147    -0.099554963    0             -0.056530095    0.0027645803 
     50000   0.054441299   -0.11137602     0             -0.068248299    0.0071510377 
     60000   0.054352369   -0.11440579     0             -0.071348527   -0.0056680347 
     70000   0.044950368   -0.1207708      0             -0.085161684    0.028121138  
     80000   0.056110471   -0.12731361     0             -0.0828636      0.00773527   
     90000   0.056062296   -0.12068191     0             -0.076270058   -0.0085732844 
    100000   0.050606045   -0.12565195     0             -0.085562471   -0.013342823  
    110000   0.050182764   -0.12282918     0             -0.083075026    0.0044393925 
    120000   0.047668096   -0.11915562     0             -0.081393552    0.0026246709 
    130000   0.04953848    -0.12461621     0             -0.085372449   -0.011838715  
    140000   0.05364447    -0.12964263     0             -0.087146152    0.019715193  
    150000   0.052116001   -0.13109367     0             -0.089808023    0.018630599  
    160000   0.047417292   -0.12784555     0             -0.090282161   -0.029211893  
    170000   0.047116256   -0.13314911     0             -0.095824198    0.0065695442 
    180000   0.052229517   -0.13460006     0             -0.093224489   -0.010535499  
    190000   0.049473369   -0.13410325     0             -0.094911065   -0.0077617583 
    200000   0.05164902    -0.13104902     0             -0.090133313    0.0082670963 
    210000   0.047017864   -0.12568346     0             -0.088436493    0.0042936117 
    220000   0.04891608    -0.12858769     0             -0.089836984    0.0017237191 
    230000   0.047414001   -0.12028675     0             -0.082725969    0.0034394145 
    240000   0.04827794    -0.12765778     0             -0.089412603   -0.0052212277 
    250000   0.049219606   -0.12901382     0             -0.090022662    0.026812712  
    260000   0.05509587    -0.12037485     0             -0.076728593   -0.0084224477 
    270000   0.048597158   -0.12442216     0             -0.085924101   -0.016190382  
    280000   0.052027046   -0.12839189     0             -0.087176711   -0.014159639  
    290000   0.049236194   -0.13101285     0             -0.092008549    0.0024104719 
    300000   0.049826904   -0.13190859     0             -0.092436342   -0.020886151  
    310000   0.051937361   -0.12004451     0             -0.07890038    -0.001026355  
    320000   0.054207026   -0.12183216     0             -0.078890029   -0.0074650193 
    330000   0.049187776   -0.11448931     0             -0.075523364    0.014824058  
    340000   0.045383914   -0.12048723     0             -0.084534659    0.030848282  
    350000   0.048542084   -0.12427942     0             -0.085824983   -0.00032124939
    360000   0.052463946   -0.12108277     0             -0.079521489    0.0025502057 
    370000   0.053105253   -0.12195963     0             -0.079890307    0.0018250886 
    380000   0.049030082   -0.12877891     0             -0.089937896   -0.00049501002
    390000   0.045342111   -0.11536218     0             -0.079442723   -0.005027564  
    400000   0.046103922   -0.11462664     0             -0.078103692    0.028516461  
    410000   0.049700263   -0.12451748     0             -0.085145551   -0.020822573  
    420000   0.048788772   -0.12676106     0             -0.088111203   -0.016271593  
    430000   0.051491539   -0.12854488     0             -0.087753929   -0.011335581  
    440000   0.052030137   -0.13419758     0             -0.092979954   -0.0040821452 
    450000   0.049559229   -0.13607732     0             -0.096817118   -0.0087384753 
    460000   0.045964977   -0.13452657     0             -0.098113691   -0.0013064303 
    470000   0.050377916   -0.13689208     0             -0.096983322   -0.0057752589 
    480000   0.049377102   -0.13666629     0             -0.097550362    0.0056972531 
    490000   0.050183077   -0.13965119     0             -0.099896788   -0.0058863056 
    500000   0.057193314   -0.13623489     0             -0.090927057   -0.024681051  
    510000   0.050124873   -0.13956711     0             -0.099858815   -0.015771959  
    520000   0.052839084   -0.1376021      0             -0.095743643   -0.026310253  
    530000   0.050329704   -0.14235262     0             -0.10248206     0.028507708  
    540000   0.052939325   -0.14682036     0             -0.10488249     0.003846816  
    550000   0.050671275   -0.13938234     0             -0.099241185    0.0022183779 
    560000   0.050519448   -0.13886575     0             -0.098844873   -0.0049678736 
    570000   0.04961711    -0.1473908      0             -0.10808474     0.012889878  
    580000   0.049989685   -0.14471961     0             -0.10511841    -0.010522261  
    590000   0.053214055   -0.14926366     0             -0.10710815    -0.0087094129 
    600000   0.055184468   -0.15072561     0             -0.10700916    -0.012770898  
    610000   0.048330114   -0.15594149     0             -0.11765498    -0.0031825225 
    620000   0.046617942   -0.15125773     0             -0.11432758    -0.011219508  
    630000   0.046651525   -0.14463245     0             -0.10767569     0.016619628  
    640000   0.051698828   -0.14613605     0             -0.10518089     0.024915821  
    650000   0.046164319   -0.13586928     0             -0.099298479   -0.016144192  
    660000   0.049663536   -0.13508213     0             -0.095739296    0.01571445   
    670000   0.049200409   -0.14201963     0             -0.10304368    -0.0043263175 
    680000   0.048646527   -0.13358513     0             -0.09504796     0.0039059539 
    690000   0.046637867   -0.13510151     0             -0.098155575    0.022308362  
    700000   0.052951696   -0.13961663     0             -0.097668961   -0.00099545124
    710000   0.050645693   -0.14992459     0             -0.1098037     -0.0040768594 
    720000   0.051653988   -0.14856289     0             -0.10764325    -0.0059537871 
    730000   0.04763137    -0.15600543     0             -0.11827246    -0.0066030972 
    740000   0.053540785   -0.15000812     0             -0.10759378    -0.021371719  
    750000   0.054788622   -0.1481832      0             -0.10478034     0.010184951  
    760000   0.051382253   -0.1548299      0             -0.11412552     0.024052621  
    770000   0.054326724   -0.1579067      0             -0.11486975     0.012431647  
    780000   0.050630645   -0.16395442     0             -0.12384546    -0.01510992   
    790000   0.05355671    -0.16492969     0             -0.12250273     0.0046748369 
    800000   0.055597348   -0.16087355     0             -0.11683002    -0.0044391799 
    810000   0.055169791   -0.15561601     0             -0.1119112      0.0058837986 
    820000   0.051312      -0.16198347     0             -0.12133474    -0.012191772  
    830000   0.050897226   -0.16912507     0             -0.12880492    -0.0013168594 
    840000   0.049357918   -0.16723997     0             -0.12813924    -0.013793461  
    850000   0.047181414   -0.16242176     0             -0.12504523     0.004999225  
    860000   0.055548141   -0.16699374     0             -0.1229892      0.017444449  
    870000   0.055282751   -0.16951536     0             -0.12572106    -0.024224685  
    880000   0.051770584   -0.17050096     0             -0.12948895     0.017371947  
    890000   0.044079961   -0.17257501     0             -0.13765541    -0.021784541  
    900000   0.050677079   -0.16941656     0             -0.12927081    -0.0030254143 
    910000   0.050613273   -0.16366054     0             -0.12356534    -0.0041571916 
    920000   0.046959493   -0.16509249     0             -0.12789177    -0.0096795929 
    930000   0.046173096   -0.16680138     0             -0.13022364    -0.0078425661 
    940000   0.045744866   -0.16632798     0             -0.13008947     0.027781986  
    950000   0.051923742   -0.16895047     0             -0.12781713     0.016262819  
    960000   0.043302598   -0.16362319     0             -0.12931941     0.0054898642 
    970000   0.053676372   -0.16920354     0             -0.12668179    -0.012838184  
    980000   0.046004317   -0.17010307     0             -0.13365902     0.0026759702 
    990000   0.045401924   -0.16902462     0             -0.13305779     0.010035385  
   1000000   0.054719418   -0.17116054     0             -0.1278125     -0.02553224   
   1010000   0.0479132     -0.17679038     0             -0.13883414    -0.0080008982 
   1020000   0.048271876   -0.16880112     0             -0.13056074    -0.011598532  
   1030000   0.058173533   -0.16395537     0             -0.11787103    -0.027957025  
   1040000   0.048833034   -0.16234261     0             -0.12365769     0.0061667587 
   1050000   0.055578873   -0.16784282     0             -0.12381394     0.0075322581 
   1060000   0.051845169   -0.16602897     0             -0.12495788     0.01263138   
   1070000   0.056211992   -0.16985911     0             -0.12532867    -0.0037093507 
   1080000   0.051682157   -0.16462241     0             -0.12368045    -0.011081431  
   1090000   0.04192455    -0.16102214     0             -0.12781003     0.017152293  
   1100000   0.045356501   -0.16300656     0             -0.1270757      0.019031313  
   1110000   0.047940577   -0.17101688     0             -0.13303896     0.0071426943 
   1120000   0.045947137   -0.16148055     0             -0.1250818      0.00029920493
   1130000   0.05300797    -0.15988198     0             -0.11788973     0.011280102  
   1140000   0.052281871   -0.16588502     0             -0.12446798     0.0095775826 
   1150000   0.046190755   -0.16778834     0             -0.1311966      0.014535217  
   1160000   0.052700729   -0.17243778     0             -0.13068893     0.02089603   
   1170000   0.049171922   -0.15973014     0             -0.12077676     0.01447613   
   1180000   0.048059841   -0.16030159     0             -0.12222918     0.010437813  
   1190000   0.052451833   -0.16376812     0             -0.12221644     0.0034446759 
   1200000   0.055135298   -0.16590735     0             -0.12222986    -0.017756624  
   1210000   0.053946608   -0.168863       0             -0.12612717    -0.0035512127 
   1220000   0.047501717   -0.16329877     0             -0.1256685      0.0090186521 
   1230000   0.050953989   -0.1571092      0             -0.11674409     0.004923027  
   1240000   0.053235306   -0.16318501     0             -0.12101266    -0.006709491  
   1250000   0.05636569    -0.1612434      0             -0.11659121     0.012000019  
   1260000   0.049611612   -0.16163583     0             -0.12233414     0.024905886  
   1270000   0.047887372   -0.16018206     0             -0.12224628    -0.0071302514 
   1280000   0.052888667   -0.16949526     0             -0.12759752     0.017910376  
   1290000   0.050108328   -0.17454956     0             -0.13485437    -0.017985267  
   1300000   0.046502752   -0.17219006     0             -0.13535116     0.0081732925 
   1310000   0.045084885   -0.16852593     0             -0.13281025    -0.0045007096 
   1320000   0.048439592   -0.17003577     0             -0.13166253    -0.0043232393 
   1330000   0.049555463   -0.16618373     0             -0.12692651    -0.032419706  
   1340000   0.05142969    -0.16697104     0             -0.12622908    -0.0141942    
   1350000   0.048571309   -0.16330355     0             -0.12482597     0.011299854  
   1360000   0.050053323   -0.1644816      0             -0.12482998    -0.024848269  
   1370000   0.049954985   -0.16858382     0             -0.12901011    -0.0087361509 
   1380000   0.047610798   -0.16966482     0             -0.13194814    -0.018055054  
   1390000   0.046227477   -0.17023465     0             -0.13361382    -0.010593038  
   1400000   0.049430937   -0.16754967     0             -0.1283911     -0.021933432  
   1410000   0.048509786   -0.17618261     0             -0.13775376     0.0032856348 
   1420000   0.052992376   -0.17289335     0             -0.13091345     0.014782606  
   1430000   0.047517489   -0.17423618     0             -0.13659342     0.022512596  
   1440000   0.045724221   -0.17548272     0             -0.13926057    -0.01971032   
   1450000   0.053143527   -0.17390765     0             -0.13180802    -0.018806478  
   1460000   0.048043476   -0.16631087     0             -0.12825143    -0.0036769909 
   1470000   0.053272666   -0.17178946     0             -0.12958752     0.023128655  
   1480000   0.053209779   -0.17025893     0             -0.12810681     0.0028385119 
   1490000   0.048505438   -0.17272375     0             -0.13429834    -0.0020199938 
   1500000   0.044896235   -0.17428985     0             -0.13872361    -0.0072661156 
   1510000   0.051715971   -0.16445879     0             -0.12349005     0.026443647  
   1520000   0.050011226   -0.16446162     0             -0.12484335     0.00667697   
   1530000   0.056012579   -0.16285033     0             -0.11847787    -0.015987931  
   1540000   0.048033994   -0.16165037     0             -0.12359844    -0.011574231  
   1550000   0.043960135   -0.16720136     0             -0.13237669     0.011291269  
   1560000   0.049886337   -0.16677635     0             -0.12725702    -0.0034526858 
   1570000   0.04812166    -0.1665999      0             -0.12847852     0.0092428087 
   1580000   0.048257616   -0.16667175     0             -0.12844267    -0.023509579  
   1590000   0.050757875   -0.15833877     0             -0.11812901    -0.025005076  
   1600000   0.060286959   -0.16285806     0             -0.11509948    -0.018010399  
   1610000   0.051765664   -0.16743132     0             -0.12642321     0.0012499828 
   1620000   0.052719091   -0.15657049     0             -0.11480708    -0.024368486  
   1630000   0.049930678   -0.15701195     0             -0.11745749    -0.010040449  
   1640000   0.047366976   -0.16325503     0             -0.12573151    -0.01166771   
   1650000   0.049564965   -0.15357044     0             -0.11430569     0.022634579  
   1660000   0.055231373   -0.1520931      0             -0.1083395      0.012691199  
   1670000   0.054150535   -0.16072876     0             -0.11783139    -0.011446709  
   1680000   0.049871713   -0.15718859     0             -0.11768084     0.013212362  
   1690000   0.045397369   -0.15541782     0             -0.11945459     0.0097065113 
   1700000   0.051302122   -0.15784836     0             -0.11720746    -0.019120428  
   1710000   0.052514584   -0.15487627     0             -0.11327488    -0.00031174489
   1720000   0.050777155   -0.16808627     0             -0.12786124    -0.020445144  
   1730000   0.049631311   -0.16740357     0             -0.12808627     0.0015439733 
   1740000   0.051924358   -0.16439616     0             -0.12326233     0.012223014  
   1750000   0.050713952   -0.16222018     0             -0.12204522    -0.0092897565 
   1760000   0.044707963   -0.16734076     0             -0.13192367    -4.3535398e-05
   1770000   0.04707278    -0.16429605     0             -0.12700558     0.0012794589 
   1780000   0.045804057   -0.16841002     0             -0.13212462    -0.0011446302 
   1790000   0.052350044   -0.16442909     0             -0.12295804     0.007618174  
   1800000   0.048602937   -0.15272497     0             -0.11422233    -0.022267592  
   1810000   0.056146953   -0.15851342     0             -0.11403451    -0.01733608   
   1820000   0.05043159    -0.16063348     0             -0.12068221    -0.014742476  
   1830000   0.048905772   -0.16306532     0             -0.12432278    -0.0018770009 
   1840000   0.053272584   -0.16038919     0             -0.11818732     0.03664394   
   1850000   0.054951924   -0.15221087     0             -0.10867865     0.0065610152 
   1860000   0.053287657   -0.15792124     0             -0.11570742     0.010428825  
   1870000   0.052471792   -0.1559854      0             -0.1144179      0.024534447  
   1880000   0.050867136   -0.15368408     0             -0.11338777    -0.021919239  
   1890000   0.056771017   -0.15870544     0             -0.11373215     0.007236268  
   1900000   0.050655171   -0.16807417     0             -0.12794578    -0.005894779  
   1910000   0.051189606   -0.16316469     0             -0.12261292    -0.0033214154 
   1920000   0.049427847   -0.16274538     0             -0.12358926     0.0013633187 
   1930000   0.051848022   -0.16354024     0             -0.12246688    -0.0087875858 
   1940000   0.047362991   -0.16213225     0             -0.12461188     0.0085002093 
   1950000   0.053282659   -0.1646122      0             -0.12240234     0.013627996  
   1960000   0.054269563   -0.15727478     0             -0.11428311     0.012113578  
   1970000   0.05444174    -0.15759985     0             -0.11447178     0.00010729821
   1980000   0.052513195   -0.15742772     0             -0.11582743    -0.0054671149 
   1990000   0.054681016   -0.15697448     0             -0.11365686     8.6171242e-05
   2000000   0.051008509   -0.15515653     0             -0.11474823    -0.023536527  
   2010000   0.048477709   -0.15636977     0             -0.11796633    -0.0013544236 
   2020000   0.048633847   -0.15148174     0             -0.11295462     0.033871761  
   2030000   0.05293576    -0.15452901     0             -0.11259396    -0.0016811652 
   2040000   0.050821896   -0.16008554     0             -0.11982507    -0.003305104  
   2050000   0.047732196   -0.15638413     0             -0.11857128     0.014362288  
   2060000   0.050055173   -0.16133843     0             -0.12168535     0.0015217987 
   2070000   0.049575943   -0.1604369      0             -0.12116346    -0.016716678  
   2080000   0.04775359    -0.15477197     0             -0.11694218     0.0035084839 
   2090000   0.052722903   -0.15956574     0             -0.11779931    -0.012960313  
   2100000   0.048796976   -0.15523695     0             -0.1165806     -0.018580676  
   2110000   0.052490545   -0.16627669     0             -0.12469434     0.02251571   
   2120000   0.048226616   -0.16686969     0             -0.12866517    -0.015174777  
   2130000   0.043020472   -0.16788207     0             -0.13380179     0.0055675568 
   2140000   0.04821857    -0.16441302     0             -0.12621487     0.0052154391 
   2150000   0.046601022   -0.16818179     0             -0.13126504    -0.002356391  
   2160000   0.048620902   -0.15961044     0             -0.12109356     0.0035683557 
   2170000   0.052471706   -0.16323452     0             -0.12166709    -0.0077608952 
   2180000   0.05197619    -0.1711305      0             -0.12995561    -0.0024086141 
   2190000   0.049221862   -0.17245213     0             -0.13345919     0.02281156   
   2200000   0.059397187   -0.17301642     0             -0.12596271    -0.018503601  
   2210000   0.053062507   -0.16897366     0             -0.12693821     0.0048489632 
   2220000   0.047183233   -0.16490076     0             -0.12752279     0.009974731  
   2230000   0.054666247   -0.17330934     0             -0.13000342     0.0029253651 
   2240000   0.050357863   -0.17029638     0             -0.13040351     0.0020184955 
   2250000   0.050351212   -0.15497812     0             -0.11509052     0.022447518  
   2260000   0.051013796   -0.15742844     0             -0.11701595     0.020627342  
   2270000   0.045773306   -0.16574464     0             -0.12948359     0.019920976  
   2280000   0.046306416   -0.16022738     0             -0.12354401    -0.0081010701 
   2290000   0.049238949   -0.15551227     0             -0.11650579     0.0035334693 
   2300000   0.048399932   -0.15612709     0             -0.11778527     0.021939956  
   2310000   0.044339599   -0.15440894     0             -0.11928366     0.0010691338 
   2320000   0.0470854     -0.15045323     0             -0.11315277     0.030656849  
   2330000   0.046704023   -0.16100075     0             -0.12400241    -0.014036255  
   2340000   0.048642514   -0.14710631     0             -0.10857232     0.013392987  
   2350000   0.047326452   -0.15607863     0             -0.1185872     -0.0058857908 
   2360000   0.049659548   -0.15810828     0             -0.11876861     0.015276101  
   2370000   0.054664641   -0.15161137     0             -0.10830673     0.032246846  
   2380000   0.056047686   -0.15151329     0             -0.10711301     0.019830764  
   2390000   0.052387161   -0.15600698     0             -0.11450653    -0.016424923  
   2400000   0.045886775   -0.15521478     0             -0.11886385    -0.016960221  
   2410000   0.045784038   -0.16296897     0             -0.12669943     0.010480224  
   2420000   0.049201093   -0.16532253     0             -0.12634604    -0.027117478  
   2430000   0.0514531     -0.16072728     0             -0.11996678    -0.0071928747 
   2440000   0.049992436   -0.15991182     0             -0.12030843     0.0074395495 
   2450000   0.047803558   -0.15979148     0             -0.1219221      0.026810228  
   2460000   0.052131573   -0.15851593     0             -0.11721795    -0.014078349  
   2470000   0.050459566   -0.15458821     0             -0.11461478    -0.0023511871 
   2480000   0.046482839   -0.15941043     0             -0.1225873      0.016353404  
   2490000   0.049394797   -0.1529664      0             -0.11383646     0.0033531584 
   2500000   0.05446105    -0.15944558     0             -0.11630222    -0.010942774  
   2510000   0.051383451   -0.15418572     0             -0.1134804     -0.010190753  
   2520000   0.048548      -0.15360766     0             -0.11514855     0.013737823  
   2530000   0.047270928   -0.15485615     0             -0.11740871    -0.0052814319 
   2540000   0.048810792   -0.15306976     0             -0.11440246    -0.010757025  
   2550000   0.049563525   -0.15263085     0             -0.11336725     0.0031622247 
   2560000   0.045765386   -0.15209582     0             -0.11584105     0.0073858816 
   2570000   0.055090276   -0.16102896     0             -0.11738713    -0.016868158  
   2580000   0.050540919   -0.14811698     0             -0.1080791      0.012512417  
   2590000   0.052120496   -0.16180577     0             -0.12051656    -0.010445103  
   2600000   0.047049238   -0.15401079     0             -0.11673897     0.020549152  
   2610000   0.051359126   -0.15702607     0             -0.11634001     0.020836326  
   2620000   0.045477676   -0.15813856     0             -0.12211171    -0.022264465  
   2630000   0.051367558   -0.15001572     0             -0.10932299    -0.010899674  
   2640000   0.050066543   -0.15569882     0             -0.11603673     0.01231949   
   2650000   0.050169471   -0.15428445     0             -0.11454082     0.039897164  
   2660000   0.045326985   -0.15643982     0             -0.12053235     0.025184687  
   2670000   0.057429704   -0.14931223     0             -0.10381713    -0.0039293541 
   2680000   0.053105808   -0.15065803     0             -0.10858827    -0.024055437  
   2690000   0.045886144   -0.15496649     0             -0.11861606     3.0453853e-05
   2700000   0.048648742   -0.15198384     0             -0.11344492     0.018530343  
   2710000   0.053475352   -0.14422676     0             -0.10186426     0.025319831  
   2720000   0.045082126   -0.14814877     0             -0.11243527    -0.023481587  
   2730000   0.046742566   -0.15671099     0             -0.11968211     0.032830128  
   2740000   0.053869717   -0.14683785     0             -0.10416294     0.035578845  
   2750000   0.04816811    -0.15536522     0             -0.11720705    -0.003950044  
   2760000   0.048747132   -0.16190709     0             -0.12329022    -0.0046065468 
   2770000   0.04969145    -0.16098129     0             -0.12161634    -0.01816422   
   2780000   0.054532598   -0.15611789     0             -0.11291785    -0.0081804563 
   2790000   0.048469915   -0.15855347     0             -0.12015621    -0.0098328238 
   2800000   0.053980166   -0.160646       0             -0.11788359    -0.0048263184 
   2810000   0.048078334   -0.15641381     0             -0.11832675     0.011070253  
   2820000   0.048559231   -0.16275909     0             -0.12429108     0.016884014  
   2830000   0.047805468   -0.16518196     0             -0.12731107    -0.0060109625 
   2840000   0.053398318   -0.16452233     0             -0.12222085     0.021348516  
   2850000   0.051143055   -0.16572923     0             -0.12521434    -0.010215406  
   2860000   0.051569278   -0.16981729     0             -0.12896475    -0.016928319  
   2870000   0.053937727   -0.16373034     0             -0.12100154    -0.014171997  
   2880000   0.049576586   -0.165536       0             -0.12626204    -0.011769017  
   2890000   0.051540878   -0.16735968     0             -0.12652964    -0.0059806951 
   2900000   0.049590393   -0.16968492     0             -0.13040003    -0.0046777793 
   2910000   0.048964437   -0.1708759      0             -0.13208688    -0.009310645  
   2920000   0.047019984   -0.17551163     0             -0.13826298     0.0088980892 
   2930000   0.050942815   -0.16940144     0             -0.12904518    -0.021582573  
   2940000   0.051368222   -0.16849087     0             -0.12779761     0.012545629  
   2950000   0.049859672   -0.17680681     0             -0.1373086     -0.0069914783 
   2960000   0.048389169   -0.17812905     0             -0.13979575    -0.010058613  
   2970000   0.048795294   -0.17363746     0             -0.13498244     0.0028463073 
   2980000   0.046406473   -0.1732461      0             -0.13648347    -0.016200271  
   2990000   0.052034625   -0.1768501      0             -0.13562892    -0.0012297241 
   3000000   0.048669167   -0.17618241     0             -0.13762731     0.0059682726 
   3010000   0.052128376   -0.17693202     0             -0.13563657     0.0058721718 
   3020000   0.051132849   -0.17706571     0             -0.13655891    -0.013588714  
   3030000   0.053632321   -0.17787317     0             -0.13538632    -0.013642661  
   3040000   0.052973057   -0.17562847     0             -0.13366387    -0.0037347675 
   3050000   0.047715879   -0.1762664      0             -0.13846648    -0.00048900466
   3060000   0.047096712   -0.17285723     0             -0.1355478     -0.01732637   
   3070000   0.048576893   -0.17577722     0             -0.13729521    -0.0068915881 
   3080000   0.047620221   -0.17238722     0             -0.13466308    -5.3274182e-05
   3090000   0.046883059   -0.17126146     0             -0.13412128    -0.013506442  
   3100000   0.048229454   -0.17796761     0             -0.13976084     0.017320559  
   3110000   0.050523311   -0.17759159     0             -0.13756765     0.011826624  
   3120000   0.047032821   -0.17604421     0             -0.13878539    -0.014233842  
   3130000   0.048639957   -0.17641347     0             -0.1378815     -0.0080361245 
   3140000   0.059179524   -0.17139346     0             -0.12451218    -0.022707702  
   3150000   0.050507899   -0.17757078     0             -0.13755906     0.015113783  
   3160000   0.053057187   -0.18224834     0             -0.1402171      0.0048370138 
   3170000   0.052329413   -0.17846602     0             -0.13701131    -0.0030673219 
   3180000   0.046727181   -0.17278469     0             -0.135768       0.0083802874 
   3190000   0.047128083   -0.18111837     0             -0.14378409    -0.019886119  
   3200000   0.050372122   -0.18191739     0             -0.14201322     0.017125181  
   3210000   0.047209022   -0.17859679     0             -0.14119839    -0.016062746  
   3220000   0.049310496   -0.1801828      0             -0.14111965     0.02568069   
   3230000   0.045630193   -0.17867186     0             -0.1425242     -0.0024281161 
   3240000   0.049241131   -0.17420392     0             -0.13519572    -0.017030258  
   3250000   0.052874743   -0.1739221      0             -0.13203539    -0.012428134  
   3260000   0.049732576   -0.17100947     0             -0.13161194     0.024789932  
   3270000   0.053057799   -0.1714888      0             -0.12945708     0.008800631  
   3280000   0.049323987   -0.17149355     0             -0.1324197      0.024843624  
   3290000   0.051093281   -0.17558843     0             -0.13511297     0.0010056509 
   3300000   0.046260467   -0.16638836     0             -0.12974139    -0.002612078  
   3310000   0.049583145   -0.15842523     0             -0.11914608    -0.01079059   
   3320000   0.046721332   -0.16448676     0             -0.12747471    -0.0036779499 
   3330000   0.052565706   -0.17139064     0             -0.12974875    -0.0020835264 
   3340000   0.054813897   -0.16703442     0             -0.12361154     0.010071988  
   3350000   0.051620566   -0.1602935      0             -0.11940033     0.014806332  
   3360000   0.053333478   -0.16287352     0             -0.1206234      0.0070913769 
   3370000   0.046369193   -0.16492563     0             -0.12819253    -0.0078958058 
   3380000   0.049923539   -0.16118431     0             -0.12163551    -0.0011467174 
   3390000   0.04872718    -0.1693827      0             -0.13078164    -0.0098662884 
   3400000   0.049486195   -0.16519472     0             -0.12599238    -0.01153086   
   3410000   0.055192849   -0.16028628     0             -0.11656319    -0.011237492  
   3420000   0.048153513   -0.1528907      0             -0.11474409    -0.00029113766
   3430000   0.053123546   -0.15947004     0             -0.11738623    -0.005450701  
   3440000   0.049431109   -0.15863651     0             -0.1194778     -0.0027489453 
   3450000   0.045395812   -0.16820421     0             -0.13224222     0.0021090127 
   3460000   0.05838188    -0.1615726      0             -0.11532321    -0.0016887059 
   3470000   0.054873666   -0.16463445     0             -0.12116422     0.010361757  
   3480000   0.046432424   -0.16715671     0             -0.13037352    -0.0094147632 
   3490000   0.049479959   -0.169259       0             -0.1300616      0.056139924  
   3500000   0.053632164   -0.15997903     0             -0.1174923     -0.030650713  
   3510000   0.048456526   -0.16344332     0             -0.12505667    -0.0083376892 
   3520000   0.047519403   -0.1630855      0             -0.12544123    -0.0112755    
   3530000   0.051747191   -0.15814313     0             -0.11714965     0.013694607  
   3540000   0.051824133   -0.16524504     0             -0.12419061     0.0055774229 
   3550000   0.048817272   -0.16129185     0             -0.12261942    -0.018472062  
   3560000   0.049547629   -0.16593318     0             -0.12668217     0.018862595  
   3570000   0.045091768   -0.16643098     0             -0.13070985    -0.0012000591 
   3580000   0.04754046    -0.16832883     0             -0.13066787    -0.00046554155
   3590000   0.047937223   -0.18061892     0             -0.14264365     0.0015935209 
   3600000   0.05220666    -0.17457895     0             -0.13322149     0.022202867  
   3610000   0.044827356   -0.17086628     0             -0.13535461    -0.047233794  
   3620000   0.049866536   -0.16973689     0             -0.13023325     0.011661104  
   3630000   0.053648666   -0.16896065     0             -0.12646084     0.0010007935 
   3640000   0.050033924   -0.17442562     0             -0.13478937     0.019166081  
   3650000   0.050265692   -0.16549317     0             -0.12567331     0.024598031  
   3660000   0.048253988   -0.16592817     0             -0.12770196     0.0019443943 
   3670000   0.051586282   -0.16863989     0             -0.12777388    -0.0026246843 
   3680000   0.050389965   -0.17192053     0             -0.13200223     0.0092043108 
   3690000   0.050591517   -0.16647637     0             -0.1263984      0.0076485977 
   3700000   0.049025754   -0.16389397     0             -0.12505638    -0.0086385254 
   3710000   0.0516962     -0.17014478     0             -0.1291917      0.013336078  
   3720000   0.044755057   -0.17093552     0             -0.13548112    -0.0078035648 
   3730000   0.049939262   -0.1644903      0             -0.12492904     0.0039302753 
   3740000   0.046787789   -0.17213408     0             -0.13506938     0.0036958663 
   3750000   0.046083394   -0.18018173     0             -0.14367504     0.0012059158 
   3760000   0.047215693   -0.1744188      0             -0.13701512     0.023960738  
   3770000   0.052318002   -0.17312713     0             -0.13168146     0.041194302  
   3780000   0.052817036   -0.18082359     0             -0.13898259    -0.018127641  
   3790000   0.052430203   -0.177911       0             -0.13637644     0.0019415921 
   3800000   0.049722662   -0.17346921     0             -0.13407954    -0.012772841  
   3810000   0.056662565   -0.17717439     0             -0.13228702    -0.0083548263 
   3820000   0.049361235   -0.17191154     0             -0.13280819     0.020646739  
   3830000   0.054803084   -0.16520123     0             -0.12178691     0.01591881   
   3840000   0.049225098   -0.1724505      0             -0.13345499    -0.015251956  
   3850000   0.04921462    -0.17120409     0             -0.13221688    -0.00090549758
   3860000   0.047972607   -0.16872401     0             -0.13072071    -0.016616778  
   3870000   0.052241282   -0.17239547     0             -0.13101058     0.014158482  
   3880000   0.046220992   -0.16694925     0             -0.13033356    -0.0090101956 
   3890000   0.051807047   -0.17332713     0             -0.13228623    -0.01163859   
   3900000   0.046703937   -0.17152836     0             -0.13453009    -0.026663873  
   3910000   0.05094278    -0.16974466     0             -0.12938843     0.013870164  
   3920000   0.046289957   -0.17493822     0             -0.1382679      0.010509403  
   3930000   0.048405886   -0.17115425     0             -0.13280771    -0.011697235  
   3940000   0.051382344   -0.16796079     0             -0.12725634     0.014266034  
   3950000   0.052619201   -0.1669807      0             -0.12529642    -0.0074049429 
   3960000   0.042538672   -0.16073089     0             -0.12703229    -0.030337316  
   3970000   0.051013715   -0.16705934     0             -0.12664691     0.0067346282 
   3980000   0.048911566   -0.16241037     0             -0.12366324     0.015556046  
   3990000   0.05080385    -0.16614343     0             -0.12589726     0.0059568364 
   4000000   0.048354468   -0.17407695     0             -0.13577114    -0.0062552428 
   4010000   0.054309122   -0.17767369     0             -0.13465068     0.02914048   
   4020000   0.046304729   -0.17616987     0             -0.13948784    -0.0044571973 
   4030000   0.051714353   -0.17176521     0             -0.13079774     0.012695487  
   4040000   0.052464201   -0.16893614     0             -0.12737466     0.0087655669 
   4050000   0.048371058   -0.17030311     0             -0.13198417     0.015348907  
   4060000   0.047547311   -0.16819549     0             -0.13052911    -0.011403793  
   4070000   0.052677635   -0.16933842     0             -0.12760786    -0.010286083  
   4080000   0.052687255   -0.17647417     0             -0.13473599     0.013403338  
   4090000   0.055385964   -0.17537281     0             -0.13149674    -0.00098046316
   4100000   0.047008789   -0.17139139     0             -0.13415161     0.011158673  
   4110000   0.04737763    -0.1770122      0             -0.13948024     0.014030811  
   4120000   0.051792339   -0.17939988     0             -0.13837064    -0.011119829  
   4130000   0.043003772   -0.17531932     0             -0.14125227     0.0050000015 
   4140000   0.050552014   -0.17656042     0             -0.13651375    -0.0048954017 
   4150000   0.052174924   -0.17438728     0             -0.13305495     0.00019841048
   4160000   0.049167802   -0.17257688     0             -0.13362676    -0.017679008  
   4170000   0.051074074   -0.17191576     0             -0.13145552     0.0080183895 
   4180000   0.04726294    -0.16746643     0             -0.13002532    -0.0099468384 
   4190000   0.046370303   -0.17350965     0             -0.13677567    -0.0096388241 
   4200000   0.04991543    -0.17442908     0             -0.1348867      0.010720959  
   4210000   0.046506835   -0.17446928     0             -0.13762715    -0.0012329683 
   4220000   0.050812321   -0.17154148     0             -0.13128859    -0.011715475  
   4230000   0.047994842   -0.17104677     0             -0.13302586    -0.014164641  
   4240000   0.052321011   -0.1730676      0             -0.13161955     0.02253733   
   4250000   0.050220368   -0.17773612     0             -0.13795217    -0.0034852633 
   4260000   0.046280345   -0.17289362     0             -0.13623091    -0.00024688761
   4270000   0.047986164   -0.17376663     0             -0.13575259    -7.7894997e-05
   4280000   0.046368442   -0.17265375     0             -0.13592125    -0.012132696  
   4290000   0.047663417   -0.17836614     0             -0.14060778     0.037784669  
   4300000   0.053698812   -0.18326558     0             -0.14072605    -0.004864199  
   4310000   0.057553978   -0.17837314     0             -0.1327796      0.0076194164 
   4320000   0.050657905   -0.17755493     0             -0.13742437     0.0079618756 
   4330000   0.051810009   -0.1701546      0             -0.12911135    -0.031857527  
   4340000   0.050566692   -0.17872643     0             -0.13866813    -0.039084356  
   4350000   0.051459389   -0.17536946     0             -0.13460397     0.0019711138 
   4360000   0.049596602   -0.17053005     0             -0.13124024     0.016537531  
   4370000   0.05563389    -0.17391144     0             -0.12983897    -0.011058765  
   4380000   0.050047779   -0.16342762     0             -0.1237804     -0.032392837  
   4390000   0.047129407   -0.16735124     0             -0.13001591    -0.015009107  
   4400000   0.052015213   -0.16906427     0             -0.12785847    -0.011261674  
   4410000   0.051110602   -0.16669006     0             -0.12620088    -0.0056086713 
   4420000   0.054588      -0.16997374     0             -0.12672981     0.01289668   
   4430000   0.048336365   -0.1722577      0             -0.13396624     0.016869637  
   4440000   0.04601       -0.17506811     0             -0.13861956     0.0090950104 
   4450000   0.052046392   -0.16980458     0             -0.12857408     0.002704707  
   4460000   0.052712357   -0.16968442     0             -0.12792635     0.0084595469 
   4470000   0.057676792   -0.16852826     0             -0.12283742     0.015274174  
   4480000   0.049661177   -0.17145452     0             -0.13211356    -0.024729568  
   4490000   0.047538211   -0.17640651     0             -0.13874733     0.00030547945
   4500000   0.049411763   -0.18013294     0             -0.14098955    -0.0054302395 
   4510000   0.049700266   -0.1749676      0             -0.13559567    -0.023673198  
   4520000   0.054254205   -0.17491593     0             -0.13193643     0.012822776  
   4530000   0.047073836   -0.17377966     0             -0.13648836     0.0091066426 
   4540000   0.046939268   -0.17861608     0             -0.14143138    -0.020006163  
   4550000   0.051323363   -0.17581358     0             -0.13515585     0.0015028728 
   4560000   0.054438283   -0.17492838     0             -0.13180305    -0.011245296  
   4570000   0.055236609   -0.16857912     0             -0.12482137    -0.0057280507 
   4580000   0.053573242   -0.16648683     0             -0.12404677    -0.013057421  
   4590000   0.053495391   -0.16355812     0             -0.12117974     0.0021762837 
   4600000   0.050029211   -0.16482772     0             -0.1251952     -0.0064948957 
   4610000   0.052037127   -0.16986025     0             -0.12863709     0.00051152462
   4620000   0.049361559   -0.15979456     0             -0.12069095     0.011197994  
   4630000   0.051823373   -0.1675286      0             -0.12647478     0.017172961  
   4640000   0.047830203   -0.16969543     0             -0.13180494    -0.019923332  
   4650000   0.046231531   -0.17366625     0             -0.13704221    -0.0038219234 
   4660000   0.050762083   -0.17613484     0             -0.13592175     0.0094411803 
   4670000   0.051990621   -0.17315884     0             -0.13197252     0.0034027918 
   4680000   0.051723616   -0.1825672      0             -0.1415924     -0.008893525  
   4690000   0.048055765   -0.18274486     0             -0.14467568    -0.0010386391 
   4700000   0.047526646   -0.17876571     0             -0.1411157      0.0044191548 
   4710000   0.052355376   -0.17720724     0             -0.13573197    -0.00077761012
   4720000   0.048323053   -0.17588272     0             -0.13760181    -0.029751335  
   4730000   0.055512878   -0.17726267     0             -0.13328606    -0.0011969285 
   4740000   0.05207983    -0.18108209     0             -0.1398251      0.002459942  
   4750000   0.046950907   -0.18522057     0             -0.14802664    -0.023670232  
   4760000   0.049542815   -0.18354111     0             -0.14429391    -0.0018032822 
   4770000   0.051908582   -0.18468784     0             -0.14356651     0.00051855036
   4780000   0.057475732   -0.17789729     0             -0.13236574     0.024393022  
   4790000   0.050475081   -0.18541886     0             -0.14543313     0.0072404725 
   4800000   0.046792067   -0.18141306     0             -0.14434497     0.0045465709 
   4810000   0.054926235   -0.17610902     0             -0.13259714     0.0042137686 
   4820000   0.050281706   -0.1778363      0             -0.13800376     0.0094996281 
   4830000   0.050736801   -0.17097299     0             -0.13077993     0.0096649633 
   4840000   0.054902515   -0.18085691     0             -0.13736382    -0.013060083  
   4850000   0.046518956   -0.16235761     0             -0.12550587    -0.0023822222 
   4860000   0.052539354   -0.16232914     0             -0.12070812     0.013874007  
   4870000   0.056167918   -0.16027849     0             -0.11578297    -0.0069042534 
   4880000   0.048327301   -0.15974431     0             -0.12146002     0.015978372  
   4890000   0.055878341   -0.16158641     0             -0.11732029     0.011273172  
   4900000   0.046754262   -0.16427342     0             -0.12723528    -0.018849902  
   4910000   0.049271137   -0.15677521     0             -0.11774323    -0.018011232  
   4920000   0.053583585   -0.16459662     0             -0.12214837    -0.011254419  
   4930000   0.051334593   -0.15899104     0             -0.11832442     0.0099586918 
   4940000   0.051230496   -0.15647001     0             -0.11588585     0.01286621   
   4950000   0.052985787   -0.16049571     0             -0.11852103    -0.0050191416 
   4960000   0.052872856   -0.1644135      0             -0.12252829    -0.0027685851 
   4970000   0.054016525   -0.16177649     0             -0.11898527     0.022470012  
   4980000   0.048297652   -0.16534614     0             -0.12708535     0.019413943  
   4990000   0.051037075   -0.16725782     0             -0.12682689    -0.0041626223 
   5000000   0.051871134   -0.16610807     0             -0.12501641    -0.017880497  
   5010000   0.047356636   -0.16804004     0             -0.1305247     -0.023794832  
   5020000   0.052063208   -0.1660591      0             -0.12481528     0.019017856  
   5030000   0.046204412   -0.17298492     0             -0.13638236    -0.025598261  
   5040000   0.053440873   -0.1688948      0             -0.12655961    -0.0084432635 
   5050000   0.046421573   -0.17238681     0             -0.13561222    -0.039423411  
   5060000   0.048953322   -0.17059386     0             -0.13181366     0.028174769  
   5070000   0.054960638   -0.16978327     0             -0.12624414     0.0039788098 
   5080000   0.048090525   -0.18235683     0             -0.14426011    -0.00056636956
   5090000   0.055228743   -0.17570839     0             -0.13195687    -0.017065098  
   5100000   0.05206428    -0.17039489     0             -0.12915022     0.0097266459 
   5110000   0.056111875   -0.17823309     0             -0.13378197    -0.024626359  
   5120000   0.052265872   -0.17126229     0             -0.12985791     0.025708934  
   5130000   0.047544292   -0.17525986     0             -0.13759587     0.0048701262 
   5140000   0.045517973   -0.17473803     0             -0.13867926    -0.0070022646 
   5150000   0.049867449   -0.17408869     0             -0.13458432     0.00046108309
   5160000   0.051619741   -0.17664533     0             -0.13575281     0.0047620378 
   5170000   0.049349237   -0.17920695     0             -0.1401131      0.027011305  
   5180000   0.049314369   -0.1800066      0             -0.14094038    -0.013927586  
   5190000   0.052245591   -0.18022813     0             -0.13883983    -0.014023631  
   5200000   0.048033339   -0.17757584     0             -0.13952443    -0.025492225  
   5210000   0.045804855   -0.19000164     0             -0.1537156      0.038044204  
   5220000   0.04564301    -0.18333698     0             -0.14717916     0.033371922  
   5230000   0.047210211   -0.18988992     0             -0.15249058     0.027811236  
   5240000   0.050132573   -0.17711817     0             -0.13740378     0.023656431  
   5250000   0.049702092   -0.17886351     0             -0.13949014    -0.0037572344 
   5260000   0.050992341   -0.18017002     0             -0.13977453    -0.015769662  
   5270000   0.051926205   -0.18684334     0             -0.14570805     0.00050786383
   5280000   0.050604604   -0.18445683     0             -0.1443685      0.021312254  
   5290000   0.044504174   -0.18189754     0             -0.14664189    -0.010425855  
   5300000   0.05492669    -0.17560464     0             -0.1320924     -0.0087117909 
   5310000   0.046691104   -0.18527599     0             -0.14828788    -0.0054623922 
   5320000   0.055334975   -0.18746095     0             -0.14362527    -0.024146714  
   5330000   0.059626538   -0.18727564     0             -0.14004024    -0.0054062149 
   5340000   0.048567126   -0.1840661      0             -0.14559183     0.01549331   
   5350000   0.047499356   -0.18305845     0             -0.14543005     0.011284693  
   5360000   0.050991059   -0.18067654     0             -0.14028206    -0.011759411  
   5370000   0.046496315   -0.1895782      0             -0.1527444     -0.01740828   
   5380000   0.049632668   -0.18210139     0             -0.14278301    -0.0056993529 
   5390000   0.050326407   -0.17877969     0             -0.13891174    -0.015513256  
   5400000   0.04486141    -0.18923481     0             -0.15369616     0.0025050863 
   5410000   0.048208799   -0.19192847     0             -0.15373806     0.011509686  
   5420000   0.05293611    -0.18944141     0             -0.14750609    -0.018457147  
   5430000   0.057475963   -0.19536455     0             -0.14983281    -0.00081675477
   5440000   0.044015386   -0.19922842     0             -0.16435998     0.006007086  
   5450000   0.04851397    -0.19440491     0             -0.15597274    -0.0069097288 
   5460000   0.054763583   -0.1887633      0             -0.14538028     0.022621421  
   5470000   0.046538601   -0.19334484     0             -0.15647754     0.010864085  
   5480000   0.049830827   -0.18986388     0             -0.15038852     0.0030329375 
   5490000   0.054985025   -0.19003485     0             -0.1464764      0.0049875002 
   5500000   0.049090073   -0.19294693     0             -0.15405839    -0.024379636  
   5510000   0.048092894   -0.19530995     0             -0.15721137     0.0089134054 
   5520000   0.051780843   -0.19103942     0             -0.15001928     0.016899067  
   5530000   0.047526739   -0.18710885     0             -0.14945876     0.01858314   
   5540000   0.050737884   -0.18272754     0             -0.14253362    -0.01079424   
   5550000   0.050871077   -0.1872331      0             -0.14693367     0.008489862  
   5560000   0.050539662   -0.18988859     0             -0.1498517      0.031082523  
   5570000   0.050429381   -0.17900543     0             -0.13905591     0.0081263858 
   5580000   0.050886371   -0.18715049     0             -0.14683895     0.042712644  
   5590000   0.045116024   -0.1816607      0             -0.14592035    -0.0032213706 
   5600000   0.050596238   -0.17844908     0             -0.13836737    -0.0026213099 
   5610000   0.05134116    -0.18985546     0             -0.14918363    -0.0012033178 
   5620000   0.058846835   -0.18513902     0             -0.1385213      0.012677461  
   5630000   0.046057757   -0.18391407     0             -0.14742769    -0.010833649  
   5640000   0.051789586   -0.18154248     0             -0.14051542    -0.018073984  
   5650000   0.049438911   -0.191439       0             -0.15227411     0.01173521   
   5660000   0.047229111   -0.18262609     0             -0.14521178    -0.010020938  
   5670000   0.05386316    -0.18672502     0             -0.1440553     -0.012344519  
   5680000   0.050379695   -0.18329082     0             -0.14338066    -0.010858849  
   5690000   0.0535677     -0.19156674     0             -0.14913107     0.0018356986 
   5700000   0.048452469   -0.19045345     0             -0.15207001     0.013470537  
   5710000   0.053001368   -0.18622133     0             -0.14423431    -0.013779677  
   5720000   0.054322856   -0.18963094     0             -0.14659706     0.0044356609 
   5730000   0.049949529   -0.19096679     0             -0.15139739     0.021300014  
   5740000   0.048101833   -0.19125928     0             -0.15315361    -0.017713808  
   5750000   0.051300092   -0.19046555     0             -0.14982626     0.009572551  
   5760000   0.051110689   -0.19078309     0             -0.15029384    -0.0069647931 
   5770000   0.049115678   -0.18424387     0             -0.14533504    -0.020637749  
   5780000   0.046586445   -0.18780787     0             -0.15090267     0.012656037  
   5790000   0.04857552    -0.18475937     0             -0.14627845    -0.014223843  
   5800000   0.050325734   -0.18482993     0             -0.14496251    -0.016168919  
   5810000   0.045469999   -0.18072781     0             -0.14470705    -0.013132866  
   5820000   0.048302769   -0.18771961     0             -0.14945476    -0.0097143313 
   5830000   0.047078056   -0.18150352     0             -0.14420888     0.01298437   
   5840000   0.05104232    -0.18178712     0             -0.14135204     0.017430157  
   5850000   0.049270627   -0.18100356     0             -0.14197199    -0.014428839  
   5860000   0.049452195   -0.17333911     0             -0.1341637     -0.020721464  
   5870000   0.044851726   -0.17283379     0             -0.13730281     0.027697187  
   5880000   0.051384436   -0.18113429     0             -0.14042818    -0.0097718645 
   5890000   0.0532135     -0.17924026     0             -0.13708519     0.00029785834
   5900000   0.043443864   -0.17108406     0             -0.13666838     0.00089862777
   5910000   0.055235392   -0.17672864     0             -0.13297186     0.0067202188 
   5920000   0.048760744   -0.17088285     0             -0.1322552     -0.001257964  
   5930000   0.053215275   -0.16379439     0             -0.12163792     0.022575992  
   5940000   0.048637082   -0.16484774     0             -0.12631805    -0.014590908  
   5950000   0.048427972   -0.16848211     0             -0.13011807    -0.0010475022 
   5960000   0.049581539   -0.17369523     0             -0.13441735    -0.0084899967 
   5970000   0.046959489   -0.17319686     0             -0.13599614    -0.012630611  
   5980000   0.04887806    -0.17342447     0             -0.13470388    -0.0089033316 
   5990000   0.048307847   -0.1688346      0             -0.13056573     0.00099182166
   6000000   0.052325011   -0.16805311     0             -0.12660189    -0.020030782  
   6010000   0.049043326   -0.17193357     0             -0.13308206    -0.016891434  
   6020000   0.051901511   -0.16430962     0             -0.1231939     -0.011640105  
   6030000   0.047541747   -0.16308745     0             -0.12542547    -0.010667093  
   6040000   0.045268637   -0.16564113     0             -0.12977988     0.01666736   
   6050000   0.049165724   -0.1708595      0             -0.13191103     0.021840873  
   6060000   0.049910953   -0.17420835     0             -0.13466951    -0.00063012223
   6070000   0.046359031   -0.16795086     0             -0.13122581     0.0022929981 
   6080000   0.049552244   -0.1669048      0             -0.12765013    -0.0038895923 
   6090000   0.047737577   -0.16491111     0             -0.127094       0.021039626  
   6100000   0.052391123   -0.17197604     0             -0.13047245     0.0068680073 
   6110000   0.051238291   -0.16581309     0             -0.12522276     0.013374991  
   6120000   0.048561536   -0.16780066     0             -0.12933082    -0.022041555  
   6130000   0.048184205   -0.16045993     0             -0.12228901     0.00018183937
   6140000   0.050324804   -0.16600749     0             -0.12614081     0.013788325  
   6150000   0.048673338   -0.16592051     0             -0.1273621     -0.0017366706 
   6160000   0.057597582   -0.16383249     0             -0.1182044      0.032549093  
   6170000   0.049522853   -0.16868602     0             -0.12945463     0.018981415  
   6180000   0.047405366   -0.1599166      0             -0.12236267     0.0086870726 
   6190000   0.054557069   -0.16077836     0             -0.11755893     0.0080383204 
   6200000   0.049096978   -0.17494535     0             -0.13605133     0.007371024  
   6210000   0.054675184   -0.17090613     0             -0.12759314    -0.021497891  
   6220000   0.055298345   -0.17213691     0             -0.12833025     0.0021016306 
   6230000   0.051902345   -0.16847245     0             -0.12735606    -0.015966748  
   6240000   0.052034719   -0.1732599      0             -0.13203864     0.018088419  
   6250000   0.04626778    -0.178351       0             -0.14169825    -0.025103516  
   6260000   0.048041167   -0.18116203     0             -0.14310442     0.0056473063 
   6270000   0.050204516   -0.18485915     0             -0.14508776    -0.0052480378 
   6280000   0.056108236   -0.18189285     0             -0.13744461     0.020849353  
   6290000   0.046716482   -0.17791947     0             -0.14091125    -0.016727197  
   6300000   0.052484939   -0.17560363     0             -0.13402572    -0.027005548  
   6310000   0.04687786    -0.17955473     0             -0.14241868     0.0072202573 
   6320000   0.05069073    -0.18319029     0             -0.14303373     0.00052984018
   6330000   0.049887227   -0.18464832     0             -0.14512828     0.0069784399 
   6340000   0.047327064   -0.17858408     0             -0.14109217     0.0018874208 
   6350000   0.046312052   -0.17829206     0             -0.14160423    -0.018408218  
   6360000   0.047342841   -0.18612825     0             -0.14862385    -0.020049659  
   6370000   0.050165356   -0.1824478      0             -0.14270743     0.0038949347 
   6380000   0.053006452   -0.17840371     0             -0.13641266     0.0098438783 
   6390000   0.05239336    -0.18196892     0             -0.14046356    -0.0017959588 
   6400000   0.047008624   -0.17578377     0             -0.13854412     0.0029521789 
   6410000   0.050702359   -0.17282747     0             -0.1326617     -0.00056907518
   6420000   0.052396391   -0.18026773     0             -0.13875996    -0.010426155  
   6430000   0.050087487   -0.18503189     0             -0.14535321    -0.017870927  
   6440000   0.050591663   -0.18583413     0             -0.14575605     0.026273992  
   6450000   0.050020414   -0.17779494     0             -0.1381694     -0.0016110001 
   6460000   0.050568735   -0.18234094     0             -0.14228102    -0.031037647  
   6470000   0.048799952   -0.18203629     0             -0.14337758    -0.0072454581 
   6480000   0.048534572   -0.17984305     0             -0.14139457    -0.012409626  
   6490000   0.050410854   -0.18057437     0             -0.14063952    -0.014656216  
   6500000   0.052797277   -0.18048454     0             -0.13865919     0.0095271339 
   6510000   0.050112194   -0.17710864     0             -0.13741039    -0.0092797126 
   6520000   0.05240961    -0.18123757     0             -0.13971933     0.025402694  
   6530000   0.045781781   -0.17666848     0             -0.14040073     0.02124938   
   6540000   0.049696191   -0.17752538     0             -0.13815668     0.01352873   
   6550000   0.051767027   -0.177829       0             -0.13681981     0.0122028    
   6560000   0.052296158   -0.18400881     0             -0.14258045     0.019950569  
   6570000   0.043310706   -0.18858688     0             -0.15427668    -0.012720595  
   6580000   0.057685078   -0.17861652     0             -0.13291912     0.012642292  
   6590000   0.047277021   -0.17749062     0             -0.14003835     0.011761756  
   6600000   0.049363329   -0.17911091     0             -0.14000589    -0.01038186   
   6610000   0.051026092   -0.17751226     0             -0.13709003     0.016552046  
   6620000   0.046563011   -0.18858502     0             -0.15169839    -0.0084015767 
   6630000   0.046224867   -0.18635827     0             -0.14973951     0.014358314  
   6640000   0.054172525   -0.1862927      0             -0.14337791    -0.0137851    
   6650000   0.050948135   -0.17577582     0             -0.13541535    -0.032519485  
   6660000   0.053927893   -0.18624835     0             -0.14352735    -0.0084207369 
   6670000   0.046867869   -0.18728027     0             -0.15015213    -0.0045273105 
   6680000   0.049869739   -0.18588754     0             -0.14638136    -0.016810836  
   6690000   0.048144128   -0.18315495     0             -0.14501578    -0.018387394  
   6700000   0.04350886    -0.1890659      0             -0.15459873    -0.022948934  
   6710000   0.049989582   -0.18214029     0             -0.14253917     0.0093958802 
   6720000   0.046981304   -0.17589709     0             -0.13867909     0.0022959831 
   6730000   0.050029467   -0.18123736     0             -0.14160464     0.012020918  
   6740000   0.049980007   -0.18184859     0             -0.14225505     0.033596318  
   6750000   0.056835936   -0.18380582     0             -0.1387811     -0.021080133  
   6760000   0.04875846    -0.17887655     0             -0.14025071    -0.0029851749 
   6770000   0.048847388   -0.17859314     0             -0.13989685     0.026956941  
   6780000   0.047945286   -0.18326054     0             -0.14527888     0.010238135  
   6790000   0.050764825   -0.17555611     0             -0.13534085    -0.0073206232 
   6800000   0.046083022   -0.17539496     0             -0.13888857    -0.004749258  
   6810000   0.04809262    -0.18080129     0             -0.14270292    -0.021182886  
   6820000   0.056164639   -0.18603852     0             -0.14154559    -0.021648443  
   6830000   0.050830978   -0.18559914     0             -0.14533147    -0.0032852259 
   6840000   0.046909706   -0.18221487     0             -0.14505359     0.022674247  
   6850000   0.047909959   -0.18020612     0             -0.14225244     0.020324987  
   6860000   0.05185223    -0.17625868     0             -0.13518199    -0.010932232  
   6870000   0.056644574   -0.17913076     0             -0.13425763     0.0080114724 
   6880000   0.049515299   -0.18481668     0             -0.14559128     0.0022397401 
   6890000   0.043557009   -0.18297286     0             -0.14846754     0.0048540773 
   6900000   0.054830438   -0.18271991     0             -0.13928392    -0.016963306  
   6910000   0.054442966   -0.18149952     0             -0.13837048    -0.022206645  
   6920000   0.048874969   -0.18449577     0             -0.14577763     0.02177654   
   6930000   0.048358609   -0.1790611      0             -0.14075201    -0.007770614  
   6940000   0.051640443   -0.1855879      0             -0.14467899    -0.030824706  
   6950000   0.042857364   -0.18543682     0             -0.15148575    -0.0090119703 
   6960000   0.054014094   -0.1812208      0             -0.13843151     0.012419843  
   6970000   0.047920315   -0.17595031     0             -0.13798844     0.016616477  
   6980000   0.056741998   -0.18316992     0             -0.13821962    -0.024968566  
   6990000   0.051930671   -0.18715122     0             -0.1460124      0.018549242  
   7000000   0.051061711   -0.18439079     0             -0.14394034    -0.012080858  
   7010000   0.052548774   -0.18317538     0             -0.1415469      0.0060808835 
   7020000   0.046734572   -0.18705275     0             -0.15003021     0.012525324  
   7030000   0.053051982   -0.18902783     0             -0.14700071     0.0099516283 
   7040000   0.050106212   -0.18956882     0             -0.14987531    -0.0057561749 
   7050000   0.051160239   -0.18617447     0             -0.14564597    -0.0027720539 
   7060000   0.047561547   -0.18680168     0             -0.14912402    -0.0055175602 
   7070000   0.048651802   -0.1828398      0             -0.14429845     0.013665888  
   7080000   0.050910993   -0.1916548      0             -0.15132375     0.023614468  
   7090000   0.046168735   -0.1856313      0             -0.149057       0.011233278  
   7100000   0.056804142   -0.1835491      0             -0.13854956     0.0055905722 
   7110000   0.053306673   -0.18658378     0             -0.1443549     -0.015945568  
   7120000   0.050257354   -0.18442808     0             -0.14461483     0.026232682  
   7130000   0.05559802    -0.19805333     0             -0.15400928     0.002767632  
   7140000   0.047264411   -0.19008656     0             -0.15264428     0.01206163   
   7150000   0.053429784   -0.19194804     0             -0.14962163     0.021041868  
   7160000   0.054693246   -0.19109073     0             -0.14776342     0.0097307462 
   7170000   0.049298604   -0.18689851     0             -0.14784477    -0.0015782715 
   7180000   0.051648282   -0.18818519     0             -0.14727006     0.020825917  
   7190000   0.051992837   -0.18258012     0             -0.14139204    -0.0022054404 
   7200000   0.04811629    -0.18032073     0             -0.14220361     0.0080734995 
   7210000   0.050576376   -0.18558031     0             -0.14551433     0.0078705508 
   7220000   0.050958383   -0.17692782     0             -0.13655922     0.0199594    
   7230000   0.043946148   -0.18211821     0             -0.14730462     0.026351074  
   7240000   0.04708778    -0.18184389     0             -0.14454154    -0.0030130379 
   7250000   0.046516637   -0.18292029     0             -0.1460704      0.00074656842
   7260000   0.053254485   -0.18390383     0             -0.14171629     0.015438266  
   7270000   0.05069281    -0.17906677     0             -0.13890855     0.020530341  
   7280000   0.047664046   -0.18400027     0             -0.14624141    -0.0067320298 
   7290000   0.050291272   -0.17957039     0             -0.13973028     0.01030942   
   7300000   0.056660217   -0.18355663     0             -0.13867112     0.030807621  
   7310000   0.051079895   -0.18473075     0             -0.14426589     0.035098607  
   7320000   0.05413768    -0.18623767     0             -0.14335048     0.0072971904 
   7330000   0.053690325   -0.18825488     0             -0.14572207    -0.010135849  
   7340000   0.04606605    -0.18782968     0             -0.15133673     0.031901072  
   7350000   0.050588016   -0.18582428     0             -0.14574908     0.0011869258 
   7360000   0.050414511   -0.1862426      0             -0.14630486    -0.002001893  
   7370000   0.049191423   -0.1718816      0             -0.13291277     0.0051532181 
   7380000   0.046196137   -0.16881148     0             -0.13221547     0.0290697    
   7390000   0.052748368   -0.17759963     0             -0.13581303    -0.025148139  
   7400000   0.052436726   -0.18371245     0             -0.14217273     0.01874521   
   7410000   0.052899023   -0.18004233     0             -0.13813639     0.016197804  
   7420000   0.050678543   -0.18061112     0             -0.14046422     0.027148386  
   7430000   0.055695134   -0.19019355     0             -0.14607256    -0.0040232589 
   7440000   0.044622866   -0.1888442      0             -0.15349453     0.0091443991 
   7450000   0.049163334   -0.18082271     0             -0.14187613    -0.01933193   
   7460000   0.047449911   -0.18056751     0             -0.14297829    -0.012098849  
   7470000   0.048837527   -0.1794634      0             -0.14077492    -0.014211612  
   7480000   0.052515689   -0.18091683     0             -0.13931456     0.010430261  
   7490000   0.052302437   -0.18746213     0             -0.1460288     -0.015421941  
   7500000   0.051417841   -0.18520011     0             -0.14446754     0.0030895033 
   7510000   0.046806191   -0.19018998     0             -0.1531107      0.0023100916 
   7520000   0.055188711   -0.19316466     0             -0.14944485    -0.0065645272 
   7530000   0.049556332   -0.18195281     0             -0.1426949      0.049093502  
   7540000   0.052113583   -0.18283809     0             -0.14155436    -0.0032756978 
   7550000   0.047228582   -0.1802317      0             -0.1428178      0.0074633317 
   7560000   0.051097062   -0.18745854     0             -0.14698009     0.010478298  
   7570000   0.052404988   -0.18468033     0             -0.14316575     0.013532711  
   7580000   0.047298044   -0.18423017     0             -0.14676125    -0.019469207  
   7590000   0.047855713   -0.19051027     0             -0.15259958     0.033726917  
   7600000   0.051468934   -0.18945354     0             -0.14868049     0.020553337  
   7610000   0.051019088   -0.18498584     0             -0.14456915     0.011326143  
   7620000   0.044595551   -0.19367222     0             -0.15834418    -0.024150762  
   7630000   0.053143825   -0.19080936     0             -0.14870948    -0.036252986  
   7640000   0.051015692   -0.1905587      0             -0.15014471    -0.023159211  
   7650000   0.046314627   -0.18839564     0             -0.15170577     0.011373742  
   7660000   0.058202406   -0.18849355     0             -0.14238634    -0.014813724  
   7670000   0.047626846   -0.1874408      0             -0.1497114      0.019878746  
   7680000   0.052296148   -0.17896334     0             -0.13753499    -0.017947117  
   7690000   0.049167272   -0.18751812     0             -0.14856842     0.0064758117 
   7700000   0.050195748   -0.17888431     0             -0.13911986    -0.0099762995 
   7710000   0.047874139   -0.1790071      0             -0.14108181     0.017676103  
   7720000   0.049525895   -0.17737934     0             -0.13814554     0.00010069606
   7730000   0.043846355   -0.17634658     0             -0.14161205    -0.03751173   
   7740000   0.052249649   -0.16638709     0             -0.12499558    -0.025856331  
   7750000   0.0483259     -0.16868601     0             -0.13040284    -0.011652246  
   7760000   0.054661214   -0.17581881     0             -0.13251688     0.016317021  
   7770000   0.047897456   -0.17352775     0             -0.13558398    -0.0061789383 
   7780000   0.047370626   -0.17710603     0             -0.13957961     0.01852816   
   7790000   0.050405986   -0.17551112     0             -0.13558013     0.0050463938 
   7800000   0.052612937   -0.17156114     0             -0.12988183     0.020904703  
   7810000   0.053710878   -0.17583256     0             -0.13328348    -0.01771373   
   7820000   0.04927835    -0.1783617      0             -0.13932401     0.012458337  
   7830000   0.054263298   -0.18299422     0             -0.14000751    -0.011195238  
   7840000   0.051789614   -0.18759682     0             -0.14656973     0.018156369  
   7850000   0.047201781   -0.19424932     0             -0.15685666    -0.011980889  
   7860000   0.04992305    -0.18934267     0             -0.14979425    -0.003277873  
   7870000   0.051999391   -0.1937586      0             -0.15256534    -0.0019581873 
   7880000   0.048770524   -0.19463675     0             -0.15600135    -0.021589238  
   7890000   0.048051656   -0.19519911     0             -0.15713319     0.0047069881 
   7900000   0.052360945   -0.19119176     0             -0.14971208     0.027567823  
   7910000   0.051387802   -0.19495651     0             -0.15424773     0.0058278575 
   7920000   0.046622934   -0.18580091     0             -0.14886681     0.01537443   
   7930000   0.050367883   -0.19375023     0             -0.15384942     0.0058974435 
   7940000   0.04944191    -0.19285466     0             -0.1536874      0.008840126  
   7950000   0.047761309   -0.1932585      0             -0.15542259     0.018535141  
   7960000   0.044632333   -0.19104365     0             -0.15568647    -0.017394135  
   7970000   0.051096511   -0.19044744     0             -0.14996942    -0.0029196218 
   7980000   0.043905439   -0.1913428      0             -0.15656146     0.021528158  
   7990000   0.051244984   -0.1876959      0             -0.14710026     0.026369834  
   8000000   0.043977287   -0.19392769     0             -0.15908944    -0.02633234   
   8010000   0.053198068   -0.19779245     0             -0.15564961     0.0068663328 
   8020000   0.049105182   -0.19928889     0             -0.16038838     0.014302772  
   8030000   0.047189066   -0.19523169     0             -0.15784911    -0.0021062982 
   8040000   0.050714087   -0.19106929     0             -0.15089423    -0.0098373444 
   8050000   0.052298927   -0.19135262     0             -0.14992206     0.00095245002
   8060000   0.049122851   -0.19079439     0             -0.15187988     0.046357479  
   8070000   0.050574224   -0.19180018     0             -0.15173591     0.013704051  
   8080000   0.046699867   -0.19339769     0             -0.15640264    -0.013051574  
   8090000   0.051043116   -0.19527363     0             -0.15483791    -0.002793013  
   8100000   0.045747137   -0.19161401     0             -0.1553737      0.0036760249 
   8110000   0.05141113    -0.18876771     0             -0.14804046    -0.019425899  
   8120000   0.051867365   -0.19644129     0             -0.15535261     0.018579173  
   8130000   0.051737902   -0.19131973     0             -0.15033361    -0.012424604  
   8140000   0.049134364   -0.19373631     0             -0.15481268    -0.035186376  
   8150000   0.047491954   -0.19290665     0             -0.15528412    -0.0077719428 
   8160000   0.049991534   -0.18884099     0             -0.14923832     0.0017238837 
   8170000   0.049770549   -0.19221855     0             -0.15279094     0.0035510409 
   8180000   0.051276382   -0.19127613     0             -0.15065562     0.0010143864 
   8190000   0.050933686   -0.187363       0             -0.14701397     0.024240357  
   8200000   0.044842507   -0.18288541     0             -0.14736173    -0.0070273927 
   8210000   0.050828798   -0.18195774     0             -0.1416918      0.012286077  
   8220000   0.048283532   -0.18288813     0             -0.14463852    -0.0073348113 
[...]
  57880000   0.042579596   -0.19001971     0             -0.15628868    -0.014453919  
  57890000   0.050927149   -0.18448573     0             -0.14414188    -0.018053509  
  57900000   0.056468783   -0.18754768     0             -0.14281381    -0.002625168  
  57910000   0.048429358   -0.19003295     0             -0.15166781    -0.015068125  
  57920000   0.04576472    -0.19096674     0             -0.15471251     0.017464966  
  57930000   0.044011382   -0.1929171      0             -0.15805183     0.0022162763 
  57940000   0.053035076   -0.18639781     0             -0.14438409    -0.010785205  
  57950000   0.049340525   -0.19513232     0             -0.15604537    -0.0032088943 
  57960000   0.046857732   -0.19401515     0             -0.15689504    -0.038841531  
  57970000   0.053989903   -0.19727428     0             -0.15450415    -0.017740246  
  57980000   0.045550439   -0.19088946     0             -0.15480497    -0.0005840249 
  57990000   0.048948022   -0.18707924     0             -0.14830323    -0.01355106   
  58000000   0.043749906   -0.18497096     0             -0.15031283    -0.010906385  
  58010000   0.049408795   -0.18436979     0             -0.14522876    -0.0064594397 
  58020000   0.055697356   -0.17892751     0             -0.13480476    -7.1399992e-05
  58030000   0.052574666   -0.17768326     0             -0.13603426     0.018540015  
  58040000   0.046534926   -0.16854762     0             -0.13168323     0.017118274  
  58050000   0.044659333   -0.18198802     0             -0.14660945    -0.00097020246
  58060000   0.045810451   -0.19054957     0             -0.15425911     0.012921782  
  58070000   0.050634766   -0.18516873     0             -0.1450565      0.012210787  
  58080000   0.042020502   -0.18645412     0             -0.15316601     0.0037243366 
  58090000   0.046579381   -0.18611299     0             -0.14921338    -0.011060801  
  58100000   0.04934773    -0.18687754     0             -0.14778488    -0.012658423  
  58110000   0.052892308   -0.1857448      0             -0.14384418     0.0058431144 
  58120000   0.047956977   -0.1833136      0             -0.14532269    -0.013595352  
  58130000   0.046805011   -0.17677364     0             -0.1396953     -0.01762867   
  58140000   0.051652554   -0.1737439      0             -0.13282539     0.0029688283 
  58150000   0.052701686   -0.18527321     0             -0.14352359     0.0036473437 
  58160000   0.049578636   -0.1765974      0             -0.13732182    -0.025629621  
  58170000   0.046015416   -0.18416268     0             -0.14770984     0.0024238218 
  58180000   0.048595709   -0.18796961     0             -0.14947269     0.010991923  
  58190000   0.049310039   -0.18420639     0             -0.14514359    -0.0263692    
  58200000   0.050017824   -0.18613345     0             -0.14650995    -0.0022570811 
  58210000   0.04500428    -0.1919847      0             -0.15633287     0.0074173039 
  58220000   0.04817067    -0.18322632     0             -0.14506612     0.013779849  
  58230000   0.056792755   -0.18419318     0             -0.13920267     0.004026796  
  58240000   0.0519826     -0.18270491     0             -0.14152495    -0.025579833  
  58250000   0.050693627   -0.17328467     0             -0.13312581     0.0036319468 
  58260000   0.051253496   -0.18526978     0             -0.1446674      0.006257808  
  58270000   0.053165461   -0.1851035      0             -0.14298649    -0.018702414  
  58280000   0.050820015   -0.18817664     0             -0.14791766     0.029472854  
  58290000   0.050322959   -0.18925267     0             -0.14938745     0.044314232  
  58300000   0.053817037   -0.19236467     0             -0.14973149     0.0075876051 
  58310000   0.057111971   -0.19358777     0             -0.14834438     0.017003949  
  58320000   0.048603901   -0.19629024     0             -0.15778684    -0.012069523  
  58330000   0.048260346   -0.18457587     0             -0.14634463     0.013052123  
  58340000   0.050296936   -0.18646238     0             -0.14661778     0.0043645034 
  58350000   0.054798676   -0.1874589      0             -0.14404808    -0.0040194915 
  58360000   0.05332378    -0.18741806     0             -0.14517563     0.01575125   
  58370000   0.047200285   -0.18784899     0             -0.15045752     0.0024990521 
  58380000   0.050183908   -0.18037432     0             -0.14061925    -0.0046848471 
  58390000   0.051876801   -0.18137228     0             -0.14027612     0.021958743  
  58400000   0.052509777   -0.18651083     0             -0.14491324    -0.0071353981 
  58410000   0.045588471   -0.18923359     0             -0.15311897     0.0058451408 
  58420000   0.052107679   -0.19038971     0             -0.14911066    -0.012177807  
  58430000   0.056775523   -0.18961579     0             -0.14463893     0.0066018957 
  58440000   0.048728257   -0.18599067     0             -0.14738876     0.0041889092 
  58450000   0.048194738   -0.18323628     0             -0.14505701     0.019279135  
  58460000   0.048133962   -0.18744846     0             -0.14931733    -0.027433703  
  58470000   0.055774831   -0.18627471     0             -0.14209058    -0.030342093  
  58480000   0.04388902    -0.18643621     0             -0.15166788    -0.04050067   
  58490000   0.048245802   -0.18840698     0             -0.15018725     0.013342756  
  58500000   0.04634241    -0.18455526     0             -0.14784338     0.032561195  
  58510000   0.044172427   -0.18452607     0             -0.14953323     0.027118144  
  58520000   0.052084075   -0.18285462     0             -0.14159427    -0.0081138713 
  58530000   0.054700099   -0.194558       0             -0.15122526     0.012821908  
  58540000   0.050531222   -0.19450659     0             -0.15447639     0.0014034466 
  58550000   0.048914592   -0.19163292     0             -0.15288339     0.0037441247 
  58560000   0.050288054   -0.19124264     0             -0.15140507     0.017205788  
  58570000   0.044941855   -0.17306783     0             -0.13746546    -0.0042757162 
  58580000   0.052869386   -0.18029459     0             -0.13841213     0.00041857043
  58590000   0.052406247   -0.18585087     0             -0.1443353     -8.35494e-05  
  58600000   0.043646854   -0.18060066     0             -0.14602417     0.013425104  
  58610000   0.049462893   -0.1813059      0             -0.14212201     0.029343198  
  58620000   0.04746491    -0.18309495     0             -0.14549384    -0.0089251757 
  58630000   0.051953485   -0.18450207     0             -0.14334517     0.0072766614 
  58640000   0.049065117   -0.18404597     0             -0.1451772      0.0043369091 
  58650000   0.046705614   -0.17613371     0             -0.13913411     0.003922165  
  58660000   0.057371247   -0.18944792     0             -0.14399914     0.01217539   
  58670000   0.050273698   -0.18992572     0             -0.15009952     0.0058363714 
  58680000   0.048124513   -0.18605065     0             -0.14792702    -0.017997264  
  58690000   0.057500971   -0.1886771      0             -0.14312555    -0.019248423  
  58700000   0.054123405   -0.18554905     0             -0.14267317    -0.015111936  
  58710000   0.052458804   -0.17591087     0             -0.13435366    -0.022231011  
  58720000   0.048583874   -0.18394054     0             -0.14545301     0.012424067  
  58730000   0.052924636   -0.19076762     0             -0.14884139    -0.01168057   
  58740000   0.046580095   -0.18225621     0             -0.14535604     0.030287564  
  58750000   0.055086027   -0.1837384      0             -0.14009994    -0.0050000169 
  58760000   0.050591128   -0.17896824     0             -0.13889058    -0.0092117737 
  58770000   0.052004415   -0.18911914     0             -0.14792189    -0.035978856  
  58780000   0.051232957   -0.18581844     0             -0.14523233     0.012450866  
  58790000   0.057737169   -0.17495177     0             -0.12921311     0.0024427929 
  58800000   0.052603607   -0.17937882     0             -0.1377069      0.016725286  
  58810000   0.048491835   -0.17523268     0             -0.13681806    -0.010482779  
  58820000   0.050817436   -0.17877245     0             -0.13851551    -0.0059944314 
  58830000   0.054144165   -0.17809682     0             -0.13520449    -0.001089306  
  58840000   0.051730657   -0.1718758      0             -0.13089542     0.0062855203 
  58850000   0.050952826   -0.17761555     0             -0.13725136     0.0080270765 
  58860000   0.052909192   -0.17570544     0             -0.13379144     0.022862175  
  58870000   0.049438374   -0.17547641     0             -0.13631195     0.0060257319 
  58880000   0.046728116   -0.17549228     0             -0.13847485     0.02769076   
  58890000   0.053322344   -0.18760024     0             -0.14535894    -0.013756399  
  58900000   0.052842968   -0.18140398     0             -0.13954244    -0.001543562  
  58910000   0.051063389   -0.18434658     0             -0.1438948      0.013561659  
  58920000   0.050121196   -0.18229212     0             -0.14258673    -0.017227124  
  58930000   0.048185091   -0.18704215     0             -0.14887052    -0.030626865  
  58940000   0.053402006   -0.18354487     0             -0.14124046    -0.010371097  
  58950000   0.048734521   -0.18159292     0             -0.14298604    -0.014681657  
  58960000   0.049558844   -0.1759456      0             -0.1366857     -0.024291222  
  58970000   0.055602493   -0.16324477     0             -0.11919717     0.0056158228 
  58980000   0.050614659   -0.16929332     0             -0.12919702     0.013713748  
  58990000   0.049022312   -0.17329872     0             -0.13446385     0.026742586  
  59000000   0.050947419   -0.17921966     0             -0.13885976    -0.0013636936 
  59010000   0.048805221   -0.1754916      0             -0.13682871     0.013810415  
  59020000   0.048858803   -0.17457803     0             -0.13587269     0.018372158  
  59030000   0.050010234   -0.18036495     0             -0.14074747     0.0064600828 
  59040000   0.050280706   -0.17904784     0             -0.13921609     0.012446367  
  59050000   0.052761518   -0.1802434      0             -0.13844638    -0.0036469766 
  59060000   0.048796211   -0.17897753     0             -0.14032178    -0.00064632108
  59070000   0.048084839   -0.18173413     0             -0.14364193    -0.0096585039 
  59080000   0.055783624   -0.17283737     0             -0.12864628    -0.015174757  
  59090000   0.047862734   -0.17554816     0             -0.1376319      0.0056973261 
  59100000   0.045335358   -0.17339005     0             -0.13747595    -0.01350948   
  59110000   0.051734775   -0.17958252     0             -0.13859888    -0.0072586288 
  59120000   0.050020643   -0.17860929     0             -0.13898357    -0.0092956259 
  59130000   0.049671767   -0.17713283     0             -0.13778348    -0.025447255  
  59140000   0.052653297   -0.17838127     0             -0.13666999    -0.010441422  
  59150000   0.045551698   -0.18086289     0             -0.1447774      0.00079642102
  59160000   0.04995659    -0.1772952      0             -0.13772021     0.012935462  
  59170000   0.049323871   -0.18047802     0             -0.14140427    -0.010157991  
  59180000   0.045945608   -0.17022894     0             -0.1338314     -0.0057078644 
  59190000   0.045932391   -0.16628062     0             -0.12989355    -0.011097915  
  59200000   0.050943481   -0.17373398     0             -0.13337719     0.0045704395 
  59210000   0.051965421   -0.17162242     0             -0.13045606    -0.02293439   
  59220000   0.050229956   -0.17771977     0             -0.13792823     0.0010914849 
  59230000   0.049583128   -0.17956565     0             -0.14028652    -0.0018848844 
  59240000   0.05291222    -0.18100276     0             -0.13908636     0.0067311823 
  59250000   0.05225703    -0.16933588     0             -0.12793851    -0.00044341025
  59260000   0.046536479   -0.17029027     0             -0.13342465     0.0073554162 
  59270000   0.050340554   -0.17257428     0             -0.13269512     0.0081461926 
  59280000   0.047978101   -0.17035907     0             -0.13235142    -0.0069536459 
  59290000   0.048466208   -0.17448004     0             -0.13608572    -0.0048990076 
  59300000   0.047933796   -0.17242499     0             -0.13445244    -0.028598932  
  59310000   0.049008346   -0.17938022     0             -0.14055642     0.0044561963 
  59320000   0.053138074   -0.18511663     0             -0.14302131    -0.010161393  
  59330000   0.052874881   -0.18716198     0             -0.14527516     0.013111177  
  59340000   0.046474813   -0.17374349     0             -0.13692673    -0.027514662  
  59350000   0.0531781     -0.17843462     0             -0.13630759     0.00078308672
  59360000   0.053750825   -0.18596323     0             -0.14338249     0.0067465259 
  59370000   0.050947135   -0.18768543     0             -0.14732574    -0.00023701108
  59380000   0.048699282   -0.19060793     0             -0.15202897     0.013677763  
  59390000   0.053314434   -0.18790913     0             -0.14567411    -0.00064623833
  59400000   0.045492258   -0.182259       0             -0.1462206      0.024175002  
  59410000   0.049956067   -0.19435618     0             -0.15478161    -0.02909516   
  59420000   0.052105058   -0.18899274     0             -0.14771576    -0.0052822115 
  59430000   0.051449662   -0.19200017     0             -0.15124239     0.040710657  
  59440000   0.056544142   -0.19282256     0             -0.148029       0.0036768738 
  59450000   0.05327213    -0.18902917     0             -0.14682766    -0.0074328793 
  59460000   0.046931707   -0.1893605      0             -0.15218178    -0.0048161539 
  59470000   0.055056675   -0.19311823     0             -0.14950302    -0.027724145  
  59480000   0.0442909     -0.18849206     0             -0.15340536     0.01978856   
  59490000   0.054468715   -0.18926804     0             -0.1461186     -0.0029416196 
  59500000   0.052682904   -0.19221921     0             -0.15048448    -0.0027817576 
  59510000   0.050964608   -0.18637501     0             -0.14600149    -0.027175519  
  59520000   0.049475528   -0.18839039     0             -0.1491965      0.023715585  
  59530000   0.048102272   -0.18795214     0             -0.14984612     0.020967676  
  59540000   0.04707892    -0.18939685     0             -0.15210152    -0.0081852778 
  59550000   0.048424241   -0.19193148     0             -0.1535704      0.021454021  
  59560000   0.052758676   -0.18516456     0             -0.1433698      0.0067347511 
  59570000   0.052965193   -0.18256888     0             -0.14061051    -0.0021045855 
  59580000   0.053513358   -0.18608879     0             -0.14369618    -0.0052511572 
  59590000   0.050271603   -0.17989717     0             -0.14007263    -0.0030149817 
  59600000   0.054977938   -0.18407792     0             -0.14052509    -0.043775849  
  59610000   0.053609381   -0.18150252     0             -0.13903383     0.0013267222 
  59620000   0.046620639   -0.18312578     0             -0.14619349    -0.0012882664 
  59630000   0.056780407   -0.17959065     0             -0.13460992    -0.0054664556 
  59640000   0.045529982   -0.181402       0             -0.14533371    -0.028459654  
  59650000   0.045354986   -0.17495329     0             -0.13902364     0.0091328495 
  59660000   0.045006472   -0.17347822     0             -0.13782466     0.016613702  
  59670000   0.051895771   -0.16692711     0             -0.12581593    -0.010894618  
  59680000   0.057443708   -0.16697644     0             -0.12147026    -0.012477809  
  59690000   0.052099637   -0.17188947     0             -0.13061679     0.01251894   
  59700000   0.049320275   -0.18195707     0             -0.14288616    -0.00053635949
  59710000   0.053514949   -0.17697615     0             -0.13458227    -0.0044420633 
  59720000   0.053400965   -0.17455477     0             -0.13225119     0.0030538115 
  59730000   0.051555899   -0.16846806     0             -0.12762612     0.0020923229 
  59740000   0.052975245   -0.17305402     0             -0.1310877     -0.0092267099 
  59750000   0.05200903    -0.17810608     0             -0.13690517    -0.011586046  
  59760000   0.050772883   -0.1789239      0             -0.13870226     0.018028404  
  59770000   0.055311901   -0.18011413     0             -0.13629674     0.014027776  
  59780000   0.055278445   -0.17503737     0             -0.13124648    -0.0072611114 
  59790000   0.051957434   -0.18213872     0             -0.14097869     0.030963951  
  59800000   0.046605264   -0.17554235     0             -0.13862225    -0.014981657  
  59810000   0.046171884   -0.17779606     0             -0.14121927     0.022684363  
  59820000   0.055796894   -0.18077129     0             -0.13656969     0.0014496758 
  59830000   0.049151398   -0.18130671     0             -0.14236959    -0.015865474  
  59840000   0.050477086   -0.17842676     0             -0.13843944     0.0012796357 
  59850000   0.050288898   -0.18184906     0             -0.14201082     0.0067527756 
  59860000   0.050419471   -0.18306772     0             -0.14312605     0.0070987828 
  59870000   0.051664608   -0.18597759     0             -0.14504953     0.023252399  
  59880000   0.04717313    -0.18636879     0             -0.14899883    -0.031935711  
  59890000   0.049744345   -0.18611983     0             -0.14671298    -0.010084322  
  59900000   0.046780292   -0.18895542     0             -0.15189666    -0.015268017  
  59910000   0.049328668   -0.19080252     0             -0.15172497     0.010493463  
  59920000   0.050389091   -0.19185244     0             -0.15193483    -0.022098824  
  59930000   0.049220174   -0.18662646     0             -0.14763485     0.0024961366 
  59940000   0.047824384   -0.17976312     0             -0.14187724     0.0052048041 
  59950000   0.046791691   -0.18638682     0             -0.14931902     0.013125683  
  59960000   0.051414078   -0.18301079     0             -0.1422812     -0.019706801  
  59970000   0.048392511   -0.17930623     0             -0.14097029     0.016216064  
  59980000   0.04964441    -0.1810709      0             -0.14174322    -0.017755132  
  59990000   0.04811456    -0.17957046     0             -0.14145471    -0.017969006  
  60000000   0.052062557   -0.17717896     0             -0.13593566     0.0025758989 
Loop time of 4750.5 on 6 procs for 60000000 steps with 320 atoms

Performance: 5456269.961 tau/day, 12630.255 timesteps/s, 4.042 Matom-step/s
184.8% CPU use with 3 MPI tasks x 2 OpenMP threads

MPI task timing breakdown:
Section |  min time  |  avg time  |  max time  |%varavg| %total
---------------------------------------------------------------
Pair    | 365.88     | 417.36     | 468.1      | 204.3 |  8.79
Bond    | 2.4723     | 2.615      | 2.7667     |   7.4 |  0.06
Neigh   | 17.905     | 17.947     | 18.029     |   1.4 |  0.38
Comm    | 883.84     | 928.63     | 984.95     | 138.1 | 19.55
Output  | 0.94096    | 0.98668    | 1.042      |   4.2 |  0.02
Modify  | 3252.4     | 3264       | 3274.6     |  15.9 | 68.71
Other   |            | 119        |            |       |  2.50

Nlocal:        106.667 ave         177 max          30 min
Histogram: 1 0 0 0 0 1 0 0 0 1
Nghost:            480 ave         506 max         438 min
Histogram: 1 0 0 0 0 0 0 0 1 1
Neighs:              0 ave           0 max           0 min
Histogram: 3 0 0 0 0 0 0 0 0 0
FullNghs:      3164.67 ave        5730 max         328 min
Histogram: 1 0 0 0 0 1 0 0 0 1

Total # of neighbors = 9494
Ave neighs/atom = 29.66875
Ave special neighs/atom = 2.3125
Neighbor list builds = 100695
Dangerous builds = 0

#delete_atoms group Patches compress yes bond yes
#create_bonds many CL MO 1 0.0 1.56
#reset_atoms id
#resete_atoms mol all
#write_data data.test
Total wall time: 1:19:10
