LAMMPS data file via write_data, version 19 Nov 2024, timestep = 100000, units = lj

79 atoms
4 atom types
54 bonds
1 bond types
35 angles
2 angle types

-3.045986 3.045986 xlo xhi
-3.045986 3.045986 ylo yhi
-3.045986 3.045986 zlo zhi
-1.120259440767768e-11 0 0 xy xz yz

Masses

1 1
2 1
3 0.1
4 0.1

Bond Coeffs # harmonic/omp

1 100 0.45

Angle Coeffs # harmonic/omp

1 100 180
2 100 109.471

Atoms # full

44 14 2 0 -1.6998575500908017 -2.6218732458319693 -2.835204875672792 0 -1 1
45 14 4 0 -1.3566123579641467 -2.4237343783683643 -2.6084686897872094 0 -1 1
67 21 4 0 -1.0811741488247142 -2.1447893726511142 -2.559542961708483 0 0 1
46 14 4 0 -2.025090593156098 -2.819901555018887 -3.0457125343950864 0 -1 1
65 21 2 0 -0.6337771225180764 -2.1772747682159923 -2.5579024117195788 0 0 1
66 21 4 0 -0.18831446727330636 -2.1997935944940754 -2.5503010877706895 0 0 1
24 7 4 0 -2.1042276537643914 -0.8199234155865507 -0.026822266243234694 0 0 1
70 22 4 0 -0.09477562273880036 -0.4830093945168068 -0.1796422987328965 1 0 0
14 4 2 0 -2.718182238867489 -1.1059932903421914 0.33605483968626304 0 1 1
16 4 4 0 -2.9376123981236906 -1.3508760570025862 0.6397677647303142 0 1 1
15 4 4 0 -2.494752657380389 -0.854541078200183 0.013048808321224126 0 1 1
23 7 2 0 -1.893748903950803 -0.43814476766422494 0.13024001793848594 0 0 1
25 7 4 0 -1.6930765644508954 -0.06832671460091433 0.27747143389211715 0 0 1
68 22 2 0 -0.4048619692754154 -0.35763578867574397 0.10973184331993924 1 0 0
69 22 4 0 -0.73204596856948 -0.23033283236240765 0.4246916999699377 1 0 0
13 3 4 0 -2.191606446827029 -2.926459722315729 2.700948965663941 0 0 0
56 18 2 0 -0.26398289318025014 1.6546610353440707 -2.097920310414271 1 0 1
21 6 4 0 -1.526039265007156 0.9069673449638627 -1.2760017990008414 1 0 1
27 8 4 0 -1.8456056141667718 0.7130162958815389 -1.1102943407645351 1 0 1
20 6 2 0 -1.236531581482396 1.196486618138259 -1.4848169256797454 1 0 1
22 6 4 0 -0.9433027417719604 1.5002811172969324 -1.6951086059030336 1 0 1
58 18 4 0 -0.5623869249965825 1.550172856402674 -1.8000418642456864 1 0 1
28 8 4 0 -2.4084392944027577 0.24341565433921009 -0.5364194732397491 1 0 1
55 17 4 0 -2.78669485616728 0.2223165702022878 -0.41593261354610256 2 0 1
26 8 2 0 -2.122303073650538 0.4794889077015392 -0.8278837714544478 1 0 1
8 2 3 0 -1.5601005181788083 0.20481625477640453 0.5436184267093482 1 0 1
7 2 3 0 -1.3624468849117617 0.8895654562945254 0.7308897193294928 1 0 1
6 2 1 0 -1.2105166756334218 0.48443779910058016 0.5939816571305108 1 0 1
9 2 3 0 -0.9898523316153489 0.5353295569461651 0.19180418353070872 1 0 1
10 2 3 0 -0.9233441019638815 0.3111281569932687 0.9220726069222236 1 0 1
76 24 4 0 -0.5613527882254239 0.4914951797046476 0.9597140638416253 1 0 1
51 16 4 0 -2.195168824740753 1.6457967008100738 0.7074728238509937 1 -1 1
52 16 4 0 -1.4116270479192765 1.273231525454567 0.6371944683607058 1 -1 1
50 16 2 0 -1.8103161498399882 1.4600123399099552 0.6706231878134847 1 -1 1
74 24 2 0 -0.29665659841693426 0.7482310279756006 1.1990584090564678 1 0 1
75 24 4 0 -0.012234609819640418 1.0198574746663338 1.4485831154040012 1 0 1
11 3 2 0 -2.5831244716097777 2.9452901101831728 2.6808411242761343 1 -1 0
12 3 4 0 -2.9962154995245203 2.7139229772671074 2.662297138507885 1 -1 0
48 15 4 0 0.05840709090942742 -2.033945839992155 -2.8387511052774608 0 0 1
71 23 2 0 0.6314581287758818 -0.5537005372773889 -0.43889376366480004 1 0 0
73 23 4 0 0.2947437213738766 -0.5312222446633394 -0.16293576452989944 1 0 0
72 23 4 0 0.9833378206749472 -0.5771612683486618 -0.7267968593602876 1 0 0
17 5 2 0 1.7336445302566963 -0.2866485362085802 -0.695407894197273 1 0 0
19 5 4 0 1.3216054694452914 -0.3944365947531536 -0.6042726196998642 1 0 0
54 17 4 0 2.5617092053329955 -0.1431032854942722 -0.7849861110724792 1 0 1
18 5 4 0 2.1550545474353786 -0.1705847595217067 -0.7831007039365412 1 0 0
30 9 4 0 1.6337175492410996 -2.8156731876079375 1.7894098613877611 -1 1 0
78 25 4 0 1.5078681966088148 -2.4598986420818925 1.9291585825649191 0 1 1
79 25 4 0 0.9353475565762368 -2.319107807955361 2.6243448079390417 0 1 1
77 25 2 0 1.2102423067877686 -2.3871786793698093 2.2854914253717737 0 1 1
49 15 4 0 0.6921921296979816 -2.004521065460949 2.653150857788936 0 0 0
47 15 2 0 0.374298874506549 -2.0239578904785533 2.9579046625914653 0 0 0
61 19 4 0 0.2597234674508342 1.7491116898303103 -2.7533008705489213 1 0 1
57 18 4 0 0.05163128946918549 1.7696056350159992 -2.4104028499298646 1 0 1
53 17 2 0 2.9271657824219757 0.03874026623637583 -0.5983676581428536 1 0 1
33 10 4 0 0.048799348646368035 1.6871632169120314 0.15283586289433204 1 0 0
32 10 2 0 0.3153949305974675 2.0323572062773616 0.2953316806755204 1 0 0
42 13 4 0 0.6448005142321409 2.7143640679311147 0.24783109869193032 1 0 1
34 10 4 0 0.5850884788832689 2.3742338374628904 0.4423812390317412 1 0 0
41 13 2 0 1.0831135573318535 2.8441237526192475 0.3606544676298755 1 0 1
36 11 4 0 1.9025588040922887 2.938338778493967 0.48700676972551404 0 0 1
43 13 4 0 1.5146987685511304 2.976798084301289 0.4813250232034014 1 0 1
37 11 4 0 2.732526445588177 3.024933889774972 0.8259458208404573 -1 0 1
35 11 2 0 2.3337395024477345 2.9801361506979127 0.6643716411139877 -1 0 1
64 20 4 0 0.33247157243313685 0.8126913756519296 1.4843248770706072 1 0 0
62 20 2 0 0.6387350137672683 1.0011469042818133 1.7515645718578687 1 0 0
63 20 4 0 0.9599873927717155 1.2049256594182536 2.0281354781191867 1 0 0
5 1 3 0 1.4456708528507276 2.1688684970886216 1.9287331620640789 0 0 0
29 9 2 0 1.687819706380422 2.8353507587262294 1.7884607475008156 0 0 0
31 9 4 0 1.7435104661540954 2.4024829410648048 1.78079419255201 0 0 0
60 19 4 0 0.9473819739146214 1.6651653644407185 2.750391083580104 1 0 0
59 19 2 0 0.6090460803020035 1.7079606670223368 3.0401457475113576 1 0 0
2 1 3 0 1.2579878927466916 1.4500784367948443 2.05085675120276 0 0 0
1 1 1 0 1.3753439722547727 1.8494984072430931 2.2537605611616733 0 0 0
3 1 3 0 1.0312296874081976 1.992577331429211 2.524375083413724 0 0 0
4 1 3 0 1.7350727865558984 1.7883735556562401 2.4881272481411125 0 0 0
39 12 4 0 2.0338933576425076 2.0857245898361922 2.55891682857182 0 0 0
40 12 4 0 2.7056378831832983 2.6869171255152846 2.7098881738228595 0 0 0
38 12 2 0 2.3704550902428405 2.387373061383923 2.6369274783147008 0 0 0

Velocities

44 0.050793653736030495 -0.15075126169035463 -0.13826904319928573
45 0.44209598801095323 -0.2222413423684096 0.27191239789387317
67 0.6218356919938766 0.39899886173012705 0.9140264863232642
46 0.16359797476544505 1.0167391194017656 0.37285484245765915
65 -0.42090537147268803 0.17833843529924268 -0.13054763609732611
66 -0.10934608142305956 0.804159716996328 0.24006433084612716
24 -1.0091619108088141 0.7226884677614006 -0.4733332088851733
70 -0.42761312604088625 0.20460543030847833 -0.352926468562348
14 0.00040868544027090913 -0.003246241665520843 -0.01996697557520805
16 0.2050776640974211 -0.03222319324283849 -0.6455763560393037
15 -0.010783292046784208 -0.5193277275690403 0.1466896889242783
23 0.01697584499964365 -0.09734108136910388 0.04113468473202405
25 0.14816017995382955 0.443751359958648 -0.14960917217002181
68 -0.04670044483274713 0.018656547860855292 0.018326189787661516
69 -0.7506347673083458 0.2930988382423424 -0.7637840737495973
13 -0.19593058297002078 -0.4724651623245355 0.4252987277871109
56 0.0162871639698305 -0.17194769391850087 -0.028565758217457816
21 0.3015135011222138 0.1129698550912487 0.01318444259658727
27 0.9443107644418909 -0.17610342540692928 -0.15588758269433547
20 0.029779490603801743 0.17124746190947693 -0.027537225190659383
22 0.5450714599378504 0.052463299798840284 -0.20019964512507363
58 -0.17322378757086626 -0.9337775255732695 0.25117117203843803
28 0.6387302881785056 0.4467862783999851 0.06392381160254554
55 -0.28333522485517093 -0.030970262334307726 0.26065562302561096
26 0.1030036212271545 0.07623829832977311 -0.2255366445149157
8 0.8116562409775122 0.5166424889609934 -1.1027112561740904
7 0.6072994458494471 -0.19636151254110407 -0.31319715742551735
6 0.18194696060902144 -0.17554380827179975 -0.020762021093939733
9 -0.2136502339846936 0.03883814618971307 -0.03430264242178867
10 -0.6421152065291357 -0.8025017591080625 -0.22740401765344936
76 0.5278838554944223 -0.20917245183383215 0.7728082160412758
51 0.149310660906378 0.19235962882070048 -0.6750819231480479
52 0.47169544033435157 -0.13524641349524713 -0.7228234861378466
50 0.030135909839052517 -0.1898192301589214 -0.11280269259625365
74 -0.057177772778328605 -0.21804249634614617 0.053791120228024826
75 0.906517110661598 0.6498322720384381 0.2958392796945223
11 0.23515970576038844 0.03574771356510711 -0.0284444500465604
12 0.31938383312385643 -0.3843117661395699 0.46668459923677885
48 -0.4317656471930034 -1.0255161034722051 0.08336984538801284
71 -0.08283650866824077 0.03526008498310268 0.059862951505657666
73 -0.2635700716188166 1.2914473136820133 -0.9973381511057573
72 -0.05133997077291344 -0.03696483283819697 -0.4019799982312307
17 -0.3055839270761978 0.23589631946586012 -0.028619068803839146
19 0.17219181717109794 -0.13449819875734534 0.01716724969131949
54 -0.41584957268440215 0.207479789603825 0.2691836918565893
18 -0.4026045006680491 0.48636916768016714 -0.41070274690428366
30 -0.30166286537767967 -0.5476821280191448 0.4185139489940069
78 -0.2711745559183765 -0.3876439918652013 -0.19759035278037423
79 0.4958718372477622 -0.8533739347338652 0.5315806936578643
77 0.08928433576905646 -0.3617899053321815 0.3033596376609743
49 -0.018260458639099874 0.9418905496061866 0.17700443453163361
47 -0.23139375882095253 0.02207591515836432 0.21808545102164392
61 -0.2799500660591367 0.14344255825570293 0.05337254366379641
57 -0.5701601926546458 -0.6545911184828892 -0.5257316088984896
53 0.1617389917532798 -0.21218114915277755 0.10478487475980867
33 -0.637462622120729 -0.5865971581095213 0.5053026868900617
32 -0.031346884461396766 0.1100916085905575 -0.009596228074599521
42 -0.09042301558728356 -1.0236768107712413 0.05080145895601815
34 0.25627078419125165 -0.31603489297538934 -0.037865526112458886
41 0.08253560387018138 -0.1732431112564314 0.23502790227561315
36 0.6321628828461401 -0.43968529709362547 0.5430781652871041
43 -0.5091336970822598 -0.32176908581446656 0.4931727846996284
37 -0.2509059654865598 -0.5979325014383263 0.37273123885033044
35 -0.002259656508133183 0.07630782934388335 0.05852133670605805
64 -0.3175845454620313 -0.3686159865161057 0.5935678471923909
62 0.06293833997595605 -0.10201529134985567 -0.13079591642473695
63 0.9218773922121591 -0.3658716250291638 0.3613479268531632
5 0.285986677432081 0.1400328112859639 -0.30346658718321956
29 -0.005486252386853905 -0.13414397898209418 0.04058127933048219
31 -0.23997380132276058 -0.4769030931542211 0.06422021825854238
60 0.05523706567478494 0.4194430609417005 -0.09466599885888874
59 0.08246204190970946 0.09858727282285226 0.05547213279899148
2 -0.43675394521952826 -0.11476501680367501 -0.2336215275842767
1 -0.036550485668567397 0.060780062664856443 0.18233870732527682
3 -0.053748217779343806 0.4579345189722262 0.49835153884577643
4 0.930319896255472 -1.1169112371012169 0.2321976924680673
39 0.8650538217624169 0.9273422367658923 0.10842832176277467
40 -0.5077499845600483 0.009970543714522002 0.19340051921794188
38 -0.0787340519477975 0.16825882083899496 -0.09857578516181581

Bonds

1 1 44 45
2 1 44 46
3 1 65 66
4 1 65 67
5 1 14 15
6 1 14 16
7 1 23 24
8 1 23 25
9 1 68 69
10 1 68 70
11 1 56 57
12 1 56 58
13 1 20 21
14 1 20 22
15 1 26 27
16 1 26 28
17 1 6 7
18 1 6 8
19 1 6 9
20 1 6 10
21 1 50 51
22 1 50 52
23 1 74 75
24 1 74 76
25 1 11 12
26 1 11 13
27 1 71 72
28 1 71 73
29 1 17 18
30 1 17 19
31 1 77 78
32 1 77 79
33 1 47 48
34 1 47 49
35 1 53 54
36 1 53 55
37 1 32 33
38 1 32 34
39 1 41 42
40 1 41 43
41 1 35 36
42 1 35 37
43 1 62 63
44 1 62 64
45 1 29 30
46 1 29 31
47 1 59 60
48 1 59 61
49 1 1 2
50 1 1 3
51 1 1 4
52 1 1 5
53 1 38 39
54 1 38 40

Angles

1 1 45 44 46
2 1 66 65 67
3 1 15 14 16
4 1 24 23 25
5 1 69 68 70
6 1 57 56 58
7 1 21 20 22
8 1 27 26 28
9 2 7 6 8
10 2 7 6 9
11 2 7 6 10
12 2 8 6 9
13 2 8 6 10
14 2 9 6 10
15 1 51 50 52
16 1 75 74 76
17 1 12 11 13
18 1 72 71 73
19 1 18 17 19
20 1 78 77 79
21 1 48 47 49
22 1 54 53 55
23 1 33 32 34
24 1 42 41 43
25 1 36 35 37
26 1 63 62 64
27 1 30 29 31
28 1 60 59 61
29 2 2 1 3
30 2 2 1 4
31 2 2 1 5
32 2 3 1 4
33 2 3 1 5
34 2 4 1 5
35 1 39 38 40
