LAMMPS data file via write_data, version 29 Aug 2024, timestep = 20000, units = lj

5 atoms
4 atom types
4 bonds
1 bond types
6 angles
2 angle types

-0.566515 0.566515 xlo xhi
-0.566515 0.566515 ylo yhi
-0.566515 0.566515 zlo zhi
0 0 0 xy xz yz

Masses

1 1
2 1
3 1
4 1

Bond Coeffs # harmonic/omp

1 100 0.5

Angle Coeffs # harmonic/omp

1 100 180
2 100 109.471

Atoms # full

4 1 3 0 -0.15521501102828766 -0.2604285936697618 -0.31482032061125886 11 3 16
1 1 1 0 -0.46609125806773755 0.08997802776573305 -0.17576494281708888 11 3 16
3 1 3 0 -0.2146876596996623 0.4887288161498563 -0.031816214054849135 11 3 16
2 1 3 0 0.39633045606438055 -0.07501451603127302 0.20135057431032577 10 3 16
5 1 3 0 0.34585810051599963 0.21384604933647733 0.5499976917772454 10 3 15

Velocities

4 0.014890758285741105 -0.28072188925212715 -0.16866962609163808
1 0.030010722421708824 -0.23050911325183557 -0.03310193844535718
3 0.08021817689705361 -0.044848904000674275 0.1023093925112025
2 0.13421245379276742 -0.01885459155328406 -0.056446162573663826
5 0.06963126915783367 0.5749344980579211 0.15590833459945608

Bonds

1 1 1 2
2 1 1 3
3 1 1 4
4 1 1 5

Angles

1 2 2 1 3
2 2 2 1 4
3 2 2 1 5
4 2 3 1 4
5 2 3 1 5
6 2 4 1 5
