LAMMPS data file via write_data, version 4 Feb 2025, timestep = 400000, units = lj

3100 atoms
4 atom types
2100 bonds
1 bond types
1250 angles
2 angle types

-10.410592 10.410592 xlo xhi
-10.410592 10.410592 ylo yhi
-10.410592 10.410592 zlo zhi
-6.394884621840902e-14 0 0 xy xz yz

Masses

1 1
2 1
3 0.1
4 0.1

Bond Coeffs # harmonic/omp

1 100 0.45

Angle Coeffs # harmonic/omp

1 100 180
2 100 109.471

Atoms # full

1026 309 4 0 -5.805776187881374 -8.723677191883839 -9.898610678506579 33 1 0
1930 610 4 0 -9.215460553818353 -3.979091089230095 -9.80141497456004 16 0 1
1928 610 2 0 -8.833331208585701 -4.0569408250377155 -9.984558760206038 16 0 1
1929 610 4 0 -8.41510484828348 -4.140845643908 -10.186683449591436 16 0 1
2918 940 2 0 -0.12753700619080632 -3.6395671342017035 -9.70178930096679 19 0 1
2520 807 4 0 -4.528854125090181 -3.322591946982497 -10.20378218882684 33 1 0
837 246 4 0 -4.224558755702109 -3.127236026557176 -10.365147935580135 12 0 1
1285 395 4 0 -6.502550986605278 -2.123959419692886 -9.555394400329183 14 0 0
1198 366 4 0 -6.373456986235411 -2.187067779416145 -9.916570787601106 35 1 0
1196 366 2 0 -6.1040795595199855 -2.0311940905451493 -10.239860630206561 35 1 0
723 208 4 0 -3.191371066782086 -2.3774984468696534 -9.707985631732276 -4 -1 1
1127 343 2 0 -5.208198558186967 -9.57835593471915 -8.835546644501175 33 1 0
1025 309 2 0 -5.739048187603128 -8.85828319969071 -9.453123415735998 33 1 0
1128 343 4 0 -5.469558029658303 -9.325951989483855 -9.090597650774543 33 1 0
1027 309 4 0 -5.680947691049507 -8.999752999705827 -9.019344365883054 33 1 0
2745 882 4 0 -8.96306150582953 -8.526257906394886 -8.74956195455897 27 1 0
2350 750 4 0 -8.70804152800051 -8.532922738915843 -9.091492967239311 10 0 1
2348 750 2 0 -8.244201381391955 -8.481889608700666 -9.033343798760857 10 0 1
2349 750 4 0 -7.824283917086618 -8.432992776906625 -8.985247295359494 10 0 1
396 99 4 0 -7.513165278363608 -8.413025284134998 -8.75282475045746 29 1 0
1784 562 2 0 -9.81436032397601 -4.035920830123906 -9.470353205015762 16 0 0
1785 562 4 0 -10.237622280899727 -4.190527460123541 -9.531379414904823 16 0 0
1786 562 4 0 -9.384981431632594 -3.8852752999638156 -9.419074796180432 16 0 0
2919 940 4 0 -0.2571509910951111 -3.8846635458889223 -9.329590267282821 19 0 1
2430 777 4 0 -0.41498087402745654 -3.9986628487666396 -8.993740005195273 17 0 0
1080 327 4 0 -8.612531441261309 -2.169384780701872 -9.037197908324567 16 0 0
1079 327 2 0 -8.207082557572665 -2.0553759242605967 -9.17707194565514 16 0 0
1284 395 4 0 -7.418781934081814 -2.0701082569233495 -9.452335215402696 14 0 0
1283 395 2 0 -6.954065287673327 -2.0980573626510264 -9.502813921609864 14 0 0
1081 327 4 0 -7.780245834757892 -1.941982485182482 -9.321661206497588 16 0 0
722 208 2 0 -3.525920962885512 -2.2791505416180318 -9.461492120643069 -4 -1 1
724 208 4 0 -3.875423722244835 -2.1887494920481085 -9.194027966663981 -4 -1 1
2512 804 4 0 -3.8491991893433672 -2.1628844175773914 -8.779244849182968 16 0 0
1129 343 4 0 -4.9292334889285625 -9.857002782094641 -8.567530990898172 33 1 0
708 203 4 0 -10.019601871589384 -8.291423130836398 -8.115811621508138 4 0 1
2746 882 4 0 -9.737095956180049 -8.369743110175463 -8.380072383942718 27 1 0
707 203 2 0 -10.358242755089861 -8.019245832392052 -8.26523821504277 4 0 1
2744 882 2 0 -9.358359019630065 -8.446583197698573 -8.559933746835991 27 1 0
395 99 2 0 -7.294220485031742 -8.238207521953193 -8.387646199217794 29 1 0
397 99 4 0 -7.0810561467321005 -8.05904227008208 -8.004197919061113 29 1 0
2256 719 4 0 -4.621070753741919 -3.549937935068378 -8.43585380453962 15 0 1
2255 719 2 0 -4.190096911888055 -3.560398829956558 -8.354930160788621 15 0 1
2257 719 4 0 -3.7291226137394196 -3.5774820996826655 -8.276767710034337 15 0 1
631 177 4 0 -3.317116114093828 -3.572284104675374 -8.258910932197642 15 0 1
2429 777 2 0 -0.2982039710797242 -3.843265822551121 -8.601176116390166 17 0 0
2431 777 4 0 -0.19136683252638242 -3.678390576906607 -8.213424226774741 17 0 0
629 177 2 0 -2.8817015444674245 -3.4041501793888216 -8.284506982417927 15 0 1
630 177 4 0 -2.475034837721627 -3.2527594482370468 -8.309307298862398 15 0 1
2241 714 4 0 -2.0912339812587657 -3.2294799546334625 -8.124120868838293 17 0 0
2240 714 2 0 -1.659412135390296 -3.0667012953242496 -8.096253841309363 17 0 0
2242 714 4 0 -1.2406331999268936 -2.902604223471511 -8.05979799316933 17 0 0
33 7 3 0 -0.012742742542515728 -3.293543450894872 -8.325511179892912 16 0 0
473 125 2 0 -8.731760321381223 -1.9021166836313732 -8.215605640669297 16 0 0
474 125 4 0 -8.618556658604916 -1.9932199054694077 -8.651754756108708 16 0 0
2510 804 2 0 -3.8556766355363656 -1.7913814816415439 -8.504721130957108 16 0 0
921 274 4 0 -3.796590042698173 -1.0240017862030406 -8.241211234707757 16 0 0
2511 804 4 0 -3.852656532245601 -1.412077932937402 -8.229086014545905 16 0 0
1260 387 4 0 -5.685144059909324 -0.5969531960251526 -7.976434606763752 16 0 0
1259 387 2 0 -5.249219245267423 -0.4756369130684508 -7.968625790209089 16 0 0
1261 387 4 0 -4.83680862436861 -0.3566658415117505 -7.960255719880338 16 0 0
922 274 4 0 -4.526746915105555 -0.6243518831172548 -7.871811592441108 16 0 0
920 274 2 0 -4.151775690809597 -0.8320257759465655 -8.050590275967632 16 0 0
2814 905 4 0 -9.493240690691032 -9.637030659152547 -7.262468889118853 26 1 1
2494 798 4 0 -9.180609927353524 -9.836154467094339 -7.156075838243031 28 1 0
2492 798 2 0 -8.776184138758266 -9.751968495438307 -7.292910903518914 28 1 0
2493 798 4 0 -8.35469732765626 -9.66470011082347 -7.447097517189812 28 1 0
1698 533 4 0 -7.978904649415474 -9.735181812179519 -7.333022524200398 7 0 0
1697 533 2 0 -7.522920538975999 -9.681128678839308 -7.284718225933392 7 0 0
1699 533 4 0 -7.070970359517084 -9.624499090631861 -7.242399682984993 7 0 0
27 6 3 0 -6.746099948072365 -9.849517071739003 -7.317079300648112 7 0 0
26 6 1 0 -6.353639257520018 -9.790548362837407 -7.073664137134667 7 0 0
28 6 3 0 -6.015941004556818 -9.957935461434982 -7.304596475714462 7 0 0
2103 668 4 0 -5.622818385218197 -9.917578351939783 -7.302052469021088 8 0 1
2102 668 2 0 -5.154680625158904 -9.994093026965134 -7.363214959902507 8 0 1
2104 668 4 0 -4.70076969842759 -10.064980636193898 -7.422667149633393 8 0 1
1610 504 2 0 -3.878004478907302 -10.121835862630503 -7.6428709835310205 7 0 1
1612 504 4 0 -4.311827923452144 -10.067027178602208 -7.509407123773117 7 0 1
1611 504 4 0 -3.453945774082885 -10.182249159372974 -7.766729113532009 7 0 1
618 173 4 0 -3.083738226223378 -10.343925237286193 -7.6789917531828324 6 0 1
2813 905 2 0 -9.921586462755245 -9.492745068330601 -7.201257995318418 26 1 1
2815 905 4 0 -10.349092583737725 -9.346699758308093 -7.149966490118361 26 1 1
29 6 3 0 -6.2881809507114115 -9.35939289701064 -7.014352965310811 7 0 0
2565 822 4 0 -7.120707601076172 -7.966100301576869 -7.609745545283764 31 1 0
2564 822 2 0 -7.108766703597501 -8.09381106355021 -7.16255840370985 31 1 0
421 107 4 0 -7.610757889874037 -6.687923941378758 -7.274793892647359 8 0 0
532 144 4 0 -1.1267526690319833 -2.8141433104035123 -7.6550972152506 16 0 0
530 144 2 0 -0.6616259524838881 -2.7544013003618772 -7.711548152836628 16 0 0
531 144 4 0 -0.20806714484455924 -2.6920782681020805 -7.784745791263461 16 0 0
475 125 4 0 -8.842506503443216 -1.816664323322696 -7.794061864956779 16 0 0
1959 620 4 0 -8.663421810574189 -1.983153512240131 -7.043218354392973 17 0 1
2342 748 2 0 -5.61280949817204 -2.0149927025425836 -7.132453473038745 17 0 0
3006 969 4 0 -9.957245796457702 -1.3767633215060702 -7.183599113480449 17 0 1
3013 971 4 0 -10.284852194949531 -1.203954508693057 -7.307668774880669 37 1 0
3007 969 4 0 -9.124838329050364 -1.047656711063233 -7.306851533748815 17 0 1
3005 969 2 0 -9.541482572395676 -1.2086012554060108 -7.245257105707418 17 0 1
132 27 3 0 -8.74278552349127 -1.0886965654655008 -7.217013797449129 17 0 0
134 27 3 0 -8.527379126537097 -1.5843335592886394 -7.717781005743729 17 0 0
131 27 1 0 -8.420969062268222 -1.3789241125986482 -7.325938918585038 17 0 0
133 27 3 0 -8.381017187265213 -1.6916286069638513 -6.992568625128831 17 0 0
135 27 3 0 -8.04224267601233 -1.1645759660243904 -7.367242231850675 17 0 0
1863 588 4 0 -7.819863816361922 -0.9460192143879116 -7.638409408141529 17 0 0
175 35 3 0 -6.597907531031282 -0.8971030433420868 -7.402943706173628 17 0 0
171 35 1 0 -6.160116468105062 -1.013112102462637 -7.402135870366957 17 0 0
172 35 3 0 -6.131042497582764 -1.4815610878760364 -7.446634194555836 17 0 0
2343 748 4 0 -5.780764188131064 -1.644184276616011 -7.366825805687025 17 0 0
173 35 3 0 -5.951432402258808 -0.8840252250281448 -6.990365092583517 17 0 0
1862 588 2 0 -7.379734009896286 -0.8381642013265616 -7.529907250620541 17 0 0
1864 588 4 0 -6.955381879612616 -0.7446448383335245 -7.42909559521572 17 0 0
174 35 3 0 -5.9505724233020745 -0.8053171895119267 -7.7517150201985086 17 0 0
30 6 3 0 -6.385294044261492 -9.993137488591831 -6.673601462104982 7 0 0
1750 550 4 0 -6.072008396564076 -9.954644785736292 -6.433995426597814 7 0 0
2384 762 2 0 -0.512621558039811 -10.198189891080858 -6.083040971912689 6 0 0
2386 762 4 0 -0.11718519288971052 -10.15173505625503 -6.283944194687201 6 0 0
2667 856 4 0 -6.0287424104202625 -9.082014519341994 -6.927636951804651 27 1 0
2666 856 2 0 -5.96328845074562 -8.6846321463012 -6.7889870297243045 27 1 0
763 221 4 0 -4.314294892398403 -8.891602184832456 -6.905642370447894 27 1 0
761 221 2 0 -3.8642298143514697 -8.904631409501642 -6.826663706464959 27 1 0
762 221 4 0 -3.4184986032594322 -8.913619270967331 -6.752731248702909 27 1 0
2552 818 2 0 -2.7478247725179683 -8.932961004777376 -6.308500081563624 27 1 0
2553 818 4 0 -3.1560073804842457 -9.065458978788088 -6.474977974497856 27 1 0
2554 818 4 0 -2.349952383954127 -8.813341293528428 -6.144421128555044 27 1 0
2566 822 4 0 -7.0945178789693095 -8.22149537626753 -6.709514415770139 31 1 0
1776 559 4 0 -7.14071767098321 -8.191285619953396 -6.327661750490127 11 0 0
1775 559 2 0 -7.483770019842142 -8.397593151278894 -6.156471191308345 11 0 0
2668 856 4 0 -5.906280599556837 -8.27188195324777 -6.63343806799852 27 1 0
1362 421 4 0 -1.0711502987320163 -8.436915663792592 -6.272372834869593 26 1 0
1361 421 2 0 -0.6845223106796503 -8.482723771797124 -6.507991304878793 26 1 0
1363 421 4 0 -0.2892190664069645 -8.531938427357845 -6.732806749376255 26 1 0
2952 951 4 0 -10.257264957699885 -6.395236137688332 -6.732978969167788 11 0 1
2951 951 2 0 -9.816089946561855 -6.259215811367348 -6.694334147115601 11 0 1
2953 951 4 0 -9.359790323731444 -6.113390227494776 -6.660086973296304 11 0 1
420 107 4 0 -7.281079755505935 -6.375511935175268 -6.484013643370809 8 0 0
419 107 2 0 -7.447917508744488 -6.536834146928359 -6.8857376385322615 8 0 0
654 185 4 0 -6.914853505552015 -6.51981113082133 -6.397561695159427 8 0 1
653 185 2 0 -6.46267352459542 -6.380195687172567 -6.289338869403721 8 0 1
655 185 4 0 -6.059092769912279 -6.262032321682545 -6.1836418461810565 8 0 1
2238 713 4 0 -5.625769752839303 -6.290130297275842 -6.243307319029585 12 0 1
2237 713 2 0 -5.207618536058074 -6.1033248641324755 -6.286604527528594 12 0 1
2929 943 4 0 -4.470083361727513 -6.0999668669405205 -6.4456371651629905 11 0 0
2307 736 4 0 -1.6226588137538283 -6.342496957361081 -6.165292975909943 13 0 1
1461 454 4 0 -1.238440744061533 -6.340969541857437 -6.278557936574366 12 0 0
1460 454 2 0 -0.7772280061942549 -6.282008475397657 -6.212803901841909 12 0 0
1462 454 4 0 -0.30097593965877856 -6.230067865731957 -6.144016719588973 12 0 0
2516 806 2 0 -8.864337548660817 -5.750267288772788 -6.222410664435507 11 0 0
2517 806 4 0 -9.020257533232115 -5.978937474790257 -6.567917333923153 11 0 0
2239 713 4 0 -4.813925110129959 -5.931172730599656 -6.319718244879062 12 0 1
2927 943 2 0 -4.026897106331329 -6.060842392365348 -6.395817807203337 11 0 0
2928 943 4 0 -3.5382943436948047 -6.024495131911609 -6.336504609298082 11 0 0
150 30 3 0 -3.2519194146506294 -5.757067247433585 -6.3867071061055505 12 0 0
2012 638 2 0 -8.985683604258085 -3.3817283761636627 -6.299099118413592 -4 -1 0
3087 996 4 0 -8.28967828101988 -3.1781219143892026 -6.375243336197956 17 0 1
2013 638 4 0 -8.62137699540612 -3.202403514894214 -6.573542636656519 -4 -1 0
3086 996 2 0 -7.838543168024696 -3.1720924902308907 -6.480681603351233 17 0 1
3088 996 4 0 -7.413701711148942 -3.1728908584757605 -6.584404600716216 17 0 1
484 128 4 0 -7.033363147944289 -3.3123914125900473 -6.557692728570285 -4 -1 1
482 128 2 0 -6.570632814733858 -3.31440897709588 -6.572463177373278 -4 -1 1
483 128 4 0 -6.138039775426937 -3.318453066435266 -6.5849729710856435 -4 -1 1
207 42 3 0 -5.7538428035905085 -3.3061202551793247 -6.433495326299875 17 0 0
206 42 1 0 -5.375890084952249 -3.0551210664254356 -6.391658800773723 17 0 0
208 42 3 0 -5.372614960360101 -2.7209394010903782 -6.71302171328349 17 0 0
210 42 3 0 -4.996046839208954 -3.323978012255795 -6.441527595336103 17 0 0
547 149 4 0 -4.608475758737538 -3.218219919706388 -6.336022959602357 16 0 0
545 149 2 0 -4.211478700611284 -3.1112496051636445 -6.481265623427385 16 0 0
546 149 4 0 -3.7821465953684736 -2.9879981792343546 -6.643106445644189 16 0 0
359 87 2 0 -2.9724147692073783 -2.912009700699307 -6.515270980762874 17 0 0
360 87 4 0 -3.39572253445587 -2.979453987979232 -6.545818755852893 17 0 0
361 87 4 0 -2.512644978220332 -2.8249706743557734 -6.48885424714509 17 0 0
3039 980 4 0 -9.74096400210535 -2.469260006559951 -6.523679605620223 17 0 1
3038 980 2 0 -10.142816845156645 -2.4917845322347105 -6.377566780803698 17 0 1
1960 620 4 0 -9.408355562520239 -2.4405917535627006 -6.757768233854904 17 0 1
1958 620 2 0 -9.041897044534357 -2.216701723139197 -6.900313502071623 17 0 1
2344 748 4 0 -5.452662374802455 -2.378327455208762 -6.899882236001375 17 0 0
2722 874 4 0 -2.2374532048071245 -2.553028237888146 -6.472168460228582 17 0 0
2720 874 2 0 -1.7737455567023197 -2.418625433381391 -6.534409147312699 17 0 0
2721 874 4 0 -1.3722806755693213 -2.3006087298103868 -6.573866670552779 17 0 0
756 219 4 0 -1.0288257724571075 -2.239171153786165 -6.307786040190533 16 0 1
755 219 2 0 -0.5601471486190697 -2.1668642156894204 -6.403651102729716 16 0 1
757 219 4 0 -0.11112817723499191 -2.0960282454685544 -6.499430627260546 16 0 1
2298 733 4 0 -5.594496764594925 -0.9054380801847142 -6.8195503173525465 17 0 1
2297 733 2 0 -5.329667594183234 -0.911209557488883 -6.445841611279483 17 0 1
1748 550 2 0 -5.939959561346681 -9.70711793735612 -6.045995248318064 7 0 0
2385 762 4 0 -0.9065647567607424 -10.235026044175713 -5.88244899666902 6 0 0
1749 550 4 0 -5.814046113698809 -9.476997947463287 -5.6765442706094325 7 0 0
1624 508 4 0 -5.580383371619293 -9.157405818462804 -5.643842037814215 25 1 0
1622 508 2 0 -5.173113087493078 -9.030244519163222 -5.493547092947714 25 1 0
1623 508 4 0 -4.7488413944405705 -8.889537571112758 -5.346698023924067 25 1 0
1240 380 4 0 -2.1039050202583898 -8.878412217055072 -5.803684143413454 27 1 0
1238 380 2 0 -1.6973143944625555 -8.753928550310116 -5.877811812004058 27 1 0
1935 612 4 0 -8.703695859823306 -7.998472563649921 -5.294897135550661 7 0 0
1777 559 4 0 -7.832744011504593 -8.60195391246215 -5.987920437228006 11 0 0
1934 612 2 0 -8.444241645859119 -8.258518554371394 -5.536993081998922 7 0 0
1936 612 4 0 -8.162433151448655 -8.526684961935905 -5.788151745852621 7 0 0
1414 438 4 0 -4.659171072265041 -8.510703791463385 -5.263610437654845 5 0 1
1239 380 4 0 -1.279493241574162 -8.614288059147265 -5.956730161649738 27 1 0
2308 736 4 0 -2.4485108384669916 -6.209218138933202 -5.797350031040161 13 0 1
2306 736 2 0 -2.0402118704358134 -6.272772575675014 -5.9845093794472355 13 0 1
2518 806 4 0 -8.708140098724634 -5.522525655848251 -5.884248708248344 11 0 0
3025 975 4 0 -8.651357868109246 -5.592255259544032 -5.486040570522259 11 0 1
3023 975 2 0 -8.329278065713067 -5.813501250704575 -5.228746479165441 11 0 1
1333 411 4 0 -3.627968166664104 -5.854084839423596 -5.499812694303111 12 0 1
1331 411 2 0 -3.9458172818902097 -6.0171347344920525 -5.235371988571866 12 0 1
149 30 3 0 -2.980819018652337 -5.366448391798396 -5.811557751948207 12 0 0
147 30 3 0 -2.6567611171772647 -5.994714070306033 -6.057831105192004 12 0 0
148 30 3 0 -3.32410636478376 -6.047654573740013 -5.704522779143683 12 0 0
146 30 1 0 -3.0514140764805733 -5.795419842792575 -5.997857745052966 12 0 0
1839 580 4 0 -2.705591263634174 -5.105796151517925 -5.887482422870004 12 0 0
1838 580 2 0 -2.5829740785598894 -4.683807889019979 -5.919616304731995 12 0 0
2014 638 4 0 -9.325743973834802 -3.5477195066255405 -6.055154886332899 -4 -1 0
1840 580 4 0 -2.4647314776710756 -4.244598854546242 -5.947736052342405 12 0 0
2687 863 2 0 -9.898661942434407 -3.3223240990239837 -5.579926012901817 16 0 0
2689 863 4 0 -10.299937288345612 -3.3250594276814542 -5.396993309856787 16 0 0
2688 863 4 0 -9.49106635560735 -3.315696998493271 -5.760441720612419 16 0 0
209 42 3 0 -5.360520266393745 -2.865667013641021 -5.987414942786099 17 0 0
2533 811 4 0 -5.192437955629622 -2.864141732470909 -5.645417294476555 17 0 0
2655 852 4 0 -9.73237967923111 -1.9712252721030872 -5.613826311107645 18 0 0
3069 990 4 0 -9.960734077008738 -2.0186976219022537 -5.2878954213255005 19 0 0
2531 811 2 0 -5.293152347126435 -2.4441933427968916 -5.45279668271961 17 0 0
2532 811 4 0 -5.3901433088956505 -2.0176747961337256 -5.272422792584545 17 0 0
2654 852 2 0 -9.395634160518465 -1.6943716666013415 -5.616130476943294 18 0 0
2656 852 4 0 -9.040775988638824 -1.4093651536944094 -5.627355281121975 18 0 0
967 289 4 0 -8.658660386784021 -1.4275581456694297 -5.782187220456184 18 0 0
965 289 2 0 -8.251709416440479 -1.2178299350792354 -5.765650625460765 18 0 0
966 289 4 0 -7.839091166275157 -1.001993957264908 -5.746920539826158 18 0 0
1420 440 4 0 -7.466394790624344 -0.9068622639825747 -5.6052720043708515 37 1 1
1418 440 2 0 -7.026140419025742 -0.8714144083398168 -5.609309543253714 37 1 1
2299 733 4 0 -5.06322810684406 -0.9196604656651157 -6.057850245763318 17 0 1
1170 357 4 0 -4.935732655988227 -1.0946345456529087 -5.685549467687802 17 0 0
1169 357 2 0 -5.151036656869936 -1.3620768008628925 -5.403186021888049 17 0 0
1419 440 4 0 -6.574897599414461 -0.8295286018902939 -5.619317494659933 37 1 1
855 252 4 0 -6.203444285206537 -0.7003076293421238 -5.5432227580305184 17 0 1
854 252 2 0 -5.8245989437821635 -0.5247835035024462 -5.3248115784526675 17 0 1
1721 541 2 0 -4.723642926424085 -0.3099881399929494 -5.228336447647264 18 0 1
1722 541 4 0 -4.360782695547012 -0.19780779132959836 -5.434064639908874 18 0 1
2591 831 2 0 -3.624387298811488 -0.05967377719996669 -5.6147716087406385 37 1 0
2592 831 4 0 -3.999118209063883 -0.06353229500972013 -5.3523263775140775 37 1 0
1714 538 4 0 -2.877415583326049 -0.040612471082217994 -5.707728272848692 17 0 0
2593 831 4 0 -3.2554835946754457 -0.058283188857849666 -5.8716691907697705 37 1 0
2555 819 2 0 -0.15095313205247862 -0.24710845633912015 -5.971490837343349 38 1 0
2557 819 4 0 -0.5565077566870187 -0.21020385286318977 -6.018094246109113 38 1 0
1527 476 4 0 -9.36413913373169 -9.54328174233865 -4.706188477627207 26 1 0
1528 476 4 0 -10.187904074745932 -9.420948893168982 -5.079635155423089 26 1 0
1526 476 2 0 -9.758174091474377 -9.484681445471344 -4.885958368541712 26 1 0
2611 837 4 0 -9.235111979444454 -9.226793794949112 -4.514641733540824 27 1 0
2609 837 2 0 -8.8227809156244 -9.085271206857769 -4.47618159763919 27 1 0
2610 837 4 0 -8.401449362516038 -8.93747533181631 -4.441085191075845 27 1 0
1443 448 4 0 -8.494834870210582 -7.813059862812066 -5.003332800216264 27 1 1
1412 438 2 0 -4.2478609349329535 -8.378973778934592 -5.179682791417623 5 0 1
1413 438 4 0 -3.819917424014517 -8.252362436504283 -5.093010890320036 5 0 1
712 204 4 0 -3.5006985274390727 -8.37312291884927 -4.886994744061115 5 0 1
710 204 2 0 -3.0478639302328663 -8.37544901048252 -4.819179544020195 5 0 1
711 204 4 0 -2.594586733151191 -8.37757924041861 -4.742279152457167 5 0 1
2964 955 4 0 -2.2575568210292865 -8.50775395143984 -4.555322903791718 25 1 0
1442 448 2 0 -8.517421119457069 -7.711329185204587 -4.556766555922698 27 1 1
415 105 4 0 -5.467602705879356 -6.239988586037614 -4.928451500802038 12 0 0
413 105 2 0 -5.037633565704536 -6.2141220133589945 -4.817842539388973 12 0 0
414 105 4 0 -4.606194226709932 -6.172607061938056 -4.718113559203352 12 0 0
1332 411 4 0 -4.279314325160615 -6.184212450857395 -4.9549101864477105 12 0 1
3024 975 4 0 -8.012978109835807 -6.029081256230799 -4.983601425684833 11 0 1
1481 461 2 0 -7.2317489703501465 -5.376795433525029 -4.71479352048376 12 0 1
1482 461 4 0 -7.592899891226004 -5.49453925373073 -4.497604349040791 12 0 1
1483 461 4 0 -6.856597745227981 -5.250137890737774 -4.936640644418377 12 0 1
1341 414 4 0 -6.545688914019074 -5.474925873212263 -4.783046655251358 12 0 0
1340 414 2 0 -6.173951986766859 -5.752529101818237 -4.79067723178504 12 0 0
1342 414 4 0 -5.805955778733396 -6.000546244991314 -4.7993343705802785 12 0 0
3068 990 2 0 -10.327169017012315 -2.0414355164296634 -5.025719923842021 19 0 0
1171 357 4 0 -5.369561842451795 -1.636583525164676 -5.126677747307178 17 0 0
856 252 4 0 -5.474305729307474 -0.3606205652068297 -5.126846791762808 17 0 1
1723 541 4 0 -5.089412165720942 -0.4277605333145331 -5.016119070097957 18 0 1
610 170 4 0 -8.069227138279624 -9.061061215768905 -4.201378528748706 26 1 0
608 170 2 0 -7.625898846112532 -8.932581270506482 -4.218640610104828 26 1 0
609 170 4 0 -7.185685852923888 -8.8080240947926 -4.245658584041374 26 1 0
1997 633 2 0 -9.148407560424758 -8.011923764998699 -3.6689383919238905 7 0 0
1411 437 4 0 -7.127489144651896 -8.509404005638707 -3.9655344445850105 7 0 0
1409 437 2 0 -6.93325258157894 -8.085595328733513 -4.02873663891737 7 0 0
2963 955 2 0 -1.8861158851179578 -8.497941201069777 -4.263081844688035 25 1 0
2965 955 4 0 -1.5359502779075953 -8.493096528698496 -3.9833129142196464 25 1 0
1591 497 4 0 -1.3176961107284537 -8.502999233632565 -3.64453419026096 26 1 0
1998 633 4 0 -8.838031253888463 -7.806788798916329 -3.9516975549894386 7 0 0
1444 448 4 0 -8.545935353293252 -7.620611475446516 -4.147135619041723 27 1 1
1410 437 4 0 -6.740747995942913 -7.679324422727027 -4.098998415494748 7 0 0
2161 687 4 0 -9.896548489021594 -6.090719249989748 -3.8495532840498647 9 0 1
697 199 4 0 -9.50978306360148 -6.163112336361982 -3.7900703292193185 9 0 0
938 280 2 0 -1.8063811165437844 -6.826394446555568 -3.487091668840314 28 1 0
940 280 4 0 -1.5148629143456187 -6.666619519983522 -3.8261461093011677 28 1 0
2020 640 4 0 -1.2495946018791244 -6.428255263613822 -3.988845077553001 8 0 0
2019 640 4 0 -0.34602327893970397 -6.479423248961533 -3.8926274739558018 8 0 0
2018 640 2 0 -0.8118474146126413 -6.460263948253898 -3.9423173628064045 8 0 0
2159 687 2 0 -10.290464696690488 -5.8929847757104845 -3.9402439191343115 9 0 1
695 199 2 0 -9.055845787850846 -6.0712880955385735 -3.735860290915358 9 0 0
696 199 4 0 -8.592724550482048 -5.971133895303967 -3.6704632420801744 9 0 0
155 31 3 0 -8.199937479858649 -5.929103795851658 -3.583678820905506 11 0 0
151 31 1 0 -7.974132440402862 -5.522123810322786 -3.7117183900856014 11 0 0
154 31 3 0 -7.799216103176867 -5.572992571967251 -4.159878282490314 11 0 0
465 122 4 0 -5.170918690475802 -5.409313696145726 -3.4992561508406768 12 0 0
12 3 3 0 -0.9234468958669417 -5.697861010064132 -3.4976990977500275 12 0 0
14 3 3 0 -0.5103131427521017 -5.239789723519806 -3.9291629264876375 12 0 0
11 3 1 0 -0.851270142358107 -5.258586976653397 -3.617167129465434 12 0 0
153 31 3 0 -8.267541085430448 -5.173883084177744 -3.7075494136500255 11 0 0
577 159 4 0 -8.606884991691587 -5.142792570432544 -3.482738733589314 10 0 0
1813 571 4 0 -1.504907923538772 -5.162954018235326 -3.4948467628039213 12 0 0
15 3 3 0 -1.2313796806192734 -5.089631260834088 -3.781502018601783 12 0 0
643 181 4 0 -0.19584409055810426 -5.122197911996426 -3.7030413853074373 12 0 0
3051 984 4 0 -0.07279055124091549 -3.5379868320824457 -4.2872021829887235 17 0 0
3052 984 4 0 -0.6248705811740916 -3.097638556686544 -3.669213095632413 17 0 0
3050 984 2 0 -0.3600943774842058 -3.3089114049613837 -3.969660832420395 17 0 0
1819 573 4 0 -6.625776425003356 -0.18815431143882932 -3.663619354497742 22 0 -1
2624 842 2 0 -8.06238466604881 -8.702560161908806 -2.8917383900651705 6 0 0
2626 842 4 0 -8.481553233976674 -8.697130847130873 -2.7532180177029417 6 0 0
2625 842 4 0 -7.640095520533325 -8.707453942980978 -3.0304934550247635 6 0 0
825 242 4 0 -7.2712873655279555 -8.840961865648024 -2.9554737774584865 4 0 0
824 242 2 0 -6.849138122299761 -8.736476331100912 -3.120457659966408 4 0 0
2950 950 4 0 -9.372780608901826 -8.320595263309103 -3.0203465537911036 26 1 1
1999 633 4 0 -9.449022289134511 -8.208394121870144 -3.3878031457171076 7 0 0
826 242 4 0 -6.432284050555744 -8.637876139844893 -3.274548333740639 4 0 0
520 140 4 0 -6.080761663425772 -8.500931832640857 -3.414553219418682 4 0 -1
518 140 2 0 -5.646883765727612 -8.381975874642098 -3.1588914508209953 4 0 -1
519 140 4 0 -5.264997373719393 -8.268235877644535 -2.936545953914031 4 0 -1
319 73 4 0 -5.01689614888764 -8.560328174050992 -2.8234828570675035 4 0 -1
317 73 2 0 -4.599836535234929 -8.651895015404559 -2.7013485055422297 4 0 -1
668 190 2 0 -3.429910716047063 -8.54871944947566 -2.815932127001089 7 0 0
670 190 4 0 -3.0782835092115466 -8.503174952370093 -3.0294395923859128 7 0 0
1589 497 2 0 -1.038440314556313 -8.505450780352808 -3.262116444980869 26 1 0
1590 497 4 0 -0.7546861991706777 -8.500344700192324 -2.8995335424387934 26 1 0
939 280 4 0 -2.082807310823945 -6.978478004746348 -3.172095139384858 28 1 0
862 254 4 0 -2.19682052959236 -6.895598114245434 -2.7827603807375105 8 0 0
1950 617 4 0 -7.231417286075388 -5.552198340430258 -3.4649512869618526 -7 -1 0
152 31 3 0 -7.616126553407502 -5.439565330366074 -3.405991858760405 11 0 0
1949 617 2 0 -6.788302554169851 -5.529794059641376 -3.3377991269103946 -7 -1 0
1951 617 4 0 -6.365759651735545 -5.511505359587629 -3.214293353682814 -7 -1 0
466 122 4 0 -5.986075961959678 -5.552893176941738 -3.080831142059317 12 0 0
464 122 2 0 -5.5967863239969855 -5.480961369986301 -3.286758837472502 12 0 0
1995 632 4 0 -4.861609427415118 -5.254851193634761 -3.288117458746931 12 0 0
1562 488 2 0 -3.1986627647654746 -5.288391785966391 -3.134794622436102 12 0 0
1564 488 4 0 -2.7680129757298237 -5.439261410222501 -3.169174443360948 12 0 0
1811 571 2 0 -1.9203177429306404 -5.263573107250927 -3.2955462883028392 12 0 0
1812 571 4 0 -2.335832843391854 -5.369011127326234 -3.1068039087978097 12 0 0
1979 627 2 0 -9.882141282606964 -4.4219418794702205 -2.671807518814054 11 0 0
576 159 4 0 -9.308154658251492 -4.67538914557007 -3.174555169008146 10 0 0
1980 627 4 0 -9.515333115510645 -4.539651294831209 -2.855172417252218 11 0 0
575 159 2 0 -8.957945874066832 -4.902881787755561 -3.3308364442792646 10 0 0
1994 632 2 0 -4.425844438300612 -5.164323430561019 -3.121553025611788 12 0 0
1996 632 4 0 -4.0089634176831375 -5.069924150360928 -2.9636859695519444 12 0 0
1563 488 4 0 -3.61081231824961 -5.144007815032285 -3.1106500575620952 12 0 0
13 3 3 0 -0.7265618239877245 -5.013342358790011 -3.2592003049289184 12 0 0
3044 982 2 0 -0.44183979400113316 -3.2743562395633425 -2.889375486208041 16 0 0
3045 982 4 0 -0.5925909194171979 -3.081985439692784 -3.257032287800648 16 0 0
1573 491 4 0 -10.366203664027765 -0.9809980383246213 -2.989916534761602 34 1 1
1571 491 2 0 -10.050610422064262 -0.6187141193051282 -3.0533168255897074 34 1 1
1572 491 4 0 -9.754395721871392 -0.26463146350528 -3.1154202294316837 34 1 1
2749 883 4 0 -3.1959353828129524 -0.20344856254066634 -2.6834924658660775 22 0 0
2217 706 4 0 -2.0380472050283256 -0.30862544213917786 -2.7750533204465953 22 0 0
2216 706 2 0 -1.6086338577784272 -0.2560942641711961 -2.6056754105402113 22 0 0
2886 929 4 0 -5.327367018723421 -9.71620525803962 -2.0119360449462356 34 1 0
2885 929 2 0 -5.683136683090551 -9.976700101322338 -1.953012032631193 34 1 0
2887 929 4 0 -6.03013151684766 -10.227417130138587 -1.9041945885751872 34 1 0
318 73 4 0 -4.171063924735006 -8.74620200665511 -2.577383532269991 4 0 -1
2613 838 4 0 -9.651282761325966 -8.178524242686686 -1.8946030470244946 25 1 -1
2948 950 2 0 -9.367531040583366 -8.16645072163824 -2.578637440942238 26 1 1
2949 950 4 0 -9.365716758957959 -8.024848199395983 -2.1508830634510083 26 1 1
352 84 4 0 -8.466097422870414 -8.650533826164004 -2.3657738997909625 6 0 0
350 84 2 0 -8.657066892082584 -8.660580829651344 -1.9665885115584416 6 0 0
669 190 4 0 -3.80215645048208 -8.59428932091288 -2.5908483900536803 7 0 0
860 254 2 0 -2.1397739373298954 -6.902039992134904 -2.307067058874658 8 0 0
861 254 4 0 -2.0821564675391517 -6.912577311611074 -1.8544411058758836 8 0 0
1872 591 4 0 -0.40208537468042316 -4.662853977404894 -1.843517008053519 10 0 0
1981 627 4 0 -10.294117059770063 -4.295887604448637 -2.4623861134970113 11 0 0
3046 982 4 0 -0.29409682959372496 -3.484150150166494 -2.5069864719865596 16 0 0
1450 450 4 0 -0.2231129085066179 -3.6579530330001973 -2.1284718523424146 16 0 0
1566 489 4 0 -4.205235700405052 -0.4592314514121387 -2.0132494435205306 22 0 1
1565 489 2 0 -3.892170290567776 -0.33951854695329686 -2.303769216450311 22 0 1
1567 489 4 0 -3.594719846317857 -0.20860890262194687 -2.600596649449505 22 0 1
2747 883 2 0 -2.7385989037275094 -0.21361275517188005 -2.58323018545496 22 0 0
2748 883 4 0 -2.317517399709674 -0.22870671348135652 -2.4946808648932928 22 0 0
2218 706 4 0 -1.1914777633615348 -0.19709913514114952 -2.452415261392675 22 0 0
2352 751 4 0 -9.503812125031352 -10.132607593573217 -0.9012072167401701 34 1 0
2351 751 2 0 -9.184071188376514 -10.027481340829405 -1.1702073377246887 34 1 0
2353 751 4 0 -8.850427104474953 -9.922498690737488 -1.4421478478622252 34 1 0
2941 947 4 0 -8.489014602205506 -10.067955409767714 -1.336529946836908 54 2 0
2939 947 2 0 -8.037030115105834 -10.03026397159653 -1.3856892112299342 54 2 0
2940 947 4 0 -7.569756169419224 -9.988772505261778 -1.45088554234726 54 2 0
1800 567 4 0 -7.220740463371406 -10.227551640215925 -1.429342291880813 13 0 0
1799 567 2 0 -6.807152852417733 -10.271147377404406 -1.5624242786019042 13 0 0
1801 567 4 0 -6.378978730980292 -10.305530249517707 -1.705748708083215 13 0 0