LAMMPS data file via write_data, version 27 Jun 2024, timestep = 1500000, units = lj

6600 atoms
4 atom types
4600 bonds
1 bond types

-10.69 10.69 xlo xhi
-10.69 10.69 ylo yhi
-10.69 10.69 zlo zhi

Masses

1 1
2 1
3 0.5
4 0.5

Bond Coeffs # zero

1 0

Atoms # bond

5085 1495 4 -9.383734342686385 -9.46121842709897 -9.456034755342793 1 0 1
79 16 3 -9.583584784224339 -9.121380743760986 -9.506070644824884 0 0 0
5083 1495 2 -9.471624084917787 -9.926664905694587 -9.616143995468308 1 0 1
77 16 3 -9.784428184155727 -8.473139974163235 -9.183044588081632 0 0 0
873 175 3 -6.242417541711047 -9.986932855702147 -10.466548870577197 1 0 0
4608 1336 4 -6.434150415080193 -9.664927847716843 -10.592475390938647 1 0 0
4606 1336 2 -6.89001006819458 -9.558234839266538 -10.416951664308593 1 0 0
4607 1336 4 -7.345869721308967 -9.451541830816232 -10.241427937678539 1 0 0
4137 1179 4 -0.02462516985361235 -10.173607044937349 -9.336074351876437 0 0 0
871 175 1 -6.051738477364982 -10.409093525352835 -10.439681354498475 1 0 0
2022 474 4 -5.509341914628129 -10.0996777450863 -10.381059456063785 0 0 0
875 175 3 -5.666336258492596 -10.39041009004228 -10.197780426568704 1 0 0
2020 474 2 -5.02553061984911 -10.001005636313538 -10.459738843417675 0 0 0
2021 474 4 -4.5417193250700905 -9.902333527540776 -10.538418230771565 0 0 0
2140 514 2 -1.6546647857890795 -10.29154996737637 -9.959587087640632 0 0 1
2141 514 4 -1.527607251339355 -9.935658958514804 -9.632176072628674 0 0 1
4371 1257 4 -2.85152029172639 -9.982121587299375 -9.012522683073604 0 0 0
5655 1685 4 -1.2214019626012949 -9.857609851141117 -9.86904481665529 0 1 0
5653 1685 2 -1.037927480184859 -9.393014874876686 -9.846940013287766 0 1 0
780 156 3 -0.7337569758258276 -5.099199108859466 -10.384476905396431 0 0 0
80 16 3 -9.062067076533447 -8.655528553382833 -9.226963107691807 0 0 0
4719 1373 4 -9.015849302732438 -8.598461823929439 -8.848011375591893 1 0 1
3051 817 4 -3.2153395921707992 -7.7139978967355205 -8.955440747389067 0 1 0
5922 1774 4 -3.1027332359896342 -8.104212165621632 -8.987807828902724 0 1 0
5920 1774 2 -2.7823277294015094 -8.412496599551346 -9.216501989616392 0 1 0
5921 1774 4 -2.4619222228133846 -8.72078103348106 -9.445196150330059 0 1 0
5654 1685 4 -0.8544529977684232 -8.928419898612255 -9.824835209920241 0 1 0
1592 331 4 -0.8153891665180358 -8.735224795369188 -9.476956621048098 0 0 0
3853 1085 2 -3.525217909726565 -0.20625687526461398 -0.2981684680568129 0 0 0
2972 791 4 -1.105985269871758 -0.12374978079903934 -3.443768419509198 0 0 0
1872 424 4 -3.944107359304927 -10.527939663696989 -2.9612362526883507 0 0 0
4527 1309 4 -9.077588863332123 -5.799345347978764 -10.247841212738603 1 0 0
4525 1309 2 -9.169913616029618 -6.067159499423693 -9.835831843518385 1 0 0
1968 456 4 -8.735882770617167 -5.72662651051736 -10.460770248947856 0 0 0
4526 1309 4 -9.262238368727113 -6.334973650868622 -9.423822474298166 1 0 0
225 45 3 -5.398895395489946 -6.964280115663929 -10.11041351162096 0 0 1
3024 808 4 -5.547649824512395 -7.014110833625752 -10.468873247500166 0 1 0
222 45 3 -4.93941890165549 -7.252549548097775 -9.597790759552819 0 0 1
221 45 1 -4.964253619144207 -6.994648399435412 -9.977883161905073 0 0 1
223 45 3 -4.797608967350921 -6.572004763084984 -9.88353319274131 0 0 1
4622 1341 4 -3.437564837938926 -10.606554743347523 -7.090663944030728 0 0 0
224 45 3 -4.710631710664098 -7.194116184654325 -10.311332603648179 0 0 1
3303 901 4 -4.483460525522224 -6.904493847644683 -10.48043930300479 0 1 0
6175 1859 2 -0.4389044906432105 -5.3500170857709195 -9.724616127762443 0 0 1
6177 1859 4 -0.754186144069574 -5.398476328437038 -10.109647530134955 0 0 1
6176 1859 4 -0.12362283721684708 -5.301557843104801 -9.339584725389932 0 0 1
779 156 3 -1.1364061109235586 -4.475571819322793 -10.510424028229014 0 0 0
2486 629 4 -3.5862260261218104 -10.407381106767867 -7.383206654861396 0 0 1
4994 1465 4 -0.33343647787991476 -1.2371383334445178 -1.4876663506773204 0 0 1
6381 1927 4 -0.16967349675096932 -1.2502758021320182 -1.1178720394011592 0 0 0
2125 509 2 -7.966479921932765 -4.771522893488069 -9.811797632741046 0 0 0
2127 509 4 -7.931699395770642 -4.635750505220578 -10.291751978053265 0 0 0
6303 1901 4 -8.137634479359452 -4.297548636423496 -10.415496228680476 1 0 1
6545 1982 4 -4.625463874752446 -3.464927431130981 -9.488385683287381 1 1 0
1761 387 4 -4.736815378508934 -0.7934985550782359 -5.9408055230539105 0 0 0
929 186 3 -7.260045659141125 -0.3861693488979622 -9.950668747913877 1 0 0
3942 1114 4 -5.968595059055812 -2.133928968024397 -9.054134329707841 0 0 1
3940 1114 2 -5.858126371498158 -2.0319642644846425 -9.530998952322392 0 0 1
3941 1114 4 -5.747657683940504 -1.9299995609448881 -10.007863574936943 0 0 1
2053 485 2 -4.671004067610169 -1.8426609074024496 -8.893217954339985 0 0 0
4518 1306 4 -5.45114347835307 -1.7919940912559769 -10.239926725983539 0 0 0
2054 485 4 -4.596471165147997 -1.9482681296086457 -8.410214889061336 0 0 0
6544 1982 2 -4.612084683456654 -3.319278780492076 -9.96651481627057 1 1 0
6546 1982 4 -4.598705492160862 -3.173630129853171 -10.444643949253757 1 1 0
5219 1540 4 -0.9325947212028585 -2.1906564845918752 -9.655748603176848 0 0 1
5408 1603 4 -0.793337569606476 -2.56760990779195 -9.60601783927356 0 0 0
5218 1540 2 -1.1920255045182486 -1.8614249769599958 -9.928333054403636 0 0 1
927 186 3 -6.67622047357934 -0.45895770417636716 -10.418375929854998 1 0 0
1894 432 2 -10.572278173749904 -0.3641362287649161 -8.67607292970394 0 0 0
1588 330 2 -7.506489040201149 -0.48983656703026995 -9.253681335140156 0 0 0
1589 330 4 -7.6545461070017105 -0.2892843832589211 -8.820255532314585 0 0 0
738 148 3 -4.766792014455513 -0.41675749053689604 -9.94839424103452 0 0 1
736 148 1 -5.035716908706685 -0.22324311488236181 -10.273250497965487 0 0 1
4516 1306 2 -5.399277726702931 -1.3218296202302156 -10.401961641945343 0 0 0
2687 696 4 -10.593537278475607 -5.551945750798376 -0.5029411269046471 0 0 1
4517 1306 4 -5.347411975052792 -0.8516651492044542 -10.563996557907148 0 0 0
2055 485 4 -4.74553697007234 -1.7370536851962526 -9.376221019618631 0 0 0
2905 769 2 -4.469360010384544 -0.9154344018720348 -9.54564843910155 0 0 0
2906 769 4 -4.426951301283203 -0.4382223351586042 -9.688722352779708 0 0 0
2907 769 4 -4.511768719485885 -1.3926464685854651 -9.402574525423391 0 0 0
3606 1002 4 -3.4442334315256287 -1.1829235501768252 -9.505468003375128 0 0 1
4985 1462 4 -3.221195505383929 -1.1379802221117492 -9.207777783977264 0 0 1
3605 1002 4 -3.360738450568426 -1.1066480935252927 -10.499052747051486 0 0 1
3604 1002 2 -3.4024859410470274 -1.144785821851059 -10.002260375213307 0 0 1
5220 1540 4 -1.4514562878336388 -1.5321934693281163 -10.200917505630423 0 0 1
4556 1319 4 -1.164885549396033 -1.449468705616407 -10.457727956578507 1 0 0
6091 1831 2 -9.385128411064045 -9.697449245136747 -8.2438869071887 0 1 1
4472 1291 4 -7.218081460200562 -10.215639753663675 -7.763826716894378 0 0 0
4369 1257 2 -2.656010655155253 -9.5427780970085 -9.149465297137763 0 0 0
4370 1257 4 -2.460501018584116 -9.103434606717624 -9.286407911201922 0 0 0
4169 1190 4 -7.588414102408372 -2.482725692806113 -10.56220724974452 0 0 0
1896 432 4 -10.353552898342182 -0.11555693501660103 -9.050729557320768 0 0 0
1590 330 4 -7.358431973400588 -0.6903887508016189 -9.687107137965727 0 0 0
778 156 3 -0.37696003006928286 -4.4471512431498725 -10.504599843763666 0 0 0
2083 495 2 -0.026061219092546727 -10.070060229074214 -8.573626415664398 0 0 0
76 16 1 -9.482641058251971 -8.81998172900214 -9.16803366742577 0 0 0
78 16 3 -9.514536990260384 -9.028792344874917 -8.754898367287835 0 0 0
6092 1831 4 -9.442313425636248 -9.43083070669776 -8.66298645272524 0 1 1
4717 1373 2 -8.576992824397161 -8.55721486045339 -8.611995106180188 1 0 1
4718 1373 4 -8.138136346061884 -8.515967896977342 -8.375978836768484 1 0 1
397 80 3 -7.75091911123725 -8.530410566209488 -8.482636849311488 0 1 0
399 80 3 -7.476777667552621 -9.223316034477357 -8.384512026259443 0 1 0
396 80 1 -7.370477594471032 -8.771680957918338 -8.389616150511285 0 1 0
400 80 3 -7.0582591503712955 -8.689153725442205 -8.710721894875617 0 1 0
398 80 3 -7.208600763636023 -8.642347389126735 -7.9744430304487715 0 1 0
1510 304 2 -1.8169433532379076 -7.806908596397274 -8.420179850938677 0 0 0
1511 304 4 -1.5382339306724335 -7.982974985667381 -8.796107615732295 0 0 0
1512 304 4 -2.095652775803382 -7.630842207127166 -8.04425208614506 0 0 0
1591 331 2 -1.1207087022021327 -8.367208219257385 -9.330861512174193 0 0 0
737 148 3 -5.390656330245806 -0.5031380539816503 -10.358554836098104 0 0 1
1593 331 4 -1.426028237886229 -7.999191643145584 -9.184766403300289 0 0 0
799 160 3 -0.2728467828775458 -3.751507327405341 -8.46104487821177 0 0 0
2372 591 4 -10.496002537052533 -7.556008831917649 -8.77605484645075 0 0 1
2371 591 2 -10.009815036195203 -7.488542744968003 -8.680818082951292 0 0 1
2231 544 4 -9.575808701276102 -6.4153424000797825 -8.123571071241512 0 0 1
2373 591 4 -9.523627535337873 -7.4210766580183565 -8.585581319451835 0 0 1
889 178 3 -9.491449223346601 -6.372781175496903 -8.511342988785675 1 0 0
890 178 3 -9.312241597408772 -7.093787295807051 -8.633551013405357 1 0 0
886 178 1 -9.174392886246897 -6.662945820731991 -8.686213677469258 1 0 0
888 178 3 -8.767171689035399 -6.599821195533536 -8.472938788569177 1 0 0
887 178 3 -9.122772528251774 -6.574116606047698 -9.134593772097888 1 0 0
2664 688 4 -8.755791310309913 -6.580320741459314 -8.031198380008556 0 0 1
48 10 3 -6.338313902778639 -6.002310902848657 -7.454768873940316 0 0 0
3049 817 2 -3.0987068618379126 -7.234780481325735 -9.037583762812654 0 1 0
3050 817 4 -2.982074131505026 -6.755563065915949 -9.11972677823624 0 1 0
4866 1422 4 -2.741266251811221 -6.505438110607934 -9.296107743096538 0 0 1
4864 1422 2 -2.357151938582116 -6.279648401071166 -9.069226273073523 0 0 1
4865 1422 4 -1.9730376253530109 -6.053858691534399 -8.842344803050509 0 0 1
4616 1339 4 -1.941028865491987 -5.793667886397133 -8.516681496044654 0 0 0
2230 544 2 -9.7340804105564 -5.994570924530699 -7.904707114854102 0 0 1
2232 544 4 -9.892352119836698 -5.573799448981615 -7.685843158466692 0 0 1
2672 691 4 -9.42145647619049 -4.553068230268117 -9.088794444913622 0 0 1
2314 572 2 -8.87427504486827 -4.996803154382103 -8.528968029916724 0 0 1
2315 572 4 -9.23760089989939 -4.788479122499452 -8.802089652652585 0 0 1
2316 572 4 -8.51094918983715 -5.205127186264755 -8.255846407180863 0 0 1
1641 347 4 -8.416342964208239 -4.899881487104294 -8.00486817617947 0 0 0
2126 509 4 -8.001260448094888 -4.907295281755561 -9.331843287428827 0 0 0
5189 1530 4 -7.991317262826913 -5.296878209108789 -9.268513352664174 0 0 1
1868 423 4 -7.084142239697654 -5.519713114577167 -8.361454997488664 0 0 0
1867 423 2 -6.709402319424964 -5.629665141080303 -8.049236253621496 0 0 0
5190 1530 4 -7.470852221243106 -5.470009565053885 -8.432366431317456 0 0 1
1869 423 4 -6.334662399152274 -5.7396171675834395 -7.7370175097543274 0 0 0
5188 1530 2 -7.7310847420350095 -5.383443887081337 -8.850439891990815 0 0 1
5417 1606 4 -4.16377406629031 -4.760497571847668 -7.879545854796159 0 0 0
2671 691 2 -9.80582247175493 -4.248511845541349 -9.186304393000153 0 0 1
2673 691 4 -10.190188467319368 -3.94395546081458 -9.283814341086684 0 0 1
1681 361 2 -10.567250026252783 -3.5696531926686634 -8.737651686575646 0 0 0
1682 361 4 -10.549606564387727 -3.790196385993967 -9.186037021005028 0 0 0
2980 794 2 -5.981338462390053 -4.056164796920592 -7.672542572076296 0 0 0
2982 794 4 -6.200872503755725 -4.471921513683291 -7.842692967751096 0 0 0
2981 794 4 -5.761804421024382 -3.6404080801578926 -7.502392176401496 0 0 0
3188 863 4 -5.57254855473303 -3.293205583385758 -7.6588892243361695 0 0 0
3187 863 2 -5.32748408122392 -3.2967014241186576 -8.094700172938023 0 0 0
3189 863 4 -5.082419607714811 -3.3001972648515574 -8.530511121539876 0 0 0
1272 255 3 -4.373972600648324 -3.2015643708185406 -9.29359392804843 0 0 0
1275 255 3 -4.684124574911083 -3.309971536096237 -8.623479281605782 0 0 0
5416 1606 2 -4.232402153087567 -4.438772325605134 -8.256086757797243 0 0 0
5418 1606 4 -4.301030239884824 -4.1170470793626 -8.632627660798327 0 0 0
1273 255 3 -4.222978927439679 -3.8308767866657734 -8.911407070724602 0 0 0
1271 255 1 -4.3091131587908595 -3.376545274078543 -8.873147812242737 0 0 0
1274 255 3 -3.947573468074605 -3.1628396497790736 -8.675868927971228 0 0 0
4208 1203 4 -3.789425766376533 -3.3417201889571424 -8.360525392991802 0 0 0
4207 1203 2 -3.776262924705287 -3.462144159280917 -7.875422510120188 0 0 0
290 58 3 -10.482322987664144 -0.34016943746850364 -1.8223243410687953 0 0 0
4499 1300 4 -0.11189570194117171 -3.7075854992607185 -8.093503208974424 0 0 0
2470 624 2 -5.397999745660766 -10.623269773262795 -0.45773244704972077 0 1 0
4498 1300 2 -0.4498987997300069 -3.8012979429868587 -7.737172065547021 0 0 0
4045 1149 2 -8.649413767591065 -1.0960194095744678 -8.42466520854255 1 0 0
4046 1149 4 -8.487968643948863 -1.1878757628601608 -8.88888270327219 1 0 0
5530 1644 2 -6.317112825335544 -2.071154617649343 -8.514774681328248 1 1 0
5531 1644 4 -6.4937639640794735 -1.717273592587509 -8.208894647194342 1 1 0
1862 421 4 -6.395809526007602 -1.3868900765236654 -8.430798645068577 0 0 0
5532 1644 4 -6.140461686591614 -2.4250356427111774 -8.820654715462155 1 1 0
1655 352 4 -5.818907816281102 -2.0223329024291514 -7.854170805789385 0 0 0
1654 352 2 -5.578591508493047 -1.5838921358360896 -7.858385826589422 0 0 0
1717 373 2 -3.752638206489623 -1.7056927314855692 -7.763200499993104 0 0 0
1719 373 4 -3.7159008746060134 -1.6433716187697676 -8.257939266774057 0 0 0
4984 1462 2 -3.273582876285762 -1.3994279158729175 -8.784811276087039 0 0 1
4986 1462 4 -3.3259702471875947 -1.6608756096340858 -8.361844768196814 0 0 1
5407 1603 2 -0.643737839898558 -2.5749913326577856 -9.128979648519188 0 0 0
5409 1603 4 -0.49413811019064013 -2.582372757523621 -8.651941457764815 0 0 0
3492 964 4 -0.28058680005928366 -2.2597375980377215 -8.550831973484506 0 0 1
6256 1886 2 -9.877585309969948 -6.936751881491481 -10.546705507920644 1 1 1
1524 308 4 -5.914649138038311 -0.155822998166913 -5.246253782887496 0 0 0
5862 1754 4 -10.070493038671808 -0.8212729953452753 -7.677307634634819 1 0 0
5860 1754 2 -9.571480393365224 -0.8092587883517476 -7.706325536940202 1 0 0
4047 1149 4 -8.810858891233268 -1.0041630562887747 -7.9604477138129095 1 0 0
1861 421 2 -6.533382754146764 -1.0431695023811993 -8.094748390179756 0 0 0
4409 1270 4 -0.30541884083872606 -9.200947717113545 -0.6964801704572425 0 0 0
12 3 3 -5.010905652352878 -0.974117904437829 -7.676088187687674 0 0 0
11 3 1 -4.936233661420583 -0.5209745591799652 -7.649911816304572 0 0 0
14 3 3 -5.336810770184435 -0.29847669763191675 -7.722937027985242 0 0 0
1656 352 4 -5.3382752007049925 -1.1454513692430275 -7.862600847389459 0 0 0
13 3 3 -4.626937292450479 -0.4009342553040417 -7.974297515106711 0 0 0
3339 913 4 -5.788222606567941 -10.572733854250341 -5.089368603920237 0 1 0
1173 235 3 -0.07771262053370337 -0.1936817054507569 -3.6291837366228528 0 0 0
2058 486 4 -0.4582562950461999 -0.24923307939303474 -8.302191790090086 0 0 0
5226 1542 4 -9.541070306991443 -10.274076136765338 -7.675610682303288 1 1 1
6093 1831 4 -9.327943396491841 -9.964067783575734 -7.824787361652161 0 1 1
5224 1542 2 -9.336741110868571 -10.34233028530906 -7.22440014295558 1 1 1
5225 1542 4 -9.132411914745699 -10.410584433852783 -6.773189603607872 1 1 1
3395 932 4 -8.794991015760685 -10.392211119834212 -6.552824517712485 0 1 1
4471 1291 2 -7.236969201258531 -10.22493441064166 -7.2642700508500315 0 0 0
4473 1291 4 -7.2558569423165 -10.234229067619646 -6.764713384805685 0 0 0
4280 1227 4 -7.015789519565845 -9.928621606004539 -6.634641443147234 1 0 0
4279 1227 2 -6.870705008371163 -10.005280051065183 -6.162334374163344 1 0 0
154 31 3 -5.528841425249197 -9.931625007740713 -7.042191909431349 0 0 0
4451 1284 4 -5.917448520485603 -9.806687458456558 -7.030213640903616 1 0 0
151 31 1 -5.080177675823615 -9.847738237043165 -6.95874222606822 0 0 0
152 31 3 -4.83173091297045 -10.2045215038286 -7.109008345236133 0 0 0
155 31 3 -5.012431843131275 -9.795562688085884 -6.511430014918205 0 0 0
5818 1740 2 -5.485251669254044 -10.115916690458425 -5.800633388253278 0 1 0
5819 1740 4 -5.247060615534252 -9.877881881395178 -6.170233782736581 0 1 0
153 31 3 -4.945765065393465 -9.465507654848114 -7.184868368281533 0 0 0
3152 851 4 -4.600935225363126 -9.388262085033087 -7.385487201189173 0 1 0
2487 629 4 -4.583086756814168 -10.443660505656633 -7.31283273341492 0 0 1
2485 629 2 -4.084656391467989 -10.42552080621225 -7.3480196941381575 0 0 1
1059 212 3 -1.90172480484195 -9.923002804290617 -7.112257812656821 0 0 0
1060 212 3 -2.604919780941061 -9.692439565015107 -6.973486712337311 0 0 0
1057 212 3 -2.177767011818838 -9.939036876763211 -6.4133704050671545 0 0 0
1056 212 1 -2.179951541004935 -9.706736411014058 -6.810399020465353 0 0 0
1058 212 3 -2.0254806605259437 -9.276087261464003 -6.733068191710513 0 0 0
1956 452 4 -2.078252596524969 -9.847941664673856 -6.016300120908547 0 0 0
2989 797 2 -1.451214320868438 -10.517237456504317 -7.234310139677421 0 1 0
2991 797 4 -1.8616085252774155 -10.32452759052428 -7.02350334533327 0 1 0
4211 1204 4 -9.574880287112705 -7.379842064337391 -6.350661446272403 1 0 0
937 188 3 -9.234719189637337 -7.4459359416969555 -6.514682262677824 1 0 0
4210 1204 2 -10.048362397827033 -7.2224219512963055 -6.318511814181412 1 0 0
4900 1434 2 -7.784240413637426 -7.757498249829304 -6.848643670766654 1 0 1
940 188 3 -8.492184782452627 -7.480301407459937 -6.4478865374425265 1 0 0
4902 1434 4 -7.311738017212694 -7.899434675174072 -6.929856579427892 1 0 1
2773 725 2 -6.952511538289227 -8.57720211322936 -6.955634746482231 0 1 0
2774 725 4 -6.620617380603155 -8.905922852601607 -6.777340204781081 0 1 0
2775 725 4 -7.284405695975298 -8.248481373857112 -7.1339292881833805 0 1 0
4450 1284 2 -6.319087070132602 -9.508900186532971 -7.0332494468703874 1 0 0
4452 1284 4 -6.7207256197796 -9.211112914609384 -7.036285252837159 1 0 0
2997 799 4 -3.6273778233177083 -8.65269393010145 -7.795074231935022 0 1 0
3151 851 2 -4.293184357263815 -9.090105130686965 -7.643153329656119 0 1 0
3153 851 4 -3.985433489164504 -8.791948176340842 -7.900819458123065 0 1 0
2995 799 2 -3.2266715427691888 -8.418045696707562 -7.609670123852269 0 1 0
440 88 3 -2.3340134440346776 -7.403815775478618 -7.817271268291326 0 1 0
4484 1295 4 -1.840437192787515 -9.196838230841932 -6.386773729381618 0 0 0
2996 799 4 -2.8259652622206692 -8.183397463313675 -7.424266015769517 0 1 0
4483 1295 2 -1.685778418508782 -8.888383574966985 -6.024922394151717 0 0 0
439 88 3 -2.777510736174034 -7.788815219048531 -7.346117811001867 0 1 0
2512 638 2 -0.31248714405634664 -8.748931430886884 -7.582382971545038 0 0 0
4432 1278 2 -0.4391715075011798 -9.036579319243236 -6.52268927676591 0 0 0
4433 1278 4 -0.45468690204356366 -8.976372284796673 -7.018808602669942 0 0 0
2514 638 4 -0.6436316876820432 -8.66612420297204 -7.21702526431565 0 0 0
1772 391 4 -0.8159668844851475 -7.42052124793064 -7.428030460738997 0 0 0
3367 923 2 -0.2745640685048757 -7.679801252341748 -6.851274769793754 0 0 0
3368 923 4 -0.5442031373090214 -7.666846217290961 -7.272139284383916 0 0 0
936 188 1 -8.853802933154428 -7.204503696728893 -6.424055132983039 1 0 0
938 188 3 -8.81409013934315 -6.863990843903526 -6.736743302040356 1 0 0
2662 688 2 -8.835036447938313 -6.607404934333384 -7.5382616146331385 0 0 1
2663 688 4 -8.914281585566712 -6.634489127207454 -7.04532484925772 0 0 1
2285 562 4 -5.500383864351422 -6.626799363636677 -7.124493121185066 0 0 0
49 10 3 -5.683550999441783 -6.379920185799527 -7.375416685291706 0 0 0
2284 562 2 -5.066909567721339 -6.567362613592965 -6.882486288833003 0 0 0
3774 1058 4 -4.332476780821273 -6.652855303277545 -6.408165689463719 0 1 1
2286 562 4 -4.6334352710912565 -6.507925863549253 -6.64047945648094 0 0 0
3773 1058 4 -3.646212348115618 -7.163433845366298 -6.926191442453811 0 1 1
3772 1058 2 -3.9893445644684453 -6.908144574321922 -6.667178565958765 0 1 1
1773 391 4 -1.63991125432427 -7.963241869817685 -7.26502738717949 0 0 0
436 88 1 -2.374168756441438 -7.564268270314063 -7.392957059494874 0 1 0
438 88 3 -2.0215540586581238 -7.850498024194559 -7.2979023231549505 0 1 0
437 88 3 -2.364392237782772 -7.212698799429209 -7.096472107390013 0 1 0
1734 378 4 -2.7205611765059845 -7.22740453123606 -6.832735527163831 0 0 0
1732 378 2 -2.717449054929792 -7.121517695957071 -6.34408606915333 0 0 0
1733 378 4 -2.7143369333535996 -7.015630860678082 -5.855436611142829 0 0 0
1771 391 2 -1.227939069404709 -7.6918815588741625 -7.3465289239592435 0 0 0
1639 347 2 -7.96327666343386 -5.00725207377179 -7.822652687756247 0 0 0
1640 347 4 -7.510210362659483 -5.114622660439285 -7.640437199333025 0 0 0
1746 382 4 -6.758721457043535 -4.872769871806501 -6.6642326813380715 0 0 0
1744 382 2 -6.3569490064205825 -5.168033316305928 -6.701627818222063 0 0 0
1745 382 4 -5.95517655579763 -5.463296760805356 -6.739022955106054 0 0 0
46 10 1 -5.889753617031463 -5.965607515492565 -7.3418683362664865 0 0 0
47 10 3 -5.686284121065098 -5.674156992404039 -7.633855933267892 0 0 0
50 10 3 -5.848934471536843 -5.805636546107738 -6.9174356722133945 0 0 0
1836 412 4 -5.37182678440331 -4.540200165938773 -6.321607754423751 0 0 0
1727 376 4 -5.305241368960246 -4.7141034036995 -5.958166560991039 0 0 0
4620 1340 4 -4.26288394674354 -4.619579274062691 -7.503682191496503 1 0 0
4619 1340 4 -3.9069659368809746 -5.109083962124592 -6.707624699464062 1 0 0
4618 1340 2 -4.0849249418122575 -4.864331618093641 -7.105653445480282 1 0 0
2831 744 4 -4.09340600981248 -4.903971413580727 -6.410416690394518 0 0 0
4615 1339 2 -1.8844806375294993 -5.370741194942317 -8.256037463752426 0 0 0
4617 1339 4 -1.8279324095670118 -4.947814503487502 -7.995393431460197 0 0 0
1971 457 4 -1.4376081790129278 -4.931850389234414 -7.9894688147331525 0 0 0
1969 457 2 -1.4286416137211684 -4.639658069899773 -7.583829505458505 0 0 0
2084 495 4 -0.08403196845319476 -9.790266767176096 -8.163315544619554 0 0 0
313 63 3 -7.267086163940393 -4.806180031767755 -7.7303156130223725 0 0 1
314 63 3 -6.868393107062364 -4.809475768461477 -7.083297078112722 0 0 1
312 63 3 -6.553643346974891 -4.569882797140048 -7.7223806380780715 0 0 1
315 63 3 -7.0826302740629545 -4.158118432623282 -7.394321285088749 0 0 1
311 63 1 -6.945123102061527 -4.583489323443384 -7.481219978352722 0 0 1
4320 1240 4 -6.988011962690251 -4.000591504928865 -7.03635188569932 1 0 0
4318 1240 2 -6.753321143042437 -3.5600967129065184 -7.066093394978279 1 0 0
1835 412 4 -4.992290360967483 -4.1110961994311 -7.141255172045059 0 0 0
1980 460 4 -5.0460093764924085 -3.7208174091217314 -7.070025613340257 0 0 0
1834 412 2 -5.1820585726853965 -4.325648182684937 -6.731431463234405 0 0 0
1978 460 2 -4.992638082597444 -3.2720091787067678 -6.856196996687335 0 0 0
4209 1203 4 -3.763100083034041 -3.582568129604691 -7.390319627248575 0 0 0
4566 1322 4 -3.686284245341326 -3.4205492312447867 -7.027150318531588 0 0 0
1970 457 4 -1.419675048429409 -4.3474657505651315 -7.1781901961838575 0 0 0
960 192 3 -1.3007825392284724 -4.376733555325025 -6.787276569647931 0 0 0
4581 1327 4 -0.34002505807374694 -4.527681399010559 -6.523869533893958 0 0 0
957 192 3 -0.7820904577671883 -3.8850722088479457 -7.002282720746432 0 0 0
4500 1300 4 -0.7879018975188421 -3.895010386712999 -7.380840922119619 0 0 0
958 192 3 -0.6602776683401288 -4.313137358503124 -6.3966245069135965 0 0 0
956 192 1 -0.9829822330160826 -4.085543280220476 -6.640269124067685 0 0 0
959 192 3 -1.1785437956503104 -3.757620320423584 -6.376598481677805 0 0 0
1602 334 4 -1.3104111324495165 -3.437323042364962 -6.185477016769391 0 0 0
4628 1343 4 -6.281394417467839 -2.8412116563160774 -7.249216843666835 0 0 0
4319 1240 4 -6.518630323394623 -3.119601920884172 -7.095834904257238 1 0 0
4629 1343 4 -5.581723091806007 -2.221269355965335 -7.604366925016677 0 0 0
4627 1343 2 -5.931558754636923 -2.531240506140706 -7.426791884341756 0 0 0
1979 460 4 -4.939266788702479 -2.823200948291804 -6.642368380034413 0 0 0
5393 1598 4 -4.895175064531628 -2.4531271085327813 -6.804618514795466 0 0 0
1912 438 2 -5.3143831865630595 -1.5146023582979353 -5.6992291714399865 0 0 0
4564 1322 2 -3.4334894768319475 -3.0807364215732287 -6.7614022058435 0 0 0
5392 1598 2 -4.476712611694511 -2.257762588549205 -6.996248052960417 0 0 0
1718 373 4 -3.7893755383732324 -1.7680138442013709 -7.268461733212151 0 0 0
5394 1598 4 -4.058250158857394 -2.0623980685656287 -7.187877591125368 0 0 0
5593 1665 2 -9.560769679518906 -0.2238252021747876 -6.414357004924466 1 0 0
5861 1754 4 -9.07246774805864 -0.7972445813582199 -7.735343439245585 1 0 0
1123 225 3 -10.468632181758444 -0.7610642245549099 -7.572919499364588 1 0 1
5595 1665 4 -9.391025809637734 -0.6832230432590796 -6.515057760853076 1 0 0
5973 1791 4 -9.28783247707636 -0.9313611623223816 -6.236835557183178 1 0 0
5971 1791 2 -9.521331792701005 -1.311323382418552 -6.010767468098607 1 0 0
1863 421 4 -6.670955982285927 -0.6994489282387334 -7.758698135290935 0 0 0
4976 1459 4 -7.0609366504585225 -0.6805302233423723 -7.722328424294886 1 0 1
4975 1459 2 -7.18660103323526 -0.19697018689070395 -7.702882240908441 1 0 1
2525 642 4 -10.541618075676285 -7.598937163225774 -1.7229999740423196 0 0 0
1690 364 2 -6.279529433239513 -1.7467015955715537 -6.187844782939153 0 0 0
15 3 3 -4.7750855953978535 -0.4191519148893438 -7.236313641832217 0 0 0
1759 387 2 -4.6921897490387545 -0.6090388414445834 -6.40338866935366 0 0 0
1582 328 2 -2.9969033804675145 -10.572772960845539 -9.580046271544747 0 0 0
1760 387 4 -4.647564119568575 -0.424579127810931 -6.86597181565341 0 0 0
1691 364 4 -5.807112507514539 -1.7337187143719093 -6.024585194907306 0 0 0
1913 438 4 -5.8025384325717555 -1.4393542994072352 -5.776960667162099 0 0 0
1801 401 2 -6.933031941240502 -2.097324878635169 -0.026190536156810596 0 0 0
3818 1073 4 -7.022197448801039 -9.881649136527741 -5.529510127055792 0 1 1
3817 1073 2 -7.1387452938565685 -9.686207791456445 -5.084291887930762 0 1 1
3819 1073 4 -7.255293138912098 -9.490766446385148 -4.6390736488057325 0 1 1
4281 1227 4 -6.7256204971764815 -10.081938496125828 -5.6900273051794565 1 0 0
5084 1495 4 -9.559513827149189 -10.392111384290203 -9.776253235593822 1 0 1
5820 1740 4 -5.723442722973836 -10.353951499521672 -5.431032993769975 0 1 0
367 74 3 -2.9594013844345484 -10.52575473843455 -5.270817485976268 0 0 1
1954 452 2 -2.4014065475654323 -10.039016639798618 -5.686054942581926 0 0 0
1955 452 4 -2.7245604986058956 -10.23009161492338 -5.355809764255304 0 0 0
102 21 3 -0.1549010838342806 -9.24797691287209 -4.948983540364178 0 0 0
4901 1434 4 -8.256742810062159 -7.615561824484535 -6.767430762105415 1 0 1
1877 426 4 -5.958884826762631 -7.651230075685577 -4.990671337306549 0 0 0
2944 782 2 -5.445295462393073 -8.014383628203099 -4.427891305593671 0 1 0
2946 782 4 -5.624751660698689 -7.732048542458462 -4.799485670792166 0 1 0
2945 782 4 -5.2658392640874565 -8.296718713947735 -4.0562969403951765 0 1 0
4485 1295 4 -1.5311196442300492 -8.579928919092039 -5.663071058921815 0 0 0
4434 1278 4 -0.4236561129587959 -9.096786353689799 -6.026569950861878 0 0 0
103 21 3 -0.14273351536811404 -8.55684569544033 -5.24409299559814 0 0 0
2169 523 4 -1.2678044385625284 -7.796986320236983 -5.2615014397458975 0 0 1
2168 523 4 -0.5275979348416397 -8.464093305044106 -5.345540732162993 0 0 1
2167 523 2 -0.8977011867020841 -8.130539812640544 -5.303521085954445 0 0 1
5841 1747 4 -1.1644631610241796 -7.745484793475495 -4.872776762248859 0 0 0
4212 1204 4 -10.52184450854136 -7.0650018382552195 -6.286362182090421 1 0 0
4443 1281 4 -7.859739697309082 -2.7163226756441308 -10.35668437590242 1 0 0
1935 445 4 -9.740021703288573 -6.4738023344989575 -5.204944223271442 0 0 0
1933 445 2 -9.465740225452532 -6.625991616962948 -5.594313062830043 0 0 0
920 184 3 -9.906775211106376 -6.704219306095173 -4.934308012784319 1 0 0
1934 445 4 -9.19145874761649 -6.778180899426939 -5.9836819023886445 0 0 0
939 188 3 -8.888019486762863 -7.0247903391359845 -5.997637102686676 1 0 0
1876 426 2 -6.364789656055668 -7.461674729974952 -4.768612695346735 0 0 0
2927 776 4 -2.316748805466491 -6.970526142253571 -5.811805153947145 0 1 0
2926 776 2 -2.027131226363062 -6.852822954183352 -5.421590319026215 0 1 0
1570 324 2 -1.038784869585686 -6.401583817801061 -5.119540354483282 0 0 0
1571 324 4 -0.6096947656368453 -6.2097250653595015 -4.949035510550717 0 0 0
2052 484 4 -0.28943480799094196 -6.444196549416845 -4.959565161238992 0 0 0
2928 776 4 -1.7375136472596329 -6.735119766113132 -5.031375484105285 0 1 0
5979 1793 4 -9.70861550252761 -4.934153041161603 -4.300010501843312 1 0 0
4709 1370 4 -9.584472876868897 -5.201561170480034 -4.579612553572955 1 0 0
4708 1370 2 -9.124194876994451 -5.105674591041276 -4.749759333487479 1 0 0
4529 1310 4 -8.520590646373924 -5.386712554347439 -4.985460901790777 1 0 0
4710 1370 4 -8.663916877120005 -5.0097880116025175 -4.919906113402002 1 0 0
4528 1310 2 -8.024383706439028 -5.444227524704594 -4.963765258327351 1 0 0
2909 770 4 -6.47259563212148 -5.3364159123600325 -4.7384749187771185 0 1 0
120 24 3 -6.753462799462813 -5.04742321643762 -4.779501848715506 0 0 0
2908 770 2 -6.482755108179119 -5.762214006529042 -5.0003771296274975 0 1 0
2830 744 2 -4.085034895757152 -5.078020262771744 -5.941762316100578 0 0 0
2832 744 4 -4.076663781701825 -5.252069111962761 -5.473107941806639 0 0 0
2541 647 4 -4.169925403282589 -5.283578427265937 -5.1032026059088045 0 0 1
2539 647 2 -3.9777184087076702 -5.51172157274981 -4.701945610449187 0 0 1
2540 647 4 -3.785511414132752 -5.739864718233683 -4.300688614989569 0 0 1
1572 324 4 -1.467874973534527 -6.593442570242621 -5.2900451984158465 0 0 0
5977 1793 2 -9.891909942170988 -4.5588239857119905 -4.0251810119205 1 0 0
884 177 3 -8.624487981133806 -3.1219280246501673 -4.824607215696479 1 0 0
1597 333 2 -7.821390576004751 -3.9494477793112095 -4.779751142931122 0 0 0
1598 333 4 -8.21216264180346 -3.722338307371193 -4.993569945534297 0 0 0
883 177 3 -8.21543434402507 -3.5162052209096832 -5.32940481323197 1 0 0
881 177 1 -8.581750054955446 -3.237243812268046 -5.272017249996056 1 0 0