LAMMPS data file via write_data, version 4 Feb 2025, timestep = 100000, units = lj

154 atoms
4 atom types
104 bonds
1 bond types
60 angles
2 angle types

-3.834426 3.834426 xlo xhi
-3.834426 3.834426 ylo yhi
-3.834426 3.834426 zlo zhi
0 0 0 xy xz yz

Masses

1 1
2 1
3 0.1
4 0.1

Bond Coeffs # harmonic/omp

1 100 0.45

Angle Coeffs # harmonic/omp

1 100 180
2 100 109.471

Atoms # full

106 34 4 0 -1.4710126981473577 -2.7585652866083383 -3.518238027623853 1 0 1
104 34 2 0 -1.2618158793363823 -2.5832432327355663 -3.831603838000113 1 0 1
12 3 4 0 -3.4874532619665657 -1.017990106575024 -2.904779616092234 1 0 0
85 27 4 0 -1.6036925600878802 -0.24722657238172152 -3.687004357671778 1 0 0
36 11 4 0 -1.3219630800387976 -3.6368124566103988 -2.054165345353928 0 0 1
35 11 2 0 -0.899491743724933 -3.5630591918561647 -1.9708018614155243 0 0 1
46 14 4 0 -0.31037298045082506 -3.182869658403973 -2.1024721967568736 0 0 1
11 3 2 0 -3.350751078309705 -1.0038380666764284 -2.454434993689401 1 0 0
13 3 4 0 -3.227861456229263 -0.9925993869304621 -2.032722530487603 1 0 0
103 33 4 0 -2.8545329921322993 -0.961955797128379 -1.9422085811195156 1 0 0
16 4 4 0 -3.145333973908195 -3.798287862915253 -1.2282346871319683 0 0 0
37 11 4 0 -0.44633204273612614 -3.5004829085355462 -1.8818787757862878 0 0 1
101 33 2 0 -2.617859727237632 -0.9574248657595952 -1.5687189811321733 1 0 0
102 33 4 0 -2.3735316272604896 -0.9529611570154075 -1.185101330821361 1 0 0
97 31 4 0 -1.8332285545458853 -0.6138996673781199 -0.229931814994647 1 0 0
95 31 2 0 -1.6540237117420333 -0.25238326870868333 -0.41758081517679546 1 0 0
130 42 4 0 -1.6898085937630989 -1.3384062310248948 0.6287785612658046 1 0 0
124 40 4 0 -1.330067549562934 -1.4619086027810018 0.4938354646546057 1 0 0
128 42 2 0 -1.9034745102293933 -1.0659098696890346 0.33698243228893476 1 0 0
122 40 2 0 -0.8985751581474677 -1.3668049991800197 0.46827797017638195 1 0 0
123 40 4 0 -0.43838092797224304 -1.2655336006728586 0.4374659256977922 1 0 0
87 28 4 0 -0.0824634614227131 -1.1550545496647655 0.30576866472337505 1 0 0
129 42 4 0 -2.1157970239916635 -0.7733828522812591 0.023086498151806634 1 0 0
148 48 4 0 -1.538937362047077 -3.491413162743057 1.8253864526869434 2 1 0
142 46 4 0 -1.1646379831342393 -3.4161425571781203 1.7491543319875142 2 1 0
146 48 2 0 -1.8283662123140392 -3.1723684064206 1.811938330720984 2 1 0
140 46 2 0 -0.7394546977568961 -3.5732375069661506 1.6631321616442976 2 1 0
138 45 4 0 -0.11416355004471601 -3.589738948136719 1.2446556550279175 2 1 0
141 46 4 0 -0.32155794914247204 -3.7344868543659047 1.5775126444798109 2 1 0
147 48 4 0 -2.126765073227733 -2.842463033775858 1.7980082644953401 2 1 0
42 13 4 0 -3.771930514222952 -0.8594380426001815 1.2422701297409637 1 0 0
81 26 4 0 -0.24229951889429513 -2.170609247605185 2.474713716063588 1 0 -1
154 50 4 0 -0.6158434029232693 -1.071376877876046 2.8339103898401468 1 0 0
152 50 2 0 -0.5088768103190753 -0.8391504114374149 2.46035465544499 1 0 0
153 50 4 0 -0.40781137070011564 -0.6078093921724372 2.1007936110413525 1 0 0
132 43 4 0 -0.27027349961641356 -0.22138159770801824 2.0518256152129113 1 0 0
115 37 4 0 -0.2492473327761222 -3.81221882526474 3.326306825430873 2 1 -1
99 32 4 0 -1.1256487352910334 -2.0082615980883194 3.4161590569378384 1 0 0
105 34 4 0 -1.0350793888019245 -2.389450542846599 3.4912275993756876 1 0 0
98 32 2 0 -1.0277812344812394 -1.6209585593132538 3.1935588736688048 1 0 0
100 32 4 0 -0.940636759619661 -1.2496342282615198 2.9906289300109212 1 0 0
144 47 4 0 -1.0530208283355877 0.7389813984285634 -3.2306400535449447 2 0 1
143 47 2 0 -0.6114734918726077 0.8014043795777153 -3.3676053771786347 2 0 1
145 47 4 0 -0.16420822884944064 0.85873917463404 -3.5104308329903 2 0 1
126 41 4 0 -3.4058154032116583 1.7749903821696074 -1.9489905812122637 2 0 0
125 41 2 0 -3.48270288768052 1.3661470429167797 -1.7822835059498146 2 0 0
127 41 4 0 -3.562199600255781 0.9738960188094077 -1.6204040877006451 2 0 0
61 19 4 0 -2.2762889613163635 1.2253863203583353 -1.2594568910846662 2 0 0
59 19 2 0 -2.6412639631576527 1.2908817439333728 -1.0118008572957615 2 0 0
15 4 4 0 -3.81749922796113 3.4263053824134517 -1.7061738666237383 0 -1 0
14 4 2 0 -3.4718473091774387 3.654873488340274 -1.4588682510662894 0 -1 0
8 2 3 0 -2.788998846857541 3.7223399745297585 -1.3313377956067476 1 -1 0
6 2 1 0 -2.3381457125747445 3.6097558033764527 -1.3069966353157123 1 -1 0
9 2 3 0 -2.110854125412388 3.8190002116690134 -1.6253758035190153 1 -1 0
10 2 3 0 -2.290894473870977 3.1771967742014957 -1.3711916138479894 1 -1 0
96 31 4 0 -1.4761899848078492 0.11865615836085741 -0.6007474652276179 1 0 0
53 17 2 0 -3.6563764362843116 1.4738840514294957 -0.2633672483887972 2 0 0
60 19 4 0 -3.0050453715926047 1.3396287296813303 -0.75533673728965 2 0 0
54 17 4 0 -3.359511598120684 1.4376246787388172 -0.5699444910725755 2 0 0
111 36 4 0 -0.14883590469869334 1.0220132923219274 -0.12448041391221043 1 0 0
7 2 3 0 -2.1710907038579355 3.7290416848848733 -0.8964958111924064 1 -1 0
151 49 4 0 -3.1183954982700652 2.641584263452526 0.22868569853941834 2 0 0
149 49 2 0 -2.749427385393086 2.8446106680039107 0.40283659936598193 2 0 0
134 44 2 0 -0.4805891112813212 2.7372214494581653 0.7466337000865759 2 0 0
136 44 4 0 -0.04010600487580884 2.5907223685097764 0.7507783049105838 2 0 0
69 22 4 0 -2.1437000730850224 3.3501485841615115 0.488227510219422 2 0 0
150 49 4 0 -2.386925149122109 3.0406611326841424 0.5610509633998766 2 0 0
68 22 2 0 -1.7045446213746178 3.2101578579712142 0.6167070071902052 2 0 0
70 22 4 0 -1.2764277751557347 3.0743881886154854 0.736926700588628 2 0 0
135 44 4 0 -0.9257724976314337 2.888729508919956 0.740665494528336 2 0 0
93 30 4 0 -0.47834675264735216 0.7883825326203238 2.6804589864020154 1 0 -1
133 43 4 0 -0.26303993847761253 0.597613715572566 2.374791718001934 1 0 0
131 43 2 0 -0.2632889096434674 0.19764248898729742 2.218846964422967 1 0 0
83 27 2 0 -1.4706980767995037 0.16735568397368317 3.796205114366375 1 0 -1
84 27 4 0 -1.3472792409839855 0.583974137155026 3.6235140402919 1 0 -1
94 30 4 0 -1.2163857152712647 0.7166195026812239 3.2351752958791207 1 0 -1
92 30 2 0 -0.8513339390136805 0.7549652569277918 2.9516042094548767 1 0 -1
45 14 4 0 0.5998538586139825 -2.9839060171637617 -2.1145269612954483 0 0 1
44 14 2 0 0.14915048977534306 -3.082593112885606 -2.1061913780742403 0 0 1
18 5 4 0 0.8310535859679198 -3.1286047650721525 -1.7874056199198187 0 0 0
17 5 2 0 1.154448926928199 -2.976297707892593 -1.5184319094053245 0 0 0
19 5 4 0 1.4815411757678034 -2.817942505873998 -1.2503635119842058 0 0 0
24 7 4 0 1.2797496579467293 -2.496949579685133 -1.078790478214732 0 0 0
22 6 4 0 1.6756956520312438 -0.6175676564203569 -1.4403490055366484 0 0 0
20 6 2 0 1.8440926095591421 -0.8223934287836263 -1.1012769415149726 0 0 0
51 16 4 0 3.500305696799719 -0.0648317592316312 -1.7597278715957074 0 0 0
23 7 2 0 1.415750530903702 -2.2521602209530847 -0.725300856002367 0 0 0
25 7 4 0 1.542991240018329 -2.0023534305768953 -0.3672869571381403 0 0 0
88 28 4 0 0.1992438915817334 -1.6353235372246413 -0.3907041792802315 1 0 0
86 28 2 0 0.050177650742121216 -1.3827866854156854 -0.022947390595532635 1 0 0
89 29 2 0 2.3029435853975646 -1.2523249986578056 -0.07904400904786035 1 0 0
21 6 4 0 2.01910500114773 -1.048582412335545 -0.7363324338351087 0 0 0
90 29 4 0 2.3360567404614403 -1.1179436344988587 -0.5140932651460726 1 0 0
29 9 2 0 2.1445646158960563 -1.883283292251134 0.9487110290740648 0 0 0
31 9 4 0 2.2607425971860713 -1.504297153405218 0.7137119696407894 0 0 0
91 29 4 0 2.274059888866256 -1.3825016114331499 0.34523698377521006 1 0 0
30 9 4 0 2.026255071070603 -2.2815968181926913 1.1794370991399243 0 0 0
71 23 2 0 1.7698632484703398 -1.2407438786885936 1.8594120026545915 0 0 0
73 23 4 0 1.997816387788221 -0.8801876274686653 1.7354828608193427 0 0 0
66 21 4 0 2.783497151178492 -0.33681896204262696 1.152248318749328 0 0 0
65 21 2 0 2.434768306834259 -0.42470071457637726 1.3915384804329745 0 0 0
67 21 4 0 2.0741983777030284 -0.5150697545387968 1.6292727796661297 0 0 0
41 13 2 0 3.4699841554711646 -0.7579106020612385 1.2275860048064708 0 0 0
43 13 4 0 3.044159586475178 -0.6487045287642301 1.212992585100705 0 0 0
63 20 4 0 1.6119345793873365 -3.395046537771713 2.6995420231597387 1 1 0
33 10 4 0 1.665523947816229 -3.191049171293762 2.348123212358955 0 0 0
32 10 2 0 2.101140383271271 -3.108514532975793 2.194351022036774 0 0 0
34 10 4 0 2.5092477586644457 -3.0371837161255484 2.0477434780606543 0 0 0
82 26 4 0 0.6160227798949758 -2.415213163461542 2.359311669066637 1 0 -1
80 26 2 0 0.17967360484786843 -2.290156209189082 2.4179728888524328 1 0 -1
39 12 4 0 0.9820039024325227 -2.5354174530941838 2.5040387864205536 0 0 0
38 12 2 0 1.3041758426012788 -2.234668138329287 2.3360589753997183 0 0 0
40 12 4 0 1.6128313580476017 -1.9468485482507552 2.182799455762509 0 0 0
72 23 4 0 1.5447163534152089 -1.6109090286297287 1.9864278179951387 0 0 0
3 1 3 0 1.4930882971937955 -0.7344907232598006 2.80671637630711 0 0 -1
64 20 4 0 0.9338713419224232 -3.7470715394034366 3.198789753696382 1 1 0
114 37 4 0 0.5830704599590661 -3.743343403752068 3.004962083973991 2 1 -1
113 37 2 0 0.1759478406001418 -3.774648096009619 3.1708638703095597 2 1 -1
62 20 2 0 1.2854403566540173 -3.5701152202657402 2.9490644754106925 1 1 0
1 1 1 0 1.6233413890976158 -0.4857126054745464 3.149817619062538 0 0 -1
2 1 3 0 1.2900192821945793 -0.20068572757141823 3.26620654682637 0 0 -1
5 1 3 0 1.7164361565780184 -0.7519998311273635 3.492579199773074 0 0 -1
4 1 3 0 1.9837694127774452 -0.2540945956892515 3.041896972591814 0 0 -1
107 35 2 0 0.5367654726488946 0.8972541952923598 -3.7057518919366847 2 0 0
108 35 4 0 0.07786063974166568 0.8618300728984454 -3.8332332208064117 2 0 0
109 35 4 0 0.9824715078664465 0.9320118052749309 -3.57730196213697 2 0 0
120 39 4 0 2.578364393498623 2.0494916187600922 -3.1122856280528626 1 0 0
119 39 2 0 2.657800851236406 2.372611941595913 -2.833865336331695 1 0 0
121 39 4 0 2.7515411581499767 2.7187937468612815 -2.5335432714600623 1 0 0
79 25 4 0 3.1146858597425466 2.752403099257331 -2.4000307532617873 0 -1 0
77 25 2 0 3.3438965142034704 2.9436550249683386 -2.0761532715383324 0 -1 0
52 16 4 0 3.7978781888359117 0.7341016747812215 -1.7289776166758428 0 0 0
50 16 2 0 3.649289304896586 0.3375557105211402 -1.736510367042643 0 0 0
78 25 4 0 3.573501718789973 3.1374275379315457 -1.762441445343729 0 -1 0
112 36 4 0 0.4425904357876411 1.1070681031432472 -0.8633933290663269 1 0 0
110 36 2 0 0.12793978463745326 1.061799737205702 -0.4771995367382087 1 0 0
28 8 4 0 2.5040837654817847 0.6270774329552 0.7488339377452751 1 0 0
58 18 4 0 2.6048030747860778 0.9611008635096661 0.5130253782129555 1 0 0
56 18 2 0 2.94062199286155 1.2127257413551065 0.2789297783124396 1 0 0
57 18 4 0 3.26853343498581 1.439685113747537 0.059579086583139595 1 0 0
55 17 4 0 3.685872765557358 1.5109273131092125 0.05863385089753992 1 0 0
116 38 2 0 0.6294350754893041 2.6442220918456454 0.8906378766595009 2 0 0
117 38 4 0 0.2998166263770927 2.389556570120947 0.7236074568938862 2 0 0
75 24 4 0 1.4695566642440165 0.7999160479327441 1.3445759055456192 1 0 0
27 8 4 0 1.8691798751947526 0.890914695307266 1.3862212017508786 1 0 0
74 24 2 0 1.2806814481526394 0.8915165428102347 1.7266680479057004 1 0 0
26 8 2 0 2.200354347717719 0.756030819835074 1.0597582948193227 1 0 0
137 45 2 0 0.1707542843084382 3.728439416696054 1.1612115602708921 2 0 0
139 45 4 0 0.44913473404922355 3.3973708459072696 1.0869510916485958 2 0 0
118 38 4 0 0.9853397385028502 2.9159303130255343 1.0697973574161215 2 0 0
49 15 4 0 1.095370858307486 0.8903970598097675 2.492259835410526 1 0 0
47 15 2 0 1.1421770867360705 0.5294970580401253 2.779301546496202 1 0 0
76 24 4 0 1.0935296103398087 0.9831108159918913 2.124307206140825 1 0 0
48 15 4 0 1.1740385059803784 0.15120122888101184 3.064642181559576 1 0 0

Velocities

106 -0.2986480261760061 0.5777068473154859 -1.566534385680831
104 0.21787105206366394 0.11434053607978054 0.11989703403030356
12 1.1201399029714778 -1.239650699417034 -0.12045759338352027
85 0.29513782287942 -0.7424186198645205 -0.20581665324721696
36 -0.7073153407003434 0.5373919701840754 -0.9592605400397087
35 0.05176266695468849 -0.22144646042797356 0.040114660316012754
46 1.4700424221721864 -0.5961933955507305 -0.2826598367725341
11 -0.46433201489638665 -0.13632905741474055 0.0479326098613117
13 1.4446386373154125 -0.23688159642984322 -1.4609886770780367
103 -0.32486996450980515 -0.6726471226817615 0.4342774517180201
16 0.11182330843946552 0.6788211198010993 0.8856340518213547
37 0.6225462510071453 0.598366907613494 0.8975317985388945
101 0.04035199152294104 0.29461090868737244 -0.1724319549781994
102 -0.5235986314899298 -1.0034203511936917 0.2508829292686555
97 -0.4990019839552942 -0.8839086124514203 -0.11822621643243661
95 -0.10868212071869394 -0.2533598023532467 -0.03263709300784136
130 0.8674076555580525 -0.10945924779027166 0.3857973949663332
124 0.4920136204553044 0.4306576338225655 -0.16635865160906288
128 -0.3542250537332457 -0.32648170037996743 0.0786026075224439
122 -0.11117705041176437 -0.09121088684200557 0.31763004163010444
123 0.7930870781478939 0.0922411544105798 0.45805170022255676
87 -0.09465888447524078 -0.6472223623744137 -0.763545850948452
129 0.4727379601873495 0.6572357087464024 -0.08815323671642983
148 -1.0224518919629413 1.1923683995277585 0.6791622344224787
142 0.9746434200316533 -0.9216727911319151 0.3570084654672364
146 -0.2985699850269012 -0.2968094484900369 0.11709119793106648
140 0.09617425625463955 -0.11793310909258471 -0.07868591580561012
138 0.1993345575388856 0.2223363555054409 0.42100704166640074
141 0.557058932232079 0.038934010325589415 -0.7032787294026916
147 0.0738780725400831 0.22178902524614377 1.546536401636729
42 -0.07881232146955577 -0.6457317572637988 0.883207848984838
81 0.14623015015904975 -0.5907945420926628 0.15794895259533037
154 1.3540990735242642 1.526847013882707 0.0940404292586986
152 0.14406193580751472 -0.09957866469010648 -0.11535862871799103
153 -0.727657954438805 0.5984078797421948 0.4824774753890766
132 -0.5575118710029576 -0.0313795884120077 1.1636214842298898
115 -0.1007910178661588 0.9471635692974809 0.34656519896148114
99 0.5464057997224218 0.2998982288212685 0.7680909672254155
105 -0.5438422981190754 -0.5703082311578462 0.1781413541974364
98 -0.1093549671261358 -0.009021052392494885 -0.06102520247368187
100 0.6394848950401807 0.25603284781423274 0.4178221198674156
144 -0.5487098200020804 0.005328303528429404 0.3060745522315917
143 0.05991884007091414 0.39032045965684625 0.169100302507447
145 -0.43804227547084584 -1.2885776027291764 -0.35153780606914686
126 0.8232680750929726 1.856960493374501 -0.2327924148646697
125 0.19562873707037945 -0.11233541010593834 0.02842359070377398
127 1.22459173073896 1.6949061527791074 0.0361070833722773
61 -0.013900672647997589 0.9134835832406591 -1.0819859014071636
59 -0.18171285320719271 0.14401859765184957 -0.2469530428710855
15 0.2683522060141153 0.36305017197795086 0.14355388740809003
14 0.2458206152563935 -0.309180264492389 0.0379661281130407
8 -0.18001167232175888 -0.7518831258308322 -0.7796553583787759
6 0.29541807932979464 0.06791981895202315 0.08418498201704588
9 -0.30590127065530465 0.5676241093675328 0.37397394710664744
10 -0.7309097072102364 0.08091549935407269 0.6726361033586035
96 -0.13315401174555547 0.1374921491653426 -1.0352146859521958
53 0.47008852223870573 0.3905357386239531 0.08474211935193847
60 0.4404584913627277 0.43895894666309343 0.4643316840067157
54 -0.22720871516022823 -0.9554882950837122 0.817379775701847
111 0.45035978841308 -0.31061128638329677 -1.8233671472412898
7 -1.8663490173933828 -0.1083161453445775 -0.7199001233489973
151 -0.23385948253613542 -0.20645200002627564 0.9382729522812749
149 0.19141657384613311 -0.24632587663128092 -0.08553507243342678
134 -0.006924204050740734 0.15003757595292697 -0.24089788778065124
136 -0.6610720971453692 -1.2317311418862655 1.4383122261368262
69 -0.4534620835464708 0.06515834284437307 1.034399665384607
150 0.02639595713261733 1.5916188237175124 0.5733268877601123
68 -0.17202506118884137 -0.061694221577519776 0.27307427151108704
70 -0.36905305374512853 -0.10276181620855993 -0.9425772055854112
135 -0.8662696432958827 -0.47570825356086566 0.6780468717975668
93 0.3116837853502552 0.4483646762621756 -0.8335996784508887
133 -0.14637873049183842 0.9062187148706532 -0.6454617570334036
131 0.07565676864043427 0.2591797514343018 0.09417145522512436
83 0.37861662749586583 -0.1091957537815231 -0.2412169450262172
84 -1.2909240618308555 -0.08829357544997804 -0.4855509530778669
94 -0.08846369806681591 0.2261324608417642 -0.6278629663537232
92 -0.07216324400033727 0.41330242348961305 0.45021006535661273
45 -0.570095946166333 1.3816678940365354 0.050355869954750235
44 -0.11358380949968515 0.07475490179373787 0.31881528522337876
18 0.27418882157799274 -0.6303062390874239 -0.6065570794815681
17 0.11685507432109794 0.07310257374038662 -0.14387630656202532
19 0.06337223636128239 0.4975881580788366 0.4710322323595198
24 -1.6916844245901614 0.6121741857572675 0.11237161529303186
22 -0.7142624955981981 -0.027360510506012563 -0.19299725836020884
20 -0.04140096017954478 -0.3046063761461723 -0.11390629129075953
51 0.46689067690852337 0.10613223413717769 0.6354491378905378
23 -0.11656943379410747 0.1513748920081526 0.1699477303696172
25 -0.37615767046764137 -0.15382544341763973 0.03126847272131512
88 0.87073232092894 -0.19220506922006786 -0.027432096728957925
86 -0.031211774799251534 -0.26063608925833737 -0.36267744052030765
89 0.31872736236937255 -0.00959274739821748 0.12455489007383003
21 -0.3547957238124375 -0.6263110652452453 -0.5120883871434166
90 0.10754220677033427 -1.0247284700789991 1.1553271084197285
29 0.3924605108571594 0.11429826224980191 -0.10106436457359703
31 0.5994656315665754 1.1858749470184113 0.7402116046727844
91 0.5665770900907504 0.2209765905881488 0.04884544801481612
30 -0.21875190896678687 -0.0822402855530886 0.4285626689013795
71 0.07107943870240854 0.02439302797811281 -0.006076878168814857
73 0.2450116787525805 1.0199555832373794 -0.023566949735178998
66 -0.4934515469047619 -0.2598401828072884 -0.988189304201219
65 -0.38279780147857745 0.25786527378877144 -0.08713845030584982
67 -0.23752931938111338 0.37587701929667905 1.5998965717916627
41 0.19805240773363378 0.14663755553559804 -0.06072185635838767
43 0.37575212718296075 0.3298178091521801 -0.29804456065505003
63 -0.36400441944065276 -0.15072618455161113 -0.5736548725455499
33 0.33869739244360547 -0.11904193096002734 2.0672290462962937
32 0.43121811605762916 -0.47784815796063496 0.06694960551955786
34 -0.17764399975032094 0.4709051526713371 -1.158595757733285
82 0.5630805658727299 0.37608259495493873 2.4094137847380863
80 0.32080130974627985 0.1944505761965634 -0.043598852648414885
39 1.054317683365302 -0.09235325757918682 -0.4069551565286403
38 0.4433046759802304 -0.20760305344833413 -0.057270295560790586
40 -0.33706129245779126 0.36490178698289205 -0.25444509489575434
72 0.5446487122363523 -0.09354730681761075 0.5326356110253804
3 -0.09317211360957131 -0.33268076605634406 0.16967928670153723
64 -0.04678379466886818 0.16111227942974538 0.3751757090319183
114 -1.041607517517782 -0.6300205194167021 0.5691172693440741
113 -0.19882460425149273 -0.18129835083873339 -0.009607099560590686
62 0.14238743274852617 0.18155194997164137 -0.1944319710193892
1 -0.07897542320722314 -0.060718468355688796 -0.2962035456206393
2 1.235632832286116 0.11975718703347965 0.1961279594365723
5 -1.1517996437459699 1.363200127162269 0.5818544580233399
4 -0.6475602555174177 0.028846429498811665 -0.8452241788342311
107 0.04392808393031164 -0.2233102134804346 0.20695300138551895
108 0.32716374893710354 1.2966767639467036 0.5570337635933508
109 -0.4816574847646519 0.2825406420918884 -0.23050349597913714
120 -1.6420904469531499 0.49616379738938426 -0.6388146829843113
119 0.12242929535752438 0.08354371073521441 -0.28285541771446143
121 -0.44270321556347125 -0.12301101425053577 0.6108578326664482
79 0.3633208446033761 -0.4393367107147662 -1.3274985868867775
77 -0.16343238190441284 0.005350499723160176 0.03745751287674319
52 -1.352876257632485 -0.4517302811279922 -0.3512251018471799
50 0.018948513757152348 0.15966910656274605 -0.04125783501081663
78 0.1815482252609748 -0.7195364760039745 0.22950120496707638
112 -1.7742619260641652 1.0989634509835213 0.26111959175287797
110 -0.5002672129177484 0.22899760605791655 0.04344265868770254
28 0.24872128485836204 0.07355119270739144 0.6335525032157374
58 0.39216869889497463 -0.4433165469748417 0.11756636217512195
56 0.13464137778202492 -0.34013093921940846 -0.3823687606177933
57 0.6738160829645252 0.9514818639816104 -0.06547347466361338
55 -0.5838589375405169 0.6685470315476895 0.03556372758248806
116 0.6797602769420652 0.11777544103474241 -0.009999378165398665
117 -1.3538896446647917 -0.5368185684531347 -0.3207985283491406
75 -0.09168150549882537 -0.8723295972140014 0.1948207549503276
27 0.011306781645821412 -0.7371561280445758 0.36529049995640306
74 0.2825381797323577 -0.2841448612456484 -0.1991725534138984
26 -0.3250333350808601 -0.49635823418439884 0.14859141765322817
137 0.14750736501783174 0.2288881046925756 -0.4722227933127859
139 -0.4638094698245526 -1.2284364159437342 0.2784463877023604
118 1.1433425727535826 -0.14411556315458163 0.3086517820732696
49 1.2468789250204084 1.0649728794730309 1.2062284006142259
47 -0.031007923867741018 0.07801304582134354 0.0482151242898951
76 -0.39363725944639627 1.5307650853738834 -0.4442715355675301
48 0.5394860403498685 -0.8062883574581037 0.3149509467720199

Bonds

1 1 104 105
2 1 104 106
3 1 35 36
4 1 35 37
5 1 11 12
6 1 11 13
7 1 101 102
8 1 101 103
9 1 95 96
10 1 95 97
11 1 128 129
12 1 128 130
13 1 122 123
14 1 122 124
15 1 146 147
16 1 146 148
17 1 140 141
18 1 140 142
19 1 152 153
20 1 152 154
21 1 98 99
22 1 98 100
23 1 143 144
24 1 143 145
25 1 125 126
26 1 125 127
27 1 59 60
28 1 59 61
29 1 14 15
30 1 14 16
31 1 6 7
32 1 6 8
33 1 6 9
34 1 6 10
35 1 53 54
36 1 53 55
37 1 149 150
38 1 149 151
39 1 134 135
40 1 134 136
41 1 68 69
42 1 68 70
43 1 131 132
44 1 131 133
45 1 83 84
46 1 83 85
47 1 92 93
48 1 92 94
49 1 44 45
50 1 44 46
51 1 17 18
52 1 17 19
53 1 20 21
54 1 20 22
55 1 23 24
56 1 23 25
57 1 86 87
58 1 86 88
59 1 89 90
60 1 89 91
61 1 29 30
62 1 29 31
63 1 71 72
64 1 71 73
65 1 65 66
66 1 65 67
67 1 41 42
68 1 41 43
69 1 32 33
70 1 32 34
71 1 80 81
72 1 80 82
73 1 38 39
74 1 38 40
75 1 113 114
76 1 113 115
77 1 62 63
78 1 62 64
79 1 1 2
80 1 1 3
81 1 1 4
82 1 1 5
83 1 107 108
84 1 107 109
85 1 119 120
86 1 119 121
87 1 77 78
88 1 77 79
89 1 50 51
90 1 50 52
91 1 110 111
92 1 110 112
93 1 56 57
94 1 56 58
95 1 116 117
96 1 116 118
97 1 74 75
98 1 74 76
99 1 26 27
100 1 26 28
101 1 137 138
102 1 137 139
103 1 47 48
104 1 47 49

Angles

1 1 105 104 106
2 1 36 35 37
3 1 12 11 13
4 1 102 101 103
5 1 96 95 97
6 1 129 128 130
7 1 123 122 124
8 1 147 146 148
9 1 141 140 142
10 1 153 152 154
11 1 99 98 100
12 1 144 143 145
13 1 126 125 127
14 1 60 59 61
15 1 15 14 16
16 2 7 6 8
17 2 7 6 9
18 2 7 6 10
19 2 8 6 9
20 2 8 6 10
21 2 9 6 10
22 1 54 53 55
23 1 150 149 151
24 1 135 134 136
25 1 69 68 70
26 1 132 131 133
27 1 84 83 85
28 1 93 92 94
29 1 45 44 46
30 1 18 17 19
31 1 21 20 22
32 1 24 23 25
33 1 87 86 88
34 1 90 89 91
35 1 30 29 31
36 1 72 71 73
37 1 66 65 67
38 1 42 41 43
39 1 33 32 34
40 1 81 80 82
41 1 39 38 40
42 1 114 113 115
43 1 63 62 64
44 2 2 1 3
45 2 2 1 4
46 2 2 1 5
47 2 3 1 4
48 2 3 1 5
49 2 4 1 5
50 1 108 107 109
51 1 120 119 121
52 1 78 77 79
53 1 51 50 52
54 1 111 110 112
55 1 57 56 58
56 1 117 116 118
57 1 75 74 76
58 1 27 26 28
59 1 138 137 139
60 1 48 47 49
