LAMMPS data file via write_data, version 4 Feb 2025, timestep = 130, units = lj

154 atoms
4 atom types
104 bonds
1 bond types
60 angles
2 angle types

-3.834426 3.834426 xlo xhi
-3.834426 3.834426 ylo yhi
-3.834426 3.834426 zlo zhi

Masses

1 1
2 1
3 0.1
4 0.1

Bond Coeffs # harmonic/omp

1 100 0.45

Angle Coeffs # harmonic/omp

1 100 180
2 100 109.471

Atoms # full

17 5 2 0 -2.0468407195089364 -3.488152495909265 -2.6250490810538145 0 0 0
18 5 4 0 -1.957010436690343 -3.2390017254828494 -2.214719624533282 0 0 0
19 5 4 0 -2.1425154624424967 -3.7340484845958453 -3.025020385209647 0 0 0
46 14 4 0 -2.22253282269396 -2.6709134933302066 -3.5031362188394555 0 0 1
23 7 2 0 -0.48604328836377764 -2.0945505679521053 -2.662862802223015 0 0 0
25 7 4 0 -0.3882589303780332 -2.5618412602663905 -2.7747028609433504 0 0 0
1 1 1 0 -1.9497112795985758 -1.4213730945247458 -2.8448867861194937 0 0 0
4 1 3 0 -2.380188346609819 -1.42964417331692 -3.021651907312893 0 0 0
2 1 3 0 -1.8601080211676502 -1.0085811418246657 -2.678441414648729 0 0 0
3 1 3 0 -1.9196869785215516 -1.7381706977545386 -2.5022816764257243 0 0 0
5 1 3 0 -1.6500185963906384 -1.5221185083853894 -3.169459656488559 0 0 0
24 7 4 0 -0.5774989473580697 -1.6228863714497972 -2.5489436032570096 0 0 0
14 4 2 0 -3.6119003104972522 -3.758820057873357 -1.7707945145469537 0 0 0
20 6 2 0 -2.139881565260924 -2.8081769777072707 -0.8937130993182073 0 0 0
21 6 4 0 -1.9512744821419103 -2.8723632564247237 -0.44653167085810275 0 0 0
22 6 4 0 -2.3232180002963467 -2.744522053704323 -1.3341616976751907 0 0 0
15 4 4 0 -3.8327495014667243 -3.368506392056794 -1.9450860815412394 0 0 0
11 3 2 0 -0.7092420163111495 -2.1453028859391754 -1.3595711980554375 0 0 0
12 3 4 0 -0.2142478585264282 -2.111606215360824 -1.3811638077765203 0 0 0
13 3 4 0 -1.2067704896764564 -2.179426364199228 -1.3427295583862224 0 0 0
28 8 4 0 -1.1978241995737196 -0.3287158497258616 -0.8699713663353146 0 0 0
27 8 4 0 -0.21252364123970366 -0.28384650422178814 -0.7765013986163292 0 0 0
26 8 2 0 -0.7091159641390277 -0.3059700288303994 -0.8241585107445926 0 0 0
29 9 2 0 -2.752393002689717 -1.1796680176729684 0.9871082375577283 0 0 0
30 9 4 0 -2.369251714193747 -0.9376936155456314 1.1814442873495181 0 0 0
31 9 4 0 -3.131678658630719 -1.4155373592697802 0.7946715377237863 0 0 0
35 11 2 0 -3.7244143289541647 -3.775610081838171 3.741804754718398 0 0 0
36 11 4 0 -3.6971975081210826 -3.30952283586741 3.60045356037218 0 0 0
44 14 2 0 -1.9122620660689524 -2.72125451824773 3.8040236503574496 0 0 0
32 10 2 0 -1.2481652107499908 -3.7973460774374432 2.7800253162754065 0 0 0
45 14 4 0 -1.593278204540552 -2.773160454050187 3.432656623396352 0 0 0
34 10 4 0 -1.7305711163181938 -3.75046214111823 2.740046169490849 0 0 0
38 12 2 0 -3.5796805305352586 -1.3615418936212136 2.418029739503369 0 0 0
39 12 4 0 -3.487128250228805 -1.4879944586389509 1.952018955697575 0 0 0
40 12 4 0 -3.6733238012651688 -1.2354683103692796 2.8832005394031115 0 0 0
41 13 2 0 -0.17143076478864835 -1.3189178356332683 3.15196020178115 0 0 0
43 13 4 0 -0.6546220321636143 -1.3634164847059236 3.1781029505377156 0 0 0
56 18 2 0 -0.7308087453009235 0.565678511015992 -2.324497043867359 0 0 0
57 18 4 0 -0.6273944573562021 0.2222253036396396 -2.0058081850577305 0 0 0
58 18 4 0 -0.8385306733671501 0.91485947365998 -2.650287934592308 0 0 0
66 21 4 0 -2.167396836621997 1.879128277598125 -3.7927595549020996 0 0 1
37 11 4 0 -3.751804085869292 3.4254922925773372 -3.7839302999316717 0 -1 1
59 19 2 0 -0.7570174084684029 2.559877967488762 -3.308169898616084 0 0 0
60 19 4 0 -0.4892180940249883 2.4051814372248805 -3.6871935085045533 0 0 0
61 19 4 0 -1.0222667427337684 2.7144695518637465 -2.9323681510280557 0 0 0
50 16 2 0 -2.080224273409004 1.2067380510283774 -0.6969173309048102 0 0 0
52 16 4 0 -2.5658194864277357 1.155323907197975 -0.6838153610417945 0 0 0
51 16 4 0 -1.590246542506933 1.2617408449009693 -0.7078851409810235 0 0 0
16 4 4 0 -3.3921308966770205 3.5099334687329886 -1.5951519754786323 0 -1 0
47 15 2 0 -1.2756233914937747 3.166396995034478 -0.2773372750220408 0 0 0
48 15 4 0 -0.9823153995982574 3.4473731788233137 -0.5522239657967448 0 0 0
49 15 4 0 -1.5675725841305213 2.8856178510735315 -0.003243512389148189 0 0 0
53 17 2 0 -0.9996463204936673 2.2454889331713694 -1.2771335671522053 0 0 0
54 17 4 0 -0.5418931803794531 2.256155321589166 -1.4450175165658852 0 0 0
55 17 4 0 -1.4573461349323376 2.233665880458324 -1.1093345608661482 0 0 0
127 41 4 0 -3.741635061848111 1.6881395779629464 1.0621699919993293 1 0 0
74 24 2 0 -0.9343034320623208 1.7051997545437434 0.5725419284801255 0 0 0
75 24 4 0 -0.8739812663535701 1.4192658996679428 0.9540524677647296 0 0 0
62 20 2 0 -2.6968820306966044 3.2526131831813188 1.564896802282913 0 0 0
63 20 4 0 -2.2094219056173663 3.2647868728298297 1.6243850933211528 0 0 0
64 20 4 0 -3.1842928797102776 3.237124297657332 1.5043785030687784 0 0 0
69 22 4 0 -1.448801736287927 1.9185747079204436 1.6646562812592847 0 0 0
76 24 4 0 -0.9976656673952268 2.002599668581292 0.18103556599962478 0 0 0
68 22 2 0 -1.1415837698606839 2.279958371155201 1.5472178345870307 0 0 0
70 22 4 0 -0.8380446151574752 2.6419757648588345 1.4306390074570081 0 0 0
73 23 4 0 -3.4296778336311804 0.4506883859499473 1.8325383335945236 0 0 0
71 23 2 0 -3.352857447855757 0.3509539417811676 2.3121471001676506 0 0 0
72 23 4 0 -3.277621071013975 0.2537335132317291 2.790718100486712 0 0 0
33 10 4 0 -0.7556801931996543 3.820546544808836 2.82278757771211 0 -1 0
65 21 2 0 -1.8402404126937006 2.0633545531217914 3.5549471044778342 0 0 0
67 21 4 0 -1.513576835417032 2.250879237359106 3.2352227650392327 0 0 0
132 43 4 0 -0.029655403485081864 0.39275676664621706 0.6963819432960613 0 0 0
83 27 2 0 2.9246631755863643 -2.522034738180388 -2.7756746241541514 0 0 0
84 27 4 0 2.987555034629769 -2.801273722128514 -2.389330412511725 0 0 0
85 27 4 0 2.8615604036848374 -2.243213365248489 -3.1640854327980654 0 0 0
93 30 4 0 0.8103091131117706 -0.49039958138247064 -2.4828979395572985 0 0 0
92 30 2 0 0.5064427910821322 -0.17820515169604143 -2.692344953275191 0 0 0
80 26 2 0 3.00716564423868 -0.5206357005081581 -3.312422487858856 0 0 0
81 26 4 0 2.908604588102619 -0.05470668546501119 -3.427686037410446 0 0 0
82 26 4 0 3.1102921141822613 -0.9908752311807271 -3.195765593072402 0 0 0
6 2 1 0 0.9069136560701933 -3.361378992626061 -1.000377762370448 0 0 0
7 2 3 0 0.9370036496672506 -3.7873319945527966 -0.8463332288486026 0 0 0
8 2 3 0 0.5628987144796939 -3.1503756223037165 -0.7952120742172192 0 0 0
9 2 3 0 1.3071237398379993 -3.1319615944813815 -0.916844211564585 0 0 0
10 2 3 0 0.8352833786877515 -3.3690731365695044 -1.4419207705636972 0 0 0
77 25 2 0 1.8786055365780885 -3.3966142684976814 -1.8181626181011223 0 0 0
78 25 4 0 1.8669490097215924 -2.9139783450333883 -1.8727412803353107 0 0 0
89 29 2 0 3.4399455772078182 -1.2019022928515974 -0.037047461369348826 0 0 0
86 28 2 0 1.5051103617852883 -0.6472362463261766 -1.5095735209795267 0 0 0
87 28 4 0 1.8680650711601972 -0.9744266616356589 -1.5092306913092028 0 0 0
88 28 4 0 1.1425379049573396 -0.3182609119512355 -1.5088977439858284 0 0 0
91 29 4 0 3.547365474844859 -1.3752409957074956 -0.4734780518438963 0 0 0
97 31 4 0 1.19090722409385 -2.5658978861872273 1.753333291507472 0 0 0
101 33 2 0 0.7517532231214544 -1.585204422914001 0.11166082697632469 0 0 0
102 33 4 0 0.2734518873501757 -1.6492154548104077 0.15725747947328958 0 0 0
103 33 4 0 1.22573700501264 -1.5246509642289048 0.06621697612135569 0 0 0
133 43 4 0 0.7390445391189187 -0.09425518696882622 0.36235963261035364 0 0 0
90 29 4 0 3.3304416117209175 -1.0260416408534794 0.40318321721182554 0 0 0
151 49 4 0 3.3350192734999737 -0.3027430573863931 1.6751434976039001 0 0 0
95 31 2 0 1.1789282721392371 -2.5468254734480618 2.2378821390369925 0 0 0
96 31 4 0 1.1729180269618384 -2.5265121089383054 2.7273016362455067 0 0 0
106 34 4 0 1.710787395542048 -1.3617436882363863 2.0540009479702466 0 0 0
42 13 4 0 0.3178666507953497 -1.274617362235478 3.1273437499490653 0 0 0
98 32 2 0 2.7657580695063957 -1.7795432319809719 3.595021887709029 0 0 0
99 32 4 0 3.251845097118676 -1.8082684031126774 3.592205691927975 0 0 0
100 32 4 0 2.284765113789916 -1.7473853844636407 3.5980647300943462 0 0 0
104 34 2 0 2.1698246891091633 -1.2089678305588565 2.1121478802505136 0 0 0
105 34 4 0 2.630990034079225 -1.0538615346820022 2.170020266344442 0 0 0
108 35 4 0 1.8821436472041397 1.0210078333046209 -3.1279164198155955 0 0 0
94 30 4 0 0.20078926544945652 0.13695131281152245 -2.8990660549842993 0 0 0
107 35 2 0 1.9676661541019544 1.2312523915421303 -2.698376119112316 0 0 0
109 35 4 0 2.0526459131647328 1.439572368327093 -2.2677147053014526 0 0 0
121 39 4 0 1.1274738897474457 2.8981843969507186 -2.2569687705445074 0 0 0
113 37 2 0 2.8079876201424114 3.2380511694876337 -3.166803886370872 0 0 0
114 37 4 0 2.9629061884822456 3.1463732933212145 -2.69674277058379 0 0 0
115 37 4 0 2.6592452898952503 3.3207337248242927 -3.6201420772246515 0 0 0
122 40 2 0 0.8510152191553592 0.6816410446699481 -1.1066822335024322 0 0 0
123 40 4 0 0.5059747725469634 0.4699675321500953 -1.40670950393143 0 0 0
124 40 4 0 1.1836545594097345 0.8868557419545706 -0.8159992249821895 0 0 0
110 36 2 0 3.1355972066305413 0.3683868077621791 -0.6540235748381023 0 0 0
111 36 4 0 3.403143763498028 0.24169266033777076 -0.2664093932332265 0 0 0
112 36 4 0 2.867123384161553 0.4944244607328802 -1.0426512332857907 0 0 0
116 38 2 0 1.9021526893828817 2.134787700029333 -0.07201521113828216 0 0 0
118 38 4 0 1.449627008205554 1.9534175787677903 -0.00867806498752118 0 0 0
119 39 2 0 1.0865987369682832 2.623243557345007 -1.8570201550362873 0 0 0
120 39 4 0 1.0488403349425401 2.3466655511095236 -1.4597363754329145 0 0 0
117 38 4 0 2.3388062723758245 2.3189836253348446 -0.1330798613436175 0 0 0
79 25 4 0 1.893197774222638 3.7821249760334874 -1.762272730340998 0 -1 0
128 42 2 0 1.8563604679748698 1.1077981285101612 1.7620460682371346 0 0 0
130 42 4 0 1.6372746544453587 0.684732838843836 1.7465303977204818 0 0 0
131 43 2 0 0.348773651647517 0.15045813300828104 0.5322725620897362 0 0 0
147 48 4 0 3.128839572259276 2.5815462633018518 2.7734547456145053 0 0 0
125 41 2 0 3.777777292990355 1.5449293279828649 0.6146841612943016 0 0 0
126 41 4 0 3.6314978592970997 1.4089368812459306 0.18294824711266328 0 0 0
129 42 4 0 2.0784399301819545 1.5327801763460438 1.7723283186201284 0 0 0
137 45 2 0 0.0920246749568422 3.665583817974414 1.592849367661091 0 0 0
139 45 4 0 0.1121876814217374 3.7602773432695162 1.1181468434439288 0 0 0
140 46 2 0 1.9110658491906911 2.9060534304574848 1.0612920668577628 0 0 0
141 46 4 0 1.7432559636627227 3.3715079889656505 1.0532987879907454 0 0 0
142 46 4 0 2.0720278950690165 2.460292906807587 1.0645208033073312 0 0 0
154 50 4 0 0.23297793899155095 0.030151263947655032 2.286327143078084 0 0 0
153 50 4 0 0.8049224143734967 0.22496786001339236 3.033033543823297 0 0 0
152 50 2 0 0.5227669773020323 0.12803809051384682 2.6658159443828846 0 0 0
143 47 2 0 2.6312136643248603 1.4549276610768176 3.4112411536997085 0 0 0
144 47 4 0 3.1016207192805907 1.4094098163185953 3.321876124419296 0 0 0
145 47 4 0 2.1627189698904474 1.495774576462634 3.499660464056456 0 0 0
148 48 4 0 3.6494921482418063 1.8424773424073126 2.42600048776433 0 0 0
149 49 2 0 3.080721357628604 0.0037864624301005892 1.9598209633107933 0 0 0
150 49 4 0 2.8241048937622546 0.31078671851551964 2.244928387377945 0 0 0
134 44 2 0 0.4900131679669353 2.967320940138364 3.54570370827765 0 0 0
135 44 4 0 0.6334053681199173 3.391698042876958 3.7422733112135322 0 0 0
136 44 4 0 0.3490526273530465 2.5487206708763703 3.3494964446591275 0 0 0
138 45 4 0 0.06559192601661912 3.5678995851901134 2.0681784615418572 0 0 0
146 48 2 0 3.384386351642766 2.2181099116892944 2.602424718691062 0 0 0

Velocities

17 -0.17098573194617828 0.0551048807602588 -0.059544924365959775
18 -0.4686490585708697 0.055455525631179246 0.7483349180102783
19 -0.1633185821404864 -0.5120573804499704 -0.8912873434760019
46 -0.267030333462783 0.4505102226289742 0.20963147421736578
23 -0.10993937894110359 0.18143449774375892 0.07754687774375774
25 -0.003210842272490008 -0.24658812581058623 0.02452020238681274
1 -0.07721406911186621 0.11429636915447094 0.07821854083591792
4 0.15404261442691722 0.17397911638310176 -0.09527659000815616
2 0.4893695155093114 0.26642177770950576 -0.43784181085081547
3 0.040436537258702374 -0.5610427157752478 -0.004735273943268871
5 -0.12106111052960603 -1.055295782068244 -0.047792289924605866
24 -0.19887998222779935 0.4719718363415906 0.1601257293503223
14 0.1444792292755845 0.09317104244952032 0.02644331131911807
20 -0.06407959401664601 -0.02464983774740395 -0.11583599486067594
21 0.08780707183525786 0.08419369788044495 0.4206099018605348
22 -0.5173870665341385 0.15334460813760709 -0.6077597230877044
15 -0.6388078059745314 0.5178763748765328 -0.6507205580499793
11 0.14839628295735188 -0.10840018202606592 0.0346997495980145
12 1.3879149475394226 0.21419211393548676 -0.22180845285871925
13 -1.2899202656089135 -0.06231640727432108 -0.17112076363015405
28 -1.0694944132896693 0.13772345358045987 -0.12461621042238638
27 0.8198457058019517 0.6214856461044048 0.2839316976248237
26 -0.10768493477128628 0.20095621393501956 0.0031957573098381226
29 -0.01573589971691755 0.25506588225456656 -0.07351352615133736
30 0.73965071587053 0.6457741003040272 0.4292790902787739
31 -0.2998018206732629 -1.208064314008267 0.02020116608970306
35 0.062476618119916214 -0.09285804861072901 -0.05388756795848372
36 -0.034728073059247674 0.6728212693061126 -0.6587036905130575
44 0.08159411723056972 0.1478011061945053 0.14971366298734695
32 -0.06703578889456742 0.15229091437740033 -0.19772366089750978
45 1.062415781542722 0.10540872674484694 -0.5202090789871142
34 -0.47350253716246604 0.7397044370961929 -0.5815058206087033
38 0.03697201030239481 0.1334416142518261 0.09930748560839152
39 -0.04979730788980084 -0.3556277492893365 -0.5765457388405769
40 -0.09059410694913511 0.053739738712711094 1.0519136318198703
41 -0.15415291365197567 0.05709399906471795 0.21706497396780808
43 -0.5300698127418673 -0.5074270005401671 0.7115023061988951
56 -0.16270645573124648 0.16544340986725348 -0.07549526140328734
57 -0.11657175474548145 -0.02813085814885253 -0.043894413907397505
58 -0.6820183034200422 0.2735302445969786 -0.6409538106050005
66 -0.9478089861547725 -0.4407353387049704 -0.09149419218708914
37 0.2950179834580533 -0.7022975077552152 -0.22025062612848884
59 0.11069896201258654 -0.22416977363652996 -0.014778907776708395
60 0.2683733092811898 -0.662961173404677 -0.169615630497725
61 -0.34645531430785775 0.1485947249409291 0.507107154465545
50 -0.22981596205565172 -0.01298251127320754 -0.030507393775077746
52 -1.1049970533527214 -0.6674038328616309 -0.22764024094046956
51 0.5150406006058006 0.6067957219727346 0.046796786916753125
16 0.6093435712931241 -0.7372291851525051 0.4743305241144118
47 -0.03763935585129294 -0.3089687136442573 0.10811053787751608
48 0.04729105128330879 -0.09553094084559238 -0.4505672774495754
49 -0.42287024018113 -0.2889546022499975 1.2289543576077908
53 0.09203806100006312 0.07259740523182598 0.1607527783635816
54 0.9208753036363033 0.12730173026687128 -0.49625506183370655
55 -0.7114626664207345 0.022223719545873294 0.9752954367822122
127 0.33704411975708665 0.08229504574761891 0.08555837383128294
74 -0.09316147837186876 0.09947910120199983 0.047878103523520836
75 0.10628213525741961 -0.05772818803556548 0.3922090640710483
62 0.052272305273555836 -0.14556654722853216 0.014696534951796363
63 0.9640365853740742 -0.019812263689168053 0.09494509450333201
64 -0.2757869603412295 -0.5814930893707881 -0.16742542881642852
69 -0.5897409673494699 -1.0560209284190984 0.17656104530946906
76 -0.06203203281528511 0.29476539037806965 -0.08590327968502974
68 -0.0495475504947624 0.07404486772980587 0.0649033924014173
70 0.5849518217007704 0.3611448695725891 -0.5434709653621727
73 -0.19783935669050573 -0.40089109494288394 -0.9630882272421658
71 0.16203319744015537 0.17492028648277014 -0.10409850879589957
72 0.4223240185973273 -0.002597153270083509 1.5473750901902668
33 0.9387896875403189 0.20992627863756644 0.3852052835093097
65 -0.0878894005584597 -0.14324519979575662 -0.01223554196185571
67 0.45915631990650674 0.6099750397009178 -0.33879625312507294
132 -0.979692509243683 0.40322835824274006 0.4621441328837874
83 0.03491955605053809 -0.09526205688416128 -0.1029477791686384
84 0.10214033608335785 -0.4932818117317679 0.4301992028282942
85 -0.05443358016668594 1.0526719115093457 -0.5429996988418117
93 0.839908424894514 -0.6881144169893808 0.04261394178106487
92 -0.05548514593739291 -0.03539490719932729 -0.15120457191935238
80 0.0706112682638212 0.10066883858214654 -0.07125371138055356
81 -0.4907401180805565 1.0382504901929106 -0.5401951765911754
82 0.6090289226489561 -0.9040909381973035 0.29799017572484693
6 -0.09263693553470546 0.013864855800820253 -0.015594307725728083
7 -0.23334710364532993 0.04231217956008379 0.5303707139070147
8 -0.47004706315298256 0.41612800987343834 -0.49193563307925886
9 0.24063329045933585 0.7016328746873669 -0.01793563176775756
10 -0.19500851560741758 -0.00519230915891403 -0.025686159403463568
77 0.10239258374487457 0.10720857439116893 0.12407274065360213
78 0.2167905631582321 0.5519643847982165 -0.15735803724476685
89 -0.09174004411438806 -0.22056763712255684 0.14393581212204246
86 -0.08443950516007606 0.049979702444701804 0.019557609355779784
87 0.8522882639873103 0.12448480870615856 -0.03023519604837781
88 -1.1982207169069115 -0.024401776042608368 0.1633872670173739
91 -0.25755487221820544 -0.5566426376175161 -0.7308625536031392
97 0.5700904033552938 -0.2601736543046726 -0.5229713418439789
101 -0.06319828473778798 -0.30512187993751844 -0.11500658827177346
102 -0.8900848433297599 -0.1862698081704529 0.4780999085262425
103 0.694930131922719 -0.3801128439096472 -0.47333689285913094
133 0.7160275417199983 -0.6494011626505651 -0.03999675814565854
90 0.1605137559048063 -0.019249475907758294 0.979583652717389
151 0.05300385384141004 -0.9364463901550739 -0.1778894948160987
95 -0.0018759078382043215 -0.0745093073450367 0.12368989367018941
96 0.11474807486385005 -0.04037778173542349 0.843345650229186
106 -0.6926719433489132 -0.6021596224180263 -0.1905608799163113
42 1.1111864652820536 0.9320874127142763 -0.029224946243206467
98 0.06941385449411429 0.08206392351272206 0.21589004545283288
99 0.6719813609771982 -0.5061825353046576 -0.28017494512012664
100 -0.4803733437000793 0.3472172709381011 0.32626287007991384
104 -0.3347016034465928 -0.024955062373835178 -0.0016399688566960417
105 0.6048607671170065 0.24920895582727737 0.2074239675123539
108 -0.15561519243319344 -0.24951038380334928 -0.2575846327723691
94 -0.2551854223976881 0.8867275826804515 0.7216598091105924
107 -0.021238082968789665 -0.06865810946328697 0.05413803504855327
109 0.560647655046406 1.002575483247992 1.0434313743583477
121 -0.21290518751547646 1.0288117598948898 -0.8066110790402755
113 -0.34749076311394345 -0.10016090627872891 0.028250671553683493
114 0.2958548725755755 -0.6624138030043079 0.6366730864584695
115 -1.0688125403901176 0.3282984045110342 -0.7292345452802287
122 -0.16464565555937036 -0.10848467871509891 0.10487269734809569
123 -0.30428850469900404 -0.8023276884555972 -0.7689544082680905
124 0.5213262274658256 0.7812798395218851 1.3271009359330084
110 -0.24115820123103032 -0.059611408168707344 0.07825826718704834
111 0.7886770843707523 0.16562140991179233 0.489982363439967
112 -0.8059866099496386 0.28717039704185776 -0.6377500654775237
116 -0.08721821878337975 -0.022244093759069494 0.06338217195500531
118 -0.3916936570779829 -0.1295415523654157 -0.08088655700160613
119 -0.13850917959459325 0.06256913049276466 -0.05822373817057788
120 0.18330295509788955 -0.47456386919070154 0.5927521866753245
117 0.38449806052821206 0.3669843233641275 -0.32538218277158426
79 0.28369501058088076 -0.8378114566406212 0.33918624594256996
128 -0.1994435377623258 0.035731306270904865 0.0854512359964861
130 -1.028243214590581 -0.6213544041331828 0.11107432092603751
131 -0.29361832845532726 0.15693480486639858 0.15177836583234844
147 -0.7443939956107632 1.5114270025464012 1.1490585802791937
125 -0.11432188733732829 0.010579831598050343 -0.24489144135254373
126 -0.5913370853760053 -0.6941184705695242 -0.6686602659162628
129 0.4860869197082628 0.686156137227282 -0.19715659906985628
137 0.042872643077954124 0.17842812585967163 0.0660779591201981
139 0.05614502389837887 0.19773984897164235 -0.7633030634519915
140 -0.051914184884066 -0.21625854064612335 0.13231763000366648
141 0.05289643767623648 1.1810268572124014 -0.18585387582714838
142 -0.21911295835742012 -0.987272247920755 0.33195733859088045
154 -0.8859613575384199 0.0018824505902856545 -0.8084863256165643
153 0.3157852225565251 0.7215318004920457 1.2404766872003505
152 -0.16553553896200843 -0.06420350024964004 0.01105033066940253
143 -0.19083580822702578 -0.028548741649594304 -0.10814306327038546
144 1.294275669339941 -0.22709001041944774 -0.017773797110455316
145 -0.6645384607353111 -0.23410839744148232 -0.16362764187912482
148 -0.06942009105495206 -0.8983293912730016 -0.23644156306784958
149 0.08417492572047959 0.08635513305670953 0.03381137886905667
150 -0.09613233145016961 0.7306582393544367 0.2840661274131907
134 -0.12123428069904435 -0.153318555967507 -0.13777651544828667
135 -0.1042896466228282 0.6867486318101731 0.04644252457223282
136 -0.02249840003100706 -0.1692749758395899 -0.46864029331942303
138 0.2771746170445762 -0.1497040196023951 1.127206467066729
146 -0.042992200015962066 0.05893640865317207 0.09110697607140521

Bonds

1 1 17 18
2 1 17 19
3 1 23 24
4 1 23 25
5 1 1 2
6 1 1 3
7 1 1 4
8 1 1 5
9 1 14 15
10 1 14 16
11 1 20 21
12 1 20 22
13 1 11 12
14 1 11 13
15 1 26 27
16 1 26 28
17 1 29 30
18 1 29 31
19 1 35 36
20 1 35 37
21 1 44 45
22 1 44 46
23 1 32 33
24 1 32 34
25 1 38 39
26 1 38 40
27 1 41 42
28 1 41 43
29 1 56 57
30 1 56 58
31 1 59 60
32 1 59 61
33 1 50 51
34 1 50 52
35 1 47 48
36 1 47 49
37 1 53 54
38 1 53 55
39 1 74 75
40 1 74 76
41 1 62 63
42 1 62 64
43 1 68 69
44 1 68 70
45 1 71 72
46 1 71 73
47 1 65 66
48 1 65 67
49 1 83 84
50 1 83 85
51 1 92 93
52 1 92 94
53 1 80 81
54 1 80 82
55 1 6 7
56 1 6 8
57 1 6 9
58 1 6 10
59 1 77 78
60 1 77 79
61 1 89 90
62 1 89 91
63 1 86 87
64 1 86 88
65 1 101 102
66 1 101 103
67 1 95 96
68 1 95 97
69 1 98 99
70 1 98 100
71 1 104 105
72 1 104 106
73 1 107 108
74 1 107 109
75 1 113 114
76 1 113 115
77 1 122 123
78 1 122 124
79 1 110 111
80 1 110 112
81 1 116 117
82 1 116 118
83 1 119 120
84 1 119 121
85 1 128 129
86 1 128 130
87 1 131 132
88 1 131 133
89 1 125 126
90 1 125 127
91 1 137 138
92 1 137 139
93 1 140 141
94 1 140 142
95 1 152 153
96 1 152 154
97 1 143 144
98 1 143 145
99 1 149 150
100 1 149 151
101 1 134 135
102 1 134 136
103 1 146 147
104 1 146 148

Angles

1 1 18 17 19
2 1 24 23 25
3 2 2 1 3
4 2 2 1 4
5 2 2 1 5
6 2 3 1 4
7 2 3 1 5
8 2 4 1 5
9 1 15 14 16
10 1 21 20 22
11 1 12 11 13
12 1 27 26 28
13 1 30 29 31
14 1 36 35 37
15 1 45 44 46
16 1 33 32 34
17 1 39 38 40
18 1 42 41 43
19 1 57 56 58
20 1 60 59 61
21 1 51 50 52
22 1 48 47 49
23 1 54 53 55
24 1 75 74 76
25 1 63 62 64
26 1 69 68 70
27 1 72 71 73
28 1 66 65 67
29 1 84 83 85
30 1 93 92 94
31 1 81 80 82
32 2 7 6 8
33 2 7 6 9
34 2 7 6 10
35 2 8 6 9
36 2 8 6 10
37 2 9 6 10
38 1 78 77 79
39 1 90 89 91
40 1 87 86 88
41 1 102 101 103
42 1 96 95 97
43 1 99 98 100
44 1 105 104 106
45 1 108 107 109
46 1 114 113 115
47 1 123 122 124
48 1 111 110 112
49 1 117 116 118
50 1 120 119 121
51 1 129 128 130
52 1 132 131 133
53 1 126 125 127
54 1 138 137 139
55 1 141 140 142
56 1 153 152 154
57 1 144 143 145
58 1 150 149 151
59 1 135 134 136
60 1 147 146 148
