ITEM: TIMESTEP
1932000
ITEM: NUMBER OF ATOMS
4590
ITEM: BOX BOUNDS xy xz yz pp pp pp
-1.7197540400000008e+01 9.9985700000000008e+00 -7.1989704000000074e+00
-9.9985700000000008e+00 9.9985700000000008e+00 0.0000000000000000e+00
-9.9985700000000008e+00 9.9985700000000008e+00 0.0000000000000000e+00
ITEM: ATOMS id type xs ys zs
1875 4 0.0463231 0.0579906 0.0792915
1653 4 0.0684771 0.0608783 0.077369
1651 2 0.0941392 0.0633461 0.0750529
1652 4 0.119801 0.0658139 0.0727368
2469 4 0.134677 0.0591817 0.0794827
2467 2 0.158699 0.0732389 0.0712328
2466 4 0.192802 0.0743713 0.0658014
2468 4 0.182721 0.0872961 0.062983
2464 2 0.215475 0.0769459 0.0778716
3269 4 0.384539 0.0101896 0.00524736
3046 2 0.434509 0.0793971 0.0646276
3048 4 0.409075 0.0682118 0.0710914
3268 2 0.41047 0.0174642 0.999879
1761 4 0.463761 0.0736201 0.0622049
1759 2 0.484737 0.0661283 0.059265
1249 2 0.0922858 0.16348 0.0585585
1246 2 0.157466 0.167179 0.0628621
1248 4 0.182474 0.168697 0.0678185
1247 4 0.132459 0.16566 0.0579057
1250 4 0.112741 0.160467 0.0462243
2440 2 0.222224 0.162382 0.0644339
2441 4 0.196272 0.159168 0.0646715
2442 4 0.248176 0.165596 0.0641962
3047 4 0.459944 0.0905825 0.0581638
1251 4 0.0718309 0.166494 0.0708927
2876 4 0.274527 0.220767 0.0264633
3198 4 0.259494 0.22277 0.0130264
492 4 0.269569 0.175953 0.0663459
491 4 0.319702 0.176412 0.0644326
2875 2 0.29389 0.234728 0.0414555
2877 4 0.313253 0.248688 0.0564477
490 2 0.294635 0.176182 0.0653893
845 4 0.335904 0.171272 0.0689407
527 4 0.3872 0.235961 0.0530308
844 2 0.361813 0.17432 0.0694908
846 4 0.387722 0.177367 0.0700409
456 4 0.408155 0.178628 0.0692836
526 2 0.409034 0.245365 0.0670447
454 2 0.434248 0.183966 0.0728119
455 4 0.460341 0.189305 0.0763402
102 3 0.482099 0.200018 0.0779062
107 3 0.473192 0.247388 0.0378803
104 3 0.500227 0.234544 0.0641909
1841 4 0.999782 0.285898 0.00244153
462 4 0.0988063 0.331741 0.0179249
460 2 0.11229 0.315767 0.017982
461 4 0.125774 0.299792 0.018039
1079 4 0.141043 0.30681 0.00390008
2652 4 0.334398 0.253627 0.0608328
2650 2 0.359094 0.252817 0.0612141
2770 2 0.380968 0.326851 0.0718141
281 4 0.346005 0.293193 0.0128191
2772 4 0.358447 0.32978 0.0796102
2771 4 0.403489 0.323922 0.064018
2651 4 0.38379 0.252007 0.0615954
2522 4 0.423826 0.322153 0.0610897
528 4 0.430869 0.25477 0.0810585
106 1 0.497189 0.255213 0.0334864
2746 2 0.0096761 0.399138 0.0538126
2747 4 0.0337879 0.400841 0.062185
2727 4 0.0416935 0.397865 0.0807423
2725 2 0.0557169 0.383055 0.0751533
2726 4 0.0697403 0.368246 0.0695644
671 4 0.066087 0.348902 0.0667699
670 2 0.0921124 0.353052 0.064286
969 4 0.100951 0.34786 0.00770477
672 4 0.118138 0.357202 0.0618022
4304 4 0.214954 0.413815 0.0558186
596 4 0.299308 0.40094 0.0330493
1550 4 0.297876 0.381665 0.0350175
1549 2 0.317673 0.372282 0.0351987
525 4 0.339698 0.327624 0.0712551
1551 4 0.33747 0.362899 0.0353799
3542 4 0.358119 0.369359 0.0414345
3541 2 0.382147 0.375637 0.0520128
3543 4 0.406176 0.381916 0.0625912
2521 2 0.438945 0.332952 0.0415342
1466 4 0.42784 0.384879 0.0643259
1465 2 0.446348 0.387119 0.0468091
1467 4 0.464855 0.389358 0.0292923
2523 4 0.454064 0.343751 0.0219786
3339 4 0.474563 0.35282 0.0203541
1871 4 0.0185994 0.475479 0.0457605
1870 2 0.0393263 0.481595 0.0301206
1872 4 0.0600532 0.487712 0.0144807
3101 4 0.00220386 0.4603 0.0407552
3670 2 0.0838796 0.464097 0.0668704
3672 4 0.0961975 0.456333 0.0485267
2582 4 0.102035 0.439954 0.0455367
2581 2 0.126826 0.441257 0.0511845
2583 4 0.151618 0.442561 0.0568323
3636 4 0.164147 0.437356 0.0443203
3634 2 0.184713 0.431832 0.0535906
3635 4 0.205279 0.426309 0.0628608
4303 2 0.24007 0.428627 0.0520211
3711 4 0.268245 0.486882 0.0681844
4305 4 0.265186 0.443438 0.0482236
3709 2 0.293085 0.497975 0.0599667
1571 4 0.249615 0.476457 0.0766041
597 4 0.332012 0.446387 0.0460208
595 2 0.31566 0.423663 0.0395351
3389 4 0.333953 0.462038 0.0568676
3388 2 0.354387 0.472365 0.0723304
241 2 0.454777 0.497532 0.0614206
243 4 0.453223 0.501321 0.0368787
2678 4 0.0182465 0.0791343 0.12162
1874 4 0.0335707 0.0714578 0.12412
1873 2 0.0399469 0.0647242 0.101706
125 3 0.0780789 0.05134 0.137088
124 3 0.0634832 0.0182959 0.154933
123 3 0.0794095 0.0201346 0.120177
121 1 0.0808562 0.0311726 0.140429
122 3 0.102829 0.034498 0.149729
2465 4 0.238147 0.0795206 0.0899419
1373 4 0.248971 0.083046 0.107252
2745 4 0.267404 0.0259947 0.152861
2949 4 0.301617 0.0383656 0.103943
3767 4 0.280705 0.0175756 0.164013
2947 2 0.326219 0.0526867 0.0974696
3766 2 0.306157 0.0319202 0.161214
2948 4 0.350822 0.0670078 0.0909959
3768 4 0.331609 0.0462648 0.158415
377 4 0.364294 0.08272 0.0996019
376 2 0.38928 0.083019 0.102088
378 4 0.414265 0.0833181 0.104575
2717 4 0.43473 0.0837532 0.108632
2693 4 0.434726 0.0208739 0.130125
2692 2 0.447666 0.015414 0.149444
723 4 0.46567 0.0668778 0.163309
2520 4 0.486764 0.0743906 0.161405
332 4 0.00250178 0.123775 0.146853
331 2 0.0282894 0.126449 0.145527
333 4 0.0540771 0.129123 0.144201
2516 4 0.0744147 0.130183 0.143375
2515 2 0.0998602 0.134588 0.149416
2478 4 0.145345 0.142237 0.148706
2476 2 0.171263 0.153667 0.153082
2517 4 0.125306 0.138993 0.155456
2838 4 0.26861 0.120697 0.148758
1372 2 0.270632 0.0924789 0.121486
1374 4 0.292292 0.101912 0.13572
1477 2 0.32129 0.152415 0.129537
1479 4 0.323847 0.134022 0.115303
749 4 0.323919 0.0929219 0.129926
748 2 0.329089 0.0968105 0.154336
522 4 0.4076 0.159946 0.156778
520 2 0.408989 0.147606 0.135827
521 4 0.410378 0.135266 0.114877
624 4 0.430865 0.139992 0.110516
622 2 0.456366 0.147708 0.103495
2716 2 0.460571 0.0970556 0.110873
623 4 0.481867 0.155424 0.0964734
2718 4 0.486413 0.110358 0.113115
392 4 0.496271 0.096962 0.108759
2976 4 0.020662 0.193896 0.130617
836 4 0.0388581 0.197145 0.140768
835 2 0.0644727 0.208777 0.146315
837 4 0.0900874 0.220409 0.151862
2615 4 0.0999998 0.211128 0.139767
2614 2 0.121814 0.205848 0.145673
2616 4 0.143628 0.200567 0.151579
2477 4 0.197181 0.165098 0.157459
518 4 0.303063 0.239637 0.115569
517 2 0.328566 0.244538 0.121707
1478 4 0.318733 0.170808 0.143771
519 4 0.354069 0.249439 0.127845
349 2 0.285813 0.269503 0.117199
524 4 0.2984 0.302338 0.0999752
350 4 0.280769 0.290063 0.110304
351 4 0.290857 0.248943 0.124095
523 2 0.319049 0.314981 0.0856152
609 4 0.368035 0.258472 0.143856
2969 4 0.402316 0.333554 0.136909
607 2 0.390756 0.277394 0.147607
608 4 0.413477 0.296315 0.151358
2471 4 0.432348 0.295658 0.157152
2918 4 0.0756818 0.407253 0.144925
295 2 0.294715 0.335416 0.163418
297 4 0.319508 0.338496 0.156016
2570 4 0.386872 0.340743 0.140726
2569 2 0.360956 0.336974 0.143525
2571 4 0.33504 0.333204 0.146324
733 2 0.419704 0.383047 0.145964
2968 2 0.427739 0.335117 0.134731
735 4 0.426981 0.386445 0.121944
2970 4 0.453161 0.336679 0.132553
729 4 0.475028 0.340282 0.132945
727 2 0.501046 0.347083 0.128109
313 2 0.00359959 0.470285 0.129984
315 4 0.0216784 0.471189 0.147567
4211 4 0.0372486 0.469439 0.136015
4210 2 0.0581597 0.471006 0.121568
3671 4 0.0715617 0.471861 0.0852141
4212 4 0.0790708 0.472572 0.10712
72 3 0.0965854 0.477631 0.120816
74 3 0.131787 0.498093 0.13562
2917 2 0.0971925 0.424558 0.135321
71 1 0.120489 0.480712 0.121098
2919 4 0.118703 0.441864 0.125718
75 3 0.123661 0.461538 0.128133
73 3 0.12951 0.48599 0.099654
648 4 0.133895 0.442463 0.112808
646 2 0.157368 0.450728 0.101115
647 4 0.180842 0.458994 0.0894229
1572 4 0.200265 0.457892 0.0949288
4003 2 0.223959 0.486536 0.162333
4005 4 0.20604 0.497103 0.155883
1570 2 0.22494 0.467174 0.0857664
2912 4 0.275402 0.461283 0.108573
4004 4 0.241879 0.475969 0.168783
2911 2 0.297853 0.474333 0.120393
2913 4 0.320304 0.487383 0.132214
2998 2 0.354243 0.500798 0.117283
3000 4 0.371168 0.496425 0.10104
3390 4 0.374821 0.482691 0.0877932
242 4 0.456331 0.493743 0.0859626
3723 4 0.0324959 0.0194287 0.248081
317 4 0.0143709 0.00865877 0.238549
2855 4 0.0726197 0.0153418 0.170873
2854 2 0.0826993 0.0107298 0.192462
2856 4 0.0927789 0.00611781 0.21405
2547 4 0.125783 0.0164146 0.246935
2738 4 0.199288 0.0420278 0.234846
2737 2 0.173002 0.0331297 0.238476
2739 4 0.146715 0.0242316 0.242105
2743 2 0.244669 0.0195574 0.16578
2757 4 0.208281 0.0271245 0.232422
2744 4 0.221935 0.0131201 0.178698
2755 2 0.234619 0.0341953 0.235446
2756 4 0.260956 0.041266 0.238469
429 4 0.281556 0.0449655 0.243643
581 4 0.327355 0.0701073 0.24115
4353 4 0.351067 0.0467751 0.163757
580 2 0.331114 0.0801191 0.218239
732 4 0.309123 0.0746147 0.247075
4351 2 0.373489 0.0434323 0.171229
1806 4 0.362995 0.0102306 0.205009
721 2 0.440557 0.0612112 0.1711
722 4 0.415443 0.0555445 0.178892
4352 4 0.395911 0.0400894 0.178701
112 3 0.423543 0.00505501 0.211294
115 3 0.443714 0.00137241 0.181008
1506 4 0.480541 0.0114366 0.171141
2694 4 0.460605 0.009954 0.168763
1271 4 0.0196184 0.0936695 0.236886
1270 2 0.0459394 0.0991231 0.238354
1272 4 0.0722603 0.104577 0.239823
3677 4 0.0927004 0.10782 0.234326
3676 2 0.117419 0.108669 0.239664
3678 4 0.142138 0.109519 0.245001
605 4 0.212813 0.08561 0.233085
2836 2 0.278132 0.122228 0.172047
604 2 0.236581 0.0935704 0.244262
2837 4 0.287653 0.123759 0.195336
419 4 0.306782 0.122393 0.199209
418 2 0.328847 0.132422 0.212776
420 4 0.350911 0.142452 0.226342
177 3 0.366183 0.135414 0.218051
750 4 0.334259 0.100699 0.178746
180 3 0.400801 0.1632 0.214185
582 4 0.334873 0.0901309 0.195328
176 1 0.386806 0.147849 0.22872
178 3 0.38107 0.158611 0.246892
1748 4 0.420573 0.156121 0.16996
179 3 0.398552 0.133639 0.23594
1190 4 0.416631 0.130375 0.244136
2671 2 0.0709962 0.199812 0.244252
2672 4 0.0932905 0.197086 0.235533
2952 4 0.113693 0.204869 0.240129
2950 2 0.132228 0.19534 0.232927
2951 4 0.150764 0.185811 0.225726
2454 4 0.150912 0.183224 0.205993
2452 2 0.17427 0.179452 0.205763
2453 4 0.197628 0.17568 0.205534
2777 4 0.217938 0.183155 0.20991
2776 2 0.244364 0.190571 0.21232
2778 4 0.270791 0.197987 0.214729
2930 4 0.284491 0.192 0.225608
2929 2 0.309151 0.208334 0.227994
2931 4 0.333812 0.224668 0.230381
512 4 0.361249 0.194122 0.229531
414 4 0.360519 0.206307 0.214474
511 2 0.347661 0.18118 0.248973
2461 2 0.428958 0.245025 0.243712
412 2 0.373206 0.198425 0.196528
413 4 0.385893 0.190544 0.178582
1747 2 0.437427 0.166121 0.188656
1749 4 0.454281 0.176121 0.207352
283 2 0.43499 0.190855 0.243392
284 4 0.456918 0.207668 0.23388
459 4 0.47342 0.173511 0.205973
2462 4 0.449638 0.248952 0.228266
457 2 0.497768 0.177007 0.197039
2705 4 0.332303 0.310192 0.242087
2704 2 0.347935 0.319984 0.222522
2706 4 0.363566 0.329775 0.202958
4006 2 0.407174 0.331462 0.210522
4008 4 0.428332 0.324177 0.213082
2472 4 0.441212 0.321932 0.199698
2470 2 0.43678 0.308795 0.178425
677 4 0.00783529 0.412796 0.204324
740 4 0.0915069 0.381755 0.195013
739 2 0.116766 0.383396 0.198748
741 4 0.142026 0.385037 0.202484
3705 4 0.155695 0.378253 0.210596
3703 2 0.177075 0.398642 0.20708
296 4 0.269923 0.332335 0.17082
4007 4 0.386016 0.338748 0.207962
734 4 0.412427 0.379649 0.169985
3404 4 0.389908 0.403332 0.211778
3403 2 0.390538 0.387736 0.193259
3405 4 0.391168 0.37214 0.17474
676 2 0.0324799 0.428602 0.200314
678 4 0.0571246 0.444409 0.196304
776 4 0.101172 0.422589 0.184041
775 2 0.122499 0.439465 0.194423
777 4 0.143826 0.45634 0.204806
3704 4 0.198456 0.41903 0.203565
1856 4 0.257445 0.470301 0.177515
303 4 0.221062 0.425084 0.208916
1855 2 0.276735 0.480539 0.194155
301 2 0.246415 0.432098 0.216325
1857 4 0.296025 0.490777 0.210795
302 4 0.271768 0.439113 0.223734
1664 4 0.281465 0.444429 0.206204
1663 2 0.297618 0.434719 0.194169
1665 4 0.313771 0.42501 0.182133
3829 2 0.34442 0.498482 0.204299
3830 4 0.344786 0.499283 0.179308
3831 4 0.344054 0.49768 0.229289
2872 2 0.437449 0.420166 0.23539
3694 2 0.494242 0.454563 0.20068
2874 4 0.452699 0.43271 0.216613
3696 4 0.470466 0.437373 0.205194
4544 4 0.0142173 0.0222974 0.329961
3721 2 0.0571245 0.0315462 0.256305
3722 4 0.0817531 0.0436638 0.26453
2546 4 0.0968837 0.0374065 0.273972
27 3 0.123008 0.0690002 0.318221
28 3 0.113101 0.0515245 0.285142
26 1 0.125906 0.071548 0.295445
2545 2 0.111333 0.0269106 0.260453
249 4 0.0797001 0.0665659 0.329817
30 3 0.149405 0.0771629 0.290365
405 4 0.169603 0.077733 0.29321
403 2 0.1954 0.0804323 0.294474
404 4 0.221197 0.0831316 0.295738
2113 2 0.216286 0.0195719 0.330856
2114 4 0.242589 0.0312109 0.329987
1184 4 0.263079 0.0372051 0.324445
591 4 0.239627 0.0796241 0.300864
427 2 0.284584 0.0286205 0.260333
428 4 0.287613 0.0122755 0.277024
1058 4 0.380627 0.00393033 0.323799
3477 4 0.405177 0.0631053 0.327292
3475 2 0.423811 0.06306 0.310638
3476 4 0.442446 0.0630147 0.293985
1522 2 0.423987 0.0078551 0.322541
1523 4 0.400385 0.0102953 0.318078
341 4 0.384556 0.062295 0.330335
1245 4 0.500387 0.0560947 0.279271
2871 4 0.468437 0.0122717 0.323277
1244 4 0.449026 0.0513162 0.282969
1524 4 0.447589 0.00541488 0.327005
1243 2 0.474706 0.0537055 0.28112
4307 4 0.00583981 0.101075 0.300022
4308 4 0.0564934 0.103573 0.295671
4306 2 0.0311666 0.102324 0.297846
248 4 0.0754128 0.10514 0.303693
247 2 0.0775565 0.0858529 0.316755
29 3 0.117522 0.0883376 0.288492
2879 4 0.164413 0.119763 0.242614
2880 4 0.213575 0.122278 0.255489
2878 2 0.188994 0.121021 0.249052
731 4 0.275254 0.0958539 0.265133
730 2 0.292188 0.0852343 0.256104
590 4 0.289577 0.100926 0.316965
589 2 0.264602 0.090275 0.308914
606 4 0.260348 0.101531 0.25544
2849 4 0.310407 0.103904 0.318748
2850 4 0.362337 0.110997 0.322262
2848 2 0.336372 0.10745 0.320505
3572 4 0.382544 0.113253 0.323333
3571 2 0.408577 0.120249 0.328161
1191 4 0.462171 0.142676 0.269811
1189 2 0.439401 0.136525 0.256973
3573 4 0.43461 0.127246 0.332989
650 4 0.480596 0.140835 0.277035
2788 2 0.00457748 0.178119 0.261119
2789 4 0.0310499 0.188435 0.260217
2673 4 0.0487018 0.202537 0.25297
513 4 0.334073 0.168238 0.268414
2463 4 0.408278 0.241099 0.259158
686 4 0.410139 0.185674 0.268568
685 2 0.402409 0.196394 0.287957
687 4 0.394678 0.207114 0.307347
1199 4 0.43665 0.232718 0.285697
285 4 0.413062 0.174042 0.252903
1221 4 0.495786 0.199365 0.285569
2681 4 0.00186684 0.315706 0.286837
2832 4 0.139679 0.327791 0.323771
2498 4 0.16078 0.331994 0.324966
2567 4 0.215256 0.323947 0.305934
2499 4 0.195727 0.321398 0.295201
2497 2 0.178253 0.326696 0.310083
2566 2 0.238126 0.320118 0.301192
290 4 0.281695 0.325342 0.299671
2568 4 0.260997 0.316288 0.29645
289 2 0.308066 0.330926 0.298923
1395 4 0.306303 0.275555 0.328376
118 3 0.467909 0.273961 0.330065
1198 2 0.458062 0.252342 0.291551
1200 4 0.479473 0.271966 0.297404
510 4 0.494745 0.265372 0.294347
2540 4 0.0220002 0.376693 0.262443
2680 2 0.0139478 0.338275 0.276827
2539 2 0.998931 0.379263 0.255896
2682 4 0.0260288 0.360843 0.266817
291 4 0.334437 0.33651 0.298174
338 4 0.35457 0.335991 0.297675
1573 2 0.374394 0.412113 0.32199
1575 4 0.394942 0.409736 0.309284
337 2 0.379913 0.336994 0.297387
3 3 0.406258 0.384797 0.302357
1 1 0.422446 0.405554 0.296734
2 3 0.425364 0.406615 0.273896
2873 4 0.422198 0.407623 0.254168
339 4 0.405256 0.337996 0.297099
4 3 0.444219 0.408405 0.306726
2556 4 0.425491 0.344101 0.300669
2555 4 0.4763 0.347719 0.306726
2554 2 0.450895 0.34591 0.303697
2852 4 0.497068 0.350699 0.307161
1188 4 0.0407824 0.498415 0.296115
373 2 0.261447 0.435518 0.286371
374 4 0.259112 0.439363 0.261947
375 4 0.263782 0.431672 0.310796
5 3 0.414175 0.422029 0.303479
3997 2 0.494397 0.47373 0.285786
3999 4 0.481683 0.490145 0.28281
545 4 0.0253488 0.024017 0.346486
3798 4 0.0393181 0.0355793 0.406726
2457 4 0.0174457 0.0327481 0.413509
544 2 0.0504028 0.0398437 0.346303
3796 2 0.0608472 0.0292965 0.402288
546 4 0.0754568 0.0556705 0.346119
3797 4 0.0823763 0.0230137 0.397851
2115 4 0.189983 0.00793296 0.331724
1183 2 0.288 0.0440729 0.333053
1185 4 0.31292 0.0509408 0.341662
340 2 0.359394 0.0605559 0.334829
342 4 0.334233 0.0588168 0.339322
162 3 0.39626 0.0695913 0.374688
1061 4 0.420036 0.0316431 0.396616
2715 4 0.402306 0.0782155 0.392984
682 2 0.38683 0.030415 0.406845
165 3 0.417135 0.0673963 0.344378
684 4 0.374016 0.0362597 0.387649
161 1 0.41814 0.0777159 0.364498
164 3 0.434867 0.0734103 0.37813
2869 2 0.490749 0.0256249 0.335129
1060 2 0.433066 0.0155912 0.392912
2713 2 0.400767 0.0857147 0.416457
163 3 0.424013 0.100591 0.361408
2646 4 0.475962 0.0864812 0.408758
470 4 0.0455983 0.240523 0.332938
471 4 0.000172566 0.220924 0.358322
469 2 0.0228854 0.230723 0.34563
411 4 0.345486 0.245778 0.414038
3460 2 0.354403 0.21283 0.41082
726 4 0.383783 0.236612 0.349781
3462 4 0.369063 0.198759 0.40465
3496 2 0.405866 0.207358 0.395485
3497 4 0.38333 0.212066 0.391505
724 2 0.41032 0.243974 0.35042
3498 4 0.428403 0.202649 0.399465
402 4 0.430145 0.180213 0.354262
3081 4 0.435455 0.190378 0.411536
3080 4 0.488433 0.205524 0.407966
401 4 0.481104 0.188893 0.342549
400 2 0.455624 0.184553 0.348406
3079 2 0.461944 0.197951 0.409751
3631 2 0.0369752 0.262501 0.39694
3632 4 0.054997 0.265626 0.378776
2449 2 0.0945682 0.269631 0.358975
2830 2 0.130215 0.327507 0.346955
453 4 0.120039 0.334641 0.389412
451 2 0.117026 0.326292 0.412981
2451 4 0.0718911 0.261875 0.371999
2700 4 0.138384 0.287959 0.34205
2450 4 0.117245 0.277386 0.345951
2699 4 0.179448 0.271187 0.341163
2698 2 0.158916 0.279573 0.341606
478 2 0.215495 0.265318 0.350894
479 4 0.191772 0.267305 0.355792
1393 2 0.281659 0.275158 0.33335
1394 4 0.257015 0.27476 0.338323
480 4 0.239218 0.263331 0.345997
2786 4 0.323063 0.272655 0.336241
2787 4 0.375478 0.288589 0.344483
409 2 0.358009 0.267479 0.402545
410 4 0.370533 0.28918 0.391053
2785 2 0.34927 0.280622 0.340362
725 4 0.436857 0.251335 0.351059
1032 4 0.39564 0.294468 0.345118
1030 2 0.420993 0.297382 0.350218
1031 4 0.446346 0.300295 0.355317
117 3 0.46529 0.298044 0.356621
120 3 0.451664 0.261376 0.363562
116 1 0.468899 0.278077 0.352895
119 3 0.491083 0.279597 0.361137
3641 4 0.0721724 0.372817 0.407895
3640 2 0.0739802 0.396595 0.40413
2831 4 0.120751 0.327222 0.370138
1033 2 0.290252 0.351019 0.372061
1034 4 0.26599 0.34832 0.380749
1035 4 0.314513 0.353719 0.363372
1574 4 0.353847 0.41449 0.334696
585 4 0.335387 0.359389 0.35776
583 2 0.357764 0.353848 0.357058
893 4 0.399975 0.350382 0.363476
584 4 0.380141 0.348308 0.356355
892 2 0.42592 0.360613 0.358483
894 4 0.451865 0.370844 0.353489
569 4 0.469847 0.369341 0.347671
568 2 0.495076 0.38344 0.343169
4322 4 0.00839578 0.464206 0.407112
4323 4 0.0534818 0.474603 0.38097
3603 4 0.00690602 0.425018 0.353155
4321 2 0.0309388 0.469405 0.394041
3601 2 0.0323235 0.431166 0.346157
447 4 0.0714947 0.488648 0.387769
3602 4 0.0577409 0.437315 0.339159
3642 4 0.0757879 0.420374 0.400364
3423 4 0.0593611 0.419189 0.412842
1756 2 0.0993478 0.43279 0.345471
446 4 0.108216 0.475277 0.412198
1757 4 0.0799194 0.44126 0.338529
445 2 0.0898552 0.481963 0.399984
1758 4 0.118776 0.42432 0.352414
1418 4 0.294769 0.498123 0.400754
1180 2 0.0264758 0.0767457 0.482776
2456 4 0.024019 0.0452015 0.461895
2455 2 0.0207324 0.0389748 0.437702
1182 4 0.0303837 0.0658155 0.4617
2899 2 0.100883 0.0133804 0.430103
2900 4 0.0807738 0.0152681 0.41634
2901 4 0.120992 0.0114926 0.443867
3174 4 0.140708 0.0135755 0.447559
841 2 0.414105 0.0251724 0.461221
842 4 0.408985 0.037412 0.441609
683 4 0.399644 0.0245703 0.426041
843 4 0.419224 0.0129329 0.480833
2644 2 0.490287 0.0764591 0.42301
763 2 0.015027 0.167285 0.48046
765 4 0.0381705 0.16721 0.471064
2684 4 0.0580005 0.166581 0.469804
2817 4 0.327904 0.107268 0.417096
2815 2 0.349763 0.102732 0.42436
2816 4 0.371621 0.0981956 0.431624
2502 4 0.405893 0.112063 0.446369
2714 4 0.399228 0.0932139 0.43993
3031 2 0.479946 0.158382 0.457176
3032 4 0.456916 0.155275 0.445539
2501 4 0.440322 0.157517 0.435957
2500 2 0.423107 0.13479 0.441163
2683 2 0.084186 0.176345 0.473792
2685 4 0.110371 0.186108 0.47778
2586 4 0.129509 0.201228 0.476349
2585 4 0.180687 0.204871 0.475419
2584 2 0.155098 0.203049 0.475884
937 2 0.218625 0.205723 0.482037
939 4 0.197467 0.203825 0.467812
938 4 0.239784 0.207621 0.496262
3461 4 0.339743 0.226902 0.416989
3633 4 0.0189533 0.259375 0.415103
452 4 0.114012 0.317943 0.436549
488 4 0.219582 0.327056 0.468677
489 4 0.26476 0.331617 0.4445
487 2 0.242171 0.329337 0.456588
305 4 0.341199 0.27834 0.469296
304 2 0.362488 0.271076 0.468295
3059 4 0.435932 0.255491 0.454589
3060 4 0.387764 0.259035 0.447991
306 4 0.383777 0.263811 0.467295
3058 2 0.411848 0.257263 0.45129
311 4 0.454678 0.2566 0.457657
310 2 0.480574 0.262518 0.46269
1697 4 0.01792 0.411058 0.465461
1696 2 0.0277667 0.409748 0.488198
2711 4 0.0112476 0.343228 0.447257
2712 4 0.0550938 0.363019 0.419678
2710 2 0.0331707 0.353124 0.433468
2924 4 0.284173 0.340629 0.434304
2923 2 0.308724 0.3433 0.426457
2925 4 0.333275 0.345971 0.41861
3422 4 0.0296195 0.425618 0.450681
3421 2 0.0444903 0.422403 0.431762
3973 2 0.0117317 0.493063 0.501326
2826 4 0.123104 0.469957 0.419666
1982 4 0.222195 0.491601 0.48878
2825 4 0.167878 0.468247 0.440585
2824 2 0.145491 0.469102 0.430125
1488 4 0.169813 0.498368 0.495078
1983 4 0.24758 0.475519 0.453138
1417 2 0.278144 0.487686 0.41948
1419 4 0.261518 0.47725 0.438206
1981 2 0.234887 0.48356 0.470959
2551 2 0.0655964 0.00856379 0.539573
2552 4 0.0875618 0.0261029 0.548094
760 2 0.101398 0.0506735 0.57599
762 4 0.105825 0.0379282 0.55646
1283 4 0.0250825 0.15949 0.564755
3109 2 0.0117629 0.111293 0.578663
3111 4 0.0379415 0.116873 0.581803
1181 4 0.0225679 0.087676 0.503851
1131 4 0.502593 0.205505 0.568834
408 4 0.0526804 0.290177 0.542696
406 2 0.0753216 0.309518 0.540394
407 4 0.0979627 0.328859 0.538092
803 4 0.109798 0.319869 0.54802
802 2 0.128718 0.309455 0.549694
804 4 0.147639 0.299041 0.551368
1238 4 0.164425 0.294412 0.55722
1237 2 0.190117 0.298271 0.561655
1239 4 0.21581 0.302131 0.566089
891 4 0.234257 0.303301 0.559073
889 2 0.259462 0.31334 0.566704
890 4 0.284667 0.323379 0.574335
82 3 0.301688 0.321723 0.582102
83 3 0.337587 0.319414 0.574474
3420 4 0.347945 0.314023 0.560403
3418 2 0.373304 0.326849 0.554883
1698 4 0.0376133 0.408437 0.510935
3452 4 0.0540798 0.405101 0.519676
4215 4 0.229954 0.385683 0.548185
4213 2 0.251575 0.386273 0.56109
4214 4 0.273195 0.386863 0.573995
540 4 0.286593 0.378516 0.565976
538 2 0.310865 0.38921 0.556293
539 4 0.335137 0.399903 0.546609
3369 4 0.353479 0.397593 0.550368
3367 2 0.374797 0.390344 0.550011
3368 4 0.396114 0.383094 0.549654
1281 4 0.415395 0.38291 0.557333
3419 4 0.398663 0.339675 0.549363
1279 2 0.440706 0.384098 0.559478
1280 4 0.466017 0.385285 0.561622
878 4 0.482113 0.378746 0.565173
790 2 0.0151192 0.438053 0.551906
792 4 0.0406472 0.451973 0.555145
336 4 0.00798839 0.492801 0.562873
2108 4 0.0289577 0.499733 0.558486
1137 4 0.0626274 0.45865 0.558118
1135 2 0.0822957 0.479686 0.564151
1136 4 0.101964 0.500721 0.570183
3451 2 0.0770765 0.41888 0.530165
3453 4 0.100073 0.432659 0.540654
3464 4 0.118542 0.43234 0.547094
3463 2 0.133855 0.450428 0.561945
3465 4 0.149168 0.468516 0.576797
1486 2 0.193322 0.496572 0.50128
1487 4 0.216831 0.494776 0.507483
773 4 0.443326 0.460291 0.575626
3360 4 0.0136548 0.0563875 0.601534
1263 4 0.0214601 0.0107491 0.647848
4326 4 0.0338839 0.061428 0.60763
4324 2 0.0568095 0.0634815 0.596284
4325 4 0.079735 0.065535 0.584937
761 4 0.0969706 0.0634188 0.595521
2283 4 0.32764 0.0166865 0.664573
2281 2 0.353748 0.0216908 0.661517
2282 4 0.379856 0.0266951 0.658462
3083 4 0.389797 0.0161657 0.648486
3082 2 0.414346 0.0188076 0.640655
3084 4 0.438895 0.0214494 0.632825
269 4 0.45682 0.014946 0.632326
268 2 0.481135 0.0144934 0.637405
3266 4 0.0105957 0.137353 0.652879
145 3 0.0308572 0.141555 0.661798
3293 4 0.0594484 0.110876 0.64185
3021 4 0.0738777 0.118941 0.627112
3019 2 0.0860397 0.141016 0.616153
3292 2 0.0387724 0.100339 0.656987
3020 4 0.0982016 0.163091 0.605195
3386 4 0.0505079 0.245944 0.624766
3385 2 0.0501668 0.228991 0.642219
142 3 0.0521394 0.175788 0.649933
1106 4 0.061765 0.193729 0.641277
3387 4 0.0498258 0.212038 0.659671
1105 2 0.0780353 0.186247 0.626801
1107 4 0.0943055 0.178764 0.612325
2243 4 0.0474296 0.307885 0.610705
2242 2 0.0580083 0.289689 0.611549
3240 4 0.0164985 0.281925 0.659709
3093 4 0.0368278 0.292294 0.662481
2244 4 0.068587 0.271494 0.612392
806 4 0.0891645 0.27713 0.608988
805 2 0.114677 0.291024 0.605602
807 4 0.14019 0.304917 0.602217
978 4 0.154441 0.314436 0.616791
976 2 0.179813 0.319015 0.623224
977 4 0.205186 0.323593 0.629656
85 3 0.308122 0.289523 0.587677
81 1 0.318134 0.312199 0.588694
84 3 0.325137 0.318798 0.610453
906 4 0.338218 0.315255 0.623444
999 4 0.208958 0.393167 0.659036
997 2 0.233664 0.397725 0.650524
998 4 0.258369 0.402283 0.642012
1041 4 0.27753 0.412242 0.636887
1039 2 0.298958 0.410508 0.625229
3381 4 0.327965 0.399723 0.627002
1040 4 0.320385 0.408774 0.613572
3379 2 0.344657 0.389958 0.638022
904 2 0.345497 0.338153 0.633441
3380 4 0.36135 0.380193 0.649042
905 4 0.352776 0.36105 0.643437
796 2 0.135871 0.499739 0.583274
797 4 0.152302 0.486514 0.584355
772 2 0.430489 0.473719 0.587142
774 4 0.417653 0.487147 0.598658
1205 4 0.460033 0.462829 0.587688
1204 2 0.486555 0.470083 0.588592
2305 2 0.0077921 0.0677824 0.731148
2307 4 0.0319345 0.0783613 0.721158
4116 4 0.999616 0.0802876 0.683321
886 2 0.128795 0.063282 0.745022
888 4 0.142983 0.0855169 0.735401
3611 4 0.18842 0.999311 0.699198
4503 4 0.20075 0.0178864 0.696081
4501 2 0.226146 0.0201329 0.69213
4502 4 0.251542 0.0223795 0.688179
3104 4 0.264954 0.0250118 0.673287
3105 4 0.308371 0.011767 0.671415
3103 2 0.286663 0.0183894 0.672351
4443 4 0.0243179 0.147831 0.74073
4441 2 0.0290873 0.138033 0.719274
4442 4 0.0338567 0.128235 0.697818
3294 4 0.0180964 0.0898021 0.672123
141 1 0.041972 0.163123 0.668298
954 4 0.0527538 0.0823558 0.716287
143 3 0.0596719 0.16415 0.683694
952 2 0.0767812 0.0990746 0.720909
1208 4 0.0399916 0.163878 0.748426
2978 4 0.0753822 0.158475 0.69015
953 4 0.100809 0.115793 0.725531
1077 4 0.113402 0.10539 0.726063
1075 2 0.13548 0.119636 0.714446
1076 4 0.157558 0.133883 0.702829
3063 4 0.428049 0.083228 0.691432
3061 2 0.454044 0.0877535 0.69475
3062 4 0.480039 0.092279 0.698068
4370 4 0.495753 0.0858085 0.694363
3164 4 0.00464086 0.173234 0.669724
3163 2 0.00212353 0.17773 0.69397
144 3 0.0256218 0.171679 0.67766
384 4 0.0645606 0.227082 0.670103
382 2 0.0836073 0.22403 0.684595
383 4 0.102654 0.220978 0.699087
2972 4 0.121991 0.224449 0.688119
2977 2 0.101955 0.16712 0.690385
2979 4 0.128527 0.175765 0.690621
2971 2 0.148348 0.229849 0.687909
2973 4 0.174705 0.23525 0.687699
1086 4 0.149655 0.178081 0.696027
1084 2 0.173642 0.1756 0.696001
3252 4 0.193342 0.239707 0.677123
1085 4 0.197629 0.173119 0.695974
3250 2 0.218206 0.245435 0.685635
897 4 0.215575 0.187556 0.6887
895 2 0.241014 0.18995 0.692625
896 4 0.266453 0.192343 0.69655
3039 4 0.486948 0.183995 0.731742
3357 4 0.473055 0.190929 0.742686
3351 4 0.504991 0.243491 0.744924
3091 2 0.0619763 0.293582 0.666247
3092 4 0.0871249 0.29487 0.670013
3435 4 0.107979 0.295737 0.669581
3433 2 0.131161 0.297688 0.680352
3434 4 0.154344 0.29964 0.691123
3251 4 0.24307 0.251162 0.694146
738 4 0.26274 0.253649 0.686479
736 2 0.286677 0.253263 0.693216
737 4 0.310614 0.252877 0.699953
2981 4 0.321089 0.249787 0.716224
2980 2 0.335671 0.260322 0.736169
1297 2 0.046002 0.349666 0.726738
1299 4 0.0246571 0.348077 0.740564
1298 4 0.0673469 0.351255 0.712912
1068 4 0.0854188 0.364862 0.704174
883 2 0.106646 0.409413 0.694668
884 4 0.0834025 0.410209 0.703087
885 4 0.129889 0.408616 0.68625
1066 2 0.108434 0.360489 0.705376
1067 4 0.131448 0.356116 0.706577
3113 4 0.146382 0.357825 0.691638
3112 2 0.170224 0.369972 0.681709
3114 4 0.194066 0.38212 0.67178
1277 4 0.0178502 0.483621 0.708726
821 4 0.0338783 0.488663 0.695623
820 2 0.0584312 0.487554 0.696781
822 4 0.0829841 0.486446 0.697939
1235 4 0.0901198 0.475702 0.71192
1234 2 0.0881685 0.452706 0.704416
1236 4 0.0862171 0.429709 0.696912
4524 4 0.149128 0.423433 0.685514
4522 2 0.175618 0.430988 0.683758
2288 4 0.200757 0.473474 0.723457
4523 4 0.202109 0.438542 0.682001
2287 2 0.220006 0.492042 0.712387
4445 4 0.259891 0.449257 0.678112
4446 4 0.211244 0.432037 0.69817
2061 4 0.280075 0.448357 0.674625
4444 2 0.235568 0.440647 0.688141
4208 4 0.271503 0.440907 0.740324
2059 2 0.3006 0.442404 0.683334
2060 4 0.321126 0.436451 0.692043
1170 4 0.338392 0.453412 0.693789
1168 2 0.348286 0.450587 0.716108
1169 4 0.358181 0.447761 0.738427
3263 4 0.489795 0.494977 0.74924
210 3 0.00416531 0.0374513 0.810699
818 4 0.0752647 0.99969 0.803612
817 2 0.0918495 0.0119058 0.785517
819 4 0.108434 0.0241217 0.767422
887 4 0.114606 0.0410472 0.754642
533 4 0.257841 0.0741041 0.811785
1217 4 0.291793 0.00797018 0.753475
3488 4 0.277749 0.999553 0.768775
3553 2 0.36875 0.077133 0.803045
3554 4 0.342523 0.0684436 0.807058
1014 4 0.244622 0.118588 0.764759
1012 2 0.270864 0.130563 0.765672
1013 4 0.297105 0.142539 0.766585
1608 4 0.290773 0.129361 0.82265
532 2 0.283172 0.0817976 0.804235
1606 2 0.309049 0.151837 0.818611
534 4 0.308502 0.0894911 0.796684
3282 4 0.320023 0.108851 0.791462
3280 2 0.346569 0.116397 0.790806
3281 4 0.373114 0.123943 0.790151
4128 4 0.393165 0.128381 0.787212
3555 4 0.394978 0.0858225 0.799032
4126 2 0.418746 0.132768 0.781748
3305 4 0.413927 0.0829924 0.797719
4127 4 0.444327 0.137154 0.776284
3299 4 0.458516 0.13891 0.761194
3304 2 0.440017 0.0883162 0.794186
3298 2 0.484285 0.150294 0.756099
3306 4 0.466107 0.09364 0.790652
3077 4 0.479868 0.0877662 0.77922
1691 4 0.00177453 0.186743 0.782314
1209 4 0.022374 0.193669 0.776885
3153 4 0.0628379 0.202411 0.826345
1207 2 0.0311828 0.178774 0.762655
779 4 0.0819056 0.203237 0.823118
778 2 0.107095 0.20521 0.827814
1618 2 0.177257 0.221859 0.824723
780 4 0.132285 0.207184 0.83251
1620 4 0.203146 0.225532 0.821866
58 3 0.223266 0.227538 0.815687
56 1 0.241528 0.219554 0.820972
60 3 0.252158 0.215942 0.801913
747 4 0.270924 0.213465 0.796692
57 3 0.232197 0.199719 0.832415
1607 4 0.327325 0.174313 0.814573
745 2 0.296975 0.217124 0.796773
746 4 0.323027 0.220783 0.796854
483 4 0.340711 0.233859 0.791119
3440 4 0.333085 0.185634 0.798935
2808 4 0.305671 0.20764 0.831586
481 2 0.366668 0.239941 0.786289
3439 2 0.358321 0.186385 0.797786