ITEM: TIMESTEP
304000
ITEM: NUMBER OF ATOMS
4590
ITEM: BOX BOUNDS xy xz yz pp pp pp
-9.9985700000000008e+00 1.1598341200000007e+01 1.5997712000000064e+00
-9.9985700000000008e+00 9.9985700000000008e+00 0.0000000000000000e+00
-9.9985700000000008e+00 9.9985700000000008e+00 0.0000000000000000e+00
ITEM: ATOMS id type xs ys zs
3903 4 0.0269444 0.0648156 0.0175458
2885 4 0.0464982 0.0679408 0.0235524
3901 2 0.00268682 0.0637585 0.0231602
2884 2 0.0707989 0.0721842 0.0237512
2886 4 0.0950996 0.0764276 0.02395
2688 4 0.114854 0.0782472 0.0217023
2686 2 0.138425 0.0847102 0.0199283
1662 4 0.151832 0.0330869 0.0305987
1660 2 0.168292 0.0339299 0.0493419
1661 4 0.184752 0.034773 0.068085
1475 4 0.197133 0.017557 0.0694206
2882 4 0.3323 0.0789394 0.00710416
2464 2 0.398702 0.00139167 0.0102198
1651 2 0.447759 0.0270862 0.0801951
1652 4 0.458512 0.0054471 0.071505
2440 2 0.109069 0.131588 0.00729731
2441 4 0.123155 0.148385 0.0175433
1253 4 0.142098 0.14742 0.0215114
2687 4 0.161997 0.0911732 0.0181542
1252 2 0.163054 0.146309 0.0352408
2708 4 0.182152 0.0943374 0.0173806
1254 4 0.18401 0.145197 0.0489703
2707 2 0.206139 0.0993454 0.0197016
2709 4 0.230125 0.104353 0.0220225
2670 4 0.250608 0.107444 0.0253038
2668 2 0.273994 0.113973 0.0286122
2669 4 0.29738 0.120501 0.0319206
2883 4 0.319601 0.120431 0.0333943
2881 2 0.32595 0.0996852 0.0202492
25 3 0.333619 0.130906 0.0450509
21 1 0.354233 0.138906 0.0433425
24 3 0.352076 0.162097 0.042646
22 3 0.364398 0.131008 0.0239548
23 3 0.367462 0.131688 0.0614043
2894 4 0.384968 0.134985 0.0694856
2893 2 0.406346 0.145883 0.0728581
2895 4 0.427724 0.15678 0.0762305
3285 4 0.0318397 0.183754 0.0432915
2829 4 0.0392654 0.244476 0.0465275
3284 4 0.0225669 0.233217 0.0483762
3283 2 0.0272033 0.208486 0.0458338
2729 4 0.0524276 0.178377 0.0437599
2728 2 0.0766294 0.182925 0.0427415
2730 4 0.100831 0.187472 0.0417232
2753 4 0.116002 0.197786 0.0471435
2752 2 0.131653 0.208333 0.0626957
2638 2 0.140916 0.245059 0.0125275
2754 4 0.147304 0.21888 0.0782478
2640 4 0.165541 0.239044 0.0100685
2975 4 0.361681 0.177259 0.0508597
2974 2 0.368041 0.189302 0.0715123
2827 2 0.0611807 0.25366 0.0518012
460 2 0.028074 0.325631 0.00734142
462 4 0.052607 0.320176 0.00349836
2639 4 0.11629 0.251073 0.0149864
969 4 0.0816915 0.317584 0.00818297
2828 4 0.0830961 0.262844 0.057075
3215 4 0.102621 0.268358 0.0586811
3214 2 0.125863 0.275798 0.0599624
3216 4 0.149104 0.283237 0.0612436
4305 4 0.169174 0.286881 0.0564104
4303 2 0.19235 0.293232 0.061299
4304 4 0.215527 0.299583 0.0661877
2486 4 0.23786 0.296959 0.0671766
2485 2 0.260222 0.305956 0.0705624
2487 4 0.282584 0.314953 0.0739482
2747 4 0.302112 0.322718 0.0732316
2746 2 0.326179 0.327573 0.0751258
2839 2 0.410326 0.298126 0.0242603
2840 4 0.388474 0.308216 0.01529
2841 4 0.432179 0.288036 0.0332306
309 4 0.439293 0.280431 0.0496582
307 2 0.458989 0.279937 0.0651034
2652 4 0.492292 0.292754 0.0770056
308 4 0.478685 0.279442 0.0805486
461 4 0.00354111 0.331087 0.0111845
3543 4 0.033783 0.402326 0.0804825
3541 2 0.057349 0.406556 0.0744928
967 2 0.0836375 0.338896 0.0207389
968 4 0.0855835 0.360208 0.0332949
2565 4 0.255959 0.396437 0.00624858
2563 2 0.277079 0.408037 0.00838178
2748 4 0.350245 0.332428 0.07702
4051 2 0.330693 0.405388 0.0238222
4052 4 0.310883 0.403679 0.0088429
4053 4 0.350503 0.407097 0.0388014
1121 4 0.372304 0.333728 0.0734843
1120 2 0.396727 0.3372 0.0752261
1122 4 0.421149 0.340671 0.0769678
1071 4 0.442015 0.342774 0.0771505
1147 2 0.463274 0.363286 0.00806646
1069 2 0.4654 0.349539 0.0745098
1148 4 0.480366 0.378636 0.0154095
1070 4 0.488785 0.356304 0.0718691
1149 4 0.446182 0.347935 0.000723405
3542 4 0.0809149 0.410786 0.0685031
1742 4 0.0960773 0.418832 0.0802609
2564 4 0.298198 0.419636 0.010515
2401 2 0.320842 0.481439 0.0187621
2403 4 0.336183 0.481264 0.0385162
2402 4 0.3055 0.481614 0.999008
2767 2 0.0169899 0.0702976 0.140873
2768 4 0.0160583 0.0603481 0.117999
2769 4 0.0179215 0.080247 0.163746
1474 2 0.195003 0.00787332 0.092289
249 4 0.313386 0.0220506 0.150011
405 4 0.331131 0.028679 0.15308
403 2 0.350219 0.0412543 0.161035
2181 4 0.387063 0.051727 0.158954
2179 2 0.410947 0.050669 0.151361
2180 4 0.434832 0.0496111 0.143769
1653 4 0.437005 0.0487254 0.0888852
1749 4 0.45469 0.047159 0.140524
1747 2 0.478958 0.0389526 0.139985
357 4 0.105706 0.157108 0.0914722
355 2 0.130392 0.159176 0.0932944
721 2 0.129697 0.131848 0.155599
723 4 0.108434 0.121024 0.159879
356 4 0.155078 0.161245 0.0951167
722 4 0.150961 0.142672 0.151319
759 4 0.170823 0.147178 0.151832
757 2 0.172384 0.150009 0.127054
758 4 0.173945 0.15284 0.102276
2600 4 0.440171 0.170247 0.0872393
3809 4 0.470012 0.113498 0.160908
3808 2 0.49021 0.103117 0.148979
2790 4 0.0351401 0.216482 0.162123
2788 2 0.0161494 0.202734 0.167829
623 4 0.0930705 0.168538 0.104424
622 2 0.0895166 0.176596 0.127914
624 4 0.0859627 0.184654 0.151404
506 4 0.101619 0.195455 0.157787
2786 4 0.162298 0.208038 0.0865112
2785 2 0.163577 0.225164 0.104535
2787 4 0.164855 0.24229 0.122559
2976 4 0.3744 0.201344 0.0921648
2601 4 0.466234 0.185763 0.126155
2599 2 0.453203 0.178005 0.106697
378 4 0.470482 0.192545 0.144903
287 4 0.0447102 0.320655 0.124432
286 2 0.0197747 0.319941 0.124634
252 4 0.0647544 0.31756 0.123574
250 2 0.0889989 0.319483 0.118456
251 4 0.113243 0.321407 0.113337
350 4 0.133532 0.323161 0.107871
349 2 0.158101 0.323446 0.112379
351 4 0.182671 0.32373 0.116887
297 4 0.20134 0.3236 0.11646
295 2 0.225261 0.329162 0.115702
2567 4 0.278719 0.286151 0.12708
2566 2 0.287342 0.292586 0.149446
108 3 0.41079 0.293356 0.120574
109 3 0.426 0.258937 0.110349
106 1 0.430069 0.278864 0.1208
110 3 0.436842 0.274822 0.142264
107 3 0.446723 0.288574 0.109352
3729 4 0.0155208 0.393757 0.0820897
2534 4 0.20887 0.355041 0.146079
296 4 0.249182 0.334723 0.114944
902 4 0.268124 0.340198 0.118007
901 2 0.291745 0.346578 0.116524
903 4 0.315365 0.352957 0.115041
2513 4 0.331931 0.362053 0.111338
2512 2 0.355329 0.367018 0.105477
2514 4 0.378726 0.371982 0.0996152
2445 4 0.399356 0.373699 0.097025
3552 4 0.405174 0.41602 0.158959
2443 2 0.421351 0.382582 0.0914802
2444 4 0.443345 0.391466 0.0859353
767 4 0.464794 0.395486 0.08542
766 2 0.487145 0.404662 0.0825745
1741 2 0.12014 0.4194 0.0868669
1743 4 0.144203 0.419968 0.0934728
303 4 0.163482 0.477822 0.168568
1863 4 0.17733 0.477838 0.154661
1861 2 0.197179 0.484423 0.141752
739 2 0.195422 0.422423 0.145027
741 4 0.174982 0.426266 0.159348
1862 4 0.217029 0.491008 0.128844
740 4 0.215862 0.418579 0.130707
1787 4 0.231797 0.483678 0.141995
587 4 0.230889 0.427362 0.135341
586 2 0.252354 0.432811 0.146105
1786 2 0.255932 0.487952 0.139202
588 4 0.273818 0.43826 0.156868
1788 4 0.280067 0.492226 0.136408
625 2 0.322363 0.496158 0.130055
626 4 0.297875 0.499819 0.135191
627 4 0.346851 0.492498 0.12492
504 4 0.361816 0.487245 0.136887
1568 4 0.416215 0.426008 0.146553
502 2 0.383431 0.496457 0.130504
1567 2 0.429677 0.437892 0.129933
1569 4 0.443138 0.449776 0.113312
3404 4 0.462217 0.445141 0.119607
3403 2 0.485093 0.453529 0.120223
128 3 0.00104868 0.0234013 0.18452
2547 4 0.0128338 0.0318068 0.214549
2732 4 0.0150864 0.0306343 0.194355
2545 2 0.0233423 0.0408916 0.234955
2731 2 0.0360335 0.0323003 0.181012
2733 4 0.0569805 0.0339662 0.167669
2519 4 0.0689579 0.0739072 0.181365
689 4 0.239262 0.0139855 0.207627
688 2 0.262356 0.0115135 0.217364
248 4 0.294499 0.0191444 0.196128
393 4 0.299309 0.0210539 0.227312
247 2 0.303943 0.0205975 0.17307
404 4 0.369307 0.0538297 0.168991
391 2 0.317848 0.0352394 0.233387
392 4 0.336386 0.0494249 0.239463
428 4 0.355549 0.0530673 0.238482
427 2 0.380308 0.0533304 0.241808
429 4 0.405067 0.0535934 0.245134
699 4 0.0333711 0.106195 0.174856
698 4 0.00361392 0.112479 0.214923
697 2 0.0184925 0.109337 0.194889
2518 2 0.0806317 0.0942619 0.17554
605 4 0.0804888 0.127481 0.247738
2520 4 0.0923056 0.114617 0.169715
604 2 0.0999197 0.133361 0.233791
606 4 0.119351 0.139241 0.219843
731 4 0.12828 0.141313 0.202605
730 2 0.150385 0.132833 0.212307
732 4 0.172491 0.124353 0.22201
581 4 0.19117 0.11371 0.222104
580 2 0.215274 0.117176 0.226429
582 4 0.239379 0.120642 0.230754
750 4 0.257564 0.121012 0.238332
748 2 0.268306 0.142432 0.234978
2516 4 0.370262 0.160514 0.247797
2780 4 0.423821 0.0994651 0.210167
2779 2 0.43786 0.105187 0.190616
2781 4 0.4519 0.110909 0.171064
2789 4 0.997159 0.188986 0.173535
505 2 0.12142 0.189036 0.172347
507 4 0.141221 0.182618 0.186906
578 4 0.155942 0.177249 0.200047
577 2 0.172778 0.190988 0.210758
579 4 0.189615 0.204728 0.221469
236 4 0.202288 0.213523 0.232837
749 4 0.279048 0.163852 0.231624
235 2 0.224334 0.214408 0.244467
457 2 0.281108 0.194672 0.244658
459 4 0.294126 0.175981 0.232698
333 4 0.366581 0.166668 0.227939
331 2 0.370401 0.18834 0.216774
332 4 0.37422 0.210012 0.205608
630 4 0.394056 0.207489 0.208207
628 2 0.417144 0.212763 0.201524
629 4 0.440232 0.218037 0.194841
377 4 0.456235 0.205303 0.191412
376 2 0.463358 0.198924 0.168157
497 4 0.281989 0.282188 0.238117
496 2 0.28666 0.291777 0.215675
498 4 0.291331 0.301365 0.193232
2568 4 0.295966 0.299021 0.171813
2463 4 0.418786 0.28508 0.238498
2461 2 0.406429 0.266345 0.247562
299 4 0.437121 0.274273 0.237863
298 2 0.461241 0.270803 0.231176
300 4 0.48536 0.267333 0.224489
2525 4 0.0385054 0.378653 0.217528
2862 4 0.0430801 0.377633 0.236706
2524 2 0.0208339 0.384599 0.200378
2526 4 0.00316234 0.390545 0.183228
2860 2 0.0672481 0.382215 0.238206
2705 4 0.0806108 0.381092 0.208746
2861 4 0.0914161 0.386796 0.239706
2704 2 0.100891 0.372576 0.195765
2706 4 0.121172 0.36406 0.182783
3990 4 0.110638 0.383652 0.244819
2493 4 0.130495 0.3662 0.199408
3988 2 0.132584 0.393896 0.243416
2491 2 0.15447 0.35819 0.203475
2533 2 0.199898 0.354314 0.169383
2492 4 0.178445 0.35018 0.207541
2535 4 0.190925 0.353588 0.192688
3602 4 0.166761 0.419303 0.24133
3989 4 0.15453 0.404141 0.242013
519 4 0.447234 0.345991 0.204594
517 2 0.466619 0.359851 0.20097
518 4 0.486003 0.37371 0.197347
734 4 0.497848 0.3718 0.179702
4007 4 0.432387 0.414742 0.216431
1437 4 0.999249 0.492841 0.20024
1435 2 0.0227447 0.492433 0.208871
1436 4 0.0462406 0.492026 0.217502
643 2 0.0672067 0.481715 0.245918
1471 2 0.115435 0.45383 0.231658
1472 4 0.0969685 0.459896 0.247938
1473 4 0.133902 0.447765 0.215377
302 4 0.130896 0.456624 0.198168
301 2 0.147189 0.467223 0.183368
3601 2 0.189647 0.427295 0.244131
3603 4 0.212534 0.435286 0.246932
3696 4 0.225333 0.443354 0.234589
3694 2 0.243658 0.448437 0.250352
3818 4 0.335056 0.452157 0.166284
3819 4 0.287669 0.440393 0.17145
3817 2 0.311362 0.446275 0.168867
3550 2 0.413319 0.421983 0.181659
3551 4 0.421464 0.427947 0.204359
4006 2 0.453512 0.42525 0.222112
4008 4 0.474637 0.435759 0.227792
123 3 0.00436658 0.0558746 0.308464
3723 4 0.0221935 0.0594856 0.314471
3721 2 0.0296181 0.0626817 0.290891
2546 4 0.0338509 0.0499764 0.255361
3722 4 0.0370427 0.0658777 0.267312
1868 4 0.424171 0.053985 0.251639
1867 2 0.448927 0.0557679 0.253079
1869 4 0.473683 0.0575508 0.254518
2850 4 0.493575 0.060106 0.25952
27 3 0.0500185 0.156373 0.261771
28 3 0.0509879 0.140155 0.295676
26 1 0.063625 0.144673 0.276993
29 3 0.0722262 0.124824 0.267234
30 3 0.0806781 0.157214 0.282938
546 4 0.0941549 0.164339 0.2974
1031 4 0.15227 0.130665 0.282181
1030 2 0.160229 0.12102 0.3041
1032 4 0.168188 0.111374 0.32602
2945 4 0.38185 0.135293 0.307293
2944 2 0.397237 0.119395 0.294133
2946 4 0.412624 0.103497 0.280973
2515 2 0.379203 0.166256 0.270243
2678 4 0.431219 0.101608 0.275344
2837 4 0.4888 0.115549 0.2782
2677 2 0.452856 0.111179 0.269712
2679 4 0.474493 0.120749 0.264079
2870 4 0.474514 0.106147 0.325568
2869 2 0.497379 0.112597 0.319494
1376 4 0.452296 0.103963 0.33315
544 2 0.116531 0.170362 0.305549
545 4 0.138907 0.176386 0.313698
531 4 0.159085 0.178285 0.313249
529 2 0.180401 0.185655 0.32279
237 4 0.246379 0.215292 0.256098
458 4 0.268091 0.213363 0.256619
2517 4 0.388144 0.171997 0.29269
2657 4 0.401053 0.174573 0.307543
2462 4 0.394071 0.247609 0.256627
2656 2 0.424843 0.171119 0.315312
2658 4 0.448633 0.167665 0.32308
344 4 0.0165412 0.315954 0.279184
2654 4 0.0312197 0.328149 0.282478
2653 2 0.052228 0.320019 0.294505
2655 4 0.0732363 0.31189 0.306531
387 4 0.167754 0.276987 0.293829
385 2 0.190402 0.278251 0.28353
275 4 0.272118 0.289764 0.254421
276 4 0.230892 0.28215 0.280738
386 4 0.21305 0.279514 0.273232
274 2 0.251505 0.285957 0.26758
2622 4 0.410792 0.318312 0.312667
2620 2 0.394048 0.305464 0.324679
2853 4 0.425209 0.319402 0.327501
2851 2 0.446084 0.316891 0.313664
2852 4 0.46696 0.31438 0.299828
2450 4 0.478487 0.30314 0.286794
2449 2 0.492516 0.312431 0.268888
366 4 0.33491 0.386447 0.259516
364 2 0.357962 0.390971 0.267035
365 4 0.381013 0.395496 0.274553
4 3 0.0258891 0.442178 0.272199
752 4 0.00891691 0.431955 0.270373
1 1 0.0464767 0.444047 0.28244
5 3 0.0433668 0.452775 0.303336
667 2 0.00212796 0.472809 0.323824
668 4 0.0239105 0.473832 0.33591
2 3 0.0575809 0.423125 0.28401
3 3 0.0592995 0.457611 0.269751
644 4 0.0774998 0.462809 0.259725
1383 4 0.0912496 0.486983 0.296741
1381 2 0.114156 0.491252 0.288585
264 4 0.157027 0.497744 0.278028
2598 4 0.157331 0.449356 0.314328
2596 2 0.162235 0.42795 0.326849
1386 4 0.213217 0.508254 0.276299
3695 4 0.261983 0.45352 0.266115
230 4 0.407435 0.479409 0.268776
231 4 0.360184 0.466465 0.270026
229 2 0.383809 0.472937 0.269401
1659 4 0.422345 0.489726 0.264108
1745 4 0.489435 0.494514 0.263844
1657 2 0.446147 0.495166 0.266963
1658 4 0.469949 0.500606 0.269818
4355 4 0.0024496 0.00227618 0.348158
4354 2 0.0248208 0.0115412 0.350431
4356 4 0.0471921 0.0208062 0.352703
2817 4 0.063268 0.0340802 0.349517
2815 2 0.0862732 0.0414189 0.353356
2816 4 0.109278 0.0487576 0.357194
2714 4 0.130801 0.0496341 0.354781
2713 2 0.152946 0.0590035 0.351139
2715 4 0.17509 0.068373 0.347497
3477 4 0.194318 0.0750716 0.350319
983 4 0.155516 0.0193677 0.41229
3475 2 0.219051 0.0772451 0.349935
3476 4 0.243783 0.0794186 0.349552
1244 4 0.265748 0.0835335 0.349359
1523 4 0.373712 0.0250691 0.406369
1522 2 0.378559 0.0343271 0.383824
1524 4 0.383405 0.043585 0.36128
2643 4 0.398951 0.0316971 0.351659
2641 2 0.421471 0.0389737 0.345454
2642 4 0.443992 0.0462502 0.339248
478 2 0.484568 0.0559106 0.355399
480 4 0.461411 0.0499873 0.349772
4239 4 0.0165528 0.0981103 0.381106
4237 2 0.0406776 0.1002 0.386648
4238 4 0.0648024 0.10229 0.39219
2559 4 0.0806678 0.090975 0.398834
2557 2 0.0996078 0.0904578 0.415198
1243 2 0.289475 0.0856449 0.342309
1245 4 0.313202 0.0877563 0.335258
2667 4 0.334249 0.0919633 0.336437
2665 2 0.358443 0.0966121 0.336153
2666 4 0.382637 0.101261 0.335868
1377 4 0.402816 0.102598 0.339452
1375 2 0.427556 0.10328 0.336301
1199 4 0.0861178 0.168998 0.357673
1198 2 0.0940656 0.192001 0.357165
1200 4 0.102013 0.215004 0.356657
2766 4 0.114384 0.228998 0.363904
2764 2 0.136127 0.239326 0.366927
530 4 0.201716 0.193025 0.33233
2765 4 0.157869 0.249655 0.369951
2484 4 0.238826 0.217059 0.396144
2482 2 0.233432 0.238177 0.38328
3158 4 0.215755 0.189635 0.346437
3157 2 0.240513 0.188159 0.350421
2684 4 0.222465 0.214218 0.407466
3159 4 0.26527 0.186684 0.354406
651 4 0.283821 0.181245 0.352815
650 4 0.323276 0.170427 0.382724
649 2 0.303548 0.175836 0.367769
2505 4 0.33199 0.232508 0.40395
1191 4 0.338386 0.179449 0.392998
2822 4 0.350491 0.229076 0.408902
2503 2 0.310148 0.22379 0.410365
1189 2 0.362672 0.178158 0.39922
1190 4 0.386958 0.176866 0.405442
2821 2 0.371559 0.240222 0.404571
1394 4 0.396331 0.193191 0.410885
1393 2 0.418691 0.197625 0.420349
2663 4 0.458671 0.175632 0.337939
2662 2 0.480505 0.182226 0.346975
715 2 0.0119399 0.288507 0.388072
716 4 0.0281375 0.306078 0.385505
2700 4 0.0670584 0.334495 0.364724
2802 4 0.163092 0.26792 0.368533
2800 2 0.187674 0.267624 0.363845
2483 4 0.228038 0.259295 0.370416
2801 4 0.212256 0.267328 0.359157
117 3 0.239332 0.317752 0.380959
116 1 0.248311 0.317616 0.402141
119 3 0.25385 0.295637 0.408546
120 3 0.267013 0.329169 0.402052
118 3 0.232488 0.327641 0.416711
1951 2 0.294018 0.283102 0.409488
2682 4 0.326823 0.278825 0.376011
1952 4 0.31117 0.27951 0.391381
2680 2 0.342872 0.282695 0.357501
2681 4 0.35892 0.286564 0.338991
2823 4 0.392627 0.251367 0.40024
2621 4 0.377305 0.292615 0.336691
2543 4 0.407616 0.263577 0.401807
3423 4 0.000298238 0.390875 0.391907
2698 2 0.0436731 0.339126 0.35612
2699 4 0.0202877 0.343758 0.347515
3642 4 0.016413 0.387208 0.401933
3640 2 0.0378729 0.396608 0.39534
2904 4 0.0843588 0.338137 0.355292
3641 4 0.0593329 0.406008 0.388748
2712 4 0.0762471 0.417233 0.390171
2902 2 0.108604 0.342444 0.356692
2710 2 0.0995418 0.419898 0.398262
2903 4 0.13285 0.346751 0.358092
2874 4 0.140477 0.360729 0.367944
2872 2 0.154152 0.379971 0.363097
2597 4 0.167138 0.406544 0.339371
2873 4 0.167827 0.399212 0.35825
873 4 0.284514 0.339535 0.399116
2924 4 0.30091 0.340951 0.384151
2923 2 0.324071 0.341956 0.374984
2925 4 0.347231 0.342961 0.365817
871 2 0.288517 0.357223 0.415937
585 4 0.363472 0.35276 0.370417
583 2 0.385999 0.359835 0.363951
584 4 0.408527 0.36691 0.357485
374 4 0.0324928 0.461776 0.350296
373 2 0.0495938 0.466841 0.367415
2711 4 0.122836 0.422563 0.406352
375 4 0.0666949 0.471905 0.384535
435 4 0.0811023 0.477175 0.39577
433 2 0.103672 0.484159 0.40221
1757 4 0.108618 0.495916 0.361525
434 4 0.126242 0.491143 0.40865
2826 4 0.140283 0.418887 0.395507
1756 2 0.132828 0.492674 0.355118
1758 4 0.157037 0.489431 0.34871
2824 2 0.161254 0.430837 0.39677
775 2 0.190586 0.502935 0.340769
2825 4 0.182225 0.442788 0.398033
776 4 0.175064 0.491903 0.356078
613 2 0.1706 0.498327 0.412161
615 4 0.145983 0.496321 0.409479
3593 4 0.199745 0.451048 0.404405
3592 2 0.224415 0.44685 0.400479
3594 4 0.249084 0.442652 0.396552
2562 4 0.257533 0.438975 0.377231
2560 2 0.274413 0.454232 0.369182
2561 4 0.291293 0.469489 0.361134
2960 4 0.350667 0.449447 0.415559
2961 4 0.400457 0.44858 0.410284
2649 4 0.412051 0.463211 0.414668
2959 2 0.375562 0.449013 0.412922
2647 2 0.437052 0.459978 0.413073
2648 4 0.462053 0.456745 0.411478
2589 4 0.479191 0.462815 0.404507
2114 4 0.0247213 0.0159642 0.425518
1183 2 0.0600993 0.0176097 0.435098
1185 4 0.0796685 0.0307828 0.440231
984 4 0.155401 0.0343318 0.459994
982 2 0.155458 0.0268497 0.436142
216 1 0.150322 0.0758817 0.456216
217 3 0.150183 0.0532123 0.452834
220 3 0.171185 0.0823221 0.451729
2455 2 0.208375 0.0804775 0.469282
2457 4 0.189699 0.0870615 0.453395
2456 4 0.227052 0.0738936 0.485169
3851 4 0.280852 0.0796039 0.48483
3326 4 0.295264 0.0650285 0.486892
3850 2 0.257288 0.0806815 0.493362
3852 4 0.233723 0.0817591 0.501894
1058 4 0.388351 0.0338813 0.417889
1059 4 0.410381 0.0512153 0.458532
1057 2 0.399366 0.0425483 0.43821
1152 4 0.430066 0.0513347 0.457154
842 4 0.497265 0.00883291 0.453499
1150 2 0.454865 0.0503466 0.453533
1151 4 0.479665 0.0493585 0.449913
841 2 0.500512 0.0145182 0.477565
371 4 0.0212643 0.140066 0.4925
370 2 0.0452564 0.143807 0.497094
2196 4 0.0696358 0.0971504 0.485295
218 3 0.134723 0.0868749 0.442043
2194 2 0.0914599 0.107563 0.487147
2195 4 0.113284 0.117975 0.488999
2553 4 0.125916 0.126068 0.476728
2558 4 0.118548 0.0899406 0.431561
219 3 0.144709 0.080647 0.478314
2551 2 0.150505 0.12904 0.476647
2552 4 0.175093 0.132012 0.476565
762 4 0.194105 0.129122 0.471798
760 2 0.218133 0.134197 0.470252
761 4 0.242162 0.139272 0.468706
3173 4 0.262308 0.134479 0.470694
3172 2 0.284313 0.135359 0.458987
2901 4 0.319795 0.144313 0.435123
3174 4 0.306319 0.136239 0.447279
2899 2 0.343399 0.134102 0.433847
2900 4 0.367004 0.123891 0.432571
320 4 0.479417 0.151469 0.476429
319 2 0.467481 0.160539 0.496855
2611 2 0.0175985 0.172735 0.432297
2613 4 0.0404591 0.178507 0.439221
938 4 0.0584388 0.176739 0.447968
937 2 0.0813692 0.184447 0.444605
939 4 0.1043 0.192155 0.441243
2585 4 0.123245 0.186001 0.435477
2584 2 0.146606 0.19268 0.432384
2586 4 0.169967 0.19936 0.42929
2685 4 0.177899 0.217526 0.430426
2498 4 0.199578 0.208905 0.493792
2683 2 0.200182 0.215872 0.418946
2497 2 0.208257 0.226357 0.47899
2499 4 0.216936 0.243809 0.464188
2504 4 0.288306 0.215072 0.41678
368 4 0.26489 0.189889 0.495443
10 3 0.24808 0.182287 0.500355
367 2 0.287024 0.199802 0.496567
369 4 0.309157 0.209716 0.497692
1395 4 0.44105 0.202059 0.429813
410 4 0.454713 0.206405 0.443848
411 4 0.481595 0.215348 0.484581
409 2 0.468154 0.210877 0.464214
3060 4 0.0167459 0.27863 0.450809
306 4 0.0352198 0.277437 0.443206
304 2 0.05894 0.28248 0.438986
305 4 0.0826603 0.287522 0.434766
453 4 0.100947 0.295266 0.43291
451 2 0.125243 0.299531 0.432985
452 4 0.149539 0.303796 0.43306
488 4 0.16897 0.305469 0.431661
487 2 0.191388 0.314087 0.427545
489 4 0.213806 0.322705 0.423429
2930 4 0.236235 0.245475 0.461886
2929 2 0.24999 0.261065 0.449353
696 4 0.260436 0.300033 0.491551
3057 4 0.278907 0.296706 0.500439
1953 4 0.276866 0.286694 0.427595
2931 4 0.263745 0.276656 0.436821
2809 2 0.396261 0.269914 0.481908
2811 4 0.418325 0.263561 0.470945
2542 2 0.413107 0.265877 0.426049
2544 4 0.418597 0.268178 0.450292
2810 4 0.374197 0.276266 0.49287
1239 4 0.461852 0.323563 0.504827
4179 4 0.00207147 0.392009 0.49177
4177 2 0.026504 0.394836 0.494792
4178 4 0.0509366 0.397664 0.497814
3072 4 0.0650494 0.410404 0.501186
3071 4 0.105904 0.415129 0.473289
3070 2 0.085477 0.412767 0.487237
2511 4 0.211977 0.384043 0.48493
2509 2 0.236215 0.376394 0.482016
2510 4 0.260452 0.368744 0.479102
811 2 0.307201 0.408167 0.42275
872 4 0.292521 0.374911 0.432759
408 4 0.280331 0.374274 0.479517
812 4 0.307179 0.383248 0.423142
406 2 0.304209 0.379686 0.477312
407 4 0.328087 0.385097 0.475106
2549 4 0.346193 0.3756 0.469597
2548 2 0.367989 0.382806 0.46107
2550 4 0.389786 0.390012 0.452542
593 4 0.013058 0.431679 0.457047
592 2 0.0341592 0.441719 0.463724
325 2 0.00277747 0.488621 0.492748
594 4 0.0552605 0.451759 0.470401
3453 4 0.122733 0.423543 0.464962
3451 2 0.147815 0.421504 0.465174
3452 4 0.172898 0.419465 0.465386
2928 4 0.183851 0.433981 0.472552
2926 2 0.20721 0.436976 0.464849
2958 4 0.249982 0.440665 0.452373
2956 2 0.273467 0.44465 0.458904
2927 4 0.230568 0.439972 0.457146
2957 4 0.296952 0.448635 0.465436
813 4 0.307223 0.433086 0.422358
4043 4 0.453398 0.466558 0.459434
4044 4 0.498682 0.446588 0.47334
4042 2 0.47604 0.456573 0.466387
663 4 0.459159 0.482976 0.450623
3023 4 0.0112419 0.0195835 0.567185
2507 4 0.0282974 0.0760374 0.553619
3022 2 0.0332434 0.0294702 0.570004
2506 2 0.0508376 0.0750735 0.54268
3024 4 0.055245 0.0393568 0.572823
2996 4 0.0678438 0.0493315 0.584962
2508 4 0.0733778 0.0741096 0.531741
3325 2 0.30947 0.0664208 0.507343
3327 4 0.323676 0.0678131 0.527795
944 4 0.326837 0.054341 0.54184
943 2 0.349853 0.0435759 0.537546
945 4 0.372869 0.0328107 0.533251
3033 4 0.381321 0.0448527 0.520833
3031 2 0.39928 0.0602233 0.525385
3032 4 0.417239 0.0755939 0.529937
1967 4 0.493543 0.0207731 0.518734
1966 2 0.490865 0.00706752 0.539303
575 4 0.018398 0.090515 0.567663
2239 2 0.0164288 0.16281 0.543434
574 2 0.0231263 0.114614 0.568037
576 4 0.0278546 0.138712 0.568411
2241 4 0.0362759 0.150192 0.553974
372 4 0.0692485 0.147549 0.501688
473 4 0.0804226 0.159855 0.510044
1263 4 0.0801722 0.092644 0.52768
1261 2 0.100769 0.0954528 0.541236
472 2 0.103993 0.16397 0.503958
1262 4 0.121365 0.0982616 0.554792
3308 4 0.136344 0.102295 0.566573
474 4 0.127564 0.168085 0.497872
1141 2 0.250528 0.139503 0.534249
1142 4 0.258121 0.11595 0.5281
2502 4 0.278833 0.109307 0.532046
1143 4 0.242935 0.163057 0.540399
2500 2 0.301546 0.117934 0.530298
2501 4 0.324259 0.126561 0.528549
900 4 0.334133 0.14326 0.524726
898 2 0.35443 0.156291 0.524845
726 4 0.144579 0.17176 0.489642
724 2 0.166548 0.180953 0.49466
725 4 0.188517 0.190146 0.499679
8 3 0.210791 0.191111 0.501561
6 1 0.230425 0.188502 0.513981
7 3 0.22831 0.172149 0.529793
9 3 0.23408 0.208372 0.524754
917 4 0.257529 0.174161 0.547693
916 2 0.281755 0.178697 0.547632
1077 4 0.283425 0.225702 0.576553
3267 4 0.300708 0.231719 0.569464
3265 2 0.323504 0.239101 0.564594
918 4 0.305981 0.183233 0.54757
3462 4 0.327311 0.209831 0.507656
3460 2 0.351701 0.213302 0.509804
3266 4 0.346301 0.246484 0.559724
640 2 0.414729 0.175343 0.514166
641 4 0.390561 0.170643 0.514982
899 4 0.374727 0.169322 0.524963
642 4 0.438898 0.180042 0.513349
3461 4 0.376092 0.216773 0.511952
1211 4 0.417353 0.195114 0.545962
1210 2 0.425643 0.210888 0.562848
1212 4 0.433933 0.226661 0.579734
321 4 0.455545 0.169608 0.517282
1259 4 0.45393 0.229041 0.583519
2846 4 0.0116076 0.328086 0.510834
261 4 0.0328023 0.328742 0.515283
347 4 0.00735236 0.31499 0.58136
83 3 0.0856589 0.262503 0.573867
1279 2 0.0838424 0.332248 0.577618
934 2 0.203964 0.328455 0.54296
1641 4 0.174039 0.336752 0.570529
695 4 0.21802 0.300184 0.518058
935 4 0.214144 0.320329 0.52132
694 2 0.239228 0.300109 0.504805
142 3 0.247944 0.270687 0.561363
3080 4 0.255879 0.253292 0.553209
3079 2 0.275517 0.256112 0.538288
3081 4 0.295156 0.258932 0.523366
3498 4 0.314529 0.26272 0.52279
3496 2 0.336448 0.268573 0.513317
3497 4 0.358367 0.274427 0.503844
3055 2 0.295976 0.313399 0.503233
3056 4 0.313044 0.330093 0.506026
3111 4 0.364774 0.252446 0.555903
3106 2 0.34983 0.3081 0.584186
3109 2 0.388081 0.257147 0.549407
3110 4 0.411388 0.261847 0.542911
889 2 0.419659 0.32663 0.513471
3108 4 0.374531 0.309678 0.581682
2813 4 0.430145 0.267973 0.540083
891 4 0.443531 0.318567 0.508924
2812 2 0.45418 0.271153 0.535071
2814 4 0.478214 0.274333 0.530058
2963 4 0.497526 0.272285 0.528009
259 2 0.0560708 0.334242 0.509554
260 4 0.0793394 0.339743 0.503824
2635 2 0.117681 0.358577 0.502454
1280 4 0.104333 0.341434 0.568116
1640 4 0.123936 0.33984 0.568173
2637 4 0.0953299 0.349224 0.504483
1639 2 0.148988 0.338296 0.569351
2636 4 0.140032 0.367931 0.500425
3333 4 0.159261 0.36007 0.502771
936 4 0.193784 0.336581 0.564601
3331 2 0.182803 0.366729 0.501637
3332 4 0.206344 0.373389 0.500504
265 2 0.354852 0.341835 0.509757
266 4 0.32997 0.340658 0.509802
890 4 0.395787 0.334692 0.518018
267 4 0.379734 0.343011 0.509712
1136 4 0.396216 0.375477 0.554182
1135 2 0.412295 0.380118 0.535932
1137 4 0.428374 0.384759 0.517683
1237 2 0.481882 0.334167 0.513595
774 4 0.44115 0.395891 0.56696
540 4 0.447965 0.385865 0.51881
772 2 0.451717 0.374622 0.576667
538 2 0.470726 0.394447 0.517488
539 4 0.493487 0.40303 0.516166
327 4 0.0126617 0.486931 0.515711
2212 2 0.0324758 0.461368 0.567499
2214 4 0.00845183 0.458968 0.573245
2213 4 0.0564997 0.463767 0.561753
3367 2 0.125348 0.441302 0.571382
3368 4 0.148858 0.446495 0.566305
240 4 0.163339 0.458563 0.560436
238 2 0.186387 0.466006 0.557157
239 4 0.209436 0.473449 0.553878
336 4 0.22507 0.463513 0.547896
334 2 0.249224 0.468239 0.54891
335 4 0.273378 0.472966 0.549923
2995 2 0.0899151 0.0569853 0.592177
2997 4 0.111986 0.064639 0.599393
3125 4 0.11487 0.0834137 0.657892
3309 4 0.132316 0.0655043 0.599717
953 4 0.430569 0.0228754 0.654527
952 2 0.437055 0.014307 0.631764
954 4 0.443541 0.00573851 0.609002
1257 4 0.018792 0.161717 0.613783
1155 4 0.0376098 0.159937 0.605319
1153 2 0.0613596 0.165964 0.604027
3307 2 0.13433 0.0838995 0.583145
1130 4 0.330368 0.166703 0.600837
1129 2 0.350264 0.159607 0.615023
1131 4 0.370159 0.15251 0.629209
858 4 0.383843 0.151643 0.642627
856 2 0.407017 0.15743 0.636882
857 4 0.43019 0.163217 0.631137
2318 4 0.4344 0.168254 0.611999
82 3 0.0724197 0.240647 0.600519
1154 4 0.0851093 0.171991 0.602734
2627 4 0.103815 0.235152 0.649348
1283 4 0.104198 0.180075 0.599281
1282 2 0.127828 0.186557 0.599265
2626 2 0.12283 0.245558 0.638258
3356 4 0.0875131 0.247 0.646277
1284 4 0.151458 0.193039 0.59925
1106 4 0.171502 0.197526 0.598178
1105 2 0.195815 0.201163 0.59561
1076 4 0.238574 0.210588 0.588833
1107 4 0.220128 0.2048 0.593042
143 3 0.247225 0.250399 0.592916
1075 2 0.261 0.218145 0.582693
1258 2 0.478317 0.231931 0.586803
1260 4 0.502704 0.234821 0.590087
950 4 0.490239 0.170311 0.597019
2319 4 0.475852 0.184605 0.591876
2317 2 0.455126 0.17643 0.601938
1082 4 0.471861 0.25197 0.646204
905 4 0.0202368 0.257391 0.658227
346 2 0.0318368 0.309853 0.585748
348 4 0.0563213 0.304715 0.590135
84 3 0.0514058 0.271374 0.589376
3357 4 0.0395797 0.260218 0.657618
3355 2 0.0635464 0.253609 0.651947
1281 4 0.0633518 0.323062 0.58712
81 1 0.0731343 0.262381 0.593393
85 3 0.0828175 0.274412 0.609535
807 4 0.10809 0.309749 0.644114
805 2 0.102392 0.297525 0.623349
806 4 0.0966945 0.285301 0.602584
978 4 0.107978 0.300715 0.662953
2628 4 0.141845 0.255964 0.627168
3441 4 0.156944 0.255767 0.614241
3439 2 0.180589 0.261869 0.611894
3440 4 0.204235 0.267971 0.609547
145 3 0.224676 0.282047 0.589002
141 1 0.245301 0.271899 0.584193
896 4 0.212167 0.285071 0.605935
895 2 0.216625 0.304104 0.621007
897 4 0.221082 0.323137 0.636079
1085 4 0.239148 0.317257 0.642997
144 3 0.261874 0.284211 0.593055
3383 4 0.278323 0.276856 0.603858
3384 4 0.308393 0.313847 0.597419
3382 2 0.293358 0.295351 0.600639
3107 4 0.325128 0.306523 0.586689
3165 4 0.392389 0.305223 0.589192
3163 2 0.41285 0.299765 0.603136
3164 4 0.433311 0.294307 0.617079
1083 4 0.436356 0.273803 0.616465
1081 2 0.454109 0.262887 0.631334
4213 2 0.00640429 0.399159 0.608084
4560 4 0.0192815 0.37559 0.639643
4558 2 0.0425655 0.378626 0.647545
1911 4 0.0422697 0.412943 0.594088
3381 4 0.0147202 0.356873 0.636272
4214 4 0.0224669 0.406629 0.591002
4559 4 0.0658496 0.381663 0.655447
877 2 0.198175 0.400672 0.607968
879 4 0.175058 0.398255 0.616684
878 4 0.221292 0.403088 0.599253
3354 4 0.227481 0.404472 0.618456
3352 2 0.246911 0.417908 0.623376
1041 4 0.251291 0.363701 0.625038
1039 2 0.270265 0.361115 0.608719
2721 4 0.3079 0.361416 0.583424
1040 4 0.289238 0.358529 0.5924
2719 2 0.31736 0.383239 0.588259
2720 4 0.32682 0.405062 0.593095
773 4 0.462284 0.353353 0.586374
1205 4 0.471765 0.350821 0.604122
1204 2 0.494869 0.358336 0.60673
3369 4 0.101838 0.436109 0.576459
1909 2 0.0653911 0.417256 0.586611
1910 4 0.0885125 0.421569 0.579134
3353 4 0.266341 0.431344 0.628295
3446 4 0.281376 0.443628 0.620765
3447 4 0.324878 0.424343 0.601575
3445 2 0.303127 0.433986 0.61117