ITEM: TIMESTEP
2575500
ITEM: NUMBER OF ATOMS
4590
ITEM: BOX BOUNDS xy xz yz pp pp pp
-1.9797168600000020e+01 9.9985700000000008e+00 -9.7985986000000196e+00
-9.9985700000000008e+00 9.9985700000000008e+00 0.0000000000000000e+00
-9.9985700000000008e+00 9.9985700000000008e+00 0.0000000000000000e+00
ITEM: ATOMS id type xs ys zs
2337 4 0.0754686 0.0679071 0.00169902
4160 4 0.00510031 0.0416732 0.00195147
3047 4 0.343022 0.0790372 0.0226227
2889 4 0.0238532 0.135906 0.030474
2887 2 0.0441229 0.129303 0.0358679
2888 4 0.0643927 0.1227 0.0412618
2783 4 0.0742877 0.121378 0.0571709
2782 2 0.0971393 0.124174 0.0446845
2844 4 0.139332 0.135685 0.0404011
2842 2 0.162736 0.1434 0.0269652
2843 4 0.186141 0.151114 0.0135294
2784 4 0.119991 0.126969 0.0321981
3284 4 0.232412 0.103967 0.0182562
1823 4 0.247227 0.0951478 0.0204054
1822 2 0.271848 0.0994642 0.0304078
1824 4 0.296469 0.103781 0.0404103
3048 4 0.318742 0.107234 0.0385698
3243 4 0.325192 0.147526 0.0592323
3241 2 0.348593 0.159322 0.0724819
3046 2 0.330882 0.0931356 0.0305963
1761 4 0.364174 0.0909013 0.027216
1759 2 0.385426 0.0928633 0.0416939
1760 4 0.406678 0.0948252 0.0561718
393 4 0.428668 0.101041 0.0616275
391 2 0.446805 0.0996032 0.0780015
1249 2 0.00675373 0.214246 0.0345275
1250 4 0.0311619 0.216182 0.0260963
1247 4 0.0534943 0.222994 0.0317597
1246 2 0.0752666 0.244375 0.0253967
2440 2 0.0869481 0.22218 0.0744687
2441 4 0.109698 0.235162 0.060755
4304 4 0.131394 0.24583 0.0589724
2838 4 0.242438 0.242221 0.0527419
2836 2 0.248852 0.22969 0.0351204
2837 4 0.255267 0.217159 0.0174988
278 4 0.319574 0.206391 0.0291259
277 2 0.345434 0.217264 0.0198846
279 4 0.371294 0.228138 0.0106433
4470 4 0.389273 0.232106 0.0211246
4468 2 0.41698 0.241162 0.0198156
4469 4 0.444687 0.250217 0.0185065
2725 2 0.0251042 0.332583 0.0381103
2726 4 0.0285124 0.322399 0.0593453
2521 2 0.000518184 0.27006 0.0367179
671 4 0.0428725 0.32397 0.0755203
2522 4 0.0158925 0.268735 0.0558668
2771 4 0.0351124 0.257934 0.0744321
670 2 0.0627785 0.318588 0.0661401
672 4 0.0826846 0.313205 0.05676
462 4 0.0934664 0.327581 0.042537
460 2 0.0924464 0.315367 0.0212922
461 4 0.0914264 0.303154 4.73383e-05
1248 4 0.0970389 0.265755 0.0190336
4303 2 0.145597 0.258308 0.0388713
4305 4 0.1598 0.270787 0.0187702
3197 4 0.462248 0.265456 0.00933711
3196 2 0.489268 0.275775 0.0153616
1551 4 0.0325921 0.406658 0.0379238
3542 4 0.0349389 0.404983 0.0579693
3541 2 0.0548377 0.402276 0.0709055
2727 4 0.021696 0.342766 0.0168752
2747 4 0.0429725 0.355325 0.01174
1549 2 0.052184 0.418882 0.0208733
2746 2 0.0697139 0.368934 0.00565119
1466 4 0.0887484 0.3933 0.0767912
3543 4 0.0747365 0.399569 0.0838416
1465 2 0.112738 0.391523 0.0747973
1467 4 0.136728 0.389746 0.0728034
596 4 0.157422 0.401548 0.0772786
595 2 0.184546 0.407335 0.0759375
597 4 0.21167 0.413122 0.0745964
1871 4 0.0705155 0.471838 0.031867
1550 4 0.0717758 0.431106 0.00382287
1870 2 0.0921701 0.473714 0.0180202
1872 4 0.113825 0.475591 0.00417345
3635 4 0.0871216 0.428884 0.0149477
1630 2 0.105794 0.468645 0.0818659
3634 2 0.112011 0.428657 0.0152211
1631 4 0.130583 0.471233 0.0737885
2582 4 0.148529 0.486794 0.0353898
2581 2 0.173931 0.487806 0.0373409
3636 4 0.1369 0.42843 0.0154944
1559 4 0.145982 0.488567 0.0798679
2583 4 0.199334 0.488818 0.0392921
4187 4 0.158335 0.437109 0.0202113
4186 2 0.184817 0.445613 0.0276217
134 3 0.244398 0.500546 0.0482362
4188 4 0.211299 0.454116 0.0350321
135 3 0.230617 0.463201 0.0466292
131 1 0.249487 0.483264 0.0407605
132 3 0.251658 0.484443 0.0178429
3341 4 0.267293 0.477608 0.0164716
3389 4 0.23346 0.423046 0.0767162
133 3 0.271746 0.485348 0.0498729
2112 4 0.293312 0.492401 0.0440169
3340 2 0.281619 0.466774 0.00541465
3388 2 0.261301 0.433915 0.0763519
3000 4 0.311008 0.449319 0.0796335
73 3 0.352376 0.484214 0.0520513
71 1 0.3557 0.467278 0.0628436
72 3 0.335331 0.455552 0.0761788
3390 4 0.289142 0.444784 0.0759876
75 3 0.357925 0.453142 0.0475113
648 4 0.363839 0.440116 0.0380146
74 3 0.376827 0.476365 0.0761783
646 2 0.389702 0.444852 0.0310488
3671 4 0.400081 0.483213 0.0846094
647 4 0.415565 0.449587 0.024083
1710 4 0.422252 0.492018 0.0774935
1570 2 0.462885 0.46084 0.0358461
1571 4 0.490088 0.467537 0.0386933
1572 4 0.435681 0.454143 0.032999
1708 2 0.448414 0.496031 0.0726302
1374 4 0.00906108 0.0548978 0.0973083
582 4 0.0283945 0.061192 0.10849
580 2 0.0438932 0.0644167 0.12901
581 4 0.0593919 0.0676415 0.149529
3731 4 0.174169 0.00443723 0.130255
1275 4 0.0175893 0.160846 0.0908055
1273 2 0.0369445 0.159387 0.105646
2781 4 0.0140692 0.0989299 0.145265
2703 4 0.034558 0.100594 0.146712
1274 4 0.0562996 0.157928 0.120486
2701 2 0.049227 0.124524 0.140085
2702 4 0.063896 0.148453 0.133459
2615 4 0.449536 0.159055 0.152735
2614 2 0.472039 0.158472 0.163007
392 4 0.464942 0.0981659 0.0943756
357 4 0.472565 0.0882026 0.106017
654 4 0.00463709 0.224853 0.144891
558 4 0.0241723 0.226509 0.138327
492 4 0.0442064 0.210599 0.0898071
490 2 0.0166005 0.200803 0.0867879
556 2 0.0503643 0.230751 0.133254
2442 4 0.0641979 0.209199 0.0881825
557 4 0.0765564 0.234994 0.12818
3210 4 0.0985356 0.240652 0.125372
3208 2 0.12344 0.241655 0.120063
3209 4 0.148344 0.242657 0.114755
756 4 0.169865 0.247899 0.112679
3141 4 0.224017 0.184986 0.10012
3139 2 0.250774 0.189777 0.0975911
3140 4 0.277532 0.194569 0.0950622
621 4 0.298612 0.199083 0.0913238
619 2 0.323965 0.208214 0.101614
620 4 0.349318 0.217345 0.111904
2966 4 0.368861 0.218847 0.114511
2965 2 0.377486 0.202872 0.104549
3242 4 0.371993 0.171117 0.0857315
2967 4 0.386112 0.186896 0.0945864
386 4 0.46379 0.199726 0.154965
743 4 0.48091 0.202658 0.14243
525 4 0.0103855 0.279017 0.127086
2772 4 0.0166749 0.264418 0.119058
2770 2 0.0258937 0.261176 0.096745
287 4 0.0476716 0.332313 0.134493
754 2 0.196842 0.253226 0.11443
755 4 0.223819 0.258553 0.116181
729 4 0.246651 0.265668 0.114174
727 2 0.273902 0.273287 0.117925
728 4 0.301152 0.280906 0.121676
2538 4 0.323053 0.283928 0.123008
2536 2 0.34567 0.280225 0.126821
2537 4 0.368287 0.276521 0.130635
2445 4 0.385978 0.272867 0.134586
2443 2 0.409449 0.27405 0.124598
2444 4 0.432921 0.275234 0.11461
767 4 0.454071 0.278272 0.117087
766 2 0.480908 0.285973 0.111261
251 4 0.0331934 0.339066 0.127621
252 4 0.0281768 0.368116 0.0917576
250 2 0.0306851 0.353591 0.10969
286 2 0.0649928 0.343817 0.15337
611 4 0.151654 0.368378 0.157894
610 2 0.177858 0.378446 0.149445
612 4 0.204062 0.388513 0.140996
2797 2 0.22688 0.372496 0.121661
2799 4 0.223877 0.388179 0.137939
2798 4 0.229884 0.356813 0.105383
2860 2 0.221372 0.339773 0.166359
2862 4 0.249132 0.35194 0.16496
230 4 0.371 0.406556 0.155513
2912 4 0.357888 0.415964 0.158517
229 2 0.398699 0.415209 0.155525
609 4 0.480403 0.343329 0.15467
678 4 0.0156513 0.453043 0.144375
315 4 0.0375446 0.467087 0.142922
313 2 0.0651161 0.479976 0.145616
314 4 0.0926875 0.492865 0.148311
1632 4 0.0810052 0.466057 0.0899434
3102 4 0.153221 0.462278 0.14739
3100 2 0.173682 0.465051 0.131495
3101 4 0.194142 0.467825 0.115601
4211 4 0.246192 0.482416 0.0826884
4210 2 0.270199 0.484018 0.0918171
4212 4 0.294206 0.485621 0.100946
2918 4 0.3522 0.498966 0.139951
2919 4 0.304459 0.479054 0.11423
2917 2 0.32833 0.48901 0.12709
2998 2 0.314661 0.439378 0.100934
2999 4 0.318313 0.429437 0.122235
2913 4 0.333735 0.440715 0.134605
3672 4 0.411445 0.501842 0.130963
2911 2 0.345811 0.42834 0.146561
3670 2 0.405763 0.492528 0.107786
735 4 0.44847 0.434676 0.155655
231 4 0.426398 0.423862 0.155537
733 2 0.47151 0.441284 0.141893
734 4 0.49455 0.447893 0.12813
3809 4 0.188526 0.0704995 0.168105
3810 4 0.190552 0.0265645 0.172053
3808 2 0.189539 0.048532 0.170079
255 4 0.312003 0.0253928 0.17448
253 2 0.338403 0.0346689 0.182325
254 4 0.364802 0.043945 0.190169
632 4 0.383226 0.0554142 0.199633
631 2 0.40492 0.0578907 0.213762
633 4 0.426613 0.0603672 0.227892
3926 4 0.418273 0.0536952 0.244863
2756 4 0.409781 0.999748 0.202795
2755 2 0.425051 0.00045503 0.222844
2757 4 0.440322 0.00116163 0.242893
2738 4 0.462507 0.00465585 0.244834
2737 2 0.488485 0.0161454 0.235939
498 4 0.00363304 0.141846 0.188685
496 2 0.0245262 0.161981 0.198594
2768 4 0.162756 0.165064 0.174434
2878 2 0.1933 0.0921919 0.246724
2880 4 0.208903 0.106255 0.227975
605 4 0.220484 0.0951455 0.229515
604 2 0.239788 0.0965729 0.212871
606 4 0.259091 0.0980003 0.196228
4352 4 0.390226 0.121756 0.191555
4351 2 0.415817 0.12681 0.199639
4353 4 0.441407 0.131864 0.207724
749 4 0.462643 0.137668 0.203276
2616 4 0.494542 0.157889 0.17328
748 2 0.483958 0.131695 0.204645
497 4 0.0454194 0.182116 0.208503
390 4 0.0673825 0.191993 0.203933
388 2 0.0872717 0.215562 0.203558
389 4 0.107161 0.239131 0.203184
512 4 0.202707 0.190009 0.227119
2767 2 0.173338 0.176537 0.196089
2769 4 0.183919 0.188011 0.217745
650 4 0.2651 0.194496 0.205797
649 2 0.292763 0.203925 0.203497
651 4 0.320427 0.213355 0.201196
3159 4 0.326963 0.204472 0.216977
3157 2 0.350112 0.214372 0.230847
3158 4 0.373261 0.224273 0.244716
236 4 0.381414 0.228456 0.175695
579 4 0.386771 0.218302 0.190607
577 2 0.393698 0.19933 0.192045
385 2 0.438922 0.192426 0.165856
578 4 0.400624 0.180359 0.193482
387 4 0.414054 0.185127 0.176746
630 4 0.164347 0.289741 0.168785
629 4 0.126286 0.25266 0.195805
628 2 0.145316 0.2712 0.182295
2861 4 0.193611 0.327606 0.167759
2471 4 0.422142 0.316417 0.176601
235 2 0.400908 0.251788 0.179677
715 2 0.414777 0.258999 0.242309
237 4 0.420401 0.275119 0.18366
716 4 0.438716 0.277648 0.23467
2969 4 0.442237 0.280437 0.186693
2968 2 0.462511 0.295591 0.201874
2970 4 0.482786 0.310745 0.217054
4005 4 0.0516809 0.400514 0.168952
4003 2 0.0733671 0.410189 0.184587
288 4 0.082314 0.35532 0.172247
713 4 0.0949832 0.34664 0.17071
712 2 0.122397 0.36048 0.173532
714 4 0.149811 0.37432 0.176353
2592 4 0.263083 0.356699 0.17911
2590 2 0.288664 0.370297 0.188188
2591 4 0.314244 0.383895 0.197267
2470 2 0.438475 0.339348 0.185168
4008 4 0.468502 0.36756 0.208833
2472 4 0.454809 0.362279 0.193735
4006 2 0.487716 0.376584 0.226859
4004 4 0.0950532 0.419863 0.200222
644 4 0.120403 0.464955 0.224572
643 2 0.137297 0.487482 0.233704
753 4 0.116718 0.45712 0.206082
1856 4 0.114442 0.42866 0.209882
1855 2 0.113771 0.418238 0.232173
752 4 0.149349 0.458725 0.167557
751 2 0.133033 0.457922 0.186819
3449 4 0.299681 0.422147 0.203039
3448 2 0.323362 0.423458 0.212666
3450 4 0.347043 0.42477 0.222294
2874 4 0.360397 0.441669 0.231642
2872 2 0.384959 0.443451 0.239442
2873 4 0.409521 0.445232 0.247242
4 3 0.45001 0.429787 0.230247
4368 4 0.470234 0.443473 0.22495
4366 2 0.494034 0.441234 0.224395
721 2 0.0749613 0.0605258 0.324693
162 3 0.0265338 0.0622975 0.321165
723 4 0.0896415 0.0628177 0.303808
2879 4 0.177696 0.0781288 0.265473
3927 4 0.44622 0.0658037 0.288101
3925 2 0.432246 0.0597495 0.266482
2114 4 0.496699 0.00846866 0.338399
3697 2 0.48015 0.0620526 0.299832
3698 4 0.455826 0.0535487 0.287725
590 4 0.399087 0.112052 0.297045
589 2 0.395633 0.132789 0.293926
591 4 0.392178 0.153527 0.290807
2850 4 0.46759 0.131038 0.320968
2848 2 0.444779 0.124894 0.306989
2849 4 0.421969 0.11875 0.29301
2534 4 0.0567983 0.240316 0.297924
2533 2 0.0396189 0.217783 0.288993
2535 4 0.0224395 0.19525 0.280061
2945 4 0.00184445 0.181841 0.287051
513 4 0.215078 0.206168 0.274234
511 2 0.208892 0.198088 0.250676
2643 4 0.205538 0.217109 0.281818
2641 2 0.183268 0.217287 0.293013
2642 4 0.160998 0.217464 0.304209
480 4 0.339579 0.231473 0.316874
717 4 0.390837 0.24035 0.249948
403 2 0.436576 0.180147 0.273544
404 4 0.409664 0.167027 0.279332
30 3 0.481901 0.195305 0.256712
405 4 0.463488 0.193267 0.267755
299 4 0.0209523 0.281169 0.31596
2765 4 0.0359554 0.275048 0.318564
2764 2 0.0521425 0.26333 0.315923
2766 4 0.0683297 0.251612 0.313282
338 4 0.421406 0.306822 0.314556
289 2 0.422202 0.331267 0.283399
291 4 0.41126 0.311047 0.298071
339 4 0.469719 0.31009 0.33211
2853 4 0.486762 0.310107 0.258968
2556 4 0.480796 0.30702 0.318141
337 2 0.445562 0.308456 0.323333
1801 2 0.0249369 0.406178 0.28534
1803 4 0.0424971 0.395786 0.283332
375 4 0.0982803 0.375012 0.304001
374 4 0.0990465 0.386975 0.255715
373 2 0.0986634 0.380994 0.279858
1857 4 0.1131 0.407816 0.254464
1436 4 0.212804 0.409324 0.331835
1435 2 0.237158 0.409562 0.325696
681 4 0.281919 0.411931 0.319909
1437 4 0.261512 0.4098 0.319558
290 4 0.433144 0.351487 0.268727
2568 4 0.448233 0.370772 0.264372
2566 2 0.455537 0.386387 0.283896
2567 4 0.462841 0.402002 0.303421
2499 4 0.446915 0.397519 0.316116
3 3 0.435096 0.41199 0.263252
4030 2 0.0536185 0.472008 0.308912
1802 4 0.00737673 0.416571 0.287349
4032 4 0.0293822 0.473349 0.310836
1188 4 0.00997085 0.428881 0.272242
3958 2 0.124787 0.482776 0.301585
3959 4 0.0988534 0.480699 0.301347
4031 4 0.0778548 0.470666 0.306987
4575 4 0.213915 0.486799 0.333269
4573 2 0.190552 0.486877 0.324464
4574 4 0.167188 0.486955 0.315658
3960 4 0.15072 0.484853 0.301823
679 2 0.308746 0.417026 0.317211
245 4 0.411402 0.434694 0.312897
244 2 0.384155 0.428482 0.311981
246 4 0.356908 0.422269 0.311064
680 4 0.335573 0.422122 0.314514
2622 4 0.487507 0.452652 0.321777
1575 4 0.484404 0.454593 0.266334
2620 2 0.460221 0.445653 0.319111
5 3 0.463654 0.448027 0.262848
1 1 0.44358 0.432243 0.252021
2621 4 0.432936 0.438655 0.316445
2 3 0.424826 0.438895 0.251476
1967 4 0.029528 0.0267981 0.383576
1966 2 0.0550896 0.036602 0.373666
722 4 0.060281 0.0582338 0.345577
165 3 0.0423991 0.0604933 0.354468
161 1 0.0222549 0.0604936 0.343845
2664 4 0.0131607 0.0186618 0.398121
163 3 0.0183835 0.0785417 0.350985
164 3 0.00129527 0.0406676 0.348193
1348 2 0.122943 0.0719765 0.359454
1350 4 0.10122 0.0495957 0.356526
1968 4 0.0806512 0.0464059 0.363756
1058 4 0.234729 0.00438642 0.388177
1497 4 0.297576 0.0616551 0.332167
1523 4 0.228968 0.000938275 0.368681
617 4 0.344294 0.0108411 0.416834
685 2 0.390067 0.0810024 0.364769
686 4 0.364903 0.0726239 0.354209
1496 4 0.345041 0.0720993 0.356628
1495 2 0.321308 0.0668772 0.344398
708 4 0.349548 0.00521346 0.399191
2113 2 0.474522 0.0125298 0.343364
2115 4 0.452345 0.0165909 0.348329
1349 4 0.144667 0.0943573 0.362383
369 4 0.331114 0.14501 0.390194
473 4 0.332097 0.15549 0.407752
472 2 0.310051 0.158415 0.399666
474 4 0.288006 0.16134 0.39158
2491 2 0.397063 0.129291 0.390422
2492 4 0.382874 0.1413 0.381588
368 4 0.371987 0.140704 0.365001
367 2 0.35155 0.142857 0.377598
3572 4 0.464306 0.118948 0.336496
3571 2 0.450607 0.111175 0.358105
3573 4 0.436909 0.103402 0.379714
687 4 0.415232 0.0893808 0.375329
2493 4 0.411251 0.117281 0.399255
469 2 0.0674203 0.216389 0.38765
470 4 0.0793594 0.211541 0.36773
471 4 0.0554811 0.221236 0.407569
3631 2 0.147907 0.210433 0.374492
3633 4 0.1217 0.207396 0.372266
2450 4 0.246027 0.245885 0.380643
2449 2 0.21863 0.238774 0.378974
2451 4 0.191232 0.231663 0.377305
3632 4 0.174114 0.213471 0.376718
478 2 0.334884 0.240606 0.338268
479 4 0.330189 0.249739 0.359662
2496 4 0.457451 0.252924 0.363807
3460 2 0.19442 0.328701 0.41282
3462 4 0.171862 0.326956 0.400525
1034 4 0.259762 0.304996 0.389344
410 4 0.264011 0.324048 0.393825
409 2 0.246631 0.322669 0.41238
584 4 0.346415 0.292658 0.361546
2699 4 0.317676 0.25856 0.365412
583 2 0.339098 0.310635 0.368022
585 4 0.331782 0.328613 0.374498
2698 2 0.292866 0.25741 0.371408
2700 4 0.268056 0.25626 0.377404
1035 4 0.31291 0.31618 0.379172
1033 2 0.286336 0.310588 0.384258
2529 4 0.411281 0.273225 0.343141
894 4 0.434894 0.318067 0.367961
892 2 0.410123 0.316757 0.361533
893 4 0.385353 0.315446 0.355105
2494 2 0.474782 0.257371 0.383194
2528 4 0.436509 0.250533 0.368922
2527 2 0.423895 0.261879 0.356031
568 2 0.456674 0.313347 0.404571
569 4 0.442711 0.316006 0.384947
2495 4 0.492112 0.261817 0.402581
3316 2 0.0897351 0.386199 0.34413
3318 4 0.0623839 0.379039 0.346462
593 4 0.0405285 0.373923 0.344275
592 2 0.0156402 0.373766 0.347364
667 2 0.165192 0.401211 0.340359
669 4 0.139517 0.399382 0.343166
3317 4 0.117086 0.393358 0.341797
265 2 0.223163 0.394423 0.417211
1338 4 0.223787 0.416309 0.370936
267 4 0.195658 0.38639 0.414936
668 4 0.190866 0.40304 0.337553
812 4 0.321496 0.412363 0.393897
811 2 0.296377 0.409072 0.401758
813 4 0.271258 0.405782 0.409618
266 4 0.250668 0.402457 0.419487
547 2 0.35756 0.410417 0.385169
549 4 0.330221 0.399045 0.389868
417 4 0.437137 0.419773 0.408454
2830 2 0.456101 0.376747 0.383937
2832 4 0.436468 0.376844 0.368514
2498 4 0.420553 0.378949 0.359219
2497 2 0.433734 0.388234 0.337667
452 4 0.492711 0.38714 0.411843
2831 4 0.475734 0.376651 0.39936
447 4 0.0427961 0.440788 0.409921
4323 4 0.0215793 0.436382 0.415287
4321 2 0.00183813 0.442649 0.407192
446 4 0.0841041 0.43517 0.386946
445 2 0.0634501 0.437979 0.398433
1336 2 0.222603 0.434531 0.384753
1337 4 0.22142 0.452753 0.398569
602 4 0.235393 0.470896 0.402709
4002 4 0.228871 0.499019 0.345874
548 4 0.3849 0.421789 0.38047
1432 2 0.482028 0.431814 0.389941
1434 4 0.456682 0.428016 0.39764
2663 4 0.035624 0.0299028 0.443804
2557 2 0.0525273 0.0313689 0.474673
2559 4 0.0316068 0.0326459 0.462051
2662 2 0.0243923 0.0242823 0.420962
684 4 0.0677689 0.0780351 0.46688
682 2 0.0437909 0.0799751 0.466935
683 4 0.0198129 0.0819151 0.466989
219 3 0.109104 0.00427842 0.494223
2500 2 0.14745 0.0657895 0.459848
218 3 0.130163 0.0340949 0.471555
216 1 0.106778 0.0181495 0.478013
220 3 0.0942962 0.0058304 0.459975
217 3 0.0936533 0.0288322 0.486842
2558 4 0.0734478 0.0300918 0.487295
4340 4 0.228681 0.0699998 0.474579
1181 4 0.197567 0.0154997 0.454844
4339 2 0.201784 0.0650351 0.473139
4341 4 0.174888 0.0600704 0.471699
2501 4 0.15241 0.0480652 0.471023
3394 2 0.292711 0.0545561 0.475766
3395 4 0.270504 0.049258 0.461186
1182 4 0.25259 0.0410019 0.448383
4551 4 0.246426 0.0834375 0.484149
1180 2 0.225078 0.0282508 0.451614
575 4 0.375173 0.0555287 0.494955
90 3 0.327295 0.0500408 0.488507
3396 4 0.314917 0.0598542 0.490345
616 2 0.316565 0.0019024 0.416521
3621 4 0.451767 0.0820787 0.487049
576 4 0.43009 0.0703523 0.49175
574 2 0.402632 0.0629405 0.493352
1062 4 0.00441635 0.0889852 0.473626
2715 4 0.0896889 0.0877642 0.469766
2502 4 0.142491 0.0835138 0.448673
2714 4 0.140938 0.1012 0.451731
2713 2 0.115314 0.0944822 0.460748
696 4 0.245146 0.139034 0.44521
694 2 0.233416 0.151058 0.458251
695 4 0.221686 0.163082 0.471293
4549 2 0.271779 0.0932429 0.494485
765 4 0.494698 0.160152 0.49292
763 2 0.484048 0.157606 0.469892
2802 4 0.482229 0.155236 0.427675
764 4 0.473398 0.155061 0.446864
3619 2 0.472863 0.0842779 0.501868
2543 4 0.0252005 0.252966 0.414278
2544 4 0.0453704 0.220178 0.424885
2542 2 0.0352855 0.236572 0.419581
825 4 0.214791 0.172104 0.483632
2823 4 0.00805101 0.257529 0.417059
312 4 0.111854 0.328643 0.481235
310 2 0.0896745 0.318076 0.466253
311 4 0.0674946 0.307508 0.451271
411 4 0.229251 0.321289 0.430935
3594 4 0.248183 0.314889 0.481122
3461 4 0.216977 0.330447 0.425114
570 4 0.470636 0.310689 0.424195
2560 2 0.0938965 0.397335 0.448466
2561 4 0.068823 0.395515 0.454558
3455 4 0.0482186 0.382424 0.449588
3454 2 0.0205579 0.372985 0.447248
661 2 0.147454 0.374727 0.487471
346 2 0.154734 0.38952 0.428693
662 4 0.120121 0.368205 0.4872
348 4 0.134848 0.39375 0.439879
2562 4 0.11897 0.399155 0.442374
1238 4 0.195329 0.386794 0.483633
663 4 0.174787 0.381249 0.487741
347 4 0.174619 0.38529 0.417507
3593 4 0.263444 0.363953 0.485156
3592 2 0.255814 0.339421 0.483139
4043 4 0.286269 0.399233 0.479948
4044 4 0.266397 0.376553 0.436248
4042 2 0.276333 0.387893 0.458098
416 4 0.390427 0.394996 0.434758
3884 4 0.372205 0.392859 0.44457
3885 4 0.318775 0.380771 0.454459
3883 2 0.34549 0.386815 0.449515
415 2 0.413782 0.407384 0.421606
2742 4 0.284743 0.49433 0.446743
603 4 0.272455 0.501472 0.435547
601 2 0.253924 0.486184 0.419128
2740 2 0.290608 0.477329 0.458346
4250 4 0.299773 0.452209 0.489299
4249 2 0.293212 0.428334 0.49466
2741 4 0.296473 0.460328 0.469948
918 4 0.248825 0.0132374 0.577894
2489 4 0.269835 0.0260897 0.569946
2488 2 0.291023 0.0343697 0.553724
916 2 0.222153 0.99941 0.58407
2490 4 0.312212 0.0426497 0.537502
87 3 0.322223 0.0380095 0.523826
86 1 0.339066 0.0517944 0.508419
88 3 0.348753 0.0736619 0.516112
89 3 0.358027 0.0453111 0.505914
3020 4 0.0110281 0.10367 0.578945
1105 2 0.0552478 0.105431 0.581279
1106 4 0.0806386 0.107215 0.576705
3387 4 0.100574 0.111562 0.568136
3385 2 0.126617 0.114805 0.564056
3386 4 0.152661 0.118048 0.559975
2243 4 0.174578 0.12324 0.56118
2242 2 0.198932 0.121984 0.56157
823 2 0.216269 0.164549 0.506898
824 4 0.217748 0.156994 0.530163
2244 4 0.223286 0.120729 0.56196
806 4 0.244183 0.127017 0.571117
805 2 0.267595 0.124686 0.567013
807 4 0.291007 0.122355 0.562908
978 4 0.311429 0.125494 0.562018
4550 4 0.297132 0.103048 0.50482
2504 4 0.317624 0.106618 0.512994
976 2 0.313245 0.106513 0.573907
2503 2 0.334868 0.0972032 0.520661
2505 4 0.352113 0.0877882 0.528328
3620 4 0.493959 0.0864771 0.516687
951 4 0.221908 0.173256 0.543217
949 2 0.243479 0.181084 0.55901
950 4 0.265049 0.188912 0.574802
900 4 0.434527 0.167958 0.566993
898 2 0.433068 0.188486 0.575426
804 4 0.00371475 0.28882 0.529896
85 3 0.13015 0.299328 0.56708
82 3 0.163025 0.329819 0.578976
81 1 0.150484 0.306917 0.580681
890 4 0.178206 0.328454 0.565254
83 3 0.166298 0.297734 0.574247
3420 4 0.180862 0.31116 0.561319
3418 2 0.20319 0.307176 0.565768
3419 4 0.225518 0.303191 0.570217
3453 4 0.0313417 0.40295 0.545575
1639 2 0.0203757 0.361875 0.511271
3451 2 0.0563227 0.412769 0.534531
1911 4 0.0664488 0.388824 0.512443
1640 4 0.0472652 0.37597 0.516489
1909 2 0.0811553 0.37557 0.512223
1910 4 0.0958619 0.362317 0.512003
891 4 0.20545 0.367326 0.534881
889 2 0.191828 0.34789 0.550067
1237 2 0.20635 0.377338 0.500683
1239 4 0.21737 0.367882 0.517733
4251 4 0.286651 0.404458 0.500021
3452 4 0.0813038 0.422589 0.523488
1698 4 0.100415 0.429132 0.513357
1696 2 0.124987 0.440137 0.525028
1697 4 0.14956 0.451143 0.5367
3975 4 0.172939 0.464864 0.535218
3973 2 0.200053 0.470501 0.535877
3464 4 0.190283 0.41687 0.559246
3974 4 0.227166 0.476139 0.536537
3463 2 0.215137 0.430781 0.569558
2130 4 0.248534 0.481084 0.530911
3465 4 0.23999 0.444692 0.57987
2128 2 0.273511 0.49908 0.524568
797 4 0.25817 0.460982 0.575426
796 2 0.283429 0.464385 0.567876
798 4 0.308689 0.467788 0.560325
1136 4 0.325982 0.473191 0.571498
1135 2 0.350865 0.473844 0.56687
1137 4 0.375748 0.474496 0.562243
791 4 0.37695 0.456262 0.557699
790 2 0.399099 0.461448 0.572323
270 4 0.0774419 0.0724144 0.595856
269 4 0.0454032 0.050666 0.635485
3084 4 0.0493828 0.0518269 0.655688
268 2 0.0614225 0.0615402 0.615671
3050 4 0.0978105 0.0776822 0.601789
3049 2 0.119179 0.0718514 0.599714
3051 4 0.140548 0.0660206 0.597639
2507 4 0.156842 0.060358 0.590899
2506 2 0.176548 0.0689478 0.608541
3022 2 0.179725 0.0514154 0.661446
2508 4 0.196254 0.0775376 0.626183
3024 4 0.187863 0.0628199 0.639341
1142 4 0.22376 0.0698158 0.591972
1141 2 0.222968 0.0517815 0.607309
1143 4 0.222177 0.0337471 0.622646
3308 4 0.207651 0.0138901 0.621859
1107 4 0.0298571 0.103647 0.585854
2979 4 0.186222 0.0978771 0.663914
2977 2 0.213789 0.106389 0.661603
2978 4 0.241356 0.114901 0.659292
2811 4 0.300358 0.157635 0.608531
1086 4 0.256108 0.107007 0.66319
1084 2 0.28356 0.116447 0.667071
3110 4 0.316097 0.157213 0.596646
3109 2 0.341835 0.160891 0.602867
977 4 0.31506 0.0875324 0.585795
3267 4 0.363982 0.156619 0.626529
3111 4 0.367574 0.164569 0.609088
3265 2 0.388664 0.161355 0.636664
145 3 0.425769 0.158782 0.656267
3266 4 0.413347 0.16609 0.646798
1154 4 0.0835257 0.248718 0.606616
1256 4 0.198601 0.252246 0.628415
2810 4 0.280888 0.186561 0.585462
3238 2 0.295639 0.243133 0.633025
3240 4 0.316976 0.244716 0.647164
3239 4 0.274301 0.241549 0.618886
935 4 0.285041 0.198983 0.664487
2809 2 0.290623 0.172098 0.596996
934 2 0.312233 0.205843 0.661289
3093 4 0.335077 0.24636 0.635485
936 4 0.339425 0.212703 0.658091
1259 4 0.349988 0.203818 0.646686
1258 2 0.375467 0.208758 0.638372
1260 4 0.400945 0.213699 0.630059
3207 4 0.418758 0.227545 0.639068
3205 2 0.430684 0.220965 0.620297
899 4 0.431609 0.209015 0.583859
3206 4 0.442611 0.214385 0.601527
3180 4 0.0120387 0.258155 0.592015
2240 4 0.032686 0.259808 0.597274
2239 2 0.0571095 0.26171 0.605623
2241 4 0.0815331 0.263612 0.613972
1153 2 0.109356 0.25382 0.614021
84 3 0.143112 0.301289 0.602714
1155 4 0.135187 0.258921 0.621425
906 4 0.160935 0.303364 0.613345
904 2 0.17922 0.310147 0.632195
1257 4 0.156185 0.264583 0.628232
1255 2 0.177393 0.258414 0.628324
905 4 0.197505 0.316931 0.651045
959 4 0.220103 0.260475 0.63474
3380 4 0.255 0.316859 0.664813
3379 2 0.275884 0.31988 0.649335
958 2 0.240462 0.253282 0.633008
960 4 0.260821 0.246088 0.631276
3381 4 0.296768 0.322901 0.633858
1040 4 0.312664 0.331909 0.619639
3091 2 0.360932 0.25812 0.644606
3092 4 0.386787 0.26988 0.653727
3435 4 0.408956 0.278153 0.658059
3433 2 0.420923 0.264119 0.66661
2720 4 0.011138 0.365786 0.600823
3221 4 0.0283788 0.367014 0.589756
3220 2 0.0446052 0.357009 0.598623
3222 4 0.0608316 0.347004 0.60749
3491 4 0.073966 0.341031 0.597756
3490 2 0.100116 0.344435 0.593983
3492 4 0.126265 0.347838 0.590209
1039 2 0.336059 0.336893 0.632339
1041 4 0.359455 0.341877 0.645039
998 4 0.374859 0.341647 0.657667
2137 2 0.274716 0.490332 0.655353
2368 2 0.336231 0.500822 0.6585
2139 4 0.288017 0.476311 0.660009
2369 4 0.309375 0.490472 0.665097
4483 2 0.402002 0.485374 0.626
4485 4 0.390582 0.461631 0.633837
792 4 0.421247 0.466633 0.586946
4558 2 0.457864 0.460671 0.660905
4559 4 0.467174 0.460651 0.637704
773 4 0.47752 0.449206 0.641162
772 2 0.494093 0.459282 0.621458
3082 2 0.0710291 0.0549762 0.670218
3083 4 0.0926754 0.0581255 0.684748
2282 4 0.108441 0.0665493 0.671111
2281 2 0.136142 0.077777 0.668592
1037 4 0.165466 0.0435932 0.701491
1036 2 0.151366 0.0186797 0.702451
3023 4 0.171586 0.0400109 0.683551
2133 4 0.263561 0.0147463 0.738523
2131 2 0.284879 0.024446 0.722501
4386 4 0.245335 0.00118446 0.748819
2132 4 0.306197 0.0341457 0.706479
1022 4 0.0185726 0.134277 0.701283
2256 4 0.0322411 0.1539 0.694487
2283 4 0.163842 0.0890047 0.666073
1131 4 0.21048 0.164396 0.669288
3106 2 0.321322 0.164918 0.743246
1085 4 0.311011 0.125888 0.670952
897 4 0.32894 0.122376 0.676288
3165 4 0.359819 0.163953 0.725691
895 2 0.352888 0.122317 0.683382
896 4 0.376836 0.122259 0.690476
1013 4 0.396944 0.125453 0.694682
143 3 0.417414 0.140908 0.689404
141 1 0.430617 0.16119 0.678615
1012 2 0.409545 0.11283 0.705308
1014 4 0.422146 0.100208 0.715933
2255 4 0.00626924 0.177005 0.670487
2254 2 0.0192551 0.165452 0.682487
1129 2 0.237861 0.178151 0.672443
1130 4 0.265241 0.191906 0.675599
3108 4 0.346302 0.171371 0.732879
3163 2 0.383565 0.16985 0.713223
3164 4 0.40731 0.175747 0.700755
383 4 0.43534 0.241058 0.693042
382 2 0.455907 0.237051 0.703117
144 3 0.424089 0.177194 0.687317
142 3 0.455662 0.168027 0.682039
384 4 0.476474 0.233045 0.713192
3383 4 0.330583 0.286362 0.734432
3382 2 0.356784 0.29468 0.726277
3384 4 0.382985 0.302999 0.718123
921 4 0.400956 0.300746 0.722811
919 2 0.416947 0.293297 0.736372
3434 4 0.432891 0.250085 0.67516
867 4 0.453625 0.287937 0.743461
1299 4 0.172371 0.347691 0.691291
1297 2 0.196039 0.345549 0.688184
1298 4 0.219706 0.343407 0.685078
1068 4 0.23497 0.339001 0.693996
1066 2 0.261372 0.351085 0.686267
1067 4 0.287774 0.363169 0.678538
3113 4 0.309045 0.373324 0.678817
999 4 0.372305 0.36839 0.696915
997 2 0.373582 0.355019 0.677291
3112 2 0.332713 0.373825 0.687551
3114 4 0.356382 0.374326 0.696286
1008 4 0.470287 0.401893 0.733157
1006 2 0.466556 0.381041 0.720977
1007 4 0.462825 0.36019 0.708798
1089 4 0.0583013 0.432508 0.704502
1087 2 0.0844704 0.435305 0.706056
1088 4 0.110639 0.438102 0.707609
2060 4 0.117899 0.426195 0.716634
2059 2 0.145235 0.433053 0.718461
2061 4 0.17257 0.439912 0.720288
4445 4 0.195626 0.444517 0.718353
4444 2 0.222987 0.451795 0.720812
4446 4 0.250347 0.459073 0.723271
4523 4 0.272729 0.46652 0.720966
4522 2 0.300054 0.478969 0.725407
4524 4 0.327379 0.491417 0.729849
885 4 0.348171 0.494913 0.734056
1170 4 0.378152 0.45638 0.669592
883 2 0.374148 0.497341 0.731846
884 4 0.400125 0.49977 0.729636
1168 2 0.386677 0.454498 0.692665
1169 4 0.395202 0.452616 0.715739
1904 4 0.40323 0.459542 0.73512
800 4 0.432418 0.444139 0.693826
4560 4 0.448554 0.460691 0.684107
799 2 0.431795 0.438424 0.71807
801 4 0.431172 0.432709 0.742314
2347 2 0.15968 0.00238091 0.784261
2348 4 0.183423 0.00253715 0.776198
2122 2 0.274285 0.0241236 0.817161
2124 4 0.291688 0.0234885 0.799526
4526 4 0.303175 0.0131876 0.800984
2037 4 0.36169 0.0795126 0.81352
4525 2 0.330746 0.0210999 0.7999
2035 2 0.384798 0.0762379 0.815461
4527 4 0.358317 0.0290121 0.798817
818 4 0.378563 0.0294474 0.792935
2036 4 0.407906 0.0729632 0.817403
4581 4 0.423071 0.0676025 0.808271
817 2 0.397197 0.0217775 0.800995
819 4 0.41583 0.0141076 0.809055
4579 2 0.449707 0.0722148 0.805152
887 4 0.434987 0.0140991 0.805501
4580 4 0.476343 0.0768272 0.802033
886 2 0.461782 0.0242438 0.79872
888 4 0.488578 0.0343885 0.79194
2628 4 0.00280121 0.151693 0.775138
2626 2 0.0298859 0.164344 0.769758
2793 4 0.0148506 0.126139 0.82648
3349 2 0.0571346 0.125369 0.825566
3350 4 0.0823543 0.127863 0.819002
923 4 0.100276 0.1386 0.806942
922 2 0.123411 0.148032 0.793032
1026 4 0.111495 0.0885905 0.83202
1024 2 0.138288 0.0996372 0.825234
1025 4 0.165081 0.110684 0.818448
2306 4 0.164794 0.125636 0.809153
2305 2 0.187772 0.134254 0.79504
924 4 0.146547 0.157465 0.779123
2307 4 0.210749 0.142872 0.780926
4442 4 0.230922 0.144012 0.781782
4441 2 0.257662 0.151662 0.775615
3107 4 0.296341 0.158465 0.753613
4443 4 0.284403 0.159312 0.769448
1208 4 0.438096 0.150914 0.768731
1207 2 0.461617 0.16526 0.780873
3304 2 0.456652 0.121138 0.82491
3306 4 0.47586 0.119589 0.809939
3077 4 0.496074 0.130218 0.814014
4347 4 0.496848 0.0910306 0.798685
2627 4 0.0569705 0.176996 0.764378
3151 2 0.0218964 0.241597 0.832592
3357 4 0.135617 0.203621 0.763536
3355 2 0.107907 0.193427 0.765837
3356 4 0.0801963 0.183232 0.768137
1148 4 0.218418 0.203292 0.803759
746 4 0.206686 0.215187 0.801557
745 2 0.183269 0.21302 0.812546
3039 4 0.166207 0.169681 0.770402