ITEM: TIMESTEP
245000
ITEM: NUMBER OF ATOMS
4590
ITEM: BOX BOUNDS xy xz yz pp pp pp
-1.1998283999999998e+01 9.9985700000000008e+00 -1.9997139999999973e+00
-9.9985700000000008e+00 9.9985700000000008e+00 0.0000000000000000e+00
-9.9985700000000008e+00 9.9985700000000008e+00 0.0000000000000000e+00
ITEM: ATOMS id type xs ys zs
2886 4 0.00428593 0.0664519 0.0258856
2688 4 0.0239752 0.0718759 0.0275416
2686 2 0.0488836 0.077158 0.0258415
2687 4 0.073792 0.0824401 0.0241414
1662 4 0.125372 0.0174303 0.0742547
1660 2 0.145124 0.00675931 0.0654302
913 2 0.499443 0.274356 0.039721
1651 2 0.43805 0.0305391 0.0833949
1652 4 0.451675 0.0436699 0.0660403
2467 2 0.453926 0.0231775 0.0271277
2469 4 0.457023 0.03443 0.049369
2468 4 0.450829 0.011925 0.00488647
148 3 0.467029 0.00221599 0.00292794
2441 4 0.0222971 0.131025 0.0144087
356 4 0.00234663 0.164901 0.0782799
1253 4 0.0414693 0.139964 0.0169989
1252 2 0.0566143 0.151543 0.0341881
2708 4 0.0935684 0.083802 0.0231091
1254 4 0.0717592 0.163123 0.0513774
2707 2 0.115236 0.0974358 0.0179103
2709 4 0.136905 0.11107 0.0127115
2670 4 0.157646 0.116035 0.0108088
2668 2 0.18262 0.121154 0.0115799
2669 4 0.207594 0.126273 0.012351
2883 4 0.229577 0.133017 0.0187874
25 3 0.244445 0.143267 0.0316502
21 1 0.261957 0.158129 0.0380507
23 3 0.275768 0.147957 0.0527145
22 3 0.274256 0.165235 0.019494
2894 4 0.291881 0.160683 0.0558772
2893 2 0.311697 0.16451 0.0711386
3243 4 0.39655 0.1254 0.0526752
3241 2 0.41661 0.126523 0.0376412
3242 4 0.436669 0.127646 0.0226071
3392 4 0.456177 0.132015 0.0203549
3391 2 0.481265 0.133609 0.021445
758 4 0.0215686 0.168378 0.0732496
2976 4 0.190866 0.191127 0.0645881
2974 2 0.214966 0.187937 0.0602628
2975 4 0.239066 0.184747 0.0559374
24 3 0.253938 0.176504 0.0482304
281 4 0.445381 0.194115 0.0712002
280 2 0.446351 0.196963 0.0463688
282 4 0.44732 0.199811 0.0215374
359 4 0.456852 0.19023 0.00688156
2889 4 0.00254631 0.244856 0.00904611
1121 4 0.0252958 0.326713 0.0727191
2748 4 0.00342883 0.321596 0.0696035
1120 2 0.049953 0.331646 0.0768369
2840 4 0.0703978 0.289862 0.0218212
2839 2 0.0915438 0.300015 0.0326315
2841 4 0.11269 0.310168 0.0434417
309 4 0.128512 0.309924 0.0312587
307 2 0.144838 0.309649 0.0501701
308 4 0.161165 0.309375 0.0690815
2652 4 0.183052 0.292778 0.0645389
2650 2 0.20317 0.309629 0.0657547
107 3 0.158746 0.279273 0.0827798
2651 4 0.223288 0.32648 0.0669706
450 4 0.406917 0.254047 0.0131582
1841 4 0.388614 0.252878 0.00166853
448 2 0.430933 0.259536 0.0198178
449 4 0.454949 0.265025 0.0264773
915 4 0.475816 0.269107 0.0317262
1122 4 0.0746102 0.336579 0.0809547
1071 4 0.094924 0.340776 0.0840922
1069 2 0.119943 0.34557 0.084093
768 4 0.142601 0.401408 0.0816636
495 4 0.20641 0.393453 0.0446785
3450 4 0.160227 0.411966 0.0751733
493 2 0.225533 0.404143 0.0310777
596 4 0.230698 0.388711 0.0842546
595 2 0.252144 0.40344 0.0812038
1079 4 0.259814 0.405557 0.0256821
527 4 0.235471 0.34118 0.0743875
494 4 0.244655 0.414833 0.0174768
526 2 0.259947 0.347883 0.0707048
1078 2 0.278153 0.407139 0.00858998
528 4 0.284422 0.354586 0.067022
597 4 0.27359 0.418169 0.078153
2805 4 0.0186542 0.493897 0.0376724
4187 4 0.0102294 0.443092 0.0169147
4186 2 0.032228 0.457288 0.0173374
4188 4 0.0542265 0.471484 0.0177601
3404 4 0.00455327 0.426945 0.0760012
3448 2 0.182565 0.423691 0.0688699
3449 4 0.204903 0.435416 0.0625665
2912 4 0.212468 0.493421 0.0131862
2583 4 0.224586 0.480523 0.0196205
2581 2 0.222712 0.460959 0.0351903
2582 4 0.220839 0.441395 0.05076
1104 4 0.293668 0.426512 0.0785893
1102 2 0.317564 0.435572 0.0747752
1103 4 0.341461 0.444632 0.070961
2772 4 0.358349 0.459488 0.0725099
2770 2 0.37858 0.472364 0.0624825
2771 4 0.39881 0.48524 0.0524551
2521 2 0.429023 0.48802 0.0228321
2522 4 0.418735 0.487422 0.0456401
560 4 0.0307766 0.497155 0.485251
1476 4 0.209647 0.00162102 0.102047
1374 4 0.20107 0.00565561 0.119886
1749 4 0.414454 0.0380174 0.147732
2180 4 0.397462 0.033422 0.160872
1653 4 0.424425 0.0174084 0.10075
1747 2 0.438614 0.0469781 0.149649
1748 4 0.462774 0.0559389 0.151566
743 4 0.481602 0.0626012 0.156484
2520 4 0.998963 0.105463 0.16217
723 4 0.0116763 0.116639 0.148241
721 2 0.029147 0.133716 0.139016
722 4 0.0466177 0.150793 0.129792
759 4 0.0507167 0.162743 0.113076
2600 4 0.342359 0.165642 0.103892
2895 4 0.331512 0.168336 0.0864001
2781 4 0.346557 0.0981217 0.163749
3808 2 0.365495 0.117886 0.139773
3809 4 0.362929 0.0969258 0.153398
3810 4 0.368061 0.138846 0.126148
757 2 0.0361426 0.165561 0.093163
2787 4 0.00386731 0.224996 0.0955555
353 4 0.335224 0.212768 0.0883847
352 2 0.360166 0.218057 0.0894992
692 4 0.288099 0.222147 0.11747
691 2 0.305842 0.209684 0.107018
693 4 0.323585 0.197221 0.096565
2601 4 0.325326 0.172528 0.150144
2599 2 0.333843 0.169085 0.127018
354 4 0.385107 0.223346 0.0906136
2876 4 0.430412 0.198549 0.0851692
2875 2 0.415709 0.2171 0.0877913
2877 4 0.401006 0.23565 0.0904134
108 3 0.130238 0.293231 0.100769
109 3 0.143445 0.261139 0.112812
106 1 0.149264 0.28203 0.103428
110 3 0.16441 0.294157 0.116749
2718 4 0.201304 0.260784 0.142966
2716 2 0.226423 0.263873 0.142597
2717 4 0.251541 0.266962 0.142229
2616 4 0.264384 0.266976 0.12718
2614 2 0.289262 0.266947 0.124703
2471 4 0.293834 0.312139 0.13997
3632 4 0.292089 0.310459 0.160231
2615 4 0.314139 0.266918 0.122226
2470 2 0.310211 0.32534 0.124997
837 4 0.331852 0.276342 0.127994
835 2 0.353812 0.285762 0.118264
836 4 0.375773 0.295183 0.108534
3141 4 0.395444 0.29694 0.106377
3139 2 0.416545 0.310452 0.0991287
3140 4 0.437647 0.323964 0.0918804
621 4 0.455933 0.33062 0.0972191
1056 4 0.47048 0.296758 0.162283
1054 2 0.494722 0.302692 0.156742
2514 4 0.00982931 0.361348 0.106234
2445 4 0.0263093 0.37364 0.100895
2443 2 0.0504311 0.38297 0.10025
2444 4 0.0745529 0.3923 0.0996056
767 4 0.0941094 0.401884 0.0936829
766 2 0.118355 0.401646 0.0876732
362 4 0.0822438 0.402247 0.148146
1549 2 0.187804 0.369233 0.0837198
1550 4 0.211463 0.379945 0.0832506
1551 4 0.164145 0.35852 0.084189
1070 4 0.144963 0.350363 0.0840938
417 4 0.181632 0.416174 0.148634
608 4 0.246077 0.396696 0.153022
607 2 0.245938 0.38012 0.134365
609 4 0.2458 0.363545 0.115707
2472 4 0.326588 0.338542 0.110024
2571 4 0.342387 0.351272 0.102264
2569 2 0.362462 0.360053 0.115664
2570 4 0.382536 0.368834 0.129065
2969 4 0.389711 0.352056 0.134651
2968 2 0.409216 0.354573 0.150404
619 2 0.479846 0.340632 0.0971727
3403 2 0.0284398 0.429958 0.0837368
3405 4 0.0523264 0.432971 0.0914724
1466 4 0.0703851 0.438721 0.100989
361 2 0.102045 0.419272 0.150936
363 4 0.121846 0.436297 0.153726
1465 2 0.0936533 0.449514 0.105033
1467 4 0.116921 0.460308 0.109076
4211 4 0.135407 0.459809 0.103661
416 4 0.141843 0.44209 0.154376
4210 2 0.159085 0.469488 0.107632
729 4 0.197777 0.430364 0.153178
415 2 0.161738 0.429132 0.151505
4212 4 0.182762 0.479167 0.111603
3636 4 0.196026 0.468175 0.122001
3634 2 0.216178 0.474561 0.107731
727 2 0.220463 0.422618 0.149333
3635 4 0.23633 0.480948 0.0934608
648 4 0.28101 0.468674 0.124906
646 2 0.284688 0.493614 0.126235
728 4 0.243149 0.414872 0.145487
2093 4 0.271645 0.449158 0.126449
2092 2 0.292623 0.437562 0.12565
2094 4 0.3136 0.425966 0.12485
2919 4 0.324121 0.44368 0.117236
2917 2 0.346175 0.455345 0.124505
2918 4 0.368229 0.467009 0.131773
3671 4 0.486153 0.462603 0.143955
2732 4 0.00810033 0.0509105 0.21524
1444 2 0.480122 0.465622 0.458246
2731 2 0.0306005 0.0620311 0.208602
2733 4 0.0531007 0.0731516 0.201963
688 2 0.181014 0.00943167 0.200728
690 4 0.184701 0.025732 0.219576
393 4 0.191569 0.0251868 0.239899
248 4 0.219425 0.0178075 0.197054
247 2 0.24422 0.0182768 0.19352
404 4 0.330396 0.0358363 0.174645
249 4 0.269015 0.018746 0.189986
405 4 0.284763 0.0119153 0.182314
403 2 0.307579 0.0238758 0.17848
2179 2 0.373818 0.0373119 0.166567
2181 4 0.350173 0.0412018 0.172262
730 2 0.0167873 0.12154 0.224283
732 4 0.0417179 0.122648 0.227099
581 4 0.0610757 0.130596 0.227829
580 2 0.0861548 0.132248 0.226507
582 4 0.111234 0.133901 0.225184
750 4 0.12744 0.146465 0.220441
748 2 0.1353 0.167813 0.232131
331 2 0.203504 0.156537 0.220188
332 4 0.211934 0.152925 0.197061
333 4 0.195075 0.160149 0.243315
630 4 0.229378 0.163389 0.192782
2780 4 0.308158 0.106733 0.193501
2779 2 0.327357 0.102427 0.178625
2658 4 0.299522 0.160709 0.250511
579 4 0.0183423 0.173183 0.230937
236 4 0.0377502 0.173317 0.227916
235 2 0.0555214 0.182689 0.243852
749 4 0.143161 0.189161 0.243822
298 2 0.170918 0.250639 0.236627
300 4 0.195051 0.253335 0.229665
299 4 0.146785 0.247944 0.243588
628 2 0.253947 0.170332 0.190142
1219 2 0.238234 0.247057 0.223464
629 4 0.278517 0.177274 0.187501
1221 4 0.261663 0.241675 0.2188
378 4 0.336797 0.179721 0.16601
377 4 0.296559 0.183563 0.194921
376 2 0.316678 0.181642 0.180465
2462 4 0.0955144 0.268189 0.245476
2461 2 0.120494 0.267984 0.245862
2463 4 0.145473 0.267778 0.246247
2449 2 0.192788 0.322742 0.246146
2451 4 0.206791 0.312137 0.229241
2496 4 0.202391 0.297503 0.21591
1220 4 0.214804 0.252439 0.228127
2494 2 0.222597 0.30716 0.203193
2495 4 0.242804 0.316817 0.190477
477 4 0.274786 0.252379 0.20549
2954 4 0.295011 0.308878 0.23942
3631 2 0.276671 0.316936 0.178262
3633 4 0.261254 0.323414 0.196293
3573 4 0.275494 0.302184 0.241292
475 2 0.295162 0.26567 0.19623
476 4 0.315538 0.278962 0.186969
2953 2 0.318895 0.308889 0.246822
755 4 0.336081 0.281564 0.182751
754 2 0.360976 0.284616 0.179404
2955 4 0.342779 0.3089 0.254225
2799 4 0.402536 0.280315 0.169747
756 4 0.385871 0.287668 0.176056
2797 2 0.427352 0.286496 0.168545
2798 4 0.452168 0.292678 0.167342
388 2 0.496632 0.265701 0.245339
519 4 0.0784543 0.37022 0.214791
517 2 0.092882 0.360101 0.197928
518 4 0.10731 0.349981 0.181064
734 4 0.124116 0.351489 0.193652
733 2 0.147535 0.359342 0.186493
735 4 0.170953 0.367194 0.179334
290 4 0.184287 0.375393 0.194749
289 2 0.198032 0.397433 0.197245
2538 4 0.250676 0.39136 0.173712
2536 2 0.271235 0.388562 0.187243
2537 4 0.291794 0.385764 0.200774
681 4 0.30171 0.40441 0.253125
714 4 0.308133 0.386423 0.213058
712 2 0.331471 0.397941 0.212485
713 4 0.354808 0.409459 0.211912
339 4 0.375113 0.409722 0.212691
2970 4 0.428721 0.357089 0.166158
4008 4 0.0105346 0.469936 0.23203
395 4 0.0747105 0.438498 0.23585
396 4 0.118373 0.444418 0.211139
394 2 0.0965415 0.441458 0.223495
3920 4 0.134244 0.441447 0.22187
291 4 0.211776 0.419473 0.199742
3919 2 0.158541 0.448829 0.217912
2820 4 0.201131 0.45769 0.221677
3921 4 0.182839 0.45621 0.213954
2818 2 0.224693 0.46638 0.227567
3566 4 0.267289 0.482382 0.226513
2819 4 0.248255 0.475069 0.233456
3565 2 0.289904 0.491676 0.218234
3567 4 0.312519 0.50097 0.209954
337 2 0.395385 0.422782 0.222434
338 4 0.415657 0.435843 0.232177
677 4 0.433466 0.446078 0.229445
676 2 0.458084 0.453147 0.227572
678 4 0.482701 0.460215 0.225699
2816 4 0.0135025 0.0561031 0.334578
2714 4 0.0323913 0.0583726 0.329737
391 2 0.214692 0.0257269 0.249528
392 4 0.237815 0.026267 0.259157
428 4 0.255306 0.0340992 0.266682
427 2 0.280099 0.0363353 0.262616
429 4 0.304892 0.0385714 0.25855
1868 4 0.325087 0.0422632 0.257354
1867 2 0.349529 0.0485946 0.253084
1869 4 0.373971 0.054926 0.248814
2850 4 0.391341 0.0615771 0.260691
2848 2 0.415763 0.0672683 0.265572
2849 4 0.440185 0.0729594 0.270454
1272 4 0.460953 0.0750117 0.271164
1032 4 0.0186003 0.107553 0.306407
529 2 0.00134645 0.160343 0.332064
1030 2 0.0371247 0.12596 0.303571
1031 4 0.0556491 0.144366 0.300735
2515 2 0.222939 0.165358 0.27288
2516 4 0.1999 0.160159 0.26334
2945 4 0.253449 0.116219 0.327693
2944 2 0.271293 0.115777 0.310229
2517 4 0.245979 0.170558 0.28242
2946 4 0.289137 0.115334 0.292765
2678 4 0.308012 0.108923 0.294266
2677 2 0.331338 0.120486 0.294104
2679 4 0.354663 0.132048 0.293942
2837 4 0.361538 0.115437 0.286857
2836 2 0.386453 0.121025 0.287719
2838 4 0.411367 0.126612 0.28858
2871 4 0.418833 0.117787 0.33123
1270 2 0.485882 0.0796951 0.273379
2477 4 0.435462 0.11826 0.319056
2476 2 0.457557 0.125446 0.308258
2478 4 0.479652 0.132633 0.29746
2778 4 0.499273 0.140718 0.291283
237 4 0.0732926 0.192061 0.259788
458 4 0.0849739 0.208504 0.266546
457 2 0.108677 0.204426 0.261329
459 4 0.13238 0.200349 0.256112
2657 4 0.263553 0.179009 0.27766
2656 2 0.281538 0.169859 0.264086
2621 4 0.0721503 0.295532 0.324026
2620 2 0.0858268 0.314519 0.312802
2622 4 0.0995034 0.333506 0.301578
2853 4 0.120319 0.339119 0.295846
2851 2 0.140514 0.33368 0.282981
2450 4 0.178784 0.333347 0.263051
3571 2 0.261256 0.307729 0.260672
3572 4 0.247018 0.313275 0.280052
2529 4 0.362926 0.309024 0.253242
2528 4 0.364247 0.302094 0.302726
2831 4 0.352996 0.290693 0.316148
2527 2 0.363586 0.305559 0.277984
2830 2 0.336707 0.274469 0.328265
709 2 0.41697 0.290056 0.336804
710 4 0.434734 0.27979 0.323893
536 4 0.452393 0.271836 0.320689
535 2 0.46518 0.274971 0.299247
537 4 0.477966 0.278106 0.277804
389 4 0.477508 0.271726 0.259473
2852 4 0.160708 0.328241 0.270116
1575 4 0.400746 0.402148 0.282735
1573 2 0.425706 0.402348 0.284509
1574 4 0.450666 0.402548 0.286282
1802 4 0.466061 0.402232 0.272113
1801 2 0.488744 0.410779 0.280809
3885 4 0.291365 0.485035 0.31238
3883 2 0.298524 0.476342 0.290354
679 2 0.307927 0.427352 0.262261
3884 4 0.305683 0.467649 0.268328
2532 4 0.283968 0.486725 0.330706
680 4 0.314144 0.450293 0.271398
543 4 0.413461 0.440176 0.319104
541 2 0.435023 0.451402 0.310082
542 4 0.456584 0.462629 0.301059
245 4 0.469983 0.452889 0.291789
244 2 0.491773 0.466711 0.295994
2114 4 0.0123446 0.0199968 0.411429
1184 4 0.0290175 0.0281815 0.40325
2713 2 0.0573642 0.0602516 0.332449
2715 4 0.0823371 0.0621306 0.335161
3477 4 0.102051 0.0592133 0.337793
3475 2 0.126683 0.0602642 0.342537
3476 4 0.151315 0.061315 0.347282
1244 4 0.170966 0.0547939 0.347663
1243 2 0.19581 0.0590221 0.350962
1245 4 0.220655 0.0632503 0.354261
2667 4 0.237881 0.071158 0.363958
2665 2 0.262495 0.0779931 0.366374
1172 4 0.398391 0.424239 0.489701
2643 4 0.326683 0.0107087 0.361289
1524 4 0.306084 0.0122903 0.363173
1522 2 0.296443 0.00470096 0.385279
2641 2 0.350556 0.0205383 0.359137
478 2 0.419275 0.0443836 0.356694
480 4 0.394353 0.0390262 0.35535
2642 4 0.374429 0.0303679 0.356986
479 4 0.444196 0.049741 0.358038
469 2 0.481121 0.0627824 0.365343
470 4 0.456754 0.0654271 0.361954
1061 4 0.497771 0.0278039 0.391774
530 4 0.0247081 0.162136 0.341258
2559 4 0.00257815 0.0891169 0.399441
2557 2 0.0268114 0.0916531 0.406053
2666 4 0.287108 0.0848283 0.368791
2664 4 0.315773 0.164889 0.380366
1377 4 0.304588 0.0952335 0.362978
2937 4 0.330096 0.153301 0.372484
1375 2 0.329546 0.097302 0.360094
2935 2 0.345749 0.142889 0.387913
1376 4 0.354503 0.0993705 0.35721
2936 4 0.361403 0.132478 0.403342
2870 4 0.37338 0.103717 0.350275
2869 2 0.396106 0.110752 0.340752
2483 4 0.0125479 0.227968 0.362548
2482 2 0.0317512 0.213971 0.36473
3158 4 0.0430523 0.170465 0.346251
3157 2 0.0658332 0.168689 0.355994
2484 4 0.0509544 0.199974 0.366912
2503 2 0.0746798 0.245703 0.410056
3159 4 0.0886141 0.166913 0.365738
651 4 0.107604 0.171554 0.375135
2504 4 0.051269 0.234851 0.413053
649 2 0.131152 0.182215 0.377602
650 4 0.1547 0.192876 0.380068
1191 4 0.1709 0.194665 0.392458
1189 2 0.193383 0.203168 0.401672
1190 4 0.215867 0.21167 0.410886
2663 4 0.294044 0.184687 0.341038
2662 2 0.304908 0.174788 0.360702
1952 4 0.0102702 0.288065 0.382759
2682 4 0.0182858 0.283557 0.366782
2680 2 0.0398248 0.286892 0.353961
2505 4 0.0980905 0.256556 0.407058
2681 4 0.0613638 0.290227 0.34114
2822 4 0.110141 0.258595 0.392488
2821 2 0.134322 0.260254 0.399246
2823 4 0.158503 0.261913 0.406005
2832 4 0.320417 0.258244 0.340383
824 4 0.35647 0.262888 0.409674
635 4 0.350355 0.264094 0.390012
634 2 0.366636 0.276266 0.374197
636 4 0.382918 0.288437 0.358383
711 4 0.399206 0.300322 0.349715
2924 4 0.001968 0.340346 0.396425
2923 2 0.025699 0.349712 0.392196
585 4 0.063157 0.371736 0.37787
2925 4 0.04943 0.359078 0.387967
583 2 0.0788979 0.383505 0.361299
584 4 0.0946387 0.395273 0.344728
549 4 0.139994 0.403033 0.39537
2587 2 0.0407307 0.46527 0.404977
2589 4 0.0156024 0.462812 0.404957
2588 4 0.065859 0.467729 0.404996
3581 4 0.13208 0.458153 0.413189
3580 2 0.108674 0.461367 0.405985
3582 4 0.0852692 0.464581 0.398781
3318 4 0.152147 0.463213 0.41259
547 2 0.160273 0.419215 0.399257
548 4 0.180553 0.435397 0.403143
3317 4 0.198834 0.484238 0.404174
3316 2 0.17549 0.473726 0.408382
1434 4 0.19697 0.440019 0.391588
1432 2 0.217073 0.447574 0.377668
1433 4 0.237177 0.455128 0.363748
2530 2 0.261779 0.478878 0.340978
2531 4 0.239591 0.471031 0.351249
2139 4 0.47556 0.42646 0.404603
2137 2 0.478982 0.447659 0.391408
2138 4 0.482404 0.468857 0.378213
569 4 0.492765 0.485631 0.379686
1183 2 0.0465233 0.0397576 0.418214
1185 4 0.0640291 0.0513337 0.433178
984 4 0.0773196 0.0389747 0.428432
217 3 0.0689543 0.0605325 0.44943
982 2 0.100369 0.0426411 0.438294
216 1 0.0643908 0.0825013 0.450331
983 4 0.123417 0.0463076 0.448155
1445 4 0.467366 0.472386 0.438271
1057 2 0.319581 0.00516162 0.435589
1059 4 0.341948 0.0105292 0.446534
1152 4 0.35792 0.0230918 0.450556
1150 2 0.381116 0.0345456 0.453348
2316 4 0.420255 0.04528 0.44372
1151 4 0.404311 0.0459995 0.456139
1446 4 0.492878 0.458859 0.478221
841 2 0.499535 0.00963049 0.492362
2314 2 0.443995 0.0533178 0.437845
1182 4 0.488108 0.0689526 0.434705
2315 4 0.467735 0.0613555 0.43197
2553 4 0.0125853 0.124048 0.462296
2558 4 0.0510447 0.0941894 0.412666
219 3 0.0446809 0.0837601 0.462305
218 3 0.0618642 0.0902275 0.428702
2551 2 0.0375633 0.123864 0.461726
2552 4 0.0625413 0.12368 0.461156
762 4 0.0834115 0.125667 0.466586
220 3 0.0817254 0.0948862 0.460636
760 2 0.097657 0.143276 0.453967
2457 4 0.0913803 0.108541 0.471105
761 4 0.111902 0.160885 0.441347
3173 4 0.130588 0.155602 0.438412
2455 2 0.111373 0.0994149 0.481345
2456 4 0.131365 0.0902884 0.491584
3172 2 0.155664 0.157122 0.437127
3852 4 0.149832 0.0992305 0.495378
2901 4 0.198404 0.164539 0.44563
3174 4 0.18074 0.158642 0.435842
2899 2 0.209103 0.14331 0.448808
2900 4 0.219802 0.122082 0.451987
2740 2 0.4519 0.495097 0.420265
2742 4 0.459917 0.472312 0.420333
321 4 0.281727 0.150966 0.48763
319 2 0.306802 0.154331 0.488988
320 4 0.331878 0.157696 0.490346
426 4 0.367641 0.14097 0.420998
424 2 0.385928 0.130986 0.43339
425 4 0.404215 0.121002 0.445782
2684 4 0.0350018 0.221623 0.419827
2683 2 0.0110731 0.217535 0.427262
369 4 0.120689 0.218599 0.496074
1027 2 0.364451 0.431052 0.467286
3462 4 0.129138 0.202631 0.492278
3460 2 0.154067 0.20198 0.492435
3461 4 0.178996 0.201329 0.492591
1394 4 0.225229 0.219395 0.426414
1393 2 0.245798 0.217654 0.440265
1395 4 0.266368 0.215914 0.454117
409 2 0.276065 0.230304 0.489554
410 4 0.281567 0.221055 0.46723
825 4 0.315518 0.245244 0.435242
602 4 0.328439 0.42077 0.4542
2931 4 0.0125631 0.276772 0.470474
2810 4 0.0951001 0.276313 0.482169
3497 4 0.0800125 0.268581 0.494202
2809 2 0.119478 0.273123 0.484426
2811 4 0.143855 0.269934 0.486682
2543 4 0.163148 0.266909 0.423891
2542 2 0.161156 0.265962 0.448804
2544 4 0.159164 0.265014 0.473718
823 2 0.335994 0.254066 0.422458
2602 2 0.367349 0.293341 0.484632
2604 4 0.345952 0.292839 0.497641
2603 4 0.388747 0.293844 0.471624
2548 2 0.0214472 0.415506 0.467274
603 4 0.284049 0.401743 0.472465
601 2 0.306244 0.411256 0.463332
1173 4 0.430234 0.395049 0.468719
2108 4 0.449803 0.403116 0.465392
1171 2 0.414313 0.409644 0.47921
2109 4 0.497611 0.413967 0.451251
2107 2 0.473707 0.408541 0.458321
4042 2 0.00363233 0.47799 0.479982
4044 4 0.0264642 0.478421 0.490261
2550 4 0.0452261 0.425797 0.465958
3962 4 0.211897 0.485489 0.4189
3961 2 0.236309 0.493317 0.421253
1028 4 0.387762 0.426234 0.473271
1029 4 0.341139 0.435869 0.4613
1149 4 0.0300299 0.348854 0.00237957
423 4 0.0955177 0.365382 0.00131992
3023 4 0.0105266 0.0362862 0.57031
3022 2 0.034661 0.0449471 0.573269
3024 4 0.0587955 0.0536081 0.576228
3851 4 0.188185 0.0753369 0.511803
3326 4 0.20531 0.0786016 0.501205
3325 2 0.230435 0.0810944 0.500785
944 4 0.29448 0.0111599 0.564056
943 2 0.306764 0.0265398 0.547529
945 4 0.319049 0.0419197 0.531002
3033 4 0.337511 0.0514867 0.529038
3031 2 0.361264 0.0482257 0.523145
3032 4 0.385017 0.0449646 0.517252
1968 4 0.464182 0.0152304 0.57683
1966 2 0.475214 0.0105565 0.555126
1967 4 0.486247 0.00588266 0.533421
1263 4 0.00519478 0.105327 0.553179
1261 2 0.0275636 0.116327 0.560378
1143 4 0.0637414 0.160498 0.538086
1262 4 0.0499324 0.127328 0.567577
3308 4 0.0681413 0.138457 0.564028
1141 2 0.0777965 0.149005 0.521902
3307 2 0.0884749 0.128783 0.572852
1142 4 0.0918515 0.137512 0.505718
2502 4 0.110914 0.135799 0.514576
3309 4 0.108808 0.119109 0.581675
2997 4 0.10609 0.0989926 0.582957
2500 2 0.13307 0.14902 0.518617
2501 4 0.155227 0.162241 0.522657
898 2 0.191471 0.160758 0.530119
3850 2 0.169009 0.0872837 0.503591
899 4 0.212648 0.150142 0.525886
641 4 0.23037 0.156395 0.532423
640 2 0.250154 0.155684 0.517243
725 4 0.00898974 0.174193 0.516032
8 3 0.0308266 0.179624 0.518678
9 3 0.0391107 0.202949 0.548088
6 1 0.0469961 0.194964 0.528108
10 3 0.0522159 0.212247 0.513694
7 3 0.0659783 0.184485 0.532365
368 4 0.0714655 0.211258 0.505852
917 4 0.0778249 0.175951 0.549282
916 2 0.0992864 0.186234 0.559378
3265 2 0.106902 0.240681 0.577914
918 4 0.120748 0.196517 0.569475
1211 4 0.144591 0.20302 0.576865
1210 2 0.16825 0.211111 0.582999
3266 4 0.129589 0.249522 0.56945
900 4 0.170295 0.171374 0.534351
411 4 0.270563 0.239554 0.511877
3081 4 0.017963 0.266434 0.51932
267 4 0.0354178 0.33533 0.517136
3498 4 0.0381932 0.266276 0.521874
890 4 0.0546595 0.331782 0.516838
889 2 0.0777999 0.328291 0.524663
3496 2 0.0591028 0.267428 0.508038
891 4 0.10094 0.324801 0.532489
1239 4 0.120325 0.324631 0.53862
1237 2 0.14325 0.324246 0.528735
3111 4 0.149976 0.254548 0.564538
1238 4 0.166175 0.323862 0.51885
3109 2 0.172512 0.26369 0.555929
804 4 0.184748 0.324459 0.524545
3110 4 0.195047 0.272832 0.547319
2813 4 0.214561 0.277463 0.54679
2812 2 0.23781 0.28172 0.537507
2963 4 0.281347 0.289573 0.523984
2814 4 0.261059 0.285976 0.528225
2962 2 0.305131 0.289009 0.516468
2964 4 0.328915 0.288445 0.508952
1135 2 0.0107725 0.380324 0.54149
1137 4 0.0254924 0.361845 0.544526
540 4 0.0451046 0.365993 0.539846
538 2 0.0662808 0.379918 0.546162
539 4 0.087457 0.393844 0.552477
2243 4 0.102004 0.396999 0.539358
2242 2 0.120168 0.406648 0.523987
2244 4 0.138333 0.416297 0.508616
802 2 0.20533 0.340732 0.525582
803 4 0.225913 0.357005 0.526619
4059 4 0.123323 0.486691 0.532091
4057 2 0.104636 0.495146 0.518968
4538 4 0.126983 0.496993 0.549462
2629 2 0.198154 0.486482 0.509552
2630 4 0.199455 0.461785 0.508539
4130 4 0.204476 0.442311 0.508504
4129 2 0.229272 0.442192 0.511621
4131 4 0.254068 0.442073 0.514739
2129 4 0.415321 0.435649 0.563748
2995 2 0.0922277 0.0768857 0.583795
2996 4 0.078365 0.0547787 0.584634
952 2 0.392859 0.0129591 0.65102
1164 4 0.417586 0.0126738 0.629193
954 4 0.411496 3.3537e-05 0.643217
1163 4 0.450951 0.0181108 0.591857
1162 2 0.434269 0.0153923 0.610525
1130 4 0.128611 0.167523 0.604242
3207 4 0.401463 0.141631 0.661771
1076 4 0.0161286 0.215549 0.600219
1075 2 0.0402624 0.222108 0.594655
3267 4 0.0842145 0.23184 0.586378
1077 4 0.0643962 0.228667 0.589092
1129 2 0.149383 0.170063 0.618305
1131 4 0.170155 0.172604 0.632367
1212 4 0.191908 0.219202 0.589133
858 4 0.183725 0.183093 0.620086
1259 4 0.212125 0.223146 0.588656
856 2 0.207525 0.191727 0.625043
1258 2 0.235401 0.233962 0.592607
857 4 0.231324 0.20036 0.630001
1260 4 0.258677 0.244778 0.596559
2318 4 0.250163 0.204246 0.632615
2317 2 0.272086 0.196589 0.625421
3038 4 0.279866 0.251541 0.592818
951 4 0.353822 0.213216 0.592889
2319 4 0.294009 0.188931 0.618227
950 4 0.308726 0.190353 0.604944
949 2 0.331274 0.201785 0.598917
3382 2 0.023372 0.290926 0.597594
782 4 0.481128 0.465756 0.939002
3384 4 0.0471698 0.288431 0.603972
3107 4 0.0652975 0.293226 0.595367
3106 2 0.0901964 0.297697 0.592665
3108 4 0.115095 0.302168 0.589963
3165 4 0.126741 0.305127 0.605486
3163 2 0.14848 0.30053 0.616034
3164 4 0.170219 0.295933 0.626582
1083 4 0.183975 0.294221 0.64211
1081 2 0.19985 0.278845 0.651361
1082 4 0.215725 0.26347 0.660612
2972 4 0.263718 0.321651 0.644339
3037 2 0.304063 0.255513 0.599374
3039 4 0.32826 0.259486 0.60593
3386 4 0.347492 0.26733 0.606675
3385 2 0.371942 0.267816 0.612108
3387 4 0.396392 0.268301 0.617541
384 4 0.411875 0.265422 0.630384
382 2 0.433076 0.274284 0.641956
383 4 0.454278 0.283147 0.653529
774 4 0.0444195 0.354457 0.616106
772 2 0.068399 0.360883 0.609838
773 4 0.0923784 0.367308 0.603571
1205 4 0.112441 0.370096 0.60071
1204 2 0.136192 0.368376 0.607776
1206 4 0.159943 0.366655 0.614841
1139 4 0.175328 0.356328 0.616514
1138 2 0.19777 0.368274 0.622085
1140 4 0.220212 0.38022 0.627656
798 4 0.227587 0.389638 0.645
796 2 0.248865 0.380695 0.652323
797 4 0.270142 0.371752 0.659645
2971 2 0.280342 0.339589 0.635201
2973 4 0.296966 0.357527 0.626063
3435 4 0.311212 0.365588 0.613568
3433 2 0.331971 0.354024 0.616906
3434 4 0.352731 0.34246 0.620244
998 4 0.488389 0.375262 0.661099
3491 4 0.0559901 0.466882 0.610918
3490 2 0.0734992 0.485911 0.606496
993 4 0.196144 0.415917 0.647048
991 2 0.213018 0.423467 0.664609
2128 2 0.420802 0.442278 0.58737
2130 4 0.426282 0.448908 0.610993
1983 4 0.430238 0.450102 0.630721
1981 2 0.450062 0.467146 0.628196
1982 4 0.469886 0.484189 0.625671
2171 4 0.487186 0.489623 0.617279
3126 4 0.062955 0.0419184 0.711492
3124 2 0.0629613 0.0667924 0.710937
3131 4 0.184712 0.0173202 0.745003
3083 4 0.199349 0.0318335 0.743668
3082 2 0.218924 0.0492032 0.741367
3084 4 0.238498 0.066573 0.739065
3484 2 0.49616 0.172656 0.81728
953 4 0.374221 0.0258847 0.658823
2307 4 0.45243 0.048004 0.680854
2305 2 0.477375 0.0517344 0.68359
3125 4 0.0629676 0.0916663 0.710383
3205 2 0.42058 0.140951 0.677792
3206 4 0.439697 0.140271 0.693812
3020 4 0.451272 0.136148 0.708966
3019 2 0.474798 0.138176 0.700186
3021 4 0.498325 0.140204 0.691406
3349 2 0.0160605 0.205363 0.697523
3350 4 0.0410411 0.208846 0.695013
779 4 0.0577623 0.202863 0.7022
778 2 0.0790885 0.216852 0.707891
780 4 0.100415 0.230842 0.713582
1010 4 0.486708 0.204904 0.729316
2978 4 0.484508 0.207231 0.749061
3221 4 0.26002 0.283881 0.667691
3220 2 0.279358 0.285855 0.683658
3222 4 0.298696 0.287829 0.699624
1307 4 0.307123 0.301692 0.70892
1306 2 0.321205 0.29041 0.725246
1308 4 0.335286 0.279127 0.741573
3227 4 0.354249 0.285358 0.738855
1299 4 0.407313 0.254852 0.700842
1297 2 0.432142 0.254141 0.698692
1298 4 0.456972 0.253429 0.696543
1068 4 0.469112 0.264958 0.707677
1066 2 0.47638 0.272099 0.730725
3275 4 0.00327498 0.408012 0.71505
3274 2 0.0260696 0.400193 0.717911
3276 4 0.0488642 0.392374 0.720772
4494 4 0.0660398 0.403384 0.71559
999 4 0.485463 0.38542 0.709905
997 2 0.486926 0.380341 0.685502
1017 4 0.499217 0.384364 0.724174
4492 2 0.0827651 0.415996 0.730656
4493 4 0.0994904 0.428609 0.745722
1956 4 0.117028 0.435788 0.73462
1954 2 0.140518 0.43213 0.728084
1955 4 0.164007 0.428472 0.721547
992 4 0.229891 0.431018 0.682169
942 4 0.237338 0.438321 0.699113
940 2 0.259574 0.449297 0.706724
941 4 0.281809 0.460272 0.714335
1098 4 0.29311 0.445752 0.70761
1096 2 0.315605 0.43727 0.70473
1097 4 0.338101 0.428788 0.701849
1278 4 0.355108 0.422962 0.710527
1276 2 0.376068 0.438692 0.711908
1277 4 0.397028 0.454422 0.713289
821 4 0.417463 0.453969 0.710906
820 2 0.437577 0.449085 0.724205
822 4 0.457691 0.4442 0.737504
1235 4 0.475489 0.438079 0.741552
1234 2 0.497613 0.446531 0.731505
3410 4 0.0152114 0.00950083 0.820049
3409 2 0.0354663 0.00786959 0.834389
1994 4 0.0760304 0.0780412 0.823882
3765 4 0.062407 0.0726704 0.837919
1993 2 0.101038 0.0794968 0.826103
1995 4 0.126046 0.0809525 0.828324
3130 2 0.173753 0.0196075 0.767247
3132 4 0.162793 0.0218949 0.78949
4443 4 0.17006 0.0402821 0.797673
4441 2 0.187032 0.059102 0.804253
4442 4 0.204004 0.0779219 0.810833
2348 4 0.329136 0.025654 0.825698
2037 4 0.310353 0.0164083 0.824223
2035 2 0.288394 0.00520877 0.816131
2347 2 0.354246 0.027368 0.825164
1038 4 0.399261 0.032459 0.824224
2349 4 0.379357 0.0290821 0.824629
1036 2 0.423112 0.0393226 0.830665
3145 2 0.0164018 0.0912112 0.77776
3147 4 0.0319651 0.107605 0.790509
1146 4 0.048418 0.115166 0.80204
1144 2 0.0703656 0.111508 0.791367
1145 4 0.0923131 0.10785 0.780694
4346 4 0.213001 0.0844539 0.828571
736 2 0.0240801 0.23288 0.805791
3589 2 0.0308833 0.177207 0.789321
3591 4 0.00624847 0.179675 0.789325
737 4 0.0484835 0.240995 0.804129
948 4 0.0755322 0.180307 0.798031
3590 4 0.055518 0.17474 0.789318
946 2 0.0840457 0.181415 0.821554
2981 4 0.0680931 0.245143 0.809432
34 3 0.199993 0.188122 0.830053
1133 4 0.210905 0.182712 0.815012
1132 2 0.234358 0.179479 0.807985
869 4 0.230629 0.230569 0.825652
1134 4 0.257812 0.176246 0.800957
868 2 0.255541 0.236295 0.825534
870 4 0.280452 0.242021 0.825415
1091 4 0.265071 0.187703 0.815811
33 3 0.212085 0.225161 0.831527
1090 2 0.28786 0.19566 0.806969
1092 4 0.310649 0.203617 0.798128
863 4 0.299942 0.244966 0.820766
839 4 0.329299 0.200916 0.803105
838 2 0.35403 0.206051 0.806617
840 4 0.378761 0.211186 0.810129
57 3 0.398367 0.205433 0.809684
60 3 0.430377 0.221695 0.795355
56 1 0.416391 0.221076 0.813366
58 3 0.408545 0.241828 0.81642
3486 4 0.473924 0.179361 0.809828
2979 4 0.470932 0.180399 0.789831
2977 2 0.47772 0.193815 0.769446
2980 2 0.089626 0.258789 0.803755
188 3 0.112869 0.320951 0.820865
186 1 0.135905 0.320158 0.822724
2982 4 0.111159 0.272434 0.798077
190 3 0.144368 0.313299 0.803029
862 2 0.324432 0.251334 0.824727
864 4 0.348921 0.257701 0.828688
3226 2 0.370544 0.298976 0.753576
1692 4 0.367594 0.266862 0.831982
3228 4 0.386839 0.312595 0.768297
1690 2 0.391813 0.272608 0.826229
3035 4 0.401256 0.32965 0.822803
3036 4 0.402297 0.325673 0.772976
3034 2 0.401776 0.327661 0.797889
1209 4 0.437147 0.277121 0.817053
1691 4 0.416032 0.278354 0.820476
1207 2 0.462054 0.28199 0.81932
1208 4 0.486961 0.286859 0.821587
1067 4 0.483649 0.279241 0.753773
189 3 0.146214 0.341104 0.828399
1288 2 0.484131 0.459761 0.834066
3069 4 0.0137316 0.0801061 0.892117
3764 4 0.0137641 0.0553457 0.838035