ITEM: TIMESTEP
2520000
ITEM: NUMBER OF ATOMS
4590
ITEM: BOX BOUNDS xy xz yz pp pp pp
-9.9985700000000008e+00 1.7997426000000019e+01 7.9988560000000177e+00
-9.9985700000000008e+00 9.9985700000000008e+00 0.0000000000000000e+00
-9.9985700000000008e+00 9.9985700000000008e+00 0.0000000000000000e+00
ITEM: ATOMS id type xs ys zs
1823 4 0.0598327 0.0726135 0.0430082
3466 2 0.141602 0.0157673 0.0750115
3467 4 0.163795 0.0122836 0.06158
2144 4 0.184186 0.00343416 0.0502884
3068 4 0.484956 0.0248376 0.0248021
3284 4 0.00974492 0.0981026 0.0310165
3283 2 0.00439899 0.103728 0.0068517
1824 4 0.0921579 0.0959515 0.0281576
1822 2 0.0759953 0.0842825 0.0355829
3048 4 0.112761 0.0862814 0.0239357
3046 2 0.128493 0.0994276 0.0205053
3047 4 0.144225 0.112574 0.0170748
1761 4 0.162118 0.112066 0.025943
1759 2 0.178445 0.111003 0.0452086
1760 4 0.194772 0.10994 0.0644742
393 4 0.214983 0.104493 0.0710297
391 2 0.237846 0.096647 0.0842409
355 2 0.282832 0.111427 0.0840704
758 4 0.319193 0.111039 0.0618362
356 4 0.304245 0.11659 0.0771906
757 2 0.342871 0.107524 0.0726406
4121 4 0.454039 0.122268 0.0350401
4120 2 0.476549 0.105877 0.0249428
4122 4 0.49906 0.089485 0.0148454
3198 4 0.000598272 0.234402 0.0173759
2876 4 0.0166842 0.241344 0.0199201
3242 4 0.00546787 0.176458 0.0863401
102 3 0.126524 0.230871 0.00970019
101 1 0.128707 0.246017 0.0249252
914 4 0.163601 0.244588 0.0389147
105 3 0.1492 0.236181 0.037079
2875 2 0.0325016 0.250327 0.032871
2877 4 0.048319 0.259311 0.0458219
2650 2 0.0521104 0.279461 0.0817658
2652 4 0.0523297 0.273959 0.0574558
104 3 0.108809 0.252678 0.0389615
103 3 0.129789 0.264352 0.013462
2829 4 0.0690589 0.332009 0.0131796
913 2 0.180124 0.254075 0.0499769
915 4 0.196647 0.263562 0.0610392
845 4 0.199422 0.273607 0.0788762
108 3 0.213503 0.264 0.0504561
109 3 0.220671 0.289936 0.0289149
106 1 0.229933 0.273882 0.0454259
4547 4 0.227151 0.280667 0.0106339
107 3 0.234069 0.284054 0.0643559
110 3 0.251056 0.258051 0.038408
1104 4 0.270377 0.255108 0.0460666
1103 4 0.320973 0.252928 0.050913
1102 2 0.295675 0.254018 0.0484898
294 4 0.33549 0.261442 0.0425503
292 2 0.358576 0.262243 0.0337939
293 4 0.381662 0.263045 0.0250374
2727 4 0.356174 0.318361 0.0600104
2725 2 0.379 0.300907 0.0683456
3338 4 0.394804 0.268847 0.0149908
671 4 0.413836 0.295448 0.0791407
3337 2 0.420272 0.266161 0.0102049
2726 4 0.401827 0.283454 0.0766808
2747 4 0.363746 0.330599 0.0498416
670 2 0.433462 0.302515 0.0707064
2523 4 0.466807 0.256022 0.00317797
460 2 0.452943 0.323408 0.0194887
462 4 0.455237 0.315473 0.0431832
672 4 0.453088 0.309582 0.062272
2521 2 0.475423 0.268008 0.0205472
2522 4 0.484038 0.279995 0.0379164
2771 4 0.497187 0.288903 0.043027
2770 2 0.491232 0.295283 0.0669619
2827 2 0.0821221 0.345085 0.00224407
1551 4 0.171503 0.397093 0.0548965
3542 4 0.18667 0.394846 0.0687587
1549 2 0.184155 0.396839 0.0332728
1550 4 0.196806 0.396586 0.011649
3635 4 0.2173 0.393274 0.00638579
3634 2 0.230263 0.409149 0.00677342
252 4 0.30657 0.349229 0.0731125
2746 2 0.374736 0.347301 0.0440121
2748 4 0.385725 0.364004 0.0381826
597 4 0.35236 0.412808 0.0836593
2798 4 0.492585 0.35596 0.0768175
1871 4 0.129417 0.444682 0.0316182
1870 2 0.135568 0.46172 0.018702
1872 4 0.141718 0.478758 0.00578587
2582 4 0.193271 0.443383 0.0355727
1631 4 0.186705 0.473292 0.0697232
2581 2 0.201365 0.462416 0.0315415
1559 4 0.190815 0.491005 0.0737123
1630 2 0.180065 0.457226 0.083736
2583 4 0.209459 0.481448 0.0275102
3636 4 0.243227 0.425024 0.00716105
4187 4 0.250147 0.42563 0.0255703
902 4 0.224755 0.490163 0.035321
134 3 0.245198 0.490833 0.0376116
4186 2 0.258538 0.432962 0.0466224
4188 4 0.26693 0.440295 0.0676745
131 1 0.26925 0.482908 0.0439004
135 3 0.27253 0.469984 0.0625568
132 3 0.282938 0.470236 0.0267463
3341 4 0.300564 0.464365 0.016446
4211 4 0.285187 0.475863 0.0735014
3340 2 0.322659 0.470011 0.0159963
3342 4 0.344754 0.475657 0.0155466
3194 4 0.366169 0.468009 0.0145488
72 3 0.418984 0.450992 0.0755167
73 3 0.422974 0.480982 0.0594613
71 1 0.434057 0.462599 0.0731204
3390 4 0.404906 0.438873 0.0821385
75 3 0.45514 0.44897 0.0637099
648 4 0.472646 0.435731 0.0521121
646 2 0.491461 0.444966 0.0463461
3468 4 0.119409 0.0192511 0.0884431
3808 2 0.108286 0.0152695 0.155114
255 4 0.23843 0.0303641 0.159752
2744 4 0.423806 0.0733553 0.137855
2743 2 0.44293 0.0626853 0.154903
3241 2 0.0104126 0.153407 0.0950314
3243 4 0.0153573 0.130356 0.103723
2615 4 0.187607 0.119371 0.144869
2614 2 0.186275 0.141787 0.152894
392 4 0.260709 0.0888005 0.0974521
357 4 0.261419 0.106264 0.0909502
759 4 0.36655 0.10401 0.0834451
2518 2 0.432571 0.127355 0.163148
2519 4 0.450605 0.135356 0.152648
522 4 0.466 0.133604 0.13962
520 2 0.480471 0.146291 0.130554
521 4 0.494943 0.158978 0.121489
743 4 0.0348088 0.215574 0.147893
742 2 0.05737 0.220103 0.14463
744 4 0.0799312 0.224632 0.141368
2600 4 0.0965915 0.214026 0.129914
2599 2 0.112698 0.225627 0.122158
2601 4 0.128805 0.237229 0.114402
2616 4 0.184944 0.164204 0.160919
450 4 0.148598 0.231323 0.109055
835 2 0.368487 0.205094 0.162816
836 4 0.392117 0.207002 0.157666
2976 4 0.413991 0.205093 0.151904
2974 2 0.436753 0.20849 0.146257
2975 4 0.459514 0.211886 0.140611
653 4 0.477276 0.216459 0.13853
526 2 0.0216052 0.267197 0.122074
527 4 0.0350692 0.281414 0.11457
2092 2 0.00732166 0.322971 0.122077
528 4 0.00814123 0.25298 0.129579
2093 4 0.030221 0.32714 0.124136
2651 4 0.0518911 0.284963 0.106076
448 2 0.147227 0.254942 0.110515
449 4 0.145855 0.278561 0.111975
844 2 0.201217 0.292681 0.0920127
846 4 0.203012 0.311755 0.105149
518 4 0.25862 0.311111 0.156601
351 4 0.390058 0.265056 0.159084
286 2 0.375604 0.326593 0.132637
349 2 0.411751 0.26775 0.149114
287 4 0.357754 0.32046 0.119395
288 4 0.393454 0.332726 0.145879
414 4 0.372793 0.268065 0.170458
350 4 0.433445 0.270443 0.139144
524 4 0.445229 0.277678 0.127944
523 2 0.461583 0.287919 0.117842
525 4 0.477938 0.29816 0.10774
2772 4 0.485278 0.301664 0.0908969
3704 4 0.0238904 0.370084 0.160274
303 4 0.0403373 0.377721 0.164421
3541 2 0.207125 0.394347 0.0834095
3543 4 0.22758 0.393847 0.0980604
1467 4 0.29816 0.39406 0.0891028
1465 2 0.272832 0.395042 0.0906671
1466 4 0.247503 0.396024 0.0922314
250 2 0.327972 0.338877 0.0879466
596 4 0.306928 0.404346 0.0768701
595 2 0.329644 0.408577 0.0802647
251 4 0.349374 0.328525 0.102781
713 4 0.401746 0.341875 0.158261
3389 4 0.369075 0.416908 0.087396
2797 2 0.489881 0.370678 0.096778
2799 4 0.487177 0.385396 0.116739
612 4 0.469789 0.383589 0.125267
610 2 0.471706 0.381571 0.150165
3551 4 0.00414251 0.437034 0.137989
3819 4 0.0221518 0.442879 0.1385
3817 2 0.0407443 0.45225 0.132317
3818 4 0.0593367 0.461622 0.126133
677 4 0.076633 0.46562 0.132762
676 2 0.100163 0.468707 0.13123
678 4 0.123694 0.471794 0.129698
1632 4 0.173426 0.441161 0.0977488
315 4 0.135604 0.480797 0.138308
313 2 0.157972 0.486002 0.138851
314 4 0.18034 0.491206 0.139394
3102 4 0.199741 0.493339 0.140616
3100 2 0.221005 0.494197 0.128063
3101 4 0.242269 0.495056 0.11551
4210 2 0.307885 0.474396 0.0850818
4212 4 0.330583 0.472929 0.0966622
2919 4 0.33966 0.478646 0.113652
2917 2 0.34502 0.494545 0.128984
3388 2 0.38699 0.42789 0.0847673
3000 4 0.415958 0.441301 0.1009
2998 2 0.436248 0.429022 0.116324
1710 4 0.444588 0.499425 0.0980733
74 3 0.438426 0.469605 0.0940464
3670 2 0.434982 0.495195 0.129186
3671 4 0.441194 0.483188 0.1073
2999 4 0.456539 0.416742 0.131747
2913 4 0.4702 0.425557 0.138304
2911 2 0.493409 0.428738 0.142274
3809 4 0.116594 0.0268482 0.173104
254 4 0.249484 0.0486252 0.202533
253 2 0.243957 0.0394946 0.181143
632 4 0.264695 0.0374241 0.213613
631 2 0.277864 0.0418819 0.233151
633 4 0.291033 0.0463397 0.25269
2927 4 0.00257394 0.429776 0.474116
2730 4 0.00295286 0.314208 0.198293
2738 4 0.408945 0.00708951 0.232367
2737 2 0.432036 0.0109746 0.23073
2739 4 0.455128 0.0148597 0.229093
1347 4 0.472952 0.0186288 0.223872
2745 4 0.462054 0.0520153 0.171951
1345 2 0.490399 0.0302126 0.225734
2880 4 0.0296173 0.09822 0.237366
605 4 0.043592 0.10512 0.227731
604 2 0.0637051 0.110469 0.237801
606 4 0.0838181 0.115818 0.24787
4352 4 0.126329 0.0946784 0.202484
4351 2 0.15196 0.0919399 0.198522
4353 4 0.17759 0.0892015 0.194559
749 4 0.194785 0.093641 0.190267
748 2 0.213112 0.104272 0.191791
750 4 0.231439 0.114904 0.193316
1479 4 0.245391 0.122382 0.188363
1477 2 0.27033 0.121458 0.192905
1478 4 0.29527 0.120535 0.197447
2778 4 0.31258 0.126925 0.197196
2776 2 0.329881 0.138556 0.200016
2777 4 0.347182 0.150188 0.202836
2931 4 0.386862 0.11078 0.220942
2453 4 0.365618 0.154812 0.204699
419 4 0.391246 0.125584 0.228565
2929 2 0.402265 0.105524 0.200432
2930 4 0.417668 0.100269 0.179922
2452 2 0.384868 0.164288 0.202574
2520 4 0.414537 0.119353 0.173648
387 4 0.0342917 0.165871 0.188645
578 4 0.0200197 0.185186 0.190363
385 2 0.0548004 0.172431 0.195504
386 4 0.0753091 0.17899 0.202364
535 2 0.124149 0.196785 0.248454
537 4 0.147465 0.200023 0.245456
509 4 0.160023 0.210378 0.242687
2517 4 0.170569 0.173337 0.174981
2515 2 0.183245 0.188631 0.181157
508 2 0.181186 0.215289 0.234548
510 4 0.202348 0.220199 0.226409
2516 4 0.19592 0.203925 0.187332
1200 4 0.21722 0.227159 0.217147
731 4 0.243777 0.170364 0.235559
730 2 0.260746 0.175806 0.220426
1198 2 0.2368 0.231793 0.205132
1199 4 0.256379 0.236426 0.193117
732 4 0.277715 0.181248 0.205294
2478 4 0.288194 0.185057 0.190663
2463 4 0.267518 0.247786 0.196112
2476 2 0.30804 0.191967 0.182525
837 4 0.344857 0.203186 0.167967
2477 4 0.327886 0.198876 0.174387
2454 4 0.404119 0.173763 0.20045
2951 4 0.419654 0.183391 0.201653
2950 2 0.439453 0.191591 0.206685
2952 4 0.459252 0.19979 0.211718
476 4 0.467321 0.212327 0.204187
2672 4 0.457878 0.224592 0.246805
475 2 0.482118 0.226498 0.201835
2752 2 0.0221872 0.303499 0.234965
2753 4 0.00918145 0.30401 0.213493
1394 4 0.0981163 0.257755 0.249043
1393 2 0.114313 0.270023 0.243631
1395 4 0.13051 0.282292 0.238219
275 4 0.23733 0.266445 0.241345
274 2 0.264031 0.256563 0.244519
2461 2 0.287546 0.252965 0.185624
517 2 0.276879 0.316745 0.169742
519 4 0.295139 0.322378 0.182883
2462 4 0.307574 0.258145 0.175136
2902 2 0.318667 0.323899 0.213748
1219 2 0.315631 0.271165 0.248408
2903 4 0.306943 0.330302 0.191382
412 2 0.349346 0.265116 0.173629
413 4 0.3259 0.262167 0.1768
2904 4 0.330392 0.317497 0.236114
1221 4 0.322724 0.290976 0.245727
301 2 0.0649412 0.377057 0.170112
302 4 0.0895452 0.376394 0.175803
1664 4 0.108403 0.375757 0.173229
1663 2 0.128251 0.381616 0.183148
3404 4 0.166346 0.344536 0.220872
1665 4 0.148099 0.387476 0.193066
3830 4 0.161064 0.394843 0.183173
3403 2 0.184434 0.345506 0.204053
3405 4 0.202522 0.346476 0.187234
3829 2 0.182853 0.400858 0.185069
3695 4 0.210195 0.349919 0.205317
3831 4 0.204642 0.406874 0.186966
3694 2 0.232842 0.354293 0.202016
4005 4 0.221898 0.409529 0.179626
3696 4 0.255488 0.358667 0.198715
4003 2 0.244067 0.408817 0.191699
4004 4 0.266236 0.408105 0.203772
712 2 0.412257 0.35597 0.171135
3449 4 0.428782 0.384864 0.190657
714 4 0.422768 0.370065 0.184009
3448 2 0.444916 0.395328 0.200796
3450 4 0.461051 0.405791 0.210934
611 4 0.473623 0.379552 0.175062
2874 4 0.475844 0.409586 0.223388
645 4 0.157814 0.475387 0.246431
643 2 0.162568 0.463537 0.224414
644 4 0.167322 0.451687 0.202396
753 4 0.186068 0.452997 0.192155
751 2 0.20517 0.462041 0.186939
500 4 0.163688 0.492218 0.246346
1856 4 0.278717 0.419221 0.204627
752 4 0.224272 0.471086 0.181722
1855 2 0.289343 0.427277 0.223823
1857 4 0.299969 0.435333 0.243019
2872 2 0.494232 0.418633 0.231072
3926 4 0.305928 0.0377053 0.267154
3925 2 0.313257 0.0477352 0.287053
3927 4 0.320586 0.057765 0.306952
3698 4 0.331029 0.0642495 0.292839
3697 2 0.347024 0.0741758 0.304152
545 4 0.378724 0.0693784 0.324271
2115 4 0.436503 0.0101736 0.320004
544 2 0.402596 0.0706673 0.329638
1128 4 0.428388 0.00740251 0.336612
3721 2 0.489484 0.0525953 0.28827
249 4 0.438789 0.0756473 0.321511
2113 2 0.456571 0.0163488 0.328898
3723 4 0.4685 0.0705814 0.298832
2878 2 0.00779962 0.10244 0.251585
405 4 0.05218 0.159858 0.278478
403 2 0.0688144 0.137317 0.286162
404 4 0.0854487 0.114776 0.293846
591 4 0.104465 0.105897 0.304837
30 3 0.0626062 0.171093 0.273353
589 2 0.117668 0.119012 0.315458
590 4 0.13087 0.132128 0.326079
2850 4 0.177239 0.165412 0.336784
3699 4 0.36302 0.0841021 0.315466
418 2 0.393445 0.129045 0.253067
420 4 0.395644 0.132506 0.277569
257 4 0.400099 0.127633 0.297035
256 2 0.426801 0.116024 0.298991
258 4 0.453503 0.104416 0.300947
515 4 0.472239 0.104618 0.294731
514 2 0.485065 0.116804 0.281949
516 4 0.497892 0.128989 0.269167
28 3 0.0494985 0.208099 0.266618
26 1 0.0695305 0.18881 0.270445
29 3 0.0853462 0.184807 0.252547
536 4 0.100833 0.193546 0.251452
27 3 0.0809943 0.191693 0.289462
726 4 0.0842256 0.207743 0.295166
724 2 0.103965 0.215519 0.301693
725 4 0.123704 0.223295 0.30822
1031 4 0.137438 0.232186 0.314666
1030 2 0.161182 0.234168 0.310288
1032 4 0.184927 0.23615 0.305909
2180 4 0.29259 0.211627 0.295206
276 4 0.290731 0.246681 0.247692
2179 2 0.318184 0.205634 0.28805
2181 4 0.343778 0.199641 0.280894
2790 4 0.345091 0.203893 0.261489
2788 2 0.371397 0.197299 0.256851
2789 4 0.397703 0.190704 0.252213
2673 4 0.44772 0.225646 0.295844
2954 4 0.449508 0.202785 0.316733
2671 2 0.452799 0.225119 0.271324
1056 4 0.423875 0.250557 0.329341
179 3 0.49635 0.169831 0.295036
2953 2 0.474893 0.200262 0.321694
4251 4 0.444464 0.425701 0.46524
177 3 0.488849 0.198982 0.271678
1953 4 0.494763 0.218097 0.324349
2754 4 0.035193 0.302989 0.256437
2787 4 0.175169 0.249201 0.290083
2785 2 0.179642 0.259266 0.26883
2786 4 0.184115 0.26933 0.247577
2680 2 0.244193 0.324162 0.295777
2682 4 0.264861 0.318424 0.279817
1220 4 0.308538 0.251353 0.251088
2541 4 0.312605 0.328856 0.248737
2540 4 0.284113 0.318344 0.285084
2539 2 0.298359 0.3236 0.266911
1054 2 0.444198 0.258776 0.328967
1055 4 0.464521 0.266996 0.328593
300 4 0.480257 0.273959 0.324363
298 2 0.488628 0.290848 0.31382
299 4 0.496998 0.307736 0.303277
1187 4 0.110334 0.407058 0.255751
1186 2 0.129859 0.413363 0.265718
2681 4 0.223526 0.329901 0.311736
1188 4 0.149385 0.419668 0.275685
344 4 0.202165 0.337138 0.318205
375 4 0.306441 0.397766 0.300894
373 2 0.303753 0.412503 0.280951
667 2 0.362236 0.392347 0.330626
668 4 0.386683 0.393095 0.327125
669 4 0.337789 0.391598 0.334126
1435 2 0.426678 0.403303 0.327785
1436 4 0.405692 0.39611 0.325779
1437 4 0.447664 0.410495 0.32979
681 4 0.465565 0.415421 0.328014
4032 4 0.060597 0.469129 0.315365
4030 2 0.0870683 0.455829 0.316321
4031 4 0.11354 0.442529 0.317277
3959 4 0.122933 0.455429 0.321812
3958 2 0.135956 0.471237 0.320825
1802 4 0.158905 0.427366 0.288854
1801 2 0.182483 0.428532 0.295613
4574 4 0.163866 0.493893 0.329364
3960 4 0.14898 0.487046 0.319839
1803 4 0.206061 0.429698 0.302372
1578 4 0.261661 0.494953 0.298546
374 4 0.301065 0.42724 0.261008
679 2 0.489003 0.418671 0.326379
477 4 0.496915 0.240669 0.199482
2457 4 0.15752 0.0145909 0.400477
1496 4 0.199835 0.0644808 0.370643
686 4 0.205097 0.0718362 0.387282
1495 2 0.210418 0.0467051 0.353405
1497 4 0.221 0.0289294 0.336167
1059 4 0.273285 0.0177701 0.383416
618 4 0.282431 0.0216333 0.36647
1057 2 0.25599 0.00689071 0.377231
616 2 0.305264 0.0230823 0.375127
617 4 0.328097 0.0245313 0.383783
708 4 0.335669 0.00868568 0.37296
546 4 0.426467 0.0719563 0.335004
2114 4 0.476638 0.022524 0.337793
247 2 0.457248 0.0801315 0.335471
4308 4 0.49638 0.0807623 0.358509
473 4 0.0216951 0.135722 0.382368
369 4 0.0400174 0.137738 0.376122
367 2 0.0633931 0.140458 0.371724
368 4 0.0867687 0.143178 0.367326
2492 4 0.0848606 0.161559 0.366724
2491 2 0.106798 0.16024 0.353875
2848 2 0.160307 0.15324 0.33545
2849 4 0.143375 0.141069 0.334117
2493 4 0.128734 0.158921 0.341026
685 2 0.207202 0.0942037 0.385623
3571 2 0.20732 0.144426 0.365641
687 4 0.209307 0.116571 0.383965
3573 4 0.216815 0.131676 0.386695
3572 4 0.197825 0.157175 0.344586
248 4 0.475708 0.0846156 0.349431
1190 4 0.492408 0.140309 0.33996
2483 4 0.143503 0.194551 0.409626
2482 2 0.168409 0.18664 0.400145
2484 4 0.193315 0.178728 0.390664
8 3 0.203611 0.185135 0.377305
9 3 0.201077 0.212853 0.352749
6 1 0.20778 0.204746 0.374213
641 4 0.197085 0.212462 0.407886
7 3 0.19417 0.220428 0.389358
872 4 0.18635 0.250081 0.398032
10 3 0.231516 0.200878 0.377576
2957 4 0.242481 0.206563 0.362885
2956 2 0.264217 0.210845 0.355334
2958 4 0.285953 0.215128 0.347783
873 4 0.236026 0.250847 0.396657
871 2 0.211188 0.250464 0.397344
2510 4 0.25044 0.249859 0.410113
2654 4 0.303127 0.217582 0.340083
2653 2 0.326707 0.220638 0.339238
2655 4 0.350286 0.223695 0.338393
2526 4 0.362797 0.235488 0.33729
2525 4 0.408406 0.244263 0.333961
2524 2 0.385602 0.239875 0.335626
2822 4 0.479071 0.216764 0.392969
2821 2 0.499546 0.22464 0.390728
3080 4 0.166411 0.261456 0.402432
2597 4 0.128162 0.308539 0.38365
2596 2 0.151752 0.304108 0.37227
2598 4 0.175343 0.299677 0.360891
345 4 0.185271 0.309444 0.34905
3079 2 0.148709 0.252246 0.411544
343 2 0.193718 0.323291 0.333627
1028 4 0.245884 0.323847 0.392879
1027 2 0.235084 0.322316 0.415074
2711 4 0.245654 0.329713 0.374133
2710 2 0.272377 0.323311 0.37353
2712 4 0.2991 0.316908 0.372926
372 4 0.0162008 0.338366 0.3624
370 2 0.0359176 0.347133 0.365392
371 4 0.0556344 0.355901 0.368384
2613 4 0.0750553 0.358941 0.361643
2611 2 0.0970362 0.364771 0.361349
2612 4 0.119017 0.370601 0.361055
261 4 0.139446 0.369466 0.356764
259 2 0.163458 0.371695 0.356695
260 4 0.18747 0.373925 0.356626
594 4 0.206441 0.37622 0.353854
592 2 0.229096 0.378658 0.346056
593 4 0.251752 0.381096 0.338258
3318 4 0.27176 0.380861 0.337865
3316 2 0.294852 0.384815 0.338738
3317 4 0.317944 0.388769 0.339611
266 4 0.462272 0.386437 0.409183
811 2 0.495963 0.396922 0.389416
813 4 0.479761 0.385383 0.397073
4321 2 0.136223 0.428921 0.404897
4323 4 0.153289 0.433785 0.389401
447 4 0.161485 0.446657 0.382395
445 2 0.185152 0.448686 0.377715
4573 2 0.188602 0.491771 0.336438
446 4 0.208818 0.450715 0.373035
4575 4 0.213339 0.48965 0.343512
3703 2 0.0028135 0.36291 0.159742
4000 2 0.247109 0.500226 0.358982
602 4 0.319969 0.452088 0.384408
1337 4 0.33993 0.448626 0.386601
601 2 0.314736 0.451422 0.40879
1336 2 0.364147 0.434339 0.377729
1338 4 0.388365 0.420051 0.368857
2558 4 0.0121071 0.0202915 0.472225
2500 2 0.0131083 0.0829406 0.478232
217 3 0.0282859 0.026288 0.477392
2501 4 0.0398933 0.0726345 0.480553
3798 4 0.0502261 0.0107813 0.45343
216 1 0.0499609 0.0291194 0.47836
220 3 0.0647232 0.016714 0.461967
218 3 0.0458797 0.0515895 0.475288
219 3 0.0603048 0.0221344 0.499159
4341 4 0.0570771 0.0723199 0.489437
4339 2 0.081808 0.070986 0.495593
3395 4 0.175111 0.0472962 0.460726
3394 2 0.1925 0.0523044 0.475695
1182 4 0.187823 0.0290363 0.456745
1180 2 0.17027 0.0179014 0.452635
1181 4 0.152717 0.0067665 0.448525
3396 4 0.209888 0.0573126 0.490664
90 3 0.231895 0.04898 0.49199
3621 4 0.323891 0.0692484 0.496298
3619 2 0.340372 0.0808934 0.489759
2657 4 0.463928 0.0598079 0.469397
764 4 0.134569 0.152216 0.47867
763 2 0.158715 0.150199 0.487411
2684 4 0.194785 0.156209 0.488145
765 4 0.18286 0.148182 0.496152
3032 4 0.277122 0.149354 0.472119
3031 2 0.294435 0.130185 0.459286
3033 4 0.311748 0.111016 0.446453
945 4 0.329317 0.116452 0.449929
938 4 0.284063 0.165491 0.470809
3620 4 0.356852 0.0925383 0.483221
943 2 0.350841 0.122792 0.447457
944 4 0.372365 0.129132 0.444985
3327 4 0.394095 0.117786 0.443398
3325 2 0.411294 0.113517 0.462555
320 4 0.425263 0.120678 0.496853
3326 4 0.428493 0.109248 0.481712
2656 2 0.469784 0.079731 0.463302
2658 4 0.475639 0.0996542 0.457207
984 4 0.484268 0.114716 0.45877
2802 4 0.129772 0.167645 0.466004
2801 4 0.130698 0.195717 0.426444
2800 2 0.130235 0.181681 0.446224
3081 4 0.131007 0.243036 0.420655
2683 2 0.198748 0.173091 0.473132
640 2 0.202002 0.209556 0.432434
2685 4 0.202712 0.189972 0.458119
642 4 0.206919 0.206651 0.456983
2586 4 0.204427 0.24653 0.48165
2584 2 0.228468 0.240126 0.470569
2585 4 0.252509 0.233723 0.459488
939 4 0.2623 0.215443 0.469306
937 2 0.273181 0.190467 0.470058
2816 4 0.445647 0.203119 0.472304
2815 2 0.464941 0.200005 0.489327
3497 4 0.06879 0.294449 0.42178
3496 2 0.0890935 0.272214 0.422555
3498 4 0.109397 0.24998 0.42333
239 4 0.127431 0.284142 0.494498
238 2 0.145319 0.28393 0.476942
240 4 0.163206 0.283719 0.459386
2636 4 0.167473 0.299867 0.456515
2635 2 0.186746 0.308055 0.449462
2637 4 0.206019 0.316243 0.44241
1029 4 0.224284 0.320785 0.437268
2509 2 0.262937 0.260487 0.425335
2511 4 0.275434 0.271115 0.440558
3059 4 0.29329 0.272604 0.44628
3058 2 0.310784 0.278118 0.460656
408 4 0.325607 0.30289 0.476215
3060 4 0.328278 0.283633 0.475033
406 2 0.343903 0.309862 0.487705
311 4 0.437017 0.30911 0.451598
310 2 0.442291 0.32128 0.470943
3333 4 0.0133642 0.372154 0.470472
3331 2 0.0341164 0.356058 0.483169
3332 4 0.0548686 0.339962 0.495865
3456 4 0.244923 0.354622 0.47139
3454 2 0.265494 0.362407 0.469491
3455 4 0.286065 0.370192 0.467592
2561 4 0.288793 0.377835 0.450066
2560 2 0.312543 0.377751 0.442145
2562 4 0.336292 0.377667 0.434224
348 4 0.358881 0.37082 0.434422
1910 4 0.366465 0.372634 0.493396
346 2 0.381513 0.373306 0.426626
662 4 0.384793 0.377283 0.488402
312 4 0.447564 0.333451 0.490287
265 2 0.442138 0.380657 0.418562
347 4 0.404146 0.375792 0.41883
661 2 0.411269 0.371133 0.491657
267 4 0.422003 0.374877 0.42794
663 4 0.437745 0.364983 0.494912
4043 4 0.464667 0.395199 0.470576
4042 2 0.490449 0.387391 0.463447
2594 4 0.0235765 0.49859 0.47799
2926 2 0.0141385 0.437066 0.45508
2928 4 0.0257031 0.444355 0.436043
2648 4 0.0464857 0.433184 0.430646
652 2 0.499911 0.220833 0.141914
2647 2 0.0722406 0.431078 0.430309
4322 4 0.119158 0.424058 0.420393
2649 4 0.0979956 0.428972 0.429973
2742 4 0.329182 0.443077 0.441937
603 4 0.309502 0.450756 0.433172
2740 2 0.352129 0.443492 0.451465
4250 4 0.391269 0.451262 0.466188
2741 4 0.375076 0.443908 0.460993
4249 2 0.417867 0.438481 0.465714
3810 4 0.0999766 0.00369086 0.137123
2757 4 0.393003 0.000748809 0.238286
1576 2 0.284594 0.498728 0.29487
4001 4 0.271874 0.499435 0.36416
2593 2 0.0464122 0.500091 0.469405
575 4 0.278656 0.0487082 0.499328
407 4 0.362198 0.316834 0.499196
1909 2 0.344457 0.36798 0.499207
2640 4 0.169672 0.331659 0.00228877
3339 4 0.445741 0.263475 0.00541899
4340 4 0.106539 0.069652 0.501749
4551 4 0.125322 0.0724612 0.50326
2489 4 0.176029 0.0371976 0.560722
918 4 0.164961 0.0304047 0.576982
2488 2 0.198223 0.0337283 0.547296
4549 2 0.143865 0.0821154 0.508742
2490 4 0.220417 0.030259 0.53387
87 3 0.236574 0.0317469 0.52502
88 3 0.233912 0.0674552 0.52342
86 1 0.242355 0.0469743 0.512516
89 3 0.267201 0.0394528 0.510289
2139 4 0.278426 0.499961 0.64945
574 2 0.30003 0.0541626 0.505699
576 4 0.321403 0.0596169 0.512069
2244 4 0.0167992 0.103087 0.564587
806 4 0.0339215 0.108354 0.567116
805 2 0.0536119 0.116697 0.572147
4550 4 0.162407 0.0917695 0.514224
2504 4 0.170231 0.100581 0.527325
2505 4 0.223762 0.0872357 0.526893
2503 2 0.196996 0.0939081 0.527109
965 4 0.206469 0.147635 0.575901
2322 4 0.209483 0.153788 0.558375
2320 2 0.225448 0.157394 0.540792
2321 4 0.241414 0.161 0.523209
319 2 0.420734 0.133786 0.518132
321 4 0.416205 0.146894 0.539412
898 2 0.0474984 0.212313 0.57745
900 4 0.0647975 0.196277 0.561652
2603 4 0.192469 0.219731 0.550518
2602 2 0.211072 0.229016 0.556914
3237 4 0.249655 0.172191 0.53288
2604 4 0.229676 0.2383 0.56331
2964 4 0.247197 0.239828 0.555797
3235 2 0.27386 0.173753 0.530377
3236 4 0.298064 0.175314 0.527874
2962 2 0.268872 0.245178 0.561224
1284 4 0.306569 0.188416 0.534114
1282 2 0.325635 0.197452 0.528713
1283 4 0.3447 0.206489 0.523312
2817 4 0.484234 0.19689 0.506349
305 4 0.214247 0.266545 0.533759
304 2 0.218723 0.285595 0.52299
306 4 0.223199 0.304645 0.512222
2963 4 0.290546 0.250527 0.56665
1212 4 0.309252 0.253086 0.566838
1211 4 0.359151 0.253357 0.56684
1210 2 0.334201 0.253222 0.566839
2814 4 0.376929 0.257747 0.564929
802 2 0.384757 0.316224 0.526002
2812 2 0.399809 0.259915 0.572448
803 4 0.377006 0.323066 0.502482
804 4 0.392508 0.309382 0.549523
2813 4 0.42269 0.262083 0.579968
4331 4 0.229766 0.460286 0.941397
2550 4 0.0971544 0.36559 0.5563
2548 2 0.119792 0.368721 0.562983
2549 4 0.14243 0.371851 0.569666
2847 4 0.152247 0.360517 0.554714
2845 2 0.173792 0.359057 0.541162
2846 4 0.195338 0.357597 0.527611
3044 4 0.203392 0.366852 0.51388
3043 2 0.229752 0.359502 0.518639
3045 4 0.256113 0.352152 0.523397
1641 4 0.273306 0.338365 0.532299
1639 2 0.289494 0.349621 0.523905
1640 4 0.305681 0.360876 0.515511
1911 4 0.322449 0.363326 0.505018
4330 2 0.208588 0.453332 0.939746
1238 4 0.436067 0.36471 0.514327
1237 2 0.461868 0.356759 0.521418
1239 4 0.487669 0.348809 0.528509
891 4 0.486975 0.357186 0.546335
3453 4 0.122193 0.428567 0.501721
3451 2 0.146434 0.429488 0.506047
3452 4 0.170675 0.430408 0.510373
1698 4 0.189674 0.43041 0.520299
1696 2 0.213087 0.433761 0.521395
1697 4 0.236501 0.437112 0.52249
3975 4 0.250438 0.43913 0.508808
3973 2 0.26177 0.456 0.505103
3974 4 0.273102 0.47287 0.501398
3464 4 0.300489 0.442423 0.571143
2128 2 0.306148 0.489901 0.51028
3463 2 0.313469 0.457915 0.575321
797 4 0.347355 0.45984 0.578075
3465 4 0.326449 0.473407 0.579498
2130 4 0.290161 0.47681 0.508431
796 2 0.367117 0.460738 0.56326
798 4 0.38688 0.461636 0.548445
1136 4 0.40305 0.463495 0.55758
1135 2 0.428101 0.460873 0.564078
1137 4 0.453152 0.458251 0.570576
790 2 0.475244 0.479606 0.564496
792 4 0.48511 0.492189 0.548847
791 4 0.465377 0.467024 0.580144
3051 4 0.0142958 0.0684964 0.617793
2507 4 0.0219534 0.0826318 0.614144
2506 2 0.0450087 0.0712656 0.601758
2508 4 0.0680641 0.0598995 0.589372
3024 4 0.104542 0.056363 0.6496
1142 4 0.0873958 0.0588712 0.594796
1141 2 0.1016 0.0597867 0.615095
1143 4 0.115805 0.0607022 0.635394
916 2 0.180171 0.0096404 0.58908
3307 2 0.199706 0.021778 0.660498
3308 4 0.208721 0.0398662 0.654673
3612 4 0.242383 0.00716583 0.658376
4115 4 0.362343 0.0517099 0.653577
807 4 0.0733024 0.12504 0.577179
978 4 0.0878517 0.128766 0.586766
976 2 0.105079 0.136839 0.598664
977 4 0.122306 0.144912 0.610562
964 2 0.210248 0.155074 0.598797
966 4 0.214027 0.162513 0.621693
4370 4 0.407365 0.134608 0.623025
4369 2 0.431746 0.122237 0.632746
4371 4 0.456128 0.109866 0.642467
3062 4 0.467037 0.119427 0.653611
3061 2 0.483151 0.132154 0.657293
3063 4 0.499265 0.144881 0.660975
3109 2 0.0162246 0.164265 0.628805
3267 4 0.0541174 0.174262 0.640606
3206 4 0.0186239 0.219925 0.604524
899 4 0.0301993 0.228349 0.593247
3111 4 0.0381687 0.166859 0.638307
3265 2 0.0776344 0.173063 0.650251
3266 4 0.101151 0.171863 0.659897
2175 4 0.228887 0.169862 0.623312
2173 2 0.244173 0.182312 0.615602
2174 4 0.259459 0.194763 0.607892
3003 4 0.272964 0.202679 0.604749
3001 2 0.293623 0.21043 0.60553
3002 4 0.314282 0.218181 0.606311
3179 4 0.441172 0.252821 0.590125
3178 2 0.463307 0.25727 0.595914
3180 4 0.485441 0.261718 0.601703
3446 4 0.208117 0.34958 0.596799
3354 4 0.190366 0.371679 0.659903
3352 2 0.192686 0.36478 0.635874
3353 4 0.195006 0.35788 0.611845
3445 2 0.23449 0.345119 0.595994
3447 4 0.260864 0.340659 0.595188
2721 4 0.26692 0.352909 0.606293
2719 2 0.290651 0.355637 0.605015
2720 4 0.314382 0.358365 0.603738
3221 4 0.326363 0.359101 0.587096
3220 2 0.346876 0.36705 0.587926
3222 4 0.367388 0.374999 0.588756
3491 4 0.384536 0.367724 0.601294
3490 2 0.402867 0.377946 0.605547
3492 4 0.421198 0.388167 0.609799
4091 4 0.223569 0.487056 0.623318
2138 4 0.239564 0.483773 0.635911
2137 2 0.258995 0.491867 0.64268
4484 4 0.357646 0.490053 0.611827
4483 2 0.384051 0.48024 0.616672
4485 4 0.410457 0.470427 0.621517
2978 4 0.0332796 0.0815183 0.695853
3022 2 0.100453 0.049142 0.672499
1037 4 0.0886232 0.0348814 0.711043
3023 4 0.0963633 0.041921 0.695398
1036 2 0.109408 0.0131555 0.713665
3309 4 0.19069 0.00368991 0.666324
4386 4 0.220268 0.0131828 0.744079
2133 4 0.236831 0.0200019 0.745774
2131 2 0.238307 0.0251063 0.721551
2132 4 0.239783 0.0302106 0.697328
4114 2 0.3708 0.0629087 0.67181
3294 4 0.412624 0.0761944 0.670007
4116 4 0.379257 0.0741075 0.690042
3292 2 0.437059 0.0706861 0.680035
3293 4 0.461495 0.0651779 0.690063
954 4 0.477179 0.0687997 0.682655
2977 2 0.00649494 0.0925016 0.694076
1086 4 0.0400513 0.0919144 0.682486
3165 4 0.0428675 0.135813 0.730192
3163 2 0.0615227 0.143784 0.721
1084 2 0.0572246 0.103189 0.687771
3164 4 0.0801778 0.151756 0.711808
1085 4 0.0743979 0.114464 0.693055
897 4 0.0963845 0.107179 0.690045
144 3 0.0974175 0.154937 0.704555
895 2 0.117083 0.114205 0.69486
896 4 0.137781 0.121231 0.699675
1013 4 0.144428 0.136356 0.695772
1012 2 0.170732 0.130716 0.691893
143 3 0.13575 0.153831 0.707295
1014 4 0.197037 0.125076 0.688015
4128 4 0.296583 0.102023 0.740302
4126 2 0.297022 0.124682 0.73567
4127 4 0.297461 0.147341 0.731039
3299 4 0.311055 0.156391 0.733742
3298 2 0.335666 0.152064 0.724634
3359 4 0.388158 0.111434 0.664446
3358 2 0.380703 0.120778 0.687338
3300 4 0.360277 0.147737 0.715526
3360 4 0.373247 0.130122 0.71023
3482 4 0.434023 0.16109 0.725135
1165 2 0.427849 0.126416 0.737713
1167 4 0.433564 0.102914 0.745412
1166 4 0.422134 0.149918 0.730015
1266 4 0.488065 0.106379 0.736018
145 3 0.114841 0.165051 0.675324
141 1 0.113189 0.165077 0.698039
142 3 0.104587 0.186795 0.705617
3481 2 0.428295 0.16564 0.700861
3483 4 0.422567 0.170189 0.676587
1016 4 0.151001 0.303109 0.718656
2972 4 0.141442 0.291838 0.727353
1015 2 0.142341 0.327997 0.716628
2971 2 0.164213 0.27963 0.73985
2973 4 0.186984 0.267422 0.752347
3252 4 0.20217 0.273106 0.748293
3251 4 0.252895 0.270519 0.75329
3250 2 0.227532 0.271812 0.750791
736 2 0.274573 0.294863 0.744903
2981 4 0.299666 0.315758 0.740162
737 4 0.289773 0.304366 0.731718
4361 4 0.00318705 0.384092 0.715109
4360 2 0.0280677 0.383325 0.719662
4362 4 0.0529483 0.382559 0.724215
4208 4 0.0696151 0.387358 0.728188
4207 2 0.0873453 0.395937 0.718002
4209 4 0.105076 0.404517 0.707816
1017 4 0.133681 0.352885 0.714599
3374 4 0.14136 0.360678 0.7004
3373 2 0.162375 0.36091 0.686998
4437 4 0.116865 0.416162 0.703008
1089 4 0.173465 0.391792 0.723398