ITEM: TIMESTEP
491500
ITEM: NUMBER OF ATOMS
4590
ITEM: BOX BOUNDS xy xz yz pp pp pp
-1.3398083799999995e+01 9.9985700000000008e+00 -3.3995137999999940e+00
-9.9985700000000008e+00 9.9985700000000008e+00 0.0000000000000000e+00
-9.9985700000000008e+00 9.9985700000000008e+00 0.0000000000000000e+00
ITEM: ATOMS id type xs ys zs
1761 4 0.140756 0.0648235 0.014018
3047 4 0.159173 0.0641607 0.00891993
3046 2 0.184445 0.0702107 0.0098211
3048 4 0.209718 0.0762606 0.0107223
3480 4 0.218111 0.070754 0.0276634
4122 4 0.140476 0.00775016 0.00697726
3903 4 0.314453 0.0787519 0.0149207
2884 2 0.321378 0.0572641 0.0508351
2886 4 0.319059 0.0462792 0.0732918
2885 4 0.323698 0.0682491 0.0283783
2949 4 0.329335 0.00691467 0.0545328
2465 4 0.341277 0.0112253 0.0388375
2464 2 0.363514 0.00675224 0.0301045
2466 4 0.385752 0.00227915 0.0213715
23 3 0.0114267 0.157333 0.0694494
1759 2 0.13321 0.0841532 0.0256023
3393 4 0.105319 0.1283 0.00679813
3391 2 0.120371 0.148939 0.0149172
1760 4 0.125664 0.103483 0.0371867
2660 4 0.165905 0.110868 0.0371343
2659 2 0.178162 0.132327 0.0276182
2661 4 0.19042 0.153787 0.0181022
3478 2 0.239087 0.0840597 0.0177683
3479 4 0.260064 0.0973654 0.00787311
3902 4 0.279077 0.105734 0.00167063
3901 2 0.296765 0.0922432 0.00829566
2728 2 0.00276953 0.242693 0.0656828
2729 4 0.0235683 0.239387 0.0531144
2975 4 0.017177 0.163837 0.0358858
2974 2 0.0409389 0.17624 0.0343127
2976 4 0.0647009 0.188644 0.0327396
2829 4 0.102158 0.243706 0.0440191
3392 4 0.135424 0.169579 0.0230363
3242 4 0.127489 0.186828 0.0202926
3241 2 0.143956 0.200151 0.0359769
3243 4 0.160423 0.213473 0.0516612
691 2 0.302206 0.214215 0.0784716
692 4 0.277528 0.204762 0.0803445
693 4 0.326885 0.223669 0.0765988
353 4 0.342384 0.212695 0.0777555
360 4 0.408362 0.171576 0.00395372
358 2 0.430054 0.184959 0.0122647
359 4 0.451746 0.198342 0.0205757
282 4 0.465797 0.21274 0.0290537
280 2 0.486834 0.218188 0.0428756
2844 4 0.0101756 0.307398 0.0791553
2842 2 0.0343151 0.305396 0.0744748
3284 4 0.0959781 0.252257 0.0611865
2843 4 0.0584545 0.303394 0.0697944
3285 4 0.0685158 0.289087 0.0638276
3283 2 0.082247 0.270672 0.0625071
2827 2 0.11755 0.250174 0.0245499
2828 4 0.132943 0.256642 0.0050808
465 4 0.249895 0.325771 0.015358
2640 4 0.190746 0.282174 0.00313511
525 4 0.275721 0.318579 0.0709183
294 4 0.288819 0.327496 0.057985
292 2 0.294037 0.320066 0.0350074
293 4 0.299255 0.312636 0.0120298
461 4 0.31407 0.325084 0.00373478
968 4 0.39796 0.305798 0.000851268
597 4 0.0284247 0.357975 0.0706208
595 2 0.0033576 0.354453 0.0668691
1104 4 0.0486007 0.36212 0.0671571
1102 2 0.0739271 0.365907 0.0684248
1103 4 0.0992536 0.369693 0.0696925
2772 4 0.120213 0.370233 0.0667023
2770 2 0.144978 0.377967 0.0627731
2771 4 0.169744 0.3857 0.0588439
2522 4 0.189473 0.387343 0.0666062
2521 2 0.214256 0.394014 0.0619815
2523 4 0.23904 0.400686 0.0573569
3339 4 0.257186 0.408751 0.0481513
3337 2 0.276975 0.396915 0.0450239
3338 4 0.296763 0.385078 0.0418965
671 4 0.497535 0.406027 0.0831447
2403 4 0.12613 0.484256 0.00279091
3900 4 0.15174 0.468705 0.000598518
4187 4 0.362087 0.471736 0.0131732
2582 4 0.382386 0.47242 0.0184975
2581 2 0.402906 0.461419 0.0201765
2583 4 0.423426 0.450417 0.0218554
2912 4 0.443053 0.445384 0.0191416
2911 2 0.46634 0.458816 0.0172453
2913 4 0.489628 0.472247 0.0153491
672 4 0.467943 0.441128 0.0811175
670 2 0.482739 0.423578 0.0821311
2731 2 0.0285212 0.0329579 0.152403
2733 4 0.0402817 0.0388681 0.130619
1474 2 0.218051 0.00812921 0.117987
1475 4 0.238479 0.0217415 0.107414
1661 4 0.258217 0.0209374 0.10596
1660 2 0.279371 0.0318939 0.0944281
1662 4 0.300525 0.0428504 0.0828967
2768 4 0.343965 0.0838981 0.13669
1651 2 0.457764 0.0188764 0.0850383
1653 4 0.467626 0.0370225 0.100849
1504 2 0.0189754 0.0928335 0.165344
2894 4 0.0220297 0.153792 0.084532
1505 4 0.0434398 0.103178 0.163723
2893 2 0.0447319 0.165646 0.0920628
255 4 0.0628597 0.11521 0.167997
254 4 0.112513 0.122207 0.157849
253 2 0.0876866 0.118709 0.162923
2767 2 0.360299 0.103479 0.145212
2769 4 0.376634 0.12306 0.153734
2787 4 0.0202535 0.194124 0.157317
2895 4 0.0674341 0.1775 0.0995936
2600 4 0.085825 0.177182 0.0945056
2599 2 0.108733 0.177621 0.104686
2601 4 0.13164 0.17806 0.114867
378 4 0.150321 0.173487 0.111079
376 2 0.173621 0.176855 0.120944
629 4 0.208716 0.187501 0.145801
377 4 0.196921 0.180223 0.130809
628 2 0.213828 0.210199 0.156212
630 4 0.218939 0.232898 0.166622
352 2 0.349609 0.193825 0.0904143
354 4 0.356835 0.174955 0.103073
523 2 0.285424 0.318602 0.093964
524 4 0.295127 0.318625 0.11701
288 4 0.314969 0.317037 0.118469
286 2 0.334473 0.328216 0.132266
251 4 0.419276 0.329924 0.135564
2567 4 0.422868 0.284399 0.144669
349 2 0.444914 0.322281 0.123467
351 4 0.465146 0.312975 0.131387
110 3 0.467532 0.286206 0.101962
2533 2 0.482707 0.315404 0.162789
2534 4 0.483157 0.31011 0.13839
106 1 0.485942 0.285216 0.115097
108 3 0.494561 0.306329 0.123303
107 3 0.479549 0.271106 0.13282
2443 2 0.00370228 0.417097 0.101665
767 4 0.0308319 0.40603 0.101883
766 2 0.0555127 0.405417 0.0986425
3450 4 0.100011 0.402707 0.0973156
2471 4 0.0767352 0.35022 0.125676
768 4 0.0801935 0.404804 0.0954016
608 4 0.0728557 0.35875 0.144514
2470 2 0.101516 0.349493 0.123576
3448 2 0.121776 0.409662 0.109691
607 2 0.0706187 0.370395 0.166235
2472 4 0.126297 0.348765 0.121477
2571 4 0.144833 0.354765 0.131738
2569 2 0.168729 0.359187 0.140102
2570 4 0.192625 0.363609 0.148467
2969 4 0.195677 0.344572 0.149635
2968 2 0.219252 0.350114 0.158702
287 4 0.353976 0.339394 0.146063
252 4 0.373602 0.343644 0.138361
250 2 0.396439 0.336784 0.136963
350 4 0.424683 0.331588 0.115546
338 4 0.496969 0.396202 0.165086
2444 4 0.0271008 0.423011 0.111086
3449 4 0.143541 0.416617 0.122066
1863 4 0.168051 0.473154 0.155817
1861 2 0.192627 0.482122 0.152156
3550 2 0.181556 0.42459 0.161759
1862 4 0.217203 0.491089 0.148495
3552 4 0.203703 0.422304 0.151173
1568 4 0.207342 0.420405 0.131093
1788 4 0.286129 0.501069 0.130377
1787 4 0.237189 0.491831 0.143476
1567 2 0.232057 0.428847 0.127637
1569 4 0.256773 0.437289 0.124181
3404 4 0.27678 0.439948 0.12559
1786 2 0.261659 0.49645 0.136926
3403 2 0.29173 0.441879 0.14578
3405 4 0.30668 0.443811 0.165971
1466 4 0.422617 0.440288 0.0845348
1465 2 0.437033 0.446215 0.10479
1467 4 0.451448 0.452141 0.125046
4211 4 0.457318 0.444643 0.141867
4210 2 0.469872 0.467542 0.146943
4212 4 0.482427 0.490442 0.152019
2732 4 0.0167607 0.0270478 0.174188
2547 4 0.0155589 0.0155558 0.191108
2545 2 0.0382039 0.0156845 0.201755
2546 4 0.0608489 0.0158131 0.212401
3722 4 0.0807635 0.0219041 0.212214
3721 2 0.0986154 0.0354532 0.226351
3723 4 0.116467 0.0490023 0.240488
690 4 0.263095 0.0183789 0.215922
688 2 0.2631 0.00672431 0.193891
520 2 0.374605 0.0870515 0.23515
699 4 0.380032 0.130203 0.171397
521 4 0.387258 0.097386 0.215158
697 2 0.390822 0.121874 0.191567
698 4 0.401613 0.113546 0.211737
2452 2 0.473829 0.160686 0.235196
2454 4 0.495416 0.153536 0.227839
2838 4 0.132976 0.169234 0.206715
2836 2 0.139937 0.181839 0.227764
2516 4 0.177332 0.231376 0.238215
2837 4 0.146898 0.194444 0.248814
333 4 0.184033 0.218849 0.226289
331 2 0.196915 0.225153 0.205172
332 4 0.209797 0.231457 0.184054
2478 4 0.278571 0.17465 0.251302
2776 2 0.322915 0.1835 0.245204
2777 4 0.347556 0.184337 0.240271
2453 4 0.452243 0.167836 0.242552
387 4 0.28695 0.270883 0.244331
496 2 0.404853 0.275432 0.235167
2568 4 0.416408 0.283065 0.194268
2566 2 0.419638 0.283732 0.169468
498 4 0.415521 0.27441 0.212659
2492 4 0.476763 0.310874 0.204845
2535 4 0.482257 0.320698 0.187189
2491 2 0.493692 0.298405 0.215183
290 4 0.0186824 0.360949 0.229369
289 2 0.0327921 0.370814 0.210049
291 4 0.0469018 0.38068 0.190728
609 4 0.0683817 0.382039 0.187956
2970 4 0.242828 0.355656 0.16777
729 4 0.260915 0.369543 0.16883
415 2 0.272416 0.402118 0.239288
417 4 0.265807 0.378414 0.246814
727 2 0.283345 0.378947 0.17897
728 4 0.305774 0.388352 0.18911
2538 4 0.323438 0.3861 0.198238
2536 2 0.348686 0.392481 0.197449
2537 4 0.373934 0.398862 0.196659
714 4 0.393603 0.400874 0.199418
712 2 0.418139 0.400431 0.195029
337 2 0.472216 0.392027 0.170532
339 4 0.447462 0.387851 0.175978
713 4 0.442675 0.399988 0.190639
1472 4 0.0569498 0.47324 0.229647
301 2 0.130552 0.476892 0.174865
1471 2 0.0727577 0.471331 0.210639
1473 4 0.0885656 0.469422 0.191632
302 4 0.107452 0.475115 0.184978
4008 4 0.127916 0.423119 0.222979
3551 4 0.159409 0.426877 0.172346
303 4 0.153652 0.478669 0.164751
4006 2 0.133446 0.423202 0.198592
4007 4 0.138976 0.423285 0.174204
264 4 0.160879 0.467069 0.231939
262 2 0.181257 0.458057 0.223948
263 4 0.201636 0.449045 0.215956
1382 4 0.166529 0.48411 0.24193
1386 4 0.213994 0.457814 0.23022
1384 2 0.236154 0.465286 0.24175
363 4 0.292078 0.443106 0.230548
416 4 0.279024 0.425823 0.231763
362 4 0.294096 0.447654 0.180763
361 2 0.293087 0.44538 0.205655
511 2 0.024673 0.0776904 0.297663
512 4 0.0490545 0.0771433 0.30275
2694 4 0.0578607 0.0792414 0.320095
513 4 0.000291582 0.0782376 0.292576
3876 4 0.0578944 0.0116931 0.290513
3874 2 0.07708 0.0301219 0.295793
3875 4 0.0962655 0.0485507 0.301073
122 3 0.11014 0.0516467 0.287126
123 3 0.12778 0.0581172 0.254002
121 1 0.130933 0.0574206 0.276963
124 3 0.141058 0.0782979 0.284664
125 3 0.144154 0.0419 0.282085
4355 4 0.233016 0.0341432 0.329653
4354 2 0.258184 0.0413479 0.329643
4356 4 0.283352 0.0485526 0.329633
522 4 0.361951 0.076717 0.255141
632 4 0.354549 0.0770155 0.272979
2715 4 0.411189 0.0704758 0.335063
2692 2 0.0773146 0.0964951 0.312708
2693 4 0.0967685 0.113749 0.305321
2856 4 0.115576 0.1219 0.299357
2854 2 0.133335 0.10935 0.290877
2855 4 0.151095 0.0967992 0.282396
2578 2 0.194164 0.107236 0.292061
2579 4 0.170552 0.0987087 0.28423
2580 4 0.217775 0.115763 0.299892
2891 4 0.235857 0.108516 0.301071
2890 2 0.259945 0.120206 0.301322
2892 4 0.284034 0.131896 0.301573
631 2 0.367057 0.0921713 0.290209
633 4 0.379565 0.107327 0.307438
2879 4 0.396377 0.101104 0.315712
2880 4 0.436422 0.137621 0.320439
2878 2 0.4164 0.119363 0.318076
420 4 0.440929 0.155978 0.32991
1198 2 0.042946 0.244024 0.327655
1200 4 0.0670729 0.245151 0.320512
2802 4 0.140268 0.243354 0.323648
2765 4 0.125262 0.24938 0.314476
2657 4 0.175941 0.219594 0.29236
2515 2 0.179102 0.218169 0.259063
2656 2 0.189189 0.218513 0.313422
2517 4 0.180872 0.204962 0.279911
2778 4 0.298275 0.182663 0.250137
2477 4 0.261973 0.210961 0.277064
2476 2 0.270272 0.192806 0.264183
2939 4 0.357148 0.199286 0.251089
2938 2 0.37367 0.192702 0.26754
590 4 0.405932 0.179149 0.273731
2940 4 0.390192 0.186118 0.283991
589 2 0.42904 0.174296 0.268362
591 4 0.452148 0.169443 0.262994
612 4 0.0190549 0.280062 0.299889
412 2 0.0422397 0.296885 0.319534
413 4 0.0386454 0.286307 0.29695
2766 4 0.0774294 0.254969 0.305004
2764 2 0.101346 0.252175 0.30974
343 2 0.240119 0.312565 0.263945
345 4 0.214914 0.308092 0.26671
344 4 0.265324 0.317039 0.261179
2654 4 0.275244 0.320872 0.279158
2653 2 0.297403 0.318958 0.289927
2655 4 0.319562 0.317045 0.300695
385 2 0.309681 0.277029 0.255153
386 4 0.332412 0.283174 0.265975
276 4 0.335367 0.270772 0.28084
274 2 0.360102 0.270381 0.277694
275 4 0.384838 0.26999 0.274548
497 4 0.394185 0.276455 0.257674
776 4 0.124972 0.466315 0.309749
775 2 0.145469 0.477666 0.322062
1381 2 0.155393 0.498616 0.257087
777 4 0.165966 0.489017 0.334374
1385 4 0.258315 0.472759 0.253281
500 4 0.260912 0.493093 0.252348
231 4 0.319707 0.482358 0.291262
229 2 0.341791 0.493918 0.281947
1657 2 0.403778 0.493399 0.269551
1658 4 0.4268 0.487553 0.26578
1745 4 0.44689 0.486278 0.267322
681 4 0.470275 0.458026 0.271638
679 2 0.495161 0.464922 0.275549
1184 4 0.0833864 0.00707483 0.400707
2114 4 0.0817519 0.018085 0.384926
2113 2 0.0823798 0.039697 0.397125
2115 4 0.0830077 0.0613089 0.409324
2817 4 0.292183 0.0346687 0.33823
2816 4 0.340885 0.0534032 0.347056
2815 2 0.316534 0.0440359 0.342643
2714 4 0.360848 0.0603418 0.340921
3477 4 0.430911 0.0794826 0.337396
2713 2 0.386019 0.0654088 0.337992
2557 2 0.463991 0.0796158 0.408304
617 4 0.011573 0.0934825 0.402561
616 2 0.0334241 0.106687 0.41071
340 2 0.138699 0.10507 0.408352
341 4 0.114495 0.103315 0.415468
342 4 0.162903 0.106825 0.401237
402 4 0.165325 0.0957743 0.384629
400 2 0.185229 0.107823 0.371933
2935 2 0.192927 0.155777 0.403062
2937 4 0.19339 0.144586 0.380828
401 4 0.205133 0.119872 0.359237
2664 4 0.195248 0.158931 0.368909
4239 4 0.442965 0.156647 0.395001
418 2 0.445527 0.160742 0.354161
4237 2 0.45118 0.13566 0.401775
419 4 0.450126 0.165506 0.378413
3475 2 0.455756 0.0839789 0.342408
3476 4 0.4806 0.0884752 0.347421
4238 4 0.459394 0.114673 0.40855
2559 4 0.455591 0.0983837 0.396532
2586 4 0.00584291 0.225445 0.407655
1199 4 0.0188191 0.242897 0.334797
1191 4 0.00737851 0.17449 0.366843
1190 4 0.0434639 0.17299 0.401163
2685 4 0.0262379 0.228832 0.404675
2683 2 0.0496647 0.231604 0.41419
1189 2 0.0254212 0.17374 0.384003
2800 2 0.135715 0.23538 0.347129
2801 4 0.131161 0.227405 0.37061
2482 2 0.110581 0.235473 0.405641
2483 4 0.128034 0.22811 0.390772
2658 4 0.202436 0.217431 0.334484
2662 2 0.197861 0.178474 0.353327
2663 4 0.200474 0.198016 0.337746
2504 4 0.234312 0.222408 0.405412
2503 2 0.256046 0.23213 0.394124
2505 4 0.277779 0.241853 0.382836
2822 4 0.2892 0.229069 0.383014
2821 2 0.312396 0.23382 0.393083
2823 4 0.335591 0.23857 0.403153
2543 4 0.342359 0.22527 0.416327
765 4 0.00263563 0.269304 0.366334
510 4 0.023684 0.275132 0.369329
508 2 0.0451215 0.277856 0.382664
414 4 0.045834 0.307463 0.342119
509 4 0.066559 0.28058 0.396
717 4 0.0733044 0.268989 0.409206
2498 4 0.30546 0.296164 0.40276
2497 2 0.321424 0.298005 0.383347
2499 4 0.337387 0.299846 0.363934
2930 4 0.353353 0.291022 0.359206
2929 2 0.377131 0.287448 0.36342
2931 4 0.400908 0.283874 0.367634
1953 4 0.410337 0.287263 0.385139
1951 2 0.434843 0.28502 0.386012
1952 4 0.459349 0.282778 0.386885
117 3 0.471099 0.297302 0.405287
2682 4 0.475568 0.278685 0.374604
2680 2 0.500171 0.282108 0.368566
2699 4 0.460999 0.35507 0.343982
2698 2 0.483622 0.34783 0.342048
375 4 0.111857 0.486763 0.393417
373 2 0.095971 0.476607 0.375485
374 4 0.0800851 0.466451 0.357553
2588 4 0.359724 0.474027 0.402095
2587 2 0.339648 0.456424 0.406941
2589 4 0.319571 0.438822 0.411786
3582 4 0.378719 0.472506 0.408081
3581 4 0.419638 0.450953 0.40112
3580 2 0.399178 0.461729 0.4046
549 4 0.427423 0.445222 0.383287
547 2 0.4522 0.446778 0.387965
548 4 0.476978 0.448335 0.392642
1434 4 0.496787 0.454775 0.393425
1127 4 0.0309895 0.0723366 0.443227
1126 2 0.0486638 0.0625026 0.43081
1128 4 0.0663381 0.0526686 0.418393
982 2 0.412084 0.0801264 0.442796
983 4 0.393175 0.0754101 0.42621
2558 4 0.472392 0.0608479 0.420076
217 3 0.449483 0.0806166 0.464065
220 3 0.456076 0.0463894 0.47227
218 3 0.46641 0.0615739 0.4387
2457 4 0.46249 0.0520673 0.490652
216 1 0.464302 0.0657549 0.461349
219 3 0.485223 0.0751006 0.470145
1393 2 0.0572736 0.156971 0.424322
618 4 0.0552753 0.119892 0.418859
1395 4 0.0631975 0.134708 0.430263
320 4 0.070138 0.15959 0.498626
163 3 0.0717671 0.104437 0.44456
162 3 0.0982568 0.100113 0.470109
161 1 0.0947462 0.109039 0.449513
426 4 0.118412 0.147938 0.451931
164 3 0.102004 0.131986 0.450261
165 3 0.106728 0.0997099 0.43378
424 2 0.139556 0.164306 0.456422
2916 4 0.200923 0.121426 0.470903
2914 2 0.196916 0.141676 0.45827
2915 4 0.192908 0.161927 0.445637
984 4 0.430992 0.0848427 0.459381
7 3 0.0104937 0.176278 0.449315
8 3 0.0173424 0.21095 0.463793
2484 4 0.0931281 0.242837 0.42051
1394 4 0.0513497 0.179233 0.418381
2684 4 0.0730915 0.234376 0.423705
6 1 0.0242103 0.190205 0.463681
9 3 0.0221878 0.181001 0.484976
10 3 0.0461138 0.192345 0.456602
368 4 0.0665979 0.19361 0.44989
367 2 0.0813316 0.214852 0.456981
369 4 0.0960653 0.236093 0.464072
3462 4 0.115967 0.237471 0.462553
3460 2 0.140851 0.238215 0.465976
3461 4 0.165734 0.23896 0.469399
425 4 0.1607 0.180673 0.460912
2936 4 0.192463 0.166968 0.425295
411 4 0.183999 0.233347 0.468252
409 2 0.182715 0.2086 0.466193
410 4 0.18143 0.183854 0.464133
2809 2 0.324696 0.232863 0.490926
2542 2 0.350269 0.224352 0.439976
2811 4 0.344255 0.229938 0.476285
2544 4 0.358179 0.223435 0.463625
3044 4 0.00848896 0.29774 0.490365
3043 2 0.0327758 0.295649 0.494048
715 2 0.0861771 0.283643 0.426604
716 4 0.0990498 0.298296 0.444002
3045 4 0.0570627 0.293558 0.497731
310 2 0.165081 0.287514 0.493028
312 4 0.141492 0.289423 0.500077
311 4 0.188669 0.285605 0.485979
3059 4 0.202001 0.273799 0.479151
3058 2 0.226294 0.276319 0.47213
3060 4 0.250587 0.278839 0.465109
306 4 0.268322 0.271452 0.460635
304 2 0.290302 0.285258 0.453627
305 4 0.312283 0.299065 0.44662
453 4 0.333306 0.300328 0.452273
452 4 0.38082 0.30582 0.434929
451 2 0.357063 0.303074 0.443601
488 4 0.40168 0.309146 0.433566
487 2 0.426562 0.310171 0.437263
489 4 0.451444 0.311195 0.44096
118 3 0.471043 0.315058 0.438271
116 1 0.483093 0.302636 0.424724
119 3 0.485845 0.283016 0.435512
1029 4 0.458897 0.391809 0.481413
1027 2 0.482912 0.396144 0.47338
260 4 0.461975 0.354269 0.502002
2958 4 0.0144769 0.446032 0.457059
2957 4 0.0545418 0.48104 0.4465
2956 2 0.0345093 0.463536 0.45178
569 4 0.0690219 0.496588 0.448837
2961 4 0.252826 0.480929 0.417429
2649 4 0.264858 0.47115 0.427762
2647 2 0.284036 0.458932 0.422851
2648 4 0.303214 0.446714 0.417941
3316 2 0.431573 0.445369 0.449371
3318 4 0.407827 0.439869 0.458008
3962 4 0.473947 0.454595 0.447248
3317 4 0.455319 0.450869 0.440734
3961 2 0.489727 0.45235 0.466193
3121 2 0.0166975 0.0539938 0.570043
3122 4 0.0414072 0.0564429 0.564656
3065 4 0.0602436 0.0657103 0.556002
3064 2 0.080986 0.0559648 0.550666
3066 4 0.101728 0.0462193 0.54533
3023 4 0.118509 0.0385879 0.551889
3022 2 0.136414 0.0252942 0.558357
3024 4 0.154318 0.0120005 0.564825
2995 2 0.185921 0.0159787 0.581892
3309 4 0.225718 0.0090116 0.570191
3307 2 0.250608 0.0171913 0.567736
3308 4 0.275499 0.025371 0.565281
2997 4 0.210937 0.0163228 0.580419
1262 4 0.293338 0.0367104 0.57161
1261 2 0.316709 0.044042 0.56256
1263 4 0.340081 0.0513736 0.553509
2508 4 0.35422 0.0553985 0.536899
2506 2 0.379239 0.063006 0.538993
2507 4 0.404258 0.0706136 0.541086
2455 2 0.474789 0.0453151 0.510621
2456 4 0.487089 0.0385629 0.530589
1162 2 0.466723 0.0138702 0.57532
1163 4 0.455659 0.0156248 0.553116
642 4 0.00525298 0.129445 0.520172
321 4 0.0240725 0.141415 0.516612
319 2 0.0471052 0.150503 0.507619
3104 4 0.277263 0.098999 0.514543
3103 2 0.299744 0.109156 0.524099
3105 4 0.322224 0.119313 0.533655
3050 4 0.341394 0.126705 0.540239
3049 2 0.363898 0.120093 0.535425
3051 4 0.386402 0.113481 0.53061
88 3 0.40353 0.112269 0.540094
86 1 0.418947 0.125266 0.55406
90 3 0.41819 0.115977 0.574837
87 3 0.413336 0.146304 0.555525
89 3 0.440669 0.127029 0.545322
575 4 0.457377 0.123559 0.554141
574 2 0.480932 0.123525 0.545773
1129 2 0.00945056 0.166962 0.562604
1131 4 0.032038 0.164013 0.571735
1106 4 0.0825776 0.229089 0.58199
1284 4 0.0616328 0.224443 0.583931
1105 2 0.107936 0.232908 0.581735
1076 4 0.154365 0.241643 0.57878
1107 4 0.133294 0.236728 0.581481
3080 4 0.184044 0.209761 0.553618
3079 2 0.202876 0.216564 0.537294
3081 4 0.221708 0.223367 0.520969
3267 4 0.225498 0.241619 0.57956
3498 4 0.24068 0.221576 0.514684
1075 2 0.179237 0.241105 0.58009
3265 2 0.250488 0.247689 0.575777
3496 2 0.264469 0.233025 0.510559
3497 4 0.288258 0.244473 0.506434
2810 4 0.305137 0.235789 0.505566
144 3 0.325172 0.239608 0.575629
3111 4 0.343894 0.233369 0.571299
3109 2 0.345634 0.224812 0.548024
3110 4 0.347375 0.216255 0.524748
2813 4 0.366805 0.215621 0.519806
2812 2 0.391809 0.219967 0.515618
3383 4 0.362618 0.23937 0.581785
2814 4 0.416812 0.224314 0.51143
2963 4 0.428207 0.226777 0.528862
1211 4 0.422385 0.226767 0.568535
2962 2 0.452184 0.23534 0.522179
1210 2 0.445955 0.227036 0.577002
2964 4 0.47616 0.243903 0.515495
444 4 0.0751258 0.303681 0.501952
442 2 0.099364 0.300446 0.501453
443 4 0.123602 0.29721 0.500954
3237 4 0.212918 0.283832 0.555211
3235 2 0.223984 0.29986 0.537928
3236 4 0.23505 0.315888 0.520644
3266 4 0.275479 0.25376 0.571994
142 3 0.296683 0.258538 0.568632
141 1 0.319125 0.260699 0.574729
145 3 0.33212 0.273529 0.559331
1639 2 0.361904 0.304777 0.560367
1640 4 0.368543 0.32953 0.562929
1641 4 0.355265 0.280024 0.557805
936 4 0.372032 0.273202 0.549346
934 2 0.395183 0.273442 0.539804
935 4 0.418334 0.273682 0.530263
695 4 0.438674 0.277613 0.529423
694 2 0.460197 0.292497 0.522871
696 4 0.48172 0.307381 0.516319
2604 4 0.495752 0.253856 0.513648
539 4 0.117904 0.412362 0.568979
2243 4 0.0992243 0.41305 0.57449
1280 4 0.38626 0.339034 0.572232
2847 4 0.356787 0.36377 0.526603
2846 4 0.394843 0.338213 0.519551
2845 2 0.375815 0.350992 0.523077
261 4 0.413093 0.345972 0.515356
1279 2 0.411085 0.347988 0.570815
601 2 0.449381 0.406116 0.517567
259 2 0.437534 0.35012 0.508679
1281 4 0.43591 0.356941 0.569398
2637 4 0.47843 0.344503 0.501752
348 4 0.454667 0.362457 0.576771
602 4 0.458715 0.391248 0.501337
538 2 0.135465 0.427611 0.555994
1136 4 0.147174 0.489981 0.508312
1135 2 0.157253 0.472827 0.521042
540 4 0.153025 0.44286 0.543009
1137 4 0.167331 0.455674 0.533772
4538 4 0.44043 0.438967 0.54285
4537 2 0.447941 0.439282 0.566714
603 4 0.440046 0.420984 0.533796
559 2 0.477739 0.494912 0.504196
4058 4 0.492964 0.471219 0.530421
561 4 0.487795 0.488487 0.525635
269 4 0.0142717 0.0326672 0.621421
268 2 0.0390643 0.041865 0.622421
270 4 0.063857 0.0510627 0.623421
4074 4 0.0780564 0.0594263 0.637269
4072 2 0.100525 0.0690096 0.647222
4073 4 0.122994 0.0785928 0.657174
2996 4 0.160904 0.0156346 0.583364
1164 4 0.477787 0.0121157 0.597524
954 4 0.497351 0.0171421 0.596753
856 2 0.0633213 0.156879 0.596463
858 4 0.0399966 0.159802 0.589451
857 4 0.0866461 0.153957 0.603475
2318 4 0.106419 0.161917 0.603144
2317 2 0.130792 0.159129 0.60327
2319 4 0.155166 0.156342 0.603396
950 4 0.174654 0.165863 0.602799
1283 4 0.0118113 0.217052 0.593287
1282 2 0.036722 0.220747 0.588609
3356 4 0.165445 0.24777 0.655083
1077 4 0.204109 0.240567 0.581399
951 4 0.201632 0.191381 0.639364
949 2 0.188143 0.178622 0.621082
3382 2 0.386176 0.248362 0.589469
1212 4 0.469526 0.227306 0.585469
1259 4 0.487025 0.235806 0.59248
905 4 0.0980105 0.248677 0.642427
906 4 0.0489058 0.252862 0.641182
904 2 0.0734581 0.25077 0.641805
3357 4 0.119257 0.254371 0.640288
3355 2 0.142351 0.251071 0.647686
2627 4 0.184356 0.259592 0.647913
2626 2 0.209518 0.26194 0.650457
83 3 0.247694 0.285145 0.590195
82 3 0.24768 0.309466 0.618549
2628 4 0.23468 0.264288 0.653001
81 1 0.260375 0.303138 0.601244
3441 4 0.252107 0.266783 0.662927
84 3 0.26583 0.321019 0.586655
85 3 0.279668 0.29715 0.609625
806 4 0.296668 0.298499 0.618865
805 2 0.318652 0.311624 0.626788
143 3 0.321907 0.27079 0.595596
3439 2 0.276281 0.277828 0.660462
3440 4 0.300455 0.288874 0.657997
807 4 0.340635 0.324749 0.63471
978 4 0.359116 0.331599 0.628549
976 2 0.384031 0.331538 0.630521
3384 4 0.409734 0.257354 0.597152
3107 4 0.428033 0.268745 0.597816
3106 2 0.452132 0.279474 0.601541
3108 4 0.476231 0.290203 0.605266
3165 4 0.492385 0.291118 0.617212
1205 4 0.0102315 0.387747 0.589241
1204 2 0.0237423 0.384269 0.609593
1206 4 0.0372531 0.380791 0.629945
2242 2 0.0888564 0.391666 0.585562
2244 4 0.0784885 0.370283 0.596635
1139 4 0.064284 0.35112 0.620029
1138 2 0.0845719 0.358873 0.634355
1140 4 0.10486 0.366626 0.64868
798 4 0.120687 0.382692 0.649947
796 2 0.144843 0.379962 0.653348
797 4 0.168999 0.377231 0.656749
977 4 0.408946 0.331477 0.632494
3420 4 0.396085 0.416439 0.621348
3418 2 0.417923 0.409388 0.614657
4559 4 0.417756 0.350598 0.632689
3419 4 0.43976 0.402336 0.607965
4558 2 0.437327 0.356339 0.648387
347 4 0.45754 0.397546 0.612266
346 2 0.456104 0.380001 0.594518
4560 4 0.456898 0.36208 0.664086
2140 2 0.0175606 0.489141 0.64684
2141 4 0.0373258 0.495368 0.662218
4092 4 0.0491341 0.480717 0.661424
3491 4 0.436513 0.485918 0.622181
3490 2 0.449897 0.468575 0.614587
3492 4 0.463281 0.451232 0.606994
4539 4 0.455451 0.439596 0.590578
2320 2 0.0394331 0.0655935 0.7153
2321 4 0.0227348 0.0800771 0.708353
2322 4 0.0561313 0.0511099 0.722248
965 4 0.0726247 0.058362 0.732411
964 2 0.0917713 0.0556749 0.717125
966 4 0.110918 0.0529877 0.701839
1005 4 0.121682 0.0629941 0.688066
1003 2 0.144627 0.0753606 0.694217
1021 2 0.242909 0.0539453 0.689517
1023 4 0.251657 0.0327988 0.694582
1022 4 0.234162 0.0750918 0.684452
1970 4 0.0137991 0.134545 0.696078
1969 2 0.0252149 0.114578 0.698748
1971 4 0.0366307 0.0946107 0.701418
1004 4 0.167572 0.0877272 0.700368
2255 4 0.183124 0.10132 0.706743
2254 2 0.20579 0.0944499 0.703597
2256 4 0.228456 0.0875794 0.700451
3207 4 0.28737 0.152774 0.697672
3205 2 0.310893 0.152282 0.689444
3206 4 0.334415 0.151791 0.681217
3020 4 0.354804 0.155027 0.685342
3019 2 0.378603 0.160327 0.67681
3041 4 0.453849 0.124233 0.74654
3250 2 0.0553927 0.204372 0.74573
3252 4 0.0611351 0.222187 0.728398
3273 4 0.0617955 0.241491 0.723091
2982 4 0.225202 0.24138 0.72403
2980 2 0.210871 0.234349 0.74411
59 3 0.383397 0.183371 0.749441
3021 4 0.402401 0.165628 0.668278
3293 4 0.410548 0.170435 0.685705
3292 2 0.43495 0.171182 0.691651
1009 2 0.421693 0.201281 0.737065
1011 4 0.440147 0.210549 0.721115
3402 4 0.461276 0.217362 0.72018
3294 4 0.459352 0.171928 0.697597
4369 2 0.500241 0.171511 0.680854
4371 4 0.477235 0.171675 0.690581
3400 2 0.476303 0.199991 0.720512
3401 4 0.49133 0.182619 0.720843
3272 4 0.0569181 0.283578 0.747268
3271 2 0.0593568 0.262534 0.73518
3091 2 0.230366 0.325505 0.725806
3092 4 0.230488 0.327477 0.700881
896 4 0.316564 0.288388 0.668195
3074 4 0.313549 0.325797 0.694097
1085 4 0.383053 0.301215 0.672753
897 4 0.365484 0.289752 0.679525
895 2 0.341024 0.28907 0.67386
884 4 0.37235 0.305044 0.744019
1084 2 0.405834 0.296885 0.680061
1086 4 0.428614 0.292555 0.687368
3374 4 0.445501 0.297945 0.675384
3373 2 0.469993 0.30281 0.681826
3375 4 0.494485 0.307675 0.688268
3432 4 0.01444 0.38597 0.718091
3263 4 0.0156887 0.397852 0.733471
3430 2 0.0379786 0.385906 0.709689
3431 4 0.0615171 0.385841 0.701286
3275 4 0.0793655 0.397397 0.705694
3274 2 0.102663 0.407694 0.713104
3073 2 0.317571 0.338852 0.715346
3075 4 0.321594 0.351908 0.736594
3312 4 0.307827 0.354856 0.750378
3380 4 0.427856 0.39319 0.713853
3379 2 0.439176 0.379035 0.698478
3381 4 0.450496 0.36488 0.683103
4090 2 0.0578953 0.479739 0.684759
4091 4 0.0666564 0.478762 0.708094
1100 4 0.0779529 0.485563 0.725279
3276 4 0.12596 0.41799 0.720514
4494 4 0.146282 0.420531 0.718138
4492 2 0.170881 0.42786 0.723251
4493 4 0.195479 0.435189 0.728364
1956 4 0.211768 0.448113 0.733684
2409 4 0.434378 0.49029 0.718995
2407 2 0.415721 0.487965 0.735914
993 4 0.421141 0.444111 0.697409
991 2 0.440834 0.443837 0.712754
992 4 0.460527 0.443564 0.728099
942 4 0.480136 0.451987 0.731533
4529 4 0.0383116 0.0251872 0.797222
4528 2 0.0611338 0.039618 0.798653
4530 4 0.083956 0.0540487 0.800084
3305 4 0.100882 0.0624475 0.811138
3304 2 0.122859 0.0538223 0.812224
3306 4 0.144836 0.045197 0.81331
3555 4 0.162559 0.0492454 0.803346
3553 2 0.186888 0.0523606 0.810353
1218 4 0.197403 0.0052658 0.752476
3554 4 0.211216 0.0554758 0.817359
193 3 0.229368 0.0593238 0.806015
191 1 0.249097 0.0611107 0.79345
192 3 0.245183 0.0694067 0.772666
194 3 0.255286 0.0402055 0.790911
195 3 0.2661 0.0752944 0.803675
3764 4 0.271365 0.0318778 0.795397
1112 4 0.285223 0.08382 0.80888
2283 4 0.276331 0.0038651 0.77181
3763 2 0.296452 0.034422 0.798699
3765 4 0.321538 0.0369663 0.802001
1994 4 0.325218 0.0567202 0.800675
1993 2 0.350489 0.0609161 0.802791
1995 4 0.37576 0.0651119 0.804906
1194 4 0.394036 0.0687623 0.811264
1038 4 0.487231 0.0126432 0.818792
2349 4 0.467927 0.00479346 0.815283
2347 2 0.443941 0.000400226 0.807168
1090 2 0.258154 0.143931 0.78594
1134 4 0.240374 0.14666 0.819099
1091 4 0.240289 0.150767 0.800651
1092 4 0.276019 0.137094 0.77123
839 4 0.287795 0.153022 0.779039
1111 2 0.306969 0.0977175 0.816386
838 2 0.312566 0.161993 0.781123
42 3 0.34954 0.11405 0.822459
1113 4 0.328715 0.111615 0.823891
41 1 0.369071 0.108763 0.831613
43 3 0.387242 0.117115 0.8179
3040 2 0.46979 0.144491 0.754195
3042 4 0.485732 0.16475 0.76185
3134 4 0.489952 0.145981 0.82552
834 4 0.0224361 0.208785 0.797655
154 3 0.0388908 0.213378 0.809519
3251 4 0.0496503 0.186556 0.763063
151 1 0.0578541 0.205103 0.802102
153 3 0.0523099 0.191541 0.783556
155 3 0.0747003 0.222331 0.796796
152 3 0.0652281 0.192586 0.8189
3591 4 0.0851742 0.204456 0.819921
1044 4 0.0902956 0.219914 0.807565
1042 2 0.109877 0.230987 0.793805
738 4 0.15941 0.22755 0.813264
1043 4 0.129458 0.242061 0.780045
737 4 0.195293 0.218995 0.781117
736 2 0.177351 0.223273 0.79719
2981 4 0.196539 0.227317 0.764189
840 4 0.337337 0.170963 0.783207
57 3 0.353781 0.177674 0.773095
870 4 0.37662 0.216253 0.829817
60 3 0.366053 0.211953 0.759817
863 4 0.389749 0.228419 0.818815
58 3 0.387114 0.196855 0.784945
56 1 0.372615 0.192629 0.766761
1010 4 0.403238 0.192012 0.753014
2978 4 0.404491 0.192282 0.773658
862 2 0.414185 0.238553 0.816245
2977 2 0.420992 0.191262 0.792262
2979 4 0.437493 0.190242 0.810866
3486 4 0.457737 0.193459 0.8183
864 4 0.438621 0.248688 0.813675
3484 2 0.482992 0.197792 0.820592
50 3 0.0202072 0.292916 0.784366
49 3 0.0153855 0.25875 0.768575
46 1 0.0305715 0.275205 0.779259
48 3 0.0491764 0.282127 0.765593
47 3 0.0378612 0.266493 0.798658
3093 4 0.230243 0.323532 0.750731
922 2 0.198008 0.293673 0.799028
923 4 0.196546 0.270394 0.79025
482 4 0.218626 0.32527 0.815097
924 4 0.199469 0.316952 0.807805
801 4 0.30135 0.294559 0.821712
799 2 0.316938 0.316556 0.820746
3329 4 0.300019 0.274913 0.828319
883 2 0.396571 0.307101 0.751167
885 4 0.420793 0.309158 0.758314
1692 4 0.458481 0.25879 0.810753
1690 2 0.483704 0.260374 0.810818
3034 2 0.999359 0.351407 0.780012
3035 4 0.0167845 0.354933 0.798167
1073 4 0.0144388 0.356435 0.817334
3195 4 0.20774 0.367364 0.834147
2835 4 0.219081 0.374568 0.817359
2833 2 0.242212 0.387348 0.812608
2834 4 0.265344 0.400129 0.807856
800 4 0.332526 0.338553 0.819781
3311 4 0.305166 0.367656 0.798477
3027 4 0.297451 0.381957 0.81021