ITEM: TIMESTEP
2980000
ITEM: NUMBER OF ATOMS
4590
ITEM: BOX BOUNDS xy xz yz pp pp pp
-9.9985700000000008e+00 9.9985700000000008e+00 0.0000000000000000e+00
-9.9985700000000008e+00 9.9985700000000008e+00 0.0000000000000000e+00
-9.9985700000000008e+00 9.9985700000000008e+00 0.0000000000000000e+00
ITEM: ATOMS id type xs ys zs
2336 4 0.0395706 0.0257173 0.0118251
2703 4 0.291822 0.0085993 0.0693918
2889 4 0.432713 0.0632384 0.0504308
2887 2 0.455546 0.0685906 0.0417579
2888 4 0.478378 0.0739428 0.033085
1373 4 0.0430895 0.0866087 0.0675043
2465 4 0.025172 0.079848 0.0610689
2464 2 0.00227105 0.08814 0.066723
24 3 0.310324 0.136225 0.0788591
354 4 0.29335 0.129891 0.0687316
23 3 0.342153 0.122263 0.0634842
2894 4 0.349861 0.135683 0.0506462
2893 2 0.371167 0.131632 0.0382024
2895 4 0.392472 0.127582 0.0257586
3347 4 0.390965 0.147099 0.018311
3346 2 0.41365 0.150483 0.00835266
277 2 0.088125 0.210403 0.0499797
278 4 0.0641828 0.203835 0.0470088
279 4 0.112067 0.21697 0.0529507
4470 4 0.12833 0.209083 0.0469836
4468 2 0.150856 0.219054 0.0427009
4469 4 0.173383 0.229025 0.0384182
3216 4 0.161288 0.175881 0.999459
3214 2 0.177296 0.195051 0.000665005
742 2 0.216386 0.187088 0.0779381
744 4 0.232086 0.203982 0.0682794
2401 2 0.206477 0.252706 0.0117385
2403 4 0.191807 0.232776 0.0081677
3215 4 0.193304 0.214221 0.00187112
2599 2 0.274652 0.210528 0.0811684
450 4 0.310632 0.221338 0.0716829
2601 4 0.298445 0.215328 0.0871695
2600 4 0.250858 0.205729 0.0751673
914 4 0.373652 0.249516 0.0757886
448 2 0.332148 0.234073 0.071952
449 4 0.353664 0.246808 0.0722211
103 3 0.467824 0.253084 0.0764008
2881 2 0.487642 0.218704 0.0141544
770 4 0.11163 0.324441 0.0396738
1119 4 0.109647 0.305491 0.0388682
1117 2 0.111371 0.287372 0.0217237
1118 4 0.113095 0.269253 0.00457913
2875 2 0.246494 0.260662 0.0685022
2876 4 0.242707 0.27055 0.0458506
3196 2 0.193637 0.303504 0.0352841
3198 4 0.204447 0.281529 0.0403278
3197 4 0.182828 0.325479 0.0302404
2402 4 0.221148 0.272637 0.0153093
1841 4 0.239091 0.28102 0.0133209
2877 4 0.250281 0.250774 0.0911537
104 3 0.497127 0.273011 0.062662
105 3 0.461836 0.282207 0.0532988
2759 4 0.456307 0.300359 0.0617869
101 1 0.475856 0.264922 0.0581314
2835 4 0.46335 0.315302 0.0508505
2833 2 0.465439 0.323873 0.0274548
102 3 0.476977 0.250785 0.0400201
2758 2 0.435813 0.306405 0.0747733
2834 4 0.467527 0.332444 0.00405911
769 2 0.122973 0.339828 0.0235557
771 4 0.134315 0.355214 0.00743767
1120 2 0.123813 0.406827 0.0609909
1122 4 0.102613 0.39435 0.0654755
3231 4 0.0848374 0.401344 0.0704308
933 4 0.194562 0.336478 0.0198729
1466 4 0.477655 0.393216 0.059057
3541 2 0.487334 0.399383 0.0165744
1465 2 0.49464 0.395198 0.0772986
3543 4 0.483452 0.397815 0.0412251
1121 4 0.145012 0.419304 0.0565062
3552 4 0.159626 0.431294 0.0647453
3550 2 0.176526 0.43441 0.0829078
242 4 0.287415 0.47803 0.0596526
241 2 0.30609 0.482273 0.0435766
243 4 0.324765 0.486516 0.0275005
1301 4 0.378576 0.493877 0.00808149
1372 2 0.0532307 0.0706245 0.0838403
1374 4 0.063372 0.0546403 0.100176
1873 2 0.0557005 0.0639033 0.158569
1875 4 0.0419896 0.043377 0.154587
1542 4 0.0378622 0.0258002 0.146866
1540 2 0.0339473 0.00496721 0.133606
580 2 0.0836706 0.0177328 0.101093
582 4 0.0660771 0.0346928 0.0958028
333 4 0.147221 0.0868176 0.13977
331 2 0.170375 0.079734 0.146007
692 4 0.226143 0.0808316 0.130921
332 4 0.193529 0.0726503 0.152244
1273 2 0.33022 0.0712883 0.102674
2701 2 0.299051 0.0283639 0.0828934
2702 4 0.306281 0.0481286 0.096395
1274 4 0.323459 0.0476301 0.107118
2615 4 0.05367 0.135275 0.0878159
1874 4 0.0694114 0.0844296 0.162551
2614 2 0.045477 0.123563 0.108331
2616 4 0.037284 0.111852 0.128847
3678 4 0.131152 0.0936207 0.147864
3677 4 0.0811605 0.0927103 0.148753
3676 2 0.106156 0.0931655 0.148309
2517 4 0.100379 0.146549 0.135752
2515 2 0.120451 0.157071 0.125188
2930 4 0.187544 0.155069 0.158924
691 2 0.239027 0.0856845 0.110049
693 4 0.251911 0.0905374 0.0891764
353 4 0.251198 0.108944 0.0856161
352 2 0.272274 0.119418 0.0771739
22 3 0.321338 0.101125 0.0865608
21 1 0.328706 0.122514 0.0823924
522 4 0.318714 0.163662 0.170015
1275 4 0.336981 0.0949464 0.0982295
25 3 0.340629 0.129966 0.100308
2679 4 0.400554 0.104221 0.140649
810 4 0.342491 0.110974 0.109472
808 2 0.362459 0.112878 0.1244
809 4 0.382427 0.114783 0.139327
505 2 0.490016 0.0953629 0.140842
506 4 0.466082 0.0966439 0.133721
2677 2 0.423866 0.0959439 0.137014
2678 4 0.447179 0.0876669 0.133379
649 2 0.0237422 0.235866 0.157081
727 2 0.998518 0.244099 0.105684
650 4 0.0100966 0.243996 0.137771
2516 4 0.140522 0.167593 0.114623
387 4 0.143823 0.18821 0.113898
767 4 0.159512 0.251629 0.104293
743 4 0.200686 0.170194 0.0875969
385 2 0.167766 0.184138 0.107957
386 4 0.19171 0.180065 0.102016
2520 4 0.27423 0.193478 0.1677
2518 2 0.283717 0.171943 0.176153
913 2 0.397691 0.247519 0.082371
622 2 0.391955 0.193518 0.160714
623 4 0.41108 0.208316 0.167075
624 4 0.372829 0.178721 0.154353
915 4 0.42173 0.245522 0.0889533
491 4 0.492804 0.194518 0.143912
456 4 0.479001 0.20739 0.149296
455 4 0.430573 0.214021 0.159854
454 2 0.454787 0.210705 0.154575
2538 4 0.0511272 0.262984 0.141622
728 4 0.0192842 0.246365 0.119425
2536 2 0.0676379 0.264248 0.122887
286 2 0.0750959 0.334377 0.123188
250 2 0.0222734 0.330862 0.103284
252 4 0.00130233 0.322461 0.114
518 4 0.000193662 0.322725 0.134735
2537 4 0.0841486 0.265511 0.104152
2445 4 0.100277 0.272417 0.114738
288 4 0.0930583 0.329602 0.139913
2444 4 0.146878 0.254584 0.118078
2443 2 0.123578 0.2635 0.116408
713 4 0.0939917 0.316862 0.155545
712 2 0.116916 0.320826 0.164709
610 2 0.167538 0.331155 0.143705
714 4 0.139839 0.32479 0.173873
766 2 0.178606 0.266182 0.111281
768 4 0.1977 0.280735 0.118268
2094 4 0.216193 0.288635 0.115856
2092 2 0.241048 0.291024 0.11716
612 4 0.183872 0.326226 0.125427
2799 4 0.202885 0.324155 0.124987
2093 4 0.265902 0.293413 0.118464
528 4 0.285952 0.298955 0.113322
526 2 0.308197 0.304623 0.10341
2862 4 0.325764 0.337187 0.147052
527 4 0.330441 0.310291 0.0934979
2651 4 0.349327 0.316332 0.100843
2650 2 0.374198 0.313821 0.100303
2652 4 0.399069 0.31131 0.0997637
845 4 0.438333 0.256084 0.0939096
844 2 0.437322 0.264751 0.117342
2760 4 0.41532 0.31245 0.0877598
846 4 0.43631 0.273418 0.140774
2477 4 0.440808 0.274863 0.160428
287 4 0.0571336 0.339151 0.106462
251 4 0.0432445 0.339262 0.0925686
3229 2 0.0652844 0.406064 0.0852835
2906 4 0.0466521 0.415304 0.120137
611 4 0.151204 0.336083 0.161984
2798 4 0.220855 0.362363 0.0981928
2797 2 0.21187 0.343259 0.11159
3818 4 0.255701 0.421404 0.124411
2592 4 0.339987 0.336916 0.133965
4005 4 0.318795 0.414297 0.159045
2590 2 0.345979 0.357714 0.121446
2591 4 0.351971 0.378512 0.108926
2728 2 0.478499 0.362364 0.140532
2730 4 0.483476 0.374545 0.119272
2729 4 0.473521 0.350182 0.161793
3230 4 0.0457314 0.410784 0.100136
2905 2 0.0301806 0.421799 0.137791
1673 4 0.0666686 0.488745 0.114329
2907 4 0.0137091 0.428295 0.155445
2162 4 0.0924487 0.458453 0.158728
2163 4 0.0787218 0.471686 0.112499
2161 2 0.0855852 0.46507 0.135614
3551 4 0.193426 0.437526 0.10107
3819 4 0.212001 0.440021 0.108775
3817 2 0.233851 0.430712 0.116593
4510 2 0.209595 0.494029 0.15394
678 4 0.308859 0.4298 0.157247
676 2 0.288969 0.432669 0.14237
677 4 0.269079 0.435539 0.127492
228 4 0.379688 0.488842 0.163024
1785 4 0.0246792 0.00780994 0.252195
1611 4 0.0113709 0.00780204 0.237428
2756 4 0.384273 0.0434643 0.208824
2755 2 0.395659 0.0656963 0.209966
786 4 0.375388 0.0370252 0.193564
784 2 0.380541 0.0126484 0.19566
2757 4 0.407045 0.0879282 0.211107
749 4 0.00519836 0.125345 0.166181
750 4 0.0477143 0.138269 0.189117
748 2 0.0264563 0.131807 0.177649
1479 4 0.0638902 0.149164 0.189515
1477 2 0.0821117 0.160215 0.202594
2931 4 0.162742 0.154599 0.202345
419 4 0.165748 0.147332 0.220041
2780 4 0.197239 0.0729784 0.171098
418 2 0.159635 0.141024 0.243451
2929 2 0.175143 0.154834 0.180635
2779 2 0.22043 0.0779922 0.178986
2781 4 0.243621 0.083006 0.186874
1566 4 0.256228 0.0969039 0.180669
1564 2 0.264794 0.120272 0.183058
1565 4 0.273361 0.143641 0.185448
2519 4 0.293204 0.150409 0.184607
604 2 0.456397 0.0950095 0.24019
605 4 0.462908 0.115556 0.227517
2880 4 0.460231 0.114134 0.208832
2878 2 0.476231 0.132548 0.203341
2879 4 0.49223 0.150962 0.19785
651 4 0.0373877 0.227737 0.176392
3159 4 0.0548462 0.221691 0.183665
3157 2 0.0668544 0.23574 0.200505
1478 4 0.100333 0.171266 0.215672
3158 4 0.0788626 0.249789 0.217346
2777 4 0.15048 0.194879 0.227771
2778 4 0.116273 0.168016 0.203092
2776 2 0.133376 0.181448 0.215431
2453 4 0.178007 0.204984 0.222961
1198 2 0.238515 0.209632 0.177075
1200 4 0.219001 0.214359 0.191977
2454 4 0.205822 0.230491 0.190152
2452 2 0.191914 0.217737 0.206557
508 2 0.199799 0.187939 0.252869
509 4 0.178907 0.194911 0.241031
458 4 0.291776 0.164662 0.240663
1199 4 0.258028 0.204904 0.162173
457 2 0.316596 0.167441 0.239451
459 4 0.341415 0.17022 0.23824
521 4 0.367507 0.17424 0.172867
520 2 0.34311 0.168951 0.171441
732 4 0.405179 0.209558 0.197297
730 2 0.427661 0.210283 0.208215
731 4 0.450144 0.211008 0.219133
2672 4 0.467665 0.201461 0.214445
2671 2 0.48833 0.215364 0.216654
716 4 0.0546973 0.297523 0.238818
3831 4 0.0625609 0.302084 0.188712
3829 2 0.0538589 0.320321 0.203439
715 2 0.0737512 0.291582 0.253879
579 4 0.0953518 0.254062 0.226633
577 2 0.112502 0.266951 0.213791
578 4 0.129652 0.27984 0.200948
236 4 0.143672 0.292848 0.193895
235 2 0.166755 0.291892 0.203458
2968 2 0.223165 0.285207 0.219524
2969 4 0.200854 0.288026 0.230453
237 4 0.189837 0.290936 0.213022
2970 4 0.245477 0.282387 0.208595
2860 2 0.318709 0.32612 0.168334
2853 4 0.256047 0.275524 0.193905
2851 2 0.275193 0.291583 0.194752
2852 4 0.294339 0.307642 0.195599
2861 4 0.311654 0.315052 0.189616
337 2 0.414027 0.312895 0.226945
339 4 0.392532 0.311415 0.239633
2951 4 0.492487 0.275122 0.183928
2476 2 0.459426 0.280756 0.176042
2478 4 0.478045 0.286649 0.191656
338 4 0.435522 0.314376 0.214258
3696 4 0.0411144 0.357407 0.226367
3830 4 0.0451568 0.338557 0.218166
3694 2 0.0342756 0.369152 0.247355
3695 4 0.0274367 0.380897 0.268342
3600 4 0.10864 0.406069 0.179947
3921 4 0.123998 0.393332 0.182819
3919 2 0.145567 0.405416 0.186551
4004 4 0.325042 0.3966 0.205397
4003 2 0.321918 0.405448 0.182221
1856 4 0.320441 0.399865 0.224565
291 4 0.443102 0.332832 0.215768
289 2 0.444423 0.357684 0.218178
290 4 0.445744 0.382536 0.220589
3935 4 0.056887 0.438203 0.258315
3988 2 0.0177077 0.446584 0.257128
3599 4 0.0810871 0.446591 0.169968
3598 2 0.0948638 0.42633 0.174958
1677 4 0.113108 0.475457 0.255276
4511 4 0.201054 0.482731 0.174545
3920 4 0.167136 0.417501 0.190283
1544 4 0.189644 0.476169 0.189094
1545 4 0.166587 0.433213 0.177962
1543 2 0.178115 0.454691 0.183528
1783 2 0.0428639 0.0228085 0.260534
1784 4 0.0610486 0.037807 0.268872
425 4 0.0394467 0.0564599 0.330468
3993 4 0.00522221 0.00667577 0.312526
1127 4 0.427497 0.0381583 0.30249
3809 4 0.451397 0.0544083 0.2535
3808 2 0.434298 0.0525845 0.271651
3810 4 0.417199 0.0507608 0.289803
1126 2 0.429288 0.0144389 0.310194
606 4 0.449887 0.0744626 0.252864
1703 4 0.109312 0.173429 0.277581
1702 2 0.113225 0.149676 0.284338
530 4 0.118083 0.12266 0.310912
1704 4 0.117138 0.125923 0.291096
529 2 0.132409 0.113666 0.329326
257 4 0.164757 0.117994 0.269573
420 4 0.153523 0.134716 0.266861
256 2 0.17845 0.118292 0.290492
515 4 0.204102 0.133343 0.317147
258 4 0.192142 0.118591 0.311411
164 3 0.190896 0.111463 0.329118
1189 2 0.332654 0.160064 0.324194
2484 4 0.301379 0.17312 0.338771
1191 4 0.352475 0.144915 0.325878
402 4 0.366961 0.158496 0.327917
284 4 0.502073 0.165771 0.279619
589 2 0.000921877 0.209619 0.307168
591 4 0.0238803 0.210098 0.297275
404 4 0.0453431 0.21295 0.298996
403 2 0.0644456 0.225271 0.288581
405 4 0.0835481 0.237591 0.278166
536 4 0.141246 0.237497 0.283216
535 2 0.149734 0.214766 0.277183
537 4 0.158222 0.192034 0.271149
30 3 0.0984144 0.246295 0.28914
510 4 0.22069 0.180967 0.264707
1032 4 0.253344 0.242682 0.314923
1395 4 0.263995 0.223229 0.310168
1393 2 0.283786 0.229426 0.2962
1190 4 0.312833 0.175212 0.32251
1394 4 0.303577 0.235622 0.282232
2753 4 0.308911 0.251508 0.293863
8 3 0.260932 0.2304 0.331227
1749 4 0.351978 0.166835 0.255037
1747 2 0.372057 0.173786 0.268217
400 2 0.388477 0.171207 0.327109
1748 4 0.392137 0.180736 0.281397
180 3 0.411284 0.182735 0.28196
2789 4 0.412093 0.230779 0.286492
401 4 0.409993 0.183919 0.326301
177 3 0.425849 0.216396 0.288871
179 3 0.427692 0.189587 0.315149
176 1 0.428281 0.193785 0.292336
178 3 0.448659 0.187 0.283557
285 4 0.45273 0.171013 0.273413
283 2 0.477402 0.168392 0.276516
2700 4 0.0181734 0.270566 0.310505
2698 2 0.0316912 0.289972 0.318622
479 4 0.0560561 0.324389 0.334207
2450 4 0.999608 0.273281 0.305495
29 3 0.130131 0.24484 0.268902
717 4 0.0928051 0.28564 0.268941
726 4 0.145791 0.25352 0.295714
27 3 0.129771 0.261355 0.302663
26 1 0.117446 0.25752 0.283623
28 3 0.112084 0.277907 0.273926
1030 2 0.231462 0.254571 0.312689
724 2 0.167841 0.261594 0.304305
725 4 0.189891 0.269668 0.312895
1031 4 0.20958 0.266461 0.310455
374 4 0.236544 0.314262 0.313735
373 2 0.220908 0.333658 0.315853
2752 2 0.333102 0.257544 0.291973
2788 2 0.394039 0.248066 0.285842
2790 4 0.375986 0.265354 0.285192
2754 4 0.357293 0.26358 0.290084
2554 2 0.387945 0.330649 0.278469
2556 4 0.386071 0.325465 0.254081
2555 4 0.389819 0.335833 0.302857
3403 2 0.00401688 0.393884 0.293838
3405 4 0.0174837 0.374497 0.285592
261 4 0.075443 0.383979 0.273977
3934 2 0.0638006 0.414199 0.257208
259 2 0.0834184 0.380334 0.297393
3936 4 0.0707141 0.390196 0.256101
260 4 0.0913938 0.376688 0.320808
594 4 0.102395 0.359828 0.327411
375 4 0.205272 0.353054 0.317972
1855 2 0.319054 0.4151 0.244343
570 4 0.38144 0.350807 0.315328
2825 4 0.018624 0.502976 0.285319
3989 4 0.0387131 0.433182 0.259212
2826 4 0.0606223 0.475836 0.285877
1676 4 0.0704157 0.462398 0.277806
2824 2 0.0396232 0.489406 0.285598
3404 4 0.99055 0.41327 0.302084
1675 2 0.091762 0.468928 0.266541
4025 4 0.128315 0.485405 0.261726
4024 2 0.148405 0.492274 0.274933
4026 4 0.168496 0.499142 0.288139
2532 4 0.195205 0.482598 0.32101
1418 4 0.176599 0.476494 0.314911
2530 2 0.218068 0.492652 0.322201
1857 4 0.317666 0.430335 0.264121
1187 4 0.322627 0.4359 0.282854
1186 2 0.33458 0.440308 0.304368
1188 4 0.346533 0.444717 0.325883
669 4 0.394894 0.461231 0.3328
667 2 0.419386 0.456572 0.334709
1437 4 0.496191 0.434306 0.3055
668 4 0.443878 0.451913 0.336617
1435 2 0.475083 0.44559 0.312734
1436 4 0.453975 0.456874 0.319967
3174 4 0.0142332 0.00990777 0.403641
1869 4 0.0044345 0.0530008 0.381303
424 2 0.0600694 0.0431577 0.335258
426 4 0.0806922 0.0298554 0.340047
842 4 0.0130401 0.0614256 0.396989
2645 4 0.0824073 0.024886 0.359362
2644 2 0.0993193 0.0217023 0.377501
2646 4 0.116231 0.0185186 0.39564
2663 4 0.135808 0.0195034 0.398833
2662 2 0.159056 0.0286647 0.397916
721 2 0.243743 0.0753545 0.325178
2664 4 0.182303 0.0378261 0.397
1967 4 0.200815 0.0405348 0.389902
722 4 0.218972 0.0785552 0.326343
1966 2 0.212552 0.049565 0.410048
723 4 0.268513 0.0721538 0.324013
1058 4 0.285321 0.0140506 0.347742
1349 4 0.309093 0.055208 0.376247
1348 2 0.291737 0.0635192 0.360283
4125 4 0.286404 0.0135883 0.415438
3395 4 0.354687 0.00650635 0.404822
618 4 0.364495 0.00884348 0.387586
708 4 0.404074 0.0513042 0.38484
617 4 0.407813 0.0326429 0.379976
616 2 0.386154 0.0207432 0.383781
706 2 0.422632 0.0659445 0.376688
707 4 0.44119 0.0805848 0.368536
3031 2 0.00134919 0.153038 0.383233
3033 4 0.0216073 0.141814 0.373809
2685 4 0.0381563 0.136456 0.382887
2683 2 0.0623916 0.142277 0.384878
635 4 0.158971 0.0979914 0.361249
636 4 0.138609 0.104309 0.406485
531 4 0.146735 0.104672 0.34774
634 2 0.14879 0.10115 0.383867
2684 4 0.0866269 0.148097 0.38687
765 4 0.101044 0.147071 0.400399
763 2 0.120493 0.162784 0.400497
514 2 0.220824 0.138857 0.3349
165 3 0.206124 0.0792084 0.341177
163 3 0.169601 0.0858704 0.347446
516 4 0.237546 0.14437 0.352652
161 1 0.190722 0.0953347 0.345799
162 3 0.195983 0.105313 0.365847
1350 4 0.27438 0.0718304 0.34432
2483 4 0.255327 0.155657 0.347428
2482 2 0.278353 0.164389 0.343099
683 4 0.325641 0.104713 0.415139
2713 2 0.400386 0.141772 0.388184
2715 4 0.378163 0.13034 0.388996
684 4 0.360165 0.122351 0.383551
682 2 0.342903 0.113532 0.399345
2714 4 0.422608 0.153205 0.387372
1953 4 0.480566 0.165874 0.367241
764 4 0.139942 0.178497 0.400594
2802 4 0.15716 0.168734 0.400179
7 3 0.242804 0.237024 0.36348
6 1 0.263344 0.232382 0.354221
10 3 0.271255 0.212877 0.362914
2957 4 0.334911 0.1899 0.399374
2956 2 0.350298 0.19678 0.380905
2958 4 0.365685 0.20366 0.362436
2180 4 0.380994 0.217865 0.359883
2179 2 0.385899 0.241787 0.365256
3080 4 0.336775 0.195764 0.418701
1951 2 0.482021 0.174457 0.390681
2955 4 0.435896 0.165906 0.382265
2954 4 0.431032 0.184784 0.336214
2953 2 0.433464 0.175345 0.359239
1952 4 0.483476 0.18304 0.41412
2699 4 0.0452089 0.309377 0.326739
478 2 0.0652867 0.318985 0.356807
480 4 0.0745174 0.313581 0.379408
2612 4 0.0234195 0.339686 0.348922
3462 4 0.0911942 0.309082 0.388132
3460 2 0.0923442 0.327697 0.404786
1035 4 0.16886 0.269002 0.406625
1034 4 0.182159 0.306126 0.375873
1033 2 0.17551 0.287564 0.391249
410 4 0.171298 0.319697 0.386537
9 3 0.277908 0.249748 0.35919
3317 4 0.324803 0.329753 0.412616
2181 4 0.390804 0.26571 0.370629
3316 2 0.338846 0.340922 0.395203
3056 4 0.460489 0.306692 0.41606
3055 2 0.484065 0.315012 0.415729
2611 2 0.000911061 0.35055 0.348193
593 4 0.126133 0.365268 0.371087
592 2 0.114264 0.362548 0.349249
411 4 0.143886 0.360669 0.37813
409 2 0.157592 0.340183 0.382333
568 2 0.368093 0.351309 0.336466
894 4 0.398046 0.364789 0.385802
3318 4 0.35289 0.35209 0.377789
569 4 0.354746 0.351812 0.357604
893 4 0.378109 0.398862 0.416499
892 2 0.388077 0.381825 0.40115
812 4 0.486845 0.363554 0.393239
1417 2 0.16198 0.491878 0.328132
4322 4 0.296687 0.485211 0.37335
2691 4 0.284135 0.494345 0.359996
4321 2 0.299713 0.461795 0.381579
447 4 0.301969 0.435972 0.409996
4323 4 0.302739 0.438379 0.389808
1802 4 0.341978 0.464393 0.332782
1803 4 0.388573 0.467239 0.350711
1801 2 0.365276 0.465816 0.341746
1644 4 0.393514 0.487901 0.41654
3797 4 0.0773639 0.0111353 0.443959
2901 4 0.0156682 0.0182927 0.421796
2899 2 0.0395594 0.020411 0.428859
2900 4 0.0634506 0.0225292 0.435922
3796 2 0.0985255 0.00207931 0.453723
1490 4 0.134552 0.992556 0.450069
1968 4 0.224289 0.0585952 0.430194
220 3 0.217765 0.0575166 0.478052
218 3 0.212052 0.0695557 0.442837
219 3 0.247263 0.0622591 0.455138
216 1 0.226293 0.0701697 0.461146
2501 4 0.241745 0.0515429 0.440144
2502 4 0.281566 0.0224095 0.432
2500 2 0.261656 0.0369762 0.436072
4551 4 0.310629 0.0675504 0.495217
4340 4 0.293582 0.0580189 0.490481
3396 4 0.356092 0.0210208 0.452657
88 3 0.357828 0.0083043 0.493738
90 3 0.369529 0.00656677 0.457992
3394 2 0.35539 0.0137636 0.428739
2580 4 0.0635989 0.0868269 0.442109
2891 4 0.0766066 0.0861867 0.427657
2578 2 0.0678917 0.100719 0.462451
2579 4 0.0721845 0.114611 0.482792
983 4 0.0563201 0.118853 0.495781
2892 4 0.123782 0.091921 0.412088
2890 2 0.100194 0.0890538 0.419873
217 3 0.22832 0.0919499 0.468263
2558 4 0.237327 0.100553 0.485294
2557 2 0.258968 0.113042 0.484355
2559 4 0.280609 0.125532 0.483416
1061 4 0.285336 0.128245 0.463736
1060 2 0.302978 0.120194 0.447952
1062 4 0.32062 0.112144 0.432168
939 4 0.24099 0.181239 0.462325
937 2 0.21744 0.182092 0.453967
2800 2 0.169894 0.167602 0.421668
2801 4 0.182627 0.166471 0.443157
938 4 0.19389 0.182945 0.44561
641 4 0.304797 0.161709 0.461872
3081 4 0.323736 0.166392 0.457016
642 4 0.258952 0.179215 0.471493
640 2 0.281874 0.170462 0.466682
3079 2 0.330256 0.181078 0.437858
2817 4 0.498859 0.19704 0.413021
3454 2 0.24486 0.330702 0.428949
3455 4 0.258993 0.310888 0.423216
585 4 0.263244 0.29202 0.417003
583 2 0.283944 0.280537 0.425057
2529 4 0.317879 0.261603 0.421486
584 4 0.304643 0.269054 0.433111
2527 2 0.337601 0.257558 0.436314
2528 4 0.357322 0.253513 0.451143
2494 2 0.398418 0.250418 0.442114
2496 4 0.375764 0.246873 0.452085
366 4 0.418087 0.272452 0.441314
2495 4 0.421072 0.253963 0.432142
364 2 0.435272 0.290299 0.437947
365 4 0.452458 0.308145 0.43458
3593 4 0.434741 0.34205 0.497442
4044 4 0.449781 0.332016 0.48858
311 4 0.0355209 0.335307 0.45316
310 2 0.0593059 0.338322 0.446062
312 4 0.0830909 0.341337 0.438963
3461 4 0.0934942 0.346311 0.421439
662 4 0.214331 0.360869 0.437876
661 2 0.201105 0.354748 0.458194
3456 4 0.230727 0.350516 0.434682
663 4 0.18788 0.348628 0.478512
2560 2 0.292642 0.409938 0.486401
2562 4 0.274414 0.412527 0.50332
446 4 0.317251 0.414659 0.452575
346 2 0.377324 0.387223 0.474944
347 4 0.399712 0.398186 0.476895
348 4 0.354937 0.37626 0.472992
811 2 0.478221 0.371186 0.415432
267 4 0.416709 0.406593 0.474313
265 2 0.43545 0.395267 0.462244
813 4 0.469597 0.378818 0.437626
266 4 0.454192 0.383941 0.450175
4042 2 0.472422 0.342358 0.486202
4043 4 0.495062 0.3527 0.483824
1173 4 0.0479847 0.466688 0.463024
1171 2 0.0252838 0.45839 0.469429
560 4 0.067257 0.467261 0.466769
2549 4 0.114764 0.419805 0.473076
559 2 0.0843198 0.482075 0.477473
1450 2 0.146886 0.441027 0.458233
1452 4 0.125735 0.436136 0.470639
3421 2 0.13778 0.498075 0.479775
3422 4 0.118491 0.486764 0.490964
561 4 0.101383 0.49689 0.488177
1451 4 0.168037 0.445918 0.445828
2927 4 0.182633 0.435251 0.452502
2926 2 0.199117 0.432563 0.471111
2928 4 0.2156 0.429876 0.489719
2561 4 0.31087 0.40735 0.469483
445 2 0.30961 0.425316 0.431286
2649 4 0.274574 0.463087 0.4972
2961 4 0.362878 0.481954 0.470943
4057 2 0.38137 0.465602 0.442319
4059 4 0.369204 0.463767 0.464087
4058 4 0.393535 0.467436 0.420551
2959 2 0.372712 0.485036 0.493723
2314 2 0.055666 0.0576815 0.558346
2316 4 0.039187 0.0403232 0.551114
2315 4 0.072145 0.0750398 0.565578
2553 4 0.144864 0.0591614 0.550848
2196 4 0.0897503 0.0794572 0.555503
2194 2 0.112135 0.0706387 0.562311
2195 4 0.134519 0.0618201 0.56912
2551 2 0.169674 0.0618346 0.552445
4326 4 0.181813 0.994256 0.520965
917 4 0.193513 0.0096182 0.518114
916 2 0.217776 0.0156341 0.517564
918 4 0.242039 0.02165 0.517015
2552 4 0.194483 0.0645077 0.554043
762 4 0.211088 0.0753284 0.557402
760 2 0.235433 0.080866 0.556049
1143 4 0.327366 0.0292378 0.53294
1141 2 0.334118 0.0132624 0.514929
4341 4 0.261666 0.0279802 0.514562
4339 2 0.277624 0.0429995 0.502522
4549 2 0.333378 0.07323 0.503904
2505 4 0.392152 0.0247536 0.500622
575 4 0.39653 0.00568611 0.498488
2504 4 0.371914 0.0703895 0.503547
2503 2 0.382033 0.0475715 0.502085
4550 4 0.356126 0.0789095 0.512591
574 2 0.41483 0.00417593 0.515459
3621 4 0.437946 0.00850056 0.552196
3619 2 0.459468 0.0205745 0.556222
3620 4 0.48099 0.0326485 0.560248
576 4 0.433129 0.00266576 0.532431
982 2 0.0417453 0.134261 0.509022
984 4 0.0271705 0.149669 0.522263
966 4 0.0727119 0.151695 0.576207
2175 4 0.0932729 0.150663 0.581404
319 2 0.202405 0.12659 0.526971
320 4 0.224517 0.114957 0.527929
3062 4 0.206959 0.143247 0.57665
321 4 0.180293 0.138223 0.526013
3236 4 0.180625 0.157843 0.518792
761 4 0.259778 0.0864036 0.554697
3021 4 0.264037 0.0989198 0.5706
3019 2 0.28091 0.117337 0.571745
3020 4 0.297782 0.135753 0.572891
1107 4 0.316856 0.136098 0.56468
2317 2 0.317835 0.154869 0.525308
2604 4 0.290417 0.172091 0.531812
2319 4 0.337789 0.154035 0.510264
1105 2 0.337389 0.137803 0.578847
2244 4 0.468317 0.0962319 0.577739
2242 2 0.448263 0.110499 0.582156
806 4 0.485 0.101801 0.568462
3386 4 0.414945 0.129296 0.571296
965 4 0.0794183 0.187786 0.542249
964 2 0.0760651 0.16974 0.559228
3326 4 0.0375082 0.166779 0.518338
3325 2 0.0383714 0.190418 0.510235
3419 4 0.0874837 0.224622 0.537766
3327 4 0.0392347 0.214058 0.502132
2322 4 0.0903575 0.205099 0.53481
2320 2 0.114532 0.198739 0.534255
2321 4 0.138707 0.192378 0.533701
3235 2 0.15947 0.171081 0.517256
3237 4 0.138314 0.18432 0.515719
3418 2 0.0908362 0.249258 0.535119
1283 4 0.18369 0.206902 0.559783
1282 2 0.207126 0.198701 0.556834
1284 4 0.230562 0.1905 0.553885
2603 4 0.244641 0.190054 0.5409
2318 4 0.29788 0.155702 0.540351
2602 2 0.267529 0.181073 0.536356
3498 4 0.318653 0.255137 0.500161
3496 2 0.326601 0.2329 0.508379
3497 4 0.334549 0.210663 0.516597
3420 4 0.0941886 0.273895 0.532472
890 4 0.112494 0.278725 0.537147
889 2 0.119206 0.301331 0.528834
891 4 0.125919 0.323936 0.52052
1239 4 0.142134 0.312575 0.515111
1237 2 0.158081 0.324373 0.499888
3445 2 0.0251219 0.374246 0.514304
3446 4 0.00125875 0.368763 0.509237
3447 4 0.048985 0.379728 0.519371
2721 4 0.0557997 0.386714 0.537765
2719 2 0.0728585 0.394916 0.554104
2720 4 0.0899174 0.403118 0.570442
906 4 0.0967635 0.337229 0.572332
3221 4 0.103102 0.415651 0.57869
84 3 0.115466 0.345985 0.576608
2847 4 0.223198 0.335427 0.530955
2845 2 0.234968 0.356278 0.53816
212 3 0.227885 0.386803 0.526156
211 1 0.222693 0.40915 0.527825
2846 4 0.246737 0.377129 0.545364
1238 4 0.174027 0.33617 0.484665
3044 4 0.2646 0.369252 0.548807
3043 2 0.287633 0.378578 0.551577
3045 4 0.310666 0.387904 0.554346
1641 4 0.329691 0.395155 0.553879
3594 4 0.38494 0.345922 0.495072
1639 2 0.346629 0.405272 0.538518
1640 4 0.363568 0.415388 0.523157
3592 2 0.40984 0.343986 0.496257
2550 4 0.106021 0.430767 0.521078
2548 2 0.110392 0.425286 0.497077
4177 2 0.105994 0.45477 0.553259
4178 4 0.115815 0.438678 0.536834
4179 4 0.0961723 0.470863 0.569683
3962 4 0.110408 0.482874 0.577281
214 3 0.240574 0.420301 0.537537
213 3 0.203772 0.411486 0.541052
1445 4 0.184859 0.414269 0.548096
215 3 0.218705 0.417499 0.507015
1444 2 0.179552 0.409324 0.572025
2648 4 0.234062 0.434629 0.50425
1488 4 0.289108 0.471031 0.510825
1486 2 0.302955 0.463988 0.530418
1487 4 0.316801 0.456945 0.550011
327 4 0.324067 0.452111 0.569445
2647 2 0.254318 0.448858 0.500725
325 2 0.343555 0.46588 0.576916
1442 4 0.376645 0.492984 0.578914
1911 4 0.377444 0.42774 0.516177
1909 2 0.397209 0.431285 0.531076
2960 4 0.382547 0.488117 0.516504
1441 2 0.385306 0.493717 0.55547
1910 4 0.416974 0.43483 0.545975
3453 4 0.432284 0.440653 0.534393
3451 2 0.456655 0.442638 0.529169
3452 4 0.481026 0.444623 0.523944
1698 4 0.492997 0.447383 0.53957
4369 2 0.131114 0.091952 0.661133
3308 4 0.210729 0.055329 0.611402
3309 4 0.207023 0.0361263 0.657427
3307 2 0.208876 0.0457277 0.634415
1817 4 0.278475 0.993238 0.624053
3049 2 0.263964 0.0140566 0.650053
3050 4 0.268998 0.0288959 0.669538
268 2 0.298081 0.056999 0.651456
269 4 0.316177 0.0717856 0.642564
270 4 0.279985 0.0422124 0.660348
3083 4 0.364853 0.0903523 0.616934
2283 4 0.426633 0.0837868 0.630939
2977 2 0.456208 0.074853 0.636873
2978 4 0.468845 0.0565864 0.648355
1086 4 0.486124 0.0523393 0.658421
3298 2 0.015419 0.122072 0.644265
3300 4 0.0349806 0.137641 0.643908
3360 4 0.0525621 0.130071 0.645795
3358 2 0.0749862 0.119986 0.650339
3003 4 0.152155 0.14955 0.617635
2174 4 0.137482 0.15362 0.60459
2173 2 0.115378 0.152141 0.592997
3359 4 0.0974103 0.109902 0.654882
4370 4 0.115733 0.111588 0.662883
3002 4 0.192226 0.15093 0.587749
3001 2 0.17219 0.15024 0.602692
3061 2 0.226665 0.15348 0.588144
3063 4 0.246372 0.163713 0.599639
3126 4 0.249597 0.151398 0.662126
3084 4 0.326854 0.0873521 0.649301
2281 2 0.402887 0.0802956 0.623931
2282 4 0.379141 0.0768045 0.616922
3082 2 0.345853 0.0888522 0.633118
3385 2 0.395141 0.13831 0.583614
3387 4 0.375336 0.147323 0.595931
1106 4 0.357921 0.139507 0.593014
2979 4 0.443572 0.0931196 0.625391
2243 4 0.428209 0.124766 0.586573
3124 2 0.254262 0.159441 0.638914
3125 4 0.258927 0.167483 0.615703
3239 4 0.0155466 0.275463 0.62991
3238 2 0.0394191 0.270062 0.624799
3240 4 0.0632915 0.26466 0.619688
3093 4 0.0790548 0.274789 0.613121
3091 2 0.102975 0.280647 0.617448
3092 4 0.126894 0.286505 0.621774
3435 4 0.140075 0.299503 0.615317
82 3 0.151151 0.335418 0.581863
3433 2 0.162829 0.291045 0.62131
383 4 0.193566 0.283202 0.645378
3434 4 0.185583 0.282587 0.627303
382 2 0.208193 0.27882 0.665178
3380 4 0.221363 0.32049 0.637178
1298 4 0.211056 0.332204 0.649931
905 4 0.0570521 0.355819 0.596375
904 2 0.0769078 0.346524 0.584353
83 3 0.141736 0.371458 0.586875
81 1 0.134569 0.349522 0.589296
85 3 0.130258 0.345131 0.611223
3220 2 0.123654 0.408211 0.590832
3222 4 0.144206 0.400772 0.602974
3491 4 0.153215 0.403662 0.619746
3490 2 0.175574 0.411146 0.628067
3379 2 0.24282 0.333054 0.634549
1297 2 0.1939 0.348745 0.657497
1040 4 0.264221 0.352458 0.614347
3381 4 0.264277 0.345619 0.631921
1039 2 0.289037 0.355152 0.615797
1041 4 0.313852 0.357846 0.617246
998 4 0.32812 0.346379 0.628414
999 4 0.370961 0.344334 0.654127
997 2 0.34954 0.345357 0.64127
3961 2 0.09885 0.49932 0.592152
1446 4 0.174246 0.404379 0.595953
3492 4 0.197933 0.418629 0.636388
3120 4 0.230659 0.492789 0.649586
4302 4 0.220228 0.47935 0.660698
3118 2 0.254649 0.485811 0.650565
3119 4 0.278639 0.478833 0.651543
1206 4 0.292383 0.49287 0.6559
4562 4 0.412087 0.500812 0.619906
326 4 0.363043 0.479648 0.584386
878 4 0.42836 0.435215 0.628422
877 2 0.428537 0.457073 0.640562
879 4 0.428715 0.478932 0.652701
1081 2 0.0185252 0.0540564 0.718106
1082 4 0.0430706 0.0578341 0.721011
1023 4 0.0585748 0.0715341 0.715797
4371 4 0.146494 0.0723158 0.659382
2255 4 0.160074 0.0778648 0.73803
4283 4 0.216756 0.018976 0.707141
4284 4 0.196716 0.0470825 0.670959
4282 2 0.206736 0.0330292 0.68905
1084 2 0.490453 0.0566093 0.682674
3357 4 0.493827 0.072915 0.722278
1085 4 0.494781 0.0608793 0.706927
1021 2 0.076737 0.0858821 0.725256
2254 2 0.137299 0.0880996 0.739335
1022 4 0.0948993 0.10023 0.734714
2256 4 0.114523 0.0983344 0.74064
1004 4 0.174586 0.0887265 0.732609
3008 4 0.231082 0.146663 0.670245
1003 2 0.190282 0.107029 0.72599
1005 4 0.205979 0.125332 0.719372
3007 2 0.227571 0.140412 0.694199
3009 4 0.224061 0.134161 0.718152
3145 2 0.272365 0.170241 0.744362
3441 4 0.404996 0.153742 0.729003
3439 2 0.383098 0.145183 0.737511
2628 4 0.424264 0.150118 0.727423
3355 2 0.483199 0.0942826 0.729738
2626 2 0.447212 0.142982 0.734327
2627 4 0.47016 0.135845 0.741232
3356 4 0.472571 0.11565 0.737199
954 4 0.130717 0.189301 0.743519
3293 4 0.125168 0.189955 0.72333
3292 2 0.109656 0.193348 0.704015