ITEM: TIMESTEP
973000
ITEM: NUMBER OF ATOMS
4590
ITEM: BOX BOUNDS xy xz yz pp pp pp
-9.9985700000000008e+00 1.9197254399999991e+01 9.1986843999999905e+00
-9.9985700000000008e+00 9.9985700000000008e+00 0.0000000000000000e+00
-9.9985700000000008e+00 9.9985700000000008e+00 0.0000000000000000e+00
ITEM: ATOMS id type xs ys zs
2678 4 0.206467 0.0330891 0.0801039
1374 4 0.220903 0.036002 0.0683345
1372 2 0.240863 0.0437194 0.0647415
1373 4 0.260823 0.0514368 0.0611485
2948 4 0.262582 0.0678562 0.0537665
2947 2 0.286644 0.0555467 0.042142
2949 4 0.310705 0.0432373 0.0305174
2465 4 0.329058 0.0269809 0.0317863
2464 2 0.334 0.00508704 0.0427197
1660 2 0.445676 0.0300649 0.0660998
1661 4 0.423801 0.0300477 0.0781956
1662 4 0.467551 0.0300821 0.054004
2886 4 0.46683 0.0312692 0.03389
1475 4 0.420497 0.0141571 0.0805742
2884 2 0.494276 0.0196294 0.0351767
828 4 0.0358702 0.14864 0.0116747
3413 4 0.049787 0.149179 0.0269169
2976 4 0.124972 0.0917527 0.034856
2974 2 0.130985 0.10343 0.05381
2975 4 0.136997 0.115106 0.072764
25 3 0.150145 0.121711 0.0830728
2660 4 0.224673 0.0970067 0.0713
2659 2 0.236489 0.11175 0.0634307
2661 4 0.248306 0.126494 0.0555614
3393 4 0.257102 0.135602 0.0431992
3391 2 0.275668 0.145017 0.0467001
3392 4 0.294234 0.154433 0.0502009
2709 4 0.420842 0.106621 0.070834
3412 2 0.057495 0.166848 0.0348053
3414 4 0.0652029 0.184517 0.0426937
3344 4 0.0813056 0.188717 0.0390037
3343 2 0.107745 0.184921 0.0400057
3345 4 0.134185 0.181125 0.0410077
2882 4 0.149549 0.186636 0.0444112
2881 2 0.163468 0.198598 0.0341701
2883 4 0.177387 0.210561 0.0239289
770 4 0.190369 0.194217 0.0118749
465 4 0.328416 0.20851 0.00930692
360 4 0.334816 0.22467 0.0103119
358 2 0.35579 0.223798 0.0244963
282 4 0.383078 0.215478 0.0572823
359 4 0.376764 0.222925 0.0386807
280 2 0.403942 0.209623 0.0734291
2875 2 0.451638 0.226191 0.0755238
2877 4 0.465218 0.23887 0.0661651
2718 4 0.476783 0.247315 0.0569662
2652 4 0.487704 0.210641 0.0443534
2716 2 0.499228 0.243482 0.0704857
3242 4 0.00842744 0.262738 0.043971
3241 2 0.033844 0.261584 0.0461064
3243 4 0.0592606 0.260429 0.0482417
3284 4 0.0723043 0.269456 0.0510648
3283 2 0.0966562 0.270318 0.0545244
3285 4 0.121008 0.271179 0.0579839
3216 4 0.101872 0.32318 0.0498716
3214 2 0.122392 0.314076 0.033272
3215 4 0.142912 0.304971 0.0166724
2843 4 0.142559 0.266477 0.0525212
2842 2 0.163024 0.271469 0.0615868
2844 4 0.183488 0.276462 0.0706524
2784 4 0.203631 0.275584 0.0713019
2782 2 0.228967 0.271637 0.0788106
308 4 0.471121 0.296745 0.0152164
307 2 0.491294 0.303815 0.0203587
595 2 0.020549 0.406581 0.019299
597 4 0.043047 0.397657 0.0336949
1104 4 0.0482044 0.387817 0.0521464
1102 2 0.0752804 0.378499 0.0565028
1103 4 0.102357 0.369181 0.0608592
2772 4 0.119791 0.37304 0.0646985
2770 2 0.137763 0.383244 0.0674106
2771 4 0.155735 0.393447 0.0701228
2522 4 0.171185 0.378787 0.0799416
2521 2 0.19387 0.382969 0.0785077
4303 2 0.228229 0.365707 0.00193286
2523 4 0.216556 0.387152 0.0770738
4304 4 0.244147 0.37577 0.012017
3339 4 0.238584 0.375093 0.0758815
3337 2 0.241393 0.381073 0.0522487
3338 4 0.244201 0.387054 0.0286159
1590 4 0.0115446 0.464357 0.0633435
3443 4 0.130907 0.471419 0.00443363
4188 4 0.135933 0.469767 0.0233756
4186 2 0.16078 0.468325 0.0295583
4187 4 0.185627 0.466884 0.0357409
2582 4 0.191647 0.481312 0.0410128
2581 2 0.215076 0.481509 0.0325296
2583 4 0.238506 0.481706 0.0240463
2912 4 0.246903 0.491749 0.0117471
902 4 0.344639 0.433424 0.0846026
2911 2 0.270774 0.490619 0.00288062
901 2 0.350353 0.453465 0.0838691
2445 4 0.434626 0.462215 0.0674955
903 4 0.356066 0.473507 0.0831355
2443 2 0.458815 0.447897 0.0779983
2702 4 0.0484825 0.00417325 0.122263
2745 4 0.0359861 0.000477294 0.107232
2701 2 0.0704301 0.00921603 0.118967
2781 4 0.108585 0.0198307 0.121049
2779 2 0.124237 0.0240322 0.103777
2780 4 0.139889 0.0282337 0.0865052
2703 4 0.0923777 0.0142588 0.115672
2677 2 0.181305 0.0338197 0.082995
2679 4 0.156144 0.0345503 0.0858861
1565 4 0.173487 0.07004 0.153162
1564 2 0.199957 0.0554516 0.14848
1566 4 0.226426 0.0408632 0.143798
1479 4 0.247746 0.0330646 0.13985
1477 2 0.269765 0.0366568 0.132643
1478 4 0.291784 0.040249 0.125436
744 4 0.310028 0.0464814 0.125391
742 2 0.33263 0.0508047 0.12405
743 4 0.355232 0.055128 0.122708
3810 4 0.36874 0.0658866 0.122087
1476 4 0.384383 0.0115774 0.113781
3808 2 0.393384 0.0651766 0.12786
1474 2 0.40244 0.0128672 0.0971777
3809 4 0.418028 0.0644665 0.133632
2519 4 0.42985 0.0743771 0.133633
2518 2 0.456116 0.0684034 0.139666
2520 4 0.482382 0.0624297 0.145698
723 4 0.498002 0.0588287 0.130294
556 2 0.0291098 0.11286 0.0944517
557 4 0.0120233 0.103133 0.0863472
558 4 0.0461962 0.122588 0.102556
654 4 0.0656836 0.12355 0.10542
652 2 0.0832471 0.134284 0.103501
653 4 0.100811 0.145018 0.101581
22 3 0.120404 0.145134 0.105085
24 3 0.154673 0.119076 0.120485
21 1 0.145439 0.133535 0.102523
23 3 0.15607 0.148659 0.101935
2894 4 0.174922 0.151378 0.104909
1749 4 0.204974 0.114164 0.160797
2893 2 0.201563 0.14615 0.108143
2895 4 0.228204 0.140922 0.111378
2600 4 0.249523 0.133079 0.113269
2599 2 0.269229 0.141335 0.111128
2601 4 0.288936 0.149591 0.108988
378 4 0.306756 0.148824 0.117958
376 2 0.327255 0.153251 0.127843
377 4 0.347755 0.157679 0.137728
2707 2 0.418811 0.116579 0.0936267
2708 4 0.416781 0.126536 0.11642
630 4 0.416844 0.167919 0.146088
629 4 0.372257 0.167138 0.124179
628 2 0.39455 0.167529 0.135134
332 4 0.437272 0.165895 0.150596
281 4 0.424806 0.203767 0.0895759
2876 4 0.438057 0.213511 0.0848824
331 2 0.458953 0.167168 0.1619
836 4 0.450194 0.218261 0.162594
506 4 0.432769 0.236479 0.165049
835 2 0.474176 0.215451 0.152471
837 4 0.498158 0.212641 0.142348
2783 4 0.254303 0.267691 0.0863194
252 4 0.0582849 0.366807 0.16829
287 4 0.0745343 0.370284 0.162887
296 4 0.126739 0.396317 0.165311
286 2 0.0909842 0.38224 0.163536
295 2 0.154093 0.387878 0.167055
3404 4 0.494342 0.397108 0.150102
1861 2 0.0150944 0.47465 0.130307
1862 4 0.0375404 0.45567 0.121543
1787 4 0.0480659 0.476476 0.14544
1742 4 0.0730409 0.430476 0.106982
1743 4 0.12546 0.42301 0.113725
1786 2 0.0607267 0.491837 0.145761
1741 2 0.0992505 0.426743 0.110354
74 3 0.162931 0.483047 0.0848715
1424 4 0.123876 0.449569 0.160721
2093 4 0.13761 0.431992 0.12023
2092 2 0.156511 0.441227 0.122224
72 3 0.164949 0.469973 0.119883
71 1 0.166159 0.486918 0.107195
2094 4 0.175413 0.450462 0.124218
2919 4 0.180522 0.443614 0.142819
2917 2 0.188596 0.455509 0.160146
73 3 0.189056 0.487148 0.110227
1440 4 0.354894 0.495511 0.120441
2514 4 0.426776 0.467187 0.0863519
739 2 0.395848 0.470027 0.14921
2513 4 0.375552 0.471196 0.0931603
2512 2 0.401164 0.469192 0.0897561
741 4 0.397276 0.485272 0.131278
2444 4 0.483004 0.43358 0.0885012
2757 4 0.0161464 0.0400876 0.226013
2738 4 0.0316504 0.0415025 0.214314
2737 2 0.055305 0.0402256 0.204751
2739 4 0.0789595 0.0389487 0.195188
687 4 0.0962335 0.03031 0.209723
685 2 0.120634 0.0315383 0.209088
405 4 0.115304 0.0818857 0.233329
686 4 0.145035 0.0327666 0.208453
3678 4 0.16198 0.0379674 0.21414
3676 2 0.183147 0.0441185 0.217535
3677 4 0.204314 0.0502696 0.220929
179 3 0.214912 0.0633335 0.2168
176 1 0.23532 0.0682601 0.216758
180 3 0.2356 0.0795358 0.197742
177 3 0.234052 0.0814186 0.235009
178 3 0.256692 0.0486765 0.218182
2573 4 0.274977 0.0480581 0.209557
2572 2 0.301375 0.0406093 0.203078
2574 4 0.327774 0.0331605 0.1966
1506 4 0.333024 0.0464037 0.205245
1504 2 0.35775 0.0454838 0.199439
1505 4 0.382476 0.0445638 0.193633
255 4 0.396358 0.044562 0.208823
253 2 0.405866 0.0619037 0.204494
254 4 0.415374 0.0792453 0.200165
125 3 0.483007 0.0510523 0.230892
121 1 0.493621 0.0315438 0.242528
122 3 0.49491 0.0141223 0.229095
248 4 0.0555525 0.0800709 0.223183
247 2 0.0785018 0.0837267 0.220919
731 4 0.0327629 0.134604 0.228766
606 4 0.0501037 0.132526 0.238349
730 2 0.0439158 0.138265 0.207624
732 4 0.0550687 0.141925 0.186482
581 4 0.0703776 0.138024 0.172254
249 4 0.101451 0.0873826 0.218655
580 2 0.0942325 0.140259 0.173267
2180 4 0.19302 0.105969 0.169819
582 4 0.118087 0.142493 0.17428
750 4 0.124694 0.157385 0.182128
403 2 0.129165 0.0928561 0.221191
2181 4 0.1477 0.104402 0.189275
404 4 0.143027 0.103827 0.209053
748 2 0.147286 0.161607 0.184452
2179 2 0.17036 0.105186 0.179547
1748 4 0.249721 0.0797483 0.18271
749 4 0.169879 0.16583 0.186776
457 2 0.215747 0.161313 0.179587
1747 2 0.227347 0.0969561 0.171754
458 4 0.240634 0.160919 0.175763
459 4 0.190859 0.161708 0.183411
236 4 0.303554 0.16471 0.192525
579 4 0.323712 0.161097 0.188853
631 2 0.397982 0.118358 0.22995
632 4 0.396674 0.118139 0.204987
522 4 0.431866 0.0978106 0.185837
577 2 0.34367 0.166136 0.178677
520 2 0.454349 0.102286 0.187531
521 4 0.476832 0.106761 0.189225
698 4 0.492633 0.109137 0.178415
387 4 0.223311 0.218833 0.204677
235 2 0.277763 0.168124 0.187339
237 4 0.251972 0.171538 0.182154
385 2 0.247801 0.219898 0.204498
386 4 0.272292 0.220963 0.204319
276 4 0.290086 0.223743 0.211955
578 4 0.363629 0.171175 0.168501
274 2 0.314843 0.224268 0.211793
275 4 0.339599 0.224792 0.211631
497 4 0.350642 0.235036 0.218934
496 2 0.367715 0.230538 0.199445
505 2 0.417676 0.223817 0.170273
333 4 0.480633 0.168441 0.173205
507 4 0.402582 0.211154 0.175496
498 4 0.384788 0.226041 0.179956
2516 4 0.497688 0.173542 0.177288
3572 4 0.0239727 0.274226 0.243666
2526 4 0.0398489 0.278841 0.250353
2524 2 0.0577606 0.279501 0.233237
2525 4 0.0756722 0.280161 0.216121
2462 4 0.0961909 0.27618 0.210733
2461 2 0.109934 0.28843 0.200751
2463 4 0.123677 0.30068 0.19077
2592 4 0.238036 0.291756 0.240747
2590 2 0.212208 0.302774 0.249279
611 4 0.258962 0.282101 0.24664
610 2 0.27175 0.297356 0.246185
612 4 0.284538 0.312611 0.245731
1056 4 0.394744 0.32672 0.232445
1054 2 0.378061 0.318827 0.244703
2706 4 0.488815 0.314202 0.186036
350 4 0.00815263 0.34102 0.182389
251 4 0.0254108 0.345846 0.184221
250 2 0.0418478 0.356326 0.176256
1437 4 0.0563563 0.389415 0.216741
681 4 0.0601941 0.405185 0.216427
288 4 0.107434 0.394197 0.164185
1435 2 0.0825747 0.374114 0.221556
1436 4 0.108793 0.358814 0.226371
645 4 0.115386 0.375347 0.226734
643 2 0.126579 0.381409 0.246558
297 4 0.181447 0.379438 0.168799
2571 4 0.193485 0.390018 0.171195
2569 2 0.206607 0.395856 0.189667
2570 4 0.219729 0.401694 0.208139
2969 4 0.239522 0.388855 0.214883
2968 2 0.265399 0.371422 0.213344
2970 4 0.291276 0.353989 0.211806
729 4 0.304675 0.363255 0.213323
727 2 0.331133 0.359298 0.21174
728 4 0.357591 0.35534 0.210156
2538 4 0.376963 0.338342 0.207803
2536 2 0.390188 0.350093 0.195972
4007 4 0.450858 0.384062 0.16498
2537 4 0.403414 0.361843 0.18414
4008 4 0.407392 0.378326 0.183479
4006 2 0.429125 0.381194 0.17423
3817 2 0.396545 0.404222 0.249376
3819 4 0.393994 0.416507 0.227821
588 4 0.399495 0.413448 0.208042
679 2 0.0434442 0.427186 0.226287
680 4 0.0266944 0.449186 0.236146
363 4 0.0187906 0.465925 0.246584
1425 4 0.114461 0.447026 0.209528
1423 2 0.119169 0.448297 0.185124
1665 4 0.125516 0.455897 0.220634
1663 2 0.135303 0.461695 0.241526
677 4 0.189385 0.485278 0.18629
2918 4 0.196669 0.467403 0.177474
740 4 0.394421 0.454783 0.167142
587 4 0.378104 0.453084 0.177716
586 2 0.388799 0.433266 0.192879
2714 4 0.00665404 0.0563167 0.330489
2733 4 0.278451 0.0341131 0.282982
2731 2 0.300272 0.0378306 0.275389
2732 4 0.322093 0.0415481 0.267797
2547 4 0.343288 0.0327428 0.263333
2545 2 0.367384 0.0329822 0.257074
2546 4 0.39148 0.0332215 0.250814
3722 4 0.409839 0.0343004 0.258176
3721 2 0.433756 0.0364382 0.258965
3723 4 0.457672 0.0385761 0.259755
123 3 0.479568 0.0323094 0.261238
604 2 0.0678564 0.129998 0.256884
605 4 0.0856091 0.12747 0.27542
546 4 0.0580341 0.157332 0.317437
30 3 0.0744808 0.162011 0.311167
544 2 0.0369068 0.154519 0.32814
29 3 0.0894613 0.143918 0.278826
26 1 0.0884997 0.161024 0.292901
27 3 0.112006 0.156809 0.299699
2837 4 0.290874 0.159669 0.252681
633 4 0.399291 0.118577 0.254913
2879 4 0.397327 0.132998 0.268672
2878 2 0.422856 0.129671 0.274853
2880 4 0.448384 0.126344 0.281035
420 4 0.454995 0.13894 0.28949
418 2 0.458489 0.15824 0.279506
28 3 0.0787092 0.181274 0.281582
414 4 0.176347 0.231776 0.312711
412 2 0.201736 0.227523 0.305098
2836 2 0.304541 0.17343 0.258676
413 4 0.227126 0.22327 0.297484
2838 4 0.318207 0.187191 0.264672
419 4 0.461983 0.177539 0.269522
3571 2 0.0105408 0.262474 0.255163
2591 4 0.18638 0.313792 0.257811
2541 4 0.295834 0.305814 0.263637
2539 2 0.317582 0.311216 0.260679
2540 4 0.33933 0.316619 0.257722
1055 4 0.361378 0.310935 0.256961
3632 4 0.400111 0.280764 0.324898
3631 2 0.398233 0.302747 0.316288
3633 4 0.396355 0.32473 0.307678
1951 2 0.015899 0.340711 0.304819
1952 4 0.0356126 0.347342 0.312759
3602 4 0.0165035 0.406213 0.292254
3601 2 0.0365032 0.412962 0.299025
2682 4 0.0456473 0.348539 0.330239
753 4 0.0790923 0.411208 0.305176
751 2 0.104216 0.40344 0.295154
752 4 0.129339 0.395672 0.285132
644 4 0.137771 0.38747 0.266382
4 3 0.145293 0.397239 0.297534
3 3 0.160276 0.386274 0.262528
2 3 0.179117 0.365311 0.292338
1 1 0.166461 0.386874 0.284806
5 3 0.180998 0.398103 0.286884
1575 4 0.201086 0.397903 0.288634
2450 4 0.222711 0.350896 0.323378
2449 2 0.248299 0.345682 0.331141
1573 2 0.220866 0.405954 0.291621
1574 4 0.240646 0.414004 0.294608
543 4 0.262111 0.410969 0.298073
541 2 0.284002 0.414138 0.289707
2495 4 0.319118 0.361096 0.312378
366 4 0.333242 0.367445 0.302283
364 2 0.360539 0.354945 0.300131
365 4 0.387836 0.342444 0.29798
542 4 0.305893 0.417306 0.281341
245 4 0.323123 0.411621 0.292719
3818 4 0.399096 0.391937 0.270932
3603 4 0.0565028 0.419711 0.305795
1386 4 0.0790324 0.440415 0.290385
1384 2 0.0744003 0.46063 0.276428
1385 4 0.0697681 0.480845 0.262472
547 2 0.128113 0.471358 0.324606
264 4 0.132721 0.4804 0.276925
548 4 0.132599 0.491419 0.318719
1664 4 0.14509 0.467494 0.262417
3959 4 0.166342 0.464075 0.264903
3958 2 0.186401 0.47192 0.266769
549 4 0.123627 0.451297 0.330492
3960 4 0.206461 0.479764 0.268635
500 4 0.227245 0.47679 0.273547
499 2 0.248316 0.483364 0.274723
501 4 0.269388 0.489938 0.275898
230 4 0.336038 0.496319 0.266983
231 4 0.287438 0.493811 0.271341
229 2 0.311738 0.495065 0.269162
244 2 0.341799 0.4165 0.305514
246 4 0.360476 0.421378 0.318308
669 4 0.378474 0.424905 0.319386
667 2 0.387779 0.437035 0.303371
668 4 0.397085 0.449165 0.287356
2713 2 0.0312171 0.0563259 0.33514
599 4 0.00803608 0.0109032 0.383301
2715 4 0.0557801 0.056335 0.339791
3477 4 0.072794 0.0624649 0.342029
3475 2 0.0967923 0.0643343 0.340089
3476 4 0.120791 0.0662037 0.33815
2645 4 0.102458 0.0579879 0.402065
2644 2 0.12591 0.0605464 0.405538
1244 4 0.137077 0.0707076 0.345394
1243 2 0.158062 0.0773497 0.347161
1245 4 0.179048 0.0839919 0.348928
2667 4 0.199436 0.084281 0.346639
2646 4 0.149362 0.0631048 0.409011
4123 2 0.281905 0.022541 0.36738
4125 4 0.256771 0.0228639 0.36647
4124 4 0.307039 0.0222181 0.36829
1496 4 0.328518 0.0199321 0.365408
1495 2 0.349815 0.0257613 0.369437
1497 4 0.371112 0.0315906 0.373466
1185 4 0.387372 0.0354381 0.381393
1183 2 0.409399 0.0400809 0.385843
1184 4 0.431426 0.0447237 0.390292
2114 4 0.449939 0.0497077 0.389723
2113 2 0.472326 0.0542419 0.392115
2115 4 0.494713 0.0587761 0.394507
531 4 0.00174819 0.143617 0.342098
424 2 0.0176356 0.0959084 0.376364
425 4 0.0399632 0.10043 0.379365
545 4 0.0157794 0.151706 0.338843
2916 4 0.0568192 0.106148 0.377859
2914 2 0.0814199 0.106904 0.379334
2915 4 0.106021 0.107661 0.38081
2936 4 0.123343 0.111522 0.382659
2935 2 0.1451 0.116081 0.388606
2937 4 0.166857 0.12064 0.394553
2664 4 0.187974 0.121391 0.396436
2665 2 0.220186 0.088734 0.355892
2662 2 0.209714 0.126818 0.399317
2666 4 0.240935 0.093187 0.365146
2663 4 0.231455 0.132246 0.402197
1377 4 0.260567 0.0936016 0.362291
2658 4 0.247633 0.137178 0.406923
2656 2 0.268294 0.144146 0.409577
1375 2 0.283449 0.0975127 0.363131
2657 4 0.288955 0.151114 0.41223
1376 4 0.306332 0.101424 0.363971
2870 4 0.325726 0.103846 0.365904
1035 4 0.298544 0.163126 0.409215
2869 2 0.351107 0.10292 0.364652
2871 4 0.376488 0.101994 0.363401
1524 4 0.394024 0.106188 0.365186
1522 2 0.415431 0.110532 0.372836
1059 4 0.499004 0.121246 0.395632
1523 4 0.436838 0.114875 0.380485
1058 4 0.455504 0.110801 0.387992
1057 2 0.477254 0.116024 0.391812
1033 2 0.310928 0.178523 0.406187
1034 4 0.323312 0.19392 0.403159
2612 4 0.468726 0.186649 0.369963
2611 2 0.487035 0.19656 0.371963
635 4 0.0396046 0.253977 0.37363
634 2 0.0131928 0.257872 0.371669
2764 2 0.19673 0.274093 0.375152
2766 4 0.190205 0.286585 0.396798
2765 4 0.203255 0.261601 0.353507
304 2 0.494514 0.262673 0.394786
510 4 0.478019 0.315076 0.374291
508 2 0.496891 0.324374 0.372609
2680 2 0.0686572 0.349469 0.338898
2621 4 0.108885 0.334798 0.339054
2681 4 0.0916671 0.350399 0.347558
2620 2 0.128337 0.343338 0.341418
2622 4 0.147789 0.351878 0.343782
2852 4 0.211671 0.343641 0.334974
2853 4 0.159076 0.362543 0.349678
2851 2 0.185373 0.353092 0.342326
2494 2 0.317782 0.358025 0.337039
2451 4 0.273886 0.340467 0.338904
2496 4 0.316447 0.354954 0.361701
2957 4 0.31723 0.356153 0.382667
2956 2 0.309028 0.379962 0.389788
2958 4 0.300826 0.403772 0.396909
3422 4 0.351357 0.409621 0.383771
3421 2 0.377133 0.403315 0.375889
3423 4 0.402909 0.397009 0.368007
3642 4 0.413918 0.406516 0.374217
3582 4 0.0814576 0.454705 0.386381
2588 4 0.0727213 0.465665 0.402757
3580 2 0.0953022 0.452049 0.364961
3581 4 0.109147 0.449393 0.343542
2648 4 0.168087 0.471595 0.414115
2927 4 0.305465 0.417671 0.408049
3640 2 0.429115 0.419157 0.379103
3641 4 0.444312 0.431799 0.383989
2712 4 0.454096 0.443184 0.390005
2710 2 0.477673 0.445389 0.386051
842 4 0.00836079 0.063641 0.483818
841 2 0.0306633 0.0680291 0.480021
843 4 0.0529659 0.0724173 0.476224
3747 4 0.0721945 0.0720407 0.478617
3745 2 0.0914218 0.0804248 0.48331
3797 4 0.166382 0.0647954 0.4186
3796 2 0.186329 0.0714753 0.425716
1182 4 0.203148 0.0305309 0.490029
2456 4 0.204541 0.0444882 0.501836
3798 4 0.206277 0.0781552 0.432832
2455 2 0.219932 0.0544043 0.49049
2457 4 0.235323 0.0643204 0.479143
218 3 0.255809 0.0503535 0.43418
219 3 0.244288 0.0728317 0.464803
216 1 0.245731 0.0723265 0.441636
220 3 0.222897 0.0835937 0.432685
4238 4 0.343065 0.0746659 0.42276
4237 2 0.369583 0.0701034 0.425603
4239 4 0.3961 0.0655409 0.428447
2504 4 0.406623 0.0771797 0.42757
3746 4 0.110649 0.0888089 0.488003
2489 4 0.126235 0.0967063 0.487666
2488 2 0.144572 0.106546 0.490046
2490 4 0.162908 0.116385 0.492427
87 3 0.18107 0.121371 0.493597
217 3 0.260674 0.0824078 0.434992
899 4 0.210354 0.156989 0.417621
90 3 0.213553 0.129677 0.491162
641 4 0.212112 0.148139 0.43494
640 2 0.221178 0.139839 0.457934
642 4 0.230244 0.131538 0.480929
321 4 0.245752 0.137072 0.485707
2558 4 0.276936 0.0887747 0.433846
984 4 0.332759 0.106369 0.424066
319 2 0.268008 0.141807 0.488104
2557 2 0.300803 0.0900163 0.428707
2559 4 0.324671 0.0912579 0.423568
320 4 0.290264 0.146542 0.490501
9 3 0.302203 0.157597 0.492242
982 2 0.331981 0.128822 0.429529
983 4 0.331202 0.151275 0.434992
10 3 0.338051 0.160446 0.486875
762 4 0.415601 0.105842 0.49605
368 4 0.354922 0.143022 0.481591
367 2 0.376143 0.149413 0.480831
2503 2 0.405171 0.100318 0.425266
2505 4 0.403718 0.123457 0.422961
369 4 0.397365 0.155805 0.480071
725 4 0.418216 0.128852 0.431574
761 4 0.467568 0.0901776 0.480184
3172 2 0.498547 0.100075 0.473426
3173 4 0.472416 0.103425 0.470375
760 2 0.441584 0.09801 0.488117
724 2 0.429948 0.144946 0.431385
726 4 0.441679 0.16104 0.431195
2602 2 0.166378 0.198752 0.469839
900 4 0.181339 0.205235 0.428868
2603 4 0.170447 0.203593 0.44613
898 2 0.195847 0.181112 0.423245
3081 4 0.15111 0.246195 0.475604
3498 4 0.172514 0.241395 0.474361
2604 4 0.162309 0.193911 0.493548
6 1 0.313106 0.171488 0.485428
7 3 0.306608 0.177716 0.463584
8 3 0.304891 0.190535 0.498668
474 4 0.459761 0.164485 0.430286
472 2 0.476343 0.17527 0.436978
473 4 0.492925 0.186054 0.44367
2925 4 0.00761801 0.281795 0.487016
2923 2 0.0167779 0.295514 0.472957
2924 4 0.0259377 0.309233 0.458898
873 4 0.0449586 0.311935 0.456155
3080 4 0.0978833 0.275432 0.483583
871 2 0.071514 0.298643 0.461692
872 4 0.0980695 0.285351 0.467228
3496 2 0.18704 0.250983 0.487577
3079 2 0.124496 0.260813 0.479594
266 4 0.340535 0.317082 0.468977
265 2 0.360934 0.324525 0.470477
267 4 0.381334 0.331969 0.471976
890 4 0.395797 0.316064 0.480054
889 2 0.41238 0.325186 0.490551
306 4 0.491505 0.271421 0.418187
811 2 0.460484 0.320717 0.461152
812 4 0.451867 0.304069 0.452033
592 2 0.00556641 0.404987 0.444041
593 4 0.0266392 0.411598 0.443977
3318 4 0.0447936 0.415151 0.44056
3056 4 0.272854 0.365034 0.433823
3055 2 0.26306 0.367231 0.457129
3332 4 0.270937 0.352607 0.486638
3057 4 0.253267 0.369427 0.480436
2928 4 0.299293 0.410802 0.456695
2926 2 0.302379 0.414237 0.432372
3452 4 0.313406 0.396654 0.467487
3451 2 0.314817 0.405716 0.490113
260 4 0.363788 0.36729 0.49666
259 2 0.374754 0.379788 0.482891
261 4 0.385721 0.392286 0.469122
2846 4 0.407609 0.38714 0.464348
2845 2 0.417852 0.402431 0.454713
813 4 0.4691 0.337365 0.470272
2511 4 0.480114 0.347819 0.463881
891 4 0.428963 0.334308 0.501049
2510 4 0.503274 0.380104 0.460203
2509 2 0.491694 0.363961 0.462042
3316 2 0.0658852 0.421221 0.444792
2587 2 0.0747048 0.471159 0.426729
3317 4 0.0869769 0.427291 0.449025
2589 4 0.0766883 0.476653 0.450701
601 2 0.0776555 0.492854 0.483291
602 4 0.0926141 0.476428 0.465954
3962 4 0.103737 0.429039 0.456908
3961 2 0.122173 0.438906 0.456873
4177 2 0.175463 0.44955 0.460185
4179 4 0.161431 0.435355 0.459228
3963 4 0.140609 0.448773 0.456837
2647 2 0.167981 0.493449 0.421093
4178 4 0.189495 0.463745 0.461142
1697 4 0.211876 0.457757 0.462476
1698 4 0.242182 0.453833 0.421574
1696 2 0.227029 0.455795 0.442025
2847 4 0.428095 0.417723 0.445078
561 4 0.485982 0.499585 0.501892
3049 2 0.0179851 0.0763239 0.537649
3050 4 0.0382099 0.056377 0.547907
3105 4 0.0389936 0.0551599 0.567814
3123 4 0.111745 0.00944613 0.574721
1180 2 0.189539 0.0247022 0.508081
1181 4 0.175931 0.0188735 0.526132
3394 2 0.283296 0.0425576 0.550408
3396 4 0.288535 0.0307805 0.528353
3395 4 0.278058 0.0543346 0.572464
3180 4 0.271744 0.074894 0.576726
3852 4 0.34954 0.0336121 0.523378
3850 2 0.367484 0.0440021 0.524323
3360 4 0.396958 0.013351 0.569606
3851 4 0.385427 0.0543921 0.525269
3326 4 0.405569 0.0430641 0.531292
3325 2 0.424156 0.0521936 0.526535
3327 4 0.442743 0.061323 0.521778
944 4 0.45636 0.0686389 0.532436
943 2 0.477074 0.0757264 0.532044
88 3 0.190187 0.138676 0.522259
86 1 0.200022 0.123056 0.505306
89 3 0.214697 0.102323 0.51437
575 4 0.235496 0.0941973 0.519522
574 2 0.258348 0.0981814 0.519453
576 4 0.281199 0.102166 0.519384
2196 4 0.288803 0.104826 0.502078
2194 2 0.316016 0.0975323 0.503733
2195 4 0.34323 0.0902387 0.505389
2553 4 0.350326 0.10218 0.51503
2551 2 0.374858 0.102399 0.510749
2552 4 0.399391 0.102618 0.506467
945 4 0.497789 0.0828139 0.531653
1284 4 0.0714747 0.230435 0.580659
1106 4 0.0870919 0.236285 0.574376
1105 2 0.109972 0.240213 0.574905
2962 2 0.14855 0.196876 0.527955
2963 4 0.149028 0.184911 0.549327
2964 4 0.148073 0.208841 0.506583
2814 4 0.157438 0.17605 0.566438
1107 4 0.132853 0.244141 0.575435
2812 2 0.180457 0.1742 0.577856
2810 4 0.211783 0.240962 0.507045
1076 4 0.151181 0.246898 0.581663
2811 4 0.25868 0.223179 0.533227
2809 2 0.235232 0.23207 0.520136
1211 4 0.28705 0.172626 0.575912
1280 4 0.019149 0.311793 0.569186
1279 2 0.0337476 0.325461 0.567726
3497 4 0.201567 0.260571 0.500793
3237 4 0.357573 0.256003 0.554703
3235 2 0.340484 0.256582 0.573192
1281 4 0.0483462 0.33913 0.566267
348 4 0.0667195 0.340855 0.574575
84 3 0.223075 0.356266 0.574753
772 2 0.172106 0.392493 0.509466
82 3 0.187523 0.38586 0.582204
2244 4 0.232866 0.365073 0.586429
773 4 0.176182 0.370133 0.500158
3331 2 0.289987 0.349306 0.504158
3333 4 0.309037 0.346005 0.521677
2636 4 0.329975 0.34148 0.515971
2635 2 0.342861 0.35665 0.515275
2637 4 0.355747 0.371819 0.514579
3453 4 0.316228 0.414777 0.512739
1239 4 0.442241 0.343165 0.503768
1237 2 0.461897 0.351027 0.50843
1238 4 0.481554 0.358889 0.513091
1137 4 0.497837 0.404526 0.57854
774 4 0.16803 0.414853 0.518774
2171 4 0.172718 0.494955 0.559992
1910 4 0.178487 0.426116 0.523762
1909 2 0.194289 0.437055 0.532216
1911 4 0.210091 0.447995 0.54067
3072 4 0.220369 0.451778 0.555734
3070 2 0.243991 0.452187 0.563357
3071 4 0.267612 0.452596 0.570979
791 4 0.274827 0.453172 0.552283
790 2 0.295441 0.442677 0.535979
792 4 0.316055 0.432182 0.519675
3120 4 0.410307 0.47642 0.541907
3118 2 0.422984 0.465084 0.562907
4130 4 0.377965 0.491141 0.526217
3119 4 0.43566 0.453748 0.583907
1136 4 0.444094 0.434746 0.578851
1135 2 0.470966 0.419636 0.578696
4058 4 0.471664 0.491377 0.50593
3104 4 0.0336222 0.0487845 0.616713
3103 2 0.0363079 0.0519722 0.592263
3121 2 0.130888 0.000760213 0.592617
3023 4 0.209088 0.0241849 0.617916
3066 4 0.20067 0.0103478 0.619033
3022 2 0.236493 0.0142488 0.615664
3030 4 0.272894 0.0167823 0.62029
3028 2 0.274125 0.0365983 0.631491
3029 4 0.275357 0.0564143 0.642691
1025 4 0.277442 0.0723698 0.648646
3178 2 0.252266 0.0820731 0.594389
3024 4 0.263897 0.00431282 0.613412
4074 4 0.322845 0.000611549 0.658081
3359 4 0.38068 0.0221793 0.617287
3358 2 0.388819 0.0177651 0.593446
950 4 0.999239 0.1434 0.588793
949 2 0.016598 0.153993 0.593123
951 4 0.0339568 0.164586 0.597454
1024 2 0.258252 0.0872183 0.664518
3179 4 0.232788 0.0892523 0.612052
1210 2 0.308755 0.165417 0.591244
1212 4 0.330459 0.158207 0.606577
3292 2 0.482079 0.140045 0.659332
3294 4 0.494988 0.149338 0.643727
1282 2 0.0448789 0.236594 0.585411
1283 4 0.018283 0.242754 0.590164
1075 2 0.175125 0.246287 0.589719
2813 4 0.203475 0.17235 0.589274
1077 4 0.199068 0.245677 0.597775
3267 4 0.218928 0.247153 0.598899
3110 4 0.292327 0.211638 0.629698
3109 2 0.318858 0.204623 0.635433
144 3 0.30484 0.242676 0.638571
3111 4 0.345389 0.197608 0.641169
145 3 0.313616 0.246614 0.602654
3383 4 0.362029 0.187232 0.627702
3382 2 0.375338 0.200048 0.618102
3384 4 0.388646 0.212863 0.608503
3107 4 0.388804 0.231078 0.608248
3106 2 0.406574 0.240741 0.614438
3221 4 0.182612 0.313889 0.62734
3220 2 0.208005 0.311756 0.622371
3265 2 0.240501 0.25211 0.604525
3222 4 0.233398 0.309623 0.617401
3266 4 0.262075 0.257066 0.61015
142 3 0.275775 0.266517 0.61584
3236 4 0.323395 0.257161 0.591681
141 1 0.300467 0.257529 0.620914
143 3 0.306982 0.274688 0.626945
2627 4 0.323933 0.283017 0.634187
3356 4 0.332787 0.297824 0.631768
2626 2 0.33982 0.270129 0.653158
3355 2 0.339018 0.317532 0.630095
3165 4 0.44229 0.251551 0.626073
3108 4 0.424344 0.250403 0.620628
3357 4 0.345248 0.337241 0.628421
935 4 0.489071 0.257425 0.583385
3163 2 0.45899 0.256167 0.64187
3164 4 0.475691 0.260782 0.657667
1205 4 0.01116 0.398575 0.61243
1204 2 0.034913 0.398949 0.605175
1206 4 0.0586659 0.399323 0.597921
346 2 0.0896962 0.341128 0.584134
1139 4 0.0743815 0.406137 0.599768
347 4 0.112673 0.341402 0.593694
3419 4 0.118368 0.356842 0.591946
1138 2 0.0996158 0.4048 0.603924
1140 4 0.12485 0.403462 0.608081
3418 2 0.145009 0.351988 0.589522
83 3 0.189865 0.351183 0.587199
3420 4 0.17165 0.347133 0.587098
796 2 0.153771 0.406359 0.605784
797 4 0.180013 0.39106 0.601063
806 4 0.192837 0.380854 0.617189
81 1 0.202714 0.364468 0.588752
805 2 0.202702 0.382683 0.639711
85 3 0.210011 0.364857 0.610261
807 4 0.212567 0.384511 0.662232
2242 2 0.2567 0.366957 0.589823
2243 4 0.280534 0.368842 0.593217
538 2 0.299969 0.388873 0.600376
539 4 0.295229 0.373975 0.583978
4215 4 0.242191 0.416702 0.651604
540 4 0.304709 0.40377 0.616773
905 4 0.359275 0.343759 0.637045
904 2 0.363797 0.362627 0.646788
906 4 0.368319 0.381494 0.65653
3465 4 0.00823793 0.492818 0.650718
798 4 0.127528 0.421657 0.610505
4213 2 0.256654 0.426416 0.63847
4214 4 0.271116 0.436129 0.625337
993 4 0.356431 0.469433 0.658938
1216 2 0.0197393 0.0199943 0.742208
1218 4 0.0423467 0.0232656 0.74796
887 4 0.186811 0.0763895 0.680269
270 4 0.307024 0.00953732 0.672297
269 4 0.260665 0.0171744 0.696925
3084 4 0.269958 0.0179429 0.716326
3082 2 0.276678 0.0277506 0.736397
268 2 0.283844 0.0133558 0.684611
2282 4 0.302726 0.035852 0.748228
966 4 0.0181865 0.129935 0.675456
3400 2 0.0203236 0.123484 0.742327
3402 4 0.00242408 0.113147 0.740067
2175 4 0.0303856 0.138783 0.670727
3401 4 0.038223 0.133821 0.744587
2173 2 0.0489842 0.147867 0.675612
2174 4 0.0675828 0.156951 0.680497
3003 4 0.0867452 0.159178 0.680032
3166 2 0.0516542 0.164174 0.747342
2306 4 0.156277 0.0875485 0.744011
819 4 0.163606 0.0869167 0.68054
817 2 0.154874 0.0903372 0.704252
818 4 0.146142 0.0937577 0.727963
886 2 0.206167 0.0850259 0.677742
1026 4 0.239062 0.102067 0.680391
888 4 0.225523 0.0936623 0.675214
3207 4 0.366216 0.0993207 0.679448
3205 2 0.380635 0.110144 0.690928
3206 4 0.395054 0.120967 0.702407
3020 4 0.41152 0.115284 0.690225
3019 2 0.430229 0.123659 0.683443
3021 4 0.448939 0.132033 0.676661
3293 4 0.469169 0.130753 0.674938
3001 2 0.0818741 0.169079 0.70299
3168 4 0.0633457 0.179207 0.74006
3002 4 0.0770031 0.17898 0.725948
3240 4 0.313867 0.219923 0.729276
3238 2 0.323788 0.219251 0.706203
3239 4 0.333709 0.218579 0.683131
3351 4 0.355204 0.204548 0.681125
3349 2 0.381255 0.201901 0.682348
3350 4 0.407305 0.199254 0.68357
779 4 0.421904 0.200467 0.697802
778 2 0.434685 0.202252 0.718706
780 4 0.447466 0.204038 0.73961
4559 4 0.224867 0.315054 0.686888
4558 2 0.252149 0.302666 0.684464
4560 4 0.27943 0.290279 0.682041
2628 4 0.355707 0.25724 0.672129
3381 4 0.278501 0.307587 0.676617
3379 2 0.289533 0.324069 0.67396
3441 4 0.363705 0.268143 0.682311
3439 2 0.390907 0.260859 0.684104
3440 4 0.418109 0.253575 0.685898
896 4 0.429891 0.255625 0.702591
895 2 0.446924 0.266766 0.705767
897 4 0.463957 0.277908 0.708943
1085 4 0.483159 0.277567 0.712338
1083 4 0.491981 0.255389 0.670221
1628 4 0.00753816 0.360788 0.739423
3373 2 0.160219 0.356486 0.74605
3374 4 0.146378 0.381055 0.742162
978 4 0.212244 0.380203 0.682081
976 2 0.215895 0.356904 0.687771
977 4 0.219545 0.333604 0.693462
998 4 0.187665 0.412733 0.697413
997 2 0.178258 0.416097 0.72091
3380 4 0.300565 0.340551 0.671303