ITEM: TIMESTEP
1315500
ITEM: NUMBER OF ATOMS
4590
ITEM: BOX BOUNDS xy xz yz pp pp pp
-9.9985700000000008e+00 9.9985700000000008e+00 0.0000000000000000e+00
-9.9985700000000008e+00 9.9985700000000008e+00 0.0000000000000000e+00
-9.9985700000000008e+00 9.9985700000000008e+00 0.0000000000000000e+00
ITEM: ATOMS id type xs ys zs
1822 2 0.0604147 0.0886511 0.00767089
1824 4 0.0646076 0.0763377 0.986317
987 4 0.128884 0.988352 0.0545304
1874 4 0.288986 0.0106707 0.0540745
1873 2 0.31111 0.012163 0.0425215
1875 4 0.333234 0.0136552 0.0309684
1653 4 0.346542 0.00864723 0.0447784
1651 2 0.369023 0.0168488 0.0520256
1652 4 0.391504 0.0250503 0.0592729
2469 4 0.412928 0.0260053 0.0596781
2467 2 0.425559 0.0461466 0.051933
2468 4 0.438189 0.0662878 0.0441879
2466 4 0.457541 0.058655 0.0417847
2464 2 0.481852 0.0593327 0.047587
1823 4 0.0562218 0.100964 0.0290247
3413 4 0.17754 0.164888 0.00858628
705 4 0.444075 0.102847 0.00781465
703 2 0.466917 0.107795 0.998931
455 4 0.0322872 0.223179 0.0336363
102 3 0.0480569 0.234746 0.030557
101 1 0.0679077 0.234548 0.0189361
103 3 0.0820008 0.250663 0.0278868
454 2 0.012529 0.209459 0.0268131
104 3 0.0775797 0.213555 0.0209681
914 4 0.0469312 0.246945 0.98852
105 3 0.0638079 0.239125 0.997007
279 4 0.100549 0.246709 0.0320296
277 2 0.125349 0.24669 0.0288453
278 4 0.150149 0.246671 0.0256609
3141 4 0.160847 0.232271 0.033208
828 4 0.161163 0.159688 0.997594
3412 2 0.202511 0.165832 0.00944208
3139 2 0.184735 0.239571 0.0343193
3414 4 0.227482 0.166776 0.0102979
621 4 0.227154 0.23957 0.036206
3140 4 0.208623 0.246871 0.0354306
619 2 0.250858 0.233765 0.0416465
3344 4 0.243066 0.181796 0.00733278
3343 2 0.26739 0.185988 0.0113294
620 4 0.274562 0.227961 0.0470871
2966 4 0.294225 0.235981 0.0466924
2965 2 0.31653 0.23665 0.0579723
3345 4 0.291714 0.190179 0.015326
2882 4 0.31112 0.186837 0.00899505
769 2 0.402088 0.183375 0.0140373
770 4 0.37797 0.189244 0.0110323
2881 2 0.335794 0.182871 0.00819312
571 2 0.470209 0.177492 0.0240072
573 4 0.49454 0.183252 0.0238602
2843 4 0.460372 0.223048 0.0848195
771 4 0.426207 0.177505 0.0170423
572 4 0.445878 0.171732 0.0241542
2842 2 0.479271 0.206783 0.0829665
3283 2 0.438825 0.251416 0.0827967
2844 4 0.49817 0.190518 0.0811136
3216 4 0.0702543 0.321828 0.0304906
3214 2 0.0819997 0.319296 0.00856298
2967 4 0.338835 0.237318 0.0692522
3242 4 0.351611 0.246012 0.0821595
3241 2 0.375241 0.253864 0.0844308
3243 4 0.398871 0.261715 0.086702
3284 4 0.416272 0.261084 0.0779923
969 4 0.385622 0.278672 0.0158297
462 4 0.400494 0.280335 0.00358572
3339 4 0.483687 0.311649 0.0639504
3337 2 0.475504 0.325927 0.0451259
2523 4 0.478065 0.300193 0.0792533
1120 2 0.0209392 0.399294 0.00841387
2748 4 0.0640459 0.400338 0.0190633
1121 4 0.0451531 0.399535 0.014645
2487 4 0.156121 0.384269 0.0255708
2485 2 0.160964 0.393322 0.048369
2445 4 0.148745 0.414913 0.0697317
564 4 0.148443 0.399345 0.014292
2486 4 0.165807 0.402376 0.0711672
4304 4 0.405332 0.370282 0.0468629
4303 2 0.381308 0.366701 0.0409303
4305 4 0.357284 0.36312 0.0349976
597 4 0.43788 0.400802 0.0753792
595 2 0.460829 0.398201 0.065801
3338 4 0.46732 0.340205 0.0263014
596 4 0.483779 0.3956 0.0562229
2746 2 0.0723821 0.423726 0.0161125
2747 4 0.0807184 0.447114 0.0131617
1871 4 0.110621 0.473201 0.0813018
901 2 0.128266 0.447206 0.0114004
903 4 0.133051 0.458983 0.0329313
2514 4 0.149462 0.46186 0.0456585
2512 2 0.171897 0.471842 0.050374
2513 4 0.194331 0.481824 0.0550894
2726 4 0.229378 0.424809 0.0846612
672 4 0.2803 0.430986 0.0477562
670 2 0.264456 0.432278 0.0670561
2563 2 0.256697 0.493307 0.00326754
3541 2 0.480348 0.466409 0.077574
758 4 0.0128943 0.0768687 0.0874925
757 2 0.00755992 0.0524413 0.0873676
356 4 0.0284205 0.0874663 0.0895001
2004 4 0.0107532 0.99216 0.0907267
622 2 0.102345 0.075539 0.127715
2743 2 0.10723 0.0216671 0.140931
2745 4 0.124685 0.0315936 0.126032
2702 4 0.131924 0.0492491 0.129577
2701 2 0.154796 0.0463707 0.119895
624 4 0.114034 0.056026 0.138098
2744 4 0.0897746 0.0117406 0.155829
2703 4 0.177669 0.0434923 0.110213
2781 4 0.196858 0.0465455 0.104703
2779 2 0.220358 0.03801 0.104991
2780 4 0.243858 0.0294744 0.105278
2679 4 0.258602 0.0431654 0.105677
2677 2 0.280512 0.0491728 0.116121
2678 4 0.302421 0.0551803 0.126565
1374 4 0.306753 0.0723441 0.117466
378 4 0.0487324 0.128716 0.0903274
355 2 0.0500965 0.0894647 0.101803
357 4 0.0717724 0.0914631 0.114106
2599 2 0.00740917 0.125962 0.102785
2601 4 0.0322338 0.12696 0.0999692
376 2 0.0565116 0.151977 0.0854708
521 4 0.0836404 0.127738 0.173186
377 4 0.0642908 0.175238 0.0806142
623 4 0.0906562 0.0950519 0.117333
1372 2 0.308625 0.0966176 0.111766
1373 4 0.310496 0.120891 0.106066
2769 4 0.396972 0.0967461 0.103196
2767 2 0.408788 0.101312 0.124753
629 4 0.343922 0.190565 0.109917
693 4 0.478446 0.12125 0.149393
691 2 0.457436 0.107727 0.150348
692 4 0.436426 0.0942036 0.151303
2768 4 0.420604 0.105877 0.146311
2515 2 0.48265 0.159235 0.155399
630 4 0.385481 0.176212 0.133741
628 2 0.364702 0.183389 0.121829
332 4 0.400685 0.167263 0.126437
3285 4 0.461378 0.241749 0.0876012
333 4 0.444179 0.167787 0.15111
331 2 0.422432 0.167525 0.138773
2516 4 0.463905 0.174529 0.149084
2799 4 0.362858 0.265084 0.140777
756 4 0.351186 0.279233 0.148139
2797 2 0.387151 0.269423 0.144806
2798 4 0.411443 0.273763 0.148835
2538 4 0.326493 0.333795 0.171522
2771 4 0.439254 0.317672 0.12962
2522 4 0.441534 0.311156 0.111595
2521 2 0.4598 0.305675 0.095424
108 3 0.481129 0.288672 0.126625
2754 4 0.424821 0.262178 0.156324
106 1 0.500548 0.279529 0.135439
768 4 0.0487827 0.409906 0.0785045
766 2 0.0696291 0.417327 0.0901463
767 4 0.0904756 0.424749 0.101788
2443 2 0.129381 0.417221 0.0853811
2727 4 0.183696 0.404521 0.0831378
2570 4 0.203142 0.349944 0.148184
2725 2 0.206537 0.414665 0.0838995
2968 2 0.237627 0.340493 0.165977
2969 4 0.216989 0.336064 0.152574
2772 4 0.407089 0.355607 0.124411
2770 2 0.423172 0.33664 0.127016
1103 4 0.40587 0.367789 0.109033
1104 4 0.427677 0.409095 0.0911734
1102 2 0.416773 0.388442 0.100103
677 4 0.0115325 0.429844 0.149521
2444 4 0.110017 0.41953 0.10103
1870 2 0.126149 0.490006 0.0913845
671 4 0.248613 0.43357 0.086356
4210 2 0.420382 0.432043 0.15653
3543 4 0.457912 0.473768 0.0857974
4212 4 0.421179 0.432908 0.131554
1467 4 0.411862 0.442324 0.116029
1465 2 0.433198 0.449287 0.10501
1466 4 0.454535 0.456251 0.0939901
3956 4 0.0920123 0.0150607 0.176014
690 4 0.0286241 0.0698016 0.165124
3739 2 0.253177 0.00439482 0.244459
391 2 0.404647 0.0723983 0.223336
393 4 0.42639 0.0722214 0.210991
2756 4 0.435095 0.0649472 0.195927
2755 2 0.456067 0.0567458 0.206794
2738 4 0.496325 0.0447009 0.219085
2757 4 0.477039 0.0485444 0.217661
699 4 0.0303062 0.0833865 0.179491
2878 2 0.0207323 0.108178 0.238068
697 2 0.0506552 0.0977619 0.17738
698 4 0.0710043 0.112137 0.17527
2880 4 0.0442416 0.108078 0.246582
520 2 0.0900966 0.148256 0.185934
522 4 0.0965529 0.168774 0.198682
2837 4 0.124261 0.135226 0.244229
2836 2 0.148836 0.139811 0.243783
749 4 0.0797324 0.174345 0.204853
412 2 0.214796 0.157446 0.241931
2838 4 0.173411 0.144395 0.243336
413 4 0.189891 0.156137 0.243722
392 4 0.382905 0.0725753 0.23568
428 4 0.370101 0.0879301 0.23312
427 2 0.353949 0.103718 0.243844
579 4 0.372827 0.162917 0.197176
2517 4 0.501396 0.143941 0.161713
580 2 0.0156095 0.181528 0.244025
750 4 0.0560006 0.195431 0.243491
748 2 0.0678665 0.184888 0.224172
582 4 0.0402903 0.184194 0.241038
459 4 0.251945 0.14929 0.228306
457 2 0.275801 0.156771 0.228634
237 4 0.317683 0.160141 0.220548
458 4 0.299657 0.164251 0.228963
476 4 0.332696 0.257639 0.202333
475 2 0.34883 0.249247 0.219492
235 2 0.342602 0.161022 0.218684
236 4 0.367521 0.161904 0.216821
577 2 0.392282 0.178352 0.194277
578 4 0.411737 0.193788 0.191378
477 4 0.364964 0.240855 0.236651
387 4 0.415839 0.212242 0.198231
385 2 0.440283 0.212773 0.192997
276 4 0.484982 0.210059 0.185468
386 4 0.464727 0.213304 0.187764
252 4 0.0438314 0.334925 0.171455
250 2 0.0226633 0.326502 0.181758
251 4 0.00149515 0.318079 0.19206
612 4 0.20544 0.329235 0.236083
727 2 0.292291 0.32328 0.17981
729 4 0.267722 0.327916 0.180063
728 4 0.31686 0.318645 0.179556
755 4 0.323598 0.266643 0.187903
754 2 0.337392 0.272938 0.168021
4008 4 0.385989 0.334769 0.198843
2537 4 0.374977 0.339399 0.182418
2536 2 0.350735 0.336597 0.17697
2752 2 0.438137 0.269001 0.176357
2753 4 0.451453 0.275825 0.19639
2730 4 0.469537 0.269753 0.19373
2728 2 0.489148 0.263924 0.208103
4006 2 0.409592 0.331504 0.191266
4007 4 0.433195 0.328239 0.183688
2706 4 0.452439 0.32116 0.186316
2704 2 0.475919 0.320932 0.194908
287 4 0.0533522 0.334093 0.187735
286 2 0.075654 0.345122 0.185251
288 4 0.0979558 0.35615 0.182766
296 4 0.101469 0.376121 0.183393
295 2 0.124976 0.374434 0.175041
297 4 0.148484 0.372746 0.16669
2571 4 0.164777 0.365684 0.176132
3695 4 0.17609 0.381441 0.21963
1802 4 0.171831 0.38753 0.201208
2569 2 0.183959 0.357814 0.162158
610 2 0.2267 0.342118 0.233389
1801 2 0.176768 0.4116 0.196573
611 4 0.247959 0.355001 0.230696
2970 4 0.258265 0.344921 0.179381
2592 4 0.263644 0.353866 0.242884
2590 2 0.286273 0.353071 0.232279
2591 4 0.308902 0.352275 0.221673
2862 4 0.317762 0.361136 0.206516
2860 2 0.328818 0.383028 0.21138
2861 4 0.339875 0.404921 0.216243
3990 4 0.331941 0.412869 0.199908
314 4 0.445847 0.378825 0.217797
313 2 0.437129 0.396394 0.20229
676 2 0.0195445 0.437823 0.171822
587 4 0.00934099 0.441354 0.225406
678 4 0.0275566 0.445803 0.194123
740 4 0.0465304 0.441727 0.190729
739 2 0.0671739 0.452759 0.199522
263 4 0.0167543 0.459534 0.226953
741 4 0.0878175 0.463791 0.208316
264 4 0.0369515 0.488926 0.262009
262 2 0.0268529 0.47423 0.244481
3705 4 0.10142 0.474373 0.218301
3703 2 0.11969 0.457589 0.215188
3704 4 0.137961 0.440806 0.212075
1803 4 0.181704 0.435669 0.191939
1158 4 0.191521 0.452148 0.19896
1156 2 0.213767 0.463463 0.197464
1157 4 0.236014 0.474778 0.195968
4368 4 0.248938 0.460978 0.201464
4367 4 0.28768 0.478648 0.227685
4366 2 0.268309 0.469813 0.214575
1382 4 0.297904 0.495806 0.232499
4211 4 0.419585 0.431177 0.181506
3988 2 0.334696 0.437676 0.198426
3989 4 0.33745 0.462483 0.196944
315 4 0.42841 0.413964 0.186783
1271 4 0.00931591 0.0557669 0.275007
1270 2 0.0327904 0.0642825 0.273734
1272 4 0.0562648 0.0727982 0.27246
4307 4 0.0716482 0.069642 0.284422
3925 2 0.154699 0.0100937 0.296345
3926 4 0.130473 0.00588717 0.300885
4306 2 0.0918358 0.0835615 0.289307
4308 4 0.112023 0.0974811 0.294192
3741 4 0.246551 0.0208931 0.26204
3698 4 0.239136 0.0318316 0.276515
3697 2 0.218128 0.0203701 0.283761
2816 4 0.479077 0.995116 0.302984
2714 4 0.497534 0.998974 0.30514
420 4 0.0540907 0.126007 0.250894
418 2 0.0788196 0.129703 0.251009
419 4 0.103548 0.133399 0.251124
414 4 0.239701 0.158756 0.240141
2579 4 0.255178 0.142211 0.331808
2578 2 0.27455 0.126406 0.331468
2580 4 0.293922 0.110601 0.331129
2891 4 0.309442 0.101603 0.323667
2890 2 0.328807 0.111997 0.335589
429 4 0.337796 0.119507 0.254568
1394 4 0.494223 0.154238 0.324582
1031 4 0.205421 0.211281 0.320624
1221 4 0.374292 0.226294 0.246948
1219 2 0.391979 0.23531 0.262149
1393 2 0.503736 0.171453 0.309144
1395 4 0.513249 0.188668 0.293706
710 4 0.487373 0.226068 0.325352
2541 4 0.0947139 0.268995 0.260412
2539 2 0.117433 0.269279 0.270849
2540 4 0.140152 0.269564 0.281287
1055 4 0.149381 0.285714 0.273644
1054 2 0.161633 0.30751 0.27385
1056 4 0.173884 0.329305 0.274056
2497 2 0.259807 0.291592 0.331691
2655 4 0.293559 0.270457 0.329459
2653 2 0.313268 0.282635 0.320055
2498 4 0.282804 0.286138 0.323533
2654 4 0.332976 0.294813 0.310651
2450 4 0.324366 0.328044 0.343436
1220 4 0.409666 0.244326 0.277351
344 4 0.350532 0.289713 0.303046
343 2 0.368883 0.306362 0.299697
345 4 0.387234 0.323011 0.296347
2567 4 0.39961 0.311832 0.284721
285 4 0.421977 0.254566 0.264379
289 2 0.47836 0.327983 0.250806
284 4 0.469288 0.256904 0.248351
283 2 0.445633 0.255735 0.256365
2566 2 0.420872 0.314732 0.271888
390 4 0.488107 0.26138 0.245042
2568 4 0.442134 0.317633 0.259054
290 4 0.460995 0.312783 0.260428
365 4 0.434378 0.331679 0.322199
364 2 0.458215 0.325961 0.327125
338 4 0.00998817 0.383439 0.246486
337 2 0.0297466 0.387973 0.261123
339 4 0.0495051 0.392507 0.275759
2556 4 0.0634055 0.397982 0.289822
2554 2 0.0801221 0.415393 0.296348
3696 4 0.157314 0.379648 0.265944
2874 4 0.150207 0.377402 0.285275
2872 2 0.155972 0.386059 0.308013
3694 2 0.166702 0.380545 0.242787
2681 4 0.221229 0.365373 0.30481
2682 4 0.189864 0.340793 0.274597
2621 4 0.235468 0.379042 0.306014
2680 2 0.205546 0.353083 0.289704
291 4 0.495726 0.343183 0.241184
2555 4 0.0968387 0.432804 0.302873
2699 4 0.104966 0.42516 0.318868
500 4 0.236079 0.467312 0.293997
499 2 0.232612 0.44307 0.299045
501 4 0.229145 0.418828 0.304093
4032 4 0.246174 0.484343 0.28979
4030 2 0.265921 0.491974 0.303095
230 4 0.300925 0.444048 0.270796
229 2 0.318111 0.433293 0.28543
231 4 0.335297 0.422539 0.300065
1745 4 0.495056 0.50126 0.28284
707 4 0.00327618 0.0535926 0.34322
706 2 0.0273266 0.058913 0.338923
600 4 0.0236057 0.00466403 0.381496
708 4 0.0513771 0.0642334 0.334627
598 2 0.0478468 0.998559 0.382035
617 4 0.0705666 0.0574912 0.335692
599 4 0.072088 0.992455 0.382574
616 2 0.0861973 0.0644948 0.353907
618 4 0.101828 0.0714984 0.372123
1518 4 0.0847121 0.00770467 0.386463
1516 2 0.108603 0.01329 0.391283
1517 4 0.132493 0.0188753 0.396104
1062 4 0.142908 0.0301952 0.409711
4354 2 0.246191 0.0010083 0.383997
4355 4 0.256892 0.0225341 0.390876
165 3 0.48868 0.0851832 0.338667
2642 4 0.999733 0.131649 0.402916
369 4 0.017197 0.122418 0.407898
367 2 0.0188109 0.0977153 0.411415
2892 4 0.348172 0.12239 0.347512
401 4 0.363604 0.11426 0.337683
402 4 0.409017 0.0974858 0.350212
400 2 0.386311 0.105873 0.343947
341 4 0.473136 0.0778449 0.349526
340 2 0.450573 0.0883229 0.347016
342 4 0.42801 0.0988009 0.344506
1030 2 0.220927 0.226015 0.333572
1032 4 0.236434 0.240749 0.34652
2787 4 0.240027 0.251105 0.364654
2684 4 0.196718 0.206031 0.41065
984 4 0.307386 0.194896 0.37279
983 4 0.267399 0.177233 0.397075
982 2 0.287392 0.186064 0.384932
2785 2 0.26475 0.248808 0.367605
2657 4 0.323374 0.18337 0.376293
1199 4 0.30919 0.243578 0.368696
2656 2 0.345897 0.186128 0.36579
2658 4 0.36842 0.188886 0.355288
635 4 0.388884 0.189462 0.355312
634 2 0.411754 0.199361 0.35328
2529 4 0.371466 0.256434 0.372136
2527 2 0.39534 0.260427 0.378403
709 2 0.463764 0.218535 0.328679
636 4 0.434625 0.209259 0.351248
711 4 0.440155 0.211001 0.332006
2612 4 0.0739574 0.264504 0.399305
2611 2 0.0937148 0.272929 0.386505
2613 4 0.113472 0.281355 0.373705
371 4 0.132238 0.284655 0.381206
370 2 0.154807 0.287527 0.370835
2499 4 0.236809 0.297045 0.339849
372 4 0.177376 0.2904 0.360464
119 3 0.193217 0.280105 0.36675
118 3 0.219876 0.300226 0.348616
120 3 0.225421 0.288983 0.38412
117 3 0.22554 0.26391 0.356475
116 1 0.216034 0.283408 0.364133
510 4 0.235167 0.303639 0.392406
2786 4 0.289472 0.246511 0.370556
1198 2 0.332287 0.252669 0.365685
508 2 0.259628 0.303842 0.397587
715 2 0.312926 0.315289 0.40553
509 4 0.284088 0.304045 0.402768
717 4 0.299911 0.294846 0.411686
2852 4 0.305351 0.323403 0.338163
1200 4 0.355384 0.26176 0.362675
716 4 0.325941 0.335732 0.399374
2528 4 0.419214 0.264419 0.384669
3317 4 0.418828 0.326844 0.398293
2831 4 0.437083 0.27248 0.380922
2830 2 0.461387 0.276453 0.385248
2832 4 0.485691 0.280426 0.389575
584 4 0.485261 0.299849 0.384103
366 4 0.482052 0.320243 0.332051
2873 4 0.161738 0.394715 0.33075
2597 4 0.171554 0.386527 0.346007
2620 2 0.241645 0.367099 0.327094
2596 2 0.174186 0.390707 0.370518
2598 4 0.176817 0.394887 0.395028
2622 4 0.247822 0.355156 0.348175
2853 4 0.268578 0.353642 0.353462
2851 2 0.286965 0.338522 0.345813
2449 2 0.347678 0.336943 0.341853
2451 4 0.370991 0.345843 0.34027
3631 2 0.402536 0.355049 0.333898
3632 4 0.378913 0.36289 0.336272
3316 2 0.397453 0.336662 0.406772
3318 4 0.376077 0.34648 0.415251
3633 4 0.426159 0.347207 0.331524
2532 4 0.497399 0.394794 0.371406
2530 2 0.477817 0.410283 0.370062
2712 4 0.110756 0.418445 0.404272
2698 2 0.112169 0.422713 0.342686
2700 4 0.119372 0.420266 0.366505
2710 2 0.134896 0.412097 0.402808
2711 4 0.159036 0.405749 0.401344
2960 4 0.235769 0.473799 0.400417
2959 2 0.248604 0.490405 0.386827
1418 4 0.250569 0.470084 0.413192
2531 4 0.458235 0.425772 0.368717
1433 4 0.463658 0.44272 0.362437
1432 2 0.471999 0.466291 0.362571
1434 4 0.48034 0.489863 0.362706
2314 2 0.0575835 0.0604841 0.495133
1151 4 0.0693819 0.034179 0.479265
2316 4 0.0629244 0.0520384 0.472213
2505 4 0.00843104 0.0648433 0.428653
368 4 0.0204248 0.0730127 0.414932
1060 2 0.162346 0.0352754 0.424596
1150 2 0.0828843 0.0160673 0.46855
1152 4 0.0963866 0.997956 0.457835
1061 4 0.181783 0.0403557 0.439481
682 2 0.223582 0.0504902 0.444058
684 4 0.198926 0.0493426 0.44805
683 4 0.248239 0.0516378 0.440067
842 4 0.249811 0.0691262 0.449808
841 2 0.272411 0.0763209 0.441891
3745 2 0.333564 0.0679561 0.425078
3746 4 0.358346 0.0658363 0.422514
2456 4 0.481612 0.0292479 0.490535
8 3 0.00046137 0.127224 0.46314
2484 4 0.0183923 0.139436 0.462852
2482 2 0.0392916 0.14945 0.453465
2483 4 0.060191 0.159464 0.444077
760 2 0.146385 0.144129 0.487548
2552 4 0.112349 0.13531 0.500396
762 4 0.122515 0.138648 0.482509
761 4 0.170255 0.14961 0.492586
3172 2 0.210092 0.161607 0.487382
3174 4 0.233287 0.162425 0.478083
3173 4 0.186896 0.160789 0.496681
2901 4 0.244146 0.152359 0.464807
3747 4 0.308783 0.0700759 0.427643
843 4 0.295011 0.0835157 0.433975
2899 2 0.262267 0.135669 0.469079
2900 4 0.280388 0.118979 0.47335
2801 4 0.0677827 0.173839 0.432254
2241 4 0.0789351 0.170176 0.494925
2802 4 0.106088 0.203142 0.419031
764 4 0.12663 0.204558 0.418019
763 2 0.151627 0.2042 0.418425
2800 2 0.0869352 0.188491 0.425643
2239 2 0.0924826 0.188585 0.505062
765 4 0.176625 0.203841 0.418832
2683 2 0.219502 0.215411 0.414906
2685 4 0.242285 0.224791 0.419163
3059 4 0.202522 0.238617 0.47438
311 4 0.219384 0.24884 0.478737
310 2 0.244247 0.246209 0.478409
2586 4 0.259535 0.23232 0.427986
2584 2 0.283647 0.238251 0.425054
2585 4 0.30776 0.244183 0.422121
312 4 0.26911 0.243579 0.478082
898 2 0.353522 0.229995 0.473863
899 4 0.371487 0.239559 0.459338
900 4 0.335558 0.220431 0.488389
725 4 0.501756 0.248555 0.411779
306 4 0.137626 0.239797 0.466502
305 4 0.0954536 0.265206 0.45775
304 2 0.11654 0.252501 0.462126
3060 4 0.154242 0.250472 0.468977
3058 2 0.178382 0.244544 0.471679
939 4 0.321538 0.258923 0.420967
443 4 0.279431 0.249511 0.495149
442 2 0.298997 0.263566 0.501839
444 4 0.318564 0.277622 0.508528
937 2 0.34587 0.257421 0.426523
824 4 0.382728 0.255165 0.447268
938 4 0.370202 0.25592 0.432079
266 4 0.388819 0.325098 0.497993
823 2 0.40484 0.257641 0.458676
3333 4 0.4006 0.314179 0.486236
2550 4 0.337518 0.273263 0.503314
696 4 0.490771 0.285444 0.477762
3056 4 0.450956 0.333123 0.448553
3332 4 0.434392 0.337369 0.457583
825 4 0.426952 0.260118 0.470083
695 4 0.446108 0.266885 0.465053
694 2 0.468439 0.276164 0.471408
3331 2 0.417496 0.325774 0.47191
3422 4 0.99841 0.435452 0.433512
593 4 0.371078 0.362843 0.42382
594 4 0.392758 0.398373 0.451538
592 2 0.381918 0.380608 0.437679
2562 4 0.400523 0.411163 0.465808
3055 2 0.475665 0.334559 0.445006
3057 4 0.500374 0.335995 0.44146
2560 2 0.415215 0.399926 0.482633
3455 4 0.44536 0.397515 0.489097
2561 4 0.429906 0.388688 0.499457
2741 4 0.0340534 0.487258 0.447067
3423 4 0.0477137 0.427986 0.437278
3421 2 0.0230621 0.431719 0.435395
3642 4 0.074539 0.459861 0.428936
2742 4 0.0652077 0.458901 0.47401
2740 2 0.0496305 0.47308 0.460539
3641 4 0.111984 0.4272 0.423298
3640 2 0.0932616 0.44353 0.426117
1419 4 0.28283 0.447863 0.444276
1417 2 0.2667 0.458974 0.428734
1172 4 0.392422 0.429377 0.463624
1027 2 0.367842 0.429451 0.49591
1029 4 0.358471 0.420456 0.517275
1171 2 0.400282 0.446257 0.446936
1028 4 0.377213 0.438445 0.474545
1173 4 0.408143 0.463136 0.430248
2315 4 0.0522426 0.0689298 0.518053
1181 4 0.41079 0.032323 0.488841
1180 2 0.435658 0.0311656 0.491173
4325 4 0.491121 0.0350185 0.577414
1182 4 0.460525 0.0300083 0.493504
2196 4 0.048946 0.0699854 0.538059
2194 2 0.0631609 0.0896077 0.544231
2195 4 0.0773757 0.10923 0.550403
2553 4 0.0787991 0.11853 0.533466
2551 2 0.0955739 0.12692 0.516931
2963 4 0.241681 0.166943 0.531741
1212 4 0.340318 0.104128 0.522781
1210 2 0.326843 0.116187 0.540049
1211 4 0.313369 0.128247 0.557317
3180 4 0.124647 0.205119 0.507903
3178 2 0.146483 0.198492 0.518124
2240 4 0.10603 0.206993 0.515199
3179 4 0.168318 0.191865 0.528345
2813 4 0.179647 0.182428 0.542001
2812 2 0.202769 0.172978 0.543118
2814 4 0.225891 0.163528 0.544235
3386 4 0.176324 0.216929 0.60295
2962 2 0.25562 0.186977 0.526308
2964 4 0.26956 0.207012 0.520876
2604 4 0.284957 0.201029 0.509528
2602 2 0.309026 0.207659 0.508148
2603 4 0.333095 0.21429 0.506768
83 3 0.316195 0.333879 0.579429
407 4 0.39291 0.286886 0.511218
2548 2 0.359601 0.276275 0.514648
2549 4 0.381684 0.279287 0.525982
267 4 0.382517 0.335515 0.546496
265 2 0.385668 0.330306 0.522244
889 2 0.411677 0.336111 0.576979
890 4 0.39066 0.332548 0.563912
406 2 0.417647 0.283691 0.509477
408 4 0.442385 0.280497 0.507736
803 4 0.457999 0.272957 0.515932
802 2 0.467973 0.289361 0.531951
804 4 0.477948 0.305765 0.54797
1238 4 0.47746 0.325404 0.549002
1237 2 0.464656 0.331503 0.569593
3420 4 0.303879 0.34554 0.569912
3418 2 0.297987 0.368243 0.56125
3419 4 0.292095 0.390947 0.552589
347 4 0.306134 0.403728 0.545141
346 2 0.330167 0.408407 0.540069
348 4 0.354199 0.413087 0.534996
1281 4 0.367386 0.406711 0.548548
3454 2 0.464989 0.404955 0.502681
3367 2 0.485418 0.395932 0.582493
2172 4 0.100577 0.488507 0.532482
2170 2 0.122166 0.477514 0.5263
2171 4 0.143756 0.466521 0.520119
1982 4 0.150422 0.471365 0.500823
1983 4 0.194701 0.463205 0.522585
1981 2 0.172561 0.467285 0.511704
4539 4 0.304731 0.492273 0.555094
4537 2 0.321569 0.492109 0.536611
1135 2 0.26773 0.500258 0.535167
1136 4 0.292004 0.501195 0.54109
1279 2 0.383899 0.424476 0.554621
4538 4 0.338407 0.491945 0.518127
1280 4 0.400412 0.442242 0.560694
878 4 0.420429 0.442802 0.56302
877 2 0.429285 0.454626 0.542847
879 4 0.438141 0.466449 0.522673
3456 4 0.484618 0.412396 0.516266
3368 4 0.510229 0.399016 0.582742
239 4 0.494311 0.420551 0.531254
4503 4 0.0702279 0.0273965 0.585361
3611 4 0.0580316 0.0114158 0.588515
3610 2 0.0354571 0.000665453 0.588466
4501 2 0.0952009 0.027676 0.584152
3104 4 0.138154 0.0171592 0.5834
3103 2 0.160014 0.0291517 0.585271
4502 4 0.120174 0.0279555 0.582943
3049 2 0.225825 0.0413784 0.578559
3051 4 0.249577 0.0375451 0.57175
3050 4 0.202073 0.0452118 0.585367
3105 4 0.181874 0.0411441 0.587143
2507 4 0.256066 0.0475755 0.587854
2506 2 0.279264 0.055913 0.592045
2508 4 0.302461 0.0642504 0.596236
1142 4 0.318933 0.0653709 0.585162
270 4 0.249275 0.0146305 0.655682
1003 2 0.327589 0.0609672 0.641218
2255 4 0.291415 0.0774773 0.662446
1141 2 0.342195 0.0745243 0.584639
1005 4 0.344148 0.0507519 0.625514
3121 2 0.354157 0.0141399 0.622144
3122 4 0.354557 0.0361752 0.633955
1143 4 0.365458 0.0836777 0.584117
3123 4 0.353758 0.992105 0.610334
3022 2 0.489921 0.0754672 0.655422
3023 4 0.468171 0.0632585 0.653667
3066 4 0.454141 0.0566861 0.666008
1023 4 0.191627 0.108794 0.624625
1021 2 0.215622 0.109567 0.631614
3205 2 0.220046 0.16764 0.605135
3206 4 0.240521 0.158827 0.616462
1004 4 0.311029 0.0711824 0.656921
1022 4 0.239617 0.110339 0.638602
2256 4 0.257531 0.102365 0.63537
2254 2 0.274473 0.089921 0.648908
3021 4 0.300725 0.146832 0.632087
3019 2 0.279802 0.157114 0.62305
3293 4 0.317029 0.145359 0.643752
3020 4 0.258878 0.167395 0.614014
917 4 0.384293 0.0923765 0.586882
916 2 0.408376 0.0964122 0.592258
918 4 0.432459 0.100448 0.597635
1130 4 0.446927 0.113223 0.595104
1129 2 0.47154 0.113227 0.590701
1259 4 0.0533674 0.217484 0.602213
936 4 0.0397334 0.20284 0.599334
934 2 0.018479 0.190296 0.595326
1258 2 0.0750468 0.208704 0.593376
935 4 0.997225 0.177751 0.591317
1260 4 0.0967263 0.199925 0.584538
3038 4 0.110787 0.202989 0.59823
3037 2 0.135066 0.208088 0.595112
3039 4 0.159345 0.213187 0.591995
3207 4 0.199572 0.176453 0.593808
384 4 0.243591 0.2149 0.594682
3385 2 0.200665 0.218262 0.597386
3387 4 0.225005 0.219596 0.591823
382 2 0.266119 0.219681 0.60442
2971 2 0.317513 0.236387 0.635459
383 4 0.288647 0.224462 0.614157
2972 4 0.301549 0.239195 0.616421
2973 4 0.333478 0.233579 0.654497
3380 4 0.250545 0.27781 0.655489
905 4 0.262583 0.279705 0.639175
904 2 0.28235 0.284781 0.62473
906 4 0.302117 0.289856 0.610284
84 3 0.311124 0.300317 0.596525
81 1 0.3168 0.322591 0.599693
85 3 0.302369 0.33227 0.614414
805 2 0.334111 0.33068 0.652144
806 4 0.340409 0.328189 0.628075
82 3 0.338152 0.323689 0.608182
2244 4 0.352928 0.31464 0.636253
2242 2 0.370693 0.299861 0.626704
2243 4 0.388457 0.285082 0.617154
960 4 0.476284 0.284136 0.625513
3435 4 0.483338 0.283563 0.644003
958 2 0.487819 0.269464 0.608874
891 4 0.432694 0.339674 0.590047
1239 4 0.451851 0.337603 0.590185
3222 4 0.152726 0.378136 0.650116
3220 2 0.17769 0.377297 0.648993
3221 4 0.202655 0.376459 0.64787
2720 4 0.217577 0.379611 0.659971
2719 2 0.242548 0.378483 0.660611
2721 4 0.267518 0.377354 0.661252
3447 4 0.272023 0.372379 0.643451
3445 2 0.291861 0.387325 0.640573
3446 4 0.311698 0.40227 0.637696
3353 4 0.320848 0.40833 0.653947
3352 2 0.337763 0.402605 0.671449
1040 4 0.416808 0.3969 0.63424
1039 2 0.430782 0.392298 0.614022
539 4 0.455954 0.341834 0.628712
1041 4 0.444755 0.387696 0.593805
538 2 0.473085 0.359358 0.633671
540 4 0.490216 0.376883 0.638629
3369 4 0.460606 0.392848 0.582243
2212 2 0.146536 0.500095 0.606401
2214 4 0.121917 0.50228 0.602622
993 4 0.293905 0.462163 0.63564
991 2 0.297921 0.480152 0.652535
4360 2 0.487064 0.470808 0.661654
4362 4 0.506677 0.486291 0.66255
3488 4 0.124969 0.022807 0.754792
1217 4 0.13817 0.0277948 0.740893
1216 2 0.161502 0.0206015 0.746282
3009 4 0.324649 0.0686797 0.675958
1146 4 0.258422 0.0365896 0.759803
3007 2 0.339657 0.0732724 0.695422
3008 4 0.354664 0.0778651 0.714886
3065 4 0.413038 0.0486378 0.69333
3064 2 0.433589 0.052662 0.679669
4369 2 0.43824 0.0754946 0.734155
4370 4 0.461765 0.0781719 0.726116
4442 4 0.173715 0.148518 0.727322
3292 2 0.326612 0.127223 0.65805
3294 4 0.336194 0.109086 0.672348
3126 4 0.351278 0.0845923 0.733896
3124 2 0.375772 0.086053 0.738699
3125 4 0.400267 0.0875137 0.743502
3062 4 0.48094 0.07135 0.720342
3061 2 0.488588 0.0928891 0.710206
738 4 0.320787 0.234514 0.730598
3250 2 0.331379 0.247115 0.693696
3252 4 0.338627 0.245793 0.669803
3251 4 0.324131 0.248437 0.71759
3379 2 0.253375 0.297188 0.671035
3381 4 0.256205 0.316565 0.686582
977 4 0.268501 0.328136 0.69883
3433 2 0.486445 0.295945 0.665502
3434 4 0.489552 0.308327 0.687001
4558 2 0.0626408 0.340997 0.752279
4560 4 0.0379484 0.338526 0.74922
4559 4 0.0873333 0.343468 0.755337
976 2 0.293314 0.330721 0.697156
978 4 0.318127 0.333306 0.695483
807 4 0.327813 0.33317 0.676213
3373 2 0.358775 0.380943 0.721948
3354 4 0.354677 0.39688 0.68895
3375 4 0.366065 0.398135 0.70532
3374 4 0.351486 0.363751 0.738576
1017 4 0.342664 0.346091 0.737017
3273 4 0.499922 0.348901 0.740727
2408 4 0.434013 0.413797 0.73857
942 4 0.289704 0.505975 0.68323
1098 4 0.309946 0.434793 0.728357
1096 2 0.325815 0.450228 0.73998
4493 4 0.295685 0.426637 0.739135
940 2 0.281885 0.499873 0.706182
1097 4 0.341685 0.465663 0.751603
1278 4 0.359901 0.474146 0.754235
1276 2 0.379746 0.475643 0.739098
1277 4 0.39959 0.477141 0.723961
821 4 0.402016 0.473763 0.705063
4361 4 0.467451 0.455325 0.660757
820 2 0.425596 0.477854 0.697824
822 4 0.449176 0.481946 0.690585
1948 2 0.473867 0.431572 0.733408
1949 4 0.497926 0.437401 0.729887
1235 4 0.459092 0.488212 0.706609
1234 2 0.479589 0.493133 0.720057
3282 4 0.0586996 0.0656521 0.816287
3280 2 0.0742758 0.0757057 0.799509
3438 4 0.0796441 0.0106706 0.773663
3489 4 0.0838721 0.028626 0.782683
3487 2 0.104421 0.0257165 0.768737
3281 4 0.0898519 0.0857593 0.782731
1218 4 0.184834 0.0134081 0.751671
2001 4 0.203576 0.00892741 0.754099
1999 2 0.227764 0.0135358 0.758446
2000 4 0.251952 0.0181442 0.762793
1144 2 0.272053 0.0339956 0.780603
1145 4 0.285684 0.0314017 0.801404
3132 4 0.304608 0.01836 0.806221
3134 4 0.309792 0.998106 0.81423
3130 2 0.327705 0.0247358 0.799075
3131 4 0.350802 0.0311116 0.791929
1193 4 0.37042 0.0250008 0.787965
1192 2 0.394935 0.0295713 0.786155
532 2 0.381412 0.0701367 0.826904
1124 4 0.34172 0.075765 0.846193
533 4 0.358636 0.0718361 0.837081
534 4 0.404187 0.0684374 0.816726
4371 4 0.414716 0.0728173 0.742193
2306 4 0.482878 0.027985 0.762995
1194 4 0.419451 0.0341418 0.784345
2307 4 0.437637 0.040052 0.780557
2305 2 0.460257 0.0340185 0.771776
3306 4 0.409835 0.0858061 0.826512
4128 4 0.102276 0.098735 0.788516
4126 2 0.121408 0.110338 0.799675
4127 4 0.140541 0.121942 0.810833
4441 2 0.170603 0.162021 0.748134
3041 4 0.278835 0.100188 0.757574
3040 2 0.296837 0.092365 0.773062
3042 4 0.314839 0.0845422 0.788551
1050 4 0.331755 0.0955559 0.782759
1048 2 0.35112 0.11135 0.783593
1049 4 0.370486 0.127144 0.784427
3089 4 0.383967 0.141658 0.788305
3088 2 0.400054 0.135019 0.806259
3553 2 0.486689 0.101369 0.80993
3304 2 0.433235 0.0943924 0.828483
3305 4 0.456635 0.102979 0.830455
3555 4 0.467659 0.114296 0.819726
3090 4 0.41614 0.128381 0.824213
4443 4 0.167491 0.175524 0.768947
2980 2 0.35826 0.243473 0.797192
839 4 0.387504 0.221842 0.81062
2982 4 0.374668 0.237587 0.815118
2981 4 0.341852 0.249358 0.779267
1628 4 0.006824 0.307335 0.821003
3035 4 0.0821746 0.28518 0.821044
1073 4 0.0969109 0.274068 0.815727
1072 2 0.121792 0.2725 0.81764
3245 4 0.212854 0.283423 0.828954
3244 2 0.188524 0.281785 0.823426
736 2 0.322203 0.245316 0.753103
737 4 0.323618 0.256118 0.775609
794 4 0.326207 0.324994 0.798839
795 4 0.358168 0.286596 0.801024
793 2 0.342188 0.305795 0.799932
3336 4 0.368719 0.281461 0.817451
3334 2 0.386417 0.29319 0.830656
747 4 0.482836 0.254017 0.8076
2356 2 0.1099 0.407244 0.841984
1903 2 0.257211 0.403304 0.836517
4492 2 0.284477 0.410252 0.754337
4494 4 0.273269 0.393867 0.769538