ITEM: TIMESTEP
880500
ITEM: NUMBER OF ATOMS
4590
ITEM: BOX BOUNDS xy xz yz pp pp pp
-1.7797454600000009e+01 9.9985700000000008e+00 -7.7988846000000080e+00
-9.9985700000000008e+00 9.9985700000000008e+00 0.0000000000000000e+00
-9.9985700000000008e+00 9.9985700000000008e+00 0.0000000000000000e+00
ITEM: ATOMS id type xs ys zs
1373 4 0.246337 0.00636456 0.0673971
2948 4 0.258942 0.0254622 0.0640798
1372 2 0.230377 0.0161701 0.0791267
2709 4 0.309923 0.0703172 0.057315
2947 2 0.280485 0.0276817 0.050198
2949 4 0.302028 0.0299012 0.0363163
2465 4 0.319109 0.0451032 0.031823
2464 2 0.334281 0.0321643 0.0388209
2468 4 0.339422 0.0087682 0.0627026
2707 2 0.335516 0.0827386 0.0636683
2466 4 0.349453 0.0192254 0.0458187
2670 4 0.439908 0.0750091 0.0343139
2884 2 0.485236 0.0437308 0.0619184
2886 4 0.463309 0.0490884 0.066351
2883 4 0.011923 0.14415 0.0522047
2881 2 0.0109101 0.166582 0.0573709
2660 4 0.0224224 0.131965 0.0470016
2659 2 0.0482936 0.135175 0.0499643
2661 4 0.0741649 0.138385 0.052927
3393 4 0.0950547 0.148419 0.0533159
3391 2 0.120667 0.152532 0.0476716
3392 4 0.14628 0.156645 0.0420273
490 2 0.277066 0.123215 0.00419911
491 4 0.300781 0.141786 0.00719228
845 4 0.322477 0.156724 0.00903925
492 4 0.253351 0.104644 0.00120595
2708 4 0.361109 0.0951599 0.0700217
2668 2 0.451542 0.0981912 0.0253114
2669 4 0.463176 0.121373 0.016309
1253 4 0.484003 0.128541 0.0103043
2882 4 0.00989721 0.189014 0.062537
465 4 0.106872 0.22189 0.00981969
360 4 0.106378 0.209439 0.0247731
358 2 0.122081 0.207995 0.0437072
359 4 0.137784 0.206551 0.0626413
282 4 0.154722 0.214364 0.07425
280 2 0.180133 0.222566 0.0822831
2876 4 0.221159 0.231668 0.077296
2875 2 0.244882 0.229325 0.0737297
309 4 0.256889 0.23862 0.0136249
307 2 0.257115 0.215517 0.0160885
308 4 0.257341 0.192413 0.0185521
2877 4 0.268605 0.226981 0.0701634
2841 4 0.262997 0.244613 0.0314149
2652 4 0.266062 0.178367 0.0164005
2718 4 0.288882 0.233674 0.0636177
2650 2 0.291202 0.18621 0.0251249
2716 2 0.313812 0.235014 0.0688789
2651 4 0.316341 0.194053 0.0338493
527 4 0.328978 0.209157 0.022234
2717 4 0.338742 0.236354 0.0741402
526 2 0.351943 0.228507 0.0186215
2616 4 0.359464 0.243442 0.0803405
844 2 0.346714 0.174828 0.0105947
846 4 0.37095 0.192933 0.0121501
454 2 0.416924 0.222321 0.0134186
456 4 0.390705 0.208615 0.0121462
528 4 0.374908 0.247857 0.0150089
455 4 0.443142 0.236028 0.014691
102 3 0.463356 0.247359 0.0216361
103 3 0.495193 0.241166 0.0358163
2829 4 0.222728 0.313274 0.0239988
2827 2 0.248749 0.316932 0.0213655
2828 4 0.27477 0.320591 0.0187322
2839 2 0.282808 0.265614 0.0384241
2840 4 0.302619 0.286614 0.0454332
2638 2 0.300691 0.309286 0.00320212
2639 4 0.274861 0.306655 0.00493742
525 4 0.323083 0.290998 0.0486653
523 2 0.349483 0.296586 0.0513712
524 4 0.375882 0.302173 0.054077
1293 4 0.341738 0.329714 0.00398138
2640 4 0.326521 0.311916 0.00146682
2472 4 0.39136 0.303578 0.0683234
914 4 0.396622 0.254969 0.00517782
294 4 0.450522 0.314084 0.999912
105 3 0.493626 0.275682 0.0365091
101 1 0.487842 0.256425 0.0244743
104 3 0.498712 0.260915 0.00361555
2747 4 0.260959 0.391007 0.0499919
2746 2 0.261049 0.383619 0.0262899
2748 4 0.261139 0.376232 0.00258801
2487 4 0.270366 0.388994 0.0661351
2485 2 0.29501 0.404683 0.0721214
1121 4 0.276621 0.370207 0.000204014
1291 2 0.363709 0.3415 0.0175621
1292 4 0.385679 0.353286 0.0311428
3728 4 0.419065 0.381388 0.0767708
3727 2 0.442609 0.383419 0.0666016
3729 4 0.466153 0.385451 0.0564324
2988 4 0.485774 0.395736 0.0630338
2986 2 0.49414 0.395505 0.0395047
1466 4 0.49247 0.407795 0.0796922
2486 4 0.319655 0.420373 0.0781078
2726 4 0.386062 0.421705 0.0826872
4511 4 0.472723 0.499637 0.0830352
1565 4 0.0938821 0.0390006 0.147468
1564 2 0.118906 0.0512361 0.139385
2779 2 0.110148 0.0129359 0.101506
1566 4 0.14393 0.0634717 0.131303
2780 4 0.134735 0.0279727 0.0945382
1479 4 0.162803 0.0614515 0.126334
2679 4 0.151338 0.0237877 0.100213
1477 2 0.183122 0.061278 0.140809
1478 4 0.20344 0.0611045 0.155285
2677 2 0.17443 0.0197864 0.101398
2678 4 0.197522 0.0157851 0.102583
744 4 0.225148 0.0641076 0.15343
1374 4 0.214416 0.0259757 0.0908564
742 2 0.251392 0.0700127 0.149288
743 4 0.277636 0.0759177 0.145146
3810 4 0.298038 0.0800655 0.139104
3808 2 0.321236 0.0765006 0.1363
3809 4 0.344435 0.0729358 0.133496
2519 4 0.365276 0.0815869 0.132633
1476 4 0.348253 0.0107496 0.117877
1474 2 0.370808 0.0241517 0.105822
1475 4 0.393363 0.0375538 0.0937678
1661 4 0.404323 0.0242449 0.0959453
1660 2 0.429974 0.037332 0.0903109
2518 2 0.390085 0.081112 0.133111
2520 4 0.414895 0.0806371 0.133588
723 4 0.428 0.0790012 0.148721
1662 4 0.455625 0.0504191 0.0846765
23 3 0.00198758 0.13103 0.0965371
2894 4 0.0248025 0.136728 0.0979475
2893 2 0.0498268 0.141942 0.10628
2895 4 0.074851 0.147156 0.114612
2600 4 0.093754 0.146743 0.121928
2599 2 0.119139 0.147781 0.122184
378 4 0.166341 0.152843 0.12385
2601 4 0.144525 0.148818 0.122439
376 2 0.190758 0.152458 0.128481
377 4 0.215176 0.152073 0.133112
629 4 0.236045 0.153315 0.138425
628 2 0.259991 0.160838 0.1497
699 4 0.386543 0.141217 0.166656
2769 4 0.403854 0.149286 0.153799
2767 2 0.430179 0.154125 0.151661
2768 4 0.456504 0.158963 0.149524
692 4 0.477807 0.162692 0.153159
721 2 0.454037 0.0831852 0.145248
691 2 0.490743 0.161265 0.132157
722 4 0.480075 0.0873693 0.141776
759 4 0.500055 0.0938953 0.132528
281 4 0.205544 0.230767 0.0903161
578 4 0.216473 0.198459 0.165947
577 2 0.190783 0.196482 0.166495
505 2 0.256082 0.212371 0.153795
630 4 0.283936 0.168362 0.160974
506 4 0.276414 0.211753 0.139598
836 4 0.29074 0.208524 0.150852
835 2 0.3165 0.217248 0.143835
837 4 0.342259 0.225973 0.136818
2614 2 0.359498 0.23504 0.103656
2615 4 0.359531 0.226637 0.126972
607 2 0.396519 0.333013 0.140147
2470 2 0.398064 0.303692 0.0924238
2471 4 0.404768 0.303806 0.116524
608 4 0.39663 0.311564 0.130489
3405 4 0.114007 0.347754 0.141837
3404 4 0.122073 0.372527 0.0984263
3403 2 0.11804 0.36014 0.120132
714 4 0.169831 0.412956 0.151039
2706 4 0.182747 0.367361 0.16428
3989 4 0.292012 0.340731 0.163174
519 4 0.381293 0.359242 0.159614
609 4 0.396408 0.354461 0.149805
2443 2 0.0285937 0.461389 0.0925132
2444 4 0.0553789 0.471059 0.0910846
767 4 0.0545218 0.454857 0.101299
2445 4 0.00180849 0.451719 0.0939417
766 2 0.0709796 0.442894 0.107289
768 4 0.0874375 0.430931 0.113279
3450 4 0.0939064 0.424774 0.130482
3448 2 0.114851 0.421281 0.11974
3449 4 0.135796 0.417789 0.108998
712 2 0.19278 0.432542 0.148365
713 4 0.21573 0.452128 0.145691
2727 4 0.3348 0.417115 0.0883547
3550 2 0.336991 0.489058 0.1483
3552 4 0.35078 0.476521 0.137385
1568 4 0.360349 0.463341 0.133489
670 2 0.423721 0.427763 0.0850596
671 4 0.40491 0.438006 0.0854579
2725 2 0.360431 0.41941 0.085521
1567 2 0.386665 0.471866 0.128596
1569 4 0.41298 0.480391 0.123703
4512 4 0.430252 0.491681 0.112828
4510 2 0.451488 0.495659 0.0979315
672 4 0.442531 0.417519 0.0846614
1589 4 0.490585 0.496292 0.0872839
687 4 0.0429727 0.039463 0.248445
685 2 0.0581881 0.0322 0.232738
686 4 0.0734035 0.024937 0.217031
3678 4 0.0932214 0.0299906 0.207112
3676 2 0.119752 0.0388363 0.203342
3677 4 0.146283 0.047682 0.199572
179 3 0.165677 0.0484703 0.199127
176 1 0.190052 0.0553474 0.194595
180 3 0.193877 0.0581106 0.172156
177 3 0.201689 0.0753884 0.20522
178 3 0.19904 0.0396398 0.202547
2573 4 0.218717 0.038087 0.207441
2572 2 0.245071 0.0451879 0.203135
2574 4 0.271425 0.0522888 0.198829
2733 4 0.243991 0.012649 0.228732
2731 2 0.266812 0.017434 0.241506
1506 4 0.290572 0.065192 0.190513
1504 2 0.316701 0.069216 0.192924
1505 4 0.34283 0.0732399 0.195335
2545 2 0.332601 0.0313226 0.24206
255 4 0.362518 0.076527 0.186422
2546 4 0.358789 0.0431986 0.237644
2547 4 0.306414 0.0194466 0.246475
253 2 0.382479 0.0677139 0.186207
254 4 0.402439 0.0589007 0.185992
3722 4 0.372746 0.0359769 0.228136
3721 2 0.397045 0.0412994 0.238284
3723 4 0.421344 0.0466219 0.248432
123 3 0.423377 0.0290095 0.246328
690 4 0.469428 0.0409392 0.187748
688 2 0.479455 0.0633749 0.198712
749 4 0.0115522 0.164558 0.166041
249 4 0.0140015 0.0838588 0.228978
458 4 0.0746712 0.163804 0.179807
405 4 0.0346037 0.0917954 0.231617
403 2 0.0584598 0.0965014 0.220749
404 4 0.082316 0.101207 0.209881
2181 4 0.0896681 0.115399 0.195816
2180 4 0.120063 0.0883068 0.186387
2179 2 0.104866 0.101853 0.191102
1749 4 0.14023 0.0959349 0.181431
1748 4 0.192366 0.113386 0.169541
1747 2 0.166298 0.104661 0.175486
632 4 0.26751 0.130499 0.216001
631 2 0.261246 0.12844 0.240314
522 4 0.278727 0.120358 0.207149
520 2 0.302068 0.116777 0.206532
521 4 0.32541 0.113196 0.205916
698 4 0.342277 0.118946 0.193837
697 2 0.36441 0.130081 0.180247
419 4 0.362387 0.128898 0.245941
689 4 0.489482 0.0858106 0.209675
2778 4 0.494333 0.16381 0.220243
385 2 0.0211591 0.211408 0.19224
237 4 0.0942229 0.168898 0.177236
457 2 0.0528448 0.169653 0.176679
459 4 0.0310184 0.175502 0.173551
386 4 0.0452207 0.209271 0.191314
276 4 0.0630247 0.225333 0.188665
274 2 0.0860039 0.227315 0.199985
275 4 0.108983 0.229297 0.211304
497 4 0.130179 0.242267 0.213327
235 2 0.121017 0.176631 0.177364
236 4 0.14781 0.184363 0.177493
579 4 0.165093 0.194506 0.167043
507 4 0.23575 0.21299 0.167991
332 4 0.300935 0.166418 0.170191
331 2 0.327464 0.175318 0.173977
333 4 0.353992 0.184218 0.177763
1220 4 0.399695 0.222681 0.239591
2516 4 0.376343 0.192568 0.183523
1219 2 0.423737 0.232738 0.228671
2515 2 0.397849 0.190424 0.194543
2517 4 0.419354 0.188281 0.205563
1221 4 0.447779 0.242795 0.217751
2477 4 0.435339 0.180409 0.205875
477 4 0.453671 0.22942 0.207637
2478 4 0.480382 0.172409 0.216691
2476 2 0.457861 0.176409 0.211283
475 2 0.480042 0.236556 0.211867
2540 4 0.00865061 0.307595 0.204245
1055 4 0.0245714 0.322285 0.191266
496 2 0.156279 0.253811 0.218372
498 4 0.182379 0.265356 0.223418
291 4 0.323253 0.300307 0.179983
289 2 0.342361 0.295638 0.192841
290 4 0.36147 0.290968 0.205699
2567 4 0.42417 0.291308 0.237167
2566 2 0.4131 0.292536 0.215024
2568 4 0.402029 0.293763 0.192882
345 4 0.427239 0.307604 0.249135
299 4 0.496984 0.284407 0.239338
2536 2 0.0156161 0.382668 0.198592
2537 4 0.0423426 0.393114 0.200306
4008 4 0.0586118 0.396372 0.186747
1054 2 0.0478145 0.337609 0.200869
4006 2 0.0831994 0.409381 0.195416
1056 4 0.0710576 0.352934 0.210472
337 2 0.170645 0.400914 0.216203
338 4 0.176531 0.392386 0.194579
2704 2 0.175057 0.359594 0.187586
2705 4 0.167367 0.351827 0.210891
339 4 0.164759 0.409442 0.237827
3988 2 0.315442 0.359339 0.167342
3990 4 0.338872 0.377947 0.17151
2861 4 0.348906 0.391277 0.185725
734 4 0.362427 0.340894 0.223167
518 4 0.360873 0.341815 0.204463
2860 2 0.362735 0.391203 0.206537
2862 4 0.376564 0.391128 0.227349
1803 4 0.397518 0.39943 0.229426
733 2 0.377645 0.348332 0.243616
517 2 0.371083 0.350528 0.182038
3817 2 0.00344069 0.431922 0.226106
3818 4 0.0132144 0.436637 0.249343
4007 4 0.107787 0.42239 0.204085
3566 4 0.492788 0.495767 0.219631
2739 4 0.0266238 0.0438718 0.255424
2737 2 0.000584793 0.0389224 0.259835
2732 4 0.289633 0.0222191 0.25428
3876 4 0.384922 0.0112041 0.328396
3698 4 0.37312 0.00442285 0.259711
3874 2 0.393527 0.00156855 0.308915
124 3 0.459625 0.0258375 0.251734
121 1 0.435006 0.0153746 0.254407
122 3 0.429974 0.0115815 0.276815
2855 4 0.479244 0.0246071 0.253201
2837 4 0.152423 0.146328 0.26597
2836 2 0.176719 0.149734 0.275247
2838 4 0.201015 0.15314 0.284523
633 4 0.254982 0.126381 0.264627
2878 2 0.296276 0.136007 0.285862
2879 4 0.271797 0.132344 0.276894
2880 4 0.320756 0.139669 0.29483
420 4 0.328562 0.141388 0.27505
418 2 0.345474 0.135143 0.260496
284 4 0.420417 0.21474 0.305962
283 2 0.413358 0.217366 0.282447
285 4 0.4063 0.219992 0.258932
390 4 0.437725 0.223979 0.316108
388 2 0.462388 0.223754 0.312568
389 4 0.487051 0.223529 0.309028
3631 2 0.0769449 0.317262 0.323331
3632 4 0.0722434 0.293538 0.316879
300 4 0.450251 0.274097 0.263214
2653 2 0.461772 0.301353 0.315314
2654 4 0.465717 0.317085 0.296004
344 4 0.455299 0.328953 0.289823
343 2 0.441269 0.318279 0.269479
298 2 0.473617 0.279252 0.251276
2495 4 0.0156137 0.370686 0.30916
365 4 0.071922 0.349234 0.317804
364 2 0.0542636 0.36079 0.317249
366 4 0.0366051 0.372346 0.316693
3633 4 0.0816464 0.340986 0.329784
2555 4 0.22009 0.40726 0.306905
2554 2 0.214586 0.398461 0.283593
2556 4 0.209083 0.389661 0.260281
2700 4 0.238683 0.396318 0.327975
1801 2 0.398395 0.411656 0.250887
2598 4 0.398987 0.414413 0.288444
2596 2 0.380651 0.413504 0.305794
2597 4 0.362315 0.412594 0.323144
735 4 0.392863 0.355771 0.264065
2531 4 0.478186 0.384673 0.321518
667 2 0.0279418 0.444762 0.301998
669 4 0.00362647 0.446001 0.299054
668 4 0.0522572 0.443523 0.304943
417 4 0.259104 0.436843 0.320645
415 2 0.284239 0.447638 0.32906
1802 4 0.399271 0.423881 0.272348
3476 4 0.0133069 0.0780144 0.354737
1244 4 0.031315 0.0745363 0.36063
1243 2 0.057141 0.0774374 0.363266
1245 4 0.082967 0.0803385 0.365902
2667 4 0.104925 0.0823152 0.368585
4125 4 0.117042 0.00382117 0.38924
4123 2 0.142537 0.00528235 0.387905
1496 4 0.185811 0.00142174 0.388425
4124 4 0.168033 0.00674353 0.38657
1495 2 0.212242 0.00635042 0.388891
1185 4 0.261189 0.0199011 0.389236
1497 4 0.238673 0.0112791 0.389356
1183 2 0.287196 0.0230696 0.390479
2114 4 0.333873 0.0323318 0.386828
1184 4 0.313202 0.026238 0.391723
2113 2 0.360651 0.0401129 0.385874
1126 2 0.436248 0.057492 0.389716
1128 4 0.410262 0.0539549 0.387036
2115 4 0.387429 0.0478941 0.38492
707 4 0.482878 0.0623293 0.390969
1127 4 0.462235 0.0610291 0.392396
2915 4 0.0197944 0.130088 0.39422
2936 4 0.0394672 0.129254 0.396688
2935 2 0.065912 0.134386 0.395513
2665 2 0.131047 0.0858261 0.368952
2664 4 0.108621 0.132573 0.395058
2937 4 0.0923568 0.139519 0.394339
2662 2 0.135267 0.138874 0.395674
2663 4 0.161914 0.145174 0.39629
2658 4 0.185028 0.15411 0.397602
2666 4 0.15717 0.0893371 0.369318
1377 4 0.178323 0.0909291 0.369405
2657 4 0.229925 0.145231 0.388475
1375 2 0.204569 0.0954471 0.371709
2656 2 0.207477 0.14967 0.393039
2870 4 0.250732 0.101556 0.366731
1376 4 0.230815 0.0999651 0.374013
2871 4 0.301384 0.103292 0.367095
2869 2 0.276058 0.102424 0.366913
1524 4 0.31829 0.0967145 0.371968
1523 4 0.3686 0.104105 0.385991
1522 2 0.343445 0.10041 0.37898
1058 4 0.389391 0.106786 0.388325
2643 4 0.45905 0.116506 0.39706
1059 4 0.440053 0.118019 0.403578
1057 2 0.414722 0.112402 0.395952
2641 2 0.483698 0.122076 0.406492
1034 4 0.172526 0.184013 0.414088
2611 2 0.256829 0.200543 0.404869
371 4 0.290532 0.225137 0.385057
2613 4 0.274374 0.207842 0.386005
372 4 0.340704 0.230658 0.397882
370 2 0.315618 0.227897 0.39147
473 4 0.350677 0.231948 0.415376
2823 4 0.486644 0.181617 0.390791
2821 2 0.486301 0.179472 0.415698
510 4 0.171287 0.279559 0.414166
509 4 0.194615 0.311742 0.377439
508 2 0.182951 0.295651 0.395803
717 4 0.21441 0.321462 0.372937
715 2 0.236513 0.323833 0.35986
716 4 0.258617 0.326205 0.346782
306 4 0.246939 0.265425 0.399175
3060 4 0.232042 0.267871 0.411303
305 4 0.289204 0.279862 0.36835
304 2 0.268071 0.272644 0.383763
118 3 0.402533 0.251155 0.394485
116 1 0.394691 0.254394 0.415581
2497 2 0.433835 0.265638 0.365334
2498 4 0.446799 0.268632 0.343492
2499 4 0.420871 0.262643 0.387175
2655 4 0.457827 0.285621 0.334624
375 4 0.184798 0.39639 0.371589
373 2 0.176285 0.403819 0.392561
374 4 0.167773 0.411247 0.413533
2699 4 0.196691 0.397281 0.354523
2904 4 0.258143 0.401752 0.337147
2698 2 0.217687 0.3968 0.341249
2902 2 0.275733 0.391411 0.344265
2874 4 0.314102 0.386547 0.355568
2903 4 0.293324 0.38107 0.351383
2872 2 0.335426 0.404852 0.346137
1434 4 0.434563 0.410361 0.348579
1432 2 0.449771 0.396942 0.34336
1433 4 0.46498 0.383523 0.33814
2712 4 0.0410511 0.447733 0.369659
3641 4 0.0254522 0.450198 0.378965
2826 4 0.099344 0.440187 0.38239
2711 4 0.0853992 0.436545 0.367998
2710 2 0.0632251 0.442139 0.368829
2824 2 0.124835 0.451491 0.375112
3592 2 0.18578 0.46142 0.385523
3593 4 0.166443 0.456668 0.368292
2825 4 0.150325 0.462794 0.367833
3594 4 0.205117 0.466171 0.402754
416 4 0.309373 0.458432 0.337475
775 2 0.345235 0.458205 0.358969
777 4 0.319707 0.453618 0.352601
776 4 0.370764 0.462792 0.365338
2873 4 0.356749 0.423156 0.336707
1757 4 0.428522 0.479096 0.334849
1756 2 0.404248 0.466291 0.344309
1758 4 0.379973 0.453486 0.353769
1452 4 0.447784 0.483784 0.343561
1450 2 0.461475 0.470893 0.353982
1451 4 0.475165 0.458001 0.364402
3797 4 0.0391634 0.0462505 0.438775
2646 4 0.0187586 0.0320574 0.434891
3796 2 0.0651243 0.0608575 0.437686
3798 4 0.0910852 0.0754644 0.436597
216 1 0.126999 0.0724269 0.445657
218 3 0.125309 0.0578413 0.428059
219 3 0.120633 0.0605748 0.465529
2459 4 0.11147 0.000837524 0.481662
2457 4 0.125207 0.0465241 0.475565
2455 2 0.147769 0.0445807 0.484372
1182 4 0.188238 0.0191525 0.466767
2559 4 0.194374 0.0700523 0.421329
4238 4 0.204942 0.0574572 0.424418
2456 4 0.170331 0.0426373 0.49318
1180 2 0.163389 0.00194178 0.466564
4237 2 0.231533 0.065005 0.427421
3852 4 0.223812 0.0435841 0.489872
4239 4 0.258124 0.0725527 0.430425
2489 4 0.0093871 0.0996689 0.495571
898 2 0.0388268 0.145645 0.46749
900 4 0.0172148 0.144426 0.480791
899 4 0.0604388 0.146863 0.454188
641 4 0.0792658 0.145769 0.458471
220 3 0.112372 0.0841042 0.441866
642 4 0.120578 0.145353 0.486407
640 2 0.0999221 0.145561 0.472439
319 2 0.158544 0.154173 0.481406
575 4 0.124415 0.0962579 0.491712
321 4 0.13596 0.151635 0.469059
574 2 0.147882 0.0956545 0.499651
90 3 0.107531 0.127963 0.497708
2557 2 0.1827 0.0856274 0.42955
2558 4 0.171026 0.101203 0.437772
217 3 0.150352 0.0871239 0.447285
984 4 0.191208 0.120017 0.439377
983 4 0.236247 0.152804 0.459013
982 2 0.213727 0.136411 0.449195
368 4 0.235244 0.156747 0.497721
320 4 0.181127 0.15671 0.493753
725 4 0.255938 0.165642 0.452598
2552 4 0.306141 0.10786 0.491154
2503 2 0.297342 0.109511 0.430622
2504 4 0.27326 0.0918364 0.434787
2551 2 0.279619 0.100514 0.49455
2553 4 0.253096 0.0931671 0.497947
762 4 0.325096 0.111951 0.482451
2505 4 0.321424 0.127186 0.426457
3173 4 0.382457 0.119971 0.459533
761 4 0.369563 0.103715 0.469817
760 2 0.34733 0.107833 0.476134
3174 4 0.427551 0.110586 0.465514
2899 2 0.462096 0.10546 0.473594
2901 4 0.436424 0.0959455 0.466359
3172 2 0.405004 0.115279 0.462523
2900 4 0.487768 0.114975 0.480828
2603 4 0.00272899 0.218676 0.46788
7 3 0.226241 0.174151 0.462409
9 3 0.199881 0.170883 0.490206
1035 4 0.224128 0.201433 0.427855
1033 2 0.198327 0.192723 0.420971
8 3 0.2299 0.204194 0.483507
6 1 0.223638 0.181151 0.483662
2612 4 0.239283 0.193244 0.423733
10 3 0.238227 0.175413 0.497894
724 2 0.282365 0.17851 0.453723
472 2 0.341001 0.215131 0.433615
474 4 0.331325 0.198315 0.451855
726 4 0.308792 0.191378 0.454849
119 3 0.369941 0.243979 0.416963
117 3 0.40513 0.245119 0.431251
3461 4 0.42416 0.181408 0.480368
411 4 0.433177 0.169093 0.487507
410 4 0.474307 0.177498 0.455925
2822 4 0.485959 0.177326 0.440604
409 2 0.453742 0.173295 0.471716
267 4 0.0314118 0.321092 0.477583
265 2 0.0158158 0.302501 0.463094
266 4 0.000219824 0.28391 0.448605
889 2 0.0703358 0.327183 0.494461
890 4 0.0449326 0.326074 0.493823
811 2 0.106832 0.317491 0.44961
812 4 0.0905181 0.293846 0.453581
891 4 0.095739 0.328292 0.495099
310 2 0.234502 0.271995 0.490701
3058 2 0.236454 0.264006 0.435286
311 4 0.224531 0.25663 0.471381
3059 4 0.240865 0.260141 0.45927
120 3 0.401159 0.276673 0.419748
2845 2 0.0607811 0.412983 0.480886
2510 4 0.113119 0.392879 0.439274
1239 4 0.106454 0.344651 0.485478
1237 2 0.131604 0.355017 0.493976
813 4 0.123147 0.341136 0.44564
2511 4 0.12677 0.353268 0.430061
2509 2 0.119944 0.373073 0.434667
804 4 0.164506 0.350423 0.497562
803 4 0.213789 0.350901 0.48807
802 2 0.189147 0.350662 0.492816
406 2 0.252594 0.364119 0.495718
408 4 0.228813 0.366812 0.494551
407 4 0.276374 0.361426 0.496885
1173 4 0.440164 0.40025 0.49052
559 2 0.00337047 0.497805 0.460911
2847 4 0.0569482 0.419672 0.457671
662 4 0.13505 0.491119 0.458681
661 2 0.111106 0.489838 0.450083
663 4 0.0871622 0.488557 0.441486
336 4 0.276512 0.475234 0.4916
334 2 0.30139 0.477761 0.484676
327 4 0.347316 0.482111 0.479226
335 4 0.326268 0.480287 0.477753
325 2 0.373713 0.490036 0.48361
326 4 0.40011 0.497962 0.487993
1446 4 0.417305 0.496206 0.476019
1172 4 0.427572 0.441259 0.489178
1444 2 0.437274 0.490129 0.485465
570 4 0.441049 0.443074 0.419979
1445 4 0.457242 0.484051 0.494911
2138 4 0.477633 0.488201 0.491332
568 2 0.46413 0.440554 0.426282
569 4 0.487212 0.438034 0.432585
1171 2 0.433868 0.420755 0.489849
3179 4 0.132561 0.0538316 0.56652
3178 2 0.158689 0.0588151 0.562591
3180 4 0.184818 0.0637987 0.558663
3395 4 0.185072 0.0469435 0.568729
3850 2 0.239465 0.0368622 0.505557
3851 4 0.255119 0.0301403 0.521243
3326 4 0.276481 0.0420512 0.525732
3325 2 0.30127 0.0483181 0.535037
3327 4 0.32606 0.054585 0.544343
3309 4 0.303953 0.00128332 0.566826
944 4 0.348073 0.0635818 0.540836
2997 4 0.300425 0.016932 0.574696
943 2 0.373209 0.0644163 0.537851
945 4 0.398346 0.0652507 0.534866
3033 4 0.419741 0.0724691 0.538279
3031 2 0.445759 0.0763595 0.541403
1967 4 0.476688 0.0294727 0.553946
3032 4 0.471777 0.08025 0.544528
1966 2 0.499013 0.0265961 0.562141
2490 4 0.0564359 0.0953715 0.505969
3104 4 0.00662921 0.0857646 0.580387
2488 2 0.0329115 0.0975202 0.50077
88 3 0.100936 0.116439 0.533491
86 1 0.0999811 0.109727 0.511342
89 3 0.114299 0.0971124 0.50831
87 3 0.0766524 0.0967852 0.506101
576 4 0.171348 0.0950512 0.507591
2196 4 0.192869 0.100109 0.504557
2194 2 0.217532 0.0998083 0.507886
367 2 0.246881 0.153491 0.518887
369 4 0.258517 0.150236 0.540054
2195 4 0.242194 0.0995079 0.511214
2501 4 0.493639 0.0919406 0.546229
1211 4 0.154512 0.201171 0.5705
936 4 0.291566 0.248316 0.572586
1259 4 0.284198 0.231341 0.58246
3462 4 0.392778 0.176405 0.520487
3460 2 0.408469 0.178907 0.500428
2811 4 0.00499422 0.274952 0.528126
145 3 0.0543853 0.270059 0.582519
3236 4 0.0763371 0.273969 0.579693
3235 2 0.0974243 0.273649 0.56646
3237 4 0.118511 0.273328 0.553227
312 4 0.244473 0.28736 0.510021
442 2 0.272524 0.305723 0.526623
443 4 0.247323 0.289476 0.528938
935 4 0.302841 0.291157 0.547368
444 4 0.297725 0.321969 0.524308
934 2 0.297204 0.269736 0.559977
2637 4 0.0117028 0.341934 0.51515
261 4 0.0494806 0.391958 0.514644
260 4 0.032648 0.342054 0.516473
259 2 0.0410643 0.367006 0.515558
2846 4 0.064614 0.406295 0.504101
1135 2 0.0571834 0.403789 0.580472
1137 4 0.0722295 0.416105 0.561273
1238 4 0.156755 0.365382 0.502474
2548 2 0.305344 0.357339 0.510334
2550 4 0.313823 0.340245 0.520511
2549 4 0.296866 0.374434 0.500158
3045 4 0.36475 0.349085 0.50624
3043 2 0.387263 0.344595 0.510269
3456 4 0.454455 0.379895 0.511904
3044 4 0.409777 0.340104 0.514298
2108 4 0.469953 0.396951 0.516734
3454 2 0.474714 0.371602 0.509786
3455 4 0.494973 0.36331 0.507669
4361 4 0.172122 0.452436 0.572203
3369 4 0.180525 0.472162 0.57291
3367 2 0.196757 0.481074 0.553338
3368 4 0.212989 0.489985 0.533767
240 4 0.223257 0.49467 0.515805
238 2 0.245144 0.490333 0.508703
239 4 0.267031 0.485996 0.501601
2129 4 0.373702 0.499257 0.574526
2213 4 0.355193 0.493898 0.561515
1029 4 0.363145 0.428192 0.508863
1027 2 0.389599 0.438254 0.504818
1028 4 0.416052 0.448315 0.500772
2107 2 0.479034 0.420836 0.524123
2109 4 0.488116 0.444722 0.531512
3123 4 0.111628 0.00701724 0.638055
3121 2 0.129805 0.000938587 0.62517
3394 2 0.204959 0.0485862 0.584605
3396 4 0.224846 0.050229 0.600482
3028 2 0.224056 0.0688765 0.635345
3029 4 0.230863 0.0747184 0.659231
3030 4 0.217248 0.0630345 0.611459
3023 4 0.221239 0.0201578 0.618059
270 4 0.240602 0.0171286 0.651522
3022 2 0.24745 0.0314725 0.613365
3024 4 0.27366 0.0427873 0.608671
4074 4 0.260293 0.0218983 0.656212
3066 4 0.206295 0.0111811 0.603247
2996 4 0.295029 0.0528024 0.603647
4072 2 0.285276 0.0235804 0.650684
2995 2 0.297727 0.0348672 0.589172
4073 4 0.310259 0.0252626 0.645157
1025 4 0.23345 0.0930703 0.666544
3110 4 0.0244215 0.188084 0.633719
2813 4 0.000880102 0.206711 0.59211
144 3 0.0556055 0.246958 0.610435
3109 2 0.0421366 0.209734 0.625324
3111 4 0.0598518 0.231384 0.616928
3383 4 0.0825778 0.235723 0.615826
3382 2 0.109403 0.244348 0.616439
1210 2 0.167586 0.189417 0.583736
1212 4 0.18066 0.177663 0.596973
3038 4 0.344696 0.220369 0.584045
1258 2 0.306793 0.227566 0.588089
1260 4 0.329388 0.22379 0.593718
3037 2 0.370676 0.22585 0.589213
3039 4 0.396656 0.231331 0.594382
3386 4 0.415862 0.23831 0.603244
3385 2 0.441768 0.241326 0.601119
3387 4 0.467675 0.244342 0.598994
384 4 0.486425 0.242283 0.602272
3266 4 0.0106924 0.264364 0.596339
142 3 0.0211992 0.251833 0.60203
141 1 0.0457367 0.262276 0.603172
143 3 0.0512082 0.279925 0.618169
3357 4 0.0769721 0.32616 0.65235
3355 2 0.073521 0.303999 0.642001
3356 4 0.0700699 0.281838 0.631651
2627 4 0.0742209 0.270364 0.647058
2626 2 0.0881672 0.260025 0.661025
3384 4 0.136228 0.252974 0.617052
3107 4 0.155717 0.263891 0.621551
3106 2 0.181453 0.268157 0.616305
3108 4 0.207188 0.272423 0.61106
3165 4 0.224659 0.282534 0.622452
3163 2 0.247189 0.283685 0.634126
3164 4 0.269719 0.284835 0.6458
1083 4 0.286877 0.28285 0.655557
1081 2 0.291123 0.263041 0.665018
905 4 0.0652108 0.335846 0.660413
1136 4 0.0421373 0.391472 0.59967
2721 4 0.496242 0.375552 0.62552
1007 4 0.0552714 0.49441 0.651097
1006 2 0.0773272 0.488954 0.654348
1008 4 0.0993829 0.483499 0.6576
4196 4 0.116773 0.485432 0.646907
4195 2 0.130813 0.473837 0.634816
4197 4 0.144853 0.462242 0.622725
4362 4 0.160345 0.45468 0.620531
4360 2 0.166234 0.453558 0.596367
2215 2 0.482241 0.499711 0.663377
818 4 0.0776427 0.0507311 0.706618
2306 4 0.0664085 0.0582446 0.719226
2305 2 0.0712387 0.0783905 0.733723
817 2 0.103773 0.054592 0.7086
819 4 0.129903 0.0584528 0.710581
887 4 0.145849 0.0723101 0.720753
886 2 0.170847 0.0742069 0.714999
888 4 0.195845 0.0761036 0.709245
1026 4 0.217092 0.0775192 0.712943
3082 2 0.247947 0.00539374 0.731179
3084 4 0.236185 0.017258 0.71649
268 2 0.235263 0.0193427 0.675643
269 4 0.229924 0.0215569 0.699764
1194 4 0.00954361 0.0982118 0.73669
2307 4 0.0760689 0.0985365 0.74822
1024 2 0.225271 0.0852947 0.689744
3207 4 0.278269 0.154367 0.725573
3205 2 0.278739 0.134992 0.711958
3206 4 0.27921 0.115617 0.698343
3020 4 0.282561 0.109623 0.679823
3019 2 0.306667 0.107547 0.680004
3021 4 0.330774 0.105471 0.680185
3293 4 0.351881 0.106121 0.678866
3294 4 0.386811 0.148928 0.697191
3292 2 0.369346 0.127525 0.688028
3008 4 0.470824 0.132244 0.743148
3126 4 0.490268 0.130712 0.741524
2628 4 0.102114 0.249686 0.674991
3240 4 0.109532 0.187883 0.712647
3351 4 0.167753 0.208763 0.671092
3238 2 0.128114 0.194347 0.694607
3239 4 0.146695 0.20081 0.676567
3349 2 0.190309 0.204349 0.675125
3350 4 0.212866 0.199934 0.679157
779 4 0.233555 0.202455 0.685129
778 2 0.235779 0.210306 0.708854
780 4 0.238004 0.218156 0.732578
1082 4 0.295368 0.243233 0.67448
3441 4 0.121504 0.26191 0.678467
3439 2 0.148154 0.268641 0.676833
3440 4 0.174804 0.275371 0.675199
896 4 0.181754 0.258986 0.674976
895 2 0.20303 0.266786 0.690202
897 4 0.224307 0.274585 0.705429
1085 4 0.241225 0.272079 0.694974
1086 4 0.29036 0.305765 0.703356
1084 2 0.265793 0.288922 0.699165
922 2 0.372844 0.314297 0.743934
923 4 0.380535 0.333374 0.727772
3092 4 0.406881 0.329109 0.675097
4494 4 0.00489532 0.388386 0.720434
4492 2 0.0283368 0.407344 0.717564
904 2 0.053576 0.34312 0.679461
906 4 0.0419412 0.350393 0.69851
885 4 0.130617 0.413756 0.72484
3093 4 0.402254 0.34369 0.721806
3091 2 0.404567 0.336399 0.698451
1276 2 0.0523534 0.498867 0.736815
1097 4 0.0110309 0.481149 0.738734
1278 4 0.0282398 0.486466 0.726825
4493 4 0.0517782 0.426303 0.714694
883 2 0.156268 0.424333 0.717771
884 4 0.181918 0.434911 0.710701
1956 4 0.201739 0.436059 0.714478
1954 2 0.224691 0.43202 0.711779
1955 4 0.247644 0.427982 0.709081
1999 2 0.0298366 0.0257215 0.767329
2001 4 0.00757762 0.0110197 0.755669
1146 4 0.0690873 0.0501536 0.791351
2000 4 0.0520955 0.0404233 0.778989
1145 4 0.12077 0.0680767 0.804845
1144 2 0.0949286 0.0591151 0.798098
3132 4 0.137813 0.0708797 0.81631
3130 2 0.163802 0.082024 0.822017
4345 2 0.2795 0.0586889 0.83015
3146 4 0.312897 0.064389 0.80577
4346 4 0.292142 0.0551099 0.809771
4580 4 0.339644 0.0475985 0.766451
2283 4 0.325851 0.0320687 0.75706
2281 2 0.300873 0.0151809 0.758381
4579 2 0.359974 0.0392739 0.766573
2036 4 0.386509 0.0150158 0.761849
4581 4 0.380304 0.0309493 0.766695
3131 4 0.189791 0.0931683 0.827724
4441 2 0.28716 0.102697 0.782923
4442 4 0.261233 0.0892375 0.778866
4443 4 0.313087 0.116157 0.78698
3147 4 0.355194 0.106474 0.813496
3145 2 0.334046 0.0854314 0.809633
3281 4 0.391796 0.124188 0.827595
3007 2 0.452528 0.113783 0.755846
3280 2 0.417988 0.134138 0.822268
3040 2 0.477554 0.147424 0.803699
3042 4 0.454949 0.131863 0.814167
3282 4 0.44418 0.144087 0.816942
3009 4 0.434232 0.0953225 0.768544
3482 4 0.010285 0.221438 0.772904
3481 2 0.0132339 0.200324 0.780274
3483 4 0.0161827 0.179209 0.787643
1691 4 0.117036 0.244338 0.804229
55 3 0.130426 0.183719 0.82805
1607 4 0.374223 0.242839 0.828921
863 4 0.0243525 0.275416 0.822717
1073 4 0.05102 0.320735 0.780543
3034 2 0.0189476 0.331274 0.775742
1072 2 0.0747264 0.31786 0.781256
862 2 0.0453179 0.272753 0.811145
870 4 0.00665356 0.275057 0.830039
1692 4 0.0830168 0.268616 0.80871
3246 4 0.11379 0.311218 0.791874
864 4 0.0662833 0.27009 0.799573
1074 4 0.0984327 0.314986 0.781968
1690 2 0.100027 0.256477 0.80647
3244 2 0.126674 0.3142 0.813758
1209 4 0.13778 0.259759 0.806206
1208 4 0.182536 0.288771 0.782953
1207 2 0.160158 0.274265 0.79458
482 4 0.377008 0.294657 0.775333
924 4 0.365153 0.29522 0.760095
483 4 0.407585 0.311456 0.815846
481 2 0.392296 0.303057 0.795589
3035 4 0.044343 0.336249 0.782833
860 4 0.105007 0.414117 0.789552
859 2 0.117955 0.402958 0.775361
4456 2 0.167579 0.391997 0.781238
4457 4 0.14211 0.387027 0.774398
861 4 0.130902 0.3918 0.76117
38 3 0.191636 0.401845 0.807291
4458 4 0.193048 0.396966 0.788078
36 1 0.198082 0.407449 0.829401
2337 4 0.300055 0.364356 0.830715
4160 4 0.30336 0.374028 0.813338
815 4 0.28441 0.401328 0.789548
4161 4 0.341218 0.390342 0.778087
4159 2 0.322289 0.382185 0.795713
1168 2 0.389793 0.402353 0.776387