ITEM: TIMESTEP
2345500
ITEM: NUMBER OF ATOMS
4590
ITEM: BOX BOUNDS xy xz yz pp pp pp
-1.1798312600000003e+01 9.9985700000000008e+00 -1.7997426000000019e+00
-9.9985700000000008e+00 9.9985700000000008e+00 0.0000000000000000e+00
-9.9985700000000008e+00 9.9985700000000008e+00 0.0000000000000000e+00
ITEM: ATOMS id type xs ys zs
3069 4 0.420388 0.0131546 0.0403901
1652 4 0.446491 0.0459166 0.0707276
3269 4 0.472322 0.0171956 0.0308568
2469 4 0.465752 0.0453997 0.0661519
2467 2 0.488573 0.0557429 0.0724022
1651 2 0.43145 0.0603551 0.0829639
3067 2 0.443021 0.00551818 0.0355947
3268 2 0.497064 0.0218355 0.0273949
355 2 0.00956056 0.103614 0.0678047
356 4 0.0325859 0.0992077 0.0602418
758 4 0.050325 0.109198 0.0610888
757 2 0.0715237 0.109964 0.0744346
3260 4 0.133274 0.111322 0.0234724
3259 2 0.155542 0.124711 0.0249722
3261 4 0.177811 0.138101 0.026472
278 4 0.196295 0.149884 0.0284586
277 2 0.218656 0.163128 0.0297388
2895 4 0.240305 0.137619 0.0531415
2893 2 0.265177 0.138782 0.0563751
2894 4 0.290048 0.139944 0.0596086
23 3 0.299913 0.130228 0.0750978
2889 4 0.333886 0.0990846 0.0178409
22 3 0.290239 0.0932618 0.0726805
2887 2 0.35632 0.111973 0.0203948
2888 4 0.378754 0.124861 0.0229487
2783 4 0.398523 0.130339 0.0297439
2782 2 0.422568 0.139645 0.0298413
2784 4 0.446613 0.14895 0.0299386
1274 4 0.47017 0.144095 0.0821967
2702 4 0.485811 0.149736 0.0691386
2844 4 0.461062 0.159553 0.021341
2441 4 0.0096184 0.22734 0.0320154
2440 2 0.0334561 0.222536 0.0284022
1248 4 0.996933 0.214653 0.0437376
492 4 0.0625651 0.201777 0.036539
2442 4 0.0572937 0.217731 0.0247891
490 2 0.0820374 0.198689 0.0515579
491 4 0.10151 0.195602 0.0665769
2837 4 0.0977478 0.197704 0.084954
456 4 0.157896 0.169242 0.0881343
279 4 0.241017 0.176372 0.0310189
3141 4 0.261333 0.183633 0.0323328
526 2 0.279594 0.216084 0.0819048
3198 4 0.254667 0.241737 0.998665
2876 4 0.275155 0.245657 0.00259769
3139 2 0.286379 0.185201 0.0338985
2651 4 0.3241 0.219997 0.0704783
527 4 0.303014 0.218449 0.0729036
3140 4 0.311425 0.18677 0.0354642
2650 2 0.330453 0.234137 0.0504927
621 4 0.330967 0.187745 0.0384585
619 2 0.352044 0.181915 0.0496189
2652 4 0.336807 0.248277 0.030507
620 4 0.373121 0.176085 0.0607793
102 3 0.377815 0.222985 0.031202
103 3 0.385019 0.249784 0.00528831
101 1 0.377712 0.245504 0.0270183
2966 4 0.392455 0.171937 0.0604772
2965 2 0.414158 0.181273 0.0706153
449 4 0.444913 0.239114 0.076825
2967 4 0.435861 0.19061 0.0807533
915 4 0.451032 0.241466 0.0575082
108 3 0.470751 0.241762 0.0585936
2842 2 0.482375 0.173503 0.0266585
3216 4 0.198049 0.280659 0.00952054
2875 2 0.298041 0.25102 0.0123217
2877 4 0.320927 0.256383 0.0220457
104 3 0.355996 0.251536 0.0295752
913 2 0.430717 0.250363 0.0475007
105 3 0.391696 0.257122 0.041725
914 4 0.410402 0.25926 0.0374931
670 2 0.437005 0.313249 0.0709955
672 4 0.444336 0.320036 0.0478881
107 3 0.485519 0.2723 0.076913
109 3 0.488666 0.270845 0.0394992
106 1 0.488418 0.258398 0.0590624
4546 2 0.498147 0.262933 0.00572552
4547 4 0.499345 0.279025 0.0248608
2748 4 0.346161 0.34834 0.0525445
2746 2 0.356704 0.343103 0.0743724
462 4 0.454671 0.337845 0.0418459
460 2 0.474529 0.339958 0.0265532
461 4 0.494388 0.342072 0.0112605
3671 4 0.0300685 0.479164 0.0732222
1710 4 0.0268758 0.498867 0.0676094
648 4 0.0839869 0.457087 0.0670928
646 2 0.0937169 0.454562 0.0442964
647 4 0.103447 0.452038 0.0215
1572 4 0.122922 0.454791 0.0236111
75 3 0.0919868 0.473291 0.0768098
1570 2 0.147885 0.454471 0.0228867
74 3 0.122891 0.497572 0.0749677
1571 4 0.172847 0.454151 0.0221623
3711 4 0.190898 0.465405 0.0192113
3709 2 0.214024 0.474562 0.0258419
3710 4 0.237151 0.483718 0.0324725
1786 2 0.282911 0.49243 0.0371762
1787 4 0.258266 0.487132 0.0335651
1788 4 0.307556 0.497728 0.0407874
2907 4 0.486416 0.461946 0.0217741
2905 2 0.493621 0.44351 0.0361517
2906 4 0.500825 0.425074 0.0505292
3809 4 0.00793498 0.0506727 0.139494
3808 2 0.0323512 0.048827 0.143674
3810 4 0.0567673 0.0469814 0.147855
2744 4 0.352549 0.0283804 0.147205
2743 2 0.363818 0.0480464 0.15938
1653 4 0.41641 0.0747935 0.0952001
3766 2 0.424749 0.050413 0.154672
3767 4 0.413647 0.0280155 0.161075
3768 4 0.435852 0.0728106 0.14827
520 2 0.0200963 0.134549 0.151207
521 4 0.0428982 0.145207 0.145333
624 4 0.0492433 0.143181 0.12615
622 2 0.0728232 0.148194 0.118079
623 4 0.0964032 0.153207 0.110009
759 4 0.0927224 0.11073 0.0877804
455 4 0.115824 0.152576 0.112153
1564 2 0.16434 0.125677 0.158361
1566 4 0.163704 0.112075 0.137389
692 4 0.170741 0.0959208 0.128719
454 2 0.13686 0.160909 0.100144
691 2 0.195796 0.0969533 0.127692
693 4 0.22085 0.0979859 0.126665
353 4 0.2283 0.112902 0.139121
352 2 0.250448 0.108749 0.129086
354 4 0.272595 0.104597 0.119051
2678 4 0.342354 0.0887538 0.15018
24 3 0.284776 0.111036 0.105036
743 4 0.293272 0.159397 0.0962005
21 1 0.298819 0.110118 0.0866503
25 3 0.31974 0.105806 0.0934317
2677 2 0.339588 0.0935959 0.125859
2679 4 0.336823 0.0984381 0.101538
809 4 0.354429 0.109557 0.10254
808 2 0.37804 0.117989 0.0968961
810 4 0.401651 0.126422 0.0912525
1275 4 0.421989 0.133095 0.094557
1273 2 0.446079 0.138595 0.0883769
1875 4 0.445439 0.0891133 0.139676
1873 2 0.466339 0.104159 0.135581
1874 4 0.487239 0.119205 0.131485
2836 2 0.103958 0.212272 0.104676
2838 4 0.110167 0.226839 0.124398
528 4 0.256174 0.213718 0.090906
742 2 0.31678 0.170201 0.0969745
744 4 0.340289 0.181004 0.0977486
2600 4 0.357663 0.192297 0.0999888
2599 2 0.379651 0.205467 0.104349
2601 4 0.401639 0.218637 0.10871
450 4 0.421009 0.220762 0.117677
448 2 0.432961 0.229938 0.0972508
3242 4 0.453934 0.197741 0.0868323
3241 2 0.477771 0.206432 0.0825796
846 4 0.231775 0.255568 0.0832844
252 4 0.23455 0.291397 0.111157
250 2 0.25077 0.311682 0.113713
844 2 0.241999 0.254543 0.106037
845 4 0.252224 0.253517 0.128791
251 4 0.26699 0.331966 0.11627
2727 4 0.373078 0.328139 0.112066
517 2 0.390536 0.279263 0.150029
518 4 0.390675 0.268443 0.127515
2725 2 0.397137 0.324635 0.107731
671 4 0.429674 0.306461 0.0941029
2726 4 0.421195 0.321131 0.103396
412 2 0.461587 0.285762 0.147372
414 4 0.474335 0.292731 0.126643
351 4 0.478166 0.293826 0.105692
349 2 0.498636 0.304675 0.0944012
596 4 0.00287012 0.390843 0.0969671
595 2 0.0273878 0.394002 0.0916785
766 2 0.00928473 0.336804 0.108514
597 4 0.0519055 0.397161 0.0863899
768 4 0.033154 0.346636 0.108021
2094 4 0.0506173 0.353557 0.115229
2092 2 0.0713582 0.355204 0.101144
3696 4 0.0801349 0.378659 0.162922
2093 4 0.0920991 0.35685 0.0870595
3389 4 0.0712398 0.40104 0.0933792
3388 2 0.0930233 0.41433 0.0884061
287 4 0.281706 0.345908 0.117577
286 2 0.304189 0.358627 0.120424
288 4 0.326672 0.371346 0.123272
2799 4 0.346065 0.37871 0.13065
2797 2 0.368442 0.389837 0.123984
2747 4 0.367246 0.337865 0.0962003
2798 4 0.390819 0.400964 0.117318
2861 4 0.408603 0.393735 0.117309
2860 2 0.429286 0.395302 0.131478
2862 4 0.449968 0.396869 0.145647
3670 2 0.0368802 0.473976 0.0965735
3672 4 0.0436919 0.468788 0.119925
73 3 0.0964517 0.501544 0.101624
71 1 0.107269 0.486319 0.0890516
72 3 0.118256 0.472983 0.103291
3390 4 0.114807 0.42762 0.0834329
3000 4 0.134264 0.432875 0.0896336
2161 2 0.0857846 0.500532 0.14412
2998 2 0.157298 0.436704 0.0994164
2999 4 0.180333 0.440533 0.109199
2913 4 0.193449 0.441796 0.125104
2911 2 0.213637 0.454217 0.135459
2912 4 0.233825 0.466638 0.145815
230 4 0.242488 0.456432 0.159715
255 4 0.0428046 0.0338612 0.223931
253 2 0.0677961 0.0354121 0.221659
254 4 0.0927876 0.036963 0.219387
632 4 0.105512 0.0412625 0.204749
631 2 0.124478 0.0416708 0.22108
633 4 0.143445 0.0420791 0.23741
698 4 0.1896 0.0379265 0.223263
697 2 0.211148 0.0445636 0.235189
699 4 0.232696 0.0512006 0.247114
688 2 0.267917 0.0730315 0.2472
689 4 0.292746 0.0768193 0.243858
2573 4 0.312126 0.0839951 0.242981
2693 4 0.402338 0.0117553 0.169426
2745 4 0.375086 0.0677124 0.171554
2545 2 0.373119 0.0656569 0.24782
427 2 0.361607 0.000691336 0.228923
429 4 0.385538 0.00646252 0.222308
2756 4 0.402899 0.0165004 0.221254
2755 2 0.413447 0.0385571 0.213168
2547 4 0.387593 0.087133 0.245235
2757 4 0.423994 0.0606137 0.205081
2738 4 0.430274 0.0799075 0.203958
420 4 0.0241764 0.151359 0.239907
177 3 0.0411889 0.162706 0.244559
1748 4 0.0798411 0.151203 0.236181
1747 2 0.0832316 0.153796 0.211513
1749 4 0.086622 0.156389 0.186845
459 4 0.10688 0.158177 0.185624
457 2 0.130794 0.153516 0.188988
458 4 0.154708 0.148855 0.192352
1565 4 0.164975 0.13928 0.179333
2768 4 0.217685 0.131425 0.191412
2767 2 0.234074 0.150381 0.198505
711 4 0.252236 0.120101 0.246744
709 2 0.274027 0.127276 0.235491
506 4 0.341266 0.104735 0.162896
710 4 0.295818 0.13445 0.224239
497 4 0.303405 0.152128 0.232155
496 2 0.325846 0.148158 0.222686
505 2 0.346136 0.124084 0.178419
507 4 0.351007 0.143434 0.193943
498 4 0.348287 0.144188 0.213217
2572 2 0.333708 0.0982327 0.239763
2574 4 0.35529 0.11247 0.236544
2739 4 0.40243 0.0997718 0.239001
2737 2 0.416352 0.0898397 0.22148
1271 4 0.366651 0.12333 0.25126
2769 4 0.250463 0.169336 0.205598
3159 4 0.223124 0.215254 0.252227
651 4 0.236511 0.214992 0.236622
649 2 0.249769 0.200529 0.222338
650 4 0.263027 0.186066 0.208054
237 4 0.344544 0.222366 0.228715
235 2 0.352598 0.206605 0.211772
236 4 0.360651 0.190845 0.194829
579 4 0.37865 0.19486 0.200764
577 2 0.402479 0.189155 0.201087
578 4 0.426307 0.18345 0.201411
387 4 0.438816 0.200777 0.200957
385 2 0.455678 0.213159 0.185994
386 4 0.472541 0.225541 0.171031
2728 2 0.0528536 0.334572 0.185751
2730 4 0.056373 0.320586 0.205918
2753 4 0.0744709 0.321415 0.214596
2752 2 0.0993449 0.321993 0.211642
2754 4 0.124219 0.322571 0.208687
2541 4 0.35256 0.31387 0.243391
2904 4 0.357055 0.311987 0.223929
2902 2 0.37299 0.306133 0.206042
519 4 0.390397 0.290084 0.172543
2903 4 0.388925 0.300279 0.188155
2462 4 0.433155 0.273258 0.181534
413 4 0.448839 0.278794 0.168102
2461 2 0.448958 0.266582 0.199184
2463 4 0.464761 0.259906 0.216834
1199 4 0.479211 0.274343 0.219899
1198 2 0.482795 0.267938 0.243708
2729 4 0.0493343 0.348558 0.165583
3404 4 0.0486859 0.389154 0.226706
3694 2 0.104083 0.384002 0.1697
3403 2 0.0710828 0.3853 0.217061
3405 4 0.0934798 0.381446 0.207415
3695 4 0.128031 0.389344 0.176477
3448 2 0.194139 0.382955 0.236019
3449 4 0.214649 0.37786 0.223388
714 4 0.233613 0.384645 0.229355
712 2 0.249882 0.400428 0.21688
713 4 0.266151 0.416211 0.204405
2162 4 0.0754131 0.495877 0.166579
3830 4 0.0105421 0.43363 0.181246
3829 2 0.0352619 0.436944 0.185464
3599 4 0.0768572 0.499193 0.185924
3831 4 0.0599818 0.440258 0.189681
4005 4 0.0652747 0.45224 0.205306
4003 2 0.0736055 0.449 0.228551
4004 4 0.0819364 0.445759 0.251796
734 4 0.191239 0.470154 0.239412
733 2 0.212409 0.47396 0.226111
612 4 0.280772 0.419491 0.190953
735 4 0.233579 0.477766 0.21281
610 2 0.305412 0.42229 0.186203
231 4 0.251825 0.478319 0.204072
229 2 0.247157 0.467375 0.181893
611 4 0.330052 0.425089 0.181454
2592 4 0.344602 0.415688 0.172018
2590 2 0.362679 0.434303 0.175127
2591 4 0.380756 0.452918 0.178236
258 4 0.0881293 0.0575218 0.305637
256 2 0.11226 0.0583066 0.312397
257 4 0.13639 0.0590914 0.319157
3926 4 0.139283 0.0314847 0.253491
516 4 0.147995 0.0749626 0.326605
3925 2 0.151411 0.033837 0.275346
514 2 0.172706 0.0750037 0.322767
3927 4 0.163539 0.0361892 0.297202
3698 4 0.176228 0.02204 0.299613
690 4 0.243088 0.0692438 0.250542
515 4 0.197417 0.0750447 0.318929
3697 2 0.200464 0.0252777 0.306041
1703 4 0.217056 0.0800833 0.31467
3699 4 0.224701 0.0285154 0.312469
544 2 0.261349 0.0451731 0.32925
545 4 0.237192 0.0395057 0.32343
3722 4 0.338927 0.0362891 0.254508
3723 4 0.293055 0.0523929 0.255968
3721 2 0.315991 0.044341 0.255238
707 4 0.323382 0.0192128 0.330501
1127 4 0.329061 0.0245549 0.312221
2546 4 0.358645 0.0441809 0.250405
1126 2 0.35088 0.036701 0.305285
1128 4 0.372699 0.0488471 0.298348
1806 4 0.41838 0.00699537 0.273568
2113 2 0.408564 0.073387 0.304906
2115 4 0.390728 0.0564382 0.296427
1184 4 0.426207 0.0255619 0.278068
342 4 0.494226 0.0367151 0.285393
1185 4 0.474164 0.0399769 0.288831
1183 2 0.450186 0.0327694 0.283449
176 1 0.0573513 0.156791 0.259237
179 3 0.0469424 0.148446 0.278615
180 3 0.0690616 0.140868 0.249626
1190 4 0.0563886 0.142899 0.296472
1189 2 0.0722569 0.133037 0.312193
634 2 0.193512 0.166178 0.294185
636 4 0.203739 0.146003 0.285633
2643 4 0.222357 0.154828 0.287157
2641 2 0.23902 0.141348 0.276024
2642 4 0.255683 0.127869 0.264892
1702 2 0.237839 0.0951637 0.310155
530 4 0.270836 0.117191 0.290687
1704 4 0.258623 0.110244 0.305641
529 2 0.295705 0.120426 0.287427
531 4 0.320575 0.123662 0.284167
4306 2 0.343738 0.106656 0.31042
4307 4 0.337411 0.11462 0.28779
2114 4 0.426401 0.0903358 0.313386
1272 4 0.414086 0.122383 0.266806
1270 2 0.390369 0.122857 0.259033
3677 4 0.435624 0.129196 0.270546
4308 4 0.350066 0.0986911 0.33305
3676 2 0.459333 0.127671 0.277912
3678 4 0.483041 0.126146 0.285278
285 4 0.0900764 0.178893 0.258413
178 3 0.0717112 0.175597 0.264164
283 2 0.115008 0.182557 0.260961
284 4 0.139941 0.18622 0.263508
513 4 0.141062 0.199301 0.321392
511 2 0.152981 0.200397 0.299386
479 4 0.138375 0.245515 0.304183
512 4 0.1649 0.201493 0.27738
3157 2 0.199011 0.207169 0.255823
3158 4 0.174898 0.199084 0.259419
635 4 0.183285 0.186352 0.302738
1394 4 0.317249 0.237419 0.269742
725 4 0.4313 0.221958 0.300727
724 2 0.413745 0.207133 0.312655
1031 4 0.435383 0.240753 0.309804
726 4 0.39619 0.192308 0.324583
509 4 0.459825 0.202532 0.290141
508 2 0.466032 0.224611 0.279191
510 4 0.47224 0.246691 0.268242
537 4 0.494515 0.203579 0.270771
715 2 0.0108382 0.308782 0.267143
716 4 0.0254207 0.330338 0.266288
2698 2 0.106376 0.24917 0.326548
2699 4 0.124101 0.256912 0.309957
478 2 0.161733 0.2567 0.303492
480 4 0.185092 0.267886 0.302801
343 2 0.214029 0.307425 0.318126
2681 4 0.243501 0.319518 0.284274
344 4 0.229424 0.311738 0.298598
2680 2 0.267576 0.316322 0.279645
2682 4 0.29165 0.313126 0.275015
2539 2 0.331121 0.315609 0.255872
2540 4 0.309682 0.317348 0.268354
1393 2 0.329629 0.258794 0.277422
2786 4 0.357948 0.287955 0.275224
1395 4 0.342008 0.280169 0.285102
2785 2 0.381367 0.282448 0.280015
2787 4 0.404786 0.276942 0.284807
1030 2 0.428633 0.262759 0.301761
1032 4 0.421883 0.284765 0.293719
1200 4 0.486379 0.261533 0.267516
375 4 0.00740487 0.391957 0.336169
373 2 0.0153463 0.410483 0.320593
3450 4 0.173629 0.388049 0.248651
2872 2 0.16833 0.399273 0.281964
2874 4 0.169601 0.379828 0.266538
246 4 0.218167 0.40834 0.314512
244 2 0.241282 0.413619 0.305306
3989 4 0.461846 0.414513 0.266203
1432 2 0.480998 0.39412 0.3317
374 4 0.0232876 0.429008 0.305017
1857 4 0.0433523 0.435396 0.302202
1855 2 0.0597637 0.43405 0.283492
1856 4 0.076175 0.432705 0.264782
1574 4 0.139407 0.504099 0.297807
1573 2 0.161457 0.495153 0.293032
2873 4 0.167059 0.418718 0.29739
1 1 0.191899 0.452081 0.305134
5 3 0.185797 0.473368 0.304039
1575 4 0.183508 0.486207 0.288258
2 3 0.174034 0.437416 0.298782
3 3 0.197902 0.447158 0.326873
4 3 0.209752 0.449679 0.290776
4368 4 0.230406 0.45501 0.288717
245 4 0.264397 0.418899 0.296099
4367 4 0.276159 0.476087 0.277176
2621 4 0.281722 0.426351 0.303357
4366 2 0.253282 0.465549 0.282947
1382 4 0.290414 0.49089 0.278063
2620 2 0.301409 0.442904 0.307836
1381 2 0.311623 0.496669 0.265265
542 4 0.335863 0.473595 0.310585
2622 4 0.321095 0.459457 0.312316
541 2 0.357399 0.483381 0.300446
543 4 0.378935 0.493168 0.290308
3998 4 0.398071 0.499903 0.290314
3988 2 0.484228 0.417206 0.254899
1496 4 0.0602821 0.038156 0.395186
1495 2 0.0731492 0.0229466 0.381359
1497 4 0.0860163 0.00773719 0.367532
546 4 0.285507 0.0508405 0.335071
708 4 0.281718 0.99651 0.350887
249 4 0.301795 0.053319 0.347703
706 2 0.30255 0.00786159 0.340694
247 2 0.323542 0.0676961 0.347309
248 4 0.345289 0.0820732 0.346916
1191 4 0.0881253 0.123175 0.327914
402 4 0.10589 0.132573 0.334213
400 2 0.118088 0.149334 0.349378
401 4 0.130286 0.166095 0.364543
2891 4 0.192249 0.155993 0.377582
2890 2 0.169116 0.163599 0.377411
2892 4 0.145982 0.171206 0.37724
2580 4 0.197554 0.158393 0.359154
2578 2 0.221643 0.156631 0.364998
2579 4 0.245732 0.15487 0.370842
982 2 0.253336 0.134318 0.404372
983 4 0.256694 0.141868 0.380687
474 4 0.402829 0.144885 0.368383
472 2 0.42686 0.148767 0.375405
473 4 0.450892 0.152649 0.382426
369 4 0.46756 0.157684 0.371103
3632 4 0.0243556 0.221193 0.380277
2451 4 0.0302913 0.220406 0.360028
2450 4 0.0799317 0.232309 0.359749
2449 2 0.0551115 0.226357 0.359888
2700 4 0.0886504 0.241427 0.343139
3497 4 0.270862 0.203048 0.419297
367 2 0.491051 0.168563 0.371368
2496 4 0.1192 0.275986 0.411961
2528 4 0.126877 0.264146 0.397699
2529 4 0.163514 0.247745 0.369787
345 4 0.198633 0.303113 0.337655
2527 2 0.145196 0.255946 0.383743
2597 4 0.152249 0.316274 0.370052
2596 2 0.175936 0.313731 0.363217
2598 4 0.199623 0.311188 0.356381
1029 4 0.263019 0.327874 0.412778
2712 4 0.317793 0.295009 0.39181
2710 2 0.331116 0.317305 0.391996
259 2 0.0211472 0.342393 0.373132
260 4 0.044976 0.350059 0.367563
594 4 0.0650222 0.347799 0.372508
592 2 0.0880551 0.358513 0.377341
593 4 0.111088 0.369227 0.382173
3318 4 0.126481 0.372725 0.36842
3316 2 0.15156 0.3739 0.368746
3317 4 0.17664 0.375075 0.369073
669 4 0.197096 0.376461 0.366073
667 2 0.222181 0.377863 0.366596
668 4 0.247266 0.379265 0.367119
1436 4 0.268267 0.382583 0.363236
1027 2 0.280248 0.346747 0.407505
1028 4 0.297478 0.365619 0.402232
1435 2 0.2922 0.38906 0.357068
1437 4 0.316132 0.395536 0.350901
681 4 0.331326 0.397625 0.33881
2711 4 0.344439 0.3396 0.392181
679 2 0.35573 0.395103 0.342295
680 4 0.380134 0.392581 0.345781
3884 4 0.431958 0.380455 0.413185
416 4 0.422467 0.381834 0.394878
1434 4 0.459011 0.392367 0.343767
415 2 0.431553 0.387083 0.371999
417 4 0.440639 0.392333 0.34912
548 4 0.35237 0.438568 0.334929
547 2 0.339814 0.447056 0.354313
549 4 0.327259 0.455544 0.373696
2532 4 0.428615 0.468505 0.397293
2530 2 0.417793 0.486085 0.410032
2691 4 0.459402 0.466606 0.402077
2689 2 0.476729 0.471275 0.384256
2690 4 0.494055 0.475943 0.366436
218 3 0.0205177 0.0324288 0.431579
217 3 0.0152351 0.00640442 0.458537
89 3 0.0484267 0.0551692 0.498977
216 1 0.0303216 0.0157453 0.443079
575 4 0.0683908 0.0561276 0.495793
219 3 0.0493941 0.0247661 0.454196
574 2 0.0883169 0.0613005 0.48097
2455 2 0.0862074 0.0157753 0.451318
2457 4 0.0619946 0.0115641 0.445041
3173 4 0.134529 0.00672208 0.41575
576 4 0.108243 0.0664733 0.466146
3621 4 0.128545 0.0721557 0.464629
2456 4 0.11042 0.0199865 0.457594
1182 4 0.127676 0.0173208 0.446035
1181 4 0.171825 0.0442055 0.452087
1180 2 0.149751 0.0307632 0.449061
3327 4 0.00440864 0.109757 0.478118
3325 2 0.0290495 0.115917 0.480784
3326 4 0.0536903 0.122077 0.48345
320 4 0.0695652 0.115646 0.475021
319 2 0.0941663 0.114877 0.479017
321 4 0.118767 0.114109 0.483012
3619 2 0.14644 0.0875253 0.453844
3620 4 0.164335 0.102895 0.443058
2657 4 0.182175 0.113057 0.44063
2656 2 0.205646 0.12064 0.433675
2658 4 0.229118 0.128223 0.426721
984 4 0.249978 0.126767 0.428057
3496 2 0.293038 0.216479 0.421569
3081 4 0.333188 0.221648 0.419727
3498 4 0.315215 0.22991 0.423841
3079 2 0.357499 0.228443 0.423894
872 4 0.400139 0.237849 0.421193
871 2 0.424403 0.245259 0.417524
3080 4 0.38181 0.235238 0.428062
873 4 0.448667 0.252669 0.413856
696 4 0.495939 0.194198 0.496938
365 4 0.0243735 0.267177 0.446404
364 2 0.0490408 0.270622 0.450879
366 4 0.0737081 0.274066 0.455354
3454 2 0.114099 0.313099 0.487096
2495 4 0.0919418 0.265258 0.453124
2494 2 0.105571 0.270622 0.432542
3455 4 0.131893 0.318311 0.469836
3456 4 0.0963057 0.307886 0.504356
238 2 0.200975 0.307815 0.487138
240 4 0.218042 0.32443 0.476811
239 4 0.183907 0.2912 0.497465
2561 4 0.147062 0.330344 0.462411
2635 2 0.244786 0.325151 0.448558
2637 4 0.255693 0.316312 0.428307
306 4 0.444836 0.279694 0.500462
3059 4 0.499818 0.276562 0.485759
2510 4 0.461432 0.260721 0.42785
3058 2 0.479778 0.282836 0.498457
2509 2 0.482663 0.258098 0.440397
3333 4 0.0173001 0.384521 0.458936
2560 2 0.170431 0.339553 0.456727
2562 4 0.1938 0.348762 0.451042
348 4 0.206853 0.364709 0.444377
2636 4 0.23388 0.333991 0.468809
346 2 0.228431 0.377659 0.437988
347 4 0.250009 0.39061 0.431598
267 4 0.269033 0.39795 0.42772
265 2 0.292448 0.407876 0.432132
4042 2 0.391541 0.397772 0.490156
3883 2 0.423676 0.382615 0.436609
3885 4 0.415394 0.384775 0.460033
4044 4 0.409703 0.397717 0.472976
3593 4 0.48217 0.38484 0.43737
3592 2 0.496666 0.372443 0.422278
3961 2 0.30987 0.431575 0.493781
1418 4 0.314797 0.466227 0.436649
1419 4 0.265346 0.458279 0.428747
1417 2 0.290071 0.462253 0.432698
3963 4 0.285796 0.429708 0.486694
3538 2 0.393908 0.502554 0.485258
266 4 0.315862 0.417803 0.436544
3539 4 0.369164 0.496957 0.48777
811 2 0.356411 0.440329 0.441115
812 4 0.379768 0.450284 0.445758
813 4 0.333054 0.430374 0.436471
4057 2 0.339914 0.490189 0.460932
4058 4 0.328835 0.482083 0.439663
1172 4 0.440608 0.444417 0.460011
1171 2 0.418826 0.445978 0.448087
1173 4 0.397044 0.447539 0.436163
90 3 0.0177281 0.0384289 0.515866
88 3 0.0179892 0.0744201 0.505215
86 1 0.0307743 0.058064 0.513439
87 3 0.0393783 0.0647896 0.533931
2490 4 0.0568406 0.0748965 0.53623
2488 2 0.0806775 0.0692317 0.536807
2489 4 0.104514 0.063567 0.537384
918 4 0.11228 0.0508826 0.550634
916 2 0.136128 0.0452536 0.550065
917 4 0.159977 0.0396245 0.549495
4326 4 0.178821 0.0381232 0.557345
4324 2 0.184209 0.0454069 0.580791
2316 4 0.206492 0.0395654 0.519098
2314 2 0.224802 0.035771 0.535311
2315 4 0.243113 0.0319765 0.551525
2196 4 0.26319 0.0337954 0.549541
2194 2 0.28783 0.0404282 0.54777
2195 4 0.31247 0.0470609 0.545999
2553 4 0.333571 0.0509759 0.545734
2551 2 0.356716 0.0598781 0.552567
2552 4 0.379862 0.0687803 0.559399
762 4 0.400552 0.0684112 0.560153
760 2 0.42273 0.0809983 0.565036
2505 4 0.00995968 0.0843133 0.518606
1131 4 0.264538 0.15007 0.5846
949 2 0.383485 0.151127 0.528661
951 4 0.394293 0.135784 0.51313
824 4 0.410734 0.134638 0.503018
823 2 0.435345 0.133844 0.506932
2810 4 0.432809 0.153879 0.549948
950 4 0.372678 0.166471 0.544192
2809 2 0.442187 0.139708 0.56758
761 4 0.444908 0.0935854 0.56992
825 4 0.459956 0.13305 0.510846
3021 4 0.464625 0.0987665 0.565755
3019 2 0.489626 0.103252 0.565821
695 4 0.465799 0.153164 0.507782
305 4 0.408544 0.242091 0.502437
2603 4 0.430048 0.198392 0.526986
2602 2 0.451622 0.213054 0.527057
2604 4 0.473195 0.227715 0.527128
2964 4 0.486974 0.23647 0.542699
898 2 0.492725 0.190599 0.580439
3206 4 0.461942 0.210427 0.580001
694 2 0.480869 0.173681 0.50236
2548 2 0.0216713 0.325344 0.515294
2549 4 0.0421891 0.325303 0.529579
2550 4 0.00115338 0.325384 0.501009
2847 4 0.0603458 0.321437 0.527216
2845 2 0.0838488 0.329333 0.5338
406 2 0.330274 0.294626 0.508976
407 4 0.354639 0.290804 0.509074
803 4 0.367776 0.288492 0.522401
408 4 0.305908 0.298448 0.508878
802 2 0.390376 0.299748 0.5281
804 4 0.412976 0.311004 0.5338
1238 4 0.429464 0.323115 0.529978
304 2 0.42669 0.260892 0.501449
1237 2 0.452919 0.316613 0.532213
1239 4 0.476373 0.310111 0.534448
891 4 0.494907 0.316893 0.53895
3060 4 0.459738 0.28911 0.511156
2846 4 0.107352 0.337228 0.540384
3044 4 0.126407 0.345074 0.532953
3043 2 0.151318 0.34992 0.531315
3045 4 0.176229 0.354765 0.529677
1641 4 0.195986 0.351248 0.527809
1639 2 0.220803 0.352804 0.524087
1640 4 0.245619 0.354361 0.520365
1911 4 0.266469 0.356924 0.525497
1909 2 0.290233 0.351338 0.523229
1910 4 0.313996 0.345752 0.520962
662 4 0.331115 0.354997 0.52698
661 2 0.343502 0.3771 0.521637
663 4 0.35589 0.399202 0.516295
4043 4 0.373379 0.397828 0.507336
791 4 0.0835332 0.484192 0.580148
790 2 0.107312 0.481964 0.573424
792 4 0.131091 0.479735 0.5667
4215 4 0.182681 0.473322 0.528712
4213 2 0.204041 0.484723 0.519669
4214 4 0.2254 0.496124 0.510625
538 2 0.266252 0.497934 0.510482
539 4 0.289025 0.490799 0.515582
1281 4 0.275272 0.440999 0.563398
3368 4 0.288432 0.449142 0.551096
1279 2 0.288461 0.433452 0.582786
3367 2 0.298866 0.468558 0.537952
3369 4 0.3093 0.487974 0.524808
212 3 0.330854 0.494273 0.521814
213 3 0.365424 0.490757 0.50828
4179 4 0.351038 0.43076 0.508537
4177 2 0.371049 0.443366 0.519022
3962 4 0.333944 0.433442 0.500868
4178 4 0.391061 0.455973 0.529506
1446 4 0.409608 0.466624 0.528526
1444 2 0.434376 0.469284 0.524473
1445 4 0.459145 0.471944 0.520421
3360 4 0.115372 0.0262213 0.628886
3358 2 0.120904 0.0464829 0.64306
3359 4 0.126435 0.0667445 0.657234
4325 4 0.189596 0.0526905 0.604238
3103 2 0.41105 0.00299046 0.665072
3105 4 0.428156 0.00247798 0.646885
4369 2 0.0148753 0.113508 0.606002
4371 4 0.0379273 0.125112 0.608499
3062 4 0.0556327 0.128807 0.619875
3061 2 0.0718948 0.136946 0.637701
3063 4 0.0881569 0.145085 0.655528
3125 4 0.108004 0.146622 0.660413
2318 4 0.166909 0.106759 0.625028
2317 2 0.183112 0.116504 0.607842
2319 4 0.199314 0.126249 0.590656
1005 4 0.224564 0.125883 0.670752
1129 2 0.27945 0.163019 0.600987
2256 4 0.329211 0.0992018 0.668129
2811 4 0.451564 0.125536 0.585212
3110 4 0.449377 0.116808 0.603278
3109 2 0.468397 0.128504 0.616144
3111 4 0.487417 0.140201 0.629011
1130 4 0.294361 0.175969 0.617374
935 4 0.302133 0.172928 0.637174
934 2 0.323071 0.188429 0.635436
936 4 0.344008 0.203929 0.633697
1259 4 0.362315 0.201206 0.622659
1258 2 0.385728 0.208434 0.615256
1260 4 0.409141 0.215662 0.607853
3207 4 0.412881 0.21009 0.589828
3205 2 0.437412 0.210258 0.584915
899 4 0.479489 0.208121 0.590374
3238 2 0.0156298 0.286554 0.656261
3240 4 0.0400699 0.287881 0.661913
3354 4 0.0945501 0.345938 0.653292
3352 2 0.114046 0.346495 0.637584
3353 4 0.133542 0.347052 0.621877
3446 4 0.148077 0.344254 0.63396
3445 2 0.172631 0.35085 0.631214
3447 4 0.197186 0.357447 0.628469
2721 4 0.210205 0.351995 0.614982
2719 2 0.234772 0.349169 0.613924
2720 4 0.259339 0.346343 0.612867
3221 4 0.276094 0.358818 0.611296
3220 2 0.300837 0.360923 0.60707
3222 4 0.32558 0.363028 0.602844
3491 4 0.34011 0.376012 0.609009
3490 2 0.356925 0.39313 0.599068
3492 4 0.373741 0.410249 0.589126
1137 4 0.0656386 0.486358 0.590948
1136 4 0.0168977 0.471091 0.58604
1135 2 0.0412682 0.478724 0.588494
1170 4 0.0570016 0.475448 0.6546
798 4 0.999405 0.463603 0.592671
1168 2 0.0781163 0.474678 0.66786
772 2 0.284031 0.46365 0.653977
773 4 0.27222 0.44062 0.653946
774 4 0.295842 0.486679 0.654008
1280 4 0.30165 0.425905 0.602174
4559 4 0.263647 0.425119 0.662828
878 4 0.317373 0.439399 0.601174
877 2 0.342171 0.443189 0.604732
879 4 0.36697 0.446979 0.608289
1205 4 0.386552 0.454504 0.608951
1204 2 0.406641 0.470002 0.614911
1206 4 0.42673 0.485501 0.620871
3119 4 0.440618 0.497583 0.6302
3118 2 0.448725 0.489067 0.65197
1036 2 0.00499665 0.00146184 0.67289
4282 2 0.0724174 0.012415 0.686283
4284 4 0.0965747 0.019753 0.69067
4385 4 0.084525 0.0182394 0.743343
2348 4 0.0639845 0.0154019 0.747719
4283 4 0.0482601 0.00507701 0.681896
3309 4 0.114808 0.0279631 0.688229
4384 2 0.109404 0.0183059 0.745892
3307 2 0.139467 0.0324311 0.692331
4386 4 0.134284 0.0183723 0.748441
3308 4 0.164126 0.0368992 0.696433
4115 4 0.183419 0.039408 0.691847
2133 4 0.152426 0.0265349 0.745841
4114 2 0.208054 0.0434196 0.696306
4116 4 0.232689 0.0474312 0.700764
3294 4 0.251602 0.0406609 0.704029
3292 2 0.275024 0.0514216 0.706317
3293 4 0.298446 0.0621823 0.708605
954 4 0.316553 0.0552988 0.707313
952 2 0.340235 0.0525763 0.700585
953 4 0.363916 0.0498539 0.693856
1077 4 0.37488 0.0669297 0.698458
1075 2 0.393251 0.0742345 0.682392
3104 4 0.393945 0.00350294 0.683259
4502 4 0.374354 0.005079 0.682237
3482 4 0.0666397 0.120632 0.746597
3124 2 0.131477 0.146498 0.668996
3126 4 0.154951 0.146374 0.677579
3008 4 0.158062 0.12616 0.682802
3007 2 0.18164 0.123081 0.675974
3009 4 0.205218 0.120002 0.669147
3038 4 0.276759 0.165677 0.696279
1003 2 0.248805 0.12161 0.671453
1004 4 0.273046 0.117336 0.672154
2255 4 0.287339 0.11762 0.684457
1264 2 0.283521 0.12117 0.745745
2254 2 0.308275 0.108411 0.676293
1266 4 0.305241 0.132351 0.73731
1022 4 0.343366 0.112401 0.675107
1076 4 0.411621 0.0815392 0.666327
1021 2 0.367399 0.121571 0.676702
1023 4 0.391431 0.130741 0.678296
1082 4 0.399729 0.123727 0.694282
1081 2 0.423674 0.123754 0.701489
1083 4 0.447619 0.123781 0.708697
3355 2 0.221974 0.218774 0.743359
3357 4 0.234842 0.234426 0.727582
3037 2 0.275352 0.181146 0.715723
3039 4 0.273945 0.196615 0.735167
3093 4 0.0415688 0.271803 0.673622
3091 2 0.0650445 0.272634 0.682391
3092 4 0.0885201 0.273465 0.69116
3435 4 0.106068 0.282957 0.685534
3433 2 0.115926 0.274007 0.706303
3434 4 0.125785 0.265058 0.727072
383 4 0.138968 0.255158 0.736095
2972 4 0.274955 0.283301 0.704643
2971 2 0.299342 0.281195 0.708732
2973 4 0.32373 0.279089 0.71282
3252 4 0.342692 0.272236 0.711982
3250 2 0.367575 0.272125 0.709637
3251 4 0.392458 0.272015 0.707291
738 4 0.394049 0.264039 0.724958
736 2 0.416179 0.269295 0.736296
737 4 0.438309 0.274551 0.747633
1298 4 0.448914 0.330307 0.701168
1068 4 0.457682 0.329176 0.682724
1066 2 0.480323 0.324783 0.674051
3375 4 0.101057 0.348084 0.670898
3373 2 0.11259 0.351784 0.692945
3374 4 0.124123 0.355485 0.714992
1017 4 0.143963 0.358852 0.717351
1015 2 0.168116 0.354493 0.719272
1016 4 0.19227 0.350134 0.721193
4558 2 0.28106 0.410096 0.66971
4560 4 0.298472 0.395073 0.676593
800 4 0.317656 0.394227 0.677882
799 2 0.336031 0.412796 0.679071
1297 2 0.448633 0.345628 0.720858
1299 4 0.448352 0.36095 0.740547
4301 4 0.468244 0.415391 0.678996
1169 4 0.099231 0.473908 0.68112
1904 4 0.0991798 0.467157 0.700306
1903 2 0.107859 0.472818 0.723249
1905 4 0.116539 0.478479 0.746192
801 4 0.354405 0.431364 0.680259
1955 4 0.368786 0.425822 0.691257
1954 2 0.379253 0.428606 0.713908
1956 4 0.389721 0.431389 0.736559
3120 4 0.456832 0.480551 0.67374
4302 4 0.470169 0.465224 0.675703
4300 2 0.469206 0.440308 0.67735
2349 4 0.0595849 0.0440796 0.788086
2347 2 0.0617847 0.0297407 0.767902
4406 4 0.0734583 0.0558124 0.798249
4405 2 0.0940265 0.0719229 0.79788
4526 4 0.162289 0.00411066 0.80814
2131 2 0.168391 0.0378585 0.762381
3168 4 0.131337 0.0798787 0.789025
3166 2 0.15621 0.0837483 0.786075
2132 4 0.184357 0.0491822 0.778921
208 3 0.185627 0.0468445 0.828609
209 3 0.188297 0.0824287 0.815273