ITEM: TIMESTEP
234500
ITEM: NUMBER OF ATOMS
4590
ITEM: BOX BOUNDS xy xz yz pp pp pp
-1.6197683400000003e+01 9.9985700000000008e+00 -6.1991134000000017e+00
-9.9985700000000008e+00 9.9985700000000008e+00 0.0000000000000000e+00
-9.9985700000000008e+00 9.9985700000000008e+00 0.0000000000000000e+00
ITEM: ATOMS id type xs ys zs
2688 4 0.0213767 0.0727671 0.0229952
2686 2 0.0475489 0.0797628 0.0232688
1662 4 0.125241 0.0153575 0.0729936
2252 4 0.129502 0.999995 0.011706
1660 2 0.145995 0.00766509 0.067463
1661 4 0.16675 0.999973 0.0619324
1474 2 0.20295 0.00229078 0.076916
1475 4 0.186384 0.999376 0.0576449
1651 2 0.43304 0.0283401 0.0768179
1652 4 0.441205 0.0395956 0.0549858
2467 2 0.452146 0.0182212 0.0277936
2469 4 0.452737 0.0280282 0.0506628
2468 4 0.451556 0.00841418 0.00492447
148 3 0.471034 0.0143208 0.999659
2687 4 0.0737212 0.0867585 0.0235423
2441 4 0.0235102 0.124869 0.0233714
1253 4 0.0402634 0.141326 0.0205037
1252 2 0.0627209 0.152023 0.0325191
1254 4 0.0851784 0.162719 0.0445346
2708 4 0.0927443 0.0888792 0.0192747
2707 2 0.118815 0.0954712 0.0171701
2709 4 0.144886 0.102063 0.0150655
2670 4 0.163361 0.10559 0.0264982
2668 2 0.188639 0.117791 0.0227212
2669 4 0.213917 0.129992 0.0189442
2883 4 0.237503 0.138809 0.0149941
25 3 0.256401 0.153545 0.0231816
2881 2 0.246468 0.122231 0.00268904
2894 4 0.308132 0.159557 0.04706
23 3 0.29172 0.152864 0.0356218
2893 2 0.322486 0.162344 0.0679275
21 1 0.278038 0.166397 0.0296522
3243 4 0.400928 0.116706 0.0576751
3241 2 0.415226 0.120619 0.0367308
3242 4 0.429523 0.124533 0.0157865
3392 4 0.449938 0.129108 0.0134166
3391 2 0.471478 0.125185 0.0230064
3393 4 0.493018 0.121263 0.0325962
2889 4 0.00913547 0.242063 0.0112411
758 4 0.0200525 0.16887 0.0798938
356 4 0.00125224 0.160856 0.0872347
704 4 0.0637367 0.19586 0.00561815
2976 4 0.211794 0.181424 0.0550957
2974 2 0.237282 0.183368 0.0565503
2975 4 0.26277 0.185311 0.0580048
24 3 0.276077 0.179804 0.0475753
22 3 0.288605 0.179863 0.0121327
2875 2 0.419925 0.216433 0.0842285
354 4 0.379924 0.217619 0.0814346
2876 4 0.441064 0.209921 0.0774122
281 4 0.441933 0.195961 0.0637896
280 2 0.449502 0.188735 0.0419557
282 4 0.457072 0.181508 0.0201217
359 4 0.460343 0.189071 0.00232843
1120 2 0.0414329 0.331941 0.073008
1121 4 0.015287 0.325716 0.0731162
2840 4 0.0805252 0.29304 0.00970947
2839 2 0.0964154 0.307164 0.026832
2841 4 0.112306 0.321287 0.0439546
309 4 0.132477 0.326445 0.041096
307 2 0.14864 0.321281 0.0579166
308 4 0.164804 0.316117 0.0747372
2650 2 0.208355 0.324751 0.0761783
1841 4 0.391459 0.255947 0.00531519
450 4 0.411537 0.257978 0.012717
448 2 0.436549 0.263828 0.0199848
449 4 0.46156 0.269679 0.0272525
915 4 0.481408 0.269954 0.0346063
1122 4 0.0675788 0.338166 0.0728998
1071 4 0.0874633 0.338258 0.0762411
1069 2 0.113602 0.346946 0.0763784
1070 4 0.139741 0.355635 0.0765157
1551 4 0.160848 0.362725 0.0820457
2651 4 0.233859 0.331711 0.0705519
1549 2 0.186824 0.37189 0.0796014
1550 4 0.2128 0.381054 0.0771572
596 4 0.234564 0.391889 0.0744044
595 2 0.260196 0.40361 0.0724319
494 4 0.246597 0.411574 0.0250644
1079 4 0.267261 0.413166 0.0251234
527 4 0.248877 0.348878 0.0681311
526 2 0.274485 0.352561 0.0645212
528 4 0.300093 0.356244 0.0609112
597 4 0.285828 0.415331 0.0704595
3403 2 0.0258553 0.424325 0.0809821
2805 4 0.00952454 0.486976 0.0373799
4187 4 0.01857 0.451759 0.0105167
4186 2 0.039917 0.448709 0.0214218
3405 4 0.050557 0.425175 0.0757635
4188 4 0.061264 0.445659 0.032327
1466 4 0.0671053 0.438483 0.0834428
3448 2 0.193656 0.42802 0.0758431
2583 4 0.220236 0.480715 0.0175536
493 2 0.221854 0.409815 0.0311134
495 4 0.197112 0.408055 0.0371625
4044 4 0.0239792 0.504024 0.487363
2581 2 0.223284 0.469026 0.0386252
3449 4 0.215466 0.438821 0.0628944
2582 4 0.226333 0.457336 0.0596968
4512 4 0.32111 0.49634 0.069244
1078 2 0.293386 0.421771 0.0241699
1104 4 0.304979 0.427412 0.0717713
1080 4 0.31951 0.430376 0.0232164
1102 2 0.329447 0.442656 0.070017
1103 4 0.353914 0.4579 0.0682628
2740 2 0.456536 0.499089 0.412356
2772 4 0.373749 0.467525 0.0655681
2770 2 0.397631 0.483645 0.0626183
2521 2 0.439218 0.494415 0.0242719
2771 4 0.421513 0.499765 0.0596686
2522 4 0.438685 0.500656 0.0483582
1476 4 0.219516 0.00520538 0.0961871
1749 4 0.4179 0.0571332 0.159484
1747 2 0.441809 0.0556736 0.154045
2180 4 0.397824 0.0476662 0.163291
2179 2 0.372352 0.0351519 0.161763
1653 4 0.424876 0.0170846 0.09865
1748 4 0.465718 0.054214 0.148605
743 4 0.48462 0.0544811 0.137999
757 2 0.0395991 0.16618 0.0941266
723 4 0.0306093 0.12546 0.159121
721 2 0.0459871 0.141803 0.143254
759 4 0.0591457 0.163489 0.108359
722 4 0.0613649 0.158146 0.127386
3810 4 0.377468 0.158406 0.132125
3808 2 0.370128 0.138476 0.14718
2600 4 0.347425 0.16595 0.107744
2781 4 0.341409 0.116838 0.159832
2787 4 0.0115444 0.242215 0.104402
2718 4 0.17884 0.25568 0.161621
692 4 0.270131 0.187526 0.110123
691 2 0.295991 0.193269 0.106604
693 4 0.321851 0.199012 0.103086
353 4 0.333185 0.218237 0.0986903
378 4 0.323749 0.192959 0.155506
2877 4 0.398785 0.222945 0.0910448
2601 4 0.3374 0.181757 0.152778
2895 4 0.336839 0.165132 0.088795
352 2 0.356554 0.217928 0.0900625
2599 2 0.342412 0.173853 0.130261
108 3 0.117202 0.29172 0.108911
109 3 0.138669 0.270369 0.09478
106 1 0.13956 0.291207 0.103334
107 3 0.148556 0.307164 0.0872684
110 3 0.153616 0.295694 0.121723
2652 4 0.18285 0.317792 0.0818048
2716 2 0.203181 0.260161 0.152771
2717 4 0.227522 0.264643 0.143922
2616 4 0.247448 0.273037 0.138448
2614 2 0.270814 0.271765 0.130767
2615 4 0.29418 0.270493 0.123086
2471 4 0.288948 0.320414 0.149274
3632 4 0.287627 0.312193 0.167482
2470 2 0.307257 0.323216 0.131577
837 4 0.3137 0.276117 0.114095
2472 4 0.325565 0.326017 0.11388
2571 4 0.346421 0.329959 0.107297
835 2 0.339352 0.283698 0.109125
836 4 0.365005 0.291279 0.104155
3141 4 0.385736 0.297921 0.100945
3139 2 0.411397 0.308051 0.0970228
2799 4 0.396859 0.284786 0.157846
3140 4 0.437059 0.318182 0.0931007
621 4 0.458307 0.328749 0.0929087
2797 2 0.422654 0.288275 0.159348
2798 4 0.448449 0.291764 0.16085
1056 4 0.468164 0.290638 0.155341
1054 2 0.493312 0.293708 0.160847
2514 4 0.014989 0.357199 0.115155
2445 4 0.0325252 0.373809 0.113379
2443 2 0.0574046 0.379774 0.105684
362 4 0.0625578 0.391451 0.159989
2444 4 0.0822839 0.385738 0.0979891
361 2 0.0867708 0.407318 0.158908
767 4 0.101876 0.396709 0.100812
766 2 0.126513 0.404782 0.0924414
729 4 0.189681 0.414097 0.128596
608 4 0.246473 0.377597 0.144838
2538 4 0.246482 0.385084 0.164234
607 2 0.255298 0.378019 0.121399
609 4 0.264122 0.378442 0.0979589
2569 2 0.37135 0.344062 0.109224
2570 4 0.396278 0.358166 0.11115
2969 4 0.410031 0.358709 0.126169
2968 2 0.420175 0.352975 0.147387
619 2 0.484276 0.339098 0.0930672
2109 4 0.491771 0.422275 0.460979
363 4 0.110984 0.423184 0.157827
1465 2 0.0922697 0.44549 0.0903308
1467 4 0.117434 0.452496 0.0972187
3450 4 0.171845 0.417219 0.0887917
4211 4 0.131833 0.459944 0.111799
768 4 0.15115 0.412855 0.0840707
417 4 0.174447 0.417061 0.140262
4210 2 0.157718 0.470074 0.114087
415 2 0.152454 0.418384 0.151284
416 4 0.13046 0.419707 0.162306
4212 4 0.183604 0.480204 0.116376
3636 4 0.202275 0.475935 0.11393
3634 2 0.228203 0.482029 0.110733
727 2 0.213815 0.418445 0.137928
3635 4 0.25413 0.488123 0.107535
648 4 0.276204 0.46967 0.107254
646 2 0.285512 0.489527 0.122119
728 4 0.237948 0.422792 0.14726
2093 4 0.275827 0.450757 0.114323
2092 2 0.294067 0.438786 0.114494
2094 4 0.312307 0.426816 0.114665
2919 4 0.328081 0.444876 0.118361
2917 2 0.351844 0.461613 0.118237
2918 4 0.375608 0.47835 0.118113
3670 2 0.486618 0.475384 0.152824
3671 4 0.462355 0.469755 0.162121
2732 4 0.0119773 0.0558596 0.216051
2731 2 0.0372941 0.0651436 0.210094
2733 4 0.0626109 0.0744276 0.204136
393 4 0.180701 0.0117186 0.240682
690 4 0.17048 0.0166935 0.224199
688 2 0.171329 0.00836745 0.200874
248 4 0.210743 0.00982373 0.185068
247 2 0.234581 0.00670848 0.184529
249 4 0.258418 0.00359323 0.183989
405 4 0.279468 0.00961738 0.186498
2181 4 0.34688 0.0226375 0.160236
403 2 0.303901 0.0144188 0.177799
404 4 0.328335 0.0192202 0.169101
2520 4 0.0115802 0.114154 0.164407
730 2 0.00915077 0.123985 0.224625
732 4 0.0337993 0.124007 0.220387
581 4 0.0536856 0.130621 0.228347
580 2 0.0789503 0.132145 0.225482
582 4 0.104215 0.13367 0.222617
750 4 0.12634 0.140668 0.220205
748 2 0.133497 0.164588 0.22748
331 2 0.203753 0.155046 0.228219
332 4 0.205927 0.145865 0.20551
630 4 0.227445 0.14827 0.206952
628 2 0.251151 0.161508 0.198845
2780 4 0.307918 0.101851 0.197834
3809 4 0.362787 0.118547 0.162235
2779 2 0.324664 0.109344 0.178833
579 4 0.0187279 0.176899 0.227824
236 4 0.0358761 0.173656 0.233396
2462 4 0.0831975 0.252648 0.242237
459 4 0.13381 0.20186 0.246234
1220 4 0.209655 0.252712 0.233912
749 4 0.140653 0.188509 0.234754
300 4 0.192951 0.237864 0.229427
298 2 0.171237 0.244028 0.234815
1219 2 0.231588 0.253382 0.221552
376 2 0.308782 0.187454 0.175977
377 4 0.293815 0.181949 0.196447
629 4 0.274856 0.174745 0.190738
2461 2 0.10898 0.255815 0.242492
2463 4 0.134763 0.258983 0.242747
299 4 0.149523 0.250193 0.240203
2451 4 0.194507 0.312512 0.222764
2496 4 0.206373 0.305999 0.211363
2449 2 0.187474 0.326758 0.239827
2494 2 0.228468 0.321222 0.201796
1221 4 0.25352 0.254051 0.209193
477 4 0.272264 0.256745 0.202868
2954 4 0.288288 0.296198 0.240466
3631 2 0.279136 0.329273 0.179457
475 2 0.294892 0.271368 0.193706
476 4 0.31752 0.285991 0.184544
755 4 0.336098 0.282567 0.183034
754 2 0.361499 0.286505 0.178035
2953 2 0.313849 0.303229 0.245858
756 4 0.386901 0.290443 0.173036
519 4 0.0694004 0.364942 0.190385
517 2 0.0912377 0.358148 0.192777
733 2 0.14938 0.373455 0.185721
734 4 0.124901 0.360452 0.179555
518 4 0.113075 0.351354 0.195169
735 4 0.173858 0.386459 0.191886
289 2 0.218107 0.396934 0.189836
290 4 0.192844 0.383593 0.190767
291 4 0.243369 0.410276 0.188906
2495 4 0.250563 0.336445 0.19223
2536 2 0.26315 0.376251 0.177293
3633 4 0.270645 0.346352 0.191433
714 4 0.301168 0.386101 0.196091
2537 4 0.279818 0.367417 0.190352
712 2 0.323799 0.391273 0.208591
713 4 0.346431 0.396444 0.221092
339 4 0.365572 0.403223 0.215075
337 2 0.391226 0.41141 0.219957
2970 4 0.430318 0.347241 0.168604
4008 4 0.0308701 0.471823 0.233516
4006 2 0.00900628 0.457501 0.222723
395 4 0.058715 0.415525 0.230744
396 4 0.109138 0.442627 0.230051
394 2 0.0839263 0.429076 0.230398
3920 4 0.123806 0.434177 0.222028
2820 4 0.195303 0.469962 0.222599
3921 4 0.174307 0.460928 0.223926
3919 2 0.149057 0.447552 0.222977
2818 2 0.220747 0.474457 0.217444
3566 4 0.267554 0.490906 0.215338
2819 4 0.24619 0.478952 0.212288
3565 2 0.292206 0.493494 0.208292
681 4 0.322005 0.418611 0.233148
679 2 0.317617 0.433587 0.251018
3567 4 0.316858 0.496082 0.201245
338 4 0.416879 0.419598 0.224838
677 4 0.436694 0.430978 0.225842
676 2 0.462604 0.43588 0.223332
678 4 0.488513 0.440783 0.220822
2545 2 0.00606475 0.0741012 0.253448
2816 4 0.00867352 0.055505 0.334302
391 2 0.201885 0.0253105 0.253029
392 4 0.223069 0.0389023 0.265376
427 2 0.265134 0.0368636 0.258371
428 4 0.23924 0.0324074 0.260478
429 4 0.291029 0.0413197 0.256264
1869 4 0.363716 0.0529062 0.256783
1867 2 0.337936 0.0494829 0.258351
1868 4 0.312157 0.0460595 0.259918
2850 4 0.384487 0.0616777 0.258982
2849 4 0.435772 0.0752037 0.268989
2848 2 0.41013 0.0684407 0.263985
1272 4 0.456276 0.0827137 0.268607
1032 4 0.0127525 0.131925 0.313615
2546 4 0.0120815 0.0883392 0.273939
1030 2 0.0380507 0.135682 0.308264
1031 4 0.0633489 0.139438 0.302912
333 4 0.20158 0.164226 0.250928
2516 4 0.202799 0.156569 0.269103
2515 2 0.223348 0.158189 0.283959
2945 4 0.255754 0.112292 0.325423
2678 4 0.304636 0.114147 0.293593
2946 4 0.284785 0.111626 0.284859
2658 4 0.294151 0.157077 0.256385
2944 2 0.27027 0.111959 0.305141
2656 2 0.278723 0.162243 0.273949
2677 2 0.330002 0.11839 0.298953
2836 2 0.385738 0.120966 0.286852
2837 4 0.360081 0.111049 0.290958
2679 4 0.355368 0.122633 0.304312
2476 2 0.46567 0.139047 0.31602
2477 4 0.446412 0.131743 0.332844
2838 4 0.411395 0.130884 0.282746
2478 4 0.484928 0.146351 0.299197
1270 2 0.482334 0.0878818 0.269246
235 2 0.0558426 0.181311 0.249429
458 4 0.0926567 0.198206 0.275996
237 4 0.075809 0.188965 0.265462
457 2 0.113233 0.200033 0.261115
2517 4 0.243897 0.15981 0.298815
2657 4 0.263295 0.167408 0.291513
2621 4 0.0639787 0.307243 0.324055
2620 2 0.0866891 0.317582 0.312315
2622 4 0.109399 0.327922 0.300575
2853 4 0.123731 0.321242 0.290993
3572 4 0.24246 0.327193 0.251132
3571 2 0.255701 0.310432 0.249055
3573 4 0.268942 0.293671 0.246977
2955 4 0.33941 0.310259 0.25125
2529 4 0.358036 0.306312 0.249544
2528 4 0.365361 0.304085 0.298854
2831 4 0.352006 0.287874 0.308658
2527 2 0.361698 0.305199 0.274199
2830 2 0.344382 0.271954 0.32775
709 2 0.412376 0.277169 0.326986
710 4 0.430549 0.271656 0.312862
536 4 0.451849 0.277168 0.313256
535 2 0.460886 0.271457 0.291444
537 4 0.469922 0.265747 0.269631
389 4 0.486557 0.262649 0.26218
2851 2 0.143104 0.332984 0.275509
2852 4 0.162477 0.344726 0.260024
2450 4 0.180441 0.341004 0.25689
1575 4 0.379548 0.390712 0.270703
1573 2 0.404265 0.395894 0.278718
1574 4 0.428981 0.401076 0.286734
1801 2 0.474322 0.409189 0.283972
1802 4 0.44916 0.408049 0.281066
1803 4 0.499483 0.410329 0.286879
2532 4 0.296475 0.487021 0.32213
3885 4 0.301039 0.487944 0.30115
680 4 0.31323 0.448563 0.268888
3884 4 0.327544 0.465785 0.27122
3883 2 0.314291 0.476865 0.286185
543 4 0.414859 0.4482 0.32257
541 2 0.437418 0.458062 0.31042
542 4 0.459977 0.467925 0.298271
245 4 0.47609 0.466092 0.286859
2714 4 0.025786 0.0482412 0.3353
4356 4 0.00817668 0.00549134 0.3661
2713 2 0.0507252 0.048834 0.338764
2114 4 0.00490352 0.0181448 0.418298
2715 4 0.0756644 0.0494268 0.342227
3475 2 0.122246 0.0616996 0.350393
3477 4 0.0973018 0.0570411 0.343235
3476 4 0.14719 0.0663581 0.357551
1244 4 0.163432 0.0588907 0.360737
1243 2 0.189347 0.0682019 0.363599
1245 4 0.215262 0.0775131 0.366461
2667 4 0.234088 0.0737899 0.369127
2665 2 0.26023 0.0799583 0.369405
2666 4 0.286371 0.0861267 0.369683
2641 2 0.347448 0.0208457 0.353141
2643 4 0.322318 0.0203923 0.353855
1522 2 0.291842 0.00139628 0.383995
1524 4 0.304834 0.00870693 0.362624
478 2 0.417932 0.0338525 0.359724
480 4 0.391767 0.0261984 0.360458
2642 4 0.372578 0.0212991 0.352427
479 4 0.444097 0.0415067 0.35899
469 2 0.48777 0.0598552 0.372339
470 4 0.463569 0.0469838 0.365193
1061 4 0.49563 0.00671295 0.398349
684 4 0.489944 0.0183741 0.412496
2559 4 0.0125104 0.0929859 0.399383
530 4 0.0214952 0.165289 0.35027
3158 4 0.0378786 0.16236 0.361245
2557 2 0.0320764 0.0938225 0.415249
3157 2 0.064006 0.168278 0.361094
2664 4 0.32938 0.159141 0.369355
1377 4 0.305909 0.0880955 0.364952
2937 4 0.332369 0.14271 0.374354
2870 4 0.376052 0.110012 0.35607
1376 4 0.358235 0.101785 0.363735
1375 2 0.332072 0.0949403 0.364344
2935 2 0.349031 0.145515 0.393535
2936 4 0.365693 0.148319 0.412716
2871 4 0.425579 0.123503 0.339866
2869 2 0.400815 0.116757 0.347968
2483 4 0.00981197 0.207556 0.374429
2482 2 0.033218 0.20476 0.369119
2684 4 0.0224854 0.22919 0.406489
2504 4 0.0415905 0.239458 0.401648
2484 4 0.056624 0.201964 0.36381
3159 4 0.0901334 0.174196 0.360944
2503 2 0.0675506 0.244493 0.403771
651 4 0.100446 0.185024 0.377835
649 2 0.12602 0.188798 0.381756
1191 4 0.168942 0.201345 0.394861
650 4 0.151594 0.192571 0.385677
1189 2 0.192757 0.21015 0.405013
2662 2 0.310842 0.170438 0.365922
2663 4 0.292305 0.181736 0.362488
1952 4 0.00677076 0.276845 0.386176
2680 2 0.0388455 0.296876 0.356509
2682 4 0.0217874 0.281785 0.372135
2681 4 0.0559036 0.311967 0.340882
2505 4 0.0935108 0.249529 0.405894
2821 2 0.135262 0.264554 0.410614
2822 4 0.11264 0.257408 0.398057
824 4 0.348102 0.262551 0.391139
2832 4 0.336758 0.256035 0.346842
823 2 0.34013 0.258533 0.414883
635 4 0.366131 0.259033 0.387275
636 4 0.393714 0.295031 0.356695
711 4 0.394203 0.282682 0.34111
634 2 0.379922 0.277032 0.371985
2924 4 0.00782961 0.348271 0.396808
585 4 0.0773466 0.378233 0.380987
2925 4 0.0563997 0.367921 0.379196
2923 2 0.0321147 0.358096 0.388002
583 2 0.0943366 0.385893 0.362202
584 4 0.111327 0.393553 0.343416
549 4 0.133869 0.40008 0.398422
2587 2 0.0390648 0.478631 0.399997
2589 4 0.0131368 0.47135 0.396552
2588 4 0.0649928 0.485911 0.403441
3581 4 0.132421 0.476784 0.398947
3580 2 0.108693 0.480155 0.399256
3582 4 0.0849643 0.483526 0.399566
548 4 0.179804 0.435908 0.400464
3317 4 0.202164 0.481859 0.400199
547 2 0.156836 0.417994 0.399443
3316 2 0.177223 0.482057 0.400205
3318 4 0.152282 0.482256 0.400212
1434 4 0.199138 0.451525 0.396102
2530 2 0.276704 0.483117 0.338423
2531 4 0.256934 0.479212 0.354715
1433 4 0.240058 0.475236 0.367612
1432 2 0.219598 0.463381 0.381857
2139 4 0.434824 0.433543 0.394252
2137 2 0.45862 0.44903 0.389297
569 4 0.493703 0.48396 0.387254
2138 4 0.482415 0.464516 0.384341
1184 4 0.0259728 0.0271263 0.417438
1183 2 0.0481129 0.0446365 0.423707
219 3 0.0525539 0.0791448 0.468819
1185 4 0.0702531 0.0621467 0.429975
982 2 0.107153 0.0491509 0.445062
984 4 0.0972495 0.0672052 0.437384
983 4 0.117056 0.0310965 0.45274
217 3 0.0798349 0.0719949 0.446651
3850 2 0.161908 0.0762592 0.497005
689 4 0.172178 4.13893e-05 0.177548
1152 4 0.345497 0.027383 0.450697
1059 4 0.326228 0.0153248 0.454851
1057 2 0.309582 0.0036776 0.436973
1150 2 0.371652 0.0357691 0.450769
2314 2 0.442375 0.0575177 0.437163
2316 4 0.419212 0.0490102 0.448632
1151 4 0.397807 0.0441552 0.450842
2801 4 0.000148965 0.220608 0.36558
326 4 0.501585 0.466466 0.482442
1182 4 0.485854 0.0700975 0.422521
2315 4 0.465537 0.0660253 0.425695
2553 4 0.00566855 0.104583 0.467418
2551 2 0.0317113 0.114149 0.46636
2552 4 0.0577541 0.123714 0.465301
218 3 0.0705282 0.10395 0.441924
2558 4 0.0516424 0.0946592 0.431115
762 4 0.0753028 0.140126 0.46688
216 1 0.0734371 0.0886225 0.457569
220 3 0.0905246 0.098925 0.472384
760 2 0.0952067 0.146041 0.450642
3173 4 0.131205 0.148648 0.428647
2457 4 0.10519 0.114367 0.482455
761 4 0.11511 0.151957 0.434404
2455 2 0.127589 0.11026 0.489376
3172 2 0.153432 0.142524 0.431028
3852 4 0.142228 0.0855195 0.49145
2456 4 0.149989 0.106153 0.496296
2901 4 0.191786 0.14492 0.443993
3174 4 0.175658 0.136401 0.43341
2900 4 0.230083 0.123288 0.44673
2899 2 0.210935 0.134104 0.445362
321 4 0.27684 0.155811 0.483586
319 2 0.299713 0.159747 0.495455
426 4 0.369346 0.150747 0.431934
424 2 0.389084 0.141166 0.427722
425 4 0.408821 0.131585 0.42351
2683 2 0.00246677 0.220818 0.422349
3462 4 0.127227 0.216232 0.496878
3460 2 0.151414 0.214279 0.494291
3461 4 0.175601 0.212325 0.491704
1190 4 0.216572 0.218955 0.415165
1393 2 0.253601 0.21766 0.441676
1394 4 0.234258 0.218299 0.42609
1395 4 0.272943 0.21702 0.457262
409 2 0.277944 0.222931 0.496443
410 4 0.28564 0.219975 0.473156
529 2 0.000640515 0.161145 0.335269
2931 4 0.0218028 0.275785 0.46648
2809 2 0.112461 0.265743 0.485
2810 4 0.0864283 0.255984 0.484208
2811 4 0.138493 0.275502 0.485792
3497 4 0.0744277 0.266635 0.492809
2823 4 0.157883 0.2717 0.423172
2543 4 0.171434 0.266522 0.435501
2542 2 0.165048 0.272402 0.458376
2544 4 0.158662 0.278282 0.48125
825 4 0.332158 0.254516 0.438627
2604 4 0.353938 0.285642 0.492964
128 3 0.000471655 0.0527242 0.199014
2602 2 0.376786 0.287622 0.481699
2603 4 0.399634 0.289601 0.470434
2549 4 0.00795695 0.416723 0.466541
1445 4 0.450506 0.463958 0.435352
601 2 0.297551 0.399431 0.466642
603 4 0.277987 0.379105 0.472654
602 4 0.317115 0.419757 0.46063
1029 4 0.330882 0.412261 0.470537
1173 4 0.430614 0.414169 0.464741
2108 4 0.442164 0.405906 0.476777
2548 2 0.0340932 0.425442 0.466328
2550 4 0.0602295 0.43416 0.466115
3962 4 0.213686 0.491229 0.414388
4130 4 0.203068 0.45373 0.499752
3961 2 0.236166 0.496063 0.427102
3963 4 0.258645 0.500897 0.439815
1027 2 0.357024 0.419533 0.471839
1172 4 0.398083 0.436542 0.485777
1028 4 0.383166 0.426806 0.473142
1171 2 0.414348 0.425355 0.475259
2742 4 0.460028 0.479295 0.424217
1444 2 0.470487 0.466439 0.45116
1446 4 0.490469 0.46892 0.466969
2107 2 0.466968 0.41409 0.468878
3327 4 0.252147 0.0783516 0.493731
2523 4 0.43975 0.488174 0.000185683
3023 4 0.0174986 0.0540081 0.557529
3022 2 0.0422212 0.0562293 0.564058
3024 4 0.0669437 0.0584504 0.570586
2996 4 0.0878758 0.0670357 0.568243
3325 2 0.226953 0.0730266 0.500251
3326 4 0.201758 0.0677016 0.506772
782 4 0.481703 0.477373 0.926011
944 4 0.289974 0.0152814 0.563162
943 2 0.306558 0.0324058 0.548851
945 4 0.323143 0.0495303 0.53454
3033 4 0.340877 0.0436128 0.530551
3031 2 0.363464 0.0516397 0.51803
1968 4 0.471754 0.0172239 0.575939
1966 2 0.482097 0.0215558 0.553017
1967 4 0.492441 0.0258876 0.530096
725 4 0.00676942 0.159017 0.510153
8 3 0.0251797 0.169868 0.517791
1263 4 0.00201164 0.0981356 0.555133
1143 4 0.0514834 0.155078 0.53284
1261 2 0.0264098 0.112114 0.560349
1141 2 0.0696089 0.143502 0.528408
1262 4 0.0508079 0.126092 0.565564
1142 4 0.0877343 0.131925 0.523976
3308 4 0.063289 0.140618 0.576721
3307 2 0.0859342 0.135573 0.580414
2502 4 0.103579 0.140677 0.53555
2500 2 0.12622 0.156573 0.527885
2995 2 0.100416 0.0899427 0.576662
3309 4 0.108579 0.130528 0.584108
641 4 0.22283 0.155332 0.525833
640 2 0.244325 0.154502 0.513531
899 4 0.211604 0.167866 0.528653
642 4 0.26582 0.153672 0.501229
9 3 0.0297144 0.189806 0.550105
6 1 0.0410611 0.18495 0.531406
10 3 0.0514066 0.204063 0.519838
7 3 0.0579422 0.175485 0.538256
368 4 0.068287 0.209055 0.507074
917 4 0.0761901 0.177367 0.549823
367 2 0.0941163 0.214696 0.510747
916 2 0.100188 0.18963 0.558003
369 4 0.119946 0.220337 0.514419
2501 4 0.14886 0.17247 0.52022
918 4 0.124186 0.201893 0.566183
1211 4 0.144057 0.207175 0.572741
900 4 0.168824 0.183137 0.525508
3266 4 0.139571 0.24796 0.577067
898 2 0.190214 0.175501 0.52708
411 4 0.270248 0.225887 0.519729
320 4 0.322586 0.163683 0.507323
267 4 0.0357103 0.339272 0.512544
3081 4 0.0190574 0.274615 0.522408
3498 4 0.0372963 0.273277 0.523152
889 2 0.0734725 0.325224 0.524078
3496 2 0.055862 0.269956 0.507981
3384 4 0.0559002 0.294799 0.578496
3107 4 0.0749678 0.291312 0.581773
1239 4 0.112724 0.316671 0.535039
891 4 0.0948402 0.318052 0.528226
1237 2 0.138224 0.324642 0.529442
3111 4 0.159795 0.255568 0.56926
3109 2 0.183792 0.265379 0.559783
3110 4 0.207788 0.27519 0.550307
2813 4 0.230155 0.283314 0.544347
2812 2 0.255761 0.289429 0.539283
2963 4 0.301203 0.296119 0.530548
2814 4 0.281366 0.295543 0.534219
2962 2 0.318039 0.288853 0.516126
1135 2 0.0081353 0.387805 0.535312
1137 4 0.034032 0.391724 0.536105
890 4 0.0521047 0.332396 0.51993
540 4 0.0522028 0.387401 0.534748
538 2 0.0775974 0.398524 0.530295
539 4 0.102992 0.409647 0.525843
2243 4 0.11259 0.397165 0.533576
1238 4 0.163724 0.332613 0.523844
2242 2 0.133397 0.401937 0.518449
804 4 0.182183 0.338469 0.534676
802 2 0.206603 0.348762 0.542956
803 4 0.231023 0.359054 0.551236
4537 2 0.120229 0.495293 0.574068
4538 4 0.130678 0.495885 0.551277
4059 4 0.13181 0.487993 0.532538
4057 2 0.116136 0.496365 0.517662
2629 2 0.208937 0.493969 0.509702
2630 4 0.198864 0.469079 0.510069
4131 4 0.246264 0.439632 0.506018
4129 2 0.224666 0.446681 0.502885
2129 4 0.399845 0.427125 0.567862
1010 4 0.494134 0.209983 0.74223
952 2 0.389123 0.00622423 0.655993
1164 4 0.421819 0.00406563 0.627439
1163 4 0.457135 0.0113852 0.590628
1162 2 0.439477 0.00772543 0.609034
2997 4 0.112957 0.11285 0.58508
1130 4 0.12274 0.155043 0.606585
3207 4 0.387421 0.127002 0.663761
1076 4 0.0148533 0.214559 0.600673
1075 2 0.0400446 0.220683 0.593955
3265 2 0.113844 0.240841 0.581682
3267 4 0.0881168 0.233722 0.586297
1077 4 0.0652358 0.226807 0.587237
1210 2 0.169141 0.212952 0.579759
1129 2 0.146349 0.167284 0.615681
1131 4 0.169958 0.179525 0.624777
1212 4 0.194225 0.218729 0.586777
858 4 0.18686 0.184785 0.612121
1259 4 0.217857 0.225952 0.585503
856 2 0.209542 0.184749 0.622617
1258 2 0.243582 0.235595 0.589412
857 4 0.232225 0.184712 0.633112
1260 4 0.269307 0.245238 0.593321
2318 4 0.252433 0.184943 0.629568
2317 2 0.276747 0.195228 0.621017
2319 4 0.301061 0.205513 0.612466
950 4 0.318128 0.204525 0.6019
3038 4 0.290434 0.250044 0.600267
949 2 0.343739 0.213104 0.596919
951 4 0.36935 0.221684 0.591939
3383 4 0.00490534 0.284668 0.588892
3382 2 0.0304028 0.289733 0.583694
3106 2 0.0971807 0.290846 0.592959
3108 4 0.119394 0.29038 0.604144
3165 4 0.138275 0.29563 0.59512
3163 2 0.154477 0.293888 0.61361
3164 4 0.170678 0.292146 0.632099
1083 4 0.177575 0.284522 0.647303
1081 2 0.199413 0.286852 0.660489
2972 4 0.252534 0.328748 0.642914
3037 2 0.314672 0.250887 0.607308
3039 4 0.33891 0.251731 0.614349
3386 4 0.359454 0.257388 0.611523
3385 2 0.384192 0.266557 0.619378
3387 4 0.40893 0.275727 0.627232
384 4 0.429565 0.276796 0.630328
382 2 0.454666 0.281825 0.637086
383 4 0.479768 0.286855 0.643843
774 4 0.0446171 0.368552 0.618798
772 2 0.0685281 0.366706 0.61407
773 4 0.0924392 0.364861 0.609342
1205 4 0.111747 0.367207 0.603551
1204 2 0.134818 0.36557 0.611709
1206 4 0.157889 0.363932 0.619866
1139 4 0.176742 0.367859 0.609685
1138 2 0.199399 0.376867 0.621909
1140 4 0.222057 0.385876 0.634133
798 4 0.239503 0.396422 0.642692
796 2 0.253642 0.382411 0.652034
2971 2 0.27741 0.337821 0.635424
2973 4 0.302285 0.346894 0.627933
3435 4 0.319787 0.360619 0.622459
797 4 0.267781 0.368401 0.661377
3433 2 0.344195 0.359576 0.61893
3434 4 0.368602 0.358532 0.615401
998 4 0.484166 0.379739 0.663009
3113 4 0.489843 0.379287 0.643618
3490 2 0.0661433 0.489174 0.609818
3491 4 0.0412939 0.479518 0.617184
4539 4 0.109781 0.4947 0.59686
843 4 0.49946 0.0138662 0.517641
993 4 0.178652 0.420239 0.657254
2128 2 0.404098 0.438304 0.590214
2130 4 0.40835 0.449482 0.612565
1983 4 0.42399 0.454536 0.625192
1981 2 0.448947 0.468243 0.628102
2171 4 0.492051 0.480113 0.625264
1982 4 0.473905 0.48195 0.631013
3126 4 0.0646797 0.0393222 0.711691
3124 2 0.0712224 0.0640144 0.715464
3131 4 0.172039 0.0124664 0.731519
3083 4 0.192583 0.0225736 0.732715
3082 2 0.217333 0.0373469 0.732378
3084 4 0.242082 0.0521202 0.732041
2264 4 0.267061 0.00175632 0.735656
2343 4 0.287773 0.012238 0.734258
2341 2 0.302921 0.00335105 0.74928
953 4 0.368925 0.00709137 0.67033
2307 4 0.458125 0.0531734 0.686819
2305 2 0.48344 0.0550262 0.689926
3125 4 0.0777651 0.0887066 0.719237
3205 2 0.4081 0.13814 0.678058
3206 4 0.42878 0.149277 0.692354
3019 2 0.473784 0.158497 0.692074
3020 4 0.448785 0.154743 0.698631
3351 4 0.0015746 0.208126 0.698222
3349 2 0.0247027 0.203535 0.699376
3350 4 0.0478308 0.198944 0.700531
779 4 0.0649348 0.196924 0.708507
778 2 0.086595 0.210819 0.719953
780 4 0.108255 0.224713 0.731399
1068 4 0.475113 0.240721 0.717613
1082 4 0.221251 0.289182 0.673675
3221 4 0.269684 0.291109 0.661676
3220 2 0.28768 0.298751 0.679637
3222 4 0.305675 0.306393 0.697598
1307 4 0.312086 0.304335 0.716079
1306 2 0.325352 0.294625 0.732388
1308 4 0.338618 0.284915 0.748697
1299 4 0.420222 0.258809 0.689296
1297 2 0.442103 0.25467 0.69775
1298 4 0.463984 0.250532 0.706204
1066 2 0.4881 0.261329 0.730142
562 2 0.456231 0.42411 0.951099
3274 2 0.0187902 0.395221 0.722689
3276 4 0.0411974 0.391436 0.730092
4494 4 0.060621 0.404791 0.730801
4492 2 0.0836966 0.420999 0.736854
999 4 0.469996 0.378411 0.711068
997 2 0.477081 0.379075 0.687038
1017 4 0.486869 0.384693 0.722786
4493 4 0.106772 0.437207 0.742908
1956 4 0.117242 0.430418 0.727792
1955 4 0.163564 0.427253 0.711884
1954 2 0.140403 0.428835 0.719838
991 2 0.197474 0.427376 0.674527
992 4 0.216296 0.434514 0.6918
942 4 0.234452 0.444874 0.683565
940 2 0.259167 0.452784 0.69175
941 4 0.283882 0.460694 0.699935
1098 4 0.294677 0.446769 0.693677
1096 2 0.314018 0.439107 0.703419
1097 4 0.333358 0.431446 0.713161
1278 4 0.3519 0.432734 0.707702
1276 2 0.37797 0.440643 0.709897
1277 4 0.40404 0.448552 0.712093
821 4 0.409792 0.453559 0.730137
820 2 0.434748 0.453699 0.732265
1234 2 0.496674 0.446841 0.736604
822 4 0.459704 0.45384 0.734393
1235 4 0.471327 0.442029 0.742344
3410 4 0.00441377 0.000996371 0.807042
3409 2 0.0258891 0.00455761 0.821096
3765 4 0.0645605 0.0704346 0.824686
1994 4 0.0856237 0.0817652 0.825221
1993 2 0.109703 0.0799333 0.821433
1995 4 0.133782 0.0781013 0.817646
3130 2 0.165095 0.0191053 0.753881
4443 4 0.171164 0.0432087 0.780537
3132 4 0.158151 0.0257443 0.776243
4441 2 0.189061 0.0576803 0.795896
4442 4 0.206958 0.0721519 0.811255
4346 4 0.214702 0.0888259 0.8212
2035 2 0.284453 0.00532248 0.815117
2347 2 0.3484 0.0184517 0.831112
2348 4 0.32233 0.0116585 0.828928
2037 4 0.306085 0.0193554 0.826502
2349 4 0.37447 0.0252449 0.833296
3589 2 0.0182116 0.172056 0.78983
3145 2 0.0120368 0.0880594 0.766332
1146 4 0.0533504 0.10981 0.783942
3147 4 0.0346525 0.0962539 0.778782
1144 2 0.0791133 0.115458 0.779854
1145 4 0.104876 0.121107 0.775766
153 3 0.00034441 0.216431 0.789781
738 4 0.00616856 0.210631 0.806995
736 2 0.0314766 0.222989 0.810341
737 4 0.0567847 0.235348 0.813688
2981 4 0.0711328 0.251898 0.810463
946 2 0.076954 0.181605 0.814693
948 4 0.0635305 0.179744 0.793323
3590 4 0.0441417 0.176827 0.787692
1134 4 0.244949 0.17106 0.813134
1133 4 0.197045 0.176784 0.813061
1132 2 0.220997 0.173922 0.813098
868 2 0.260054 0.23604 0.829687
870 4 0.286127 0.245329 0.828704
34 3 0.19419 0.191043 0.825735
869 4 0.233981 0.22675 0.830671
1091 4 0.264917 0.181268 0.810889
1090 2 0.289367 0.194867 0.81644
839 4 0.333767 0.212457 0.820235
1092 4 0.313818 0.208466 0.82199
838 2 0.358699 0.215391 0.813949
60 3 0.423629 0.232573 0.786534
56 1 0.420295 0.233142 0.809029
57 3 0.40114 0.215688 0.814996
840 4 0.38363 0.218324 0.807663
3486 4 0.468334 0.16843 0.808971
59 3 0.439812 0.230965 0.820251
2978 4 0.477805 0.202319 0.753453
2979 4 0.467923 0.167104 0.788944
2977 2 0.472864 0.184712 0.771198
3484 2 0.490581 0.166037 0.818509
2980 2 0.0964628 0.261934 0.804914
190 3 0.124228 0.302871 0.813203
186 1 0.135995 0.324449 0.818424
2982 4 0.121793 0.27197 0.799366
189 3 0.155567 0.332038 0.804848
863 4 0.304728 0.259313 0.826259
3227 4 0.355875 0.281997 0.758859
864 4 0.356355 0.2664 0.828938
862 2 0.330542 0.262857 0.827599
3226 2 0.377335 0.300825 0.764017
3036 4 0.417431 0.324056 0.781207