ITEM: TIMESTEP
261500
ITEM: NUMBER OF ATOMS
4590
ITEM: BOX BOUNDS xy xz yz pp pp pp
-9.9985700000000008e+00 1.4597912200000010e+01 4.5993422000000095e+00
-9.9985700000000008e+00 9.9985700000000008e+00 0.0000000000000000e+00
-9.9985700000000008e+00 9.9985700000000008e+00 0.0000000000000000e+00
ITEM: ATOMS id type xs ys zs
2886 4 0.00952698 0.0745232 0.0254004
1660 2 0.151934 0.019777 0.0767486
1661 4 0.175448 0.0131112 0.0668697
1475 4 0.195859 0.0114999 0.0720701
2251 2 0.163197 0.00499416 0.00274419
2252 4 0.157581 0.00533065 0.0271242
1651 2 0.423154 0.0312441 0.078548
2468 4 0.440373 0.00618429 0.00527263
2467 2 0.446137 0.00569231 0.0296243
1652 4 0.442463 0.0220006 0.0629125
2469 4 0.451901 0.00520033 0.0539759
2688 4 0.0223833 0.0871922 0.0233783
2686 2 0.044608 0.091995 0.0157717
2441 4 0.0201859 0.125596 0.0114575
1253 4 0.0338566 0.130675 0.0240261
1252 2 0.0476858 0.145687 0.0340843
2687 4 0.0668326 0.0967978 0.00816502
2708 4 0.0865795 0.102374 0.0113779
2707 2 0.108617 0.109933 0.0130252
1254 4 0.061515 0.160699 0.0441426
2709 4 0.130655 0.117493 0.0146726
2670 4 0.151821 0.117022 0.0171147
2668 2 0.174949 0.122195 0.0197762
2669 4 0.198076 0.127369 0.0224376
2883 4 0.218918 0.129001 0.0216051
25 3 0.236491 0.139633 0.0277411
21 1 0.248608 0.155086 0.0335936
22 3 0.259097 0.161254 0.0149039
2881 2 0.234288 0.116634 0.00384678
23 3 0.265323 0.146023 0.0491565
2894 4 0.276585 0.151474 0.0647587
2893 2 0.295923 0.161277 0.0726869
3243 4 0.397405 0.104982 0.0455103
3241 2 0.418403 0.108915 0.0341084
3242 4 0.439401 0.112848 0.0227065
3392 4 0.444736 0.128992 0.0326005
3391 2 0.468603 0.132713 0.0322329
3393 4 0.492469 0.136434 0.0318652
2976 4 0.196001 0.210723 0.0717476
2974 2 0.218802 0.198605 0.0629298
2975 4 0.241604 0.186487 0.0541119
24 3 0.233951 0.173881 0.0424446
2895 4 0.31526 0.171081 0.0806152
281 4 0.434982 0.191292 0.0646974
2876 4 0.443333 0.195056 0.0816909
280 2 0.443117 0.187175 0.0411059
282 4 0.451252 0.183058 0.0175144
359 4 0.439553 0.18091 0.00203562
2748 4 0.0136174 0.318462 0.0634487
1121 4 0.0321468 0.32625 0.0657325
1120 2 0.0546697 0.331777 0.0710683
2840 4 0.0802198 0.313055 0.0177385
2839 2 0.0983415 0.313598 0.0348249
2841 4 0.116463 0.314141 0.0519112
309 4 0.134149 0.305817 0.0430452
307 2 0.154779 0.301957 0.0578954
308 4 0.175408 0.298097 0.0727456
2650 2 0.202004 0.317143 0.0842611
448 2 0.425473 0.265351 0.00656545
449 4 0.448819 0.259587 0.0169134
915 4 0.466134 0.259125 0.0270289
913 2 0.487575 0.265388 0.0349263
1122 4 0.0771926 0.337305 0.076404
1147 2 0.0660384 0.365442 0.00404222
1149 4 0.0427271 0.36047 0.00559858
423 4 0.108914 0.374856 5.18278e-05
1071 4 0.09503 0.341236 0.0712727
1148 4 0.0893496 0.370414 0.00248586
1069 2 0.116863 0.348966 0.0740984
1070 4 0.138695 0.356695 0.0769241
768 4 0.135128 0.409176 0.0829286
2651 4 0.215459 0.334615 0.0804422
495 4 0.206915 0.407229 0.0225386
1549 2 0.176544 0.374663 0.0811815
1551 4 0.155895 0.36529 0.0770262
527 4 0.234151 0.339495 0.0825439
493 2 0.231196 0.408989 0.0260993
494 4 0.255478 0.410748 0.0296601
526 2 0.254687 0.344875 0.0714923
597 4 0.254401 0.414877 0.0775027
528 4 0.275223 0.350256 0.0604407
1078 2 0.288085 0.393799 0.0152383
1079 4 0.275029 0.407943 0.0333774
4187 4 0.0271518 0.454536 0.00572261
2805 4 0.0287867 0.493406 0.0480626
4186 2 0.0520882 0.445086 0.00993211
4188 4 0.0770245 0.435636 0.0141416
3448 2 0.162392 0.433487 0.0754292
3449 4 0.179279 0.443169 0.0625409
2912 4 0.198272 0.476497 0.0141492
2582 4 0.199266 0.44375 0.0660956
2581 2 0.204946 0.458478 0.0480393
1104 4 0.275351 0.418723 0.0759507
2583 4 0.210627 0.473207 0.0299831
1102 2 0.296585 0.426568 0.0702188
1103 4 0.317819 0.434414 0.0644869
2772 4 0.329308 0.448032 0.0635116
2770 2 0.346918 0.461315 0.0588563
2771 4 0.364529 0.474598 0.054201
2522 4 0.381767 0.48227 0.0487955
2521 2 0.397666 0.47963 0.0291906
2523 4 0.413566 0.476991 0.00958566
1662 4 0.12842 0.0264428 0.0866276
1474 2 0.208648 0.0022575 0.0927109
404 4 0.340973 0.0343062 0.166354
2180 4 0.406382 0.0437627 0.165104
1749 4 0.420491 0.0531882 0.157643
1653 4 0.403845 0.0404876 0.0941835
1747 2 0.445665 0.0515787 0.154931
1748 4 0.470839 0.0499693 0.152218
743 4 0.488383 0.0552724 0.149101
723 4 0.00844502 0.102931 0.160645
721 2 0.0114718 0.124618 0.151125
722 4 0.0144987 0.146305 0.141605
759 4 0.0294125 0.157565 0.138486
757 2 0.0182076 0.166846 0.117113
2781 4 0.353864 0.0895619 0.158136
2601 4 0.338482 0.165269 0.146378
2599 2 0.330478 0.165338 0.122684
2600 4 0.322474 0.165407 0.0989913
3809 4 0.362289 0.0995939 0.145532
3808 2 0.372124 0.116431 0.13313
3810 4 0.381958 0.133267 0.120727
758 4 0.00700273 0.176126 0.095741
2787 4 0.00151185 0.232276 0.119253
692 4 0.286073 0.22991 0.112489
378 4 0.331048 0.172721 0.164571
691 2 0.310591 0.230226 0.107972
693 4 0.335108 0.230541 0.103456
353 4 0.347691 0.232934 0.118049
352 2 0.371783 0.235626 0.115346
354 4 0.395875 0.238317 0.112644
2877 4 0.405378 0.220407 0.110431
2875 2 0.424355 0.207732 0.0960611
108 3 0.132556 0.300987 0.0942591
109 3 0.143959 0.266361 0.109545
106 1 0.147025 0.288115 0.10976
110 3 0.14262 0.297068 0.130568
2652 4 0.188549 0.29967 0.08808
107 3 0.169385 0.287833 0.104103
2718 4 0.204928 0.282913 0.155958
2716 2 0.228176 0.282469 0.146511
2717 4 0.251424 0.282025 0.137064
2616 4 0.269739 0.287709 0.136412
3632 4 0.281634 0.317204 0.151578
2614 2 0.294255 0.287211 0.13098
2471 4 0.300202 0.319494 0.147152
2615 4 0.31877 0.286714 0.125548
837 4 0.337106 0.29246 0.127538
835 2 0.359077 0.29922 0.122439
836 4 0.381049 0.305979 0.117339
3141 4 0.402415 0.304584 0.114068
3139 2 0.422146 0.313981 0.106478
3140 4 0.441878 0.323377 0.0988879
2798 4 0.445893 0.289709 0.164485
621 4 0.461587 0.323247 0.093689
1054 2 0.487848 0.294209 0.165939
2514 4 0.0100143 0.373496 0.110081
2445 4 0.0276634 0.378886 0.105682
2443 2 0.0495691 0.386417 0.102564
2444 4 0.0714748 0.393948 0.0994466
767 4 0.0927325 0.394394 0.096532
362 4 0.0836997 0.400286 0.153563
361 2 0.102931 0.412003 0.150889
766 2 0.11393 0.401785 0.0897303
1550 4 0.197194 0.384036 0.0853367
416 4 0.139424 0.410313 0.147745
596 4 0.215404 0.393287 0.0875984
729 4 0.206698 0.406662 0.163379
415 2 0.16478 0.406353 0.151197
417 4 0.190136 0.402392 0.154648
595 2 0.234902 0.404082 0.0825506
608 4 0.251064 0.350356 0.160954
607 2 0.253293 0.357878 0.13744
609 4 0.255521 0.365401 0.113926
2470 2 0.311461 0.335872 0.135699
2472 4 0.322719 0.35225 0.124246
2094 4 0.32943 0.402524 0.130946
2571 4 0.332837 0.364465 0.114553
2092 2 0.304994 0.414719 0.128025
2569 2 0.358113 0.356965 0.110778
2919 4 0.3399 0.417048 0.136052
2570 4 0.38339 0.349464 0.107003
2969 4 0.391774 0.350139 0.124998
2968 2 0.402294 0.350717 0.147611
619 2 0.478234 0.33815 0.093967
620 4 0.494881 0.353054 0.0942451
3404 4 0.0102367 0.445184 0.0996764
3403 2 0.0350202 0.44197 0.105736
1569 4 0.000196463 0.436856 0.111827
3405 4 0.0598038 0.438757 0.111795
1466 4 0.0770301 0.446406 0.111371
1465 2 0.0975133 0.456595 0.111912
363 4 0.122161 0.42372 0.148214
1467 4 0.117997 0.466785 0.112452
4211 4 0.122597 0.485774 0.115012
3450 4 0.145505 0.423805 0.0883175
4210 2 0.147347 0.479861 0.108447
4212 4 0.172097 0.473948 0.101882
3636 4 0.186861 0.471104 0.115901
3634 2 0.201439 0.484855 0.104884
3635 4 0.216017 0.498606 0.0938664
2093 4 0.280558 0.426914 0.125105
648 4 0.280589 0.446746 0.122999
646 2 0.280944 0.471028 0.122436
647 4 0.281299 0.495309 0.121874
2917 2 0.352199 0.435237 0.131289
2918 4 0.364498 0.453426 0.126527
3671 4 0.493654 0.469416 0.153505
2732 4 0.000803139 0.0444582 0.217662
2731 2 0.0227502 0.050906 0.211776
2733 4 0.0446972 0.0573538 0.20589
393 4 0.221148 0.0125093 0.236168
391 2 0.242753 0.0192987 0.242679
248 4 0.241072 0.0216643 0.190083
247 2 0.265272 0.0134059 0.182359
249 4 0.289472 0.00514752 0.174635
392 4 0.264358 0.0260882 0.249191
405 4 0.298009 0.0210973 0.18085
2181 4 0.356136 0.0453141 0.168163
403 2 0.319491 0.0277018 0.173602
2179 2 0.381259 0.0445384 0.166633
730 2 0.0269468 0.116381 0.225091
732 4 0.0487663 0.118566 0.21404
731 4 0.00512722 0.114196 0.236143
581 4 0.0669434 0.123965 0.212368
580 2 0.0897057 0.127543 0.219859
582 4 0.112468 0.131121 0.22735
750 4 0.130943 0.135689 0.224296
748 2 0.128982 0.158036 0.235053
333 4 0.195914 0.149347 0.236013
331 2 0.205402 0.156803 0.214941
332 4 0.214891 0.164259 0.193868
630 4 0.232267 0.169761 0.187442
2780 4 0.312013 0.112878 0.183149
2779 2 0.332939 0.10122 0.170642
579 4 0.0191148 0.185132 0.236193
749 4 0.127021 0.180382 0.245811
628 2 0.250782 0.182577 0.187988
1220 4 0.219008 0.243483 0.223175
1219 2 0.240734 0.248504 0.214432
629 4 0.269296 0.195393 0.188534
377 4 0.288821 0.190551 0.191575
376 2 0.309935 0.181636 0.178073
300 4 0.199753 0.253791 0.225686
298 2 0.178229 0.257302 0.239238
2451 4 0.190888 0.330872 0.230832
2496 4 0.20229 0.316181 0.220121
2494 2 0.224187 0.31592 0.207945
1221 4 0.26246 0.253525 0.205688
2495 4 0.246084 0.315658 0.195768
477 4 0.278791 0.260881 0.201448
3631 2 0.27242 0.319291 0.174914
3633 4 0.263207 0.321378 0.198249
2954 4 0.29878 0.309014 0.245547
475 2 0.300467 0.267658 0.195172
476 4 0.322144 0.274434 0.188895
2953 2 0.323374 0.310198 0.247877
755 4 0.337427 0.285668 0.190879
754 2 0.359537 0.292964 0.188407
756 4 0.381646 0.300259 0.185935
1056 4 0.465642 0.287277 0.169206
2799 4 0.39669 0.289863 0.17361
2797 2 0.421292 0.289786 0.169047
388 2 0.498301 0.257022 0.244692
519 4 0.0682039 0.368817 0.211764
517 2 0.0920086 0.362298 0.202536
518 4 0.115813 0.35578 0.193309
734 4 0.129329 0.356737 0.208102
733 2 0.153209 0.360326 0.206697
735 4 0.177089 0.363914 0.205292
290 4 0.19577 0.357546 0.195212
289 2 0.20907 0.37127 0.208096
291 4 0.222371 0.384994 0.220981
2538 4 0.257222 0.401505 0.202486
727 2 0.230078 0.404562 0.173201
728 4 0.253459 0.402462 0.183024
2536 2 0.28218 0.397586 0.208066
2537 4 0.307137 0.393667 0.213646
714 4 0.319459 0.40602 0.217475
712 2 0.342095 0.412542 0.217187
2970 4 0.412815 0.351295 0.170224
4008 4 0.0117603 0.466929 0.234982
395 4 0.0958864 0.452496 0.246583
394 2 0.114554 0.448554 0.229431
396 4 0.133222 0.444613 0.212279
3920 4 0.145159 0.453612 0.2021
3919 2 0.168067 0.458798 0.206281
3921 4 0.190974 0.463983 0.210463
2820 4 0.205999 0.4733 0.211766
2818 2 0.229514 0.477856 0.212814
2819 4 0.253029 0.482411 0.213862
3566 4 0.269601 0.486387 0.205101
713 4 0.364731 0.419065 0.216898
3567 4 0.319197 0.488041 0.205645
681 4 0.30556 0.428877 0.24428
3565 2 0.294399 0.487214 0.205373
4031 4 0.333754 0.49833 0.207825
339 4 0.385986 0.418734 0.212408
337 2 0.402906 0.431718 0.220177
338 4 0.419826 0.444701 0.227947
677 4 0.433708 0.454158 0.235795
676 2 0.455948 0.459934 0.229765
678 4 0.478188 0.465709 0.223734
1425 4 0.495698 0.473353 0.222807
2816 4 0.0215767 0.0619089 0.319245
2714 4 0.0434896 0.0562821 0.32049
2713 2 0.0669763 0.0606115 0.323146
2715 4 0.090463 0.0649409 0.325801
428 4 0.276672 0.0383311 0.252599
427 2 0.301213 0.0400745 0.252751
429 4 0.325755 0.041818 0.252904
1868 4 0.341021 0.0503548 0.263748
1867 2 0.365771 0.0513662 0.263856
1869 4 0.390522 0.0523775 0.263964
2850 4 0.410077 0.0575758 0.265423
2848 2 0.432697 0.0640851 0.264353
2849 4 0.455318 0.0705944 0.263283
1272 4 0.472536 0.0784479 0.262193
1032 4 0.0145514 0.123385 0.301706
1030 2 0.0395006 0.123495 0.302906
1031 4 0.0644498 0.123605 0.304106
2516 4 0.200989 0.140425 0.252993
2515 2 0.217458 0.148834 0.267683
2945 4 0.266117 0.110613 0.328336
2517 4 0.233927 0.157243 0.282373
2657 4 0.252287 0.159521 0.274339
2944 2 0.282066 0.113177 0.309759
2946 4 0.298015 0.115741 0.291183
2678 4 0.315232 0.112435 0.300628
2677 2 0.339738 0.113253 0.296793
2679 4 0.364244 0.114071 0.292958
2837 4 0.364198 0.130133 0.279164
2836 2 0.38748 0.134743 0.275786
2838 4 0.410761 0.139353 0.272408
2871 4 0.406857 0.119809 0.316059
2869 2 0.388272 0.11211 0.328369
2477 4 0.424745 0.121176 0.308239
1270 2 0.492461 0.0882075 0.268396
2476 2 0.446601 0.126248 0.299908
2478 4 0.468457 0.131321 0.291578
2778 4 0.484304 0.138999 0.282241
236 4 0.0217232 0.178829 0.255999
235 2 0.039344 0.191978 0.261104
237 4 0.0569648 0.205127 0.26621
458 4 0.0753431 0.209101 0.269094
457 2 0.100356 0.202927 0.263577
459 4 0.125368 0.196752 0.25806
2656 2 0.271121 0.171915 0.273173
2658 4 0.289956 0.184308 0.272008
2663 4 0.292382 0.19399 0.330882
2621 4 0.0756924 0.301566 0.320141
299 4 0.156705 0.260813 0.25279
2462 4 0.101923 0.256079 0.264434
2461 2 0.121611 0.266895 0.260379
2620 2 0.0944502 0.314027 0.318613
2622 4 0.113208 0.326488 0.317085
2853 4 0.117347 0.328107 0.297263
2463 4 0.141299 0.27771 0.256323
2851 2 0.141601 0.326799 0.290212
2852 4 0.165855 0.325492 0.28316
3572 4 0.24442 0.31935 0.259655
3571 2 0.269856 0.312324 0.262561
3573 4 0.295291 0.305298 0.265467
2955 4 0.347968 0.311383 0.250207
2831 4 0.349066 0.293372 0.323488
2830 2 0.335042 0.277368 0.330945
2529 4 0.348183 0.315072 0.269077
2527 2 0.356604 0.306183 0.291561
2528 4 0.365024 0.297294 0.314044
710 4 0.43528 0.299405 0.315073
536 4 0.446233 0.280635 0.319212
535 2 0.458135 0.269912 0.29869
537 4 0.470037 0.259189 0.278168
389 4 0.48339 0.261977 0.264964
2449 2 0.179818 0.336256 0.253182
2450 4 0.168747 0.34164 0.275532
1575 4 0.422023 0.412489 0.267034
1573 2 0.446672 0.400809 0.264499
1574 4 0.47132 0.389129 0.261963
1802 4 0.492197 0.385691 0.257445
2532 4 0.273031 0.490043 0.319652
679 2 0.303848 0.452612 0.251195
3883 2 0.294488 0.49582 0.285214
3884 4 0.311664 0.491184 0.266662
680 4 0.302136 0.476346 0.258109
543 4 0.42502 0.454124 0.313737
244 2 0.497813 0.467861 0.287605
541 2 0.443116 0.452617 0.296191
542 4 0.461213 0.45111 0.278646
245 4 0.481787 0.454255 0.279055
2114 4 0.00715626 0.0269977 0.405393
1184 4 0.0257484 0.0258175 0.413404
3477 4 0.109777 0.061568 0.333966
3475 2 0.134046 0.0639647 0.335802
3476 4 0.158316 0.0663613 0.337638
1244 4 0.176817 0.0617054 0.346235
1243 2 0.200765 0.0650425 0.348032
1245 4 0.224712 0.0683796 0.349828
2667 4 0.243145 0.0747517 0.354812
2665 2 0.265053 0.0826477 0.354611
1523 4 0.305541 0.0151936 0.406977
1522 2 0.313104 0.0222815 0.384832
1524 4 0.320668 0.0293694 0.362686
2643 4 0.340493 0.0213932 0.359034
2641 2 0.362669 0.0261981 0.351281
2642 4 0.384844 0.0310031 0.343528
480 4 0.396686 0.0448229 0.34206
478 2 0.416028 0.0548863 0.349471
479 4 0.435369 0.0649497 0.356883
470 4 0.456143 0.0661209 0.358024
469 2 0.480333 0.0660079 0.364446
529 2 0.00428484 0.163953 0.332985
2559 4 0.000673359 0.0878113 0.41783
3158 4 0.0411088 0.16831 0.352287
2666 4 0.28696 0.0905438 0.354411
1377 4 0.305972 0.0941533 0.349707
2937 4 0.330165 0.162529 0.367444
1375 2 0.33083 0.0947555 0.349653
1376 4 0.355688 0.0953577 0.349598
2935 2 0.347663 0.151148 0.384004
2936 4 0.36516 0.139767 0.400564
2870 4 0.369686 0.10441 0.340679
426 4 0.380513 0.140403 0.414172
530 4 0.0235018 0.172849 0.342677
2482 2 0.0235573 0.223422 0.364801
2483 4 0.00321091 0.234616 0.351235
2484 4 0.0439037 0.212229 0.378367
2504 4 0.0550286 0.245083 0.404619
3157 2 0.0625915 0.175774 0.357881
2503 2 0.0786152 0.243359 0.395431
3159 4 0.0840741 0.183237 0.363474
651 4 0.0976642 0.193731 0.365372
2505 4 0.102202 0.241636 0.386242
649 2 0.121475 0.191184 0.374278
650 4 0.145285 0.188636 0.383184
1191 4 0.161113 0.193081 0.394281
1189 2 0.184272 0.196229 0.400982
1190 4 0.20743 0.199377 0.407683
2664 4 0.31382 0.177032 0.374535
2662 2 0.303101 0.185511 0.352709
825 4 0.313307 0.248873 0.407857
1951 2 0.0028702 0.292256 0.394427
2681 4 0.0608806 0.302752 0.334843
1952 4 0.0266553 0.287048 0.385053
2682 4 0.0387235 0.278616 0.368761
2680 2 0.049802 0.290684 0.351802
2822 4 0.115604 0.254131 0.385894
2821 2 0.136797 0.257909 0.397037
2823 4 0.15799 0.261687 0.408179
2832 4 0.321018 0.261364 0.338402
824 4 0.351895 0.261852 0.383282
823 2 0.332601 0.255362 0.39557
635 4 0.367662 0.270418 0.384584
634 2 0.377521 0.28063 0.365299
636 4 0.38738 0.290841 0.346015
709 2 0.420142 0.295747 0.333954
711 4 0.405004 0.292089 0.352834
2923 2 0.0107548 0.351148 0.381109
2925 4 0.0334869 0.356103 0.375562
585 4 0.053043 0.359697 0.372907
583 2 0.0763198 0.359061 0.363434
584 4 0.0995966 0.358425 0.35396
549 4 0.15072 0.404317 0.38866
2589 4 0.0174605 0.456126 0.402895
2587 2 0.0385706 0.46526 0.401161
2648 4 0.999929 0.448694 0.403685
2588 4 0.0596807 0.474394 0.399427
3582 4 0.0804539 0.471615 0.398423
3580 2 0.106057 0.465136 0.399741
3581 4 0.131661 0.458656 0.40106
547 2 0.169007 0.417169 0.385704
3318 4 0.145656 0.471775 0.3955
548 4 0.187295 0.43002 0.382747
3316 2 0.170007 0.473975 0.393938
3317 4 0.194359 0.476175 0.392377
1434 4 0.205919 0.432384 0.383385
3962 4 0.202272 0.482526 0.408605
1432 2 0.22056 0.446218 0.372607
1433 4 0.235201 0.460052 0.36183
2531 4 0.24845 0.47062 0.355425
3961 2 0.226087 0.486391 0.408598
3963 4 0.249901 0.490256 0.408592
2530 2 0.260741 0.480331 0.337539
2139 4 0.481753 0.433286 0.392495
2137 2 0.491329 0.452144 0.383776
2742 4 0.47728 0.472804 0.414232
1183 2 0.045797 0.0344917 0.421405
219 3 0.0590571 0.0598294 0.470021
1185 4 0.0658457 0.0431659 0.429406
216 1 0.0694994 0.0712499 0.45462
217 3 0.0778875 0.0570677 0.43725
984 4 0.0859794 0.0453226 0.419467
982 2 0.107806 0.0305758 0.427706
983 4 0.129632 0.015829 0.435944
220 3 0.0871562 0.0782923 0.464493
3326 4 0.207201 0.0702494 0.491121
1058 4 0.310702 0.0190811 0.42526
1057 2 0.332647 0.0204261 0.436579
1059 4 0.354592 0.0217712 0.447898
1152 4 0.364706 0.0374964 0.447255
1150 2 0.388109 0.0412634 0.451947
1151 4 0.411511 0.0450304 0.456638
2316 4 0.426917 0.0523076 0.445847
2314 2 0.447978 0.0607024 0.440739
2315 4 0.469039 0.0690972 0.435631
842 4 0.48594 0.027866 0.468998
841 2 0.48425 0.0114214 0.48702
1182 4 0.488858 0.0716214 0.432071
683 4 0.479002 0.0296636 0.45056
682 2 0.49236 0.0200573 0.430346
2558 4 0.0482368 0.0936767 0.426427
2557 2 0.0244551 0.090744 0.422128
2551 2 0.024248 0.125325 0.468323
2552 4 0.0489751 0.126416 0.468616
218 3 0.0536048 0.0894456 0.446242
762 4 0.0624583 0.137482 0.465027
760 2 0.0828013 0.147227 0.460536
2457 4 0.0914342 0.0952563 0.472626
761 4 0.103144 0.156971 0.456044
2455 2 0.113346 0.0990698 0.48218
3173 4 0.120828 0.148626 0.464342
2456 4 0.135258 0.102883 0.491735
3172 2 0.14065 0.155539 0.453438
2901 4 0.180351 0.155311 0.440757
3174 4 0.160472 0.162453 0.442534
3852 4 0.151863 0.107764 0.482694
3850 2 0.171139 0.0908148 0.492764
2899 2 0.204189 0.142113 0.43649
2900 4 0.228028 0.128915 0.432223
424 2 0.386948 0.127159 0.435108
425 4 0.393382 0.113915 0.456043
2684 4 0.0258168 0.211918 0.424493
2683 2 0.00664825 0.204775 0.43637
367 2 0.0902429 0.217969 0.497579
369 4 0.113062 0.214171 0.486216
3462 4 0.132377 0.207022 0.480981
3460 2 0.15702 0.202734 0.487848
3461 4 0.181663 0.198447 0.494715
1394 4 0.216934 0.205222 0.423285
1393 2 0.2391 0.209938 0.431181
319 2 0.294677 0.172776 0.498625
1395 4 0.261266 0.214654 0.439077
409 2 0.271359 0.230123 0.474723
410 4 0.264957 0.229638 0.450587
411 4 0.277761 0.230608 0.498858
320 4 0.306017 0.190725 0.490642
266 4 0.0111467 0.322532 0.474702
3497 4 0.0796072 0.269608 0.497403
265 2 0.0290315 0.326685 0.490607
2810 4 0.0979827 0.263316 0.48945
2809 2 0.122801 0.262503 0.48523
2811 4 0.14762 0.26169 0.48101
2542 2 0.169301 0.254469 0.445022
2544 4 0.164716 0.25747 0.469537
2543 4 0.173886 0.251467 0.420506
2964 4 0.299808 0.297829 0.49766
2602 2 0.340894 0.292323 0.491543
2603 4 0.362488 0.29188 0.478773
2548 2 0.0110639 0.409606 0.459643
603 4 0.284422 0.413681 0.484341
1172 4 0.399335 0.410804 0.453198
1171 2 0.424795 0.402627 0.454713
1173 4 0.450256 0.39445 0.456227
2108 4 0.465437 0.402685 0.463755
2107 2 0.486146 0.411721 0.458826
2550 4 0.0282205 0.419357 0.447243
4042 2 0.00439945 0.464193 0.474598
4044 4 0.0275056 0.469542 0.472525
560 4 0.0339724 0.486615 0.467307
559 2 0.0516116 0.491053 0.483348
561 4 0.0692509 0.49549 0.499389
4130 4 0.223874 0.460616 0.499151
4129 2 0.244346 0.442682 0.493123
4131 4 0.264817 0.424749 0.487095
601 2 0.303069 0.419497 0.470485
1029 4 0.337133 0.42206 0.468995
602 4 0.321717 0.425312 0.45663
1027 2 0.362514 0.420018 0.468343
1028 4 0.387896 0.417975 0.467691
1445 4 0.483743 0.471823 0.433096
1444 2 0.494739 0.470714 0.455647
2740 2 0.455123 0.489209 0.418488
3022 2 0.0197181 0.0360503 0.572479
3024 4 0.037366 0.0481335 0.580348
3023 4 0.00207029 0.0239671 0.56461
3851 4 0.190415 0.0738652 0.502834
944 4 0.285923 0.0372114 0.559407
3327 4 0.254006 0.0705209 0.508559
3325 2 0.230603 0.0703851 0.49984
943 2 0.309643 0.0295646 0.550221
945 4 0.333363 0.0219179 0.541034
3033 4 0.328798 0.0381269 0.531571
3031 2 0.346615 0.0474114 0.519699
3032 4 0.364431 0.0566958 0.507828
1163 4 0.450418 0.0115118 0.574087
1968 4 0.468627 0.0122838 0.56703
1966 2 0.47828 0.00842922 0.543933
1967 4 0.487933 0.00457468 0.520836
1261 2 0.0130523 0.124483 0.567405
1262 4 0.026237 0.141143 0.575025
3308 4 0.046227 0.143174 0.572046
1141 2 0.0890928 0.159086 0.533562
1142 4 0.098588 0.136889 0.522923
2502 4 0.114914 0.135215 0.510979
3307 2 0.0653119 0.123937 0.578386
2500 2 0.139139 0.137898 0.510044
2501 4 0.163364 0.140581 0.50911
898 2 0.188353 0.154839 0.53126
900 4 0.164939 0.152407 0.524585
899 4 0.211767 0.157271 0.537934
641 4 0.221039 0.158702 0.520259
640 2 0.246639 0.1524 0.518767
642 4 0.272238 0.146099 0.517275
321 4 0.283337 0.154826 0.506608
8 3 0.0303479 0.187627 0.511037
9 3 0.0264029 0.213331 0.538963
725 4 0.00987845 0.18874 0.510142
6 1 0.041242 0.201597 0.523046
10 3 0.048298 0.216134 0.508933
7 3 0.0600211 0.188777 0.533732
1143 4 0.0795976 0.181283 0.544201
3267 4 0.0784024 0.236428 0.578545
1077 4 0.0605265 0.230412 0.581902
917 4 0.0981379 0.18205 0.554646
368 4 0.0674236 0.221768 0.508943
3265 2 0.100893 0.241356 0.572002
916 2 0.118679 0.186661 0.566362
918 4 0.139221 0.191272 0.578078
1211 4 0.157349 0.197446 0.57726
1210 2 0.176293 0.209693 0.578552
1259 4 0.21235 0.22666 0.57286
1212 4 0.195237 0.22194 0.579845
1258 2 0.233895 0.232375 0.581226
3079 2 0.00214755 0.276404 0.541269
3081 4 0.0235921 0.284327 0.536679
3498 4 0.0355047 0.273242 0.522213
3496 2 0.0575559 0.271425 0.509808
267 4 0.0469163 0.330839 0.506513
889 2 0.0911068 0.319545 0.509531
3266 4 0.123383 0.246285 0.565459
891 4 0.115353 0.30636 0.510675
1239 4 0.131843 0.314536 0.51058
3111 4 0.139774 0.255842 0.564338
1237 2 0.152435 0.319225 0.522139
3109 2 0.162493 0.260089 0.557577
1238 4 0.173027 0.323914 0.533697
3110 4 0.185211 0.264335 0.550817
2813 4 0.206443 0.265929 0.544809
2812 2 0.227345 0.2737 0.537739
804 4 0.186968 0.331691 0.544204
2963 4 0.265751 0.278573 0.523131
2814 4 0.248247 0.281471 0.53067
2962 2 0.282779 0.288201 0.510396
2604 4 0.3193 0.292765 0.504313
890 4 0.0668604 0.332729 0.508387
1137 4 0.0328209 0.377065 0.548797
540 4 0.0461485 0.381705 0.536034
1135 2 0.00893119 0.388746 0.54254
538 2 0.0705756 0.383419 0.538514
539 4 0.0950028 0.385132 0.540994
2243 4 0.10119 0.401867 0.534772
2242 2 0.125537 0.402671 0.530002
773 4 0.0953978 0.362388 0.580874
2244 4 0.149883 0.403476 0.525232
802 2 0.20628 0.341499 0.536215
803 4 0.225592 0.351306 0.528226
4057 2 0.0993013 0.48441 0.519441
4059 4 0.117119 0.490881 0.533952
4538 4 0.106801 0.499424 0.549493
4537 2 0.0994219 0.498871 0.573337
4058 4 0.0814837 0.477938 0.504929
2629 2 0.195062 0.487269 0.516164
2630 4 0.219501 0.477029 0.510453
2996 4 0.0529343 0.0509935 0.590949
2995 2 0.065398 0.0694565 0.588696
1162 2 0.435135 0.00537316 0.591659
953 4 0.375833 0.0332575 0.648892
952 2 0.396204 0.0250171 0.634198
954 4 0.416575 0.0167767 0.619503
2997 4 0.0778617 0.0879196 0.586443
3309 4 0.0843968 0.104701 0.584726
1076 4 0.0109392 0.229431 0.586195
1075 2 0.0357329 0.229922 0.584049
1130 4 0.1351 0.184373 0.596427
1129 2 0.149248 0.185064 0.61692
1131 4 0.163396 0.185756 0.637414
858 4 0.182447 0.18449 0.628038
856 2 0.206545 0.185904 0.62287
857 4 0.230642 0.187319 0.617702
2318 4 0.250553 0.190247 0.618394
1260 4 0.255439 0.23809 0.589592
2317 2 0.275289 0.19011 0.614541
2319 4 0.300025 0.189972 0.610688
950 4 0.31443 0.191553 0.595408
3038 4 0.274129 0.239994 0.588897
949 2 0.339754 0.188972 0.592775
3037 2 0.296036 0.247089 0.593452
951 4 0.365078 0.186391 0.590142
3383 4 0.00153763 0.276145 0.589932
3382 2 0.0238725 0.282853 0.5931
3384 4 0.0462073 0.289561 0.596269
3107 4 0.0651567 0.291261 0.587902
3106 2 0.0885503 0.293135 0.595254
3108 4 0.111944 0.29501 0.602606
3165 4 0.131703 0.296716 0.602774
3163 2 0.154673 0.296756 0.612631
3164 4 0.177642 0.296796 0.622488
1083 4 0.192133 0.30686 0.627517
1081 2 0.201612 0.292178 0.646813
3039 4 0.317944 0.254185 0.598007
2972 4 0.247154 0.326604 0.633963
3221 4 0.266231 0.283439 0.66686
3386 4 0.336619 0.257266 0.602809
3385 2 0.357881 0.264447 0.609775
3387 4 0.379144 0.271629 0.616741
384 4 0.399515 0.272316 0.617311
382 2 0.419635 0.280178 0.626396
383 4 0.439755 0.288039 0.63548
774 4 0.0511201 0.353828 0.597866
772 2 0.0732589 0.358108 0.58937
1205 4 0.102053 0.3669 0.598335
1204 2 0.124656 0.358025 0.609453
1206 4 0.147259 0.349149 0.620571
1139 4 0.167973 0.346758 0.626204
1138 2 0.185646 0.359558 0.63223
1140 4 0.203318 0.372358 0.638255
798 4 0.210362 0.389059 0.643189
2971 2 0.267929 0.336364 0.633756
796 2 0.234291 0.392616 0.64289
797 4 0.258221 0.396173 0.642591
2973 4 0.288704 0.346123 0.63355
3435 4 0.303753 0.352234 0.624352
3433 2 0.328358 0.351385 0.619003
3434 4 0.352963 0.350536 0.613653
3491 4 0.0461165 0.462834 0.619128
4539 4 0.0920429 0.498319 0.597181
3490 2 0.0655735 0.473704 0.614135
3492 4 0.0850306 0.484573 0.609142
993 4 0.195643 0.43109 0.659657
4362 4 0.305711 0.490014 0.649475
2129 4 0.401103 0.450447 0.588531
2128 2 0.413791 0.456924 0.608082
2130 4 0.426479 0.4634 0.627633
1983 4 0.442826 0.464264 0.638634
1981 2 0.453963 0.482066 0.629899
3126 4 0.0486758 0.0629241 0.742945
3124 2 0.0546324 0.0704818 0.720387
3125 4 0.0605891 0.0780395 0.697829
3083 4 0.197289 0.0296328 0.739833
3082 2 0.200759 0.0463335 0.722721
3084 4 0.204229 0.0630341 0.705609
3131 4 0.185291 0.018032 0.745582
2264 4 0.280216 0.000556774 0.744668
2263 2 0.255354 0.00190327 0.740133
2307 4 0.46366 0.040782 0.689273
2305 2 0.484622 0.0495111 0.684646
3207 4 0.390453 0.155425 0.681297
3205 2 0.415766 0.148078 0.684921
3206 4 0.441079 0.140731 0.688546
3020 4 0.457563 0.140845 0.697996
3019 2 0.481528 0.144312 0.697941
3349 2 0.00371759 0.209204 0.713445
3350 4 0.0288728 0.207299 0.716703
779 4 0.034527 0.217195 0.701722
778 2 0.0588489 0.216859 0.707826
780 4 0.0831709 0.216524 0.71393
2978 4 0.480007 0.178732 0.738491
1010 4 0.478 0.196236 0.726712
1299 4 0.407028 0.246465 0.689726
1082 4 0.211092 0.277495 0.666109
3220 2 0.27485 0.286307 0.689901
3222 4 0.283469 0.289175 0.712941
1307 4 0.291404 0.292819 0.731837
1306 2 0.316031 0.293475 0.735127
1308 4 0.340658 0.29413 0.738417
1297 2 0.424604 0.257295 0.699983
1298 4 0.44218 0.268125 0.71024
1068 4 0.4453 0.268515 0.729432
1066 2 0.466577 0.266807 0.743074
3275 4 0.00227042 0.394981 0.722498
3274 2 0.026867 0.395732 0.72583
3276 4 0.0514635 0.396483 0.729161
4494 4 0.061775 0.40659 0.717615
4492 2 0.0805475 0.414821 0.729032
4493 4 0.0993201 0.423053 0.740449
1956 4 0.118776 0.420833 0.734333
1954 2 0.132407 0.435598 0.723504
1955 4 0.146038 0.450364 0.712676
991 2 0.20942 0.436925 0.678697
992 4 0.223198 0.44276 0.697737
942 4 0.241439 0.434769 0.707082
940 2 0.25809 0.449343 0.710638
941 4 0.274742 0.463917 0.714194
1098 4 0.290676 0.450501 0.722215
1096 2 0.314911 0.444895 0.714015
1097 4 0.339147 0.439289 0.705815
1278 4 0.356207 0.424379 0.700812
1276 2 0.370119 0.441727 0.702742
1277 4 0.384032 0.459075 0.704673
821 4 0.404595 0.457125 0.700766
820 2 0.426585 0.452426 0.713648
822 4 0.448574 0.447727 0.726529
1235 4 0.469387 0.445703 0.722969
1234 2 0.49023 0.455312 0.721791
3409 2 0.060855 0.00379839 0.828563
3763 2 0.0375813 0.0616329 0.821813
3765 4 0.0565646 0.0737398 0.823996
3764 4 0.0185979 0.049526 0.81963
194 3 0.00401032 0.041518 0.8125
3146 4 0.00194948 0.0788893 0.762178
1994 4 0.0749815 0.0755486 0.829694
3130 2 0.188927 0.0252932 0.768913
3132 4 0.192563 0.0325545 0.792243
4443 4 0.186926 0.052536 0.791783
4441 2 0.196883 0.0678547 0.806233
3129 4 0.214782 0.0269611 0.832967
4442 4 0.20684 0.0831734 0.820684
2035 2 0.289586 0.00430487 0.814513
2037 4 0.311609 0.0110813 0.819327
2348 4 0.330008 0.0150898 0.816055
2347 2 0.351853 0.0230409 0.817302
2349 4 0.373697 0.030992 0.818548
1038 4 0.393438 0.0342268 0.815127
1036 2 0.414897 0.0396306 0.824106
3145 2 0.0166812 0.0902642 0.776137
3147 4 0.0314129 0.101639 0.790096
1146 4 0.0354082 0.118819 0.796686
1144 2 0.0606301 0.112877 0.801246
1145 4 0.085852 0.106936 0.805806
1132 2 0.242118 0.164431 0.810831
1134 4 0.267514 0.155687 0.812184
4346 4 0.205939 0.0957795 0.835817
1091 4 0.283232 0.16338 0.806814
2979 4 0.479464 0.159211 0.784255
3486 4 0.489138 0.149666 0.801527
736 2 0.00999359 0.235641 0.804744
3589 2 0.0329178 0.179283 0.790984
3591 4 0.00977562 0.179951 0.781173
737 4 0.0305369 0.245727 0.803871
3590 4 0.05606 0.178616 0.800794
2981 4 0.0496609 0.244776 0.809833
948 4 0.0680104 0.191861 0.801971
946 2 0.0814521 0.190309 0.823221
2980 2 0.0738287 0.24741 0.811955
2982 4 0.0979966 0.250045 0.814077
1133 4 0.216721 0.173175 0.809477
34 3 0.206139 0.182522 0.825139
868 2 0.252467 0.228677 0.826112
870 4 0.272985 0.236027 0.817284
1090 2 0.30262 0.175095 0.806272
1092 4 0.322009 0.18681 0.80573
863 4 0.293272 0.239193 0.812649
839 4 0.334153 0.195629 0.817973
838 2 0.357905 0.19951 0.8163
840 4 0.381656 0.203391 0.814626
57 3 0.391169 0.216461 0.806205
58 3 0.414203 0.239021 0.816555
56 1 0.413535 0.217323 0.81059
60 3 0.426465 0.211141 0.791935
59 3 0.421687 0.202801 0.828036
2977 2 0.479736 0.168972 0.761373
188 3 0.147725 0.319145 0.798747
186 1 0.147002 0.321891 0.821787
187 3 0.141545 0.303406 0.831441
190 3 0.167856 0.324016 0.829444
862 2 0.312197 0.251319 0.81523
3227 4 0.357076 0.292036 0.749622
864 4 0.331121 0.263446 0.817812
1692 4 0.349199 0.265146 0.826105
3226 2 0.373743 0.303909 0.76001
1690 2 0.373176 0.268505 0.827259
3228 4 0.390411 0.315783 0.770398