ITEM: TIMESTEP
2999500
ITEM: NUMBER OF ATOMS
4590
ITEM: BOX BOUNDS xy xz yz pp pp pp
-9.9985700000000008e+00 9.9985700000000008e+00 0.0000000000000000e+00
-9.9985700000000008e+00 9.9985700000000008e+00 0.0000000000000000e+00
-9.9985700000000008e+00 9.9985700000000008e+00 0.0000000000000000e+00
ITEM: ATOMS id type xs ys zs
1373 4 0.0366409 0.0843072 0.0669147
2465 4 0.0236417 0.0714262 0.0634368
2464 2 0.00370901 0.0854825 0.057933
1372 2 0.0509532 0.0664349 0.0769618
2337 4 0.089235 0.0323699 0.991138
581 4 0.0984414 0.99277 0.0983587
2703 4 0.295738 0.0047839 0.0502508
2701 2 0.304993 0.0247071 0.0621935
2702 4 0.314247 0.0446303 0.0741361
2889 4 0.443317 0.0580559 0.0537106
2887 2 0.459945 0.0764959 0.0566542
2615 4 0.0387657 0.116705 0.0715332
3216 4 0.169121 0.171142 0.0116101
354 4 0.290761 0.138722 0.0715436
353 4 0.253616 0.105413 0.0749285
352 2 0.272189 0.122068 0.0732361
24 3 0.310627 0.141074 0.0726804
22 3 0.326722 0.109683 0.0856504
21 1 0.327583 0.132666 0.086104
23 3 0.348221 0.139559 0.0780449
2894 4 0.346078 0.136104 0.0582776
2893 2 0.368337 0.137678 0.0469961
2895 4 0.390595 0.139253 0.0357147
3347 4 0.407492 0.131581 0.0293759
2888 4 0.476573 0.0949359 0.0595978
3346 2 0.431502 0.136939 0.0248989
2783 4 0.487503 0.0984706 0.043504
1052 4 0.466892 0.152577 0.00922428
3348 4 0.455511 0.142297 0.0204218
278 4 0.0886043 0.189281 0.0356326
277 2 0.11247 0.196712 0.036248
279 4 0.136336 0.204143 0.0368634
4470 4 0.150752 0.216469 0.0287584
4468 2 0.145367 0.238641 0.038987
3214 2 0.178892 0.194016 0.0141569
2403 4 0.184273 0.234459 0.00604667
3215 4 0.188664 0.216891 0.0167037
742 2 0.232438 0.198254 0.0861542
744 4 0.254642 0.198198 0.0746579
2599 2 0.296917 0.206649 0.0674315
450 4 0.326296 0.222554 0.054405
2601 4 0.321416 0.210788 0.0702337
2600 4 0.272418 0.202509 0.0646292
448 2 0.346571 0.235524 0.0611825
2881 2 0.487117 0.234287 0.014672
1044 4 0.452344 0.223776 0.00630412
2882 4 0.468039 0.235129 0.998532
4469 4 0.139981 0.260812 0.0492157
1119 4 0.109976 0.311846 0.0343599
1117 2 0.109361 0.290942 0.0206546
1118 4 0.108747 0.270038 0.00694923
2875 2 0.240643 0.269014 0.0597861
2876 4 0.240929 0.267409 0.034835
3196 2 0.192281 0.30568 0.0395397
3198 4 0.202587 0.282963 0.0412415
3197 4 0.181974 0.328397 0.0378379
2401 2 0.194473 0.257287 0.00616334
2402 4 0.204674 0.280115 0.00628
449 4 0.366845 0.248494 0.06796
103 3 0.470621 0.253296 0.0767016
105 3 0.477912 0.288039 0.0641522
2759 4 0.462376 0.298983 0.0585008
101 1 0.48153 0.265849 0.0605205
2835 4 0.467359 0.310669 0.0422336
2833 2 0.455829 0.320444 0.0223166
102 3 0.473266 0.260111 0.0398345
2758 2 0.442466 0.302417 0.0732311
770 4 0.112917 0.331351 0.0357081
769 2 0.119238 0.343955 0.0150592
1120 2 0.124269 0.41335 0.0640354
1122 4 0.100624 0.406428 0.0597691
3231 4 0.0969621 0.393371 0.0753922
933 4 0.180204 0.338994 0.0212469
931 2 0.197086 0.347631 0.00494955
2834 4 0.4443 0.33022 0.00239956
1466 4 0.489839 0.408551 0.0398531
3541 2 0.475068 0.392158 0.013857
3543 4 0.472955 0.397347 0.0382252
1121 4 0.147914 0.420272 0.0683018
3552 4 0.154747 0.434797 0.0792062
242 4 0.288598 0.493795 0.0480019
241 2 0.311842 0.501106 0.0423914
1300 2 0.356378 0.505691 0.00999777
1374 4 0.0652654 0.0485626 0.0870089
1873 2 0.0390837 0.0664784 0.14732
1875 4 0.0247713 0.0461155 0.149704
1542 4 0.0385725 0.0323959 0.145189
1540 2 0.0325122 0.012012 0.132038
582 4 0.0762234 0.0375598 0.0992928
3768 4 0.000377936 0.0697656 0.154714
580 2 0.0873324 0.0151649 0.0988257
333 4 0.131539 0.0808368 0.139403
331 2 0.155147 0.0753094 0.145511
3678 4 0.115229 0.085231 0.14925
692 4 0.226528 0.0801577 0.122733
332 4 0.178755 0.069782 0.151619
2780 4 0.18734 0.074062 0.169076
1273 2 0.320022 0.0695662 0.094544
1274 4 0.308824 0.047212 0.0942557
1874 4 0.0533961 0.0868413 0.144936
2614 2 0.0416724 0.120203 0.0961197
2616 4 0.0445791 0.1237 0.120706
3677 4 0.0685905 0.0869387 0.131285
3676 2 0.0919098 0.0860849 0.140268
2517 4 0.124223 0.129005 0.115546
2515 2 0.133449 0.152117 0.117974
691 2 0.232861 0.0968891 0.105264
693 4 0.239195 0.113621 0.087796
1275 4 0.33122 0.0919204 0.0948323
25 3 0.324814 0.139855 0.107535
2679 4 0.398092 0.112513 0.146498
810 4 0.359595 0.107813 0.0935661
808 2 0.369741 0.10991 0.116322
809 4 0.379888 0.112007 0.139078
624 4 0.381527 0.158102 0.155284
520 2 0.341794 0.16314 0.15844
521 4 0.364621 0.169782 0.150692
505 2 0.486243 0.0942916 0.135435
506 4 0.461432 0.0959952 0.13285
2677 2 0.419923 0.101512 0.141245
2678 4 0.441754 0.0905106 0.135992
649 2 0.0200013 0.238902 0.148509
650 4 0.00789997 0.23447 0.127082
728 4 0.0170488 0.23917 0.108958
2516 4 0.142676 0.175229 0.120401
387 4 0.155636 0.190316 0.116241
743 4 0.210234 0.198311 0.0976504
385 2 0.17925 0.185315 0.109717
386 4 0.202864 0.180315 0.103194
622 2 0.398947 0.168865 0.169632
455 4 0.430356 0.224651 0.129588
491 4 0.486384 0.201242 0.137471
456 4 0.46973 0.200564 0.148831
454 2 0.450043 0.212608 0.139209
2538 4 0.0595251 0.277595 0.117488
2536 2 0.0827664 0.27405 0.108975
250 2 0.0209713 0.318855 0.098661
286 2 0.066736 0.336115 0.124372
287 4 0.0484373 0.339819 0.10774
252 4 0.00247032 0.303585 0.105713
2537 4 0.106008 0.270504 0.100463
2445 4 0.110362 0.251978 0.104783
288 4 0.0850347 0.332412 0.141004
2444 4 0.159393 0.249377 0.114271
2443 2 0.134877 0.250677 0.109527
713 4 0.0960174 0.316845 0.145777
712 2 0.118217 0.32611 0.152598
714 4 0.140417 0.335374 0.15942
2877 4 0.240356 0.270619 0.0847372
767 4 0.173838 0.259632 0.107455
610 2 0.175439 0.314471 0.154553
766 2 0.194333 0.27126 0.115817
768 4 0.214828 0.282888 0.124179
2094 4 0.224837 0.29842 0.112948
2092 2 0.248944 0.303367 0.117369
612 4 0.19465 0.303446 0.142952
2799 4 0.193365 0.31616 0.112322
2093 4 0.273051 0.308314 0.12179
528 4 0.290173 0.308509 0.112413
526 2 0.31412 0.311993 0.106121
914 4 0.367631 0.255771 0.0873751
915 4 0.417529 0.252728 0.0860666
527 4 0.338068 0.315476 0.0998294
913 2 0.39258 0.254249 0.0867208
2651 4 0.359815 0.316834 0.101665
2650 2 0.38353 0.308911 0.101765
2652 4 0.407245 0.300988 0.101864
845 4 0.427191 0.260874 0.102349
844 2 0.42899 0.262302 0.127248
2760 4 0.422556 0.305851 0.0879613
846 4 0.430789 0.263731 0.152146
2477 4 0.436424 0.279116 0.163614
2476 2 0.458681 0.287488 0.171339
251 4 0.0394722 0.334124 0.0916086
3229 2 0.079407 0.394524 0.0931599
2906 4 0.0553849 0.413897 0.107354
3230 4 0.0618518 0.395677 0.110928
2798 4 0.211344 0.359141 0.0941534
2797 2 0.202355 0.33765 0.103238
3818 4 0.249046 0.423512 0.120712
2862 4 0.337366 0.356944 0.156496
4005 4 0.320122 0.413728 0.150115
678 4 0.303497 0.411813 0.13777
676 2 0.278506 0.412632 0.137696
677 4 0.253516 0.41345 0.137623
2592 4 0.35368 0.359433 0.145722
2590 2 0.346139 0.374877 0.127562
2591 4 0.338598 0.390322 0.109401
2728 2 0.490104 0.348899 0.13934
2730 4 0.474118 0.364617 0.128269
2905 2 0.0340045 0.425356 0.113415
2907 4 0.0126242 0.436815 0.119477
1673 4 0.0976992 0.483765 0.0857693
2162 4 0.0874613 0.452653 0.148554
3599 4 0.0882744 0.432426 0.149033
2163 4 0.0941416 0.472584 0.10318
2161 2 0.0908014 0.462618 0.125867
4512 4 0.223688 0.48538 0.133812
3550 2 0.174652 0.437227 0.0941425
3551 4 0.194557 0.439657 0.109079
3819 4 0.199052 0.424526 0.120164
3817 2 0.224049 0.424019 0.120438
4510 2 0.206874 0.483891 0.152258
228 4 0.357663 0.502185 0.172846
2756 4 0.369749 0.0522014 0.22068
2755 2 0.387729 0.0695736 0.22036
786 4 0.376676 0.0340211 0.213578
784 2 0.382128 0.0155343 0.19765
2757 4 0.40571 0.0869458 0.220041
749 4 0.0144079 0.124766 0.166842
750 4 0.060282 0.140922 0.178473
748 2 0.0373449 0.132844 0.172657
1479 4 0.0680684 0.148972 0.196038
1477 2 0.0795133 0.164557 0.211891
2931 4 0.170829 0.15384 0.20016
419 4 0.154066 0.155359 0.211254
418 2 0.156642 0.137953 0.229018
2930 4 0.204591 0.144114 0.164575
2929 2 0.18771 0.148977 0.182368
2779 2 0.209437 0.0820258 0.177651
2781 4 0.231533 0.0899897 0.186225
1566 4 0.245958 0.102429 0.195402
1565 4 0.267752 0.146695 0.187261
522 4 0.318968 0.156499 0.166188
1564 2 0.256855 0.124562 0.191332
458 4 0.299952 0.171508 0.218319
2519 4 0.302416 0.166998 0.171476
604 2 0.448738 0.100387 0.234217
605 4 0.450414 0.115018 0.21401
2880 4 0.463871 0.127129 0.204371
2878 2 0.484964 0.139606 0.199409
651 4 0.0321026 0.243334 0.169936
3159 4 0.0306941 0.230627 0.18551
3157 2 0.0477303 0.240026 0.201213
3158 4 0.0647665 0.249426 0.216917
1478 4 0.0909583 0.180142 0.227744
2777 4 0.151152 0.200057 0.215261
2778 4 0.105187 0.180478 0.213106
2776 2 0.12817 0.190267 0.214183
2453 4 0.163887 0.214534 0.221609
1198 2 0.228087 0.215666 0.172746
1200 4 0.204949 0.225033 0.171298
2454 4 0.200633 0.213879 0.187698
2452 2 0.18226 0.214207 0.204653
509 4 0.209121 0.204371 0.227397
2520 4 0.256767 0.186944 0.175855
457 2 0.316006 0.173816 0.237349
2518 2 0.279591 0.176971 0.173666
1199 4 0.251224 0.206299 0.174195
1749 4 0.354243 0.172926 0.254103
623 4 0.416368 0.179628 0.183981
459 4 0.332059 0.176124 0.256379
732 4 0.415357 0.199994 0.176583
730 2 0.429373 0.205693 0.196489
731 4 0.443389 0.211391 0.216395
2672 4 0.463372 0.208269 0.216079
2671 2 0.48598 0.218793 0.214261
3831 4 0.0764468 0.329215 0.197583
3829 2 0.053827 0.337608 0.204147
611 4 0.156228 0.325497 0.166154
579 4 0.0815202 0.261501 0.219777
577 2 0.104688 0.261902 0.210382
578 4 0.127857 0.262303 0.200988
236 4 0.139178 0.279673 0.199553
235 2 0.162229 0.289044 0.202008
2968 2 0.223431 0.302366 0.225174
2969 4 0.199045 0.301216 0.219772
237 4 0.18528 0.298415 0.204463
2970 4 0.247818 0.303517 0.230575
2853 4 0.266413 0.302137 0.225289
2851 2 0.285786 0.310106 0.211638
2852 4 0.30516 0.318075 0.197987
2861 4 0.310207 0.32058 0.177491
337 2 0.395569 0.320013 0.227196
339 4 0.375639 0.316629 0.24191
338 4 0.415499 0.323398 0.212481
2951 4 0.489171 0.278684 0.184579
2478 4 0.480939 0.295859 0.179064
3696 4 0.0374546 0.358402 0.225287
3830 4 0.0312072 0.346001 0.210711
3694 2 0.0304293 0.366308 0.247943
3600 4 0.117982 0.404771 0.178247
3921 4 0.122279 0.400887 0.197915
3919 2 0.146533 0.406852 0.196754
2860 2 0.323787 0.338762 0.166994
4003 2 0.324882 0.42019 0.173796
291 4 0.431593 0.330964 0.220387
289 2 0.440323 0.353262 0.227583
290 4 0.449053 0.37556 0.234778
3988 2 0.0234691 0.449773 0.240643
3989 4 0.0465806 0.457215 0.23467
3598 2 0.103128 0.418598 0.16364
1545 4 0.171935 0.4324 0.196742
4511 4 0.19006 0.482402 0.170704
3920 4 0.170787 0.412817 0.195594
1544 4 0.194623 0.476326 0.189222
1543 2 0.183279 0.454363 0.192982
4004 4 0.329642 0.426652 0.197476
1856 4 0.331867 0.415056 0.214688
1855 2 0.322348 0.429868 0.232442
1785 4 0.0138128 0.0278631 0.241983
1783 2 0.0341754 0.0410459 0.248045
1784 4 0.054538 0.0542288 0.254108
425 4 0.0506867 0.0529263 0.317296
721 2 0.238113 0.0672815 0.335311
722 4 0.214782 0.0677233 0.326329
165 3 0.196609 0.0754608 0.329243
1127 4 0.451111 0.0265966 0.302571
3809 4 0.432604 0.0716324 0.258855
3808 2 0.435694 0.0512915 0.273064
3810 4 0.438783 0.0309506 0.287273
1126 2 0.44113 0.00441544 0.308363
1703 4 0.0859446 0.158388 0.274052
1702 2 0.10348 0.14632 0.287168
530 4 0.117373 0.120224 0.314003
1704 4 0.121016 0.134251 0.300284
257 4 0.160249 0.118283 0.266988
420 4 0.159218 0.120547 0.246783
256 2 0.161331 0.119118 0.291954
515 4 0.205722 0.13472 0.309491
258 4 0.162413 0.119952 0.31692
164 3 0.172783 0.103439 0.321043
514 2 0.219595 0.135082 0.330289
1191 4 0.34981 0.17139 0.33477
1748 4 0.396579 0.15447 0.273281
606 4 0.447061 0.0857558 0.254423
589 2 0.00820432 0.202852 0.297804
591 4 0.0261847 0.220198 0.296802
404 4 0.0399077 0.222683 0.311987
403 2 0.0594599 0.233644 0.300908
405 4 0.0790121 0.244606 0.289829
536 4 0.135315 0.232279 0.280379
535 2 0.148056 0.21371 0.269515
537 4 0.160797 0.19514 0.258651
30 3 0.0967073 0.246134 0.297946
29 3 0.120696 0.240544 0.26947
726 4 0.145514 0.245009 0.293763
508 2 0.217603 0.194294 0.248651
510 4 0.226086 0.184216 0.269904
1030 2 0.221531 0.242633 0.307178
1032 4 0.241305 0.227341 0.307748
1031 4 0.201757 0.257925 0.306608
1189 2 0.325491 0.175354 0.330524
1395 4 0.261248 0.224093 0.305584
1393 2 0.281594 0.234201 0.295141
1394 4 0.30194 0.244309 0.284698
2753 4 0.310059 0.260254 0.293577
2484 4 0.294011 0.163875 0.337549
1190 4 0.301171 0.179319 0.326278
8 3 0.261503 0.214288 0.341608
1747 2 0.375411 0.163698 0.263692
402 4 0.354943 0.186511 0.322848
400 2 0.377748 0.194611 0.329133
180 3 0.411784 0.164495 0.283312
2789 4 0.402036 0.218174 0.288817
177 3 0.404941 0.201073 0.280454
179 3 0.425686 0.188215 0.309037
2788 2 0.390827 0.240102 0.293145
284 4 0.499274 0.16521 0.278544
176 1 0.420489 0.185279 0.286614
178 3 0.43953 0.188039 0.273644
285 4 0.450443 0.174374 0.28423
283 2 0.474858 0.169792 0.281387
716 4 0.052418 0.294087 0.27601
715 2 0.0774129 0.293848 0.275381
2700 4 0.00914679 0.277685 0.319953
2698 2 0.0251284 0.29126 0.333573
717 4 0.102408 0.293609 0.274752
27 3 0.132114 0.257536 0.300991
26 1 0.114385 0.254898 0.286573
28 3 0.108683 0.27562 0.277826
724 2 0.167232 0.257162 0.296168
725 4 0.18895 0.269316 0.298574
373 2 0.213333 0.321078 0.319321
375 4 0.198089 0.308234 0.334414
2752 2 0.33493 0.262214 0.295246
2790 4 0.379619 0.26203 0.297474
2754 4 0.359801 0.264174 0.296915
2556 4 0.372831 0.328847 0.258258
3695 4 0.0234039 0.374214 0.2706
3405 4 0.00915032 0.382548 0.282162
3934 2 0.0748348 0.417729 0.258619
3936 4 0.0920514 0.399748 0.256285
261 4 0.0964342 0.391601 0.272934
259 2 0.0919697 0.376604 0.292435
260 4 0.0875052 0.361606 0.311937
594 4 0.0917382 0.368915 0.329894
374 4 0.228577 0.333922 0.304227
2554 2 0.380695 0.329736 0.281976
2555 4 0.388558 0.330625 0.305694
570 4 0.372879 0.340284 0.313215
568 2 0.355601 0.339393 0.331267
3935 4 0.0576182 0.43571 0.260953
2826 4 0.0558989 0.470732 0.273111
1676 4 0.0749528 0.464629 0.271823
2824 2 0.0378758 0.487731 0.276487
1677 4 0.117949 0.478237 0.250214
1675 2 0.096451 0.471433 0.261019
4025 4 0.138335 0.469346 0.248071
4024 2 0.150981 0.485477 0.262391
4026 4 0.163628 0.501607 0.276712
1857 4 0.31283 0.444681 0.250195
1187 4 0.316541 0.430372 0.264855
1186 2 0.322042 0.43554 0.288693
1188 4 0.327543 0.440708 0.31253
1802 4 0.346241 0.446471 0.320514
1801 2 0.368906 0.447292 0.331042
1435 2 0.482423 0.456168 0.325147
1436 4 0.464287 0.471493 0.332981
667 2 0.422589 0.463181 0.334549
668 4 0.44733 0.459847 0.333141
3993 4 0.0303651 0.0033168 0.340752
1869 4 0.0092493 0.054212 0.37125
424 2 0.062102 0.0359784 0.331706
426 4 0.0735173 0.0190304 0.346116
842 4 0.997023 0.0536768 0.387542
2645 4 0.0769466 0.0167296 0.365529
2901 4 0.023312 0.023763 0.390142
2899 2 0.0418737 0.0233886 0.406889
2871 4 0.156286 0.0107682 0.340351
2644 2 0.0935548 0.0214065 0.383625
2646 4 0.110163 0.0260834 0.401722
2663 4 0.127927 0.0196957 0.399754
2662 2 0.147163 0.0331924 0.391208
163 3 0.1638 0.0777486 0.347571
2664 4 0.166399 0.0466891 0.382662
1967 4 0.180162 0.0481042 0.39656
1966 2 0.196618 0.0568876 0.41321
4123 2 0.280376 0.997691 0.406513
723 4 0.261444 0.0668398 0.344292
1058 4 0.265592 0.00618746 0.33904
1349 4 0.321354 0.0503799 0.356775
1348 2 0.300787 0.0604984 0.346785
1350 4 0.28022 0.0706169 0.336796
618 4 0.375237 0.00345253 0.387572
708 4 0.399042 0.0586559 0.376403
617 4 0.387027 0.0460898 0.364252
616 2 0.381132 0.0247712 0.375912
706 2 0.412549 0.0743238 0.390448
707 4 0.426057 0.0899917 0.404492
3031 2 0.0082408 0.161811 0.395829
3033 4 0.0267019 0.157941 0.379416
2685 4 0.0421238 0.144065 0.380938
2683 2 0.0631167 0.152366 0.391689
2684 4 0.0841096 0.160667 0.40244
529 2 0.129022 0.124203 0.335767
635 4 0.134591 0.112152 0.368241
636 4 0.13432 0.101789 0.417162
531 4 0.140671 0.128182 0.357531
634 2 0.134455 0.10697 0.392702
2802 4 0.14746 0.165086 0.412414
516 4 0.233469 0.135444 0.351088
161 1 0.181103 0.0897567 0.337836
162 3 0.191001 0.102897 0.353914
2483 4 0.250446 0.139879 0.342743
2482 2 0.272228 0.151877 0.340146
2713 2 0.412721 0.130499 0.390215
2715 4 0.402349 0.115299 0.407144
684 4 0.38554 0.104316 0.403907
682 2 0.362389 0.105892 0.41322
2714 4 0.423093 0.145699 0.373286
1953 4 0.487356 0.15725 0.372253
2955 4 0.432129 0.162294 0.379108
765 4 0.0909632 0.176633 0.392271
763 2 0.11588 0.17557 0.394063
764 4 0.140796 0.174508 0.395855
7 3 0.248124 0.246752 0.355018
10 3 0.23546 0.214463 0.368799
6 1 0.25381 0.225173 0.360602
2957 4 0.32467 0.184548 0.393469
9 3 0.2705 0.225744 0.376712
401 4 0.400553 0.202712 0.335417
2956 2 0.331282 0.20712 0.384985
2958 4 0.337894 0.229692 0.376501
2180 4 0.351846 0.240044 0.364129
2179 2 0.376836 0.240869 0.364062
2954 4 0.415009 0.19277 0.343347
2181 4 0.401826 0.241694 0.363995
3080 4 0.334095 0.18058 0.410314
1951 2 0.494706 0.167492 0.393846
2953 2 0.423569 0.177532 0.361228
479 4 0.0577122 0.311473 0.338344
2699 4 0.04111 0.304835 0.347192
478 2 0.0764292 0.313905 0.354744
2612 4 0.0200998 0.329207 0.354596
480 4 0.0951463 0.316337 0.371144
3462 4 0.10993 0.312306 0.384277
3460 2 0.105581 0.327916 0.403318
410 4 0.157602 0.321609 0.398432
1035 4 0.193238 0.26809 0.40856
1034 4 0.172033 0.30961 0.390472
1033 2 0.182636 0.28885 0.399516
585 4 0.280167 0.300345 0.414739
593 4 0.132507 0.354113 0.354782
592 2 0.112123 0.361514 0.342338
411 4 0.150219 0.346467 0.355672
409 2 0.153911 0.334038 0.377052
3317 4 0.304768 0.338187 0.393154
3316 2 0.325319 0.342869 0.379704
894 4 0.387822 0.376702 0.385265
3318 4 0.345871 0.347552 0.366254
569 4 0.338323 0.338503 0.349319
892 2 0.373244 0.374339 0.405442
812 4 0.487358 0.364555 0.403388
811 2 0.471793 0.372488 0.421275
1417 2 0.144539 0.486845 0.343136
1418 4 0.166757 0.487645 0.331694
2691 4 0.283401 0.485431 0.370092
4322 4 0.298822 0.492987 0.381319
4321 2 0.301117 0.471845 0.39447
447 4 0.306097 0.430347 0.408224
4323 4 0.303412 0.450703 0.407622
669 4 0.397848 0.466515 0.335956
1803 4 0.39157 0.448114 0.34157
3797 4 0.0591342 0.0132571 0.440376
2900 4 0.0604353 0.0230142 0.423637
3796 2 0.0829474 0.0110316 0.447667
1968 4 0.213074 0.0656709 0.429861
220 3 0.209217 0.0721016 0.474644
218 3 0.210234 0.0841902 0.439
219 3 0.235301 0.0583692 0.45122
216 1 0.222873 0.0770586 0.457106
2501 4 0.233734 0.0581774 0.43047
4341 4 0.253693 0.0240019 0.496117
4125 4 0.286688 0.012837 0.42538
2502 4 0.266922 0.0209681 0.426613
2500 2 0.250328 0.0395728 0.428541
4339 2 0.277595 0.0313417 0.496069
4549 2 0.330552 0.0580007 0.485952
4551 4 0.309534 0.0461302 0.47943
4340 4 0.301498 0.0386816 0.496022
3396 4 0.367898 0.000407958 0.445553
88 3 0.35588 0.0145651 0.496725
90 3 0.372443 0.00545188 0.464163
3394 2 0.362033 0.999865 0.421253
4550 4 0.35157 0.0698712 0.492474
1142 4 0.341217 0.999982 0.499701
2891 4 0.0722264 0.0801436 0.440821
2580 4 0.059692 0.0894688 0.452992
2578 2 0.0566758 0.0865092 0.477636
2892 4 0.116093 0.0930401 0.420568
2890 2 0.0941596 0.0865919 0.430695
217 3 0.23726 0.0939275 0.463237
2558 4 0.245015 0.0904303 0.48146
2557 2 0.263972 0.10673 0.481864
2559 4 0.282928 0.12303 0.482267
1061 4 0.300445 0.122151 0.472314
1060 2 0.311887 0.120256 0.450162
1062 4 0.323328 0.118361 0.428011
642 4 0.25235 0.165857 0.467433
683 4 0.339238 0.107467 0.422534
3327 4 0.0456846 0.205215 0.492177
2801 4 0.185648 0.180636 0.44071
2800 2 0.166554 0.172861 0.426562
939 4 0.241513 0.179523 0.476603
937 2 0.219747 0.175816 0.46487
938 4 0.197981 0.172109 0.453138
641 4 0.29855 0.176052 0.451232
3081 4 0.315809 0.184617 0.456684
640 2 0.27545 0.170954 0.459332
3079 2 0.324952 0.182598 0.433499
3461 4 0.101232 0.343527 0.42236
1237 2 0.165477 0.324415 0.492451
1239 4 0.142779 0.31679 0.499652
3454 2 0.246311 0.326545 0.426361
1238 4 0.188175 0.332041 0.485251
3455 4 0.263997 0.309009 0.424142
583 2 0.286498 0.276597 0.419334
2529 4 0.311642 0.258113 0.430018
584 4 0.29283 0.252849 0.423929
2528 4 0.360605 0.255447 0.439832
2527 2 0.336123 0.25678 0.434925
2494 2 0.397614 0.269236 0.44303
2496 4 0.378145 0.254447 0.448265
2495 4 0.417083 0.284026 0.437795
3056 4 0.475621 0.324353 0.424316
3055 2 0.500096 0.323077 0.429266
366 4 0.435687 0.285338 0.442317
364 2 0.448025 0.302112 0.428477
365 4 0.460363 0.318887 0.414637
311 4 0.0468156 0.359714 0.441022
310 2 0.0691671 0.348509 0.44077
2549 4 0.114307 0.415896 0.467434
312 4 0.0915187 0.337304 0.440517
662 4 0.221331 0.35822 0.441227
661 2 0.202096 0.349686 0.454733
3456 4 0.228626 0.34408 0.42858
663 4 0.182861 0.341153 0.468238
2560 2 0.284392 0.415718 0.482916
446 4 0.293318 0.399131 0.445144
2561 4 0.295779 0.411274 0.461104
893 4 0.358667 0.371976 0.425618
346 2 0.378105 0.394644 0.475961
347 4 0.398809 0.408657 0.476361
348 4 0.3574 0.38063 0.475561
267 4 0.414474 0.396836 0.484376
3592 2 0.424931 0.338512 0.4946
4042 2 0.488571 0.341939 0.484767
266 4 0.449809 0.397564 0.448996
813 4 0.456227 0.38042 0.439162
3593 4 0.447514 0.334753 0.484547
4044 4 0.466392 0.332139 0.478661
265 2 0.432142 0.3972 0.466686
560 4 0.0600606 0.472821 0.473456
1172 4 0.999725 0.462224 0.490815
1171 2 0.0230628 0.459827 0.482167
1173 4 0.046401 0.45743 0.473519
561 4 0.106509 0.491198 0.475824
2548 2 0.119165 0.421493 0.491314
1450 2 0.152483 0.431119 0.449378
1452 4 0.129165 0.425952 0.456776
559 2 0.0832849 0.482009 0.47464
2648 4 0.232068 0.456116 0.495258
2928 4 0.221445 0.441266 0.488432
1451 4 0.175802 0.436287 0.44198
2927 4 0.185922 0.427093 0.456214
2926 2 0.203684 0.43418 0.472323
445 2 0.299708 0.414739 0.426684
2961 4 0.383018 0.463229 0.484824
4057 2 0.375491 0.475731 0.448639
4059 4 0.369684 0.473289 0.472836
4058 4 0.381298 0.478173 0.424441
1644 4 0.395591 0.492539 0.426751
2314 2 0.0499356 0.0462338 0.54639
2316 4 0.0343825 0.0266655 0.546984
2315 4 0.0654887 0.065802 0.545797
2553 4 0.14562 0.0808227 0.557213
2194 2 0.105272 0.069387 0.550027
2195 4 0.1269 0.0742807 0.561581
2551 2 0.167954 0.0724427 0.549719
1962 4 0.137148 0.996485 0.561372
4325 4 0.148611 0.0111427 0.55366
2196 4 0.0836443 0.0644932 0.538474
916 2 0.220943 0.00699255 0.509138
918 4 0.244625 0.0147385 0.511228
2552 4 0.190288 0.0640626 0.542224
762 4 0.20577 0.0705038 0.552991
760 2 0.228273 0.0791628 0.559609
4324 2 0.165757 0.00349161 0.537148
1143 4 0.319936 0.0205965 0.539987
1141 2 0.330577 0.0102894 0.519844
2505 4 0.398231 0.0322245 0.501901
2504 4 0.368095 0.0720444 0.504546
2503 2 0.383163 0.0521345 0.503224
575 4 0.404399 0.0135312 0.497748
574 2 0.425324 0.0168866 0.511018
3621 4 0.452847 0.00849892 0.538904
3619 2 0.462612 0.0206654 0.558445
576 4 0.446248 0.0202421 0.524288
982 2 0.0542158 0.122739 0.518848
984 4 0.0466168 0.145733 0.525068
966 4 0.0788 0.156702 0.55995
3326 4 0.0413189 0.163897 0.520009
2579 4 0.0536595 0.0835497 0.50228
983 4 0.0618148 0.0997455 0.512627
2175 4 0.0855561 0.151378 0.577263
2173 2 0.107373 0.141308 0.584177
319 2 0.213431 0.126378 0.531239
320 4 0.232574 0.110441 0.533422
3062 4 0.20303 0.163521 0.580445
321 4 0.194289 0.142315 0.529056
3236 4 0.179046 0.154371 0.530376
761 4 0.250777 0.0878219 0.566226
3021 4 0.269026 0.0952397 0.562867
3019 2 0.290526 0.107952 0.561723
3020 4 0.312026 0.120665 0.560579
1107 4 0.317335 0.134815 0.574191
2317 2 0.335432 0.165795 0.525549
2318 4 0.311684 0.170448 0.531839
1105 2 0.340369 0.142109 0.580625
2319 4 0.35918 0.161141 0.519259
1106 4 0.363404 0.149404 0.587059
2244 4 0.469147 0.102469 0.575024
2242 2 0.451133 0.11968 0.572906
806 4 0.474935 0.0835868 0.567819
3386 4 0.419763 0.147688 0.581812
2243 4 0.433119 0.136892 0.570787
964 2 0.0838501 0.173597 0.542223
3325 2 0.0435017 0.184556 0.506093
965 4 0.0889003 0.190492 0.524496
3419 4 0.101188 0.2301 0.534459
2322 4 0.0967914 0.211231 0.522059
2320 2 0.118543 0.207643 0.510262
2321 4 0.140295 0.204056 0.498466
3235 2 0.164764 0.171616 0.519249
3237 4 0.150482 0.188862 0.508122
1283 4 0.189168 0.195829 0.537022
1282 2 0.210132 0.191252 0.549857
1284 4 0.231097 0.186674 0.562692
2604 4 0.29382 0.178149 0.533919
2603 4 0.249413 0.189642 0.553833
2602 2 0.271616 0.183896 0.543876
3496 2 0.31333 0.230387 0.513092
3497 4 0.334312 0.228348 0.526539
3418 2 0.0981181 0.254541 0.538752
3420 4 0.095048 0.278982 0.543045
890 4 0.100318 0.290885 0.527818
889 2 0.11478 0.309117 0.518674
891 4 0.129243 0.327348 0.50953
3498 4 0.292349 0.232426 0.499646
3445 2 0.0165918 0.375914 0.528183
3447 4 0.0415899 0.376255 0.527782
2721 4 0.0479487 0.395132 0.529798
2719 2 0.0659251 0.39713 0.547063
82 3 0.143551 0.339835 0.569054
2720 4 0.0839015 0.399128 0.564327
2847 4 0.224828 0.340309 0.550573
2845 2 0.238399 0.361207 0.552645
2846 4 0.25197 0.382104 0.554718
215 3 0.24323 0.412359 0.519793
1445 4 0.204218 0.419625 0.556739
3044 4 0.258731 0.392483 0.540373
3043 2 0.283679 0.394133 0.540496
3045 4 0.308628 0.395783 0.540618
1641 4 0.314253 0.408456 0.526008
2562 4 0.273006 0.420162 0.504728
3594 4 0.402348 0.342271 0.504652
2550 4 0.124023 0.427091 0.515194
4177 2 0.10797 0.453962 0.536293
4178 4 0.107111 0.439035 0.516252
4179 4 0.108828 0.468889 0.556334
3962 4 0.108779 0.462354 0.574745
1446 4 0.158238 0.419665 0.576399
212 3 0.245508 0.424767 0.554918
211 1 0.231548 0.421887 0.536863
213 3 0.21397 0.408085 0.5431
214 3 0.223411 0.442601 0.530295
1444 2 0.181228 0.419645 0.566569
1639 2 0.336134 0.420446 0.524371
1488 4 0.291726 0.467023 0.513685
1486 2 0.301288 0.461819 0.536195
1487 4 0.31085 0.456615 0.558705
327 4 0.325488 0.44523 0.570766
2647 2 0.252942 0.466272 0.504549
2649 4 0.273816 0.476428 0.51384
1640 4 0.358014 0.432437 0.522734
325 2 0.344224 0.461664 0.572781
1442 4 0.372702 0.498262 0.576937
1911 4 0.372118 0.429192 0.535774
1909 2 0.395722 0.422561 0.530866
2960 4 0.381806 0.493793 0.524385
1441 2 0.385786 0.497096 0.555662
326 4 0.36296 0.478098 0.574796
2959 2 0.382412 0.478511 0.504605
1910 4 0.419326 0.415929 0.525958
3453 4 0.433532 0.430071 0.527084
3451 2 0.454458 0.443613 0.525102
3452 4 0.475384 0.457154 0.52312
1698 4 0.493345 0.453058 0.532093
4371 4 0.146718 0.081167 0.668914
3308 4 0.228922 0.0381796 0.604817
3309 4 0.214674 0.0434892 0.652457
3307 2 0.221798 0.0408344 0.628637
4284 4 0.208139 0.0273696 0.663023
3049 2 0.275041 0.0185891 0.636161
3050 4 0.285103 0.0307118 0.655577
268 2 0.29968 0.0659996 0.633903
269 4 0.311339 0.0830915 0.619863
270 4 0.288022 0.0489077 0.647943
3083 4 0.371611 0.0771854 0.631595
2282 4 0.388297 0.0644348 0.624224
2281 2 0.406248 0.0788429 0.633989
3620 4 0.472376 0.0328319 0.577985
2978 4 0.486754 0.0814846 0.653649
1086 4 0.500135 0.0738795 0.66569
3298 2 0.0195128 0.121977 0.64343
3300 4 0.0399921 0.129426 0.63117
3360 4 0.0566011 0.118661 0.637395
3358 2 0.080991 0.115473 0.641883
4369 2 0.130261 0.0898549 0.652215
3003 4 0.142327 0.143834 0.595542
2174 4 0.12919 0.131239 0.591092
3359 4 0.105381 0.112285 0.646371
4370 4 0.113804 0.0985428 0.635515
3002 4 0.186569 0.166783 0.591449
3001 2 0.164448 0.155309 0.593496
3061 2 0.224721 0.153701 0.588075
3063 4 0.246413 0.143881 0.595706
3124 2 0.249349 0.149341 0.639452
3125 4 0.247103 0.141403 0.615848
3126 4 0.251595 0.157279 0.663056
3084 4 0.328064 0.0879518 0.609497
3082 2 0.349837 0.0825686 0.620546
3385 2 0.396891 0.142173 0.590276
3387 4 0.374019 0.136658 0.59874
2977 2 0.464272 0.0886184 0.645353
2283 4 0.4242 0.0932511 0.643753
2979 4 0.441789 0.0957522 0.637058
960 4 0.00164626 0.275265 0.623598
3239 4 0.016698 0.282102 0.634734
3238 2 0.0413421 0.285632 0.637059
3240 4 0.0659862 0.289161 0.639384
3093 4 0.0830087 0.29947 0.64561
3091 2 0.107002 0.300093 0.638601
3092 4 0.130995 0.300717 0.631593
3435 4 0.143266 0.306855 0.61527
3433 2 0.165973 0.297219 0.61936
85 3 0.142879 0.323223 0.602467
383 4 0.195667 0.293845 0.641365
3434 4 0.18868 0.287583 0.62345
382 2 0.208945 0.287301 0.661515
3380 4 0.227366 0.323718 0.656296
1298 4 0.212436 0.327377 0.669252
905 4 0.0583013 0.364214 0.618543
904 2 0.0756034 0.351015 0.606231
906 4 0.0929055 0.337817 0.593919
3221 4 0.0975089 0.405309 0.578241
84 3 0.111668 0.339378 0.588952
83 3 0.141017 0.360759 0.600173
81 1 0.134795 0.3407 0.590307
3220 2 0.120219 0.39787 0.585596
3222 4 0.142929 0.390431 0.592951
3491 4 0.164222 0.42186 0.612627
3379 2 0.242597 0.335539 0.640376
1297 2 0.192839 0.342856 0.667993
1040 4 0.270962 0.362075 0.626938
3381 4 0.257827 0.34736 0.624455
1039 2 0.295606 0.359887 0.623321
1041 4 0.320249 0.357699 0.619705
998 4 0.337139 0.35475 0.629934
999 4 0.374608 0.344372 0.661385
997 2 0.355874 0.349561 0.64566
3490 2 0.169897 0.435478 0.632815
3961 2 0.0995378 0.481022 0.588576
4301 4 0.16594 0.497508 0.660933
4493 4 0.154856 0.482469 0.654917
4492 2 0.131454 0.474481 0.658622
4494 4 0.108052 0.466492 0.662327
3492 4 0.175573 0.449096 0.653002
4302 4 0.211787 0.484627 0.676191
4300 2 0.188864 0.491067 0.668562
3118 2 0.25043 0.484465 0.657254
3119 4 0.274372 0.480615 0.651161
1206 4 0.29295 0.474466 0.646428
1204 2 0.317514 0.472644 0.650722
1205 4 0.342079 0.470822 0.655015
878 4 0.422176 0.442962 0.65159
1229 4 0.457496 0.489774 0.611105
877 2 0.424704 0.467833 0.652097
879 4 0.427231 0.492703 0.652605
1081 2 0.0163266 0.0479509 0.72885
1082 4 0.0406396 0.0472688 0.723054
1023 4 0.0559881 0.0617381 0.726456
1021 2 0.0784236 0.0727601 0.725851
1022 4 0.100859 0.083782 0.725246
4283 4 0.221301 0.0204701 0.710771
4282 2 0.21472 0.0239199 0.686897
1084 2 0.494331 0.0706659 0.689798
3357 4 0.486783 0.0859081 0.717891
1085 4 0.488528 0.0674523 0.713906
2255 4 0.166023 0.094719 0.743047
2254 2 0.143444 0.0884963 0.734293
2256 4 0.120865 0.0822737 0.725539
1004 4 0.185491 0.0938177 0.749066
1003 2 0.202836 0.107731 0.737631
1005 4 0.220181 0.121644 0.726197
3007 2 0.239781 0.147923 0.699096
3009 4 0.223577 0.139029 0.715933
3008 4 0.255985 0.156818 0.682259
3441 4 0.414768 0.15698 0.726126
3439 2 0.395808 0.150598 0.741125
2628 4 0.433917 0.157063 0.734523
3355 2 0.481307 0.105195 0.732831
2626 2 0.451932 0.146996 0.748641
2627 4 0.469948 0.13693 0.762759
3356 4 0.475831 0.124483 0.747771
954 4 0.150271 0.1837 0.741865
3293 4 0.134286 0.184611 0.729299
3292 2 0.115507 0.179271 0.713678
3294 4 0.096728 0.17393 0.698057
952 2 0.166964 0.202309 0.741421
1075 2 0.220729 0.202695 0.747186
953 4 0.183658 0.220919 0.740977
1076 4 0.243583 0.19383 0.742258
3146 4 0.24815 0.179435 0.729242
3145 2 0.264293 0.168828 0.745121