ITEM: TIMESTEP
1962500
ITEM: NUMBER OF ATOMS
4590
ITEM: BOX BOUNDS xy xz yz pp pp pp
-9.9985700000000008e+00 9.9985700000000008e+00 0.0000000000000000e+00
-9.9985700000000008e+00 9.9985700000000008e+00 0.0000000000000000e+00
-9.9985700000000008e+00 9.9985700000000008e+00 0.0000000000000000e+00
ITEM: ATOMS id type xs ys zs
1875 4 0.062836 0.0704998 0.0610138
1653 4 0.0721262 0.0604425 0.0469701
1651 2 0.0965899 0.0630945 0.0514066
1652 4 0.121054 0.0657466 0.0558432
2469 4 0.136296 0.0731649 0.0662319
2467 2 0.160385 0.0792218 0.0633653
3048 4 0.403666 0.066876 0.0676237
3046 2 0.422454 0.0741927 0.0528367
1759 2 0.481616 0.0734874 0.0538462
1761 4 0.457359 0.0729204 0.0478095
3047 4 0.441242 0.0815094 0.0380498
809 4 0.995725 0.130995 0.0600957
1247 4 0.144957 0.160552 0.0686343
2468 4 0.184475 0.0852787 0.0604987
2466 4 0.199349 0.0930636 0.0708893
1251 4 0.0844681 0.193549 0.0711749
1250 4 0.130626 0.17473 0.0671797
1249 2 0.107547 0.184139 0.0691773
1246 2 0.16627 0.173616 0.0681502
1248 4 0.187584 0.186681 0.0676662
2441 4 0.205633 0.181786 0.0617252
2440 2 0.230169 0.17698 0.0614448
2442 4 0.254705 0.172174 0.0611643
3198 4 0.254933 0.224652 0.0264032
492 4 0.272005 0.161839 0.0615755
2876 4 0.269837 0.230324 0.0387813
2875 2 0.293082 0.237992 0.0438868
490 2 0.295236 0.163342 0.0706993
491 4 0.318467 0.164846 0.079823
3196 2 0.260505 0.223681 0.00204742
2877 4 0.316327 0.245661 0.0489923
845 4 0.334781 0.177179 0.0770097
844 2 0.358797 0.182826 0.0729417
846 4 0.382813 0.188473 0.0688736
456 4 0.404029 0.188642 0.0696211
526 2 0.405068 0.246357 0.0465449
454 2 0.428765 0.190896 0.066752
455 4 0.453501 0.193149 0.0638829
102 3 0.468409 0.206072 0.0675539
528 4 0.423345 0.23031 0.0523467
101 1 0.488967 0.215153 0.0626527
104 3 0.485858 0.234416 0.0500969
1079 4 0.169604 0.328046 0.998623
2652 4 0.329249 0.252978 0.0623013
523 2 0.321719 0.31623 0.0815623
527 4 0.386791 0.262403 0.0407431
525 4 0.333214 0.330228 0.0643256
2650 2 0.348731 0.259479 0.0480395
2772 4 0.352962 0.329835 0.0613746
2651 4 0.368212 0.265979 0.0337777
2770 2 0.375178 0.318529 0.0594231
2771 4 0.397394 0.307224 0.0574716
2522 4 0.409369 0.317167 0.0435327
2521 2 0.424809 0.333797 0.0330342
107 3 0.494422 0.286413 0.0291588
2747 4 0.015066 0.389664 0.062498
2725 2 0.0433522 0.375594 0.0813785
671 4 0.0796507 0.354046 0.0716426
2726 4 0.065044 0.363159 0.0815483
461 4 0.153315 0.337182 0.00480549
670 2 0.083693 0.358184 0.0473174
672 4 0.0877352 0.362323 0.0229922
1550 4 0.319907 0.403157 0.0341432
1549 2 0.336788 0.385376 0.0292401
1551 4 0.353668 0.367594 0.024337
3542 4 0.373591 0.370125 0.0267317
3541 2 0.38785 0.376094 0.0463843
3543 4 0.402109 0.382064 0.0660368
1466 4 0.42257 0.383643 0.0631948
1465 2 0.442468 0.393989 0.0521395
2523 4 0.44025 0.350427 0.0225358
1467 4 0.462366 0.404335 0.0410842
3339 4 0.459453 0.353078 0.0154558
3337 2 0.482912 0.356444 0.00748414
1871 4 0.0336051 0.469465 0.0305349
1870 2 0.0457386 0.487894 0.0422975
2932 2 0.0145855 0.439079 0.00932973
2933 4 0.0322087 0.455675 0.0155909
3102 4 0.00162712 0.455727 0.074315
3670 2 0.0861295 0.442028 0.0802081
3672 4 0.093878 0.444363 0.0565506
2582 4 0.107371 0.4588 0.05144
2581 2 0.130296 0.449531 0.0477356
2583 4 0.15322 0.440261 0.0440312
3636 4 0.171941 0.438043 0.0367186
3634 2 0.195214 0.429115 0.0347641
3635 4 0.218487 0.420186 0.0328096
4304 4 0.228282 0.439015 0.0298291
4303 2 0.252575 0.442522 0.0345977
1570 2 0.240823 0.468554 0.0843099
596 4 0.317063 0.416398 0.0480917
3711 4 0.279535 0.480695 0.0685852
4305 4 0.276868 0.446029 0.0393662
1571 4 0.265298 0.469176 0.0792328
595 2 0.327644 0.438966 0.0500699
597 4 0.338225 0.461535 0.0520482
3709 2 0.30165 0.49166 0.0646021
3389 4 0.355978 0.457545 0.0592326
3388 2 0.35833 0.477122 0.0746073
2677 2 0.00871241 0.0752834 0.123058
1873 2 0.0494134 0.0753366 0.0815471
125 3 0.0524712 0.0417115 0.114738
124 3 0.0707709 0.0322957 0.146268
121 1 0.0687702 0.0284219 0.123478
123 3 0.0636891 0.00610738 0.119652
2678 4 0.0316142 0.085131 0.121128
1874 4 0.0359907 0.0801735 0.10208
2855 4 0.077478 0.0145267 0.149965
122 3 0.0888124 0.0333335 0.113312
2949 4 0.335219 0.0388794 0.107741
3766 2 0.310458 0.0380388 0.166471
2947 2 0.355405 0.0530923 0.111701
3768 4 0.332768 0.0461656 0.158634
4353 4 0.352114 0.0540585 0.156994
2948 4 0.375592 0.0673052 0.115662
377 4 0.378328 0.0817283 0.100995
2692 2 0.442915 0.00354046 0.144387
2520 4 0.47102 0.0702379 0.145315
2518 2 0.495362 0.0750787 0.142276
332 4 0.0151113 0.11728 0.137648
331 2 0.0388809 0.120904 0.130787
333 4 0.0626506 0.124528 0.123927
2516 4 0.0699339 0.138153 0.136328
2780 4 0.999161 0.128122 0.144412
2515 2 0.0947415 0.141158 0.135478
2517 4 0.119549 0.144164 0.134628
2478 4 0.139667 0.140319 0.138624
2476 2 0.162386 0.14695 0.14669
2477 4 0.185104 0.153581 0.154755
2464 2 0.212781 0.0942106 0.0919472
2465 4 0.226214 0.0953575 0.113005
1373 4 0.23292 0.0815617 0.126649
1372 2 0.248312 0.0934781 0.142342
1374 4 0.263705 0.105394 0.158035
2838 4 0.27622 0.119945 0.162868
1479 4 0.318539 0.154092 0.122278
749 4 0.32123 0.0895255 0.11795
748 2 0.326875 0.0883898 0.142282
376 2 0.401214 0.08875 0.108213
1477 2 0.332638 0.156477 0.142789
1478 4 0.346737 0.158861 0.163301
522 4 0.409492 0.154621 0.163396
378 4 0.4241 0.0957716 0.115431
520 2 0.423195 0.161828 0.143763
2717 4 0.436362 0.0942532 0.100281
624 4 0.443214 0.151518 0.113889
622 2 0.464857 0.15583 0.102133
2716 2 0.459687 0.101884 0.105067
2718 4 0.483012 0.109514 0.109854
623 4 0.486499 0.160142 0.0903779
357 4 0.497762 0.155835 0.106133
2976 4 0.0184212 0.224292 0.132693
836 4 0.0384566 0.225499 0.128506
835 2 0.0603211 0.219069 0.138791
837 4 0.0821855 0.212639 0.149076
2974 2 0.00506857 0.203481 0.128975
2615 4 0.096094 0.202654 0.159223
2614 2 0.112037 0.186139 0.169135
351 4 0.310567 0.245808 0.114426
517 2 0.333743 0.241103 0.151343
519 4 0.350416 0.23462 0.168813
609 4 0.368989 0.23934 0.161995
521 4 0.436898 0.169035 0.12413
518 4 0.31707 0.247585 0.133873
350 4 0.294489 0.291096 0.100596
349 2 0.302528 0.268452 0.107511
524 4 0.310225 0.302232 0.098799
2569 2 0.359675 0.326896 0.137403
607 2 0.385173 0.258046 0.165651
2570 4 0.381569 0.321144 0.126785
2571 4 0.337781 0.332647 0.148021
2969 4 0.421526 0.310943 0.142713
2471 4 0.421788 0.298277 0.158773
2968 2 0.440012 0.325779 0.134751
2727 4 0.0216605 0.388028 0.0812088
2918 4 0.120567 0.405449 0.127009
295 2 0.305584 0.341137 0.159864
297 4 0.32506 0.34818 0.145854
733 2 0.396167 0.38072 0.14188
735 4 0.403609 0.388665 0.119371
729 4 0.475692 0.33711 0.119115
2970 4 0.458497 0.340615 0.12679
727 2 0.499566 0.334739 0.112076
313 2 0.000547222 0.458728 0.135337
315 4 0.0230171 0.461027 0.146061
4211 4 0.0426307 0.465569 0.14539
4210 2 0.0619275 0.45427 0.134203
3671 4 0.0783811 0.439692 0.103866
4212 4 0.0812242 0.44297 0.123017
72 3 0.103601 0.478623 0.119859
2917 2 0.126929 0.424017 0.11152
71 1 0.126425 0.478733 0.122715
75 3 0.135363 0.460497 0.112409
74 3 0.131146 0.478099 0.145425
73 3 0.135061 0.498135 0.113368
2919 4 0.133291 0.442586 0.09603
648 4 0.155202 0.447622 0.10577
777 4 0.112435 0.437239 0.160872
1572 4 0.216347 0.467931 0.089387
647 4 0.196293 0.468573 0.0864467
646 2 0.175748 0.458098 0.0961084
4005 4 0.203311 0.480942 0.152863
1424 4 0.207094 0.500018 0.148118
2913 4 0.323926 0.500268 0.131061
3390 4 0.360683 0.4967 0.0899821
2940 4 0.113289 0.000333865 0.203775
2854 2 0.0888242 0.0130545 0.172197
2856 4 0.10017 0.0115822 0.194429
2547 4 0.145662 0.0278919 0.218673
2739 4 0.162052 0.0277659 0.229011
2546 4 0.11005 0.0547347 0.241299
2545 2 0.127856 0.0413133 0.229986
2737 2 0.185887 0.0285846 0.236522
2738 4 0.209722 0.0294033 0.244033
2757 4 0.229783 0.030589 0.247804
2744 4 0.226212 0.0506028 0.18527
2755 2 0.252115 0.0417415 0.246346
2743 2 0.249208 0.040786 0.185349
3767 4 0.288148 0.029912 0.174308
2745 4 0.272204 0.0309693 0.185428
1783 2 0.320655 0.996796 0.206066
580 2 0.319353 0.085924 0.209454
581 4 0.311753 0.0852444 0.233264
429 4 0.294486 0.0555736 0.244966
2756 4 0.274446 0.052894 0.244888
4351 2 0.375786 0.0571562 0.164425
1784 4 0.341934 0.00776363 0.198848
1806 4 0.357594 0.0188287 0.203436
4352 4 0.399458 0.060254 0.171857
1804 2 0.380541 0.00894297 0.204351
1805 4 0.403489 0.999057 0.205267
723 4 0.464381 0.0595572 0.160761
1506 4 0.46487 0.0185128 0.16993
722 4 0.417906 0.057574 0.179116
112 3 0.421389 0.00558908 0.217067
2694 4 0.448256 0.00728993 0.168524
1504 2 0.489814 0.0173698 0.171234
721 2 0.441143 0.0585656 0.169939
115 3 0.443857 0.000830454 0.187649
1271 4 0.0129821 0.0925198 0.228672
1270 2 0.0373148 0.0895496 0.233601
1272 4 0.0616475 0.0865795 0.238529
3677 4 0.0761284 0.0943437 0.227298
3676 2 0.10076 0.0923875 0.231125
3678 4 0.125392 0.0904312 0.234953
2879 4 0.143362 0.0968147 0.236701
582 4 0.326954 0.0866037 0.185643
2836 2 0.288673 0.126835 0.183426
2837 4 0.301126 0.133726 0.203983
419 4 0.321104 0.133521 0.208846
750 4 0.33252 0.0872541 0.166613
418 2 0.342825 0.13964 0.219612
420 4 0.364547 0.145759 0.230379
177 3 0.38343 0.148848 0.225964
176 1 0.405481 0.152654 0.231298
179 3 0.413405 0.134711 0.243693
180 3 0.417576 0.154796 0.212121
1748 4 0.435258 0.148517 0.203181
459 4 0.496582 0.154126 0.210565
1747 2 0.457924 0.15608 0.210548
1749 4 0.48059 0.163642 0.217914
2671 2 0.0727678 0.190537 0.245022
2616 4 0.127979 0.169623 0.179047
2672 4 0.0905814 0.18587 0.228108
2952 4 0.109222 0.18496 0.233162
2950 2 0.130004 0.191866 0.221095
2951 4 0.150786 0.198772 0.209028
2454 4 0.16968 0.203647 0.198257
2452 2 0.18804 0.188265 0.205432
2453 4 0.206399 0.172883 0.212607
2777 4 0.225033 0.169963 0.203463
2776 2 0.244193 0.185746 0.206457
2778 4 0.263354 0.201529 0.209451
2930 4 0.275229 0.195543 0.225475
2929 2 0.298467 0.20162 0.232422
2931 4 0.321705 0.207696 0.239369
413 4 0.377931 0.190837 0.180489
512 4 0.377497 0.191227 0.243763
414 4 0.365117 0.193563 0.228749
412 2 0.371524 0.1922 0.204619
178 3 0.406918 0.172158 0.243785
283 2 0.449245 0.198013 0.251651
284 4 0.472562 0.206807 0.253702
2705 4 0.316191 0.316489 0.217445
608 4 0.401356 0.276752 0.169307
2704 2 0.338314 0.327728 0.220522
4006 2 0.395338 0.332592 0.222457
4008 4 0.4144 0.321586 0.210596
2461 2 0.420636 0.256272 0.236863
2470 2 0.417485 0.29965 0.183365
2472 4 0.413183 0.301023 0.207958
2462 4 0.421015 0.254681 0.211913
2540 4 0.0092827 0.369932 0.250595
740 4 0.0958125 0.385291 0.240002
739 2 0.116678 0.379164 0.227661
741 4 0.137543 0.373037 0.21532
3705 4 0.145575 0.387437 0.201618
3703 2 0.16925 0.395479 0.201464
3704 4 0.192924 0.403521 0.20131
303 4 0.206188 0.410293 0.189391
301 2 0.230063 0.411293 0.196751
296 4 0.286108 0.334095 0.173873
4007 4 0.376275 0.343597 0.234317
734 4 0.388725 0.372774 0.164389
2706 4 0.360438 0.338967 0.223598
3404 4 0.354457 0.391753 0.212243
3403 2 0.368073 0.391315 0.191276
3405 4 0.381689 0.390877 0.17031
2872 2 0.433392 0.411762 0.239755
678 4 0.00763402 0.441009 0.171855
776 4 0.103813 0.456353 0.20627
775 2 0.108124 0.446796 0.183571
4003 2 0.218174 0.472486 0.171105
4004 4 0.233036 0.46403 0.189348
1856 4 0.250043 0.473846 0.192097
302 4 0.253938 0.412294 0.204111
1855 2 0.262466 0.486036 0.210048
1664 4 0.272723 0.417558 0.199177
1663 2 0.284746 0.436807 0.188684
1665 4 0.296769 0.456056 0.17819
3830 4 0.312933 0.467677 0.183563
3829 2 0.321244 0.483313 0.201216
3831 4 0.329554 0.498949 0.21887
2874 4 0.445671 0.41967 0.21946
3696 4 0.454817 0.43748 0.221112
3694 2 0.476974 0.448355 0.217117
317 4 0.0139667 0.0247715 0.264937
3723 4 0.0601447 0.0479502 0.283916
3721 2 0.0794855 0.045817 0.268213
3722 4 0.0988262 0.0436837 0.25251
28 3 0.115917 0.0569907 0.285899
26 1 0.127354 0.0771409 0.287153
2113 2 0.230399 0.0246814 0.318287
2114 4 0.253162 0.03404 0.313875
404 4 0.213924 0.0841479 0.305502
2115 4 0.207637 0.0153229 0.3227
1184 4 0.263229 0.0377289 0.330742
427 2 0.312543 0.0415249 0.255053
428 4 0.3306 0.0274763 0.265139
3477 4 0.382255 0.0535561 0.31626
3475 2 0.406492 0.0580086 0.312025
341 4 0.367235 0.0514461 0.328706
2667 4 0.498948 0.0665536 0.254794
1522 2 0.417557 0.00110781 0.33101
1245 4 0.485175 0.0722028 0.266556
3476 4 0.430729 0.062461 0.30779
1244 4 0.446727 0.0604269 0.296285
1524 4 0.442078 0.00482194 0.327825
1243 2 0.465951 0.0663148 0.28142
2870 4 0.477595 0.0496034 0.333507
2869 2 0.469023 0.0261259 0.334221
4306 2 0.0229972 0.108313 0.309308
4308 4 0.0394313 0.119408 0.324539
248 4 0.0576547 0.1142 0.334106
2878 2 0.165565 0.0995475 0.24787
27 3 0.123212 0.0867811 0.307624
29 3 0.119977 0.0914877 0.270475
30 3 0.149731 0.0735246 0.284954
2880 4 0.187768 0.10228 0.259039
605 4 0.207592 0.103703 0.255945
405 4 0.169477 0.0776056 0.283539
591 4 0.2329 0.0904684 0.30506
403 2 0.1917 0.0808767 0.29452
604 2 0.231491 0.108911 0.261132
732 4 0.297561 0.0759918 0.24464
589 2 0.254238 0.0958896 0.316912
606 4 0.25539 0.114118 0.266319
731 4 0.2755 0.116997 0.262877
590 4 0.275576 0.101311 0.328765
730 2 0.28653 0.0964943 0.253759
2849 4 0.290249 0.0935227 0.317372
2848 2 0.312661 0.102174 0.324303
3571 2 0.375044 0.103525 0.327375
3573 4 0.399202 0.107378 0.322207
2850 4 0.335073 0.110825 0.331234
3572 4 0.350886 0.0996729 0.332543
1190 4 0.429189 0.137099 0.255554
1189 2 0.452769 0.133335 0.262967
1191 4 0.47635 0.129571 0.270381
650 4 0.4942 0.135927 0.279072
2788 2 0.01503 0.178404 0.261765
2789 4 0.0375155 0.185934 0.269697
2673 4 0.0549541 0.195204 0.261935
511 2 0.358999 0.194987 0.260161
513 4 0.340501 0.198747 0.276559
687 4 0.405292 0.178578 0.31017
686 4 0.412099 0.180923 0.260683
685 2 0.408695 0.17975 0.285427
285 4 0.425929 0.189219 0.249601
1199 4 0.4684 0.218698 0.268849
1198 2 0.476245 0.239572 0.280159
402 4 0.448644 0.18133 0.320192
400 2 0.470411 0.186415 0.331395
2681 4 0.00120693 0.309794 0.283624
344 4 0.995794 0.30635 0.303257
2680 2 0.00333623 0.331703 0.271764
2499 4 0.216687 0.322003 0.306083
2567 4 0.233895 0.316908 0.29862
2497 2 0.19626 0.324716 0.320245
2566 2 0.257631 0.314558 0.291118
2568 4 0.281366 0.312207 0.283616
290 4 0.300828 0.317473 0.287383
289 2 0.325126 0.315837 0.29305
291 4 0.349424 0.314202 0.298718
338 4 0.368221 0.319996 0.297686
337 2 0.392281 0.326331 0.295202
339 4 0.416341 0.332666 0.292717
2463 4 0.420257 0.257863 0.261814
1200 4 0.48409 0.260446 0.291469
510 4 0.49707 0.272667 0.302754
2682 4 0.00546553 0.353612 0.259905
1573 2 0.371699 0.412333 0.319503
5 3 0.39991 0.405057 0.300422
1575 4 0.388197 0.420441 0.302554
3 3 0.429865 0.385806 0.312657
2873 4 0.421114 0.403855 0.26005
1 1 0.422546 0.403041 0.298953
2 3 0.428329 0.398225 0.277216
2556 4 0.43399 0.324988 0.297903
2554 2 0.455333 0.337988 0.297072
2555 4 0.476675 0.350988 0.296242
2852 4 0.493689 0.35153 0.28647
1186 2 0.00479497 0.491366 0.257025
375 4 0.229946 0.442094 0.315937
373 2 0.238493 0.429895 0.295855
374 4 0.247041 0.417695 0.275773
1382 4 0.341535 0.501207 0.273517
4 3 0.432689 0.422961 0.305176
249 4 0.0773286 0.0689425 0.342191
4543 2 0.00995293 0.00498002 0.356784
546 4 0.0771655 0.0491932 0.347181
4544 4 0.0304581 0.999369 0.343621
3798 4 0.0160788 0.0357138 0.402331
545 4 0.0384861 0.017563 0.345136
544 2 0.0578258 0.0333781 0.346159
3796 2 0.0410445 0.0370858 0.402337
3797 4 0.0660103 0.0384578 0.402344
2900 4 0.0778714 0.0220128 0.401544
1128 4 0.196431 0.0105335 0.338974
1183 2 0.287337 0.035013 0.336792
1185 4 0.311446 0.0322972 0.342842
342 4 0.320769 0.0482572 0.346915
340 2 0.344002 0.0498517 0.337811
682 2 0.350609 0.039809 0.405326
165 3 0.420076 0.0791341 0.363286
684 4 0.357637 0.0629254 0.411765
161 1 0.420784 0.0780639 0.386023
683 4 0.343582 0.0166926 0.398888
1061 4 0.395901 0.00855179 0.401456
1060 2 0.414171 0.0119736 0.384732
1062 4 0.432442 0.0153953 0.368009
2871 4 0.46045 0.0026485 0.334935
164 3 0.425689 0.0564147 0.392782
2644 2 0.487972 0.0687924 0.401807
2646 4 0.46789 0.0729395 0.3875
247 2 0.0674916 0.0915713 0.338148
2817 4 0.294424 0.0949364 0.411666
2815 2 0.318794 0.100061 0.413909
162 3 0.400266 0.0840428 0.394532
2816 4 0.343164 0.105186 0.416153
163 3 0.436833 0.0927239 0.394143
2699 4 0.176669 0.253232 0.354797
3461 4 0.327378 0.24119 0.40717
3460 2 0.345153 0.223946 0.403726
3462 4 0.362929 0.206703 0.400282
726 4 0.389561 0.223406 0.355184
3497 4 0.378266 0.196297 0.392983
724 2 0.408517 0.238911 0.360227
3496 2 0.399012 0.206028 0.402987
872 4 0.496655 0.218647 0.389614
3079 2 0.456093 0.21034 0.406318
401 4 0.492178 0.1915 0.342598
3080 4 0.477982 0.217786 0.396799
725 4 0.427473 0.254416 0.36527
3498 4 0.419759 0.215758 0.412991
470 4 0.0154404 0.25291 0.371819
3631 2 0.0337673 0.282856 0.389634
3632 4 0.0473409 0.275171 0.370093
3633 4 0.0201936 0.290542 0.409175
2451 4 0.063893 0.265046 0.3655
2449 2 0.0875923 0.257582 0.362707
2450 4 0.111292 0.250118 0.359913
453 4 0.108783 0.32716 0.380764
451 2 0.10333 0.310787 0.398857
2700 4 0.127156 0.258679 0.350378
2698 2 0.151913 0.255956 0.352588
479 4 0.194852 0.247881 0.356039
478 2 0.217823 0.254562 0.348766
480 4 0.240793 0.261243 0.341492
1394 4 0.261399 0.261448 0.342917
1393 2 0.283348 0.273051 0.345889
1395 4 0.305296 0.284655 0.348861
2786 4 0.323567 0.289267 0.346218
411 4 0.331354 0.259646 0.398209
409 2 0.335613 0.284205 0.4002
410 4 0.339872 0.308763 0.402191
2785 2 0.347288 0.297171 0.346207
2787 4 0.37101 0.305076 0.346196
1032 4 0.389468 0.312136 0.352159
1030 2 0.413725 0.306521 0.349863
118 3 0.455826 0.253894 0.32919
1031 4 0.437981 0.300905 0.347567
117 3 0.44658 0.283751 0.350065
120 3 0.448063 0.24995 0.365821
116 1 0.457573 0.263544 0.350219
119 3 0.479887 0.267185 0.355436
3640 2 0.0591269 0.391613 0.408593
3641 4 0.0640015 0.367221 0.406055
3601 2 0.0110413 0.415762 0.341789
3602 4 0.0315643 0.42356 0.329823
2712 4 0.0445389 0.363891 0.411666
2831 4 0.117375 0.333013 0.363765
2830 2 0.141477 0.33199 0.357192
2498 4 0.175833 0.327429 0.334407
2832 4 0.16558 0.330967 0.350619
1034 4 0.283359 0.329888 0.371491
1033 2 0.3071 0.335481 0.365988
1035 4 0.330841 0.341074 0.360485
2925 4 0.317487 0.373657 0.410598
1574 4 0.355201 0.404226 0.336452
585 4 0.346774 0.345594 0.372208
583 2 0.368935 0.35706 0.3706
584 4 0.391096 0.368527 0.368992
893 4 0.410973 0.370269 0.362948
892 2 0.432538 0.370821 0.350306
894 4 0.454103 0.371374 0.337664
569 4 0.474623 0.367864 0.338517
568 2 0.491395 0.386351 0.339975
4322 4 0.0038336 0.4706 0.384952
4323 4 0.0528196 0.469166 0.394906
4321 2 0.0283266 0.469883 0.389929
447 4 0.0673767 0.472068 0.3805
1757 4 0.0495068 0.423093 0.338861
1756 2 0.0711144 0.435045 0.334932
3423 4 0.0414832 0.430214 0.417121
445 2 0.0879524 0.478653 0.393089
1758 4 0.0927221 0.446998 0.331002
446 4 0.108528 0.485238 0.405677
2532 4 0.404066 0.488517 0.361891
547 2 0.50182 0.476918 0.336384
548 4 0.492104 0.460764 0.35281
2457 4 0.00392519 0.0437907 0.415947
2456 4 0.00212793 0.0700621 0.458459
2455 2 0.00302656 0.0569264 0.437203
1182 4 0.00165214 0.0559884 0.472091
2899 2 0.0956307 0.0144246 0.417424
3174 4 0.119016 5.92635e-05 0.452168
2901 4 0.11339 0.00683636 0.433305
2715 4 0.36215 0.0733416 0.42771
842 4 0.40416 0.0131363 0.419723
841 2 0.419831 0.0150039 0.439117
3747 4 0.438015 0.999735 0.469973
843 4 0.435502 0.0168716 0.458511
765 4 0.0398644 0.150434 0.488885
763 2 0.017897 0.159419 0.496752
2684 4 0.0598257 0.150473 0.486356
2713 2 0.379267 0.0901071 0.434859
2502 4 0.40286 0.121682 0.453481
2714 4 0.396385 0.106873 0.442008
2500 2 0.426109 0.130406 0.450549
2501 4 0.449357 0.139129 0.447618
3032 4 0.456128 0.145631 0.464314
3031 2 0.480665 0.150273 0.463071
2683 2 0.0777392 0.167757 0.484
2685 4 0.0956526 0.185042 0.481644
2586 4 0.111004 0.18845 0.494523
939 4 0.174511 0.184988 0.496273
937 2 0.197116 0.18041 0.486617
938 4 0.219721 0.175831 0.476962
3081 4 0.434203 0.202893 0.415836
3059 4 0.449038 0.247459 0.45264
311 4 0.468794 0.245755 0.4486
310 2 0.491856 0.254748 0.45213
365 4 0.0184772 0.281814 0.427324
2711 4 0.00462473 0.337113 0.425469
452 4 0.0978761 0.294413 0.41695
488 4 0.238852 0.317981 0.456642
487 2 0.253053 0.334566 0.444459
305 4 0.349382 0.291693 0.498862
304 2 0.368196 0.283401 0.484634
3060 4 0.405319 0.269073 0.463696
306 4 0.387011 0.27511 0.470406
3058 2 0.427179 0.258266 0.458168
3642 4 0.0542523 0.416005 0.411131
2710 2 0.0245818 0.350502 0.418568
2924 4 0.284645 0.341584 0.430435
489 4 0.267254 0.351152 0.432275
2923 2 0.301066 0.357621 0.420517
3421 2 0.0273471 0.430684 0.43774
1697 4 0.025447 0.420132 0.470711
4250 4 0.0539621 0.494468 0.496119
3974 4 0.0380811 0.491773 0.483656
1696 2 0.0353777 0.419685 0.493654
3422 4 0.013211 0.431153 0.458358
2825 4 0.130032 0.477316 0.461472
2824 2 0.120235 0.472751 0.438924
2826 4 0.110439 0.468187 0.416376
1419 4 0.26923 0.500113 0.434221
2195 4 0.0517333 0.0136678 0.509378
2553 4 0.065774 0.0171795 0.496829
2551 2 0.0846158 0.0248016 0.511391
4326 4 0.024669 0.0612929 0.574656
4324 2 0.0489306 0.0632172 0.580388
4325 4 0.0731922 0.0651415 0.58612
2194 2 0.0286745 0.00650828 0.515876
2196 4 0.00561565 0.999349 0.522374
2552 4 0.103458 0.0324238 0.525954
760 2 0.0962807 0.0395369 0.564988
762 4 0.104974 0.0274938 0.544874
2584 2 0.135422 0.192239 0.498342
2585 4 0.15984 0.196027 0.502161
1131 4 0.492392 0.202016 0.569362
408 4 0.0750278 0.319062 0.552223
406 2 0.0924671 0.326436 0.535893
407 4 0.109906 0.333811 0.519562
803 4 0.12514 0.322469 0.523971
802 2 0.147346 0.312186 0.529099
978 4 0.143617 0.312541 0.573211
804 4 0.169553 0.301903 0.534228
1238 4 0.187285 0.305694 0.543574
1237 2 0.211346 0.300642 0.548128
1239 4 0.235407 0.295591 0.552682
891 4 0.253054 0.297697 0.544519
889 2 0.270303 0.298726 0.56259
890 4 0.287553 0.299755 0.580661
83 3 0.333536 0.288882 0.574141
3420 4 0.349598 0.302406 0.57723
3418 2 0.36182 0.323755 0.572753
3453 4 0.101633 0.415277 0.539385
3464 4 0.119143 0.410507 0.548595
4215 4 0.237943 0.391148 0.551367
4213 2 0.259849 0.397258 0.561759
4214 4 0.281755 0.403368 0.57215
538 2 0.315085 0.41059 0.550352
539 4 0.336307 0.404766 0.538481
3369 4 0.355802 0.405213 0.535477
3367 2 0.378699 0.404742 0.545513
3419 4 0.374042 0.345104 0.568276
3368 4 0.401595 0.404272 0.555549
1281 4 0.420139 0.400316 0.563789
1279 2 0.444714 0.402549 0.559754
1280 4 0.469288 0.404783 0.555719
878 4 0.484789 0.395184 0.544829
1698 4 0.0453083 0.419237 0.516597
790 2 0.0208344 0.429515 0.557506
792 4 0.0368438 0.412036 0.565467
1137 4 0.0574618 0.459363 0.53367
3452 4 0.059127 0.432898 0.519804
3973 2 0.0280253 0.475471 0.499727
1135 2 0.068485 0.474548 0.550195
3451 2 0.0803802 0.424088 0.529594
1136 4 0.0795081 0.489733 0.56672
3975 4 0.0179694 0.459169 0.515799
3463 2 0.129852 0.429613 0.560655
3465 4 0.140562 0.44872 0.572715
797 4 0.139126 0.46808 0.581906
796 2 0.117437 0.480268 0.579412
798 4 0.0957486 0.492457 0.576918
1488 4 0.187107 0.485183 0.519629
1486 2 0.202538 0.50174 0.509002
540 4 0.293864 0.416414 0.562223
212 3 0.321027 0.5018 0.535693
772 2 0.451949 0.481224 0.579799
1205 4 0.482055 0.460127 0.573211
773 4 0.472632 0.469871 0.588075
3360 4 0.00856741 0.057041 0.588623
3294 4 0.0170278 0.0688981 0.65852
4116 4 0.0109685 0.0508462 0.654374
761 4 0.0875878 0.0515801 0.585102
2283 4 0.329369 0.0346452 0.655867
3105 4 0.315547 0.0250535 0.668134
2281 2 0.351612 0.0240328 0.65165
2282 4 0.373856 0.0134204 0.647432
3083 4 0.394907 0.0167864 0.644759
3082 2 0.419527 0.0206891 0.646705
3084 4 0.444147 0.0245918 0.648651
269 4 0.463504 0.0282929 0.647156
268 2 0.487843 0.0226363 0.648038
3266 4 0.00158318 0.134194 0.641653
145 3 0.020041 0.140157 0.648291
141 1 0.0201665 0.158647 0.661587
3292 2 0.0349934 0.0841958 0.65025
3293 4 0.0529589 0.0994935 0.641979
3021 4 0.0728422 0.105343 0.643836
3019 2 0.0818215 0.128027 0.638357
143 3 0.0413981 0.161959 0.670342
3020 4 0.0908008 0.15071 0.632879
3385 2 0.028221 0.225223 0.627054
142 3 0.0143413 0.177034 0.649051
3387 4 0.0307228 0.200349 0.626568
1106 4 0.0495435 0.197863 0.623458
1105 2 0.0651439 0.181158 0.633595
1107 4 0.0807442 0.164454 0.643733
3386 4 0.0257192 0.250096 0.627539
2243 4 0.0335628 0.264525 0.616148
2242 2 0.0560514 0.273183 0.609476
2244 4 0.0785399 0.281841 0.602804
806 4 0.0927714 0.272174 0.590474
805 2 0.112362 0.287645 0.589045
807 4 0.131953 0.303116 0.587616
976 2 0.165025 0.319026 0.584384
977 4 0.186433 0.325511 0.595557
85 3 0.303553 0.270713 0.587873
81 1 0.317398 0.288555 0.59081
82 3 0.305102 0.307961 0.589638
84 3 0.32755 0.287355 0.611641
906 4 0.336009 0.29299 0.630531
904 2 0.341873 0.317295 0.630321
3114 4 0.186306 0.373819 0.649069
997 2 0.227814 0.370214 0.653382
998 4 0.252405 0.373683 0.650471
999 4 0.203224 0.366745 0.656293
1041 4 0.270505 0.381653 0.650067
1039 2 0.290241 0.392598 0.639303
3381 4 0.321153 0.391783 0.61801
1040 4 0.309978 0.403543 0.628538
3379 2 0.334393 0.370856 0.614559
3380 4 0.347634 0.349929 0.611107
905 4 0.347737 0.3416 0.630112
4445 4 0.270637 0.445581 0.66453
2307 4 0.0138261 0.0764156 0.724971
1077 4 0.115061 0.0894602 0.72219
888 4 0.154572 0.0573817 0.745911
3612 4 0.152614 0.0151945 0.680746
3610 2 0.176071 0.0131595 0.689163
3611 4 0.199527 0.0111245 0.69758
4503 4 0.204597 0.0309081 0.698625
4501 2 0.227917 0.0375895 0.692568
3438 4 0.193457 0.00512407 0.755765
4502 4 0.251238 0.0442709 0.68651
1217 4 0.269413 0.00662216 0.73594
3104 4 0.269198 0.0366937 0.682868
3103 2 0.292373 0.0308736 0.675501
3488 4 0.252754 0.00291713 0.746206
1216 2 0.293394 0.000327044 0.739177
2001 4 0.327234 0.0109585 0.748752
3063 4 0.455995 0.0851381 0.697639
4443 4 0.0399823 0.139058 0.731312
4441 2 0.0301169 0.117084 0.724603
4442 4 0.0202516 0.0951107 0.717894
1208 4 0.0498003 0.155776 0.739669
144 3 0.00480607 0.156128 0.678794
954 4 0.0622516 0.10375 0.69463
2978 4 0.06038 0.155231 0.67419
952 2 0.0853906 0.0953696 0.69905
953 4 0.10853 0.0869895 0.70347
2977 2 0.0821723 0.157505 0.686235
1075 2 0.139308 0.0952098 0.724239
1076 4 0.163555 0.100959 0.726288
2979 4 0.103965 0.159779 0.698281
3061 2 0.479878 0.0846752 0.690251
3062 4 0.503761 0.0842124 0.682863
384 4 0.0628685 0.243338 0.702233
382 2 0.0847375 0.233994 0.694512
383 4 0.106606 0.22465 0.686791
2972 4 0.124319 0.226467 0.695333
1086 4 0.117157 0.175052 0.70238
2971 2 0.14769 0.235207 0.69372
1084 2 0.141229 0.181795 0.701868
1085 4 0.165301 0.188538 0.701357
2973 4 0.171061 0.243946 0.692107
3252 4 0.189996 0.239639 0.699545
897 4 0.182843 0.186568 0.693213
895 2 0.206879 0.183543 0.687025
3250 2 0.213733 0.24488 0.693688
896 4 0.230916 0.180519 0.680837
3251 4 0.237469 0.250121 0.687832
738 4 0.251614 0.253334 0.702608
3357 4 0.474437 0.20412 0.731998
3037 2 0.480353 0.194921 0.697111
3039 4 0.465037 0.195415 0.716869
3038 4 0.495669 0.194428 0.677353
3355 2 0.45472 0.205367 0.747324
3093 4 0.021864 0.279037 0.667103
3240 4 0.00237116 0.270781 0.670057
1299 4 0.0552759 0.332855 0.736757
3091 2 0.0468069 0.280175 0.668421
3092 4 0.0717499 0.281313 0.669739
3435 4 0.0915955 0.283703 0.674697
3433 2 0.116526 0.285304 0.675739
3434 4 0.141456 0.286906 0.676781
736 2 0.276056 0.256756 0.706613
2981 4 0.303073 0.274478 0.724399
737 4 0.300498 0.260178 0.710619
2980 2 0.324484 0.279584 0.736261
3350 4 0.458055 0.257112 0.759022
1297 2 0.0641281 0.339149 0.714236
1298 4 0.0729804 0.345443 0.691715
1068 4 0.0913078 0.352955 0.687324
883 2 0.126963 0.409622 0.696087
1066 2 0.115698 0.353003 0.69283
885 4 0.14808 0.404784 0.683602
1067 4 0.140088 0.353051 0.698335
3113 4 0.152138 0.359953 0.682848
4524 4 0.164268 0.415209 0.685119
3112 2 0.169222 0.366886 0.665959
4209 4 0.248464 0.394595 0.748436
1277 4 0.0140625 0.490459 0.702922
820 2 0.0480559 0.495688 0.700531
822 4 0.0697189 0.486206 0.692408
1235 4 0.0693843 0.465984 0.697489
1234 2 0.0774447 0.443258 0.7041
884 4 0.105847 0.414459 0.708572
1236 4 0.0855052 0.420532 0.710712
4522 2 0.185902 0.427629 0.683417
4523 4 0.207537 0.440049 0.681714
2288 4 0.230782 0.494772 0.737047
4446 4 0.222776 0.432856 0.671458
4207 2 0.25161 0.417101 0.738009
4444 2 0.246706 0.439219 0.667994
2061 4 0.285303 0.434402 0.672244
4208 4 0.254756 0.439608 0.727581
2059 2 0.307909 0.428713 0.681288
2060 4 0.330514 0.423023 0.690333
1170 4 0.336056 0.438555 0.702901
1168 2 0.344922 0.447877 0.724341
1169 4 0.353788 0.457199 0.745782
817 2 0.105155 0.020452 0.800773
819 4 0.10186 0.0317797 0.778728
887 4 0.111441 0.0376755 0.761791
886 2 0.133006 0.0475286 0.753851
3554 4 0.367716 0.0490893 0.789871
3553 2 0.38772 0.0634139 0.794328
3555 4 0.407723 0.0777385 0.798786
3305 4 0.426845 0.0772905 0.794302
779 4 0.0994556 0.16751 0.814709
1014 4 0.245807 0.112092 0.774238
533 4 0.270133 0.0736878 0.81164
1012 2 0.262497 0.129727 0.768272
1013 4 0.279188 0.147362 0.762306
532 2 0.2908 0.0875207 0.809047
1606 2 0.309962 0.1421 0.826152
534 4 0.311467 0.101354 0.806455
3282 4 0.33019 0.103863 0.799152
1607 4 0.331326 0.143021 0.813194
3280 2 0.352352 0.111713 0.790641
3281 4 0.374514 0.119563 0.78213
4128 4 0.390192 0.127616 0.792384
4126 2 0.413809 0.134128 0.787383
3304 2 0.449407 0.0808009 0.784113
4127 4 0.437426 0.140639 0.782383
3299 4 0.453616 0.145934 0.772919
3298 2 0.477431 0.148648 0.765804
3306 4 0.47197 0.0843112 0.773924
3077 4 0.490742 0.0870119 0.779621
3041 4 0.491926 0.106557 0.830094
1207 2 0.0328855 0.170437 0.750809
1209 4 0.0159708 0.185099 0.76195
3153 4 0.082424 0.179414 0.816121
3151 2 0.0588783 0.18042 0.824474
1691 4 0.000355916 0.173692 0.768322
778 2 0.122289 0.168581 0.824841
780 4 0.145123 0.169653 0.834974
1619 4 0.161686 0.180581 0.829315
1618 2 0.184001 0.191797 0.828113
1620 4 0.206315 0.203013 0.826911
58 3 0.221814 0.215159 0.821306
56 1 0.244748 0.217148 0.818394
60 3 0.249455 0.221547 0.79655
747 4 0.26931 0.219366 0.791439
57 3 0.254758 0.197346 0.824462
59 3 0.252997 0.234156 0.83185
745 2 0.293607 0.222756 0.786603
746 4 0.317903 0.226146 0.781767
3440 4 0.342628 0.184934 0.836113
483 4 0.336511 0.235074 0.785732
3439 2 0.366059 0.17843 0.830295
481 2 0.359755 0.244006 0.787999
3441 4 0.38949 0.171925 0.824476
2628 4 0.402051 0.187545 0.818542
482 4 0.382998 0.252938 0.790265
924 4 0.39994 0.243335 0.785499
2626 2 0.417295 0.193258 0.799563
922 2 0.418982 0.249027 0.770327