ITEM: TIMESTEP
1706500
ITEM: NUMBER OF ATOMS
4590
ITEM: BOX BOUNDS xy xz yz pp pp pp
-9.9985700000000008e+00 1.2598198199999985e+01 2.5996281999999837e+00
-9.9985700000000008e+00 9.9985700000000008e+00 0.0000000000000000e+00
-9.9985700000000008e+00 9.9985700000000008e+00 0.0000000000000000e+00
ITEM: ATOMS id type xs ys zs
3480 4 0.00906613 0.0756028 0.0200244
3907 2 0.0323501 0.00437165 0.0803289
1566 4 0.110558 0.0672457 0.0635525
3048 4 0.148665 0.0504899 0.0682433
3046 2 0.171587 0.0540674 0.0601556
3047 4 0.194509 0.0576449 0.0520679
1761 4 0.203952 0.0612599 0.0343554
1759 2 0.228625 0.061987 0.0310042
1760 4 0.253298 0.0627141 0.0276531
4505 4 0.355284 0.0576717 0.0103406
1824 4 0.370944 0.0477054 0.0224151
1822 2 0.38395 0.0251381 0.0186129
1823 4 0.396955 0.00257078 0.0148107
1564 2 0.119063 0.0871919 0.0737583
1251 4 0.0964285 0.154207 0.0477349
1249 2 0.118697 0.162487 0.0511476
2887 2 0.257495 0.122219 0.00815079
2888 4 0.271427 0.140231 0.0141477
2442 4 0.277515 0.163382 0.0616367
1274 4 0.288214 0.125204 0.0157011
492 4 0.297913 0.162079 0.05843
1273 2 0.312494 0.12693 0.0110402
1275 4 0.336774 0.128656 0.00637925
2782 2 0.00203594 0.221777 0.0603266
2783 4 0.0203338 0.235901 0.0558155
282 4 0.0566096 0.20565 0.0175827
280 2 0.0807119 0.209443 0.0200031
281 4 0.104814 0.213236 0.0224236
2876 4 0.121569 0.206197 0.013004
1250 4 0.140965 0.170768 0.0545604
2875 2 0.142241 0.217752 0.0130428
1247 4 0.16075 0.166425 0.0585611
1246 2 0.184607 0.170757 0.0553799
2652 4 0.169844 0.246331 0.00721994
2650 2 0.194242 0.248263 0.0109432
1248 4 0.208463 0.175088 0.0521988
2877 4 0.162913 0.229306 0.0130817
2440 2 0.252418 0.165425 0.0595344
2441 4 0.227322 0.167467 0.0574321
527 4 0.232863 0.24233 0.00272356
526 2 0.256242 0.239962 0.0120679
528 4 0.27962 0.237594 0.0214122
110 3 0.298569 0.230458 0.0211591
106 1 0.318289 0.231422 0.0322903
107 3 0.324433 0.211476 0.0431861
490 2 0.321122 0.168781 0.0590652
109 3 0.335164 0.234958 0.0172771
491 4 0.344331 0.175483 0.0597004
4470 4 0.339013 0.1908 0.00357161
845 4 0.359059 0.183506 0.0707144
2760 4 0.359 0.180857 0.00207822
844 2 0.382778 0.18885 0.0699465
2758 2 0.382869 0.182051 0.00890594
846 4 0.406497 0.194195 0.0691786
2759 4 0.406737 0.183245 0.0157337
3426 4 0.415077 0.19941 0.0133565
456 4 0.426973 0.197315 0.0648944
3424 2 0.439653 0.201733 0.0124214
454 2 0.452006 0.196135 0.0670795
3425 4 0.464229 0.204057 0.0114862
455 4 0.477039 0.194956 0.0692646
827 4 0.485318 0.205903 0.0193038
2651 4 0.21864 0.250194 0.0146665
108 3 0.315535 0.248534 0.0479521
968 4 0.456823 0.296769 0.00905901
967 2 0.472105 0.298405 0.0286144
969 4 0.487387 0.30004 0.0481698
1291 2 0.00755037 0.348242 0.0281923
1292 4 0.0195736 0.367573 0.0218522
2727 4 0.105008 0.38775 0.0715141
2725 2 0.124781 0.379057 0.0573
2726 4 0.144554 0.370364 0.0430858
671 4 0.164335 0.372486 0.0409031
670 2 0.184987 0.383339 0.0454431
672 4 0.205639 0.394192 0.0499831
4303 2 0.250409 0.394707 0.0261516
4304 4 0.230436 0.412315 0.0245943
4305 4 0.270381 0.377099 0.0277088
597 4 0.286163 0.366505 0.0350245
595 2 0.308494 0.368813 0.0246459
596 4 0.330825 0.371121 0.0142673
1550 4 0.335976 0.387291 0.025123
1549 2 0.357878 0.388062 0.036974
1551 4 0.379781 0.388833 0.048825
3542 4 0.393175 0.396354 0.0369985
3541 2 0.416253 0.401429 0.0429939
3543 4 0.439331 0.406504 0.0489893
1466 4 0.458795 0.401013 0.047799
1465 2 0.479182 0.410509 0.0560166
3388 2 0.0121815 0.497432 0.0486199
2747 4 0.0260321 0.429877 0.06
2746 2 0.00162281 0.43542 0.0657716
3389 4 0.0262442 0.494817 0.0278826
3550 2 0.399119 0.492854 0.0669922
3551 4 0.38923 0.474293 0.0783647
4051 2 0.473711 0.420416 0.999773
132 3 0.445322 0.490545 0.00109263
1467 4 0.499569 0.420005 0.0642343
902 4 0.493881 0.489175 0.0218738
134 3 0.475367 0.464139 0.0037624
3341 4 0.432377 0.475269 0.00399337
4053 4 0.498314 0.418846 0.00500824
234 4 0.0165146 0.00671491 0.110314
3908 4 0.0306905 0.0168995 0.101968
4351 2 0.126129 0.044194 0.159072
4352 4 0.149267 0.0510891 0.159036
3768 4 0.0843518 0.0422934 0.165985
4353 4 0.102991 0.037299 0.159108
722 4 0.169136 0.0476968 0.154559
721 2 0.191365 0.055273 0.149181
723 4 0.213593 0.0628492 0.143802
2520 4 0.232536 0.0644679 0.141633
2518 2 0.256733 0.068307 0.140867
2519 4 0.280929 0.0721461 0.1401
3809 4 0.296943 0.0789825 0.132353
3808 2 0.319763 0.0799739 0.122476
3810 4 0.342583 0.0809652 0.112599
2703 4 0.499463 0.0223063 0.111209
2701 2 0.491628 0.000297886 0.11635
378 4 0.0127965 0.125723 0.11632
2717 4 0.0314656 0.128207 0.124633
2716 2 0.0460577 0.125562 0.145009
2718 4 0.0606499 0.122918 0.165385
1565 4 0.127569 0.107138 0.0839641
354 4 0.14398 0.104607 0.098201
352 2 0.164225 0.115655 0.103949
691 2 0.196402 0.123584 0.14771
353 4 0.184469 0.126704 0.109698
693 4 0.198568 0.131353 0.124156
743 4 0.357917 0.0909969 0.10622
742 2 0.378428 0.0925673 0.120134
744 4 0.39894 0.0941377 0.134047
2515 2 0.454589 0.144811 0.146823
2517 4 0.437244 0.164652 0.143156
2516 4 0.471935 0.12497 0.15049
333 4 0.487697 0.121008 0.16394
836 4 0.0122276 0.201479 0.123766
835 2 0.0347412 0.209764 0.12357
837 4 0.0572548 0.218048 0.123374
2615 4 0.0737696 0.20708 0.116241
2614 2 0.0953689 0.215597 0.110154
2616 4 0.116968 0.224115 0.104066
252 4 0.260992 0.331934 0.146961
250 2 0.243249 0.326509 0.162943
296 4 0.4873 0.312981 0.144411
287 4 0.273657 0.343475 0.153735
3405 4 0.485244 0.390295 0.148564
734 4 0.494762 0.388744 0.130136
3403 2 0.467805 0.392637 0.166623
1743 4 0.222959 0.488193 0.132293
1741 2 0.244709 0.497948 0.132732
1861 2 0.299078 0.487241 0.127228
1863 4 0.315353 0.474528 0.111425
2755 2 0.00255469 0.0815511 0.238096
124 3 0.0025161 0.0282273 0.224586
2855 4 0.016464 0.0328994 0.237483
3767 4 0.0481546 0.0200497 0.187851
3766 2 0.0662532 0.0311715 0.176918
2854 2 0.0405596 0.0301941 0.244837
2856 4 0.0646552 0.0274888 0.252191
2756 4 0.023662 0.0843988 0.225615
2745 4 0.0449829 0.00252806 0.181312
2693 4 0.304912 0.0259633 0.178465
2692 2 0.329146 0.0258959 0.184656
2694 4 0.353379 0.0258286 0.190848
1506 4 0.371681 0.0172575 0.193774
1504 2 0.392289 0.0285927 0.190754
1505 4 0.412897 0.039928 0.187734
255 4 0.429965 0.035984 0.175237
253 2 0.454244 0.0395474 0.175795
254 4 0.478522 0.0431108 0.176354
632 4 0.495148 0.0532133 0.176519
393 4 0.0205219 0.101321 0.214566
391 2 0.0342619 0.110712 0.19687
392 4 0.0480018 0.120103 0.179173
2769 4 0.135119 0.127049 0.204256
2767 2 0.155469 0.120287 0.190102
2768 4 0.175819 0.113525 0.175948
692 4 0.194237 0.115815 0.171263
2777 4 0.357088 0.119015 0.217378
2776 2 0.379478 0.126568 0.2127
2778 4 0.401868 0.134121 0.208023
2478 4 0.421771 0.133724 0.210806
2476 2 0.441715 0.14599 0.207519
2477 4 0.461659 0.158255 0.204232
2179 2 0.0102859 0.181044 0.234524
2181 4 0.0248329 0.187008 0.215687
2790 4 0.0397006 0.194039 0.226447
2788 2 0.0644492 0.189445 0.231006
2789 4 0.0891978 0.184851 0.235565
2673 4 0.104472 0.193515 0.228449
2671 2 0.128931 0.184527 0.227057
2672 4 0.15339 0.175539 0.225665
2952 4 0.174012 0.175869 0.223421
2950 2 0.195134 0.185736 0.218333
2951 4 0.216256 0.195602 0.213245
2454 4 0.227646 0.190423 0.22961
2452 2 0.24904 0.192581 0.241887
2930 4 0.285693 0.195943 0.241582
2929 2 0.310112 0.190985 0.235634
2931 4 0.334531 0.186027 0.229687
2463 4 0.352809 0.190655 0.22819
2461 2 0.375252 0.193692 0.237907
2462 4 0.397694 0.196729 0.247624
413 4 0.479399 0.164349 0.199659
251 4 0.225506 0.321085 0.178925
755 4 0.228754 0.267695 0.233392
754 2 0.243257 0.27314 0.214308
756 4 0.25776 0.278585 0.195225
476 4 0.240299 0.259333 0.250962
2799 4 0.314728 0.316604 0.184397
2797 2 0.332456 0.296984 0.181255
2798 4 0.350183 0.277364 0.178114
2754 4 0.358412 0.261618 0.190325
2680 2 0.362391 0.316244 0.244176
2752 2 0.381795 0.266974 0.194409
2681 4 0.384547 0.31047 0.232615
2753 4 0.405179 0.27233 0.198492
2730 4 0.412712 0.286343 0.188325
390 4 0.406751 0.274136 0.244552
284 4 0.387113 0.276892 0.243931
2728 2 0.433155 0.298006 0.185689
2729 4 0.453598 0.309669 0.183053
3989 4 0.0210331 0.38756 0.208725
677 4 0.0397285 0.393207 0.205733
676 2 0.0638007 0.396643 0.20224
678 4 0.0878728 0.400079 0.198747
740 4 0.102387 0.41211 0.19505
286 2 0.295013 0.340147 0.167013
288 4 0.316368 0.336818 0.180292
2 3 0.423973 0.384174 0.241546
4 3 0.396012 0.411129 0.250922
3404 4 0.450367 0.394978 0.184681
739 2 0.12442 0.421237 0.193385
2873 4 0.143922 0.490555 0.236302
741 4 0.146453 0.430363 0.191721
3705 4 0.165711 0.434297 0.191067
2872 2 0.160747 0.473481 0.247271
3703 2 0.187443 0.444029 0.192341
3704 4 0.209175 0.453761 0.193615
303 4 0.229295 0.450873 0.189498
301 2 0.25347 0.454026 0.186207
3695 4 0.237929 0.472866 0.245612
302 4 0.277645 0.457179 0.182917
1664 4 0.294378 0.450743 0.195649
1663 2 0.317257 0.455545 0.202699
1665 4 0.340136 0.460347 0.209749
341 4 0.0173697 0.0733086 0.326345
340 2 0.0382398 0.0575078 0.321711
342 4 0.0591098 0.041707 0.317077
3477 4 0.0685307 0.0487257 0.332879
2939 4 0.104731 0.072258 0.25087
2938 2 0.0944714 0.0510286 0.253106
2940 4 0.0842119 0.0297991 0.255342
1185 4 0.103982 0.00849329 0.309837
3926 4 0.113478 0.0200083 0.297011
3925 2 0.13673 0.0240366 0.290404
3927 4 0.159983 0.028065 0.283797
3699 4 0.180226 0.0289057 0.286676
3697 2 0.193682 0.00626108 0.285302
1375 2 0.286624 0.086524 0.330438
1376 4 0.308445 0.0904945 0.31993
1522 2 0.388065 0.0689366 0.328083
256 2 0.445288 0.0197029 0.288851
258 4 0.438885 0.0413342 0.300866
2871 4 0.361149 0.0941918 0.323194
2870 4 0.316704 0.0908395 0.301394
2869 2 0.338926 0.0925157 0.312294
402 4 0.376082 0.147198 0.304083
1524 4 0.378942 0.0886976 0.314236
400 2 0.399701 0.137432 0.309586
401 4 0.423321 0.127667 0.315088
511 2 0.494322 0.131726 0.251303
513 4 0.488868 0.109512 0.259183
1271 4 0.489875 0.0982607 0.276602
474 4 0.0324058 0.200111 0.324992
2453 4 0.270434 0.194739 0.254164
477 4 0.276531 0.23858 0.28171
1221 4 0.297657 0.239395 0.279623
1219 2 0.321911 0.242961 0.278391
1220 4 0.346165 0.246528 0.27716
285 4 0.360556 0.242293 0.262348
2492 4 0.416717 0.200084 0.254069
2491 2 0.437692 0.210887 0.251303
299 4 0.479204 0.213922 0.254142
298 2 0.492167 0.233313 0.257217
2493 4 0.458666 0.22169 0.248537
2787 4 0.021834 0.258684 0.321708
1032 4 0.0429182 0.261318 0.320903
1030 2 0.0664436 0.26716 0.322048
1031 4 0.0899689 0.273002 0.323193
117 3 0.111371 0.27131 0.325434
1199 4 0.163842 0.260255 0.272881
118 3 0.148437 0.274332 0.324857
2903 4 0.174551 0.313185 0.29473
1198 2 0.166993 0.268797 0.295991
1200 4 0.170143 0.277339 0.319101
2902 2 0.194109 0.321702 0.283523
510 4 0.191205 0.280677 0.321238
2904 4 0.213667 0.330219 0.272315
508 2 0.216245 0.280274 0.322029
509 4 0.241286 0.279871 0.322821
2539 2 0.257499 0.328394 0.279466
717 4 0.262354 0.283305 0.325272
2540 4 0.280917 0.329486 0.287767
475 2 0.258415 0.248956 0.266336
2541 4 0.234081 0.327302 0.271165
2682 4 0.340235 0.322018 0.255736
715 2 0.285686 0.289687 0.3261
1055 4 0.298014 0.317705 0.290744
1054 2 0.313756 0.312442 0.271489
1056 4 0.329497 0.307179 0.252234
2655 4 0.330535 0.299285 0.324076
716 4 0.309018 0.296069 0.326927
2653 2 0.354133 0.302725 0.318148
283 2 0.373834 0.259593 0.25314
2654 4 0.377732 0.306165 0.312219
344 4 0.398418 0.305535 0.310166
343 2 0.421618 0.312013 0.307885
388 2 0.423944 0.287966 0.253113
345 4 0.444818 0.318491 0.305604
389 4 0.441137 0.301796 0.261673
2955 4 0.459107 0.307492 0.265379
2567 4 0.467105 0.321011 0.306311
2953 2 0.479255 0.290042 0.264368
2566 2 0.48911 0.330256 0.30522
1 1 0.413749 0.396242 0.259113
1574 4 0.377363 0.352836 0.321112
1573 2 0.382326 0.367677 0.302205
5 3 0.405874 0.381966 0.27395
1575 4 0.387288 0.382517 0.283298
3 3 0.429465 0.407863 0.26944
776 4 0.0166886 0.472309 0.253009
374 4 0.115192 0.435371 0.309533
373 2 0.129145 0.453855 0.313534
375 4 0.143098 0.472339 0.317535
2874 4 0.177573 0.456407 0.258241
3696 4 0.191291 0.468478 0.261513
1337 4 0.257827 0.49468 0.323253
3694 2 0.21461 0.470672 0.253563
1158 4 0.436499 0.450787 0.260511
1803 4 0.431368 0.469788 0.255116
1801 2 0.437096 0.492957 0.258581
1156 2 0.460835 0.441314 0.2618
1157 4 0.48517 0.431841 0.263089
162 3 0.00722573 0.0787273 0.380213
165 3 0.0208933 0.0773263 0.345441
2644 2 0.0489172 0.0712884 0.41292
164 3 0.0441923 0.0800691 0.374606
2645 4 0.0578417 0.0779813 0.39091
3475 2 0.0914534 0.0536487 0.339644
3476 4 0.114376 0.0585716 0.346409
1244 4 0.131845 0.0665508 0.347453
1243 2 0.156471 0.0686859 0.346796
1245 4 0.181097 0.070821 0.346139
2665 2 0.222891 0.0773108 0.351105
2667 4 0.200257 0.069504 0.353333
1377 4 0.264802 0.0825535 0.340947
1060 2 0.278666 0.0313744 0.413187
1062 4 0.297709 0.0393931 0.400638
2666 4 0.245526 0.0851176 0.348878
1061 4 0.259623 0.0233558 0.425735
1057 2 0.371521 0.0178763 0.347411
1058 4 0.384119 0.037744 0.347535
1523 4 0.397189 0.0491757 0.341929
4238 4 0.453733 0.0321926 0.420332
3850 2 0.496776 0.0347727 0.417785
161 1 0.0227193 0.0863846 0.366119
163 3 0.0183888 0.109518 0.364897
367 2 0.0226397 0.164293 0.397698
369 4 0.0141299 0.162675 0.374319
426 4 0.0766592 0.0844989 0.393216
424 2 0.0979833 0.088309 0.404817
425 4 0.119307 0.0921191 0.416418
2892 4 0.430754 0.134713 0.332397
2890 2 0.451754 0.143981 0.339199
2891 4 0.472754 0.153249 0.346
2580 4 0.492468 0.158111 0.34778
473 4 0.00994575 0.171288 0.356348
472 2 0.0211758 0.185699 0.34067
726 4 0.0924921 0.211501 0.368816
724 2 0.111789 0.223979 0.363171
725 4 0.131086 0.236458 0.357527
2510 4 0.405841 0.229035 0.404581
873 4 0.3875 0.231831 0.412532
2509 2 0.429259 0.235077 0.402895
2525 4 0.446571 0.24286 0.338415
2511 4 0.452678 0.241119 0.401208
2958 4 0.47304 0.233434 0.40203
2956 2 0.496374 0.239235 0.398668
119 3 0.125444 0.293819 0.350274
116 1 0.129765 0.273874 0.338543
120 3 0.133463 0.256406 0.353085
372 4 0.133816 0.311562 0.35229
370 2 0.146635 0.320192 0.371168
371 4 0.159453 0.328821 0.390046
2613 4 0.164625 0.323856 0.409667
2529 4 0.405076 0.328354 0.389399
2527 2 0.424157 0.311172 0.396191
2528 4 0.443238 0.29399 0.402983
2524 2 0.469235 0.250483 0.341162
2526 4 0.491898 0.258106 0.343909
2831 4 0.482766 0.298901 0.410428
2830 2 0.477476 0.292806 0.386953
2832 4 0.472187 0.28671 0.363479
453 4 0.500673 0.305614 0.405112
260 4 0.0706968 0.365562 0.410813
1028 4 0.251942 0.399357 0.410157
2499 4 0.387993 0.353076 0.337252
2497 2 0.400159 0.348283 0.358907
2498 4 0.412325 0.343489 0.380562
2711 4 0.109893 0.420867 0.403326
2710 2 0.0902668 0.427477 0.418468
548 4 0.203978 0.481808 0.365563
547 2 0.219407 0.499164 0.362215
1171 2 0.416869 0.421129 0.417632
1173 4 0.431513 0.438665 0.41204
2928 4 0.483712 0.433041 0.369642
2646 4 0.0399927 0.0645955 0.434931
684 4 0.248397 0.00893824 0.433844
4239 4 0.409478 0.0173427 0.432464
3746 4 0.401213 0.00672004 0.444542
2504 4 0.421403 0.0469781 0.455123
2503 2 0.426868 0.0633076 0.472472
4237 2 0.431605 0.0247677 0.426398
2505 4 0.432332 0.079637 0.48982
3851 4 0.474569 0.0288347 0.425652
7 3 0.0121447 0.145892 0.464415
10 3 0.0352696 0.159031 0.439846
6 1 0.0331875 0.142363 0.454772
9 3 0.0356254 0.121866 0.443898
8 3 0.0493642 0.142324 0.471412
368 4 0.0311494 0.165911 0.421076
2484 4 0.0679057 0.142746 0.467147
2482 2 0.0921825 0.146338 0.466978
2483 4 0.116459 0.14993 0.466808
2916 4 0.136887 0.0910727 0.427203
2801 4 0.135413 0.154368 0.467465
2914 2 0.159195 0.0918579 0.438262
2800 2 0.15965 0.157039 0.463769
2915 4 0.181504 0.0926431 0.449322
2802 4 0.183888 0.159709 0.460073
1968 4 0.202012 0.092001 0.453611
1966 2 0.225119 0.0941952 0.462165
1967 4 0.248226 0.0963895 0.47072
3620 4 0.268106 0.0992941 0.473374
3619 2 0.292003 0.10267 0.47802
3621 4 0.315899 0.106046 0.482666
576 4 0.333695 0.111268 0.489494
574 2 0.358828 0.109768 0.490501
575 4 0.383961 0.108267 0.491508
88 3 0.436811 0.0979414 0.484
89 3 0.402898 0.1141 0.497088
86 1 0.426044 0.1116 0.500462
90 3 0.433585 0.131964 0.500084
410 4 0.0773033 0.190314 0.450966
409 2 0.0983789 0.199084 0.443566
411 4 0.119455 0.207853 0.436165
3059 4 0.0961802 0.252339 0.461813
764 4 0.202843 0.164238 0.459118
3461 4 0.140411 0.207786 0.435256
3460 2 0.164543 0.211249 0.43227
3497 4 0.208863 0.212771 0.43538
3462 4 0.188675 0.214712 0.429284
763 2 0.22735 0.166842 0.458071
765 4 0.251857 0.169445 0.457024
2684 4 0.270559 0.171932 0.453567
3496 2 0.231273 0.221165 0.436938
3498 4 0.253683 0.229558 0.438496
3081 4 0.271374 0.235251 0.442418
2683 2 0.29346 0.174875 0.444942
3079 2 0.29623 0.233176 0.438371
3080 4 0.321087 0.2311 0.434324
2685 4 0.316361 0.177818 0.436316
871 2 0.363495 0.231367 0.419303
2586 4 0.336789 0.17198 0.440096
872 4 0.339491 0.230903 0.426075
2584 2 0.360556 0.176469 0.436615
2585 4 0.384322 0.180958 0.433135
939 4 0.399329 0.183369 0.44597
937 2 0.423981 0.18141 0.451083
938 4 0.448632 0.179451 0.456197
2560 2 0.00183376 0.326091 0.439615
305 4 0.998371 0.277844 0.465521
304 2 0.0186178 0.267825 0.45264
306 4 0.0388643 0.257806 0.439759
2561 4 0.0232398 0.330166 0.450902
3060 4 0.0499887 0.271629 0.44697
3455 4 0.0397872 0.333485 0.460432
3058 2 0.0730845 0.261984 0.454392
311 4 0.108712 0.253523 0.478947
310 2 0.129187 0.263466 0.486192
2847 4 0.193542 0.328873 0.484523
2611 2 0.145771 0.329886 0.425862
312 4 0.149662 0.273409 0.493437
442 2 0.192055 0.276077 0.499448
444 4 0.215656 0.281768 0.498867
2550 4 0.23014 0.268348 0.489875
2548 2 0.25474 0.270377 0.49157
2549 4 0.27934 0.272405 0.493264
3454 2 0.0609432 0.341578 0.468588
3456 4 0.0820992 0.34967 0.476745
261 4 0.109986 0.337724 0.432107
259 2 0.0903416 0.351643 0.42146
239 4 0.101658 0.351813 0.479564
2612 4 0.126916 0.335917 0.442057
238 2 0.118453 0.364287 0.468143
240 4 0.135247 0.37676 0.456722
2636 4 0.155113 0.376901 0.460285
2635 2 0.178172 0.382181 0.454502
2637 4 0.201232 0.38746 0.448719
1027 2 0.23269 0.399709 0.426163
1029 4 0.213439 0.400061 0.442169
1172 4 0.402225 0.403592 0.423224
3642 4 0.00423433 0.426894 0.43482
1643 4 0.00942629 0.49897 0.494775
3640 2 0.0276637 0.432987 0.43599
3641 4 0.0510931 0.43908 0.43716
2712 4 0.0706408 0.434087 0.43361
2741 4 0.416007 0.473667 0.442001
2740 2 0.412043 0.495805 0.43043
965 4 0.0188146 0.128828 0.582688
918 4 0.157415 0.108019 0.567057
916 2 0.178357 0.118879 0.569804
3237 4 0.211596 0.142518 0.578989
917 4 0.199299 0.12974 0.572551
3235 2 0.234332 0.149903 0.575971
3236 4 0.257069 0.157289 0.572953
858 4 0.34321 0.130126 0.576104
87 3 0.430772 0.10178 0.520976
2490 4 0.445509 0.102898 0.534522
3179 4 0.434807 0.156117 0.539009
3178 2 0.409611 0.158925 0.539844
3180 4 0.384415 0.161732 0.540679
2812 2 0.463811 0.161858 0.518877
2488 2 0.468809 0.0952744 0.54285
1211 4 0.495596 0.133935 0.506071
2489 4 0.49211 0.0876509 0.551178
2814 4 0.484277 0.152301 0.506058
1284 4 0.266634 0.16956 0.5622
1282 2 0.282804 0.186398 0.560051
1283 4 0.298974 0.203236 0.557901
2241 4 0.370311 0.223783 0.56914
2239 2 0.372557 0.201759 0.557318
2240 4 0.374804 0.179735 0.545497
1154 4 0.380985 0.237689 0.573604
2813 4 0.443346 0.171414 0.531695
3043 2 0.17543 0.323739 0.563555
3044 4 0.169549 0.324105 0.539244
443 4 0.168455 0.270386 0.50003
2845 2 0.178628 0.333348 0.504516
348 4 0.998117 0.408167 0.516399
2846 4 0.163715 0.337822 0.52451
539 4 0.311184 0.39155 0.561567
3369 4 0.322609 0.40645 0.555297
3367 2 0.347126 0.408844 0.553568
538 2 0.292124 0.393281 0.57792
1281 4 0.387289 0.41423 0.538231
1279 2 0.411105 0.410151 0.530088
3368 4 0.371644 0.411239 0.551839
1280 4 0.434922 0.406071 0.521945
878 4 0.454843 0.405744 0.516682
1206 4 0.0759796 0.497692 0.57781
1446 4 0.314738 0.476393 0.544638
1444 2 0.330941 0.477908 0.525825
1445 4 0.347143 0.479423 0.507012
877 2 0.475986 0.416378 0.514511
879 4 0.49713 0.427011 0.512341
3612 4 0.0692461 0.0069494 0.659547
3610 2 0.0937716 0.0095673 0.659398
3611 4 0.118297 0.0121852 0.65925
4503 4 0.138847 0.00602433 0.663572
2283 4 0.264094 0.0112025 0.646283
2281 2 0.288655 0.012098 0.64236
2282 4 0.313217 0.0129936 0.638438
3083 4 0.329015 0.0145462 0.625396
3082 2 0.35375 0.0161464 0.624725
2317 2 0.370151 0.0743879 0.619994
2318 4 0.352968 0.0861754 0.604462
3084 4 0.378485 0.0177467 0.624053
2319 4 0.387335 0.0626005 0.635527
269 4 0.398173 0.0219171 0.618883
950 4 0.390623 0.0787124 0.646171
268 2 0.420868 0.0293925 0.615852
270 4 0.443562 0.0368679 0.61282
3050 4 0.460472 0.0266868 0.606215
3049 2 0.481892 0.0367602 0.608879
2322 4 0.0288187 0.130984 0.599287
2320 2 0.0523995 0.135708 0.59511
2255 4 0.0558555 0.140366 0.649383
1004 4 0.0366647 0.138012 0.653221
1003 2 0.0163725 0.131189 0.664625
2321 4 0.0759803 0.140433 0.590932
2254 2 0.080603 0.140637 0.652686
2256 4 0.10535 0.140909 0.655988
1022 4 0.123228 0.145183 0.651341
1021 2 0.145299 0.14543 0.639654
1023 4 0.167371 0.145677 0.627968
1082 4 0.184318 0.155478 0.633556
1081 2 0.206936 0.163525 0.634207
3265 2 0.318949 0.15808 0.601994
3267 4 0.329307 0.13824 0.588916
856 2 0.33919 0.107575 0.58437
857 4 0.33517 0.0850241 0.592636
3292 2 0.35139 0.131496 0.655352
3294 4 0.333369 0.117311 0.649936
3293 4 0.36941 0.145682 0.660768
3021 4 0.384085 0.141414 0.648652
949 2 0.40275 0.0951492 0.658482
3019 2 0.405174 0.150045 0.641079
3020 4 0.426264 0.158675 0.633506
1083 4 0.229554 0.171572 0.634859
3164 4 0.245129 0.178226 0.644961
3163 2 0.238412 0.189553 0.666625
144 3 0.262418 0.18572 0.639141
141 1 0.285709 0.184922 0.639447
145 3 0.295262 0.168207 0.625853
143 3 0.293686 0.181407 0.661115
142 3 0.291329 0.205027 0.631887
3266 4 0.308591 0.17792 0.615072
1106 4 0.310106 0.210024 0.635778
1105 2 0.335279 0.205694 0.634884
1107 4 0.360451 0.201363 0.633989
1076 4 0.37646 0.210483 0.635087
1075 2 0.385768 0.207211 0.611945
1077 4 0.395076 0.20394 0.588802
1131 4 0.453465 0.220045 0.621483
1129 2 0.474005 0.220947 0.607424
1130 4 0.494545 0.221849 0.593365
3045 4 0.181311 0.323372 0.587865
1640 4 0.148454 0.321656 0.636742
1641 4 0.185422 0.330868 0.605769
1639 2 0.166938 0.326262 0.621255
1153 2 0.394102 0.254244 0.584466
1155 4 0.40722 0.270798 0.595327
806 4 0.401123 0.322929 0.661064
805 2 0.425354 0.322451 0.654674
1257 4 0.422723 0.272877 0.609425
2244 4 0.382134 0.324689 0.666689
1255 2 0.443151 0.275269 0.623184
2242 2 0.358939 0.334984 0.660246
807 4 0.449585 0.321973 0.648285
1256 4 0.46358 0.277661 0.636944
959 4 0.481706 0.275648 0.648786
4215 4 0.237329 0.356505 0.626546
4213 2 0.247298 0.376085 0.617316
4214 4 0.257266 0.395666 0.608087
540 4 0.273064 0.395011 0.594273
997 2 0.341975 0.389589 0.651225
2243 4 0.335744 0.345279 0.653804
999 4 0.322613 0.386065 0.666056
998 4 0.361336 0.393114 0.636394
1041 4 0.382988 0.392206 0.634888
1039 2 0.397624 0.410305 0.637887
978 4 0.455063 0.33916 0.652581
976 2 0.479814 0.336402 0.647825
773 4 0.0230471 0.467751 0.597408
1204 2 0.059573 0.48276 0.585908
1205 4 0.0431664 0.467828 0.594006
4131 4 0.153221 0.490252 0.641403
4300 2 0.242477 0.466911 0.661749
4301 4 0.262541 0.473534 0.649771
1040 4 0.41226 0.428404 0.640886
3125 4 0.00187484 0.0432897 0.740759
1261 2 0.0282015 0.00220079 0.671699
4371 4 0.0193205 0.0389965 0.732062
4369 2 0.0434106 0.0431329 0.730814
4370 4 0.0675008 0.0472693 0.729567
1263 4 0.052849 0.00223326 0.667518
3062 4 0.0828891 0.0566766 0.723635
3061 2 0.0796219 0.0809504 0.717639
1218 4 0.382315 0.0127547 0.749997
2001 4 0.399121 0.0212617 0.743463
1999 2 0.421409 0.023036 0.732742
2000 4 0.443697 0.0248104 0.722022
1146 4 0.488175 0.0266051 0.749426
2091 4 0.477288 0.0125555 0.74309
3063 4 0.0763548 0.105224 0.711644
2978 4 0.260961 0.153928 0.711326
4442 4 0.364615 0.123721 0.71308
4441 2 0.36144 0.146251 0.723921
4443 4 0.358266 0.168781 0.734762
951 4 0.414878 0.111586 0.670793
3250 2 0.0141338 0.219278 0.693795
3251 4 0.0326352 0.232379 0.700528
3146 4 0.0199407 0.165996 0.719323
738 4 0.041345 0.241132 0.715977
1970 4 0.0378808 0.172369 0.717381
1969 2 0.0593505 0.180597 0.710347
736 2 0.0590263 0.242141 0.733496
1971 4 0.0808203 0.188825 0.703313
3383 4 0.0980813 0.195712 0.709367
3382 2 0.122731 0.194398 0.704442
3384 4 0.14738 0.193084 0.699517
3107 4 0.164102 0.199148 0.692234
3106 2 0.187799 0.204543 0.691341
3108 4 0.211496 0.209937 0.690448
3165 4 0.231694 0.200879 0.68829
2977 2 0.275066 0.172346 0.707625
2979 4 0.289172 0.190764 0.703924
1086 4 0.305344 0.200963 0.701315
1084 2 0.327006 0.210814 0.702665
1085 4 0.348667 0.220664 0.704015
897 4 0.367235 0.22781 0.700232
895 2 0.391701 0.230674 0.700401
896 4 0.416167 0.233539 0.700569
3440 4 0.379387 0.199351 0.746465
3439 2 0.403449 0.196627 0.753927
2628 4 0.441644 0.186179 0.750247
2626 2 0.462068 0.197525 0.746138
2627 4 0.482492 0.208871 0.74203
3356 4 0.488735 0.214921 0.723733
3349 2 0.35248 0.281811 0.747828
3351 4 0.375307 0.28774 0.742069
1297 2 0.199866 0.329727 0.742153
4208 4 0.196735 0.403672 0.733329
1298 4 0.215387 0.337427 0.725037
1068 4 0.214523 0.357021 0.727916
1066 2 0.238092 0.360982 0.722489
1067 4 0.261661 0.364943 0.717062
3113 4 0.269881 0.36332 0.699167
1170 4 0.206213 0.418778 0.722954
3114 4 0.304613 0.384786 0.674027
3112 2 0.287247 0.374053 0.686597
4361 4 0.471655 0.399881 0.747826
4360 2 0.494453 0.40325 0.73923
885 4 0.0110823 0.416769 0.683302
4524 4 0.029598 0.421717 0.676476
4522 2 0.0540498 0.424432 0.678068
4523 4 0.0785017 0.427148 0.679661
4446 4 0.0957486 0.435728 0.675469
4444 2 0.120316 0.432074 0.68107
4445 4 0.144884 0.428421 0.686671
2061 4 0.158098 0.441568 0.683592
2059 2 0.18115 0.44857 0.682191
2060 4 0.204202 0.455572 0.68079
4302 4 0.222414 0.460287 0.673727
1168 2 0.228726 0.427027 0.72202
1169 4 0.251239 0.435276 0.721086
1904 4 0.264829 0.429553 0.73728
2063 4 0.140891 0.0125276 0.772534
3041 4 0.0828995 0.0866585 0.789508
2062 2 0.16549 0.0133272 0.768749
2064 4 0.190089 0.0141269 0.764965
3437 4 0.209894 0.0128409 0.765136
3436 2 0.234064 0.00350655 0.768456
3288 4 0.22878 0.0730326 0.831813
2304 4 0.294615 0.0215393 0.821059
3402 4 0.303343 0.0734036 0.776364
3488 4 0.321325 0.000220835 0.758551
3400 2 0.326329 0.0794364 0.781244
3401 4 0.349314 0.0854692 0.786124
3167 4 0.367212 0.0798918 0.791364
1216 2 0.36088 0.00253312 0.751587
3166 2 0.383707 0.0674971 0.775552
3168 4 0.400203 0.0551023 0.759741
3765 4 0.00878244 0.15476 0.767733
1994 4 0.0274383 0.159154 0.765007
1993 2 0.0526446 0.15653 0.76517
1995 4 0.0778508 0.153907 0.765333
3040 2 0.101183 0.0977819 0.778917
1232 4 0.0968886 0.15809 0.765626
3042 4 0.119467 0.108905 0.768326
1050 4 0.137042 0.114421 0.767794
1231 2 0.120314 0.164205 0.764538
1048 2 0.154556 0.117734 0.784887
1049 4 0.17207 0.121048 0.80198
3089 4 0.169316 0.123832 0.822571
3286 2 0.243767 0.0853594 0.817742
3287 4 0.258753 0.0976862 0.80367
1619 4 0.0313943 0.194807 0.799781
1618 2 0.0542989 0.202232 0.799252
780 4 0.0214575 0.185117 0.812706
778 2 0.000597045 0.193079 0.825695
1620 4 0.0772036 0.209656 0.798722
737 4 0.0767076 0.243149 0.751014
58 3 0.0977165 0.201961 0.801198
56 1 0.113439 0.208683 0.815955
60 3 0.131685 0.213982 0.804465
59 3 0.103823 0.227027 0.828188
57 3 0.120202 0.191395 0.830443
1233 4 0.143739 0.170319 0.763449
747 4 0.15088 0.21277 0.79807
745 2 0.172283 0.220619 0.790273
1266 4 0.161368 0.178077 0.762528
746 4 0.193686 0.228468 0.782477
483 4 0.211688 0.235296 0.777905
1264 2 0.186086 0.173267 0.757882
1265 4 0.210804 0.168456 0.753236
481 2 0.234346 0.241618 0.783726
1692 4 0.228853 0.174525 0.754704
1690 2 0.252489 0.179083 0.758871
1691 4 0.276125 0.183642 0.763038
1209 4 0.293628 0.190599 0.769909
1208 4 0.342046 0.190556 0.757379
1207 2 0.317837 0.190578 0.763644
3441 4 0.427512 0.193903 0.761389
1045 2 0.0256325 0.315784 0.823861
1307 4 0.0138103 0.311925 0.791442
1047 4 0.0116105 0.303072 0.8091
1306 2 0.0014571 0.295178 0.779883
2981 4 0.0803155 0.254601 0.766779
2982 4 0.0709652 0.271694 0.813231
2980 2 0.0756403 0.263148 0.790005
839 4 0.0749284 0.259168 0.82888
1299 4 0.184346 0.322027 0.759268
482 4 0.257005 0.247939 0.789548
924 4 0.272066 0.253239 0.778424
3350 4 0.329653 0.275882 0.753587
922 2 0.291247 0.263864 0.768964
923 4 0.310428 0.27449 0.759504
2357 4 0.155448 0.416759 0.805534
4207 2 0.203134 0.393522 0.755607
4209 4 0.209534 0.383372 0.777886
2409 4 0.228488 0.386276 0.772177
2407 2 0.25091 0.38007 0.783106
2408 4 0.273332 0.373865 0.794036
40 3 0.240097 0.416791 0.831149
782 4 0.221088 0.413682 0.832158
1950 4 0.283206 0.367447 0.776716
1948 2 0.306893 0.372841 0.775572
1949 4 0.33058 0.378235 0.774429
1242 4 0.349821 0.38402 0.771834
2031 4 0.402536 0.402077 0.761568
1240 2 0.367581 0.397254 0.763432
1241 4 0.38534 0.410488 0.75503
2029 2 0.427272 0.400248 0.756911
2030 4 0.452008 0.398418 0.752253
1116 4 0.0219814 0.452468 0.824618
2358 4 0.109939 0.440946 0.81653
2356 2 0.132693 0.428852 0.811032
4134 4 0.140698 0.484032 0.833325
3177 4 0.157986 0.473566 0.827772
3026 4 0.166923 0.423129 0.789901
3025 2 0.187959 0.422458 0.803533
3175 2 0.182424 0.476497 0.828545
3176 4 0.206862 0.479429 0.829318
3027 4 0.208995 0.421788 0.817166
137 3 0.221087 0.483237 0.815507
39 3 0.216428 0.43783 0.807982
136 1 0.233654 0.499162 0.807678
36 1 0.238003 0.434593 0.816949
38 3 0.242331 0.453669 0.828271
37 3 0.253325 0.43044 0.79982
139 3 0.249537 0.489194 0.792636
1903 2 0.26709 0.430192 0.762166
4142 4 0.258726 0.494488 0.775723
1905 4 0.269351 0.430831 0.787051
3889 2 0.0101306 0.0355683 0.857672
3891 4 0.0345442 0.0384278 0.859316
4587 4 0.0497911 0.0473784 0.851535
4585 2 0.0709363 0.0581467 0.850555
4122 4 0.139955 0.00128837 0.891615
4586 4 0.0920815 0.0689149 0.849575
44 3 0.110936 0.0713992 0.856738
41 1 0.133507 0.0730695 0.860775
42 3 0.139168 0.0643461 0.881572
876 4 0.15787 0.00565373 0.898187
43 3 0.146852 0.0609827 0.844847
1113 4 0.165198 0.0558065 0.840406
874 2 0.180774 0.0102188 0.905411
1111 2 0.188184 0.0630568 0.840586
875 4 0.203679 0.0147838 0.912635
1112 4 0.211171 0.0703071 0.840766
3254 4 0.305366 0.0257279 0.836075
3253 2 0.290248 0.0466375 0.841925
4264 2 0.243927 0.0754879 0.884942
4265 4 0.254444 0.0556488 0.897926
3255 4 0.27513 0.067547 0.847776
484 2 0.34417 0.0100857 0.887018
486 4 0.355414 0.0304428 0.882794
2277 4 0.374739 0.0218505 0.884267
2275 2 0.388842 0.0403834 0.88126
2276 4 0.402946 0.0589163 0.878253