ITEM: TIMESTEP
2961500
ITEM: NUMBER OF ATOMS
4590
ITEM: BOX BOUNDS xy xz yz pp pp pp
-9.9985700000000008e+00 9.9985700000000008e+00 0.0000000000000000e+00
-9.9985700000000008e+00 9.9985700000000008e+00 0.0000000000000000e+00
-9.9985700000000008e+00 9.9985700000000008e+00 0.0000000000000000e+00
ITEM: ATOMS id type xs ys zs
1372 2 0.0601033 0.0662834 0.0686905
1374 4 0.0743294 0.0477194 0.0775335
1373 4 0.0458771 0.0848474 0.0598475
4161 4 0.0279113 0.0415764 0.995984
581 4 0.0791464 0.998431 0.0959863
580 2 0.084733 0.0225873 0.092761
582 4 0.0903196 0.046744 0.0895357
2703 4 0.304975 0.00538926 0.0767903
2889 4 0.441338 0.0675534 0.0489906
2465 4 0.0301304 0.0863601 0.0721536
353 4 0.250772 0.107876 0.0733055
21 1 0.333724 0.125169 0.0881616
24 3 0.312493 0.134419 0.0896121
22 3 0.33217 0.104519 0.0781455
352 2 0.27196 0.118996 0.0805586
23 3 0.347418 0.13875 0.0752617
2894 4 0.350981 0.13572 0.0559833
2893 2 0.362914 0.129512 0.0349059
2895 4 0.374847 0.123304 0.0138284
3347 4 0.393827 0.130142 0.0168738
3346 2 0.41279 0.144367 0.00892021
2887 2 0.464109 0.0776082 0.0513498
2888 4 0.486881 0.087663 0.053709
3348 4 0.431753 0.158592 0.00096663
277 2 0.070249 0.222965 0.0554666
278 4 0.0518669 0.21202 0.0684083
279 4 0.0886312 0.23391 0.0425249
4470 4 0.103106 0.224037 0.0523295
4468 2 0.126213 0.215052 0.0490854
4469 4 0.149321 0.206067 0.0458413
3216 4 0.16384 0.171016 0.0174031
3214 2 0.169848 0.19469 0.0120529
3215 4 0.175856 0.218365 0.00670266
2599 2 0.282462 0.225239 0.068038
450 4 0.320784 0.228676 0.0558586
2601 4 0.303195 0.237167 0.0607544
2600 4 0.261728 0.213312 0.0753216
914 4 0.384976 0.223663 0.0674121
448 2 0.34494 0.222323 0.0570253
449 4 0.369095 0.215971 0.058192
913 2 0.405508 0.231036 0.0796306
915 4 0.426039 0.238408 0.0918491
2882 4 0.468696 0.234765 0.00289009
770 4 0.117976 0.317359 0.0353209
1119 4 0.106548 0.303501 0.027372
1117 2 0.101109 0.289054 0.00770241
2875 2 0.234139 0.260279 0.061205
2876 4 0.21525 0.262214 0.0449358
3196 2 0.205228 0.301371 0.0389869
3198 4 0.218124 0.281168 0.0461061
3197 4 0.192331 0.321575 0.0318678
933 4 0.190425 0.334235 0.0157135
2877 4 0.253027 0.258344 0.0774743
104 3 0.487737 0.27702 0.0244931
103 3 0.456122 0.258536 0.034657
105 3 0.485785 0.259615 0.0578235
2759 4 0.461238 0.305371 0.0635045
101 1 0.473952 0.271293 0.0422578
2835 4 0.468954 0.31857 0.0509958
2833 2 0.462486 0.322292 0.0271315
102 3 0.465774 0.290544 0.0518312
2758 2 0.441979 0.311742 0.0781226
2763 4 0.450753 0.344624 0.998405
769 2 0.125739 0.336587 0.0213501
771 4 0.133502 0.355816 0.0073792
1120 2 0.12434 0.406609 0.0617873
1121 4 0.147 0.417145 0.0609485
1122 4 0.101679 0.396074 0.062626
3552 4 0.163414 0.426363 0.055595
2834 4 0.456018 0.326013 0.00326719
3543 4 0.504009 0.397347 0.0444518
1466 4 0.502486 0.37808 0.0463756
1674 4 0.0719723 0.522328 0.0737962
3550 2 0.174189 0.427039 0.0781478
242 4 0.281576 0.474478 0.0596064
241 2 0.298332 0.487355 0.0462431
243 4 0.315088 0.500233 0.0328798
1873 2 0.049646 0.0624543 0.153576
1875 4 0.0310556 0.0471471 0.160304
1542 4 0.0395344 0.028858 0.155411
1540 2 0.0334905 0.00797916 0.143053
333 4 0.146531 0.0681103 0.1511
331 2 0.167705 0.0798353 0.157376
1273 2 0.338473 0.0737025 0.0966831
2701 2 0.308334 0.0256548 0.0910458
2702 4 0.311694 0.0459204 0.105301
1274 4 0.330532 0.0512854 0.104403
506 4 0.463788 0.0879466 0.128957
1874 4 0.0682364 0.0777616 0.146848
3677 4 0.0846366 0.0873659 0.141689
2615 4 0.0739022 0.132534 0.0939347
2614 2 0.0520107 0.122265 0.100298
2616 4 0.0301191 0.111996 0.106661
3676 2 0.109145 0.0827144 0.139979
3678 4 0.133653 0.0780628 0.13827
2517 4 0.100576 0.148835 0.14186
2515 2 0.121568 0.161279 0.136415
2930 4 0.161919 0.16243 0.156178
692 4 0.224418 0.0764833 0.126964
691 2 0.230979 0.0899579 0.106949
693 4 0.23754 0.103433 0.0869346
2780 4 0.196678 0.108974 0.157795
354 4 0.293147 0.130116 0.0878117
1275 4 0.346414 0.0961196 0.0889633
25 3 0.342586 0.12275 0.109001
2679 4 0.400918 0.103705 0.138483
810 4 0.352775 0.105609 0.105847
808 2 0.368264 0.10859 0.125248
809 4 0.383752 0.111571 0.144648
2677 2 0.422628 0.0947121 0.129936
2678 4 0.444337 0.0857197 0.121389
505 2 0.487477 0.0802338 0.131086
649 2 0.0136344 0.218922 0.160054
2538 4 0.0373024 0.237856 0.113185
728 4 0.0204335 0.229753 0.106216
2536 2 0.0605306 0.244777 0.107042
2516 4 0.142559 0.173724 0.130969
387 4 0.147461 0.188161 0.118044
2537 4 0.0837588 0.251698 0.100899
2445 4 0.100862 0.244299 0.0953406
743 4 0.211477 0.179194 0.0956232
742 2 0.231113 0.187517 0.0825721
385 2 0.170677 0.188182 0.108759
386 4 0.193893 0.188202 0.0994738
744 4 0.25075 0.19584 0.069521
2520 4 0.246873 0.191909 0.164413
622 2 0.398695 0.188303 0.165045
623 4 0.420393 0.194306 0.154167
491 4 0.495598 0.203318 0.146
845 4 0.445034 0.245028 0.0963688
456 4 0.479327 0.192462 0.14979
455 4 0.432175 0.208821 0.146653
454 2 0.455751 0.200642 0.148221
286 2 0.0726465 0.322118 0.117449
287 4 0.0629804 0.328133 0.0951874
288 4 0.0823125 0.316102 0.13971
250 2 0.0204965 0.330541 0.0984035
2444 4 0.140683 0.262765 0.119301
767 4 0.160636 0.265766 0.126244
2443 2 0.120772 0.253532 0.107321
713 4 0.0880442 0.320587 0.158672
712 2 0.111391 0.32937 0.156945
610 2 0.171691 0.324899 0.146178
766 2 0.184882 0.27144 0.123975
768 4 0.209127 0.277115 0.121706
2094 4 0.228743 0.27926 0.120493
2092 2 0.251856 0.282763 0.111621
612 4 0.196216 0.320917 0.148982
2093 4 0.274968 0.286265 0.10275
528 4 0.290768 0.292105 0.092999
526 2 0.31513 0.295395 0.097568
2860 2 0.312212 0.323638 0.158724
527 4 0.339491 0.298686 0.102137
2651 4 0.358168 0.302945 0.106642
2650 2 0.382758 0.307261 0.105277
2652 4 0.407349 0.311578 0.103913
844 2 0.443559 0.258115 0.117624
2760 4 0.42272 0.318113 0.0927407
846 4 0.442083 0.271202 0.138878
2477 4 0.448805 0.276834 0.157135
2729 4 0.474053 0.328402 0.150421
251 4 0.0438546 0.326925 0.0902481
3229 2 0.066053 0.400117 0.0885849
3230 4 0.0438483 0.405289 0.0988519
3231 4 0.0882577 0.394946 0.078318
611 4 0.147166 0.32888 0.143374
714 4 0.134738 0.338152 0.155219
2799 4 0.199849 0.333994 0.133507
2798 4 0.227823 0.368995 0.111301
2797 2 0.213836 0.351494 0.122404
2862 4 0.302606 0.339049 0.141537
2592 4 0.318638 0.35038 0.137995
678 4 0.30366 0.406187 0.15036
2590 2 0.335741 0.36364 0.12547
676 2 0.281127 0.413674 0.142526
2591 4 0.352844 0.376901 0.112946
2728 2 0.475053 0.34768 0.134529
2730 4 0.476054 0.366957 0.118638
2906 4 0.0350912 0.413741 0.114681
2905 2 0.0116546 0.421271 0.119063
2163 4 0.100532 0.488931 0.12599
2161 2 0.0909128 0.473569 0.143214
1672 2 0.0812283 0.507309 0.0915148
3551 4 0.184965 0.427714 0.100701
3819 4 0.20264 0.427002 0.110868
3817 2 0.226283 0.419928 0.114891
677 4 0.258593 0.421161 0.134692
3818 4 0.249925 0.412855 0.118913
228 4 0.371667 0.494977 0.132079
1785 4 0.0316193 0.0198415 0.241652
1611 4 0.018991 0.0063134 0.235132
332 4 0.188879 0.0915603 0.163652
2756 4 0.368637 0.0531469 0.197559
2755 2 0.38886 0.0678453 0.19797
786 4 0.357778 0.0366911 0.201893
784 2 0.369704 0.0152534 0.197058
2757 4 0.409084 0.0825436 0.198381
606 4 0.416878 0.0885709 0.244388
750 4 0.0552415 0.127494 0.163816
748 2 0.0313143 0.123792 0.170058
1479 4 0.0687002 0.139906 0.173925
1477 2 0.0900417 0.146064 0.185406
2929 2 0.162232 0.149225 0.177409
2931 4 0.162545 0.136021 0.198639
418 2 0.157408 0.134295 0.241534
419 4 0.163255 0.132674 0.217278
2779 2 0.217874 0.107549 0.17098
2781 4 0.23907 0.106123 0.184166
1566 4 0.251616 0.102819 0.199442
1564 2 0.262602 0.12502 0.196037
1565 4 0.273588 0.147222 0.192632
458 4 0.293225 0.161518 0.223893
457 2 0.31586 0.16384 0.234258
2519 4 0.275004 0.151561 0.173442
459 4 0.338496 0.166163 0.244623
604 2 0.432925 0.107633 0.246466
605 4 0.448972 0.126695 0.248544
2880 4 0.451635 0.1281 0.228575
2878 2 0.463675 0.132148 0.207037
2879 4 0.475715 0.136196 0.1855
651 4 0.0372991 0.212447 0.164875
3159 4 0.046512 0.217036 0.182186
3157 2 0.0610262 0.231056 0.19695
3158 4 0.0755404 0.245076 0.211714
1478 4 0.111383 0.152222 0.196887
579 4 0.0875418 0.258881 0.20586
2777 4 0.143044 0.214369 0.208713
2778 4 0.120069 0.170189 0.204129
2776 2 0.131557 0.192279 0.206421
2453 4 0.160985 0.220539 0.215844
1198 2 0.230667 0.221603 0.184837
510 4 0.216286 0.203487 0.248056
1200 4 0.224105 0.233884 0.205604
2454 4 0.204886 0.239828 0.201652
2452 2 0.182936 0.230183 0.208748
1199 4 0.237229 0.209322 0.164069
2518 2 0.260939 0.171735 0.168927
522 4 0.328492 0.164398 0.175908
521 4 0.368236 0.187828 0.1952
624 4 0.376997 0.182299 0.175924
520 2 0.348364 0.176113 0.185554
730 2 0.421309 0.212023 0.209775
732 4 0.398353 0.221403 0.206582
731 4 0.444266 0.202644 0.212969
2673 4 0.509107 0.201179 0.216233
2672 4 0.461233 0.214989 0.211981
2671 2 0.48517 0.208084 0.214107
716 4 0.0650386 0.273633 0.238554
3831 4 0.0541582 0.295222 0.192048
3829 2 0.0507571 0.316705 0.20438
577 2 0.108583 0.270601 0.212575
578 4 0.129624 0.282321 0.219291
236 4 0.142209 0.288952 0.20573
235 2 0.161503 0.30152 0.215477
2968 2 0.215314 0.285876 0.223507
2969 4 0.198751 0.304145 0.21937
237 4 0.180797 0.314087 0.225223
2970 4 0.231876 0.267607 0.227645
2853 4 0.246694 0.273627 0.217785
2851 2 0.269725 0.281138 0.211596
2852 4 0.292757 0.28865 0.205407
2861 4 0.321818 0.308227 0.175912
2951 4 0.501417 0.266719 0.176148
2476 2 0.469185 0.278222 0.171553
337 2 0.418137 0.330879 0.240169
2478 4 0.489566 0.27961 0.185971
3696 4 0.0433765 0.354529 0.228313
3830 4 0.0473561 0.338189 0.216713
3600 4 0.114272 0.406699 0.185835
3921 4 0.132398 0.398623 0.189317
3919 2 0.154402 0.406792 0.1807
4005 4 0.307402 0.413436 0.169495
1856 4 0.319151 0.410895 0.227967
4004 4 0.324221 0.398248 0.214073
4003 2 0.315812 0.405842 0.191784
338 4 0.436982 0.339832 0.226387
291 4 0.457012 0.337159 0.223211
289 2 0.459383 0.361839 0.219977
290 4 0.461753 0.386519 0.216743
2162 4 0.081294 0.458207 0.160437
3935 4 0.0824735 0.426274 0.231596
3599 4 0.0869147 0.447486 0.176408
3598 2 0.100593 0.427093 0.181122
4511 4 0.195714 0.486278 0.175039
3920 4 0.176407 0.41496 0.172083
1544 4 0.199216 0.4778 0.192474
1545 4 0.179992 0.434698 0.175938
1543 2 0.189604 0.456249 0.184206
1783 2 0.0350702 0.0361726 0.260268
1784 4 0.038521 0.0525037 0.278884
1127 4 0.43272 0.0379646 0.30847
3809 4 0.421173 0.0732329 0.257535
3808 2 0.425526 0.0542511 0.273217
3810 4 0.429879 0.0352692 0.288899
1126 2 0.423851 0.0145988 0.309212
1703 4 0.0870359 0.14654 0.263727
420 4 0.151561 0.135916 0.265791
1702 2 0.103132 0.131997 0.276161
530 4 0.116321 0.11952 0.307988
1704 4 0.119228 0.117455 0.288595
529 2 0.130537 0.111458 0.326911
257 4 0.170283 0.13981 0.273546
256 2 0.178811 0.128341 0.294063
164 3 0.181702 0.106034 0.330671
515 4 0.204206 0.128266 0.314386
514 2 0.22355 0.139741 0.325309
258 4 0.187338 0.116873 0.31458
2483 4 0.259291 0.140923 0.341114
2482 2 0.278746 0.155512 0.335297
2484 4 0.298201 0.170101 0.32948
400 2 0.389068 0.161501 0.321214
1191 4 0.349871 0.149061 0.325026
402 4 0.369398 0.146417 0.31794
589 2 0.0103286 0.197443 0.30753
591 4 0.0285969 0.207397 0.29366
404 4 0.0446811 0.218546 0.289202
403 2 0.0673788 0.227518 0.294634
405 4 0.0900765 0.23649 0.300066
536 4 0.138218 0.24102 0.282651
29 3 0.119061 0.244339 0.277964
535 2 0.1462 0.220844 0.270224
537 4 0.154182 0.200669 0.257798
30 3 0.102625 0.247172 0.31172
508 2 0.19297 0.19551 0.252289
509 4 0.169654 0.187533 0.256523
1395 4 0.266484 0.213231 0.306743
1032 4 0.253631 0.24608 0.321553
1393 2 0.281377 0.232522 0.301153
1190 4 0.311371 0.179807 0.316472
1189 2 0.330621 0.164434 0.320749
1749 4 0.352814 0.167826 0.25696
1747 2 0.376441 0.171135 0.264447
1748 4 0.400067 0.174444 0.271933
180 3 0.399103 0.193539 0.277484
2789 4 0.414529 0.232311 0.274011
284 4 0.49827 0.168024 0.284601
177 3 0.42148 0.220915 0.289433
179 3 0.412037 0.193066 0.312841
176 1 0.416928 0.198407 0.290797
178 3 0.43557 0.186542 0.28372
285 4 0.453873 0.190246 0.290585
283 2 0.476071 0.179135 0.287593
715 2 0.0764672 0.281704 0.259277
2700 4 0.0104181 0.27536 0.305528
2698 2 0.0241437 0.291016 0.319373
717 4 0.0878958 0.289775 0.28
479 4 0.0580064 0.3031 0.335782
726 4 0.147096 0.257777 0.291535
27 3 0.133958 0.266186 0.304676
26 1 0.114223 0.258481 0.295713
28 3 0.101797 0.276598 0.288246
724 2 0.170248 0.262313 0.299818
1030 2 0.232844 0.2592 0.316977
725 4 0.193399 0.266848 0.308101
1031 4 0.212056 0.272319 0.3124
374 4 0.234606 0.315571 0.290834
373 2 0.217683 0.326409 0.30571
375 4 0.200759 0.337247 0.320586
1394 4 0.29627 0.251813 0.295563
2753 4 0.311087 0.259199 0.2825
2788 2 0.395156 0.24788 0.271273
2790 4 0.375784 0.263449 0.268535
2754 4 0.355993 0.26856 0.262585
2752 2 0.33354 0.263879 0.272543
2554 2 0.396798 0.319034 0.294531
339 4 0.399292 0.321927 0.25395
2556 4 0.402426 0.313006 0.270927
570 4 0.407889 0.328395 0.327845
3694 2 0.032232 0.363568 0.24879
3403 2 0.00626173 0.403153 0.296838
3695 4 0.0210875 0.372608 0.269266
3405 4 0.0182435 0.385351 0.284004
261 4 0.0777719 0.400843 0.287712
3934 2 0.085754 0.411692 0.25164
259 2 0.0878207 0.395345 0.309938
3936 4 0.0890346 0.39711 0.271684
1855 2 0.317926 0.412235 0.252905
1857 4 0.316702 0.413575 0.277843
1187 4 0.31372 0.407517 0.297141
1186 2 0.317485 0.426627 0.312819
2555 4 0.391171 0.325062 0.318136
3988 2 0.0163619 0.451051 0.256917
3989 4 0.0373651 0.438935 0.26302
2826 4 0.0667854 0.477793 0.273779
1676 4 0.0777167 0.466269 0.261336
2824 2 0.0489659 0.495271 0.275261
1675 2 0.101961 0.472237 0.262675
1677 4 0.126206 0.478204 0.264015
4025 4 0.134044 0.491007 0.250749
4024 2 0.156005 0.495071 0.261991
4026 4 0.177967 0.499136 0.273232
2531 4 0.232316 0.507745 0.34862
1188 4 0.32125 0.445738 0.328497
1802 4 0.339392 0.448453 0.322625
1803 4 0.383962 0.470002 0.315558
669 4 0.393871 0.462837 0.332271
1801 2 0.361677 0.459227 0.319091
667 2 0.416679 0.457168 0.323735
1437 4 0.490674 0.42846 0.317905
668 4 0.439487 0.451499 0.315199
1435 2 0.467429 0.434286 0.325038
1436 4 0.444183 0.440113 0.332172
2901 4 0.0200326 0.0125556 0.421936
425 4 0.0285847 0.0470371 0.334566
424 2 0.0435482 0.0286723 0.342567
426 4 0.0585118 0.0103075 0.350567
3174 4 0.000390022 0.00772866 0.42272
2645 4 0.0694011 0.0119697 0.367422
2644 2 0.092833 0.0206686 0.366748
2646 4 0.116265 0.0293675 0.366074
2663 4 0.126491 0.0354345 0.383211
2662 2 0.150513 0.0416329 0.386335
635 4 0.153995 0.0920601 0.359382
721 2 0.246022 0.0690974 0.34053
163 3 0.172159 0.0823786 0.358844
2664 4 0.174534 0.0478314 0.389459
1967 4 0.193065 0.0505857 0.396345
1966 2 0.205066 0.0487733 0.418205
4123 2 0.272154 0.997272 0.409372
1350 4 0.282962 0.067879 0.339954
723 4 0.267784 0.0632875 0.329673
1349 4 0.318181 0.0529065 0.372143
1348 2 0.300572 0.0603927 0.356048
618 4 0.354281 0.998277 0.392498
706 2 0.404034 0.0490525 0.359454
708 4 0.384725 0.0331791 0.360082
617 4 0.375639 0.018624 0.352117
616 2 0.36496 0.00845048 0.372307
707 4 0.423342 0.064926 0.358825
3031 2 0.0125018 0.133961 0.392537
3033 4 0.0292022 0.130697 0.374217
2685 4 0.0461953 0.139533 0.370628
2683 2 0.0675925 0.148922 0.379527
636 4 0.127373 0.104497 0.399845
531 4 0.144753 0.103396 0.345835
634 2 0.140684 0.0982787 0.379614
2892 4 0.115976 0.11224 0.415314
722 4 0.224261 0.0749073 0.351387
516 4 0.242894 0.151216 0.336233
165 3 0.20835 0.0876602 0.349906
161 1 0.187945 0.0976638 0.351392
162 3 0.189112 0.115062 0.366396
683 4 0.328172 0.133077 0.416151
2713 2 0.407741 0.12835 0.383541
2715 4 0.384052 0.12476 0.390691
684 4 0.371254 0.112628 0.401098
682 2 0.349713 0.122853 0.408625
2714 4 0.431431 0.131939 0.376392
1953 4 0.456429 0.149112 0.380302
1951 2 0.472758 0.161041 0.395009
2955 4 0.445892 0.164222 0.373737
765 4 0.104314 0.16095 0.401566
2684 4 0.0889897 0.158311 0.388426
763 2 0.127345 0.168657 0.407513
764 4 0.150375 0.176365 0.413461
8 3 0.26578 0.235401 0.334462
7 3 0.257642 0.23945 0.370932
6 1 0.272948 0.230866 0.35606
10 3 0.27459 0.208361 0.359137
9 3 0.293526 0.240896 0.359847
401 4 0.408738 0.176586 0.324488
2957 4 0.343061 0.176911 0.397241
2956 2 0.353173 0.191124 0.379327
2958 4 0.363285 0.205337 0.361412
2180 4 0.365483 0.225058 0.361807
2954 4 0.41029 0.182506 0.343755
1952 4 0.489086 0.17297 0.409716
2817 4 0.494667 0.187095 0.422761
2953 2 0.428091 0.173364 0.358746
2699 4 0.0378692 0.306672 0.333218
478 2 0.0746893 0.307018 0.35399
480 4 0.0913722 0.310936 0.372198
3462 4 0.0981552 0.327096 0.380506
3460 2 0.090926 0.336854 0.402362
1034 4 0.19804 0.314913 0.394811
1033 2 0.183047 0.299259 0.407276
3317 4 0.319611 0.32912 0.373913
3455 4 0.261626 0.31635 0.415299
3316 2 0.336479 0.330058 0.35548
2179 2 0.3779 0.244092 0.372235
2181 4 0.390317 0.263126 0.382662
568 2 0.396424 0.333606 0.349446
366 4 0.431346 0.268059 0.414843
2611 2 0.00644045 0.350514 0.345095
2612 4 0.0255347 0.337899 0.355167
260 4 0.0978696 0.389847 0.332163
593 4 0.142217 0.376382 0.379509
594 4 0.116483 0.38574 0.337667
592 2 0.12935 0.381061 0.358588
3461 4 0.0836969 0.346613 0.424217
411 4 0.157803 0.363973 0.374199
410 4 0.190475 0.326523 0.379756
409 2 0.174139 0.345248 0.376977
894 4 0.382465 0.35241 0.384934
3318 4 0.353347 0.330996 0.337046
569 4 0.38496 0.338817 0.371047
893 4 0.354996 0.386618 0.408935
892 2 0.36873 0.369514 0.396934
549 4 0.498388 0.362239 0.392554
812 4 0.48912 0.376233 0.404189
1419 4 0.135572 0.487584 0.362633
1417 2 0.15728 0.490307 0.350528
1418 4 0.178989 0.493031 0.338424
2532 4 0.190855 0.479797 0.347807
2530 2 0.211585 0.493771 0.348213
4322 4 0.284163 0.462238 0.371861
2691 4 0.282556 0.482034 0.36442
4321 2 0.301807 0.450435 0.385073
2689 2 0.266893 0.497104 0.352061
447 4 0.309423 0.42789 0.412606
4323 4 0.319451 0.438632 0.398286
2899 2 0.0431478 0.00311005 0.423212
2900 4 0.0662631 0.993664 0.424488
2580 4 0.0723689 0.0808145 0.450983
3796 2 0.100558 0.0036828 0.448415
3798 4 0.118985 0.0146139 0.461303
1490 4 0.136119 0.00437951 0.456048
2891 4 0.0778298 0.0841554 0.43134
1968 4 0.217067 0.046961 0.440066
220 3 0.208633 0.0559918 0.48684
218 3 0.205798 0.0615377 0.449707
219 3 0.239615 0.0543805 0.465506
216 1 0.219025 0.0646461 0.468517
2501 4 0.235821 0.0501336 0.44546
4125 4 0.273935 0.0219407 0.413046
2502 4 0.278497 0.0385369 0.422113
2500 2 0.257159 0.0443353 0.433787
4551 4 0.304095 0.0680866 0.487915
4340 4 0.293641 0.0565472 0.498896
4549 2 0.327114 0.0724487 0.49665
88 3 0.3503 0.0103765 0.489957
90 3 0.378539 0.00613177 0.465417
4550 4 0.350133 0.0768109 0.505385
2578 2 0.0711901 0.0926223 0.472992
2579 4 0.0700113 0.10443 0.495
983 4 0.0582355 0.109988 0.511664
2890 2 0.0969031 0.0981977 0.423327
217 3 0.222342 0.0871946 0.471631
2558 4 0.231458 0.104399 0.471931
2557 2 0.253177 0.116646 0.473791
2559 4 0.274897 0.128894 0.475652
1061 4 0.28605 0.139562 0.461903
1060 2 0.304698 0.131334 0.447421
1062 4 0.323347 0.123106 0.432939
3327 4 0.0278896 0.200773 0.479196
2802 4 0.162785 0.161845 0.413238
939 4 0.242521 0.180781 0.476465
937 2 0.222303 0.188991 0.464259
2800 2 0.178381 0.178557 0.42337
2801 4 0.193977 0.19527 0.433501
938 4 0.202085 0.1972 0.452053
3236 4 0.18344 0.169155 0.490568
641 4 0.301016 0.170941 0.454029
3081 4 0.319368 0.179429 0.455742
642 4 0.260219 0.188314 0.477149
640 2 0.280617 0.179628 0.465589
2527 2 0.3326 0.251156 0.430784
3080 4 0.34897 0.173768 0.415836
3079 2 0.334169 0.176599 0.435789
2528 4 0.355068 0.251592 0.41982
1035 4 0.168055 0.283606 0.419741
3454 2 0.251024 0.333288 0.430329
585 4 0.263752 0.297015 0.417672
583 2 0.280595 0.280571 0.426102
2529 4 0.310132 0.25072 0.441748
584 4 0.297438 0.264126 0.434532
2495 4 0.423371 0.25173 0.422619
2494 2 0.398464 0.251653 0.424819
2496 4 0.373557 0.251575 0.427018
364 2 0.438808 0.29107 0.421169
365 4 0.44627 0.31408 0.427494
3056 4 0.465456 0.318393 0.423575
3055 2 0.48972 0.32379 0.420862
311 4 0.0499822 0.328115 0.472873
310 2 0.0588364 0.340597 0.453099
312 4 0.0676907 0.353079 0.433325
662 4 0.227249 0.357015 0.460169
661 2 0.206594 0.359163 0.474097
3456 4 0.240422 0.350226 0.445359
663 4 0.18594 0.361312 0.488025
2560 2 0.302708 0.401603 0.486079
2562 4 0.310884 0.38207 0.499375
346 2 0.385042 0.383121 0.480565
347 4 0.399791 0.400987 0.489969
348 4 0.370292 0.365255 0.471161
3594 4 0.389408 0.324384 0.506737
811 2 0.475027 0.383257 0.423611
267 4 0.419316 0.402026 0.489894
265 2 0.43853 0.394042 0.476029
813 4 0.460933 0.390281 0.443032
266 4 0.457745 0.386057 0.462164
1173 4 0.0473238 0.462786 0.443378
1171 2 0.0267225 0.461694 0.457506
1172 4 0.00612125 0.460601 0.471634
560 4 0.0596163 0.471888 0.455354
1451 4 0.165948 0.415625 0.453981
1450 2 0.14119 0.419103 0.454346
1452 4 0.116432 0.42258 0.454711
3421 2 0.134306 0.491526 0.473846
2549 4 0.106282 0.428617 0.471464
559 2 0.0842207 0.470987 0.459713
3422 4 0.125779 0.468057 0.475142
561 4 0.108825 0.470085 0.464072
2548 2 0.102337 0.422081 0.495274
2927 4 0.174719 0.433269 0.459794
2926 2 0.19533 0.436074 0.473669
2648 4 0.233189 0.432997 0.500728
2928 4 0.215942 0.43888 0.487544
2647 2 0.252127 0.44928 0.50192
446 4 0.310535 0.420165 0.462002
2561 4 0.294532 0.421136 0.472783
445 2 0.309979 0.424027 0.437304
2961 4 0.357419 0.496502 0.475206
4057 2 0.369979 0.461173 0.438904
1644 4 0.39894 0.488266 0.418768
4059 4 0.351353 0.449449 0.450768
4058 4 0.388606 0.472898 0.427039
2314 2 0.0498565 0.0470954 0.562524
2316 4 0.0300899 0.0359036 0.552075
2315 4 0.0696231 0.0582872 0.572974
2553 4 0.146716 0.0718019 0.558491
2196 4 0.0869452 0.0649597 0.567244
2551 2 0.171274 0.0678271 0.555978
2194 2 0.109039 0.0719963 0.557887
4326 4 0.192059 0.996027 0.541257
917 4 0.202276 0.999548 0.524053
916 2 0.220431 0.0166642 0.52244
918 4 0.238587 0.0337807 0.520827
2552 4 0.195831 0.0638523 0.553466
762 4 0.210502 0.0568109 0.541092
1143 4 0.311877 0.0123468 0.534822
1141 2 0.325777 0.00333863 0.516091
4341 4 0.257518 0.0295843 0.52055
4339 2 0.27558 0.0430658 0.509723
2505 4 0.382338 0.0213188 0.529316
574 2 0.41807 0.0116759 0.521879
575 4 0.393826 0.00592201 0.519803
2504 4 0.354873 0.062117 0.520263
2503 2 0.368606 0.0417179 0.524789
3621 4 0.451456 0.00933879 0.540542
3619 2 0.459759 0.0264491 0.556774
3620 4 0.468063 0.0435595 0.573006
576 4 0.442314 0.0174298 0.523955
982 2 0.0510339 0.133931 0.511499
984 4 0.0438323 0.157874 0.511333
2195 4 0.131132 0.0790329 0.54853
3001 2 0.166405 0.149934 0.577631
3003 4 0.143809 0.147037 0.587937
760 2 0.227019 0.0751138 0.545263
761 4 0.243535 0.0934166 0.549433
319 2 0.199479 0.149894 0.527019
320 4 0.210588 0.137434 0.545634
3062 4 0.206377 0.143724 0.563669
3002 4 0.189001 0.15283 0.567325
321 4 0.188371 0.162354 0.508404
3021 4 0.260798 0.104063 0.552675
3019 2 0.280236 0.119048 0.557447
3020 4 0.299675 0.134033 0.562218
1107 4 0.318874 0.139116 0.567192
2317 2 0.316392 0.16762 0.537918
2319 4 0.335988 0.153957 0.530536
1105 2 0.340741 0.127448 0.570494
3385 2 0.401877 0.135521 0.578642
2244 4 0.476198 0.10229 0.575466
2242 2 0.453508 0.112269 0.578752
806 4 0.486741 0.0929005 0.560917
3386 4 0.42561 0.142504 0.582273
2243 4 0.430818 0.122247 0.582038
965 4 0.0630051 0.189079 0.547355
2322 4 0.0820071 0.192938 0.542201
964 2 0.0661491 0.174441 0.567381
3326 4 0.0313245 0.170962 0.5192
3419 4 0.0800227 0.229568 0.554259
3325 2 0.0296071 0.185868 0.499198
2320 2 0.105543 0.191417 0.533899
2321 4 0.129079 0.189895 0.525597
3235 2 0.161909 0.178389 0.499306
3237 4 0.140378 0.187624 0.508043
3418 2 0.0945343 0.249865 0.555893
1283 4 0.188671 0.22612 0.565045
1282 2 0.203308 0.206864 0.558706
1284 4 0.217945 0.187609 0.552367
2603 4 0.23508 0.181105 0.544268
2318 4 0.296796 0.181284 0.5453
2602 2 0.258838 0.187179 0.539386
2604 4 0.282596 0.193254 0.534504
3497 4 0.324736 0.217144 0.517209
3496 2 0.308438 0.234349 0.509238
3420 4 0.109046 0.270161 0.557528
890 4 0.122215 0.283267 0.56235
889 2 0.125119 0.296335 0.541232
891 4 0.128024 0.309403 0.520115
1239 4 0.129513 0.326931 0.509621
3498 4 0.29214 0.251555 0.501267
3445 2 0.0248526 0.35751 0.532356
3446 4 0.0163601 0.338951 0.517911
3447 4 0.033345 0.376068 0.5468
2721 4 0.0494128 0.381998 0.557375
2719 2 0.0713982 0.391288 0.564829
2720 4 0.0933836 0.400578 0.572282
1237 2 0.150319 0.339389 0.50353
3221 4 0.102858 0.393888 0.588169
2847 4 0.216288 0.347047 0.527645
2845 2 0.23899 0.344757 0.537872
212 3 0.2103 0.397933 0.524014
214 3 0.22787 0.426089 0.541654
1238 4 0.171126 0.351846 0.497439
2846 4 0.261692 0.342467 0.548098
3044 4 0.279006 0.350065 0.539148
3043 2 0.293094 0.370386 0.53544
3045 4 0.307183 0.390707 0.531732
1641 4 0.32471 0.400501 0.527103
3592 2 0.411702 0.325585 0.495482
4042 2 0.473148 0.347463 0.494611
4044 4 0.45097 0.335968 0.4935
3593 4 0.433997 0.326787 0.484226
4043 4 0.495325 0.358958 0.495721
2550 4 0.0983913 0.415544 0.519084
4177 2 0.104474 0.439495 0.552525
4178 4 0.110488 0.424056 0.533799
4179 4 0.0984598 0.454934 0.57125
211 1 0.210333 0.420677 0.527455
213 3 0.190145 0.426833 0.537097
1445 4 0.17775 0.416992 0.549828
215 3 0.212955 0.431284 0.507474
1444 2 0.174857 0.430143 0.570896
1488 4 0.285535 0.479682 0.501154
1486 2 0.294753 0.474299 0.523765
1487 4 0.303971 0.468916 0.546376
327 4 0.301319 0.457091 0.561651
325 2 0.321734 0.46413 0.574256
2649 4 0.271065 0.465562 0.503113
1639 2 0.338273 0.421048 0.531466
1442 4 0.355482 0.484001 0.580942
1640 4 0.351836 0.441596 0.535829
1911 4 0.370947 0.442376 0.53002
1909 2 0.394165 0.43318 0.528768
2960 4 0.376935 0.484046 0.519531
1441 2 0.367422 0.488165 0.559371
2959 2 0.367177 0.490274 0.497368
1910 4 0.417383 0.423984 0.527515
3453 4 0.426028 0.442607 0.531821
3451 2 0.451027 0.442599 0.53133
3452 4 0.476025 0.44259 0.530839
1698 4 0.494953 0.442486 0.522472
3308 4 0.228716 0.0554109 0.606496
3309 4 0.213198 0.0438865 0.652617
3307 2 0.220957 0.0496487 0.629556
3049 2 0.262367 0.0141262 0.642743
3050 4 0.277163 0.0336075 0.647918
270 4 0.274946 0.0524299 0.655788
268 2 0.288341 0.0664538 0.640006
269 4 0.301737 0.0804777 0.624224
3084 4 0.318735 0.071357 0.630246
2281 2 0.400955 0.0766943 0.62178
2282 4 0.376723 0.0745699 0.615991
3083 4 0.365948 0.0876015 0.62748
3082 2 0.342341 0.0794792 0.628863
2283 4 0.425186 0.0788187 0.627568
2977 2 0.464993 0.0681899 0.645972
2978 4 0.485657 0.0611265 0.65815
1086 4 0.502622 0.0512909 0.666739
2979 4 0.444329 0.0752533 0.633795
3298 2 0.0102363 0.120845 0.646686
3300 4 0.0342759 0.126092 0.642242
3360 4 0.0509169 0.123993 0.654569
3358 2 0.0754599 0.121972 0.658897
2175 4 0.0829539 0.147633 0.595852
966 4 0.0692931 0.159802 0.587406
2174 4 0.13173 0.157363 0.601049
2173 2 0.107342 0.152498 0.59845
3061 2 0.222579 0.148667 0.58206
3063 4 0.238781 0.153611 0.600451
3387 4 0.378144 0.128539 0.575011
1106 4 0.362608 0.115781 0.573797
3125 4 0.238686 0.16781 0.615836
3124 2 0.232425 0.169566 0.63998
3239 4 0.00926322 0.266524 0.617374
960 4 0.989702 0.264469 0.622214
3238 2 0.0323262 0.272126 0.609507
3240 4 0.0553893 0.277729 0.601639
3093 4 0.0716847 0.28891 0.599415
3091 2 0.0938342 0.289677 0.610991
3092 4 0.115984 0.290443 0.622566
3435 4 0.135305 0.295421 0.619219
82 3 0.131651 0.324436 0.589756
3433 2 0.154066 0.296129 0.635732
906 4 0.0963386 0.338239 0.589064
383 4 0.182998 0.280898 0.64854
3434 4 0.172828 0.296837 0.652245
905 4 0.0518714 0.349534 0.608957
904 2 0.074105 0.343886 0.59901
81 1 0.129483 0.346093 0.597199
85 3 0.133338 0.346735 0.619635
84 3 0.107959 0.35347 0.592649
83 3 0.144926 0.359411 0.586128
3220 2 0.125728 0.400578 0.595743
3222 4 0.148598 0.407269 0.603318
3491 4 0.159002 0.396114 0.616233
3490 2 0.17804 0.403524 0.630649
3380 4 0.212752 0.347286 0.630614
3492 4 0.197078 0.410935 0.645065
3379 2 0.236556 0.350703 0.63746
1298 4 0.19276 0.346991 0.636341
1040 4 0.276676 0.363198 0.636534
3381 4 0.26036 0.35412 0.644307
1039 2 0.299127 0.35725 0.627275
1041 4 0.321579 0.351301 0.618016
999 4 0.365813 0.344273 0.662125
998 4 0.341049 0.358595 0.621107
997 2 0.353431 0.351434 0.641616
3961 2 0.0856946 0.483567 0.590523
3962 4 0.0849063 0.459024 0.58581
1446 4 0.171964 0.443295 0.591963
3120 4 0.23267 0.481676 0.650894
4302 4 0.21942 0.480703 0.666667
4300 2 0.196471 0.488486 0.672827
3118 2 0.256391 0.488864 0.647603
3119 4 0.280112 0.496052 0.644313
1204 2 0.316327 0.485744 0.658348
1206 4 0.29496 0.483356 0.645584
1205 4 0.337694 0.488132 0.671112
326 4 0.342148 0.471168 0.586861
1229 4 0.426558 0.489566 0.61089
878 4 0.445357 0.440731 0.649787
877 2 0.432966 0.461533 0.656026
879 4 0.420574 0.482335 0.662266
1081 2 0.0198563 0.0486673 0.712172
1082 4 0.0391026 0.0630336 0.705216
1023 4 0.0520734 0.0762845 0.714421
1021 2 0.075776 0.0820502 0.719912
4371 4 0.142438 0.0774191 0.670287
1022 4 0.0994786 0.087816 0.725402
2256 4 0.112218 0.0874013 0.740549
2254 2 0.135756 0.0807954 0.735305
4284 4 0.223599 0.0352622 0.666267
4282 2 0.212543 0.0237135 0.685492
1004 4 0.178163 0.0816768 0.728884
2255 4 0.159294 0.0741894 0.730061
1085 4 0.499354 0.0590132 0.716039
1084 2 0.500988 0.0551521 0.691389
3357 4 0.49476 0.0782482 0.714268
4369 2 0.120926 0.0900535 0.671964
3359 4 0.100003 0.119951 0.663224
4370 4 0.0994139 0.102688 0.673641
3008 4 0.233874 0.153791 0.672921
1003 2 0.194672 0.0999504 0.724558
1005 4 0.21118 0.118224 0.720232
3007 2 0.231054 0.139055 0.692922
3009 4 0.228234 0.124319 0.712924
3145 2 0.264979 0.149488 0.737572
2628 4 0.420359 0.141947 0.743475
3441 4 0.405802 0.152715 0.734502
3439 2 0.383641 0.142649 0.740225
3440 4 0.36148 0.132583 0.745948
3355 2 0.483046 0.0992623 0.721077
2626 2 0.443699 0.14036 0.734646
2627 4 0.467038 0.138773 0.725817
3356 4 0.471331 0.120276 0.727887
954 4 0.143112 0.166937 0.731677
3293 4 0.12582 0.173408 0.72267
3292 2 0.115694 0.189862 0.706798
3294 4 0.105569 0.206317 0.690927
952 2 0.165147 0.178703 0.730587
3126 4 0.226164 0.171322 0.664123
1075 2 0.22672 0.189832 0.723501
953 4 0.187183 0.190469 0.729497
1077 4 0.205793 0.196318 0.735549
1076 4 0.247648 0.183346 0.711452
3146 4 0.256457 0.169681 0.725537
382 2 0.199651 0.285126 0.666706
384 4 0.216304 0.289354 0.684871
794 4 0.257256 0.303475 0.722011
3383 4 0.30223 0.269224 0.692564
793 2 0.261467 0.32632 0.731261
3382 2 0.32026 0.268775 0.709881
3384 4 0.338291 0.268327 0.727199
921 4 0.357848 0.262305 0.723961