ITEM: TIMESTEP
3063000
ITEM: NUMBER OF ATOMS
4590
ITEM: BOX BOUNDS xy xz yz pp pp pp
-9.9985700000000008e+00 9.9985700000000008e+00 0.0000000000000000e+00
-9.9985700000000008e+00 9.9985700000000008e+00 0.0000000000000000e+00
-9.9985700000000008e+00 9.9985700000000008e+00 0.0000000000000000e+00
ITEM: ATOMS id type xs ys zs
2336 4 0.0519721 0.043531 0.997457
582 4 0.06903 0.0140886 0.0834447
2703 4 0.29032 0.017333 0.0665171
2889 4 0.44467 0.0568554 0.0636151
2887 2 0.445727 0.0817145 0.0660861
2616 4 0.0357176 0.120795 0.0772752
353 4 0.245376 0.114865 0.0668336
354 4 0.289127 0.138884 0.0637282
352 2 0.267251 0.126874 0.0652809
24 3 0.305139 0.127387 0.0670175
23 3 0.336022 0.149327 0.0639736
21 1 0.323436 0.136115 0.0783063
2893 2 0.396005 0.119089 0.0639924
2895 4 0.406427 0.120644 0.0413177
3347 4 0.400141 0.137259 0.0335838
2888 4 0.446785 0.106573 0.0685571
3346 2 0.418847 0.144417 0.0186142
2783 4 0.452175 0.121898 0.0574279
2782 2 0.476657 0.126164 0.0546611
3348 4 0.437552 0.151574 0.00364466
277 2 0.117463 0.208668 0.0141441
279 4 0.141308 0.216056 0.0155626
4470 4 0.136426 0.235148 0.0174156
278 4 0.093618 0.20128 0.0127256
3216 4 0.163221 0.198183 0.0256909
742 2 0.227101 0.20121 0.0563712
743 4 0.206868 0.203753 0.0708391
3214 2 0.17787 0.20806 0.00799741
386 4 0.199811 0.202761 0.0891175
744 4 0.247335 0.198667 0.0419032
2599 2 0.291479 0.204347 0.050353
2601 4 0.316377 0.206336 0.0515045
2600 4 0.266581 0.202358 0.0492014
450 4 0.332619 0.195053 0.0569435
448 2 0.348264 0.213065 0.0644266
914 4 0.380266 0.227935 0.0842452
2881 2 0.487872 0.222806 0.0079612
1044 4 0.451689 0.200639 0.993589
2882 4 0.468064 0.209878 0.999857
4468 2 0.145531 0.254091 0.0309612
1119 4 0.0997949 0.324802 0.0328376
1117 2 0.100799 0.304358 0.0184759
4469 4 0.154635 0.273033 0.0445068
1118 4 0.101803 0.283915 0.00411418
2876 4 0.239817 0.247246 0.0122623
3196 2 0.210969 0.311308 0.0385581
3198 4 0.220187 0.288067 0.0388847
2875 2 0.232783 0.260402 0.0323288
2877 4 0.225749 0.273558 0.0523953
3197 4 0.201752 0.334548 0.0382315
1841 4 0.241187 0.262226 0.998502
2402 4 0.189905 0.282572 0.997166
2093 4 0.279491 0.269263 0.0802745
103 3 0.495794 0.283813 0.0466801
102 3 0.465065 0.262811 0.0414518
105 3 0.463227 0.299763 0.0365463
2759 4 0.458914 0.322594 0.0538324
101 1 0.476456 0.28139 0.0340867
2835 4 0.458356 0.325209 0.0337682
2833 2 0.445956 0.328278 0.012274
2758 2 0.438468 0.31781 0.0674065
104 3 0.481884 0.27848 0.0117155
2760 4 0.418023 0.313026 0.0809806
3231 4 0.088387 0.400332 0.0800443
770 4 0.111826 0.339724 0.0357906
769 2 0.112672 0.356801 0.0175468
933 4 0.188449 0.337887 0.0219992
931 2 0.195097 0.348152 0.000190049
3541 2 0.468822 0.404441 0.0215862
3543 4 0.476442 0.409177 0.0449248
1466 4 0.483526 0.40586 0.0623333
3542 4 0.461201 0.399706 0.998248
1122 4 0.0881829 0.419559 0.078401
1120 2 0.110566 0.429418 0.0732036
1121 4 0.132949 0.439276 0.0680063
1672 2 0.110218 0.485498 0.0778966
3552 4 0.14108 0.435032 0.0855047
1674 4 0.111359 0.483325 0.0530133
243 4 0.31084 0.498933 0.0322359
241 2 0.295683 0.503564 0.0515752
1373 4 0.0370136 0.0658184 0.114272
1372 2 0.0459738 0.0448228 0.104069
1374 4 0.0549339 0.0238272 0.0938653
1873 2 0.0606382 0.0432538 0.165442
1542 4 0.053096 0.002206 0.171372
1874 4 0.0711367 0.065909 0.16414
2615 4 0.0463091 0.079354 0.103182
581 4 0.118163 0.0187977 0.0914729
580 2 0.0935963 0.0164432 0.0874588
3677 4 0.0873173 0.0720872 0.154418
333 4 0.149426 0.0599493 0.12615
3678 4 0.131091 0.0634524 0.131831
3676 2 0.109204 0.0677698 0.143125
331 2 0.173213 0.0596596 0.133851
692 4 0.227283 0.0714674 0.10424
332 4 0.197 0.05937 0.141551
2780 4 0.204202 0.0616912 0.160345
2701 2 0.294677 0.0345187 0.0841485
2702 4 0.299035 0.0517045 0.10178
1274 4 0.313896 0.0635396 0.10683
2614 2 0.0410133 0.100075 0.0902286
2517 4 0.130588 0.124292 0.115154
2515 2 0.145024 0.144703 0.115574
693 4 0.245951 0.114273 0.0863508
691 2 0.236617 0.09287 0.0952954
1273 2 0.327956 0.0835884 0.101777
22 3 0.336515 0.118748 0.0858202
1275 4 0.342016 0.103637 0.0967233
25 3 0.316416 0.148466 0.0961063
2894 4 0.385582 0.117534 0.0866672
2679 4 0.404946 0.0774707 0.148457
810 4 0.37906 0.121819 0.105595
808 2 0.384853 0.102819 0.120781
809 4 0.390647 0.0838196 0.135967
624 4 0.352921 0.141727 0.162695
521 4 0.339994 0.125387 0.164665
2678 4 0.453582 0.0884451 0.152323
506 4 0.472087 0.0969061 0.154182
2677 2 0.429264 0.0829579 0.15039
505 2 0.49128 0.102533 0.169188
454 2 0.451233 0.149533 0.144344
455 4 0.446169 0.12724 0.134215
649 2 0.0148888 0.246423 0.144356
2538 4 0.0752323 0.229852 0.115388
2536 2 0.0885398 0.245445 0.101072
650 4 0.0137457 0.231294 0.124481
728 4 0.00375868 0.243112 0.1114
2516 4 0.159461 0.165114 0.115995
387 4 0.160612 0.185099 0.114656
385 2 0.180212 0.19393 0.101887
1198 2 0.234979 0.208838 0.159381
1200 4 0.215469 0.21649 0.173018
1199 4 0.25449 0.201186 0.145743
2520 4 0.269835 0.207041 0.155713
449 4 0.363908 0.231078 0.0719096
913 2 0.397161 0.245978 0.0880142
491 4 0.464962 0.190873 0.15199
456 4 0.456296 0.171825 0.154474
490 2 0.488264 0.189048 0.14311
250 2 0.0249201 0.333522 0.117215
252 4 0.00379488 0.321674 0.123422
651 4 0.0160319 0.261551 0.164231
2537 4 0.101847 0.261037 0.0867548
2445 4 0.11058 0.279142 0.0877925
2444 4 0.159019 0.268128 0.082039
2443 2 0.134799 0.273635 0.0849157
713 4 0.115024 0.337974 0.161252
712 2 0.137832 0.333392 0.152089
611 4 0.179254 0.320649 0.14407
767 4 0.168844 0.263177 0.0985624
610 2 0.201416 0.327686 0.134877
766 2 0.193673 0.260377 0.0995088
768 4 0.218501 0.257576 0.100455
2094 4 0.237521 0.263478 0.106839
2092 2 0.258506 0.266371 0.0935569
528 4 0.298249 0.271195 0.0834863
526 2 0.320236 0.281399 0.0896189
527 4 0.342224 0.291603 0.0957515
2651 4 0.35999 0.290229 0.0864855
2650 2 0.380739 0.303771 0.0898414
2652 4 0.401489 0.317312 0.0931972
915 4 0.414056 0.26402 0.0917832
845 4 0.416531 0.272836 0.109696
844 2 0.429365 0.270099 0.13098
846 4 0.442198 0.267361 0.152264
2477 4 0.458862 0.278678 0.151989
287 4 0.0663446 0.348338 0.116366
251 4 0.0460454 0.34537 0.111007
3229 2 0.0751812 0.395582 0.100738
2906 4 0.0467521 0.387928 0.13495
3230 4 0.0619754 0.390831 0.121432
286 2 0.0807463 0.343013 0.1361
2905 2 0.0235205 0.395351 0.14046
2907 4 0.000288998 0.402775 0.145969
714 4 0.160641 0.328811 0.142925
288 4 0.095148 0.337687 0.155833
3598 2 0.115513 0.40982 0.150909
3600 4 0.138447 0.406659 0.160355
612 4 0.223579 0.334722 0.125684
2799 4 0.235366 0.349925 0.128596
2798 4 0.225895 0.395104 0.109364
2797 2 0.23063 0.372515 0.11898
2591 4 0.329535 0.405391 0.103828
2862 4 0.325618 0.358322 0.149492
4005 4 0.304643 0.412308 0.15045
2592 4 0.336379 0.372055 0.14047
2590 2 0.332957 0.388723 0.122149
2730 4 0.477223 0.355435 0.127565
3550 2 0.163011 0.430621 0.096675
2162 4 0.0922811 0.432703 0.138915
2163 4 0.100259 0.47215 0.109235
2161 2 0.09627 0.452426 0.124075
1673 4 0.109077 0.487672 0.10278
3599 4 0.0925791 0.412981 0.141463
3551 4 0.184942 0.426209 0.107845
3818 4 0.237675 0.437366 0.103331
4512 4 0.235905 0.486078 0.158205
3819 4 0.196373 0.417201 0.123034
3817 2 0.217024 0.427284 0.113183
678 4 0.288873 0.420804 0.143195
676 2 0.272872 0.428417 0.125554
677 4 0.256871 0.43603 0.107913
1875 4 0.0501398 0.0205985 0.166744
2779 2 0.2285 0.0592791 0.165726
2781 4 0.252798 0.056867 0.171107
785 4 0.390422 0.0096509 0.199109
2756 4 0.368201 0.0595332 0.221029
786 4 0.362245 0.0409489 0.226076
784 2 0.376333 0.0252999 0.212593
606 4 0.438516 0.0772677 0.238663
3809 4 0.442177 0.0598379 0.24827
748 2 0.0376352 0.125164 0.196857
750 4 0.0622198 0.123632 0.192564
1479 4 0.065525 0.140445 0.183055
749 4 0.0130506 0.126696 0.20115
1477 2 0.0866182 0.146603 0.194985
4352 4 0.997511 0.113898 0.200011
418 2 0.171968 0.133605 0.225545
1478 4 0.107711 0.152762 0.206916
420 4 0.167682 0.138156 0.249754
419 4 0.176254 0.129054 0.201335
2931 4 0.186936 0.128919 0.183241
2930 4 0.236347 0.124353 0.189447
2929 2 0.211642 0.126636 0.186344
1565 4 0.254142 0.131332 0.198562
520 2 0.322256 0.129684 0.181756
1566 4 0.278464 0.09455 0.222148
1564 2 0.266303 0.112941 0.210355
522 4 0.304519 0.133982 0.198848
458 4 0.309084 0.139441 0.217366
457 2 0.324225 0.153865 0.231072
2755 2 0.372888 0.0798549 0.207236
622 2 0.376488 0.147065 0.169122
2757 4 0.377575 0.100177 0.193442
623 4 0.400054 0.152403 0.17555
604 2 0.451219 0.0952718 0.226845
605 4 0.463922 0.113276 0.215026
2778 4 0.0983597 0.160451 0.222581
2776 2 0.109194 0.178443 0.236149
2777 4 0.120029 0.196435 0.249717
2453 4 0.186723 0.207528 0.232963
2454 4 0.215981 0.213544 0.192857
2452 2 0.201352 0.210536 0.21291
2518 2 0.293069 0.201256 0.162917
2519 4 0.316304 0.195471 0.170121
459 4 0.339367 0.168289 0.244779
732 4 0.405573 0.171266 0.171048
730 2 0.419659 0.188947 0.181732
731 4 0.433745 0.206628 0.192416
2672 4 0.451816 0.209625 0.19916
2671 2 0.475393 0.205408 0.206338
2673 4 0.49897 0.201192 0.213517
3157 2 0.047367 0.266301 0.194595
3158 4 0.067024 0.27445 0.207724
579 4 0.0778648 0.257213 0.209365
3159 4 0.0277099 0.258152 0.181466
577 2 0.102424 0.261852 0.210083
578 4 0.126983 0.266491 0.210801
236 4 0.140439 0.279798 0.205678
235 2 0.164971 0.27589 0.208525
2968 2 0.224485 0.287956 0.223941
2969 4 0.201593 0.278064 0.225754
237 4 0.189503 0.271981 0.211372
2970 4 0.247377 0.297849 0.222127
2853 4 0.26514 0.307158 0.226403
2851 2 0.27914 0.307316 0.205686
2852 4 0.29314 0.307475 0.18497
2861 4 0.304606 0.324943 0.180233
339 4 0.383775 0.316664 0.244923
2476 2 0.474964 0.291821 0.165886
2478 4 0.491067 0.304964 0.179784
3831 4 0.0389361 0.370152 0.176826
3829 2 0.0435278 0.383501 0.197463
3696 4 0.0339869 0.393223 0.231937
3830 4 0.0481194 0.396851 0.2181
3921 4 0.129212 0.416999 0.175678
2860 2 0.315112 0.341633 0.164863
4004 4 0.305731 0.421832 0.199531
4003 2 0.305187 0.41707 0.17499
337 2 0.399507 0.333504 0.235221
338 4 0.415239 0.350344 0.225519
291 4 0.432396 0.349921 0.235616
289 2 0.442124 0.368619 0.249067
3988 2 0.00798744 0.427478 0.225517
3989 4 0.0168033 0.447297 0.21308
3935 4 0.0834257 0.445897 0.221685
3934 2 0.0811944 0.429824 0.240708
4025 4 0.143897 0.485993 0.252564
3919 2 0.139547 0.425299 0.196879
1676 4 0.0925441 0.464965 0.219278
1677 4 0.126898 0.4907 0.244936
3920 4 0.149882 0.433599 0.21808
1675 2 0.109721 0.477833 0.232107
1545 4 0.162658 0.447531 0.21283
4510 2 0.228221 0.480376 0.181305
4511 4 0.220537 0.474675 0.204406
1544 4 0.201732 0.47457 0.197245
1543 2 0.182195 0.46105 0.205037
1855 2 0.308467 0.42506 0.243711
1856 4 0.303724 0.422751 0.21927
1611 4 0.0202108 0.00289281 0.2537
1785 4 0.0135733 0.0169651 0.266514
3993 4 0.0725786 0.00973064 0.311002
425 4 0.0342097 0.061547 0.324764
424 2 0.0554625 0.071012 0.333925
1783 2 0.99804 0.0330264 0.255293
163 3 0.152779 0.0677166 0.324294
721 2 0.216018 0.0422362 0.323753
722 4 0.196529 0.054908 0.314546
165 3 0.186598 0.0710474 0.308083
723 4 0.235508 0.0295645 0.33296
161 1 0.173375 0.0783711 0.325117
1058 4 0.281908 0.000259259 0.319242
1127 4 0.445704 0.0230929 0.29709
3808 2 0.448907 0.0420866 0.264542
3810 4 0.455638 0.0243352 0.280814
1126 2 0.434868 0.00311401 0.307511
1702 2 0.0935747 0.136909 0.291501
530 4 0.107212 0.142584 0.333064
1704 4 0.099624 0.144117 0.314666
1703 4 0.0875255 0.129702 0.268336
257 4 0.17848 0.126856 0.261474
256 2 0.179593 0.116562 0.284233
258 4 0.180706 0.106268 0.306992
164 3 0.170477 0.101342 0.323577
515 4 0.218864 0.110553 0.315212
514 2 0.23179 0.131696 0.318538
510 4 0.211547 0.16828 0.287536
516 4 0.244716 0.152839 0.321863
401 4 0.397564 0.148854 0.347058
590 4 0.0181291 0.173163 0.325735
589 2 0.030586 0.193902 0.332053
403 2 0.072759 0.226706 0.315799
2849 4 0.998616 0.175372 0.318873
536 4 0.129385 0.241427 0.283038
535 2 0.133737 0.22284 0.266889
537 4 0.138089 0.204254 0.250739
724 2 0.153644 0.247208 0.316645
726 4 0.133504 0.248772 0.301912
405 4 0.082007 0.238871 0.296009
509 4 0.233031 0.209274 0.268595
508 2 0.222289 0.188777 0.278065
1030 2 0.211117 0.236744 0.312192
1032 4 0.228854 0.228414 0.296662
1395 4 0.246066 0.222158 0.28885
1031 4 0.19338 0.245074 0.327722
2483 4 0.250182 0.154719 0.341651
1190 4 0.301711 0.173339 0.325332
1393 2 0.27062 0.22114 0.293462
1394 4 0.295174 0.220122 0.298074
2753 4 0.303108 0.236852 0.290005
1749 4 0.35722 0.175759 0.246283
1747 2 0.380171 0.170142 0.254464
1748 4 0.403121 0.164525 0.262644
2752 2 0.326632 0.228551 0.291704
180 3 0.410198 0.165313 0.281091
402 4 0.368674 0.180606 0.321409
400 2 0.383119 0.16473 0.334234
2789 4 0.408963 0.217226 0.304632
2788 2 0.386666 0.225496 0.29691
2790 4 0.364369 0.233767 0.289189
2754 4 0.350157 0.220249 0.293404
177 3 0.412395 0.197565 0.299745
179 3 0.433414 0.16835 0.310577
176 1 0.424243 0.179308 0.292296
178 3 0.441123 0.186587 0.278138
285 4 0.452045 0.201274 0.284948
283 2 0.477006 0.200969 0.286369
284 4 0.501967 0.200664 0.287791
716 4 0.054655 0.322209 0.316316
715 2 0.0727008 0.308793 0.305382
2700 4 0.00189383 0.266937 0.328113
29 3 0.115721 0.251447 0.272921
30 3 0.08929 0.255983 0.299349
717 4 0.0907465 0.295378 0.294447
27 3 0.124571 0.265834 0.306498
26 1 0.108236 0.264835 0.290332
28 3 0.104034 0.286297 0.282578
374 4 0.225138 0.327122 0.303967
2556 4 0.367869 0.318468 0.258559
2554 2 0.369882 0.330485 0.280393
3405 4 0.0240658 0.375569 0.289554
3694 2 0.033149 0.379598 0.252885
3695 4 0.0323111 0.365973 0.273834
259 2 0.0983273 0.407998 0.297126
260 4 0.11453 0.401284 0.314946
373 2 0.218605 0.349625 0.31269
375 4 0.212071 0.372129 0.321413
570 4 0.369295 0.33466 0.32014
2555 4 0.371895 0.342502 0.302226
290 4 0.451853 0.387316 0.262518
3936 4 0.078963 0.413751 0.25973
1391 4 0.0220358 0.495584 0.282124
2826 4 0.0705978 0.445393 0.281503
2825 4 0.0380775 0.483219 0.277978
2824 2 0.0543376 0.464306 0.27974
261 4 0.0821242 0.414713 0.279306
4024 2 0.144216 0.499846 0.273377
594 4 0.112166 0.41395 0.328274
1857 4 0.31321 0.427368 0.268153
1187 4 0.31014 0.441516 0.280772
1186 2 0.327414 0.441959 0.298843
1188 4 0.344688 0.442402 0.316915
1802 4 0.351813 0.447232 0.335168
1801 2 0.370191 0.464168 0.335945
1435 2 0.485374 0.46448 0.314354
1436 4 0.466254 0.478808 0.321724
1867 2 0.00316278 0.0425749 0.357317
1869 4 0.0100285 0.0430109 0.381356
2901 4 0.0165253 0.0269646 0.40078
2899 2 0.0390757 0.0354335 0.407482
426 4 0.0767153 0.0804769 0.343086
2645 4 0.0887673 0.070474 0.354402
2900 4 0.0616261 0.0439025 0.414184
2644 2 0.0987879 0.0558709 0.372052
2646 4 0.108808 0.0412678 0.389702
2663 4 0.117016 0.02302 0.388039
2662 2 0.14145 0.0264304 0.383966
2664 4 0.165883 0.0298408 0.379894
1967 4 0.172059 0.0476922 0.383967
1966 2 0.18586 0.0538109 0.403899
162 3 0.183481 0.0734795 0.345194
1350 4 0.247498 0.0456727 0.33604
1349 4 0.294495 0.0605814 0.344387
1348 2 0.270997 0.053127 0.340213
708 4 0.395684 0.0329365 0.374587
617 4 0.383999 0.025527 0.359623
616 2 0.377654 0.00669332 0.374796
706 2 0.407045 0.0549492 0.377985
707 4 0.418407 0.0769619 0.381383
2685 4 0.0474641 0.158198 0.386363
2683 2 0.0713172 0.165292 0.383935
3031 2 0.0097168 0.166535 0.377514
3033 4 0.0311502 0.153778 0.375767
529 2 0.126969 0.132514 0.344616
635 4 0.143398 0.124743 0.376478
636 4 0.119615 0.106821 0.416651
531 4 0.146727 0.122444 0.356167
634 2 0.131506 0.115782 0.396565
2892 4 0.0987645 0.109477 0.415043
684 4 0.390014 0.105604 0.424292
682 2 0.367093 0.0957419 0.42269
2715 4 0.402487 0.119123 0.432739
2713 2 0.421636 0.124979 0.417765
2714 4 0.440785 0.130834 0.402791
2955 4 0.448094 0.141052 0.38644
2954 4 0.413481 0.159115 0.355192
2953 2 0.430788 0.150083 0.370816
3032 4 0.988283 0.179292 0.37926
591 4 0.0430429 0.214641 0.33837
404 4 0.063511 0.214541 0.33559
2684 4 0.0951703 0.172386 0.381507
765 4 0.102661 0.170443 0.400459
763 2 0.1264 0.178256 0.40123
764 4 0.150139 0.186069 0.402001
725 4 0.173785 0.245644 0.331379
10 3 0.226202 0.239091 0.388067
6 1 0.23943 0.245759 0.370771
8 3 0.246408 0.227298 0.358567
1189 2 0.326689 0.172296 0.325806
2484 4 0.28669 0.186585 0.329306
2482 2 0.268436 0.170652 0.335479
9 3 0.257844 0.257313 0.378884
2957 4 0.321556 0.217493 0.394911
3080 4 0.332319 0.201856 0.402126
1191 4 0.351666 0.171254 0.32628
2956 2 0.339384 0.220709 0.377677
2958 4 0.357212 0.223925 0.360443
2180 4 0.373484 0.231491 0.350591
2698 2 0.014634 0.279399 0.34565
479 4 0.0418072 0.28202 0.37466
2699 4 0.0273742 0.291862 0.363187
478 2 0.0659002 0.285106 0.368727
480 4 0.0899931 0.288192 0.362793
3462 4 0.0962326 0.295505 0.379894
3460 2 0.109488 0.313824 0.390564
1034 4 0.174478 0.34137 0.387462
7 3 0.227404 0.259686 0.356967
1035 4 0.216322 0.319476 0.403911
1033 2 0.1954 0.330423 0.395686
584 4 0.307632 0.275274 0.418209
3318 4 0.307349 0.329377 0.348451
583 2 0.282927 0.276651 0.414613
2179 2 0.376076 0.256288 0.352497
2181 4 0.378668 0.281084 0.354402
365 4 0.460971 0.309613 0.407677
3056 4 0.476 0.296992 0.411119
2612 4 0.0171801 0.353247 0.35169
593 4 0.137543 0.394456 0.366701
592 2 0.124855 0.404203 0.347487
411 4 0.132376 0.381784 0.380505
409 2 0.146001 0.363247 0.390301
3461 4 0.122744 0.332144 0.401234
410 4 0.159625 0.34471 0.400097
3317 4 0.28287 0.364475 0.374329
3316 2 0.295109 0.346926 0.36139
569 4 0.32698 0.338452 0.346518
568 2 0.348137 0.336556 0.333329
892 2 0.36043 0.404797 0.38754
893 4 0.357503 0.397672 0.411327
812 4 0.486697 0.360027 0.399375
811 2 0.470274 0.363074 0.41798
2690 4 0.243125 0.501532 0.354325
2689 2 0.262334 0.496168 0.369406
2691 4 0.281542 0.490804 0.384487
4322 4 0.284947 0.475413 0.395659
4321 2 0.299191 0.456489 0.403672
447 4 0.313448 0.420178 0.401539
894 4 0.363358 0.411922 0.363752
669 4 0.403607 0.483729 0.349908
1803 4 0.388569 0.481104 0.336723
667 2 0.425738 0.479862 0.338932
668 4 0.447869 0.475995 0.327957
3797 4 0.0755586 0.0302922 0.422295
3796 2 0.0879943 0.0134598 0.435977
1968 4 0.199661 0.0599296 0.42383
220 3 0.197539 0.05794 0.471293
218 3 0.188681 0.0720887 0.437543
219 3 0.222527 0.0557561 0.443213
216 1 0.205734 0.0685284 0.452871
2501 4 0.218522 0.0520097 0.423708
2500 2 0.237544 0.0358046 0.422845
4125 4 0.275206 0.010955 0.419039
2502 4 0.256567 0.0195995 0.421982
4339 2 0.278098 0.0289815 0.488112
4549 2 0.320169 0.0663965 0.487863
4551 4 0.295423 0.0660078 0.484306
4340 4 0.292455 0.0486544 0.493774
4341 4 0.263742 0.00930868 0.48245
3394 2 0.374081 0.00320539 0.42893
3396 4 0.368757 0.0111007 0.452049
4550 4 0.344916 0.0667853 0.49142
2505 4 0.383219 0.0292617 0.518703
2503 2 0.373792 0.0463035 0.503022
88 3 0.349443 0.0117587 0.484954
2578 2 0.0653787 0.0911057 0.486948
2580 4 0.0601058 0.0807494 0.464809
2891 4 0.0760955 0.0870866 0.453585
2890 2 0.08743 0.0982818 0.434314
217 3 0.214505 0.0888631 0.459094
2558 4 0.229755 0.0974852 0.466201
320 4 0.202365 0.111252 0.495459
2557 2 0.250691 0.108102 0.457589
2559 4 0.271627 0.118719 0.448976
1061 4 0.292033 0.122341 0.449369
1060 2 0.310602 0.110605 0.437425
1062 4 0.329172 0.0988691 0.425482
683 4 0.344172 0.0858793 0.421089
3327 4 0.0561804 0.17974 0.484527
2802 4 0.154838 0.173049 0.418071
2322 4 0.0944982 0.225213 0.486679
2320 2 0.106541 0.203654 0.490595
2801 4 0.202968 0.173934 0.431617
938 4 0.223474 0.170101 0.433059
2800 2 0.178903 0.173491 0.424844
937 2 0.238 0.171734 0.453344
3079 2 0.328675 0.193594 0.425442
3081 4 0.325032 0.185331 0.448758
641 4 0.31816 0.176325 0.466494
640 2 0.294668 0.177156 0.475018
939 4 0.252527 0.173366 0.473629
642 4 0.271176 0.177988 0.483541
3498 4 0.327201 0.193034 0.489109
3455 4 0.249369 0.292027 0.421043
3454 2 0.237044 0.306658 0.437144
662 4 0.210531 0.334812 0.461529
3456 4 0.22472 0.321289 0.453245
585 4 0.258222 0.278028 0.411016
2529 4 0.316354 0.258802 0.411142
2496 4 0.377445 0.262348 0.438259
2528 4 0.362883 0.253106 0.428561
2527 2 0.339619 0.255954 0.419851
2494 2 0.401407 0.264216 0.431362
2495 4 0.425368 0.266085 0.424466
366 4 0.422486 0.285829 0.428982
364 2 0.441729 0.297721 0.418329
3593 4 0.460195 0.326963 0.498681
1172 4 0.0620562 0.408606 0.434204
312 4 0.1258 0.343035 0.418647
1238 4 0.153424 0.3466 0.476306
311 4 0.0870121 0.354488 0.448061
310 2 0.106406 0.348762 0.433354
1237 2 0.134221 0.337089 0.489189
661 2 0.188099 0.333906 0.472538
663 4 0.165667 0.333001 0.483547
445 2 0.312389 0.407905 0.423298
2560 2 0.295863 0.382158 0.476666
446 4 0.31133 0.395633 0.445058
2561 4 0.293675 0.393526 0.454505
2562 4 0.298052 0.37079 0.498828
346 2 0.370129 0.367292 0.479227
347 4 0.391848 0.377159 0.471734
348 4 0.34841 0.357425 0.486719
267 4 0.403997 0.39149 0.467658
813 4 0.453851 0.366121 0.436586
4044 4 0.463342 0.336101 0.480982
265 2 0.423519 0.387595 0.452529
4042 2 0.485 0.348596 0.481171
266 4 0.443041 0.383699 0.437399
1171 2 0.0698203 0.428677 0.446935
560 4 0.069812 0.467187 0.4572
1173 4 0.0775844 0.448748 0.459666
561 4 0.10896 0.495382 0.444038
559 2 0.0893861 0.481285 0.450619
1452 4 0.128127 0.425366 0.474749
1450 2 0.149537 0.437939 0.471795
2549 4 0.120515 0.424089 0.494053
1451 4 0.170947 0.450511 0.468841
2927 4 0.186413 0.462564 0.473475
2926 2 0.208397 0.456185 0.483537
2928 4 0.23038 0.449806 0.4936
2648 4 0.250494 0.4455 0.487747
4323 4 0.313435 0.437566 0.411684
2647 2 0.274862 0.448355 0.492567
2649 4 0.29923 0.45121 0.497387
2961 4 0.353229 0.496397 0.496491
4057 2 0.34567 0.488657 0.463737
4059 4 0.340213 0.485024 0.487866
4058 4 0.351128 0.49229 0.439608
2314 2 0.0742439 0.0480854 0.570034
2316 4 0.0539302 0.0358532 0.577964
4536 4 0.0224949 0.00893879 0.570334
4534 2 0.00566729 0.996144 0.556982
2315 4 0.0945577 0.0603176 0.562103
2196 4 0.103322 0.0504108 0.547929
2553 4 0.161839 0.0522985 0.542502
2194 2 0.125798 0.0488306 0.537088
2195 4 0.148274 0.0472505 0.526248
2551 2 0.181968 0.0670296 0.540768
2552 4 0.202098 0.0817606 0.539033
1143 4 0.312202 0.0305778 0.527159
1141 2 0.327125 0.0155698 0.513845
918 4 0.25614 0.995369 0.494879
1142 4 0.342048 0.000561741 0.500531
575 4 0.386477 0.0113405 0.511769
574 2 0.406582 0.00796879 0.526248
2504 4 0.364365 0.0633452 0.48734
3621 4 0.441744 0.0122349 0.554038
3619 2 0.458406 0.0287728 0.562644
576 4 0.426687 0.00459707 0.540726
3620 4 0.475067 0.0453108 0.571251
805 2 0.491978 0.0769819 0.560681
2579 4 0.0706516 0.101462 0.509087
982 2 0.0786 0.130596 0.541685
3326 4 0.0264987 0.153679 0.515198
983 4 0.077277 0.111861 0.52518
3325 2 0.0413395 0.166709 0.499863
984 4 0.0799229 0.14933 0.558191
2175 4 0.0981971 0.154244 0.559188
2173 2 0.115585 0.155779 0.57709
3236 4 0.156508 0.149143 0.525973
762 4 0.211729 0.0952464 0.526602
321 4 0.162601 0.128357 0.520499
760 2 0.232939 0.0963835 0.539793
319 2 0.182483 0.119805 0.507979
3002 4 0.191135 0.16321 0.570277
761 4 0.254149 0.0975205 0.552985
3021 4 0.256452 0.109465 0.568377
3019 2 0.280509 0.116217 0.56747
1107 4 0.322433 0.116602 0.57381
3020 4 0.304567 0.12297 0.566562
2604 4 0.288943 0.163138 0.550178
1105 2 0.345479 0.125782 0.576935
1106 4 0.368526 0.134962 0.580061
3385 2 0.395937 0.14948 0.580005
3387 4 0.371808 0.154385 0.575654
2244 4 0.456192 0.104177 0.566283
2242 2 0.446112 0.126808 0.569668
806 4 0.472047 0.092034 0.559501
2243 4 0.436033 0.149439 0.573054
966 4 0.054681 0.194506 0.522351
964 2 0.0727358 0.202821 0.537519
965 4 0.0907906 0.211135 0.552688
3419 4 0.101517 0.226663 0.558038
3235 2 0.141286 0.168065 0.520017
3237 4 0.126064 0.186986 0.514062
2321 4 0.118585 0.182094 0.494512
1283 4 0.208118 0.185819 0.497295
1282 2 0.222699 0.194285 0.515759
1284 4 0.23728 0.202751 0.534224
2318 4 0.304077 0.158995 0.538502
2317 2 0.326315 0.170424 0.538397
2603 4 0.252034 0.191698 0.532213
2602 2 0.270488 0.177418 0.541196
2319 4 0.348553 0.181853 0.538293
3496 2 0.340997 0.211584 0.498636
3497 4 0.354793 0.230135 0.508162
3420 4 0.0933253 0.275973 0.559539
890 4 0.0869797 0.296098 0.554898
3418 2 0.0974209 0.251318 0.558789
889 2 0.0979353 0.304619 0.5341
891 4 0.108891 0.31314 0.513303
1239 4 0.115018 0.327579 0.502072
82 3 0.125507 0.31317 0.575087
84 3 0.0954846 0.333868 0.565983
81 1 0.113861 0.33237 0.580071
3445 2 0.0209514 0.392836 0.516933
3447 4 0.0324042 0.396543 0.538848
2721 4 0.0386992 0.41409 0.548295
905 4 0.0359364 0.353906 0.561441
904 2 0.0576747 0.345487 0.57048
3446 4 0.00949857 0.389128 0.495018
906 4 0.0794129 0.337067 0.579519
3221 4 0.0991814 0.40869 0.574029
83 3 0.127802 0.350642 0.576876
3220 2 0.114687 0.389142 0.575665
2847 4 0.224003 0.349471 0.551198
2845 2 0.242301 0.364942 0.544056
213 3 0.201338 0.406694 0.533197
215 3 0.236161 0.408806 0.547358
1444 2 0.178842 0.410359 0.564095
2846 4 0.260599 0.380414 0.536914
3044 4 0.271985 0.376344 0.55333
3043 2 0.284313 0.397878 0.556411
1641 4 0.316492 0.419019 0.555506
1639 2 0.338211 0.413627 0.544353
1640 4 0.359931 0.408236 0.533201
3594 4 0.414946 0.34155 0.514187
1911 4 0.371602 0.420946 0.523565
3592 2 0.437571 0.334257 0.506434
2719 2 0.0615472 0.417328 0.557923
2720 4 0.0843951 0.420567 0.567551
2550 4 0.117038 0.427909 0.543794
4177 2 0.106553 0.452128 0.565452
4178 4 0.117234 0.429553 0.564239
2548 2 0.118776 0.425999 0.518924
4179 4 0.0958724 0.474703 0.566665
1445 4 0.182529 0.411429 0.539388
212 3 0.220962 0.438666 0.530917
211 1 0.222538 0.415722 0.530469
214 3 0.23135 0.409207 0.510017
3045 4 0.29664 0.419412 0.559492
1488 4 0.307299 0.446466 0.515558
1486 2 0.302664 0.456604 0.53794
1487 4 0.298029 0.466741 0.560322
327 4 0.313328 0.476628 0.569924
1909 2 0.39617 0.42004 0.528123
1443 4 0.391524 0.499357 0.538318
1441 2 0.386507 0.486777 0.559335
2959 2 0.373169 0.504324 0.509325
1698 4 0.492588 0.441264 0.538076
1910 4 0.420739 0.419134 0.532681
3453 4 0.426622 0.437977 0.530654
3451 2 0.450443 0.443801 0.535538
3452 4 0.474263 0.449624 0.540422
3611 4 0.156176 0.984784 0.630253
3309 4 0.229083 0.028672 0.638003
3307 2 0.217771 0.0236704 0.616273
4284 4 0.243509 0.0335538 0.650525
3308 4 0.20646 0.0186688 0.594542
3049 2 0.284171 0.0260203 0.633691
3050 4 0.292237 0.0450433 0.647772
268 2 0.313122 0.0691638 0.653157
270 4 0.289614 0.0624313 0.658374
269 4 0.33663 0.0758964 0.647939
3051 4 0.276106 0.00699738 0.61961
3083 4 0.385291 0.0767881 0.614034
2282 4 0.40088 0.0883077 0.614049
3082 2 0.364054 0.0682356 0.624084
3084 4 0.342817 0.0596831 0.634134
3298 2 0.0350417 0.122306 0.655786
3300 4 0.0595989 0.118937 0.652505
3360 4 0.0686203 0.100536 0.653503
3358 2 0.086318 0.103073 0.636024
2174 4 0.132973 0.157315 0.594992
4369 2 0.144033 0.100941 0.625186
3359 4 0.104016 0.10561 0.618544
4370 4 0.123245 0.113083 0.618432
4371 4 0.164822 0.0887993 0.631941
3125 4 0.251877 0.164837 0.623339
3124 2 0.258054 0.153668 0.64484
3063 4 0.252354 0.160799 0.602621
3386 4 0.420065 0.144575 0.584355
2281 2 0.41574 0.104487 0.625991
2978 4 0.49258 0.113599 0.640774
2977 2 0.46931 0.118844 0.63328
2283 4 0.430601 0.120665 0.637932
2979 4 0.446039 0.124089 0.625786
1086 4 0.490755 0.107309 0.659356
3003 4 0.147962 0.169664 0.594673
3062 4 0.207541 0.167509 0.581467
3001 2 0.169549 0.166437 0.582475
3061 2 0.229948 0.164154 0.592044
3239 4 0.027964 0.292046 0.638618
3238 2 0.0502889 0.295014 0.64948
3240 4 0.0726138 0.297982 0.660342
960 4 0.00883894 0.287262 0.637661
3093 4 0.0845281 0.303182 0.644993
3091 2 0.107944 0.303355 0.636228
3092 4 0.131361 0.303529 0.627463
3435 4 0.150764 0.301855 0.621724
85 3 0.106976 0.331549 0.601764
3433 2 0.175691 0.301924 0.623689
383 4 0.216067 0.289503 0.623601
3434 4 0.200617 0.301992 0.625653
382 2 0.235299 0.292948 0.639203
384 4 0.254531 0.296393 0.654806
3222 4 0.130192 0.369595 0.577301
1298 4 0.216606 0.346315 0.639928
1446 4 0.175155 0.409289 0.588802
3380 4 0.222948 0.360612 0.628503
3379 2 0.242909 0.375669 0.628439
1297 2 0.203949 0.353593 0.660226
3381 4 0.26287 0.390727 0.628374
1040 4 0.271933 0.37286 0.624267
1039 2 0.295729 0.365226 0.623447
1041 4 0.319524 0.357591 0.622627
998 4 0.318524 0.353628 0.642195
997 2 0.337126 0.347957 0.657911
3961 2 0.0705629 0.482174 0.598614
3962 4 0.0785762 0.474989 0.576045
4493 4 0.154006 0.490422 0.66138
4301 4 0.169157 0.494028 0.674101
3491 4 0.188645 0.414062 0.601489
3490 2 0.202105 0.431667 0.613067
3492 4 0.215566 0.449272 0.624645
4300 2 0.193693 0.492063 0.669706
4302 4 0.218228 0.490099 0.66531
325 2 0.324728 0.474751 0.592098
3118 2 0.25354 0.48136 0.654239
3119 4 0.27435 0.48642 0.641335
1204 2 0.311107 0.467396 0.655906
1206 4 0.294934 0.481688 0.643283
1442 4 0.381489 0.474196 0.580353
326 4 0.336128 0.472874 0.614272
879 4 0.388442 0.465948 0.597126
4562 4 0.386525 0.47 0.616461
4561 2 0.389392 0.484465 0.636654
878 4 0.399773 0.417986 0.60562
877 2 0.394107 0.441967 0.601373
881 4 0.382617 0.517456 0.659834
1081 2 0.0118934 0.0699905 0.728944
3103 2 0.14791 0.00460664 0.722798
3104 4 0.159093 0.0112121 0.701432
4502 4 0.146769 0.00134706 0.688863
4282 2 0.235911 0.0167062 0.667366
3299 4 0.0104844 0.125676 0.659068
1082 4 0.0359072 0.0727373 0.735346
1023 4 0.0557154 0.0737147 0.727721
1021 2 0.0751036 0.0894693 0.726678
1022 4 0.0944918 0.105224 0.725635
2255 4 0.155941 0.0884423 0.751162
2254 2 0.134075 0.0909791 0.739305
2256 4 0.112208 0.0935159 0.727448
3294 4 0.103548 0.168519 0.693292
1003 2 0.188137 0.109182 0.731415
1005 4 0.208395 0.12244 0.725169
3007 2 0.237915 0.143903 0.700103
3009 4 0.22208 0.134636 0.71709
3126 4 0.264231 0.142499 0.666341
3008 4 0.253751 0.15317 0.683117
3357 4 0.491806 0.0937838 0.724996
1084 2 0.490516 0.0973605 0.682294
1085 4 0.490277 0.0874119 0.705232
3355 2 0.478633 0.113578 0.732732
2627 4 0.448332 0.126252 0.733711
3356 4 0.46546 0.133372 0.740468
1208 4 0.0659629 0.231892 0.731397
1207 2 0.0884942 0.228889 0.741813
954 4 0.161107 0.202253 0.71527
3293 4 0.141828 0.196378 0.709395
3292 2 0.122688 0.182448 0.701343
952 2 0.178014 0.220668 0.714814
1075 2 0.230504 0.228291 0.733671
953 4 0.194922 0.239083 0.714358
1077 4 0.21276 0.242045 0.722663
1076 4 0.248248 0.214537 0.744679
3146 4 0.24366 0.195055 0.749095
3383 4 0.328722 0.320715 0.707659
3382 2 0.331704 0.300751 0.722415
3384 4 0.334686 0.280788 0.737171
921 4 0.352477 0.275624 0.743544
919 2 0.377084 0.279179 0.746203
920 4 0.40169 0.282734 0.748862
867 4 0.404503 0.299785 0.738322
4362 4 0.0208458 0.405546 0.711938
4207 2 0.0572054 0.406729 0.725952