ITEM: TIMESTEP
2918000
ITEM: NUMBER OF ATOMS
4590
ITEM: BOX BOUNDS xy xz yz pp pp pp
-9.9985700000000008e+00 9.9985700000000008e+00 0.0000000000000000e+00
-9.9985700000000008e+00 9.9985700000000008e+00 0.0000000000000000e+00
-9.9985700000000008e+00 9.9985700000000008e+00 0.0000000000000000e+00
ITEM: ATOMS id type xs ys zs
1372 2 0.0661799 0.0802563 0.0808861
4161 4 0.036924 0.0250433 0.00411234
581 4 0.129956 0.0362685 0.0838246
2889 4 0.440929 0.0594573 0.0549094
2887 2 0.462595 0.071921 0.0555877
2464 2 0.00970313 0.0843895 0.0654422
1373 4 0.0512364 0.0874048 0.0621566
2465 4 0.0332152 0.0782929 0.0595095
21 1 0.323275 0.118141 0.0738066
22 3 0.318709 0.0962517 0.0792071
24 3 0.303608 0.130402 0.0749269
23 3 0.331877 0.118915 0.0522705
354 4 0.286455 0.140609 0.0747198
2894 4 0.334584 0.104856 0.0384773
2893 2 0.354701 0.113883 0.0266864
2895 4 0.374818 0.122909 0.0148956
3347 4 0.387582 0.135608 0.0233354
3346 2 0.408597 0.143303 0.0121832
25 3 0.338488 0.12649 0.0885554
2888 4 0.48426 0.0843847 0.056266
2783 4 0.493865 0.0831289 0.0369834
3348 4 0.429611 0.150998 0.00103106
1052 4 0.445779 0.157749 0.00971223
1051 2 0.468371 0.16442 0.00132911
277 2 0.0484616 0.214494 0.0432791
278 4 0.025093 0.219501 0.0506293
279 4 0.0718302 0.209488 0.0359288
4470 4 0.0900085 0.203693 0.0433512
4468 2 0.112488 0.214603 0.0424424
4469 4 0.134968 0.225513 0.0415336
2877 4 0.250077 0.239727 0.0567703
743 4 0.215998 0.18246 0.0795119
742 2 0.235896 0.197598 0.0792246
2599 2 0.287993 0.217685 0.0775246
450 4 0.321132 0.225258 0.0560145
2601 4 0.307468 0.211708 0.0630274
913 2 0.402673 0.21717 0.0780279
914 4 0.378698 0.224116 0.0765548
448 2 0.344374 0.232183 0.0621004
449 4 0.367617 0.239107 0.0681862
104 3 0.486096 0.2501 0.0236664
915 4 0.426648 0.210225 0.079501
770 4 0.126884 0.31555 0.0260592
1119 4 0.117922 0.303433 0.0145104
769 2 0.135725 0.334941 0.0129823
1117 2 0.109661 0.28434 0.000639009
2875 2 0.236147 0.260422 0.0584685
2876 4 0.222218 0.281117 0.0601667
3196 2 0.208247 0.289263 0.0199695
3198 4 0.21835 0.287485 0.0427721
103 3 0.452893 0.268591 0.0239417
105 3 0.465911 0.25244 0.0553641
2759 4 0.457471 0.320185 0.0804187
101 1 0.471836 0.263365 0.0362803
2835 4 0.455484 0.329945 0.063874
2833 2 0.459603 0.326552 0.0394465
102 3 0.482738 0.282859 0.0417833
2834 4 0.463723 0.323159 0.015019
3543 4 0.477124 0.391571 0.0298753
3541 2 0.48398 0.408509 0.0128077
1466 4 0.491296 0.386571 0.0430655
1465 2 0.501223 0.385127 0.0659688
1122 4 0.103062 0.407483 0.0747097
1121 4 0.150091 0.422283 0.0663414
3552 4 0.16505 0.435512 0.0643192
1120 2 0.126577 0.414883 0.0705255
242 4 0.306039 0.48113 0.0293659
1873 2 0.0422853 0.0615252 0.144
1874 4 0.0604142 0.0766401 0.13575
1875 4 0.0241565 0.0464103 0.15225
3768 4 0.00501484 0.0411454 0.148726
3677 4 0.0749972 0.0876942 0.127854
582 4 0.0839488 0.055046 0.0894233
580 2 0.106953 0.0456573 0.086624
1374 4 0.0811235 0.0731078 0.0996156
333 4 0.138235 0.0706696 0.145384
331 2 0.15851 0.0804819 0.156238
692 4 0.206738 0.0787304 0.105308
2703 4 0.271716 0.00502566 0.111363
1273 2 0.324603 0.0701542 0.0976514
2701 2 0.283604 0.0264689 0.106457
2702 4 0.295492 0.047912 0.101552
1274 4 0.314276 0.0489563 0.10597
2615 4 0.0528584 0.14372 0.0903331
2614 2 0.0588632 0.141286 0.114483
2616 4 0.0648679 0.138853 0.138632
3676 2 0.0982817 0.0839347 0.136155
3678 4 0.121566 0.0801753 0.144456
2517 4 0.122185 0.144627 0.138777
2515 2 0.134851 0.162125 0.126184
332 4 0.178785 0.0902941 0.167093
691 2 0.218971 0.100221 0.101602
693 4 0.231203 0.121711 0.0978955
353 4 0.244281 0.136081 0.101205
352 2 0.265368 0.138345 0.0879624
1275 4 0.334929 0.091352 0.0893331
2677 2 0.412649 0.103684 0.129431
2679 4 0.387988 0.107811 0.129431
810 4 0.344167 0.108821 0.09687
808 2 0.359615 0.116096 0.115134
809 4 0.375063 0.123372 0.133399
2678 4 0.43731 0.0995568 0.129432
506 4 0.448209 0.0844205 0.136529
505 2 0.470679 0.0953862 0.136314
650 4 0.995516 0.226158 0.143719
649 2 0.0153319 0.218854 0.157104
728 4 0.0159095 0.252812 0.11015
651 4 0.0351482 0.211551 0.170489
2516 4 0.147518 0.179622 0.11359
387 4 0.162046 0.190503 0.121781
385 2 0.182284 0.185778 0.107879
386 4 0.202523 0.181053 0.0939775
1198 2 0.223574 0.21627 0.150841
1199 4 0.242963 0.203078 0.142167
1200 4 0.204186 0.229463 0.159516
2454 4 0.1985 0.24702 0.168386
2519 4 0.28909 0.173493 0.171063
2518 2 0.272002 0.180709 0.154296
2520 4 0.254914 0.187925 0.137529
2600 4 0.268517 0.223662 0.0920219
520 2 0.326108 0.177669 0.154594
744 4 0.255795 0.212736 0.0789374
522 4 0.306526 0.183255 0.169104
521 4 0.34569 0.172084 0.140085
624 4 0.36461 0.180455 0.134034
622 2 0.384123 0.194519 0.140862
623 4 0.403637 0.208584 0.14769
491 4 0.476527 0.1981 0.146409
456 4 0.463967 0.203467 0.161638
455 4 0.417601 0.22059 0.154034
845 4 0.429587 0.224446 0.0943229
454 2 0.440784 0.212029 0.157836
844 2 0.444543 0.239159 0.107925
2538 4 0.0329183 0.247081 0.11841
2536 2 0.0573337 0.252131 0.116518
2537 4 0.081749 0.257181 0.114626
286 2 0.0808513 0.33805 0.121473
2445 4 0.0952006 0.25496 0.128469
2444 4 0.144244 0.26202 0.121709
767 4 0.164066 0.259606 0.122744
2443 2 0.119722 0.25849 0.125089
288 4 0.0968148 0.321206 0.13078
713 4 0.0980507 0.317954 0.151601
712 2 0.121198 0.323969 0.158896
714 4 0.144345 0.329984 0.166191
611 4 0.14992 0.330233 0.145898
766 2 0.188613 0.26429 0.12189
768 4 0.213159 0.268973 0.121035
2094 4 0.230745 0.261516 0.118422
610 2 0.174875 0.331538 0.146752
2092 2 0.252984 0.272686 0.120839
2093 4 0.275223 0.283855 0.123255
528 4 0.285858 0.270745 0.113302
526 2 0.306914 0.283284 0.108344
527 4 0.327971 0.295823 0.103385
2651 4 0.346475 0.299459 0.0944602
2650 2 0.37037 0.306125 0.0913329
2652 4 0.394265 0.312791 0.0882055
2760 4 0.411239 0.313071 0.0981007
2758 2 0.434355 0.316628 0.0892597
2476 2 0.479372 0.257373 0.14827
846 4 0.459499 0.253873 0.121527
2477 4 0.461265 0.243448 0.138101
287 4 0.0648878 0.354894 0.112166
252 4 0.999499 0.339223 0.109131
250 2 0.0232706 0.346432 0.106278
251 4 0.0470419 0.35364 0.103426
3229 2 0.0794133 0.407474 0.102564
3230 4 0.0567431 0.40125 0.11108
2906 4 0.0376534 0.402194 0.103298
518 4 0.00275147 0.331086 0.127216
612 4 0.19983 0.332844 0.147605
2799 4 0.209902 0.350726 0.143238
2798 4 0.228893 0.386631 0.114068
2797 2 0.219398 0.368678 0.128653
2592 4 0.321963 0.359521 0.144762
2590 2 0.333189 0.365049 0.123114
2591 4 0.344415 0.370577 0.101466
2862 4 0.334048 0.345968 0.149953
2728 2 0.486941 0.360376 0.151303
2730 4 0.487839 0.371296 0.128828
2729 4 0.486042 0.349456 0.173778
2905 2 0.0237112 0.422932 0.102441
2907 4 0.0097691 0.443669 0.101583
3231 4 0.102083 0.413699 0.0940476
2161 2 0.0878446 0.466569 0.155911
2163 4 0.104012 0.479994 0.142362
1673 4 0.0885778 0.49193 0.138441
3550 2 0.179378 0.438663 0.0845669
3551 4 0.193706 0.441814 0.104815
3819 4 0.212657 0.439331 0.110107
3817 2 0.230949 0.443463 0.126645
3818 4 0.249241 0.447595 0.143183
4510 2 0.205428 0.498182 0.15104
677 4 0.262065 0.436186 0.132681
676 2 0.280807 0.43433 0.149127
1542 4 0.0609316 0.0040504 0.182761
785 4 0.384085 0.996985 0.182012
2756 4 0.374399 0.0453941 0.222918
2755 2 0.392488 0.0618953 0.227987
786 4 0.369578 0.0271807 0.21914
784 2 0.376832 0.0120829 0.200576
2757 4 0.410577 0.0783965 0.233056
750 4 0.041012 0.143889 0.193599
748 2 0.0236519 0.127467 0.186241
749 4 0.0062919 0.111045 0.178884
1477 2 0.0807723 0.157041 0.178862
1479 4 0.0586204 0.150736 0.188594
2930 4 0.121092 0.157276 0.173522
2929 2 0.138401 0.140194 0.179339
2931 4 0.155709 0.123113 0.185156
418 2 0.151878 0.112434 0.223841
419 4 0.154974 0.10827 0.199382
420 4 0.148781 0.116598 0.248301
2780 4 0.186214 0.0847816 0.184958
2779 2 0.207315 0.0981893 0.185355
2781 4 0.228416 0.111597 0.185751
1566 4 0.244644 0.120395 0.194451
1564 2 0.269198 0.123192 0.190646
1565 4 0.293751 0.125989 0.18684
458 4 0.295192 0.138571 0.201876
457 2 0.309582 0.149517 0.219148
606 4 0.420522 0.0957829 0.235114
604 2 0.43162 0.118183 0.234613
605 4 0.442717 0.140584 0.234112
2880 4 0.44295 0.145685 0.213854
2878 2 0.46464 0.149716 0.202087
2879 4 0.486331 0.153747 0.190319
3159 4 0.0525909 0.20414 0.177931
3157 2 0.064196 0.216817 0.196091
3158 4 0.0758012 0.229494 0.214251
1478 4 0.102924 0.163346 0.169129
2777 4 0.153624 0.205176 0.177542
2778 4 0.11296 0.199502 0.206091
2776 2 0.133292 0.202339 0.191816
2453 4 0.155792 0.224578 0.181544
537 4 0.172695 0.210785 0.238903
579 4 0.0917971 0.23809 0.204474
510 4 0.215539 0.168427 0.238686
2452 2 0.177146 0.235799 0.174965
509 4 0.192018 0.212556 0.238237
508 2 0.203778 0.190492 0.238462
459 4 0.323972 0.160463 0.236419
1749 4 0.340935 0.165577 0.24474
730 2 0.4143 0.231535 0.219794
732 4 0.398751 0.233996 0.200369
731 4 0.429848 0.229074 0.23922
2673 4 0.486863 0.218539 0.217951
2672 4 0.448189 0.237619 0.243269
2671 2 0.467526 0.228079 0.23061
577 2 0.10614 0.257621 0.210639
578 4 0.120482 0.277152 0.216804
236 4 0.134381 0.293994 0.215998
235 2 0.154489 0.284814 0.227685
2968 2 0.211967 0.270407 0.219415
2969 4 0.189088 0.2787 0.225157
237 4 0.174597 0.275633 0.239372
2970 4 0.234846 0.262115 0.213672
2853 4 0.25595 0.261111 0.217228
2851 2 0.27909 0.263814 0.208148
2852 4 0.302229 0.266516 0.199068
2861 4 0.319761 0.329893 0.195099
3694 2 0.0266275 0.376868 0.23854
3696 4 0.0416164 0.365533 0.222046
3830 4 0.0572687 0.361665 0.232895
3829 2 0.0662768 0.34691 0.21483
3695 4 0.0116385 0.388202 0.255034
3831 4 0.0752849 0.332156 0.196765
3935 4 0.0994454 0.39949 0.235266
3600 4 0.106374 0.405493 0.192474
3921 4 0.126351 0.402923 0.19198
3919 2 0.150225 0.410294 0.192901
3920 4 0.1741 0.417665 0.193822
2860 2 0.326904 0.33793 0.172526
1856 4 0.313218 0.391875 0.231148
4004 4 0.325364 0.396924 0.216852
4003 2 0.320029 0.410286 0.196403
337 2 0.414654 0.330298 0.244304
338 4 0.433158 0.336227 0.228567
291 4 0.450552 0.347074 0.230544
289 2 0.462334 0.366795 0.240415
2162 4 0.0716772 0.453145 0.169459
3988 2 0.0160305 0.471924 0.237822
3599 4 0.0727136 0.441911 0.186029
3598 2 0.0895436 0.423702 0.189252
4511 4 0.190118 0.485136 0.165893
1544 4 0.196138 0.47156 0.179553
1545 4 0.193865 0.424539 0.196425
1543 2 0.195001 0.448049 0.187989
4005 4 0.314694 0.423648 0.175953
678 4 0.299549 0.432473 0.165573
1611 4 0.0121137 0.00825233 0.264783
1785 4 0.00605239 0.0200722 0.278894
425 4 0.042422 0.0603581 0.329489
1783 2 0.019923 0.0408242 0.277432
1784 4 0.0337935 0.0615761 0.275969
424 2 0.0511106 0.0382149 0.337195
1806 4 0.144047 0.983606 0.320647
2870 4 0.153532 0.000166323 0.32925
722 4 0.215728 0.0705199 0.319599
163 3 0.177007 0.0807381 0.318024
721 2 0.240441 0.0681445 0.322564
1057 2 0.296223 0.00581151 0.334867
723 4 0.265155 0.0657691 0.325528
1127 4 0.416197 0.0309644 0.279324
3810 4 0.421469 0.0460691 0.267967
3808 2 0.421247 0.0699833 0.275264
1126 2 0.422022 0.0156257 0.298192
1703 4 0.0803961 0.125608 0.256698
1702 2 0.0965763 0.118858 0.274525
257 4 0.139821 0.11282 0.265976
530 4 0.109839 0.102922 0.310815
1704 4 0.112757 0.112109 0.292352
529 2 0.129527 0.100885 0.326094
256 2 0.157293 0.121789 0.281451
165 3 0.213458 0.0891189 0.313695
164 3 0.187667 0.116265 0.309741
161 1 0.193382 0.0968787 0.32114
515 4 0.188935 0.139347 0.308885
514 2 0.208086 0.148383 0.322181
258 4 0.174765 0.130758 0.296925
516 4 0.227236 0.157419 0.335478
3809 4 0.421026 0.0938975 0.282561
589 2 0.0103321 0.195468 0.288802
591 4 0.0324502 0.203054 0.279947
404 4 0.0491983 0.203717 0.291311
403 2 0.0697127 0.216666 0.297367
405 4 0.0902271 0.229615 0.303423
536 4 0.149903 0.239723 0.272723
29 3 0.130709 0.240302 0.267473
535 2 0.161299 0.225254 0.255813
30 3 0.104308 0.241387 0.294295
726 4 0.155289 0.248908 0.290708
27 3 0.138339 0.255077 0.30118
1030 2 0.23466 0.229111 0.311378
725 4 0.202184 0.257281 0.305924
724 2 0.178737 0.253094 0.298316
1031 4 0.212062 0.238445 0.306147
1395 4 0.273456 0.22411 0.304755
1189 2 0.327372 0.172976 0.326938
1032 4 0.257259 0.219777 0.316609
1393 2 0.295045 0.228523 0.292936
2753 4 0.328152 0.250253 0.285011
1394 4 0.316633 0.232935 0.281118
1747 2 0.363666 0.169107 0.254542
1748 4 0.386396 0.172636 0.264345
180 3 0.40626 0.165097 0.26296
1191 4 0.352227 0.173913 0.324386
400 2 0.384686 0.18493 0.323048
401 4 0.405246 0.18624 0.308879
2788 2 0.401308 0.236634 0.293457
179 3 0.414612 0.171284 0.299148
177 3 0.4155 0.199443 0.27427
178 3 0.441839 0.172679 0.27267
285 4 0.452713 0.178104 0.288002
2789 4 0.411581 0.214625 0.287517
283 2 0.476846 0.175718 0.294089
176 1 0.41949 0.176977 0.27719
2700 4 0.0102069 0.266678 0.328899
716 4 0.0556759 0.301747 0.264619
715 2 0.0791058 0.293107 0.265876
2698 2 0.0247155 0.286822 0.331881
479 4 0.0536961 0.294102 0.337635
26 1 0.121997 0.252478 0.2852
28 3 0.115275 0.27344 0.277866
717 4 0.102536 0.284466 0.267133
374 4 0.219154 0.322175 0.296501
373 2 0.202972 0.33078 0.313509
2790 4 0.391035 0.258642 0.299396
2754 4 0.371996 0.266661 0.302597
2752 2 0.350074 0.258457 0.293804
2554 2 0.399203 0.330392 0.302535
2555 4 0.405807 0.332436 0.326564
339 4 0.39615 0.324369 0.260041
2556 4 0.3926 0.328349 0.278506
3405 4 0.999763 0.384349 0.269389
261 4 0.0941464 0.405312 0.295572
3936 4 0.0866647 0.415609 0.280846
3934 2 0.0930551 0.407549 0.258056
259 2 0.0988782 0.397522 0.318856
375 4 0.186789 0.339385 0.330517
1855 2 0.310996 0.393094 0.256023
1857 4 0.308773 0.394314 0.280899
290 4 0.474116 0.386516 0.250287
3989 4 0.0253617 0.494442 0.243396
2826 4 0.0680384 0.497994 0.257662
1676 4 0.0811391 0.492979 0.272251
1675 2 0.104418 0.485013 0.276705
1677 4 0.127698 0.477048 0.281158
4025 4 0.147449 0.482427 0.27739
2690 4 0.245465 0.490819 0.336196
4024 2 0.172432 0.48291 0.278278
2530 2 0.210179 0.498401 0.321603
4026 4 0.197415 0.483393 0.279166
2532 4 0.187875 0.492523 0.311951
1188 4 0.323146 0.466183 0.313591
1187 4 0.291886 0.428702 0.302692
1186 2 0.307516 0.447442 0.308142
1802 4 0.341614 0.473445 0.310371
1803 4 0.387193 0.453392 0.314974
669 4 0.397548 0.437744 0.316092
1801 2 0.364403 0.463419 0.312673
667 2 0.422046 0.442133 0.318497
668 4 0.446544 0.446522 0.320903
1435 2 0.488315 0.455173 0.322384
1436 4 0.463466 0.457815 0.323243
426 4 0.0597991 0.0160718 0.3449
2645 4 0.0726336 0.0147069 0.360901
2869 2 0.161306 0.0161792 0.34681
2644 2 0.0928622 0.0189767 0.374964
2646 4 0.113091 0.0232464 0.389026
2663 4 0.132367 0.0251637 0.395602
2662 2 0.14744 0.0444262 0.400794
2664 4 0.162513 0.0636887 0.405987
2871 4 0.16908 0.032192 0.36437
1967 4 0.181511 0.0643853 0.401578
1058 4 0.292505 0.0181819 0.356276
1349 4 0.310266 0.0635918 0.378387
1348 2 0.293835 0.0633421 0.359542
1350 4 0.277404 0.0630924 0.340697
4125 4 0.291101 0.0255252 0.405908
2502 4 0.284042 0.0400235 0.417588
706 2 0.390128 0.0584603 0.354247
708 4 0.36989 0.047266 0.363751
618 4 0.350433 0.00775948 0.401512
617 4 0.350964 0.0449954 0.368136
616 2 0.350698 0.0263774 0.384824
707 4 0.410365 0.0696546 0.344742
3031 2 0.0227447 0.154215 0.406928
3033 4 0.0326728 0.165709 0.387066
2685 4 0.0528608 0.166962 0.385401
2892 4 0.113949 0.0983407 0.415357
636 4 0.128665 0.0924894 0.403934
531 4 0.149215 0.0988485 0.341373
635 4 0.153562 0.103186 0.361905
634 2 0.141114 0.0978378 0.382919
765 4 0.115688 0.163824 0.403666
162 3 0.194954 0.101641 0.34359
2483 4 0.243324 0.152707 0.346172
2482 2 0.267189 0.160137 0.345533
2713 2 0.393315 0.110755 0.376435
2715 4 0.369438 0.106671 0.382632
684 4 0.367938 0.104432 0.403109
2714 4 0.417192 0.114839 0.370237
3080 4 0.332791 0.168371 0.406236
1953 4 0.451743 0.157192 0.365463
1951 2 0.471041 0.165198 0.379199
2955 4 0.446255 0.174176 0.355719
2683 2 0.0776675 0.164179 0.386843
2684 4 0.102474 0.161397 0.388286
763 2 0.132425 0.174442 0.418908
1190 4 0.302516 0.172039 0.329491
2484 4 0.291055 0.167568 0.344894
8 3 0.257668 0.220279 0.336154
7 3 0.260291 0.204449 0.370142
6 1 0.264558 0.223557 0.358067
10 3 0.286898 0.227945 0.358615
9 3 0.252794 0.241185 0.367517
402 4 0.364127 0.183619 0.337216
2957 4 0.346259 0.182725 0.402495
2956 2 0.349049 0.198875 0.383612
2958 4 0.351839 0.215024 0.364729
2180 4 0.354517 0.232928 0.373431
2179 2 0.370724 0.250429 0.365932
2954 4 0.43144 0.215207 0.331271
2817 4 0.490941 0.193616 0.398056
1952 4 0.490338 0.173205 0.392936
2953 2 0.438847 0.194692 0.343495
2699 4 0.0392241 0.306966 0.334863
478 2 0.0762226 0.299691 0.346937
480 4 0.0987491 0.305279 0.356239
3462 4 0.113817 0.299431 0.369251
3460 2 0.114439 0.313986 0.389573
3461 4 0.115062 0.32854 0.409894
410 4 0.197195 0.343092 0.406848
1034 4 0.18759 0.322632 0.410431
1033 2 0.191831 0.298232 0.413872
3318 4 0.311088 0.301768 0.341279
3316 2 0.329038 0.287655 0.351467
584 4 0.279939 0.270777 0.422327
585 4 0.265124 0.318121 0.416018
583 2 0.272531 0.294449 0.419172
3317 4 0.346988 0.273542 0.361655
2181 4 0.386932 0.26793 0.358433
569 4 0.367999 0.32263 0.377556
568 2 0.382617 0.320987 0.357337
570 4 0.397235 0.319345 0.337118
894 4 0.369612 0.331403 0.395504
2495 4 0.400306 0.295225 0.4121
364 2 0.441329 0.298722 0.405458
365 4 0.463655 0.309756 0.403225
2612 4 0.00864993 0.332772 0.364221
593 4 0.145227 0.350436 0.363152
260 4 0.10361 0.389732 0.342139
594 4 0.121035 0.392998 0.352961
592 2 0.133131 0.371717 0.358056
411 4 0.156979 0.35634 0.38024
409 2 0.177087 0.349716 0.393544
893 4 0.347574 0.373059 0.412236
892 2 0.358593 0.352231 0.40387
547 2 0.492954 0.380003 0.369431
549 4 0.47431 0.37315 0.384617
812 4 0.478155 0.374732 0.404862
1419 4 0.155287 0.449857 0.357751
1417 2 0.168598 0.465117 0.343083
1418 4 0.181909 0.480377 0.328416
4322 4 0.304667 0.491018 0.372992
2691 4 0.285943 0.483374 0.364599
445 2 0.314913 0.429374 0.416564
4321 2 0.313792 0.467759 0.373954
2689 2 0.265704 0.487097 0.350398
447 4 0.317984 0.438501 0.393489
4323 4 0.322918 0.4445 0.374917
1644 4 0.417431 0.474216 0.417831
2899 2 0.0507902 0.00663212 0.429192
2900 4 0.0576312 0.0149271 0.451765
3797 4 0.0694539 0.0167159 0.466658
2580 4 0.0671135 0.0833734 0.45591
3796 2 0.0932298 0.00930461 0.468884
3798 4 0.117006 0.00189333 0.471109
1966 2 0.200821 0.061638 0.417222
1968 4 0.220132 0.0588907 0.432866
220 3 0.21947 0.0433243 0.481517
218 3 0.210822 0.0637203 0.451072
219 3 0.246398 0.0515025 0.456504
216 1 0.227102 0.0590671 0.466937
217 3 0.231965 0.0783604 0.478481
2501 4 0.240732 0.0566102 0.436294
2500 2 0.262387 0.0483169 0.426941
4339 2 0.271828 0.0401935 0.496461
4551 4 0.301834 0.0480295 0.469682
4340 4 0.283801 0.0524552 0.478254
4549 2 0.324481 0.0574957 0.474444
4550 4 0.347129 0.0669619 0.479206
88 3 0.346681 0.00575108 0.486069
2504 4 0.358019 0.0543428 0.491886
3396 4 0.357631 0.996149 0.452
3394 2 0.361933 0.995705 0.427373
3032 4 0.0128167 0.142721 0.42679
2578 2 0.0624203 0.0908148 0.479315
2891 4 0.0865498 0.079484 0.452699
2890 2 0.10025 0.0889124 0.434028
2558 4 0.227156 0.0976797 0.481308
2557 2 0.23822 0.116106 0.468531
2559 4 0.249283 0.134533 0.455754
1061 4 0.266904 0.122646 0.456711
1060 2 0.291236 0.122122 0.450977
1062 4 0.315567 0.121598 0.445242
641 4 0.305671 0.168479 0.456944
3081 4 0.311604 0.15001 0.447645
3079 2 0.322198 0.15919 0.42694
2319 4 0.311894 0.135525 0.503093
683 4 0.332847 0.118031 0.436041
682 2 0.350393 0.111232 0.419575
3327 4 0.017439 0.221285 0.489584
3325 2 0.0267477 0.198088 0.490279
3326 4 0.0360563 0.174892 0.490975
2802 4 0.158789 0.19686 0.420594
764 4 0.149161 0.185061 0.434149
3237 4 0.111478 0.178128 0.500017
937 2 0.230936 0.178849 0.451197
2800 2 0.183774 0.195992 0.420174
2801 4 0.208759 0.195125 0.419753
938 4 0.212084 0.182731 0.435238
939 4 0.249788 0.174967 0.467156
642 4 0.263831 0.181563 0.481008
640 2 0.284751 0.175021 0.468976
3496 2 0.321036 0.236319 0.490374
3497 4 0.326806 0.212154 0.487558
312 4 0.106989 0.318238 0.424556
310 2 0.103378 0.332553 0.444736
1035 4 0.196071 0.273832 0.417313
1237 2 0.177464 0.321042 0.492243
1238 4 0.173425 0.335642 0.47235
2527 2 0.321385 0.26468 0.42205
2529 4 0.298675 0.273778 0.416882
3455 4 0.250731 0.323885 0.429516
366 4 0.419003 0.287688 0.407691
2528 4 0.344094 0.255582 0.427218
2494 2 0.381527 0.279798 0.417976
2496 4 0.362747 0.264372 0.423852
3594 4 0.39452 0.319318 0.495782
3056 4 0.473024 0.320301 0.417667
3055 2 0.497236 0.324548 0.422242
311 4 0.0997668 0.346869 0.464916
662 4 0.225134 0.366459 0.456321
661 2 0.202551 0.360542 0.465277
3456 4 0.246 0.36702 0.45437
663 4 0.179968 0.354626 0.474232
3454 2 0.248365 0.345453 0.441943
2560 2 0.31734 0.398771 0.468322
2562 4 0.325334 0.396149 0.491868
2561 4 0.309345 0.401392 0.444777
346 2 0.36676 0.391912 0.493746
267 4 0.400317 0.394552 0.475145
347 4 0.380204 0.397596 0.473444
811 2 0.457657 0.367877 0.417432
265 2 0.417218 0.383781 0.460193
813 4 0.437159 0.361022 0.430002
266 4 0.434118 0.373011 0.44524
4251 4 0.488549 0.368501 0.474505
4043 4 0.476782 0.373424 0.490623
1173 4 0.0650748 0.494865 0.471929
1171 2 0.0415873 0.487178 0.475731
1172 4 0.0180999 0.479491 0.479533
3421 2 0.12667 0.494382 0.497541
560 4 0.0971065 0.444922 0.444583
2549 4 0.116875 0.418688 0.490119
1451 4 0.158243 0.427703 0.455341
559 2 0.100078 0.465758 0.458081
1450 2 0.134649 0.423741 0.462606
1452 4 0.111054 0.419778 0.469871
3422 4 0.112411 0.476874 0.486801
561 4 0.10305 0.486595 0.471579
2648 4 0.207925 0.458236 0.491419
2926 2 0.188795 0.445646 0.457206
2928 4 0.206304 0.456957 0.471015
2927 4 0.171286 0.434334 0.443396
446 4 0.311841 0.420247 0.439639
2961 4 0.391869 0.500174 0.481714
4058 4 0.401327 0.471012 0.428762
4057 2 0.377182 0.467926 0.434477
4059 4 0.353036 0.464839 0.440191
1642 2 0.431881 0.491196 0.429147
2315 4 0.08032 0.0718133 0.550394
2314 2 0.0566858 0.0688155 0.557984
2316 4 0.0330516 0.0658178 0.565573
2553 4 0.146484 0.0596722 0.549789
4325 4 0.145043 0.998346 0.530327
2195 4 0.132632 0.0695026 0.561886
4324 2 0.164533 0.0121055 0.522843
2551 2 0.163839 0.0773252 0.546271
4326 4 0.184023 0.0258648 0.515359
917 4 0.200363 0.0299543 0.503577
762 4 0.200317 0.0855443 0.545227
916 2 0.222216 0.0251761 0.514748
918 4 0.24407 0.0203978 0.525919
1143 4 0.306472 0.0308017 0.521397
1141 2 0.320485 0.0129758 0.510859
4341 4 0.259855 0.0279319 0.514668
2505 4 0.381951 0.0224676 0.522085
2503 2 0.369985 0.0384052 0.506986
574 2 0.413521 0.010936 0.524584
3621 4 0.447696 0.0282783 0.538869
3619 2 0.471516 0.0289172 0.546445
3620 4 0.495336 0.0295561 0.55402
576 4 0.428122 0.0249164 0.5393
982 2 0.0416026 0.134549 0.507252
983 4 0.0440397 0.11029 0.512792
2579 4 0.0577271 0.0982561 0.50272
984 4 0.0391654 0.158809 0.501712
2196 4 0.0873139 0.0898633 0.556189
2194 2 0.109973 0.079683 0.559037
2174 4 0.129729 0.124259 0.585053
2552 4 0.181194 0.0949782 0.542753
760 2 0.221338 0.0975568 0.551472
761 4 0.242359 0.109569 0.557718
319 2 0.194563 0.14809 0.513032
320 4 0.211678 0.133121 0.523434
321 4 0.177448 0.163058 0.502631
3002 4 0.188268 0.128086 0.584866
3062 4 0.207868 0.134205 0.582364
3021 4 0.260414 0.110162 0.566217
3019 2 0.284881 0.113667 0.562446
3020 4 0.309349 0.117171 0.558676
1107 4 0.322884 0.111615 0.573262
2317 2 0.30556 0.153826 0.518908
1105 2 0.345223 0.111495 0.584495
2244 4 0.488023 0.123197 0.567732
2242 2 0.465795 0.130943 0.576167
965 4 0.0542665 0.174323 0.554718
2322 4 0.0710273 0.168664 0.543363
964 2 0.0614113 0.162841 0.575749
2320 2 0.0834241 0.179225 0.52439
2321 4 0.0958209 0.189787 0.505418
3235 2 0.136413 0.176329 0.50042
3236 4 0.161349 0.17453 0.500822
1283 4 0.195602 0.219604 0.552755
1282 2 0.209467 0.198797 0.552588
1284 4 0.223333 0.17799 0.55242
2603 4 0.239605 0.169056 0.559769
2318 4 0.299227 0.172127 0.534724
2602 2 0.259898 0.169525 0.545169
2604 4 0.280191 0.169994 0.53057
3419 4 0.0812895 0.256475 0.567641
3353 4 0.0126735 0.335234 0.586571
3418 2 0.0971601 0.272625 0.557034
3420 4 0.113031 0.288775 0.546427
890 4 0.123678 0.281882 0.532299
889 2 0.146948 0.28613 0.524196
891 4 0.170218 0.290377 0.516094
1239 4 0.181503 0.306442 0.512136
3498 4 0.315266 0.260485 0.49319
3445 2 0.0288788 0.355255 0.550879
3446 4 0.0259739 0.344178 0.528652
3447 4 0.0317836 0.366333 0.573106
2847 4 0.202217 0.374508 0.569294
2845 2 0.22622 0.368182 0.566282
2846 4 0.250222 0.361856 0.563271
212 3 0.217474 0.404344 0.519023
3044 4 0.250996 0.373939 0.548286
3043 2 0.272893 0.382212 0.539497
1641 4 0.310284 0.399953 0.539924
3045 4 0.29479 0.390485 0.530708
1639 2 0.3273 0.413106 0.52717
3592 2 0.40848 0.338701 0.503173
348 4 0.353316 0.386229 0.514047
4042 2 0.458742 0.360679 0.502341
4044 4 0.440701 0.347933 0.51406
3593 4 0.422439 0.358083 0.510565
3962 4 0.0837228 0.487124 0.562953
4179 4 0.0780561 0.468228 0.567443
2548 2 0.120842 0.426437 0.513558
2550 4 0.12481 0.434187 0.536998
4177 2 0.0941429 0.450867 0.559381
4178 4 0.11023 0.433507 0.551318
211 1 0.215282 0.424181 0.530461
213 3 0.200467 0.421099 0.548051
1445 4 0.205563 0.425153 0.566944
214 3 0.236073 0.43047 0.538623
215 3 0.20733 0.440159 0.516314
2647 2 0.228651 0.471375 0.496218
1488 4 0.260838 0.482386 0.517709
2649 4 0.249376 0.484513 0.501017
1486 2 0.277418 0.482332 0.536425
325 2 0.316977 0.474346 0.574812
1487 4 0.293998 0.482278 0.555141
327 4 0.293959 0.467151 0.568211
1442 4 0.353637 0.496782 0.581969
1640 4 0.344317 0.426258 0.514417
1911 4 0.36261 0.431441 0.522109
1909 2 0.386189 0.431066 0.530422
1910 4 0.409768 0.430692 0.538736
2959 2 0.388636 0.506197 0.505765
326 4 0.339995 0.481541 0.581414
3453 4 0.418931 0.446816 0.547713
3451 2 0.439732 0.445146 0.533939
3452 4 0.460533 0.443476 0.520166
1698 4 0.47549 0.454345 0.529996
4371 4 0.114843 0.0697925 0.648801
3308 4 0.228646 0.0589496 0.637623
3309 4 0.221149 0.0126224 0.654896
3307 2 0.224897 0.035786 0.646259
4284 4 0.201613 0.0166478 0.66453
3049 2 0.283158 0.00524446 0.631252
3050 4 0.267751 0.0229776 0.639817
270 4 0.267271 0.0420882 0.634132
268 2 0.283219 0.0611532 0.636845
269 4 0.299168 0.0802182 0.639558
2281 2 0.395974 0.0606844 0.623683
2282 4 0.375962 0.054421 0.637302
3083 4 0.362497 0.0681889 0.642666
3082 2 0.33799 0.0690362 0.637782
2283 4 0.415986 0.0669479 0.610064
2977 2 0.449938 0.0568227 0.637654
2978 4 0.467137 0.049106 0.65408
1086 4 0.486834 0.0515278 0.659187
2979 4 0.432738 0.0645393 0.621228
966 4 0.0685561 0.151358 0.59678
3298 2 0.0170791 0.132111 0.659491
3300 4 0.0411063 0.138321 0.65644
3360 4 0.0580172 0.148502 0.655316
4369 2 0.109608 0.0926758 0.657412
2175 4 0.0874791 0.150212 0.591545
4370 4 0.104372 0.115559 0.666023
3003 4 0.14041 0.142276 0.581867
2173 2 0.108604 0.137236 0.588299
3001 2 0.164339 0.135181 0.583367
3061 2 0.225139 0.146403 0.59571
3063 4 0.24241 0.158601 0.609055
3084 4 0.313483 0.0698835 0.632899
3385 2 0.401211 0.129364 0.590707
3387 4 0.376276 0.129139 0.592553
1106 4 0.367561 0.111375 0.595728
2243 4 0.443568 0.138689 0.584602
3386 4 0.426145 0.129589 0.588862
3126 4 0.22965 0.171892 0.665451
3125 4 0.245916 0.175572 0.618305
3124 2 0.237783 0.173732 0.641878
3238 2 0.0361641 0.264632 0.619233
3239 4 0.0112396 0.265652 0.620942
3240 4 0.0610887 0.263612 0.617525
3093 4 0.0768109 0.271599 0.628377
3091 2 0.100718 0.278405 0.62567
3092 4 0.124625 0.28521 0.622964
3435 4 0.1452 0.287564 0.63352
82 3 0.13356 0.305445 0.626639
81 1 0.12901 0.327836 0.623982
3433 2 0.1628 0.271082 0.640135
84 3 0.106002 0.330828 0.62365
383 4 0.197282 0.259127 0.659712
3434 4 0.1804 0.2546 0.64675
382 2 0.219758 0.256842 0.670426
904 2 0.0652335 0.340672 0.615293
905 4 0.0434254 0.350273 0.607718
2721 4 0.0507549 0.373367 0.57843
2719 2 0.071663 0.386266 0.583084
906 4 0.0870415 0.331071 0.622868
83 3 0.138223 0.335036 0.603939
85 3 0.138107 0.339449 0.641332
2720 4 0.0925711 0.399166 0.587738
3221 4 0.105171 0.406816 0.600591
3220 2 0.130151 0.406693 0.599493
3222 4 0.15513 0.40657 0.598396
3491 4 0.168758 0.411131 0.610476
3380 4 0.230313 0.351055 0.660705
1298 4 0.21385 0.338623 0.658502
3490 2 0.185199 0.401636 0.626745
3492 4 0.201641 0.39214 0.643014
3379 2 0.252912 0.347284 0.650693
1040 4 0.281505 0.355269 0.626233
3381 4 0.275512 0.343513 0.640682
1039 2 0.305668 0.351693 0.620892
1041 4 0.329832 0.348117 0.615552
998 4 0.346498 0.350915 0.626252
997 2 0.356365 0.342149 0.647488
999 4 0.366233 0.333382 0.668724
1821 4 0.0158574 0.496118 0.605162
1444 2 0.203125 0.438212 0.588126
1446 4 0.200686 0.451271 0.609308
3118 2 0.226601 0.481208 0.654251
3120 4 0.204671 0.485728 0.643122
4302 4 0.195575 0.489466 0.660202
3119 4 0.24853 0.476688 0.665379
1205 4 0.314449 0.48 0.651548
1204 2 0.290956 0.474517 0.658121
877 2 0.438804 0.467141 0.619107
878 4 0.418855 0.470347 0.604378
879 4 0.458753 0.463935 0.633836
1081 2 0.0148571 0.0540033 0.727892
1082 4 0.0394692 0.0583676 0.728517
1023 4 0.0565883 0.0656107 0.724232
1021 2 0.0811047 0.0682551 0.720091
1022 4 0.105621 0.0708996 0.71595
2256 4 0.122767 0.0600063 0.719483
2254 2 0.147227 0.065141 0.718767
4282 2 0.183832 0.00594705 0.678477
2255 4 0.171687 0.0702757 0.718052
1004 4 0.189473 0.073601 0.726358
1085 4 0.491421 0.0696421 0.705572
1084 2 0.489127 0.0605849 0.682379
3357 4 0.481306 0.0740445 0.722604
3358 2 0.0747015 0.134736 0.667858
3359 4 0.0913857 0.12097 0.6804
954 4 0.137266 0.160065 0.744472
952 2 0.158222 0.16649 0.732441
3293 4 0.122169 0.158075 0.729848
3292 2 0.102032 0.16936 0.720237
3008 4 0.232253 0.154503 0.675295
1003 2 0.203164 0.0864277 0.70983
1005 4 0.216856 0.0992544 0.693301
3007 2 0.232403 0.132423 0.687025
3009 4 0.232553 0.110342 0.698756
3146 4 0.239162 0.166267 0.74527
1076 4 0.238934 0.170476 0.724404
2628 4 0.397963 0.115052 0.739026
3441 4 0.38471 0.129196 0.733047
3439 2 0.365385 0.131916 0.748678
3355 2 0.471044 0.0968374 0.722006
2626 2 0.421069 0.122825 0.733468
2627 4 0.444175 0.130597 0.727909
3356 4 0.460782 0.11963 0.721407
3294 4 0.081896 0.180645 0.710625
1134 4 0.00990295 0.239188 0.716065
1075 2 0.215998 0.17817 0.718085
953 4 0.179178 0.172915 0.720411
1077 4 0.193062 0.185865 0.711766
1132 2 0.00344501 0.26296 0.720348
384 4 0.242234 0.254558 0.681139
794 4 0.245255 0.330539 0.69479
3383 4 0.30712 0.266164 0.702392
793 2 0.256484 0.329385 0.717101
3382 2 0.327109 0.267193 0.717377
795 4 0.267712 0.328231 0.739411
3384 4 0.347098 0.268222 0.732362
921 4 0.36308 0.262114 0.744632
919 2 0.388082 0.261986 0.744432