ITEM: TIMESTEP
1823000
ITEM: NUMBER OF ATOMS
4590
ITEM: BOX BOUNDS xy xz yz pp pp pp
-9.9985700000000008e+00 1.9197254399999991e+01 9.1986843999999905e+00
-9.9985700000000008e+00 9.9985700000000008e+00 0.0000000000000000e+00
-9.9985700000000008e+00 9.9985700000000008e+00 0.0000000000000000e+00
ITEM: ATOMS id type xs ys zs
2464 2 0.0171043 0.0739241 0.0770399
2465 4 0.0403859 0.0767124 0.0732974
2949 4 0.060553 0.0765342 0.0711326
2947 2 0.0810538 0.0813541 0.0803982
3046 2 0.276069 0.0341442 0.0825726
3047 4 0.294659 0.0438356 0.082747
1761 4 0.300636 0.0341195 0.0633389
3048 4 0.257478 0.0244527 0.0823982
1759 2 0.32109 0.032781 0.0481788
1760 4 0.341544 0.0314425 0.0330188
1823 4 0.386513 0.0256178 0.00778745
1822 2 0.409683 0.027712 0.00159226
621 4 0.0617299 0.161371 0.0406424
3260 4 0.120459 0.111345 0.00382248
3140 4 0.0449428 0.168723 0.0284032
619 2 0.0819998 0.168956 0.038861
3139 2 0.0189316 0.174047 0.0348575
620 4 0.10227 0.176541 0.0370796
2966 4 0.118073 0.180975 0.032269
2965 2 0.137395 0.186222 0.0434592
2967 4 0.156717 0.191469 0.0546494
3242 4 0.168938 0.200246 0.0509341
3241 2 0.191128 0.205177 0.0493114
3243 4 0.213319 0.210109 0.0476887
3284 4 0.23502 0.206346 0.0502822
3283 2 0.257487 0.193317 0.0638475
3285 4 0.279955 0.180287 0.0774128
2843 4 0.29982 0.165037 0.0808105
2842 2 0.317243 0.171609 0.068005
2784 4 0.356864 0.167659 0.0537395
2844 4 0.334665 0.17818 0.0551996
2782 2 0.367676 0.182816 0.0448415
2783 4 0.378488 0.197973 0.0359435
359 4 0.338116 0.199397 0.0189807
358 2 0.319225 0.212129 0.00185826
2401 2 0.00709855 0.316157 0.00318191
967 2 0.100769 0.293192 0.0177568
969 4 0.114604 0.288022 0.0393714
462 4 0.134423 0.28904 0.0334674
460 2 0.154755 0.295339 0.0266913
461 4 0.175086 0.301639 0.0199152
1841 4 0.206807 0.255975 0.0164434
1079 4 0.195797 0.300124 0.0186043
1078 2 0.217734 0.2967 0.00450254
1119 4 0.256592 0.290983 0.0019781
2771 4 0.396223 0.328957 0.0765764
4304 4 0.0331392 0.378268 0.0707994
4303 2 0.0377922 0.390606 0.0516605
4305 4 0.0424452 0.402944 0.0325216
597 4 0.0558369 0.40546 0.0169145
595 2 0.0810848 0.396509 0.0268426
596 4 0.106333 0.387558 0.0367707
1550 4 0.125403 0.389165 0.0368449
1549 2 0.13929 0.400618 0.048118
1551 4 0.153176 0.412072 0.0593911
3541 2 0.195653 0.404044 0.067659
3543 4 0.222649 0.396148 0.0635375
3542 4 0.168658 0.411939 0.0717805
1466 4 0.239682 0.39018 0.0780887
1465 2 0.260662 0.393426 0.0676186
1467 4 0.281642 0.396671 0.0571486
2834 4 0.361523 0.394457 0.0132394
2522 4 0.408911 0.338801 0.0680024
2833 2 0.383445 0.395716 0.00240982
2521 2 0.423013 0.34616 0.0517162
2523 4 0.437115 0.353519 0.03543
3339 4 0.447959 0.340873 0.0193938
3337 2 0.463976 0.346958 0.00409245
4001 4 0.21778 0.497855 0.380554
902 4 0.46735 0.48718 0.0151095
901 2 0.476889 0.474303 0.0362353
903 4 0.486428 0.461427 0.0573611
3550 2 0.44679 0.49986 0.0851377
1372 2 0.048686 0.0641617 0.128707
123 3 0.0298573 0.00352299 0.162602
1374 4 0.0283341 0.0825305 0.140794
1373 4 0.0690379 0.045793 0.116619
2745 4 0.115768 0.0438187 0.159655
722 4 0.258812 0.0488603 0.159711
721 2 0.280561 0.0461612 0.145663
723 4 0.30231 0.0434622 0.131615
2520 4 0.320091 0.0472478 0.134778
2518 2 0.343935 0.0491317 0.131455
2519 4 0.367779 0.0510157 0.128131
2693 4 0.388525 0.00259095 0.142259
3809 4 0.38053 0.0546443 0.113495
2692 2 0.40577 0.0137344 0.142989
3808 2 0.39827 0.0652062 0.111787
2694 4 0.423016 0.0248778 0.143719
3810 4 0.416011 0.0757681 0.110079
1506 4 0.436175 0.0315763 0.154422
1504 2 0.448003 0.0441644 0.166926
743 4 0.438614 0.0709703 0.113805
742 2 0.465782 0.0633118 0.116536
744 4 0.492949 0.0556533 0.119267
622 2 0.012016 0.14176 0.105793
3962 4 0.461532 0.429548 0.494564
2948 4 0.101555 0.086174 0.0896639
377 4 0.119224 0.0859739 0.0986039
623 4 0.0243591 0.157376 0.105526
357 4 0.043343 0.159219 0.11002
355 2 0.0644874 0.164361 0.103233
378 4 0.166047 0.0859359 0.116212
376 2 0.142636 0.0859549 0.107408
2717 4 0.181105 0.0942385 0.118711
757 2 0.133338 0.159696 0.0911829
759 4 0.16037 0.151488 0.0870679
758 4 0.106306 0.167903 0.0952979
2716 2 0.202384 0.0942458 0.131836
2600 4 0.212881 0.128335 0.14558
2895 4 0.218787 0.140965 0.134394
2893 2 0.236955 0.14819 0.123854
2718 4 0.223662 0.0942531 0.144961
392 4 0.225685 0.110353 0.151452
391 2 0.250807 0.107001 0.159064
2599 2 0.191131 0.139821 0.160483
2894 4 0.255123 0.155416 0.113313
23 3 0.277634 0.147447 0.114186
24 3 0.307339 0.155828 0.0984402
1566 4 0.320695 0.102501 0.118005
1564 2 0.339042 0.11213 0.121715
21 1 0.283861 0.164625 0.107575
393 4 0.275928 0.103649 0.166677
1565 4 0.357388 0.121758 0.125425
354 4 0.361414 0.137666 0.119067
352 2 0.380562 0.141477 0.132249
353 4 0.399711 0.145288 0.145432
693 4 0.399748 0.129809 0.15761
356 4 0.0856318 0.169502 0.0964455
3209 4 0.193267 0.223834 0.146378
628 2 0.188062 0.24385 0.1067
630 4 0.18735 0.234208 0.129188
3208 2 0.219395 0.214041 0.154233
3210 4 0.245523 0.204249 0.162089
22 3 0.267379 0.177288 0.0915989
556 2 0.292158 0.187113 0.153441
25 3 0.282882 0.177811 0.125433
558 4 0.316944 0.183996 0.145065
654 4 0.314546 0.19566 0.12869
652 2 0.324478 0.21103 0.118696
653 4 0.33441 0.2264 0.108701
2975 4 0.356166 0.22029 0.113577
2974 2 0.382091 0.212721 0.121591
2976 4 0.408015 0.205151 0.129604
836 4 0.41659 0.210158 0.146166
835 2 0.434094 0.218938 0.137002
837 4 0.451598 0.227719 0.127837
2615 4 0.469558 0.230525 0.120684
2614 2 0.495575 0.215094 0.115286
450 4 0.0144686 0.274057 0.0952676
2729 4 0.00123424 0.25625 0.146281
629 4 0.188774 0.253493 0.0842123
296 4 0.247829 0.294797 0.135915
295 2 0.259208 0.311089 0.137798
297 4 0.270587 0.327382 0.139681
2571 4 0.289415 0.331145 0.136663
524 4 0.333123 0.273022 0.102975
523 2 0.341107 0.291364 0.107343
525 4 0.349091 0.309706 0.111711
2772 4 0.364925 0.309247 0.0985536
2770 2 0.380574 0.319102 0.087565
350 4 0.400881 0.261155 0.129766
349 2 0.417176 0.268158 0.115792
351 4 0.433471 0.27516 0.101818
518 4 0.453723 0.273577 0.0966018
517 2 0.471822 0.281868 0.105337
519 4 0.489921 0.290159 0.114072
734 4 0.226081 0.38563 0.160409
2569 2 0.309645 0.338672 0.139347
735 4 0.254145 0.386545 0.119318
733 2 0.240113 0.386087 0.139863
2570 4 0.329875 0.346199 0.14203
2969 4 0.346465 0.352498 0.14059
2968 2 0.367257 0.358464 0.134623
2970 4 0.38805 0.36443 0.128656
729 4 0.407256 0.361299 0.136151
727 2 0.433335 0.358317 0.133742
728 4 0.459415 0.355334 0.131332
2538 4 0.4733 0.364776 0.134449
2536 2 0.495751 0.366811 0.125843
1741 2 0.257699 0.493756 0.125408
1743 4 0.237289 0.493099 0.1394
1861 2 0.322503 0.487118 0.116045
1862 4 0.295331 0.496518 0.119888
1742 4 0.278109 0.494413 0.111417
1863 4 0.349675 0.477719 0.112202
3551 4 0.424065 0.498018 0.0932687
125 3 0.0104232 0.0197841 0.194387
121 1 0.0321556 0.0123862 0.183076
122 3 0.038313 0.0300445 0.179413
2471 4 0.49919 0.326951 0.168672
2854 2 0.0747559 0.00901844 0.226153
750 4 0.0321373 0.0738401 0.194154
3767 4 0.136776 0.0297163 0.166973
582 4 0.0492659 0.0789938 0.192216
2744 4 0.090931 0.0273157 0.193959
2743 2 0.10335 0.0355672 0.176807
2938 2 0.128802 0.0114035 0.232718
2856 4 0.0871106 0.0196624 0.240792
2939 4 0.150707 0.00554735 0.217825
2940 4 0.106897 0.0172597 0.247611
3766 2 0.158984 0.0321949 0.175573
3768 4 0.181191 0.0346735 0.184173
4353 4 0.20073 0.0313479 0.175243
429 4 0.180917 0.0576813 0.230026
2756 4 0.168658 0.0513087 0.241907
427 2 0.177781 0.0695251 0.208128
2755 2 0.142236 0.0574646 0.247453
4351 2 0.221673 0.0374019 0.17019
4352 4 0.242616 0.0434559 0.165137
112 3 0.466789 0.00924192 0.228033
1505 4 0.45983 0.0567524 0.17943
115 3 0.49535 0.0070452 0.202952
748 2 0.0114518 0.084015 0.17786
730 2 0.00408257 0.120892 0.248088
732 4 0.0291161 0.11933 0.242474
580 2 0.0477622 0.093621 0.21181
581 4 0.0462585 0.108248 0.231403
428 4 0.174645 0.0813689 0.186229
2601 4 0.169381 0.151308 0.175386
691 2 0.410801 0.115551 0.177653
2768 4 0.432799 0.0953439 0.215105
2767 2 0.42713 0.0880023 0.237228
692 4 0.421853 0.101293 0.197696
235 2 0.0174789 0.168946 0.185243
236 4 0.0421346 0.169671 0.184787
579 4 0.0598014 0.174687 0.185972
577 2 0.0820302 0.179641 0.186016
578 4 0.104259 0.184596 0.18606
387 4 0.125652 0.180673 0.182108
385 2 0.14216 0.19116 0.189866
386 4 0.158668 0.201647 0.197624
276 4 0.176457 0.204701 0.203886
274 2 0.197986 0.209791 0.20932
275 4 0.219514 0.214881 0.214754
557 4 0.267372 0.19023 0.161816
497 4 0.241953 0.206771 0.213922
496 2 0.265566 0.20765 0.207022
498 4 0.289179 0.208528 0.200122
507 4 0.305422 0.213288 0.205398
506 4 0.347675 0.168914 0.212793
505 2 0.326548 0.191101 0.209096
2673 4 0.483852 0.164062 0.252304
2789 4 0.464394 0.172616 0.244589
2788 2 0.437733 0.177822 0.247626
2705 4 0.348792 0.321357 0.214643
2704 2 0.375017 0.314978 0.208162
2706 4 0.401243 0.308599 0.201681
4007 4 0.422596 0.302341 0.205272
4006 2 0.438118 0.314951 0.20188
4008 4 0.45364 0.327561 0.198487
2472 4 0.470774 0.32564 0.209378
2470 2 0.484982 0.326296 0.189025
3405 4 0.243896 0.380918 0.172345
3403 2 0.257827 0.377639 0.193795
3404 4 0.271759 0.374359 0.215245
499 2 0.371953 0.412992 0.251739
3450 4 0.436405 0.37093 0.236978
3448 2 0.454259 0.381436 0.236642
3449 4 0.472112 0.391942 0.236307
714 4 0.488025 0.377544 0.22521
301 2 0.0256259 0.424145 0.190428
302 4 0.0518349 0.420507 0.193584
1664 4 0.066378 0.429176 0.197008
1663 2 0.0899529 0.430246 0.203703
1665 4 0.113528 0.431315 0.210398
3694 2 0.120681 0.46793 0.242593
3695 4 0.139899 0.47378 0.232059
501 4 0.385087 0.42721 0.257741
643 2 0.495828 0.439731 0.24073
645 4 0.489962 0.427056 0.222627
2545 2 0.0187291 0.0427981 0.276596
2547 4 0.0319401 0.0575029 0.279751
2739 4 0.0494229 0.0589258 0.270289
3722 4 0.00688849 0.0219431 0.254577
2546 4 0.00551807 0.0280934 0.273442
2738 4 0.0978733 0.0597174 0.259461
2737 2 0.0736481 0.0593216 0.264875
1183 2 0.123638 0.0319979 0.322877
1184 4 0.112318 0.0155959 0.323427
2757 4 0.115813 0.0636206 0.252998
2114 4 0.104893 0.00227544 0.328514
1185 4 0.134958 0.0483998 0.322327
3699 4 0.198492 0.00259726 0.266338
3927 4 0.203222 0.0202264 0.265753
342 4 0.153703 0.0505172 0.327425
3925 2 0.203904 0.0426628 0.266611
3926 4 0.204586 0.0650992 0.267468
1244 4 0.274198 0.0393139 0.316389
3476 4 0.255211 0.0397038 0.320928
1243 2 0.297369 0.0424497 0.3133
2667 4 0.338993 0.0410519 0.319897
1245 4 0.32054 0.0455855 0.31021
2665 2 0.347544 0.058872 0.325109
2666 4 0.356094 0.076692 0.330321
1522 2 0.435217 0.00443238 0.332917
1524 4 0.454515 0.0132623 0.331685
1375 2 0.398784 0.0778518 0.318549
1376 4 0.42462 0.0733995 0.312266
1377 4 0.372947 0.0823041 0.324832
2870 4 0.443176 0.0710913 0.321903
2869 2 0.455563 0.0464059 0.325743
2871 4 0.46795 0.0217205 0.329584
590 4 0.00901153 0.118374 0.319362
2849 4 0.0277867 0.122262 0.320694
2848 2 0.0521017 0.123536 0.322561
2850 4 0.0764168 0.12481 0.324427
3572 4 0.0931465 0.129739 0.324393
3571 2 0.118502 0.127172 0.318546
3573 4 0.143857 0.124605 0.312699
2641 2 0.222825 0.167874 0.327704
2643 4 0.201644 0.163978 0.336772
2642 4 0.244006 0.171769 0.318635
2180 4 0.382933 0.137985 0.251722
2769 4 0.42146 0.0806607 0.259352
2179 2 0.389235 0.157586 0.254235
650 4 0.00983259 0.171422 0.295554
984 4 0.0146854 0.235402 0.330694
649 2 0.0325194 0.175474 0.298003
1953 4 0.0305855 0.24289 0.328538
651 4 0.0552063 0.179527 0.300452
1951 2 0.052009 0.244433 0.317009
3159 4 0.0736608 0.18303 0.304261
1952 4 0.0734325 0.245976 0.305479
3157 2 0.093323 0.190573 0.310024
3158 4 0.112985 0.198115 0.315788
635 4 0.131673 0.200178 0.322915
2765 4 0.0905279 0.250087 0.297842
634 2 0.150787 0.207704 0.330588
2181 4 0.395538 0.177188 0.256748
2790 4 0.411072 0.183029 0.250663
344 4 0.0177976 0.287503 0.315127
2654 4 0.00110258 0.293297 0.326724
343 2 0.0311538 0.299348 0.326585
2764 2 0.10904 0.257736 0.288825
2766 4 0.127551 0.265386 0.279807
2534 4 0.149194 0.261172 0.281227
2567 4 0.152959 0.329091 0.319381
2533 2 0.171976 0.265106 0.279002
2535 4 0.194758 0.26904 0.276777
2566 2 0.17892 0.323416 0.312474
2568 4 0.204882 0.317741 0.305566
290 4 0.214133 0.329884 0.309981
2945 4 0.2101 0.276201 0.273159
2944 2 0.23371 0.276859 0.280434
2946 4 0.25732 0.277517 0.287709
1395 4 0.492974 0.261055 0.33656
1573 2 0.143466 0.391818 0.32509
1575 4 0.163934 0.393789 0.312268
289 2 0.232244 0.339792 0.313614
5 3 0.169793 0.394245 0.294142
2 3 0.156965 0.406489 0.259628
1 1 0.176884 0.393245 0.272378
3 3 0.185579 0.371395 0.264685
4 3 0.195082 0.401014 0.27037
291 4 0.250354 0.3497 0.317247
338 4 0.269724 0.347739 0.309875
337 2 0.289796 0.35564 0.310748
339 4 0.309868 0.363541 0.311622
500 4 0.35882 0.398775 0.245738
2556 4 0.331757 0.35596 0.317427
2554 2 0.358063 0.352646 0.317745
2555 4 0.384368 0.349332 0.318063
2852 4 0.402323 0.353725 0.318599
2851 2 0.425723 0.356214 0.314536
2853 4 0.449124 0.358703 0.310473
2622 4 0.463887 0.366421 0.310666
2620 2 0.478834 0.37874 0.303701
2621 4 0.49378 0.391059 0.296735
2873 4 0.0907769 0.429346 0.288217
2872 2 0.0878496 0.442838 0.267422
2874 4 0.0849222 0.456329 0.246628
3696 4 0.101464 0.46208 0.253128
1658 4 0.0994091 0.492412 0.296584
1657 2 0.125973 0.486818 0.292306
1659 4 0.152537 0.481224 0.288027
1578 4 0.169635 0.483211 0.297999
1576 2 0.179865 0.49262 0.316019
1338 4 0.321749 0.490337 0.327108
615 4 0.342193 0.480941 0.318079
613 2 0.357809 0.493718 0.318089
1157 4 0.403172 0.430448 0.261128
1156 2 0.417029 0.444167 0.26663
542 4 0.419733 0.41731 0.31704
1158 4 0.430886 0.457886 0.272133
1803 4 0.446454 0.462898 0.264958
1801 2 0.448718 0.484531 0.262121
4179 4 0.480307 0.430536 0.488825
2900 4 0.013149 0.036862 0.408926
2899 2 0.0253015 0.0521596 0.413714
2817 4 0.0808941 0.0571912 0.395674
2815 2 0.106892 0.0521208 0.389396
2816 4 0.13289 0.0470504 0.383118
2714 4 0.147546 0.0493837 0.394564
2713 2 0.167815 0.057004 0.393191
340 2 0.174996 0.0524732 0.338775
2715 4 0.188084 0.0646243 0.391817
341 4 0.19629 0.0544292 0.350125
162 3 0.197995 0.0765942 0.387435
3477 4 0.212164 0.0624605 0.351285
165 3 0.227011 0.0714366 0.361815
3475 2 0.233688 0.0510821 0.336106
164 3 0.235749 0.0720812 0.398361
2645 4 0.251095 0.0713516 0.415976
161 1 0.217883 0.0809771 0.381943
684 4 0.305089 0.0313444 0.396503
1061 4 0.325178 0.0283151 0.390454
1060 2 0.339741 0.041177 0.3841
1062 4 0.354304 0.0540389 0.377746
4239 4 0.431206 0.0260709 0.414546
4237 2 0.454678 0.0245332 0.404319
3851 4 0.499306 0.0199093 0.391544
4238 4 0.478149 0.0229955 0.394091
163 3 0.210282 0.103956 0.380708
2821 2 0.319921 0.16576 0.398849
367 2 0.375273 0.163222 0.407283
368 4 0.353953 0.160018 0.417049
2822 4 0.341718 0.150964 0.412323
2657 4 0.0939089 0.187167 0.401635
2656 2 0.111724 0.181489 0.382613
2658 4 0.129539 0.175811 0.363592
636 4 0.169901 0.21523 0.33826
711 4 0.185961 0.221187 0.345936
709 2 0.208303 0.225153 0.350978
710 4 0.230645 0.22912 0.356019
536 4 0.250419 0.231885 0.359884
2823 4 0.298124 0.180555 0.385376
535 2 0.267975 0.241466 0.367027
2543 4 0.3071 0.182971 0.368049
369 4 0.396592 0.166426 0.397517
2542 2 0.31701 0.195246 0.352801
2544 4 0.326919 0.207521 0.337553
471 4 0.332783 0.219687 0.347917
469 2 0.351445 0.229081 0.35087
473 4 0.395517 0.17481 0.379827
470 4 0.370108 0.238475 0.353822
474 4 0.403157 0.184868 0.332402
472 2 0.399337 0.179839 0.356115
479 4 0.390077 0.236612 0.358968
478 2 0.413752 0.237431 0.352185
480 4 0.437428 0.238251 0.345403
2958 4 0.0108985 0.263157 0.398577
2495 4 0.109189 0.253068 0.394829
345 4 0.04451 0.311192 0.338042
2527 2 0.0351213 0.320917 0.377123
366 4 0.128198 0.254206 0.397413
2496 4 0.0563128 0.285767 0.395037
2528 4 0.0538527 0.297317 0.379616
2494 2 0.0827508 0.269417 0.394933
2830 2 0.0953196 0.31556 0.395182
2832 4 0.0970865 0.322587 0.371713
364 2 0.149777 0.259599 0.393258
365 4 0.171355 0.264991 0.389103
3633 4 0.185947 0.273087 0.39136
2498 4 0.110946 0.331037 0.376618
1034 4 0.19351 0.319588 0.369926
3631 2 0.209347 0.27564 0.387515
3632 4 0.232746 0.278193 0.38367
1033 2 0.209526 0.33195 0.37109
2451 4 0.243278 0.289194 0.386414
2449 2 0.267159 0.291416 0.386125
537 4 0.285532 0.251047 0.37417
2450 4 0.29104 0.293637 0.385836
2700 4 0.286886 0.308928 0.373189
2698 2 0.309844 0.302677 0.359668
2699 4 0.332802 0.296425 0.346148
1394 4 0.456948 0.240943 0.343354
1393 2 0.474961 0.250999 0.339957
2529 4 0.0163898 0.344516 0.374629
1574 4 0.122997 0.389847 0.337913
2499 4 0.1366 0.332414 0.3341
2497 2 0.123773 0.331725 0.355359
1035 4 0.225543 0.344312 0.372254
585 4 0.234518 0.35572 0.379794
583 2 0.256212 0.361286 0.37736
584 4 0.277905 0.366853 0.374925
893 4 0.299976 0.359081 0.372413
1173 4 0.269574 0.415328 0.397932
892 2 0.317177 0.370267 0.37324
894 4 0.334378 0.381454 0.374067
569 4 0.355786 0.37044 0.369144
568 2 0.371966 0.382642 0.367981
541 2 0.406124 0.412341 0.335691
570 4 0.388146 0.394845 0.366818
543 4 0.392515 0.407372 0.354342
2691 4 0.122456 0.488169 0.407915
2689 2 0.114265 0.494252 0.38427
548 4 0.153117 0.440085 0.354063
547 2 0.169742 0.451738 0.356519
549 4 0.186368 0.463391 0.358976
2740 2 0.402194 0.482759 0.431642
1336 2 0.30855 0.496701 0.348998
2927 4 0.442187 0.419989 0.388135
2926 2 0.423046 0.431833 0.40538
1451 4 0.459024 0.425584 0.388331
1450 2 0.477174 0.435629 0.390735
1452 4 0.495325 0.445673 0.393139
2901 4 0.0374539 0.0674572 0.418502
3174 4 0.0435593 0.0641572 0.438269
3172 2 0.0679445 0.0627151 0.446039
3173 4 0.0923298 0.061273 0.453809
683 4 0.316847 0.0051074 0.439074
682 2 0.310968 0.0182259 0.417788
2646 4 0.244941 0.0356855 0.442804
2644 2 0.248018 0.0535186 0.42939
426 4 0.271423 0.0724902 0.422332
424 2 0.29608 0.0727862 0.425555
425 4 0.320737 0.0730822 0.428779
2916 4 0.33297 0.0809308 0.438828
841 2 0.35454 0.00356978 0.45795
842 4 0.329921 0.00332192 0.454288
843 4 0.379159 0.00381763 0.461612
3747 4 0.38729 0.00367982 0.442702
2914 2 0.357696 0.0814206 0.440373
3746 4 0.410948 0.0311624 0.422019
3745 2 0.399119 0.0174211 0.432361
1968 4 0.401523 0.0817252 0.439642
3031 2 0.0166627 0.132442 0.471527
3033 4 0.0358123 0.14068 0.477106
945 4 0.0557792 0.138893 0.475733
943 2 0.0797085 0.138723 0.46823
944 4 0.103638 0.138553 0.460728
3327 4 0.120821 0.142054 0.469056
3325 2 0.142982 0.143638 0.478995
3326 4 0.165142 0.145222 0.488934
320 4 0.181081 0.142638 0.474568
319 2 0.203786 0.146855 0.474812
321 4 0.22649 0.151072 0.475056
642 4 0.247475 0.14849 0.480346
640 2 0.270851 0.151475 0.478409
641 4 0.294228 0.154459 0.476473
7 3 0.315504 0.155983 0.475769
9 3 0.342967 0.139664 0.448418
6 1 0.334262 0.157332 0.463448
8 3 0.352989 0.156076 0.477851
2915 4 0.382421 0.0819103 0.441917
1966 2 0.425263 0.080921 0.448494
3621 4 0.496825 0.105131 0.482684
1967 4 0.449004 0.0801167 0.457346
3620 4 0.463963 0.087358 0.460306
3619 2 0.480394 0.0962447 0.471495
3961 2 0.442998 0.420145 0.498332
2602 2 0.0134938 0.195584 0.489947
2603 4 0.0319263 0.205452 0.49031
2957 4 0.0420422 0.250981 0.439808
898 2 0.069215 0.210823 0.492469
899 4 0.0931676 0.209488 0.483596
824 4 0.120085 0.228793 0.483684
823 2 0.140877 0.228014 0.498073
2484 4 0.369681 0.157792 0.485932
10 3 0.325527 0.177125 0.452192
2482 2 0.391748 0.162238 0.481033
2483 4 0.413816 0.166685 0.476134
2801 4 0.432189 0.170929 0.472996
2800 2 0.45436 0.175645 0.469753
2802 4 0.47653 0.180362 0.46651
764 4 0.494746 0.181701 0.463047
2956 2 0.0264703 0.257069 0.419192
2831 4 0.0935527 0.308532 0.418651
408 4 0.125843 0.272196 0.49574
453 4 0.114391 0.305396 0.422245
451 2 0.116895 0.309617 0.446485
452 4 0.1194 0.313839 0.470725
488 4 0.219352 0.316601 0.457594
487 2 0.24269 0.316427 0.448418
489 4 0.266028 0.316254 0.439242
2924 4 0.284346 0.318338 0.4419
2923 2 0.296584 0.333263 0.435779
1172 4 0.256014 0.410234 0.445069
1171 2 0.262794 0.412781 0.4215
2925 4 0.308822 0.348189 0.429657
2741 4 0.396843 0.462706 0.428378
2928 4 0.403904 0.443677 0.422626
111 1 0.49166 0.000948332 0.223912
761 4 0.00858255 0.0517159 0.57833
760 2 0.000880093 0.0558726 0.554364
964 2 0.322835 0.148979 0.559406
966 4 0.302657 0.147809 0.573356
965 4 0.343014 0.150149 0.545455
2322 4 0.351497 0.163036 0.549902
2320 2 0.376018 0.163957 0.54845
2321 4 0.400539 0.164878 0.546999
918 4 0.436208 0.111267 0.550539
916 2 0.449485 0.125799 0.554484
917 4 0.462761 0.140331 0.55843
3237 4 0.477202 0.135625 0.573681
900 4 0.0452623 0.212158 0.501341
3205 2 0.086537 0.202979 0.568028
3206 4 0.0903135 0.20338 0.543343
696 4 0.215841 0.164402 0.514836
825 4 0.16167 0.227234 0.512461
695 4 0.17058 0.207432 0.515577
694 2 0.19321 0.185917 0.515207
406 2 0.141144 0.280438 0.509623
407 4 0.156446 0.28868 0.523505
803 4 0.167119 0.297787 0.53163
802 2 0.190038 0.299513 0.539369
804 4 0.212957 0.301239 0.547108
1238 4 0.23043 0.306622 0.5511
1237 2 0.256205 0.304121 0.554644
1239 4 0.28198 0.30162 0.558187
891 4 0.302277 0.29433 0.565802
889 2 0.318106 0.306189 0.571413
890 4 0.333935 0.318049 0.577024
82 3 0.355459 0.312368 0.576156
4215 4 0.0459387 0.393161 0.538592
4213 2 0.0666521 0.392788 0.552843
4214 4 0.0873655 0.392415 0.567093
538 2 0.128521 0.394548 0.564403
540 4 0.103943 0.395009 0.558808
539 4 0.153098 0.394087 0.569997
3369 4 0.166284 0.39575 0.55571
3367 2 0.190838 0.396412 0.55832
3368 4 0.215392 0.397074 0.560929
1281 4 0.2327 0.399425 0.55264
1279 2 0.2541 0.402643 0.543084
1280 4 0.275501 0.405861 0.533528
878 4 0.298652 0.398402 0.529878
877 2 0.320408 0.400889 0.520154
879 4 0.342165 0.403377 0.510429
812 4 0.361623 0.403934 0.507102
3418 2 0.392322 0.353818 0.58187
3419 4 0.404178 0.363777 0.565876
811 2 0.386495 0.403971 0.509488
813 4 0.411368 0.404008 0.511874
3963 4 0.424463 0.410742 0.502099
1205 4 0.0277155 0.471855 0.584302
773 4 0.00766369 0.473199 0.581374
1445 4 0.267781 0.469645 0.524996
1444 2 0.27108 0.490521 0.52021
1263 4 0.0177148 0.016584 0.649229
2905 2 0.458841 0.454571 0.984778
2281 2 0.314167 0.00936894 0.650539
2283 4 0.293071 0.00614087 0.66078
3105 4 0.275004 0.00243327 0.664797
2282 4 0.335263 0.012597 0.640298
3082 2 0.379688 0.00437659 0.636986
3084 4 0.403244 0.00652967 0.641229
269 4 0.413025 0.0188066 0.644037
268 2 0.436017 0.0225303 0.643049
270 4 0.459009 0.0262541 0.642061
3050 4 0.478645 0.0208755 0.632051
3049 2 0.499744 0.0271057 0.635526
1005 4 0.30728 0.12462 0.657072
3009 4 0.286554 0.138086 0.659983
1003 2 0.332647 0.123788 0.656524
3007 2 0.266038 0.13235 0.667476
2175 4 0.296611 0.164905 0.584627
1004 4 0.358013 0.122955 0.655977
2255 4 0.376951 0.125521 0.651559
2254 2 0.399522 0.129881 0.650098
2256 4 0.422093 0.134241 0.648636
1022 4 0.442262 0.13509 0.650926
1021 2 0.46268 0.142537 0.649832
1023 4 0.483099 0.149985 0.648737
934 2 0.0130739 0.194554 0.610543
936 4 0.0310214 0.19616 0.627079
1259 4 0.0367536 0.211953 0.62894
1258 2 0.0572322 0.21511 0.617354
3207 4 0.0827606 0.202579 0.592712
1260 4 0.0777108 0.218267 0.605767
2174 4 0.267605 0.194143 0.622095
3001 2 0.266486 0.22549 0.63489
3002 4 0.253352 0.247178 0.646925
3003 4 0.279621 0.203801 0.622856
2173 2 0.282108 0.179524 0.603361
3385 2 0.33057 0.236119 0.650906
3387 4 0.337139 0.217326 0.667267
1153 2 0.00397693 0.262715 0.617613
1155 4 0.0248786 0.269443 0.619631
1257 4 0.0464331 0.267454 0.618146
1255 2 0.0681135 0.27019 0.627712
2243 4 0.0564482 0.318259 0.643277
1256 4 0.0897939 0.272926 0.637278
2242 2 0.0790554 0.321408 0.637228
959 4 0.109155 0.273538 0.636576
2244 4 0.101663 0.324558 0.63118
958 2 0.131253 0.278572 0.634629
960 4 0.153351 0.283606 0.632681
3239 4 0.165556 0.280691 0.649179
3238 2 0.186422 0.283507 0.660411
3386 4 0.324001 0.254913 0.634545
85 3 0.385367 0.301428 0.601736
81 1 0.363197 0.317945 0.595951
84 3 0.345911 0.320353 0.61241
807 4 0.159839 0.328733 0.634027
805 2 0.13277 0.335087 0.635344
997 2 0.0938107 0.397766 0.657407
806 4 0.1057 0.34144 0.63666
998 4 0.110613 0.40671 0.647028
1041 4 0.122072 0.416312 0.651968
978 4 0.167983 0.342536 0.633943
1039 2 0.148885 0.401105 0.650904
1040 4 0.175699 0.385897 0.64984
976 2 0.191409 0.345507 0.63524
977 4 0.214835 0.348478 0.636537
3381 4 0.23502 0.34691 0.638566
3379 2 0.253949 0.355062 0.64523
3380 4 0.272878 0.363214 0.651893
905 4 0.294527 0.359214 0.655139
904 2 0.311801 0.348712 0.636164
906 4 0.329076 0.33821 0.61719
83 3 0.365424 0.337938 0.593089
3420 4 0.380466 0.343858 0.597864
1204 2 0.0487224 0.475834 0.593673
3119 4 0.0725517 0.496099 0.609228
1206 4 0.0697292 0.479813 0.603044
4131 4 0.17385 0.495007 0.610259
1261 2 0.0077292 0.0104962 0.669836
888 4 0.0373779 0.0644003 0.755374
2906 4 0.482845 0.456403 0.98266
3612 4 0.100856 0.0203235 0.706609
3610 2 0.124252 0.0126 0.693503
3611 4 0.147648 0.00487655 0.680397
3062 4 0.173462 0.0505964 0.734688
4370 4 0.18103 0.0594432 0.72113
3061 2 0.182468 0.0270642 0.726435
4369 2 0.179524 0.0802157 0.709776
3063 4 0.191474 0.00353201 0.718182
2000 4 0.421844 0.000693902 0.727182
1999 2 0.402428 0.00491701 0.74456
4371 4 0.178018 0.100988 0.698422
3125 4 0.19221 0.103456 0.684134
3124 2 0.209175 0.114871 0.682971
3126 4 0.22614 0.126286 0.681807
3008 4 0.245522 0.126615 0.674969
195 3 0.239108 0.135235 0.725988
191 1 0.233065 0.150751 0.742623
1167 4 0.193954 0.161069 0.746523
192 3 0.209124 0.166128 0.739763
193 3 0.248403 0.161769 0.741842
3147 4 0.260673 0.173482 0.73966
3145 2 0.284802 0.174561 0.735459
3146 4 0.30893 0.17564 0.731258
1970 4 0.331429 0.171604 0.731023
384 4 0.35693 0.206394 0.676858
1969 2 0.355752 0.172856 0.729102
1971 4 0.380075 0.174107 0.727181
382 2 0.378098 0.207989 0.688815
3383 4 0.400668 0.174924 0.7262
383 4 0.399266 0.209584 0.700771
2972 4 0.409907 0.221035 0.694422
3382 2 0.424738 0.176327 0.722687
2971 2 0.427635 0.229699 0.685555
3384 4 0.448809 0.177729 0.719175
2973 4 0.445363 0.238364 0.676688
3107 4 0.470455 0.176622 0.716316
3252 4 0.466312 0.237737 0.674921
3106 2 0.494451 0.178608 0.717188
3250 2 0.488059 0.24176 0.682142
3240 4 0.207287 0.286323 0.671644
3093 4 0.220636 0.293307 0.681088
3091 2 0.237252 0.303488 0.689326
3092 4 0.253867 0.31367 0.697565
3435 4 0.270658 0.316244 0.705662
3433 2 0.29317 0.319637 0.711511
3434 4 0.315682 0.323029 0.71736
1067 4 0.0128306 0.364227 0.70385
3113 4 0.0290517 0.372081 0.704559
3112 2 0.0458657 0.3807 0.693644
3114 4 0.0626797 0.389319 0.682729
999 4 0.0770088 0.388822 0.667785
4559 4 0.429676 0.345623 0.680616
4558 2 0.443113 0.358554 0.68968
4560 4 0.456549 0.371486 0.698744
800 4 0.479151 0.364781 0.69774
2060 4 0.0142686 0.434208 0.686236
1170 4 0.024402 0.430804 0.703628
1168 2 0.0417889 0.43353 0.720068
1169 4 0.0591757 0.436256 0.736507
1904 4 0.0762742 0.438018 0.745776
4302 4 0.194017 0.476789 0.676327
4092 4 0.213177 0.478939 0.678203
4300 2 0.205921 0.453042 0.684091
4301 4 0.217824 0.429294 0.691855
4494 4 0.495003 0.434104 0.735258
887 4 0.000393731 0.0448595 0.757703
886 2 0.0188858 0.0546299 0.756538
3553 2 0.036862 0.0532301 0.826936
3554 4 0.01779 0.044357 0.830157
3555 4 0.0559339 0.0621032 0.823715
3305 4 0.0639859 0.0760859 0.828084
3304 2 0.084398 0.0835027 0.82647
3202 2 0.192553 0.0220031 0.809791
3203 4 0.175642 0.0182631 0.793541
3204 4 0.209465 0.0257432 0.82604
3488 4 0.302989 0.00353434 0.758679
1217 4 0.315268 0.0132874 0.761209
1216 2 0.341486 0.00915673 0.757115
1218 4 0.367704 0.00502606 0.753022
2001 4 0.383012 0.00914012 0.761939
3041 4 0.366575 0.0698323 0.80755
4127 4 0.00793787 0.125829 0.788283
3299 4 0.0263048 0.131279 0.787029
3298 2 0.0474001 0.137009 0.781625
3300 4 0.0684953 0.142738 0.77622
3483 4 0.0889471 0.142738 0.772827
3306 4 0.10481 0.0909195 0.824856
3481 2 0.111714 0.145529 0.766585
3077 4 0.117669 0.0996647 0.814428
3482 4 0.134481 0.14832 0.760343
3076 2 0.141868 0.10072 0.810585
1166 4 0.156722 0.143188 0.757233
3078 4 0.166067 0.101775 0.806742
1010 4 0.18244 0.109231 0.802905
1165 2 0.175338 0.152128 0.751878
1009 2 0.202442 0.115915 0.795977
194 3 0.235146 0.14045 0.763244
1011 4 0.222444 0.122598 0.78905
3764 4 0.238884 0.130035 0.781099
3763 2 0.261078 0.132659 0.789505
3765 4 0.283273 0.135283 0.79791
1994 4 0.304791 0.13746 0.796937
1050 4 0.298496 0.114798 0.829179
3042 4 0.318284 0.106133 0.821144
3040 2 0.34243 0.0879824 0.814347
1993 2 0.329018 0.138391 0.792883
1995 4 0.353246 0.139322 0.788829
1232 4 0.372348 0.139415 0.782566
1231 2 0.395612 0.142079 0.77828
1233 4 0.418876 0.144743 0.773994
1266 4 0.436233 0.149392 0.773177
1264 2 0.462665 0.145638 0.772311
3402 4 0.49152 0.124213 0.778695
1265 4 0.489097 0.141883 0.771446
3272 4 0.0135609 0.249981 0.776785
919 2 0.173921 0.226704 0.787311
921 4 0.1882 0.201995 0.789795
3227 4 0.217199 0.220616 0.812561
864 4 0.196132 0.234792 0.816927
3226 2 0.234153 0.196617 0.816338
3228 4 0.251106 0.172619 0.820114
3271 2 0.0278878 0.263599 0.780754
3273 4 0.0422148 0.277217 0.784724
3186 4 0.0625456 0.276244 0.787321
3184 2 0.0847179 0.280987 0.790416
3185 4 0.10689 0.285729 0.79351
920 4 0.159642 0.251413 0.784827
866 4 0.115118 0.299659 0.79005
865 2 0.140126 0.281277 0.793698
867 4 0.165134 0.262895 0.797346
155 3 0.372939 0.296755 0.834195
1133 4 0.422256 0.277721 0.801111
1132 2 0.41252 0.275131 0.823451
2407 2 0.0128975 0.38334 0.762561
3026 4 0.00456598 0.410471 0.803964
2408 4 0.0392795 0.366858 0.762803
3025 2 0.0254033 0.41254 0.816053
1950 4 0.0533367 0.360245 0.7804
1948 2 0.0723025 0.36748 0.789108
3027 4 0.0462406 0.414608 0.828141
2357 4 0.00110314 0.40071 0.819706
1949 4 0.0912683 0.374715 0.797816
1242 4 0.107115 0.378758 0.790783
1240 2 0.12647 0.387009 0.795385
1241 4 0.145825 0.39526 0.799987
2031 4 0.165176 0.395197 0.796494
2029 2 0.189769 0.395167 0.791906
2030 4 0.214363 0.395137 0.787319
4362 4 0.260952 0.41435 0.757252
4361 4 0.228242 0.393184 0.773099
4360 2 0.244597 0.403767 0.765176
4197 4 0.27826 0.397137 0.7618
4195 2 0.301773 0.399038 0.766981
854 4 0.366853 0.378176 0.744643
1008 4 0.350286 0.407324 0.757862
4196 4 0.325286 0.40094 0.772161
853 2 0.38052 0.361707 0.762444
793 2 0.389967 0.345298 0.816601
794 4 0.38121 0.356475 0.794529
855 4 0.394187 0.345239 0.780244
153 3 0.344886 0.332169 0.829179
1114 2 0.00822512 0.469754 0.824419
1116 4 0.0220264 0.484135 0.82566
39 3 0.0519113 0.427483 0.817916
37 3 0.0917754 0.4195 0.811664
1989 4 0.0429218 0.479614 0.819373