ITEM: TIMESTEP
2466500
ITEM: NUMBER OF ATOMS
4590
ITEM: BOX BOUNDS xy xz yz pp pp pp
-9.9985700000000008e+00 1.6597626199999993e+01 6.5990561999999926e+00
-9.9985700000000008e+00 9.9985700000000008e+00 0.0000000000000000e+00
-9.9985700000000008e+00 9.9985700000000008e+00 0.0000000000000000e+00
ITEM: ATOMS id type xs ys zs
3467 4 0.183364 0.0114693 0.0275639
2144 4 0.191116 0.0208868 0.0136846
2143 2 0.215186 0.00912927 0.0225908
3466 2 0.166059 0.00100609 0.0367723
4120 2 0.426848 0.0782207 0.0166236
4122 4 0.452068 0.0646869 0.0132597
3068 4 0.471415 0.0265141 0.0484622
876 4 0.472788 0.0609881 0.0196544
3067 2 0.486636 0.00814699 0.034182
353 4 0.47682 0.0576778 0.0823034
3046 2 0.0140249 0.103286 0.0280753
3047 4 0.0328364 0.107102 0.0424896
1761 4 0.0519661 0.105745 0.0355242
1759 2 0.0752002 0.104207 0.0458344
1760 4 0.0984342 0.10267 0.0561447
393 4 0.102295 0.100718 0.0776613
391 2 0.126577 0.0961048 0.0683946
392 4 0.150859 0.0914919 0.0591279
357 4 0.168202 0.0907338 0.0490763
355 2 0.185532 0.0965058 0.0639732
356 4 0.202862 0.102278 0.0788701
758 4 0.210623 0.11731 0.0801145
757 2 0.236296 0.105383 0.0768872
759 4 0.261968 0.0934554 0.0736599
4121 4 0.401629 0.0917544 0.0199876
3261 4 0.477186 0.136534 0.0113783
2895 4 0.481249 0.140511 0.032061
2893 2 0.494296 0.125255 0.0501783
1104 4 0.0195264 0.234929 0.059886
1102 2 0.0352604 0.238841 0.0419962
1103 4 0.0509944 0.242753 0.0241064
110 3 0.00120103 0.234603 0.0683368
294 4 0.0687682 0.247536 0.0292842
292 2 0.0935096 0.248295 0.0291684
3338 4 0.136979 0.250639 0.0264072
293 4 0.118251 0.249053 0.0290526
1251 4 0.324545 0.197313 0.0353831
1249 2 0.348025 0.199536 0.0412095
1250 4 0.371504 0.20176 0.047036
1247 4 0.391808 0.200979 0.046582
1246 2 0.4014 0.220136 0.0443436
1248 4 0.410991 0.239292 0.0421053
2440 2 0.444348 0.23975 0.0568623
2442 4 0.470016 0.228772 0.0611799
492 4 0.474117 0.211234 0.0728097
2725 2 0.0471728 0.314824 0.0642829
2726 4 0.062996 0.297457 0.0791723
670 2 0.101079 0.307215 0.0762515
672 4 0.120733 0.315043 0.0679202
462 4 0.116131 0.333811 0.0605469
3337 2 0.159385 0.255802 0.0222506
3339 4 0.181791 0.260965 0.0180941
2523 4 0.197613 0.267686 0.0137784
2521 2 0.211497 0.282178 0.0219473
2522 4 0.225382 0.29667 0.0301162
2770 2 0.221857 0.320674 0.0569024
2772 4 0.21145 0.32877 0.0792586
2771 4 0.232264 0.312578 0.0345463
4304 4 0.352554 0.259664 0.0382635
1304 4 0.302453 0.281308 0.998416
4303 2 0.360439 0.279889 0.0403143
4305 4 0.368324 0.300113 0.042365
2441 4 0.418679 0.250728 0.0525448
2727 4 0.0313495 0.332191 0.0493935
2747 4 0.0480164 0.339473 0.0496945
2746 2 0.0534715 0.360532 0.0444162
2748 4 0.0589266 0.381591 0.0391379
460 2 0.122622 0.33598 0.036703
461 4 0.129113 0.338149 0.0128592
75 3 0.998489 0.457444 0.0606065
648 4 0.0153927 0.459344 0.0514918
71 1 0.00308232 0.456129 0.0829588
646 2 0.0384847 0.457115 0.0405183
647 4 0.0615768 0.454885 0.0295448
1572 4 0.0805773 0.442107 0.0331543
1570 2 0.102108 0.448757 0.0374115
1571 4 0.123638 0.455407 0.0416686
3711 4 0.136879 0.465256 0.036858
3709 2 0.129192 0.488172 0.0468604
1787 4 0.263788 0.497037 0.0570992
1568 4 0.248709 0.498435 0.0694002
3229 2 0.412958 0.435286 0.0735903
3230 4 0.393272 0.445114 0.0575206
2906 4 0.402521 0.447071 0.0408737
2905 2 0.419908 0.450326 0.0243277
2907 4 0.437296 0.45358 0.00778167
3898 2 0.477771 0.453954 0.0216406
3900 4 0.459888 0.471657 0.00872664
3899 4 0.495655 0.436251 0.0345546
3809 4 0.0943415 0.0454308 0.138751
3808 2 0.0955409 0.0215028 0.135961
2743 2 0.403478 0.0587699 0.140763
2744 4 0.399067 0.0737596 0.120758
2745 4 0.407889 0.0437801 0.160768
1476 4 0.397988 0.000719074 0.106176
693 4 0.456876 0.0646113 0.0891918
352 2 0.496802 0.0656954 0.0892969
2615 4 0.0348312 0.13601 0.141553
2614 2 0.0286062 0.156957 0.15519
2519 4 0.28359 0.110389 0.152557
522 4 0.297192 0.119041 0.144756
520 2 0.313298 0.129771 0.133618
521 4 0.329405 0.140501 0.122479
624 4 0.344032 0.149069 0.118846
622 2 0.365029 0.156073 0.113114
623 4 0.386026 0.163077 0.107383
691 2 0.436871 0.0841722 0.0968707
692 4 0.416866 0.103733 0.10455
1566 4 0.4269 0.115038 0.11362
1565 4 0.426487 0.136905 0.158075
1564 2 0.426694 0.125972 0.135847
2976 4 0.193298 0.206453 0.161016
2974 2 0.215673 0.205611 0.149345
2975 4 0.238048 0.20477 0.137675
653 4 0.257415 0.199332 0.134084
652 2 0.279271 0.20594 0.13603
654 4 0.301126 0.212548 0.137977
558 4 0.310166 0.227452 0.139743
556 2 0.323669 0.24307 0.145506
455 4 0.396503 0.176731 0.106158
454 2 0.421029 0.173547 0.0981608
456 4 0.445555 0.170363 0.0901633
490 2 0.469075 0.192144 0.0843033
491 4 0.464033 0.173053 0.0957968
413 4 0.0518906 0.280066 0.160639
251 4 0.00645399 0.333892 0.100089
287 4 0.0252092 0.328043 0.106318
671 4 0.0814245 0.299387 0.0845828
412 2 0.0719419 0.286042 0.150419
414 4 0.0919931 0.292018 0.140199
351 4 0.109861 0.287197 0.130945
349 2 0.132119 0.292828 0.127504
350 4 0.154378 0.29846 0.124064
524 4 0.158949 0.311273 0.11195
523 2 0.175686 0.32002 0.0991608
557 4 0.337172 0.258687 0.151268
3210 4 0.353751 0.264105 0.154062
3208 2 0.375492 0.268049 0.162932
754 2 0.435476 0.266583 0.149841
729 4 0.465784 0.275898 0.120862
755 4 0.45442 0.26652 0.133497
727 2 0.486988 0.283578 0.11923
286 2 0.0297434 0.341672 0.125236
2999 4 0.0253275 0.415443 0.144252
288 4 0.0342776 0.3553 0.144153
713 4 0.0396589 0.371676 0.150041
2799 4 0.0789767 0.379826 0.148155
2797 2 0.0817094 0.381801 0.12346
2798 4 0.0844422 0.383776 0.0987659
2861 4 0.127595 0.379323 0.140451
2860 2 0.153383 0.375042 0.136893
525 4 0.192424 0.328768 0.0863718
2862 4 0.179172 0.37076 0.133335
607 2 0.364183 0.341664 0.143338
608 4 0.388751 0.336429 0.134614
609 4 0.339615 0.346898 0.152061
2570 4 0.394685 0.353105 0.135479
2569 2 0.417963 0.355389 0.141993
2571 4 0.44124 0.357674 0.148508
297 4 0.455169 0.366888 0.156681
2998 2 0.00861269 0.421805 0.124988
2913 4 0.0379211 0.423 0.155914
74 3 0.027086 0.446726 0.0865832
2911 2 0.0580918 0.431755 0.151815
2161 2 0.0637852 0.494753 0.151441
2912 4 0.0782624 0.440509 0.147716
230 4 0.0901839 0.450763 0.153277
2163 4 0.0665941 0.495416 0.126631
229 2 0.115131 0.44957 0.157848
231 4 0.140078 0.448378 0.162419
735 4 0.151446 0.462388 0.165765
1567 2 0.242823 0.482212 0.0847526
4512 4 0.229739 0.474447 0.118653
1569 4 0.236937 0.465989 0.100105
4510 2 0.222996 0.492939 0.13547
3231 4 0.432644 0.425458 0.08966
1122 4 0.428167 0.437344 0.106007
1120 2 0.450943 0.441568 0.110818
1121 4 0.473719 0.445793 0.115629
3552 4 0.49348 0.447953 0.112694
255 4 0.12537 0.0619751 0.178425
253 2 0.149668 0.0617462 0.18462
254 4 0.173967 0.0615173 0.190816
632 4 0.180045 0.0463721 0.203951
631 2 0.191051 0.0512044 0.225
633 4 0.202057 0.0560368 0.246049
429 4 0.34675 0.0171664 0.24354
2756 4 0.365541 0.0161945 0.234989
2755 2 0.389069 0.0133158 0.224639
698 4 0.390309 0.0704792 0.223022
697 2 0.408518 0.0813639 0.228629
2757 4 0.412597 0.0104371 0.214289
2738 4 0.425298 0.0213886 0.218557
2737 2 0.443983 0.0323498 0.215788
2739 4 0.462667 0.0433111 0.213019
1347 4 0.49922 0.0114824 0.203767
4353 4 0.031303 0.109563 0.184654
4351 2 0.00626319 0.110744 0.188673
749 4 0.0417931 0.109878 0.168246
731 4 0.0459544 0.126646 0.229037
1479 4 0.106249 0.115577 0.177419
750 4 0.0902315 0.108419 0.182342
748 2 0.0660123 0.109149 0.175294
730 2 0.0646284 0.136634 0.222498
732 4 0.0833024 0.146622 0.21596
2478 4 0.0963486 0.157725 0.212096
1477 2 0.130965 0.115744 0.174023
1478 4 0.155682 0.11591 0.170626
2778 4 0.168106 0.125743 0.179397
2476 2 0.116115 0.163779 0.20138
2776 2 0.186671 0.137055 0.179184
2777 4 0.205235 0.148367 0.178971
2453 4 0.214088 0.16102 0.185786
2930 4 0.238545 0.113735 0.204006
2520 4 0.251251 0.106008 0.189166
2929 2 0.240814 0.123633 0.226291
2931 4 0.243082 0.133531 0.248575
2518 2 0.267421 0.108198 0.170862
419 4 0.263121 0.132399 0.246581
1747 2 0.364618 0.131522 0.234881
1749 4 0.365581 0.128047 0.21012
459 4 0.375504 0.129807 0.194638
699 4 0.426727 0.0922486 0.234237
457 2 0.398728 0.128765 0.184608
458 4 0.421952 0.127724 0.174578
690 4 0.444975 0.0924761 0.226943
688 2 0.469194 0.0945826 0.226875
689 4 0.493414 0.0966892 0.226806
2616 4 0.0223812 0.177903 0.168827
2517 4 0.0206105 0.197378 0.170797
2477 4 0.135882 0.169833 0.190664
837 4 0.147855 0.181546 0.191926
835 2 0.167331 0.189977 0.184267
2452 2 0.235534 0.166552 0.193068
836 4 0.186808 0.198408 0.176609
2673 4 0.208239 0.204704 0.241099
2671 2 0.233245 0.204101 0.238026
2454 4 0.25698 0.172083 0.20035
2672 4 0.25825 0.203497 0.234954
2951 4 0.26559 0.186508 0.199933
2950 2 0.279415 0.201937 0.205349
2952 4 0.293239 0.217365 0.210766
476 4 0.288974 0.236415 0.204253
388 2 0.433125 0.216431 0.24112
390 4 0.447488 0.20068 0.224
2462 4 0.038179 0.272824 0.171013
275 4 0.00490044 0.251621 0.233131
2461 2 0.015608 0.269534 0.178411
274 2 0.0265269 0.258636 0.234805
276 4 0.0481533 0.26565 0.236479
1220 4 0.0669153 0.26586 0.238928
1219 2 0.0736494 0.28602 0.245219
477 4 0.272961 0.274333 0.236666
475 2 0.280967 0.255374 0.22046
756 4 0.416532 0.266647 0.166184
3209 4 0.397232 0.271993 0.171802
630 4 0.36852 0.271326 0.221825
628 2 0.383257 0.255813 0.238913
4006 2 0.384344 0.330615 0.241157
4008 4 0.396745 0.313146 0.224545
2472 4 0.411729 0.315506 0.210065
2470 2 0.432369 0.323872 0.207313
2969 4 0.476121 0.323895 0.208072
2471 4 0.45301 0.332239 0.204561
3449 4 0.0190445 0.364316 0.211526
3448 2 0.0207956 0.383962 0.224618
714 4 0.0333871 0.360946 0.197888
3450 4 0.0225467 0.403609 0.23771
712 2 0.036523 0.366311 0.173964
2874 4 0.033708 0.41392 0.245816
612 4 0.079626 0.386186 0.16785
610 2 0.103697 0.380981 0.17777
611 4 0.127768 0.375775 0.187691
2592 4 0.139797 0.388015 0.188137
2590 2 0.148479 0.407787 0.18639
3989 4 0.347779 0.411822 0.243426
1385 4 0.432297 0.392216 0.249202
1384 2 0.44755 0.405335 0.240856
2970 4 0.498367 0.360058 0.213054
295 2 0.474862 0.374555 0.165198
296 4 0.494555 0.382222 0.173715
2968 2 0.487244 0.341977 0.210563
2872 2 0.0504842 0.427227 0.246103
2873 4 0.0672604 0.440533 0.246389
3599 4 0.062619 0.49181 0.196802
2162 4 0.0609763 0.494091 0.176252
5 3 0.099515 0.465294 0.248558
2591 4 0.15716 0.427559 0.184643
733 2 0.171159 0.454183 0.182156
734 4 0.190873 0.445977 0.198547
1383 4 0.202064 0.485212 0.247079
588 4 0.465656 0.437586 0.2351
586 2 0.447949 0.457195 0.245797
1386 4 0.462803 0.418453 0.23251
3926 4 0.222676 0.0504519 0.253461
3925 2 0.245927 0.0500862 0.262951
3698 4 0.279754 0.0343285 0.285543
3927 4 0.269178 0.0497204 0.272441
3697 2 0.295913 0.0371153 0.303591
428 4 0.30424 0.0104116 0.264833
3699 4 0.312073 0.0399021 0.321638
427 2 0.325495 0.013789 0.254186
545 4 0.326603 0.046844 0.328151
544 2 0.351829 0.0459606 0.329785
546 4 0.377055 0.0450773 0.331418
249 4 0.387379 0.0582694 0.326103
1128 4 0.418657 0.00358444 0.323734
247 2 0.407674 0.067092 0.329069
2115 4 0.433952 0.0107422 0.319798
3723 4 0.425832 0.0638661 0.279462
3721 2 0.450735 0.0585887 0.287266
2113 2 0.454333 0.0180114 0.327108
2114 4 0.474714 0.0252805 0.334419
3722 4 0.475637 0.0533114 0.29507
2546 4 0.486234 0.0474494 0.278866
248 4 0.427969 0.0759147 0.332036
590 4 0.0048838 0.139186 0.326487
2850 4 0.0648818 0.143578 0.324844
3572 4 0.0846032 0.143625 0.31984
2848 2 0.042857 0.139142 0.332178
418 2 0.281457 0.130704 0.264083
420 4 0.299793 0.129009 0.281584
256 2 0.322327 0.101513 0.30138
257 4 0.308271 0.1096 0.280641
258 4 0.336383 0.0934251 0.322119
1748 4 0.363656 0.134997 0.259642
177 3 0.326439 0.163878 0.29398
176 1 0.348625 0.157136 0.284746
516 4 0.366707 0.11242 0.307687
180 3 0.347143 0.151443 0.262952
179 3 0.362602 0.138823 0.29658
515 4 0.395933 0.0940881 0.267345
1190 4 0.372385 0.12762 0.311893
514 2 0.38132 0.103254 0.287516
1703 4 0.403246 0.107737 0.25978
1189 2 0.383321 0.139748 0.32786
1702 2 0.420854 0.120143 0.259209
1704 4 0.438462 0.132548 0.258639
4306 2 0.455433 0.0912307 0.329328
530 4 0.459078 0.12177 0.263913
529 2 0.472841 0.113423 0.284754
4307 4 0.473341 0.0968731 0.315098
531 4 0.486604 0.105076 0.305595
635 4 0.471716 0.141039 0.319493
634 2 0.491261 0.144467 0.333128
2180 4 0.0845183 0.203913 0.295354
2179 2 0.107335 0.200742 0.283471
2181 4 0.130151 0.19757 0.271588
2790 4 0.148358 0.200687 0.273356
2789 4 0.19121 0.205034 0.25054
2788 2 0.169784 0.202861 0.261948
2954 4 0.224394 0.197096 0.277688
2525 4 0.178736 0.249178 0.326092
2953 2 0.238923 0.20236 0.295933
2955 4 0.253452 0.207623 0.314179
1953 4 0.272901 0.209255 0.30721
1951 2 0.29797 0.209013 0.308024
2765 4 0.328229 0.223709 0.316537
1952 4 0.32304 0.208771 0.308839
178 3 0.358035 0.17463 0.286108
285 4 0.377227 0.170257 0.294612
2764 2 0.337244 0.240034 0.328835
283 2 0.396604 0.180325 0.29753
389 4 0.418763 0.232181 0.25824
629 4 0.397995 0.240299 0.256001
284 4 0.415982 0.190394 0.300449
2946 4 0.433798 0.194538 0.305906
2944 2 0.426722 0.219515 0.305842
2945 4 0.419646 0.244491 0.305777
1221 4 0.0803835 0.30618 0.25151
1056 4 0.192851 0.260057 0.328219
1054 2 0.214153 0.264758 0.31923
1055 4 0.235456 0.269458 0.310242
300 4 0.253302 0.261874 0.301014
298 2 0.277046 0.264446 0.304719
299 4 0.300791 0.267018 0.308424
2533 2 0.380293 0.264242 0.322195
2535 4 0.404387 0.260455 0.312762
2534 4 0.356198 0.26803 0.331627
337 2 0.465393 0.330537 0.320168
339 4 0.491287 0.323563 0.315706
2497 2 0.288034 0.365949 0.327402
2499 4 0.298958 0.352998 0.307074
2567 4 0.319019 0.349517 0.300564
4007 4 0.371943 0.348084 0.257769
2566 2 0.3439 0.345476 0.307938
2568 4 0.368781 0.341434 0.315312
1756 2 0.362332 0.403734 0.312165
1757 4 0.343603 0.405983 0.329387
2706 4 0.383273 0.360884 0.260442
1758 4 0.381061 0.401486 0.294943
290 4 0.376434 0.341933 0.334039
2705 4 0.414074 0.389919 0.255234
338 4 0.439498 0.33751 0.324631
2704 2 0.398674 0.375402 0.257838
1575 4 0.100896 0.484412 0.255734
2 3 0.0827025 0.440077 0.259753
3 3 0.0769784 0.471687 0.279534
1 1 0.0930596 0.455589 0.266756
4 3 0.112746 0.444851 0.279504
4368 4 0.132669 0.432142 0.276413
1573 2 0.116112 0.49922 0.257077
244 2 0.150745 0.437598 0.329334
246 4 0.130132 0.429801 0.334513
1382 4 0.177633 0.4515 0.25708
1381 2 0.189848 0.468356 0.252079
4366 2 0.156511 0.432118 0.268857
4367 4 0.180354 0.432095 0.261302
245 4 0.171358 0.445395 0.324155
2621 4 0.187929 0.453265 0.324313
2620 2 0.210218 0.458783 0.320642
2622 4 0.232507 0.4643 0.316971
542 4 0.251993 0.465104 0.311626
541 2 0.269974 0.476918 0.308998
543 4 0.287955 0.488732 0.30637
3998 4 0.308131 0.491971 0.305535
3988 2 0.351459 0.430588 0.256675
3997 2 0.331829 0.495241 0.306313
3990 4 0.35514 0.449354 0.269924
264 4 0.369837 0.457912 0.259965
262 2 0.390096 0.467049 0.259717
263 4 0.410354 0.476186 0.25947
1309 2 0.402124 0.495262 0.309484
587 4 0.430243 0.476805 0.256493
1311 4 0.427953 0.489661 0.313815
2456 4 0.120918 0.0104035 0.410947
3173 4 0.114619 0.000694932 0.397095
1497 4 0.204679 0.0377997 0.332687
686 4 0.146376 0.0664623 0.37212
1496 4 0.160882 0.0611844 0.358224
1495 2 0.18278 0.0494921 0.345456
1059 4 0.25521 0.00115309 0.389419
618 4 0.274312 0.00515611 0.386697
616 2 0.293546 0.0119854 0.375888
617 4 0.31278 0.0188147 0.365078
708 4 0.328691 0.0014673 0.366595
1127 4 0.384492 0.00476126 0.360591
1126 2 0.401575 0.00417285 0.342163
2849 4 0.0208322 0.134707 0.339513
3571 2 0.101873 0.136792 0.338629
3573 4 0.119142 0.129959 0.357419
685 2 0.136315 0.0889577 0.361528
687 4 0.126253 0.111453 0.350937
4308 4 0.437526 0.0855883 0.343558
1191 4 0.394258 0.151876 0.343827
2891 4 0.479611 0.150353 0.4104
2890 2 0.490744 0.149036 0.387839
641 4 0.0087837 0.187079 0.410913
7 3 0.00533436 0.18865 0.391738
10 3 0.00114817 0.202718 0.357173
2957 4 0.0214387 0.199051 0.358675
2956 2 0.0457811 0.200302 0.355389
2958 4 0.0701234 0.201553 0.352102
2654 4 0.090136 0.201736 0.352665
2653 2 0.109568 0.211975 0.352817
2655 4 0.129 0.222214 0.35297
2526 4 0.143906 0.229328 0.34595
2524 2 0.161321 0.239253 0.336021
2822 4 0.242355 0.203328 0.385561
2821 2 0.263364 0.210171 0.391646
2823 4 0.284373 0.217013 0.397732
2543 4 0.304273 0.206966 0.391481
2542 2 0.326251 0.212442 0.386053
2544 4 0.348229 0.217918 0.380625
471 4 0.361257 0.224313 0.392253
402 4 0.403314 0.167142 0.344227
469 2 0.386864 0.221661 0.3897
470 4 0.41247 0.219009 0.387147
400 2 0.416193 0.182847 0.35146
401 4 0.429071 0.198552 0.358693
3633 4 0.430016 0.20865 0.374686
3631 2 0.45219 0.214855 0.374678
3632 4 0.474364 0.22106 0.374669
2451 4 0.493105 0.22417 0.378939
3462 4 0.173383 0.318899 0.414978
3460 2 0.192915 0.328999 0.415586
1033 2 0.316851 0.306415 0.410579
410 4 0.27793 0.321485 0.413397
2766 4 0.346258 0.256359 0.341134
1035 4 0.340355 0.307163 0.402798
585 4 0.354325 0.316365 0.395156
583 2 0.378662 0.317849 0.397727
584 4 0.402998 0.319334 0.400299
892 2 0.438313 0.326124 0.395364
894 4 0.464484 0.319967 0.397499
569 4 0.483758 0.31893 0.390646
893 4 0.412142 0.332282 0.393229
1436 4 0.00631899 0.39298 0.350139
1435 2 0.0285777 0.39891 0.348232
1437 4 0.0508365 0.404839 0.346325
681 4 0.0684786 0.411855 0.342773
679 2 0.091367 0.416614 0.340696
811 2 0.115451 0.395901 0.408835
812 4 0.134883 0.396921 0.39356
549 4 0.15217 0.400584 0.401927
3461 4 0.212447 0.339099 0.416193
415 2 0.217553 0.378378 0.401543
417 4 0.229683 0.380091 0.38007
1434 4 0.240547 0.389136 0.367248
1432 2 0.250787 0.40672 0.35959
2498 4 0.27711 0.3789 0.347729
2832 4 0.287419 0.373374 0.364131
2830 2 0.303983 0.377606 0.381003
2831 4 0.320548 0.381839 0.397875
452 4 0.322458 0.398975 0.401913
289 2 0.401137 0.342379 0.336768
451 2 0.33666 0.414496 0.405215
291 4 0.425841 0.342825 0.339496
570 4 0.493354 0.356515 0.366066
568 2 0.488556 0.337722 0.378356
680 4 0.114255 0.421372 0.338619
547 2 0.161679 0.417599 0.391586
548 4 0.171188 0.434614 0.381244
1433 4 0.261027 0.424304 0.351932
3603 4 0.280644 0.421225 0.348719
3602 4 0.329516 0.422011 0.339432
3601 2 0.30508 0.421618 0.344075
1417 2 0.315116 0.491527 0.40185
1418 4 0.336536 0.473921 0.393394
453 4 0.350861 0.430017 0.408517
2532 4 0.361294 0.443379 0.417253
3641 4 0.3974 0.417366 0.375002
3640 2 0.419402 0.423069 0.379711
2961 4 0.397907 0.484214 0.399483
2530 2 0.375486 0.45907 0.415309
3642 4 0.441405 0.428773 0.384421
2531 4 0.389678 0.474761 0.413366
488 4 0.448901 0.44271 0.391964
2690 4 0.48804 0.47964 0.390956
2689 2 0.47468 0.481426 0.412378
487 2 0.462972 0.428917 0.41052
3935 4 0.497065 0.483826 0.374293
217 3 0.012474 0.0332951 0.470103
216 1 0.034628 0.0294108 0.461249
220 3 0.0397385 0.0111823 0.447627
218 3 0.0350601 0.0480529 0.449102
219 3 0.0508071 0.0255918 0.478606
4340 4 0.0412363 0.0827334 0.495415
4339 2 0.0182664 0.0813069 0.486831
3394 2 0.123813 0.0319726 0.497856
2457 4 0.0910665 0.0231881 0.451937
2455 2 0.105992 0.0167958 0.431442
3396 4 0.136924 0.0469741 0.489256
1182 4 0.191129 0.00274128 0.461065
90 3 0.156438 0.046287 0.48562
89 3 0.192353 0.0485872 0.493823
1180 2 0.168441 0.000406438 0.452731
575 4 0.212834 0.050359 0.496317
574 2 0.229463 0.0626413 0.489493
576 4 0.246093 0.0749236 0.482669
3621 4 0.264563 0.0782192 0.477014
3619 2 0.289605 0.0754489 0.47107
3620 4 0.314647 0.0726785 0.465126
765 4 0.000929221 0.147162 0.492302
2684 4 0.0070609 0.147987 0.47333
2683 2 0.021492 0.163542 0.472629
3032 4 0.138077 0.145308 0.468089
938 4 0.148157 0.154757 0.456352
3031 2 0.155395 0.122724 0.472312
3033 4 0.172712 0.10014 0.476534
945 4 0.188151 0.103939 0.463995
943 2 0.209497 0.105805 0.452189
944 4 0.230842 0.107671 0.440383
3327 4 0.235422 0.124815 0.437319
3325 2 0.254579 0.129312 0.450695
3326 4 0.273736 0.133809 0.464071
320 4 0.284312 0.116647 0.47527
319 2 0.293194 0.119911 0.497971
2657 4 0.317481 0.0893997 0.458371
2656 2 0.335682 0.101075 0.459952
2658 4 0.353884 0.11275 0.461532
984 4 0.37041 0.117844 0.453018
982 2 0.395291 0.117482 0.449569
2817 4 0.332287 0.167546 0.482454
983 4 0.420172 0.117121 0.446121
2579 4 0.436849 0.123612 0.444493
2578 2 0.451828 0.136975 0.436084
2580 4 0.466807 0.150338 0.427675
640 2 0.01694 0.20193 0.426215
2685 4 0.0359232 0.179097 0.471927
642 4 0.0250962 0.216781 0.441518
2586 4 0.0481588 0.184227 0.457154
2584 2 0.0723027 0.181923 0.448606
2585 4 0.0964467 0.17962 0.440057
939 4 0.109946 0.185306 0.428494
937 2 0.129052 0.170032 0.442423
2816 4 0.290972 0.19192 0.454176
2815 2 0.31163 0.179733 0.468315
3059 4 0.022587 0.250675 0.446193
408 4 0.00100836 0.297135 0.495117
2511 4 0.0199972 0.258316 0.42735
3060 4 0.0130926 0.280538 0.486302
406 2 0.0158236 0.312169 0.497954
3058 2 0.0178398 0.265606 0.466248
311 4 0.109442 0.310928 0.496642
310 2 0.121236 0.312311 0.474888
312 4 0.133029 0.313693 0.453134
411 4 0.228387 0.321364 0.419903
409 2 0.253158 0.321424 0.41665
1034 4 0.293348 0.305667 0.41836
1910 4 0.000597072 0.362732 0.489004
346 2 0.00601099 0.373701 0.43523
662 4 0.0178003 0.368747 0.491722
347 4 0.0279454 0.380291 0.435955
661 2 0.0420956 0.370479 0.489764
266 4 0.0979686 0.375257 0.424277
267 4 0.047586 0.380837 0.434922
663 4 0.066391 0.37221 0.487805
265 2 0.0727773 0.378047 0.429599
4043 4 0.0850561 0.372854 0.480903
813 4 0.0960186 0.39488 0.42411
4042 2 0.109027 0.369756 0.471471
4044 4 0.132997 0.366658 0.462039
3885 4 0.141274 0.378047 0.450731
3883 2 0.164144 0.379345 0.441748
416 4 0.205422 0.376665 0.423015
3884 4 0.187014 0.380643 0.432764
3594 4 0.224632 0.341161 0.495499
3592 2 0.225608 0.345132 0.47092
3593 4 0.226585 0.349103 0.44634
489 4 0.477042 0.415125 0.429076
443 4 0.493986 0.334999 0.460785
2924 4 0.480779 0.397361 0.419114
2925 4 0.500846 0.365058 0.456111
2923 2 0.490813 0.381209 0.437612
3857 4 0.162758 0.49938 0.49006
1172 4 0.324612 0.435796 0.461641
1171 2 0.336957 0.438254 0.482762
1486 2 0.339883 0.499394 0.462111
3423 4 0.376718 0.420325 0.461912
1487 4 0.321922 0.500438 0.444398
4059 4 0.426805 0.485465 0.474605
4058 4 0.376522 0.486398 0.476124
561 4 0.437202 0.427881 0.47693
3422 4 0.42315 0.419539 0.481101
1488 4 0.357844 0.49835 0.479824
3421 2 0.399934 0.419932 0.471507
4057 2 0.401663 0.485932 0.475364
1452 4 0.495229 0.430029 0.491844
3538 2 0.459192 0.499221 0.468121
2691 4 0.461321 0.483212 0.433801
3539 4 0.436398 0.495266 0.462755
559 2 0.460252 0.423674 0.488688
4551 4 0.0586635 0.0751045 0.508102
3395 4 0.110702 0.0169711 0.506456
2489 4 0.148781 0.0423413 0.575838
2505 4 0.149291 0.0738843 0.529877
2488 2 0.153892 0.0346269 0.552193
88 3 0.160397 0.0683139 0.514017
86 1 0.170828 0.0485692 0.502474
2490 4 0.159003 0.0269125 0.528548
87 3 0.174513 0.0308916 0.517036
2315 4 0.451052 0.0835374 0.566309
2196 4 0.471566 0.0722443 0.561871
2194 2 0.497787 0.0663366 0.560781
4549 2 0.0741471 0.0845497 0.521886
4550 4 0.0896308 0.093995 0.535671
2504 4 0.101072 0.106594 0.535378
2503 2 0.125181 0.0902393 0.532627
321 4 0.302077 0.123176 0.520672
2314 2 0.429058 0.0831077 0.577928
2317 2 0.492291 0.116381 0.582209
2322 4 0.00764579 0.18768 0.573858
2320 2 0.0212397 0.18432 0.552457
2962 2 0.00677228 0.242482 0.547757
2321 4 0.0348336 0.180961 0.531055
3237 4 0.0301836 0.196427 0.517691
3235 2 0.0488294 0.207266 0.513965
3236 4 0.0674752 0.218104 0.510239
1284 4 0.0765162 0.217131 0.528916
1282 2 0.102569 0.206625 0.526756
1283 4 0.128623 0.196119 0.524596
1211 4 0.0917832 0.250443 0.574846
2963 4 0.0284296 0.249287 0.550496
1212 4 0.0451175 0.257552 0.552802
803 4 0.0449939 0.312095 0.508209
407 4 0.0306389 0.327204 0.500791
2814 4 0.109523 0.254645 0.579116
1210 2 0.0684503 0.253997 0.563824
802 2 0.0681896 0.312363 0.517317
804 4 0.0913853 0.312631 0.526425
1238 4 0.102967 0.319908 0.514594
2812 2 0.134112 0.255818 0.579321
1237 2 0.114381 0.329701 0.532337
2813 4 0.1587 0.256991 0.579526
82 3 0.210715 0.327164 0.542729
85 3 0.231518 0.290937 0.541247
81 1 0.226111 0.309679 0.554162
84 3 0.21549 0.306214 0.57386
890 4 0.191962 0.324012 0.545161
83 3 0.246379 0.315083 0.558953
3420 4 0.264872 0.307778 0.568563
3418 2 0.286276 0.305994 0.554825
3419 4 0.307681 0.30421 0.541088
3491 4 0.0332679 0.366248 0.580974
889 2 0.166913 0.333226 0.552638
1239 4 0.125794 0.339493 0.550081
891 4 0.141864 0.342441 0.560115
3963 4 0.235601 0.401022 0.507467
3961 2 0.252184 0.411886 0.517489
790 2 0.0220518 0.465269 0.560368
792 4 0.0457032 0.453046 0.550833
3962 4 0.268766 0.42275 0.527511
4179 4 0.283327 0.432001 0.531237
878 4 0.273181 0.469313 0.581251
4177 2 0.303118 0.441732 0.5324
1280 4 0.287149 0.47781 0.572622
1279 2 0.303629 0.488195 0.561619
4178 4 0.32291 0.451464 0.533564
1446 4 0.342832 0.448034 0.539488
1173 4 0.349302 0.440712 0.503882
1281 4 0.32011 0.49858 0.550616
1444 2 0.361446 0.458777 0.543815
1445 4 0.38006 0.46952 0.548142
213 3 0.385971 0.484492 0.541296
211 1 0.401976 0.496265 0.539243
214 3 0.405662 0.49978 0.516825
215 3 0.422732 0.484691 0.549133
327 4 0.438209 0.494236 0.543989
560 4 0.483302 0.419466 0.500447
2508 4 0.0106902 0.0693264 0.60254
1142 4 0.0230813 0.0806625 0.5981
1141 2 0.0414124 0.0773676 0.615904
1143 4 0.0597435 0.0740728 0.633708
3024 4 0.0607327 0.0766584 0.655446
918 4 0.166502 0.0327977 0.587042
916 2 0.190752 0.0186785 0.593524
3308 4 0.200958 0.00579343 0.65336
917 4 0.215003 0.00455937 0.600005
3307 2 0.176581 0.0151552 0.662546
976 2 0.00560095 0.127734 0.596951
977 4 0.0192704 0.122193 0.618265
4370 4 0.273028 0.140006 0.594322
4369 2 0.285499 0.127986 0.614531
3359 4 0.28277 0.0905073 0.660169
4371 4 0.297969 0.115965 0.63474
3062 4 0.310644 0.126538 0.640062
2316 4 0.407064 0.082678 0.589546
3061 2 0.331314 0.132486 0.648868
3063 4 0.351985 0.138434 0.657675
3125 4 0.370743 0.138955 0.661306
2318 4 0.466297 0.124222 0.586187
2175 4 0.0200055 0.195015 0.628662
2173 2 0.0462367 0.189254 0.62849
2174 4 0.072468 0.183492 0.628317
3003 4 0.0843998 0.193736 0.621583
3001 2 0.0904892 0.212324 0.632997
3002 4 0.0965787 0.230912 0.644411
2240 4 0.248541 0.249106 0.592052
3179 4 0.176952 0.261295 0.581929
3178 2 0.20293 0.256119 0.584982
3180 4 0.228908 0.250943 0.588036
906 4 0.212367 0.311339 0.593715
904 2 0.233391 0.307562 0.608538
905 4 0.254415 0.303785 0.623362
2239 2 0.270559 0.255531 0.590929
3380 4 0.261054 0.320733 0.619211
2241 4 0.292577 0.261956 0.589805
3379 2 0.28548 0.316849 0.627836
1154 4 0.303172 0.271253 0.601118
3381 4 0.309907 0.312966 0.636461
1153 2 0.328851 0.268846 0.601487
1040 4 0.32918 0.315485 0.638461
1155 4 0.35453 0.266439 0.601856
1257 4 0.368643 0.275678 0.605827
1255 2 0.392704 0.277983 0.607754
1256 4 0.416766 0.280288 0.609682
959 4 0.437227 0.268112 0.614635
958 2 0.46072 0.271101 0.618753
960 4 0.484214 0.274091 0.622872
3222 4 0.0272365 0.351975 0.590815
3220 2 0.00358296 0.351667 0.598611
3490 2 0.047522 0.37974 0.590629
3492 4 0.0617761 0.393233 0.600284
4558 2 0.166779 0.407377 0.651488
3113 4 0.222692 0.365986 0.659272
3112 2 0.238642 0.379689 0.654988
3114 4 0.254592 0.393391 0.650704
999 4 0.264435 0.406224 0.659603
997 2 0.289594 0.392282 0.662461
1039 2 0.325017 0.336771 0.651263
1041 4 0.320854 0.358058 0.664065
998 4 0.314753 0.37834 0.665319
4559 4 0.175039 0.416108 0.630877
773 4 0.192437 0.424195 0.629469
772 2 0.194309 0.445547 0.638943
774 4 0.196181 0.466899 0.648417
877 2 0.287753 0.461459 0.601744
879 4 0.302325 0.453604 0.622237
1205 4 0.308438 0.466011 0.63553
1204 2 0.333604 0.465471 0.634792
1206 4 0.358769 0.464931 0.634055
3119 4 0.374416 0.472896 0.635501
3118 2 0.386784 0.467805 0.657524
1037 4 0.0419559 0.0336253 0.694469
3023 4 0.0392239 0.0493691 0.684169
1036 2 0.0655795 0.0166945 0.698103
3022 2 0.0499783 0.0630137 0.669807
4282 2 0.123457 0.0142615 0.689776
4284 4 0.138545 0.0289935 0.686581
3309 4 0.152204 0.0245169 0.671731
4386 4 0.21789 0.00545605 0.744867
2133 4 0.218113 0.017715 0.729513
2131 2 0.234171 0.0301512 0.72151
3612 4 0.237375 0.999287 0.685386
2132 4 0.250228 0.0425874 0.713506
4115 4 0.28565 0.0455963 0.681476
4114 2 0.305635 0.0529437 0.689782
4116 4 0.325621 0.0602912 0.698088
3294 4 0.340825 0.0688382 0.697484
3292 2 0.365745 0.0682881 0.693893
3105 4 0.365734 0.0151188 0.675856
3293 4 0.390665 0.067738 0.690303
954 4 0.412071 0.0655419 0.69272
952 2 0.434028 0.0717164 0.696081
953 4 0.455986 0.0778908 0.699441
895 2 0.00661195 0.123487 0.689809
896 4 0.0200492 0.138835 0.682931
1013 4 0.036655 0.145435 0.680717
1012 2 0.0592199 0.144283 0.692193
1014 4 0.0817848 0.14313 0.703669
4128 4 0.162721 0.0937969 0.744387
4126 2 0.181506 0.104763 0.742658
4127 4 0.200291 0.115729 0.740928
3299 4 0.203216 0.13323 0.744652
3298 2 0.223169 0.142754 0.745652
3300 4 0.243123 0.152279 0.746652
3358 2 0.279851 0.112236 0.671787
3483 4 0.25491 0.161884 0.737286
3481 2 0.276502 0.147082 0.726017
3360 4 0.276932 0.133965 0.683404
3482 4 0.298094 0.132281 0.714749
1165 2 0.328039 0.10488 0.725318
1167 4 0.316897 0.101196 0.74674
1166 4 0.339181 0.108564 0.703896
3124 2 0.386591 0.146121 0.676867
1264 2 0.402908 0.108372 0.742128
3126 4 0.40244 0.153286 0.692428
3008 4 0.420812 0.151121 0.702245
1266 4 0.425844 0.0963856 0.731116
1077 4 0.466616 0.0872721 0.687758
3007 2 0.446062 0.147817 0.696719
3146 4 0.495038 0.114917 0.728554
1075 2 0.48423 0.096326 0.698657
3009 4 0.471313 0.144514 0.691193
1005 4 0.486921 0.140649 0.677048
3145 2 0.488764 0.128799 0.749282
1299 4 0.137849 0.325944 0.701507
1297 2 0.157715 0.3342 0.694672
3383 4 0.432386 0.258121 0.700439
3382 2 0.452373 0.266219 0.707238
3384 4 0.472359 0.274316 0.714038
921 4 0.484288 0.278185 0.728212
4560 4 0.158519 0.398646 0.672099
800 4 0.164791 0.390255 0.689151
1298 4 0.177581 0.342455 0.687837
1068 4 0.178177 0.351181 0.670084
799 2 0.167228 0.401502 0.710619
1066 2 0.198683 0.359218 0.675014
1955 4 0.190217 0.410149 0.732484
801 4 0.169664 0.412748 0.732088
1067 4 0.219189 0.367255 0.679944
1954 2 0.215564 0.40848 0.735228
1956 4 0.240911 0.40681 0.737972
1008 4 0.259787 0.392199 0.737997
1097 4 0.39818 0.362031 0.713402
1096 2 0.401446 0.384068 0.70806
1098 4 0.404712 0.406105 0.702719
4494 4 0.463597 0.414483 0.703412
1170 4 0.0294492 0.469636 0.67211
1168 2 0.0406113 0.467493 0.694722
1169 4 0.0517734 0.46535 0.717334
1904 4 0.058357 0.449114 0.728712
4301 4 0.368229 0.436335 0.722767
4493 4 0.41176 0.421859 0.70581
4300 2 0.375508 0.451605 0.707265