ITEM: TIMESTEP
358500
ITEM: NUMBER OF ATOMS
4590
ITEM: BOX BOUNDS xy xz yz pp pp pp
-9.9985700000000008e+00 1.3398083799999995e+01 3.3995137999999940e+00
-9.9985700000000008e+00 9.9985700000000008e+00 0.0000000000000000e+00
-9.9985700000000008e+00 9.9985700000000008e+00 0.0000000000000000e+00
ITEM: ATOMS id type xs ys zs
3478 2 0.0229746 0.0695313 0.0359212
3479 4 0.0449111 0.0779583 0.0387603
3902 4 0.0645152 0.0759639 0.0316434
3480 4 0.00103816 0.0611044 0.0330822
3901 2 0.0878836 0.0816769 0.0312799
2884 2 0.149988 0.0725394 0.0298499
1662 4 0.184376 0.0529363 0.0353199
1660 2 0.194745 0.0356376 0.051774
1661 4 0.205115 0.0183389 0.0682281
2886 4 0.170635 0.0578174 0.0209487
2688 4 0.207738 0.0767559 0.0271282
2686 2 0.231277 0.0811832 0.0231899
1475 4 0.197335 0.00279409 0.0772843
2465 4 0.355486 0.0171974 0.0221186
2464 2 0.380503 0.0127119 0.0180273
2949 4 0.348719 0.00217445 0.0130074
2466 4 0.405521 0.00822632 0.013936
1652 4 0.442714 0.0167343 0.0764587
3343 2 0.435237 0.0809928 0.997734
3903 4 0.111252 0.0873898 0.0309164
2885 4 0.129342 0.0872614 0.0387511
2709 4 0.315461 0.0876236 0.0534072
2708 4 0.273106 0.0876952 0.0268027
2707 2 0.294284 0.0876594 0.040105
2687 4 0.254816 0.0856105 0.0192517
2670 4 0.335342 0.0867091 0.0586872
1252 2 0.345678 0.146276 0.0130618
1253 4 0.353822 0.124614 0.0247246
2668 2 0.350996 0.0979241 0.0448654
2669 4 0.366649 0.109139 0.0310436
3345 4 0.4335 0.0924853 0.0199393
2882 4 0.445065 0.0992965 0.0355286
2881 2 0.461376 0.113948 0.0430795
2883 4 0.477687 0.1286 0.0506304
25 3 0.48531 0.14189 0.0642295
456 4 0.114948 0.243781 0.0037662
454 2 0.0896384 0.248373 0.00532363
2729 4 0.283268 0.222794 0.0424251
3285 4 0.288487 0.236771 0.0573676
2728 2 0.296186 0.200084 0.0476592
1254 4 0.337534 0.167939 0.00139894
2730 4 0.309103 0.177374 0.0528932
2753 4 0.319224 0.1685 0.0686969
2752 2 0.341853 0.175488 0.0717138
3283 2 0.30685 0.249347 0.0642043
2754 4 0.364482 0.182476 0.0747306
2966 4 0.373816 0.191668 0.00430969
2638 2 0.401558 0.245232 0.006282
2639 4 0.388919 0.249041 0.0278896
914 4 0.00390582 0.274137 0.0282919
105 3 0.0211485 0.279704 0.0273621
104 3 0.0410936 0.30647 0.0172975
101 1 0.0420815 0.285741 0.0274125
103 3 0.0498895 0.286534 0.0491998
279 4 0.0653007 0.274905 0.0561917
102 3 0.0568907 0.270177 0.0156248
277 2 0.0755311 0.254724 0.069294
455 4 0.0643289 0.252965 0.00688106
2842 2 0.168501 0.323816 0.013292
2844 4 0.163192 0.329795 0.0371876
292 2 0.302607 0.318805 0.0627308
293 4 0.314555 0.317026 0.0406764
3284 4 0.325213 0.261924 0.0710411
2827 2 0.352169 0.271821 0.0615989
666 4 0.338436 0.295479 0.0142186
461 4 0.327209 0.327089 0.0313202
2829 4 0.34103 0.264476 0.0820391
2828 4 0.363307 0.279165 0.0411587
967 2 0.403561 0.322031 0.0359246
968 4 0.422119 0.30696 0.0240017
3215 4 0.466259 0.278138 0.0766231
3214 2 0.488795 0.285574 0.074766
1102 2 0.0189849 0.385263 0.0673288
1103 4 0.0408723 0.394012 0.0658233
2772 4 0.0613792 0.394264 0.0622717
2770 2 0.0806875 0.4069 0.0600096
2783 4 0.125962 0.343156 0.0804207
2782 2 0.147687 0.339653 0.0675182
2784 4 0.169411 0.33615 0.0546156
3339 4 0.18484 0.422273 0.032408
460 2 0.346557 0.336543 0.0411536
670 2 0.282502 0.400337 0.0776711
2726 4 0.312913 0.383018 0.0803605
2725 2 0.338182 0.376751 0.0801385
462 4 0.365905 0.345997 0.0509871
3727 2 0.398195 0.380673 0.0667923
969 4 0.385003 0.337102 0.0478475
3729 4 0.423422 0.379028 0.0670947
3728 4 0.372968 0.382319 0.0664899
3543 4 0.442425 0.384794 0.067129
3541 2 0.458797 0.397434 0.0781931
2581 2 0.0100625 0.443886 0.0719545
2911 2 0.0393059 0.482024 0.0552484
2912 4 0.0448232 0.46487 0.0732523
2913 4 0.0337887 0.499179 0.0372445
3258 4 0.0303765 0.484503 0.0253476
2583 4 0.0298998 0.455563 0.075508
3256 2 0.0339256 0.485824 0.000665846
2771 4 0.0999959 0.419537 0.0577476
2522 4 0.116785 0.424425 0.047943
2523 4 0.164892 0.42485 0.0345544
2521 2 0.140839 0.424637 0.0412487
646 2 0.198213 0.463453 0.0750062
647 4 0.218899 0.455106 0.0614305
3337 2 0.209468 0.423704 0.0345472
3338 4 0.234096 0.425134 0.0366863
672 4 0.269666 0.421173 0.0674413
4512 4 0.416333 0.471479 0.0450729
4510 2 0.415077 0.496191 0.0426611
2733 4 0.0343217 0.0323242 0.152113
2768 4 0.0737899 0.0585793 0.127547
2767 2 0.0919394 0.0721356 0.132348
2769 4 0.110089 0.085692 0.137148
1372 2 0.167664 0.00578229 0.157411
2181 4 0.435909 0.0229386 0.161726
1651 2 0.462586 0.00964133 0.0915065
2179 2 0.458427 0.0296568 0.157229
2180 4 0.480946 0.036375 0.152731
1653 4 0.482458 0.00254836 0.106554
404 4 0.421475 0.0125578 0.165831
1749 4 0.495344 0.0371583 0.137648
697 2 0.119716 0.108588 0.159577
699 4 0.122542 0.098666 0.136655
2788 2 0.169563 0.166121 0.160201
2790 4 0.194026 0.166517 0.155376
2520 4 0.230772 0.0907131 0.162235
355 2 0.285659 0.155503 0.100711
722 4 0.295785 0.0992705 0.154387
721 2 0.272448 0.0961598 0.161165
357 4 0.263629 0.171281 0.102095
723 4 0.249112 0.0930491 0.167944
356 4 0.307689 0.139726 0.0993263
758 4 0.31616 0.129523 0.115132
757 2 0.31498 0.118238 0.137228
759 4 0.313799 0.106953 0.159324
278 4 0.0857614 0.234543 0.0823963
2789 4 0.1451 0.165725 0.165026
623 4 0.262445 0.183379 0.118444
622 2 0.267519 0.197118 0.137976
624 4 0.272593 0.210857 0.157509
2786 4 0.366403 0.190816 0.0921317
2785 2 0.370513 0.209314 0.10731
2787 4 0.374623 0.227812 0.122488
1056 4 0.0138247 0.260043 0.159051
3141 4 0.0126862 0.285679 0.111796
3139 2 0.0334475 0.296254 0.109689
1054 2 0.0361244 0.268074 0.159854
2470 2 0.0297374 0.330728 0.152833
2471 4 0.00520038 0.335847 0.1466
836 4 0.00292545 0.271406 0.10529
3140 4 0.0542088 0.306829 0.107583
2472 4 0.0542745 0.325609 0.159066
621 4 0.0748195 0.308692 0.103435
619 2 0.0931352 0.320241 0.094458
2540 4 0.0758327 0.28256 0.165433
1055 4 0.058424 0.276106 0.160657
294 4 0.290659 0.320585 0.0847851
525 4 0.296177 0.327545 0.102942
523 2 0.315837 0.32274 0.118659
524 4 0.335497 0.317936 0.134376
288 4 0.351583 0.317935 0.145834
286 2 0.371637 0.327645 0.138101
287 4 0.391691 0.337355 0.130367
252 4 0.410104 0.32575 0.1273
349 2 0.493759 0.326001 0.122356
350 4 0.468798 0.329681 0.117944
620 4 0.111451 0.331789 0.0854809
2571 4 0.0637733 0.34055 0.154632
2569 2 0.0812498 0.354059 0.147441
2570 4 0.0987264 0.367569 0.140251
2969 4 0.118221 0.361241 0.136005
2968 2 0.139552 0.370901 0.13398
2970 4 0.160883 0.380562 0.131955
671 4 0.295338 0.379501 0.0879008
2727 4 0.363452 0.370484 0.0799166
250 2 0.432429 0.333682 0.128659
251 4 0.454754 0.341614 0.130018
2705 4 0.454165 0.390351 0.157187
3542 4 0.475169 0.410074 0.0892571
1465 2 0.0173149 0.480838 0.113368
1467 4 0.0396947 0.488704 0.112463
4211 4 0.0566199 0.493636 0.102654
3634 2 0.16401 0.50061 0.108004
2093 4 0.158929 0.424793 0.131203
3635 4 0.158567 0.48222 0.0933901
648 4 0.177528 0.471799 0.088582
2092 2 0.182193 0.429571 0.135968
2094 4 0.205457 0.434348 0.140733
2919 4 0.216093 0.439832 0.124916
2917 2 0.233749 0.454234 0.121228
2918 4 0.251405 0.468635 0.117541
1742 4 0.49526 0.410063 0.0950051
2547 4 0.00667488 0.0186381 0.207247
2732 4 0.00877885 0.0127308 0.187934
2545 2 0.0218525 0.0267046 0.224166
2731 2 0.0215503 0.0225275 0.170023
2546 4 0.0370302 0.0347711 0.241085
1373 4 0.159905 0.0234073 0.174494
2519 4 0.192441 0.0733136 0.184444
688 2 0.226682 0.0167604 0.244927
2518 2 0.211607 0.0820133 0.17334
690 4 0.248003 0.00584854 0.23365
249 4 0.364956 0.0174531 0.198706
247 2 0.368229 0.0277355 0.220937
248 4 0.371502 0.0380179 0.243169
405 4 0.376096 0.0273423 0.186917
403 2 0.398786 0.01995 0.176374
391 2 0.41001 0.0501447 0.250417
392 4 0.434287 0.0531596 0.24916
428 4 0.453407 0.0554876 0.248642
427 2 0.478578 0.0532157 0.246256
2951 4 0.0171429 0.162048 0.193455
522 4 0.065236 0.118003 0.228934
632 4 0.0726296 0.12391 0.24698
520 2 0.0833848 0.115181 0.211469
521 4 0.101533 0.112359 0.194005
698 4 0.116889 0.11851 0.1825
604 2 0.250168 0.141244 0.248543
606 4 0.256943 0.127428 0.228178
731 4 0.27713 0.125644 0.227274
730 2 0.301951 0.124693 0.223248
732 4 0.326772 0.123742 0.219222
581 4 0.34261 0.108543 0.225572
580 2 0.364509 0.114859 0.23316
582 4 0.386407 0.121174 0.240747
750 4 0.401755 0.130967 0.235349
748 2 0.422287 0.14153 0.231461
749 4 0.442818 0.152092 0.227573
459 4 0.461334 0.15494 0.225382
2950 2 0.0416095 0.163414 0.197099
2672 4 0.0835357 0.171305 0.196111
2671 2 0.104442 0.167383 0.181964
2673 4 0.125348 0.16346 0.167816
285 4 0.0718764 0.223713 0.19468
283 2 0.0745693 0.225056 0.219476
2952 4 0.0660762 0.16478 0.200744
284 4 0.0772622 0.226399 0.244272
506 4 0.283665 0.219473 0.173013
505 2 0.30321 0.207458 0.186222
507 4 0.322755 0.195443 0.19943
578 4 0.337879 0.19537 0.212508
577 2 0.359886 0.201511 0.22
579 4 0.381893 0.207651 0.227492
236 4 0.38433 0.219976 0.242671
235 2 0.409676 0.215226 0.241979
237 4 0.435022 0.210475 0.241287
458 4 0.454464 0.201801 0.242805
457 2 0.457899 0.17837 0.234094
2539 2 0.0963351 0.288188 0.176966
2541 4 0.116838 0.293816 0.1885
728 4 0.08911 0.395525 0.184417
2538 4 0.109266 0.396411 0.183536
2536 2 0.131402 0.401657 0.191746
2537 4 0.153538 0.406903 0.199956
714 4 0.175336 0.405686 0.198662
712 2 0.197015 0.413333 0.204879
337 2 0.262213 0.414228 0.202508
339 4 0.237516 0.414164 0.206343
2556 4 0.34785 0.356582 0.188447
677 4 0.304726 0.419754 0.204081
2554 2 0.365235 0.370856 0.193827
2555 4 0.38262 0.38513 0.199206
2526 4 0.394908 0.391124 0.213682
2524 2 0.41977 0.391848 0.214299
2525 4 0.444632 0.392573 0.214916
2862 4 0.460878 0.40028 0.221923
2704 2 0.464358 0.378401 0.177577
2860 2 0.483846 0.406283 0.218221
2706 4 0.474552 0.36645 0.197967
2493 4 0.489268 0.364871 0.211523
727 2 0.0716063 0.416042 0.181627
729 4 0.0541026 0.436558 0.178837
395 4 0.0782416 0.480824 0.216029
394 2 0.0993148 0.463732 0.217749
396 4 0.120388 0.446639 0.21947
3920 4 0.136386 0.455906 0.219957
3919 2 0.160548 0.457752 0.224718
3921 4 0.184711 0.459599 0.229479
713 4 0.218695 0.42098 0.211096
2820 4 0.203051 0.4651 0.226892
2818 2 0.22759 0.466854 0.2246
2819 4 0.252128 0.468608 0.222308
338 4 0.28691 0.414292 0.198672
3566 4 0.271271 0.473304 0.223656
3565 2 0.294767 0.478316 0.220961
3567 4 0.318262 0.483328 0.218266
676 2 0.32895 0.422844 0.205831
4031 4 0.336035 0.48942 0.223343
4368 4 0.404932 0.495382 0.221271
4032 4 0.384264 0.496718 0.223744
678 4 0.353175 0.425935 0.207582
4030 2 0.36015 0.493069 0.223543
1425 4 0.363325 0.438436 0.197785
1423 2 0.385821 0.445579 0.201241
1424 4 0.408318 0.452722 0.204697
645 4 0.49454 0.456111 0.193659
1437 4 0.427408 0.451315 0.196193
1435 2 0.450815 0.455999 0.192011
1436 4 0.474221 0.460682 0.187829
3722 4 0.0464959 0.0445614 0.253864
122 3 0.00562956 0.037563 0.322184
121 1 0.0232644 0.0492464 0.324955
123 3 0.0292158 0.0567825 0.304235
3723 4 0.0432688 0.0676846 0.298198
3721 2 0.0448823 0.056123 0.276031
689 4 0.205361 0.0276723 0.256204
393 4 0.385733 0.0471297 0.251674
633 4 0.0506744 0.114719 0.290144
2892 4 0.0183075 0.157297 0.269926
2878 2 0.05766 0.0962292 0.326748
631 2 0.061652 0.119315 0.268562
2879 4 0.0617009 0.103896 0.303557
27 3 0.23494 0.145027 0.312888
605 4 0.243393 0.15506 0.268907
29 3 0.242391 0.167789 0.285205
26 1 0.250965 0.156577 0.304394
28 3 0.270402 0.141488 0.299293
1032 4 0.281779 0.124086 0.293472
546 4 0.274635 0.165095 0.322088
1030 2 0.299824 0.128828 0.277746
1031 4 0.31787 0.13357 0.26202
2945 4 0.484189 0.149338 0.3018
537 4 0.0125222 0.239794 0.291296
388 2 0.0371255 0.239136 0.265644
389 4 0.0133483 0.247926 0.272812
2591 4 0.126435 0.232912 0.286041
390 4 0.0609027 0.230347 0.258476
30 3 0.255787 0.171495 0.31995
544 2 0.294887 0.17587 0.326712
545 4 0.31514 0.186644 0.331337
387 4 0.495549 0.22081 0.284268
385 2 0.495162 0.243224 0.273728
710 4 0.997824 0.295031 0.308061
709 2 0.000129143 0.306153 0.330058
2590 2 0.135131 0.2516 0.274423
2592 4 0.143827 0.270288 0.262804
611 4 0.149576 0.276824 0.278742
612 4 0.182513 0.297588 0.305942
610 2 0.166045 0.287206 0.292342
413 4 0.197724 0.28695 0.319079
412 2 0.217375 0.298041 0.312888
414 4 0.237026 0.309133 0.306696
345 4 0.302132 0.291939 0.261384
343 2 0.323413 0.301713 0.263199
344 4 0.344694 0.311487 0.265014
2654 4 0.360629 0.31786 0.272868
2653 2 0.366064 0.317132 0.29729
2655 4 0.3715 0.316403 0.321712
386 4 0.494776 0.265638 0.263189
681 4 0.184788 0.406634 0.276633
1575 4 0.303276 0.407947 0.259079
1802 4 0.383607 0.380234 0.278642
1801 2 0.39767 0.396058 0.26894
1803 4 0.411734 0.411881 0.259238
753 4 0.431474 0.413417 0.259714
1746 4 0.0218425 0.49371 0.2709
679 2 0.188745 0.42926 0.269398
680 4 0.192701 0.451886 0.262162
3884 4 0.199237 0.469 0.263473
3883 2 0.20398 0.477452 0.286179
3885 4 0.208723 0.485903 0.308885
2532 4 0.204981 0.472545 0.324007
1573 2 0.318768 0.418803 0.273458
1574 4 0.33426 0.429659 0.287836
543 4 0.346444 0.444661 0.288459
541 2 0.367092 0.452324 0.29766
542 4 0.387739 0.459987 0.306861
245 4 0.40606 0.461993 0.312854
244 2 0.429943 0.460411 0.32092
752 4 0.471732 0.436679 0.261938
4 3 0.490537 0.444364 0.261393
751 2 0.451603 0.425048 0.260826
246 4 0.453826 0.458829 0.328985
3502 2 0.00115417 0.00807336 0.343171
125 3 0.0412757 0.0355116 0.334133
3504 4 0.0237697 0.0151946 0.345777
124 3 0.016268 0.0672825 0.339014
2113 2 0.0235504 0.0179511 0.408513
4355 4 0.0443449 0.0203671 0.347539
4354 2 0.068491 0.0237758 0.349024
2114 4 0.045666 0.0263503 0.409103
4356 4 0.0926372 0.0271846 0.350509
2817 4 0.112953 0.0302407 0.35284
2815 2 0.136958 0.0339808 0.354849
2816 4 0.160962 0.0377209 0.356858
2714 4 0.179427 0.0448243 0.359323
2713 2 0.20352 0.0484566 0.358154
2715 4 0.227613 0.052089 0.356985
3477 4 0.247408 0.0559247 0.357832
3475 2 0.270232 0.0628949 0.358279
3476 4 0.293055 0.069865 0.358726
1244 4 0.309119 0.0779688 0.360069
1243 2 0.333176 0.0813314 0.362765
1245 4 0.357234 0.0846939 0.365462
2667 4 0.378277 0.0819294 0.360458
1522 2 0.467533 0.0560727 0.393791
1524 4 0.481229 0.0487083 0.373392
1523 4 0.453838 0.0634371 0.414189
2643 4 0.496609 0.0581945 0.373194
420 4 0.0562734 0.0998897 0.366852
2880 4 0.0536191 0.0885626 0.34994
418 2 0.0750724 0.0985495 0.38354
4237 2 0.132369 0.0885581 0.402898
419 4 0.0938713 0.0972092 0.400228
4239 4 0.109213 0.0958712 0.412464
4238 4 0.155526 0.0812451 0.393332
1034 4 0.151348 0.163401 0.385774
2559 4 0.172445 0.0870747 0.399949
2557 2 0.193403 0.0866725 0.413685
1033 2 0.172511 0.165895 0.398142
938 4 0.263921 0.168232 0.416553
2665 2 0.401249 0.0849414 0.352419
2666 4 0.42422 0.0879534 0.34438
1377 4 0.442745 0.0950271 0.348676
2900 4 0.466719 0.110626 0.413145
1375 2 0.465602 0.101008 0.344264
1376 4 0.488459 0.106988 0.339853
1035 4 0.193674 0.16839 0.410509
510 4 0.211929 0.248354 0.403728
1199 4 0.303631 0.224912 0.370469
531 4 0.333053 0.191715 0.334973
1198 2 0.328335 0.226371 0.371147
1200 4 0.353038 0.22783 0.371826
529 2 0.358305 0.188835 0.336894
2766 4 0.356149 0.241775 0.358768
530 4 0.383557 0.185956 0.338816
3158 4 0.397755 0.183525 0.35184
3157 2 0.421282 0.181535 0.360977
3159 4 0.44481 0.179545 0.370114
2484 4 0.443583 0.21417 0.408247
651 4 0.455528 0.177794 0.386084
2482 2 0.446167 0.233588 0.393636
649 2 0.480185 0.169888 0.390461
711 4 0.00243414 0.317275 0.352056
765 4 0.195596 0.262523 0.398755
764 4 0.157138 0.254602 0.369538
763 2 0.176367 0.258563 0.384147
508 2 0.233436 0.257142 0.408077
717 4 0.263095 0.27548 0.398255
509 4 0.254943 0.26593 0.412427
715 2 0.281229 0.288965 0.403363
716 4 0.299364 0.302449 0.408471
2764 2 0.369595 0.260351 0.360871
2699 4 0.379618 0.32141 0.369744
2698 2 0.402736 0.326869 0.365598
2802 4 0.398606 0.280534 0.350102
2765 4 0.383041 0.278928 0.362973
2800 2 0.422873 0.273833 0.356839
2801 4 0.44714 0.267133 0.363577
2483 4 0.448751 0.253006 0.379024
2700 4 0.425854 0.332328 0.361453
3421 2 0.394735 0.414081 0.359302
3423 4 0.417806 0.414136 0.368919
2904 4 0.444668 0.336825 0.359814
3640 2 0.453478 0.41309 0.37778
2902 2 0.466884 0.344877 0.361846
3641 4 0.470543 0.412652 0.396119
2903 4 0.489099 0.352929 0.363878
3582 4 0.00407208 0.460579 0.398371
3580 2 0.0240589 0.465794 0.41111
549 4 0.0483201 0.451799 0.372049
547 2 0.0721334 0.45538 0.368059
548 4 0.0959467 0.458961 0.364068
1434 4 0.110163 0.446165 0.373962
1432 2 0.133411 0.448458 0.366142
1433 4 0.15666 0.45075 0.358321
2531 4 0.1743 0.458012 0.358511
2530 2 0.189641 0.465278 0.341259
3422 4 0.371664 0.414025 0.349685
3642 4 0.436413 0.413527 0.359442
669 4 0.472384 0.462813 0.32865
2139 4 0.426705 0.492657 0.385263
2712 4 0.487512 0.421845 0.399089
2137 2 0.428131 0.480398 0.407046
667 2 0.493531 0.464487 0.34142
1184 4 0.0637524 0.0147479 0.412631
1183 2 0.0735623 0.0307685 0.427172
1185 4 0.0833722 0.046789 0.441713
983 4 0.153829 0.0288793 0.435098
982 2 0.166091 0.0434567 0.449077
984 4 0.178353 0.058034 0.463056
217 3 0.195055 0.0649185 0.47056
216 1 0.213597 0.0746825 0.465493
220 3 0.231689 0.0584012 0.461163
2457 4 0.249197 0.0633753 0.467429
2455 2 0.273195 0.0660077 0.471977
2456 4 0.297192 0.0686402 0.476525
3852 4 0.314536 0.0578784 0.482119
1058 4 0.461123 0.0670336 0.4323
1057 2 0.483649 0.0648459 0.443685
3032 4 0.489638 0.0808104 0.492076
843 4 0.501723 0.0139218 0.488282
2558 4 0.21436 0.0862702 0.427421
219 3 0.218339 0.0874476 0.483595
218 3 0.208624 0.088203 0.446826
2195 4 0.232692 0.0986099 0.492001
2553 4 0.248441 0.109154 0.485132
2551 2 0.270136 0.117866 0.488621
2552 4 0.29183 0.126579 0.492109
371 4 0.242638 0.155801 0.495891
760 2 0.336146 0.12051 0.488752
762 4 0.311215 0.121968 0.492464
761 4 0.361078 0.119051 0.48504
3173 4 0.381852 0.118922 0.485973
3172 2 0.398556 0.124369 0.469099
3174 4 0.415259 0.129816 0.452226
2901 4 0.436191 0.131391 0.449759
2899 2 0.451455 0.121009 0.431452
2612 4 0.194879 0.181084 0.425731
2611 2 0.220044 0.174015 0.424745
937 2 0.285081 0.178118 0.418948
2613 4 0.245209 0.166946 0.423759
370 2 0.25819 0.172699 0.496278
372 4 0.273743 0.189597 0.496666
473 4 0.28874 0.189887 0.483841
939 4 0.306242 0.188004 0.421342
472 2 0.311699 0.190318 0.493563
2585 4 0.321487 0.196964 0.420179
474 4 0.334658 0.190749 0.503286
2584 2 0.345781 0.199369 0.423203
2586 4 0.370075 0.201775 0.426227
724 2 0.359929 0.221195 0.490561
725 4 0.372225 0.237674 0.479349
2684 4 0.431401 0.213871 0.424955
2683 2 0.408039 0.209962 0.430667
2685 4 0.384676 0.206053 0.436378
8 3 0.405146 0.212745 0.491213
10 3 0.443183 0.209482 0.489791
368 4 0.45928 0.214633 0.49871
367 2 0.481213 0.211902 0.486188
442 2 0.181827 0.271157 0.490252
443 4 0.203767 0.273174 0.479091
311 4 0.265533 0.255497 0.460141
310 2 0.241525 0.256206 0.467494
312 4 0.217517 0.256914 0.474847
3059 4 0.284224 0.260426 0.462871
3058 2 0.305012 0.270958 0.460743
3060 4 0.325799 0.281489 0.458616
306 4 0.33964 0.294395 0.454643
304 2 0.360618 0.299867 0.443907
2498 4 0.430165 0.256212 0.457408
305 4 0.381596 0.305338 0.43317
453 4 0.40114 0.305404 0.428024
451 2 0.423003 0.313195 0.422846
2497 2 0.453975 0.257787 0.450851
488 4 0.465594 0.324912 0.417407
2499 4 0.477784 0.259362 0.444293
2930 4 0.491564 0.266868 0.432655
452 4 0.444867 0.320986 0.417668
602 4 0.173748 0.413515 0.470638
1029 4 0.188533 0.401588 0.459735
1027 2 0.213199 0.401909 0.456
1028 4 0.237866 0.402229 0.452264
1172 4 0.252722 0.41109 0.444385
1171 2 0.275781 0.415337 0.450835
1173 4 0.29884 0.419583 0.457285
260 4 0.428968 0.353583 0.501642
487 2 0.487689 0.333364 0.417276
2635 2 0.469912 0.352135 0.48457
2636 4 0.492322 0.351926 0.473411
2637 4 0.447502 0.352344 0.495729
3581 4 0.0440458 0.471008 0.42385
3318 4 0.0586648 0.461647 0.435044
3316 2 0.0825988 0.465762 0.436246
601 2 0.151212 0.419089 0.481955
3317 4 0.106533 0.469876 0.437449
3962 4 0.124453 0.47482 0.443347
603 4 0.128677 0.424664 0.493271
3961 2 0.148869 0.474238 0.449137
3963 4 0.173285 0.473656 0.454926
2108 4 0.315073 0.429258 0.453745
2107 2 0.336556 0.438186 0.457801
1698 4 0.366396 0.443502 0.443089
1697 4 0.412905 0.41839 0.433823
1696 2 0.389651 0.430946 0.438456
2109 4 0.358039 0.447114 0.461857
1446 4 0.475207 0.484729 0.471134
594 4 0.478836 0.426983 0.444842
2138 4 0.429557 0.468139 0.428828
593 4 0.429285 0.427079 0.43799
1444 2 0.454924 0.482372 0.457284
592 2 0.454061 0.427031 0.441416
1445 4 0.434641 0.480015 0.443433
326 4 0.489766 0.494951 0.466071
3072 4 0.492925 0.436458 0.496137
3049 2 0.0127022 0.0675921 0.565543
3023 4 0.0190928 0.00817275 0.561881
3051 4 0.0363867 0.0606016 0.557163
3022 2 0.0398409 0.015743 0.570955
88 3 0.0537573 0.056286 0.545583
86 1 0.0640639 0.0749685 0.54834
90 3 0.0622389 0.0818878 0.570027
3066 4 0.999515 0.00323852 0.555972
89 3 0.086746 0.069948 0.542281
2507 4 0.102239 0.076141 0.53145
2506 2 0.123482 0.0602649 0.526041
2508 4 0.144724 0.0443889 0.520632
1263 4 0.166256 0.0407002 0.524862
1261 2 0.173743 0.0450362 0.548073
1262 4 0.181229 0.0493721 0.571284
3308 4 0.164743 0.06315 0.579938
3850 2 0.324187 0.0647294 0.503596
3326 4 0.354632 0.0650862 0.524928
3851 4 0.333837 0.0715804 0.525073
3325 2 0.379767 0.0640609 0.523895
944 4 0.415263 0.0540125 0.539544
3327 4 0.404902 0.0630357 0.522862
943 2 0.440118 0.0530209 0.543383
1162 2 0.443121 0.00461814 0.576695
945 4 0.464974 0.0520292 0.547222
1966 2 0.475649 0.999408 0.520443
3033 4 0.474163 0.0538217 0.529088
3031 2 0.4819 0.0673161 0.510582
1967 4 0.492474 0.0052989 0.503929
1163 4 0.455719 0.996883 0.555765
87 3 0.0534051 0.09183 0.534771
575 4 0.104824 0.0921235 0.541579
574 2 0.111784 0.1146 0.539643
576 4 0.118744 0.137077 0.537707
2241 4 0.135879 0.141072 0.528358
2196 4 0.197344 0.131159 0.515503
2239 2 0.144755 0.161871 0.534561
2194 2 0.215018 0.114884 0.503752
1141 2 0.401094 0.15753 0.535072
1142 4 0.398666 0.134653 0.527203
2502 4 0.416836 0.122678 0.526359
2500 2 0.441186 0.112743 0.529952
2501 4 0.465537 0.102808 0.533545
900 4 0.480324 0.112219 0.537645
898 2 0.491908 0.132155 0.535764
960 4 0.160387 0.176218 0.55893
2240 4 0.153632 0.182671 0.540765
958 2 0.171687 0.191218 0.573365
726 4 0.347633 0.204717 0.501774
1143 4 0.403522 0.180407 0.54294
7 3 0.427157 0.189022 0.514161
6 1 0.425066 0.209396 0.50357
917 4 0.425298 0.177878 0.546239
9 3 0.424387 0.226046 0.519588
916 2 0.450581 0.175635 0.54643
918 4 0.475865 0.173392 0.54662
1075 2 0.484584 0.208134 0.583137
3043 2 0.116438 0.279246 0.501713
3044 4 0.0923494 0.283898 0.509506
3045 4 0.140527 0.274594 0.49392
444 4 0.159886 0.26914 0.501413
3237 4 0.278767 0.312749 0.536124
3235 2 0.293904 0.325123 0.5229
2847 4 0.326661 0.325928 0.510382
83 3 0.358949 0.267291 0.576979
2845 2 0.348038 0.331566 0.520105
1640 4 0.464751 0.322383 0.579997
1639 2 0.481983 0.331114 0.565902
3236 4 0.30904 0.337496 0.509676
2846 4 0.369415 0.337204 0.529828
261 4 0.384803 0.342953 0.518205
259 2 0.406885 0.348268 0.509924
3454 2 0.401674 0.40925 0.501499
3455 4 0.425484 0.412838 0.505496
3456 4 0.377865 0.405662 0.497502
559 2 0.00765655 0.491846 0.522744
4058 4 0.0498423 0.496463 0.527598
4057 2 0.0680943 0.494721 0.544911
4059 4 0.0863462 0.492979 0.562224
4538 4 0.102962 0.498019 0.572246
4131 4 0.123764 0.440501 0.505057
4129 2 0.134336 0.453011 0.52259
4130 4 0.144907 0.465521 0.540124
2630 4 0.158726 0.47488 0.529713
2629 2 0.175995 0.483987 0.515996
2631 4 0.193265 0.493093 0.502279
2129 4 0.336711 0.461134 0.581595
791 4 0.379532 0.434895 0.555071
790 2 0.394667 0.451612 0.550325
792 4 0.409803 0.46833 0.545578
4179 4 0.432272 0.430394 0.501756
2214 4 0.43037 0.468838 0.54691
4177 2 0.454979 0.437239 0.504675
2212 2 0.454578 0.464579 0.554361
4178 4 0.477687 0.444083 0.507595
2213 4 0.478786 0.46032 0.561812
2171 4 0.457817 0.499292 0.587223
3024 4 0.0605891 0.0233134 0.580028
2996 4 0.0751434 0.0324427 0.589113
2995 2 0.0924702 0.0448855 0.598724
2997 4 0.109797 0.0573283 0.608335
3309 4 0.129824 0.0475712 0.609037
3307 2 0.147283 0.0553606 0.594487
953 4 0.412333 0.0334452 0.646019
1164 4 0.430524 0.0123534 0.597624
952 2 0.429081 0.0233832 0.628762
954 4 0.445829 0.0133211 0.611505
1130 4 0.482818 0.165254 0.587984
959 4 0.182988 0.206218 0.5878
1256 4 0.192616 0.200349 0.605873
1255 2 0.217886 0.197228 0.604037
1257 4 0.243157 0.194106 0.602202
1155 4 0.264101 0.192076 0.59564
1153 2 0.285288 0.199136 0.604252
1154 4 0.306475 0.206196 0.612864
1283 4 0.32124 0.201477 0.599004
1282 2 0.345979 0.201815 0.595815
82 3 0.362577 0.243633 0.606182
1284 4 0.370719 0.202153 0.592626
2627 4 0.365654 0.24353 0.645435
3356 4 0.347155 0.248538 0.655841
1107 4 0.44075 0.204 0.586165
2626 2 0.39033 0.243765 0.64166
1106 4 0.391234 0.201571 0.587546
1105 2 0.415992 0.202786 0.586855
2628 4 0.415006 0.244 0.637886
3441 4 0.427368 0.250381 0.624685
1076 4 0.460142 0.206228 0.586001
906 4 0.23753 0.263425 0.628544
904 2 0.261968 0.264014 0.633306
905 4 0.286407 0.264603 0.638068
3419 4 0.326759 0.322982 0.585543
3355 2 0.323626 0.248389 0.647454
3357 4 0.300097 0.248241 0.639066
3420 4 0.28852 0.319845 0.616969
3418 2 0.307639 0.321414 0.601256
84 3 0.330989 0.269362 0.603016
81 1 0.354254 0.265151 0.599523
85 3 0.364383 0.279677 0.611727
806 4 0.383195 0.279278 0.607248
805 2 0.402511 0.291481 0.611575
807 4 0.421827 0.303685 0.615901
978 4 0.435362 0.302466 0.631724
976 2 0.427203 0.325128 0.641371
3439 2 0.449356 0.258572 0.621304
3440 4 0.471344 0.266763 0.617923
896 4 0.482111 0.283003 0.622266
895 2 0.495637 0.298822 0.63285
3433 2 0.0181733 0.341247 0.619788
3434 4 0.0395775 0.350393 0.623587
347 4 0.33211 0.340618 0.591915
346 2 0.356648 0.342797 0.591799
4560 4 0.353039 0.357443 0.65483
348 4 0.381186 0.344976 0.591684
3112 2 0.379634 0.410568 0.651419
4558 2 0.377928 0.357666 0.65677
1281 4 0.39866 0.352405 0.591751
4559 4 0.402817 0.357888 0.658711
1279 2 0.42316 0.342559 0.589065
977 4 0.419043 0.34779 0.651017
3114 4 0.398867 0.405325 0.635255
4215 4 0.420211 0.40424 0.637601
1280 4 0.447659 0.332712 0.586379
3375 4 0.467904 0.392717 0.665381
797 4 0.0237098 0.416576 0.640872
3490 2 0.063662 0.494038 0.633894
3492 4 0.0769069 0.473437 0.623607
4539 4 0.0930875 0.467021 0.608447
4537 2 0.0980248 0.48252 0.590347
4362 4 0.319989 0.492146 0.650746
4360 2 0.342881 0.498229 0.646777
2128 2 0.357044 0.470907 0.588372
2130 4 0.377378 0.480679 0.595149
3465 4 0.404246 0.475874 0.642621
1983 4 0.396736 0.483899 0.60307
2216 4 0.411933 0.491008 0.647961
3463 2 0.399356 0.458271 0.658534
4213 2 0.440317 0.415169 0.632771
1981 2 0.419275 0.486676 0.59369
1982 4 0.441814 0.489453 0.58431
4214 4 0.460423 0.426097 0.627941
1911 4 0.479876 0.424492 0.621882
1909 2 0.498107 0.430673 0.607213
1023 4 0.0547311 0.0703624 0.712544
3084 4 0.259978 0.0222727 0.676037
3082 2 0.262101 0.00252464 0.691323
1022 4 0.0107987 0.101294 0.705599
1021 2 0.0327649 0.0858281 0.709071
3009 4 0.150144 0.136908 0.751252
3126 4 0.226591 0.0849684 0.696321
3124 2 0.237422 0.102968 0.685918
3125 4 0.248254 0.120968 0.675515
3062 4 0.00485016 0.172602 0.711656
3061 2 0.0270222 0.180877 0.710791
3063 4 0.0491943 0.189152 0.709925
3167 4 0.0672969 0.194298 0.7063
3166 2 0.0912223 0.197966 0.703286
3168 4 0.115148 0.201633 0.700272
3002 4 0.135235 0.201959 0.697365
3001 2 0.158612 0.207246 0.700179
3003 4 0.181989 0.212532 0.702993
2174 4 0.202029 0.209049 0.697149
2173 2 0.226812 0.205555 0.702431
2175 4 0.251594 0.202061 0.707712
3240 4 0.272919 0.197859 0.705873
3238 2 0.29738 0.199132 0.709691
3239 4 0.321841 0.200404 0.713509
3351 4 0.333248 0.210391 0.702597
3349 2 0.354757 0.213992 0.691515
3273 4 0.359104 0.244863 0.730349
3350 4 0.376267 0.217593 0.680432
779 4 0.39284 0.225905 0.684647
3252 4 0.379244 0.23866 0.730623
778 2 0.417353 0.224301 0.690565
780 4 0.441866 0.222697 0.696482
3250 2 0.385351 0.225036 0.751243
3271 2 0.335637 0.255204 0.737199
3074 4 0.295374 0.329248 0.712355
3092 4 0.315039 0.329755 0.718978
3091 2 0.322144 0.327183 0.742939
3380 4 0.328005 0.325029 0.703753
3272 4 0.312169 0.265546 0.744049
3312 4 0.242861 0.348417 0.742063
3075 4 0.246138 0.344228 0.722173
3073 2 0.270756 0.336738 0.717264
3379 2 0.335754 0.341581 0.688273
3381 4 0.343503 0.358133 0.672793
3113 4 0.360401 0.415811 0.667583
998 4 0.363789 0.410105 0.686241
997 2 0.377947 0.409804 0.706883
999 4 0.392105 0.409503 0.727525
1017 4 0.403923 0.412702 0.74291
1007 4 0.454629 0.413266 0.697977
3373 2 0.465403 0.374437 0.681491
3374 4 0.462901 0.356157 0.697602
4196 4 0.470083 0.411132 0.711371
993 4 0.0858343 0.48897 0.729597
991 2 0.096466 0.465665 0.723468
992 4 0.107098 0.442361 0.717339
942 4 0.125159 0.447412 0.717376
940 2 0.148991 0.43921 0.709998
941 4 0.172824 0.431008 0.70262
1098 4 0.189545 0.419145 0.712727
1096 2 0.209339 0.426836 0.723716
1097 4 0.229133 0.434527 0.734705
1278 4 0.245611 0.441148 0.730875
1276 2 0.266645 0.442735 0.717883
1277 4 0.28768 0.444321 0.704891
821 4 0.307474 0.447513 0.706699
820 2 0.327712 0.456768 0.714688
822 4 0.34795 0.466022 0.722677
1235 4 0.365495 0.465825 0.732614
1234 2 0.390258 0.46661 0.734793
3464 4 0.394467 0.440669 0.674446
1008 4 0.405801 0.430498 0.688126
1236 4 0.415021 0.467394 0.736972
2289 4 0.427443 0.466007 0.720282
1006 2 0.430215 0.421882 0.693052
2287 2 0.446555 0.477371 0.727578
4195 2 0.477703 0.427626 0.727006
2288 4 0.465667 0.488734 0.734874
4197 4 0.485323 0.44412 0.742641
3553 2 0.0191102 0.0332426 0.800838
3554 4 0.0424511 0.0385669 0.797844
193 3 0.0601352 0.0433958 0.791061
195 3 0.0861691 0.0602896 0.773836
191 1 0.0823005 0.0408769 0.783344
192 3 0.0855511 0.0241222 0.767588
194 3 0.0973027 0.0350116 0.80089
3764 4 0.114697 0.0338435 0.809637
1112 4 0.0957352 0.0736962 0.782045
3763 2 0.135684 0.0426299 0.816163
3765 4 0.156672 0.0514163 0.822689
1994 4 0.17521 0.0530333 0.830941
1993 2 0.199774 0.0443199 0.826885
1995 4 0.224338 0.0356065 0.822829
2283 4 0.22692 0.00765125 0.778813
4580 4 0.241459 0.0175421 0.771256
4579 2 0.263687 0.0105475 0.782813
4581 4 0.285916 0.00355283 0.794371
2036 4 0.30257 0.00808867 0.802637
2035 2 0.324551 0.0126866 0.811905
3131 4 0.345905 0.0605975 0.764594
3130 2 0.326656 0.0796425 0.767062
2037 4 0.346532 0.0172846 0.821174
2348 4 0.365398 0.0207222 0.815392
2347 2 0.389424 0.0237591 0.819081
2349 4 0.413451 0.0267959 0.82277
1038 4 0.433505 0.027941 0.821008
1036 2 0.457784 0.0301664 0.817512