ITEM: TIMESTEP
1979500
ITEM: NUMBER OF ATOMS
4590
ITEM: BOX BOUNDS xy xz yz pp pp pp
-9.9985700000000008e+00 9.9985700000000008e+00 0.0000000000000000e+00
-9.9985700000000008e+00 9.9985700000000008e+00 0.0000000000000000e+00
-9.9985700000000008e+00 9.9985700000000008e+00 0.0000000000000000e+00
ITEM: ATOMS id type xs ys zs
1875 4 0.0670596 0.0731079 0.0536531
1653 4 0.0794522 0.0588438 0.0627315
1873 2 0.0513442 0.0736053 0.0730942
1651 2 0.101401 0.0516178 0.0531802
1652 4 0.12335 0.0443919 0.0436289
2469 4 0.131435 0.0562294 0.057929
2467 2 0.150404 0.0698104 0.0669234
2468 4 0.169374 0.0833914 0.0759178
3048 4 0.404103 0.0630638 0.0464135
3046 2 0.428524 0.0673951 0.0495781
1759 2 0.485928 0.0728153 0.0406711
1761 4 0.466307 0.0582709 0.0460234
3047 4 0.452946 0.0717264 0.0527426
2466 4 0.183863 0.0949982 0.0843793
2441 4 0.194413 0.163871 0.0576101
2440 2 0.218801 0.158359 0.0574465
2442 4 0.243189 0.152848 0.0572829
492 4 0.2637 0.149891 0.0579518
490 2 0.285147 0.162714 0.0570465
391 2 0.504991 0.11536 0.0693635
1251 4 0.0792927 0.178754 0.0910811
1246 2 0.155443 0.172472 0.0775338
1248 4 0.176132 0.162628 0.0675222
3198 4 0.263589 0.22591 0.0317256
2876 4 0.265522 0.243495 0.0425017
2875 2 0.286311 0.243505 0.0563959
491 4 0.306593 0.175536 0.0561412
2652 4 0.327322 0.24615 0.0682335
845 4 0.335339 0.165397 0.0750148
844 2 0.357577 0.176827 0.0750164
846 4 0.379815 0.188258 0.0750181
456 4 0.397542 0.197528 0.0692872
526 2 0.398444 0.254008 0.0743194
528 4 0.417863 0.241742 0.084199
454 2 0.42168 0.200608 0.0635394
455 4 0.445819 0.203687 0.0577917
102 3 0.463243 0.193459 0.0613287
101 1 0.482919 0.203813 0.0554276
104 3 0.477986 0.224221 0.0455486
103 3 0.494301 0.190283 0.040401
105 3 0.495571 0.207066 0.0740818
672 4 0.106011 0.334444 0.0357042
2877 4 0.307099 0.243515 0.07029
527 4 0.379024 0.266275 0.0644398
2650 2 0.345421 0.262529 0.0628156
2651 4 0.363519 0.278908 0.0573977
2770 2 0.37248 0.315378 0.0572914
2771 4 0.395631 0.309267 0.0500874
2522 4 0.41033 0.318196 0.040074
525 4 0.335685 0.335038 0.068515
2772 4 0.34933 0.321489 0.0644955
2521 2 0.431152 0.327183 0.0295448
2747 4 0.00831908 0.397751 0.0714465
671 4 0.073075 0.363717 0.0593481
670 2 0.089543 0.34908 0.0475261
2726 4 0.0668803 0.367896 0.0798415
1550 4 0.325961 0.402267 0.0280406
1549 2 0.33686 0.38343 0.0403516
1551 4 0.347759 0.364594 0.0526627
3542 4 0.366658 0.367292 0.0470377
3541 2 0.391358 0.371176 0.0471733
3543 4 0.416058 0.37506 0.0473089
1466 4 0.431709 0.363297 0.0431885
1465 2 0.447917 0.373661 0.0591605
2523 4 0.451974 0.336171 0.0190156
1467 4 0.464124 0.384024 0.0751324
3339 4 0.470226 0.342814 0.023343
3337 2 0.489815 0.343875 0.00783915
1871 4 0.053316 0.455196 0.0270984
1870 2 0.0624619 0.478142 0.0309766
2932 2 0.0211557 0.434628 0.00527972
2933 4 0.0383728 0.450315 0.0143724
3102 4 0.0155805 0.454338 0.066516
3100 2 0.00542993 0.474737 0.0562196
1872 4 0.0716079 0.501087 0.0348548
3672 4 0.0943261 0.441069 0.0660224
2582 4 0.11 0.443722 0.0535035
2581 2 0.134464 0.44023 0.0496975
2583 4 0.158928 0.436738 0.0458916
3636 4 0.167566 0.427765 0.0288933
3634 2 0.192163 0.432235 0.0284846
3635 4 0.21676 0.436704 0.0280758
4304 4 0.223351 0.449212 0.0145408
1570 2 0.231196 0.471066 0.0894766
4303 2 0.246102 0.457717 0.0204784
1572 4 0.206215 0.470397 0.0903355
647 4 0.200241 0.457081 0.078024
596 4 0.325906 0.421958 0.0224372
3711 4 0.272408 0.479977 0.0803508
4305 4 0.268853 0.466222 0.0264161
3709 2 0.293533 0.485183 0.0680293
3710 4 0.314658 0.490388 0.0557079
595 2 0.33644 0.440246 0.0358462
597 4 0.346973 0.458534 0.0492551
3389 4 0.361986 0.455253 0.0624391
3388 2 0.369517 0.472142 0.079269
2677 2 0.0103018 0.0788014 0.117543
125 3 0.0625885 0.0566245 0.10862
121 1 0.079356 0.0418613 0.113041
1874 4 0.0356287 0.0741027 0.0925353
124 3 0.0861685 0.0439974 0.135119
123 3 0.0720795 0.0201915 0.109058
2855 4 0.0959739 0.0431803 0.153194
122 3 0.0972303 0.046352 0.0992752
1373 4 0.234936 0.0910386 0.125726
2465 4 0.2231 0.0814499 0.112266
2745 4 0.264542 0.0202274 0.160894
2949 4 0.330147 0.0500961 0.10115
2947 2 0.34903 0.0602113 0.114044
2948 4 0.367914 0.0703264 0.126939
377 4 0.382688 0.0572189 0.122047
376 2 0.399416 0.0757577 0.123334
4352 4 0.392077 0.0651824 0.174832
2692 2 0.445594 0.019205 0.133861
2520 4 0.479493 0.067548 0.155245
2518 2 0.499458 0.0825891 0.154654
723 4 0.448708 0.0770155 0.160775
2693 4 0.42759 0.0155066 0.11691
1506 4 0.462758 0.0222219 0.170982
2694 4 0.463599 0.0229034 0.150813
2678 4 0.0313291 0.0875399 0.107214
332 4 0.00648118 0.126645 0.143633
331 2 0.0298175 0.134199 0.138781
333 4 0.0531539 0.141753 0.133929
2516 4 0.0709542 0.131331 0.135612
2515 2 0.0958133 0.132943 0.137758
2517 4 0.120672 0.134554 0.139905
2478 4 0.139448 0.136738 0.132648
2476 2 0.162383 0.144967 0.138253
2616 4 0.123178 0.172181 0.161546
2477 4 0.185319 0.153196 0.143858
2464 2 0.203481 0.088224 0.0983226
1372 2 0.252559 0.0994192 0.141359
1374 4 0.270182 0.1078 0.156993
2838 4 0.291579 0.109822 0.161903
1479 4 0.305817 0.164641 0.0975995
749 4 0.310366 0.0722556 0.120557
748 2 0.310048 0.0840883 0.142581
1477 2 0.315715 0.161616 0.120361
750 4 0.309729 0.0959211 0.164606
522 4 0.388393 0.158145 0.156385
378 4 0.416145 0.0942965 0.124622
520 2 0.407852 0.166331 0.142986
2717 4 0.427125 0.109125 0.116675
622 2 0.462657 0.163048 0.109039
2716 2 0.450603 0.101148 0.113464
2718 4 0.474082 0.0931719 0.110253
623 4 0.484917 0.153385 0.103013
392 4 0.502196 0.133923 0.0858781
2976 4 0.0315758 0.221966 0.110953
836 4 0.0457159 0.220962 0.124297
835 2 0.0633181 0.214131 0.140689
2974 2 0.00812972 0.215132 0.116317
1247 4 0.134754 0.182317 0.0875453
1250 4 0.127384 0.17268 0.10337
1249 2 0.103338 0.175717 0.0972254
837 4 0.0809202 0.207301 0.157081
2615 4 0.0992656 0.215078 0.152122
2614 2 0.111222 0.19363 0.156834
1478 4 0.325613 0.158591 0.143122
518 4 0.306565 0.243749 0.141478
351 4 0.306269 0.251539 0.121731
517 2 0.32571 0.231598 0.152014
609 4 0.376504 0.246226 0.150793
624 4 0.440397 0.172711 0.115064
521 4 0.427312 0.174517 0.129588
523 2 0.322742 0.321044 0.0846956
350 4 0.320603 0.291161 0.0947991
349 2 0.313436 0.27135 0.108265
524 4 0.309799 0.30705 0.100876
2571 4 0.320159 0.323266 0.15515
2569 2 0.344384 0.31873 0.159364
2570 4 0.368609 0.314193 0.163577
2471 4 0.414788 0.28137 0.17854
607 2 0.386568 0.261281 0.168033
2969 4 0.422466 0.300992 0.140231
2968 2 0.440434 0.318364 0.140966
729 4 0.476649 0.331861 0.131741
727 2 0.500137 0.333328 0.123294
2725 2 0.0455903 0.380892 0.0815759
2727 4 0.0243003 0.393888 0.0833103
2918 4 0.13165 0.421028 0.143311
297 4 0.315142 0.343949 0.153581
733 2 0.402209 0.39185 0.146696
735 4 0.410076 0.401577 0.125047
734 4 0.394343 0.382123 0.168345
2970 4 0.458403 0.335737 0.141701
4211 4 0.0459448 0.437651 0.159285
4210 2 0.0634566 0.444078 0.142635
3671 4 0.0852796 0.433972 0.11469
4212 4 0.0809684 0.450505 0.125985
678 4 0.00824151 0.43244 0.156621
2917 2 0.136197 0.434141 0.122512
3670 2 0.0898029 0.43752 0.090356
72 3 0.108581 0.492181 0.120778
71 1 0.127483 0.487499 0.108534
75 3 0.128184 0.465181 0.104057
74 3 0.146136 0.49369 0.12087
2919 4 0.140745 0.447253 0.101714
648 4 0.159775 0.43611 0.0986032
777 4 0.133317 0.438606 0.155431
646 2 0.180008 0.446596 0.0883136
4005 4 0.202249 0.477015 0.161453
1424 4 0.190228 0.492459 0.161165
1571 4 0.256176 0.471735 0.0886177
3390 4 0.377047 0.489031 0.0960989
3000 4 0.362604 0.502976 0.0935558
317 4 0.00405351 0.0111294 0.228297
2940 4 0.112312 0.994688 0.194114
2854 2 0.0968348 0.0237034 0.168849
2856 4 0.0976958 0.00422642 0.184504
2547 4 0.163995 0.0371425 0.220652
2546 4 0.124212 0.043311 0.250316
2545 2 0.144104 0.0402267 0.235484
2739 4 0.177503 0.039566 0.237349
2737 2 0.198938 0.0298328 0.245775
2757 4 0.232069 0.0356269 0.248028
2744 4 0.232013 0.0481391 0.186653
2755 2 0.255195 0.0447147 0.25082
3766 2 0.305107 0.0304249 0.16838
2743 2 0.248277 0.0341833 0.173773
3767 4 0.281083 0.0245018 0.171987
2756 4 0.27832 0.0538026 0.253611
580 2 0.316421 0.0779105 0.204327
581 4 0.320954 0.0657722 0.225711
429 4 0.297416 0.0480835 0.250317
3768 4 0.32913 0.0363481 0.164773
4353 4 0.346821 0.0439166 0.174188
4351 2 0.369449 0.0545495 0.17451
1784 4 0.33506 0.00530498 0.211398
1806 4 0.351951 0.0112956 0.204519
1804 2 0.375499 0.00323801 0.206918
722 4 0.408676 0.0523111 0.177743
112 3 0.415289 0.00854507 0.205391
1805 4 0.399046 0.99518 0.209317
1504 2 0.484626 0.0121399 0.177715
721 2 0.428692 0.0646633 0.169259
115 3 0.428507 0.00655961 0.170545
1271 4 0.0171376 0.0970568 0.22768
1270 2 0.0408311 0.100772 0.220608
1272 4 0.0645246 0.104487 0.213536
3677 4 0.0826289 0.108737 0.223449
3676 2 0.104956 0.10171 0.232244
3678 4 0.127282 0.0946841 0.241038
2879 4 0.146858 0.0924825 0.234686
2878 2 0.167684 0.0979808 0.247384
2880 4 0.188509 0.103479 0.260083
582 4 0.311887 0.0900489 0.182943
2836 2 0.298019 0.124449 0.181132
2837 4 0.30446 0.139076 0.200362
419 4 0.318333 0.153023 0.207524
418 2 0.340699 0.144884 0.215185
420 4 0.363065 0.136744 0.222846
177 3 0.380111 0.143739 0.230796
176 1 0.403098 0.144568 0.231095
180 3 0.410855 0.145339 0.209697
179 3 0.41115 0.125597 0.241756
1748 4 0.425052 0.159673 0.210496
1747 2 0.449152 0.162134 0.204305
1749 4 0.473252 0.164595 0.198114
2671 2 0.0699887 0.185762 0.237628
2672 4 0.0931307 0.194887 0.235105
2952 4 0.109435 0.206901 0.235514
2950 2 0.13142 0.204195 0.223916
2951 4 0.153405 0.20149 0.212318
2454 4 0.1624 0.193564 0.195481
2452 2 0.187142 0.196273 0.1931
2453 4 0.211884 0.198981 0.190719
2777 4 0.228112 0.186774 0.190432
2776 2 0.244358 0.192724 0.208483
2778 4 0.260604 0.198674 0.226534
2930 4 0.272665 0.214346 0.221352
2929 2 0.297129 0.21027 0.218177
2931 4 0.321593 0.206193 0.215002
519 4 0.344856 0.219447 0.162549
413 4 0.353857 0.222008 0.180231
512 4 0.370565 0.201446 0.240293
414 4 0.37662 0.205998 0.221779
412 2 0.365238 0.214003 0.201005
2462 4 0.406843 0.230639 0.219431
459 4 0.492932 0.161356 0.196392
283 2 0.439011 0.196047 0.249161
284 4 0.455366 0.214815 0.246832
1199 4 0.459471 0.23465 0.250428
2705 4 0.322034 0.311863 0.215119
608 4 0.396633 0.276336 0.185274
2704 2 0.337002 0.329591 0.224439
2470 2 0.414689 0.3035 0.190177
2472 4 0.414591 0.325631 0.201814
2461 2 0.419017 0.249777 0.229955
2706 4 0.351971 0.347319 0.233758
2463 4 0.431191 0.268914 0.240479
740 4 0.116801 0.361659 0.236536
739 2 0.127835 0.370307 0.215832
741 4 0.138869 0.378954 0.195127
3705 4 0.154919 0.379013 0.183624
3703 2 0.178246 0.385274 0.190093
3704 4 0.201573 0.391535 0.196562
303 4 0.215946 0.406177 0.194153
301 2 0.24004 0.410491 0.189049
295 2 0.294475 0.345808 0.16753
296 4 0.273807 0.347666 0.181479
302 4 0.264134 0.414805 0.183945
4006 2 0.394629 0.34336 0.225566
4008 4 0.418002 0.338611 0.218061
4007 4 0.371256 0.348109 0.233071
3404 4 0.344448 0.391308 0.200411
3403 2 0.364893 0.380429 0.190987
3405 4 0.385339 0.36955 0.181564
2872 2 0.450272 0.416087 0.237607
776 4 0.101778 0.449028 0.192812
775 2 0.117548 0.443817 0.174122
4003 2 0.216939 0.47554 0.181632
4004 4 0.231629 0.474065 0.201812
1856 4 0.243226 0.472945 0.217079
1855 2 0.260938 0.481216 0.232669
1664 4 0.283514 0.417118 0.187597
1663 2 0.301829 0.430193 0.198495
1665 4 0.320145 0.443268 0.209393
3830 4 0.308624 0.459003 0.204401
3829 2 0.319397 0.481078 0.209072
1857 4 0.27865 0.489488 0.24826
3695 4 0.490954 0.46945 0.201865
2874 4 0.458511 0.423943 0.215346
3696 4 0.471757 0.423291 0.200608
3694 2 0.481356 0.44637 0.201237
3723 4 0.0709106 0.0486736 0.253254
546 4 0.0599707 0.046231 0.322786
249 4 0.0732987 0.0601844 0.328256
247 2 0.0610072 0.081591 0.324275
3721 2 0.0943906 0.046523 0.261577
3722 4 0.117871 0.0443723 0.269899
28 3 0.127697 0.0605637 0.27824
26 1 0.132868 0.0817891 0.28606
27 3 0.12546 0.0837313 0.307752
2738 4 0.220372 0.0200996 0.254201
2113 2 0.222437 0.0211252 0.311041
2114 4 0.242652 0.0353242 0.307175
2115 4 0.202222 0.00692617 0.314907
404 4 0.214326 0.0961809 0.317467
1184 4 0.250286 0.0328243 0.32737
427 2 0.316572 0.036084 0.261005
1183 2 0.274854 0.0358401 0.330912
1185 4 0.299421 0.0388559 0.334454
342 4 0.319318 0.034535 0.333792
428 4 0.335728 0.0240845 0.271692
3477 4 0.385124 0.0447988 0.330343
3475 2 0.40596 0.054608 0.320605
341 4 0.368933 0.0350224 0.340023
340 2 0.344126 0.0347787 0.336907
1245 4 0.487552 0.0812362 0.28641
3476 4 0.426796 0.0644172 0.310868
1244 4 0.439967 0.0706754 0.297587
1243 2 0.463759 0.0759558 0.291998
4307 4 0.99973 0.11606 0.281053
4306 2 0.0219785 0.113556 0.292183
4308 4 0.0442273 0.111052 0.303313
248 4 0.0487156 0.102998 0.320295
29 3 0.122277 0.0978216 0.273053
30 3 0.155408 0.0849928 0.285517
405 4 0.174963 0.0903107 0.287189
605 4 0.206668 0.101857 0.251551
591 4 0.233905 0.0934975 0.310448
403 2 0.194645 0.0932458 0.302328
604 2 0.230538 0.0982738 0.258075
732 4 0.319563 0.11557 0.260399
2849 4 0.303416 0.0873093 0.317378
589 2 0.258454 0.0889534 0.311815
606 4 0.254408 0.0946907 0.264598
731 4 0.271879 0.100686 0.25807
590 4 0.283003 0.0844093 0.313183
730 2 0.295721 0.108128 0.259235
2848 2 0.322947 0.102345 0.321579
178 3 0.409769 0.163567 0.242624
2850 4 0.342478 0.11738 0.325781
3572 4 0.35899 0.108656 0.317011
1190 4 0.428898 0.133472 0.246773
1189 2 0.451809 0.130904 0.256452
1191 4 0.47472 0.128336 0.26613
650 4 0.48851 0.141811 0.258945
2788 2 0.0203791 0.174038 0.264656
2789 4 0.0442188 0.180861 0.261445
2673 4 0.0468466 0.176638 0.240152
511 2 0.351873 0.191734 0.253765
513 4 0.333181 0.182022 0.267237
687 4 0.395799 0.188478 0.31288
686 4 0.419561 0.174671 0.2711
685 2 0.40768 0.181574 0.29199
285 4 0.422656 0.177278 0.251491
1198 2 0.470193 0.243803 0.271079
402 4 0.469143 0.184846 0.302681
400 2 0.48255 0.192259 0.322441
1200 4 0.480915 0.252957 0.291729
2681 4 0.0224099 0.32191 0.294164
344 4 0.0167007 0.31754 0.314737
2499 4 0.216126 0.311249 0.312761
2567 4 0.234298 0.319373 0.310302
2497 2 0.196357 0.311427 0.328068
2498 4 0.176588 0.311605 0.343376
2566 2 0.257511 0.319066 0.301014
2568 4 0.280723 0.318759 0.291727
290 4 0.300864 0.317607 0.289103
289 2 0.325346 0.312572 0.288446
291 4 0.349829 0.307537 0.287789
338 4 0.368041 0.317537 0.293218
337 2 0.392281 0.321934 0.297488
339 4 0.416522 0.326332 0.301759
1032 4 0.396094 0.310333 0.331
510 4 0.48428 0.257989 0.312301
118 3 0.470177 0.266582 0.323271
2540 4 0.0113263 0.375316 0.265114
2680 2 0.0201357 0.339584 0.276625
2682 4 0.0178614 0.357258 0.259085
5 3 0.401034 0.402881 0.291434
1573 2 0.364638 0.408337 0.312502
2556 4 0.432219 0.336415 0.293177
3 3 0.430077 0.390429 0.311905
2873 4 0.442033 0.408231 0.259869
1 1 0.423291 0.405413 0.29554
2 3 0.435084 0.401195 0.276245
2554 2 0.454516 0.347636 0.294627
2555 4 0.476813 0.358858 0.296078
2852 4 0.496801 0.36322 0.29238
569 4 0.464021 0.375609 0.327596
1758 4 0.0995231 0.444643 0.337004
375 4 0.22682 0.418914 0.294154
373 2 0.236666 0.427976 0.273032
374 4 0.246512 0.437038 0.251911
4368 4 0.287733 0.507613 0.250919
1575 4 0.383346 0.408782 0.295919
1382 4 0.34705 0.488764 0.270472
4 3 0.427654 0.427146 0.302398
4543 2 0.00636474 0.994291 0.352947
4544 4 0.0306535 0.998998 0.356565
3798 4 0.00383452 0.0395155 0.391529
545 4 0.0299913 0.00979731 0.339356
544 2 0.044981 0.0280142 0.331071
3796 2 0.0281454 0.0373519 0.3861
3797 4 0.0524564 0.0351882 0.380672
2900 4 0.0624792 0.0300248 0.397406
682 2 0.348857 0.0505581 0.411849
684 4 0.354764 0.0740673 0.417983
683 4 0.34295 0.0270488 0.405715
162 3 0.4085 0.0682792 0.397966
2715 4 0.372976 0.0806114 0.41197
1061 4 0.414801 0.996208 0.408315
1060 2 0.413697 0.0117018 0.388721
2870 4 0.494403 0.0454823 0.331282
2869 2 0.475682 0.0324843 0.341566
165 3 0.422367 0.0585516 0.36471
161 1 0.424151 0.0733841 0.381899
1062 4 0.412594 0.0271957 0.369128
2871 4 0.456961 0.0194863 0.35185
164 3 0.445304 0.0720537 0.391342
2646 4 0.457994 0.0707255 0.406343
2815 2 0.320027 0.113052 0.411965
3571 2 0.376385 0.117484 0.332652
3573 4 0.393781 0.126312 0.348293
2816 4 0.340041 0.125922 0.404285
163 3 0.420251 0.0949247 0.374205
470 4 0.018147 0.237381 0.352396
2699 4 0.185509 0.252483 0.340499
3461 4 0.340392 0.247199 0.410226
3460 2 0.350828 0.225655 0.403008
3462 4 0.361265 0.204111 0.395789
726 4 0.396392 0.228775 0.365246
3497 4 0.381838 0.205188 0.391651
724 2 0.414896 0.243502 0.357129
3496 2 0.40415 0.204391 0.402907
401 4 0.495958 0.199671 0.342202
3080 4 0.486105 0.204185 0.41945
3498 4 0.426463 0.203595 0.414163
343 2 0.999494 0.314024 0.332535
3631 2 0.0549076 0.289702 0.404306
3632 4 0.0712783 0.277409 0.389952
3633 4 0.0385369 0.301996 0.418661
2451 4 0.0825729 0.264794 0.381976
2700 4 0.135858 0.258431 0.340808
2698 2 0.160684 0.255457 0.340653
2449 2 0.100914 0.258141 0.366338
2450 4 0.119254 0.251489 0.350701
453 4 0.111959 0.336722 0.382759
451 2 0.100215 0.324503 0.401143
2830 2 0.140983 0.32386 0.357548
2832 4 0.157448 0.307781 0.347772
479 4 0.20453 0.251759 0.349471
478 2 0.226899 0.262917 0.348912
480 4 0.249268 0.274076 0.348353
1394 4 0.268257 0.26846 0.345059
1393 2 0.292555 0.269951 0.339349
1395 4 0.316852 0.271441 0.333639
2786 4 0.336387 0.272968 0.333957
411 4 0.321236 0.253192 0.410556
409 2 0.321076 0.277874 0.406557
410 4 0.320916 0.302556 0.402558
2785 2 0.357068 0.286774 0.331336
2787 4 0.377749 0.300581 0.328715
1030 2 0.413843 0.29396 0.33749
372 4 0.496916 0.277253 0.37069
725 4 0.4334 0.258229 0.349011
1031 4 0.431591 0.277588 0.34398
117 3 0.449859 0.287947 0.346581
120 3 0.451993 0.251144 0.352403
116 1 0.463501 0.26947 0.345305
119 3 0.48205 0.272894 0.358818
3640 2 0.0476797 0.385922 0.404165
3641 4 0.0503815 0.361124 0.402456
2712 4 0.0364197 0.347925 0.399169
2710 2 0.0119786 0.344148 0.402849
2831 4 0.124518 0.339938 0.367324
1034 4 0.285308 0.338683 0.362157
1033 2 0.310063 0.33781 0.358746
2925 4 0.318609 0.357038 0.419143
2923 2 0.294614 0.350264 0.421026
1035 4 0.334817 0.336938 0.355334
1574 4 0.34593 0.407892 0.329086
585 4 0.353689 0.329241 0.35733
583 2 0.376328 0.339657 0.359368
584 4 0.398968 0.350074 0.361406
893 4 0.411661 0.360127 0.349047
892 2 0.433696 0.371619 0.3463
894 4 0.455732 0.383111 0.343553
568 2 0.484599 0.389813 0.327616
1756 2 0.0774964 0.433929 0.342026
3601 2 0.0137403 0.417134 0.337312
3602 4 0.0372922 0.425525 0.337637
4323 4 0.0411585 0.474524 0.370399
4321 2 0.0216488 0.46585 0.383411
447 4 0.0590275 0.472554 0.362903
1757 4 0.0554697 0.423214 0.347049
445 2 0.0801409 0.476386 0.375738
2826 4 0.112998 0.477124 0.403861
446 4 0.101254 0.480217 0.388573
2532 4 0.407236 0.499571 0.36667
548 4 0.500005 0.454745 0.364127
1182 4 0.0017305 0.066065 0.465604
2899 2 0.0785342 0.0223355 0.414963
3174 4 0.1151 0.0110274 0.434231
2901 4 0.0945892 0.0146462 0.432521
2644 2 0.479805 0.065727 0.417499
3745 2 0.452391 0.996641 0.482719
3747 4 0.428537 0.00408702 0.481867
843 4 0.41932 0.00632036 0.463625
765 4 0.0328348 0.155248 0.48788
2684 4 0.0516267 0.150946 0.491712
2683 2 0.0740154 0.159757 0.484908
2685 4 0.0964041 0.168568 0.478104
938 4 0.222232 0.170055 0.505492
2817 4 0.300012 0.100182 0.419645
2713 2 0.383236 0.0912543 0.432136
2502 4 0.41235 0.110031 0.457276
2714 4 0.393495 0.101897 0.452302
2500 2 0.433289 0.119547 0.447468
2501 4 0.454228 0.129063 0.43766
3032 4 0.463794 0.143469 0.448082
3031 2 0.484767 0.149961 0.460046
763 2 0.0123787 0.169605 0.488652
2586 4 0.112611 0.171712 0.489505
2584 2 0.137076 0.176479 0.48752
937 2 0.198595 0.177504 0.502184
939 4 0.174958 0.184954 0.498876
3079 2 0.461961 0.209734 0.422836
3081 4 0.437817 0.215284 0.426221
365 4 0.0234261 0.295288 0.428423
452 4 0.0884712 0.312285 0.419527
305 4 0.359595 0.282686 0.48601
304 2 0.377722 0.266704 0.479595
3060 4 0.411152 0.255789 0.464001
306 4 0.39585 0.250722 0.473181
3059 4 0.459374 0.266858 0.471266
311 4 0.478094 0.260613 0.467303
310 2 0.500501 0.249711 0.465234
3058 2 0.435263 0.261324 0.467634
3642 4 0.0449779 0.410721 0.405873
488 4 0.218487 0.367032 0.459316
487 2 0.238195 0.355815 0.448782
2924 4 0.27062 0.34349 0.422909
489 4 0.257902 0.344598 0.438247
3421 2 0.0236395 0.424336 0.438537
1697 4 0.0158502 0.421177 0.477648
1696 2 0.0340078 0.416835 0.49428
4250 4 0.0576501 0.489217 0.493153
3423 4 0.028507 0.416863 0.415178
3422 4 0.018772 0.431808 0.461897
3974 4 0.0399045 0.48626 0.485056
2825 4 0.138778 0.480284 0.446595
2824 2 0.125888 0.478704 0.425228
1488 4 0.195583 0.480932 0.49966
1419 4 0.285324 0.498683 0.436427
2195 4 0.0471338 0.999936 0.525551
2553 4 0.0580945 0.00663813 0.507836
4324 2 0.0549608 0.0755039 0.574222
4325 4 0.0792976 0.0754718 0.579958
2194 2 0.0221589 0.000556508 0.526579
2551 2 0.075137 0.0203531 0.519946
4326 4 0.0306239 0.0755361 0.568487
2552 4 0.0921795 0.0340681 0.532056
760 2 0.102791 0.0483987 0.562524
762 4 0.109295 0.0346984 0.542644
761 4 0.0962878 0.062099 0.582403
2585 4 0.16154 0.181246 0.485535
407 4 0.131395 0.325077 0.548283
803 4 0.130748 0.329846 0.527782
802 2 0.152873 0.318538 0.524988
978 4 0.144171 0.305684 0.571189
804 4 0.174997 0.307229 0.522194
1238 4 0.194314 0.311489 0.525494
1237 2 0.21622 0.301346 0.532007
1239 4 0.238127 0.291203 0.53852
891 4 0.253298 0.304408 0.542198
889 2 0.273609 0.303668 0.556761
890 4 0.29392 0.302928 0.571325
82 3 0.303964 0.287671 0.573858
83 3 0.339701 0.280094 0.582693
3420 4 0.343072 0.299646 0.585835
3418 2 0.358676 0.313602 0.572161
3419 4 0.374279 0.327558 0.558487
1698 4 0.0521654 0.412492 0.510912
792 4 0.0260085 0.413627 0.559234
408 4 0.0938762 0.355765 0.560583
406 2 0.112636 0.340421 0.554433
3453 4 0.114853 0.409984 0.535489
3464 4 0.1255 0.412394 0.552801
3451 2 0.0911527 0.414628 0.529014
4215 4 0.24607 0.415194 0.54598
4213 2 0.267936 0.40309 0.546742
4214 4 0.289801 0.390986 0.547504
538 2 0.326465 0.409805 0.540166
540 4 0.302811 0.406949 0.54775
539 4 0.350119 0.412662 0.532582
3369 4 0.358075 0.39767 0.544161
3367 2 0.380779 0.403795 0.552658
3368 4 0.403484 0.40992 0.561155
1281 4 0.422026 0.408326 0.554974
1279 2 0.446417 0.407861 0.549493
1280 4 0.470808 0.407395 0.544012
878 4 0.489954 0.406212 0.538093
336 4 0.0015589 0.489181 0.572794
790 2 0.0366873 0.436234 0.559512
1137 4 0.0532865 0.476188 0.554101
3452 4 0.0674525 0.419271 0.52254
3973 2 0.0286766 0.4766 0.5052
1135 2 0.0740115 0.487449 0.562398
3975 4 0.0174487 0.46694 0.525345
1136 4 0.0947365 0.49871 0.570695
3463 2 0.132379 0.433615 0.564095
3465 4 0.139259 0.454836 0.575389
797 4 0.145382 0.47193 0.582572
796 2 0.124277 0.484903 0.585956
3360 4 0.0160751 0.069996 0.58214
4116 4 0.998093 0.0612442 0.653699
3292 2 0.0354702 0.07729 0.663315
3358 2 0.00570021 0.0592742 0.602204
2283 4 0.337681 0.0338394 0.659987
3105 4 0.31798 0.0339314 0.663175
2281 2 0.362155 0.0382464 0.657391
2282 4 0.38663 0.0426534 0.654795
3083 4 0.397441 0.0304677 0.664467
3082 2 0.42075 0.0258234 0.656703
3084 4 0.444059 0.0211791 0.648939
269 4 0.462535 0.023698 0.661761
268 2 0.487139 0.0206114 0.658558
3111 4 0.00593869 0.108417 0.590889
145 3 0.0186403 0.126666 0.665053
141 1 0.019974 0.149392 0.665697
3293 4 0.0551067 0.0927649 0.663666
3021 4 0.069453 0.0942688 0.647749
3019 2 0.0720401 0.117925 0.640076
1107 4 0.0782616 0.160512 0.627909
3020 4 0.0746272 0.141581 0.632403
142 3 0.0287752 0.15703 0.645864
3385 2 0.0269679 0.235428 0.625838
3387 4 0.0309641 0.21154 0.632048
1106 4 0.0432873 0.196028 0.631919
1105 2 0.0607745 0.17827 0.629914
1131 4 0.499533 0.186005 0.593222
3386 4 0.0229718 0.259316 0.619627
2243 4 0.0307797 0.274827 0.611024
2242 2 0.0543896 0.280573 0.605128
3093 4 0.022031 0.284391 0.652348
3240 4 0.0016128 0.285112 0.653278
3091 2 0.042452 0.292132 0.664524
2244 4 0.0779994 0.286319 0.599232
806 4 0.09418 0.277911 0.60562
805 2 0.111234 0.292573 0.594693
807 4 0.128287 0.307234 0.583765
976 2 0.16434 0.312556 0.584272
977 4 0.184509 0.319429 0.597355
85 3 0.312181 0.256215 0.592185
81 1 0.317667 0.27818 0.58971
84 3 0.314757 0.289383 0.60982
906 4 0.330142 0.290627 0.623126
904 2 0.335738 0.314838 0.625899
3113 4 0.152249 0.354523 0.656235
3114 4 0.19722 0.367935 0.638958
997 2 0.22762 0.368666 0.660133
999 4 0.203127 0.364218 0.657789
3112 2 0.174735 0.361229 0.647597
998 4 0.252114 0.373114 0.662477
1041 4 0.260455 0.380014 0.645567
1039 2 0.278001 0.389963 0.63079
3381 4 0.314342 0.392692 0.612043
1040 4 0.295547 0.399912 0.616013
3379 2 0.328887 0.372357 0.612333
3380 4 0.343432 0.352022 0.612623
905 4 0.341334 0.339048 0.628673
791 4 0.047366 0.458841 0.559789
2061 4 0.290874 0.422075 0.655966
772 2 0.439373 0.47182 0.588075
1205 4 0.479325 0.457299 0.583124
773 4 0.460731 0.462237 0.579291
774 4 0.418015 0.481403 0.59686
3294 4 0.0158338 0.0618151 0.662963
2307 4 0.0120582 0.0753624 0.721499
3612 4 0.150036 0.0129976 0.672893
888 4 0.156682 0.0428399 0.741378
3610 2 0.17401 0.0200915 0.672515
3611 4 0.197983 0.0271853 0.672136
4503 4 0.215184 0.023593 0.683286
4501 2 0.238959 0.0292637 0.688558
3438 4 0.2007 0.000886352 0.743428
3489 4 0.214644 0.00497943 0.758336
4502 4 0.262734 0.0349343 0.69383
3104 4 0.271051 0.0247034 0.677778
3103 2 0.294516 0.0293174 0.670477
1216 2 0.29728 0.00862097 0.745953
1218 4 0.321746 0.0135185 0.747562
1999 2 0.351679 0.00556179 0.757052
3061 2 0.497578 0.0883645 0.704774
3063 4 0.474894 0.0779096 0.703625
143 3 0.0338221 0.15602 0.683096
4443 4 0.0436644 0.131271 0.738856
4441 2 0.0333997 0.111334 0.727795
4442 4 0.0231349 0.0913975 0.716734
1208 4 0.0500326 0.148188 0.730393
144 3 0.998814 0.158487 0.66851
954 4 0.0626806 0.0932485 0.683668
2978 4 0.0536438 0.151769 0.686206
952 2 0.0867192 0.0899945 0.689729
2977 2 0.0768721 0.158569 0.692481
1207 2 0.0358187 0.164511 0.742911
1077 4 0.113869 0.10262 0.706926
953 4 0.110758 0.0867405 0.69579
1075 2 0.138738 0.100333 0.708149
1076 4 0.163607 0.0980457 0.709372
2979 4 0.1001 0.16537 0.698755
1086 4 0.116181 0.157054 0.690276
896 4 0.208653 0.141832 0.692587
1013 4 0.239533 0.144636 0.730139
384 4 0.0727599 0.239552 0.723856
382 2 0.095486 0.239099 0.71344
383 4 0.118212 0.238645 0.703024
2972 4 0.134578 0.243341 0.713412
2971 2 0.157576 0.242423 0.703644
1084 2 0.137112 0.17073 0.690474
1085 4 0.158043 0.184407 0.690672
2973 4 0.180575 0.241504 0.693876
3252 4 0.198885 0.238081 0.700729
897 4 0.174765 0.17747 0.683516
895 2 0.191709 0.159651 0.688051
3250 2 0.22037 0.250425 0.697375
3251 4 0.241854 0.262768 0.694022
3357 4 0.481203 0.207633 0.7361
3037 2 0.488283 0.20109 0.70188
3039 4 0.473669 0.212979 0.71832
3038 4 0.502897 0.189201 0.685441
3092 4 0.0628729 0.299873 0.6767
1299 4 0.0576153 0.311771 0.718613
1297 2 0.0739143 0.325895 0.705962
3434 4 0.128961 0.278085 0.678435
3435 4 0.0828062 0.296338 0.672328
3433 2 0.105883 0.287211 0.675382
738 4 0.261685 0.257638 0.690863
736 2 0.283158 0.263045 0.702477
2981 4 0.306615 0.283374 0.729131
737 4 0.30463 0.268451 0.714091
2980 2 0.324882 0.297211 0.739132
2982 4 0.34315 0.311048 0.749132
839 4 0.36203 0.304153 0.74945
1298 4 0.0902132 0.340018 0.693311
1068 4 0.107429 0.341946 0.703044
1066 2 0.12586 0.350631 0.68855
885 4 0.145966 0.400718 0.690414
1067 4 0.144291 0.359317 0.674057
4524 4 0.163729 0.412029 0.685957
4209 4 0.255598 0.403847 0.724531
1277 4 0.00489444 0.492932 0.695734
820 2 0.0367873 0.490553 0.706417
822 4 0.0508546 0.48164 0.725068
1235 4 0.0628208 0.464897 0.719264
883 2 0.13244 0.418124 0.702214
884 4 0.118914 0.43553 0.714015
1234 2 0.083321 0.453115 0.711133
1236 4 0.103821 0.441334 0.703002
4444 2 0.252026 0.431864 0.667336
4522 2 0.185456 0.422192 0.678899
4523 4 0.207183 0.432356 0.671841
2288 4 0.216634 0.479837 0.751659
4446 4 0.227129 0.434144 0.666976
4445 4 0.276922 0.429584 0.667695
4207 2 0.255935 0.422293 0.741408
2059 2 0.306491 0.427769 0.674644
2060 4 0.322108 0.433464 0.693321
1168 2 0.335616 0.440227 0.730206
1170 4 0.336455 0.430067 0.707375
817 2 0.111822 0.0205434 0.799771
819 4 0.110693 0.0376573 0.781577
887 4 0.123775 0.0527794 0.777697
886 2 0.140229 0.0478096 0.759538
818 4 0.112951 0.00342956 0.817965
533 4 0.288228 0.0594598 0.80833
3554 4 0.368176 0.078396 0.79426
3553 2 0.391927 0.0721055 0.78962
3555 4 0.415677 0.0658151 0.78498
2000 4 0.374404 0.0154737 0.760294
4500 4 0.374746 0.0101742 0.811967
4498 2 0.395833 0.00744555 0.825122
3305 4 0.433115 0.0711125 0.77548
3304 2 0.454154 0.0845582 0.776807
1691 4 0.0124391 0.174894 0.7716
1014 4 0.249646 0.11361 0.768031
1012 2 0.24459 0.129123 0.749085
532 2 0.300096 0.0808125 0.803001
1606 2 0.310313 0.13762 0.832137
534 4 0.311964 0.102165 0.797671
3282 4 0.330745 0.107948 0.797351
1607 4 0.323838 0.143067 0.811825
3280 2 0.353876 0.115604 0.791735
3281 4 0.377007 0.12326 0.786119
4128 4 0.392087 0.129056 0.79617
4126 2 0.41491 0.131307 0.786208
3441 4 0.3895 0.178042 0.805421
3300 4 0.488463 0.167457 0.767539
4127 4 0.437733 0.133558 0.776246
3299 4 0.45457 0.13608 0.786709
3298 2 0.471517 0.151768 0.777124
3306 4 0.475193 0.098004 0.778134
3077 4 0.492474 0.109872 0.772341
3041 4 0.493404 0.106681 0.843268
1209 4 0.0216049 0.180834 0.755429
3151 2 0.0565222 0.176142 0.814182
3152 4 0.0331659 0.17909 0.822607
779 4 0.0993717 0.175167 0.810979
3153 4 0.0798784 0.173194 0.805757
778 2 0.118978 0.181632 0.825086
1618 2 0.178648 0.204352 0.826927
1620 4 0.201664 0.211452 0.820218
58 3 0.219382 0.216366 0.810466
56 1 0.239403 0.224341 0.819066
59 3 0.237701 0.247091 0.823304
60 3 0.256304 0.220429 0.804312
747 4 0.275718 0.222145 0.797733
745 2 0.296979 0.233506 0.791094
746 4 0.318241 0.244867 0.784456
483 4 0.33424 0.248982 0.772962
3439 2 0.37322 0.186252 0.822531
481 2 0.355047 0.235511 0.776244
2628 4 0.405088 0.190404 0.809019
482 4 0.375855 0.222039 0.779526
924 4 0.393065 0.231726 0.773502
922 2 0.41706 0.235792 0.767766
3355 2 0.470074 0.205039 0.75834
2626 2 0.425582 0.188787 0.794787
2627 4 0.446076 0.187171 0.780554
3356 4 0.458945 0.202446 0.780579
923 4 0.441055 0.239858 0.762031
3349 2 0.467965 0.24795 0.795191
3351 4 0.484272 0.247014 0.814123
3320 4 0.331746 0.328713 0.803559
1133 4 0.324342 0.320923 0.820966
838 2 0.369161 0.301186 0.773231
3035 4 0.36324 0.286583 0.808301
840 4 0.376293 0.29822 0.797012
155 3 0.411701 0.323398 0.803476
151 1 0.415496 0.341979 0.816085