ITEM: TIMESTEP
264500
ITEM: NUMBER OF ATOMS
4590
ITEM: BOX BOUNDS xy xz yz pp pp pp
-9.9985700000000008e+00 1.5797740600000012e+01 5.7991706000000107e+00
-9.9985700000000008e+00 9.9985700000000008e+00 0.0000000000000000e+00
-9.9985700000000008e+00 9.9985700000000008e+00 0.0000000000000000e+00
ITEM: ATOMS id type xs ys zs
2886 4 0.00924259 0.0821803 0.0237784
2688 4 0.0301177 0.0808169 0.0243007
1660 2 0.154027 0.0193618 0.0779822
1661 4 0.178075 0.0118183 0.0684737
1475 4 0.191443 0.0158042 0.0808599
1651 2 0.421147 0.0333517 0.073378
2468 4 0.438807 0.99846 0.00649685
2467 2 0.444953 0.0020065 0.0301849
1652 4 0.443164 0.0251608 0.0602522
2469 4 0.451099 0.00555287 0.053873
2686 2 0.0510555 0.0892593 0.0216539
2441 4 0.0160118 0.144153 0.0168732
1253 4 0.0345697 0.132923 0.0236701
1252 2 0.0462922 0.146485 0.0376762
2687 4 0.0719932 0.0977016 0.0190072
2708 4 0.0897687 0.104342 0.015157
2707 2 0.112529 0.109241 0.0192104
1254 4 0.0580148 0.160047 0.0516823
2709 4 0.13529 0.114141 0.0232639
2670 4 0.154052 0.115617 0.0284082
2668 2 0.174142 0.125446 0.0268742
2669 4 0.194231 0.135274 0.0253402
2883 4 0.217373 0.13157 0.0229774
25 3 0.232171 0.140091 0.0311333
21 1 0.245862 0.153984 0.034549
22 3 0.258419 0.154787 0.0154462
2881 2 0.227299 0.12003 0.00179477
23 3 0.261236 0.146013 0.0519918
2894 4 0.277553 0.151971 0.0583046
2893 2 0.297059 0.159097 0.0687467
3243 4 0.401891 0.0982921 0.0440508
3241 2 0.421613 0.105846 0.0346729
3242 4 0.441335 0.1134 0.025295
3392 4 0.450805 0.121217 0.0387121
3391 2 0.470615 0.130852 0.0340842
3393 4 0.490424 0.140488 0.0294564
2976 4 0.196534 0.212439 0.0806591
2974 2 0.217221 0.197778 0.0688227
2975 4 0.237908 0.183116 0.0569864
24 3 0.232119 0.175378 0.0394339
2895 4 0.316565 0.166222 0.0791887
281 4 0.438001 0.188582 0.0702369
280 2 0.442438 0.188926 0.0456507
282 4 0.446874 0.189271 0.0210646
359 4 0.440867 0.187302 0.00207603
2748 4 0.0177661 0.312285 0.0670399
1121 4 0.0353486 0.321573 0.0653334
1120 2 0.0566399 0.329454 0.0680189
2840 4 0.0823219 0.313851 0.0124319
2839 2 0.09905 0.315665 0.0304369
2841 4 0.115778 0.31748 0.0484418
309 4 0.132397 0.308086 0.0366184
307 2 0.152122 0.305637 0.0526691
308 4 0.171847 0.303189 0.0687198
2650 2 0.207545 0.313701 0.074269
2651 4 0.22424 0.327083 0.0694996
2652 4 0.19085 0.300318 0.0790383
448 2 0.4251 0.264724 0.00793761
449 4 0.447835 0.265902 0.0174911
915 4 0.468568 0.25832 0.0243589
913 2 0.484485 0.268689 0.0369897
1149 4 0.0412256 0.369948 0.00405334
1147 2 0.0654152 0.371717 0.000612389
1122 4 0.0779313 0.337335 0.0707043
423 4 0.106897 0.380349 0.00289609
1071 4 0.0966863 0.341724 0.0749393
1069 2 0.117725 0.350069 0.0772359
1070 4 0.138763 0.358413 0.0795325
495 4 0.212335 0.413976 0.0278458
596 4 0.210596 0.395762 0.0810411
493 2 0.237453 0.41132 0.0228156
494 4 0.262571 0.408664 0.0177854
526 2 0.254022 0.339906 0.0668716
528 4 0.274175 0.341686 0.0529153
1079 4 0.276319 0.418603 0.0245529
595 2 0.230181 0.406033 0.0777946
527 4 0.233869 0.338126 0.0808279
1078 2 0.292439 0.397489 0.0156402
1080 4 0.308558 0.376375 0.00672756
4187 4 0.0300436 0.458711 0.0161507
4186 2 0.0531721 0.445805 0.00705129
2805 4 0.0295645 0.490372 0.0600981
3448 2 0.161825 0.433699 0.0771192
3449 4 0.176249 0.44891 0.0708724
3450 4 0.1474 0.418488 0.0833661
597 4 0.249767 0.416305 0.0745481
2582 4 0.197475 0.446121 0.0688443
2912 4 0.192787 0.469868 0.00874163
2581 2 0.201525 0.453569 0.0457978
1104 4 0.268267 0.420784 0.069901
2583 4 0.205576 0.461017 0.0227512
1102 2 0.289483 0.428958 0.0713359
1103 4 0.310699 0.437132 0.0727708
2772 4 0.325697 0.444984 0.0668695
2770 2 0.343022 0.457427 0.0611994
2771 4 0.360347 0.469871 0.0555293
2522 4 0.376116 0.473621 0.0442695
2521 2 0.393678 0.47606 0.0273734
2523 4 0.411239 0.478499 0.0104773
1662 4 0.12998 0.0269053 0.0874907
1474 2 0.207327 0.00517779 0.0995238
2179 2 0.376119 0.0461955 0.164683
2180 4 0.399748 0.0489398 0.160094
1749 4 0.416553 0.0567485 0.161374
1653 4 0.39913 0.0415426 0.0865037
1747 2 0.441417 0.0538042 0.15505
1748 4 0.466282 0.0508599 0.148725
743 4 0.481708 0.0575909 0.15218
742 2 0.492983 0.0673841 0.134013
723 4 0.995944 0.112745 0.158563
721 2 0.00742638 0.129811 0.150565
722 4 0.0189086 0.146877 0.142567
759 4 0.0280736 0.162184 0.141588
2781 4 0.358408 0.0874753 0.155209
2599 2 0.323841 0.163472 0.1198
2600 4 0.320312 0.156665 0.0963785
3809 4 0.367848 0.102254 0.1518
2601 4 0.32737 0.170278 0.143222
3808 2 0.372357 0.119343 0.136192
3810 4 0.376866 0.136431 0.120585
757 2 0.0178856 0.169322 0.119042
758 4 0.0076976 0.176461 0.0964958
692 4 0.280504 0.228735 0.105399
378 4 0.324468 0.168851 0.162839
691 2 0.305321 0.229345 0.105049
693 4 0.330138 0.229954 0.104699
353 4 0.348656 0.226816 0.113509
352 2 0.369813 0.235077 0.112007
354 4 0.390969 0.243338 0.110505
2877 4 0.405543 0.226651 0.106211
2876 4 0.44722 0.193516 0.0868616
2875 2 0.426381 0.210083 0.0965363
2566 2 0.00131014 0.281159 0.149126
108 3 0.136184 0.302911 0.0924361
109 3 0.141933 0.270001 0.111063
106 1 0.146943 0.290459 0.110664
110 3 0.139525 0.301849 0.12995
107 3 0.170637 0.286757 0.10873
2716 2 0.239156 0.285749 0.156229
2717 4 0.256574 0.292046 0.14156
2616 4 0.269076 0.294436 0.127851
3632 4 0.278395 0.327072 0.160404
2614 2 0.294954 0.289862 0.129058
2471 4 0.295567 0.32636 0.147566
2615 4 0.320833 0.285289 0.130264
837 4 0.336591 0.294498 0.128541
835 2 0.359618 0.298245 0.123093
836 4 0.382645 0.301992 0.117644
3141 4 0.398424 0.308591 0.108911
3139 2 0.418614 0.317331 0.10322
3140 4 0.438804 0.326072 0.0975296
2514 4 0.00689003 0.379232 0.104759
2445 4 0.0259729 0.380525 0.102555
2443 2 0.0492402 0.385072 0.102387
2444 4 0.0725075 0.38962 0.102219
767 4 0.0899992 0.394693 0.0966882
362 4 0.0845284 0.407215 0.162786
766 2 0.111836 0.401692 0.094126
1549 2 0.173756 0.378397 0.0837435
1551 4 0.15574 0.366011 0.0859464
1550 4 0.191773 0.390783 0.0815406
768 4 0.133673 0.408692 0.0915639
416 4 0.140203 0.411991 0.146468
415 2 0.16486 0.408017 0.154015
417 4 0.189516 0.404043 0.161561
729 4 0.206088 0.409086 0.168852
608 4 0.249837 0.345874 0.156406
607 2 0.246891 0.363242 0.138542
609 4 0.243944 0.380611 0.120677
2470 2 0.304696 0.34233 0.13412
2472 4 0.313824 0.3583 0.120674
2094 4 0.325823 0.40245 0.133918
2571 4 0.332845 0.363603 0.118227
2092 2 0.301485 0.414815 0.127466
2569 2 0.358807 0.357711 0.11674
2919 4 0.337257 0.415494 0.132354
621 4 0.451784 0.337242 0.0929307
2570 4 0.384769 0.35182 0.115252
2969 4 0.386143 0.351631 0.134866
2968 2 0.400574 0.352384 0.155115
619 2 0.475679 0.340378 0.0926665
620 4 0.499575 0.343514 0.0924024
1569 4 0.000882459 0.434856 0.116805
3404 4 0.0112201 0.448928 0.111954
3403 2 0.0368141 0.439495 0.115653
361 2 0.103151 0.413945 0.150273
3405 4 0.0624082 0.430061 0.119351
1466 4 0.0713925 0.444566 0.115295
1465 2 0.091042 0.45479 0.112251
1467 4 0.110692 0.465013 0.109208
363 4 0.121774 0.420675 0.13776
4211 4 0.125115 0.476223 0.108849
4210 2 0.147848 0.481739 0.107217
4212 4 0.170581 0.487256 0.105586
3636 4 0.188647 0.475245 0.112336
3634 2 0.206097 0.487509 0.106549
3635 4 0.223547 0.499774 0.100763
2093 4 0.277147 0.42718 0.121013
648 4 0.270666 0.446404 0.115532
646 2 0.27455 0.469101 0.116242
647 4 0.278434 0.491797 0.116952
2917 2 0.351038 0.431706 0.127796
2918 4 0.364819 0.447918 0.123238
2732 4 0.00216317 0.0455223 0.216808
2731 2 0.0248256 0.0499279 0.211094
2733 4 0.0474879 0.0543336 0.20538
393 4 0.222429 0.0086376 0.242984
391 2 0.244726 0.0148572 0.245361
248 4 0.244573 0.0252452 0.192136
247 2 0.266944 0.0131225 0.18106
249 4 0.289314 0.000999806 0.169983
392 4 0.267023 0.0210769 0.247738
405 4 0.296116 0.019062 0.166113
404 4 0.337953 0.0353337 0.174395
2181 4 0.352489 0.0434512 0.169272
403 2 0.317034 0.0271979 0.170254
730 2 0.036102 0.114887 0.224401
731 4 0.0188438 0.11576 0.242711
732 4 0.0533602 0.114014 0.206092
581 4 0.0679661 0.119766 0.218079
580 2 0.0892159 0.127191 0.222807
582 4 0.110466 0.134616 0.227536
750 4 0.128659 0.137488 0.225217
748 2 0.126134 0.159658 0.236099
2516 4 0.19979 0.142822 0.250478
333 4 0.208944 0.146487 0.233486
331 2 0.211748 0.157111 0.21163
332 4 0.214551 0.167735 0.189775
2780 4 0.319099 0.112662 0.184226
2779 2 0.338754 0.100069 0.169718
579 4 0.018476 0.182014 0.233789
749 4 0.123609 0.181828 0.246982
459 4 0.113339 0.199954 0.243521
630 4 0.229508 0.175688 0.188752
628 2 0.250028 0.18495 0.187809
629 4 0.270548 0.194212 0.186867
377 4 0.288838 0.194114 0.195418
376 2 0.306653 0.181483 0.179129
2568 4 0.00829959 0.269893 0.171135
299 4 0.156412 0.271375 0.243217
2718 4 0.221738 0.279452 0.170899
1220 4 0.214721 0.250266 0.209456
1219 2 0.237341 0.255887 0.211808
300 4 0.205824 0.255531 0.22769
298 2 0.181118 0.263453 0.235453
2451 4 0.196217 0.329972 0.227122
2496 4 0.201125 0.312979 0.217675
2494 2 0.22448 0.310714 0.207435
2449 2 0.187361 0.326527 0.249842
1221 4 0.259961 0.261507 0.21416
2495 4 0.247835 0.308449 0.197195
477 4 0.276657 0.263429 0.202563
3631 2 0.268393 0.324008 0.182702
3633 4 0.258392 0.320944 0.205
2954 4 0.297998 0.313936 0.243149
475 2 0.296924 0.271797 0.196227
476 4 0.317192 0.280165 0.189892
755 4 0.334553 0.283193 0.197795
754 2 0.354581 0.290754 0.189179
756 4 0.37461 0.298315 0.180563
2799 4 0.393947 0.290557 0.171832
2798 4 0.442497 0.29479 0.169594
1056 4 0.463442 0.285085 0.168223
2797 2 0.418222 0.292673 0.170713
1054 2 0.484134 0.294095 0.16727
519 4 0.0683451 0.366533 0.197155
517 2 0.0943177 0.361218 0.197345
518 4 0.12029 0.355903 0.197535
734 4 0.126705 0.368562 0.209217
733 2 0.15141 0.369369 0.20761
735 4 0.176114 0.370176 0.206003
290 4 0.19573 0.365102 0.197078
289 2 0.215217 0.368747 0.210856
291 4 0.234704 0.372391 0.224635
2538 4 0.25965 0.398507 0.203376
727 2 0.231081 0.403355 0.17578
728 4 0.256074 0.397624 0.182708
2536 2 0.285247 0.394828 0.206528
2537 4 0.310843 0.391149 0.209679
714 4 0.327559 0.394956 0.215269
712 2 0.347579 0.404936 0.214524
2970 4 0.415004 0.353137 0.175364
713 4 0.367598 0.414916 0.21378
4008 4 0.011003 0.461289 0.232271
395 4 0.0892297 0.458303 0.243624
394 2 0.111122 0.453966 0.230185
396 4 0.133013 0.449629 0.216747
3920 4 0.148514 0.445802 0.20471
3919 2 0.169022 0.454779 0.207945
3921 4 0.18953 0.463757 0.21118
2820 4 0.207043 0.469172 0.207844
2818 2 0.229833 0.474614 0.209179
2819 4 0.252623 0.480055 0.210514
3566 4 0.269031 0.488154 0.206752
3567 4 0.319326 0.484877 0.214171
3565 2 0.294178 0.486516 0.210461
4031 4 0.336976 0.488294 0.207488
4030 2 0.357284 0.497735 0.20527
339 4 0.385258 0.418603 0.213331
337 2 0.404328 0.428285 0.220597
338 4 0.423397 0.437967 0.227864
677 4 0.435508 0.451274 0.228592
676 2 0.455555 0.461095 0.226466
678 4 0.475603 0.470917 0.22434
1425 4 0.494486 0.475816 0.22565
2816 4 0.025229 0.0624405 0.315254
2714 4 0.0471787 0.0609089 0.314695
2815 2 0.00339023 0.0559063 0.319636
2713 2 0.0713946 0.0604095 0.321442
2715 4 0.0956104 0.0599102 0.328188
428 4 0.284988 0.0254247 0.250351
427 2 0.307814 0.030411 0.253696
429 4 0.33064 0.0353973 0.257041
1868 4 0.348131 0.0411942 0.260989
1867 2 0.369795 0.0481699 0.264919
1869 4 0.39146 0.0551456 0.268848
2850 4 0.410397 0.0580616 0.26617
2848 2 0.433577 0.0627927 0.266223
2849 4 0.456757 0.0675238 0.266275
1272 4 0.475375 0.072546 0.267379
1270 2 0.495644 0.0819201 0.27036
1032 4 0.0241784 0.121373 0.308032
1030 2 0.04902 0.121844 0.307011
1031 4 0.0738616 0.122315 0.30599
2515 2 0.217101 0.14899 0.265389
2945 4 0.263227 0.114671 0.325827
2517 4 0.234412 0.155158 0.280301
2657 4 0.252779 0.156974 0.281848
2944 2 0.283387 0.115544 0.311415
2656 2 0.273214 0.166269 0.279902
2946 4 0.303547 0.116416 0.297002
2678 4 0.31987 0.117899 0.308424
2677 2 0.342987 0.11564 0.297676
2679 4 0.366104 0.11338 0.286927
2837 4 0.37125 0.129422 0.280854
2836 2 0.390483 0.137394 0.270981
2838 4 0.409716 0.145365 0.261107
2871 4 0.416977 0.111187 0.31693
2869 2 0.397323 0.103855 0.326782
2477 4 0.430054 0.121593 0.308359
2476 2 0.450058 0.126762 0.296695
2478 4 0.470063 0.13193 0.28503
2778 4 0.485935 0.137498 0.279742
529 2 0.00712693 0.171181 0.33026
236 4 0.0219737 0.185252 0.253936
235 2 0.0405695 0.195419 0.261531
237 4 0.0591654 0.205585 0.269126
458 4 0.0729651 0.215469 0.274714
457 2 0.093152 0.207711 0.259118
2658 4 0.293648 0.175565 0.277956
2621 4 0.0736551 0.29945 0.318123
2681 4 0.0590387 0.29676 0.330641
2462 4 0.107466 0.251182 0.257648
2461 2 0.12389 0.265343 0.255876
2620 2 0.0919831 0.311267 0.314622
2622 4 0.110311 0.323085 0.311121
2853 4 0.121033 0.311326 0.297259
2463 4 0.140315 0.279503 0.254104
2851 2 0.144988 0.312457 0.291407
2852 4 0.168943 0.313588 0.285555
2450 4 0.178506 0.323083 0.272562
3572 4 0.240488 0.307385 0.258777
3571 2 0.265536 0.307195 0.259495
3573 4 0.290584 0.307004 0.260213
2953 2 0.32295 0.307054 0.250278
2955 4 0.347902 0.300173 0.257406
2831 4 0.341189 0.289508 0.325138
2830 2 0.329582 0.272304 0.332469
2529 4 0.347137 0.310066 0.274664
2527 2 0.348603 0.307349 0.29951
2528 4 0.35007 0.304631 0.324356
710 4 0.437788 0.295486 0.313316
536 4 0.443063 0.275907 0.311836
535 2 0.453199 0.267665 0.289537
537 4 0.463335 0.259423 0.267238
389 4 0.481267 0.26031 0.259675
1575 4 0.425057 0.411069 0.281403
1573 2 0.448543 0.400773 0.271457
1574 4 0.472029 0.390478 0.261511
1802 4 0.492692 0.388319 0.265284
681 4 0.293382 0.432294 0.254136
2532 4 0.267671 0.491083 0.320985
679 2 0.293074 0.456317 0.256064
3883 2 0.29017 0.495078 0.292056
3884 4 0.30454 0.48548 0.272086
680 4 0.292767 0.48034 0.257992
543 4 0.436514 0.445162 0.324516
244 2 0.49577 0.467858 0.293193
541 2 0.448811 0.45301 0.305775
542 4 0.461109 0.460857 0.287034
245 4 0.482796 0.453085 0.282748
2114 4 0.0146847 0.0243752 0.397855
1184 4 0.0278388 0.0267933 0.413053
1183 2 0.0490098 0.034853 0.415807
3477 4 0.113405 0.0597333 0.337069
3475 2 0.137875 0.0611444 0.339121
3476 4 0.162345 0.0625555 0.341173
1244 4 0.182388 0.0631221 0.342341
1243 2 0.204863 0.0685238 0.346585
1245 4 0.227339 0.0739254 0.350829
2667 4 0.246648 0.0784956 0.351433
2665 2 0.27049 0.0812072 0.348077
1523 4 0.308093 0.0169573 0.408516
2666 4 0.294332 0.0839188 0.34472
1522 2 0.31561 0.0217353 0.385645
1524 4 0.323128 0.0265133 0.362774
2643 4 0.343011 0.0219075 0.355369
2641 2 0.363674 0.0287378 0.347258
2642 4 0.384337 0.035568 0.339146
480 4 0.397444 0.0462859 0.341124
478 2 0.418189 0.0530464 0.349122
479 4 0.438934 0.0598068 0.357119
470 4 0.457095 0.0634693 0.361304
469 2 0.481879 0.0639411 0.363284
2559 4 0.00236369 0.0877263 0.413488
1377 4 0.313548 0.0853513 0.350144
2937 4 0.332936 0.16282 0.374732
1375 2 0.337557 0.0871757 0.345703
1376 4 0.361566 0.0890001 0.341262
2935 2 0.349642 0.153363 0.393192
2936 4 0.366348 0.143906 0.411651
2870 4 0.37767 0.0965232 0.336635
530 4 0.0254215 0.181919 0.337438
3158 4 0.0438326 0.175497 0.348715
2482 2 0.0207066 0.223321 0.370521
2484 4 0.0449968 0.215863 0.379461
2504 4 0.0597381 0.24273 0.407142
3157 2 0.0666664 0.180002 0.353418
2503 2 0.0808274 0.243866 0.394293
3159 4 0.0895002 0.184508 0.358122
651 4 0.103553 0.180663 0.373848
2505 4 0.101917 0.245002 0.381443
649 2 0.128087 0.182132 0.374058
650 4 0.15262 0.183602 0.374268
1191 4 0.163929 0.192324 0.386095
1189 2 0.182568 0.198395 0.399217
1190 4 0.201207 0.204466 0.41234
2663 4 0.287705 0.187083 0.331676
2664 4 0.3111 0.170406 0.375013
2662 2 0.299403 0.178745 0.353344
1951 2 0.00265902 0.289654 0.401903
1952 4 0.0231176 0.288458 0.387096
2682 4 0.0362526 0.293127 0.374449
2680 2 0.0476456 0.294944 0.352545
2822 4 0.120844 0.248453 0.382391
2821 2 0.141155 0.254037 0.393023
2823 4 0.161467 0.259622 0.403654
825 4 0.301199 0.262768 0.404207
2832 4 0.317975 0.255099 0.3398
824 4 0.349579 0.264157 0.393298
823 2 0.325389 0.263462 0.398752
635 4 0.361859 0.272652 0.383976
634 2 0.375933 0.282077 0.368043
636 4 0.390008 0.291502 0.352111
709 2 0.42363 0.29441 0.333679
711 4 0.409472 0.293334 0.354042
2923 2 0.00921857 0.353652 0.383495
2925 4 0.0319866 0.356495 0.375717
585 4 0.0480745 0.355033 0.363167
583 2 0.0696209 0.362154 0.359048
584 4 0.0911673 0.369275 0.354929
549 4 0.153672 0.404141 0.387281
2589 4 0.0122413 0.469337 0.407769
2648 4 0.00149444 0.455601 0.404008
2587 2 0.0374665 0.4642 0.401818
2588 4 0.0626917 0.459064 0.395868
3582 4 0.07685 0.46449 0.405966
3580 2 0.102365 0.462 0.403889
3581 4 0.127879 0.459509 0.401812
547 2 0.170452 0.417425 0.38248
3318 4 0.147591 0.460957 0.39972
548 4 0.187232 0.430708 0.37768
3316 2 0.168636 0.469463 0.399513
3317 4 0.18968 0.477969 0.399306
1434 4 0.204368 0.437463 0.373877
3962 4 0.20559 0.472306 0.414544
1432 2 0.218832 0.451493 0.364665
1433 4 0.233296 0.465524 0.355454
2531 4 0.25205 0.457414 0.347868
3961 2 0.22843 0.477278 0.411249
3963 4 0.25127 0.482251 0.407953
2530 2 0.259861 0.474249 0.334427
2740 2 0.455967 0.487541 0.416608
2139 4 0.486294 0.43856 0.39224
2137 2 0.492547 0.456749 0.379533
2742 4 0.479466 0.470923 0.41683
569 4 0.499334 0.491198 0.37959
2138 4 0.498799 0.474938 0.366825
219 3 0.0603612 0.057583 0.476233
218 3 0.0528525 0.077373 0.443835
1185 4 0.0701808 0.0429128 0.418561
216 1 0.069901 0.0674835 0.459311
217 3 0.0870135 0.0512629 0.448725
984 4 0.0898254 0.0433608 0.41618
982 2 0.114835 0.0330438 0.422007
983 4 0.139845 0.0227267 0.427834
220 3 0.0793982 0.0831219 0.468097
3326 4 0.211228 0.0599482 0.4972
3851 4 0.201906 0.0802723 0.49794
1058 4 0.313764 0.0256634 0.424673
1057 2 0.335966 0.0253678 0.436334
1059 4 0.358168 0.0250722 0.447994
1152 4 0.365088 0.0402501 0.451744
1150 2 0.387715 0.0446583 0.445888
1151 4 0.410342 0.0490664 0.440031
2316 4 0.425153 0.0582044 0.435566
2314 2 0.448742 0.0620244 0.434773
2315 4 0.472332 0.0658445 0.43398
842 4 0.481049 0.0293668 0.467876
841 2 0.478907 0.0149541 0.487305
1182 4 0.48929 0.0697196 0.426707
683 4 0.483587 0.017958 0.451227
682 2 0.497812 0.0153697 0.430325
2558 4 0.0455972 0.0949147 0.43337
2557 2 0.0239805 0.0913205 0.423429
2551 2 0.0229092 0.128269 0.461377
2552 4 0.0471666 0.130436 0.460291
762 4 0.0664248 0.132354 0.462695
760 2 0.0787028 0.150043 0.459653
2457 4 0.0978196 0.0878369 0.468626
761 4 0.0909808 0.167732 0.456611
2455 2 0.115066 0.0983249 0.478804
3173 4 0.110779 0.157088 0.461636
2456 4 0.132312 0.108813 0.488983
3172 2 0.133932 0.159785 0.454928
2901 4 0.173495 0.149339 0.440261
3852 4 0.151698 0.102026 0.487925
3850 2 0.176802 0.091149 0.492933
2899 2 0.199007 0.146479 0.437465
3174 4 0.157085 0.162483 0.44822
2900 4 0.224518 0.143619 0.43467
426 4 0.381246 0.148838 0.420871
424 2 0.390867 0.128606 0.435074
425 4 0.400488 0.108373 0.449277
2683 2 0.00977506 0.202788 0.431194
2684 4 0.033052 0.203891 0.423
367 2 0.0843763 0.219606 0.495361
369 4 0.108794 0.212647 0.486701
3462 4 0.128964 0.214797 0.486985
3460 2 0.153691 0.209924 0.494595
3461 4 0.178417 0.205052 0.502206
2544 4 0.163219 0.248504 0.468858
1394 4 0.220436 0.194531 0.418635
1393 2 0.233864 0.21017 0.426248
1395 4 0.247292 0.225808 0.43386
409 2 0.271017 0.225929 0.470182
410 4 0.26052 0.228564 0.447301
411 4 0.281513 0.223294 0.493062
320 4 0.310928 0.179899 0.488001
3056 4 0.000902169 0.320804 0.492658
266 4 0.0146308 0.315277 0.478703
265 2 0.0309499 0.322304 0.494157
2810 4 0.0976703 0.264698 0.485521
2809 2 0.123384 0.261328 0.484131
2811 4 0.149098 0.257957 0.482742
2542 2 0.167839 0.2522 0.444793
2543 4 0.172459 0.255896 0.420728
2602 2 0.342064 0.294723 0.490267
2603 4 0.36317 0.293547 0.476388
2604 4 0.320959 0.295898 0.504145
2548 2 0.00877648 0.410897 0.459436
1172 4 0.404879 0.41016 0.462587
1171 2 0.430398 0.400772 0.458419
1173 4 0.455917 0.391385 0.454252
2108 4 0.468991 0.400828 0.461573
2107 2 0.487313 0.412958 0.460546
2550 4 0.0273222 0.422317 0.455308
4042 2 0.00638606 0.464768 0.467683
4044 4 0.029867 0.468367 0.464402
561 4 0.0604344 0.492439 0.501211
560 4 0.0285702 0.488202 0.46396
559 2 0.0445023 0.49032 0.482586
4129 2 0.246715 0.443437 0.490935
4131 4 0.266553 0.42917 0.477703
1027 2 0.364472 0.417964 0.466042
602 4 0.322811 0.42752 0.452398
1029 4 0.341198 0.414521 0.461128
601 2 0.304263 0.425004 0.468121
603 4 0.285716 0.422488 0.483845
1028 4 0.387746 0.421407 0.470956
1444 2 0.49922 0.471513 0.454505
1445 4 0.495018 0.468425 0.430222
3022 2 0.0186306 0.0359987 0.567615
3024 4 0.0387664 0.0440034 0.575151
944 4 0.288389 0.0252714 0.559058
3327 4 0.250237 0.0768882 0.514073
3325 2 0.230733 0.0684182 0.505636
943 2 0.311039 0.023668 0.547638
945 4 0.33369 0.0220645 0.536219
3033 4 0.337758 0.0391353 0.540218
3031 2 0.35132 0.0530026 0.529095
3032 4 0.364881 0.0668699 0.517972
1163 4 0.45404 0.0134534 0.583088
1968 4 0.468626 0.0118634 0.568221
843 4 0.476765 0.000541491 0.506734
1966 2 0.478515 0.00769041 0.545146
1967 4 0.488405 0.00351739 0.522072
1261 2 0.00629876 0.122507 0.560059
1262 4 0.0200618 0.138897 0.563757
3308 4 0.0359507 0.140751 0.574691
1141 2 0.0900453 0.158137 0.537148
1142 4 0.10119 0.137721 0.523692
2502 4 0.113609 0.143873 0.511736
3307 2 0.0579168 0.122412 0.578113
3309 4 0.0798828 0.104073 0.581534
2500 2 0.138976 0.142421 0.510867
2501 4 0.164343 0.140969 0.509997
898 2 0.187802 0.16009 0.529193
900 4 0.16933 0.148375 0.526077
641 4 0.221971 0.158567 0.520486
640 2 0.247829 0.149998 0.518146
642 4 0.273686 0.141429 0.515806
321 4 0.280272 0.157529 0.512916
8 3 0.0324908 0.18605 0.512682
725 4 0.0154478 0.182131 0.504923
9 3 0.0265144 0.213552 0.538836
6 1 0.0430599 0.198849 0.525745
10 3 0.054088 0.210452 0.512445
7 3 0.0591173 0.184876 0.53952
1143 4 0.0789004 0.178553 0.550604
3267 4 0.0751498 0.23888 0.574204
1077 4 0.0576865 0.231803 0.57793
917 4 0.0968616 0.183619 0.557231
368 4 0.0599584 0.226566 0.50402
3265 2 0.0980656 0.244021 0.572449
916 2 0.118038 0.189686 0.565126
918 4 0.139214 0.195753 0.573021
1211 4 0.160443 0.195958 0.571197
1210 2 0.179292 0.207481 0.571053
3266 4 0.120981 0.249161 0.570695
899 4 0.206273 0.171805 0.532309
1259 4 0.217557 0.221904 0.574693
1212 4 0.19814 0.219003 0.570909
1258 2 0.239575 0.228279 0.578558
319 2 0.2956 0.168714 0.500458
3079 2 0.0008131 0.275022 0.542999
3081 4 0.0245561 0.277311 0.538074
3498 4 0.0365077 0.272905 0.520944
3496 2 0.0595753 0.2707 0.510114
3107 4 0.0596881 0.296859 0.586249
3497 4 0.082643 0.268495 0.499284
890 4 0.063962 0.333212 0.501265
889 2 0.0889482 0.321232 0.505611
891 4 0.113934 0.309251 0.509956
1239 4 0.127526 0.319336 0.514148
3111 4 0.135989 0.255206 0.561906
3109 2 0.15865 0.260344 0.557968
1237 2 0.15051 0.322847 0.520213
1238 4 0.173494 0.326357 0.526278
3110 4 0.181312 0.265482 0.554031
2813 4 0.200376 0.267908 0.546574
2812 2 0.22253 0.271162 0.53757
2963 4 0.261807 0.277356 0.521941
2814 4 0.244684 0.274417 0.528566
2962 2 0.282877 0.284889 0.516682
2964 4 0.303947 0.292421 0.511423
267 4 0.047269 0.32933 0.509612
1137 4 0.0311903 0.378789 0.544658
540 4 0.0449952 0.389048 0.547571
1135 2 0.00517715 0.385664 0.543671
538 2 0.0697411 0.386484 0.541053
539 4 0.094487 0.38392 0.534534
2243 4 0.109008 0.393907 0.534966
773 4 0.0928638 0.372232 0.583343
804 4 0.184862 0.331568 0.539676
2242 2 0.130626 0.401008 0.531204
2244 4 0.152245 0.408108 0.527442
802 2 0.206861 0.338425 0.537995
803 4 0.228859 0.345281 0.536315
4057 2 0.09692 0.484028 0.516499
4537 2 0.0996023 0.495178 0.576395
4058 4 0.0802881 0.484171 0.497793
4538 4 0.104602 0.490448 0.552112
4059 4 0.113552 0.483885 0.535205
2631 4 0.164928 0.491278 0.512955
2629 2 0.190519 0.48452 0.508363
2630 4 0.216109 0.477763 0.503771
4130 4 0.226876 0.457704 0.504168
2996 4 0.0553101 0.0492626 0.580585
2995 2 0.0647616 0.0688648 0.584026
953 4 0.37736 0.0445761 0.64493
1164 4 0.416696 0.998062 0.605803
1162 2 0.435368 0.00575757 0.594446
952 2 0.393534 0.0307911 0.627992
954 4 0.409708 0.0170061 0.611054
2997 4 0.0742131 0.088467 0.587467
1076 4 0.0118392 0.225148 0.591113
1075 2 0.0347629 0.228476 0.584521
1130 4 0.134994 0.189147 0.590951
1129 2 0.150979 0.18538 0.610678
1131 4 0.166965 0.181613 0.630406
858 4 0.183059 0.189369 0.629563
856 2 0.208857 0.185567 0.62863
857 4 0.234655 0.181765 0.627698
2318 4 0.253975 0.183969 0.621173
1260 4 0.261593 0.234653 0.582424
2317 2 0.274676 0.190903 0.613342
2319 4 0.295376 0.197836 0.605511
950 4 0.317417 0.189144 0.608078
3038 4 0.278234 0.2402 0.590968
949 2 0.340649 0.184694 0.596946
3037 2 0.301684 0.244185 0.592928
951 4 0.363882 0.180243 0.585814
3382 2 0.0203461 0.287484 0.593355
3384 4 0.0448333 0.288673 0.596029
3106 2 0.0843905 0.296655 0.590473
3108 4 0.109093 0.296452 0.594697
3165 4 0.127158 0.291716 0.605109
3163 2 0.146642 0.302011 0.608892
3164 4 0.166126 0.312306 0.612676
1083 4 0.179267 0.300256 0.628026
1081 2 0.199686 0.287538 0.641572
1082 4 0.220105 0.27482 0.655118
3039 4 0.325134 0.248171 0.594888
2972 4 0.256472 0.31676 0.637115
3221 4 0.266957 0.287747 0.664548
2971 2 0.278006 0.324326 0.634894
2973 4 0.29954 0.331891 0.632673
3386 4 0.341735 0.254628 0.600037
3385 2 0.361611 0.26461 0.602684
3387 4 0.381488 0.274592 0.605332
384 4 0.399977 0.27876 0.604757
382 2 0.414761 0.277801 0.6251
383 4 0.429546 0.276842 0.645442
774 4 0.0569724 0.349414 0.596498
772 2 0.0749181 0.360823 0.58992
1205 4 0.108149 0.361414 0.595033
1204 2 0.131873 0.358054 0.604848
1206 4 0.155598 0.354693 0.614662
1139 4 0.174063 0.349188 0.622877
1138 2 0.187938 0.364143 0.631235
1140 4 0.201812 0.379099 0.639593
798 4 0.21106 0.392495 0.63632
796 2 0.232848 0.399291 0.640128
797 4 0.254637 0.406086 0.643936
3435 4 0.306602 0.348024 0.632373
3433 2 0.329717 0.347748 0.622653
3434 4 0.352833 0.347472 0.612932
3491 4 0.0452174 0.470456 0.619429
4539 4 0.0946026 0.499908 0.600677
3490 2 0.0652202 0.480188 0.616346
3492 4 0.0852229 0.489919 0.613263
993 4 0.18037 0.45266 0.66869
4362 4 0.308391 0.492868 0.652328
2129 4 0.398738 0.458472 0.584887
2128 2 0.413124 0.459049 0.60521
2130 4 0.42751 0.459626 0.625534
1983 4 0.44601 0.461871 0.630558
1981 2 0.457999 0.479452 0.625648
1982 4 0.469988 0.497033 0.620738
2171 4 0.485759 0.491747 0.607047
3126 4 0.0547989 0.0678549 0.734557
3124 2 0.0568669 0.0713492 0.709992
3125 4 0.0589349 0.0748434 0.685426
3083 4 0.207062 0.0213365 0.733657
3082 2 0.204342 0.0426728 0.721091
3084 4 0.201622 0.064009 0.708524
3131 4 0.195261 0.0128892 0.746254
2265 4 0.224665 0.00589142 0.728403
2307 4 0.462125 0.0380488 0.690239
2305 2 0.481211 0.0486502 0.685583
3207 4 0.393672 0.154861 0.675795
3205 2 0.417576 0.14682 0.68555
3206 4 0.44148 0.138779 0.695305
3020 4 0.460956 0.140455 0.700767
3019 2 0.484016 0.145293 0.702599
3350 4 0.0206945 0.212243 0.723398
779 4 0.0288755 0.216031 0.704753
778 2 0.0527249 0.216776 0.711497
780 4 0.0765744 0.217521 0.71824
1299 4 0.406689 0.251613 0.689281
2978 4 0.478648 0.176412 0.742533
1010 4 0.483974 0.187844 0.72701
1009 2 0.496252 0.202947 0.716074
3220 2 0.279242 0.289889 0.685856
3222 4 0.291527 0.29203 0.707165
1307 4 0.298243 0.298497 0.724122
1306 2 0.321671 0.295296 0.734548
1308 4 0.345099 0.292094 0.744974
3227 4 0.358824 0.301777 0.751546
1297 2 0.427266 0.254657 0.701747
1298 4 0.447842 0.257702 0.714213
1068 4 0.453924 0.260119 0.732336
1066 2 0.475244 0.263798 0.742846
3275 4 0.00183182 0.390906 0.7158
3274 2 0.0264401 0.391251 0.719616
3276 4 0.0510485 0.391595 0.723432
4494 4 0.0636083 0.403548 0.72118
4492 2 0.0833418 0.409858 0.732151
4493 4 0.103075 0.416168 0.743123
1956 4 0.122384 0.416388 0.738015
1954 2 0.131045 0.435717 0.731081
1955 4 0.139706 0.455045 0.724147
991 2 0.203123 0.443997 0.680539
992 4 0.225877 0.435333 0.692389
942 4 0.239193 0.434737 0.707828
940 2 0.254036 0.448787 0.716192
941 4 0.268879 0.462836 0.724555
1098 4 0.287691 0.452025 0.718876
1096 2 0.313346 0.441628 0.716758
1097 4 0.339002 0.431231 0.714639
1278 4 0.354598 0.425869 0.702383
1276 2 0.370313 0.440809 0.702124
1277 4 0.386029 0.455749 0.701865
821 4 0.404144 0.445456 0.70864
820 2 0.427218 0.449107 0.714067
822 4 0.450293 0.452758 0.719494
1235 4 0.471368 0.448866 0.721143
1234 2 0.493212 0.455629 0.724717
3409 2 0.0615411 0.00895326 0.825571
3763 2 0.0339303 0.0634557 0.825436
3765 4 0.0492447 0.0785203 0.828726
3764 4 0.0186159 0.0483911 0.822146
194 3 0.00697977 0.0379666 0.810972
1994 4 0.0680122 0.0819446 0.833978
3130 2 0.189747 0.0224619 0.76919
3132 4 0.184234 0.0320346 0.792126
4443 4 0.176408 0.0519841 0.797332
4441 2 0.188869 0.0654077 0.810655
4442 4 0.201331 0.0788314 0.823979
2035 2 0.291156 0.00452577 0.81545
2037 4 0.311271 0.0139101 0.819399
2348 4 0.332151 0.0147595 0.817325
2347 2 0.353984 0.0218287 0.819517
2349 4 0.375818 0.0288979 0.821709
1038 4 0.393946 0.0348532 0.817389
1036 2 0.413073 0.0422055 0.828306
3145 2 0.0171637 0.0924706 0.774193
3147 4 0.035837 0.101846 0.78312
1146 4 0.0310106 0.121173 0.791083
1144 2 0.0538196 0.111512 0.802553
1145 4 0.0766285 0.101851 0.814022
1134 4 0.2691 0.165709 0.808356
1091 4 0.285996 0.16284 0.81965
2979 4 0.483625 0.154472 0.787449
3486 4 0.49128 0.151696 0.80551
736 2 0.0105282 0.238821 0.80448
3591 4 0.011381 0.178999 0.787924
3589 2 0.0339011 0.183017 0.794854
737 4 0.0315416 0.247356 0.805275
3590 4 0.0564212 0.187036 0.801784
2981 4 0.0525547 0.243462 0.809616
948 4 0.0736166 0.193037 0.798245
946 2 0.0860292 0.190943 0.820186
2980 2 0.0774992 0.24362 0.808822
2982 4 0.102444 0.243779 0.808028
1132 2 0.243802 0.167217 0.810561
1133 4 0.218504 0.168725 0.812765
34 3 0.20703 0.184456 0.823666
868 2 0.252647 0.230471 0.827761
869 4 0.231045 0.223737 0.832761
870 4 0.274249 0.237205 0.82276
1090 2 0.306275 0.17168 0.814626
1092 4 0.326554 0.18052 0.809602
863 4 0.287989 0.248763 0.81881
839 4 0.333931 0.195492 0.816421
838 2 0.356607 0.200085 0.811158
840 4 0.379283 0.204677 0.805894
57 3 0.395236 0.213825 0.807088
56 1 0.417173 0.216734 0.808408
58 3 0.415178 0.239422 0.810022
60 3 0.429418 0.208146 0.789707
59 3 0.428265 0.205699 0.827232
2977 2 0.481136 0.165442 0.764991
188 3 0.143129 0.32113 0.801598
186 1 0.136124 0.320049 0.823591
187 3 0.129733 0.300648 0.826484
862 2 0.310018 0.255499 0.82097
864 4 0.332047 0.262234 0.82313
1692 4 0.351052 0.264609 0.821751
3226 2 0.375131 0.304721 0.769491
1690 2 0.375199 0.266742 0.824454
1691 4 0.399345 0.268875 0.827157
3228 4 0.391437 0.307664 0.787437