ITEM: TIMESTEP
492500
ITEM: NUMBER OF ATOMS
4590
ITEM: BOX BOUNDS xy xz yz pp pp pp
-1.2998141000000004e+01 9.9985700000000008e+00 -2.9995710000000031e+00
-9.9985700000000008e+00 9.9985700000000008e+00 0.0000000000000000e+00
-9.9985700000000008e+00 9.9985700000000008e+00 0.0000000000000000e+00
ITEM: ATOMS id type xs ys zs
1761 4 0.143008 0.0619457 0.0202983
3047 4 0.158204 0.0608362 0.00758223
4122 4 0.140978 0.00800068 0.00599
1759 2 0.130524 0.0792033 0.0303064
3046 2 0.18327 0.0668877 0.0098062
3048 4 0.208336 0.0729392 0.0120302
3480 4 0.22021 0.071829 0.0289065
3478 2 0.241757 0.0820527 0.0179474
3903 4 0.317982 0.0814386 0.0130363
2884 2 0.321721 0.0582255 0.0493682
2886 4 0.316789 0.0458078 0.0708522
2885 4 0.326652 0.0706432 0.0278842
2949 4 0.328561 0.00522428 0.0544672
1662 4 0.298024 0.0445642 0.0792593
2465 4 0.340822 0.0120637 0.0387485
2464 2 0.361136 0.00267177 0.0306795
1651 2 0.456164 0.0176691 0.0807809
1652 4 0.444549 0.000599257 0.0649114
23 3 0.00941622 0.153696 0.0684267
2975 4 0.0172135 0.164688 0.0354605
3393 4 0.111074 0.126243 0.00510126
3391 2 0.121174 0.148847 0.0134216
1760 4 0.11804 0.0964608 0.0403145
2660 4 0.162492 0.107981 0.0373503
2659 2 0.174131 0.129707 0.0282433
2661 4 0.185769 0.151433 0.0191362
3479 4 0.263305 0.0922764 0.00698842
3902 4 0.278413 0.105919 0.00741945
3901 2 0.298197 0.0936788 0.0102279
2728 2 0.000555912 0.240089 0.0635115
2729 4 0.0235682 0.240741 0.0535276
2974 2 0.0408016 0.176821 0.0374934
2976 4 0.0643896 0.188954 0.0395263
2829 4 0.0994762 0.245635 0.043671
3284 4 0.088112 0.246722 0.0594159
2827 2 0.117013 0.247897 0.0256627
3392 4 0.131273 0.171452 0.021742
3242 4 0.123739 0.187879 0.0248802
3241 2 0.142627 0.203239 0.0355681
3243 4 0.161515 0.218599 0.0462561
692 4 0.279493 0.203549 0.0795161
691 2 0.30369 0.214238 0.0788171
693 4 0.327886 0.224927 0.078118
353 4 0.34068 0.211685 0.0838112
360 4 0.409596 0.171858 0.00343575
358 2 0.429977 0.184004 0.0149775
359 4 0.450359 0.196149 0.0265192
282 4 0.465615 0.211689 0.0259566
280 2 0.486026 0.213854 0.0406879
2844 4 0.0103123 0.300226 0.0808538
2842 2 0.0350171 0.303134 0.075585
2843 4 0.0597219 0.306043 0.0703163
3285 4 0.0706655 0.289213 0.0707207
3283 2 0.0793887 0.267968 0.0650683
2828 4 0.13455 0.25016 0.00765442
2640 4 0.18755 0.28125 0.999208
465 4 0.252125 0.325281 0.0134512
525 4 0.274468 0.321805 0.0709856
294 4 0.288877 0.327247 0.0563365
292 2 0.2944 0.318973 0.0337319
293 4 0.299923 0.310699 0.0111274
461 4 0.306228 0.323693 0.997559
597 4 0.0279614 0.354964 0.0640752
595 2 0.00270562 0.350998 0.0629373
1104 4 0.0493081 0.360512 0.0639752
1292 4 0.048164 0.343319 0.0016854
1102 2 0.0745117 0.366126 0.0643995
1103 4 0.0997154 0.37174 0.0648237
2772 4 0.120249 0.372706 0.0667824
2770 2 0.145124 0.377773 0.0625434
1304 4 0.0683551 0.349632 1.12447e-05
2771 4 0.169999 0.38284 0.0583044
2522 4 0.188677 0.387958 0.0633527
2521 2 0.213425 0.395884 0.060639
2523 4 0.238172 0.40381 0.0579254
3339 4 0.258331 0.40586 0.0570853
3337 2 0.276895 0.39692 0.0448766
3338 4 0.295459 0.38798 0.0326678
563 4 0.394802 0.387218 0.00360504
671 4 0.495055 0.407116 0.0766735
3900 4 0.157873 0.470361 0.00103777
4187 4 0.360168 0.467069 0.0129827
2582 4 0.379183 0.467412 0.0186325
2581 2 0.401608 0.459386 0.0170674
2583 4 0.424032 0.451359 0.0155022
2912 4 0.440462 0.446894 0.0246698
2911 2 0.46454 0.456914 0.0207759
2913 4 0.488618 0.466934 0.016882
672 4 0.464862 0.441953 0.0823811
670 2 0.479958 0.424535 0.0795273
1466 4 0.415995 0.443724 0.0849571
2731 2 0.027345 0.031885 0.151422
2733 4 0.0403787 0.0414879 0.131458
1474 2 0.221271 0.00891436 0.119552
1475 4 0.24021 0.0234471 0.108014
1661 4 0.259341 0.0195572 0.104855
1660 2 0.278683 0.0320607 0.0920574
1653 4 0.467778 0.0347389 0.0966503
1504 2 0.0194432 0.0947996 0.166273
2894 4 0.0211501 0.159983 0.0841436
1505 4 0.044359 0.102441 0.164929
2893 2 0.044848 0.166137 0.0924275
255 4 0.0575992 0.119729 0.164249
253 2 0.0827087 0.121216 0.162343
254 4 0.107818 0.122704 0.160437
2768 4 0.344443 0.0876561 0.131207
2767 2 0.360819 0.104762 0.143117
2769 4 0.377195 0.121869 0.155027
2787 4 0.0181527 0.187753 0.159078
2895 4 0.0685459 0.17229 0.100711
2600 4 0.0868132 0.176515 0.092173
2599 2 0.10915 0.175799 0.103169
2601 4 0.131487 0.175083 0.114165
378 4 0.152056 0.182067 0.116335
376 2 0.175768 0.179541 0.122534
629 4 0.205357 0.192879 0.139986
377 4 0.19948 0.177015 0.128732
628 2 0.213451 0.211829 0.155428
352 2 0.350189 0.191495 0.091581
354 4 0.359697 0.171306 0.0993509
523 2 0.285169 0.316914 0.0926765
524 4 0.29587 0.312023 0.114367
288 4 0.314464 0.313821 0.119707
286 2 0.33349 0.324607 0.134053
251 4 0.412996 0.32634 0.133774
2567 4 0.426052 0.287486 0.144344
349 2 0.445307 0.323193 0.12638
351 4 0.463354 0.309073 0.13076
110 3 0.468397 0.284139 0.103881
2533 2 0.484337 0.318045 0.16394
2534 4 0.481553 0.310935 0.14003
106 1 0.487655 0.284872 0.116188
108 3 0.492968 0.305694 0.126192
107 3 0.484314 0.268792 0.132611
767 4 0.030007 0.406556 0.10294
766 2 0.0551123 0.408041 0.100982
3450 4 0.0978929 0.401997 0.0962314
2471 4 0.0787487 0.353506 0.12564
768 4 0.0802175 0.409526 0.0990242
608 4 0.0747133 0.362798 0.142189
2470 2 0.10337 0.351843 0.123676
3448 2 0.119948 0.407544 0.108232
607 2 0.0684314 0.372572 0.16386
2472 4 0.127992 0.350181 0.121712
3449 4 0.142002 0.413091 0.120232
2571 4 0.146225 0.35946 0.129839
2569 2 0.169982 0.360635 0.138071
2570 4 0.193738 0.361811 0.146303
2969 4 0.202793 0.345413 0.151928
2968 2 0.225749 0.351258 0.162103
3552 4 0.200705 0.419293 0.150741
1568 4 0.20803 0.414513 0.132609
287 4 0.352516 0.335394 0.148399
252 4 0.369557 0.344317 0.140772
250 2 0.391277 0.335328 0.137273
350 4 0.427261 0.337313 0.122
2443 2 0.00224682 0.420774 0.100773
2444 4 0.0260423 0.42406 0.109221
303 4 0.154667 0.478245 0.162269
1863 4 0.171357 0.473166 0.156471
1861 2 0.1958 0.483038 0.155813
3550 2 0.180195 0.423795 0.163236
1862 4 0.220244 0.492911 0.155156
1787 4 0.239201 0.494887 0.150221
1567 2 0.231536 0.425882 0.128066
1569 4 0.255043 0.437251 0.123523
3404 4 0.275313 0.438145 0.124315
1786 2 0.262078 0.500481 0.139819
3403 2 0.290655 0.439579 0.144172
3405 4 0.305997 0.441013 0.164029
1465 2 0.432393 0.446372 0.103987
1467 4 0.448792 0.44902 0.123016
4211 4 0.454643 0.445699 0.141437
4210 2 0.468746 0.467836 0.145782
4212 4 0.482849 0.489973 0.150126
2732 4 0.0143113 0.0222821 0.171386
2547 4 0.0179953 0.0146112 0.189174
2545 2 0.0404339 0.0163165 0.200584
2546 4 0.0628725 0.0180218 0.211995
3722 4 0.0804853 0.028334 0.208285
3721 2 0.097699 0.0381993 0.225028
3723 4 0.114913 0.0480645 0.24177
690 4 0.267925 0.0186413 0.214535
688 2 0.263564 0.00740818 0.192358
520 2 0.373791 0.0858712 0.234314
699 4 0.381165 0.131573 0.173097
521 4 0.385333 0.0969219 0.21418
697 2 0.392183 0.120703 0.191726
698 4 0.4032 0.109833 0.210355
2452 2 0.473325 0.15997 0.236485
2454 4 0.493335 0.149112 0.230238
2838 4 0.133414 0.168485 0.203256
2836 2 0.141954 0.178828 0.224921
2516 4 0.171116 0.223828 0.234571
2837 4 0.150494 0.18917 0.246586
333 4 0.185868 0.215075 0.226451
331 2 0.200098 0.225239 0.207465
630 4 0.221546 0.23078 0.170871
332 4 0.214329 0.235402 0.18848
2478 4 0.274223 0.175876 0.245104
2776 2 0.319686 0.184544 0.246273
2777 4 0.344816 0.190271 0.244455
2778 4 0.294556 0.178817 0.248091
2453 4 0.453314 0.170827 0.242732
387 4 0.28176 0.268933 0.249495
496 2 0.404579 0.27611 0.233164
2568 4 0.409361 0.278616 0.1911
2566 2 0.417707 0.283051 0.167722
498 4 0.413924 0.274974 0.210069
2492 4 0.482101 0.312774 0.202838
2535 4 0.487121 0.325154 0.18785
2491 2 0.49789 0.298734 0.213223
290 4 0.0140638 0.360532 0.230296
289 2 0.0324854 0.372889 0.216225
291 4 0.050907 0.385246 0.202155
609 4 0.0621495 0.382346 0.18553
2970 4 0.248705 0.357102 0.172278
729 4 0.263936 0.371963 0.167103
415 2 0.271028 0.406505 0.237495
417 4 0.264635 0.381727 0.23951
727 2 0.285587 0.379228 0.179336
728 4 0.307238 0.386493 0.191569
2538 4 0.326123 0.383625 0.191073
2536 2 0.350474 0.392383 0.195291
2537 4 0.374824 0.401141 0.199508
714 4 0.394664 0.399116 0.201226
712 2 0.418771 0.400163 0.194122
337 2 0.472535 0.391265 0.174185
339 4 0.447976 0.383953 0.178794
713 4 0.442879 0.401209 0.187018
338 4 0.497094 0.398576 0.169575
1472 4 0.0566143 0.472338 0.227826
1471 2 0.0742327 0.471453 0.210239
301 2 0.131995 0.477798 0.172946
1473 4 0.0918511 0.470569 0.192653
302 4 0.109323 0.477352 0.183622
4008 4 0.125781 0.427478 0.226137
4006 2 0.13247 0.424335 0.202388
4007 4 0.139158 0.421191 0.178638
3551 4 0.159685 0.428296 0.17573
264 4 0.158909 0.467047 0.234007
262 2 0.180501 0.459004 0.227626
263 4 0.202092 0.45096 0.221245
1382 4 0.16424 0.48196 0.247266
1386 4 0.213097 0.459419 0.237593
1384 2 0.235891 0.466344 0.247788
363 4 0.291806 0.445163 0.228088
416 4 0.277421 0.431283 0.235481
362 4 0.298704 0.451235 0.178813
361 2 0.295255 0.448199 0.203451
513 4 0.00300424 0.0794307 0.28988
511 2 0.0267593 0.0779512 0.296815
512 4 0.0505143 0.0764717 0.30375
2694 4 0.0549523 0.0852808 0.32174
3876 4 0.0565569 0.0115905 0.286179
3874 2 0.0749579 0.030505 0.291199
3875 4 0.093359 0.0494195 0.296219
122 3 0.110379 0.0515915 0.28766
123 3 0.130023 0.0576117 0.255642
121 1 0.131712 0.0569194 0.278765
124 3 0.141337 0.0776792 0.286831
125 3 0.144511 0.0410878 0.284912
4355 4 0.236047 0.0330935 0.329568
4354 2 0.260768 0.0419066 0.329583
4356 4 0.285489 0.0507196 0.329599
522 4 0.36225 0.0748205 0.254447
632 4 0.355535 0.077617 0.273051
2715 4 0.412094 0.0783816 0.33483
2692 2 0.0763565 0.0993642 0.314346
2693 4 0.0977607 0.113448 0.306951
2856 4 0.115591 0.12306 0.300275
2854 2 0.132899 0.110311 0.29062
2855 4 0.150207 0.0975629 0.280964
2579 4 0.170677 0.0965835 0.280506
2578 2 0.193993 0.104391 0.2891
2580 4 0.217308 0.112199 0.297694
2891 4 0.235982 0.108574 0.298446
2890 2 0.260561 0.117631 0.300442
2892 4 0.285139 0.126688 0.302438
631 2 0.366997 0.0939093 0.289737
633 4 0.378459 0.110202 0.306423
2879 4 0.394652 0.103466 0.315671
2880 4 0.433616 0.140533 0.312362
2878 2 0.414134 0.121999 0.314016
420 4 0.43836 0.150553 0.328449
1198 2 0.042504 0.242697 0.326469
1200 4 0.0663704 0.243206 0.318791
2802 4 0.135831 0.24191 0.324009
2657 4 0.180178 0.222609 0.29128
2515 2 0.175803 0.215245 0.257282
2656 2 0.187962 0.218038 0.314357
2517 4 0.18049 0.206662 0.279994
2477 4 0.263072 0.209125 0.278789
2476 2 0.268647 0.1925 0.261947
2939 4 0.362596 0.198645 0.252582
2938 2 0.379917 0.193418 0.269016
590 4 0.402777 0.170103 0.279482
2940 4 0.397238 0.188191 0.28545
589 2 0.426366 0.17133 0.270773
591 4 0.449956 0.172556 0.262063
612 4 0.0157896 0.279107 0.299795
412 2 0.0399986 0.300171 0.318927
413 4 0.033329 0.292678 0.295726
2765 4 0.120073 0.252425 0.325159
2766 4 0.0751002 0.25662 0.30507
2764 2 0.0975865 0.254522 0.315115
345 4 0.210502 0.307986 0.264867
343 2 0.235759 0.310869 0.265649
344 4 0.261016 0.313753 0.26643
2654 4 0.275134 0.324501 0.279997
2653 2 0.296451 0.319622 0.290731
2655 4 0.317769 0.314743 0.301464
385 2 0.306004 0.269563 0.255945
386 4 0.330248 0.270193 0.262395
276 4 0.336463 0.269605 0.282155
274 2 0.361408 0.271999 0.278279
275 4 0.386352 0.274394 0.274404
497 4 0.395234 0.277245 0.256258
776 4 0.12477 0.466198 0.304182
775 2 0.140931 0.476098 0.32184
1381 2 0.152793 0.49868 0.259549
1385 4 0.258684 0.47327 0.257984
500 4 0.264058 0.493137 0.252623
231 4 0.323876 0.488764 0.289724
1659 4 0.379485 0.4954 0.274566
229 2 0.346123 0.498698 0.279943
1657 2 0.403297 0.492174 0.269621
1658 4 0.427109 0.488947 0.264675
1745 4 0.446507 0.488497 0.271222
681 4 0.470908 0.457287 0.267705
679 2 0.495286 0.465424 0.272471
1184 4 0.0758335 0.00274037 0.399914
2114 4 0.080809 0.018202 0.387036
2113 2 0.0784673 0.0399963 0.397931
2115 4 0.0761256 0.0617905 0.408826
2817 4 0.299545 0.0394349 0.335658
2815 2 0.32262 0.0473427 0.344798
2816 4 0.345695 0.0552504 0.353938
2714 4 0.36555 0.055723 0.346046
2713 2 0.388822 0.0670523 0.340438
3477 4 0.430946 0.0747036 0.334535
2557 2 0.460657 0.0801795 0.408918
3475 2 0.45556 0.0802539 0.339902
617 4 0.0135387 0.0935448 0.398252
616 2 0.0339354 0.107606 0.407897
340 2 0.139247 0.10663 0.409278
341 4 0.116296 0.11091 0.416366
342 4 0.162198 0.102351 0.402189
402 4 0.172928 0.0938667 0.387015
2935 2 0.192651 0.153214 0.40033
2937 4 0.192085 0.14305 0.377506
2664 4 0.192881 0.16035 0.367048
400 2 0.188342 0.106311 0.37008
401 4 0.203756 0.118756 0.353145
4239 4 0.436878 0.155058 0.39318
418 2 0.440374 0.157939 0.352319
4237 2 0.448346 0.136109 0.401012
3476 4 0.480175 0.0858043 0.345268
4238 4 0.459813 0.11716 0.408844
2559 4 0.455188 0.10103 0.398125
2586 4 0.00464627 0.227547 0.40772
1199 4 0.0186375 0.242187 0.334147
1191 4 0.0069839 0.169376 0.370787
2685 4 0.0251163 0.224527 0.409703
1189 2 0.0280433 0.174934 0.384397
1190 4 0.0491028 0.180492 0.398006
2683 2 0.0498828 0.231941 0.412972
2482 2 0.11396 0.232267 0.406164
2800 2 0.137947 0.235712 0.34804
2801 4 0.140064 0.229514 0.372071
2483 4 0.133024 0.229028 0.390917
2658 4 0.195746 0.213467 0.337433
2662 2 0.200121 0.17959 0.351685
2663 4 0.207361 0.198831 0.336321
2504 4 0.233695 0.225941 0.408299
2503 2 0.255104 0.234594 0.396222
2505 4 0.276513 0.243248 0.384144
2822 4 0.290775 0.232007 0.379849
2821 2 0.313915 0.235695 0.38992
2823 4 0.337055 0.239382 0.39999
2543 4 0.34004 0.224877 0.413135
419 4 0.442387 0.165325 0.37619
765 4 0.00338883 0.276217 0.37586
510 4 0.0212916 0.271534 0.371126
508 2 0.0428518 0.278854 0.383492
414 4 0.0466681 0.307663 0.342128
509 4 0.0644119 0.286173 0.395858
717 4 0.0703644 0.273642 0.409675
2498 4 0.3035 0.296623 0.401295
2497 2 0.322263 0.297531 0.38464
2499 4 0.341026 0.29844 0.367984
2930 4 0.351321 0.288141 0.355546
2929 2 0.375427 0.287413 0.361735
2931 4 0.399532 0.286686 0.367924
1953 4 0.414221 0.292536 0.380608
1951 2 0.436688 0.285862 0.386074
1952 4 0.459155 0.279187 0.391539
117 3 0.475204 0.298011 0.404253
2682 4 0.482124 0.293256 0.383346
2699 4 0.456417 0.351396 0.345017
2698 2 0.480607 0.348475 0.341836
777 4 0.157091 0.485998 0.339498
375 4 0.109848 0.484969 0.389589
373 2 0.0942803 0.474362 0.371775
374 4 0.0787124 0.463755 0.353962
2589 4 0.318539 0.43926 0.412071
2588 4 0.363733 0.466621 0.404086
2587 2 0.341136 0.45294 0.408078
3582 4 0.381701 0.47868 0.409559
3580 2 0.397643 0.46257 0.404209
3581 4 0.413584 0.44646 0.398859
549 4 0.428062 0.441435 0.386672
547 2 0.453294 0.443811 0.387544
548 4 0.478525 0.446187 0.388416
1434 4 0.496716 0.45423 0.396117
1127 4 0.0274244 0.070267 0.445632
1126 2 0.044737 0.0598127 0.433007
1128 4 0.0620497 0.0493584 0.420382
982 2 0.414909 0.0824967 0.44147
983 4 0.400179 0.0843274 0.421553
2558 4 0.466127 0.0593286 0.419712
217 3 0.449195 0.0789273 0.463437
220 3 0.461202 0.0473325 0.474123
218 3 0.467788 0.0600524 0.438995
2457 4 0.459357 0.048702 0.49388
216 1 0.466172 0.0660134 0.461279
219 3 0.486376 0.0783587 0.468293
1393 2 0.0577129 0.157511 0.424283
618 4 0.0543322 0.121668 0.417542
1395 4 0.0670803 0.136465 0.429322
163 3 0.0725059 0.112918 0.439728
162 3 0.0941441 0.104673 0.468388
161 1 0.0944673 0.114843 0.44779
164 3 0.103445 0.137233 0.450139
426 4 0.122501 0.146389 0.44849
165 3 0.107468 0.10464 0.433527
424 2 0.141834 0.164134 0.454178
2915 4 0.191309 0.164768 0.442063
2936 4 0.193217 0.163379 0.423154
2916 4 0.203895 0.125778 0.467372
2914 2 0.197602 0.145273 0.454718
984 4 0.42964 0.0806659 0.461386
725 4 0.000165972 0.214121 0.464157
7 3 0.0100672 0.174471 0.452203
8 3 0.0200209 0.209862 0.463975
6 1 0.0250515 0.188229 0.465354
9 3 0.0229196 0.180745 0.487295
2484 4 0.0948955 0.235505 0.421412
1394 4 0.0483454 0.178556 0.419244
2684 4 0.0746492 0.239355 0.416242
10 3 0.0464876 0.187655 0.457931
368 4 0.0637497 0.193272 0.450944
367 2 0.0801471 0.214052 0.455067
369 4 0.0965446 0.234832 0.459191
3462 4 0.114186 0.227934 0.458623
3460 2 0.139075 0.23301 0.462783
3461 4 0.163963 0.238086 0.466944
425 4 0.161168 0.18188 0.459866
411 4 0.182626 0.231426 0.465187
409 2 0.18212 0.206655 0.464068
410 4 0.181615 0.181884 0.462948
2809 2 0.325751 0.231716 0.49069
2542 2 0.34638 0.22406 0.437275
2811 4 0.345915 0.233925 0.475624
2544 4 0.35272 0.223242 0.461415
3044 4 0.00783299 0.299614 0.48927
3043 2 0.0317606 0.296957 0.494403
715 2 0.085356 0.283553 0.428237
716 4 0.100348 0.293465 0.446799
3045 4 0.0556881 0.294299 0.499536
444 4 0.0770675 0.300334 0.498005
442 2 0.102189 0.301789 0.499712
443 4 0.12731 0.303245 0.501419
310 2 0.165566 0.291242 0.494052
311 4 0.190115 0.291733 0.488966
3059 4 0.203425 0.282124 0.480553
3058 2 0.226681 0.277012 0.475869
3060 4 0.249937 0.271901 0.471185
306 4 0.266567 0.279764 0.461215
304 2 0.290286 0.288019 0.454026
305 4 0.314004 0.296274 0.446838
453 4 0.334703 0.298133 0.452322
452 4 0.38261 0.306112 0.436348
451 2 0.358657 0.302123 0.444335
488 4 0.401224 0.305868 0.433477
487 2 0.426052 0.309938 0.43818
489 4 0.450881 0.314008 0.442883
118 3 0.469877 0.31099 0.438768
116 1 0.485248 0.30288 0.424715
119 3 0.49147 0.283489 0.433605
1029 4 0.455857 0.386286 0.480112
1027 2 0.48021 0.393517 0.474503
2637 4 0.479492 0.346093 0.49945
327 4 0.00155949 0.495789 0.489738
2958 4 0.0118472 0.453376 0.455955
2957 4 0.0548117 0.482617 0.443409
2956 2 0.0333295 0.467996 0.449682
569 4 0.0692546 0.49743 0.447288
2961 4 0.255986 0.477068 0.41862
2649 4 0.262156 0.467051 0.432934
2647 2 0.282429 0.457176 0.425557
2648 4 0.302701 0.4473 0.418181
560 4 0.467316 0.497845 0.481734
3317 4 0.453238 0.449525 0.439294
3962 4 0.473475 0.455507 0.445534
3316 2 0.433231 0.444447 0.454427
3318 4 0.413224 0.439369 0.469561
3961 2 0.4912 0.453821 0.46283
3121 2 0.014344 0.0530079 0.569801
3122 4 0.0383307 0.0547077 0.562114
3065 4 0.0566053 0.061516 0.558031
3064 2 0.0787155 0.0545579 0.551655
3066 4 0.100826 0.0475997 0.545279
3023 4 0.113603 0.0359597 0.553464
3022 2 0.132066 0.0231449 0.5602
3024 4 0.15053 0.0103302 0.566936
2996 4 0.162073 0.0161785 0.582142
2995 2 0.187276 0.0181159 0.581248
3309 4 0.224431 0.00966163 0.568685
3307 2 0.249679 0.0146592 0.568852
2997 4 0.212479 0.0200534 0.580355
3308 4 0.274927 0.0196568 0.56902
1262 4 0.290031 0.0343773 0.564093
1261 2 0.31469 0.0426894 0.561273
1263 4 0.33935 0.0510015 0.558453
2508 4 0.35301 0.0533892 0.541674
2506 2 0.377441 0.0619174 0.537616
2507 4 0.401872 0.0704456 0.533559
2455 2 0.474726 0.0455132 0.512956
2456 4 0.490095 0.0423244 0.532031
1162 2 0.464619 0.0129085 0.577682
1163 4 0.454004 0.0110839 0.55499
642 4 0.00333837 0.136039 0.522541
321 4 0.0218435 0.144795 0.517034
319 2 0.0457053 0.15091 0.509202
1131 4 0.0301517 0.165572 0.57284
320 4 0.0695671 0.157024 0.50137
3104 4 0.284745 0.095956 0.513306
3103 2 0.304629 0.111181 0.522451
3105 4 0.324512 0.126407 0.531596
3050 4 0.344316 0.130004 0.535999
3049 2 0.365707 0.120027 0.534656
3051 4 0.387098 0.11005 0.533313
88 3 0.40577 0.108818 0.538132
86 1 0.419018 0.125981 0.54953
90 3 0.420711 0.120351 0.571451
87 3 0.409037 0.145012 0.548032
89 3 0.440373 0.130145 0.539974
575 4 0.457025 0.128437 0.550259
574 2 0.480269 0.122833 0.546558
1129 2 0.00808438 0.168213 0.562182
1106 4 0.08296 0.230161 0.580612
1284 4 0.0626842 0.228156 0.584711
1105 2 0.108232 0.233383 0.580058
1107 4 0.133505 0.236606 0.579503
3080 4 0.185516 0.212566 0.554068
1075 2 0.179659 0.240748 0.581255
1077 4 0.20477 0.241977 0.582774
3079 2 0.204672 0.216976 0.537829
3081 4 0.223827 0.221387 0.52159
3267 4 0.226433 0.242794 0.58416
3498 4 0.242994 0.223435 0.51489
3265 2 0.251117 0.249717 0.579902
3496 2 0.267016 0.231951 0.508945
3497 4 0.291038 0.240468 0.503001
2810 4 0.305588 0.229507 0.505756
144 3 0.322913 0.239028 0.571919
3111 4 0.343824 0.232784 0.570216
3109 2 0.34502 0.225443 0.546425
3110 4 0.346216 0.218102 0.522634
2813 4 0.366858 0.219181 0.521549
3383 4 0.366003 0.234191 0.57989
2812 2 0.391026 0.219461 0.514988
2814 4 0.415194 0.219741 0.508427
2963 4 0.428418 0.227012 0.522739
1211 4 0.426344 0.226215 0.572855
2962 2 0.451915 0.239477 0.521312
1210 2 0.45085 0.228156 0.578777
312 4 0.141016 0.29075 0.499138
3237 4 0.215557 0.284329 0.55472
3235 2 0.225829 0.301377 0.538136
3236 4 0.236102 0.318425 0.521552
3266 4 0.275801 0.25664 0.575644
142 3 0.295065 0.26007 0.568996
141 1 0.317915 0.260711 0.572311
145 3 0.32941 0.272998 0.555743
1639 2 0.35888 0.304643 0.55916
1640 4 0.367643 0.328892 0.562457
1641 4 0.350117 0.280393 0.555863
936 4 0.368165 0.273624 0.545842
934 2 0.392537 0.273 0.540722
935 4 0.416909 0.272376 0.535603
695 4 0.438367 0.279259 0.530388
694 2 0.459572 0.294259 0.523995
2964 4 0.475413 0.251942 0.519885
696 4 0.480778 0.309259 0.517601
2604 4 0.494469 0.246268 0.519168
539 4 0.117876 0.412899 0.56927
2243 4 0.0983417 0.409707 0.572229
1280 4 0.386547 0.33991 0.569536
2847 4 0.35862 0.363816 0.526784
2845 2 0.377135 0.351022 0.520158
2846 4 0.395651 0.338227 0.513531
261 4 0.414813 0.345713 0.510399
1279 2 0.411069 0.34953 0.56954
601 2 0.447492 0.405879 0.517691
259 2 0.439539 0.351135 0.505502
1281 4 0.435591 0.35915 0.569544
348 4 0.453594 0.358789 0.579924
602 4 0.454257 0.39119 0.499554
260 4 0.464264 0.356558 0.500606
1161 4 0.00127564 0.500314 0.50946
538 2 0.135612 0.428171 0.556886
1136 4 0.147651 0.487361 0.504767
1135 2 0.157496 0.473269 0.521606
540 4 0.153349 0.443444 0.544502
1137 4 0.167341 0.459176 0.538445
4538 4 0.440465 0.43881 0.542777
4537 2 0.449439 0.439147 0.566132
603 4 0.440726 0.420569 0.535828
559 2 0.47729 0.491596 0.503346
561 4 0.487264 0.485348 0.524958
4058 4 0.492935 0.468066 0.534283
269 4 0.0125618 0.0313676 0.621335
268 2 0.0363872 0.0421299 0.625339
270 4 0.0602126 0.0528921 0.629343
4074 4 0.0781628 0.0661082 0.632158
4072 2 0.0983332 0.0716068 0.647014
4073 4 0.118504 0.0771055 0.661869
1164 4 0.475235 0.0147331 0.600373
954 4 0.494607 0.0164178 0.597483
856 2 0.0638219 0.157269 0.595628
858 4 0.0402268 0.160863 0.590169
857 4 0.0874171 0.153675 0.601086
2318 4 0.107938 0.156834 0.601736
2317 2 0.132966 0.157862 0.60406
2319 4 0.157995 0.15889 0.606383
950 4 0.178064 0.160237 0.604985
1283 4 0.01248 0.219704 0.590587
1282 2 0.0375821 0.22393 0.587649
1076 4 0.154547 0.23952 0.579735
3356 4 0.167364 0.248122 0.650939
949 2 0.187593 0.177857 0.621334
3355 2 0.142708 0.24921 0.648104
951 4 0.197122 0.195477 0.637683
3382 2 0.386558 0.247517 0.590053
1212 4 0.475356 0.230096 0.584698
1259 4 0.490745 0.238731 0.597683
905 4 0.10058 0.254136 0.639641
906 4 0.0503207 0.246902 0.645146
904 2 0.0754503 0.250519 0.642394
3357 4 0.118053 0.250299 0.64527
2627 4 0.186388 0.255295 0.656659
2626 2 0.210746 0.263934 0.652332
83 3 0.247711 0.287421 0.590638
82 3 0.24906 0.309407 0.621059
2628 4 0.235103 0.272573 0.648004
81 1 0.260671 0.304633 0.602233
3441 4 0.250891 0.264402 0.656791
84 3 0.264579 0.323625 0.588944
85 3 0.280702 0.298294 0.608413
806 4 0.297831 0.298562 0.619723
3439 2 0.275188 0.274756 0.655952
805 2 0.319856 0.310885 0.627862
143 3 0.323682 0.270453 0.592926
3440 4 0.299484 0.28511 0.655112
807 4 0.341881 0.323208 0.636001
978 4 0.358039 0.334366 0.628709
976 2 0.381891 0.330196 0.631642
3384 4 0.407114 0.260842 0.600215
3107 4 0.427011 0.268682 0.600077
3106 2 0.451236 0.278081 0.604115
977 4 0.405744 0.326025 0.634575
3108 4 0.475461 0.28748 0.608152
3165 4 0.492528 0.297753 0.617608
1205 4 0.00709786 0.390234 0.592843
1204 2 0.0243153 0.38571 0.609708
1206 4 0.0415328 0.381185 0.626573
2242 2 0.0900462 0.389856 0.586471
2244 4 0.0817507 0.370005 0.600713
1139 4 0.0625525 0.347982 0.625849
1138 2 0.0844286 0.358505 0.635972
1140 4 0.106305 0.369028 0.646094
798 4 0.122246 0.384119 0.648095
796 2 0.14447 0.376449 0.652564
797 4 0.166694 0.368779 0.657034
3420 4 0.39814 0.421972 0.620062
3418 2 0.417832 0.410006 0.615555
4559 4 0.416119 0.344605 0.634709
3419 4 0.437523 0.398039 0.611048
4558 2 0.436246 0.353942 0.648396
347 4 0.456923 0.398705 0.609929
346 2 0.455258 0.378747 0.594927
4560 4 0.456374 0.363278 0.662082
2140 2 0.0198407 0.487534 0.645855
2141 4 0.0397591 0.497386 0.659568
4092 4 0.0465624 0.48069 0.66252
3491 4 0.438278 0.486858 0.624441
3490 2 0.449633 0.468446 0.61512
3492 4 0.460988 0.450034 0.6058
4539 4 0.458413 0.439484 0.589486
2320 2 0.03904 0.0641244 0.714244
2321 4 0.0226653 0.0794112 0.707687
2322 4 0.0554147 0.0488376 0.720801
965 4 0.0713436 0.0624103 0.724673
964 2 0.0930294 0.0586278 0.713918
966 4 0.114715 0.0548454 0.703163
1005 4 0.129149 0.0566584 0.689833
1003 2 0.151105 0.0717188 0.69306
1021 2 0.241134 0.054353 0.690336
1023 4 0.246307 0.0310565 0.693041
1022 4 0.235961 0.0776495 0.68763
1970 4 0.0139643 0.131112 0.694661
1969 2 0.0261443 0.111294 0.696342
1971 4 0.0383243 0.0914769 0.698023
1004 4 0.173061 0.0867791 0.696287
2255 4 0.185526 0.101661 0.705188
2254 2 0.207349 0.0923815 0.7049
2256 4 0.229173 0.0831018 0.704611
3207 4 0.288625 0.146299 0.696743
3205 2 0.312942 0.147284 0.690412
3206 4 0.337258 0.148269 0.684081
3020 4 0.35718 0.152558 0.678958
3019 2 0.381883 0.159456 0.674783
3021 4 0.406585 0.166354 0.670609
3041 4 0.455374 0.126619 0.743835
3250 2 0.0527011 0.203479 0.749828
3252 4 0.0583909 0.220756 0.732022
3273 4 0.0613741 0.238462 0.721769
2982 4 0.227846 0.246408 0.728089
2980 2 0.21243 0.23762 0.746776
59 3 0.385932 0.18667 0.747636
3293 4 0.413361 0.18045 0.683561
3292 2 0.435939 0.174921 0.690397
1009 2 0.421874 0.203387 0.73761
1011 4 0.440642 0.210741 0.721516
3402 4 0.460372 0.220648 0.716392
3294 4 0.458516 0.169392 0.697232
4371 4 0.478024 0.172804 0.691825
3400 2 0.477118 0.204583 0.716773
3401 4 0.493864 0.188518 0.717153
3272 4 0.059098 0.279694 0.748769
3271 2 0.060236 0.259078 0.735269
3091 2 0.228071 0.326135 0.728058
3092 4 0.223185 0.317194 0.704978
3093 4 0.232956 0.335076 0.751138
896 4 0.315384 0.283876 0.668415
3074 4 0.309528 0.324395 0.694689
897 4 0.365509 0.289457 0.674763
895 2 0.340446 0.286667 0.671589
884 4 0.374781 0.307534 0.745038
1085 4 0.384163 0.297723 0.66776
1084 2 0.405394 0.2948 0.679887
1086 4 0.426625 0.291877 0.692013
3374 4 0.441209 0.29661 0.677277
3373 2 0.466435 0.301038 0.678796
3375 4 0.49166 0.305465 0.680315
3432 4 0.0106497 0.388425 0.714532
3263 4 0.0122494 0.398954 0.730894
3430 2 0.0356663 0.388991 0.712724
3431 4 0.060683 0.389557 0.710917
3275 4 0.0789066 0.400856 0.707546
3274 2 0.103643 0.406482 0.712307
3276 4 0.12838 0.412108 0.717068
3073 2 0.315986 0.339957 0.71382
3075 4 0.322444 0.35552 0.73295
3380 4 0.42683 0.392618 0.713649
3379 2 0.436688 0.37958 0.695884
3381 4 0.446547 0.366541 0.67812
4090 2 0.0565543 0.477337 0.684965
4091 4 0.0665462 0.473983 0.70741
1100 4 0.0734246 0.48279 0.721685
4494 4 0.147854 0.421535 0.712562
4492 2 0.170437 0.426081 0.723737
4493 4 0.193019 0.430626 0.734912
1956 4 0.210134 0.44345 0.735555
2409 4 0.438181 0.492966 0.72315
2407 2 0.417155 0.492028 0.736867
993 4 0.426084 0.444342 0.692124
991 2 0.444783 0.444812 0.708795
992 4 0.463482 0.445282 0.725467
942 4 0.480798 0.456105 0.73181
4529 4 0.0407655 0.0238231 0.808996
4528 2 0.0633988 0.0353261 0.801531
4530 4 0.0860321 0.0468292 0.794065
3305 4 0.0988396 0.0535695 0.808717
3304 2 0.123409 0.0514337 0.809778
3306 4 0.147978 0.049298 0.810839
3555 4 0.165169 0.0539809 0.801377
3553 2 0.189758 0.0565409 0.8071
1218 4 0.195413 0.00615156 0.756625
3554 4 0.214347 0.0591009 0.812823
193 3 0.232267 0.0595845 0.804827
191 1 0.251379 0.0606142 0.791486
192 3 0.246825 0.0691214 0.770924
194 3 0.256994 0.0393443 0.788581
195 3 0.268955 0.0742108 0.801099
3764 4 0.271768 0.0276859 0.791486
2283 4 0.273965 0.00105533 0.77566
3763 2 0.295888 0.0349772 0.797952
3765 4 0.320008 0.0422684 0.804417
1994 4 0.328033 0.0595281 0.798326
1993 2 0.353138 0.0604939 0.799423
1995 4 0.378244 0.0614597 0.800519
1194 4 0.388314 0.0675498 0.817178
1038 4 0.487872 0.00741874 0.819998
2349 4 0.46867 0.00425601 0.814742
2347 2 0.444187 0.00157886 0.808566
1090 2 0.25709 0.145143 0.785803
1134 4 0.238651 0.153132 0.82072
1091 4 0.239042 0.150712 0.801217
1112 4 0.280547 0.0883539 0.810717
1092 4 0.275137 0.139575 0.770388
839 4 0.287908 0.153908 0.781847
1111 2 0.304148 0.0979538 0.81719
838 2 0.31262 0.161735 0.778708
42 3 0.347021 0.113126 0.824004
1113 4 0.327749 0.107554 0.823663
41 1 0.367431 0.107854 0.831207
43 3 0.382679 0.110665 0.813582
3040 2 0.470885 0.14709 0.751002
3134 4 0.492578 0.143165 0.826227
3282 4 0.498804 0.162403 0.77244
834 4 0.0224574 0.205843 0.802889
154 3 0.0389069 0.209411 0.813845
3251 4 0.0470114 0.186201 0.767634
151 1 0.0592579 0.20639 0.804023
153 3 0.0555307 0.198489 0.782355
155 3 0.0736437 0.226086 0.803821
152 3 0.0687502 0.190897 0.81625
3591 4 0.0848252 0.204874 0.823281
1044 4 0.0912688 0.218936 0.808029
1042 2 0.110203 0.231133 0.794471
738 4 0.160476 0.230844 0.812488
1043 4 0.129138 0.243331 0.780913
737 4 0.19176 0.215065 0.779031
736 2 0.176118 0.222955 0.79576
2981 4 0.197015 0.228832 0.765463
840 4 0.337333 0.169563 0.775569
57 3 0.35647 0.177349 0.770835
870 4 0.377012 0.210427 0.827695
60 3 0.36891 0.213338 0.7639
863 4 0.39094 0.227955 0.825772
58 3 0.389836 0.193291 0.784947
56 1 0.375316 0.192836 0.766798
1010 4 0.403105 0.196032 0.753704
2978 4 0.40564 0.192141 0.774171
862 2 0.413602 0.241616 0.822072
2977 2 0.422463 0.188068 0.791625
2979 4 0.439286 0.183995 0.809079
864 4 0.436264 0.255277 0.818371
3042 4 0.486396 0.167562 0.758168
3486 4 0.457305 0.197615 0.814478
3484 2 0.482446 0.200582 0.817025
50 3 0.0200455 0.289584 0.779477
49 3 0.0162424 0.255807 0.762888
46 1 0.0298734 0.270892 0.776365
47 3 0.0324921 0.261037 0.796743
1046 4 0.999962 0.289586 0.783258
48 3 0.050979 0.276565 0.766569
922 2 0.201738 0.293165 0.798526
923 4 0.198445 0.26912 0.791673
482 4 0.221296 0.32428 0.816338
924 4 0.20503 0.317209 0.805378
801 4 0.306737 0.295413 0.820702
799 2 0.322274 0.317091 0.818615
3329 4 0.29942 0.279738 0.832674
883 2 0.398642 0.308129 0.752768
885 4 0.422502 0.308724 0.760498
1692 4 0.455288 0.258598 0.81176
1690 2 0.48019 0.258644 0.809437
3035 4 0.0116829 0.356481 0.801102
1073 4 0.0179405 0.356561 0.82002
3195 4 0.211742 0.368287 0.834637
2835 4 0.219471 0.372104 0.816414
2833 2 0.241759 0.386062 0.811665
2834 4 0.264047 0.40002 0.806916