ITEM: TIMESTEP
367500
ITEM: NUMBER OF ATOMS
4590
ITEM: BOX BOUNDS xy xz yz pp pp pp
-9.9985700000000008e+00 1.6997568999999999e+01 6.9989989999999977e+00
-9.9985700000000008e+00 9.9985700000000008e+00 0.0000000000000000e+00
-9.9985700000000008e+00 9.9985700000000008e+00 0.0000000000000000e+00
ITEM: ATOMS id type xs ys zs
3478 2 0.0232168 0.0714415 0.0320253
3479 4 0.0456164 0.0765091 0.0359183
2884 2 0.141028 0.0835945 0.0394386
1662 4 0.170551 0.0605104 0.0515619
1660 2 0.187572 0.0400685 0.0620485
1661 4 0.204592 0.0196267 0.0725351
2886 4 0.16704 0.0733198 0.0353005
2687 4 0.253483 0.0880827 0.0323329
2947 2 0.328442 0.0011742 0.0227061
2465 4 0.35004 0.0302797 0.0256104
2949 4 0.344707 0.0145832 0.025178
2708 4 0.269643 0.0821407 0.0198335
2464 2 0.375738 0.018623 0.0209246
2466 4 0.401435 0.00696639 0.0162388
150 3 0.402458 0.00428923 0.99677
3903 4 0.100574 0.08689 0.0501381
3901 2 0.0781288 0.0869942 0.0390464
3902 4 0.0556838 0.0870985 0.0279546
2885 4 0.115016 0.0938692 0.0435767
2688 4 0.202648 0.0908413 0.0348012
2686 2 0.228065 0.089462 0.0335671
2709 4 0.316435 0.0877727 0.029382
2707 2 0.293039 0.0849567 0.0246077
2670 4 0.321677 0.0913054 0.0491018
1252 2 0.350063 0.135122 0.0114659
2668 2 0.341802 0.100259 0.0470997
1253 4 0.359453 0.114654 0.0256534
2669 4 0.361928 0.109213 0.0450976
3345 4 0.44649 0.0905144 0.0179134
2882 4 0.454569 0.099583 0.031568
2881 2 0.467386 0.114023 0.0414324
2883 4 0.480203 0.128463 0.0512969
25 3 0.49504 0.136962 0.0589346
278 4 0.071595 0.240028 0.0687606
454 2 0.0920419 0.237509 0.00736753
456 4 0.117779 0.227853 0.0130315
2729 4 0.27621 0.225744 0.041701
3285 4 0.285161 0.239299 0.0483015
2728 2 0.294805 0.203478 0.0452611
2753 4 0.332051 0.173189 0.0580577
2730 4 0.313401 0.181211 0.0488212
2752 2 0.342652 0.181919 0.0770962
105 3 0.0105643 0.281253 0.0082488
101 1 0.0322349 0.283162 0.0122459
103 3 0.03601 0.283634 0.0351076
279 4 0.0544221 0.282827 0.0429892
102 3 0.0494719 0.265035 0.00319494
104 3 0.0336413 0.302514 0.00239717
914 4 3.69227e-05 0.271011 0.0163721
277 2 0.0630085 0.261427 0.0558749
2782 2 0.144655 0.327401 0.0703725
2842 2 0.170186 0.31873 0.00813134
2844 4 0.163905 0.327028 0.0314748
2784 4 0.15989 0.329536 0.0512625
3283 2 0.300425 0.252307 0.0562561
292 2 0.298452 0.323818 0.0673409
293 4 0.306687 0.329935 0.0454301
3284 4 0.315689 0.265315 0.0642106
2829 4 0.33511 0.261918 0.0676144
2827 2 0.357937 0.263835 0.0592863
2639 4 0.396994 0.256436 0.0392703
2638 2 0.400327 0.250573 0.0149976
2828 4 0.380764 0.265751 0.0509583
3215 4 0.479244 0.283093 0.0691021
1102 2 0.0120503 0.388183 0.0625099
1103 4 0.0302512 0.399653 0.0621726
2772 4 0.0460924 0.407715 0.0575509
2770 2 0.066887 0.414835 0.0518732
461 4 0.314444 0.338418 0.0273426
670 2 0.286405 0.402963 0.0794164
967 2 0.394714 0.331761 0.0412187
969 4 0.374788 0.333556 0.057016
460 2 0.338564 0.338548 0.0337612
462 4 0.362684 0.338677 0.0401797
2727 4 0.370936 0.378003 0.0752572
2725 2 0.347638 0.377617 0.0839709
3728 4 0.376262 0.395798 0.0747619
968 4 0.41464 0.329967 0.0254213
3727 2 0.401798 0.393429 0.0717359
3729 4 0.427333 0.39106 0.0687099
3543 4 0.447078 0.390339 0.0668781
3541 2 0.470171 0.39347 0.0723814
3542 4 0.493263 0.396601 0.0778847
2581 2 0.00538946 0.445696 0.0692572
2583 4 0.0168121 0.463136 0.0729818
2912 4 0.0345523 0.466155 0.0739323
2911 2 0.0357576 0.475863 0.0513549
2913 4 0.0369629 0.485572 0.0287776
3258 4 0.0530716 0.480375 0.0163269
2771 4 0.0876816 0.421955 0.0461954
2522 4 0.101334 0.429488 0.0371662
2521 2 0.126818 0.427979 0.0375007
3339 4 0.173542 0.424108 0.036379
2523 4 0.152301 0.426471 0.0378351
3337 2 0.199679 0.419796 0.0360983
646 2 0.200172 0.461143 0.0799018
647 4 0.222059 0.448138 0.0674303
3338 4 0.225815 0.415484 0.0358175
672 4 0.264293 0.422778 0.0779336
4512 4 0.404496 0.492297 0.0517373
2733 4 0.0264042 0.0257423 0.144058
2731 2 0.0133795 0.0219331 0.16417
2768 4 0.0646389 0.0678115 0.131616
2767 2 0.0831398 0.0788887 0.130307
1475 4 0.196704 0.00829047 0.0828563
1372 2 0.178203 0.00129168 0.161664
1651 2 0.456575 0.00188351 0.100413
1653 4 0.478511 0.00392274 0.110804
2179 2 0.458467 0.0258995 0.161257
2180 4 0.467104 0.0418894 0.148337
1749 4 0.474877 0.0530213 0.135265
2769 4 0.101641 0.0899659 0.128997
697 2 0.106543 0.113064 0.157546
699 4 0.104208 0.107053 0.133685
721 2 0.263494 0.101837 0.161524
722 4 0.285473 0.107245 0.156417
355 2 0.29801 0.155471 0.101939
356 4 0.31678 0.13381 0.107486
758 4 0.314542 0.132283 0.127915
757 2 0.31036 0.116196 0.14435
759 4 0.306177 0.100109 0.160785
2790 4 0.190035 0.172549 0.167311
623 4 0.268146 0.19333 0.107301
357 4 0.27924 0.177132 0.096393
622 2 0.269242 0.203306 0.129765
624 4 0.270338 0.213283 0.152228
506 4 0.286257 0.208365 0.165511
2754 4 0.353254 0.190648 0.0961347
2786 4 0.370912 0.193326 0.0906038
2785 2 0.37416 0.208663 0.108372
2787 4 0.377408 0.224 0.126141
3141 4 0.0131417 0.283594 0.105896
3139 2 0.0341352 0.291163 0.108883
2471 4 0.010329 0.327213 0.157036
1055 4 0.0610445 0.273952 0.166548
3140 4 0.0551288 0.298732 0.11187
2540 4 0.0680383 0.290103 0.162036
621 4 0.0735798 0.302595 0.110083
619 2 0.0932339 0.311647 0.105352
620 4 0.112888 0.3207 0.100621
2783 4 0.12942 0.325266 0.0894826
294 4 0.290217 0.3177 0.0892517
525 4 0.294803 0.314828 0.107721
523 2 0.313205 0.318487 0.122701
524 4 0.331607 0.322146 0.137681
288 4 0.353027 0.315593 0.133175
286 2 0.370933 0.326514 0.138983
252 4 0.407293 0.332936 0.135667
250 2 0.431983 0.332516 0.130909
350 4 0.474033 0.317583 0.122701
349 2 0.494938 0.32552 0.123842
2470 2 0.0287157 0.338218 0.160121
2571 4 0.064935 0.341652 0.154615
2569 2 0.0813343 0.35229 0.144267
2570 4 0.0977336 0.362928 0.133918
2969 4 0.117934 0.353101 0.133267
2968 2 0.134325 0.366347 0.136023
2970 4 0.150716 0.379593 0.13878
671 4 0.308517 0.383149 0.0808992
287 4 0.38884 0.337436 0.144792
2726 4 0.32434 0.37723 0.0926846
251 4 0.456673 0.332097 0.126152
2705 4 0.456647 0.366 0.164994
1465 2 0.00641508 0.484809 0.118134
1467 4 0.0309133 0.486078 0.119335
4211 4 0.0472429 0.487161 0.131786
729 4 0.0609931 0.428033 0.156375
648 4 0.178286 0.474148 0.0923733
2093 4 0.158868 0.458657 0.14057
3635 4 0.169737 0.481108 0.112634
2092 2 0.183755 0.44845 0.132404
2094 4 0.208641 0.438243 0.124238
2919 4 0.215721 0.454274 0.12794
2917 2 0.239045 0.457728 0.124565
2918 4 0.262369 0.461182 0.121189
1673 4 0.286546 0.491411 0.137557
2547 4 5.51769e-05 0.0219242 0.204495
2732 4 0.000354698 0.0181239 0.184283
2545 2 0.0164068 0.0313411 0.216762
2546 4 0.0327585 0.0407579 0.229029
3722 4 0.0402667 0.0455978 0.245341
1373 4 0.172236 0.0180847 0.180189
2519 4 0.19015 0.077921 0.190688
688 2 0.227598 0.0116848 0.244553
690 4 0.249154 0.00504722 0.23002
404 4 0.435917 0.00268002 0.168127
249 4 0.375415 0.0411663 0.193561
247 2 0.37657 0.0431092 0.218421
248 4 0.377725 0.0450521 0.243282
405 4 0.385989 0.026346 0.182489
393 4 0.39132 0.0569474 0.241675
403 2 0.410953 0.014513 0.175308
391 2 0.413982 0.0586153 0.250734
2181 4 0.44983 0.0099097 0.174177
428 4 0.455643 0.0517574 0.249907
2951 4 0.0146362 0.161512 0.201924
2950 2 0.0386682 0.161338 0.194814
522 4 0.0704069 0.116767 0.228074
632 4 0.0655388 0.124208 0.247973
520 2 0.0903505 0.11043 0.211618
521 4 0.110294 0.104093 0.195161
2952 4 0.0627002 0.161163 0.187705
2672 4 0.0829261 0.155263 0.187376
698 4 0.108878 0.119075 0.181407
2671 2 0.105493 0.159849 0.182921
2789 4 0.148631 0.15776 0.177909
2673 4 0.12806 0.164435 0.178465
2518 2 0.211626 0.0847819 0.18786
2520 4 0.233102 0.0916427 0.185032
723 4 0.241516 0.0964284 0.166631
2788 2 0.169333 0.165154 0.17261
606 4 0.261619 0.139194 0.229542
731 4 0.281887 0.133216 0.225827
730 2 0.308321 0.125591 0.227311
732 4 0.334756 0.117967 0.228794
581 4 0.351642 0.108475 0.218096
580 2 0.374932 0.108904 0.226788
582 4 0.398222 0.109334 0.23548
750 4 0.413897 0.116198 0.229988
748 2 0.43248 0.127222 0.230224
749 4 0.451064 0.138245 0.23046
459 4 0.457514 0.152604 0.238221
284 4 0.0705082 0.229561 0.243366
390 4 0.0497902 0.236026 0.239397
285 4 0.076506 0.231187 0.193818
283 2 0.0735071 0.230374 0.218592
505 2 0.307888 0.201187 0.179938
507 4 0.329519 0.194009 0.194364
578 4 0.348904 0.187501 0.203977
577 2 0.36517 0.194825 0.218707
579 4 0.381436 0.20215 0.233438
235 2 0.404662 0.21861 0.236057
236 4 0.379165 0.220734 0.23887
237 4 0.430159 0.216486 0.233245
458 4 0.448474 0.201819 0.234803
457 2 0.452994 0.177211 0.236512
1056 4 0.0126717 0.276067 0.181626
1054 2 0.0368581 0.27501 0.174087
2798 4 0.998581 0.272543 0.168524
2539 2 0.0920928 0.282033 0.172492
2541 4 0.116147 0.273962 0.182948
2472 4 0.0471023 0.349223 0.163207
728 4 0.0954969 0.404778 0.191939
2538 4 0.11697 0.398876 0.192375
2536 2 0.1392 0.402967 0.199342
2537 4 0.16143 0.407059 0.206308
714 4 0.179353 0.413461 0.20456
712 2 0.204183 0.411867 0.210352
713 4 0.229012 0.410272 0.216143
339 4 0.24761 0.414544 0.213257
2556 4 0.348026 0.360098 0.200262
2554 2 0.364502 0.373148 0.196793
2555 4 0.380979 0.386198 0.193323
2526 4 0.396233 0.392147 0.202524
2524 2 0.420701 0.392553 0.206922
2525 4 0.44517 0.392958 0.211321
2862 4 0.464292 0.397636 0.21604
2704 2 0.473331 0.365971 0.183626
2860 2 0.483672 0.407522 0.218446
2706 4 0.490016 0.365942 0.202258
2493 4 0.497367 0.365714 0.220929
727 2 0.078245 0.416405 0.174157
395 4 0.0783948 0.468309 0.217424
394 2 0.104115 0.465249 0.214552
396 4 0.129835 0.462188 0.211679
3920 4 0.148724 0.464905 0.215033
3919 2 0.172437 0.46784 0.217156
3921 4 0.19615 0.470774 0.219278
2820 4 0.211352 0.47151 0.231496
337 2 0.271516 0.41543 0.207095
2818 2 0.237141 0.468635 0.229838
2819 4 0.262929 0.46576 0.228181
3566 4 0.280487 0.469697 0.226736
338 4 0.295422 0.416315 0.200933
677 4 0.31406 0.419772 0.201229
3565 2 0.298316 0.481319 0.223479
3567 4 0.316145 0.492942 0.220222
676 2 0.333831 0.429255 0.202688
4031 4 0.336932 0.492547 0.219854
678 4 0.353603 0.438737 0.204146
1425 4 0.37275 0.440664 0.201254
4030 2 0.359117 0.498527 0.219704
1423 2 0.394291 0.445532 0.193434
1424 4 0.415832 0.4504 0.185614
1437 4 0.431612 0.457056 0.19083
4368 4 0.403147 0.496696 0.219582
1435 2 0.457057 0.455507 0.192453
1436 4 0.482502 0.453958 0.194076
645 4 0.500621 0.45681 0.188807
3875 4 0.998203 0.0279051 0.303625
122 3 0.0103499 0.0384143 0.311915
121 1 0.0197412 0.0546995 0.317932
123 3 0.034252 0.057326 0.300803
3723 4 0.032358 0.0725499 0.287436
3721 2 0.0363123 0.0590739 0.266388
124 3 0.00135485 0.0745921 0.321422
689 4 0.206042 0.0183224 0.259086
392 4 0.436643 0.0602832 0.259792
427 2 0.479101 0.0548261 0.25364
2892 4 0.00688707 0.156258 0.267217
633 4 0.0480364 0.113237 0.291847
2878 2 0.0516241 0.0983006 0.332799
631 2 0.0567876 0.118723 0.26991
2879 4 0.0541318 0.0990621 0.307961
27 3 0.232512 0.147966 0.326986
605 4 0.237079 0.15665 0.272628
26 1 0.24594 0.148816 0.308546
29 3 0.231044 0.160624 0.29172
604 2 0.249349 0.147922 0.251085
28 3 0.257913 0.127161 0.301462
30 3 0.261735 0.159257 0.314147
1032 4 0.276615 0.116503 0.292696
546 4 0.275196 0.16361 0.326931
1030 2 0.300774 0.117839 0.288585
1031 4 0.324934 0.119175 0.284475
1376 4 0.470623 0.109539 0.333884
2945 4 0.489798 0.166205 0.287541
2870 4 0.487112 0.116288 0.335774
389 4 0.0135778 0.239818 0.275025
388 2 0.031684 0.237922 0.257211
2591 4 0.138304 0.215039 0.270488
2590 2 0.141826 0.237217 0.268044
544 2 0.295275 0.172623 0.328975
545 4 0.315354 0.181635 0.331018
387 4 0.491141 0.225705 0.268426
385 2 0.494321 0.248134 0.269126
710 4 0.00842872 0.282695 0.319981
2592 4 0.145349 0.259396 0.265601
611 4 0.15201 0.266661 0.282623
610 2 0.165443 0.281694 0.289674
612 4 0.178876 0.296728 0.296725
413 4 0.192446 0.29083 0.311672
412 2 0.216311 0.293179 0.314867
414 4 0.240176 0.295528 0.318061
345 4 0.292573 0.297007 0.26317
343 2 0.31358 0.30477 0.264612
344 4 0.334588 0.312533 0.266055
2654 4 0.346449 0.314501 0.282433
2653 2 0.356571 0.32406 0.301206
386 4 0.4975 0.270563 0.269826
681 4 0.201245 0.407011 0.260334
2655 4 0.366694 0.333619 0.319979
1802 4 0.385369 0.393035 0.265007
1801 2 0.40611 0.401177 0.263478
1803 4 0.426852 0.40932 0.261949
753 4 0.443999 0.413799 0.265283
679 2 0.19528 0.431713 0.263124
680 4 0.189315 0.456415 0.265914
3884 4 0.197346 0.47043 0.269938
3883 2 0.199748 0.48117 0.29166
3885 4 0.20215 0.491911 0.313383
2532 4 0.197829 0.477232 0.32297
1575 4 0.292566 0.441012 0.284174
1573 2 0.318457 0.437904 0.284747
1574 4 0.344347 0.434796 0.28532
543 4 0.362897 0.43641 0.28917
541 2 0.382331 0.444486 0.297197
542 4 0.401765 0.452561 0.305224
245 4 0.416404 0.458711 0.31548
244 2 0.438969 0.458458 0.32643
752 4 0.47104 0.445695 0.270167
4 3 0.492626 0.434754 0.266654
751 2 0.457519 0.429747 0.267725
246 4 0.461534 0.458205 0.337381
125 3 0.0325765 0.0483822 0.33706
3504 4 0.0132301 0.00198204 0.362758
2113 2 0.0194328 0.0178818 0.40825
2114 4 0.041779 0.0235821 0.407814
4355 4 0.0720407 0.011931 0.336839
4354 2 0.0867571 0.0247855 0.346363
4356 4 0.101474 0.03764 0.355888
2817 4 0.117214 0.0378342 0.370707
2815 2 0.141432 0.0372914 0.363815
2816 4 0.165651 0.0367486 0.356924
2714 4 0.184454 0.0378578 0.350724
2713 2 0.206102 0.0433152 0.357082
2715 4 0.227749 0.0487726 0.36344
3477 4 0.245577 0.0493512 0.373946
3475 2 0.265502 0.0566553 0.365797
3476 4 0.285427 0.0639594 0.357647
1244 4 0.301856 0.0707468 0.353285
1243 2 0.325661 0.073676 0.353075
1245 4 0.349467 0.0766053 0.352865
2667 4 0.367261 0.0810492 0.356992
1523 4 0.47287 0.0479024 0.412199
1522 2 0.480682 0.0523609 0.389451
1524 4 0.488493 0.0568195 0.366703
2880 4 0.0491164 0.0975392 0.357636
420 4 0.0512123 0.112044 0.371203
418 2 0.0689017 0.112755 0.388607
419 4 0.0865912 0.113466 0.406011
4239 4 0.105115 0.0998541 0.411806
2559 4 0.175286 0.0797464 0.393569
4237 2 0.128934 0.0943428 0.401054
4238 4 0.152753 0.0888315 0.390302
1034 4 0.162838 0.157944 0.384146
2557 2 0.190312 0.0846863 0.411458
1033 2 0.181487 0.164051 0.396629
2665 2 0.388229 0.0876378 0.35066
2666 4 0.409197 0.0942263 0.344329
1377 4 0.430306 0.0918811 0.339077
2900 4 0.437552 0.121294 0.396721
1375 2 0.450464 0.10071 0.33648
1035 4 0.200135 0.170159 0.409111
510 4 0.211003 0.249464 0.402701
939 4 0.304117 0.191131 0.41034
937 2 0.285985 0.183099 0.421387
531 4 0.334946 0.183921 0.332024
1199 4 0.310588 0.22897 0.371316
1198 2 0.327611 0.230464 0.353566
1200 4 0.344635 0.231958 0.335816
529 2 0.36083 0.17786 0.336899
530 4 0.386715 0.1718 0.341773
2585 4 0.321179 0.196267 0.41501
2766 4 0.348077 0.246736 0.345452
651 4 0.457984 0.170627 0.384599
3158 4 0.401564 0.175389 0.354888
3157 2 0.422934 0.179967 0.363635
3159 4 0.444304 0.184544 0.372383
2484 4 0.435857 0.21372 0.404837
2482 2 0.435325 0.229207 0.385825
2483 4 0.434794 0.244694 0.366814
649 2 0.48341 0.169242 0.385679
764 4 0.149091 0.265762 0.372207
765 4 0.197436 0.261932 0.388838
763 2 0.173263 0.263847 0.380522
508 2 0.228436 0.261093 0.397456
509 4 0.24587 0.272723 0.392211
717 4 0.25895 0.281558 0.401702
715 2 0.281629 0.284333 0.409325
2764 2 0.36439 0.26009 0.347982
2765 4 0.380704 0.273444 0.350512
2802 4 0.390859 0.283113 0.337032
2800 2 0.413352 0.272999 0.349824
2699 4 0.395564 0.324203 0.352279
2801 4 0.435846 0.262884 0.362616
488 4 0.459399 0.335151 0.408463
487 2 0.483991 0.335502 0.412238
3422 4 0.365287 0.417238 0.362027
2698 2 0.41295 0.33579 0.357861
2700 4 0.430336 0.347378 0.363443
2904 4 0.44604 0.354196 0.35967
3642 4 0.430169 0.407233 0.38156
3640 2 0.454726 0.408279 0.383263
2902 2 0.469548 0.356521 0.354356
3421 2 0.390227 0.416604 0.365744
3423 4 0.415166 0.41597 0.36946
3641 4 0.479284 0.409325 0.384965
2903 4 0.493056 0.358845 0.349041
3582 4 0.00624545 0.453069 0.40304
3580 2 0.0241164 0.463729 0.409743
549 4 0.0574355 0.458874 0.375675
3581 4 0.0419873 0.474388 0.416445
547 2 0.0798562 0.461187 0.36672
548 4 0.102277 0.4635 0.357765
1434 4 0.111697 0.46671 0.376083
1432 2 0.136082 0.460978 0.366518
1433 4 0.160468 0.455247 0.356953
2531 4 0.181397 0.451078 0.35706
2530 2 0.189613 0.464155 0.340015
2712 4 0.481059 0.426833 0.388911
669 4 0.47622 0.466522 0.341787
2139 4 0.437338 0.492462 0.381666
2137 2 0.432616 0.481065 0.402146
1184 4 0.0503812 0.0298129 0.423962
1183 2 0.0732298 0.0324402 0.431266
1185 4 0.0960784 0.0350674 0.438571
983 4 0.154473 0.0347428 0.443152
982 2 0.172576 0.0439649 0.45238
984 4 0.190679 0.053187 0.461607
217 3 0.204912 0.060102 0.471209
216 1 0.215602 0.075083 0.464078
220 3 0.236212 0.0638023 0.453411
2457 4 0.254503 0.0565887 0.465727
2455 2 0.278568 0.0553545 0.473797
2456 4 0.302633 0.0541203 0.481867
3852 4 0.30339 0.066325 0.496853
1058 4 0.466381 0.0580412 0.427272
1967 4 0.485414 0.00171836 0.489643
1057 2 0.484368 0.0616324 0.442827
3032 4 0.478479 0.0842963 0.494119
2558 4 0.205339 0.0896262 0.429347
218 3 0.20041 0.0902033 0.449526
219 3 0.220244 0.0862744 0.482514
2195 4 0.2278 0.103149 0.485272
2553 4 0.244161 0.111135 0.479749
2551 2 0.269679 0.107645 0.484507
371 4 0.260356 0.150352 0.486654
2552 4 0.295198 0.104154 0.489266
762 4 0.308123 0.115024 0.494369
760 2 0.331854 0.11514 0.486617
761 4 0.355584 0.115257 0.478865
3173 4 0.37409 0.115719 0.476091
3172 2 0.396547 0.118486 0.467798
3174 4 0.419004 0.121253 0.459504
2901 4 0.423122 0.132241 0.44435
2899 2 0.430337 0.126767 0.420536
2612 4 0.20271 0.168092 0.428859
2611 2 0.227528 0.167821 0.432584
2613 4 0.252346 0.16755 0.43631
370 2 0.269827 0.169433 0.486104
938 4 0.267853 0.175067 0.432435
372 4 0.279298 0.188514 0.485555
473 4 0.299128 0.185279 0.478327
472 2 0.319096 0.19142 0.488243
2584 2 0.337036 0.207531 0.425321
2586 4 0.352893 0.218795 0.435631
724 2 0.358429 0.224884 0.496659
725 4 0.361578 0.246457 0.489927
474 4 0.339063 0.19756 0.498159
2685 4 0.374213 0.214118 0.434639
2683 2 0.398547 0.212262 0.426844
2684 4 0.422881 0.210407 0.419048
10 3 0.427148 0.217218 0.486613
8 3 0.3922 0.222249 0.50367
368 4 0.446708 0.216108 0.48025
367 2 0.472948 0.20774 0.476821
369 4 0.499187 0.199372 0.473392
3043 2 0.127567 0.281874 0.492161
3044 4 0.104388 0.278061 0.495279
443 4 0.212629 0.255116 0.467983
3045 4 0.150746 0.285687 0.489043
444 4 0.161165 0.267412 0.47918
442 2 0.186897 0.261264 0.473581
310 2 0.250898 0.265323 0.466839
312 4 0.229685 0.258806 0.461291
311 4 0.27211 0.27184 0.472387
716 4 0.304309 0.287109 0.416947
3059 4 0.290196 0.273162 0.467197
3058 2 0.311739 0.279093 0.461524
3060 4 0.333281 0.285025 0.455851
306 4 0.352996 0.285394 0.449222
304 2 0.372159 0.295054 0.444358
305 4 0.391321 0.304714 0.439494
453 4 0.408517 0.308437 0.432343
2498 4 0.438462 0.252787 0.437454
451 2 0.425973 0.318134 0.422522
2497 2 0.459897 0.259006 0.432068
452 4 0.443429 0.32783 0.412701
2499 4 0.481332 0.265225 0.426683
2930 4 0.489789 0.280718 0.429759
602 4 0.18845 0.397193 0.479408
1029 4 0.192396 0.403538 0.460644
601 2 0.165722 0.41024 0.490592
1027 2 0.216264 0.406313 0.461331
1028 4 0.240133 0.409087 0.462019
1172 4 0.254957 0.404983 0.44765
1171 2 0.276147 0.412198 0.450924
3456 4 0.383735 0.404125 0.488269
2637 4 0.435932 0.353745 0.500262
3454 2 0.399986 0.415671 0.497218
2635 2 0.457897 0.357358 0.491745
2636 4 0.479861 0.360971 0.483228
3318 4 0.0525972 0.467034 0.432974
3316 2 0.0761234 0.467155 0.441322
3317 4 0.0996497 0.467275 0.44967
3962 4 0.11773 0.473092 0.448986
3961 2 0.142478 0.468249 0.457369
3963 4 0.167226 0.463406 0.465751
1173 4 0.297336 0.419414 0.454198
2108 4 0.312031 0.424842 0.460708
2107 2 0.333049 0.431221 0.467331
2109 4 0.354068 0.437601 0.473954
1698 4 0.369091 0.443113 0.462335
1697 4 0.404968 0.431417 0.425541
1696 2 0.38703 0.437265 0.443938
593 4 0.422099 0.421884 0.436901
4179 4 0.435568 0.415251 0.500475
592 2 0.444498 0.425652 0.443861
2138 4 0.427894 0.469668 0.422625
3072 4 0.489506 0.437434 0.491306
4177 2 0.452348 0.42822 0.498883
1445 4 0.437353 0.474132 0.438507
594 4 0.466897 0.42942 0.450821
1444 2 0.455007 0.478348 0.454046
326 4 0.478399 0.498503 0.465974
4178 4 0.469128 0.441188 0.497292
1446 4 0.47266 0.482564 0.469586
3049 2 0.0144498 0.0777566 0.571307
3023 4 0.0181619 0.0100583 0.561267
3051 4 0.0390381 0.0786768 0.573259
3022 2 0.037613 0.0171967 0.570882
88 3 0.0498878 0.0737491 0.556228
3066 4 0.998448 0.0121898 0.563156
3024 4 0.0570641 0.0243352 0.580496
86 1 0.0679683 0.082704 0.553372
89 3 0.0870915 0.0673064 0.542757
2507 4 0.0948561 0.0817935 0.530638
2506 2 0.120039 0.0667187 0.529362
2508 4 0.145222 0.0516439 0.528085
1263 4 0.164501 0.0371241 0.530121
1261 2 0.171851 0.0435791 0.552284
1262 4 0.179202 0.050034 0.574446
3850 2 0.314816 0.0746446 0.515571
3851 4 0.326243 0.0829641 0.534289
3326 4 0.346998 0.0710763 0.530871
3325 2 0.372816 0.065751 0.526076
944 4 0.412571 0.0529499 0.535888
3327 4 0.398635 0.0604256 0.521282
943 2 0.436049 0.0560099 0.539511
945 4 0.459528 0.0590699 0.543134
1966 2 0.47491 0.00389776 0.512567
3033 4 0.478104 0.0537281 0.532115
3031 2 0.478292 0.0690122 0.513117
1968 4 0.464406 0.00607716 0.535491
90 3 0.0748242 0.0883569 0.573587
87 3 0.0597948 0.101539 0.540261
575 4 0.100248 0.100288 0.527064
574 2 0.108614 0.11961 0.52227
576 4 0.116981 0.138932 0.517477
2241 4 0.133233 0.141465 0.527827
2239 2 0.142261 0.157629 0.540004
2196 4 0.199969 0.136118 0.519159
2194 2 0.213885 0.119634 0.502215
1142 4 0.397276 0.146333 0.529771
2502 4 0.405047 0.126196 0.524105
2500 2 0.431078 0.113815 0.525154
1141 2 0.402646 0.166434 0.53797
2501 4 0.457109 0.101434 0.526202
900 4 0.471137 0.112792 0.527798
898 2 0.486013 0.127581 0.529893
1130 4 0.488952 0.147286 0.57992
2240 4 0.151288 0.173793 0.55218
960 4 0.163759 0.176304 0.567519
726 4 0.35528 0.203311 0.50339
1143 4 0.408017 0.186535 0.54617
7 3 0.423398 0.191389 0.510323
917 4 0.426718 0.191772 0.5506
6 1 0.416657 0.213936 0.50591
9 3 0.423732 0.224491 0.523545
916 2 0.451895 0.190486 0.547119
918 4 0.477071 0.1892 0.543637
1075 2 0.486494 0.206411 0.581963
3237 4 0.278987 0.315351 0.545131
2847 4 0.31571 0.341219 0.533538
83 3 0.357776 0.26701 0.57181
3235 2 0.290576 0.328922 0.531939
1639 2 0.477645 0.322677 0.562123
3236 4 0.302165 0.342494 0.518747
2845 2 0.339834 0.340999 0.526695
2846 4 0.363958 0.34078 0.519851
261 4 0.382735 0.332226 0.527659
1640 4 0.452843 0.330392 0.570908
259 2 0.402493 0.338373 0.517297
260 4 0.422251 0.344521 0.506936
559 2 0.00909001 0.493084 0.525909
561 4 0.0292878 0.499052 0.535546
4057 2 0.0618984 0.496055 0.545349
4059 4 0.0806711 0.483741 0.561609
4538 4 0.101009 0.472961 0.565139
4131 4 0.128298 0.434632 0.516441
4129 2 0.131704 0.456279 0.522439
4130 4 0.135111 0.477926 0.528436
603 4 0.142993 0.423287 0.501776
2630 4 0.152591 0.482887 0.521929
2629 2 0.165418 0.499446 0.51988
2129 4 0.345529 0.45848 0.579231
3455 4 0.416237 0.427218 0.506168
791 4 0.395844 0.442515 0.541329
790 2 0.410521 0.457546 0.539996
792 4 0.425198 0.472576 0.538663
2214 4 0.440443 0.478189 0.549043
2212 2 0.465286 0.464477 0.543092
2213 4 0.490128 0.450765 0.537141
2996 4 0.0699485 0.0266518 0.594618
2995 2 0.0862537 0.0399599 0.59168
2997 4 0.102559 0.053268 0.588741
3309 4 0.111783 0.0634875 0.601108
3307 2 0.136902 0.0592439 0.594134
3308 4 0.16202 0.0550003 0.58716
953 4 0.409663 0.0423559 0.648207
952 2 0.419304 0.0265212 0.629296
954 4 0.428945 0.0106866 0.610385
1164 4 0.439751 0.998479 0.596572
958 2 0.169966 0.188276 0.586853
959 4 0.176172 0.200248 0.606186
1256 4 0.189811 0.208616 0.600848
1255 2 0.214694 0.208934 0.601473
1257 4 0.239576 0.209252 0.602098
1155 4 0.260416 0.19925 0.60549
1153 2 0.284458 0.198512 0.59781
1154 4 0.3085 0.197773 0.59013
1283 4 0.32711 0.200749 0.595714
1282 2 0.352495 0.19869 0.599264
1284 4 0.37788 0.196632 0.602813
3356 4 0.354862 0.24966 0.660872
82 3 0.373676 0.244186 0.600605
2627 4 0.364359 0.249835 0.643985
1106 4 0.399364 0.192726 0.602741
1105 2 0.421663 0.196342 0.595202
1107 4 0.443962 0.199958 0.587664
3441 4 0.430794 0.248508 0.625947
1076 4 0.46382 0.201768 0.585595
906 4 0.243767 0.251258 0.635384
904 2 0.263833 0.258673 0.642915
3357 4 0.302874 0.268888 0.65178
905 4 0.283898 0.266088 0.650445
3355 2 0.328868 0.259274 0.656326
84 3 0.334439 0.262454 0.600131
81 1 0.356454 0.263861 0.594671
2626 2 0.388423 0.251775 0.640951
2628 4 0.412487 0.253715 0.637917
3419 4 0.337668 0.334297 0.606065
85 3 0.360086 0.281115 0.60596
806 4 0.377562 0.287571 0.603473
805 2 0.398693 0.294359 0.608625
807 4 0.419823 0.301147 0.613777
978 4 0.431594 0.303111 0.629039
976 2 0.426254 0.322992 0.644114
3439 2 0.45073 0.257817 0.625194
3440 4 0.470666 0.267125 0.62444
896 4 0.484921 0.277909 0.625131
895 2 0.494642 0.29531 0.63364
3433 2 0.00595101 0.337552 0.627609
3434 4 0.0261615 0.345102 0.620832
797 4 0.0222708 0.41379 0.640669
3420 4 0.296221 0.336252 0.577164
3418 2 0.316945 0.335274 0.591615
347 4 0.346701 0.3412 0.590689
346 2 0.365481 0.349025 0.600733
4558 2 0.37518 0.358301 0.661221
348 4 0.384262 0.35685 0.610777
3112 2 0.378038 0.41562 0.658037
4559 4 0.40017 0.35138 0.652976
1281 4 0.401345 0.349128 0.59815
1280 4 0.453407 0.33696 0.589932
1279 2 0.427376 0.343044 0.594041
977 4 0.420914 0.342874 0.65919
3114 4 0.394741 0.411795 0.638686
4215 4 0.412703 0.416846 0.64034
4213 2 0.433924 0.419512 0.629059
3490 2 0.0549696 0.492819 0.62924
3492 4 0.0762621 0.473929 0.621974
4539 4 0.090949 0.459305 0.610899
4537 2 0.0959788 0.466133 0.588019
4362 4 0.322628 0.484933 0.642259
4360 2 0.343787 0.490898 0.649273
2128 2 0.361927 0.471145 0.584788
2130 4 0.378325 0.483809 0.590345
3465 4 0.411494 0.490588 0.64573
1983 4 0.395142 0.478912 0.603199
3463 2 0.40923 0.46847 0.651723
1981 2 0.417443 0.484572 0.60132
3464 4 0.406967 0.446353 0.657716
4361 4 0.364946 0.496863 0.656287
2170 2 0.476273 0.496647 0.585919
4214 4 0.455145 0.422179 0.617778
2171 4 0.461135 0.486776 0.599414
1982 4 0.439744 0.490233 0.59944
1911 4 0.470164 0.431451 0.616151
1909 2 0.489629 0.434758 0.602405
1023 4 0.0511872 0.0761269 0.717793
3084 4 0.254218 0.0106789 0.686845
1022 4 0.00151928 0.10678 0.7111
1021 2 0.0263532 0.0914532 0.714447
3009 4 0.154643 0.134457 0.743656
3126 4 0.255324 0.0923398 0.703555
3124 2 0.244559 0.112062 0.688679
3125 4 0.233794 0.131785 0.673804
3062 4 0.00750082 0.170707 0.697874
3061 2 0.0312936 0.173623 0.69886
3063 4 0.0550863 0.176539 0.699847
3167 4 0.0693069 0.185407 0.707596
3166 2 0.0914726 0.189227 0.699966
3168 4 0.113638 0.193046 0.692335
3002 4 0.126646 0.205243 0.695725
3001 2 0.151387 0.205584 0.698377
3003 4 0.176128 0.205925 0.701028
2174 4 0.195762 0.196982 0.695821
2173 2 0.219762 0.195407 0.704357
2175 4 0.243762 0.193833 0.712893
3240 4 0.262943 0.195025 0.706354
3238 2 0.285353 0.199435 0.700699
3239 4 0.307762 0.203844 0.695044
3351 4 0.328133 0.202793 0.699526
3349 2 0.351245 0.207052 0.698199
3273 4 0.361582 0.250954 0.730232
3350 4 0.374357 0.21131 0.696872
779 4 0.394962 0.213314 0.696761
3252 4 0.381099 0.24311 0.737608
778 2 0.414998 0.221487 0.690919
780 4 0.435034 0.229661 0.685078
3272 4 0.310047 0.271535 0.740806
3073 2 0.27105 0.33053 0.719203
3092 4 0.311736 0.333401 0.724039
3074 4 0.296875 0.326603 0.715749
3271 2 0.335815 0.261244 0.735519
3091 2 0.3222 0.32451 0.746221
3380 4 0.324622 0.335215 0.709725
3075 4 0.245225 0.334458 0.722656
3312 4 0.239225 0.345728 0.739203
4560 4 0.35019 0.365222 0.669466
3379 2 0.340822 0.341302 0.693847
3381 4 0.357022 0.34739 0.677969
997 2 0.378228 0.413817 0.718317
999 4 0.387527 0.414975 0.741331
3374 4 0.472298 0.349133 0.690074
3375 4 0.450163 0.395719 0.672856
3373 2 0.461231 0.372426 0.681465
1007 4 0.447057 0.416952 0.701836
1017 4 0.407409 0.410169 0.749005
4196 4 0.490859 0.406881 0.716596
993 4 0.0682837 0.469539 0.70559
991 2 0.0914277 0.452155 0.711241
992 4 0.114572 0.434771 0.716892
942 4 0.128071 0.43393 0.70265
940 2 0.153564 0.431429 0.706243
941 4 0.179056 0.428928 0.709836
1098 4 0.19841 0.426294 0.718584
1096 2 0.213576 0.4337 0.734552
1097 4 0.228742 0.441106 0.75052
1276 2 0.266411 0.444203 0.736868
1277 4 0.285691 0.443749 0.720763
3113 4 0.361334 0.419445 0.677389
821 4 0.300924 0.452539 0.724307
820 2 0.323033 0.458311 0.7212
822 4 0.345141 0.464083 0.718093
998 4 0.368929 0.412659 0.695302
1235 4 0.366649 0.459242 0.719355
1234 2 0.390401 0.460536 0.725492
1008 4 0.40448 0.436227 0.672762
1236 4 0.414152 0.461829 0.73163
2289 4 0.429132 0.469773 0.730128
1006 2 0.425768 0.426589 0.687299
2287 2 0.44652 0.482147 0.729507
4195 2 0.477814 0.423777 0.733592
2288 4 0.463907 0.49452 0.728886
4197 4 0.46477 0.440673 0.750588
3553 2 0.0149513 0.0354071 0.802845
3554 4 0.0342089 0.0455358 0.804468
193 3 0.0530207 0.0493189 0.802715
195 3 0.0712083 0.0681784 0.781561
191 1 0.073827 0.0483046 0.791801
192 3 0.0788159 0.0316443 0.775962
194 3 0.0923948 0.0433788 0.806981
3764 4 0.111812 0.0368851 0.814389
1112 4 0.0786212 0.0836016 0.776794
3763 2 0.134201 0.0424153 0.812682
3410 4 0.0788161 0.00670378 0.8326
3765 4 0.15659 0.0479455 0.810975
1994 4 0.168886 0.0567534 0.81882
1993 2 0.19531 0.0491969 0.820447
2283 4 0.215862 0.0154829 0.775618
1995 4 0.221733 0.0416404 0.822073
4580 4 0.23424 0.0191902 0.7773
4579 2 0.260179 0.0148035 0.78052
4581 4 0.286119 0.0104169 0.78374
1194 4 0.221335 0.0588327 0.832423
2036 4 0.296048 0.0175605 0.799457
2035 2 0.319547 0.0208427 0.802085
2037 4 0.343046 0.0241249 0.804714
3131 4 0.348962 0.0678606 0.75294
2348 4 0.363691 0.0238521 0.807595
2347 2 0.388166 0.0245047 0.811406
2349 4 0.41264 0.0251573 0.815218
1038 4 0.432733 0.0251542 0.815839
1036 2 0.456086 0.0285839 0.81259
1037 4 0.479439 0.0320136 0.80934
1965 4 0.492983 0.044201 0.810753
3133 2 0.057339 0.149232 0.825295
1111 2 0.0901398 0.0957342 0.791942
1113 4 0.101658 0.107867 0.807089
42 3 0.102226 0.108423 0.827658
3135 4 0.0539934 0.127744 0.83203
3007 2 0.179068 0.124117 0.752896
3077 4 0.189409 0.147959 0.823134
3008 4 0.203493 0.113777 0.762136
3146 4 0.203002 0.102068 0.776755
3076 2 0.209722 0.156635 0.820965
3145 2 0.225565 0.104593 0.785066
3147 4 0.248128 0.107117 0.793376
1146 4 0.257824 0.104797 0.811485
3078 4 0.230036 0.16531 0.818796
3130 2 0.327851 0.0824024 0.765471
1179 4 0.2472 0.16444 0.808965
1177 2 0.271851 0.165261 0.807352
1144 2 0.282558 0.102473 0.80459