ITEM: TIMESTEP
1156000
ITEM: NUMBER OF ATOMS
4590
ITEM: BOX BOUNDS xy xz yz pp pp pp
-9.9985700000000008e+00 1.2398226800000003e+01 2.3996568000000025e+00
-9.9985700000000008e+00 9.9985700000000008e+00 0.0000000000000000e+00
-9.9985700000000008e+00 9.9985700000000008e+00 0.0000000000000000e+00
ITEM: ATOMS id type xs ys zs
1822 2 0.048489 0.0196087 0.00186687
1824 4 0.0725943 0.023935 0.00221097
4505 4 0.0829399 0.0332617 0.0164287
1253 4 0.194763 0.0747319 0.0149628
1651 2 0.275363 0.00796844 0.0500437
1652 4 0.298055 0.0155541 0.0467912
2678 4 0.286009 0.0563081 0.0783032
1374 4 0.298661 0.0694896 0.0741661
1653 4 0.25267 0.000382816 0.0532962
2469 4 0.318208 0.0135283 0.0432615
1372 2 0.322013 0.0651439 0.0649431
2467 2 0.343279 0.0107435 0.0409153
1373 4 0.345365 0.0607983 0.0557202
2468 4 0.368351 0.0079587 0.0385691
2466 4 0.388511 0.00587522 0.0342254
2464 2 0.409967 0.0150555 0.0285623
2465 4 0.431423 0.0242357 0.0228992
2949 4 0.450955 0.0243502 0.0254716
2947 2 0.47333 0.0330351 0.0242946
2948 4 0.495706 0.04172 0.0231175
1252 2 0.213649 0.0884576 0.018854
2669 4 0.182956 0.0904742 0.00797695
1254 4 0.232536 0.102183 0.0227452
705 4 0.245952 0.0999969 0.00606117
1247 4 0.2738 0.167911 0.0416256
703 2 0.265591 0.112259 0.000657559
2889 4 0.301037 0.113263 0.0038699
2888 4 0.350543 0.114031 0.0102138
1274 4 0.367983 0.122222 0.00902998
2887 2 0.32579 0.113647 0.00704186
1273 2 0.386247 0.134151 0.0187749
1275 4 0.404511 0.146081 0.0285198
771 4 0.0131461 0.199474 0.0115085
572 4 0.0310487 0.195733 0.0206318
571 2 0.0523308 0.206129 0.0237175
573 4 0.0736128 0.216526 0.0268032
464 4 0.0932733 0.218184 0.0224386
2844 4 0.103965 0.24927 0.0767264
463 2 0.118441 0.215401 0.0215843
465 4 0.143608 0.212617 0.0207299
360 4 0.16256 0.217639 0.020694
358 2 0.186693 0.21797 0.0270739
359 4 0.210827 0.218301 0.0334538
282 4 0.228783 0.224744 0.0333641
280 2 0.252792 0.229226 0.0317734
281 4 0.276802 0.233708 0.0301826
1246 2 0.295565 0.17468 0.0332797
2876 4 0.295573 0.233438 0.0378607
1248 4 0.31733 0.181449 0.0249337
2875 2 0.319361 0.233923 0.0303592
2441 4 0.333089 0.188814 0.016339
2877 4 0.34315 0.234408 0.0228577
2440 2 0.358142 0.185714 0.0188759
2652 4 0.365377 0.232187 0.0252653
2442 4 0.383194 0.182614 0.0214129
2650 2 0.388186 0.239052 0.020842
492 4 0.400083 0.186599 0.0301641
2718 4 0.424219 0.216043 0.0789144
2651 4 0.410994 0.245917 0.0164187
490 2 0.423788 0.19182 0.0277396
527 4 0.430569 0.24621 0.0228762
491 4 0.447494 0.19704 0.0253151
845 4 0.466396 0.191983 0.0317077
844 2 0.490048 0.197603 0.0303368
526 2 0.449903 0.248268 0.0382892
528 4 0.469236 0.250326 0.0537022
3285 4 0.0375574 0.253238 0.0619726
3283 2 0.0128476 0.254494 0.0664951
1293 4 0.017641 0.330992 0.0274372
2843 4 0.057648 0.255311 0.0570912
2842 2 0.0808065 0.252291 0.0669088
1291 2 0.0427911 0.328835 0.0264586
1292 4 0.0679412 0.326678 0.02548
2640 4 0.0116645 0.343241 0.0120915
1122 4 0.195475 0.400807 0.0350382
1120 2 0.213261 0.398366 0.0173403
2746 2 0.271417 0.403809 0.0159934
2748 4 0.251616 0.398769 0.0024503
1121 4 0.231048 0.395925 0.999642
2747 4 0.291217 0.408849 0.0295365
2485 2 0.329833 0.414741 0.0392253
2486 4 0.354261 0.409823 0.0449466
2727 4 0.365326 0.413457 0.0618042
2093 4 0.00167947 0.455655 0.0847781
1870 2 0.136914 0.485238 0.0628126
1871 4 0.151549 0.472166 0.0459736
1872 4 0.122279 0.498311 0.0796517
902 4 0.189176 0.46668 0.0317624
901 2 0.213665 0.461983 0.037302
903 4 0.238154 0.457286 0.0428416
2513 4 0.27981 0.494337 0.024739
2487 4 0.305405 0.41966 0.033504
2512 2 0.281409 0.483475 0.0472585
2514 4 0.283007 0.472614 0.069778
671 4 0.428892 0.41696 0.0446093
2725 2 0.387758 0.419459 0.0545144
2726 4 0.410189 0.425461 0.0472245
670 2 0.447318 0.43104 0.0398909
672 4 0.465745 0.44512 0.0351725
3955 2 0.00803692 0.00759169 0.143318
3956 4 0.0327012 0.0088443 0.140517
2744 4 0.0536727 0.00879053 0.140481
2743 2 0.077063 0.0144296 0.136717
2745 4 0.100453 0.0200686 0.132953
2702 4 0.116978 0.0284976 0.136258
2701 2 0.141298 0.0280895 0.130261
2703 4 0.165617 0.0276814 0.124264
2781 4 0.184392 0.0344884 0.1241
2779 2 0.206626 0.0428712 0.12025
2780 4 0.22886 0.051254 0.116401
2679 4 0.247101 0.0565459 0.109753
2677 2 0.266555 0.056427 0.0940281
1565 4 0.462683 0.0792202 0.101546
1564 2 0.468983 0.057509 0.113384
1476 4 0.483636 0.00695826 0.100057
1566 4 0.475282 0.0357978 0.125223
332 4 0.105181 0.154017 0.120355
331 2 0.121349 0.158944 0.138244
630 4 0.088514 0.163853 0.129396
692 4 0.192224 0.123838 0.157253
691 2 0.210384 0.131634 0.143119
693 4 0.228545 0.13943 0.128985
353 4 0.241234 0.153209 0.135878
352 2 0.261591 0.160431 0.124806
3209 4 0.464059 0.120935 0.109994
3208 2 0.48543 0.111858 0.121459
629 4 0.0542129 0.173941 0.0932849
628 2 0.0713635 0.168897 0.11134
2784 4 0.121 0.239284 0.0860942
333 4 0.137518 0.163871 0.156134
497 4 0.178332 0.22477 0.166155
496 2 0.203085 0.226364 0.165501
354 4 0.281948 0.167653 0.113734
498 4 0.227838 0.227959 0.164848
2614 2 0.398314 0.231961 0.151656
2616 4 0.412985 0.24243 0.135472
2716 2 0.416774 0.23174 0.0975653
2717 4 0.409329 0.247437 0.116216
2782 2 0.129107 0.261673 0.0888209
2783 4 0.137214 0.284062 0.0915476
519 4 0.00814181 0.350317 0.142608
517 2 0.0311328 0.353569 0.15085
518 4 0.0541238 0.35682 0.159093
734 4 0.0693178 0.369681 0.157659
733 2 0.0934088 0.370499 0.163936
3450 4 0.144809 0.372043 0.155647
2092 2 0.0241157 0.451321 0.096006
2094 4 0.046552 0.446987 0.107234
2918 4 0.057048 0.468259 0.158263
2919 4 0.0636942 0.443335 0.115064
2917 2 0.0603711 0.455797 0.136664
72 3 0.126986 0.496398 0.135725
768 4 0.189372 0.430576 0.142372
766 2 0.210988 0.428623 0.129558
767 4 0.232604 0.426671 0.116744
2444 4 0.252004 0.431892 0.113206
2443 2 0.266041 0.44418 0.0979232
2445 4 0.280078 0.456468 0.0826398
3768 4 0.0792142 0.0099229 0.238971
428 4 0.153237 0.0763615 0.237386
391 2 0.185587 0.0672505 0.20983
392 4 0.169637 0.0806555 0.225314
393 4 0.201538 0.0538456 0.194345
2756 4 0.221359 0.0502793 0.190644
3698 4 0.261796 0.00430676 0.242415
2755 2 0.244397 0.0561861 0.185507
2757 4 0.267435 0.062093 0.180369
2738 4 0.286548 0.0526604 0.183343
2737 2 0.31146 0.0470743 0.185857
2739 4 0.336372 0.0414882 0.188371
687 4 0.355437 0.0476413 0.187639
685 2 0.379668 0.0449113 0.194448
686 4 0.403899 0.0421812 0.201257
3678 4 0.424381 0.0440072 0.201472
3676 2 0.447961 0.04979 0.203061
3677 4 0.471541 0.0555728 0.204651
179 3 0.490612 0.0465026 0.200964
177 3 0.495136 0.0740974 0.22525
4308 4 0.0427219 0.097582 0.249243
2769 4 0.135283 0.103045 0.187613
2768 4 0.17709 0.118216 0.168449
2767 2 0.156186 0.11063 0.178031
2478 4 0.234345 0.161719 0.183684
2778 4 0.245081 0.155954 0.199544
2776 2 0.263191 0.14381 0.2137
2777 4 0.2813 0.131667 0.227857
2939 4 0.281297 0.128616 0.248246
2849 4 0.325475 0.162124 0.246567
589 2 0.40406 0.158512 0.238217
591 4 0.424046 0.156455 0.223008
2453 4 0.439312 0.160335 0.235255
2452 2 0.46211 0.164212 0.24356
403 2 0.497472 0.12782 0.212785
404 4 0.495965 0.152582 0.20964
405 4 0.498979 0.103059 0.21593
577 2 0.00261073 0.19404 0.199973
578 4 0.0262631 0.198502 0.195478
387 4 0.044656 0.205954 0.189213
385 2 0.0675308 0.210579 0.181806
386 4 0.0904057 0.215203 0.1744
276 4 0.108478 0.2216 0.167952
2516 4 0.130562 0.168611 0.174598
274 2 0.133224 0.223088 0.169271
275 4 0.15797 0.224575 0.17059
2515 2 0.150197 0.17124 0.189439
2517 4 0.169833 0.173869 0.204279
2477 4 0.187983 0.180788 0.197629
2476 2 0.211164 0.171253 0.190656
507 4 0.246719 0.227393 0.170311
505 2 0.271757 0.226823 0.171485
836 4 0.316181 0.217855 0.171804
506 4 0.296795 0.226254 0.172658
835 2 0.341177 0.217379 0.17353
837 4 0.366174 0.216902 0.175257
2615 4 0.383644 0.221491 0.16784
2729 4 0.00304259 0.263509 0.181359
300 4 0.0206573 0.300343 0.23871
2954 4 0.00529696 0.290608 0.246385
298 2 0.0445291 0.304811 0.235632
299 4 0.0684009 0.309278 0.232554
2493 4 0.0859995 0.31355 0.224468
3572 4 0.103572 0.265481 0.242336
2491 2 0.108506 0.321625 0.221491
2526 4 0.119704 0.274564 0.239162
2492 4 0.131013 0.329701 0.218514
2535 4 0.151714 0.327311 0.215895
2524 2 0.14444 0.275355 0.241989
2525 4 0.169176 0.276146 0.244816
2462 4 0.186855 0.282177 0.239458
2533 2 0.176734 0.326213 0.213758
2534 4 0.201754 0.325114 0.211621
2461 2 0.21131 0.28094 0.245187
351 4 0.221958 0.324475 0.211102
349 2 0.246272 0.327929 0.209773
350 4 0.270585 0.331384 0.208444
2463 4 0.235765 0.279703 0.250917
250 2 0.316215 0.330952 0.204757
252 4 0.340771 0.333427 0.203569
251 4 0.29166 0.328478 0.205945
286 2 0.384095 0.332292 0.202696
288 4 0.408233 0.332361 0.196203
296 4 0.426153 0.332957 0.184875
3404 4 0.0120548 0.365883 0.201123
735 4 0.1175 0.371317 0.170213
3448 2 0.157778 0.377741 0.175804
3449 4 0.170748 0.383439 0.195961
714 4 0.187143 0.393352 0.191388
712 2 0.194895 0.400439 0.21377
713 4 0.202646 0.407527 0.236152
338 4 0.221496 0.400724 0.242977
287 4 0.359958 0.332222 0.209188
3695 4 0.385916 0.37722 0.237016
1802 4 0.400798 0.386814 0.226844
1801 2 0.417463 0.399993 0.215956
611 4 0.487043 0.333551 0.240258
297 4 0.472872 0.344502 0.177564
295 2 0.449513 0.338729 0.181219
2590 2 0.476283 0.370222 0.224278
2592 4 0.485068 0.345956 0.225623
2591 4 0.467497 0.394489 0.222934
2571 4 0.492204 0.345741 0.176793
1803 4 0.434129 0.413172 0.205068
2862 4 0.476004 0.411799 0.217366
1787 4 0.0178751 0.474678 0.19379
1786 2 0.0136835 0.499285 0.189531
1424 4 0.013221 0.456 0.194928
667 2 0.0143064 0.42481 0.247654
668 4 0.0378881 0.424855 0.239358
3819 4 0.0967196 0.418697 0.213035
3818 4 0.0568649 0.428648 0.243152
677 4 0.0589656 0.484538 0.169632
3817 2 0.0767923 0.423672 0.228094
676 2 0.0827416 0.485026 0.177173
588 4 0.111576 0.424944 0.201562
678 4 0.106518 0.485514 0.184713
586 2 0.134341 0.427272 0.192143
587 4 0.157106 0.4296 0.182724
740 4 0.177688 0.426451 0.179162
739 2 0.187112 0.447956 0.18348
741 4 0.196536 0.46946 0.187798
1158 4 0.249784 0.494898 0.199234
3704 4 0.231346 0.501016 0.194621
2861 4 0.477559 0.459658 0.204838
2860 2 0.476781 0.435729 0.211102
3990 4 0.495556 0.46047 0.193992
2578 2 0.0959467 0.0781125 0.298616
2580 4 0.11498 0.0657243 0.311414
2891 4 0.116557 0.0762104 0.328711
2890 2 0.140552 0.080887 0.328186
3739 2 0.299125 0.00864969 0.25879
3740 4 0.321395 0.0172178 0.261788
4307 4 0.00122102 0.0931868 0.275982
4306 2 0.0219715 0.0953844 0.262612
2579 4 0.076913 0.0905008 0.285818
1395 4 0.133541 0.135501 0.309785
429 4 0.134818 0.100074 0.278568
427 2 0.144028 0.0882175 0.257977
2892 4 0.164548 0.0855635 0.327661
1393 2 0.156055 0.13225 0.320973
1394 4 0.178568 0.129 0.332161
2940 4 0.267034 0.136758 0.295763
2938 2 0.274166 0.132687 0.272005
2848 2 0.348096 0.16452 0.256294
3158 4 0.369978 0.138932 0.330561
590 4 0.384074 0.16057 0.253426
529 2 0.414201 0.134647 0.323826
531 4 0.438302 0.138057 0.320247
530 4 0.3901 0.131238 0.327405
545 4 0.454294 0.142942 0.308521
544 2 0.479346 0.141275 0.306329
412 2 0.0139206 0.185937 0.279201
414 4 0.0339336 0.193377 0.290724
1035 4 0.0512802 0.223552 0.333369
3573 4 0.0602255 0.249911 0.25696
2850 4 0.370718 0.166917 0.26602
2946 4 0.379567 0.176676 0.282587
2944 2 0.401892 0.185384 0.284371
2945 4 0.424218 0.194092 0.286155
2454 4 0.484908 0.168089 0.251865
536 4 0.0121488 0.269378 0.304913
535 2 0.0306402 0.262666 0.288563
537 4 0.0491316 0.255953 0.272212
3571 2 0.0818989 0.257696 0.249648
2930 4 0.252117 0.284187 0.258626
2929 2 0.265012 0.288695 0.279226
2931 4 0.277907 0.293204 0.299825
2903 4 0.258907 0.333888 0.252632
1953 4 0.295136 0.298273 0.307963
1951 2 0.306038 0.279451 0.32197
610 2 0.493823 0.324671 0.262922
612 4 0.500604 0.315791 0.285587
375 4 0.134208 0.401895 0.328336
337 2 0.237693 0.402838 0.261688
339 4 0.25389 0.404952 0.2804
2556 4 0.264917 0.407048 0.297059
2902 2 0.278052 0.347675 0.254216
2904 4 0.297196 0.361461 0.255799
3696 4 0.384005 0.391945 0.284805
3694 2 0.384961 0.384582 0.260911
2874 4 0.377787 0.392299 0.303846
2872 2 0.394782 0.403838 0.316265
2873 4 0.411776 0.415377 0.328684
2682 4 0.448092 0.342993 0.316938
2680 2 0.467634 0.347013 0.331362
264 4 0.0254473 0.452401 0.291715
548 4 0.00649246 0.454027 0.297852
262 2 0.0426958 0.467137 0.284903
263 4 0.0599443 0.481873 0.27809
3959 4 0.218515 0.497242 0.307943
3958 2 0.232892 0.476659 0.300212
3960 4 0.247268 0.456077 0.292481
500 4 0.262468 0.463962 0.284028
2554 2 0.282904 0.419148 0.307105
499 2 0.284628 0.46973 0.275681
501 4 0.306789 0.475498 0.267334
2555 4 0.30089 0.431247 0.317151
2699 4 0.311786 0.432565 0.333561
1578 4 0.355093 0.493244 0.296746
231 4 0.35913 0.439725 0.265291
1576 2 0.373111 0.494521 0.313875
229 2 0.371679 0.458399 0.27289
230 4 0.384227 0.477073 0.280489
1659 4 0.39974 0.485316 0.272443
1577 4 0.391128 0.495798 0.331004
1657 2 0.421734 0.491416 0.280898
1658 4 0.443729 0.497516 0.289354
1745 4 0.464955 0.495983 0.285604
600 4 0.0174275 0.00816903 0.357527
598 2 0.0374279 0.0114493 0.371617
599 4 0.0574283 0.0147295 0.385706
618 4 0.0188107 0.0855473 0.351614
1518 4 0.0737416 0.0196442 0.394855
1516 2 0.0954272 0.0262131 0.403628
1517 4 0.117113 0.0327819 0.4124
4355 4 0.205016 0.00427943 0.340464
401 4 0.175918 0.0752571 0.341995
400 2 0.200545 0.0704808 0.34687
4354 2 0.225751 0.015909 0.340017
402 4 0.225172 0.0657044 0.351745
4356 4 0.246486 0.0275385 0.33957
342 4 0.245156 0.0651538 0.346337
2817 4 0.26675 0.0200463 0.340452
340 2 0.266245 0.075862 0.34318
2815 2 0.291021 0.0236802 0.339221
2816 4 0.315293 0.0273141 0.337989
2714 4 0.334858 0.0288577 0.343908
162 3 0.322801 0.0539339 0.361386
2645 4 0.338287 0.0671239 0.391694
161 1 0.322842 0.0766399 0.363824
2644 2 0.358436 0.0643293 0.406687
2713 2 0.359035 0.0318595 0.340151
163 3 0.323509 0.0816559 0.386443
2715 4 0.383211 0.0348612 0.336394
164 3 0.3417 0.082992 0.353189
3477 4 0.402837 0.0397756 0.338567
3797 4 0.392656 0.0580752 0.407389
3475 2 0.425609 0.0470452 0.342214
3476 4 0.448381 0.0543148 0.34586
1244 4 0.466209 0.0592578 0.352199
1243 2 0.488835 0.06611 0.346867
480 4 0.116024 0.129189 0.402142
478 2 0.134379 0.142635 0.395385
1190 4 0.196125 0.132669 0.339555
479 4 0.152734 0.156081 0.388628
469 2 0.193449 0.155383 0.40177
470 4 0.171171 0.160069 0.390295
471 4 0.215727 0.150698 0.413244
1189 2 0.220352 0.12719 0.345852
341 4 0.287333 0.0865701 0.340023
1191 4 0.244578 0.12171 0.352149
650 4 0.257795 0.136403 0.352511
649 2 0.280578 0.14319 0.347791
2544 4 0.234716 0.14144 0.417076
165 3 0.3038 0.087406 0.354461
651 4 0.303362 0.149976 0.34307
3159 4 0.322137 0.153808 0.343143
3157 2 0.346058 0.14637 0.336852
426 4 0.361823 0.0827713 0.349412
424 2 0.385276 0.0847815 0.357141
425 4 0.408729 0.0867917 0.364871
2916 4 0.425003 0.08813 0.376094
2914 2 0.445044 0.100192 0.38033
2915 4 0.465086 0.112254 0.384565
2936 4 0.477894 0.116997 0.36918
1033 2 0.0656185 0.236688 0.347488
724 2 0.0737567 0.180073 0.410572
726 4 0.0918461 0.187442 0.39605
474 4 0.111389 0.182528 0.391522
472 2 0.128627 0.196849 0.383726
1034 4 0.0799569 0.249824 0.361607
473 4 0.145864 0.21117 0.37593
2822 4 0.334693 0.178557 0.407488
2612 4 0.496061 0.205838 0.358127
585 4 0.0194359 0.271094 0.408767
1952 4 0.316939 0.260628 0.335977
2766 4 0.298362 0.259565 0.397713
2765 4 0.303076 0.270488 0.349287
2764 2 0.300719 0.265026 0.3735
373 2 0.115307 0.40893 0.344136
2597 4 0.414256 0.413439 0.347897
2596 2 0.430176 0.397059 0.36063
2598 4 0.446096 0.380679 0.373363
2681 4 0.487176 0.351032 0.345785
374 4 0.0964055 0.415966 0.359935
3640 2 0.198331 0.448261 0.404694
3641 4 0.212574 0.454044 0.385494
2712 4 0.232934 0.454076 0.389801
2710 2 0.254511 0.44634 0.401591
2711 4 0.276087 0.438604 0.413381
2698 2 0.323574 0.435189 0.355283
2700 4 0.335361 0.437814 0.377004
2826 4 0.467262 0.485517 0.38269
2824 2 0.489514 0.487255 0.393538
1062 4 0.135178 0.0334943 0.423602
1060 2 0.158157 0.0380654 0.430727
1061 4 0.181135 0.0426365 0.437852
684 4 0.199607 0.0468343 0.443782
682 2 0.221608 0.0561528 0.44575
683 4 0.243609 0.0654714 0.447719
842 4 0.259461 0.0601129 0.460815
841 2 0.284147 0.0620969 0.460896
843 4 0.308834 0.0640808 0.460978
3747 4 0.319723 0.0782375 0.466305
3745 2 0.342404 0.0838894 0.473203
2646 4 0.378585 0.0615347 0.421681
2455 2 0.410525 0.0371743 0.480637
3796 2 0.410156 0.0507085 0.424559
2457 4 0.423602 0.0398606 0.459698
3798 4 0.427657 0.0433418 0.441728
220 3 0.443256 0.0348123 0.430499
219 3 0.441887 0.0343065 0.46812
216 1 0.455302 0.0292954 0.449435
218 3 0.463227 0.00668556 0.449237
2558 4 0.492451 0.0375287 0.443055
217 3 0.473374 0.0414206 0.45034
2900 4 0.00534672 0.155595 0.428862
2543 4 0.283854 0.141989 0.425984
2542 2 0.259285 0.141715 0.42153
3746 4 0.365085 0.0895414 0.480101
2821 2 0.319542 0.162181 0.415493
2823 4 0.304391 0.145805 0.423498
725 4 0.0556673 0.172703 0.425094
873 4 0.0962933 0.250641 0.441292
871 2 0.121269 0.250784 0.440569
3498 4 0.204829 0.230717 0.473802
3081 4 0.201971 0.23796 0.455503
872 4 0.146244 0.250927 0.439845
3496 2 0.207221 0.233947 0.49844
410 4 0.338032 0.194844 0.417596
409 2 0.357034 0.200296 0.432056
411 4 0.376035 0.205749 0.446517
3460 2 0.397347 0.202209 0.47719
3461 4 0.377219 0.196793 0.46438
3462 4 0.417476 0.207625 0.49
2925 4 0.0350833 0.26963 0.42126
451 2 0.0181442 0.301242 0.467706
452 4 0.0417382 0.303754 0.474625
488 4 0.0581395 0.313261 0.477642
2923 2 0.0597415 0.267484 0.426279
2924 4 0.0843996 0.265339 0.431298
487 2 0.0831261 0.311894 0.474966
489 4 0.108113 0.310527 0.472291
3080 4 0.158158 0.265329 0.445057
3079 2 0.180064 0.251645 0.45028
2846 4 0.0594589 0.387594 0.472977
2845 2 0.0776002 0.395769 0.459095
2847 4 0.0957414 0.403943 0.445214
601 2 0.00780599 0.498899 0.457418
1697 4 0.0663377 0.466814 0.436729
1696 2 0.0610347 0.462648 0.460691
1698 4 0.0557316 0.458481 0.484652
3452 4 0.0464428 0.474981 0.495447
3422 4 0.123082 0.444472 0.441718
3421 2 0.148166 0.439778 0.440352
3642 4 0.184089 0.442479 0.423894
3423 4 0.17325 0.435083 0.438985
3104 4 0.0732619 0.00512273 0.58089
4502 4 0.0541169 0.00390016 0.575939
3103 2 0.0926434 0.0161135 0.572179
3105 4 0.112025 0.0271044 0.563468
3050 4 0.122333 0.0415913 0.556411
3049 2 0.144206 0.047944 0.547897
3051 4 0.166078 0.0542967 0.539382
2507 4 0.182174 0.0617746 0.546369
2506 2 0.198689 0.0701577 0.530623
2508 4 0.215204 0.0785409 0.514878
1182 4 0.380444 0.0260707 0.506299
1180 2 0.383706 0.00974654 0.525193
2456 4 0.397449 0.034488 0.501575
1142 4 0.189165 0.0962987 0.556389
1141 2 0.197567 0.0989976 0.579665
1131 4 0.328439 0.128958 0.581701
857 4 0.398265 0.120645 0.582457
2319 4 0.460708 0.14471 0.578923
2317 2 0.437978 0.137057 0.581638
3497 4 0.209612 0.237176 0.523078
2811 4 0.209533 0.207867 0.574219
2809 2 0.217381 0.216543 0.55252
2810 4 0.22523 0.22522 0.53082
3045 4 0.0537019 0.320353 0.582954
3043 2 0.0680947 0.327322 0.564388
1283 4 0.0748834 0.269589 0.577257
1154 4 0.0560632 0.273716 0.583404
1076 4 0.202091 0.259713 0.583338
3236 4 0.353823 0.280642 0.568615
145 3 0.33942 0.278526 0.583093
3235 2 0.371532 0.279996 0.550898
3237 4 0.389241 0.279349 0.533181
3044 4 0.0824875 0.334291 0.545822
1281 4 0.484114 0.337273 0.570755
1280 4 0.479133 0.380542 0.545685
1279 2 0.481624 0.358907 0.55822
878 4 0.492138 0.392376 0.53932
792 4 0.00155304 0.448635 0.532257
3453 4 0.00576009 0.456999 0.513942
3451 2 0.0261015 0.46599 0.504694
1161 4 0.0757756 0.475594 0.540283
1159 2 0.099852 0.473083 0.547606
1160 4 0.123928 0.470572 0.554929
2172 4 0.133431 0.479288 0.567826
2170 2 0.157377 0.474018 0.575165
2171 4 0.181323 0.468749 0.582505
1137 4 0.320238 0.459772 0.530724
1135 2 0.323744 0.483771 0.533629
1023 4 0.0617927 0.0656843 0.639008
1021 2 0.0800901 0.0803148 0.642012
1003 2 0.18309 0.0605486 0.63039
1005 4 0.193503 0.0367492 0.631678
3123 4 0.263433 0.00949691 0.609893
3121 2 0.278199 0.0222789 0.623898
3122 4 0.292965 0.0350608 0.637902
3065 4 0.296334 0.053371 0.645456
3064 2 0.320221 0.0548086 0.652108
4072 2 0.330831 0.00177997 0.6127
3066 4 0.344108 0.0562462 0.658759
4073 4 0.345383 0.0117044 0.596001
3023 4 0.359101 0.0490821 0.6474
3022 2 0.383766 0.0506869 0.645235
3024 4 0.408432 0.0522918 0.643069
3030 4 0.420235 0.0459228 0.658499
3028 2 0.442913 0.0526602 0.653192
4324 2 0.475719 0.00613694 0.590609
3029 4 0.465591 0.0593976 0.647884
4326 4 0.490161 0.0236594 0.583943
1025 4 0.486775 0.0613019 0.650747
3360 4 0.494614 0.0360705 0.598037
3293 4 0.00256294 0.131819 0.662867
1211 4 0.023834 0.139445 0.600679
1210 2 0.0224227 0.163457 0.593862
1022 4 0.0983876 0.0949452 0.645015
2256 4 0.115537 0.0984106 0.633056
2254 2 0.139955 0.101559 0.632372
1004 4 0.172678 0.084348 0.629102
2255 4 0.164372 0.104708 0.631687
1143 4 0.205969 0.101696 0.60294
917 4 0.225545 0.0986341 0.601552
916 2 0.249297 0.102489 0.606446
918 4 0.27305 0.106344 0.61134
1130 4 0.286514 0.113642 0.600437
1129 2 0.307477 0.1213 0.591069
858 4 0.34806 0.126267 0.586438
856 2 0.373162 0.123456 0.584448
2318 4 0.415248 0.129405 0.584353
1970 4 0.442113 0.143045 0.657285
949 2 0.49642 0.14986 0.585842
950 4 0.473261 0.148077 0.594545
1969 2 0.465077 0.149724 0.661256
1212 4 0.0210114 0.187468 0.587045
3110 4 0.180423 0.229277 0.624435
3109 2 0.201923 0.215306 0.630519
3111 4 0.223422 0.201334 0.636602
3383 4 0.240061 0.205542 0.625975
3382 2 0.265055 0.205543 0.626672
3384 4 0.290049 0.205545 0.627368
3107 4 0.306569 0.210443 0.619016
3106 2 0.331514 0.21082 0.619744
3108 4 0.356459 0.211198 0.620472
144 3 0.348344 0.243351 0.595671
3165 4 0.36355 0.214241 0.63948
3266 4 0.314462 0.25066 0.613083
3163 2 0.383246 0.223471 0.649835
3164 4 0.402942 0.2327 0.660189
1083 4 0.423957 0.22811 0.658311
1153 2 0.0309453 0.275446 0.584695
1155 4 0.0058274 0.277177 0.585985
1284 4 0.12035 0.270702 0.597754
1282 2 0.0976169 0.270146 0.587505
1106 4 0.13668 0.266877 0.584089
1105 2 0.161059 0.2687 0.588189
1107 4 0.185438 0.270522 0.592289
3267 4 0.265452 0.252508 0.602266
3265 2 0.289957 0.251584 0.607675
1077 4 0.246149 0.258479 0.607237
1075 2 0.22412 0.259096 0.595288
142 3 0.322952 0.26729 0.613903
141 1 0.342601 0.265536 0.601729
143 3 0.359484 0.272702 0.614853
3357 4 0.435208 0.260666 0.592438
3355 2 0.411738 0.267369 0.600592
3356 4 0.388268 0.274072 0.608747
2627 4 0.383454 0.272174 0.627042
2626 2 0.387238 0.278534 0.650792
3222 4 0.479668 0.290994 0.651644
3220 2 0.477667 0.315543 0.646994
348 4 0.495717 0.326264 0.585739
1639 2 0.0179877 0.335956 0.584984
3092 4 0.0239004 0.348987 0.66783
1641 4 0.0427362 0.3375 0.586038
2719 2 0.486973 0.374862 0.660501
2720 4 0.482635 0.35131 0.656123
3221 4 0.475666 0.340092 0.642344
2721 4 0.491312 0.398414 0.664879
1982 4 0.189347 0.476048 0.600188
1981 2 0.213753 0.479273 0.599892
1983 4 0.238159 0.482499 0.599597
991 2 0.293412 0.45835 0.664047
992 4 0.316379 0.465811 0.664381
993 4 0.270445 0.450889 0.663713
3489 4 0.0499448 0.00590551 0.738627
3487 2 0.0733126 0.0123677 0.737894
3488 4 0.0966803 0.0188299 0.737162
1217 4 0.117164 0.0214775 0.740669
1216 2 0.141212 0.0241663 0.745571
3083 4 0.32685 0.999218 0.74078
2282 4 0.340702 0.00981791 0.736425
2281 2 0.365676 0.0054181 0.739298
2283 4 0.390649 0.00101829 0.742171
3292 2 0.0226887 0.125559 0.677379
3009 4 0.0394258 0.118023 0.710775
3294 4 0.0428144 0.119299 0.691891
3007 2 0.063529 0.114943 0.718013
3008 4 0.0876323 0.111863 0.725252
3124 2 0.11957 0.11358 0.746285
3126 4 0.0946243 0.114387 0.743627
3125 4 0.144516 0.112773 0.748942
4371 4 0.161385 0.117955 0.741059
4369 2 0.171164 0.128438 0.721223
4370 4 0.180942 0.138922 0.701386
3062 4 0.199372 0.128936 0.702991
3061 2 0.220908 0.138747 0.699379
3063 4 0.242444 0.148557 0.695766
3763 2 0.445381 0.0978224 0.74516
1971 4 0.488041 0.156404 0.665228
3764 4 0.466922 0.103568 0.735262
3402 4 0.486118 0.108378 0.731353
3239 4 0.162339 0.203428 0.724403
3349 2 0.199757 0.181773 0.741772
3351 4 0.179374 0.192947 0.730037
3238 2 0.151683 0.219851 0.741138
896 4 0.392698 0.206002 0.723825
895 2 0.412902 0.218169 0.721023
897 4 0.433105 0.230336 0.718222
1208 4 0.394304 0.250034 0.745865
1081 2 0.442978 0.220475 0.673774
1085 4 0.452624 0.228936 0.723826
1082 4 0.462 0.21284 0.689236
1084 2 0.46797 0.210509 0.734462
1086 4 0.483315 0.192082 0.745097
2628 4 0.391022 0.284893 0.674542
3440 4 0.405306 0.25642 0.731518
3439 2 0.401863 0.272418 0.712363
3441 4 0.398421 0.288416 0.693207
4560 4 0.494886 0.303587 0.707719
4559 4 0.471839 0.265589 0.724888
4558 2 0.483363 0.284588 0.716303
3091 2 0.00813934 0.340332 0.684202
885 4 0.146979 0.375464 0.691099
883 2 0.155005 0.374601 0.714799
884 4 0.163031 0.373737 0.738498
3276 4 0.191947 0.431953 0.736315
3274 2 0.210823 0.443642 0.74511
3431 4 0.232744 0.468768 0.738862
3430 2 0.249014 0.485709 0.737071
4492 2 0.317204 0.440715 0.74971
940 2 0.334074 0.483854 0.693584
942 4 0.332285 0.468803 0.673944
941 4 0.335862 0.498906 0.713224
4493 4 0.339488 0.436487 0.738174
1098 4 0.356934 0.441651 0.738804
1096 2 0.375147 0.453269 0.728519
1097 4 0.393359 0.464887 0.718234
1278 4 0.409734 0.473693 0.724476
1276 2 0.431543 0.481851 0.718204
1277 4 0.453353 0.49001 0.711932
821 4 0.471443 0.489333 0.721508
820 2 0.496306 0.485011 0.725234
3127 2 0.0474511 0.0603251 0.827792
3129 4 0.0722452 0.0614748 0.826295
3128 4 0.022657 0.0591755 0.829288
4487 4 0.00150329 0.0590138 0.832732
4530 4 0.0903595 0.0666749 0.826593
4528 2 0.112098 0.0760813 0.83031
1218 4 0.16526 0.0268551 0.750474
2001 4 0.18408 0.0290531 0.759466
1999 2 0.20594 0.0349861 0.768437
2000 4 0.2278 0.040919 0.777408
1146 4 0.248171 0.0397873 0.776911
1144 2 0.272063 0.0448023 0.776583
1145 4 0.295954 0.0498173 0.776255
3132 4 0.312765 0.0576403 0.78142
3130 2 0.337467 0.0544907 0.776562
3131 4 0.362168 0.0513411 0.771703
3133 2 0.350786 0.017034 0.818012
3135 4 0.329985 0.00698286 0.811699
3134 4 0.371587 0.0270852 0.824325
1193 4 0.380805 0.0528431 0.776042
1192 2 0.405026 0.0547878 0.780873
1194 4 0.429248 0.0567324 0.785704
2307 4 0.446775 0.0572372 0.794174
2305 2 0.468664 0.0630326 0.785142
2306 4 0.490552 0.0688279 0.77611
3041 4 0.0436892 0.0955507 0.774529
3040 2 0.053161 0.105358 0.794916
3042 4 0.0626328 0.115165 0.815302
1050 4 0.0674978 0.134038 0.814135
1048 2 0.089082 0.144148 0.815934
1049 4 0.110666 0.154259 0.817734
3089 4 0.126651 0.157984 0.806717
1125 4 0.154407 0.0876744 0.83243
3088 2 0.145899 0.151116 0.822164
1995 4 0.418404 0.11445 0.817991
1994 4 0.418603 0.108338 0.768361
1993 2 0.418503 0.111394 0.793176
3765 4 0.42384 0.0920764 0.755058
779 4 0.213845 0.173599 0.773408
3350 4 0.220139 0.170598 0.753507
3240 4 0.141027 0.236273 0.757873
778 2 0.215634 0.176679 0.798127
780 4 0.217424 0.179759 0.822846
1619 4 0.243835 0.204908 0.823998
3184 2 0.257037 0.214152 0.796012
3185 4 0.257414 0.194722 0.811628
1608 4 0.281776 0.178322 0.81765
3186 4 0.25666 0.233581 0.780396
1690 2 0.368722 0.237256 0.818359
1691 4 0.385789 0.228833 0.801141
1209 4 0.39654 0.241752 0.795166
1207 2 0.395422 0.245893 0.770515
920 4 0.0829531 0.32771 0.816628
867 4 0.0884574 0.311414 0.806605
865 2 0.110425 0.30317 0.795783
866 4 0.132393 0.294925 0.78496
1067 4 0.148409 0.282918 0.7786
1066 2 0.171706 0.283852 0.787337
3328 2 0.168344 0.32624 0.826865
1068 4 0.195003 0.284786 0.796075
3329 4 0.172793 0.323453 0.80236
1298 4 0.213364 0.275631 0.793782
1297 2 0.23209 0.285638 0.782468
1299 4 0.250815 0.295644 0.771154
3073 2 0.252656 0.320608 0.81937
1307 4 0.260184 0.296496 0.753073
1306 2 0.283411 0.30332 0.752402
3312 4 0.283157 0.300173 0.8299
1308 4 0.306637 0.310145 0.75173
3310 2 0.306724 0.303585 0.823681
3311 4 0.330291 0.306996 0.817462
1046 4 0.349334 0.313993 0.81241
1045 2 0.370939 0.318717 0.801862
1047 4 0.392545 0.323441 0.791314
3227 4 0.432828 0.289212 0.83233
1629 4 0.409845 0.3329 0.789237
3226 2 0.449306 0.294357 0.814823
3228 4 0.465784 0.299502 0.797317
3036 4 0.485138 0.30272 0.797876
1956 4 0.151484 0.381784 0.754369
1954 2 0.160558 0.380687 0.777693
1955 4 0.169632 0.379589 0.801018
801 4 0.189607 0.36958 0.798902
799 2 0.209578 0.352202 0.797096
3074 4 0.244269 0.340937 0.806082
800 4 0.22955 0.334825 0.795291
1628 4 0.421515 0.365187 0.754357
1627 2 0.41568 0.349043 0.771797
1169 4 0.429256 0.414135 0.819924
1168 2 0.446167 0.409112 0.801649
1170 4 0.463078 0.404089 0.783373
4208 4 0.484266 0.403502 0.782941
3275 4 0.229699 0.455331 0.753904
4494 4 0.29492 0.444944 0.761246
4457 4 0.337496 0.461325 0.827392
272 4 0.264301 0.497784 0.790972
1904 4 0.411291 0.418711 0.825802
815 4 0.498126 0.458898 0.811418
4189 2 0.442428 0.496148 0.77275
4190 4 0.454338 0.478305 0.787289
816 4 0.452214 0.459748 0.791381
814 2 0.47517 0.459323 0.8014
3416 4 0.00417528 0.0454454 0.871515
3415 2 0.0283271 0.0408485 0.878376
3417 4 0.052479 0.0362515 0.885237
831 4 0.0665151 0.026654 0.896429
829 2 0.0780118 0.00320679 0.89636
3942 4 0.19889 0.0110793 0.905171
3940 2 0.209928 0.0228326 0.886947
3941 4 0.220966 0.0345859 0.868724
45 3 0.422612 0.0750768 0.839202
3675 4 0.453771 0.00591443 0.841134
3161 4 0.00650909 0.165642 0.860962
4529 4 0.133836 0.0854877 0.834027
3090 4 0.165146 0.144249 0.837611
1123 2 0.178343 0.0914039 0.836522
1124 4 0.202278 0.0951335 0.840614
533 4 0.221314 0.0994607 0.840307
532 2 0.245939 0.101435 0.838527
534 4 0.270564 0.10341 0.836747
3306 4 0.289447 0.107546 0.840271
1013 4 0.291563 0.162897 0.903297
1012 2 0.269652 0.167051 0.891074
3304 2 0.312689 0.114164 0.838362
3305 4 0.335931 0.120782 0.836454
1607 4 0.317994 0.163482 0.850734
3555 4 0.355954 0.123518 0.834865
3553 2 0.37806 0.130315 0.842186
42 3 0.424126 0.111854 0.836917
3153 4 0.390941 0.128599 0.91691
3554 4 0.400166 0.137112 0.849507
3151 2 0.4138 0.134376 0.910819
1232 4 0.419345 0.130116 0.846004
44 3 0.417383 0.0964318 0.870098
3152 4 0.43666 0.140154 0.904728
41 1 0.429017 0.0931643 0.850064
1231 2 0.436824 0.145323 0.841387
43 3 0.452025 0.0899801 0.854104
1233 4 0.454302 0.16053 0.83677
1667 4 0.453954 0.146966 0.900954
1113 4 0.469536 0.0997954 0.851191
1111 2 0.493596 0.103974 0.849076
1666 2 0.473704 0.157859 0.9089
1090 2 0.0356067 0.237317 0.861616
2793 4 0.023604 0.167556 0.851834
1092 4 0.011512 0.237985 0.854685
2791 2 0.0438184 0.178311 0.844973