ITEM: TIMESTEP
989500
ITEM: NUMBER OF ATOMS
4590
ITEM: BOX BOUNDS xy xz yz pp pp pp
-1.4197969400000005e+01 9.9985700000000008e+00 -4.1993994000000043e+00
-9.9985700000000008e+00 9.9985700000000008e+00 0.0000000000000000e+00
-9.9985700000000008e+00 9.9985700000000008e+00 0.0000000000000000e+00
ITEM: ATOMS id type xs ys zs
1374 4 0.254474 0.0376284 0.0738565
2678 4 0.23545 0.0384823 0.0682424
2677 2 0.214087 0.0379286 0.0814113
1372 2 0.276555 0.0309727 0.0684139
1373 4 0.298636 0.024317 0.0629713
2948 4 0.334779 0.0688221 0.0622531
2947 2 0.342789 0.0514155 0.0486116
2949 4 0.350799 0.0340088 0.03497
2464 2 0.334572 0.997703 0.0311284
2465 4 0.353188 0.0170356 0.024839
1660 2 0.48374 0.0426965 0.0745817
1661 4 0.460516 0.0382059 0.0850032
828 4 0.192528 0.149076 0.0101428
3413 4 0.20335 0.156371 0.025647
2976 4 0.204677 0.110011 0.0573831
3412 2 0.228774 0.160594 0.0279467
2974 2 0.228622 0.1108 0.0650718
2975 4 0.252567 0.111589 0.0727604
3414 4 0.254197 0.164818 0.0302464
2660 4 0.340505 0.0858741 0.0712937
2659 2 0.357814 0.104487 0.0613342
2661 4 0.375122 0.1231 0.0513746
3393 4 0.395782 0.130459 0.0560714
3391 2 0.41878 0.136816 0.0453256
3392 4 0.441779 0.143172 0.0345798
277 2 0.00297488 0.215037 0.0274745
278 4 0.0277957 0.221771 0.0331284
3141 4 0.0484535 0.226344 0.0295436
3139 2 0.073343 0.232263 0.0351108
1273 2 0.0140938 0.173567 0.997592
3140 4 0.0982326 0.238182 0.0406779
620 4 0.170112 0.244852 0.0396894
621 4 0.119479 0.24123 0.0390367
619 2 0.144795 0.243041 0.039363
2966 4 0.1873 0.240265 0.0466902
2965 2 0.212668 0.243286 0.0487682
3344 4 0.274428 0.172073 0.0322197
3343 2 0.295499 0.185854 0.0424606
3243 4 0.307912 0.249132 0.0503103
3345 4 0.31657 0.199635 0.0527014
2882 4 0.333899 0.196745 0.044616
2881 2 0.350916 0.190117 0.0290486
2883 4 0.367933 0.183488 0.0134812
770 4 0.381656 0.198819 0.00611372
3283 2 0.352268 0.246998 0.0487076
3285 4 0.377233 0.246958 0.0474576
769 2 0.40485 0.19325 0.00688175
771 4 0.428043 0.18768 0.00764978
1293 4 0.999677 0.329431 0.0435189
969 4 0.0212059 0.285403 0.0326962
462 4 0.0416034 0.29102 0.0330088
460 2 0.0639216 0.301505 0.022493
461 4 0.0862398 0.31199 0.0119772
293 4 0.0990476 0.325436 0.999696
2967 4 0.238035 0.246307 0.0508463
3241 2 0.283776 0.252238 0.0492821
3242 4 0.259639 0.255344 0.0482539
3284 4 0.327304 0.247037 0.0499575
2843 4 0.391433 0.262607 0.0573355
3214 2 0.43524 0.332626 0.0301476
3215 4 0.446037 0.330175 0.00798403
2842 2 0.41548 0.263683 0.0648549
2844 4 0.439528 0.264759 0.0723743
2784 4 0.45665 0.263757 0.0823417
2782 2 0.480117 0.262225 0.0747959
2748 4 0.0296062 0.381616 0.00115052
1291 2 0.0240966 0.338663 0.0376383
2746 2 0.0503885 0.387954 0.0155267
1121 4 0.0177042 0.363228 0.00243053
1292 4 0.048516 0.347896 0.0317576
2747 4 0.0711707 0.394292 0.0299028
2487 4 0.0904046 0.395565 0.0362145
2485 2 0.113008 0.404734 0.0468696
2486 4 0.135611 0.413903 0.0575246
2726 4 0.201443 0.414777 0.0569704
2988 4 0.224019 0.36596 0.0574692
3729 4 0.214459 0.360818 0.0745649
2986 2 0.245622 0.373973 0.0446567
2987 4 0.267226 0.381985 0.0318442
3101 4 0.282872 0.384151 0.0206556
3100 2 0.30065 0.399941 0.00774329
1551 4 0.342425 0.391123 0.052343
3542 4 0.34399 0.377344 0.0664239
3541 2 0.326788 0.376551 0.0847094
1549 2 0.362436 0.397816 0.0370387
1550 4 0.382447 0.40451 0.0217345
595 2 0.417444 0.407639 0.0311511
597 4 0.434525 0.404079 0.0483157
596 4 0.400362 0.4112 0.0139866
3216 4 0.424444 0.335077 0.0523112
1104 4 0.442671 0.389046 0.0461584
1102 2 0.45752 0.378528 0.0611103
1103 4 0.472369 0.368009 0.0760622
2772 4 0.492514 0.373724 0.0692405
2725 2 0.177714 0.4187 0.0543295
2727 4 0.153986 0.422623 0.0516887
671 4 0.220492 0.414618 0.0611721
670 2 0.240597 0.430936 0.0521846
672 4 0.260701 0.447254 0.0431972
1588 2 0.456949 0.461386 0.0760251
1590 4 0.4715 0.468934 0.0560233
2743 2 0.0238448 0.0146395 0.111596
2744 4 0.999498 0.0157272 0.107116
2745 4 0.0481913 0.0135517 0.116077
2702 4 0.0618817 0.000725384 0.11493
2701 2 0.0867314 0.0107887 0.117572
2703 4 0.111581 0.0208519 0.120213
2781 4 0.123777 0.0321199 0.106155
2779 2 0.148393 0.0321912 0.101686
2780 4 0.173009 0.0322625 0.0972161
2679 4 0.192723 0.0373748 0.0945801
1565 4 0.250759 0.0577317 0.157507
1564 2 0.257993 0.0463704 0.137418
1566 4 0.265227 0.0350091 0.117329
1479 4 0.28611 0.0331456 0.116571
1477 2 0.311273 0.038403 0.120897
1478 4 0.336436 0.0436604 0.125223
744 4 0.355548 0.0506324 0.117867
742 2 0.380318 0.0503646 0.120827
743 4 0.405088 0.0500969 0.123788
3810 4 0.423315 0.0489118 0.128422
2574 4 0.356609 0.033975 0.164402
1474 2 0.439042 0.012501 0.111204
3808 2 0.446518 0.0629995 0.132529
1475 4 0.460417 0.0262374 0.101477
3809 4 0.469721 0.0770873 0.136636
2519 4 0.485065 0.0705042 0.143875
3209 4 0.0649754 0.0844036 0.101846
3208 2 0.0899271 0.094078 0.0993428
3210 4 0.114879 0.103752 0.0968397
557 4 0.131508 0.0993738 0.0877876
556 2 0.151616 0.117245 0.0939795
558 4 0.171724 0.135116 0.100171
654 4 0.188944 0.130589 0.109322
652 2 0.213557 0.13328 0.11562
25 3 0.258661 0.127544 0.0860633
653 4 0.23817 0.13597 0.121917
22 3 0.259339 0.138831 0.121597
24 3 0.262208 0.103537 0.113768
21 1 0.267897 0.12558 0.106599
23 3 0.291472 0.13255 0.105656
2894 4 0.31168 0.140325 0.112147
2893 2 0.336516 0.142351 0.107128
2895 4 0.361352 0.144377 0.102109
2600 4 0.376916 0.140612 0.115357
458 4 0.38729 0.148253 0.163715
2599 2 0.400823 0.136922 0.113816
2601 4 0.42473 0.133232 0.112275
378 4 0.444084 0.138557 0.115688
237 4 0.407567 0.150076 0.1608
235 2 0.431741 0.150791 0.167695
376 2 0.461525 0.159866 0.113956
377 4 0.478966 0.181175 0.112223
608 4 0.00789966 0.293519 0.0973717
607 2 0.0199619 0.309937 0.114147
609 4 0.0320241 0.326356 0.130922
108 3 0.0671513 0.287346 0.141219
109 3 0.0950462 0.301475 0.116251
110 3 0.100952 0.27657 0.142201
106 1 0.0905473 0.293988 0.138018
107 3 0.0989165 0.31121 0.152508
2754 4 0.140461 0.254514 0.169479
2752 2 0.162601 0.266892 0.159985
2730 4 0.204374 0.282836 0.156519
2728 2 0.22278 0.293054 0.140506
2753 4 0.184742 0.279271 0.150492
2729 4 0.241185 0.303271 0.124493
519 4 0.0325055 0.337066 0.147518
517 2 0.0529321 0.347081 0.161271
3727 2 0.223699 0.36906 0.0969451
3728 4 0.232939 0.377302 0.119325
1467 4 0.317098 0.398855 0.155026
1465 2 0.313965 0.381375 0.137155
1466 4 0.310831 0.363896 0.119285
3543 4 0.309587 0.375758 0.102995
714 4 0.0155516 0.425572 0.149273
4212 4 0.32014 0.414829 0.168399
3552 4 0.345662 0.490144 0.147564
1567 2 0.365223 0.488083 0.123494
1569 4 0.368391 0.473186 0.104425
3550 2 0.328713 0.49759 0.162631
4512 4 0.385746 0.466167 0.100926
4510 2 0.41056 0.466357 0.104301
4511 4 0.435374 0.466547 0.107676
1589 4 0.442397 0.453837 0.0960269
1862 4 0.49721 0.456455 0.104596
1861 2 0.493215 0.477249 0.11568
2756 4 0.009641 0.047466 0.241555
2755 2 0.0310047 0.0418982 0.232258
2757 4 0.0523684 0.0363305 0.22296
2738 4 0.065889 0.0360276 0.209197
2737 2 0.089694 0.0320534 0.207688
2739 4 0.113499 0.0280793 0.20618
687 4 0.134622 0.0319573 0.2103
685 2 0.15921 0.0305077 0.208449
405 4 0.186491 0.0735934 0.202289
686 4 0.183799 0.0290581 0.206598
249 4 0.177088 0.0785532 0.21895
3678 4 0.203702 0.0361588 0.204425
3676 2 0.229067 0.0433678 0.202345
3677 4 0.254433 0.0505768 0.200264
179 3 0.274076 0.0508608 0.204417
177 3 0.296895 0.0595036 0.234364
176 1 0.296481 0.0543943 0.211945
180 3 0.309567 0.07172 0.200578
178 3 0.305086 0.0351622 0.209003
2573 4 0.323415 0.0385516 0.200641
2572 2 0.340012 0.0362633 0.182521
1748 4 0.322921 0.0767405 0.184058
1506 4 0.373638 0.0330751 0.173023
1504 2 0.396844 0.0376526 0.183482
1505 4 0.42005 0.0422301 0.193941
255 4 0.43381 0.0532309 0.206768
253 2 0.457169 0.0663839 0.212056
254 4 0.480528 0.0795368 0.217344
2952 4 0.0273914 0.164183 0.19261
2950 2 0.0169769 0.164513 0.215308
2951 4 0.00656238 0.164843 0.238005
248 4 0.137204 0.0882729 0.244416
247 2 0.157146 0.083413 0.231683
606 4 0.182964 0.124282 0.241196
731 4 0.172373 0.133467 0.228221
730 2 0.188363 0.14202 0.209497
732 4 0.204352 0.150573 0.190774
581 4 0.215358 0.143904 0.175757
403 2 0.208668 0.0895773 0.206222
580 2 0.240092 0.155008 0.175736
404 4 0.230846 0.105561 0.210155
2180 4 0.290782 0.118276 0.180223
582 4 0.264827 0.166111 0.175714
2181 4 0.242097 0.101601 0.193682
2179 2 0.266439 0.109939 0.186952
1749 4 0.310457 0.120965 0.175589
1747 2 0.316689 0.0988529 0.179824
457 2 0.364376 0.153504 0.168273
459 4 0.341461 0.158755 0.172831
236 4 0.455914 0.151506 0.17459
577 2 0.495655 0.162674 0.169365
579 4 0.472431 0.166244 0.175506
755 4 0.0150541 0.221722 0.198139
754 2 0.039027 0.22005 0.203683
756 4 0.063 0.218378 0.209227
2672 4 0.0479729 0.172665 0.191315
2799 4 0.0783913 0.22805 0.197103
2671 2 0.0731325 0.180629 0.194495
2798 4 0.119859 0.249784 0.171285
2797 2 0.0991251 0.238917 0.184194
2673 4 0.0982921 0.188593 0.197675
2789 4 0.112326 0.176686 0.202372
2788 2 0.133002 0.18227 0.216988
2790 4 0.153677 0.187855 0.231605
750 4 0.283522 0.171768 0.178353
748 2 0.308593 0.172743 0.180779
749 4 0.333665 0.173719 0.183205
387 4 0.458069 0.246068 0.189585
385 2 0.475726 0.233231 0.196378
386 4 0.493383 0.220394 0.203172
290 4 0.000643514 0.298322 0.201342
289 2 0.999828 0.310468 0.179748
299 4 0.138349 0.298223 0.243872
2493 4 0.158759 0.300219 0.240533
298 2 0.113453 0.290615 0.248819
2491 2 0.183406 0.307999 0.234611
2492 4 0.208052 0.315779 0.22869
2535 4 0.224059 0.320173 0.215364
2533 2 0.248536 0.322769 0.208605
2534 4 0.273014 0.325365 0.201845
351 4 0.292764 0.330874 0.196886
2524 2 0.336679 0.271389 0.240907
2525 4 0.356624 0.272276 0.22561
2462 4 0.37443 0.278568 0.215417
2461 2 0.399355 0.288143 0.212508
2463 4 0.424279 0.297718 0.209599
2591 4 0.487777 0.299161 0.23786
337 2 0.0446966 0.422629 0.237445
734 4 0.0719601 0.351329 0.195685
733 2 0.0643793 0.359545 0.217389
518 4 0.0733586 0.357097 0.175024
735 4 0.0567984 0.367762 0.239093
1801 2 0.205895 0.41391 0.218714
1802 4 0.202706 0.391466 0.229629
3696 4 0.235259 0.348764 0.241634
3694 2 0.229403 0.370874 0.236524
3695 4 0.223548 0.392983 0.231414
349 2 0.318122 0.335676 0.193854
350 4 0.343481 0.340479 0.190822
4211 4 0.365878 0.415766 0.189033
4210 2 0.343009 0.415298 0.178716
251 4 0.361105 0.341816 0.181326
315 4 0.382528 0.419831 0.198959
250 2 0.386095 0.348401 0.176373
252 4 0.411085 0.354985 0.171419
287 4 0.430416 0.366436 0.167682
286 2 0.455889 0.370602 0.169346
681 4 0.444606 0.404015 0.213626
288 4 0.481361 0.374769 0.17101
1437 4 0.449608 0.386336 0.209659
1435 2 0.469694 0.380692 0.221527
1436 4 0.48978 0.375048 0.233395
712 2 0.0227785 0.422438 0.172793
338 4 0.0397984 0.427352 0.213609
713 4 0.0300055 0.419305 0.196313
3990 4 0.136477 0.434644 0.169446
3989 4 0.110926 0.471534 0.175019
3988 2 0.123702 0.453089 0.172233
2861 4 0.153791 0.446942 0.175373
2860 2 0.176762 0.444856 0.183907
2862 4 0.199733 0.442769 0.192441
1803 4 0.209084 0.436354 0.207799
313 2 0.403894 0.422399 0.185364
314 4 0.42526 0.424966 0.171769
679 2 0.448926 0.427192 0.222992
680 4 0.453247 0.450368 0.232358
361 2 0.477004 0.476142 0.242237
363 4 0.474653 0.456137 0.227352
2733 4 0.331762 0.0547621 0.265813
2731 2 0.353007 0.0471384 0.272528
2732 4 0.374252 0.0395147 0.279244
2547 4 0.391386 0.0431963 0.268907
2545 2 0.416157 0.0444393 0.264125
2546 4 0.440929 0.0456823 0.259344
3722 4 0.458092 0.0410791 0.265328
3721 2 0.479601 0.0325752 0.262129
1031 4 0.0332789 0.145137 0.267243
1030 2 0.0217388 0.160813 0.27987
544 2 0.165873 0.139362 0.327788
30 3 0.205231 0.149896 0.314011
604 2 0.196348 0.128972 0.262396
605 4 0.209733 0.133663 0.283596
546 4 0.187381 0.136547 0.316436
26 1 0.226949 0.15259 0.306013
29 3 0.228449 0.135494 0.291174
27 3 0.241678 0.151893 0.323546
1032 4 0.0101988 0.176489 0.292497
2787 4 0.0235948 0.19337 0.300859
2785 2 0.0414576 0.209492 0.313336
2786 4 0.0593204 0.225615 0.325812
28 3 0.233152 0.173129 0.295384
414 4 0.419302 0.216816 0.329605
412 2 0.436757 0.213272 0.31283
413 4 0.454213 0.209727 0.296056
2837 4 0.472963 0.184524 0.255867
2836 2 0.489868 0.190675 0.274403
389 4 0.00150644 0.255846 0.280059
2955 4 0.0203355 0.255687 0.270969
2953 2 0.0446298 0.264836 0.264571
2954 4 0.0689241 0.273986 0.258173
300 4 0.0885568 0.283007 0.253767
536 4 0.216678 0.266188 0.308542
710 4 0.207301 0.25923 0.325806
3573 4 0.246633 0.257963 0.263058
537 4 0.230428 0.26624 0.260459
535 2 0.223553 0.266214 0.2845
2526 4 0.316735 0.270503 0.256204
3571 2 0.271553 0.266111 0.258571
3572 4 0.296473 0.274259 0.254083
2931 4 0.325219 0.340489 0.298552
339 4 0.0495947 0.417906 0.261282
2555 4 0.0565128 0.408061 0.317948
2554 2 0.0609978 0.409891 0.293352
2903 4 0.116188 0.398151 0.328241
2556 4 0.0654828 0.411722 0.268755
2873 4 0.171632 0.390041 0.306469
2872 2 0.152226 0.392757 0.321258
2597 4 0.186045 0.404281 0.298102
2596 2 0.207638 0.410545 0.284882
1953 4 0.342779 0.336826 0.304403
2930 4 0.280189 0.354342 0.301822
2530 2 0.31919 0.404652 0.312538
2929 2 0.302704 0.347415 0.300187
2531 4 0.294908 0.405899 0.317146
2532 4 0.343472 0.403405 0.30793
3885 4 0.364206 0.410747 0.309476
1951 2 0.366195 0.338741 0.313988
1952 4 0.389611 0.340656 0.323573
3601 2 0.448729 0.417787 0.313233
3603 4 0.466889 0.404406 0.310704
753 4 0.479915 0.394179 0.317164
2598 4 0.22923 0.416809 0.271662
1434 4 0.259896 0.44462 0.316886
777 4 0.268778 0.47841 0.328551
416 4 0.255251 0.461883 0.321868
1432 2 0.280794 0.434844 0.318583
775 2 0.293734 0.488638 0.327958
415 2 0.234656 0.467899 0.332411
1756 2 0.34946 0.482103 0.322327
1433 4 0.301692 0.425069 0.320279
1757 4 0.362746 0.464506 0.327535
776 4 0.31869 0.498867 0.327365
3883 2 0.388608 0.417964 0.316498
3884 4 0.41301 0.425181 0.323521
3602 4 0.43057 0.431168 0.315762
362 4 0.479356 0.496147 0.257123
341 4 0.0174625 0.0734179 0.366059
165 3 0.0383892 0.0733108 0.36789
2817 4 0.00792894 0.0308222 0.345674
2815 2 0.0327494 0.0404699 0.342134
162 3 0.0577823 0.0640093 0.397057
161 1 0.0531336 0.0815175 0.384675
2714 4 0.0774741 0.0494338 0.333872
2816 4 0.0575699 0.0501175 0.338595
2713 2 0.102673 0.0565829 0.33741
2715 4 0.127871 0.0637319 0.340948
3477 4 0.148283 0.065172 0.33976
3475 2 0.173599 0.0673068 0.341255
2645 4 0.187627 0.0576105 0.385966
3476 4 0.198915 0.0694416 0.34275
2644 2 0.205288 0.0624641 0.403985
1244 4 0.219118 0.0737004 0.339978
1243 2 0.24462 0.0800299 0.340893
4125 4 0.312564 0.0211158 0.366791
4123 2 0.337316 0.023619 0.361134
4124 4 0.362068 0.0261222 0.355477
1496 4 0.381764 0.0338296 0.362324
1497 4 0.432643 0.0439347 0.357698
1495 2 0.407203 0.0388822 0.360011
1185 4 0.451483 0.0398475 0.362718
1184 4 0.500533 0.0504848 0.376712
1183 2 0.476008 0.0451661 0.369715
3159 4 0.00627419 0.127261 0.370528
3157 2 0.0309996 0.132255 0.36423
3158 4 0.0557251 0.137248 0.357932
163 3 0.0433652 0.0951706 0.398543
530 4 0.0747702 0.138441 0.349018
164 3 0.0734066 0.0935223 0.375777
426 4 0.092476 0.0926391 0.380188
529 2 0.0998325 0.138947 0.347561
424 2 0.117648 0.0964156 0.384264
531 4 0.124895 0.139454 0.346105
545 4 0.144365 0.142177 0.33914
425 4 0.142819 0.100192 0.38834
2916 4 0.164384 0.106883 0.38863
2914 2 0.189595 0.109774 0.392018
2915 4 0.214806 0.112665 0.395406
1245 4 0.270121 0.0863594 0.341807
2936 4 0.236631 0.116305 0.392726
2937 4 0.287148 0.120292 0.388621
2935 2 0.26189 0.118298 0.390674
2667 4 0.290588 0.091685 0.343383
2664 4 0.307393 0.13065 0.39086
1377 4 0.359854 0.105637 0.348277
2662 2 0.332842 0.133636 0.390462
2665 2 0.316044 0.0953801 0.341809
2663 4 0.358291 0.136623 0.390064
2666 4 0.341499 0.0990752 0.340235
2658 4 0.376719 0.140422 0.401443
899 4 0.378382 0.159561 0.40833
1375 2 0.385171 0.108002 0.35017
2656 2 0.401382 0.139034 0.400721
2870 4 0.430295 0.106248 0.355185
1376 4 0.410487 0.110367 0.352062
1035 4 0.438943 0.152575 0.407402
2657 4 0.426045 0.137645 0.4
2869 2 0.455136 0.106317 0.358156
2871 4 0.479976 0.106385 0.361127
1033 2 0.460399 0.161712 0.394753
1524 4 0.495429 0.0981954 0.361274
1199 4 0.0753853 0.23828 0.333796
2586 4 0.00873119 0.195233 0.390173
2685 4 0.0286561 0.203843 0.392091
2683 2 0.0516474 0.19986 0.385644
2684 4 0.0746387 0.195878 0.379198
1198 2 0.0870094 0.24082 0.356061
763 2 0.113398 0.201724 0.366571
765 4 0.0881257 0.194418 0.363691
2802 4 0.155078 0.214344 0.381239
764 4 0.138671 0.209031 0.369451
1200 4 0.0986335 0.243361 0.378326
2800 2 0.166666 0.21498 0.403456
635 4 0.277584 0.232798 0.367721
634 2 0.262213 0.249184 0.369383
1034 4 0.481855 0.170848 0.382104
2527 2 0.133789 0.265723 0.405291
2529 4 0.112918 0.255327 0.392334
711 4 0.232975 0.277284 0.366988
709 2 0.220138 0.268257 0.346397
636 4 0.246842 0.26557 0.371045
2765 4 0.473155 0.304403 0.35949
2766 4 0.46392 0.274774 0.399662
2764 2 0.468538 0.289589 0.379576
2904 4 0.0954334 0.401502 0.373286
2902 2 0.105811 0.399826 0.350763
2874 4 0.132819 0.395474 0.336048
487 2 0.180313 0.332916 0.401822
489 4 0.176608 0.334797 0.377229
2682 4 0.401894 0.338521 0.339438
2680 2 0.425174 0.349833 0.3472
2681 4 0.448454 0.361146 0.354961
2621 4 0.466834 0.364988 0.346507
2620 2 0.485574 0.352174 0.347809
2825 4 0.0460771 0.450062 0.383566
2824 2 0.0213936 0.451336 0.382564
3593 4 0.0648886 0.456313 0.376609
3594 4 0.105918 0.492339 0.385721
3592 2 0.0854033 0.474326 0.381165
417 4 0.21406 0.473916 0.342954
1452 4 0.354402 0.451379 0.342036
1450 2 0.358118 0.440196 0.363561
570 4 0.357432 0.440439 0.399207
568 2 0.365662 0.4595 0.414827
1451 4 0.361834 0.429013 0.385086
684 4 0.00983753 0.0426698 0.468744
682 2 0.0349337 0.0442302 0.47179
683 4 0.0600299 0.0457907 0.474836
842 4 0.0796021 0.0531346 0.480408
841 2 0.10515 0.0583232 0.480618
843 4 0.130699 0.0635119 0.480828
3747 4 0.15274 0.0715712 0.479669
3745 2 0.177688 0.081863 0.479834
2646 4 0.222949 0.0673177 0.422004
3797 4 0.238186 0.081326 0.429456
3796 2 0.262621 0.0792144 0.430783
3798 4 0.287056 0.0771029 0.432111
2456 4 0.264303 0.0407123 0.491161
2455 2 0.28499 0.0590801 0.489017
2457 4 0.305676 0.0774479 0.486874
216 1 0.317915 0.0725829 0.446285
218 3 0.309938 0.0497148 0.443966
2558 4 0.357442 0.075734 0.430113
217 3 0.341176 0.0773746 0.442978
219 3 0.313304 0.079287 0.467668
4238 4 0.42934 0.0660156 0.426281
4237 2 0.454499 0.0712589 0.42193
4239 4 0.479657 0.0765021 0.417579
2504 4 0.492577 0.0804367 0.433
3746 4 0.202636 0.0921549 0.479998
2489 4 0.223053 0.0974546 0.476256
2488 2 0.248005 0.100341 0.481169
2490 4 0.272956 0.103228 0.486082
87 3 0.29334 0.109259 0.487959
220 3 0.307808 0.083763 0.430842
90 3 0.330788 0.123598 0.486784
321 4 0.37377 0.131859 0.47853
642 4 0.351042 0.127201 0.47997
640 2 0.348775 0.139545 0.458776
641 4 0.346507 0.151889 0.437582
86 1 0.313901 0.110121 0.498592
2557 2 0.381563 0.0869029 0.424987
319 2 0.398495 0.136423 0.484815
9 3 0.444644 0.147145 0.492207
320 4 0.42322 0.140986 0.4911
2559 4 0.405684 0.0980718 0.419861
7 3 0.45798 0.154483 0.457283
984 4 0.455657 0.105716 0.41934
983 4 0.47035 0.143194 0.451738
982 2 0.463003 0.124455 0.435539
6 1 0.462308 0.159371 0.479518
368 4 0.485996 0.150144 0.465927
10 3 0.482458 0.153837 0.48533
2239 2 0.119289 0.203426 0.495847
2241 4 0.129223 0.22283 0.481207
2484 4 0.145055 0.216354 0.474792
2801 4 0.178254 0.215616 0.425672
2483 4 0.185496 0.218612 0.444821
2482 2 0.165275 0.217483 0.459807
898 2 0.380086 0.181235 0.420466
2604 4 0.357909 0.20008 0.496113
2602 2 0.369135 0.198905 0.473929
2603 4 0.380362 0.19773 0.451745
900 4 0.381789 0.202909 0.432603
3498 4 0.422786 0.239316 0.473647
3496 2 0.445475 0.248977 0.483894
8 3 0.46362 0.18208 0.482799
938 4 0.0111015 0.251483 0.475455
824 4 0.0227646 0.266023 0.48653
823 2 0.0477728 0.268665 0.491029
695 4 0.0768036 0.292342 0.494704
694 2 0.101942 0.299086 0.490585
825 4 0.072781 0.271308 0.495528
2528 4 0.154659 0.276119 0.418248
696 4 0.12708 0.30583 0.486466
453 4 0.145659 0.316699 0.48199
2831 4 0.170266 0.27008 0.42795
451 2 0.159432 0.326057 0.462035
488 4 0.184018 0.331036 0.426416
2830 2 0.192066 0.285258 0.434907
2832 4 0.213866 0.300435 0.441864
583 2 0.242062 0.296924 0.473653
584 4 0.222667 0.302291 0.460416
585 4 0.261457 0.291557 0.48689
2925 4 0.276182 0.282824 0.4797
2923 2 0.296899 0.292724 0.466291
2924 4 0.317615 0.302624 0.452881
873 4 0.337964 0.311824 0.451755
871 2 0.355861 0.299748 0.459619
872 4 0.373758 0.287672 0.467483
3079 2 0.398948 0.2703 0.483526
3080 4 0.386845 0.28941 0.483991
3081 4 0.411052 0.251189 0.483061
3497 4 0.468164 0.258637 0.494142
452 4 0.173205 0.335416 0.442081
2561 4 0.3352 0.398342 0.486121
2560 2 0.355617 0.405046 0.471325
2562 4 0.376033 0.411749 0.45653
594 4 0.388197 0.406824 0.441114
592 2 0.412883 0.407525 0.436365
593 4 0.437568 0.408226 0.431616
3317 4 0.501095 0.412554 0.459824
3316 2 0.479989 0.412028 0.446255
3318 4 0.458884 0.411502 0.432686
4042 2 0.0409869 0.476363 0.461089
4044 4 0.0182443 0.481672 0.455816
4043 4 0.0637295 0.471054 0.466363
663 4 0.077825 0.486799 0.472898
661 2 0.0952466 0.475349 0.482947
662 4 0.112668 0.463899 0.492996
1485 4 0.273763 0.498546 0.449441
1027 2 0.275727 0.426974 0.486527
1028 4 0.286981 0.437637 0.465786
569 4 0.373892 0.478561 0.430447
1173 4 0.329108 0.43242 0.422023
1172 4 0.30781 0.440285 0.465752
1171 2 0.318459 0.436352 0.443888
1445 4 0.393109 0.471213 0.48456
892 2 0.425699 0.465029 0.463169
1444 2 0.384004 0.492232 0.483797
2138 4 0.462001 0.497248 0.481819
894 4 0.418743 0.454019 0.485133
893 4 0.432654 0.476038 0.441205
3049 2 0.0853877 0.0749596 0.544395
3050 4 0.0907979 0.0544386 0.554864
3105 4 0.077246 0.0505141 0.570789
1180 2 0.231194 0.0134709 0.511949
1182 4 0.247905 0.0333818 0.503478
3394 2 0.3219 0.0512112 0.547648
3396 4 0.308127 0.0332793 0.533384
3395 4 0.335674 0.069143 0.561913
3852 4 0.399574 0.0509237 0.506773
3850 2 0.420953 0.0497182 0.519253
3360 4 0.415827 0.024984 0.570334
4326 4 0.427828 0.0188348 0.558295
3851 4 0.442333 0.0485128 0.531733
3326 4 0.461514 0.0483952 0.532638
3325 2 0.486935 0.0549564 0.530616
2508 4 0.0226608 0.0940007 0.523826
2506 2 0.0480278 0.102009 0.523559
2318 4 0.0671309 0.14073 0.583355
2507 4 0.0733947 0.110018 0.523292
3051 4 0.0799775 0.0954806 0.533926
2317 2 0.0923297 0.141765 0.583189
2319 4 0.117529 0.1428 0.583023
949 2 0.157021 0.161488 0.580768
3180 4 0.347233 0.0869427 0.563875
88 3 0.312647 0.118638 0.51996
89 3 0.318145 0.0886643 0.499788
575 4 0.334803 0.0839279 0.509573
574 2 0.359545 0.0895422 0.515774
2812 2 0.330878 0.160481 0.583451
3178 2 0.344771 0.107012 0.57721
576 4 0.384287 0.0951566 0.521975
2196 4 0.405256 0.101083 0.517515
2194 2 0.430706 0.104767 0.515867
2195 4 0.456155 0.10845 0.51422
2553 4 0.473467 0.101178 0.521631
2551 2 0.497972 0.113029 0.521599
959 4 0.11265 0.237781 0.567043
1256 4 0.13083 0.244247 0.574715
1255 2 0.15527 0.242695 0.57165
2240 4 0.109355 0.184021 0.510486
1153 2 0.224597 0.248302 0.571346
1257 4 0.17971 0.241142 0.568584
1154 4 0.249764 0.249175 0.570875
951 4 0.178195 0.175914 0.571393
1155 4 0.19943 0.24743 0.571817
1283 4 0.265563 0.240895 0.57532
1282 2 0.289142 0.239441 0.582576
2963 4 0.324119 0.176329 0.548264
2814 4 0.322775 0.177046 0.568732
2962 2 0.342428 0.186575 0.532165
2964 4 0.360737 0.196821 0.516067
1106 4 0.330857 0.242874 0.580618
2810 4 0.472496 0.249114 0.510131
2809 2 0.481367 0.237646 0.529274
1211 4 0.468212 0.170836 0.57643
2811 4 0.490237 0.226178 0.548417
1639 2 0.0943561 0.284382 0.572442
1640 4 0.0712006 0.27256 0.580062
1641 4 0.117512 0.296204 0.564822
3045 4 0.112691 0.307135 0.549315
3043 2 0.128036 0.324528 0.535678
1280 4 0.34869 0.316851 0.570208
1279 2 0.37173 0.323351 0.559572
1281 4 0.39477 0.32985 0.548935
347 4 0.456206 0.335555 0.582043
3044 4 0.143381 0.341921 0.522042
3454 2 0.319572 0.413009 0.5121
878 4 0.348792 0.370997 0.527799
3455 4 0.329856 0.393748 0.505108
877 2 0.364846 0.39028 0.538251
348 4 0.415232 0.336684 0.553738
879 4 0.3809 0.409563 0.548702
346 2 0.435719 0.33612 0.567891
3419 4 0.478059 0.340979 0.582974
4361 4 0.129852 0.482659 0.572489
3369 4 0.137698 0.475553 0.555814
3367 2 0.154512 0.463253 0.545933
3368 4 0.171326 0.450952 0.536052
240 4 0.189912 0.455967 0.527919
238 2 0.214471 0.467119 0.525224
239 4 0.239029 0.478271 0.522529
336 4 0.256968 0.488094 0.513672
1029 4 0.264472 0.41631 0.507268
3456 4 0.309289 0.43227 0.519093
2108 4 0.322576 0.440768 0.531725
2107 2 0.339388 0.448981 0.549894
2109 4 0.356201 0.457194 0.568063
1041 4 0.379441 0.427651 0.552792
1039 2 0.404189 0.435022 0.547078
1040 4 0.428936 0.442392 0.541364
3104 4 0.0735169 0.0386705 0.619357
3103 2 0.0753814 0.0445923 0.595073
3123 4 0.119551 0.0207277 0.602884
3121 2 0.141394 0.0124311 0.603137
3065 4 0.173723 0.0195863 0.61377
3064 2 0.196472 0.0181754 0.623366
3122 4 0.163238 0.00413458 0.603389
3023 4 0.236598 0.0286432 0.636283
3066 4 0.219221 0.0167645 0.632962
3022 2 0.261258 0.0281971 0.632783
3024 4 0.285918 0.0277509 0.629284
3030 4 0.30252 0.0203816 0.62462
3028 2 0.323194 0.0373324 0.631328
3029 4 0.343867 0.0542832 0.638035
1025 4 0.357883 0.0697807 0.64709
3359 4 0.403767 0.0284089 0.618559
3358 2 0.409797 0.0266964 0.594447
856 2 0.021414 0.123661 0.585748
857 4 0.0467762 0.131345 0.587214
950 4 0.135848 0.147062 0.590143
965 4 0.107328 0.118257 0.669944
964 2 0.130869 0.131176 0.664993
966 4 0.154409 0.144095 0.660042
1024 2 0.344562 0.0854107 0.657347
3179 4 0.342309 0.127081 0.590545
2813 4 0.338981 0.143916 0.598171
888 4 0.311125 0.0936213 0.663282
1026 4 0.331242 0.101041 0.667604
1212 4 0.47988 0.164448 0.624291
960 4 0.0788571 0.224581 0.603977
958 2 0.0957535 0.231181 0.58551
1284 4 0.31272 0.237986 0.589831
1107 4 0.380453 0.245513 0.59003
1105 2 0.355655 0.244193 0.585324
1076 4 0.397753 0.237565 0.58735
1075 2 0.423295 0.242406 0.587876
1077 4 0.448837 0.247246 0.588401
3267 4 0.470212 0.254393 0.587813
1210 2 0.474046 0.167642 0.60036
3110 4 0.498682 0.204553 0.611108
382 2 0.0122894 0.255047 0.59897
383 4 0.0340733 0.249834 0.607606
2972 4 0.0430976 0.254856 0.625385
2971 2 0.0683406 0.26356 0.626465
2973 4 0.0935835 0.272264 0.627544
3092 4 0.0718283 0.333398 0.668216
3435 4 0.108982 0.261696 0.627793
3433 2 0.124584 0.263679 0.647558
3221 4 0.49607 0.316079 0.613281
3265 2 0.49541 0.259071 0.591925
2721 4 0.296656 0.373523 0.643438
2719 2 0.31592 0.372483 0.659077
1205 4 0.410964 0.398923 0.606048
1204 2 0.4351 0.395777 0.6067
1206 4 0.459236 0.392632 0.607352
1139 4 0.472461 0.381405 0.603241
1138 2 0.495702 0.395901 0.600569
4360 2 0.111651 0.471854 0.588446
4197 4 0.0889376 0.466975 0.621975
4362 4 0.0934496 0.461049 0.604403
4195 2 0.0984157 0.467655 0.64516
1217 4 0.0177689 0.0152845 0.750747
1216 2 0.0418832 0.0121256 0.75187
887 4 0.265325 0.0711605 0.680845
819 4 0.267059 0.0773467 0.700642
268 2 0.295725 0.00585849 0.679705
269 4 0.295315 0.0184651 0.70108
3084 4 0.289475 0.026044 0.718025
3082 2 0.31237 0.0315231 0.729085
3083 4 0.335265 0.0370021 0.740146
886 2 0.288225 0.0823909 0.672063
2282 4 0.354042 0.0358446 0.743469
2281 2 0.378891 0.0358172 0.746199
1969 2 0.00870873 0.108423 0.725219
1971 4 0.0247072 0.105327 0.706823
2321 4 0.041045 0.107797 0.695915
2320 2 0.0641536 0.113931 0.685359
2322 4 0.0872621 0.120064 0.674804
3400 2 0.136038 0.121118 0.747208
2175 4 0.167741 0.155289 0.674023
3401 4 0.160524 0.129078 0.740779
2173 2 0.193127 0.162683 0.672445
3166 2 0.198818 0.144355 0.742727
3168 4 0.221164 0.152974 0.73136
2306 4 0.251591 0.1199 0.749454
818 4 0.259104 0.110939 0.73451
817 2 0.263082 0.0941427 0.717576
3002 4 0.238944 0.150434 0.723137
3001 2 0.238314 0.159939 0.70016
3207 4 0.47769 0.0924246 0.671732
736 2 0.0479537 0.21229 0.739852
738 4 0.0379903 0.2328 0.740781
737 4 0.057917 0.19178 0.738924
2981 4 0.0782475 0.194972 0.743664
3251 4 0.0535597 0.247659 0.735038
2980 2 0.103329 0.204572 0.742667
839 4 0.141812 0.232003 0.74544
1009 2 0.153682 0.178864 0.738153
2982 4 0.128411 0.214172 0.74167
1011 4 0.157405 0.182497 0.713592
2174 4 0.218513 0.170076 0.670866
3003 4 0.237685 0.169444 0.677183
922 2 0.0189866 0.32035 0.732098
923 4 0.0143857 0.318139 0.707538
3093 4 0.0324976 0.323857 0.700098
3091 2 0.0521629 0.328627 0.684157
3250 2 0.0765629 0.262927 0.735438
3252 4 0.0995661 0.278194 0.735838
3273 4 0.11788 0.285236 0.726457
3271 2 0.125224 0.280653 0.703323
3272 4 0.132568 0.27607 0.680189
3434 4 0.140185 0.265662 0.667323
1956 4 0.0204263 0.38909 0.742917
1954 2 0.0341317 0.411148 0.750421
884 4 0.000105045 0.384152 0.745305
2720 4 0.335183 0.371444 0.674716
3447 4 0.347799 0.387704 0.665626
3445 2 0.371186 0.399475 0.672642
3353 4 0.412928 0.417015 0.688716
1629 4 0.41064 0.356129 0.74367
3446 4 0.394572 0.411246 0.679657
1278 4 0.0177318 0.467222 0.718732
1276 2 0.0404083 0.473351 0.730138
1277 4 0.0630848 0.47948 0.741545
1097 4 0.000401536 0.471023 0.715724
4196 4 0.107894 0.468335 0.668346
821 4 0.0807413 0.492246 0.742573
1008 4 0.127297 0.474323 0.668882
1006 2 0.143687 0.490114 0.683197
3352 2 0.435438 0.42543 0.699857
3354 4 0.457948 0.433845 0.710997
1994 4 0.0536726 0.0604967 0.794342
3765 4 0.059718 0.0726873 0.777829
1993 2 0.0717483 0.0509112 0.805732
1218 4 0.0659976 0.00896682 0.752994
1995 4 0.0898239 0.0413258 0.817122
42 3 0.103547 0.0546006 0.827013
2001 4 0.0835857 0.0110749 0.762008
1999 2 0.108521 0.0191063 0.766503
41 1 0.126656 0.0633042 0.826288
45 3 0.133389 0.0664964 0.80457
1193 4 0.145433 0.0740451 0.787636
2000 4 0.133455 0.0271376 0.770997
1146 4 0.154146 0.0308638 0.776555
1144 2 0.178699 0.0378316 0.783149
1145 4 0.203253 0.0447994 0.789743
3132 4 0.223811 0.0520583 0.79125
3130 2 0.247075 0.0618102 0.800193
3131 4 0.270339 0.0715621 0.809135
3134 4 0.290682 0.0802061 0.804983
3135 4 0.339805 0.0781913 0.798513
3133 2 0.315243 0.0791987 0.801748
4579 2 0.342066 0.0168 0.792655
2283 4 0.403739 0.0357897 0.748929
4345 2 0.369085 0.0667637 0.805414
4580 4 0.364401 0.0314421 0.798966
4347 4 0.380192 0.0471381 0.802567
3553 2 0.0611837 0.106254 0.830737
3402 4 0.111552 0.113158 0.753637
3764 4 0.0906773 0.110243 0.754207
3763 2 0.0751976 0.0914651 0.766018
3554 4 0.0840176 0.109029 0.819675
3167 4 0.176473 0.135736 0.754093
191 1 0.170589 0.154636 0.788127
194 3 0.158159 0.136501 0.7765