ITEM: TIMESTEP
2080000
ITEM: NUMBER OF ATOMS
4590
ITEM: BOX BOUNDS xy xz yz pp pp pp
-9.9985700000000008e+00 9.9985700000000008e+00 0.0000000000000000e+00
-9.9985700000000008e+00 9.9985700000000008e+00 0.0000000000000000e+00
-9.9985700000000008e+00 9.9985700000000008e+00 0.0000000000000000e+00
ITEM: ATOMS id type xs ys zs
1875 4 0.0818444 0.0644651 0.0729477
1873 2 0.068958 0.0815353 0.0858986
1651 2 0.125804 0.0595354 0.0672668
1652 4 0.150761 0.0585304 0.0661162
1653 4 0.100847 0.0605403 0.0684174
2469 4 0.163184 0.0534534 0.0524353
2467 2 0.178237 0.0731144 0.055904
3269 4 0.384745 0.0144939 0.0184618
3268 2 0.406033 0.0250442 0.0106716
3068 4 0.366948 0.00467348 0.0160623
3903 4 0.496125 0.00977103 0.00628012
3270 4 0.427321 0.0355946 0.00288127
809 4 0.013184 0.116878 0.0398217
333 4 0.030055 0.0956742 0.0805362
1247 4 0.119837 0.154955 0.0714314
1250 4 0.108224 0.161483 0.0566752
1246 2 0.142512 0.154818 0.0819688
1249 2 0.08774 0.171683 0.066751
2468 4 0.193291 0.0927755 0.0593727
2466 4 0.195289 0.0999086 0.0785855
492 4 0.235306 0.162514 0.0539094
490 2 0.259871 0.166804 0.0557353
1759 2 0.48703 0.106818 0.0341584
1761 4 0.487132 0.116563 0.0111327
103 3 0.492334 0.157208 0.0346215
1760 4 0.486927 0.0970722 0.0571841
102 3 0.474142 0.168605 0.0654728
2442 4 0.230607 0.165918 0.0723244
2440 2 0.207408 0.163518 0.0813366
3198 4 0.268319 0.20536 0.02036
2876 4 0.271036 0.21632 0.0364338
2875 2 0.289539 0.224869 0.0509167
3196 2 0.274974 0.212632 0.997381
491 4 0.284436 0.171093 0.0575612
2877 4 0.308043 0.233417 0.0653995
2652 4 0.3232 0.241194 0.0745137
528 4 0.414825 0.23925 0.0554868
526 2 0.394549 0.246763 0.0429314
527 4 0.374273 0.254275 0.0303759
456 4 0.433362 0.238374 0.0634855
454 2 0.444398 0.226258 0.0823692
101 1 0.482278 0.17534 0.0450381
104 3 0.464631 0.183107 0.0321281
105 3 0.497535 0.19196 0.0481469
670 2 0.0717121 0.312443 0.0328353
672 4 0.086247 0.309873 0.0126533
671 4 0.0571772 0.315013 0.0530173
2726 4 0.0664057 0.331511 0.0619664
2650 2 0.340403 0.24798 0.0576856
2651 4 0.357606 0.254766 0.0408575
2771 4 0.395119 0.311792 0.0682674
2522 4 0.411641 0.316708 0.0586522
2770 2 0.379904 0.31755 0.0872547
2521 2 0.435194 0.32509 0.0582274
2403 4 0.0159154 0.36259 0.00855817
2725 2 0.0526375 0.351957 0.0661574
2727 4 0.0388692 0.372403 0.0703483
2747 4 0.0211418 0.369503 0.0636662
2746 2 0.00445068 0.381419 0.0779705
3215 4 0.0337938 0.368897 0.00197109
2583 4 0.136625 0.412948 0.00568737
1550 4 0.311418 0.37632 0.0213582
596 4 0.310158 0.387682 0.0377049
595 2 0.323308 0.397185 0.0567301
1549 2 0.331778 0.362403 0.0172405
1551 4 0.352137 0.348485 0.0131229
3542 4 0.365936 0.350836 0.0268263
3541 2 0.381565 0.363397 0.0417637
3543 4 0.397195 0.375957 0.0567011
1466 4 0.416594 0.37593 0.0582481
3339 4 0.455292 0.346882 0.0412757
2523 4 0.458747 0.333473 0.0578026
3337 2 0.47725 0.352524 0.0307306
1465 2 0.4307 0.39609 0.0626954
1871 4 0.0501213 0.463623 0.00711184
1870 2 0.0709224 0.451112 0.0131111
1872 4 0.0917236 0.438601 0.0191104
2582 4 0.100233 0.431227 0.0347086
2581 2 0.118429 0.422088 0.020198
3636 4 0.165092 0.459299 0.00855055
3672 4 0.120406 0.45707 0.0791191
75 3 0.12685 0.477338 0.0771432
3634 2 0.1868 0.448526 0.0147039
3635 4 0.208508 0.437752 0.0208572
4304 4 0.227319 0.433734 0.0273821
4303 2 0.24006 0.423484 0.0462971
1571 4 0.243704 0.488149 0.0590125
1570 2 0.227974 0.474159 0.072506
4305 4 0.252802 0.413233 0.065212
3709 2 0.272889 0.498991 0.0382184
3711 4 0.254402 0.483017 0.0435348
3390 4 0.370978 0.454417 0.0899759
1467 4 0.444806 0.41625 0.0671427
123 3 0.0666667 0.0348759 0.0950335
2855 4 0.0758345 0.00757507 0.134321
125 3 0.0929942 0.0445968 0.120133
121 1 0.086678 0.028745 0.105051
124 3 0.0842759 0.00824376 0.11565
122 3 0.102857 0.0268684 0.0888071
2745 4 0.222985 0.0405081 0.155195
3767 4 0.243228 0.0413279 0.159347
2949 4 0.302365 0.0224488 0.136499
3766 2 0.266154 0.0398136 0.149483
3768 4 0.28908 0.0382994 0.139619
2947 2 0.322279 0.0255292 0.121696
749 4 0.3459 0.0636969 0.155448
2948 4 0.342193 0.0286095 0.106893
377 4 0.348084 0.0462487 0.0999039
376 2 0.368842 0.0601844 0.100219
378 4 0.389599 0.07412 0.100534
4353 4 0.336649 0.0584648 0.171207
1505 4 0.491077 0.00449661 0.145281
2518 2 0.488072 0.0514931 0.158457
2519 4 0.476757 0.0512242 0.136162
1504 2 0.468508 0.000465744 0.155261
2718 4 0.451214 0.0893447 0.113908
1874 4 0.0560716 0.0986055 0.0988496
331 2 0.0188517 0.1138 0.0936186
2516 4 0.0627792 0.109983 0.114998
332 4 0.00764841 0.131925 0.106701
2515 2 0.0827468 0.11714 0.128236
2517 4 0.102714 0.124297 0.141474
2478 4 0.117361 0.133985 0.132383
2476 2 0.140816 0.135481 0.140916
2477 4 0.16427 0.136976 0.149449
2616 4 0.101395 0.157373 0.151327
2441 4 0.184209 0.161118 0.0903488
1373 4 0.245379 0.128679 0.11247
2465 4 0.237878 0.118682 0.0968718
2464 2 0.216583 0.109295 0.0877286
1372 2 0.264678 0.121586 0.126698
1374 4 0.283976 0.114492 0.140927
2838 4 0.325533 0.12697 0.151001
582 4 0.281127 0.101066 0.156432
750 4 0.369472 0.105931 0.142746
748 2 0.357686 0.0848141 0.149097
520 2 0.412935 0.145693 0.135963
2717 4 0.404851 0.0872643 0.0952847
522 4 0.388585 0.144566 0.130395
845 4 0.365627 0.177975 0.0969259
2716 2 0.428032 0.0883045 0.104597
521 4 0.437285 0.146819 0.141531
624 4 0.44897 0.160982 0.131844
1251 4 0.0672559 0.181884 0.0768267
2976 4 0.0312687 0.211475 0.115093
836 4 0.0405308 0.218833 0.131318
835 2 0.052022 0.210386 0.151856
2974 2 0.00700952 0.206586 0.111517
1248 4 0.165186 0.15468 0.0925063
2614 2 0.0912205 0.176534 0.163757
2776 2 0.238838 0.175143 0.165276
2777 4 0.214198 0.17561 0.161049
1479 4 0.276137 0.177883 0.12084
1477 2 0.298099 0.186635 0.128979
1478 4 0.320062 0.195387 0.137118
844 2 0.387958 0.188923 0.0995076
846 4 0.410289 0.199871 0.102089
517 2 0.352522 0.229404 0.156528
519 4 0.37112 0.220762 0.170833
455 4 0.455435 0.214143 0.101253
622 2 0.453336 0.178182 0.114228
623 4 0.457703 0.195381 0.0966128
351 4 0.317968 0.24896 0.14757
350 4 0.306327 0.290265 0.121897
349 2 0.312148 0.269612 0.134733
524 4 0.30657 0.308915 0.113007
523 2 0.327775 0.322052 0.111284
518 4 0.333925 0.238046 0.142223
609 4 0.396553 0.253631 0.139339
2772 4 0.364689 0.323309 0.106242
607 2 0.383729 0.275041 0.137819
2569 2 0.354958 0.315437 0.163655
2570 4 0.374719 0.311269 0.148914
608 4 0.370904 0.296452 0.136298
2969 4 0.424224 0.320776 0.160835
2968 2 0.439577 0.333275 0.145563
729 4 0.471903 0.335661 0.129171
4211 4 0.0527855 0.413086 0.149819
296 4 0.288788 0.354813 0.142331
295 2 0.302703 0.340275 0.15717
525 4 0.348979 0.335189 0.109561
2970 4 0.45493 0.345774 0.13029
727 2 0.496153 0.338297 0.123676
4210 2 0.0744422 0.416419 0.137775
2918 4 0.132024 0.432659 0.154802
3670 2 0.108981 0.43874 0.0917142
4212 4 0.096099 0.419753 0.125731
3671 4 0.0975549 0.42041 0.104309
2917 2 0.143612 0.426813 0.13343
2919 4 0.155199 0.420967 0.112058
648 4 0.162058 0.43716 0.10256
1572 4 0.212245 0.460169 0.0859994
647 4 0.202374 0.466734 0.101656
646 2 0.182216 0.451947 0.102108
4005 4 0.210532 0.498801 0.165955
597 4 0.336458 0.406689 0.0757554
3000 4 0.370404 0.474377 0.0898777
3389 4 0.333951 0.420829 0.0887349
733 2 0.412458 0.430027 0.161445
735 4 0.413272 0.452127 0.149779
3388 2 0.352465 0.437623 0.0893554
2998 2 0.36306 0.495101 0.101783
2574 4 0.00423777 0.0867289 0.226303
2545 2 0.136982 0.061429 0.247023
2547 4 0.158455 0.0729499 0.241422
2546 4 0.115509 0.0499082 0.252624
2743 2 0.21557 0.032485 0.177685
2739 4 0.168078 0.0550365 0.243014
2737 2 0.192321 0.0515344 0.248034
2744 4 0.208154 0.0244619 0.200176
2738 4 0.216564 0.0480322 0.253053
429 4 0.286229 0.0383239 0.250672
427 2 0.302827 0.0196256 0.250896
4352 4 0.355511 0.0223608 0.200215
4351 2 0.34608 0.0404128 0.185711
722 4 0.3901 0.0567931 0.221489
721 2 0.405632 0.0649709 0.203682
1806 4 0.376007 0.00956951 0.248114
723 4 0.421164 0.0731487 0.185876
115 3 0.447985 0.00257848 0.183966
2520 4 0.499388 0.0517619 0.180753
1271 4 0.0198191 0.0960477 0.21734
1270 2 0.0433958 0.0887272 0.213373
1272 4 0.0669724 0.0814066 0.209405
3677 4 0.0858885 0.0884516 0.207963
3676 2 0.107264 0.0983793 0.216314
3678 4 0.12864 0.108307 0.224664
2879 4 0.141314 0.120785 0.234888
2878 2 0.16547 0.114494 0.233437
2880 4 0.189626 0.108203 0.231985
604 2 0.226573 0.0962397 0.242613
605 4 0.203129 0.0916152 0.235252
2836 2 0.333344 0.1427 0.168798
581 4 0.311889 0.0938513 0.195192
580 2 0.296508 0.0974585 0.175812
730 2 0.282473 0.121152 0.24579
606 4 0.250016 0.100864 0.249975
731 4 0.267247 0.102121 0.240209
2837 4 0.341155 0.158431 0.186595
419 4 0.349845 0.145562 0.196675
418 2 0.372279 0.143313 0.207486
420 4 0.394713 0.141064 0.218296
177 3 0.395983 0.152133 0.235725
176 1 0.41788 0.158706 0.238277
179 3 0.430492 0.140381 0.244876
180 3 0.425655 0.166755 0.218443
1748 4 0.443595 0.168939 0.208359
1747 2 0.459201 0.160597 0.190693
1749 4 0.474807 0.152255 0.173028
459 4 0.495821 0.149141 0.170502
837 4 0.0635132 0.20194 0.172393
2615 4 0.0810457 0.195695 0.176188
2671 2 0.078309 0.211105 0.227318
2789 4 0.0395646 0.193281 0.236157
2673 4 0.0553767 0.201449 0.229782
2950 2 0.129151 0.197426 0.198578
2951 4 0.143286 0.181949 0.184945
2454 4 0.163059 0.175509 0.189954
2952 4 0.115016 0.212902 0.212211
2672 4 0.101241 0.22076 0.224854
2453 4 0.208549 0.161559 0.174569
2452 2 0.185804 0.168534 0.182261
2778 4 0.263477 0.174676 0.169504
2930 4 0.280187 0.177339 0.179071
2929 2 0.288302 0.185252 0.201358
2931 4 0.296417 0.193166 0.223645
413 4 0.401901 0.224169 0.215139
414 4 0.367008 0.206116 0.184199
412 2 0.384454 0.215143 0.199669
2462 4 0.409626 0.23938 0.202767
2461 2 0.434193 0.242224 0.206445
2463 4 0.458761 0.245067 0.210123
178 3 0.418897 0.175274 0.254491
297 4 0.316618 0.325738 0.172009
2571 4 0.335196 0.319605 0.178396
2472 4 0.401874 0.324503 0.222666
2470 2 0.414604 0.324328 0.201146
2706 4 0.334938 0.336232 0.226995
1199 4 0.471128 0.25732 0.220473
1198 2 0.492022 0.25029 0.232271
2471 4 0.427335 0.324152 0.179626
678 4 0.00840286 0.387724 0.158708
739 2 0.138866 0.385068 0.237265
741 4 0.154801 0.376822 0.21985
3705 4 0.167397 0.392425 0.223533
3703 2 0.189568 0.386551 0.213576
3704 4 0.211739 0.380677 0.203619
303 4 0.223339 0.368927 0.192225
301 2 0.238637 0.388069 0.187247
2704 2 0.313197 0.333821 0.239108
302 4 0.253935 0.40721 0.18227
4008 4 0.396863 0.336286 0.238466
734 4 0.411643 0.407927 0.173111
4006 2 0.372287 0.340881 0.238154
4007 4 0.347711 0.345475 0.237842
3404 4 0.361434 0.375562 0.208041
3403 2 0.379273 0.38765 0.195359
3405 4 0.397112 0.399737 0.182677
2874 4 0.456929 0.415394 0.240063
3600 4 0.0475614 0.495686 0.225787
3598 2 0.0250393 0.503062 0.217815
777 4 0.121232 0.435815 0.171394
775 2 0.106606 0.432553 0.191409
776 4 0.091979 0.429291 0.211424
4003 2 0.216487 0.494539 0.189863
4004 4 0.222443 0.490277 0.21377
1856 4 0.240514 0.485903 0.219848
1664 4 0.251466 0.419083 0.164237
1855 2 0.255129 0.469675 0.232024
1663 2 0.273343 0.428995 0.171191
1665 4 0.295219 0.438908 0.178145
3830 4 0.305069 0.449682 0.1908
3829 2 0.31268 0.471691 0.181696
1857 4 0.269745 0.453448 0.2442
3831 4 0.320291 0.4937 0.172593
3696 4 0.468567 0.424395 0.22733
3694 2 0.488066 0.420147 0.212265
545 4 0.00793533 0.0102034 0.313945
546 4 0.044436 0.0429549 0.304158
247 2 0.0530379 0.0744654 0.317302
249 4 0.0572819 0.0498336 0.316643
544 2 0.0261857 0.0265792 0.309051
3723 4 0.0939969 0.00561989 0.278615
3721 2 0.0963795 0.0294673 0.271486
3722 4 0.0987621 0.0533147 0.264357
28 3 0.131191 0.0812156 0.278744
30 3 0.157062 0.0809803 0.306098
2757 4 0.221579 0.0424076 0.272021
2113 2 0.228054 0.0329523 0.316824
2114 4 0.24707 0.0490138 0.319191
2115 4 0.209038 0.0168907 0.314457
1128 4 0.195179 0.00487864 0.32158
405 4 0.174652 0.0757762 0.299668
2755 2 0.24574 0.0434984 0.265676
2756 4 0.269901 0.0445892 0.259331
1184 4 0.265662 0.041828 0.311474
1183 2 0.289945 0.0451483 0.306522
342 4 0.326761 0.0368499 0.291031
1185 4 0.314228 0.0484685 0.30157
3475 2 0.413866 0.0470895 0.301327
3477 4 0.388929 0.0483046 0.299969
340 2 0.349402 0.0426148 0.299939
341 4 0.372043 0.0483797 0.308847
2908 2 0.455987 0.00220206 0.261644
2870 4 0.464917 0.998387 0.3038
3476 4 0.438804 0.0458744 0.302686
1244 4 0.449245 0.0646801 0.300668
1243 2 0.473911 0.0650665 0.296585
1245 4 0.498576 0.0654529 0.292502
2869 2 0.456456 0.00921764 0.324688
2910 4 0.457625 0.00609614 0.286288
4307 4 0.0118676 0.122733 0.267819
4306 2 0.0296024 0.114365 0.283331
4308 4 0.0473372 0.105998 0.298843
248 4 0.048794 0.0990972 0.31796
27 3 0.130179 0.106868 0.306196
26 1 0.144115 0.0942841 0.292907
29 3 0.157529 0.10856 0.280471
591 4 0.228697 0.104759 0.306277
403 2 0.197687 0.0819006 0.307221
404 4 0.220722 0.088025 0.314775
732 4 0.2977 0.140183 0.251372
2849 4 0.296891 0.103251 0.310083
589 2 0.253336 0.100945 0.304399
590 4 0.277976 0.0971299 0.30252
2848 2 0.320209 0.099076 0.318083
3572 4 0.353552 0.112355 0.326129
3571 2 0.377465 0.113697 0.318948
3573 4 0.401378 0.115038 0.311768
685 2 0.406141 0.156816 0.29255
687 4 0.400605 0.134973 0.303386
1190 4 0.444366 0.14753 0.25815
1189 2 0.469037 0.143924 0.260037
1191 4 0.493707 0.140318 0.261925
402 4 0.500538 0.156112 0.305874
2788 2 0.0188595 0.187097 0.248736
513 4 0.336479 0.221324 0.274014
512 4 0.34988 0.174894 0.261152
511 2 0.343179 0.198109 0.267583
283 2 0.405435 0.207185 0.257974
285 4 0.403587 0.183062 0.264287
284 4 0.407284 0.231308 0.251662
686 4 0.411677 0.178659 0.281714
2566 2 0.268465 0.318319 0.335079
2568 4 0.283191 0.313155 0.315543
290 4 0.295597 0.318403 0.300643
289 2 0.319853 0.316339 0.294937
291 4 0.34411 0.314274 0.289232
344 4 0.0118371 0.349057 0.32532
2540 4 0.00683214 0.379559 0.266628
2681 4 0.0226015 0.337543 0.31371
2680 2 0.0213934 0.351778 0.29319
2682 4 0.0201853 0.366013 0.27267
3601 2 0.00135847 0.391357 0.326134
1757 4 0.0288571 0.407638 0.323185
1756 2 0.0473089 0.412861 0.307139
1758 4 0.0657607 0.418083 0.291094
740 4 0.122931 0.393313 0.254679
2705 4 0.291456 0.33141 0.251222
375 4 0.2613 0.417435 0.284747
339 4 0.394104 0.347708 0.306781
338 4 0.348003 0.328366 0.305621
337 2 0.371054 0.338037 0.306201
2556 4 0.405271 0.331033 0.301589
2872 2 0.45183 0.411169 0.264174
2851 2 0.480581 0.358909 0.294459
2852 4 0.455733 0.358546 0.297224
2554 2 0.429284 0.337113 0.304996
2555 4 0.453296 0.343193 0.308403
2873 4 0.446731 0.406945 0.288285
3602 4 0.015174 0.409075 0.337107
4368 4 0.292918 0.480881 0.264445
374 4 0.281557 0.435901 0.242922
373 2 0.271429 0.426668 0.263835
4366 2 0.317714 0.478354 0.262448
1574 4 0.334802 0.424045 0.298034
5 3 0.399928 0.415722 0.298946
1573 2 0.359707 0.426084 0.297136
4367 4 0.342509 0.475826 0.260451
1575 4 0.384611 0.428123 0.296238
1381 2 0.380106 0.486166 0.275785
1382 4 0.361749 0.476183 0.262054
1383 4 0.398463 0.496149 0.289517
1311 4 0.398427 0.501114 0.308899
4 3 0.410887 0.450455 0.289397
3997 2 0.489237 0.476978 0.308346
3 3 0.42061 0.435863 0.323116
2 3 0.435873 0.422455 0.291494
1 1 0.416659 0.431065 0.30076
1309 2 0.421024 0.495986 0.318294
3999 4 0.486266 0.494786 0.291049
3796 2 0.00268318 0.011756 0.416006
3797 4 0.0235458 0.0230243 0.408072
2900 4 0.0410917 0.0180839 0.413289
683 4 0.326352 0.0500732 0.338078
682 2 0.340492 0.0471259 0.358488
1060 2 0.405597 0.0199564 0.409687
1062 4 0.421636 0.02954 0.393071
2715 4 0.368729 0.0578163 0.385604
684 4 0.354633 0.0441786 0.378898
2713 2 0.377036 0.0771208 0.399151
1524 4 0.431731 0.00967166 0.351011
162 3 0.422127 0.050785 0.392797
165 3 0.445208 0.0616864 0.36557
161 1 0.4404 0.0638068 0.38773
164 3 0.458445 0.0566912 0.400463
2871 4 0.447994 0.020048 0.345576
2646 4 0.470998 0.0700256 0.392325
2644 2 0.494535 0.0691027 0.400712
163 3 0.435448 0.0859297 0.392675
2816 4 0.315197 0.112243 0.396278
2850 4 0.343528 0.0949005 0.326084
2714 4 0.385343 0.0964252 0.412698
2502 4 0.396561 0.111787 0.418108
470 4 0.0114811 0.237698 0.362037
469 2 0.00429477 0.225808 0.382825
2450 4 0.13148 0.231565 0.369042
2449 2 0.112143 0.247417 0.369135
3461 4 0.333501 0.241778 0.416841
726 4 0.458828 0.217916 0.342971
724 2 0.454486 0.24214 0.34739
3080 4 0.499025 0.199872 0.426064
3631 2 0.061763 0.266918 0.391517
3632 4 0.0734108 0.260712 0.370281
2710 2 0.0123238 0.334489 0.407189
2700 4 0.150129 0.237959 0.364087
2451 4 0.0928068 0.263268 0.369228
2831 4 0.155175 0.323065 0.419344
2830 2 0.164525 0.323331 0.396155
453 4 0.136262 0.32116 0.41315
2698 2 0.172078 0.249922 0.364669
2699 4 0.194027 0.261884 0.365251
479 4 0.204969 0.254639 0.351023
478 2 0.229881 0.256148 0.349504
2832 4 0.173875 0.323597 0.372967
2499 4 0.240635 0.310582 0.361251
2497 2 0.216968 0.315298 0.367793
2498 4 0.193301 0.320014 0.374335
480 4 0.254793 0.257657 0.347985
2567 4 0.253739 0.323483 0.354615
1394 4 0.271108 0.254505 0.361117
1393 2 0.289095 0.268102 0.35031
1395 4 0.307082 0.2817 0.339504
1034 4 0.329144 0.317713 0.405276
2786 4 0.324019 0.272594 0.334899
411 4 0.341348 0.254686 0.403001
410 4 0.338629 0.303749 0.393711
409 2 0.339989 0.279217 0.398356
1032 4 0.385559 0.276497 0.351097
2787 4 0.373884 0.276368 0.334811
2785 2 0.348952 0.274481 0.334855
1033 2 0.347927 0.333062 0.399209
1030 2 0.410464 0.278129 0.349593
118 3 0.476394 0.30632 0.336039
117 3 0.441405 0.299309 0.34784
372 4 0.485044 0.314661 0.380341
1031 4 0.435369 0.279761 0.348088
725 4 0.450144 0.266364 0.351808
120 3 0.46888 0.275532 0.356368
116 1 0.463672 0.297492 0.35332
119 3 0.467574 0.309343 0.372883
3594 4 0.0182455 0.371261 0.406974
3640 2 0.062964 0.390966 0.398975
3641 4 0.0833633 0.384919 0.385842
2712 4 0.0285268 0.353493 0.40841
3592 2 0.00862228 0.393553 0.412943
585 4 0.375523 0.33994 0.377994
1035 4 0.36671 0.348411 0.393143
583 2 0.388765 0.361125 0.379012
584 4 0.402007 0.38231 0.38003
893 4 0.406246 0.397596 0.366317
569 4 0.45443 0.418546 0.344959
894 4 0.435691 0.425284 0.336871
568 2 0.47678 0.407342 0.345383
892 2 0.420969 0.41144 0.351594
4323 4 0.0336931 0.46101 0.362631
4321 2 0.0109251 0.451353 0.366312
447 4 0.0441913 0.474722 0.37242
445 2 0.0686425 0.470712 0.369065
2825 4 0.150623 0.438229 0.386714
2824 2 0.12738 0.445795 0.381451
2826 4 0.104136 0.45336 0.376188
446 4 0.0930937 0.466703 0.36571
2532 4 0.400292 0.489947 0.352109
548 4 0.501794 0.465985 0.385142
1310 4 0.443621 0.490857 0.327688
4032 4 0.452972 0.499468 0.34368
2899 2 0.062214 0.0310561 0.416564
1180 2 0.015835 0.082266 0.453583
1181 4 0.0373055 0.0721818 0.461489
2553 4 0.0580638 0.0267465 0.504373
2901 4 0.0833363 0.0440284 0.41984
3174 4 0.0958227 0.0499652 0.434102
3173 4 0.115182 0.0666861 0.477071
3172 2 0.105502 0.0583256 0.455586
841 2 0.412855 0.0125843 0.463542
1061 4 0.389558 0.0103729 0.426303
842 4 0.401545 0.0182158 0.441965
843 4 0.424164 0.00695288 0.485119
2584 2 0.109588 0.149482 0.50082
2586 4 0.0892875 0.16246 0.49414
937 2 0.165431 0.15138 0.492894
2817 4 0.312206 0.091604 0.44173
2815 2 0.313702 0.101923 0.419004
2500 2 0.413435 0.11526 0.43623
3033 4 0.490626 0.136669 0.463183
2501 4 0.430309 0.118733 0.454352
3032 4 0.441069 0.134944 0.456716
3031 2 0.465847 0.135806 0.45995
763 2 0.994993 0.17749 0.478385
765 4 0.0177317 0.174612 0.488377
2684 4 0.0310532 0.187884 0.494669
2683 2 0.0516954 0.174482 0.499081
938 4 0.184656 0.167087 0.489917
3460 2 0.354706 0.230808 0.42427
3462 4 0.375911 0.219838 0.431698
3497 4 0.389973 0.228426 0.443978
3496 2 0.412392 0.220949 0.435812
3081 4 0.449331 0.20102 0.43153
3079 2 0.474178 0.200446 0.428797
3498 4 0.43481 0.213472 0.427645
3633 4 0.0501152 0.273125 0.412754
364 2 0.0139721 0.281813 0.435085
365 4 0.0375799 0.281557 0.426853
451 2 0.114731 0.317184 0.425225
452 4 0.0932001 0.313208 0.437299
305 4 0.372351 0.287006 0.44814
304 2 0.395752 0.27864 0.445385
306 4 0.419152 0.270274 0.442629
311 4 0.482271 0.255148 0.491934
3058 2 0.452071 0.27082 0.470117
3059 4 0.474331 0.269796 0.481459
3060 4 0.429812 0.271845 0.458776
3642 4 0.0425647 0.397013 0.412108
488 4 0.214157 0.369126 0.442356
487 2 0.23893 0.37234 0.443439
2923 2 0.289726 0.391308 0.419054
2924 4 0.266456 0.387362 0.427305
2925 4 0.312997 0.395255 0.410803
489 4 0.263703 0.375553 0.444521
3423 4 0.0337802 0.405723 0.428033
3974 4 0.0317371 0.482062 0.49827
3422 4 0.0589144 0.440702 0.453439
3973 2 0.0471208 0.462971 0.493368
3421 2 0.0463473 0.423213 0.440736
2551 2 0.0768972 0.0274468 0.520805
2194 2 0.0204486 0.0258133 0.512668
2195 4 0.039049 0.0175833 0.498126
2552 4 0.0957306 0.0281471 0.537236
760 2 0.0874308 0.0427662 0.574968
762 4 0.0887838 0.0267628 0.555805
2685 4 0.0723376 0.161079 0.503493
939 4 0.146206 0.135673 0.495871
2585 4 0.129889 0.136504 0.507501
2244 4 0.0640941 0.262613 0.570089
806 4 0.0801949 0.272363 0.566072
803 4 0.151648 0.319949 0.535174
805 2 0.102593 0.280883 0.573208
807 4 0.124992 0.289402 0.580343
802 2 0.170297 0.306051 0.525997
804 4 0.188947 0.292153 0.51682
1238 4 0.206996 0.297744 0.513449
1237 2 0.22602 0.305473 0.527716
1239 4 0.245044 0.313202 0.541983
891 4 0.247068 0.317479 0.562448
889 2 0.271897 0.315434 0.564578
890 4 0.296726 0.31339 0.566709
82 3 0.314862 0.30596 0.562234
85 3 0.338584 0.28129 0.547349
81 1 0.336788 0.299042 0.561503
83 3 0.349939 0.316585 0.553908
3420 4 0.370203 0.316421 0.558019
3418 2 0.391511 0.306129 0.5661
3419 4 0.412818 0.295838 0.57418
1696 2 0.0754568 0.409234 0.509211
3453 4 0.0881659 0.369175 0.581941
1698 4 0.0871627 0.388318 0.51633
3452 4 0.0950648 0.385233 0.535087
3451 2 0.0916153 0.377204 0.558514
407 4 0.139236 0.334803 0.536147
408 4 0.106938 0.358592 0.506286
406 2 0.123087 0.346698 0.521216
3464 4 0.136913 0.39122 0.563708
3463 2 0.132755 0.409747 0.579976
3367 2 0.374174 0.399264 0.520186
3368 4 0.396954 0.388969 0.519663
1281 4 0.405384 0.402451 0.531165
3369 4 0.351393 0.409558 0.520708
1279 2 0.422175 0.414079 0.545589
792 4 0.0129837 0.442407 0.558133
790 2 0.0334906 0.456702 0.557552
1137 4 0.0741989 0.472424 0.553552
791 4 0.0539974 0.470996 0.556972
3975 4 0.0625045 0.443879 0.488465
1697 4 0.0637509 0.43015 0.502092
1135 2 0.0941197 0.480431 0.566368
1136 4 0.114041 0.488438 0.579183
798 4 0.13322 0.483413 0.583362
540 4 0.304956 0.448975 0.549716
538 2 0.323085 0.438285 0.536217
4213 2 0.275511 0.433806 0.574197
4214 4 0.298208 0.440562 0.566172
539 4 0.341214 0.427595 0.522717
2171 4 0.3927 0.486923 0.518172
1280 4 0.438966 0.425708 0.560012
878 4 0.443131 0.439521 0.545729
877 2 0.458691 0.457252 0.537441
879 4 0.474251 0.474983 0.529153
2214 4 0.483016 0.476756 0.547969
2212 2 0.495077 0.498393 0.551366
4324 2 0.0400159 0.0594964 0.607409
4325 4 0.0590512 0.0754503 0.604527
4326 4 0.0209805 0.0435424 0.610292
3294 4 0.0121992 0.0797404 0.655765
3292 2 0.0356562 0.0883825 0.65525
761 4 0.0860778 0.0587697 0.594132
3360 4 0.0163542 0.031419 0.594684
4116 4 0.00453924 0.0615039 0.653605
3105 4 0.311536 0.0126939 0.646695
4227 4 0.323963 0.0173072 0.608036
4225 2 0.315943 0.99551 0.598776
2281 2 0.370423 0.056754 0.639779
3083 4 0.400536 0.0577124 0.636558
2282 4 0.388521 0.0738016 0.637128
2283 4 0.352325 0.0397064 0.64243
3082 2 0.425386 0.0563093 0.634171
3084 4 0.450235 0.0549061 0.631785
269 4 0.467543 0.0592311 0.641221
268 2 0.488854 0.0537018 0.629371
142 3 0.0179457 0.150806 0.64828
1107 4 0.0674122 0.130309 0.641305
1105 2 0.052962 0.15048 0.638221
3020 4 0.0667444 0.109409 0.641489
3021 4 0.097956 0.0867792 0.609639
3019 2 0.0823502 0.098094 0.625564
3385 2 0.0476749 0.2117 0.633686
3387 4 0.0481079 0.187752 0.640864
1106 4 0.0385118 0.17065 0.635137
3386 4 0.047242 0.235647 0.626509
2243 4 0.0566121 0.232004 0.608922
2242 2 0.0603531 0.247309 0.589506
978 4 0.132494 0.295945 0.597254
976 2 0.133517 0.319676 0.605064
905 4 0.338435 0.314815 0.641506
84 3 0.343414 0.292843 0.582859
904 2 0.345343 0.302398 0.620933
3380 4 0.335382 0.333679 0.64022
906 4 0.35225 0.28998 0.60036
977 4 0.13454 0.343407 0.612873
997 2 0.206619 0.343107 0.650203
999 4 0.181962 0.345663 0.646935
998 4 0.231276 0.34055 0.65347
1041 4 0.237816 0.35851 0.644888
4446 4 0.204846 0.407761 0.67448
4444 2 0.2279 0.414575 0.667607
1039 2 0.260276 0.368661 0.640683
3381 4 0.298868 0.367814 0.641734
1040 4 0.282736 0.378813 0.636479
3379 2 0.317125 0.350746 0.640977
3465 4 0.128597 0.428273 0.596245
797 4 0.137581 0.441248 0.60989
796 2 0.1354 0.46233 0.596626
4215 4 0.252814 0.427049 0.582222
1205 4 0.486901 0.450652 0.601137
772 2 0.455592 0.470796 0.618538
773 4 0.467269 0.453115 0.605264
3293 4 0.0591133 0.0970245 0.654734
2307 4 0.0265474 0.0775255 0.733364
954 4 0.0677785 0.0906755 0.670731
2305 2 0.00369595 0.067963 0.729964
3610 2 0.198669 0.00911574 0.695136
3611 4 0.217286 0.0250406 0.690135
4503 4 0.235043 0.0341258 0.695178
4501 2 0.259268 0.0289289 0.698552
3104 4 0.29043 0.00833304 0.69182
3103 2 0.300983 0.0105135 0.669258
4502 4 0.283492 0.0237321 0.701926
4228 2 0.490702 0.0152002 0.687905
4229 4 0.465873 0.0127575 0.686245
3063 4 0.487664 0.0821055 0.705428
1581 4 0.465245 0.995643 0.69745
141 1 0.00742812 0.143661 0.66745
143 3 0.0223103 0.145191 0.685186
2978 4 0.0396652 0.136817 0.692348
2977 2 0.0636336 0.136975 0.699466
4441 2 0.041502 0.11424 0.751392
4442 4 0.0272864 0.094855 0.744512
2979 4 0.0876019 0.137132 0.706584
952 2 0.0878222 0.0895406 0.685636
953 4 0.107866 0.0884056 0.70054
1077 4 0.122843 0.0949626 0.712604
1075 2 0.143291 0.109206 0.710551
1076 4 0.163738 0.123449 0.708498
1084 2 0.124533 0.15899 0.711769
1085 4 0.148276 0.166587 0.713702
1086 4 0.10079 0.151392 0.709835
1013 4 0.215177 0.147482 0.723409
1012 2 0.23687 0.139342 0.732808
1014 4 0.258563 0.131201 0.742207
897 4 0.16206 0.181356 0.717438
896 4 0.208929 0.164176 0.714454
895 2 0.185495 0.172766 0.715946
3252 4 0.211194 0.242041 0.69425
3250 2 0.234606 0.250458 0.696741
2973 4 0.204152 0.244805 0.713077
3038 4 0.49863 0.186427 0.67247
3357 4 0.486861 0.180427 0.726807
3037 2 0.491003 0.175735 0.693747
3039 4 0.483376 0.165044 0.715025
3091 2 0.0303593 0.287704 0.698298
3092 4 0.0532442 0.293003 0.689731
3435 4 0.0728654 0.300054 0.690872
3433 2 0.086761 0.290399 0.70928
1299 4 0.0457229 0.348053 0.745078
2972 4 0.158477 0.264991 0.71042
383 4 0.0971486 0.276339 0.74752
3434 4 0.100657 0.280744 0.727689
2971 2 0.181314 0.254898 0.711749
3251 4 0.258018 0.258876 0.699232
738 4 0.278011 0.257425 0.700886
736 2 0.288715 0.279984 0.702191
2981 4 0.311186 0.305781 0.718667
737 4 0.299419 0.302543 0.703497
2980 2 0.327197 0.305706 0.737871
1297 2 0.0571628 0.356288 0.724426
1068 4 0.0733389 0.37076 0.685213
1298 4 0.0686028 0.364523 0.703774
1067 4 0.121438 0.358109 0.679995
3112 2 0.156263 0.34585 0.677876
1066 2 0.0973885 0.364434 0.682604
3113 4 0.134396 0.346372 0.689992
3114 4 0.178129 0.345328 0.665761
4523 4 0.187048 0.403152 0.667364
1087 2 0.179998 0.41817 0.732364
4361 4 0.399288 0.37532 0.740181
4360 2 0.419501 0.389431 0.744363
4362 4 0.439714 0.403543 0.748544
820 2 0.0227597 0.491331 0.70827
822 4 0.0288626 0.468633 0.69974
1235 4 0.0484557 0.46514 0.700984
1234 2 0.0678389 0.453465 0.711622
4524 4 0.154038 0.435145 0.68705
885 4 0.153738 0.437807 0.70615
1236 4 0.0872221 0.441791 0.722261
883 2 0.130322 0.440138 0.714601
884 4 0.106905 0.442469 0.723052
1089 4 0.162092 0.422401 0.715432
4522 2 0.170543 0.419148 0.677207
4207 2 0.238895 0.445199 0.739454
4209 4 0.233076 0.46579 0.726518
3012 4 0.245513 0.503796 0.698336
4208 4 0.244714 0.424609 0.75239
2287 2 0.225058 0.498383 0.736085
4445 4 0.250954 0.421389 0.660734
2061 4 0.262208 0.436029 0.670418
2059 2 0.274697 0.448975 0.687785
2060 4 0.287186 0.46192 0.705152
1170 4 0.306381 0.46476 0.711288
1168 2 0.324006 0.450372 0.721658
1169 4 0.341631 0.435983 0.732027
4197 4 0.490514 0.478994 0.741803
207 3 0.0157702 0.0386606 0.823031
1125 4 0.0360043 0.0893359 0.819967
208 3 0.000606413 0.0119116 0.801416
817 2 0.149563 0.0194159 0.788651
819 4 0.163154 0.0380256 0.778948
886 2 0.163261 0.0762598 0.793844
818 4 0.135972 0.000806163 0.798354
887 4 0.169054 0.0572881 0.778622
1216 2 0.303602 0.00835388 0.76805
1218 4 0.319688 0.0274954 0.767914
2001 4 0.338617 0.0301374 0.773764
2000 4 0.375801 0.0125087 0.802176
3554 4 0.407027 0.0740305 0.806463
3553 2 0.421101 0.0559565 0.79644
1999 2 0.357209 0.021323 0.78797
4500 4 0.367445 0.996473 0.811014
3281 4 0.377547 0.0921564 0.769581
3555 4 0.435174 0.0378825 0.786417
3305 4 0.447598 0.0517819 0.780621
3304 2 0.472403 0.0528549 0.783575
3306 4 0.497208 0.0539279 0.786529
1208 4 0.0568461 0.152769 0.752587
4443 4 0.0557177 0.133625 0.758272
888 4 0.157468 0.0952315 0.809066
533 4 0.30222 0.130759 0.756957
532 2 0.310666 0.126246 0.780055
534 4 0.319112 0.121732 0.803152
1607 4 0.307164 0.133693 0.814099
3280 2 0.366607 0.0903073 0.791988
3282 4 0.355667 0.0884582 0.814395
4128 4 0.386188 0.109712 0.765038
4126 2 0.41025 0.116505 0.764897
4127 4 0.434313 0.123298 0.764756
3299 4 0.449368 0.134359 0.774802
3298 2 0.472986 0.1425 0.775855
3300 4 0.496604 0.15064 0.776908
3041 4 0.472118 0.0797299 0.84649
1207 2 0.0393389 0.169176 0.759622
3151 2 0.0684368 0.184429 0.822661
1209 4 0.0218317 0.185583 0.766657
1691 4 0.00294506 0.191422 0.762228
384 4 0.0812775 0.235408 0.771468
3153 4 0.0888293 0.177552 0.809931
779 4 0.106829 0.183484 0.807566
778 2 0.125292 0.198098 0.815976
780 4 0.143756 0.212711 0.824387
1618 2 0.185339 0.205309 0.825528
56 1 0.248522 0.207337 0.823798
60 3 0.250399 0.228187 0.814832
58 3 0.22622 0.200962 0.824414
747 4 0.246394 0.234851 0.795079
1620 4 0.208671 0.199386 0.832287
57 3 0.260167 0.192398 0.810746
745 2 0.266211 0.249782 0.791996
481 2 0.322027 0.248363 0.807981
3441 4 0.403917 0.181566 0.813427
3439 2 0.386246 0.185163 0.830747
924 4 0.375363 0.241552 0.78084
922 2 0.395143 0.230361 0.791266
482 4 0.33895 0.237171 0.822595
2628 4 0.410972 0.177271 0.795444
923 4 0.414923 0.21917 0.801692
3355 2 0.479119 0.190028 0.748557
2626 2 0.432691 0.186778 0.7875
2627 4 0.454409 0.196285 0.779556
3356 4 0.471376 0.199629 0.770307
3350 4 0.429872 0.228532 0.792979
3349 2 0.448691 0.242313 0.801987
382 2 0.089213 0.255874 0.759494
746 4 0.286028 0.264714 0.788912
483 4 0.305105 0.259555 0.793368
1132 2 0.315465 0.314524 0.827231
1134 4 0.294757 0.300688 0.829454